{
	 "smiles": "FC(F)(F)C1=C(I)C=CC(=C1)C#N", 
	 "Tm": 374.15, 
	 "num_atms": 16, 
	 "gaussian": { 
		 "optdone": 1, 
		 "sigma_profile": "yes", 
		 "theory": "DFT", 
		 "functional": "B3LYP", 
		 "basiset": "6-31G**", 
		 "properties": { 
			 "R2extent": 3547.3474, 
			 "electric_dipole_moment_norm": 2.98885906995, 
			 "electric_quadrupole_moment_norm": 10.4372818392, 
			 "total_energy": -672.296753201, 
			 "HOMO_LUMO_gap": 0.18617, 
			 "cosmo_polarized_energy": -8.93, 
			 "cosmo_cavitation_energy": 26.2, 
			 "cosmo_dispersion_energy": -19.48, 
			 "cosmo_repulsion_energy": 1.44, 
			 "cosmo_total_nonelectrostatic_energy": 8.17, 
			 "SMD_solvation_energy": 6.22 
		},
		"coords": [
			{
				"x": -0.8503309091,
				"y": 4.4362497958,
				"z": 0.0593581169,
				"element": "F" 
			},
			{
				"x": -1.4508878452,
				"y": 3.3038129284,
				"z": -0.3556307917,
				"element": "C" 
			},
			{
				"x": -2.6220133978,
				"y": 3.2074104871,
				"z": 0.3083690803,
				"element": "F" 
			},
			{
				"x": -1.7452523933,
				"y": 3.4507661275,
				"z": -1.6621691642,
				"element": "F" 
			},
			{
				"x": -0.5784135465,
				"y": 2.0867286757,
				"z": -0.1124628936,
				"element": "C" 
			},
			{
				"x": 0.6967399966,
				"y": 1.9308094507,
				"z": -0.6861832237,
				"element": "C" 
			},
			{
				"x": 1.588813636,
				"y": 3.3590348029,
				"z": -1.9678257155,
				"element": "I" 
			},
			{
				"x": 1.4481560754,
				"y": 0.7813058258,
				"z": -0.4187303372,
				"element": "C" 
			},
			{
				"x": 0.9474232182,
				"y": -0.2151736956,
				"z": 0.4121732972,
				"element": "C" 
			},
			{
				"x": -0.3221176888,
				"y": -0.0686213189,
				"z": 0.9883365465,
				"element": "C" 
			},
			{
				"x": -1.0747821427,
				"y": 1.0826394276,
				"z": 0.7205000225,
				"element": "C" 
			},
			{
				"x": -0.8510590509,
				"y": -1.0878201491,
				"z": 1.8468902305,
				"element": "C" 
			},
			{
				"x": -1.2758238468,
				"y": -1.917193238,
				"z": 2.5425851932,
				"element": "N" 
			},
			{
				"x": 2.4298670876,
				"y": 0.6650342779,
				"z": -0.86265965,
				"element": "H" 
			},
			{
				"x": 1.5364672059,
				"y": -1.1032504319,
				"z": 0.6143615168,
				"element": "H" 
			},
			{
				"x": -2.0554863986,
				"y": 1.1984670341,
				"z": 1.164087772,
				"element": "H" 
			}
		],
		 "valence_orbital": [ 
			{
				"type": "occ",
				"energy": -0.34718,
				"method": "rhf"
			},
			{
				"type": "occ",
				"energy": -0.31525,
				"method": "rhf"
			},
			{
				"type": "occ",
				"energy": -0.30491,
				"method": "rhf"
			},
			{
				"type": "occ",
				"energy": -0.28718,
				"method": "rhf"
			},
			{
				"type": "occ",
				"energy": -0.26689,
				"method": "rhf"
			},
			{
				"type": "unocc",
				"energy": -0.08072,
				"method": "rhf"
			},
			{
				"type": "unocc",
				"energy": -0.06277,
				"method": "rhf"
			},
			{
				"type": "unocc",
				"energy": -0.057,
				"method": "rhf"
			},
			{
				"type": "unocc",
				"energy": 0.01936,
				"method": "rhf"
			},
			{
				"type": "unocc",
				"energy": 0.03303,
				"method": "rhf"
			}
		],
		"cosmo_sigma_profile": { 
			"-0.025": 0.0,
			"-0.024": 0.0,
			"-0.023": 0.0,
			"-0.022": 0.0,
			"-0.021": 0.0,
			"-0.02": 0.0,
			"-0.019": 0.0,
			"-0.018": 0.0,
			"-0.017": 0.0,
			"-0.016": 0.0,
			"-0.015": 0.0,
			"-0.014": 0.0,
			"-0.013": 0.0,
			"-0.012": 0.0,
			"-0.011": 0.0,
			"-0.01": 0.667859932606,
			"-0.009": 4.7803683946,
			"-0.008": 8.13800813505,
			"-0.007": 6.66984480909,
			"-0.006": 6.72904026446,
			"-0.005": 8.44893519561,
			"-0.004": 10.7751427318,
			"-0.003": 12.4626099865,
			"-0.002": 15.8086494393,
			"-0.001": 24.0896100225,
			"0.0": 17.7164661484,
			"0.001": 15.2520001222,
			"0.002": 28.8203003723,
			"0.003": 27.7420780429,
			"0.004": 6.60897772559,
			"0.005": 2.52717973691,
			"0.006": 2.55024092152,
			"0.007": 3.27542238033,
			"0.008": 3.30772445015,
			"0.009": 3.38123491749,
			"0.01": 2.7370025856,
			"0.011": 2.64566768466,
			"0.012": 1.98749548575,
			"0.013": 0.583639343696,
			"0.014": 0.0,
			"0.015": 0.0,
			"0.016": 0.0,
			"0.017": 0.0,
			"0.018": 0.0,
			"0.019": 0.0,
			"0.02": 0.0,
			"0.021": 0.0,
			"0.022": 0.0,
			"0.023": 0.0,
			"0.024": 0.0,
			"0.025": 0.0
		}
	}
}
