{
	 "smiles": "NC1=NN=C(SCC2COC3=C(O2)C=CC=C3)S1", 
	 "Tm": 435.15, 
	 "num_atms": 29, 
	 "gaussian": { 
		 "optdone": 1, 
		 "sigma_profile": "yes", 
		 "theory": "DFT", 
		 "functional": "B3LYP", 
		 "basiset": "6-31G**", 
		 "properties": { 
			 "R2extent": 7762.1793, 
			 "electric_dipole_moment_norm": 3.34719022614, 
			 "electric_quadrupole_moment_norm": 20.1134921155, 
			 "total_energy": -1536.82498865, 
			 "HOMO_LUMO_gap": 0.17921, 
			 "cosmo_polarized_energy": -17.63, 
			 "cosmo_cavitation_energy": 36.41, 
			 "cosmo_dispersion_energy": -27.76, 
			 "cosmo_repulsion_energy": 2.07, 
			 "cosmo_total_nonelectrostatic_energy": 10.72, 
			 "SMD_solvation_energy": 3.91 
		},
		"coords": [
			{
				"x": 4.2145742942,
				"y": 2.7901194677,
				"z": -1.6249379769,
				"element": "N" 
			},
			{
				"x": 2.8961066187,
				"y": 2.4163068993,
				"z": -1.5177531585,
				"element": "C" 
			},
			{
				"x": 2.2669171908,
				"y": 2.2959636484,
				"z": -0.3838495279,
				"element": "N" 
			},
			{
				"x": 0.9334949698,
				"y": 2.0026554517,
				"z": -0.5433601486,
				"element": "N" 
			},
			{
				"x": 0.5704172166,
				"y": 1.8908280789,
				"z": -1.7822256777,
				"element": "C" 
			},
			{
				"x": -1.0580343986,
				"y": 1.507851024,
				"z": -2.3492060754,
				"element": "S" 
			},
			{
				"x": -1.937451487,
				"y": 1.382652978,
				"z": -0.7437612207,
				"element": "C" 
			},
			{
				"x": -1.7155529175,
				"y": 0.0698375602,
				"z": 0.0051445911,
				"element": "C" 
			},
			{
				"x": -2.28058888,
				"y": -1.1583609831,
				"z": -0.7022534271,
				"element": "C" 
			},
			{
				"x": -2.0642102995,
				"y": -2.3278088679,
				"z": 0.083327672,
				"element": "O" 
			},
			{
				"x": -2.4025043885,
				"y": -2.179220314,
				"z": 1.4070687014,
				"element": "C" 
			},
			{
				"x": -2.5707396914,
				"y": -0.91028579,
				"z": 1.9840574468,
				"element": "C" 
			},
			{
				"x": -2.3952155356,
				"y": 0.2440306879,
				"z": 1.2567537712,
				"element": "O" 
			},
			{
				"x": -2.9281984516,
				"y": -0.7998429777,
				"z": 3.3283103721,
				"element": "C" 
			},
			{
				"x": -3.1070044922,
				"y": -1.9468830271,
				"z": 4.1003095679,
				"element": "C" 
			},
			{
				"x": -2.919408631,
				"y": -3.2098583167,
				"z": 3.5313357892,
				"element": "C" 
			},
			{
				"x": -2.5723653127,
				"y": -3.3244795932,
				"z": 2.1859808794,
				"element": "C" 
			},
			{
				"x": 1.8778974596,
				"y": 2.1687220751,
				"z": -2.9450180048,
				"element": "S" 
			},
			{
				"x": 4.6921214954,
				"y": 2.7741728556,
				"z": -0.7319119095,
				"element": "H" 
			},
			{
				"x": 4.7464159985,
				"y": 2.3700474677,
				"z": -2.3744229703,
				"element": "H" 
			},
			{
				"x": -1.620113365,
				"y": 2.2144196798,
				"z": -0.1129892403,
				"element": "H" 
			},
			{
				"x": -2.995451187,
				"y": 1.5107709786,
				"z": -0.9913751737,
				"element": "H" 
			},
			{
				"x": -0.6451023141,
				"y": -0.0749414716,
				"z": 0.194114283,
				"element": "H" 
			},
			{
				"x": -3.3574724917,
				"y": -1.016938379,
				"z": -0.8790542952,
				"element": "H" 
			},
			{
				"x": -1.7809349959,
				"y": -1.3305325504,
				"z": -1.6572020558,
				"element": "H" 
			},
			{
				"x": -3.0524285582,
				"y": 0.1938980295,
				"z": 3.7466533996,
				"element": "H" 
			},
			{
				"x": -3.3830858025,
				"y": -1.8523268853,
				"z": 5.145946576,
				"element": "H" 
			},
			{
				"x": -3.050427512,
				"y": -4.1057212703,
				"z": 4.1303443827,
				"element": "H" 
			},
			{
				"x": -2.4315545315,
				"y": -4.2915764562,
				"z": 1.71377343,
				"element": "H" 
			}
		],
		 "valence_orbital": [ 
			{
				"type": "occ",
				"energy": -0.27703,
				"method": "rhf"
			},
			{
				"type": "occ",
				"energy": -0.2695,
				"method": "rhf"
			},
			{
				"type": "occ",
				"energy": -0.22962,
				"method": "rhf"
			},
			{
				"type": "occ",
				"energy": -0.22427,
				"method": "rhf"
			},
			{
				"type": "occ",
				"energy": -0.2065,
				"method": "rhf"
			},
			{
				"type": "unocc",
				"energy": -0.02729,
				"method": "rhf"
			},
			{
				"type": "unocc",
				"energy": -0.01725,
				"method": "rhf"
			},
			{
				"type": "unocc",
				"energy": 0.00772,
				"method": "rhf"
			},
			{
				"type": "unocc",
				"energy": 0.01236,
				"method": "rhf"
			},
			{
				"type": "unocc",
				"energy": 0.02072,
				"method": "rhf"
			}
		],
		"cosmo_sigma_profile": { 
			"-0.025": 0.0,
			"-0.024": 0.0,
			"-0.023": 0.0,
			"-0.022": 0.0,
			"-0.021": 0.0,
			"-0.02": 0.0,
			"-0.019": 0.0,
			"-0.018": 0.0,
			"-0.017": 0.0,
			"-0.016": 0.0,
			"-0.015": 1.33676759172,
			"-0.014": 2.84571598005,
			"-0.013": 2.75745919917,
			"-0.012": 3.21130352755,
			"-0.011": 2.73320560633,
			"-0.01": 1.75895719344,
			"-0.009": 2.77803235195,
			"-0.008": 5.26125044302,
			"-0.007": 5.54095902332,
			"-0.006": 11.7858773985,
			"-0.005": 19.3761300097,
			"-0.004": 19.4929921702,
			"-0.003": 19.9049939001,
			"-0.002": 15.9077550112,
			"-0.001": 22.0016111609,
			"0.0": 22.3693374267,
			"0.001": 18.0446960476,
			"0.002": 20.5810678317,
			"0.003": 19.7047015563,
			"0.004": 18.6891722373,
			"0.005": 15.9424578299,
			"0.006": 12.5059350836,
			"0.007": 5.67391484693,
			"0.008": 5.16168950565,
			"0.009": 4.67741568991,
			"0.01": 4.5579378948,
			"0.011": 3.55611764183,
			"0.012": 2.87988655594,
			"0.013": 1.85369940947,
			"0.014": 1.09914058012,
			"0.015": 0.684568707119,
			"0.016": 0.0,
			"0.017": 0.0,
			"0.018": 0.0,
			"0.019": 0.0,
			"0.02": 0.0,
			"0.021": 0.0,
			"0.022": 0.0,
			"0.023": 0.0,
			"0.024": 0.0,
			"0.025": 0.0
		}
	}
}
