{
	 "smiles": "CCN(CC)S(=O)(=O)C1=CC(N)=C(C=C1)N1CCN(C)CC1", 
	 "Tm": 423.15, 
	 "num_atms": 48, 
	 "gaussian": { 
		 "optdone": 1, 
		 "sigma_profile": "yes", 
		 "theory": "DFT", 
		 "functional": "B3LYP", 
		 "basiset": "6-31G**", 
		 "properties": { 
			 "R2extent": 10675.7516, 
			 "electric_dipole_moment_norm": 5.61871070264, 
			 "electric_quadrupole_moment_norm": 25.2623392288, 
			 "total_energy": -1354.818614, 
			 "HOMO_LUMO_gap": 0.17756, 
			 "cosmo_polarized_energy": -18.66, 
			 "cosmo_cavitation_energy": 48.13, 
			 "cosmo_dispersion_energy": -33.36, 
			 "cosmo_repulsion_energy": 2.52, 
			 "cosmo_total_nonelectrostatic_energy": 17.29, 
			 "SMD_solvation_energy": 3.36 
		},
		"coords": [
			{
				"x": -1.4839930213,
				"y": -5.7758230902,
				"z": -0.7403011688,
				"element": "C" 
			},
			{
				"x": -0.5833332208,
				"y": -5.1588207489,
				"z": -1.8097937117,
				"element": "C" 
			},
			{
				"x": -0.60066024,
				"y": -3.6813111243,
				"z": -1.757989008,
				"element": "N" 
			},
			{
				"x": -1.8577133174,
				"y": -3.0292954274,
				"z": -2.1947279149,
				"element": "C" 
			},
			{
				"x": -2.6590519127,
				"y": -2.443193459,
				"z": -1.0307975845,
				"element": "C" 
			},
			{
				"x": 0.8233058552,
				"y": -2.9272907192,
				"z": -2.3127922432,
				"element": "S" 
			},
			{
				"x": 0.7123464801,
				"y": -2.5472463825,
				"z": -3.7319893476,
				"element": "O" 
			},
			{
				"x": 1.9338355125,
				"y": -3.7821248765,
				"z": -1.8748066379,
				"element": "O" 
			},
			{
				"x": 0.8323311459,
				"y": -1.4143528476,
				"z": -1.3573802064,
				"element": "C" 
			},
			{
				"x": 0.7660030504,
				"y": -0.1947721811,
				"z": -2.0310520167,
				"element": "C" 
			},
			{
				"x": 0.8338640945,
				"y": 1.0058501064,
				"z": -1.3188256628,
				"element": "C" 
			},
			{
				"x": 0.7966711929,
				"y": 2.2403002725,
				"z": -1.9764418268,
				"element": "N" 
			},
			{
				"x": 0.9304957286,
				"y": 0.9739868834,
				"z": 0.101035037,
				"element": "C" 
			},
			{
				"x": 1.0339704806,
				"y": -0.2715277304,
				"z": 0.7403773948,
				"element": "C" 
			},
			{
				"x": 0.9921002659,
				"y": -1.467404437,
				"z": 0.0260362491,
				"element": "C" 
			},
			{
				"x": 0.9872954246,
				"y": 2.2038903693,
				"z": 0.7927344723,
				"element": "N" 
			},
			{
				"x": 1.6022220127,
				"y": 2.210354978,
				"z": 2.1247856672,
				"element": "C" 
			},
			{
				"x": 1.5725431042,
				"y": 3.6259311573,
				"z": 2.6911147572,
				"element": "C" 
			},
			{
				"x": 0.1929487482,
				"y": 4.0344225873,
				"z": 2.9759595476,
				"element": "N" 
			},
			{
				"x": 0.0750635221,
				"y": 5.478293726,
				"z": 3.099508976,
				"element": "C" 
			},
			{
				"x": -0.7746476632,
				"y": 3.4204291032,
				"z": 2.0517743564,
				"element": "C" 
			},
			{
				"x": -0.1826783511,
				"y": 3.1157334398,
				"z": 0.6703074838,
				"element": "C" 
			},
			{
				"x": -1.4026256963,
				"y": -6.8672720881,
				"z": -0.7780250731,
				"element": "H" 
			},
			{
				"x": -1.1858039954,
				"y": -5.4405255502,
				"z": 0.2573655965,
				"element": "H" 
			},
			{
				"x": -2.5376476868,
				"y": -5.5196320294,
				"z": -0.8887036318,
				"element": "H" 
			},
			{
				"x": -0.8883345164,
				"y": -5.5101684769,
				"z": -2.8077487843,
				"element": "H" 
			},
			{
				"x": 0.447661676,
				"y": -5.4761488461,
				"z": -1.6495186674,
				"element": "H" 
			},
			{
				"x": -2.4559414367,
				"y": -3.770424924,
				"z": -2.7395830152,
				"element": "H" 
			},
			{
				"x": -1.6239215756,
				"y": -2.2459655749,
				"z": -2.9217231778,
				"element": "H" 
			},
			{
				"x": -3.5785662642,
				"y": -1.9782544735,
				"z": -1.4041528588,
				"element": "H" 
			},
			{
				"x": -2.0768287443,
				"y": -1.6813980311,
				"z": -0.5058726943,
				"element": "H" 
			},
			{
				"x": -2.9369325771,
				"y": -3.2139642072,
				"z": -0.3067440724,
				"element": "H" 
			},
			{
				"x": 0.6997471263,
				"y": -0.1899164659,
				"z": -3.1144109357,
				"element": "H" 
			},
			{
				"x": 1.0408290941,
				"y": 2.1847087937,
				"z": -2.9570393045,
				"element": "H" 
			},
			{
				"x": 1.3437838862,
				"y": 2.9457944181,
				"z": -1.4951128835,
				"element": "H" 
			},
			{
				"x": 1.1401792341,
				"y": -0.3115816297,
				"z": 1.8181828172,
				"element": "H" 
			},
			{
				"x": 1.0683728615,
				"y": -2.4206788948,
				"z": 0.5361112197,
				"element": "H" 
			},
			{
				"x": 2.6352685731,
				"y": 1.8585080963,
				"z": 2.0355566271,
				"element": "H" 
			},
			{
				"x": 1.0904600771,
				"y": 1.5457788698,
				"z": 2.8403416852,
				"element": "H" 
			},
			{
				"x": 2.0651956641,
				"y": 4.3009420596,
				"z": 1.9648543019,
				"element": "H" 
			},
			{
				"x": 2.1621734481,
				"y": 3.6669893966,
				"z": 3.6157204593,
				"element": "H" 
			},
			{
				"x": 0.3120139006,
				"y": 6.0314467926,
				"z": 2.1692914257,
				"element": "H" 
			},
			{
				"x": -0.9395798501,
				"y": 5.7474515936,
				"z": 3.4087328613,
				"element": "H" 
			},
			{
				"x": 0.7628560266,
				"y": 5.8334935397,
				"z": 3.8749689182,
				"element": "H" 
			},
			{
				"x": -1.1585041428,
				"y": 2.4872509325,
				"z": 2.4861590423,
				"element": "H" 
			},
			{
				"x": -1.6342909929,
				"y": 4.0886684521,
				"z": 1.9381128508,
				"element": "H" 
			},
			{
				"x": 0.112713191,
				"y": 4.0559618672,
				"z": 0.1850625561,
				"element": "H" 
			},
			{
				"x": -0.9380961721,
				"y": 2.6525067808,
				"z": 0.0321381255,
				"element": "H" 
			}
		],
		 "valence_orbital": [ 
			{
				"type": "occ",
				"energy": -0.27849,
				"method": "rhf"
			},
			{
				"type": "occ",
				"energy": -0.23782,
				"method": "rhf"
			},
			{
				"type": "occ",
				"energy": -0.2316,
				"method": "rhf"
			},
			{
				"type": "occ",
				"energy": -0.21181,
				"method": "rhf"
			},
			{
				"type": "occ",
				"energy": -0.19677,
				"method": "rhf"
			},
			{
				"type": "unocc",
				"energy": -0.01921,
				"method": "rhf"
			},
			{
				"type": "unocc",
				"energy": 0.00188,
				"method": "rhf"
			},
			{
				"type": "unocc",
				"energy": 0.06558,
				"method": "rhf"
			},
			{
				"type": "unocc",
				"energy": 0.07037,
				"method": "rhf"
			},
			{
				"type": "unocc",
				"energy": 0.08148,
				"method": "rhf"
			}
		],
		"cosmo_sigma_profile": { 
			"-0.025": 0.0,
			"-0.024": 0.0,
			"-0.023": 0.0,
			"-0.022": 0.0,
			"-0.021": 0.0,
			"-0.02": 0.0,
			"-0.019": 0.0,
			"-0.018": 0.0,
			"-0.017": 0.0,
			"-0.016": 0.0,
			"-0.015": 0.0,
			"-0.014": 0.0,
			"-0.013": 0.442630144766,
			"-0.012": 1.27191392742,
			"-0.011": 2.0146019063,
			"-0.01": 2.59537879578,
			"-0.009": 2.3377215536,
			"-0.008": 2.63237798145,
			"-0.007": 2.95259806176,
			"-0.006": 5.79643418693,
			"-0.005": 13.3436719361,
			"-0.004": 34.5228419551,
			"-0.003": 49.1454106359,
			"-0.002": 53.5283498217,
			"-0.001": 41.0485702892,
			"0.0": 37.5103389813,
			"0.001": 24.3558393599,
			"0.002": 15.228283717,
			"0.003": 16.1907541174,
			"0.004": 13.6840530626,
			"0.005": 8.6868468366,
			"0.006": 6.76311765769,
			"0.007": 4.67993697713,
			"0.008": 3.73368529306,
			"0.009": 4.86959776127,
			"0.01": 6.20997311799,
			"0.011": 9.89616228773,
			"0.012": 7.97650169364,
			"0.013": 1.99746691394,
			"0.014": 0.655503286624,
			"0.015": 0.47925675277,
			"0.016": 0.405113273919,
			"0.017": 0.0976881853912,
			"0.018": 0.0,
			"0.019": 0.0,
			"0.02": 0.0,
			"0.021": 0.0,
			"0.022": 0.0,
			"0.023": 0.0,
			"0.024": 0.0,
			"0.025": 0.0
		}
	}
}
