{
	 "smiles": "NS(=O)(=O)C1=CC=C(OCC2=C(Cl)C=CC=C2)C=C1", 
	 "Tm": 453.15, 
	 "num_atms": 31, 
	 "gaussian": { 
		 "optdone": 1, 
		 "sigma_profile": "yes", 
		 "theory": "DFT", 
		 "functional": "B3LYP", 
		 "basiset": "6-31G**", 
		 "properties": { 
			 "R2extent": 10018.0205, 
			 "electric_dipole_moment_norm": 8.750444355, 
			 "electric_quadrupole_moment_norm": 23.6918898514, 
			 "total_energy": -1641.33995359, 
			 "HOMO_LUMO_gap": 0.20613, 
			 "cosmo_polarized_energy": -23.11, 
			 "cosmo_cavitation_energy": 39.14, 
			 "cosmo_dispersion_energy": -28.54, 
			 "cosmo_repulsion_energy": 2.15, 
			 "cosmo_total_nonelectrostatic_energy": 12.75, 
			 "SMD_solvation_energy": 6.05 
		},
		"coords": [
			{
				"x": 0.3503346229,
				"y": -5.4379343924,
				"z": 2.2290763334,
				"element": "N" 
			},
			{
				"x": 1.7233725283,
				"y": -4.5645679333,
				"z": 1.7874784994,
				"element": "S" 
			},
			{
				"x": 2.4336741234,
				"y": -4.304193684,
				"z": 3.038863318,
				"element": "O" 
			},
			{
				"x": 2.3128976659,
				"y": -5.3072495273,
				"z": 0.6740012916,
				"element": "O" 
			},
			{
				"x": 1.1622502423,
				"y": -2.9882013604,
				"z": 1.1469146713,
				"element": "C" 
			},
			{
				"x": 0.9448151401,
				"y": -1.9173166703,
				"z": 2.0246457767,
				"element": "C" 
			},
			{
				"x": 0.4856260632,
				"y": -0.7070577903,
				"z": 1.5285753215,
				"element": "C" 
			},
			{
				"x": 0.2440512798,
				"y": -0.5516725137,
				"z": 0.1517118601,
				"element": "C" 
			},
			{
				"x": -0.2108901029,
				"y": 0.6714167796,
				"z": -0.2248664966,
				"element": "O" 
			},
			{
				"x": -0.4200235269,
				"y": 0.9273392673,
				"z": -1.6205233747,
				"element": "C" 
			},
			{
				"x": -0.8546946273,
				"y": 2.3601501634,
				"z": -1.7752545302,
				"element": "C" 
			},
			{
				"x": 0.0528248522,
				"y": 3.4295332138,
				"z": -1.730292357,
				"element": "C" 
			},
			{
				"x": 1.7706661591,
				"y": 3.12799628,
				"z": -1.5006534009,
				"element": "Cl" 
			},
			{
				"x": -0.3684202189,
				"y": 4.7512011891,
				"z": -1.8704634538,
				"element": "C" 
			},
			{
				"x": -1.7235516082,
				"y": 5.0240533475,
				"z": -2.0572147455,
				"element": "C" 
			},
			{
				"x": -2.6479185206,
				"y": 3.9805240347,
				"z": -2.1036535919,
				"element": "C" 
			},
			{
				"x": -2.2088833834,
				"y": 2.665256749,
				"z": -1.9619942337,
				"element": "C" 
			},
			{
				"x": 0.4767887655,
				"y": -1.6217613133,
				"z": -0.7246212773,
				"element": "C" 
			},
			{
				"x": 0.9381457333,
				"y": -2.8385990125,
				"z": -0.2206547654,
				"element": "C" 
			},
			{
				"x": -0.2436177474,
				"y": -5.6548058456,
				"z": 1.4346736832,
				"element": "H" 
			},
			{
				"x": -0.1583918567,
				"y": -5.0016382257,
				"z": 2.9917952751,
				"element": "H" 
			},
			{
				"x": 1.1611760802,
				"y": -2.0336471819,
				"z": 3.0814359914,
				"element": "H" 
			},
			{
				"x": 0.3172740951,
				"y": 0.1429242524,
				"z": 2.1810742352,
				"element": "H" 
			},
			{
				"x": 0.5079101134,
				"y": 0.7380372043,
				"z": -2.1724380079,
				"element": "H" 
			},
			{
				"x": -1.1986563259,
				"y": 0.2579757898,
				"z": -2.0076231279,
				"element": "H" 
			},
			{
				"x": 0.3611812032,
				"y": 5.552416562,
				"z": -1.8334004975,
				"element": "H" 
			},
			{
				"x": -2.0509758206,
				"y": 6.0534919863,
				"z": -2.1670222595,
				"element": "H" 
			},
			{
				"x": -3.7033235788,
				"y": 4.1884107426,
				"z": -2.2487127488,
				"element": "H" 
			},
			{
				"x": -2.9257274691,
				"y": 1.8491440072,
				"z": -1.9951967555,
				"element": "H" 
			},
			{
				"x": 0.3145914891,
				"y": -1.518739091,
				"z": -1.7905032855,
				"element": "H" 
			},
			{
				"x": 1.1450946298,
				"y": -3.6656870276,
				"z": -0.8915573472,
				"element": "H" 
			}
		],
		 "valence_orbital": [ 
			{
				"type": "occ",
				"energy": -0.29763,
				"method": "rhf"
			},
			{
				"type": "occ",
				"energy": -0.27541,
				"method": "rhf"
			},
			{
				"type": "occ",
				"energy": -0.27296,
				"method": "rhf"
			},
			{
				"type": "occ",
				"energy": -0.25883,
				"method": "rhf"
			},
			{
				"type": "occ",
				"energy": -0.23967,
				"method": "rhf"
			},
			{
				"type": "unocc",
				"energy": -0.03354,
				"method": "rhf"
			},
			{
				"type": "unocc",
				"energy": -0.02901,
				"method": "rhf"
			},
			{
				"type": "unocc",
				"energy": -0.0244,
				"method": "rhf"
			},
			{
				"type": "unocc",
				"energy": -0.0219,
				"method": "rhf"
			},
			{
				"type": "unocc",
				"energy": 0.02066,
				"method": "rhf"
			}
		],
		"cosmo_sigma_profile": { 
			"-0.025": 0.0,
			"-0.024": 0.0,
			"-0.023": 0.0,
			"-0.022": 0.0,
			"-0.021": 0.0,
			"-0.02": 0.0,
			"-0.019": 0.0,
			"-0.018": 0.0,
			"-0.017": 0.0,
			"-0.016": 0.0,
			"-0.015": 1.67814343896,
			"-0.014": 2.97072010681,
			"-0.013": 2.50571039076,
			"-0.012": 3.17150863247,
			"-0.011": 2.34481925928,
			"-0.01": 2.25004478779,
			"-0.009": 1.606880172,
			"-0.008": 5.26220059905,
			"-0.007": 16.6642742711,
			"-0.006": 23.2017672793,
			"-0.005": 20.0431193434,
			"-0.004": 16.1878326588,
			"-0.003": 13.8298108528,
			"-0.002": 13.879611642,
			"-0.001": 14.4445768884,
			"0.0": 17.4543158027,
			"0.001": 19.9220168622,
			"0.002": 28.8158914971,
			"0.003": 31.7701990718,
			"0.004": 19.8532327727,
			"0.005": 9.59711245422,
			"0.006": 5.927874327,
			"0.007": 5.54760116271,
			"0.008": 5.48578968834,
			"0.009": 5.96684666079,
			"0.01": 7.39005494313,
			"0.011": 9.88007357225,
			"0.012": 7.09842618684,
			"0.013": 0.405270388358,
			"0.014": 0.0,
			"0.015": 0.0,
			"0.016": 0.0,
			"0.017": 0.0,
			"0.018": 0.0,
			"0.019": 0.0,
			"0.02": 0.0,
			"0.021": 0.0,
			"0.022": 0.0,
			"0.023": 0.0,
			"0.024": 0.0,
			"0.025": 0.0
		}
	}
}
