{
	 "smiles": "CN1C(C(CC1=O)C(O)=O)C1=CC(Cl)=CC=C1", 
	 "Tm": 429.15, 
	 "num_atms": 29, 
	 "gaussian": { 
		 "optdone": 1, 
		 "sigma_profile": "yes", 
		 "theory": "DFT", 
		 "functional": "B3LYP", 
		 "basiset": "6-31G**", 
		 "properties": { 
			 "R2extent": 5002.8631, 
			 "electric_dipole_moment_norm": 1.10162422359, 
			 "electric_quadrupole_moment_norm": 24.8893379912, 
			 "total_energy": -1205.15612185, 
			 "HOMO_LUMO_gap": 0.21803, 
			 "cosmo_polarized_energy": -18.19, 
			 "cosmo_cavitation_energy": 34.13, 
			 "cosmo_dispersion_energy": -23.63, 
			 "cosmo_repulsion_energy": 1.86, 
			 "cosmo_total_nonelectrostatic_energy": 12.36, 
			 "SMD_solvation_energy": 7.34 
		},
		"coords": [
			{
				"x": -3.0885761021,
				"y": 1.1457096397,
				"z": 0.4907411455,
				"element": "C" 
			},
			{
				"x": -1.9602490026,
				"y": 1.2637805412,
				"z": 1.3972729282,
				"element": "N" 
			},
			{
				"x": -0.5832376329,
				"y": 1.1912807527,
				"z": 0.923694855,
				"element": "C" 
			},
			{
				"x": 0.266031017,
				"y": 1.4341633907,
				"z": 2.2325259021,
				"element": "C" 
			},
			{
				"x": -0.7072929408,
				"y": 2.188337002,
				"z": 3.1583134489,
				"element": "C" 
			},
			{
				"x": -2.1020640522,
				"y": 1.8877155838,
				"z": 2.6185098084,
				"element": "C" 
			},
			{
				"x": -3.1612103179,
				"y": 2.1827253675,
				"z": 3.1439556173,
				"element": "O" 
			},
			{
				"x": 0.8081133611,
				"y": 0.1557308291,
				"z": 2.8487535249,
				"element": "C" 
			},
			{
				"x": -0.1372944181,
				"y": -0.5416534911,
				"z": 3.5266221877,
				"element": "O" 
			},
			{
				"x": 1.9570669065,
				"y": -0.2133864344,
				"z": 2.7671530496,
				"element": "O" 
			},
			{
				"x": -0.2571017182,
				"y": -0.0794513188,
				"z": 0.1552681532,
				"element": "C" 
			},
			{
				"x": 0.6306520479,
				"y": -0.008629005,
				"z": -0.9237477644,
				"element": "C" 
			},
			{
				"x": 0.9617979215,
				"y": -1.1662734539,
				"z": -1.6252117756,
				"element": "C" 
			},
			{
				"x": 2.0795978823,
				"y": -1.0589259942,
				"z": -2.9774264304,
				"element": "Cl" 
			},
			{
				"x": 0.4158469502,
				"y": -2.4022731654,
				"z": -1.2835182785,
				"element": "C" 
			},
			{
				"x": -0.4758868946,
				"y": -2.4654014851,
				"z": -0.2118580883,
				"element": "C" 
			},
			{
				"x": -0.8114287433,
				"y": -1.3177432167,
				"z": 0.5059960718,
				"element": "C" 
			},
			{
				"x": -3.9902371767,
				"y": 1.3489778386,
				"z": 1.0703042495,
				"element": "H" 
			},
			{
				"x": -3.1454062672,
				"y": 0.1435027407,
				"z": 0.0581505926,
				"element": "H" 
			},
			{
				"x": -3.0151738962,
				"y": 1.874488749,
				"z": -0.3281044451,
				"element": "H" 
			},
			{
				"x": -0.3812209884,
				"y": 2.0394620427,
				"z": 0.2492831076,
				"element": "H" 
			},
			{
				"x": 1.1494824383,
				"y": 2.0191963101,
				"z": 1.9748399606,
				"element": "H" 
			},
			{
				"x": -0.5543812912,
				"y": 3.2715134695,
				"z": 3.0964494496,
				"element": "H" 
			},
			{
				"x": -0.6361393977,
				"y": 1.9044890312,
				"z": 4.2090965965,
				"element": "H" 
			},
			{
				"x": 0.3070334758,
				"y": -1.3346921188,
				"z": 3.8715430659,
				"element": "H" 
			},
			{
				"x": 1.0633170274,
				"y": 0.941800658,
				"z": -1.2200860455,
				"element": "H" 
			},
			{
				"x": 0.6803040084,
				"y": -3.2899649843,
				"z": -1.8469820147,
				"element": "H" 
			},
			{
				"x": -0.9131836983,
				"y": -3.4212072445,
				"z": 0.0614801309,
				"element": "H" 
			},
			{
				"x": -1.5009584981,
				"y": -1.3745720345,
				"z": 1.3412809968,
				"element": "H" 
			}
		],
		 "valence_orbital": [ 
			{
				"type": "occ",
				"energy": -0.28449,
				"method": "rhf"
			},
			{
				"type": "occ",
				"energy": -0.27056,
				"method": "rhf"
			},
			{
				"type": "occ",
				"energy": -0.25678,
				"method": "rhf"
			},
			{
				"type": "occ",
				"energy": -0.25441,
				"method": "rhf"
			},
			{
				"type": "occ",
				"energy": -0.24553,
				"method": "rhf"
			},
			{
				"type": "unocc",
				"energy": -0.0275,
				"method": "rhf"
			},
			{
				"type": "unocc",
				"energy": -0.02443,
				"method": "rhf"
			},
			{
				"type": "unocc",
				"energy": -0.00607,
				"method": "rhf"
			},
			{
				"type": "unocc",
				"energy": 0.02089,
				"method": "rhf"
			},
			{
				"type": "unocc",
				"energy": 0.02527,
				"method": "rhf"
			}
		],
		"cosmo_sigma_profile": { 
			"-0.025": 0.0,
			"-0.024": 0.0,
			"-0.023": 0.0,
			"-0.022": 0.0,
			"-0.021": 0.0,
			"-0.02": 0.0,
			"-0.019": 0.103415903857,
			"-0.018": 0.917496100103,
			"-0.017": 0.992915057457,
			"-0.016": 0.86899751227,
			"-0.015": 0.631066402497,
			"-0.014": 0.271864625771,
			"-0.013": 0.82725606355,
			"-0.012": 0.679175078865,
			"-0.011": 0.667815068857,
			"-0.01": 0.61493653135,
			"-0.009": 0.730484719722,
			"-0.008": 3.35070791738,
			"-0.007": 15.697316583,
			"-0.006": 17.8355453559,
			"-0.005": 19.4138480156,
			"-0.004": 19.1323370521,
			"-0.003": 19.9086184044,
			"-0.002": 19.4384097506,
			"-0.001": 15.2667215504,
			"0.0": 14.2254014947,
			"0.001": 15.4746978164,
			"0.002": 18.477071728,
			"0.003": 18.9131253226,
			"0.004": 19.0364373677,
			"0.005": 12.0102373359,
			"0.006": 3.4276624542,
			"0.007": 3.32551539878,
			"0.008": 3.75735812559,
			"0.009": 2.51650140684,
			"0.01": 2.62828815594,
			"0.011": 6.53178831104,
			"0.012": 5.79846530601,
			"0.013": 5.53753671803,
			"0.014": 3.20228855241,
			"0.015": 0.411460423365,
			"0.016": 0.0,
			"0.017": 0.0,
			"0.018": 0.0,
			"0.019": 0.0,
			"0.02": 0.0,
			"0.021": 0.0,
			"0.022": 0.0,
			"0.023": 0.0,
			"0.024": 0.0,
			"0.025": 0.0
		}
	}
}
