{
	 "smiles": "CO[C@H]1O[C@H](COC(=O)C(C)(C)C)[C@@H](O)[C@H](OC(=O)C(C)(C)C)[C@@H]1O", 
	 "Tm": 363.0, 
	 "num_atms": 55, 
	 "gaussian": { 
		 "optdone": 1, 
		 "sigma_profile": "yes", 
		 "theory": "DFT", 
		 "functional": "B3LYP", 
		 "basiset": "6-31G**", 
		 "properties": { 
			 "R2extent": 11383.3514, 
			 "electric_dipole_moment_norm": 1.18314687592, 
			 "electric_quadrupole_moment_norm": 14.3542941216, 
			 "total_energy": -1267.68208566, 
			 "HOMO_LUMO_gap": 0.26672, 
			 "cosmo_polarized_energy": -22.62, 
			 "cosmo_cavitation_energy": 54.96, 
			 "cosmo_dispersion_energy": -34.73, 
			 "cosmo_repulsion_energy": 2.71, 
			 "cosmo_total_nonelectrostatic_energy": 22.94, 
			 "SMD_solvation_energy": 11.46 
		},
		"coords": [
			{
				"x": 2.5433885358,
				"y": 0.5211381088,
				"z": -3.2043100865,
				"element": "C" 
			},
			{
				"x": 2.3091757618,
				"y": 0.8095314357,
				"z": -1.8334294318,
				"element": "O" 
			},
			{
				"x": 0.9521850399,
				"y": 0.8601511399,
				"z": -1.4731992669,
				"element": "C" 
			},
			{
				"x": 0.2157613962,
				"y": -0.2793743625,
				"z": -1.8445242213,
				"element": "O" 
			},
			{
				"x": 0.2224573006,
				"y": -1.4386719376,
				"z": -0.9934152851,
				"element": "C" 
			},
			{
				"x": -1.1571133364,
				"y": -1.618599425,
				"z": -0.3672511692,
				"element": "C" 
			},
			{
				"x": -2.084141977,
				"y": -1.8082502183,
				"z": -1.453296818,
				"element": "O" 
			},
			{
				"x": -3.3887113084,
				"y": -1.9081932636,
				"z": -1.1103516717,
				"element": "C" 
			},
			{
				"x": -3.7731649648,
				"y": -1.8750498538,
				"z": 0.0400754912,
				"element": "O" 
			},
			{
				"x": -4.2824908618,
				"y": -2.0589229779,
				"z": -2.3482428107,
				"element": "C" 
			},
			{
				"x": -5.7430315419,
				"y": -2.1904470109,
				"z": -1.8913961637,
				"element": "C" 
			},
			{
				"x": -4.1082006725,
				"y": -0.8069822494,
				"z": -3.2375449808,
				"element": "C" 
			},
			{
				"x": -3.8514240744,
				"y": -3.3183318976,
				"z": -3.1323208975,
				"element": "C" 
			},
			{
				"x": 1.3449936014,
				"y": -1.4554357525,
				"z": 0.0554313802,
				"element": "C" 
			},
			{
				"x": 2.5021841648,
				"y": -1.9216458611,
				"z": -0.62827333,
				"element": "O" 
			},
			{
				"x": 1.587369247,
				"y": -0.0899970791,
				"z": 0.7514098746,
				"element": "C" 
			},
			{
				"x": 1.0888983668,
				"y": -0.2214391203,
				"z": 2.095745632,
				"element": "O" 
			},
			{
				"x": 1.5021940045,
				"y": 0.7090608377,
				"z": 2.9951022682,
				"element": "C" 
			},
			{
				"x": 2.312726867,
				"y": 1.5689943527,
				"z": 2.7208293332,
				"element": "O" 
			},
			{
				"x": 0.8154927456,
				"y": 0.5265147161,
				"z": 4.3518640507,
				"element": "C" 
			},
			{
				"x": 1.0170634169,
				"y": -0.9217099164,
				"z": 4.8484372258,
				"element": "C" 
			},
			{
				"x": 1.4267995176,
				"y": 1.5214364547,
				"z": 5.3505777649,
				"element": "C" 
			},
			{
				"x": -0.6935770029,
				"y": 0.8113866353,
				"z": 4.1677753472,
				"element": "C" 
			},
			{
				"x": 0.9458140308,
				"y": 1.1212443485,
				"z": 0.0376968659,
				"element": "C" 
			},
			{
				"x": -0.3743068647,
				"y": 1.2903345532,
				"z": 0.5341081249,
				"element": "O" 
			},
			{
				"x": 2.2156679289,
				"y": -0.4906514647,
				"z": -3.4614546604,
				"element": "H" 
			},
			{
				"x": 2.0269709948,
				"y": 1.2409287806,
				"z": -3.8570854826,
				"element": "H" 
			},
			{
				"x": 3.6205888921,
				"y": 0.6069771102,
				"z": -3.3604682856,
				"element": "H" 
			},
			{
				"x": 0.4519844787,
				"y": 1.6824876015,
				"z": -2.0144878635,
				"element": "H" 
			},
			{
				"x": 0.4110718752,
				"y": -2.2918077856,
				"z": -1.6545248483,
				"element": "H" 
			},
			{
				"x": -1.4474720434,
				"y": -0.7476377304,
				"z": 0.2208145465,
				"element": "H" 
			},
			{
				"x": -1.1757458909,
				"y": -2.5047309247,
				"z": 0.2769452839,
				"element": "H" 
			},
			{
				"x": -6.058648163,
				"y": -1.3140068828,
				"z": -1.3193093997,
				"element": "H" 
			},
			{
				"x": -6.3981120543,
				"y": -2.291287293,
				"z": -2.7630846079,
				"element": "H" 
			},
			{
				"x": -5.8801547479,
				"y": -3.0665795147,
				"z": -1.2518053346,
				"element": "H" 
			},
			{
				"x": -3.0670856813,
				"y": -0.6833999341,
				"z": -3.5453411162,
				"element": "H" 
			},
			{
				"x": -4.4189268251,
				"y": 0.0995512604,
				"z": -2.7068421019,
				"element": "H" 
			},
			{
				"x": -4.729645241,
				"y": -0.8994559581,
				"z": -4.1347887537,
				"element": "H" 
			},
			{
				"x": -3.9516933367,
				"y": -4.2203693372,
				"z": -2.519013778,
				"element": "H" 
			},
			{
				"x": -2.8131229304,
				"y": -3.2426985449,
				"z": -3.4638756953,
				"element": "H" 
			},
			{
				"x": -4.4884807238,
				"y": -3.4411330813,
				"z": -4.0147900644,
				"element": "H" 
			},
			{
				"x": 1.0598140114,
				"y": -2.1642567661,
				"z": 0.8467630463,
				"element": "H" 
			},
			{
				"x": 3.2560806622,
				"y": -1.8695829639,
				"z": -0.0268837609,
				"element": "H" 
			},
			{
				"x": 2.6637960531,
				"y": 0.0965597674,
				"z": 0.7898455585,
				"element": "H" 
			},
			{
				"x": 2.0800617089,
				"y": -1.1560850946,
				"z": 4.971630673,
				"element": "H" 
			},
			{
				"x": 0.5324307343,
				"y": -1.047023749,
				"z": 5.8223127394,
				"element": "H" 
			},
			{
				"x": 0.5834892953,
				"y": -1.6452203778,
				"z": 4.1542649552,
				"element": "H" 
			},
			{
				"x": 2.4974891739,
				"y": 1.3427534773,
				"z": 5.4845995685,
				"element": "H" 
			},
			{
				"x": 1.305311353,
				"y": 2.5515393001,
				"z": 5.0064677224,
				"element": "H" 
			},
			{
				"x": 0.9351566776,
				"y": 1.4188274972,
				"z": 6.3233716124,
				"element": "H" 
			},
			{
				"x": -0.8606128698,
				"y": 1.8303967542,
				"z": 3.8050581522,
				"element": "H" 
			},
			{
				"x": -1.1442132438,
				"y": 0.1207084143,
				"z": 3.4517140711,
				"element": "H" 
			},
			{
				"x": -1.2070379164,
				"y": 0.7033984603,
				"z": 5.1290602396,
				"element": "H" 
			},
			{
				"x": 1.5533719244,
				"y": 2.0087713044,
				"z": 0.243473995,
				"element": "H" 
			},
			{
				"x": -0.7681754879,
				"y": 2.0502860183,
				"z": 0.0865363633,
				"element": "H" 
			}
		],
		 "valence_orbital": [ 
			{
				"type": "occ",
				"energy": -0.27937,
				"method": "rhf"
			},
			{
				"type": "occ",
				"energy": -0.27355,
				"method": "rhf"
			},
			{
				"type": "occ",
				"energy": -0.26658,
				"method": "rhf"
			},
			{
				"type": "occ",
				"energy": -0.26239,
				"method": "rhf"
			},
			{
				"type": "occ",
				"energy": -0.25763,
				"method": "rhf"
			},
			{
				"type": "unocc",
				"energy": 0.00909,
				"method": "rhf"
			},
			{
				"type": "unocc",
				"energy": 0.01991,
				"method": "rhf"
			},
			{
				"type": "unocc",
				"energy": 0.05378,
				"method": "rhf"
			},
			{
				"type": "unocc",
				"energy": 0.06712,
				"method": "rhf"
			},
			{
				"type": "unocc",
				"energy": 0.08586,
				"method": "rhf"
			}
		],
		"cosmo_sigma_profile": { 
			"-0.025": 0.0,
			"-0.024": 0.0,
			"-0.023": 0.0,
			"-0.022": 0.0,
			"-0.021": 0.0,
			"-0.02": 0.0,
			"-0.019": 0.0,
			"-0.018": 0.0,
			"-0.017": 0.416661278449,
			"-0.016": 3.14737336808,
			"-0.015": 1.90670578389,
			"-0.014": 2.43680883156,
			"-0.013": 2.4582088131,
			"-0.012": 2.04875420878,
			"-0.011": 1.41212287204,
			"-0.01": 1.46147920625,
			"-0.009": 1.60259990225,
			"-0.008": 2.8292814236,
			"-0.007": 5.13484007982,
			"-0.006": 7.90289731331,
			"-0.005": 12.7014105176,
			"-0.004": 26.7143915155,
			"-0.003": 52.7072809362,
			"-0.002": 48.1871071862,
			"-0.001": 41.9712258394,
			"0.0": 47.3876023758,
			"0.001": 43.6060881514,
			"0.002": 16.2109121669,
			"0.003": 15.081118877,
			"0.004": 13.0089457331,
			"0.005": 10.6350634367,
			"0.006": 8.5223952884,
			"0.007": 10.4819003974,
			"0.008": 8.14737830506,
			"0.009": 7.18739311712,
			"0.01": 8.68707362743,
			"0.011": 9.08129368641,
			"0.012": 8.51945195848,
			"0.013": 2.70512821707,
			"0.014": 0.0131194247133,
			"0.015": 0.0,
			"0.016": 0.0,
			"0.017": 0.0,
			"0.018": 0.0,
			"0.019": 0.0,
			"0.02": 0.0,
			"0.021": 0.0,
			"0.022": 0.0,
			"0.023": 0.0,
			"0.024": 0.0,
			"0.025": 0.0
		}
	}
}
