{
	 "smiles": "CCOC(=O)C1=C(C)NC(=O)NC1C1=CC=C2OCOC2=C1", 
	 "Tm": 462.15, 
	 "num_atms": 38, 
	 "gaussian": { 
		 "optdone": 1, 
		 "sigma_profile": "yes", 
		 "theory": "DFT", 
		 "functional": "B3LYP", 
		 "basiset": "6-31G**", 
		 "properties": { 
			 "R2extent": 7559.9699, 
			 "electric_dipole_moment_norm": 3.4243701012, 
			 "electric_quadrupole_moment_norm": 19.1407685162, 
			 "total_energy": -1066.87344195, 
			 "HOMO_LUMO_gap": 0.16262, 
			 "cosmo_polarized_energy": -18.67, 
			 "cosmo_cavitation_energy": 41.01, 
			 "cosmo_dispersion_energy": -29.06, 
			 "cosmo_repulsion_energy": 2.24, 
			 "cosmo_total_nonelectrostatic_energy": 14.19, 
			 "SMD_solvation_energy": 8.39 
		},
		"coords": [
			{
				"x": 3.4922163149,
				"y": 1.7486533864,
				"z": -2.7088735052,
				"element": "C" 
			},
			{
				"x": 4.0754871641,
				"y": 0.9184127825,
				"z": -1.575162864,
				"element": "C" 
			},
			{
				"x": 3.2337277125,
				"y": -0.2155871969,
				"z": -1.2582763931,
				"element": "O" 
			},
			{
				"x": 2.1985597262,
				"y": 0.0209873742,
				"z": -0.4102413217,
				"element": "C" 
			},
			{
				"x": 1.995034659,
				"y": 1.1268071322,
				"z": 0.0752125437,
				"element": "O" 
			},
			{
				"x": 1.3771673564,
				"y": -1.1549314802,
				"z": -0.1074790483,
				"element": "C" 
			},
			{
				"x": 1.5974615883,
				"y": -2.4232606696,
				"z": -0.5584512393,
				"element": "C" 
			},
			{
				"x": 2.6258641899,
				"y": -2.8804022155,
				"z": -1.5619397575,
				"element": "C" 
			},
			{
				"x": 0.8179340729,
				"y": -3.445610228,
				"z": -0.0455533136,
				"element": "N" 
			},
			{
				"x": 0.061911044,
				"y": -3.3654837376,
				"z": 1.1332674715,
				"element": "C" 
			},
			{
				"x": -0.4241963196,
				"y": -4.3656550439,
				"z": 1.6409562062,
				"element": "O" 
			},
			{
				"x": -0.0220089212,
				"y": -2.1004332427,
				"z": 1.6401117306,
				"element": "N" 
			},
			{
				"x": 0.1986602819,
				"y": -0.8989063024,
				"z": 0.8332414818,
				"element": "C" 
			},
			{
				"x": -1.0649869967,
				"y": -0.4279088039,
				"z": 0.0925313932,
				"element": "C" 
			},
			{
				"x": -2.1280086016,
				"y": -1.2953935115,
				"z": -0.1759445889,
				"element": "C" 
			},
			{
				"x": -3.2800122513,
				"y": -0.870371854,
				"z": -0.8662873273,
				"element": "C" 
			},
			{
				"x": -3.3186556126,
				"y": 0.4483483327,
				"z": -1.2669856406,
				"element": "C" 
			},
			{
				"x": -4.305161581,
				"y": 1.1090505765,
				"z": -1.9605561768,
				"element": "O" 
			},
			{
				"x": -3.9066679254,
				"y": 2.4848503445,
				"z": -1.980517406,
				"element": "C" 
			},
			{
				"x": -2.5563138734,
				"y": 2.563836815,
				"z": -1.5138907588,
				"element": "O" 
			},
			{
				"x": -2.2662222182,
				"y": 1.3212977429,
				"z": -0.9976738449,
				"element": "C" 
			},
			{
				"x": -1.1323120698,
				"y": 0.9232361123,
				"z": -0.3231016705,
				"element": "C" 
			},
			{
				"x": 3.3241861682,
				"y": 1.1334615788,
				"z": -3.5980555544,
				"element": "H" 
			},
			{
				"x": 4.186062948,
				"y": 2.5532634872,
				"z": -2.9747882457,
				"element": "H" 
			},
			{
				"x": 2.5445496013,
				"y": 2.198998376,
				"z": -2.4050290187,
				"element": "H" 
			},
			{
				"x": 5.032336647,
				"y": 0.472188627,
				"z": -1.8579402392,
				"element": "H" 
			},
			{
				"x": 4.2083415329,
				"y": 1.5215911223,
				"z": -0.674450644,
				"element": "H" 
			},
			{
				"x": 2.6469316021,
				"y": -2.2266285501,
				"z": -2.4325261159,
				"element": "H" 
			},
			{
				"x": 2.4102697873,
				"y": -3.9024597679,
				"z": -1.8875808256,
				"element": "H" 
			},
			{
				"x": 3.6284005049,
				"y": -2.8633582317,
				"z": -1.124267403,
				"element": "H" 
			},
			{
				"x": 0.959251825,
				"y": -4.392992704,
				"z": -0.3646530348,
				"element": "H" 
			},
			{
				"x": -0.6495832157,
				"y": -2.0285345517,
				"z": 2.4293749358,
				"element": "H" 
			},
			{
				"x": 0.501258509,
				"y": -0.0988851471,
				"z": 1.5139718202,
				"element": "H" 
			},
			{
				"x": -2.0903007018,
				"y": -2.323582111,
				"z": 0.1656937391,
				"element": "H" 
			},
			{
				"x": -4.101789428,
				"y": -1.5478237217,
				"z": -1.0692317318,
				"element": "H" 
			},
			{
				"x": -4.5612012039,
				"y": 3.0657829379,
				"z": -1.3142838718,
				"element": "H" 
			},
			{
				"x": -3.9618646094,
				"y": 2.8651506611,
				"z": -3.0055224791,
				"element": "H" 
			},
			{
				"x": -0.3163277063,
				"y": 1.6076916818,
				"z": -0.1238973012,
				"element": "H" 
			}
		],
		 "valence_orbital": [ 
			{
				"type": "occ",
				"energy": -0.27048,
				"method": "rhf"
			},
			{
				"type": "occ",
				"energy": -0.25689,
				"method": "rhf"
			},
			{
				"type": "occ",
				"energy": -0.24098,
				"method": "rhf"
			},
			{
				"type": "occ",
				"energy": -0.22669,
				"method": "rhf"
			},
			{
				"type": "occ",
				"energy": -0.20265,
				"method": "rhf"
			},
			{
				"type": "unocc",
				"energy": -0.04003,
				"method": "rhf"
			},
			{
				"type": "unocc",
				"energy": 0.00131,
				"method": "rhf"
			},
			{
				"type": "unocc",
				"energy": 0.01365,
				"method": "rhf"
			},
			{
				"type": "unocc",
				"energy": 0.05494,
				"method": "rhf"
			},
			{
				"type": "unocc",
				"energy": 0.07038,
				"method": "rhf"
			}
		],
		"cosmo_sigma_profile": { 
			"-0.025": 0.0,
			"-0.024": 0.0,
			"-0.023": 0.0,
			"-0.022": 0.0,
			"-0.021": 0.0,
			"-0.02": 0.0,
			"-0.019": 0.0,
			"-0.018": 0.0,
			"-0.017": 0.0,
			"-0.016": 0.162081115158,
			"-0.015": 1.17171419331,
			"-0.014": 2.13702887899,
			"-0.013": 2.0515581706,
			"-0.012": 1.81016098887,
			"-0.011": 2.28009298835,
			"-0.01": 1.70465857774,
			"-0.009": 2.60260264333,
			"-0.008": 4.52591822226,
			"-0.007": 9.69684375457,
			"-0.006": 13.7390037044,
			"-0.005": 16.7117287154,
			"-0.004": 22.5252425125,
			"-0.003": 26.7804496994,
			"-0.002": 27.0383791981,
			"-0.001": 26.0143690535,
			"0.0": 27.756007454,
			"0.001": 22.0947006298,
			"0.002": 21.2338546857,
			"0.003": 21.2231238251,
			"0.004": 16.880045869,
			"0.005": 11.2445214816,
			"0.006": 6.2257899104,
			"0.007": 4.53254059862,
			"0.008": 4.95643035166,
			"0.009": 6.26473593442,
			"0.01": 4.69104478808,
			"0.011": 2.30995801197,
			"0.012": 4.42337459112,
			"0.013": 6.67615959022,
			"0.014": 3.82360110349,
			"0.015": 0.0432076163259,
			"0.016": 0.0,
			"0.017": 0.0,
			"0.018": 0.0,
			"0.019": 0.0,
			"0.02": 0.0,
			"0.021": 0.0,
			"0.022": 0.0,
			"0.023": 0.0,
			"0.024": 0.0,
			"0.025": 0.0
		}
	}
}
