{
	 "smiles": "CCOC(=O)C1=C(NC(=O)NC2=CC=C(F)C=C2)NN=C1", 
	 "Tm": 529.15, 
	 "num_atms": 34, 
	 "gaussian": { 
		 "optdone": 1, 
		 "sigma_profile": "yes", 
		 "theory": "DFT", 
		 "functional": "B3LYP", 
		 "basiset": "6-31G**", 
		 "properties": { 
			 "R2extent": 6248.2224, 
			 "electric_dipole_moment_norm": 1.49247646883, 
			 "electric_quadrupole_moment_norm": 25.5805021303, 
			 "total_energy": -1047.73892971, 
			 "HOMO_LUMO_gap": 0.1933, 
			 "cosmo_polarized_energy": -22.99, 
			 "cosmo_cavitation_energy": 39.96, 
			 "cosmo_dispersion_energy": -26.3, 
			 "cosmo_repulsion_energy": 2.04, 
			 "cosmo_total_nonelectrostatic_energy": 15.71, 
			 "SMD_solvation_energy": 8.16 
		},
		"coords": [
			{
				"x": 0.3077711534,
				"y": -3.7179007722,
				"z": 2.8840925482,
				"element": "C" 
			},
			{
				"x": 0.4149092921,
				"y": -3.2637362345,
				"z": 1.4406764497,
				"element": "C" 
			},
			{
				"x": 0.5588337721,
				"y": -1.8263795667,
				"z": 1.4482166695,
				"element": "O" 
			},
			{
				"x": 0.6878407935,
				"y": -1.2409918592,
				"z": 0.2337163146,
				"element": "C" 
			},
			{
				"x": 0.67659975,
				"y": -1.8635227872,
				"z": -0.8137144758,
				"element": "O" 
			},
			{
				"x": 0.8472273742,
				"y": 0.2096376542,
				"z": 0.3614437332,
				"element": "C" 
			},
			{
				"x": 1.0778548698,
				"y": 1.1356744494,
				"z": -0.6602751195,
				"element": "C" 
			},
			{
				"x": 1.2457132248,
				"y": 1.0628197986,
				"z": -2.0497298838,
				"element": "N" 
			},
			{
				"x": 0.5679708859,
				"y": 0.1976524016,
				"z": -2.934660264,
				"element": "C" 
			},
			{
				"x": 1.1637090483,
				"y": -0.3004657687,
				"z": -3.8743869946,
				"element": "O" 
			},
			{
				"x": -0.7795026775,
				"y": -0.0001580854,
				"z": -2.7339621729,
				"element": "N" 
			},
			{
				"x": -1.7211625857,
				"y": 0.6957681685,
				"z": -1.9414335526,
				"element": "C" 
			},
			{
				"x": -2.6982704978,
				"y": -0.0354557957,
				"z": -1.2516877178,
				"element": "C" 
			},
			{
				"x": -3.6860098171,
				"y": 0.6167082884,
				"z": -0.5162608919,
				"element": "C" 
			},
			{
				"x": -3.6732252017,
				"y": 2.0053984397,
				"z": -0.4585339906,
				"element": "C" 
			},
			{
				"x": -4.6194588916,
				"y": 2.6429028644,
				"z": 0.2622022814,
				"element": "F" 
			},
			{
				"x": -2.714263769,
				"y": 2.7551117207,
				"z": -1.1303334024,
				"element": "C" 
			},
			{
				"x": -1.7474370569,
				"y": 2.0968077121,
				"z": -1.8877148408,
				"element": "C" 
			},
			{
				"x": 1.2067594999,
				"y": 2.3353423054,
				"z": -0.0403128372,
				"element": "N" 
			},
			{
				"x": 1.0832327057,
				"y": 2.2731964585,
				"z": 1.3080916875,
				"element": "N" 
			},
			{
				"x": 0.8560727387,
				"y": 0.9901129342,
				"z": 1.5488381363,
				"element": "C" 
			},
			{
				"x": 1.2042237252,
				"y": -3.4439197138,
				"z": 3.447694282,
				"element": "H" 
			},
			{
				"x": -0.5589137581,
				"y": -3.2648378749,
				"z": 3.3740987234,
				"element": "H" 
			},
			{
				"x": 0.1958187131,
				"y": -4.8058777753,
				"z": 2.9234722337,
				"element": "H" 
			},
			{
				"x": 1.2790818915,
				"y": -3.7039096004,
				"z": 0.9331853686,
				"element": "H" 
			},
			{
				"x": -0.4746013716,
				"y": -3.5282819643,
				"z": 0.8595584943,
				"element": "H" 
			},
			{
				"x": 2.2061693047,
				"y": 1.1426470617,
				"z": -2.3677722556,
				"element": "H" 
			},
			{
				"x": -1.1127419326,
				"y": -0.794446715,
				"z": -3.2617366598,
				"element": "H" 
			},
			{
				"x": -2.6732147863,
				"y": -1.1204291779,
				"z": -1.2877284888,
				"element": "H" 
			},
			{
				"x": -4.4501885222,
				"y": 0.064008311,
				"z": 0.0192106732,
				"element": "H" 
			},
			{
				"x": -2.746284387,
				"y": 3.8377516669,
				"z": -1.0739126398,
				"element": "H" 
			},
			{
				"x": -1.0143460299,
				"y": 2.6667085828,
				"z": -2.4478623851,
				"element": "H" 
			},
			{
				"x": 1.3558664722,
				"y": 3.2258155964,
				"z": -0.4913513201,
				"element": "H" 
			},
			{
				"x": 0.7110660698,
				"y": 0.6410492766,
				"z": 2.5611722976,
				"element": "H" 
			}
		],
		 "valence_orbital": [ 
			{
				"type": "occ",
				"energy": -0.27213,
				"method": "rhf"
			},
			{
				"type": "occ",
				"energy": -0.26769,
				"method": "rhf"
			},
			{
				"type": "occ",
				"energy": -0.26398,
				"method": "rhf"
			},
			{
				"type": "occ",
				"energy": -0.24833,
				"method": "rhf"
			},
			{
				"type": "occ",
				"energy": -0.22483,
				"method": "rhf"
			},
			{
				"type": "unocc",
				"energy": -0.03153,
				"method": "rhf"
			},
			{
				"type": "unocc",
				"energy": -0.01727,
				"method": "rhf"
			},
			{
				"type": "unocc",
				"energy": -0.01138,
				"method": "rhf"
			},
			{
				"type": "unocc",
				"energy": 0.00868,
				"method": "rhf"
			},
			{
				"type": "unocc",
				"energy": 0.05209,
				"method": "rhf"
			}
		],
		"cosmo_sigma_profile": { 
			"-0.025": 0.0,
			"-0.024": 0.0,
			"-0.023": 0.0,
			"-0.022": 0.0,
			"-0.021": 0.0,
			"-0.02": 0.0,
			"-0.019": 0.0,
			"-0.018": 0.0774911323952,
			"-0.017": 1.2397426851,
			"-0.016": 1.45424635784,
			"-0.015": 2.32226409841,
			"-0.014": 3.26137232306,
			"-0.013": 3.37378597372,
			"-0.012": 2.70346427075,
			"-0.011": 2.1360172368,
			"-0.01": 3.36053593625,
			"-0.009": 2.31685241818,
			"-0.008": 4.37938396658,
			"-0.007": 9.80596132347,
			"-0.006": 9.54634615438,
			"-0.005": 17.8072533222,
			"-0.004": 21.0625713851,
			"-0.003": 20.8711572881,
			"-0.002": 20.5384988403,
			"-0.001": 21.2292158468,
			"0.0": 24.020047612,
			"0.001": 24.5559812464,
			"0.002": 22.1757600705,
			"0.003": 24.4431390381,
			"0.004": 19.3366103906,
			"0.005": 10.2323933414,
			"0.006": 5.84106379059,
			"0.007": 3.42444653176,
			"0.008": 3.74520890394,
			"0.009": 4.31088913422,
			"0.01": 4.32014600138,
			"0.011": 5.27041104194,
			"0.012": 6.7227804694,
			"0.013": 7.95752946146,
			"0.014": 3.25231984684,
			"0.015": 0.735780901113,
			"0.016": 0.0,
			"0.017": 0.0,
			"0.018": 0.0,
			"0.019": 0.0,
			"0.02": 0.0,
			"0.021": 0.0,
			"0.022": 0.0,
			"0.023": 0.0,
			"0.024": 0.0,
			"0.025": 0.0
		}
	}
}
