{
	 "smiles": "BrC1=C(NS(=O)(=O)N2CCOCC2)C=CC=C1", 
	 "Tm": 355.15, 
	 "num_atms": 30, 
	 "gaussian": { 
		 "optdone": 1, 
		 "sigma_profile": "yes", 
		 "theory": "DFT", 
		 "functional": "B3LYP", 
		 "basiset": "6-31G**", 
		 "properties": { 
			 "R2extent": 6590.8315, 
			 "electric_dipole_moment_norm": 3.71179757261, 
			 "electric_quadrupole_moment_norm": 8.67935396732, 
			 "total_energy": -3693.5763972, 
			 "HOMO_LUMO_gap": 0.21613, 
			 "cosmo_polarized_energy": -13.85, 
			 "cosmo_cavitation_energy": 35.74, 
			 "cosmo_dispersion_energy": -26.21, 
			 "cosmo_repulsion_energy": 1.99, 
			 "cosmo_total_nonelectrostatic_energy": 11.52, 
			 "SMD_solvation_energy": 3.79 
		},
		"coords": [
			{
				"x": -0.4577491807,
				"y": -2.7606454988,
				"z": 3.2273184463,
				"element": "Br" 
			},
			{
				"x": 0.9520476292,
				"y": -1.9857094038,
				"z": 2.1838660337,
				"element": "C" 
			},
			{
				"x": 0.6477053625,
				"y": -1.0805518404,
				"z": 1.1531517747,
				"element": "C" 
			},
			{
				"x": -0.695699978,
				"y": -0.7670702043,
				"z": 0.8483661639,
				"element": "N" 
			},
			{
				"x": -1.2325342677,
				"y": 0.7918134946,
				"z": 0.4657948436,
				"element": "S" 
			},
			{
				"x": -2.6662196435,
				"y": 0.7358174198,
				"z": 0.7567776534,
				"element": "O" 
			},
			{
				"x": -0.38116382,
				"y": 1.8265065498,
				"z": 1.0430655337,
				"element": "O" 
			},
			{
				"x": -0.9195699546,
				"y": 0.811302621,
				"z": -1.1990768202,
				"element": "N" 
			},
			{
				"x": -1.7606607732,
				"y": -0.107111507,
				"z": -1.9951009882,
				"element": "C" 
			},
			{
				"x": -1.2180955468,
				"y": -0.1270893191,
				"z": -3.4238920368,
				"element": "C" 
			},
			{
				"x": -1.1915023774,
				"y": 1.1747759609,
				"z": -3.9887323726,
				"element": "O" 
			},
			{
				"x": -0.3753404583,
				"y": 2.0466989985,
				"z": -3.2216088046,
				"element": "C" 
			},
			{
				"x": -0.881694473,
				"y": 2.1710572385,
				"z": -1.7858100217,
				"element": "C" 
			},
			{
				"x": 1.7111453191,
				"y": -0.5485206594,
				"z": 0.4091564605,
				"element": "C" 
			},
			{
				"x": 3.0261524342,
				"y": -0.8966361628,
				"z": 0.7016755463,
				"element": "C" 
			},
			{
				"x": 3.3110757575,
				"y": -1.7990453089,
				"z": 1.7274881583,
				"element": "C" 
			},
			{
				"x": 2.2660185633,
				"y": -2.3504010787,
				"z": 2.466203023,
				"element": "C" 
			},
			{
				"x": -1.3805276361,
				"y": -1.2023868733,
				"z": 1.4618444932,
				"element": "H" 
			},
			{
				"x": -2.8091599734,
				"y": 0.2206746713,
				"z": -1.9928355026,
				"element": "H" 
			},
			{
				"x": -1.7010553187,
				"y": -1.1060611584,
				"z": -1.5558059847,
				"element": "H" 
			},
			{
				"x": -1.867653629,
				"y": -0.7336101258,
				"z": -4.0609795592,
				"element": "H" 
			},
			{
				"x": -0.2081341249,
				"y": -0.5676502291,
				"z": -3.4273040487,
				"element": "H" 
			},
			{
				"x": 0.6671069935,
				"y": 1.6889868684,
				"z": -3.2142699414,
				"element": "H" 
			},
			{
				"x": -0.4075956438,
				"y": 3.0226937834,
				"z": -3.7136776696,
				"element": "H" 
			},
			{
				"x": -0.2076126288,
				"y": 2.7898962024,
				"z": -1.1912895702,
				"element": "H" 
			},
			{
				"x": -1.8812317502,
				"y": 2.6300594018,
				"z": -1.7866788846,
				"element": "H" 
			},
			{
				"x": 1.4883988629,
				"y": 0.1332135417,
				"z": -0.4025635299,
				"element": "H" 
			},
			{
				"x": 3.8316808253,
				"y": -0.4648792977,
				"z": 0.1157498776,
				"element": "H" 
			},
			{
				"x": 4.3355707075,
				"y": -2.0764551858,
				"z": 1.9535379067,
				"element": "H" 
			},
			{
				"x": 2.461598723,
				"y": -3.0557728987,
				"z": 3.2657298202,
				"element": "H" 
			}
		],
		 "valence_orbital": [ 
			{
				"type": "occ",
				"energy": -0.30479,
				"method": "rhf"
			},
			{
				"type": "occ",
				"energy": -0.27956,
				"method": "rhf"
			},
			{
				"type": "occ",
				"energy": -0.26081,
				"method": "rhf"
			},
			{
				"type": "occ",
				"energy": -0.2573,
				"method": "rhf"
			},
			{
				"type": "occ",
				"energy": -0.2368,
				"method": "rhf"
			},
			{
				"type": "unocc",
				"energy": -0.02067,
				"method": "rhf"
			},
			{
				"type": "unocc",
				"energy": -0.01747,
				"method": "rhf"
			},
			{
				"type": "unocc",
				"energy": -0.00662,
				"method": "rhf"
			},
			{
				"type": "unocc",
				"energy": 0.04903,
				"method": "rhf"
			},
			{
				"type": "unocc",
				"energy": 0.0682,
				"method": "rhf"
			}
		],
		"cosmo_sigma_profile": { 
			"-0.025": 0.0,
			"-0.024": 0.0,
			"-0.023": 0.0,
			"-0.022": 0.0,
			"-0.021": 0.0,
			"-0.02": 0.0,
			"-0.019": 0.0,
			"-0.018": 0.0,
			"-0.017": 0.0,
			"-0.016": 0.0,
			"-0.015": 0.0,
			"-0.014": 0.0,
			"-0.013": 0.0,
			"-0.012": 0.0,
			"-0.011": 0.193211697303,
			"-0.01": 0.528387694436,
			"-0.009": 1.41420371016,
			"-0.008": 2.12707261556,
			"-0.007": 5.27015742942,
			"-0.006": 18.3971947323,
			"-0.005": 30.9371043374,
			"-0.004": 32.4594518904,
			"-0.003": 21.7798665475,
			"-0.002": 18.890465706,
			"-0.001": 14.9350465998,
			"0.0": 16.4907415794,
			"0.001": 17.8854560032,
			"0.002": 22.3445680119,
			"0.003": 20.9284289572,
			"0.004": 16.9723342704,
			"0.005": 4.34916932918,
			"0.006": 5.17265028938,
			"0.007": 4.77305339811,
			"0.008": 4.24762886875,
			"0.009": 6.59493998564,
			"0.01": 10.9480086117,
			"0.011": 6.41778024629,
			"0.012": 1.58330332753,
			"0.013": 1.01617630385,
			"0.014": 0.0,
			"0.015": 0.0,
			"0.016": 0.0,
			"0.017": 0.0,
			"0.018": 0.0,
			"0.019": 0.0,
			"0.02": 0.0,
			"0.021": 0.0,
			"0.022": 0.0,
			"0.023": 0.0,
			"0.024": 0.0,
			"0.025": 0.0
		}
	}
}
