{
	 "smiles": "FC(F)(F)C1=CC=CC(CS(Cl)(=O)=O)=C1", 
	 "Tm": 447.15, 
	 "num_atms": 21, 
	 "gaussian": { 
		 "optdone": 1, 
		 "sigma_profile": "yes", 
		 "theory": "DFT", 
		 "functional": "B3LYP", 
		 "basiset": "6-31G**", 
		 "properties": { 
			 "R2extent": 4735.5004, 
			 "electric_dipole_moment_norm": 3.76262763106, 
			 "electric_quadrupole_moment_norm": 18.4243571174, 
			 "total_energy": -1616.76039488, 
			 "HOMO_LUMO_gap": 0.19169, 
			 "cosmo_polarized_energy": -12.27, 
			 "cosmo_cavitation_energy": 30.49, 
			 "cosmo_dispersion_energy": -21.55, 
			 "cosmo_repulsion_energy": 1.59, 
			 "cosmo_total_nonelectrostatic_energy": 10.52, 
			 "SMD_solvation_energy": 4.88 
		},
		"coords": [
			{
				"x": 0.553134431,
				"y": 2.1204837949,
				"z": 1.9825042811,
				"element": "F" 
			},
			{
				"x": -0.6404079271,
				"y": 2.4337256912,
				"z": 1.4351117233,
				"element": "C" 
			},
			{
				"x": -1.5006964909,
				"y": 2.6478115969,
				"z": 2.4573542084,
				"element": "F" 
			},
			{
				"x": -0.500059351,
				"y": 3.6093311396,
				"z": 0.7865679508,
				"element": "F" 
			},
			{
				"x": -1.1391795868,
				"y": 1.3482121237,
				"z": 0.5169726627,
				"element": "C" 
			},
			{
				"x": -2.0276932472,
				"y": 1.6650126574,
				"z": -0.5132764432,
				"element": "C" 
			},
			{
				"x": -2.532515449,
				"y": 0.6503473946,
				"z": -1.3260007479,
				"element": "C" 
			},
			{
				"x": -2.1567412316,
				"y": -0.6737427373,
				"z": -1.109672812,
				"element": "C" 
			},
			{
				"x": -1.2642075779,
				"y": -0.996128475,
				"z": -0.0771432436,
				"element": "C" 
			},
			{
				"x": -0.85944466,
				"y": -2.4175084485,
				"z": 0.1658858053,
				"element": "C" 
			},
			{
				"x": 0.3183814531,
				"y": -3.1144388552,
				"z": -1.0696941051,
				"element": "S" 
			},
			{
				"x": 2.0322910266,
				"y": -1.8999712221,
				"z": -0.7208944099,
				"element": "Cl" 
			},
			{
				"x": -0.1503788947,
				"y": -2.8243055657,
				"z": -2.419412924,
				"element": "O" 
			},
			{
				"x": 0.6578237978,
				"y": -4.4688456612,
				"z": -0.6503027301,
				"element": "O" 
			},
			{
				"x": -0.7540518196,
				"y": 0.0247515626,
				"z": 0.7323114748,
				"element": "C" 
			},
			{
				"x": -2.3138046873,
				"y": 2.6978934844,
				"z": -0.6797138355,
				"element": "H" 
			},
			{
				"x": -3.2187835492,
				"y": 0.8927138037,
				"z": -2.1309874565,
				"element": "H" 
			},
			{
				"x": -2.5436751086,
				"y": -1.4591566272,
				"z": -1.7512435498,
				"element": "H" 
			},
			{
				"x": -0.370398612,
				"y": -2.5736689392,
				"z": 1.1289487299,
				"element": "H" 
			},
			{
				"x": -1.695632595,
				"y": -3.1192309411,
				"z": 0.0765640421,
				"element": "H" 
			},
			{
				"x": -0.0526599206,
				"y": -0.2068857766,
				"z": 1.5268213791,
				"element": "H" 
			}
		],
		 "valence_orbital": [ 
			{
				"type": "occ",
				"energy": -0.34358,
				"method": "rhf"
			},
			{
				"type": "occ",
				"energy": -0.33839,
				"method": "rhf"
			},
			{
				"type": "occ",
				"energy": -0.32043,
				"method": "rhf"
			},
			{
				"type": "occ",
				"energy": -0.28722,
				"method": "rhf"
			},
			{
				"type": "occ",
				"energy": -0.28308,
				"method": "rhf"
			},
			{
				"type": "unocc",
				"energy": -0.09139,
				"method": "rhf"
			},
			{
				"type": "unocc",
				"energy": -0.04977,
				"method": "rhf"
			},
			{
				"type": "unocc",
				"energy": -0.04052,
				"method": "rhf"
			},
			{
				"type": "unocc",
				"energy": 0.04205,
				"method": "rhf"
			},
			{
				"type": "unocc",
				"energy": 0.05551,
				"method": "rhf"
			}
		],
		"cosmo_sigma_profile": { 
			"-0.025": 0.0,
			"-0.024": 0.0,
			"-0.023": 0.0,
			"-0.022": 0.0,
			"-0.021": 0.0,
			"-0.02": 0.0,
			"-0.019": 0.0,
			"-0.018": 0.0,
			"-0.017": 0.0,
			"-0.016": 0.0,
			"-0.015": 0.0,
			"-0.014": 0.0,
			"-0.013": 0.212381278979,
			"-0.012": 1.46450001054,
			"-0.011": 3.67722900875,
			"-0.01": 5.49417186023,
			"-0.009": 4.41838898307,
			"-0.008": 5.98090098963,
			"-0.007": 9.51683748135,
			"-0.006": 11.3585186207,
			"-0.005": 7.95836964892,
			"-0.004": 8.80800578502,
			"-0.003": 8.21489949057,
			"-0.002": 9.91160028142,
			"-0.001": 13.5152121587,
			"0.0": 17.50382984,
			"0.001": 23.7073049651,
			"0.002": 37.7530374484,
			"0.003": 39.691805764,
			"0.004": 9.30513515681,
			"0.005": 2.97175167267,
			"0.006": 3.03345499518,
			"0.007": 5.58118833325,
			"0.008": 10.5100024194,
			"0.009": 6.19987617792,
			"0.01": 0.159042416314,
			"0.011": 0.0,
			"0.012": 0.0,
			"0.013": 0.0,
			"0.014": 0.0,
			"0.015": 0.0,
			"0.016": 0.0,
			"0.017": 0.0,
			"0.018": 0.0,
			"0.019": 0.0,
			"0.02": 0.0,
			"0.021": 0.0,
			"0.022": 0.0,
			"0.023": 0.0,
			"0.024": 0.0,
			"0.025": 0.0
		}
	}
}
