{
	 "smiles": "CN1C(C)=C(C=O)C2=C1C=CC(C)=C2", 
	 "Tm": 378.15, 
	 "num_atms": 27, 
	 "gaussian": { 
		 "optdone": 1, 
		 "sigma_profile": "yes", 
		 "theory": "DFT", 
		 "functional": "B3LYP", 
		 "basiset": "6-31G**", 
		 "properties": { 
			 "R2extent": 3184.7212, 
			 "electric_dipole_moment_norm": 4.64316809732, 
			 "electric_quadrupole_moment_norm": 18.6748886596, 
			 "total_energy": -595.10450348, 
			 "HOMO_LUMO_gap": 0.17292, 
			 "cosmo_polarized_energy": -11.37, 
			 "cosmo_cavitation_energy": 29.89, 
			 "cosmo_dispersion_energy": -21.61, 
			 "cosmo_repulsion_energy": 1.67, 
			 "cosmo_total_nonelectrostatic_energy": 9.95, 
			 "SMD_solvation_energy": 5.93 
		},
		"coords": [
			{
				"x": -1.912229973,
				"y": 1.6340393092,
				"z": 2.492043098,
				"element": "C" 
			},
			{
				"x": -1.4896236997,
				"y": 0.6750830914,
				"z": 1.4881904383,
				"element": "N" 
			},
			{
				"x": -1.9378877028,
				"y": -0.6155976327,
				"z": 1.3378621939,
				"element": "C" 
			},
			{
				"x": -2.9676534133,
				"y": -1.2198193704,
				"z": 2.2360188321,
				"element": "C" 
			},
			{
				"x": -1.2812474555,
				"y": -1.2012865672,
				"z": 0.2536371597,
				"element": "C" 
			},
			{
				"x": -1.4599430227,
				"y": -2.5519719854,
				"z": -0.246474627,
				"element": "C" 
			},
			{
				"x": -2.2192903182,
				"y": -3.4059121187,
				"z": 0.2008257709,
				"element": "O" 
			},
			{
				"x": -0.3798710676,
				"y": -0.2045692312,
				"z": -0.2862954626,
				"element": "C" 
			},
			{
				"x": -0.5374411101,
				"y": 0.9529068726,
				"z": 0.5094705026,
				"element": "C" 
			},
			{
				"x": 0.1849474377,
				"y": 2.1248797413,
				"z": 0.2730243653,
				"element": "C" 
			},
			{
				"x": 1.0820845564,
				"y": 2.1206369204,
				"z": -0.7890350206,
				"element": "C" 
			},
			{
				"x": 1.2683936657,
				"y": 0.9830708233,
				"z": -1.607968385,
				"element": "C" 
			},
			{
				"x": 2.2589115915,
				"y": 1.0362269492,
				"z": -2.7492174763,
				"element": "C" 
			},
			{
				"x": 0.5348447918,
				"y": -0.1748690792,
				"z": -1.351222041,
				"element": "C" 
			},
			{
				"x": -2.3510927835,
				"y": 2.5190794081,
				"z": 2.0188634766,
				"element": "H" 
			},
			{
				"x": -1.0608457068,
				"y": 1.9510797472,
				"z": 3.1038689781,
				"element": "H" 
			},
			{
				"x": -2.658877679,
				"y": 1.1812431377,
				"z": 3.1430652022,
				"element": "H" 
			},
			{
				"x": -2.6343288315,
				"y": -1.2353356113,
				"z": 3.2809823356,
				"element": "H" 
			},
			{
				"x": -3.1477815716,
				"y": -2.2438077928,
				"z": 1.9098589416,
				"element": "H" 
			},
			{
				"x": -3.9133488479,
				"y": -0.6653122448,
				"z": 2.1979265352,
				"element": "H" 
			},
			{
				"x": -0.8233677093,
				"y": -2.7941028946,
				"z": -1.1258920701,
				"element": "H" 
			},
			{
				"x": 0.0572032104,
				"y": 3.0095732902,
				"z": 0.8893801101,
				"element": "H" 
			},
			{
				"x": 1.6585245208,
				"y": 3.0183470574,
				"z": -0.9975181706,
				"element": "H" 
			},
			{
				"x": 3.2729741247,
				"y": 1.2490430183,
				"z": -2.3905981567,
				"element": "H" 
			},
			{
				"x": 2.2914268819,
				"y": 0.088320576,
				"z": -3.293362083,
				"element": "H" 
			},
			{
				"x": 2.0015326732,
				"y": 1.8237062716,
				"z": -3.4673989436,
				"element": "H" 
			},
			{
				"x": 0.6773874386,
				"y": -1.0494516857,
				"z": -1.9801355037,
				"element": "H" 
			}
		],
		 "valence_orbital": [ 
			{
				"type": "occ",
				"energy": -0.31907,
				"method": "rhf"
			},
			{
				"type": "occ",
				"energy": -0.27408,
				"method": "rhf"
			},
			{
				"type": "occ",
				"energy": -0.23302,
				"method": "rhf"
			},
			{
				"type": "occ",
				"energy": -0.21982,
				"method": "rhf"
			},
			{
				"type": "occ",
				"energy": -0.20765,
				"method": "rhf"
			},
			{
				"type": "unocc",
				"energy": -0.03473,
				"method": "rhf"
			},
			{
				"type": "unocc",
				"energy": -0.00351,
				"method": "rhf"
			},
			{
				"type": "unocc",
				"energy": 0.01981,
				"method": "rhf"
			},
			{
				"type": "unocc",
				"energy": 0.07942,
				"method": "rhf"
			},
			{
				"type": "unocc",
				"energy": 0.10079,
				"method": "rhf"
			}
		],
		"cosmo_sigma_profile": { 
			"-0.025": 0.0,
			"-0.024": 0.0,
			"-0.023": 0.0,
			"-0.022": 0.0,
			"-0.021": 0.0,
			"-0.02": 0.0,
			"-0.019": 0.0,
			"-0.018": 0.0,
			"-0.017": 0.0,
			"-0.016": 0.0,
			"-0.015": 0.0,
			"-0.014": 0.0,
			"-0.013": 0.0,
			"-0.012": 0.0,
			"-0.011": 0.0,
			"-0.01": 0.0,
			"-0.009": 0.0,
			"-0.008": 0.0,
			"-0.007": 1.38254981391,
			"-0.006": 14.6095848899,
			"-0.005": 23.9255715052,
			"-0.004": 22.9060559928,
			"-0.003": 25.5922252462,
			"-0.002": 18.9460455618,
			"-0.001": 19.1227459185,
			"0.0": 18.9081624896,
			"0.001": 15.7133720198,
			"0.002": 12.4672328834,
			"0.003": 12.7134597056,
			"0.004": 11.2054131279,
			"0.005": 10.7452724964,
			"0.006": 9.85295671069,
			"0.007": 3.67662137169,
			"0.008": 1.38917398638,
			"0.009": 1.91278482646,
			"0.01": 1.78853178699,
			"0.011": 2.64841247304,
			"0.012": 2.52283876881,
			"0.013": 3.12796855049,
			"0.014": 1.8005676802,
			"0.015": 0.441716211195,
			"0.016": 0.0,
			"0.017": 0.0,
			"0.018": 0.0,
			"0.019": 0.0,
			"0.02": 0.0,
			"0.021": 0.0,
			"0.022": 0.0,
			"0.023": 0.0,
			"0.024": 0.0,
			"0.025": 0.0
		}
	}
}
