{
	 "smiles": "OC(=O)C1=CC(OC2=C(C#N)C(Cl)=CC=C2)=CC=C1", 
	 "Tm": 513.15, 
	 "num_atms": 27, 
	 "gaussian": { 
		 "optdone": 1, 
		 "sigma_profile": "yes", 
		 "theory": "DFT", 
		 "functional": "B3LYP", 
		 "basiset": "6-31G**", 
		 "properties": { 
			 "R2extent": 8525.2295, 
			 "electric_dipole_moment_norm": 8.57260556949, 
			 "electric_quadrupole_moment_norm": 24.3963214532, 
			 "total_energy": -1278.90130616, 
			 "HOMO_LUMO_gap": 0.18573, 
			 "cosmo_polarized_energy": -23.21, 
			 "cosmo_cavitation_energy": 36.01, 
			 "cosmo_dispersion_energy": -25.09, 
			 "cosmo_repulsion_energy": 1.94, 
			 "cosmo_total_nonelectrostatic_energy": 12.86, 
			 "SMD_solvation_energy": 8.46 
		},
		"coords": [
			{
				"x": -2.3161659388,
				"y": 3.0746412667,
				"z": -1.9870784495,
				"element": "O" 
			},
			{
				"x": -1.9663089686,
				"y": 2.4911925484,
				"z": -0.8110935332,
				"element": "C" 
			},
			{
				"x": -2.1811761619,
				"y": 3.0560647396,
				"z": 0.2341519006,
				"element": "O" 
			},
			{
				"x": -1.3115238773,
				"y": 1.1407277188,
				"z": -0.8928999682,
				"element": "C" 
			},
			{
				"x": -0.5898586769,
				"y": 0.7141055134,
				"z": 0.2294149905,
				"element": "C" 
			},
			{
				"x": 0.0329244576,
				"y": -0.5278128973,
				"z": 0.2094326278,
				"element": "C" 
			},
			{
				"x": 0.673319636,
				"y": -0.9519080235,
				"z": 1.3645546771,
				"element": "O" 
			},
			{
				"x": 2.0081743365,
				"y": -1.2427658564,
				"z": 1.3507524337,
				"element": "C" 
			},
			{
				"x": 2.4655783351,
				"y": -2.05211922,
				"z": 2.4160918968,
				"element": "C" 
			},
			{
				"x": 1.5305714748,
				"y": -2.5512772866,
				"z": 3.3747878537,
				"element": "C" 
			},
			{
				"x": 0.7649923931,
				"y": -2.961277025,
				"z": 4.147940533,
				"element": "N" 
			},
			{
				"x": 3.8407994168,
				"y": -2.3461785517,
				"z": 2.4916334129,
				"element": "C" 
			},
			{
				"x": 4.4405439282,
				"y": -3.3400183955,
				"z": 3.7937165543,
				"element": "Cl" 
			},
			{
				"x": 4.7350033194,
				"y": -1.8628084206,
				"z": 1.5403033852,
				"element": "C" 
			},
			{
				"x": 4.2530464042,
				"y": -1.0693972053,
				"z": 0.4995386997,
				"element": "C" 
			},
			{
				"x": 2.8995791802,
				"y": -0.7529632122,
				"z": 0.3956198124,
				"element": "C" 
			},
			{
				"x": -0.0628689707,
				"y": -1.3696307728,
				"z": -0.9029997868,
				"element": "C" 
			},
			{
				"x": -0.7954209789,
				"y": -0.9474408827,
				"z": -2.0106451844,
				"element": "C" 
			},
			{
				"x": -1.418222132,
				"y": 0.3020397289,
				"z": -2.0104872541,
				"element": "C" 
			},
			{
				"x": -1.9405685246,
				"y": 2.5863310732,
				"z": -2.7324360511,
				"element": "H" 
			},
			{
				"x": -0.5310900783,
				"y": 1.3490035472,
				"z": 1.1058715384,
				"element": "H" 
			},
			{
				"x": 5.7879148544,
				"y": -2.1045833916,
				"z": 1.6201722062,
				"element": "H" 
			},
			{
				"x": 4.9470523866,
				"y": -0.6838392361,
				"z": -0.2409014482,
				"element": "H" 
			},
			{
				"x": 2.5376425376,
				"y": -0.125048822,
				"z": -0.4093061945,
				"element": "H" 
			},
			{
				"x": 0.4146630685,
				"y": -2.3436852369,
				"z": -0.8858010625,
				"element": "H" 
			},
			{
				"x": -0.8953654462,
				"y": -1.6027370977,
				"z": -2.8701320616,
				"element": "H" 
			},
			{
				"x": -2.0209359748,
				"y": 0.5881853977,
				"z": -2.8684015284,
				"element": "H" 
			}
		],
		 "valence_orbital": [ 
			{
				"type": "occ",
				"energy": -0.29253,
				"method": "rhf"
			},
			{
				"type": "occ",
				"energy": -0.28352,
				"method": "rhf"
			},
			{
				"type": "occ",
				"energy": -0.28072,
				"method": "rhf"
			},
			{
				"type": "occ",
				"energy": -0.27115,
				"method": "rhf"
			},
			{
				"type": "occ",
				"energy": -0.25568,
				"method": "rhf"
			},
			{
				"type": "unocc",
				"energy": -0.06995,
				"method": "rhf"
			},
			{
				"type": "unocc",
				"energy": -0.06316,
				"method": "rhf"
			},
			{
				"type": "unocc",
				"energy": -0.03932,
				"method": "rhf"
			},
			{
				"type": "unocc",
				"energy": -0.02835,
				"method": "rhf"
			},
			{
				"type": "unocc",
				"energy": 0.00981,
				"method": "rhf"
			}
		],
		"cosmo_sigma_profile": { 
			"-0.025": 0.0,
			"-0.024": 0.0,
			"-0.023": 0.0,
			"-0.022": 0.0,
			"-0.021": 0.0,
			"-0.02": 0.0,
			"-0.019": 0.447505814308,
			"-0.018": 0.672593373215,
			"-0.017": 1.03510748667,
			"-0.016": 1.18918061903,
			"-0.015": 1.12227421392,
			"-0.014": 1.09767382035,
			"-0.013": 0.950231210263,
			"-0.012": 1.06836388118,
			"-0.011": 1.06034093041,
			"-0.01": 1.21303768443,
			"-0.009": 2.38025284478,
			"-0.008": 9.66176180559,
			"-0.007": 14.401950416,
			"-0.006": 14.7955861225,
			"-0.005": 11.7639094567,
			"-0.004": 13.4926475594,
			"-0.003": 16.6721382138,
			"-0.002": 19.8289348163,
			"-0.001": 25.4023728004,
			"0.0": 25.5027729195,
			"0.001": 26.4284822776,
			"0.002": 22.1401464434,
			"0.003": 15.5385994722,
			"0.004": 7.8999438172,
			"0.005": 7.1415499382,
			"0.006": 6.98976857439,
			"0.007": 6.48036456342,
			"0.008": 6.93682818721,
			"0.009": 7.05914204306,
			"0.01": 7.65922191552,
			"0.011": 8.16135906965,
			"0.012": 5.82511811076,
			"0.013": 1.80405784269,
			"0.014": 0.0,
			"0.015": 0.0,
			"0.016": 0.0,
			"0.017": 0.0,
			"0.018": 0.0,
			"0.019": 0.0,
			"0.02": 0.0,
			"0.021": 0.0,
			"0.022": 0.0,
			"0.023": 0.0,
			"0.024": 0.0,
			"0.025": 0.0
		}
	}
}
