{
	 "smiles": "CC1=NOC(=N1)C1=CC=CC=C1Br", 
	 "Tm": 316.65, 
	 "num_atms": 20, 
	 "gaussian": { 
		 "optdone": 1, 
		 "sigma_profile": "yes", 
		 "theory": "DFT", 
		 "functional": "B3LYP", 
		 "basiset": "6-31G**", 
		 "properties": { 
			 "R2extent": 5001.7968, 
			 "electric_dipole_moment_norm": 1.91242332134, 
			 "electric_quadrupole_moment_norm": 18.845403811, 
			 "total_energy": -3103.27148957, 
			 "HOMO_LUMO_gap": 0.18457, 
			 "cosmo_polarized_energy": -8.65, 
			 "cosmo_cavitation_energy": 27.03, 
			 "cosmo_dispersion_energy": -20.46, 
			 "cosmo_repulsion_energy": 1.62, 
			 "cosmo_total_nonelectrostatic_energy": 8.19, 
			 "SMD_solvation_energy": 2.16 
		},
		"coords": [
			{
				"x": 0.8487797067,
				"y": 1.8025321836,
				"z": -2.1208812933,
				"element": "C" 
			},
			{
				"x": 0.7772557715,
				"y": 1.2348409098,
				"z": -0.7435852577,
				"element": "C" 
			},
			{
				"x": 1.8439108412,
				"y": 0.8368744383,
				"z": -0.0930181569,
				"element": "N" 
			},
			{
				"x": 1.327013655,
				"y": 0.3866009183,
				"z": 1.1307551057,
				"element": "O" 
			},
			{
				"x": -0.0138687286,
				"y": 0.5635529581,
				"z": 1.0775640057,
				"element": "C" 
			},
			{
				"x": -0.4047788244,
				"y": 1.0831921086,
				"z": -0.0532018868,
				"element": "N" 
			},
			{
				"x": -0.7802214894,
				"y": 0.1304494503,
				"z": 2.250546513,
				"element": "C" 
			},
			{
				"x": -0.1163812112,
				"y": -0.6758014793,
				"z": 3.1985866826,
				"element": "C" 
			},
			{
				"x": -0.7593231033,
				"y": -1.1416334639,
				"z": 4.3376549105,
				"element": "C" 
			},
			{
				"x": -2.0964525961,
				"y": -0.8090355255,
				"z": 4.5597562799,
				"element": "C" 
			},
			{
				"x": -2.7744346941,
				"y": -0.0109752323,
				"z": 3.6419937756,
				"element": "C" 
			},
			{
				"x": -2.1292400179,
				"y": 0.4589000645,
				"z": 2.4960165637,
				"element": "C" 
			},
			{
				"x": -3.1695779354,
				"y": 1.563189235,
				"z": 1.3447983989,
				"element": "Br" 
			},
			{
				"x": 0.2469768864,
				"y": 1.2011467928,
				"z": -2.808804227,
				"element": "H" 
			},
			{
				"x": 1.8824742521,
				"y": 1.8227447183,
				"z": -2.4696402193,
				"element": "H" 
			},
			{
				"x": 0.4442579758,
				"y": 2.8190764177,
				"z": -2.1313862709,
				"element": "H" 
			},
			{
				"x": 0.9205691045,
				"y": -0.9339271669,
				"z": 3.0179633022,
				"element": "H" 
			},
			{
				"x": -0.2204143106,
				"y": -1.7627676575,
				"z": 5.0457953257,
				"element": "H" 
			},
			{
				"x": -2.6149445745,
				"y": -1.1661411095,
				"z": 5.444397713,
				"element": "H" 
			},
			{
				"x": -3.8109007075,
				"y": 0.2587814398,
				"z": 3.8071887356,
				"element": "H" 
			}
		],
		 "valence_orbital": [ 
			{
				"type": "occ",
				"energy": -0.30722,
				"method": "rhf"
			},
			{
				"type": "occ",
				"energy": -0.30542,
				"method": "rhf"
			},
			{
				"type": "occ",
				"energy": -0.27037,
				"method": "rhf"
			},
			{
				"type": "occ",
				"energy": -0.26063,
				"method": "rhf"
			},
			{
				"type": "occ",
				"energy": -0.24853,
				"method": "rhf"
			},
			{
				"type": "unocc",
				"energy": -0.06396,
				"method": "rhf"
			},
			{
				"type": "unocc",
				"energy": -0.02515,
				"method": "rhf"
			},
			{
				"type": "unocc",
				"energy": 0.00333,
				"method": "rhf"
			},
			{
				"type": "unocc",
				"energy": 0.01355,
				"method": "rhf"
			},
			{
				"type": "unocc",
				"energy": 0.05499,
				"method": "rhf"
			}
		],
		"cosmo_sigma_profile": { 
			"-0.025": 0.0,
			"-0.024": 0.0,
			"-0.023": 0.0,
			"-0.022": 0.0,
			"-0.021": 0.0,
			"-0.02": 0.0,
			"-0.019": 0.0,
			"-0.018": 0.0,
			"-0.017": 0.0,
			"-0.016": 0.0,
			"-0.015": 0.0,
			"-0.014": 0.0,
			"-0.013": 0.0,
			"-0.012": 0.0,
			"-0.011": 0.0,
			"-0.01": 0.0,
			"-0.009": 0.0,
			"-0.008": 1.1720975729,
			"-0.007": 7.72234574125,
			"-0.006": 14.0458166005,
			"-0.005": 14.8089518301,
			"-0.004": 13.501345331,
			"-0.003": 19.9858541885,
			"-0.002": 19.9391103235,
			"-0.001": 17.511629327,
			"0.0": 16.913310651,
			"0.001": 21.2021058532,
			"0.002": 18.828680376,
			"0.003": 13.2716615003,
			"0.004": 11.0178758439,
			"0.005": 5.89157132096,
			"0.006": 5.39748839202,
			"0.007": 4.44771096862,
			"0.008": 2.64874220512,
			"0.009": 2.79351129577,
			"0.01": 2.54189358208,
			"0.011": 2.5438339841,
			"0.012": 2.80197719015,
			"0.013": 1.73193661082,
			"0.014": 0.11951965129,
			"0.015": 0.0,
			"0.016": 0.0,
			"0.017": 0.0,
			"0.018": 0.0,
			"0.019": 0.0,
			"0.02": 0.0,
			"0.021": 0.0,
			"0.022": 0.0,
			"0.023": 0.0,
			"0.024": 0.0,
			"0.025": 0.0
		}
	}
}
