{
	 "smiles": "COC1=CC(OC)=C(C=C1)C1=C(CCC(O)=O)C2=C(N1)C=CC=C2", 
	 "Tm": 441.15, 
	 "num_atms": 43, 
	 "gaussian": { 
		 "optdone": 1, 
		 "sigma_profile": "yes", 
		 "theory": "DFT", 
		 "functional": "B3LYP", 
		 "basiset": "6-31G**", 
		 "properties": { 
			 "R2extent": 10033.8764, 
			 "electric_dipole_moment_norm": 4.14577774368, 
			 "electric_quadrupole_moment_norm": 18.4041169478, 
			 "total_energy": -1091.13345236, 
			 "HOMO_LUMO_gap": 0.15976, 
			 "cosmo_polarized_energy": -18.62, 
			 "cosmo_cavitation_energy": 46.55, 
			 "cosmo_dispersion_energy": -32.52, 
			 "cosmo_repulsion_energy": 2.48, 
			 "cosmo_total_nonelectrostatic_energy": 16.52, 
			 "SMD_solvation_energy": 9.64 
		},
		"coords": [
			{
				"x": 3.3067457418,
				"y": -3.7952784892,
				"z": 3.9234582181,
				"element": "C" 
			},
			{
				"x": 2.0335430082,
				"y": -4.0376743595,
				"z": 3.3438580265,
				"element": "O" 
			},
			{
				"x": 1.4259507441,
				"y": -3.014317508,
				"z": 2.678861958,
				"element": "C" 
			},
			{
				"x": 0.1719829611,
				"y": -3.322595001,
				"z": 2.1296388645,
				"element": "C" 
			},
			{
				"x": -0.5444741409,
				"y": -2.3614248429,
				"z": 1.4244841753,
				"element": "C" 
			},
			{
				"x": -1.7760917815,
				"y": -2.6169659916,
				"z": 0.8779173521,
				"element": "O" 
			},
			{
				"x": -2.2969702792,
				"y": -3.9371747151,
				"z": 0.9521891923,
				"element": "C" 
			},
			{
				"x": -0.0270260821,
				"y": -1.0490436651,
				"z": 1.2358258326,
				"element": "C" 
			},
			{
				"x": 1.2142026198,
				"y": -0.7779671332,
				"z": 1.8248154726,
				"element": "C" 
			},
			{
				"x": 1.9516523289,
				"y": -1.7302806106,
				"z": 2.5311358896,
				"element": "C" 
			},
			{
				"x": -0.7355984178,
				"y": -0.0152548728,
				"z": 0.4660472623,
				"element": "C" 
			},
			{
				"x": -0.2448842077,
				"y": 0.9993751322,
				"z": -0.3479125282,
				"element": "C" 
			},
			{
				"x": 1.1775734413,
				"y": 1.3008868664,
				"z": -0.7280346729,
				"element": "C" 
			},
			{
				"x": 1.7502746799,
				"y": 2.5374759688,
				"z": -0.0140277634,
				"element": "C" 
			},
			{
				"x": 3.1617268505,
				"y": 2.8692908523,
				"z": -0.4432856526,
				"element": "C" 
			},
			{
				"x": 3.6420031377,
				"y": 3.9539227706,
				"z": 0.217510756,
				"element": "O" 
			},
			{
				"x": 3.8190293728,
				"y": 2.2710352442,
				"z": -1.2671007856,
				"element": "O" 
			},
			{
				"x": -1.3876264965,
				"y": 1.7232194152,
				"z": -0.8411465177,
				"element": "C" 
			},
			{
				"x": -2.5491012474,
				"y": 1.1059421569,
				"z": -0.3017376331,
				"element": "C" 
			},
			{
				"x": -2.1243705777,
				"y": 0.0718492789,
				"z": 0.4959226496,
				"element": "N" 
			},
			{
				"x": -3.8408414935,
				"y": 1.5533176038,
				"z": -0.6002528057,
				"element": "C" 
			},
			{
				"x": -3.9628435973,
				"y": 2.6426073132,
				"z": -1.4560996921,
				"element": "C" 
			},
			{
				"x": -2.8253754305,
				"y": 3.2707934363,
				"z": -2.0047193159,
				"element": "C" 
			},
			{
				"x": -1.5446390007,
				"y": 2.822413712,
				"z": -1.7059622445,
				"element": "C" 
			},
			{
				"x": 3.6096540893,
				"y": -4.7346203757,
				"z": 4.3884174446,
				"element": "H" 
			},
			{
				"x": 4.0478397157,
				"y": -3.511182389,
				"z": 3.1657337572,
				"element": "H" 
			},
			{
				"x": 3.259170558,
				"y": -3.0117199112,
				"z": 4.6903685253,
				"element": "H" 
			},
			{
				"x": -0.2062130256,
				"y": -4.3258388144,
				"z": 2.2754882252,
				"element": "H" 
			},
			{
				"x": -2.4738998548,
				"y": -4.2448411457,
				"z": 1.9902687719,
				"element": "H" 
			},
			{
				"x": -1.6255658594,
				"y": -4.6582086672,
				"z": 0.4712796669,
				"element": "H" 
			},
			{
				"x": -3.2465549694,
				"y": -3.9149058896,
				"z": 0.4154411518,
				"element": "H" 
			},
			{
				"x": 1.6133010466,
				"y": 0.2261289994,
				"z": 1.747914235,
				"element": "H" 
			},
			{
				"x": 2.9061715104,
				"y": -1.4547070053,
				"z": 2.9613706425,
				"element": "H" 
			},
			{
				"x": 1.2347648256,
				"y": 1.4763843479,
				"z": -1.8088883499,
				"element": "H" 
			},
			{
				"x": 1.8231007527,
				"y": 0.4398585435,
				"z": -0.5346226577,
				"element": "H" 
			},
			{
				"x": 1.1254645804,
				"y": 3.4202769501,
				"z": -0.1948614542,
				"element": "H" 
			},
			{
				"x": 1.7499563551,
				"y": 2.4112273087,
				"z": 1.0758763202,
				"element": "H" 
			},
			{
				"x": 4.54219934,
				"y": 4.095122062,
				"z": -0.1209384426,
				"element": "H" 
			},
			{
				"x": -2.7021075248,
				"y": -0.6575974403,
				"z": 0.8807899329,
				"element": "H" 
			},
			{
				"x": -4.7169786072,
				"y": 1.0679252904,
				"z": -0.1790391036,
				"element": "H" 
			},
			{
				"x": -4.9516537837,
				"y": 3.0152698169,
				"z": -1.7076062103,
				"element": "H" 
			},
			{
				"x": -2.9566696503,
				"y": 4.1179324066,
				"z": -2.6718200582,
				"element": "H" 
			},
			{
				"x": -0.6779216318,
				"y": 3.312143351,
				"z": -2.1421584346,
				"element": "H" 
			}
		],
		 "valence_orbital": [ 
			{
				"type": "occ",
				"energy": -0.25989,
				"method": "rhf"
			},
			{
				"type": "occ",
				"energy": -0.24008,
				"method": "rhf"
			},
			{
				"type": "occ",
				"energy": -0.23256,
				"method": "rhf"
			},
			{
				"type": "occ",
				"energy": -0.20198,
				"method": "rhf"
			},
			{
				"type": "occ",
				"energy": -0.18131,
				"method": "rhf"
			},
			{
				"type": "unocc",
				"energy": -0.02155,
				"method": "rhf"
			},
			{
				"type": "unocc",
				"energy": 0.00325,
				"method": "rhf"
			},
			{
				"type": "unocc",
				"energy": 0.01493,
				"method": "rhf"
			},
			{
				"type": "unocc",
				"energy": 0.023,
				"method": "rhf"
			},
			{
				"type": "unocc",
				"energy": 0.03987,
				"method": "rhf"
			}
		],
		"cosmo_sigma_profile": { 
			"-0.025": 0.0,
			"-0.024": 0.0,
			"-0.023": 0.0,
			"-0.022": 0.0,
			"-0.021": 0.0,
			"-0.02": 0.0,
			"-0.019": 0.0,
			"-0.018": 0.510969340854,
			"-0.017": 0.868794524472,
			"-0.016": 1.03016836719,
			"-0.015": 0.693235551603,
			"-0.014": 0.706638730435,
			"-0.013": 0.566815220562,
			"-0.012": 0.834788254507,
			"-0.011": 1.64361854782,
			"-0.01": 2.30329207389,
			"-0.009": 1.13180515792,
			"-0.008": 1.91940033364,
			"-0.007": 5.25715018515,
			"-0.006": 20.9421366438,
			"-0.005": 34.0095206207,
			"-0.004": 35.2358841473,
			"-0.003": 35.0548872355,
			"-0.002": 25.9980166335,
			"-0.001": 20.8714504907,
			"0.0": 17.0309402774,
			"0.001": 18.028189331,
			"0.002": 16.7457947597,
			"0.003": 20.4352392748,
			"0.004": 26.6697961263,
			"0.005": 25.3144966841,
			"0.006": 18.3044533396,
			"0.007": 12.3935370188,
			"0.008": 6.82531341352,
			"0.009": 4.93799316487,
			"0.01": 4.64867338147,
			"0.011": 3.25272004841,
			"0.012": 4.8661208944,
			"0.013": 0.718059453283,
			"0.014": 0.0,
			"0.015": 0.0,
			"0.016": 0.0,
			"0.017": 0.0,
			"0.018": 0.0,
			"0.019": 0.0,
			"0.02": 0.0,
			"0.021": 0.0,
			"0.022": 0.0,
			"0.023": 0.0,
			"0.024": 0.0,
			"0.025": 0.0
		}
	}
}
