{
	 "smiles": "OC(=O)C1=CN=C(NC2CC2)S1", 
	 "Tm": 491.15, 
	 "num_atms": 20, 
	 "gaussian": { 
		 "optdone": 1, 
		 "sigma_profile": "yes", 
		 "theory": "DFT", 
		 "functional": "B3LYP", 
		 "basiset": "6-31G**", 
		 "properties": { 
			 "R2extent": 3160.258, 
			 "electric_dipole_moment_norm": 5.80312984087, 
			 "electric_quadrupole_moment_norm": 20.5338923453, 
			 "total_energy": -929.668726809, 
			 "HOMO_LUMO_gap": 0.17356, 
			 "cosmo_polarized_energy": -19.69, 
			 "cosmo_cavitation_energy": 26.46, 
			 "cosmo_dispersion_energy": -19.91, 
			 "cosmo_repulsion_energy": 1.56, 
			 "cosmo_total_nonelectrostatic_energy": 8.12, 
			 "SMD_solvation_energy": 3.3 
		},
		"coords": [
			{
				"x": -0.0182647983,
				"y": -3.0604078786,
				"z": 3.0716775105,
				"element": "O" 
			},
			{
				"x": 0.7335197376,
				"y": -1.9512979364,
				"z": 2.8236898793,
				"element": "C" 
			},
			{
				"x": 1.581634343,
				"y": -1.6045262442,
				"z": 3.6162971028,
				"element": "O" 
			},
			{
				"x": 0.4579477,
				"y": -1.2320988318,
				"z": 1.5736519069,
				"element": "C" 
			},
			{
				"x": -0.3550392879,
				"y": -1.5187447225,
				"z": 0.5055654491,
				"element": "C" 
			},
			{
				"x": -0.3633201566,
				"y": -0.6439433884,
				"z": -0.5404073268,
				"element": "N" 
			},
			{
				"x": 0.4590922635,
				"y": 0.3549467081,
				"z": -0.2930379387,
				"element": "C" 
			},
			{
				"x": 0.643180396,
				"y": 1.4078800966,
				"z": -1.1368483731,
				"element": "N" 
			},
			{
				"x": 0.0898373397,
				"y": 1.4100110111,
				"z": -2.465303635,
				"element": "C" 
			},
			{
				"x": -0.233056371,
				"y": 2.7506814652,
				"z": -3.0707439276,
				"element": "C" 
			},
			{
				"x": -1.3457990557,
				"y": 1.8233816277,
				"z": -2.6487671933,
				"element": "C" 
			},
			{
				"x": 1.3083156234,
				"y": 0.2740659525,
				"z": 1.2534474057,
				"element": "S" 
			},
			{
				"x": -0.708730236,
				"y": -3.1673123148,
				"z": 2.4032547276,
				"element": "H" 
			},
			{
				"x": -0.980709101,
				"y": -2.4043786445,
				"z": 0.42580343,
				"element": "H" 
			},
			{
				"x": 1.4522641408,
				"y": 1.9904198212,
				"z": -0.9743432079,
				"element": "H" 
			},
			{
				"x": 0.4687705749,
				"y": 0.6293311188,
				"z": -3.1232460536,
				"element": "H" 
			},
			{
				"x": -0.0569158276,
				"y": 3.6315615412,
				"z": -2.4602328283,
				"element": "H" 
			},
			{
				"x": -0.0325682218,
				"y": 2.8880558246,
				"z": -4.1284065718,
				"element": "H" 
			},
			{
				"x": -1.9204772805,
				"y": 1.3104201702,
				"z": -3.4127588985,
				"element": "H" 
			},
			{
				"x": -1.9014817825,
				"y": 2.0777546241,
				"z": -1.7529914572,
				"element": "H" 
			}
		],
		 "valence_orbital": [ 
			{
				"type": "occ",
				"energy": -0.30358,
				"method": "rhf"
			},
			{
				"type": "occ",
				"energy": -0.29359,
				"method": "rhf"
			},
			{
				"type": "occ",
				"energy": -0.28688,
				"method": "rhf"
			},
			{
				"type": "occ",
				"energy": -0.265,
				"method": "rhf"
			},
			{
				"type": "occ",
				"energy": -0.22354,
				"method": "rhf"
			},
			{
				"type": "unocc",
				"energy": -0.04998,
				"method": "rhf"
			},
			{
				"type": "unocc",
				"energy": -0.00133,
				"method": "rhf"
			},
			{
				"type": "unocc",
				"energy": 0.0256,
				"method": "rhf"
			},
			{
				"type": "unocc",
				"energy": 0.05459,
				"method": "rhf"
			},
			{
				"type": "unocc",
				"energy": 0.07779,
				"method": "rhf"
			}
		],
		"cosmo_sigma_profile": { 
			"-0.025": 0.0,
			"-0.024": 0.0,
			"-0.023": 0.0,
			"-0.022": 0.0,
			"-0.021": 0.0,
			"-0.02": 0.0,
			"-0.019": 0.640842442378,
			"-0.018": 1.31281455662,
			"-0.017": 1.12181081185,
			"-0.016": 1.44191741512,
			"-0.015": 2.20135140105,
			"-0.014": 1.71256838288,
			"-0.013": 2.36683456675,
			"-0.012": 3.32502021352,
			"-0.011": 1.84158403465,
			"-0.01": 2.10802867119,
			"-0.009": 3.0850426536,
			"-0.008": 3.07569635519,
			"-0.007": 2.91229187847,
			"-0.006": 5.40294017106,
			"-0.005": 13.3645325079,
			"-0.004": 11.8001126364,
			"-0.003": 10.9175325363,
			"-0.002": 14.2781208624,
			"-0.001": 14.7736054706,
			"0.0": 15.9766610822,
			"0.001": 18.9160177225,
			"0.002": 14.6828338651,
			"0.003": 11.6936977931,
			"0.004": 8.57501668092,
			"0.005": 4.68428487263,
			"0.006": 5.34728954824,
			"0.007": 3.63679811577,
			"0.008": 3.47799662525,
			"0.009": 4.7059413097,
			"0.01": 6.03836334003,
			"0.011": 6.10216089011,
			"0.012": 6.64189833511,
			"0.013": 3.56777440236,
			"0.014": 0.918236548007,
			"0.015": 0.299432849993,
			"0.016": 0.0,
			"0.017": 0.0,
			"0.018": 0.0,
			"0.019": 0.0,
			"0.02": 0.0,
			"0.021": 0.0,
			"0.022": 0.0,
			"0.023": 0.0,
			"0.024": 0.0,
			"0.025": 0.0
		}
	}
}
