{
	 "smiles": "NNC(=O)CCN1CCN(CC1)C1=CC=CC=C1", 
	 "Tm": 394.15, 
	 "num_atms": 38, 
	 "gaussian": { 
		 "optdone": 1, 
		 "sigma_profile": "yes", 
		 "theory": "DFT", 
		 "functional": "B3LYP", 
		 "basiset": "6-31G**", 
		 "properties": { 
			 "R2extent": 7375.4471, 
			 "electric_dipole_moment_norm": 3.554782397, 
			 "electric_quadrupole_moment_norm": 10.2659756414, 
			 "total_energy": -801.624278426, 
			 "HOMO_LUMO_gap": 0.19267, 
			 "cosmo_polarized_energy": -17.0, 
			 "cosmo_cavitation_energy": 38.95, 
			 "cosmo_dispersion_energy": -27.99, 
			 "cosmo_repulsion_energy": 2.17, 
			 "cosmo_total_nonelectrostatic_energy": 13.14, 
			 "SMD_solvation_energy": 3.95 
		},
		"coords": [
			{
				"x": -4.788713566,
				"y": 3.5154572754,
				"z": 1.7489573108,
				"element": "N" 
			},
			{
				"x": -3.3968455563,
				"y": 3.619723916,
				"z": 1.9435624542,
				"element": "N" 
			},
			{
				"x": -2.531354311,
				"y": 3.7524709792,
				"z": 0.8887816355,
				"element": "C" 
			},
			{
				"x": -2.931693601,
				"y": 3.6917047821,
				"z": -0.2696396293,
				"element": "O" 
			},
			{
				"x": -1.0729253288,
				"y": 3.9523546932,
				"z": 1.2844382866,
				"element": "C" 
			},
			{
				"x": -0.2706568467,
				"y": 2.6570842779,
				"z": 1.5734107949,
				"element": "C" 
			},
			{
				"x": 0.2813412934,
				"y": 2.0257579741,
				"z": 0.3820602498,
				"element": "N" 
			},
			{
				"x": 1.4551599182,
				"y": 1.1712071686,
				"z": 0.6263280114,
				"element": "C" 
			},
			{
				"x": 1.1635661328,
				"y": -0.3336168156,
				"z": 0.5599020282,
				"element": "C" 
			},
			{
				"x": 0.6199091525,
				"y": -0.667408062,
				"z": -0.7501048466,
				"element": "N" 
			},
			{
				"x": -0.102522003,
				"y": 0.3932468543,
				"z": -1.4459018528,
				"element": "C" 
			},
			{
				"x": -0.7336236557,
				"y": 1.3595041084,
				"z": -0.4459782677,
				"element": "C" 
			},
			{
				"x": 0.7876715925,
				"y": -1.9258573245,
				"z": -1.3104027358,
				"element": "C" 
			},
			{
				"x": 0.5443324679,
				"y": -2.1550824448,
				"z": -2.6841538684,
				"element": "C" 
			},
			{
				"x": 0.7108945649,
				"y": -3.4227477327,
				"z": -3.23631288,
				"element": "C" 
			},
			{
				"x": 1.1309202707,
				"y": -4.5014377239,
				"z": -2.4562688967,
				"element": "C" 
			},
			{
				"x": 1.378201226,
				"y": -4.2847799774,
				"z": -1.0998426222,
				"element": "C" 
			},
			{
				"x": 1.2079976366,
				"y": -3.0260734799,
				"z": -0.5282639319,
				"element": "C" 
			},
			{
				"x": -5.0263009423,
				"y": 4.142674701,
				"z": 0.9793252931,
				"element": "H" 
			},
			{
				"x": -4.9776945413,
				"y": 2.578209728,
				"z": 1.394053242,
				"element": "H" 
			},
			{
				"x": -3.1188896016,
				"y": 3.8705174177,
				"z": 2.8806130093,
				"element": "H" 
			},
			{
				"x": -0.5802299097,
				"y": 4.4977380291,
				"z": 0.4762277683,
				"element": "H" 
			},
			{
				"x": -1.0359314168,
				"y": 4.5774492888,
				"z": 2.1855535085,
				"element": "H" 
			},
			{
				"x": 0.5720482875,
				"y": 2.943109646,
				"z": 2.2102204345,
				"element": "H" 
			},
			{
				"x": -0.903340642,
				"y": 1.9689629272,
				"z": 2.1707728285,
				"element": "H" 
			},
			{
				"x": 2.2296928782,
				"y": 1.3966113238,
				"z": -0.1198093159,
				"element": "H" 
			},
			{
				"x": 1.8831085361,
				"y": 1.4086650931,
				"z": 1.6054153934,
				"element": "H" 
			},
			{
				"x": 0.4871514945,
				"y": -0.6301890551,
				"z": 1.3798458116,
				"element": "H" 
			},
			{
				"x": 2.1046028261,
				"y": -0.8747767444,
				"z": 0.7104892256,
				"element": "H" 
			},
			{
				"x": 0.5450193571,
				"y": 0.9484990665,
				"z": -2.1442724159,
				"element": "H" 
			},
			{
				"x": -0.9090908566,
				"y": -0.0505119983,
				"z": -2.038078728,
				"element": "H" 
			},
			{
				"x": -1.4467362758,
				"y": 0.7872430934,
				"z": 0.179225595,
				"element": "H" 
			},
			{
				"x": -1.3186045365,
				"y": 2.1103561258,
				"z": -0.9829145104,
				"element": "H" 
			},
			{
				"x": 0.2499353546,
				"y": -1.3351343545,
				"z": -3.3291221779,
				"element": "H" 
			},
			{
				"x": 0.5191111877,
				"y": -3.5614976298,
				"z": -4.2972580598,
				"element": "H" 
			},
			{
				"x": 1.2621613844,
				"y": -5.4857829957,
				"z": -2.8943992744,
				"element": "H" 
			},
			{
				"x": 1.6982339986,
				"y": -5.1089338019,
				"z": -0.4673196618,
				"element": "H" 
			},
			{
				"x": 1.3764940308,
				"y": -2.904618329,
				"z": 0.5357607943,
				"element": "H" 
			}
		],
		 "valence_orbital": [ 
			{
				"type": "occ",
				"energy": -0.26069,
				"method": "rhf"
			},
			{
				"type": "occ",
				"energy": -0.25592,
				"method": "rhf"
			},
			{
				"type": "occ",
				"energy": -0.23548,
				"method": "rhf"
			},
			{
				"type": "occ",
				"energy": -0.20944,
				"method": "rhf"
			},
			{
				"type": "occ",
				"energy": -0.17995,
				"method": "rhf"
			},
			{
				"type": "unocc",
				"energy": 0.01272,
				"method": "rhf"
			},
			{
				"type": "unocc",
				"energy": 0.01338,
				"method": "rhf"
			},
			{
				"type": "unocc",
				"energy": 0.02888,
				"method": "rhf"
			},
			{
				"type": "unocc",
				"energy": 0.07486,
				"method": "rhf"
			},
			{
				"type": "unocc",
				"energy": 0.0799,
				"method": "rhf"
			}
		],
		"cosmo_sigma_profile": { 
			"-0.025": 0.0,
			"-0.024": 0.0,
			"-0.023": 0.0,
			"-0.022": 0.0,
			"-0.021": 0.0,
			"-0.02": 0.0,
			"-0.019": 0.0,
			"-0.018": 0.0,
			"-0.017": 0.0,
			"-0.016": 0.0,
			"-0.015": 0.182235770972,
			"-0.014": 0.931830453082,
			"-0.013": 1.04001403232,
			"-0.012": 1.46800413294,
			"-0.011": 2.94568174149,
			"-0.01": 3.03618178592,
			"-0.009": 4.18766387077,
			"-0.008": 3.11931368101,
			"-0.007": 3.42678120823,
			"-0.006": 4.67696247036,
			"-0.005": 18.0009423193,
			"-0.004": 27.6283496785,
			"-0.003": 35.0811216689,
			"-0.002": 44.5866392702,
			"-0.001": 25.6806103079,
			"0.0": 16.0155370088,
			"0.001": 13.3138598547,
			"0.002": 12.7320403968,
			"0.003": 11.3037642874,
			"0.004": 11.5324312182,
			"0.005": 11.9475303468,
			"0.006": 11.3874360632,
			"0.007": 11.3926602504,
			"0.008": 7.95427321695,
			"0.009": 2.4910343885,
			"0.01": 2.72377910624,
			"0.011": 2.44959814658,
			"0.012": 2.64029735184,
			"0.013": 4.2665424932,
			"0.014": 4.19414697481,
			"0.015": 1.13150834413,
			"0.016": 0.47777311553,
			"0.017": 0.332869018031,
			"0.018": 0.0,
			"0.019": 0.0,
			"0.02": 0.0,
			"0.021": 0.0,
			"0.022": 0.0,
			"0.023": 0.0,
			"0.024": 0.0,
			"0.025": 0.0
		}
	}
}
