{
	 "smiles": "OC(=O)C1=C(O)C(Cl)=CC=C1", 
	 "Tm": 447.15, 
	 "num_atms": 16, 
	 "gaussian": { 
		 "optdone": 1, 
		 "sigma_profile": "yes", 
		 "theory": "DFT", 
		 "functional": "B3LYP", 
		 "basiset": "6-31G**", 
		 "properties": { 
			 "R2extent": 3272.0057, 
			 "electric_dipole_moment_norm": 4.9429357643, 
			 "electric_quadrupole_moment_norm": 13.1855265257, 
			 "total_energy": -955.633341357, 
			 "HOMO_LUMO_gap": 0.19924, 
			 "cosmo_polarized_energy": -13.0, 
			 "cosmo_cavitation_energy": 22.11, 
			 "cosmo_dispersion_energy": -17.14, 
			 "cosmo_repulsion_energy": 1.36, 
			 "cosmo_total_nonelectrostatic_energy": 6.33, 
			 "SMD_solvation_energy": 5.04 
		},
		"coords": [
			{
				"x": 2.1288555504,
				"y": -1.3625042729,
				"z": 1.81953171,
				"element": "O" 
			},
			{
				"x": 1.034082661,
				"y": -1.0576312856,
				"z": 1.0999722092,
				"element": "C" 
			},
			{
				"x": -0.0073241482,
				"y": -1.6484491935,
				"z": 1.2823826645,
				"element": "O" 
			},
			{
				"x": 1.1424122058,
				"y": 0.0347589133,
				"z": 0.0605932874,
				"element": "C" 
			},
			{
				"x": 2.3108731352,
				"y": 0.7691802876,
				"z": -0.218217787,
				"element": "C" 
			},
			{
				"x": 3.45098111,
				"y": 0.5022716741,
				"z": 0.4827651437,
				"element": "O" 
			},
			{
				"x": 2.2786085023,
				"y": 1.7596061551,
				"z": -1.2104076413,
				"element": "C" 
			},
			{
				"x": 3.760456835,
				"y": 2.6599365533,
				"z": -1.5331601869,
				"element": "Cl" 
			},
			{
				"x": 1.1194705445,
				"y": 2.034373802,
				"z": -1.9264273736,
				"element": "C" 
			},
			{
				"x": -0.0389152405,
				"y": 1.3065169329,
				"z": -1.6502992909,
				"element": "C" 
			},
			{
				"x": -0.0191935604,
				"y": 0.3217301663,
				"z": -0.6685336561,
				"element": "C" 
			},
			{
				"x": 2.8819424049,
				"y": -0.8044506194,
				"z": 1.5566653457,
				"element": "H" 
			},
			{
				"x": 4.1681357735,
				"y": 1.083334936,
				"z": 0.1828115742,
				"element": "H" 
			},
			{
				"x": 1.1321981873,
				"y": 2.8077284766,
				"z": -2.6866007383,
				"element": "H" 
			},
			{
				"x": -0.9491878682,
				"y": 1.5127305139,
				"z": -2.2031288429,
				"element": "H" 
			},
			{
				"x": -0.9025960925,
				"y": -0.2602330398,
				"z": -0.4313464176,
				"element": "H" 
			}
		],
		 "valence_orbital": [ 
			{
				"type": "occ",
				"energy": -0.35315,
				"method": "rhf"
			},
			{
				"type": "occ",
				"energy": -0.30856,
				"method": "rhf"
			},
			{
				"type": "occ",
				"energy": -0.27349,
				"method": "rhf"
			},
			{
				"type": "occ",
				"energy": -0.2716,
				"method": "rhf"
			},
			{
				"type": "occ",
				"energy": -0.25768,
				"method": "rhf"
			},
			{
				"type": "unocc",
				"energy": -0.05844,
				"method": "rhf"
			},
			{
				"type": "unocc",
				"energy": -0.02293,
				"method": "rhf"
			},
			{
				"type": "unocc",
				"energy": -0.00247,
				"method": "rhf"
			},
			{
				"type": "unocc",
				"energy": 0.04749,
				"method": "rhf"
			},
			{
				"type": "unocc",
				"energy": 0.05486,
				"method": "rhf"
			}
		],
		"cosmo_sigma_profile": { 
			"-0.025": 0.0,
			"-0.024": 0.0,
			"-0.023": 0.0,
			"-0.022": 0.0,
			"-0.021": 0.0,
			"-0.02": 0.0,
			"-0.019": 0.0,
			"-0.018": 0.0,
			"-0.017": 0.267460280315,
			"-0.016": 0.558542138835,
			"-0.015": 0.892298747936,
			"-0.014": 0.742705836764,
			"-0.013": 0.649551046755,
			"-0.012": 0.854364706321,
			"-0.011": 1.18022043933,
			"-0.01": 1.37078273629,
			"-0.009": 1.93231683574,
			"-0.008": 4.01009456957,
			"-0.007": 6.03187594415,
			"-0.006": 9.76082796436,
			"-0.005": 10.032207797,
			"-0.004": 8.48391982416,
			"-0.003": 10.5553159574,
			"-0.002": 13.3057654154,
			"-0.001": 12.8481238898,
			"0.0": 17.1684837374,
			"0.001": 18.1637876962,
			"0.002": 15.7847883975,
			"0.003": 11.5368575034,
			"0.004": 4.944993939,
			"0.005": 2.08144437039,
			"0.006": 2.00393718382,
			"0.007": 2.59812739862,
			"0.008": 2.77901517429,
			"0.009": 2.50533939171,
			"0.01": 4.20411027897,
			"0.011": 5.48611025836,
			"0.012": 5.08819870781,
			"0.013": 2.18456162782,
			"0.014": 0.244862737642,
			"0.015": 0.0,
			"0.016": 0.0,
			"0.017": 0.0,
			"0.018": 0.0,
			"0.019": 0.0,
			"0.02": 0.0,
			"0.021": 0.0,
			"0.022": 0.0,
			"0.023": 0.0,
			"0.024": 0.0,
			"0.025": 0.0
		}
	}
}
