{
	 "smiles": "CS(=O)(=O)CC1=NC(Cl)=C(Br)C(Cl)=N1", 
	 "Tm": 448.15, 
	 "num_atms": 19, 
	 "gaussian": { 
		 "optdone": 1, 
		 "sigma_profile": "yes", 
		 "theory": "DFT", 
		 "functional": "B3LYP", 
		 "basiset": "6-31G**", 
		 "properties": { 
			 "R2extent": 6819.1442, 
			 "electric_dipole_moment_norm": 4.40371662803, 
			 "electric_quadrupole_moment_norm": 21.465190871, 
			 "total_energy": -4381.50290505, 
			 "HOMO_LUMO_gap": 0.19798, 
			 "cosmo_polarized_energy": -15.97, 
			 "cosmo_cavitation_energy": 31.26, 
			 "cosmo_dispersion_energy": -23.42, 
			 "cosmo_repulsion_energy": 1.82, 
			 "cosmo_total_nonelectrostatic_energy": 9.66, 
			 "SMD_solvation_energy": 1.21 
		},
		"coords": [
			{
				"x": -2.2130741734,
				"y": 1.4418094162,
				"z": -1.6130227704,
				"element": "C" 
			},
			{
				"x": -0.9917303137,
				"y": 2.7390375836,
				"z": -1.3191937125,
				"element": "S" 
			},
			{
				"x": -1.0693619719,
				"y": 3.7057689314,
				"z": -2.4224916787,
				"element": "O" 
			},
			{
				"x": -1.1072292383,
				"y": 3.1711043011,
				"z": 0.0802222915,
				"element": "O" 
			},
			{
				"x": 0.6287392269,
				"y": 1.8782951174,
				"z": -1.5139489327,
				"element": "C" 
			},
			{
				"x": 1.0144686544,
				"y": 1.0666732894,
				"z": -0.3146932991,
				"element": "C" 
			},
			{
				"x": 2.0115188236,
				"y": 1.5289869475,
				"z": 0.4436823003,
				"element": "N" 
			},
			{
				"x": 2.3380885394,
				"y": 0.8207011024,
				"z": 1.513033591,
				"element": "C" 
			},
			{
				"x": 3.6444484327,
				"y": 1.4399676474,
				"z": 2.4758254595,
				"element": "Cl" 
			},
			{
				"x": 1.6820993006,
				"y": -0.3711875446,
				"z": 1.8687473175,
				"element": "C" 
			},
			{
				"x": 2.1467121552,
				"y": -1.3720031659,
				"z": 3.3907686016,
				"element": "Br" 
			},
			{
				"x": 0.653580048,
				"y": -0.7574851034,
				"z": 0.9922809433,
				"element": "C" 
			},
			{
				"x": -0.2622174411,
				"y": -2.2091571763,
				"z": 1.2732554733,
				"element": "Cl" 
			},
			{
				"x": 0.3264572277,
				"y": -0.0585130145,
				"z": -0.0822472788,
				"element": "N" 
			},
			{
				"x": -2.1609059541,
				"y": 1.1365525175,
				"z": -2.6589980764,
				"element": "H" 
			},
			{
				"x": -3.1832380739,
				"y": 1.8921288093,
				"z": -1.3949921956,
				"element": "H" 
			},
			{
				"x": -2.0102799028,
				"y": 0.6047360998,
				"z": -0.94445089,
				"element": "H" 
			},
			{
				"x": 0.5535018954,
				"y": 1.2672002038,
				"z": -2.4166632746,
				"element": "H" 
			},
			{
				"x": 1.3396227653,
				"y": 2.6904840381,
				"z": -1.6714138691,
				"element": "H" 
			}
		],
		 "valence_orbital": [ 
			{
				"type": "occ",
				"energy": -0.31936,
				"method": "rhf"
			},
			{
				"type": "occ",
				"energy": -0.30364,
				"method": "rhf"
			},
			{
				"type": "occ",
				"energy": -0.30096,
				"method": "rhf"
			},
			{
				"type": "occ",
				"energy": -0.29315,
				"method": "rhf"
			},
			{
				"type": "occ",
				"energy": -0.28021,
				"method": "rhf"
			},
			{
				"type": "unocc",
				"energy": -0.08223,
				"method": "rhf"
			},
			{
				"type": "unocc",
				"energy": -0.0789,
				"method": "rhf"
			},
			{
				"type": "unocc",
				"energy": -0.04451,
				"method": "rhf"
			},
			{
				"type": "unocc",
				"energy": 0.01897,
				"method": "rhf"
			},
			{
				"type": "unocc",
				"energy": 0.02855,
				"method": "rhf"
			}
		],
		"cosmo_sigma_profile": { 
			"-0.025": 0.0,
			"-0.024": 0.0,
			"-0.023": 0.0,
			"-0.022": 0.0,
			"-0.021": 0.0,
			"-0.02": 0.0,
			"-0.019": 0.0,
			"-0.018": 0.0,
			"-0.017": 0.0,
			"-0.016": 0.0,
			"-0.015": 0.0,
			"-0.014": 0.0,
			"-0.013": 0.0513890866891,
			"-0.012": 0.566033609701,
			"-0.011": 1.61933664942,
			"-0.01": 3.06944187624,
			"-0.009": 6.39640892818,
			"-0.008": 6.84496629554,
			"-0.007": 9.86954163724,
			"-0.006": 12.2692639193,
			"-0.005": 18.706250318,
			"-0.004": 18.6184601254,
			"-0.003": 16.1627262638,
			"-0.002": 15.0497669966,
			"-0.001": 13.5780984274,
			"0.0": 15.976433133,
			"0.001": 19.9202616418,
			"0.002": 30.8735134066,
			"0.003": 18.661081184,
			"0.004": 5.29429809039,
			"0.005": 4.54455354632,
			"0.006": 3.91647787262,
			"0.007": 4.14203367554,
			"0.008": 4.40045045003,
			"0.009": 4.18779353257,
			"0.01": 5.87463977012,
			"0.011": 11.9646834665,
			"0.012": 6.23570255454,
			"0.013": 0.027936204439,
			"0.014": 0.0,
			"0.015": 0.0,
			"0.016": 0.0,
			"0.017": 0.0,
			"0.018": 0.0,
			"0.019": 0.0,
			"0.02": 0.0,
			"0.021": 0.0,
			"0.022": 0.0,
			"0.023": 0.0,
			"0.024": 0.0,
			"0.025": 0.0
		}
	}
}
