{
	 "smiles": "OC1=CC=C(C=CC2=CC(O)=CC(O)=C2)C=C1", 
	 "Tm": 527.15, 
	 "num_atms": 29, 
	 "gaussian": { 
		 "optdone": 1, 
		 "sigma_profile": "yes", 
		 "theory": "DFT", 
		 "functional": "B3LYP", 
		 "basiset": "6-31G**", 
		 "properties": { 
			 "R2extent": 7557.5041, 
			 "electric_dipole_moment_norm": 3.27868481407, 
			 "electric_quadrupole_moment_norm": 21.2043330669, 
			 "total_energy": -766.375417118, 
			 "HOMO_LUMO_gap": 0.14763, 
			 "cosmo_polarized_energy": -20.49, 
			 "cosmo_cavitation_energy": 34.19, 
			 "cosmo_dispersion_energy": -25.13, 
			 "cosmo_repulsion_energy": 1.92, 
			 "cosmo_total_nonelectrostatic_energy": 10.98, 
			 "SMD_solvation_energy": 6.66 
		},
		"coords": [
			{
				"x": -4.5865233379,
				"y": -2.316981616,
				"z": -2.5652828592,
				"element": "O" 
			},
			{
				"x": -3.4305799776,
				"y": -2.0047434978,
				"z": -1.910284708,
				"element": "C" 
			},
			{
				"x": -2.5179961791,
				"y": -1.0566766969,
				"z": -2.3920869342,
				"element": "C" 
			},
			{
				"x": -1.3553116625,
				"y": -0.7811044297,
				"z": -1.6820193729,
				"element": "C" 
			},
			{
				"x": -1.0634739572,
				"y": -1.4347893608,
				"z": -0.4695485874,
				"element": "C" 
			},
			{
				"x": 0.1406282789,
				"y": -1.1799804552,
				"z": 0.3228687978,
				"element": "C" 
			},
			{
				"x": 1.0821256888,
				"y": -0.2396966165,
				"z": 0.1012995936,
				"element": "C" 
			},
			{
				"x": 2.2895629747,
				"y": 0.0024248135,
				"z": 0.897214375,
				"element": "C" 
			},
			{
				"x": 3.058578425,
				"y": 1.1428595046,
				"z": 0.6095151748,
				"element": "C" 
			},
			{
				"x": 4.2139940721,
				"y": 1.4253644058,
				"z": 1.3451760497,
				"element": "C" 
			},
			{
				"x": 4.9838387758,
				"y": 2.5266812315,
				"z": 1.096750439,
				"element": "O" 
			},
			{
				"x": 4.6284785368,
				"y": 0.5805538416,
				"z": 2.3738589093,
				"element": "C" 
			},
			{
				"x": 3.8681343375,
				"y": -0.557873416,
				"z": 2.6556727107,
				"element": "C" 
			},
			{
				"x": 4.3176628003,
				"y": -1.3609062792,
				"z": 3.6658578682,
				"element": "O" 
			},
			{
				"x": 2.7125518937,
				"y": -0.8531534557,
				"z": 1.9303314591,
				"element": "C" 
			},
			{
				"x": -1.9957638662,
				"y": -2.3874788719,
				"z": -0.0120952736,
				"element": "C" 
			},
			{
				"x": -3.1616414929,
				"y": -2.6733143016,
				"z": -0.7115901536,
				"element": "C" 
			},
			{
				"x": -4.6479841032,
				"y": -1.7879467731,
				"z": -3.3712370023,
				"element": "H" 
			},
			{
				"x": -2.7180591618,
				"y": -0.5384731539,
				"z": -3.3280045,
				"element": "H" 
			},
			{
				"x": -0.661696843,
				"y": -0.0500189147,
				"z": -2.0853763132,
				"element": "H" 
			},
			{
				"x": 0.2500988969,
				"y": -1.8317255089,
				"z": 1.1883627678,
				"element": "H" 
			},
			{
				"x": 0.956427216,
				"y": 0.4397918708,
				"z": -0.7399384358,
				"element": "H" 
			},
			{
				"x": 2.7459519006,
				"y": 1.8140394798,
				"z": -0.1877352623,
				"element": "H" 
			},
			{
				"x": 4.5914542067,
				"y": 3.0254120038,
				"z": 0.3687482082,
				"element": "H" 
			},
			{
				"x": 5.5255356846,
				"y": 0.7982575228,
				"z": 2.9407596339,
				"element": "H" 
			},
			{
				"x": 3.7136804441,
				"y": -2.1080489628,
				"z": 3.7645730029,
				"element": "H" 
			},
			{
				"x": 2.1541614216,
				"y": -1.7561178254,
				"z": 2.1611262819,
				"element": "H" 
			},
			{
				"x": -1.7977177464,
				"y": -2.9124380566,
				"z": 0.9191099411,
				"element": "H" 
			},
			{
				"x": -3.8727172264,
				"y": -3.4077164813,
				"z": -0.34812581,
				"element": "H" 
			}
		],
		 "valence_orbital": [ 
			{
				"type": "occ",
				"energy": -0.27686,
				"method": "rhf"
			},
			{
				"type": "occ",
				"energy": -0.25728,
				"method": "rhf"
			},
			{
				"type": "occ",
				"energy": -0.23651,
				"method": "rhf"
			},
			{
				"type": "occ",
				"energy": -0.21411,
				"method": "rhf"
			},
			{
				"type": "occ",
				"energy": -0.19392,
				"method": "rhf"
			},
			{
				"type": "unocc",
				"energy": -0.04629,
				"method": "rhf"
			},
			{
				"type": "unocc",
				"energy": -0.00588,
				"method": "rhf"
			},
			{
				"type": "unocc",
				"energy": 0.02367,
				"method": "rhf"
			},
			{
				"type": "unocc",
				"energy": 0.02559,
				"method": "rhf"
			},
			{
				"type": "unocc",
				"energy": 0.0654,
				"method": "rhf"
			}
		],
		"cosmo_sigma_profile": { 
			"-0.025": 0.0,
			"-0.024": 0.0,
			"-0.023": 0.0,
			"-0.022": 0.0,
			"-0.021": 0.0,
			"-0.02": 0.0,
			"-0.019": 0.0,
			"-0.018": 0.991186066863,
			"-0.017": 3.07645032997,
			"-0.016": 3.63580014191,
			"-0.015": 2.82850173819,
			"-0.014": 2.89111940524,
			"-0.013": 2.61106958836,
			"-0.012": 2.44305408376,
			"-0.011": 2.73962724431,
			"-0.01": 3.73871311454,
			"-0.009": 3.83329325622,
			"-0.008": 2.54240316762,
			"-0.007": 6.5423251185,
			"-0.006": 15.7372813035,
			"-0.005": 15.4063294067,
			"-0.004": 13.363245112,
			"-0.003": 10.4316141601,
			"-0.002": 10.4372368262,
			"-0.001": 8.87148749295,
			"0.0": 10.4400588398,
			"0.001": 12.2886493953,
			"0.002": 14.9005055963,
			"0.003": 17.5575130219,
			"0.004": 29.1054148218,
			"0.005": 37.4379037256,
			"0.006": 13.0754373142,
			"0.007": 3.75219439921,
			"0.008": 5.04302249181,
			"0.009": 4.04255256069,
			"0.01": 4.61631494753,
			"0.011": 6.1076209185,
			"0.012": 2.23392206748,
			"0.013": 0.0,
			"0.014": 0.0,
			"0.015": 0.0,
			"0.016": 0.0,
			"0.017": 0.0,
			"0.018": 0.0,
			"0.019": 0.0,
			"0.02": 0.0,
			"0.021": 0.0,
			"0.022": 0.0,
			"0.023": 0.0,
			"0.024": 0.0,
			"0.025": 0.0
		}
	}
}
