{
	 "smiles": "OC(=O)C1=C(C=CC(Cl)=C1F)C(F)(F)F", 
	 "Tm": 370.15, 
	 "num_atms": 18, 
	 "gaussian": { 
		 "optdone": 1, 
		 "sigma_profile": "yes", 
		 "theory": "DFT", 
		 "functional": "B3LYP", 
		 "basiset": "6-31G**", 
		 "properties": { 
			 "R2extent": 4880.5934, 
			 "electric_dipole_moment_norm": 1.94882499471, 
			 "electric_quadrupole_moment_norm": 11.1367499105, 
			 "total_energy": -1316.66015594, 
			 "HOMO_LUMO_gap": 0.20785, 
			 "cosmo_polarized_energy": -10.17, 
			 "cosmo_cavitation_energy": 26.89, 
			 "cosmo_dispersion_energy": -19.14, 
			 "cosmo_repulsion_energy": 1.43, 
			 "cosmo_total_nonelectrostatic_energy": 9.18, 
			 "SMD_solvation_energy": 6.9 
		},
		"coords": [
			{
				"x": 1.1850312122,
				"y": -3.1238193593,
				"z": -2.0908689477,
				"element": "O" 
			},
			{
				"x": 0.2237960294,
				"y": -2.2049381522,
				"z": -2.3016750557,
				"element": "C" 
			},
			{
				"x": -0.0160831754,
				"y": -1.7133528301,
				"z": -3.3788243109,
				"element": "O" 
			},
			{
				"x": -0.5226972398,
				"y": -1.8771346707,
				"z": -1.0356561516,
				"element": "C" 
			},
			{
				"x": -0.6495815146,
				"y": -0.5632688821,
				"z": -0.5498473508,
				"element": "C" 
			},
			{
				"x": -1.3951810488,
				"y": -0.3135539611,
				"z": 0.6019881071,
				"element": "C" 
			},
			{
				"x": -2.0329698838,
				"y": -1.3525559256,
				"z": 1.2774621594,
				"element": "C" 
			},
			{
				"x": -1.9189483947,
				"y": -2.6564399042,
				"z": 0.8046876764,
				"element": "C" 
			},
			{
				"x": -2.7036475029,
				"y": -3.9787846815,
				"z": 1.6189789221,
				"element": "Cl" 
			},
			{
				"x": -1.1613050752,
				"y": -2.9059839905,
				"z": -0.342714413,
				"element": "C" 
			},
			{
				"x": -1.0698437604,
				"y": -4.1589279219,
				"z": -0.8018805999,
				"element": "F" 
			},
			{
				"x": 0.0209141474,
				"y": 0.5985452626,
				"z": -1.2530627442,
				"element": "C" 
			},
			{
				"x": -0.6448260978,
				"y": 0.9720309921,
				"z": -2.3586484058,
				"element": "F" 
			},
			{
				"x": 0.0892624525,
				"y": 1.6796480754,
				"z": -0.4438636082,
				"element": "F" 
			},
			{
				"x": 1.2859339787,
				"y": 0.2933054939,
				"z": -1.6160985689,
				"element": "F" 
			},
			{
				"x": 1.5926399857,
				"y": -3.2986912346,
				"z": -2.956821068,
				"element": "H" 
			},
			{
				"x": -1.4705977015,
				"y": 0.698868159,
				"z": 0.9784252948,
				"element": "H" 
			},
			{
				"x": -2.6159964112,
				"y": -1.1580464693,
				"z": 2.1704190649,
				"element": "H" 
			}
		],
		 "valence_orbital": [ 
			{
				"type": "occ",
				"energy": -0.33638,
				"method": "rhf"
			},
			{
				"type": "occ",
				"energy": -0.33458,
				"method": "rhf"
			},
			{
				"type": "occ",
				"energy": -0.3034,
				"method": "rhf"
			},
			{
				"type": "occ",
				"energy": -0.28167,
				"method": "rhf"
			},
			{
				"type": "occ",
				"energy": -0.27379,
				"method": "rhf"
			},
			{
				"type": "unocc",
				"energy": -0.06594,
				"method": "rhf"
			},
			{
				"type": "unocc",
				"energy": -0.04054,
				"method": "rhf"
			},
			{
				"type": "unocc",
				"energy": -0.00313,
				"method": "rhf"
			},
			{
				"type": "unocc",
				"energy": 0.01255,
				"method": "rhf"
			},
			{
				"type": "unocc",
				"energy": 0.06912,
				"method": "rhf"
			}
		],
		"cosmo_sigma_profile": { 
			"-0.025": 0.0,
			"-0.024": 0.0,
			"-0.023": 0.0,
			"-0.022": 0.0,
			"-0.021": 0.0,
			"-0.02": 0.0912668347959,
			"-0.019": 1.15358568736,
			"-0.018": 0.919578876349,
			"-0.017": 0.817226623846,
			"-0.016": 0.89594905062,
			"-0.015": 0.392200857876,
			"-0.014": 0.453607614213,
			"-0.013": 0.593892435279,
			"-0.012": 1.04945742527,
			"-0.011": 0.891633027634,
			"-0.01": 0.594783995936,
			"-0.009": 2.97109045594,
			"-0.008": 5.26234758689,
			"-0.007": 4.33020251634,
			"-0.006": 3.81023202581,
			"-0.005": 5.3018887599,
			"-0.004": 7.70509582917,
			"-0.003": 13.3220023844,
			"-0.002": 18.1082890154,
			"-0.001": 19.7237530835,
			"0.0": 19.2250139193,
			"0.001": 17.1053084042,
			"0.002": 34.2551294074,
			"0.003": 26.1271019574,
			"0.004": 9.38988380977,
			"0.005": 4.92833087847,
			"0.006": 3.22062461602,
			"0.007": 3.30343259147,
			"0.008": 3.67651776455,
			"0.009": 2.87257198604,
			"0.01": 4.33564448302,
			"0.011": 2.23901600786,
			"0.012": 0.0,
			"0.013": 0.0,
			"0.014": 0.0,
			"0.015": 0.0,
			"0.016": 0.0,
			"0.017": 0.0,
			"0.018": 0.0,
			"0.019": 0.0,
			"0.02": 0.0,
			"0.021": 0.0,
			"0.022": 0.0,
			"0.023": 0.0,
			"0.024": 0.0,
			"0.025": 0.0
		}
	}
}
