{
	 "smiles": "CN1C(S)=NN=C1CC1=NC(=NO1)C1=NC=CN=C1", 
	 "Tm": 477.15, 
	 "num_atms": 28, 
	 "gaussian": { 
		 "optdone": 1, 
		 "sigma_profile": "yes", 
		 "theory": "DFT", 
		 "functional": "B3LYP", 
		 "basiset": "6-31G**", 
		 "properties": { 
			 "R2extent": 7427.5122, 
			 "electric_dipole_moment_norm": 5.1876755845, 
			 "electric_quadrupole_moment_norm": 9.45130364712, 
			 "total_energy": -1243.07559337, 
			 "HOMO_LUMO_gap": 0.15731, 
			 "cosmo_polarized_energy": -21.92, 
			 "cosmo_cavitation_energy": 36.02, 
			 "cosmo_dispersion_energy": -26.41, 
			 "cosmo_repulsion_energy": 1.97, 
			 "cosmo_total_nonelectrostatic_energy": 11.58, 
			 "SMD_solvation_energy": -0.01 
		},
		"coords": [
			{
				"x": -1.8648297267,
				"y": 1.879269455,
				"z": -0.0383750004,
				"element": "C" 
			},
			{
				"x": -2.0131457475,
				"y": 0.9271077904,
				"z": 1.0595338594,
				"element": "N" 
			},
			{
				"x": -2.3948986561,
				"y": 1.194672557,
				"z": 2.3490797312,
				"element": "C" 
			},
			{
				"x": -2.7459270957,
				"y": 2.8305400836,
				"z": 2.9183915747,
				"element": "S" 
			},
			{
				"x": -2.4608713038,
				"y": 0.0974085004,
				"z": 3.0688073004,
				"element": "N" 
			},
			{
				"x": -2.1165523194,
				"y": -0.9453184787,
				"z": 2.2337129078,
				"element": "N" 
			},
			{
				"x": -1.859015925,
				"y": -0.4438894427,
				"z": 1.0497189957,
				"element": "C" 
			},
			{
				"x": -1.4816514786,
				"y": -1.2782339754,
				"z": -0.1405232181,
				"element": "C" 
			},
			{
				"x": -0.0437514695,
				"y": -1.1495152627,
				"z": -0.5466678172,
				"element": "C" 
			},
			{
				"x": 0.5558829897,
				"y": -0.1264894798,
				"z": -1.0800501798,
				"element": "N" 
			},
			{
				"x": 1.8481670109,
				"y": -0.5830239097,
				"z": -1.2245497514,
				"element": "C" 
			},
			{
				"x": 2.0348430973,
				"y": -1.8178899632,
				"z": -0.8118407937,
				"element": "N" 
			},
			{
				"x": 0.7711659511,
				"y": -2.2012573318,
				"z": -0.3563118805,
				"element": "O" 
			},
			{
				"x": 2.9465758398,
				"y": 0.2208491427,
				"z": -1.7926839533,
				"element": "C" 
			},
			{
				"x": 2.6620161376,
				"y": 1.4715875633,
				"z": -2.1807926926,
				"element": "N" 
			},
			{
				"x": 3.6752906907,
				"y": 2.1755607872,
				"z": -2.6906429021,
				"element": "C" 
			},
			{
				"x": 4.9604881851,
				"y": 1.642698157,
				"z": -2.8146807333,
				"element": "C" 
			},
			{
				"x": 5.2488574861,
				"y": 0.3939703828,
				"z": -2.4280718563,
				"element": "N" 
			},
			{
				"x": 4.240074761,
				"y": -0.3139335803,
				"z": -1.9173533911,
				"element": "C" 
			},
			{
				"x": -1.5341307996,
				"y": 2.8385543773,
				"z": 0.3658010063,
				"element": "H" 
			},
			{
				"x": -1.1013252318,
				"y": 1.5201817765,
				"z": -0.7297239586,
				"element": "H" 
			},
			{
				"x": -2.8164822162,
				"y": 2.0229053978,
				"z": -0.5602046939,
				"element": "H" 
			},
			{
				"x": -2.9021459491,
				"y": 2.421003116,
				"z": 4.1912510874,
				"element": "H" 
			},
			{
				"x": -1.6788158657,
				"y": -2.3162597014,
				"z": 0.1332899072,
				"element": "H" 
			},
			{
				"x": -2.1047385467,
				"y": -1.0290313478,
				"z": -1.0073322419,
				"element": "H" 
			},
			{
				"x": 3.4583118084,
				"y": 3.1927966146,
				"z": -3.0095820692,
				"element": "H" 
			},
			{
				"x": 5.772985804,
				"y": 2.2326011425,
				"z": -3.2331197735,
				"element": "H" 
			},
			{
				"x": 4.4508225695,
				"y": -1.3304643707,
				"z": -1.5958794632,
				"element": "H" 
			}
		],
		 "valence_orbital": [ 
			{
				"type": "occ",
				"energy": -0.29407,
				"method": "rhf"
			},
			{
				"type": "occ",
				"energy": -0.27559,
				"method": "rhf"
			},
			{
				"type": "occ",
				"energy": -0.2638,
				"method": "rhf"
			},
			{
				"type": "occ",
				"energy": -0.26029,
				"method": "rhf"
			},
			{
				"type": "occ",
				"energy": -0.23517,
				"method": "rhf"
			},
			{
				"type": "unocc",
				"energy": -0.07786,
				"method": "rhf"
			},
			{
				"type": "unocc",
				"energy": -0.0579,
				"method": "rhf"
			},
			{
				"type": "unocc",
				"energy": -0.02828,
				"method": "rhf"
			},
			{
				"type": "unocc",
				"energy": 0.00185,
				"method": "rhf"
			},
			{
				"type": "unocc",
				"energy": 0.01129,
				"method": "rhf"
			}
		],
		"cosmo_sigma_profile": { 
			"-0.025": 0.0,
			"-0.024": 0.0,
			"-0.023": 0.0,
			"-0.022": 0.0,
			"-0.021": 0.0,
			"-0.02": 0.0,
			"-0.019": 0.0,
			"-0.018": 0.0,
			"-0.017": 0.0,
			"-0.016": 0.0,
			"-0.015": 0.0,
			"-0.014": 0.0,
			"-0.013": 0.177898650712,
			"-0.012": 1.41915075352,
			"-0.011": 1.55601149575,
			"-0.01": 1.38121088748,
			"-0.009": 6.89350758607,
			"-0.008": 11.9239124311,
			"-0.007": 16.2841430441,
			"-0.006": 18.9571512024,
			"-0.005": 17.7869304027,
			"-0.004": 20.853980946,
			"-0.003": 24.3186501031,
			"-0.002": 22.0089232651,
			"-0.001": 18.8503512846,
			"0.0": 13.871712555,
			"0.001": 15.5200555873,
			"0.002": 13.145983545,
			"0.003": 9.49033171028,
			"0.004": 10.5967274522,
			"0.005": 12.5819497797,
			"0.006": 9.40065241641,
			"0.007": 5.94332724379,
			"0.008": 4.85098975666,
			"0.009": 4.75311681266,
			"0.01": 5.95738716592,
			"0.011": 5.2601163655,
			"0.012": 4.16725650446,
			"0.013": 5.2990764245,
			"0.014": 4.68148104824,
			"0.015": 3.47804513478,
			"0.016": 1.73991857446,
			"0.017": 0.189304350441,
			"0.018": 0.0,
			"0.019": 0.0,
			"0.02": 0.0,
			"0.021": 0.0,
			"0.022": 0.0,
			"0.023": 0.0,
			"0.024": 0.0,
			"0.025": 0.0
		}
	}
}
