{
	 "smiles": "CN(C)C(=O)C1=CC(=CC=C1)C(O)=O", 
	 "Tm": 408.15, 
	 "num_atms": 25, 
	 "gaussian": { 
		 "optdone": 1, 
		 "sigma_profile": "yes", 
		 "theory": "DFT", 
		 "functional": "B3LYP", 
		 "basiset": "6-31G**", 
		 "properties": { 
			 "R2extent": 4155.9767, 
			 "electric_dipole_moment_norm": 6.64162293193, 
			 "electric_quadrupole_moment_norm": 20.8624810121, 
			 "total_energy": -668.132151929, 
			 "HOMO_LUMO_gap": 0.18628, 
			 "cosmo_polarized_energy": -20.96, 
			 "cosmo_cavitation_energy": 29.31, 
			 "cosmo_dispersion_energy": -21.0, 
			 "cosmo_repulsion_energy": 1.66, 
			 "cosmo_total_nonelectrostatic_energy": 9.97, 
			 "SMD_solvation_energy": 6.82 
		},
		"coords": [
			{
				"x": 1.3428752116,
				"y": 0.9791849808,
				"z": -1.0493688667,
				"element": "C" 
			},
			{
				"x": 0.1915576325,
				"y": 0.4491934488,
				"z": -1.7674777586,
				"element": "N" 
			},
			{
				"x": 0.3858344801,
				"y": 0.2738814231,
				"z": -3.2018719877,
				"element": "C" 
			},
			{
				"x": -0.8758474332,
				"y": -0.1921221191,
				"z": -1.1813307315,
				"element": "C" 
			},
			{
				"x": -1.6274991569,
				"y": -0.9307917322,
				"z": -1.8121056046,
				"element": "O" 
			},
			{
				"x": -1.1624064752,
				"y": 0.0750043806,
				"z": 0.2767312508,
				"element": "C" 
			},
			{
				"x": -1.5060309805,
				"y": -1.0117615353,
				"z": 1.0850606332,
				"element": "C" 
			},
			{
				"x": -1.8881745221,
				"y": -0.8173902094,
				"z": 2.4162628623,
				"element": "C" 
			},
			{
				"x": -1.9297466595,
				"y": 0.4830310152,
				"z": 2.9414435561,
				"element": "C" 
			},
			{
				"x": -1.6049672005,
				"y": 1.5728942843,
				"z": 2.1352696388,
				"element": "C" 
			},
			{
				"x": -1.2242300157,
				"y": 1.3714445784,
				"z": 0.8082239418,
				"element": "C" 
			},
			{
				"x": -2.2088388064,
				"y": -2.0334975418,
				"z": 3.2353719377,
				"element": "C" 
			},
			{
				"x": -3.0157807309,
				"y": -1.8438162823,
				"z": 4.3148395519,
				"element": "O" 
			},
			{
				"x": -1.785570484,
				"y": -3.1355109592,
				"z": 2.9815604811,
				"element": "O" 
			},
			{
				"x": 1.1928223335,
				"y": 0.9179758647,
				"z": 0.0266674081,
				"element": "H" 
			},
			{
				"x": 1.5270738271,
				"y": 2.0261843665,
				"z": -1.3211957945,
				"element": "H" 
			},
			{
				"x": 2.2424849741,
				"y": 0.4019764504,
				"z": -1.3019432975,
				"element": "H" 
			},
			{
				"x": -0.5536674906,
				"y": -0.0464151628,
				"z": -3.6484928739,
				"element": "H" 
			},
			{
				"x": 0.7094497599,
				"y": 1.2217305465,
				"z": -3.6456917781,
				"element": "H" 
			},
			{
				"x": 1.1511815992,
				"y": -0.486031374,
				"z": -3.4102027565,
				"element": "H" 
			},
			{
				"x": -1.4875389443,
				"y": -2.0174638224,
				"z": 0.6807529674,
				"element": "H" 
			},
			{
				"x": -2.1806219328,
				"y": 0.652405271,
				"z": 3.9857428301,
				"element": "H" 
			},
			{
				"x": -1.6443301837,
				"y": 2.5789474214,
				"z": 2.5416449211,
				"element": "H" 
			},
			{
				"x": -0.9867386042,
				"y": 2.2240653316,
				"z": 0.1791324582,
				"element": "H" 
			},
			{
				"x": -3.4110901975,
				"y": -0.9616186245,
				"z": 4.2838770107,
				"element": "H" 
			}
		],
		 "valence_orbital": [ 
			{
				"type": "occ",
				"energy": -0.28206,
				"method": "rhf"
			},
			{
				"type": "occ",
				"energy": -0.28065,
				"method": "rhf"
			},
			{
				"type": "occ",
				"energy": -0.2684,
				"method": "rhf"
			},
			{
				"type": "occ",
				"energy": -0.25378,
				"method": "rhf"
			},
			{
				"type": "occ",
				"energy": -0.24339,
				"method": "rhf"
			},
			{
				"type": "unocc",
				"energy": -0.05711,
				"method": "rhf"
			},
			{
				"type": "unocc",
				"energy": -0.03779,
				"method": "rhf"
			},
			{
				"type": "unocc",
				"energy": 0.02282,
				"method": "rhf"
			},
			{
				"type": "unocc",
				"energy": 0.05295,
				"method": "rhf"
			},
			{
				"type": "unocc",
				"energy": 0.05988,
				"method": "rhf"
			}
		],
		"cosmo_sigma_profile": { 
			"-0.025": 0.0,
			"-0.024": 0.0,
			"-0.023": 0.0,
			"-0.022": 0.0,
			"-0.021": 0.0,
			"-0.02": 0.0,
			"-0.019": 0.113994343607,
			"-0.018": 0.979257999085,
			"-0.017": 1.20409767208,
			"-0.016": 0.594979115763,
			"-0.015": 1.74282625462,
			"-0.014": 0.590314559697,
			"-0.013": 0.924152438535,
			"-0.012": 0.982309680748,
			"-0.011": 1.45892622431,
			"-0.01": 0.925553948131,
			"-0.009": 1.72405493367,
			"-0.008": 2.01156007343,
			"-0.007": 5.91085142994,
			"-0.006": 8.02464258964,
			"-0.005": 17.265530601,
			"-0.004": 23.6219122917,
			"-0.003": 25.8242416528,
			"-0.002": 24.7365740407,
			"-0.001": 14.5968407458,
			"0.0": 10.8604601857,
			"0.001": 11.909169267,
			"0.002": 15.2954799593,
			"0.003": 7.38252049338,
			"0.004": 3.88643578834,
			"0.005": 4.02977762568,
			"0.006": 4.56590898317,
			"0.007": 3.246281921,
			"0.008": 5.11489629007,
			"0.009": 4.56996004018,
			"0.01": 6.59642217606,
			"0.011": 6.74095406583,
			"0.012": 6.30548109214,
			"0.013": 5.37813025888,
			"0.014": 3.59239301736,
			"0.015": 0.370164224757,
			"0.016": 0.0,
			"0.017": 0.0,
			"0.018": 0.0,
			"0.019": 0.0,
			"0.02": 0.0,
			"0.021": 0.0,
			"0.022": 0.0,
			"0.023": 0.0,
			"0.024": 0.0,
			"0.025": 0.0
		}
	}
}
