{
	 "smiles": "CC(=O)NCCC(N)=S", 
	 "Tm": 373.15, 
	 "num_atms": 19, 
	 "gaussian": { 
		 "optdone": 1, 
		 "sigma_profile": "yes", 
		 "theory": "DFT", 
		 "functional": "B3LYP", 
		 "basiset": "6-31G**", 
		 "properties": { 
			 "R2extent": 2649.7375, 
			 "electric_dipole_moment_norm": 4.27355457319, 
			 "electric_quadrupole_moment_norm": 22.7308109629, 
			 "total_energy": -779.506290894, 
			 "HOMO_LUMO_gap": 0.17629, 
			 "cosmo_polarized_energy": -17.93, 
			 "cosmo_cavitation_energy": 23.66, 
			 "cosmo_dispersion_energy": -17.52, 
			 "cosmo_repulsion_energy": 1.42, 
			 "cosmo_total_nonelectrostatic_energy": 7.57, 
			 "SMD_solvation_energy": 3.18 
		},
		"coords": [
			{
				"x": 0.7403183478,
				"y": -2.0005445821,
				"z": -2.0997267647,
				"element": "C" 
			},
			{
				"x": 0.4422145754,
				"y": -1.1831568347,
				"z": -0.8520166858,
				"element": "C" 
			},
			{
				"x": -0.6519694973,
				"y": -1.2567014716,
				"z": -0.2867515205,
				"element": "O" 
			},
			{
				"x": 1.4563412516,
				"y": -0.3942381459,
				"z": -0.4085779453,
				"element": "N" 
			},
			{
				"x": 1.3759853016,
				"y": 0.5522651344,
				"z": 0.7061988373,
				"element": "C" 
			},
			{
				"x": 0.7614672131,
				"y": 0.0003257138,
				"z": 2.0068989504,
				"element": "C" 
			},
			{
				"x": 1.3987751515,
				"y": -1.3027437698,
				"z": 2.4581978637,
				"element": "C" 
			},
			{
				"x": 0.6815214023,
				"y": -2.3936007355,
				"z": 2.1462289277,
				"element": "N" 
			},
			{
				"x": 2.8677631461,
				"y": -1.3603421055,
				"z": 3.2471270855,
				"element": "S" 
			},
			{
				"x": 1.7553339227,
				"y": -1.873095057,
				"z": -2.4851243796,
				"element": "H" 
			},
			{
				"x": 0.5735627436,
				"y": -3.0576648537,
				"z": -1.8767899181,
				"element": "H" 
			},
			{
				"x": 0.0265626752,
				"y": -1.7168273673,
				"z": -2.8781742072,
				"element": "H" 
			},
			{
				"x": 2.3264712368,
				"y": -0.4193296761,
				"z": -0.9171968496,
				"element": "H" 
			},
			{
				"x": 2.3996186807,
				"y": 0.8747383661,
				"z": 0.9102534532,
				"element": "H" 
			},
			{
				"x": 0.7957853111,
				"y": 1.4336365685,
				"z": 0.4043606191,
				"element": "H" 
			},
			{
				"x": 0.9266899547,
				"y": 0.7509807519,
				"z": 2.7834471364,
				"element": "H" 
			},
			{
				"x": -0.3129421088,
				"y": -0.1313506523,
				"z": 1.8674827821,
				"element": "H" 
			},
			{
				"x": 1.0591215014,
				"y": -3.3045149918,
				"z": 2.3649204512,
				"element": "H" 
			},
			{
				"x": -0.1190208095,
				"y": -2.3143362914,
				"z": 1.5262421641,
				"element": "H" 
			}
		],
		 "valence_orbital": [ 
			{
				"type": "occ",
				"energy": -0.34081,
				"method": "rhf"
			},
			{
				"type": "occ",
				"energy": -0.27133,
				"method": "rhf"
			},
			{
				"type": "occ",
				"energy": -0.26213,
				"method": "rhf"
			},
			{
				"type": "occ",
				"energy": -0.22375,
				"method": "rhf"
			},
			{
				"type": "occ",
				"energy": -0.20101,
				"method": "rhf"
			},
			{
				"type": "unocc",
				"energy": -0.02472,
				"method": "rhf"
			},
			{
				"type": "unocc",
				"energy": 0.00808,
				"method": "rhf"
			},
			{
				"type": "unocc",
				"energy": 0.05555,
				"method": "rhf"
			},
			{
				"type": "unocc",
				"energy": 0.08977,
				"method": "rhf"
			},
			{
				"type": "unocc",
				"energy": 0.10459,
				"method": "rhf"
			}
		],
		"cosmo_sigma_profile": { 
			"-0.025": 0.0,
			"-0.024": 0.0,
			"-0.023": 0.0,
			"-0.022": 0.0,
			"-0.021": 0.0,
			"-0.02": 0.0,
			"-0.019": 0.0,
			"-0.018": 0.0,
			"-0.017": 0.0,
			"-0.016": 0.0,
			"-0.015": 0.596333254444,
			"-0.014": 3.06679071388,
			"-0.013": 2.03526126208,
			"-0.012": 2.87772409111,
			"-0.011": 3.52864999113,
			"-0.01": 3.03410555749,
			"-0.009": 2.5786848873,
			"-0.008": 3.1176001896,
			"-0.007": 3.59449668147,
			"-0.006": 7.07485676828,
			"-0.005": 15.0149049123,
			"-0.004": 15.4375301181,
			"-0.003": 17.1721507913,
			"-0.002": 16.5115584706,
			"-0.001": 12.0415918301,
			"0.0": 7.87964808474,
			"0.001": 6.00779509904,
			"0.002": 4.59622445247,
			"0.003": 5.39199544094,
			"0.004": 5.76374984862,
			"0.005": 4.20957951251,
			"0.006": 4.81349313959,
			"0.007": 5.6907157526,
			"0.008": 5.1709009855,
			"0.009": 7.89269179914,
			"0.01": 6.34194764191,
			"0.011": 5.27585803709,
			"0.012": 4.62057406639,
			"0.013": 3.73767891997,
			"0.014": 2.2722534992,
			"0.015": 0.989413919022,
			"0.016": 0.00388167401588,
			"0.017": 0.0,
			"0.018": 0.0,
			"0.019": 0.0,
			"0.02": 0.0,
			"0.021": 0.0,
			"0.022": 0.0,
			"0.023": 0.0,
			"0.024": 0.0,
			"0.025": 0.0
		}
	}
}
