{
	 "smiles": "COC(=O)C(C(=O)OC)C1=C(C=C(C=C1)C(F)(F)F)[N+]([O-])=O", 
	 "Tm": 337.15, 
	 "num_atms": 32, 
	 "gaussian": { 
		 "optdone": 1, 
		 "sigma_profile": "yes", 
		 "theory": "DFT", 
		 "functional": "B3LYP", 
		 "basiset": "6-31G**", 
		 "properties": { 
			 "R2extent": 7476.0918, 
			 "electric_dipole_moment_norm": 4.82346643608, 
			 "electric_quadrupole_moment_norm": 14.0347386499, 
			 "total_energy": -1268.82576109, 
			 "HOMO_LUMO_gap": 0.17966, 
			 "cosmo_polarized_energy": -18.13, 
			 "cosmo_cavitation_energy": 39.45, 
			 "cosmo_dispersion_energy": -26.32, 
			 "cosmo_repulsion_energy": 1.98, 
			 "cosmo_total_nonelectrostatic_energy": 15.1, 
			 "SMD_solvation_energy": 12.71 
		},
		"coords": [
			{
				"x": 1.7538305329,
				"y": 1.0069374832,
				"z": 4.1665728228,
				"element": "C" 
			},
			{
				"x": 0.5104792101,
				"y": 1.1189798481,
				"z": 3.4479430582,
				"element": "O" 
			},
			{
				"x": 0.4730626372,
				"y": 0.4924058691,
				"z": 2.2648014211,
				"element": "C" 
			},
			{
				"x": 1.4179304776,
				"y": -0.0549823629,
				"z": 1.7442494814,
				"element": "O" 
			},
			{
				"x": -0.9272258601,
				"y": 0.6124720172,
				"z": 1.6488663249,
				"element": "C" 
			},
			{
				"x": -1.9216075318,
				"y": -0.3206768148,
				"z": 2.3671186724,
				"element": "C" 
			},
			{
				"x": -1.7848522631,
				"y": -0.740770069,
				"z": 3.4892453532,
				"element": "O" 
			},
			{
				"x": -3.0109841509,
				"y": -0.5113786625,
				"z": 1.6016819561,
				"element": "O" 
			},
			{
				"x": -4.0106403525,
				"y": -1.3766418634,
				"z": 2.1728503849,
				"element": "C" 
			},
			{
				"x": -0.9054848013,
				"y": 0.5112966209,
				"z": 0.1356445082,
				"element": "C" 
			},
			{
				"x": -0.4589978211,
				"y": -0.593340947,
				"z": -0.6129334593,
				"element": "C" 
			},
			{
				"x": -0.3965807856,
				"y": -0.5702828114,
				"z": -2.0042979168,
				"element": "C" 
			},
			{
				"x": -0.8063806012,
				"y": 0.5649887732,
				"z": -2.6960011483,
				"element": "C" 
			},
			{
				"x": -1.2647772337,
				"y": 1.6758239508,
				"z": -1.9872152681,
				"element": "C" 
			},
			{
				"x": -1.2989596599,
				"y": 1.6397473632,
				"z": -0.5965868726,
				"element": "C" 
			},
			{
				"x": -0.7069032485,
				"y": 0.6134290996,
				"z": -4.1989643462,
				"element": "C" 
			},
			{
				"x": -0.7800613614,
				"y": -0.6168723527,
				"z": -4.7457161232,
				"element": "F" 
			},
			{
				"x": -1.6959270342,
				"y": 1.3627965098,
				"z": -4.7332677607,
				"element": "F" 
			},
			{
				"x": 0.4622697259,
				"y": 1.1605279878,
				"z": -4.5973421639,
				"element": "F" 
			},
			{
				"x": -0.0682668696,
				"y": -1.8704785055,
				"z": 0.0149111896,
				"element": "N" 
			},
			{
				"x": 0.6716344852,
				"y": -2.6114711121,
				"z": -0.6235072293,
				"element": "O" 
			},
			{
				"x": -0.5407044697,
				"y": -2.1385332687,
				"z": 1.118651297,
				"element": "O" 
			},
			{
				"x": 2.573333903,
				"y": 1.4297022241,
				"z": 3.5807329695,
				"element": "H" 
			},
			{
				"x": 1.6080459967,
				"y": 1.5672503061,
				"z": 5.0892671433,
				"element": "H" 
			},
			{
				"x": 1.9702417782,
				"y": -0.041408296,
				"z": 4.3829588762,
				"element": "H" 
			},
			{
				"x": -1.2784291833,
				"y": 1.6201427099,
				"z": 1.9018751758,
				"element": "H" 
			},
			{
				"x": -3.5942345085,
				"y": -2.373195243,
				"z": 2.3359552759,
				"element": "H" 
			},
			{
				"x": -4.3667216257,
				"y": -0.9761125151,
				"z": 3.1247175534,
				"element": "H" 
			},
			{
				"x": -4.818403921,
				"y": -1.4116190203,
				"z": 1.4423443554,
				"element": "H" 
			},
			{
				"x": -0.0357394844,
				"y": -1.4468957338,
				"z": -2.5259032833,
				"element": "H" 
			},
			{
				"x": -1.5935096457,
				"y": 2.5624211474,
				"z": -2.5183026358,
				"element": "H" 
			},
			{
				"x": -1.6423363336,
				"y": 2.5160376679,
				"z": -0.0553496118,
				"element": "H" 
			}
		],
		 "valence_orbital": [ 
			{
				"type": "occ",
				"energy": -0.30572,
				"method": "rhf"
			},
			{
				"type": "occ",
				"energy": -0.2996,
				"method": "rhf"
			},
			{
				"type": "occ",
				"energy": -0.29038,
				"method": "rhf"
			},
			{
				"type": "occ",
				"energy": -0.28409,
				"method": "rhf"
			},
			{
				"type": "occ",
				"energy": -0.27515,
				"method": "rhf"
			},
			{
				"type": "unocc",
				"energy": -0.09549,
				"method": "rhf"
			},
			{
				"type": "unocc",
				"energy": -0.05109,
				"method": "rhf"
			},
			{
				"type": "unocc",
				"energy": -0.02203,
				"method": "rhf"
			},
			{
				"type": "unocc",
				"energy": -0.00151,
				"method": "rhf"
			},
			{
				"type": "unocc",
				"energy": 0.00733,
				"method": "rhf"
			}
		],
		"cosmo_sigma_profile": { 
			"-0.025": 0.0,
			"-0.024": 0.0,
			"-0.023": 0.0,
			"-0.022": 0.0,
			"-0.021": 0.0,
			"-0.02": 0.0,
			"-0.019": 0.0,
			"-0.018": 0.0,
			"-0.017": 0.0,
			"-0.016": 0.0,
			"-0.015": 0.0,
			"-0.014": 0.0,
			"-0.013": 0.0,
			"-0.012": 0.0700325532293,
			"-0.011": 2.09729710291,
			"-0.01": 2.85566894546,
			"-0.009": 4.54148338214,
			"-0.008": 5.68746793562,
			"-0.007": 12.0839990492,
			"-0.006": 19.0865518236,
			"-0.005": 20.0483306679,
			"-0.004": 24.6534899532,
			"-0.003": 22.1918639204,
			"-0.002": 17.4525287869,
			"-0.001": 22.1093731767,
			"0.0": 18.643624554,
			"0.001": 17.454053645,
			"0.002": 33.2551519915,
			"0.003": 23.006024937,
			"0.004": 8.82493406301,
			"0.005": 8.85874529123,
			"0.006": 10.3156962053,
			"0.007": 11.8223332691,
			"0.008": 8.82823874771,
			"0.009": 7.01518788564,
			"0.01": 5.93315578141,
			"0.011": 6.96982521882,
			"0.012": 1.14618438702,
			"0.013": 0.0,
			"0.014": 0.0,
			"0.015": 0.0,
			"0.016": 0.0,
			"0.017": 0.0,
			"0.018": 0.0,
			"0.019": 0.0,
			"0.02": 0.0,
			"0.021": 0.0,
			"0.022": 0.0,
			"0.023": 0.0,
			"0.024": 0.0,
			"0.025": 0.0
		}
	}
}
