{
	 "smiles": "O=CC1CCC=CC1", 
	 "Tm": 275.15, 
	 "num_atms": 18, 
	 "gaussian": { 
		 "optdone": 1, 
		 "sigma_profile": "yes", 
		 "theory": "DFT", 
		 "functional": "B3LYP", 
		 "basiset": "6-31G**", 
		 "properties": { 
			 "R2extent": 1175.7574, 
			 "electric_dipole_moment_norm": 2.7670855462, 
			 "electric_quadrupole_moment_norm": 6.21955115101, 
			 "total_energy": -347.970151927, 
			 "HOMO_LUMO_gap": 0.22159, 
			 "cosmo_polarized_energy": -6.34, 
			 "cosmo_cavitation_energy": 20.34, 
			 "cosmo_dispersion_energy": -15.09, 
			 "cosmo_repulsion_energy": 1.27, 
			 "cosmo_total_nonelectrostatic_energy": 6.52, 
			 "SMD_solvation_energy": 4.06 
		},
		"coords": [
			{
				"x": -1.9774669142,
				"y": -1.4147522206,
				"z": 0.7167595768,
				"element": "O" 
			},
			{
				"x": -1.2842160433,
				"y": -0.5668291559,
				"z": 0.2000738574,
				"element": "C" 
			},
			{
				"x": 0.1910742204,
				"y": -0.3628207843,
				"z": 0.4671536565,
				"element": "C" 
			},
			{
				"x": 1.0039528033,
				"y": -0.6421317083,
				"z": -0.8176879923,
				"element": "C" 
			},
			{
				"x": 2.5109407661,
				"y": -0.497732011,
				"z": -0.5580799466,
				"element": "C" 
			},
			{
				"x": 2.8359289837,
				"y": 0.7385645421,
				"z": 0.241497577,
				"element": "C" 
			},
			{
				"x": 1.916912037,
				"y": 1.4466393337,
				"z": 0.9038388793,
				"element": "C" 
			},
			{
				"x": 0.4554362932,
				"y": 1.0766638686,
				"z": 0.9609584346,
				"element": "C" 
			},
			{
				"x": -1.7149705045,
				"y": 0.142494136,
				"z": -0.5484480733,
				"element": "H" 
			},
			{
				"x": 0.4822544082,
				"y": -1.0800044875,
				"z": 1.2430522848,
				"element": "H" 
			},
			{
				"x": 0.7790009564,
				"y": -1.6448467314,
				"z": -1.197483782,
				"element": "H" 
			},
			{
				"x": 0.6983804468,
				"y": 0.0710989331,
				"z": -1.5948976219,
				"element": "H" 
			},
			{
				"x": 2.8890478754,
				"y": -1.386929608,
				"z": -0.031560549,
				"element": "H" 
			},
			{
				"x": 3.0487002305,
				"y": -0.4732010489,
				"z": -1.5147674131,
				"element": "H" 
			},
			{
				"x": 3.8773875671,
				"y": 1.053976533,
				"z": 0.2669787026,
				"element": "H" 
			},
			{
				"x": 2.2139006962,
				"y": 2.3413346048,
				"z": 1.4481145602,
				"element": "H" 
			},
			{
				"x": 0.0838915934,
				"y": 1.1857619313,
				"z": 1.9878606587,
				"element": "H" 
			},
			{
				"x": -0.1290554157,
				"y": 1.7919138733,
				"z": 0.3596371905,
				"element": "H" 
			}
		],
		 "valence_orbital": [ 
			{
				"type": "occ",
				"energy": -0.34365,
				"method": "rhf"
			},
			{
				"type": "occ",
				"energy": -0.33346,
				"method": "rhf"
			},
			{
				"type": "occ",
				"energy": -0.32049,
				"method": "rhf"
			},
			{
				"type": "occ",
				"energy": -0.25092,
				"method": "rhf"
			},
			{
				"type": "occ",
				"energy": -0.24432,
				"method": "rhf"
			},
			{
				"type": "unocc",
				"energy": -0.02273,
				"method": "rhf"
			},
			{
				"type": "unocc",
				"energy": 0.02026,
				"method": "rhf"
			},
			{
				"type": "unocc",
				"energy": 0.08803,
				"method": "rhf"
			},
			{
				"type": "unocc",
				"energy": 0.10737,
				"method": "rhf"
			},
			{
				"type": "unocc",
				"energy": 0.12381,
				"method": "rhf"
			}
		],
		"cosmo_sigma_profile": { 
			"-0.025": 0.0,
			"-0.024": 0.0,
			"-0.023": 0.0,
			"-0.022": 0.0,
			"-0.021": 0.0,
			"-0.02": 0.0,
			"-0.019": 0.0,
			"-0.018": 0.0,
			"-0.017": 0.0,
			"-0.016": 0.0,
			"-0.015": 0.0,
			"-0.014": 0.0,
			"-0.013": 0.0,
			"-0.012": 0.0,
			"-0.011": 0.0,
			"-0.01": 0.0,
			"-0.009": 0.0,
			"-0.008": 0.0,
			"-0.007": 0.0216073024459,
			"-0.006": 3.10581093148,
			"-0.005": 7.70456334419,
			"-0.004": 19.3798941165,
			"-0.003": 25.8534646877,
			"-0.002": 24.7358704511,
			"-0.001": 19.4114300288,
			"0.0": 11.9512992922,
			"0.001": 5.76549768921,
			"0.002": 4.9096658351,
			"0.003": 5.2918896208,
			"0.004": 3.67508464154,
			"0.005": 4.56212555522,
			"0.006": 3.62061234391,
			"0.007": 2.59750561722,
			"0.008": 2.20404859369,
			"0.009": 2.13033552584,
			"0.01": 2.86479396303,
			"0.011": 4.09936938492,
			"0.012": 3.86192903852,
			"0.013": 1.09430891355,
			"0.014": 0.0,
			"0.015": 0.0,
			"0.016": 0.0,
			"0.017": 0.0,
			"0.018": 0.0,
			"0.019": 0.0,
			"0.02": 0.0,
			"0.021": 0.0,
			"0.022": 0.0,
			"0.023": 0.0,
			"0.024": 0.0,
			"0.025": 0.0
		}
	}
}
