{
	 "smiles": "COC1=CC=CC=C1C(=O)C1=CC=CC=C1", 
	 "Tm": 312.15, 
	 "num_atms": 28, 
	 "gaussian": { 
		 "optdone": 1, 
		 "sigma_profile": "yes", 
		 "theory": "DFT", 
		 "functional": "B3LYP", 
		 "basiset": "6-31G**", 
		 "properties": { 
			 "R2extent": 3734.0841, 
			 "electric_dipole_moment_norm": 4.14071476197, 
			 "electric_quadrupole_moment_norm": 9.24010785218, 
			 "total_energy": -691.155398554, 
			 "HOMO_LUMO_gap": 0.17094, 
			 "cosmo_polarized_energy": -11.29, 
			 "cosmo_cavitation_energy": 31.99, 
			 "cosmo_dispersion_energy": -22.54, 
			 "cosmo_repulsion_energy": 1.76, 
			 "cosmo_total_nonelectrostatic_energy": 11.21, 
			 "SMD_solvation_energy": 6.66 
		},
		"coords": [
			{
				"x": 2.9720599982,
				"y": -1.4428474902,
				"z": -1.4943518714,
				"element": "C" 
			},
			{
				"x": 2.0080390813,
				"y": -0.7231692312,
				"z": -0.7414278198,
				"element": "O" 
			},
			{
				"x": 1.7412762936,
				"y": 0.5704291819,
				"z": -1.0778544937,
				"element": "C" 
			},
			{
				"x": 2.3890774216,
				"y": 1.253102888,
				"z": -2.1155292212,
				"element": "C" 
			},
			{
				"x": 2.0916205393,
				"y": 2.5952075567,
				"z": -2.3602919355,
				"element": "C" 
			},
			{
				"x": 1.1668050388,
				"y": 3.2750973495,
				"z": -1.5692560499,
				"element": "C" 
			},
			{
				"x": 0.5316308863,
				"y": 2.5945983189,
				"z": -0.5320913484,
				"element": "C" 
			},
			{
				"x": 0.7783966706,
				"y": 1.2386056666,
				"z": -0.2886192665,
				"element": "C" 
			},
			{
				"x": 0.055756582,
				"y": 0.6036426231,
				"z": 0.8704803214,
				"element": "C" 
			},
			{
				"x": -0.0233199389,
				"y": 1.2179463437,
				"z": 1.9282084514,
				"element": "O" 
			},
			{
				"x": -0.6338341776,
				"y": -0.716846993,
				"z": 0.715365023,
				"element": "C" 
			},
			{
				"x": -1.0224837719,
				"y": -1.3980155551,
				"z": 1.8789993632,
				"element": "C" 
			},
			{
				"x": -1.7164003943,
				"y": -2.6016417609,
				"z": 1.7925438196,
				"element": "C" 
			},
			{
				"x": -2.049964328,
				"y": -3.1270981115,
				"z": 0.5405899697,
				"element": "C" 
			},
			{
				"x": -1.6838768943,
				"y": -2.4456856777,
				"z": -0.6224095537,
				"element": "C" 
			},
			{
				"x": -0.9733553559,
				"y": -1.2492549883,
				"z": -0.5365095305,
				"element": "C" 
			},
			{
				"x": 2.6849652007,
				"y": -1.5232617115,
				"z": -2.5505438288,
				"element": "H" 
			},
			{
				"x": 3.0082627271,
				"y": -2.4405747953,
				"z": -1.0550964736,
				"element": "H" 
			},
			{
				"x": 3.9647428668,
				"y": -0.9805301931,
				"z": -1.4254355,
				"element": "H" 
			},
			{
				"x": 3.1309294415,
				"y": 0.7516897672,
				"z": -2.7252269837,
				"element": "H" 
			},
			{
				"x": 2.6001559339,
				"y": 3.1093888476,
				"z": -3.171030303,
				"element": "H" 
			},
			{
				"x": 0.9471529924,
				"y": 4.3218706276,
				"z": -1.753179116,
				"element": "H" 
			},
			{
				"x": -0.178162557,
				"y": 3.103849908,
				"z": 0.1119882333,
				"element": "H" 
			},
			{
				"x": -0.7701777541,
				"y": -0.9609305603,
				"z": 2.8393408779,
				"element": "H" 
			},
			{
				"x": -2.0037706232,
				"y": -3.1286676914,
				"z": 2.6978772814,
				"element": "H" 
			},
			{
				"x": -2.5978125385,
				"y": -4.0628865302,
				"z": 0.4720581917,
				"element": "H" 
			},
			{
				"x": -1.9535182907,
				"y": -2.8461004849,
				"z": -1.5955364788,
				"element": "H" 
			},
			{
				"x": -0.6962950494,
				"y": -0.7178173039,
				"z": -1.4409617581,
				"element": "H" 
			}
		],
		 "valence_orbital": [ 
			{
				"type": "occ",
				"energy": -0.26005,
				"method": "rhf"
			},
			{
				"type": "occ",
				"energy": -0.25225,
				"method": "rhf"
			},
			{
				"type": "occ",
				"energy": -0.25049,
				"method": "rhf"
			},
			{
				"type": "occ",
				"energy": -0.23904,
				"method": "rhf"
			},
			{
				"type": "occ",
				"energy": -0.22598,
				"method": "rhf"
			},
			{
				"type": "unocc",
				"energy": -0.05504,
				"method": "rhf"
			},
			{
				"type": "unocc",
				"energy": -0.00912,
				"method": "rhf"
			},
			{
				"type": "unocc",
				"energy": -0.00088,
				"method": "rhf"
			},
			{
				"type": "unocc",
				"energy": 0.00658,
				"method": "rhf"
			},
			{
				"type": "unocc",
				"energy": 0.05582,
				"method": "rhf"
			}
		],
		"cosmo_sigma_profile": { 
			"-0.025": 0.0,
			"-0.024": 0.0,
			"-0.023": 0.0,
			"-0.022": 0.0,
			"-0.021": 0.0,
			"-0.02": 0.0,
			"-0.019": 0.0,
			"-0.018": 0.0,
			"-0.017": 0.0,
			"-0.016": 0.0,
			"-0.015": 0.0,
			"-0.014": 0.0,
			"-0.013": 0.0,
			"-0.012": 0.0,
			"-0.011": 0.0,
			"-0.01": 0.0,
			"-0.009": 0.0,
			"-0.008": 0.0,
			"-0.007": 2.12380682034,
			"-0.006": 18.8195947455,
			"-0.005": 26.582732551,
			"-0.004": 27.3081402864,
			"-0.003": 22.0004276497,
			"-0.002": 18.1313656239,
			"-0.001": 14.4691130019,
			"0.0": 14.2261246411,
			"0.001": 15.7952579608,
			"0.002": 16.7703033608,
			"0.003": 18.1567210415,
			"0.004": 22.7299629928,
			"0.005": 15.5926095623,
			"0.006": 3.34720698023,
			"0.007": 4.03467925712,
			"0.008": 3.49116623917,
			"0.009": 2.32118307188,
			"0.01": 1.86335964462,
			"0.011": 2.99273826697,
			"0.012": 4.19941544616,
			"0.013": 1.19596484565,
			"0.014": 0.0161140991297,
			"0.015": 0.0,
			"0.016": 0.0,
			"0.017": 0.0,
			"0.018": 0.0,
			"0.019": 0.0,
			"0.02": 0.0,
			"0.021": 0.0,
			"0.022": 0.0,
			"0.023": 0.0,
			"0.024": 0.0,
			"0.025": 0.0
		}
	}
}
