{
	 "smiles": "CC(=O)N1CCN(CC2=NC(N)=CC=C2)CC1", 
	 "Tm": 443.15, 
	 "num_atms": 35, 
	 "gaussian": { 
		 "optdone": 1, 
		 "sigma_profile": "yes", 
		 "theory": "DFT", 
		 "functional": "B3LYP", 
		 "basiset": "6-31G**", 
		 "properties": { 
			 "R2extent": 5351.4436, 
			 "electric_dipole_moment_norm": 4.8487669876, 
			 "electric_quadrupole_moment_norm": 26.9211935389, 
			 "total_energy": -762.371994718, 
			 "HOMO_LUMO_gap": 0.18688, 
			 "cosmo_polarized_energy": -17.79, 
			 "cosmo_cavitation_energy": 36.57, 
			 "cosmo_dispersion_energy": -25.88, 
			 "cosmo_repulsion_energy": 2.03, 
			 "cosmo_total_nonelectrostatic_energy": 12.72, 
			 "SMD_solvation_energy": 2.86 
		},
		"coords": [
			{
				"x": 4.0918989723,
				"y": -3.045050157,
				"z": -0.8760039209,
				"element": "C" 
			},
			{
				"x": 2.5977222997,
				"y": -3.1324190688,
				"z": -1.1672492233,
				"element": "C" 
			},
			{
				"x": 1.9937790715,
				"y": -4.1917246962,
				"z": -1.0251162895,
				"element": "O" 
			},
			{
				"x": 1.9638813896,
				"y": -1.9842527907,
				"z": -1.5823564938,
				"element": "N" 
			},
			{
				"x": 2.5967664106,
				"y": -0.6987761097,
				"z": -1.8507457788,
				"element": "C" 
			},
			{
				"x": 1.8284836676,
				"y": 0.4316771986,
				"z": -1.1546293736,
				"element": "C" 
			},
			{
				"x": 0.4257599176,
				"y": 0.4006715151,
				"z": -1.5559718175,
				"element": "N" 
			},
			{
				"x": -0.3398446135,
				"y": 1.5902714093,
				"z": -1.1665973053,
				"element": "C" 
			},
			{
				"x": -0.4778285226,
				"y": 1.8509849259,
				"z": 0.3276148959,
				"element": "C" 
			},
			{
				"x": -1.415849099,
				"y": 1.1298937392,
				"z": 0.9676331563,
				"element": "N" 
			},
			{
				"x": -1.5607555671,
				"y": 1.2899193195,
				"z": 2.2910491291,
				"element": "C" 
			},
			{
				"x": -2.4978146547,
				"y": 0.479917784,
				"z": 2.9033374415,
				"element": "N" 
			},
			{
				"x": -0.782067665,
				"y": 2.20074961,
				"z": 3.0369342315,
				"element": "C" 
			},
			{
				"x": 0.1715748533,
				"y": 2.9461992112,
				"z": 2.3631421343,
				"element": "C" 
			},
			{
				"x": 0.3387325512,
				"y": 2.7739925305,
				"z": 0.9845152896,
				"element": "C" 
			},
			{
				"x": -0.1973466013,
				"y": -0.8788603508,
				"z": -1.205312852,
				"element": "C" 
			},
			{
				"x": 0.5385008796,
				"y": -2.0207476746,
				"z": -1.9082646967,
				"element": "C" 
			},
			{
				"x": 4.6653535958,
				"y": -2.7495372135,
				"z": -1.760909598,
				"element": "H" 
			},
			{
				"x": 4.4153112499,
				"y": -4.0361186399,
				"z": -0.5594814577,
				"element": "H" 
			},
			{
				"x": 4.3123985209,
				"y": -2.3280545169,
				"z": -0.0782615554,
				"element": "H" 
			},
			{
				"x": 3.6307526218,
				"y": -0.7061394221,
				"z": -1.5057084884,
				"element": "H" 
			},
			{
				"x": 2.5995292155,
				"y": -0.5088865832,
				"z": -2.9347370712,
				"element": "H" 
			},
			{
				"x": 1.9623583994,
				"y": 0.3340468462,
				"z": -0.061104489,
				"element": "H" 
			},
			{
				"x": 2.2616166739,
				"y": 1.3936262266,
				"z": -1.4550075234,
				"element": "H" 
			},
			{
				"x": 0.1372088827,
				"y": 2.4570155581,
				"z": -1.64033399,
				"element": "H" 
			},
			{
				"x": -1.3444842704,
				"y": 1.4866296741,
				"z": -1.5904640223,
				"element": "H" 
			},
			{
				"x": -3.1455908687,
				"y": 0.0410283401,
				"z": 2.2644162349,
				"element": "H" 
			},
			{
				"x": -2.9027745142,
				"y": 0.8051429358,
				"z": 3.7680326163,
				"element": "H" 
			},
			{
				"x": -0.9306349309,
				"y": 2.3060455164,
				"z": 4.1074055633,
				"element": "H" 
			},
			{
				"x": 0.7839551126,
				"y": 3.6613059747,
				"z": 2.905892799,
				"element": "H" 
			},
			{
				"x": 1.0746328056,
				"y": 3.3496664065,
				"z": 0.4328359123,
				"element": "H" 
			},
			{
				"x": -1.2418667231,
				"y": -0.8593483955,
				"z": -1.5337207726,
				"element": "H" 
			},
			{
				"x": -0.2015662543,
				"y": -1.0616394581,
				"z": -0.1179809373,
				"element": "H" 
			},
			{
				"x": 0.1558004643,
				"y": -2.9927505698,
				"z": -1.5973145305,
				"element": "H" 
			},
			{
				"x": 0.4124067294,
				"y": -1.9200790751,
				"z": -2.9960372167,
				"element": "H" 
			}
		],
		 "valence_orbital": [ 
			{
				"type": "occ",
				"energy": -0.2607,
				"method": "rhf"
			},
			{
				"type": "occ",
				"energy": -0.23406,
				"method": "rhf"
			},
			{
				"type": "occ",
				"energy": -0.22897,
				"method": "rhf"
			},
			{
				"type": "occ",
				"energy": -0.21515,
				"method": "rhf"
			},
			{
				"type": "occ",
				"energy": -0.20542,
				"method": "rhf"
			},
			{
				"type": "unocc",
				"energy": -0.01854,
				"method": "rhf"
			},
			{
				"type": "unocc",
				"energy": 0.00793,
				"method": "rhf"
			},
			{
				"type": "unocc",
				"energy": 0.03791,
				"method": "rhf"
			},
			{
				"type": "unocc",
				"energy": 0.08002,
				"method": "rhf"
			},
			{
				"type": "unocc",
				"energy": 0.09088,
				"method": "rhf"
			}
		],
		"cosmo_sigma_profile": { 
			"-0.025": 0.0,
			"-0.024": 0.0,
			"-0.023": 0.0,
			"-0.022": 0.0,
			"-0.021": 0.0,
			"-0.02": 0.0,
			"-0.019": 0.0,
			"-0.018": 0.0,
			"-0.017": 0.0,
			"-0.016": 0.0,
			"-0.015": 0.0,
			"-0.014": 0.0277537443308,
			"-0.013": 1.01350116202,
			"-0.012": 2.41970386802,
			"-0.011": 1.94855326924,
			"-0.01": 2.36269331043,
			"-0.009": 2.81993204506,
			"-0.008": 2.76830806182,
			"-0.007": 3.18962330921,
			"-0.006": 11.1685392418,
			"-0.005": 19.7909255213,
			"-0.004": 28.4551020407,
			"-0.003": 30.9472431951,
			"-0.002": 28.393654107,
			"-0.001": 25.8450518908,
			"0.0": 19.109563821,
			"0.001": 13.2987770238,
			"0.002": 13.4083768515,
			"0.003": 13.6646065898,
			"0.004": 14.3241134601,
			"0.005": 9.65933077262,
			"0.006": 5.1596290831,
			"0.007": 5.13996990181,
			"0.008": 4.01114014547,
			"0.009": 4.66154433364,
			"0.01": 3.0299887047,
			"0.011": 3.55855547487,
			"0.012": 3.5849831703,
			"0.013": 3.57105929155,
			"0.014": 5.99359558051,
			"0.015": 2.63012328911,
			"0.016": 0.209315689315,
			"0.017": 0.0,
			"0.018": 0.0,
			"0.019": 0.0,
			"0.02": 0.0,
			"0.021": 0.0,
			"0.022": 0.0,
			"0.023": 0.0,
			"0.024": 0.0,
			"0.025": 0.0
		}
	}
}
