{
	 "smiles": "COC1=CC=C(CCO)C=C1", 
	 "Tm": 302.15, 
	 "num_atms": 23, 
	 "gaussian": { 
		 "optdone": 1, 
		 "sigma_profile": "yes", 
		 "theory": "DFT", 
		 "functional": "B3LYP", 
		 "basiset": "6-31G**", 
		 "properties": { 
			 "R2extent": 3248.9954, 
			 "electric_dipole_moment_norm": 1.86703710461, 
			 "electric_quadrupole_moment_norm": 18.15495461, 
			 "total_energy": -500.620983892, 
			 "HOMO_LUMO_gap": 0.2104, 
			 "cosmo_polarized_energy": -8.68, 
			 "cosmo_cavitation_energy": 25.88, 
			 "cosmo_dispersion_energy": -18.98, 
			 "cosmo_repulsion_energy": 1.54, 
			 "cosmo_total_nonelectrostatic_energy": 8.43, 
			 "SMD_solvation_energy": 4.97 
		},
		"coords": [
			{
				"x": -2.7903761174,
				"y": -3.4568606786,
				"z": 0.8846450727,
				"element": "C" 
			},
			{
				"x": -1.3954453904,
				"y": -3.3144439484,
				"z": 0.6721031531,
				"element": "O" 
			},
			{
				"x": -0.9613169711,
				"y": -2.2536633117,
				"z": -0.0703289166,
				"element": "C" 
			},
			{
				"x": 0.4282198382,
				"y": -2.15849308,
				"z": -0.2432245242,
				"element": "C" 
			},
			{
				"x": 0.969691986,
				"y": -1.1139263539,
				"z": -0.9805793759,
				"element": "C" 
			},
			{
				"x": 0.155537224,
				"y": -0.1284922251,
				"z": -1.5656578123,
				"element": "C" 
			},
			{
				"x": 0.7445505714,
				"y": 0.9752689965,
				"z": -2.4159451881,
				"element": "C" 
			},
			{
				"x": 0.8025642953,
				"y": 0.6012346241,
				"z": -3.9097786182,
				"element": "C" 
			},
			{
				"x": -0.4782845191,
				"y": 0.351626267,
				"z": -4.4641163855,
				"element": "O" 
			},
			{
				"x": -1.2275978678,
				"y": -0.2402564744,
				"z": -1.3823816891,
				"element": "C" 
			},
			{
				"x": -1.7927647948,
				"y": -1.2867067661,
				"z": -0.6445566287,
				"element": "C" 
			},
			{
				"x": -3.3342732518,
				"y": -3.5850008402,
				"z": -0.0603917111,
				"element": "H" 
			},
			{
				"x": -3.2088337434,
				"y": -2.5967988212,
				"z": 1.4235483959,
				"element": "H" 
			},
			{
				"x": -2.9132173666,
				"y": -4.3545434544,
				"z": 1.4926350522,
				"element": "H" 
			},
			{
				"x": 1.0592225096,
				"y": -2.9137932313,
				"z": 0.2141130891,
				"element": "H" 
			},
			{
				"x": 2.0489848553,
				"y": -1.0555616602,
				"z": -1.101010263,
				"element": "H" 
			},
			{
				"x": 1.7602703261,
				"y": 1.2136647332,
				"z": -2.0765894784,
				"element": "H" 
			},
			{
				"x": 0.146079192,
				"y": 1.8878869359,
				"z": -2.3152685814,
				"element": "H" 
			},
			{
				"x": 1.4729684178,
				"y": -0.2633440237,
				"z": -4.0445163761,
				"element": "H" 
			},
			{
				"x": 1.2222175421,
				"y": 1.4349099003,
				"z": -4.4825742675,
				"element": "H" 
			},
			{
				"x": -0.8607148648,
				"y": -0.3886866165,
				"z": -3.9725432806,
				"element": "H" 
			},
			{
				"x": -1.8832662337,
				"y": 0.5129554165,
				"z": -1.812201223,
				"element": "H" 
			},
			{
				"x": -2.8686156371,
				"y": -1.3294753875,
				"z": -0.5218804433,
				"element": "H" 
			}
		],
		 "valence_orbital": [ 
			{
				"type": "occ",
				"energy": -0.31883,
				"method": "rhf"
			},
			{
				"type": "occ",
				"energy": -0.3135,
				"method": "rhf"
			},
			{
				"type": "occ",
				"energy": -0.26202,
				"method": "rhf"
			},
			{
				"type": "occ",
				"energy": -0.25232,
				"method": "rhf"
			},
			{
				"type": "occ",
				"energy": -0.21641,
				"method": "rhf"
			},
			{
				"type": "unocc",
				"energy": -0.00601,
				"method": "rhf"
			},
			{
				"type": "unocc",
				"energy": 0.00925,
				"method": "rhf"
			},
			{
				"type": "unocc",
				"energy": 0.08944,
				"method": "rhf"
			},
			{
				"type": "unocc",
				"energy": 0.1011,
				"method": "rhf"
			},
			{
				"type": "unocc",
				"energy": 0.11006,
				"method": "rhf"
			}
		],
		"cosmo_sigma_profile": { 
			"-0.025": 0.0,
			"-0.024": 0.0,
			"-0.023": 0.0,
			"-0.022": 0.0,
			"-0.021": 0.0,
			"-0.02": 0.0,
			"-0.019": 0.0,
			"-0.018": 0.0,
			"-0.017": 0.0,
			"-0.016": 0.0,
			"-0.015": 0.0,
			"-0.014": 0.0,
			"-0.013": 0.0,
			"-0.012": 0.392907165884,
			"-0.011": 0.58365598439,
			"-0.01": 0.818396364374,
			"-0.009": 0.869771942691,
			"-0.008": 0.798955314347,
			"-0.007": 0.883004045469,
			"-0.006": 6.32299678715,
			"-0.005": 17.703987708,
			"-0.004": 22.5875357446,
			"-0.003": 29.4194150213,
			"-0.002": 20.1369152467,
			"-0.001": 14.674880707,
			"0.0": 12.4726256881,
			"0.001": 9.49177168428,
			"0.002": 8.12457956514,
			"0.003": 9.65704965029,
			"0.004": 11.4773870631,
			"0.005": 10.4242916857,
			"0.006": 7.57836387945,
			"0.007": 2.61674388423,
			"0.008": 3.09209855842,
			"0.009": 2.59683148733,
			"0.01": 2.54511386973,
			"0.011": 1.92310763984,
			"0.012": 1.08142672792,
			"0.013": 1.83877430833,
			"0.014": 2.2338671494,
			"0.015": 1.22363543697,
			"0.016": 0.0,
			"0.017": 0.0,
			"0.018": 0.0,
			"0.019": 0.0,
			"0.02": 0.0,
			"0.021": 0.0,
			"0.022": 0.0,
			"0.023": 0.0,
			"0.024": 0.0,
			"0.025": 0.0
		}
	}
}
