{
	 "smiles": "BrC1=NN(CC2=CC=CC=C2)C(Br)=N1", 
	 "Tm": 335.65, 
	 "num_atms": 21, 
	 "gaussian": { 
		 "optdone": 1, 
		 "sigma_profile": "yes", 
		 "theory": "DFT", 
		 "functional": "B3LYP", 
		 "basiset": "6-31G**", 
		 "properties": { 
			 "R2extent": 7194.0112, 
			 "electric_dipole_moment_norm": 3.99833807725, 
			 "electric_quadrupole_moment_norm": 13.335896497, 
			 "total_energy": -5654.21049954, 
			 "HOMO_LUMO_gap": 0.22758, 
			 "cosmo_polarized_energy": -9.24, 
			 "cosmo_cavitation_energy": 30.84, 
			 "cosmo_dispersion_energy": -22.65, 
			 "cosmo_repulsion_energy": 1.8, 
			 "cosmo_total_nonelectrostatic_energy": 9.99, 
			 "SMD_solvation_energy": -0.11 
		},
		"coords": [
			{
				"x": -1.8688112811,
				"y": -0.0175718536,
				"z": 4.2079825558,
				"element": "Br" 
			},
			{
				"x": -1.90586769,
				"y": -0.2725288696,
				"z": 2.3487266467,
				"element": "C" 
			},
			{
				"x": -0.7886567912,
				"y": -0.3471809212,
				"z": 1.6433775586,
				"element": "N" 
			},
			{
				"x": -1.2660424854,
				"y": -0.5393973414,
				"z": 0.3796472465,
				"element": "N" 
			},
			{
				"x": -0.3438817586,
				"y": -0.6110939349,
				"z": -0.7575717734,
				"element": "C" 
			},
			{
				"x": -0.0076989421,
				"y": 0.7444635388,
				"z": -1.3489165727,
				"element": "C" 
			},
			{
				"x": 0.6525676709,
				"y": 1.7106098224,
				"z": -0.5774195861,
				"element": "C" 
			},
			{
				"x": 0.972358438,
				"y": 2.9498560095,
				"z": -1.1295630138,
				"element": "C" 
			},
			{
				"x": 0.642532305,
				"y": 3.2343275407,
				"z": -2.4576830625,
				"element": "C" 
			},
			{
				"x": -0.0124693811,
				"y": 2.2756206092,
				"z": -3.230478022,
				"element": "C" 
			},
			{
				"x": -0.339148415,
				"y": 1.036193094,
				"z": -2.6757577933,
				"element": "C" 
			},
			{
				"x": -2.6175397103,
				"y": -0.5566175512,
				"z": 0.4268685071,
				"element": "C" 
			},
			{
				"x": -3.6959409811,
				"y": -0.8023108742,
				"z": -1.0855446386,
				"element": "Br" 
			},
			{
				"x": -3.0645931006,
				"y": -0.397884176,
				"z": 1.6576449762,
				"element": "N" 
			},
			{
				"x": -0.8029420952,
				"y": -1.257882674,
				"z": -1.5078863446,
				"element": "H" 
			},
			{
				"x": 0.5489475267,
				"y": -1.1110004382,
				"z": -0.3741466566,
				"element": "H" 
			},
			{
				"x": 0.9038677494,
				"y": 1.4898579381,
				"z": 0.4560725883,
				"element": "H" 
			},
			{
				"x": 1.4822843372,
				"y": 3.6936801527,
				"z": -0.5243198231,
				"element": "H" 
			},
			{
				"x": 0.8952950016,
				"y": 4.1996992183,
				"z": -2.8864352274,
				"element": "H" 
			},
			{
				"x": -0.2738105164,
				"y": 2.4909684226,
				"z": -4.2624155705,
				"element": "H" 
			},
			{
				"x": -0.8553498807,
				"y": 0.292992288,
				"z": -3.2780819946,
				"element": "H" 
			}
		],
		 "valence_orbital": [ 
			{
				"type": "occ",
				"energy": -0.29434,
				"method": "rhf"
			},
			{
				"type": "occ",
				"energy": -0.29301,
				"method": "rhf"
			},
			{
				"type": "occ",
				"energy": -0.26237,
				"method": "rhf"
			},
			{
				"type": "occ",
				"energy": -0.26095,
				"method": "rhf"
			},
			{
				"type": "occ",
				"energy": -0.25372,
				"method": "rhf"
			},
			{
				"type": "unocc",
				"energy": -0.02614,
				"method": "rhf"
			},
			{
				"type": "unocc",
				"energy": -0.0158,
				"method": "rhf"
			},
			{
				"type": "unocc",
				"energy": -0.01286,
				"method": "rhf"
			},
			{
				"type": "unocc",
				"energy": -0.00972,
				"method": "rhf"
			},
			{
				"type": "unocc",
				"energy": 0.01773,
				"method": "rhf"
			}
		],
		"cosmo_sigma_profile": { 
			"-0.025": 0.0,
			"-0.024": 0.0,
			"-0.023": 0.0,
			"-0.022": 0.0,
			"-0.021": 0.0,
			"-0.02": 0.0,
			"-0.019": 0.0,
			"-0.018": 0.0,
			"-0.017": 0.0,
			"-0.016": 0.0,
			"-0.015": 0.0,
			"-0.014": 0.0,
			"-0.013": 0.0,
			"-0.012": 0.0,
			"-0.011": 0.0,
			"-0.01": 0.0,
			"-0.009": 0.00488648081836,
			"-0.008": 2.80816093196,
			"-0.007": 7.46748561351,
			"-0.006": 14.0612719004,
			"-0.005": 17.5556786892,
			"-0.004": 19.9381044282,
			"-0.003": 18.5695354279,
			"-0.002": 16.5233250578,
			"-0.001": 18.5936295494,
			"0.0": 19.6933761102,
			"0.001": 21.2900345966,
			"0.002": 24.9996153774,
			"0.003": 25.9066183872,
			"0.004": 17.5417055324,
			"0.005": 12.5145256747,
			"0.006": 5.00143860928,
			"0.007": 2.12252564748,
			"0.008": 2.37975674159,
			"0.009": 1.79590882849,
			"0.01": 2.19003496782,
			"0.011": 1.27713020432,
			"0.012": 1.62913933216,
			"0.013": 0.944309201691,
			"0.014": 0.375583704379,
			"0.015": 0.0,
			"0.016": 0.0,
			"0.017": 0.0,
			"0.018": 0.0,
			"0.019": 0.0,
			"0.02": 0.0,
			"0.021": 0.0,
			"0.022": 0.0,
			"0.023": 0.0,
			"0.024": 0.0,
			"0.025": 0.0
		}
	}
}
