{
	 "smiles": "CC(C)(C)OC(=O)NC1=C(F)C=C(F)C(N)=C1", 
	 "Tm": 391.15, 
	 "num_atms": 31, 
	 "gaussian": { 
		 "optdone": 1, 
		 "sigma_profile": "yes", 
		 "theory": "DFT", 
		 "functional": "B3LYP", 
		 "basiset": "6-31G**", 
		 "properties": { 
			 "R2extent": 7285.4333, 
			 "electric_dipole_moment_norm": 1.82001720322, 
			 "electric_quadrupole_moment_norm": 12.188805713, 
			 "total_energy": -887.270584022, 
			 "HOMO_LUMO_gap": 0.19089, 
			 "cosmo_polarized_energy": -10.62, 
			 "cosmo_cavitation_energy": 35.1, 
			 "cosmo_dispersion_energy": -25.12, 
			 "cosmo_repulsion_energy": 1.92, 
			 "cosmo_total_nonelectrostatic_energy": 11.89, 
			 "SMD_solvation_energy": 7.78 
		},
		"coords": [
			{
				"x": 2.3098689178,
				"y": 1.9354662137,
				"z": -0.5690825164,
				"element": "C" 
			},
			{
				"x": 0.9733137882,
				"y": 2.548987762,
				"z": -0.9991581544,
				"element": "C" 
			},
			{
				"x": 1.0498366059,
				"y": 4.0778449448,
				"z": -0.9943493817,
				"element": "C" 
			},
			{
				"x": 0.5065189314,
				"y": 2.0314427548,
				"z": -2.3636846692,
				"element": "C" 
			},
			{
				"x": -0.0553977765,
				"y": 2.2796284661,
				"z": 0.0204251568,
				"element": "O" 
			},
			{
				"x": -0.4223454285,
				"y": 1.0124274444,
				"z": 0.3244071977,
				"element": "C" 
			},
			{
				"x": 0.0174327673,
				"y": -0.009463878,
				"z": -0.1762559325,
				"element": "O" 
			},
			{
				"x": -1.385204211,
				"y": 1.0728709703,
				"z": 1.3028619094,
				"element": "N" 
			},
			{
				"x": -2.0545423852,
				"y": 0.0052683345,
				"z": 1.9193021948,
				"element": "C" 
			},
			{
				"x": -3.0209551428,
				"y": 0.340103091,
				"z": 2.8761636695,
				"element": "C" 
			},
			{
				"x": -3.2358694889,
				"y": 1.660538923,
				"z": 3.1322853465,
				"element": "F" 
			},
			{
				"x": -3.7541676874,
				"y": -0.6206921524,
				"z": 3.5521419976,
				"element": "C" 
			},
			{
				"x": -3.5036564964,
				"y": -1.9518289076,
				"z": 3.2603393985,
				"element": "C" 
			},
			{
				"x": -4.214383184,
				"y": -2.9241339609,
				"z": 3.8906270209,
				"element": "F" 
			},
			{
				"x": -2.5457644534,
				"y": -2.3487476812,
				"z": 2.3184863311,
				"element": "C" 
			},
			{
				"x": -2.2966084119,
				"y": -3.7049750407,
				"z": 2.1148592473,
				"element": "N" 
			},
			{
				"x": -1.8234146699,
				"y": -1.349172378,
				"z": 1.649656693,
				"element": "C" 
			},
			{
				"x": 3.0940798979,
				"y": 2.2377158177,
				"z": -1.2706922248,
				"element": "H" 
			},
			{
				"x": 2.5893269514,
				"y": 2.2932014764,
				"z": 0.4268868622,
				"element": "H" 
			},
			{
				"x": 2.2547827949,
				"y": 0.8467347199,
				"z": -0.5515080515,
				"element": "H" 
			},
			{
				"x": 1.3385899702,
				"y": 4.447364592,
				"z": -0.0061311341,
				"element": "H" 
			},
			{
				"x": 0.0817459802,
				"y": 4.5143145222,
				"z": -1.256712995,
				"element": "H" 
			},
			{
				"x": 1.7921954764,
				"y": 4.4182758457,
				"z": -1.7221992561,
				"element": "H" 
			},
			{
				"x": 0.4323905199,
				"y": 0.9437255236,
				"z": -2.3666143351,
				"element": "H" 
			},
			{
				"x": -0.4704730873,
				"y": 2.4550684206,
				"z": -2.6169382637,
				"element": "H" 
			},
			{
				"x": 1.2199042218,
				"y": 2.3385492349,
				"z": -3.1352823069,
				"element": "H" 
			},
			{
				"x": -1.6513474389,
				"y": 1.9964535852,
				"z": 1.6123167218,
				"element": "H" 
			},
			{
				"x": -4.5029721444,
				"y": -0.3398598166,
				"z": 4.2826219865,
				"element": "H" 
			},
			{
				"x": -1.9351781297,
				"y": -3.9386530202,
				"z": 1.2008009701,
				"element": "H" 
			},
			{
				"x": -3.054027202,
				"y": -4.3096255333,
				"z": 2.4014165588,
				"element": "H" 
			},
			{
				"x": -1.0727794851,
				"y": -1.614130274,
				"z": 0.9171099592,
				"element": "H" 
			}
		],
		 "valence_orbital": [ 
			{
				"type": "occ",
				"energy": -0.29495,
				"method": "rhf"
			},
			{
				"type": "occ",
				"energy": -0.28978,
				"method": "rhf"
			},
			{
				"type": "occ",
				"energy": -0.27122,
				"method": "rhf"
			},
			{
				"type": "occ",
				"energy": -0.22927,
				"method": "rhf"
			},
			{
				"type": "occ",
				"energy": -0.19684,
				"method": "rhf"
			},
			{
				"type": "unocc",
				"energy": -0.00595,
				"method": "rhf"
			},
			{
				"type": "unocc",
				"energy": 0.01415,
				"method": "rhf"
			},
			{
				"type": "unocc",
				"energy": 0.06402,
				"method": "rhf"
			},
			{
				"type": "unocc",
				"energy": 0.07654,
				"method": "rhf"
			},
			{
				"type": "unocc",
				"energy": 0.08365,
				"method": "rhf"
			}
		],
		"cosmo_sigma_profile": { 
			"-0.025": 0.0,
			"-0.024": 0.0,
			"-0.023": 0.0,
			"-0.022": 0.0,
			"-0.021": 0.0,
			"-0.02": 0.0,
			"-0.019": 0.0,
			"-0.018": 0.0,
			"-0.017": 0.0,
			"-0.016": 0.0,
			"-0.015": 0.0,
			"-0.014": 0.0,
			"-0.013": 0.774037133604,
			"-0.012": 2.62223578864,
			"-0.011": 3.14666972368,
			"-0.01": 2.89598098275,
			"-0.009": 4.00971644844,
			"-0.008": 5.1477775701,
			"-0.007": 4.66553513041,
			"-0.006": 3.96529916635,
			"-0.005": 6.20796688836,
			"-0.004": 17.4423003619,
			"-0.003": 18.4017306681,
			"-0.002": 21.0203161816,
			"-0.001": 25.2300424162,
			"0.0": 34.7050349785,
			"0.001": 29.6430274233,
			"0.002": 23.7528883497,
			"0.003": 22.2120473207,
			"0.004": 21.660530876,
			"0.005": 8.9294326042,
			"0.006": 4.56196662123,
			"0.007": 3.24026063022,
			"0.008": 2.74940923484,
			"0.009": 2.35332499932,
			"0.01": 2.03614646633,
			"0.011": 2.80008726871,
			"0.012": 1.905969951,
			"0.013": 0.69300653074,
			"0.014": 0.46131102096,
			"0.015": 0.0619517662151,
			"0.016": 0.0,
			"0.017": 0.0,
			"0.018": 0.0,
			"0.019": 0.0,
			"0.02": 0.0,
			"0.021": 0.0,
			"0.022": 0.0,
			"0.023": 0.0,
			"0.024": 0.0,
			"0.025": 0.0
		}
	}
}
