{
	 "smiles": "OC(=O)CC1=CSC(=N1)C1=CSC=C1", 
	 "Tm": 384.15, 
	 "num_atms": 21, 
	 "gaussian": { 
		 "optdone": 1, 
		 "sigma_profile": "yes", 
		 "theory": "DFT", 
		 "functional": "B3LYP", 
		 "basiset": "6-31G**", 
		 "properties": { 
			 "R2extent": 4393.829, 
			 "electric_dipole_moment_norm": 5.87599105598, 
			 "electric_quadrupole_moment_norm": 19.2760109574, 
			 "total_energy": -1348.74839703, 
			 "HOMO_LUMO_gap": 0.16426, 
			 "cosmo_polarized_energy": -14.12, 
			 "cosmo_cavitation_energy": 29.23, 
			 "cosmo_dispersion_energy": -22.42, 
			 "cosmo_repulsion_energy": 1.66, 
			 "cosmo_total_nonelectrostatic_energy": 8.47, 
			 "SMD_solvation_energy": 5.63 
		},
		"coords": [
			{
				"x": 0.9217343501,
				"y": 1.5703638277,
				"z": 2.1802062304,
				"element": "O" 
			},
			{
				"x": 0.1235158187,
				"y": 2.6489594366,
				"z": 2.2144272891,
				"element": "C" 
			},
			{
				"x": 0.4430903634,
				"y": 3.6667457512,
				"z": 2.7802411701,
				"element": "O" 
			},
			{
				"x": -1.2619512612,
				"y": 2.4903460905,
				"z": 1.5586986998,
				"element": "C" 
			},
			{
				"x": -1.3105881155,
				"y": 1.6569318679,
				"z": 0.3073391422,
				"element": "C" 
			},
			{
				"x": -1.9328738749,
				"y": 1.9781104587,
				"z": -0.8651612125,
				"element": "C" 
			},
			{
				"x": -1.753625312,
				"y": 0.6915168107,
				"z": -2.0142087094,
				"element": "S" 
			},
			{
				"x": -0.8141738311,
				"y": -0.2079569839,
				"z": -0.8322200482,
				"element": "C" 
			},
			{
				"x": -0.6871981818,
				"y": 0.4248594056,
				"z": 0.3105618741,
				"element": "N" 
			},
			{
				"x": -0.2464726538,
				"y": -1.52337901,
				"z": -1.1027275839,
				"element": "C" 
			},
			{
				"x": -0.2240495222,
				"y": -2.144770179,
				"z": -2.332657829,
				"element": "C" 
			},
			{
				"x": 0.5330841309,
				"y": -3.6916640292,
				"z": -2.2588026586,
				"element": "S" 
			},
			{
				"x": 0.8313742486,
				"y": -3.5183428784,
				"z": -0.5562748577,
				"element": "C" 
			},
			{
				"x": 0.3686471304,
				"y": -2.3280175565,
				"z": -0.0814927065,
				"element": "C" 
			},
			{
				"x": 0.5100785776,
				"y": 0.8710206534,
				"z": 1.6204938562,
				"element": "H" 
			},
			{
				"x": -1.6504778266,
				"y": 3.4932145332,
				"z": 1.3793451783,
				"element": "H" 
			},
			{
				"x": -1.9047994711,
				"y": 2.0273563932,
				"z": 2.321385182,
				"element": "H" 
			},
			{
				"x": -2.4789024002,
				"y": 2.8768585197,
				"z": -1.1126397102,
				"element": "H" 
			},
			{
				"x": -0.5990029309,
				"y": -1.7719271479,
				"z": -3.2759550461,
				"element": "H" 
			},
			{
				"x": 1.3283602778,
				"y": -4.3085058133,
				"z": -0.0112401168,
				"element": "H" 
			},
			{
				"x": 0.4437304837,
				"y": -2.0152201501,
				"z": 0.9518818567,
				"element": "H" 
			}
		],
		 "valence_orbital": [ 
			{
				"type": "occ",
				"energy": -0.30099,
				"method": "rhf"
			},
			{
				"type": "occ",
				"energy": -0.2929,
				"method": "rhf"
			},
			{
				"type": "occ",
				"energy": -0.26486,
				"method": "rhf"
			},
			{
				"type": "occ",
				"energy": -0.2573,
				"method": "rhf"
			},
			{
				"type": "occ",
				"energy": -0.23465,
				"method": "rhf"
			},
			{
				"type": "unocc",
				"energy": -0.07039,
				"method": "rhf"
			},
			{
				"type": "unocc",
				"energy": -0.01771,
				"method": "rhf"
			},
			{
				"type": "unocc",
				"energy": -0.00348,
				"method": "rhf"
			},
			{
				"type": "unocc",
				"energy": 0.01181,
				"method": "rhf"
			},
			{
				"type": "unocc",
				"energy": 0.01288,
				"method": "rhf"
			}
		],
		"cosmo_sigma_profile": { 
			"-0.025": 0.0,
			"-0.024": 0.0,
			"-0.023": 0.0,
			"-0.022": 0.0,
			"-0.021": 0.0,
			"-0.02": 0.0,
			"-0.019": 0.0,
			"-0.018": 0.0,
			"-0.017": 0.0,
			"-0.016": 0.0,
			"-0.015": 0.0,
			"-0.014": 0.0,
			"-0.013": 0.0,
			"-0.012": 0.0,
			"-0.011": 0.0,
			"-0.01": 1.35134645253,
			"-0.009": 5.42005613271,
			"-0.008": 9.99040754937,
			"-0.007": 11.9848131811,
			"-0.006": 11.9046283142,
			"-0.005": 10.8341779916,
			"-0.004": 14.7590903104,
			"-0.003": 13.9809233985,
			"-0.002": 13.7716265686,
			"-0.001": 15.0390796469,
			"0.0": 21.471415127,
			"0.001": 22.6758396311,
			"0.002": 25.8140636169,
			"0.003": 19.2701574217,
			"0.004": 7.46933214704,
			"0.005": 3.87847880287,
			"0.006": 2.69045544721,
			"0.007": 2.05775459428,
			"0.008": 2.72492929844,
			"0.009": 2.73696792077,
			"0.01": 3.18235974421,
			"0.011": 6.19414727852,
			"0.012": 6.25626913259,
			"0.013": 3.78394914875,
			"0.014": 0.533097349793,
			"0.015": 0.0,
			"0.016": 0.0,
			"0.017": 0.0,
			"0.018": 0.0,
			"0.019": 0.0,
			"0.02": 0.0,
			"0.021": 0.0,
			"0.022": 0.0,
			"0.023": 0.0,
			"0.024": 0.0,
			"0.025": 0.0
		}
	}
}
