{
	 "smiles": "ClC1=CC=CC=C1C(=O)C1=CC=CC=C1Cl", 
	 "Tm": 325.15, 
	 "num_atms": 24, 
	 "gaussian": { 
		 "optdone": 1, 
		 "sigma_profile": "yes", 
		 "theory": "DFT", 
		 "functional": "B3LYP", 
		 "basiset": "6-31G**", 
		 "properties": { 
			 "R2extent": 4641.578, 
			 "electric_dipole_moment_norm": 4.21027812502, 
			 "electric_quadrupole_moment_norm": 15.6213018395, 
			 "total_energy": -1495.80182764, 
			 "HOMO_LUMO_gap": 0.18051, 
			 "cosmo_polarized_energy": -10.67, 
			 "cosmo_cavitation_energy": 32.09, 
			 "cosmo_dispersion_energy": -22.74, 
			 "cosmo_repulsion_energy": 1.77, 
			 "cosmo_total_nonelectrostatic_energy": 11.12, 
			 "SMD_solvation_energy": 5.4 
		},
		"coords": [
			{
				"x": 0.3556503717,
				"y": 1.506116294,
				"z": -3.7051699379,
				"element": "Cl" 
			},
			{
				"x": 0.5734354198,
				"y": 0.1044148034,
				"z": -2.6760289852,
				"element": "C" 
			},
			{
				"x": 1.2701245399,
				"y": -0.9790502233,
				"z": -3.2117329171,
				"element": "C" 
			},
			{
				"x": 1.5012843583,
				"y": -2.1138680933,
				"z": -2.4349782249,
				"element": "C" 
			},
			{
				"x": 1.0529419358,
				"y": -2.1618032667,
				"z": -1.1149804646,
				"element": "C" 
			},
			{
				"x": 0.3795008565,
				"y": -1.0675522495,
				"z": -0.5803536486,
				"element": "C" 
			},
			{
				"x": 0.1172721956,
				"y": 0.0810463337,
				"z": -1.3454066786,
				"element": "C" 
			},
			{
				"x": -0.7315408978,
				"y": 1.1630867861,
				"z": -0.7421838187,
				"element": "C" 
			},
			{
				"x": -1.6096469933,
				"y": 1.7141055293,
				"z": -1.3844237748,
				"element": "O" 
			},
			{
				"x": -0.5882273327,
				"y": 1.4858439153,
				"z": 0.7272687365,
				"element": "C" 
			},
			{
				"x": -1.7854156101,
				"y": 1.6267924337,
				"z": 1.450190824,
				"element": "C" 
			},
			{
				"x": -1.7840710275,
				"y": 1.9328190422,
				"z": 2.8067291363,
				"element": "C" 
			},
			{
				"x": -0.5699220907,
				"y": 2.1341276806,
				"z": 3.4666632582,
				"element": "C" 
			},
			{
				"x": 0.6311645946,
				"y": 2.0376526298,
				"z": 2.7664340324,
				"element": "C" 
			},
			{
				"x": 0.6181624135,
				"y": 1.713950304,
				"z": 1.4083658341,
				"element": "C" 
			},
			{
				"x": 2.1659639482,
				"y": 1.6869927504,
				"z": 0.5724901521,
				"element": "Cl" 
			},
			{
				"x": 1.6262240856,
				"y": -0.9255276472,
				"z": -4.2344951918,
				"element": "H" 
			},
			{
				"x": 2.0366632637,
				"y": -2.9552472516,
				"z": -2.8646969856,
				"element": "H" 
			},
			{
				"x": 1.2308043986,
				"y": -3.0414342709,
				"z": -0.5045307311,
				"element": "H" 
			},
			{
				"x": 0.0329787974,
				"y": -1.0967708408,
				"z": 0.4479712726,
				"element": "H" 
			},
			{
				"x": -2.7176669436,
				"y": 1.4881211856,
				"z": 0.9126147333,
				"element": "H" 
			},
			{
				"x": -2.7225637268,
				"y": 2.0212879165,
				"z": 3.3448811575,
				"element": "H" 
			},
			{
				"x": -0.5530971019,
				"y": 2.3792113465,
				"z": 4.5244210677,
				"element": "H" 
			},
			{
				"x": 1.5789805451,
				"y": 2.2223848922,
				"z": 3.259651154,
				"element": "H" 
			}
		],
		 "valence_orbital": [ 
			{
				"type": "occ",
				"energy": -0.27572,
				"method": "rhf"
			},
			{
				"type": "occ",
				"energy": -0.26707,
				"method": "rhf"
			},
			{
				"type": "occ",
				"energy": -0.25731,
				"method": "rhf"
			},
			{
				"type": "occ",
				"energy": -0.25391,
				"method": "rhf"
			},
			{
				"type": "occ",
				"energy": -0.24977,
				"method": "rhf"
			},
			{
				"type": "unocc",
				"energy": -0.06926,
				"method": "rhf"
			},
			{
				"type": "unocc",
				"energy": -0.02837,
				"method": "rhf"
			},
			{
				"type": "unocc",
				"energy": -0.02487,
				"method": "rhf"
			},
			{
				"type": "unocc",
				"energy": -0.01666,
				"method": "rhf"
			},
			{
				"type": "unocc",
				"energy": 0.02255,
				"method": "rhf"
			}
		],
		"cosmo_sigma_profile": { 
			"-0.025": 0.0,
			"-0.024": 0.0,
			"-0.023": 0.0,
			"-0.022": 0.0,
			"-0.021": 0.0,
			"-0.02": 0.0,
			"-0.019": 0.0,
			"-0.018": 0.0,
			"-0.017": 0.0,
			"-0.016": 0.0,
			"-0.015": 0.0,
			"-0.014": 0.0,
			"-0.013": 0.0,
			"-0.012": 0.0,
			"-0.011": 0.0,
			"-0.01": 0.0,
			"-0.009": 0.0,
			"-0.008": 1.72506228332,
			"-0.007": 13.7818811878,
			"-0.006": 18.1585425497,
			"-0.005": 18.6394770058,
			"-0.004": 12.8756098413,
			"-0.003": 14.6269967743,
			"-0.002": 15.6731661193,
			"-0.001": 16.8638502673,
			"0.0": 18.7670960059,
			"0.001": 27.6821866646,
			"0.002": 29.6143730564,
			"0.003": 30.0701794529,
			"0.004": 19.4565705453,
			"0.005": 6.70945420421,
			"0.006": 2.70178931593,
			"0.007": 1.28251068174,
			"0.008": 2.57433479309,
			"0.009": 2.42876971973,
			"0.01": 2.8149896139,
			"0.011": 4.72841263673,
			"0.012": 1.64742263879,
			"0.013": 0.0,
			"0.014": 0.0,
			"0.015": 0.0,
			"0.016": 0.0,
			"0.017": 0.0,
			"0.018": 0.0,
			"0.019": 0.0,
			"0.02": 0.0,
			"0.021": 0.0,
			"0.022": 0.0,
			"0.023": 0.0,
			"0.024": 0.0,
			"0.025": 0.0
		}
	}
}
