{
	 "smiles": "O=CC1=CC=C(C=C1)C1=CSC=C1", 
	 "Tm": 375.15, 
	 "num_atms": 21, 
	 "gaussian": { 
		 "optdone": 1, 
		 "sigma_profile": "yes", 
		 "theory": "DFT", 
		 "functional": "B3LYP", 
		 "basiset": "6-31G**", 
		 "properties": { 
			 "R2extent": 4026.4077, 
			 "electric_dipole_moment_norm": 3.64673078112, 
			 "electric_quadrupole_moment_norm": 17.9163941724, 
			 "total_energy": -897.385689996, 
			 "HOMO_LUMO_gap": 0.16201, 
			 "cosmo_polarized_energy": -9.56, 
			 "cosmo_cavitation_energy": 27.43, 
			 "cosmo_dispersion_energy": -20.58, 
			 "cosmo_repulsion_energy": 1.54, 
			 "cosmo_total_nonelectrostatic_energy": 8.39, 
			 "SMD_solvation_energy": 5.73 
		},
		"coords": [
			{
				"x": 4.7847873702,
				"y": -1.3026085707,
				"z": 1.8797290263,
				"element": "O" 
			},
			{
				"x": 3.7599836312,
				"y": -0.7065639637,
				"z": 2.156248807,
				"element": "C" 
			},
			{
				"x": 2.6713005729,
				"y": -0.4166166272,
				"z": 1.2003461804,
				"element": "C" 
			},
			{
				"x": 2.767492919,
				"y": -0.8324505088,
				"z": -0.1373092468,
				"element": "C" 
			},
			{
				"x": 1.7446929288,
				"y": -0.5524487547,
				"z": -1.0306965694,
				"element": "C" 
			},
			{
				"x": 0.5889731248,
				"y": 0.1427920954,
				"z": -0.6169875002,
				"element": "C" 
			},
			{
				"x": 0.5030651103,
				"y": 0.5560118218,
				"z": 0.7249943506,
				"element": "C" 
			},
			{
				"x": 1.5316111225,
				"y": 0.2807455339,
				"z": 1.620242699,
				"element": "C" 
			},
			{
				"x": -0.5055156988,
				"y": 0.428547012,
				"z": -1.5639421849,
				"element": "C" 
			},
			{
				"x": -0.8206396573,
				"y": -0.3594816039,
				"z": -2.6490342376,
				"element": "C" 
			},
			{
				"x": -2.1658519639,
				"y": 0.2565724259,
				"z": -3.5412978529,
				"element": "S" 
			},
			{
				"x": -2.3221044189,
				"y": 1.6048349613,
				"z": -2.4607880758,
				"element": "C" 
			},
			{
				"x": -1.3864386077,
				"y": 1.5628619744,
				"z": -1.4691384812,
				"element": "C" 
			},
			{
				"x": 3.5797979001,
				"y": -0.3316290705,
				"z": 3.1888995724,
				"element": "H" 
			},
			{
				"x": 3.6608732359,
				"y": -1.3631140913,
				"z": -0.4512207347,
				"element": "H" 
			},
			{
				"x": 1.8423958526,
				"y": -0.8491948859,
				"z": -2.0704831227,
				"element": "H" 
			},
			{
				"x": -0.3856688666,
				"y": 1.0743160873,
				"z": 1.0708204086,
				"element": "H" 
			},
			{
				"x": 1.4501056157,
				"y": 0.6012481293,
				"z": 2.6565246631,
				"element": "H" 
			},
			{
				"x": -0.3602558513,
				"y": -1.2907173325,
				"z": -2.9475067461,
				"element": "H" 
			},
			{
				"x": -3.0836134839,
				"y": 2.3526209627,
				"z": -2.6323811078,
				"element": "H" 
			},
			{
				"x": -1.2968908356,
				"y": 2.3289744054,
				"z": -0.7079198473,
				"element": "H" 
			}
		],
		 "valence_orbital": [ 
			{
				"type": "occ",
				"energy": -0.28769,
				"method": "rhf"
			},
			{
				"type": "occ",
				"energy": -0.26706,
				"method": "rhf"
			},
			{
				"type": "occ",
				"energy": -0.254,
				"method": "rhf"
			},
			{
				"type": "occ",
				"energy": -0.25252,
				"method": "rhf"
			},
			{
				"type": "occ",
				"energy": -0.23068,
				"method": "rhf"
			},
			{
				"type": "unocc",
				"energy": -0.06867,
				"method": "rhf"
			},
			{
				"type": "unocc",
				"energy": -0.0224,
				"method": "rhf"
			},
			{
				"type": "unocc",
				"energy": -0.01293,
				"method": "rhf"
			},
			{
				"type": "unocc",
				"energy": 0.02148,
				"method": "rhf"
			},
			{
				"type": "unocc",
				"energy": 0.02658,
				"method": "rhf"
			}
		],
		"cosmo_sigma_profile": { 
			"-0.025": 0.0,
			"-0.024": 0.0,
			"-0.023": 0.0,
			"-0.022": 0.0,
			"-0.021": 0.0,
			"-0.02": 0.0,
			"-0.019": 0.0,
			"-0.018": 0.0,
			"-0.017": 0.0,
			"-0.016": 0.0,
			"-0.015": 0.0,
			"-0.014": 0.0,
			"-0.013": 0.0,
			"-0.012": 0.0,
			"-0.011": 0.0,
			"-0.01": 0.0,
			"-0.009": 1.28460397108,
			"-0.008": 4.52442243082,
			"-0.007": 11.8632340046,
			"-0.006": 16.0035960898,
			"-0.005": 15.3698151065,
			"-0.004": 14.1581828408,
			"-0.003": 11.9313270476,
			"-0.002": 12.7839107982,
			"-0.001": 11.6591413673,
			"0.0": 13.0322063164,
			"0.001": 17.7619197196,
			"0.002": 21.2604417774,
			"0.003": 27.624111491,
			"0.004": 20.159080009,
			"0.005": 5.93101741101,
			"0.006": 1.82960884623,
			"0.007": 1.27284593314,
			"0.008": 1.84525767403,
			"0.009": 2.03609590052,
			"0.01": 2.05424258149,
			"0.011": 4.31441967364,
			"0.012": 3.38123190062,
			"0.013": 1.17689049253,
			"0.014": 0.0386634845794,
			"0.015": 0.0,
			"0.016": 0.0,
			"0.017": 0.0,
			"0.018": 0.0,
			"0.019": 0.0,
			"0.02": 0.0,
			"0.021": 0.0,
			"0.022": 0.0,
			"0.023": 0.0,
			"0.024": 0.0,
			"0.025": 0.0
		}
	}
}
