{
	 "smiles": "CCC(CC)(CC)OO", 
	 "Tm": 275.65, 
	 "num_atms": 25, 
	 "gaussian": { 
		 "optdone": 1, 
		 "sigma_profile": "yes", 
		 "theory": "DFT", 
		 "functional": "B3LYP", 
		 "basiset": "6-31G**", 
		 "properties": { 
			 "R2extent": 1632.9565, 
			 "electric_dipole_moment_norm": 1.79897860465, 
			 "electric_quadrupole_moment_norm": 6.14028369784, 
			 "total_energy": -426.750613229, 
			 "HOMO_LUMO_gap": 0.28291, 
			 "cosmo_polarized_energy": -6.89, 
			 "cosmo_cavitation_energy": 25.2, 
			 "cosmo_dispersion_energy": -18.0, 
			 "cosmo_repulsion_energy": 1.48, 
			 "cosmo_total_nonelectrostatic_energy": 8.68, 
			 "SMD_solvation_energy": 4.2 
		},
		"coords": [
			{
				"x": 1.6915232662,
				"y": 0.3446019834,
				"z": 1.6742985178,
				"element": "C" 
			},
			{
				"x": 0.674192048,
				"y": 1.0101998454,
				"z": 0.7359891238,
				"element": "C" 
			},
			{
				"x": -0.66411889,
				"y": 0.2742299633,
				"z": 0.463414981,
				"element": "C" 
			},
			{
				"x": -1.7493221769,
				"y": 0.5077197644,
				"z": 1.5377144239,
				"element": "C" 
			},
			{
				"x": -1.4944435538,
				"y": -0.0570307934,
				"z": 2.9408492,
				"element": "C" 
			},
			{
				"x": -0.4276803575,
				"y": -1.2174625096,
				"z": 0.1378915005,
				"element": "C" 
			},
			{
				"x": -1.6643331421,
				"y": -2.0107264212,
				"z": -0.3034705335,
				"element": "C" 
			},
			{
				"x": -1.1902025302,
				"y": 0.7638676384,
				"z": -0.8031405823,
				"element": "O" 
			},
			{
				"x": -1.4690201936,
				"y": 2.1906410363,
				"z": -0.7007571041,
				"element": "O" 
			},
			{
				"x": 1.2934492347,
				"y": 0.1696271289,
				"z": 2.6764878686,
				"element": "H" 
			},
			{
				"x": 2.5703133186,
				"y": 0.989313517,
				"z": 1.780735608,
				"element": "H" 
			},
			{
				"x": 2.0407902421,
				"y": -0.615406524,
				"z": 1.2828463789,
				"element": "H" 
			},
			{
				"x": 0.4428051103,
				"y": 2.0157511013,
				"z": 1.1040769784,
				"element": "H" 
			},
			{
				"x": 1.1544249049,
				"y": 1.1398687826,
				"z": -0.243138124,
				"element": "H" 
			},
			{
				"x": -1.9112434697,
				"y": 1.5877884013,
				"z": 1.6045665746,
				"element": "H" 
			},
			{
				"x": -2.6819801687,
				"y": 0.0893810045,
				"z": 1.145078684,
				"element": "H" 
			},
			{
				"x": -0.6673739277,
				"y": 0.4466178131,
				"z": 3.4489956885,
				"element": "H" 
			},
			{
				"x": -2.3847267279,
				"y": 0.082864083,
				"z": 3.5628337862,
				"element": "H" 
			},
			{
				"x": -1.2749967091,
				"y": -1.129979388,
				"z": 2.9260987088,
				"element": "H" 
			},
			{
				"x": 0.0136645579,
				"y": -1.690960645,
				"z": 1.020923891,
				"element": "H" 
			},
			{
				"x": 0.3343234944,
				"y": -1.2660500421,
				"z": -0.650037505,
				"element": "H" 
			},
			{
				"x": -2.1485285821,
				"y": -1.5418782656,
				"z": -1.1630934911,
				"element": "H" 
			},
			{
				"x": -2.4053760787,
				"y": -2.0914783151,
				"z": 0.4977649916,
				"element": "H" 
			},
			{
				"x": -1.3763029306,
				"y": -3.0285875648,
				"z": -0.5857965011,
				"element": "H" 
			},
			{
				"x": -0.7346367385,
				"y": 2.543988406,
				"z": -1.2273330646,
				"element": "H" 
			}
		],
		 "valence_orbital": [ 
			{
				"type": "occ",
				"energy": -0.33726,
				"method": "rhf"
			},
			{
				"type": "occ",
				"energy": -0.31273,
				"method": "rhf"
			},
			{
				"type": "occ",
				"energy": -0.30717,
				"method": "rhf"
			},
			{
				"type": "occ",
				"energy": -0.27993,
				"method": "rhf"
			},
			{
				"type": "occ",
				"energy": -0.25199,
				"method": "rhf"
			},
			{
				"type": "unocc",
				"energy": 0.03092,
				"method": "rhf"
			},
			{
				"type": "unocc",
				"energy": 0.07602,
				"method": "rhf"
			},
			{
				"type": "unocc",
				"energy": 0.09273,
				"method": "rhf"
			},
			{
				"type": "unocc",
				"energy": 0.11334,
				"method": "rhf"
			},
			{
				"type": "unocc",
				"energy": 0.12595,
				"method": "rhf"
			}
		],
		"cosmo_sigma_profile": { 
			"-0.025": 0.0,
			"-0.024": 0.0,
			"-0.023": 0.0,
			"-0.022": 0.0,
			"-0.021": 0.0,
			"-0.02": 0.0,
			"-0.019": 0.0,
			"-0.018": 0.0,
			"-0.017": 0.077951320299,
			"-0.016": 0.835271537933,
			"-0.015": 0.988365017082,
			"-0.014": 0.577687448002,
			"-0.013": 1.09175607267,
			"-0.012": 0.88338795369,
			"-0.011": 0.887992961674,
			"-0.01": 0.212642327937,
			"-0.009": 0.208529094208,
			"-0.008": 0.865160226275,
			"-0.007": 1.66169964868,
			"-0.006": 1.36874964379,
			"-0.005": 0.923371409147,
			"-0.004": 2.5803530462,
			"-0.003": 16.0342582053,
			"-0.002": 31.0952625842,
			"-0.001": 35.2989514063,
			"0.0": 31.6214029983,
			"0.001": 27.0258029864,
			"0.002": 11.3243502166,
			"0.003": 2.97427304921,
			"0.004": 1.99875275058,
			"0.005": 2.53103774487,
			"0.006": 3.27204005669,
			"0.007": 3.48318138866,
			"0.008": 1.86903934947,
			"0.009": 3.04828715035,
			"0.01": 2.69705808568,
			"0.011": 2.48645750695,
			"0.012": 2.33705404641,
			"0.013": 1.15969489903,
			"0.014": 0.0128636585753,
			"0.015": 0.0,
			"0.016": 0.0,
			"0.017": 0.0,
			"0.018": 0.0,
			"0.019": 0.0,
			"0.02": 0.0,
			"0.021": 0.0,
			"0.022": 0.0,
			"0.023": 0.0,
			"0.024": 0.0,
			"0.025": 0.0
		}
	}
}
