{
	 "smiles": "CCOC1=CC=C(CC(CN)C(N)=O)C=C1", 
	 "Tm": 390.15, 
	 "num_atms": 34, 
	 "gaussian": { 
		 "optdone": 1, 
		 "sigma_profile": "yes", 
		 "theory": "DFT", 
		 "functional": "B3LYP", 
		 "basiset": "6-31G**", 
		 "properties": { 
			 "R2extent": 4895.0905, 
			 "electric_dipole_moment_norm": 2.16751639902, 
			 "electric_quadrupole_moment_norm": 20.5645101364, 
			 "total_energy": -728.086729688, 
			 "HOMO_LUMO_gap": 0.20836, 
			 "cosmo_polarized_energy": -18.89, 
			 "cosmo_cavitation_energy": 35.94, 
			 "cosmo_dispersion_energy": -25.03, 
			 "cosmo_repulsion_energy": 1.99, 
			 "cosmo_total_nonelectrostatic_energy": 12.91, 
			 "SMD_solvation_energy": 5.25 
		},
		"coords": [
			{
				"x": -4.7128809669,
				"y": -1.0343766136,
				"z": 2.2585572984,
				"element": "C" 
			},
			{
				"x": -3.6942998126,
				"y": -1.1449735097,
				"z": 3.3890492964,
				"element": "C" 
			},
			{
				"x": -2.677331378,
				"y": -0.1441810712,
				"z": 3.3129242657,
				"element": "O" 
			},
			{
				"x": -1.619199471,
				"y": -0.3103633465,
				"z": 2.4636201629,
				"element": "C" 
			},
			{
				"x": -1.4008696285,
				"y": -1.4262652878,
				"z": 1.6454454287,
				"element": "C" 
			},
			{
				"x": -0.262664089,
				"y": -1.484204837,
				"z": 0.8372798235,
				"element": "C" 
			},
			{
				"x": 0.6789688088,
				"y": -0.4476999993,
				"z": 0.8121355911,
				"element": "C" 
			},
			{
				"x": 1.9010961597,
				"y": -0.5254158089,
				"z": -0.0805058222,
				"element": "C" 
			},
			{
				"x": 1.6787892152,
				"y": -0.0624091017,
				"z": -1.5493612331,
				"element": "C" 
			},
			{
				"x": 1.3372639911,
				"y": 1.4386682477,
				"z": -1.6880812332,
				"element": "C" 
			},
			{
				"x": 2.3681712719,
				"y": 2.3817929008,
				"z": -1.254065148,
				"element": "N" 
			},
			{
				"x": 0.704994391,
				"y": -1.0367048423,
				"z": -2.2326449056,
				"element": "C" 
			},
			{
				"x": -0.416067556,
				"y": -0.5088372336,
				"z": -2.8093837041,
				"element": "N" 
			},
			{
				"x": 0.9412534238,
				"y": -2.238788116,
				"z": -2.2736076946,
				"element": "O" 
			},
			{
				"x": 0.4421845186,
				"y": 0.6591658789,
				"z": 1.6434431087,
				"element": "C" 
			},
			{
				"x": -0.6845944703,
				"y": 0.734841612,
				"z": 2.4546191313,
				"element": "C" 
			},
			{
				"x": -4.2528563195,
				"y": -1.2043089704,
				"z": 1.2813881009,
				"element": "H" 
			},
			{
				"x": -5.5083280071,
				"y": -1.7747099839,
				"z": 2.3956437435,
				"element": "H" 
			},
			{
				"x": -5.1656910108,
				"y": -0.0387286847,
				"z": 2.2540634969,
				"element": "H" 
			},
			{
				"x": -4.1799824247,
				"y": -0.9669955199,
				"z": 4.3528855424,
				"element": "H" 
			},
			{
				"x": -3.2440415639,
				"y": -2.1449804918,
				"z": 3.429823069,
				"element": "H" 
			},
			{
				"x": -2.0986196671,
				"y": -2.2553098925,
				"z": 1.6299061176,
				"element": "H" 
			},
			{
				"x": -0.1051444468,
				"y": -2.3568579472,
				"z": 0.2097687532,
				"element": "H" 
			},
			{
				"x": 2.2616939264,
				"y": -1.5567519949,
				"z": -0.1258559241,
				"element": "H" 
			},
			{
				"x": 2.710871433,
				"y": 0.0759874008,
				"z": 0.3486838713,
				"element": "H" 
			},
			{
				"x": 2.6312403691,
				"y": -0.2313108822,
				"z": -2.0726114992,
				"element": "H" 
			},
			{
				"x": 1.123399965,
				"y": 1.6582150069,
				"z": -2.741420692,
				"element": "H" 
			},
			{
				"x": 0.4260306979,
				"y": 1.6670087286,
				"z": -1.1204771281,
				"element": "H" 
			},
			{
				"x": 2.5556491511,
				"y": 2.2754366089,
				"z": -0.2610335402,
				"element": "H" 
			},
			{
				"x": 3.2439592604,
				"y": 2.1894766138,
				"z": -1.7355066774,
				"element": "H" 
			},
			{
				"x": -0.7193972245,
				"y": 0.4351714052,
				"z": -2.6347277964,
				"element": "H" 
			},
			{
				"x": -1.0894824071,
				"y": -1.1667795484,
				"z": -3.173825116,
				"element": "H" 
			},
			{
				"x": 1.1610032041,
				"y": 1.4753492695,
				"z": 1.6715791059,
				"element": "H" 
			},
			{
				"x": -0.8578193431,
				"y": 1.5893400102,
				"z": 3.1007922069,
				"element": "H" 
			}
		],
		 "valence_orbital": [ 
			{
				"type": "occ",
				"energy": -0.26592,
				"method": "rhf"
			},
			{
				"type": "occ",
				"energy": -0.25571,
				"method": "rhf"
			},
			{
				"type": "occ",
				"energy": -0.24789,
				"method": "rhf"
			},
			{
				"type": "occ",
				"energy": -0.22999,
				"method": "rhf"
			},
			{
				"type": "occ",
				"energy": -0.21101,
				"method": "rhf"
			},
			{
				"type": "unocc",
				"energy": -0.00265,
				"method": "rhf"
			},
			{
				"type": "unocc",
				"energy": 0.01252,
				"method": "rhf"
			},
			{
				"type": "unocc",
				"energy": 0.02914,
				"method": "rhf"
			},
			{
				"type": "unocc",
				"energy": 0.06437,
				"method": "rhf"
			},
			{
				"type": "unocc",
				"energy": 0.07906,
				"method": "rhf"
			}
		],
		"cosmo_sigma_profile": { 
			"-0.025": 0.0,
			"-0.024": 0.0,
			"-0.023": 0.0,
			"-0.022": 0.0,
			"-0.021": 0.0,
			"-0.02": 0.0,
			"-0.019": 0.0,
			"-0.018": 0.0,
			"-0.017": 0.0,
			"-0.016": 0.0,
			"-0.015": 0.0,
			"-0.014": 0.362759992132,
			"-0.013": 2.28169601424,
			"-0.012": 2.01542309473,
			"-0.011": 2.62692807999,
			"-0.01": 3.12321896227,
			"-0.009": 5.19409782094,
			"-0.008": 6.86959822062,
			"-0.007": 6.73982504904,
			"-0.006": 9.84392392023,
			"-0.005": 16.7049457158,
			"-0.004": 22.5279142512,
			"-0.003": 29.0074390917,
			"-0.002": 22.2471558888,
			"-0.001": 20.7047952394,
			"0.0": 21.0431670088,
			"0.001": 14.1129448019,
			"0.002": 9.99915378604,
			"0.003": 12.3108014182,
			"0.004": 14.9962605986,
			"0.005": 13.6184634059,
			"0.006": 11.5787726035,
			"0.007": 3.89386171493,
			"0.008": 3.67925390691,
			"0.009": 3.40943446838,
			"0.01": 2.87860882812,
			"0.011": 2.7832723589,
			"0.012": 2.41242386491,
			"0.013": 2.30900924558,
			"0.014": 5.73058163264,
			"0.015": 2.81271370535,
			"0.016": 0.65408766842,
			"0.017": 0.782739077485,
			"0.018": 0.822919734687,
			"0.019": 0.495040729364,
			"0.02": 0.24144600927,
			"0.021": 0.0,
			"0.022": 0.0,
			"0.023": 0.0,
			"0.024": 0.0,
			"0.025": 0.0
		}
	}
}
