{
	 "smiles": "CN1C=C(Br)C=C1C(=O)NN", 
	 "Tm": 443.15, 
	 "num_atms": 19, 
	 "gaussian": { 
		 "optdone": 1, 
		 "sigma_profile": "yes", 
		 "theory": "DFT", 
		 "functional": "B3LYP", 
		 "basiset": "6-31G**", 
		 "properties": { 
			 "R2extent": 5676.7216, 
			 "electric_dipole_moment_norm": 1.26781456846, 
			 "electric_quadrupole_moment_norm": 8.74359176483, 
			 "total_energy": -3044.31248826, 
			 "HOMO_LUMO_gap": 0.19517, 
			 "cosmo_polarized_energy": -12.18, 
			 "cosmo_cavitation_energy": 25.63, 
			 "cosmo_dispersion_energy": -19.28, 
			 "cosmo_repulsion_energy": 1.56, 
			 "cosmo_total_nonelectrostatic_energy": 7.91, 
			 "SMD_solvation_energy": 4.55 
		},
		"coords": [
			{
				"x": -0.0857100247,
				"y": 0.6683644915,
				"z": 0.1759778231,
				"element": "C" 
			},
			{
				"x": -0.6868151747,
				"y": -0.2259654603,
				"z": -0.8120915403,
				"element": "N" 
			},
			{
				"x": -1.9370863639,
				"y": -0.0535969653,
				"z": -1.3339674554,
				"element": "C" 
			},
			{
				"x": -2.1777166515,
				"y": -1.0808881673,
				"z": -2.2286386629,
				"element": "C" 
			},
			{
				"x": -3.770360469,
				"y": -1.3175961158,
				"z": -3.2150910974,
				"element": "Br" 
			},
			{
				"x": -1.0400094552,
				"y": -1.9082046754,
				"z": -2.2591432837,
				"element": "C" 
			},
			{
				"x": -0.1179323193,
				"y": -1.3574161588,
				"z": -1.3719055417,
				"element": "C" 
			},
			{
				"x": 1.2305343931,
				"y": -1.8168313345,
				"z": -1.0016739507,
				"element": "C" 
			},
			{
				"x": 1.8517150944,
				"y": -1.3970000304,
				"z": -0.0228284643,
				"element": "O" 
			},
			{
				"x": 1.7663978331,
				"y": -2.7774630597,
				"z": -1.8309910225,
				"element": "N" 
			},
			{
				"x": 3.1047084096,
				"y": -3.1905404245,
				"z": -1.6507527179,
				"element": "N" 
			},
			{
				"x": 0.864786009,
				"y": 1.0601766217,
				"z": -0.1889915289,
				"element": "H" 
			},
			{
				"x": 0.1044991131,
				"y": 0.1374984793,
				"z": 1.1089453422,
				"element": "H" 
			},
			{
				"x": -0.7800011451,
				"y": 1.4927855456,
				"z": 0.347420711,
				"element": "H" 
			},
			{
				"x": -2.5638271518,
				"y": 0.7737950051,
				"z": -1.0389257603,
				"element": "H" 
			},
			{
				"x": -0.9228466399,
				"y": -2.8161657038,
				"z": -2.8319350812,
				"element": "H" 
			},
			{
				"x": 1.4501598149,
				"y": -2.8242234553,
				"z": -2.7890173989,
				"element": "H" 
			},
			{
				"x": 3.5949633894,
				"y": -2.4064161176,
				"z": -1.2167623342,
				"element": "H" 
			},
			{
				"x": 3.1016413385,
				"y": -3.9274124744,
				"z": -0.9460280359,
				"element": "H" 
			}
		],
		 "valence_orbital": [ 
			{
				"type": "occ",
				"energy": -0.28746,
				"method": "rhf"
			},
			{
				"type": "occ",
				"energy": -0.26549,
				"method": "rhf"
			},
			{
				"type": "occ",
				"energy": -0.25732,
				"method": "rhf"
			},
			{
				"type": "occ",
				"energy": -0.24576,
				"method": "rhf"
			},
			{
				"type": "occ",
				"energy": -0.22316,
				"method": "rhf"
			},
			{
				"type": "unocc",
				"energy": -0.02799,
				"method": "rhf"
			},
			{
				"type": "unocc",
				"energy": 0.01699,
				"method": "rhf"
			},
			{
				"type": "unocc",
				"energy": 0.04379,
				"method": "rhf"
			},
			{
				"type": "unocc",
				"energy": 0.08458,
				"method": "rhf"
			},
			{
				"type": "unocc",
				"energy": 0.08975,
				"method": "rhf"
			}
		],
		"cosmo_sigma_profile": { 
			"-0.025": 0.0,
			"-0.024": 0.0,
			"-0.023": 0.0,
			"-0.022": 0.0,
			"-0.021": 0.0,
			"-0.02": 0.0,
			"-0.019": 0.0,
			"-0.018": 0.0,
			"-0.017": 0.0,
			"-0.016": 0.0,
			"-0.015": 0.0,
			"-0.014": 0.652452345162,
			"-0.013": 1.12663050857,
			"-0.012": 1.12933878924,
			"-0.011": 2.48642960619,
			"-0.01": 3.69429293083,
			"-0.009": 6.75698433091,
			"-0.008": 6.51176437485,
			"-0.007": 6.47315432777,
			"-0.006": 8.03333082392,
			"-0.005": 9.37441651039,
			"-0.004": 11.6248301144,
			"-0.003": 13.9018228449,
			"-0.002": 13.6716815487,
			"-0.001": 10.7158717803,
			"0.0": 10.0607956732,
			"0.001": 12.9344212621,
			"0.002": 13.3352014132,
			"0.003": 16.3044922892,
			"0.004": 20.588245785,
			"0.005": 15.1644279792,
			"0.006": 3.33455514911,
			"0.007": 1.68938359882,
			"0.008": 1.84224682691,
			"0.009": 2.48614390577,
			"0.01": 1.64106649844,
			"0.011": 2.17145564145,
			"0.012": 2.42992542361,
			"0.013": 3.91622171443,
			"0.014": 1.41712373895,
			"0.015": 0.634730880898,
			"0.016": 0.447402943932,
			"0.017": 0.348564996518,
			"0.018": 0.0,
			"0.019": 0.0,
			"0.02": 0.0,
			"0.021": 0.0,
			"0.022": 0.0,
			"0.023": 0.0,
			"0.024": 0.0,
			"0.025": 0.0
		}
	}
}
