{
	 "smiles": "CC(C#N)C1=CC=CC=C1[N+]([O-])=O", 
	 "Tm": 324.15, 
	 "num_atms": 21, 
	 "gaussian": { 
		 "optdone": 1, 
		 "sigma_profile": "yes", 
		 "theory": "DFT", 
		 "functional": "B3LYP", 
		 "basiset": "6-31G**", 
		 "properties": { 
			 "R2extent": 2327.4179, 
			 "electric_dipole_moment_norm": 4.12703735021, 
			 "electric_quadrupole_moment_norm": 14.9117925123, 
			 "total_energy": -607.61101344, 
			 "HOMO_LUMO_gap": 0.18229, 
			 "cosmo_polarized_energy": -11.84, 
			 "cosmo_cavitation_energy": 26.15, 
			 "cosmo_dispersion_energy": -18.34, 
			 "cosmo_repulsion_energy": 1.45, 
			 "cosmo_total_nonelectrostatic_energy": 9.26, 
			 "SMD_solvation_energy": 7.87 
		},
		"coords": [
			{
				"x": 1.5003831595,
				"y": 1.8100668827,
				"z": 1.7399934713,
				"element": "C" 
			},
			{
				"x": 0.5260711742,
				"y": 0.6069022291,
				"z": 1.8166130323,
				"element": "C" 
			},
			{
				"x": -0.4094061912,
				"y": 0.7878206657,
				"z": 2.9390335327,
				"element": "C" 
			},
			{
				"x": -1.128575061,
				"y": 0.9480865631,
				"z": 3.8361655776,
				"element": "N" 
			},
			{
				"x": -0.2306182083,
				"y": 0.409838918,
				"z": 0.5000419492,
				"element": "C" 
			},
			{
				"x": -1.4344475788,
				"y": 1.1002499366,
				"z": 0.2993824036,
				"element": "C" 
			},
			{
				"x": -2.1627784535,
				"y": 0.9902007939,
				"z": -0.883101481,
				"element": "C" 
			},
			{
				"x": -1.7120284676,
				"y": 0.1599238738,
				"z": -1.9100942607,
				"element": "C" 
			},
			{
				"x": -0.532146279,
				"y": -0.5527880438,
				"z": -1.7394739095,
				"element": "C" 
			},
			{
				"x": 0.2006892604,
				"y": -0.4166730729,
				"z": -0.556608381,
				"element": "C" 
			},
			{
				"x": 1.4482565192,
				"y": -1.2010606988,
				"z": -0.4919087514,
				"element": "N" 
			},
			{
				"x": 2.3301881324,
				"y": -0.8404245467,
				"z": 0.2930540562,
				"element": "O" 
			},
			{
				"x": 1.550418322,
				"y": -2.1696563566,
				"z": -1.2405491793,
				"element": "O" 
			},
			{
				"x": 0.9576473766,
				"y": 2.7338408121,
				"z": 1.5233995386,
				"element": "H" 
			},
			{
				"x": 2.0286239112,
				"y": 1.9292610069,
				"z": 2.689320763,
				"element": "H" 
			},
			{
				"x": 2.2305735073,
				"y": 1.625445211,
				"z": 0.9511070319,
				"element": "H" 
			},
			{
				"x": 1.1155295938,
				"y": -0.2863827886,
				"z": 2.0326553636,
				"element": "H" 
			},
			{
				"x": -1.8126973043,
				"y": 1.7256044464,
				"z": 1.1019016316,
				"element": "H" 
			},
			{
				"x": -3.0868945496,
				"y": 1.5487107562,
				"z": -0.9959551606,
				"element": "H" 
			},
			{
				"x": -2.2743998656,
				"y": 0.0635314281,
				"z": -2.8329686783,
				"element": "H" 
			},
			{
				"x": -0.1554889977,
				"y": -1.2186980163,
				"z": -2.5053085498,
				"element": "H" 
			}
		],
		 "valence_orbital": [ 
			{
				"type": "occ",
				"energy": -0.32256,
				"method": "rhf"
			},
			{
				"type": "occ",
				"energy": -0.31859,
				"method": "rhf"
			},
			{
				"type": "occ",
				"energy": -0.3086,
				"method": "rhf"
			},
			{
				"type": "occ",
				"energy": -0.28851,
				"method": "rhf"
			},
			{
				"type": "occ",
				"energy": -0.28352,
				"method": "rhf"
			},
			{
				"type": "unocc",
				"energy": -0.10123,
				"method": "rhf"
			},
			{
				"type": "unocc",
				"energy": -0.04036,
				"method": "rhf"
			},
			{
				"type": "unocc",
				"energy": -0.01872,
				"method": "rhf"
			},
			{
				"type": "unocc",
				"energy": 0.02888,
				"method": "rhf"
			},
			{
				"type": "unocc",
				"energy": 0.03362,
				"method": "rhf"
			}
		],
		"cosmo_sigma_profile": { 
			"-0.025": 0.0,
			"-0.024": 0.0,
			"-0.023": 0.0,
			"-0.022": 0.0,
			"-0.021": 0.0,
			"-0.02": 0.0,
			"-0.019": 0.0,
			"-0.018": 0.0,
			"-0.017": 0.0,
			"-0.016": 0.0,
			"-0.015": 0.0,
			"-0.014": 0.0,
			"-0.013": 0.0,
			"-0.012": 0.0,
			"-0.011": 0.015925145678,
			"-0.01": 0.608183366211,
			"-0.009": 1.3995599534,
			"-0.008": 4.76295552474,
			"-0.007": 11.9559054257,
			"-0.006": 14.5247198321,
			"-0.005": 15.4839804974,
			"-0.004": 14.0952106811,
			"-0.003": 15.5865047058,
			"-0.002": 14.8193199973,
			"-0.001": 17.7461188134,
			"0.0": 15.8529131381,
			"0.001": 14.621011098,
			"0.002": 11.6304160683,
			"0.003": 5.34431889063,
			"0.004": 4.5839206886,
			"0.005": 5.46518700753,
			"0.006": 5.63498323916,
			"0.007": 9.24944152256,
			"0.008": 8.06312458466,
			"0.009": 7.4571179849,
			"0.01": 4.38115053891,
			"0.011": 2.87874126814,
			"0.012": 2.37144810733,
			"0.013": 1.52222781185,
			"0.014": 0.0790078104144,
			"0.015": 0.0,
			"0.016": 0.0,
			"0.017": 0.0,
			"0.018": 0.0,
			"0.019": 0.0,
			"0.02": 0.0,
			"0.021": 0.0,
			"0.022": 0.0,
			"0.023": 0.0,
			"0.024": 0.0,
			"0.025": 0.0
		}
	}
}
