{
	 "smiles": "CNC1=C2C=NC=CC2=NC=C1", 
	 "Tm": 497.15, 
	 "num_atms": 21, 
	 "gaussian": { 
		 "optdone": 1, 
		 "sigma_profile": "yes", 
		 "theory": "DFT", 
		 "functional": "B3LYP", 
		 "basiset": "6-31G**", 
		 "properties": { 
			 "R2extent": 2333.9364, 
			 "electric_dipole_moment_norm": 3.95261963386, 
			 "electric_quadrupole_moment_norm": 5.76135537526, 
			 "total_energy": -512.628846359, 
			 "HOMO_LUMO_gap": 0.16851, 
			 "cosmo_polarized_energy": -12.05, 
			 "cosmo_cavitation_energy": 24.33, 
			 "cosmo_dispersion_energy": -18.33, 
			 "cosmo_repulsion_energy": 1.43, 
			 "cosmo_total_nonelectrostatic_energy": 7.44, 
			 "SMD_solvation_energy": 0.41 
		},
		"coords": [
			{
				"x": -2.0850918881,
				"y": 1.277335844,
				"z": 0.2112304883,
				"element": "C" 
			},
			{
				"x": -1.0110534415,
				"y": 0.6914712775,
				"z": -0.6033067155,
				"element": "N" 
			},
			{
				"x": -0.1425882806,
				"y": -0.2526298525,
				"z": -0.0502402325,
				"element": "C" 
			},
			{
				"x": 0.7125650288,
				"y": 0.0609112897,
				"z": 1.059961748,
				"element": "C" 
			},
			{
				"x": 0.8639388485,
				"y": 1.358563392,
				"z": 1.6199064075,
				"element": "C" 
			},
			{
				"x": 1.6439364917,
				"y": 1.644584575,
				"z": 2.6447370811,
				"element": "N" 
			},
			{
				"x": 2.3512590891,
				"y": 0.6220076456,
				"z": 3.1967956925,
				"element": "C" 
			},
			{
				"x": 2.3432370777,
				"y": -0.6646717036,
				"z": 2.7109306221,
				"element": "C" 
			},
			{
				"x": 1.5317439253,
				"y": -0.9825976086,
				"z": 1.5925290773,
				"element": "C" 
			},
			{
				"x": 1.5912416463,
				"y": -2.2411512236,
				"z": 1.0686077726,
				"element": "N" 
			},
			{
				"x": 0.8530043665,
				"y": -2.4618067593,
				"z": -0.0032248649,
				"element": "C" 
			},
			{
				"x": -0.0207044966,
				"y": -1.5246375723,
				"z": -0.5926246732,
				"element": "C" 
			},
			{
				"x": -2.8586084639,
				"y": 0.5436931936,
				"z": 0.4822390899,
				"element": "H" 
			},
			{
				"x": -1.6853520977,
				"y": 1.6983369601,
				"z": 1.1324535073,
				"element": "H" 
			},
			{
				"x": -2.5531372491,
				"y": 2.0870465076,
				"z": -0.354634101,
				"element": "H" 
			},
			{
				"x": -1.3877194061,
				"y": 0.3504377817,
				"z": -1.4809494424,
				"element": "H" 
			},
			{
				"x": 0.3454902795,
				"y": 2.1989582243,
				"z": 1.163925497,
				"element": "H" 
			},
			{
				"x": 2.9657579414,
				"y": 0.8863407369,
				"z": 4.0545572231,
				"element": "H" 
			},
			{
				"x": 2.9568829038,
				"y": -1.4467075344,
				"z": 3.1448755864,
				"element": "H" 
			},
			{
				"x": 0.9151255631,
				"y": -3.4615832124,
				"z": -0.4329966255,
				"element": "H" 
			},
			{
				"x": -0.6265278382,
				"y": -1.8198019614,
				"z": -1.4453731381,
				"element": "H" 
			}
		],
		 "valence_orbital": [ 
			{
				"type": "occ",
				"energy": -0.27106,
				"method": "rhf"
			},
			{
				"type": "occ",
				"energy": -0.26009,
				"method": "rhf"
			},
			{
				"type": "occ",
				"energy": -0.25694,
				"method": "rhf"
			},
			{
				"type": "occ",
				"energy": -0.25191,
				"method": "rhf"
			},
			{
				"type": "occ",
				"energy": -0.22369,
				"method": "rhf"
			},
			{
				"type": "unocc",
				"energy": -0.05518,
				"method": "rhf"
			},
			{
				"type": "unocc",
				"energy": -0.02401,
				"method": "rhf"
			},
			{
				"type": "unocc",
				"energy": 0.01915,
				"method": "rhf"
			},
			{
				"type": "unocc",
				"energy": 0.07174,
				"method": "rhf"
			},
			{
				"type": "unocc",
				"energy": 0.08199,
				"method": "rhf"
			}
		],
		"cosmo_sigma_profile": { 
			"-0.025": 0.0,
			"-0.024": 0.0,
			"-0.023": 0.0,
			"-0.022": 0.0,
			"-0.021": 0.0,
			"-0.02": 0.0,
			"-0.019": 0.0,
			"-0.018": 0.0,
			"-0.017": 0.0,
			"-0.016": 0.0,
			"-0.015": 0.0,
			"-0.014": 0.0117538467752,
			"-0.013": 1.03244338713,
			"-0.012": 1.69776407386,
			"-0.011": 1.36080415419,
			"-0.01": 1.19220522823,
			"-0.009": 1.87576596931,
			"-0.008": 2.53385231335,
			"-0.007": 4.57264893546,
			"-0.006": 12.2145179547,
			"-0.005": 13.0832759513,
			"-0.004": 15.4902851143,
			"-0.003": 14.7155177031,
			"-0.002": 16.1212776599,
			"-0.001": 10.9243802503,
			"0.0": 10.9900418425,
			"0.001": 18.946772385,
			"0.002": 18.9275357962,
			"0.003": 12.3449282241,
			"0.004": 5.78132493247,
			"0.005": 4.31873168951,
			"0.006": 3.19055562906,
			"0.007": 2.18947619328,
			"0.008": 4.96309231693,
			"0.009": 3.21547165021,
			"0.01": 2.00931077498,
			"0.011": 1.53014756313,
			"0.012": 2.30951259542,
			"0.013": 1.52342204568,
			"0.014": 2.08171453559,
			"0.015": 1.61260932995,
			"0.016": 1.47237854736,
			"0.017": 0.703488047724,
			"0.018": 0.0,
			"0.019": 0.0,
			"0.02": 0.0,
			"0.021": 0.0,
			"0.022": 0.0,
			"0.023": 0.0,
			"0.024": 0.0,
			"0.025": 0.0
		}
	}
}
