{
	 "smiles": "CC1=CC=C(O1)C(C1=CC=C(C)O1)C1=CC(=CC=C1O)[N+]([O-])=O", 
	 "Tm": 416.15, 
	 "num_atms": 38, 
	 "gaussian": { 
		 "optdone": 1, 
		 "sigma_profile": "yes", 
		 "theory": "DFT", 
		 "functional": "B3LYP", 
		 "basiset": "6-31G**", 
		 "properties": { 
			 "R2extent": 9358.0653, 
			 "electric_dipole_moment_norm": 6.89065299808, 
			 "electric_quadrupole_moment_norm": 28.4998190498, 
			 "total_energy": -1087.59241269, 
			 "HOMO_LUMO_gap": 0.14168, 
			 "cosmo_polarized_energy": -13.53, 
			 "cosmo_cavitation_energy": 43.26, 
			 "cosmo_dispersion_energy": -29.27, 
			 "cosmo_repulsion_energy": 2.27, 
			 "cosmo_total_nonelectrostatic_energy": 16.25, 
			 "SMD_solvation_energy": 10.66 
		},
		"coords": [
			{
				"x": -2.7256505612,
				"y": 2.7853590577,
				"z": -2.6639133694,
				"element": "C" 
			},
			{
				"x": -1.3555008666,
				"y": 2.2255712164,
				"z": -2.5082987536,
				"element": "C" 
			},
			{
				"x": -0.1162961236,
				"y": 2.6392188487,
				"z": -2.8965401795,
				"element": "C" 
			},
			{
				"x": 0.8144335505,
				"y": 1.6469915095,
				"z": -2.4391418861,
				"element": "C" 
			},
			{
				"x": 0.0778058443,
				"y": 0.6947907132,
				"z": -1.8010035429,
				"element": "C" 
			},
			{
				"x": -1.2498514921,
				"y": 1.0347722124,
				"z": -1.8366531974,
				"element": "O" 
			},
			{
				"x": 0.3995621804,
				"y": -0.6193011826,
				"z": -1.1324681593,
				"element": "C" 
			},
			{
				"x": -0.1957206105,
				"y": -0.7176679699,
				"z": 0.2479766234,
				"element": "C" 
			},
			{
				"x": -0.9601074472,
				"y": -1.6488805135,
				"z": 0.8771730707,
				"element": "C" 
			},
			{
				"x": -1.1856214146,
				"y": -1.1659213338,
				"z": 2.2110600959,
				"element": "C" 
			},
			{
				"x": -0.5471054557,
				"y": 0.031213652,
				"z": 2.3178835665,
				"element": "C" 
			},
			{
				"x": -0.3885787492,
				"y": 1.0330829699,
				"z": 3.4054325966,
				"element": "C" 
			},
			{
				"x": 0.0609562204,
				"y": 0.3213696277,
				"z": 1.1148610197,
				"element": "O" 
			},
			{
				"x": 1.8980266762,
				"y": -0.9428689873,
				"z": -1.1937986007,
				"element": "C" 
			},
			{
				"x": 2.3080362618,
				"y": -2.0235544191,
				"z": -1.9738414693,
				"element": "C" 
			},
			{
				"x": 3.6560608205,
				"y": -2.3532601325,
				"z": -2.0921849443,
				"element": "C" 
			},
			{
				"x": 4.6420983187,
				"y": -1.6114104511,
				"z": -1.4401024884,
				"element": "C" 
			},
			{
				"x": 4.2526018035,
				"y": -0.5374325345,
				"z": -0.6589995938,
				"element": "C" 
			},
			{
				"x": 2.8951516433,
				"y": -0.1942538745,
				"z": -0.5183552224,
				"element": "C" 
			},
			{
				"x": 2.6471487749,
				"y": 0.8759259538,
				"z": 0.2656665001,
				"element": "O" 
			},
			{
				"x": 4.0406598281,
				"y": -3.4938879834,
				"z": -2.91835323,
				"element": "N" 
			},
			{
				"x": 3.1437352118,
				"y": -4.132448185,
				"z": -3.4746220992,
				"element": "O" 
			},
			{
				"x": 5.2420176914,
				"y": -3.7544827097,
				"z": -3.0127254611,
				"element": "O" 
			},
			{
				"x": -3.3786757584,
				"y": 2.1009702118,
				"z": -3.2176964735,
				"element": "H" 
			},
			{
				"x": -2.6794579002,
				"y": 3.7304305975,
				"z": -3.2097939164,
				"element": "H" 
			},
			{
				"x": -3.1961138187,
				"y": 2.9727472439,
				"z": -1.6917709037,
				"element": "H" 
			},
			{
				"x": 0.1117879955,
				"y": 3.5428408534,
				"z": -3.4437225205,
				"element": "H" 
			},
			{
				"x": 1.8854580199,
				"y": 1.6452325835,
				"z": -2.575030159,
				"element": "H" 
			},
			{
				"x": -0.1023842125,
				"y": -1.4112538628,
				"z": -1.7027087151,
				"element": "H" 
			},
			{
				"x": -1.3242046877,
				"y": -2.5705003896,
				"z": 0.4460959421,
				"element": "H" 
			},
			{
				"x": -1.7568160145,
				"y": -1.6495289316,
				"z": 2.9906454292,
				"element": "H" 
			},
			{
				"x": 0.6659754511,
				"y": 1.1817289004,
				"z": 3.6654907313,
				"element": "H" 
			},
			{
				"x": -0.9147874726,
				"y": 0.6911942478,
				"z": 4.2993961978,
				"element": "H" 
			},
			{
				"x": -0.798959023,
				"y": 2.0078910367,
				"z": 3.1177473255,
				"element": "H" 
			},
			{
				"x": 1.5821446652,
				"y": -2.6234572331,
				"z": -2.5102086615,
				"element": "H" 
			},
			{
				"x": 5.6827485114,
				"y": -1.8886147463,
				"z": -1.5512519409,
				"element": "H" 
			},
			{
				"x": 4.9819672891,
				"y": 0.0643392006,
				"z": -0.1278826172,
				"element": "H" 
			},
			{
				"x": 1.6996548503,
				"y": 0.9673548034,
				"z": 0.4632390064,
				"element": "H" 
			}
		],
		 "valence_orbital": [ 
			{
				"type": "occ",
				"energy": -0.27843,
				"method": "rhf"
			},
			{
				"type": "occ",
				"energy": -0.27181,
				"method": "rhf"
			},
			{
				"type": "occ",
				"energy": -0.24318,
				"method": "rhf"
			},
			{
				"type": "occ",
				"energy": -0.23113,
				"method": "rhf"
			},
			{
				"type": "occ",
				"energy": -0.21709,
				"method": "rhf"
			},
			{
				"type": "unocc",
				"energy": -0.07541,
				"method": "rhf"
			},
			{
				"type": "unocc",
				"energy": -0.02523,
				"method": "rhf"
			},
			{
				"type": "unocc",
				"energy": 0.00021,
				"method": "rhf"
			},
			{
				"type": "unocc",
				"energy": 0.00569,
				"method": "rhf"
			},
			{
				"type": "unocc",
				"energy": 0.01871,
				"method": "rhf"
			}
		],
		"cosmo_sigma_profile": { 
			"-0.025": 0.0,
			"-0.024": 0.0,
			"-0.023": 0.0,
			"-0.022": 0.0,
			"-0.021": 0.0,
			"-0.02": 0.0,
			"-0.019": 0.0,
			"-0.018": 0.0,
			"-0.017": 0.0,
			"-0.016": 0.0,
			"-0.015": 0.0,
			"-0.014": 0.0,
			"-0.013": 0.0,
			"-0.012": 0.0,
			"-0.011": 0.0,
			"-0.01": 0.264339132342,
			"-0.009": 2.03304923094,
			"-0.008": 3.8767823346,
			"-0.007": 9.83900045876,
			"-0.006": 15.5245484978,
			"-0.005": 25.2401557414,
			"-0.004": 26.3873224583,
			"-0.003": 28.8677950271,
			"-0.002": 28.1144187726,
			"-0.001": 34.587696987,
			"0.0": 28.1792307886,
			"0.001": 27.231856654,
			"0.002": 20.8992133028,
			"0.003": 16.7984331813,
			"0.004": 16.1537188609,
			"0.005": 17.0654841859,
			"0.006": 10.3304115464,
			"0.007": 8.13765811652,
			"0.008": 12.3228028614,
			"0.009": 7.1796055551,
			"0.01": 5.41676850782,
			"0.011": 1.4383237045,
			"0.012": 0.0,
			"0.013": 0.0,
			"0.014": 0.0,
			"0.015": 0.0,
			"0.016": 0.0,
			"0.017": 0.0,
			"0.018": 0.0,
			"0.019": 0.0,
			"0.02": 0.0,
			"0.021": 0.0,
			"0.022": 0.0,
			"0.023": 0.0,
			"0.024": 0.0,
			"0.025": 0.0
		}
	}
}
