{
	 "smiles": "CC1=NC2(CCCC2)C(=O)N1", 
	 "Tm": 340.15, 
	 "num_atms": 23, 
	 "gaussian": { 
		 "optdone": 1, 
		 "sigma_profile": "yes", 
		 "theory": "DFT", 
		 "functional": "B3LYP", 
		 "basiset": "6-31G**", 
		 "properties": { 
			 "R2extent": 1929.5456, 
			 "electric_dipole_moment_norm": 2.85803378741, 
			 "electric_quadrupole_moment_norm": 15.4172597354, 
			 "total_energy": -496.834886276, 
			 "HOMO_LUMO_gap": 0.23111, 
			 "cosmo_polarized_energy": -12.63, 
			 "cosmo_cavitation_energy": 25.13, 
			 "cosmo_dispersion_energy": -18.51, 
			 "cosmo_repulsion_energy": 1.52, 
			 "cosmo_total_nonelectrostatic_energy": 8.13, 
			 "SMD_solvation_energy": 2.28 
		},
		"coords": [
			{
				"x": 2.7709272753,
				"y": -2.3811304421,
				"z": 1.4461594517,
				"element": "C" 
			},
			{
				"x": 1.4704346152,
				"y": -1.7064812643,
				"z": 1.1496741729,
				"element": "C" 
			},
			{
				"x": 1.3305981559,
				"y": -0.4752536842,
				"z": 0.8205346501,
				"element": "N" 
			},
			{
				"x": -0.1114721661,
				"y": -0.2407218843,
				"z": 0.6198870994,
				"element": "C" 
			},
			{
				"x": -0.387658641,
				"y": 0.2731951433,
				"z": -0.8122338357,
				"element": "C" 
			},
			{
				"x": -0.0609842968,
				"y": 1.7693553742,
				"z": -0.7179022544,
				"element": "C" 
			},
			{
				"x": -0.6536619526,
				"y": 2.1921911014,
				"z": 0.6434912139,
				"element": "C" 
			},
			{
				"x": -0.636282403,
				"y": 0.9107953762,
				"z": 1.5262955437,
				"element": "C" 
			},
			{
				"x": -0.7898388952,
				"y": -1.5873347815,
				"z": 0.9107560836,
				"element": "C" 
			},
			{
				"x": -1.9695750492,
				"y": -1.878809714,
				"z": 0.8843194145,
				"element": "O" 
			},
			{
				"x": 0.2691368101,
				"y": -2.4296972784,
				"z": 1.2207013261,
				"element": "N" 
			},
			{
				"x": 2.9441176702,
				"y": -3.2178686881,
				"z": 0.7597801269,
				"element": "H" 
			},
			{
				"x": 3.5793965044,
				"y": -1.6576959402,
				"z": 1.3383586594,
				"element": "H" 
			},
			{
				"x": 2.7813675692,
				"y": -2.781726105,
				"z": 2.466318603,
				"element": "H" 
			},
			{
				"x": 0.2017193877,
				"y": -0.2642382789,
				"z": -1.5607977288,
				"element": "H" 
			},
			{
				"x": -1.4510312428,
				"y": 0.1150283216,
				"z": -1.0300661408,
				"element": "H" 
			},
			{
				"x": -0.4633431162,
				"y": 2.3455437947,
				"z": -1.5571364829,
				"element": "H" 
			},
			{
				"x": 1.0261467992,
				"y": 1.8981260982,
				"z": -0.7125418289,
				"element": "H" 
			},
			{
				"x": -1.6837227969,
				"y": 2.5425233458,
				"z": 0.5166500403,
				"element": "H" 
			},
			{
				"x": -0.0918772959,
				"y": 3.0127682075,
				"z": 1.0987819023,
				"element": "H" 
			},
			{
				"x": -1.642694348,
				"y": 0.6566667466,
				"z": 1.8721384986,
				"element": "H" 
			},
			{
				"x": 0.0069742347,
				"y": 1.0106950711,
				"z": 2.4039199063,
				"element": "H" 
			},
			{
				"x": 0.1617231816,
				"y": -3.4024305197,
				"z": 1.4682115789,
				"element": "H" 
			}
		],
		 "valence_orbital": [ 
			{
				"type": "occ",
				"energy": -0.32957,
				"method": "rhf"
			},
			{
				"type": "occ",
				"energy": -0.31253,
				"method": "rhf"
			},
			{
				"type": "occ",
				"energy": -0.2973,
				"method": "rhf"
			},
			{
				"type": "occ",
				"energy": -0.24512,
				"method": "rhf"
			},
			{
				"type": "occ",
				"energy": -0.23893,
				"method": "rhf"
			},
			{
				"type": "unocc",
				"energy": -0.00782,
				"method": "rhf"
			},
			{
				"type": "unocc",
				"energy": 0.04508,
				"method": "rhf"
			},
			{
				"type": "unocc",
				"energy": 0.07743,
				"method": "rhf"
			},
			{
				"type": "unocc",
				"energy": 0.09947,
				"method": "rhf"
			},
			{
				"type": "unocc",
				"energy": 0.10537,
				"method": "rhf"
			}
		],
		"cosmo_sigma_profile": { 
			"-0.025": 0.0,
			"-0.024": 0.0,
			"-0.023": 0.0,
			"-0.022": 0.0,
			"-0.021": 0.0,
			"-0.02": 0.0,
			"-0.019": 0.0,
			"-0.018": 0.0,
			"-0.017": 0.0360923364377,
			"-0.016": 0.8685370661,
			"-0.015": 1.36308950126,
			"-0.014": 1.12227382093,
			"-0.013": 0.932670832627,
			"-0.012": 0.718972771578,
			"-0.011": 1.39972277163,
			"-0.01": 1.27636768481,
			"-0.009": 1.16320211438,
			"-0.008": 1.32726146803,
			"-0.007": 2.22809447682,
			"-0.006": 6.11525088765,
			"-0.005": 6.47747535665,
			"-0.004": 8.2834492685,
			"-0.003": 20.6726854793,
			"-0.002": 28.9272929135,
			"-0.001": 30.09067359,
			"0.0": 22.7785826995,
			"0.001": 14.5024848101,
			"0.002": 4.69565563651,
			"0.003": 4.03664100917,
			"0.004": 3.68466513037,
			"0.005": 3.53903525731,
			"0.006": 2.49233934085,
			"0.007": 3.01232570204,
			"0.008": 3.63193323572,
			"0.009": 1.95068053746,
			"0.01": 1.92454315881,
			"0.011": 2.93881679074,
			"0.012": 4.72397489928,
			"0.013": 5.58793519195,
			"0.014": 2.11695667482,
			"0.015": 0.529497614464,
			"0.016": 0.696799384653,
			"0.017": 0.421146426528,
			"0.018": 0.0347700384834,
			"0.019": 0.0,
			"0.02": 0.0,
			"0.021": 0.0,
			"0.022": 0.0,
			"0.023": 0.0,
			"0.024": 0.0,
			"0.025": 0.0
		}
	}
}
