{
	 "smiles": "CCN(CC)S(=O)(=O)C1=CN=C(Cl)C=C1", 
	 "Tm": 356.15, 
	 "num_atms": 28, 
	 "gaussian": { 
		 "optdone": 1, 
		 "sigma_profile": "yes", 
		 "theory": "DFT", 
		 "functional": "B3LYP", 
		 "basiset": "6-31G**", 
		 "properties": { 
			 "R2extent": 5208.2748, 
			 "electric_dipole_moment_norm": 4.86982164971, 
			 "electric_quadrupole_moment_norm": 10.9281319538, 
			 "total_energy": -1469.04724612, 
			 "HOMO_LUMO_gap": 0.19441, 
			 "cosmo_polarized_energy": -13.68, 
			 "cosmo_cavitation_energy": 34.38, 
			 "cosmo_dispersion_energy": -24.06, 
			 "cosmo_repulsion_energy": 1.85, 
			 "cosmo_total_nonelectrostatic_energy": 12.17, 
			 "SMD_solvation_energy": 3.32 
		},
		"coords": [
			{
				"x": 1.5763517544,
				"y": -2.0083574657,
				"z": -1.15127584,
				"element": "C" 
			},
			{
				"x": 0.1162733927,
				"y": -1.8574361189,
				"z": -0.7275820934,
				"element": "C" 
			},
			{
				"x": -0.3706719706,
				"y": -0.4765707826,
				"z": -0.9328454634,
				"element": "N" 
			},
			{
				"x": -0.5824024839,
				"y": -0.0504720066,
				"z": -2.3433875939,
				"element": "C" 
			},
			{
				"x": 0.2416129477,
				"y": 1.180919932,
				"z": -2.7094824405,
				"element": "C" 
			},
			{
				"x": -1.5684794608,
				"y": 0.021603906,
				"z": 0.1519015354,
				"element": "S" 
			},
			{
				"x": -2.0696410231,
				"y": 1.3028173788,
				"z": -0.3549267927,
				"element": "O" 
			},
			{
				"x": -2.4991182853,
				"y": -1.0659114941,
				"z": 0.4815326138,
				"element": "O" 
			},
			{
				"x": -0.6034966098,
				"y": 0.3369328527,
				"z": 1.6323752857,
				"element": "C" 
			},
			{
				"x": -0.8426904681,
				"y": -0.3961296681,
				"z": 2.7928149038,
				"element": "C" 
			},
			{
				"x": -0.1774748524,
				"y": -0.1715809137,
				"z": 3.9360056863,
				"element": "N" 
			},
			{
				"x": 0.724660327,
				"y": 0.7925363743,
				"z": 3.9351517102,
				"element": "C" 
			},
			{
				"x": 1.5869141181,
				"y": 1.0667648934,
				"z": 5.4401734116,
				"element": "Cl" 
			},
			{
				"x": 1.0375508142,
				"y": 1.6000550882,
				"z": 2.8325199071,
				"element": "C" 
			},
			{
				"x": 0.3493584347,
				"y": 1.3607448757,
				"z": 1.6516223387,
				"element": "C" 
			},
			{
				"x": 2.2170123616,
				"y": -1.3288777742,
				"z": -0.5819115484,
				"element": "H" 
			},
			{
				"x": 1.9104173912,
				"y": -3.0349385526,
				"z": -0.9702557322,
				"element": "H" 
			},
			{
				"x": 1.7176076545,
				"y": -1.7982004771,
				"z": -2.2158794682,
				"element": "H" 
			},
			{
				"x": -0.5238965614,
				"y": -2.5731156825,
				"z": -1.2618500202,
				"element": "H" 
			},
			{
				"x": 0.0249636404,
				"y": -2.0932133526,
				"z": 0.3361033671,
				"element": "H" 
			},
			{
				"x": -1.6429716304,
				"y": 0.1415933421,
				"z": -2.5289818341,
				"element": "H" 
			},
			{
				"x": -0.3016659859,
				"y": -0.901460445,
				"z": -2.971728975,
				"element": "H" 
			},
			{
				"x": 1.3083485086,
				"y": 1.0065563553,
				"z": -2.5384430044,
				"element": "H" 
			},
			{
				"x": -0.0746649733,
				"y": 2.0396849683,
				"z": -2.1121511325,
				"element": "H" 
			},
			{
				"x": 0.0982046512,
				"y": 1.4314737032,
				"z": -3.7662389048,
				"element": "H" 
			},
			{
				"x": -1.5915931072,
				"y": -1.182381971,
				"z": 2.8010874363,
				"element": "H" 
			},
			{
				"x": 1.7866409484,
				"y": 2.3785423883,
				"z": 2.9104686172,
				"element": "H" 
			},
			{
				"x": 0.5427504675,
				"y": 1.9513206466,
				"z": 0.7624840306,
				"element": "H" 
			}
		],
		 "valence_orbital": [ 
			{
				"type": "occ",
				"energy": -0.31596,
				"method": "rhf"
			},
			{
				"type": "occ",
				"energy": -0.30777,
				"method": "rhf"
			},
			{
				"type": "occ",
				"energy": -0.28883,
				"method": "rhf"
			},
			{
				"type": "occ",
				"energy": -0.28162,
				"method": "rhf"
			},
			{
				"type": "occ",
				"energy": -0.25702,
				"method": "rhf"
			},
			{
				"type": "unocc",
				"energy": -0.06261,
				"method": "rhf"
			},
			{
				"type": "unocc",
				"energy": -0.05107,
				"method": "rhf"
			},
			{
				"type": "unocc",
				"energy": 0.02104,
				"method": "rhf"
			},
			{
				"type": "unocc",
				"energy": 0.05256,
				"method": "rhf"
			},
			{
				"type": "unocc",
				"energy": 0.06372,
				"method": "rhf"
			}
		],
		"cosmo_sigma_profile": { 
			"-0.025": 0.0,
			"-0.024": 0.0,
			"-0.023": 0.0,
			"-0.022": 0.0,
			"-0.021": 0.0,
			"-0.02": 0.0,
			"-0.019": 0.0,
			"-0.018": 0.0,
			"-0.017": 0.0,
			"-0.016": 0.0,
			"-0.015": 0.0,
			"-0.014": 0.0,
			"-0.013": 0.0,
			"-0.012": 0.0,
			"-0.011": 0.0,
			"-0.01": 0.165219372216,
			"-0.009": 3.32612325462,
			"-0.008": 4.93741810581,
			"-0.007": 4.32729115168,
			"-0.006": 7.39383367248,
			"-0.005": 13.7814845249,
			"-0.004": 22.5255406007,
			"-0.003": 33.9988071508,
			"-0.002": 34.5738929794,
			"-0.001": 28.79105963,
			"0.0": 24.7225777867,
			"0.001": 17.1047274494,
			"0.002": 11.3240495906,
			"0.003": 12.8674919902,
			"0.004": 11.1369546978,
			"0.005": 5.59049099436,
			"0.006": 4.27631644794,
			"0.007": 4.90312944542,
			"0.008": 3.96305122989,
			"0.009": 4.86961193525,
			"0.01": 8.5159038883,
			"0.011": 8.11322693884,
			"0.012": 2.76513483812,
			"0.013": 0.617718155675,
			"0.014": 0.145458573942,
			"0.015": 0.0,
			"0.016": 0.0,
			"0.017": 0.0,
			"0.018": 0.0,
			"0.019": 0.0,
			"0.02": 0.0,
			"0.021": 0.0,
			"0.022": 0.0,
			"0.023": 0.0,
			"0.024": 0.0,
			"0.025": 0.0
		}
	}
}
