{
	 "smiles": "ClCC1=NC=C(O1)C1=CC=C(Cl)C=C1", 
	 "Tm": 328.15, 
	 "num_atms": 21, 
	 "gaussian": { 
		 "optdone": 1, 
		 "sigma_profile": "yes", 
		 "theory": "DFT", 
		 "functional": "B3LYP", 
		 "basiset": "6-31G**", 
		 "properties": { 
			 "R2extent": 5642.1954, 
			 "electric_dipole_moment_norm": 1.81771386362, 
			 "electric_quadrupole_moment_norm": 13.2872452657, 
			 "total_energy": -1435.63756407, 
			 "HOMO_LUMO_gap": 0.16686, 
			 "cosmo_polarized_energy": -9.43, 
			 "cosmo_cavitation_energy": 30.02, 
			 "cosmo_dispersion_energy": -22.13, 
			 "cosmo_repulsion_energy": 1.75, 
			 "cosmo_total_nonelectrostatic_energy": 9.64, 
			 "SMD_solvation_energy": 3.03 
		},
		"coords": [
			{
				"x": -4.9570039827,
				"y": -0.5395061182,
				"z": 0.5034400258,
				"element": "Cl" 
			},
			{
				"x": -3.979561436,
				"y": -0.2870380084,
				"z": -1.023279064,
				"element": "C" 
			},
			{
				"x": -2.6464146847,
				"y": 0.2908625223,
				"z": -0.7504410989,
				"element": "C" 
			},
			{
				"x": -2.2484791641,
				"y": 1.5106145934,
				"z": -0.9625007535,
				"element": "N" 
			},
			{
				"x": -0.9350294134,
				"y": 1.5263184778,
				"z": -0.5359392791,
				"element": "C" 
			},
			{
				"x": -0.5832492392,
				"y": 0.2879807704,
				"z": -0.0678205175,
				"element": "C" 
			},
			{
				"x": -1.6910885957,
				"y": -0.5137547319,
				"z": -0.2100500902,
				"element": "O" 
			},
			{
				"x": 0.6229312533,
				"y": -0.2967206454,
				"z": 0.497555831,
				"element": "C" 
			},
			{
				"x": 1.7987069857,
				"y": 0.4671498249,
				"z": 0.6063832233,
				"element": "C" 
			},
			{
				"x": 2.9572683359,
				"y": -0.0788694199,
				"z": 1.1476373399,
				"element": "C" 
			},
			{
				"x": 2.9483741852,
				"y": -1.4043773605,
				"z": 1.5860669951,
				"element": "C" 
			},
			{
				"x": 4.4085860537,
				"y": -2.0983814313,
				"z": 2.2681507224,
				"element": "Cl" 
			},
			{
				"x": 1.7955761898,
				"y": -2.1831883279,
				"z": 1.4886954125,
				"element": "C" 
			},
			{
				"x": 0.6395804055,
				"y": -1.6282535423,
				"z": 0.9467369352,
				"element": "C" 
			},
			{
				"x": -4.5428117584,
				"y": 0.4001707267,
				"z": -1.6510591122,
				"element": "H" 
			},
			{
				"x": -3.9075450725,
				"y": -1.2675568343,
				"z": -1.4939733338,
				"element": "H" 
			},
			{
				"x": -0.3358038805,
				"y": 2.4229930324,
				"z": -0.5914695448,
				"element": "H" 
			},
			{
				"x": 1.8119615659,
				"y": 1.4969976922,
				"z": 0.2635429342,
				"element": "H" 
			},
			{
				"x": 3.8610765568,
				"y": 0.5144370214,
				"z": 1.228874852,
				"element": "H" 
			},
			{
				"x": 1.8031260364,
				"y": -3.2107473039,
				"z": 1.8346468147,
				"element": "H" 
			},
			{
				"x": -0.2598003411,
				"y": -2.2293309376,
				"z": 0.8727017078,
				"element": "H" 
			}
		],
		 "valence_orbital": [ 
			{
				"type": "occ",
				"energy": -0.30557,
				"method": "rhf"
			},
			{
				"type": "occ",
				"energy": -0.30142,
				"method": "rhf"
			},
			{
				"type": "occ",
				"energy": -0.28805,
				"method": "rhf"
			},
			{
				"type": "occ",
				"energy": -0.27635,
				"method": "rhf"
			},
			{
				"type": "occ",
				"energy": -0.22846,
				"method": "rhf"
			},
			{
				"type": "unocc",
				"energy": -0.0616,
				"method": "rhf"
			},
			{
				"type": "unocc",
				"energy": -0.02638,
				"method": "rhf"
			},
			{
				"type": "unocc",
				"energy": -0.01702,
				"method": "rhf"
			},
			{
				"type": "unocc",
				"energy": 0.02216,
				"method": "rhf"
			},
			{
				"type": "unocc",
				"energy": 0.04274,
				"method": "rhf"
			}
		],
		"cosmo_sigma_profile": { 
			"-0.025": 0.0,
			"-0.024": 0.0,
			"-0.023": 0.0,
			"-0.022": 0.0,
			"-0.021": 0.0,
			"-0.02": 0.0,
			"-0.019": 0.0,
			"-0.018": 0.0,
			"-0.017": 0.0,
			"-0.016": 0.0,
			"-0.015": 0.0,
			"-0.014": 0.0,
			"-0.013": 0.0,
			"-0.012": 0.0,
			"-0.011": 0.0,
			"-0.01": 0.545684157893,
			"-0.009": 6.35130258479,
			"-0.008": 8.10152959566,
			"-0.007": 12.0483146405,
			"-0.006": 13.1343801599,
			"-0.005": 10.4048902452,
			"-0.004": 9.20107856792,
			"-0.003": 9.89185052452,
			"-0.002": 11.2228475895,
			"-0.001": 17.4945035858,
			"0.0": 21.4409933971,
			"0.001": 23.9472134412,
			"0.002": 27.7873855572,
			"0.003": 24.6138834288,
			"0.004": 19.0499112434,
			"0.005": 13.3704329393,
			"0.006": 9.05230008617,
			"0.007": 0.614734442179,
			"0.008": 1.5927520226,
			"0.009": 1.21186791059,
			"0.01": 1.06352613336,
			"0.011": 0.834293192562,
			"0.012": 0.527498304435,
			"0.013": 1.42832598965,
			"0.014": 0.858493133611,
			"0.015": 0.542169651538,
			"0.016": 0.0918238913817,
			"0.017": 0.0,
			"0.018": 0.0,
			"0.019": 0.0,
			"0.02": 0.0,
			"0.021": 0.0,
			"0.022": 0.0,
			"0.023": 0.0,
			"0.024": 0.0,
			"0.025": 0.0
		}
	}
}
