{
	 "smiles": "[O-][N+](=O)C1=CC(=CC=C1)N1C(=O)C=CC1=O", 
	 "Tm": 403.15, 
	 "num_atms": 22, 
	 "gaussian": { 
		 "optdone": 1, 
		 "sigma_profile": "yes", 
		 "theory": "DFT", 
		 "functional": "B3LYP", 
		 "basiset": "6-31G**", 
		 "properties": { 
			 "R2extent": 4199.7516, 
			 "electric_dipole_moment_norm": 5.57700779092, 
			 "electric_quadrupole_moment_norm": 21.8645677106, 
			 "total_energy": -794.972988583, 
			 "HOMO_LUMO_gap": 0.14703, 
			 "cosmo_polarized_energy": -14.24, 
			 "cosmo_cavitation_energy": 28.49, 
			 "cosmo_dispersion_energy": -20.55, 
			 "cosmo_repulsion_energy": 1.57, 
			 "cosmo_total_nonelectrostatic_energy": 9.51, 
			 "SMD_solvation_energy": 8.78 
		},
		"coords": [
			{
				"x": -3.106151101,
				"y": -1.8482194588,
				"z": -1.7578084851,
				"element": "O" 
			},
			{
				"x": -3.1644705653,
				"y": -0.8809864808,
				"z": -1.0009798106,
				"element": "N" 
			},
			{
				"x": -4.206387409,
				"y": -0.3634126925,
				"z": -0.6008013278,
				"element": "O" 
			},
			{
				"x": -1.8927255967,
				"y": -0.2980326565,
				"z": -0.5338380283,
				"element": "C" 
			},
			{
				"x": -0.703832948,
				"y": -0.8580069077,
				"z": -0.9903051616,
				"element": "C" 
			},
			{
				"x": 0.5008305803,
				"y": -0.3028122126,
				"z": -0.5489283176,
				"element": "C" 
			},
			{
				"x": 0.4920457641,
				"y": 0.7838065372,
				"z": 0.3380687485,
				"element": "C" 
			},
			{
				"x": -0.7204201335,
				"y": 1.3078135922,
				"z": 0.7862637058,
				"element": "C" 
			},
			{
				"x": -1.9318174167,
				"y": 0.7762648665,
				"z": 0.350954833,
				"element": "C" 
			},
			{
				"x": 1.7362290948,
				"y": -0.844637321,
				"z": -1.0004831082,
				"element": "N" 
			},
			{
				"x": 1.9730698593,
				"y": -1.3691488254,
				"z": -2.2945211907,
				"element": "C" 
			},
			{
				"x": 1.1733156183,
				"y": -1.4253361908,
				"z": -3.2016557533,
				"element": "O" 
			},
			{
				"x": 3.3986138027,
				"y": -1.8291606703,
				"z": -2.3035921284,
				"element": "C" 
			},
			{
				"x": 3.9397423919,
				"y": -1.5934614985,
				"z": -1.1061140675,
				"element": "C" 
			},
			{
				"x": 2.913229187,
				"y": -0.9531416149,
				"z": -0.2229690923,
				"element": "C" 
			},
			{
				"x": 3.0498847045,
				"y": -0.5937619255,
				"z": 0.9260405709,
				"element": "O" 
			},
			{
				"x": -0.7335899302,
				"y": -1.6887275067,
				"z": -1.6799117376,
				"element": "H" 
			},
			{
				"x": 1.4278223377,
				"y": 1.2025231255,
				"z": 0.683851704,
				"element": "H" 
			},
			{
				"x": -0.7162503143,
				"y": 2.1447491579,
				"z": 1.4768914541,
				"element": "H" 
			},
			{
				"x": -2.8865736951,
				"y": 1.1689323771,
				"z": 0.675820843,
				"element": "H" 
			},
			{
				"x": 3.8410417197,
				"y": -2.2728063287,
				"z": -3.1855748747,
				"element": "H" 
			},
			{
				"x": 4.9407940494,
				"y": -1.7964373659,
				"z": -0.7495087754,
				"element": "H" 
			}
		],
		 "valence_orbital": [ 
			{
				"type": "occ",
				"energy": -0.30765,
				"method": "rhf"
			},
			{
				"type": "occ",
				"energy": -0.29234,
				"method": "rhf"
			},
			{
				"type": "occ",
				"energy": -0.28896,
				"method": "rhf"
			},
			{
				"type": "occ",
				"energy": -0.28406,
				"method": "rhf"
			},
			{
				"type": "occ",
				"energy": -0.26164,
				"method": "rhf"
			},
			{
				"type": "unocc",
				"energy": -0.11461,
				"method": "rhf"
			},
			{
				"type": "unocc",
				"energy": -0.08992,
				"method": "rhf"
			},
			{
				"type": "unocc",
				"energy": -0.03676,
				"method": "rhf"
			},
			{
				"type": "unocc",
				"energy": -0.0047,
				"method": "rhf"
			},
			{
				"type": "unocc",
				"energy": 0.04518,
				"method": "rhf"
			}
		],
		"cosmo_sigma_profile": { 
			"-0.025": 0.0,
			"-0.024": 0.0,
			"-0.023": 0.0,
			"-0.022": 0.0,
			"-0.021": 0.0,
			"-0.02": 0.0,
			"-0.019": 0.0,
			"-0.018": 0.0,
			"-0.017": 0.0,
			"-0.016": 0.0,
			"-0.015": 0.0,
			"-0.014": 0.0,
			"-0.013": 0.0,
			"-0.012": 0.0,
			"-0.011": 0.215294351948,
			"-0.01": 3.44872878911,
			"-0.009": 3.15208367549,
			"-0.008": 5.92043072236,
			"-0.007": 12.1575131203,
			"-0.006": 17.0333680278,
			"-0.005": 14.8290735341,
			"-0.004": 15.7805813334,
			"-0.003": 15.2873495761,
			"-0.002": 14.7494259273,
			"-0.001": 16.180337689,
			"0.0": 19.3107653552,
			"0.001": 13.1697930658,
			"0.002": 9.2172548705,
			"0.003": 7.2989306907,
			"0.004": 6.54246497868,
			"0.005": 5.11902033679,
			"0.006": 6.76500115086,
			"0.007": 13.3597439285,
			"0.008": 9.54526097168,
			"0.009": 9.25981836162,
			"0.01": 9.54931358583,
			"0.011": 2.89025722273,
			"0.012": 0.0653610611519,
			"0.013": 0.0,
			"0.014": 0.0,
			"0.015": 0.0,
			"0.016": 0.0,
			"0.017": 0.0,
			"0.018": 0.0,
			"0.019": 0.0,
			"0.02": 0.0,
			"0.021": 0.0,
			"0.022": 0.0,
			"0.023": 0.0,
			"0.024": 0.0,
			"0.025": 0.0
		}
	}
}
