{
	 "smiles": "CC1=CC(=CC(C)=C1O)C(O)=O", 
	 "Tm": 496.65, 
	 "num_atms": 22, 
	 "gaussian": { 
		 "optdone": 1, 
		 "sigma_profile": "yes", 
		 "theory": "DFT", 
		 "functional": "B3LYP", 
		 "basiset": "6-31G**", 
		 "properties": { 
			 "R2extent": 2727.9859, 
			 "electric_dipole_moment_norm": 6.25463596623, 
			 "electric_quadrupole_moment_norm": 23.7228795164, 
			 "total_energy": -574.677688976, 
			 "HOMO_LUMO_gap": 0.19648, 
			 "cosmo_polarized_energy": -18.05, 
			 "cosmo_cavitation_energy": 25.78, 
			 "cosmo_dispersion_energy": -19.0, 
			 "cosmo_repulsion_energy": 1.51, 
			 "cosmo_total_nonelectrostatic_energy": 8.3, 
			 "SMD_solvation_energy": 5.85 
		},
		"coords": [
			{
				"x": 2.4322222706,
				"y": -0.2723455585,
				"z": 0.8551791122,
				"element": "C" 
			},
			{
				"x": 1.2596170024,
				"y": 0.2277631392,
				"z": 0.0517142581,
				"element": "C" 
			},
			{
				"x": 0.6340369811,
				"y": 1.4389811908,
				"z": 0.3273582243,
				"element": "C" 
			},
			{
				"x": -0.4656103961,
				"y": 1.8869877925,
				"z": -0.4185488395,
				"element": "C" 
			},
			{
				"x": -0.9206145264,
				"y": 1.1057424917,
				"z": -1.4876915954,
				"element": "C" 
			},
			{
				"x": -0.3172261194,
				"y": -0.1116846984,
				"z": -1.8081878108,
				"element": "C" 
			},
			{
				"x": -0.7953080514,
				"y": -0.9507410851,
				"z": -2.9698593928,
				"element": "C" 
			},
			{
				"x": 0.7674303405,
				"y": -0.5400406909,
				"z": -1.0217299983,
				"element": "C" 
			},
			{
				"x": 1.4091060572,
				"y": -1.7207322324,
				"z": -1.2620829796,
				"element": "O" 
			},
			{
				"x": -1.0684553868,
				"y": 3.2025511985,
				"z": -0.0496786028,
				"element": "C" 
			},
			{
				"x": -2.3327140607,
				"y": 3.4463379611,
				"z": -0.5005442937,
				"element": "O" 
			},
			{
				"x": -0.5002502405,
				"y": 4.0381421443,
				"z": 0.6153435936,
				"element": "O" 
			},
			{
				"x": 2.2100785141,
				"y": -1.2382750332,
				"z": 1.3219027713,
				"element": "H" 
			},
			{
				"x": 2.6960186047,
				"y": 0.439234912,
				"z": 1.6410018986,
				"element": "H" 
			},
			{
				"x": 3.3102362498,
				"y": -0.4281498451,
				"z": 0.2189903528,
				"element": "H" 
			},
			{
				"x": 0.9909026641,
				"y": 2.0651706998,
				"z": 1.1387387321,
				"element": "H" 
			},
			{
				"x": -1.7317642994,
				"y": 1.4530543865,
				"z": -2.1245583919,
				"element": "H" 
			},
			{
				"x": -0.0076288706,
				"y": -1.1047649652,
				"z": -3.7199274138,
				"element": "H" 
			},
			{
				"x": -1.145331947,
				"y": -1.9412568232,
				"z": -2.6479593337,
				"element": "H" 
			},
			{
				"x": -1.6315990579,
				"y": -0.468907104,
				"z": -3.4815597746,
				"element": "H" 
			},
			{
				"x": 1.0012208514,
				"y": -2.1688220696,
				"z": -2.013692493,
				"element": "H" 
			},
			{
				"x": -2.7181665798,
				"y": 2.6324541889,
				"z": -0.8524080233,
				"element": "H" 
			}
		],
		 "valence_orbital": [ 
			{
				"type": "occ",
				"energy": -0.3444,
				"method": "rhf"
			},
			{
				"type": "occ",
				"energy": -0.30578,
				"method": "rhf"
			},
			{
				"type": "occ",
				"energy": -0.26515,
				"method": "rhf"
			},
			{
				"type": "occ",
				"energy": -0.25499,
				"method": "rhf"
			},
			{
				"type": "occ",
				"energy": -0.2329,
				"method": "rhf"
			},
			{
				"type": "unocc",
				"energy": -0.03642,
				"method": "rhf"
			},
			{
				"type": "unocc",
				"energy": -0.01301,
				"method": "rhf"
			},
			{
				"type": "unocc",
				"energy": 0.04892,
				"method": "rhf"
			},
			{
				"type": "unocc",
				"energy": 0.0561,
				"method": "rhf"
			},
			{
				"type": "unocc",
				"energy": 0.06718,
				"method": "rhf"
			}
		],
		"cosmo_sigma_profile": { 
			"-0.025": 0.0,
			"-0.024": 0.0,
			"-0.023": 0.0,
			"-0.022": 0.0,
			"-0.021": 0.0,
			"-0.02": 0.0,
			"-0.019": 0.0,
			"-0.018": 0.358004599262,
			"-0.017": 1.06226643734,
			"-0.016": 2.18941512908,
			"-0.015": 1.12658792189,
			"-0.014": 2.00370532668,
			"-0.013": 2.11982053196,
			"-0.012": 2.51508235916,
			"-0.011": 1.85155239992,
			"-0.01": 2.35654946498,
			"-0.009": 2.51874741129,
			"-0.008": 2.34423411652,
			"-0.007": 4.2303643331,
			"-0.006": 6.80705648935,
			"-0.005": 9.57959837963,
			"-0.004": 11.6818713185,
			"-0.003": 13.0658585711,
			"-0.002": 14.6279260667,
			"-0.001": 17.441033658,
			"0.0": 16.9082049206,
			"0.001": 12.7051940312,
			"0.002": 12.2415792464,
			"0.003": 12.5465471443,
			"0.004": 10.8932842897,
			"0.005": 3.98545775261,
			"0.006": 4.61127561909,
			"0.007": 3.6369893893,
			"0.008": 3.99272724757,
			"0.009": 4.96383186318,
			"0.01": 4.83323059269,
			"0.011": 5.13422726061,
			"0.012": 5.99206416389,
			"0.013": 3.21232418927,
			"0.014": 0.515565186045,
			"0.015": 0.0,
			"0.016": 0.0,
			"0.017": 0.0,
			"0.018": 0.0,
			"0.019": 0.0,
			"0.02": 0.0,
			"0.021": 0.0,
			"0.022": 0.0,
			"0.023": 0.0,
			"0.024": 0.0,
			"0.025": 0.0
		}
	}
}
