{
	 "smiles": "CC(C)(C)C(=O)CC(=O)C(F)(F)C(F)(F)C(F)(F)F", 
	 "Tm": 311.15, 
	 "num_atms": 30, 
	 "gaussian": { 
		 "optdone": 1, 
		 "sigma_profile": "yes", 
		 "theory": "DFT", 
		 "functional": "B3LYP", 
		 "basiset": "6-31G**", 
		 "properties": { 
			 "R2extent": 8470.5673, 
			 "electric_dipole_moment_norm": 4.94081994207, 
			 "electric_quadrupole_moment_norm": 7.90652771765, 
			 "total_energy": -1236.99869254, 
			 "HOMO_LUMO_gap": 0.20154, 
			 "cosmo_polarized_energy": -9.84, 
			 "cosmo_cavitation_energy": 35.6, 
			 "cosmo_dispersion_energy": -23.21, 
			 "cosmo_repulsion_energy": 1.67, 
			 "cosmo_total_nonelectrostatic_energy": 14.06, 
			 "SMD_solvation_energy": 9.42 
		},
		"coords": [
			{
				"x": -0.7869508201,
				"y": 1.6497060989,
				"z": 0.6783900938,
				"element": "C" 
			},
			{
				"x": 0.0745473054,
				"y": 1.6170503509,
				"z": -0.6096290143,
				"element": "C" 
			},
			{
				"x": -0.7499967253,
				"y": 2.1487598823,
				"z": -1.7942718887,
				"element": "C" 
			},
			{
				"x": 1.3382255454,
				"y": 2.4797993387,
				"z": -0.412489493,
				"element": "C" 
			},
			{
				"x": 0.4388544732,
				"y": 0.1455755813,
				"z": -0.876833359,
				"element": "C" 
			},
			{
				"x": -0.1490790583,
				"y": -0.5293429062,
				"z": -1.6994590292,
				"element": "O" 
			},
			{
				"x": 1.5608290298,
				"y": -0.4905481693,
				"z": -0.0356436339,
				"element": "C" 
			},
			{
				"x": 1.5814842916,
				"y": -1.9952312059,
				"z": -0.2275309483,
				"element": "C" 
			},
			{
				"x": 1.0818378204,
				"y": -2.7759374228,
				"z": 0.5451738598,
				"element": "O" 
			},
			{
				"x": 2.3833711821,
				"y": -2.5111927153,
				"z": -1.4521222961,
				"element": "C" 
			},
			{
				"x": 2.4874907187,
				"y": -1.5416806816,
				"z": -2.3990051642,
				"element": "F" 
			},
			{
				"x": 3.6431351167,
				"y": -2.7667773882,
				"z": -0.9853449943,
				"element": "F" 
			},
			{
				"x": 1.8944582509,
				"y": -3.8087398217,
				"z": -2.1392169855,
				"element": "C" 
			},
			{
				"x": 2.7821304906,
				"y": -4.0936399936,
				"z": -3.1263423124,
				"element": "F" 
			},
			{
				"x": 1.9068582562,
				"y": -4.8158944329,
				"z": -1.2407981014,
				"element": "F" 
			},
			{
				"x": 0.493154291,
				"y": -3.7562183692,
				"z": -2.7909605802,
				"element": "C" 
			},
			{
				"x": 0.4508910414,
				"y": -2.8101656665,
				"z": -3.7353832679,
				"element": "F" 
			},
			{
				"x": -0.4478120636,
				"y": -3.5078793905,
				"z": -1.8731299531,
				"element": "F" 
			},
			{
				"x": 0.2370400416,
				"y": -4.9439683248,
				"z": -3.3583289923,
				"element": "F" 
			},
			{
				"x": -0.2375388302,
				"y": 1.2905371462,
				"z": 1.5546188697,
				"element": "H" 
			},
			{
				"x": -1.6884710525,
				"y": 1.0399978257,
				"z": 0.5653080383,
				"element": "H" 
			},
			{
				"x": -1.0971899527,
				"y": 2.6797081314,
				"z": 0.8826565781,
				"element": "H" 
			},
			{
				"x": -1.0650485091,
				"y": 3.1781735322,
				"z": -1.5959457057,
				"element": "H" 
			},
			{
				"x": -0.163920638,
				"y": 2.1414315852,
				"z": -2.7182411205,
				"element": "H" 
			},
			{
				"x": -1.6374897806,
				"y": 1.5355315357,
				"z": -1.9623278089,
				"element": "H" 
			},
			{
				"x": 1.9200215966,
				"y": 2.1740217948,
				"z": 0.4626253086,
				"element": "H" 
			},
			{
				"x": 1.048250638,
				"y": 3.5244116069,
				"z": -0.2610276545,
				"element": "H" 
			},
			{
				"x": 1.9919953365,
				"y": 2.4426146322,
				"z": -1.290675858,
				"element": "H" 
			},
			{
				"x": 2.51757003,
				"y": -0.0474359396,
				"z": -0.333924729,
				"element": "H" 
			},
			{
				"x": 1.4079519742,
				"y": -0.2876666146,
				"z": 1.0278601423,
				"element": "H" 
			}
		],
		 "valence_orbital": [ 
			{
				"type": "occ",
				"energy": -0.35508,
				"method": "rhf"
			},
			{
				"type": "occ",
				"energy": -0.34828,
				"method": "rhf"
			},
			{
				"type": "occ",
				"energy": -0.34575,
				"method": "rhf"
			},
			{
				"type": "occ",
				"energy": -0.28392,
				"method": "rhf"
			},
			{
				"type": "occ",
				"energy": -0.26503,
				"method": "rhf"
			},
			{
				"type": "unocc",
				"energy": -0.06349,
				"method": "rhf"
			},
			{
				"type": "unocc",
				"energy": -0.03584,
				"method": "rhf"
			},
			{
				"type": "unocc",
				"energy": 0.05306,
				"method": "rhf"
			},
			{
				"type": "unocc",
				"energy": 0.06189,
				"method": "rhf"
			},
			{
				"type": "unocc",
				"energy": 0.07409,
				"method": "rhf"
			}
		],
		"cosmo_sigma_profile": { 
			"-0.025": 0.0,
			"-0.024": 0.0,
			"-0.023": 0.0,
			"-0.022": 0.0,
			"-0.021": 0.0,
			"-0.02": 0.0,
			"-0.019": 0.0,
			"-0.018": 0.0,
			"-0.017": 0.0,
			"-0.016": 0.0,
			"-0.015": 0.0,
			"-0.014": 0.0,
			"-0.013": 0.0,
			"-0.012": 0.0,
			"-0.011": 0.0,
			"-0.01": 0.0,
			"-0.009": 1.26221328007,
			"-0.008": 5.37874105405,
			"-0.007": 6.55570104843,
			"-0.006": 7.98880374879,
			"-0.005": 7.99313855886,
			"-0.004": 16.4470201475,
			"-0.003": 20.4618255399,
			"-0.002": 22.33693284,
			"-0.001": 23.8144987582,
			"0.0": 36.8095581996,
			"0.001": 53.6334139958,
			"0.002": 35.5845955303,
			"0.003": 7.58598762579,
			"0.004": 5.76558364106,
			"0.005": 4.82495299855,
			"0.006": 5.40759300381,
			"0.007": 4.60646999488,
			"0.008": 5.90962348102,
			"0.009": 4.99585373064,
			"0.01": 2.33571861489,
			"0.011": 0.814087304751,
			"0.012": 0.0261608581464,
			"0.013": 0.0,
			"0.014": 0.0,
			"0.015": 0.0,
			"0.016": 0.0,
			"0.017": 0.0,
			"0.018": 0.0,
			"0.019": 0.0,
			"0.02": 0.0,
			"0.021": 0.0,
			"0.022": 0.0,
			"0.023": 0.0,
			"0.024": 0.0,
			"0.025": 0.0
		}
	}
}
