{
	 "smiles": "C1CC2CCCCC2C1", 
	 "Tm": 220.15, 
	 "num_atms": 25, 
	 "gaussian": { 
		 "optdone": 1, 
		 "sigma_profile": "yes", 
		 "theory": "DFT", 
		 "functional": "B3LYP", 
		 "basiset": "6-31G**", 
		 "properties": { 
			 "R2extent": 1759.5957, 
			 "electric_dipole_moment_norm": 0.0972196482199, 
			 "electric_quadrupole_moment_norm": 0.344742846191, 
			 "total_energy": -352.614188698, 
			 "HOMO_LUMO_gap": 0.3509, 
			 "cosmo_polarized_energy": -0.53, 
			 "cosmo_cavitation_energy": 23.02, 
			 "cosmo_dispersion_energy": -17.89, 
			 "cosmo_repulsion_energy": 1.45, 
			 "cosmo_total_nonelectrostatic_energy": 6.58, 
			 "SMD_solvation_energy": 2.62 
		},
		"coords": [
			{
				"x": -1.0840822078,
				"y": -0.9663430763,
				"z": -0.5536417659,
				"element": "C" 
			},
			{
				"x": -0.0755271268,
				"y": 0.1947348505,
				"z": -0.5614589669,
				"element": "C" 
			},
			{
				"x": 1.0851232825,
				"y": -0.2365178884,
				"z": 0.3807323121,
				"element": "C" 
			},
			{
				"x": 2.3379052661,
				"y": -0.7399105225,
				"z": -0.3652426697,
				"element": "C" 
			},
			{
				"x": 2.1274018482,
				"y": -2.0826945289,
				"z": -1.0853602924,
				"element": "C" 
			},
			{
				"x": 1.5242984673,
				"y": -3.1725779808,
				"z": -0.1510993248,
				"element": "C" 
			},
			{
				"x": 1.280213807,
				"y": -2.6552789198,
				"z": 1.2766604261,
				"element": "C" 
			},
			{
				"x": 0.4760221067,
				"y": -1.3398573961,
				"z": 1.3271373066,
				"element": "C" 
			},
			{
				"x": -1.0086874127,
				"y": -1.4949573682,
				"z": 0.8886459538,
				"element": "C" 
			},
			{
				"x": -0.7799095576,
				"y": -1.74369687,
				"z": -1.2636373297,
				"element": "H" 
			},
			{
				"x": -2.0942467302,
				"y": -0.65255784,
				"z": -0.8380723118,
				"element": "H" 
			},
			{
				"x": 0.2749361449,
				"y": 0.4514683324,
				"z": -1.5675185597,
				"element": "H" 
			},
			{
				"x": -0.5578841666,
				"y": 1.0932251074,
				"z": -0.1570363271,
				"element": "H" 
			},
			{
				"x": 1.3946565292,
				"y": 0.6277877043,
				"z": 0.979431188,
				"element": "H" 
			},
			{
				"x": 2.6651410399,
				"y": 0.0207067156,
				"z": -1.0850675948,
				"element": "H" 
			},
			{
				"x": 3.1594420517,
				"y": -0.8437206706,
				"z": 0.3555004044,
				"element": "H" 
			},
			{
				"x": 1.4703777377,
				"y": -1.9282455772,
				"z": -1.949132092,
				"element": "H" 
			},
			{
				"x": 3.0845840657,
				"y": -2.4207017623,
				"z": -1.4983508227,
				"element": "H" 
			},
			{
				"x": 0.5782144934,
				"y": -3.5373958423,
				"z": -0.5675355602,
				"element": "H" 
			},
			{
				"x": 2.1847757926,
				"y": -4.0459761424,
				"z": -0.1069563534,
				"element": "H" 
			},
			{
				"x": 2.2471570284,
				"y": -2.496772478,
				"z": 1.7717188312,
				"element": "H" 
			},
			{
				"x": 0.7636530135,
				"y": -3.4224657314,
				"z": 1.8668771103,
				"element": "H" 
			},
			{
				"x": 0.5037581473,
				"y": -0.9870836986,
				"z": 2.364467622,
				"element": "H" 
			},
			{
				"x": -1.6451036546,
				"y": -0.8756759613,
				"z": 1.5328262454,
				"element": "H" 
			},
			{
				"x": -1.369019966,
				"y": -2.5251924552,
				"z": 0.9870125716,
				"element": "H" 
			}
		],
		 "valence_orbital": [ 
			{
				"type": "occ",
				"energy": -0.31439,
				"method": "rhf"
			},
			{
				"type": "occ",
				"energy": -0.30706,
				"method": "rhf"
			},
			{
				"type": "occ",
				"energy": -0.28863,
				"method": "rhf"
			},
			{
				"type": "occ",
				"energy": -0.28517,
				"method": "rhf"
			},
			{
				"type": "occ",
				"energy": -0.28059,
				"method": "rhf"
			},
			{
				"type": "unocc",
				"energy": 0.07031,
				"method": "rhf"
			},
			{
				"type": "unocc",
				"energy": 0.08592,
				"method": "rhf"
			},
			{
				"type": "unocc",
				"energy": 0.12056,
				"method": "rhf"
			},
			{
				"type": "unocc",
				"energy": 0.12844,
				"method": "rhf"
			},
			{
				"type": "unocc",
				"energy": 0.13384,
				"method": "rhf"
			}
		],
		"cosmo_sigma_profile": { 
			"-0.025": 0.0,
			"-0.024": 0.0,
			"-0.023": 0.0,
			"-0.022": 0.0,
			"-0.021": 0.0,
			"-0.02": 0.0,
			"-0.019": 0.0,
			"-0.018": 0.0,
			"-0.017": 0.0,
			"-0.016": 0.0,
			"-0.015": 0.0,
			"-0.014": 0.0,
			"-0.013": 0.0,
			"-0.012": 0.0,
			"-0.011": 0.0,
			"-0.01": 0.0,
			"-0.009": 0.0,
			"-0.008": 0.0,
			"-0.007": 0.0,
			"-0.006": 0.0,
			"-0.005": 0.0,
			"-0.004": 0.0,
			"-0.003": 0.605869321318,
			"-0.002": 22.7725626822,
			"-0.001": 42.4843692968,
			"0.0": 46.9225715454,
			"0.001": 36.8311160979,
			"0.002": 24.8856576292,
			"0.003": 1.22844270018,
			"0.004": 0.0,
			"0.005": 0.0,
			"0.006": 0.0,
			"0.007": 0.0,
			"0.008": 0.0,
			"0.009": 0.0,
			"0.01": 0.0,
			"0.011": 0.0,
			"0.012": 0.0,
			"0.013": 0.0,
			"0.014": 0.0,
			"0.015": 0.0,
			"0.016": 0.0,
			"0.017": 0.0,
			"0.018": 0.0,
			"0.019": 0.0,
			"0.02": 0.0,
			"0.021": 0.0,
			"0.022": 0.0,
			"0.023": 0.0,
			"0.024": 0.0,
			"0.025": 0.0
		}
	}
}
