{
	 "smiles": "NC(=S)C1=CC2=C(O1)C=CC=C2", 
	 "Tm": 420.15, 
	 "num_atms": 19, 
	 "gaussian": { 
		 "optdone": 1, 
		 "sigma_profile": "yes", 
		 "theory": "DFT", 
		 "functional": "B3LYP", 
		 "basiset": "6-31G**", 
		 "properties": { 
			 "R2extent": 3988.8024, 
			 "electric_dipole_moment_norm": 4.39847281679, 
			 "electric_quadrupole_moment_norm": 24.2221575476, 
			 "total_energy": -875.342615484, 
			 "HOMO_LUMO_gap": 0.1387, 
			 "cosmo_polarized_energy": -13.34, 
			 "cosmo_cavitation_energy": 25.33, 
			 "cosmo_dispersion_energy": -19.46, 
			 "cosmo_repulsion_energy": 1.5, 
			 "cosmo_total_nonelectrostatic_energy": 7.37, 
			 "SMD_solvation_energy": 3.6 
		},
		"coords": [
			{
				"x": -1.0748990925,
				"y": -3.7568741362,
				"z": 2.5490199938,
				"element": "N" 
			},
			{
				"x": -1.9462215929,
				"y": -2.7267274179,
				"z": 2.5397027923,
				"element": "C" 
			},
			{
				"x": -3.2833392461,
				"y": -2.652938259,
				"z": 3.5393366457,
				"element": "S" 
			},
			{
				"x": -1.6311914513,
				"y": -1.6708888908,
				"z": 1.5816732477,
				"element": "C" 
			},
			{
				"x": -2.2520656987,
				"y": -0.4941361285,
				"z": 1.2764717242,
				"element": "C" 
			},
			{
				"x": -1.4714330469,
				"y": 0.1271332289,
				"z": 0.2457604863,
				"element": "C" 
			},
			{
				"x": -0.3987034188,
				"y": -0.7538173901,
				"z": -0.0027200836,
				"element": "C" 
			},
			{
				"x": -0.4909490548,
				"y": -1.8503718649,
				"z": 0.8079182997,
				"element": "O" 
			},
			{
				"x": 0.5950396263,
				"y": -0.5131071864,
				"z": -0.9443893448,
				"element": "C" 
			},
			{
				"x": 0.4892749063,
				"y": 0.6765906413,
				"z": -1.6624064552,
				"element": "C" 
			},
			{
				"x": -0.5701873389,
				"y": 1.5797437804,
				"z": -1.439318534,
				"element": "C" 
			},
			{
				"x": -1.5541923453,
				"y": 1.3205079097,
				"z": -0.4928022804,
				"element": "C" 
			},
			{
				"x": -0.2760867624,
				"y": -3.7716609001,
				"z": 1.9319602044,
				"element": "H" 
			},
			{
				"x": -1.2359631319,
				"y": -4.5195120453,
				"z": 3.1886483612,
				"element": "H" 
			},
			{
				"x": -3.1562980192,
				"y": -0.1352451511,
				"z": 1.7442479679,
				"element": "H" 
			},
			{
				"x": 1.4047931795,
				"y": -1.2159816547,
				"z": -1.1064317284,
				"element": "H" 
			},
			{
				"x": 1.2399564304,
				"y": 0.9127934884,
				"z": -2.4103707289,
				"element": "H" 
			},
			{
				"x": -0.6141200934,
				"y": 2.4952461443,
				"z": -2.021269579,
				"element": "H" 
			},
			{
				"x": -2.3671138496,
				"y": 2.0204458322,
				"z": -0.326330989,
				"element": "H" 
			}
		],
		 "valence_orbital": [ 
			{
				"type": "occ",
				"energy": -0.30676,
				"method": "rhf"
			},
			{
				"type": "occ",
				"energy": -0.25173,
				"method": "rhf"
			},
			{
				"type": "occ",
				"energy": -0.24736,
				"method": "rhf"
			},
			{
				"type": "occ",
				"energy": -0.21877,
				"method": "rhf"
			},
			{
				"type": "occ",
				"energy": -0.21185,
				"method": "rhf"
			},
			{
				"type": "unocc",
				"energy": -0.07315,
				"method": "rhf"
			},
			{
				"type": "unocc",
				"energy": -0.00604,
				"method": "rhf"
			},
			{
				"type": "unocc",
				"energy": 0.00749,
				"method": "rhf"
			},
			{
				"type": "unocc",
				"energy": 0.0719,
				"method": "rhf"
			},
			{
				"type": "unocc",
				"energy": 0.07846,
				"method": "rhf"
			}
		],
		"cosmo_sigma_profile": { 
			"-0.025": 0.0,
			"-0.024": 0.0,
			"-0.023": 0.0,
			"-0.022": 0.0,
			"-0.021": 0.0,
			"-0.02": 0.0,
			"-0.019": 0.0,
			"-0.018": 0.0,
			"-0.017": 0.0,
			"-0.016": 0.0812564156146,
			"-0.015": 1.29779433462,
			"-0.014": 2.35302985689,
			"-0.013": 2.14059060942,
			"-0.012": 1.84148724554,
			"-0.011": 2.03683606693,
			"-0.01": 1.60086949515,
			"-0.009": 1.35845793479,
			"-0.008": 2.82331524694,
			"-0.007": 5.99515276475,
			"-0.006": 11.2445047885,
			"-0.005": 13.2443510577,
			"-0.004": 10.7323778359,
			"-0.003": 9.54894346985,
			"-0.002": 9.55276313504,
			"-0.001": 12.1106831972,
			"0.0": 15.1247959411,
			"0.001": 17.2991404427,
			"0.002": 19.5921818176,
			"0.003": 16.0315746147,
			"0.004": 13.3059509917,
			"0.005": 7.01831740182,
			"0.006": 3.1379340317,
			"0.007": 4.75845557763,
			"0.008": 5.30743242464,
			"0.009": 7.74314344847,
			"0.01": 6.06820822535,
			"0.011": 2.44934352428,
			"0.012": 0.776831628473,
			"0.013": 0.0,
			"0.014": 0.0,
			"0.015": 0.0,
			"0.016": 0.0,
			"0.017": 0.0,
			"0.018": 0.0,
			"0.019": 0.0,
			"0.02": 0.0,
			"0.021": 0.0,
			"0.022": 0.0,
			"0.023": 0.0,
			"0.024": 0.0,
			"0.025": 0.0
		}
	}
}
