{
	 "smiles": "CC1=CC(=O)OC1=O", 
	 "Tm": 280.9, 
	 "num_atms": 12, 
	 "gaussian": { 
		 "optdone": 1, 
		 "sigma_profile": "yes", 
		 "theory": "DFT", 
		 "functional": "B3LYP", 
		 "basiset": "6-31G**", 
		 "properties": { 
			 "R2extent": 1594.1043, 
			 "electric_dipole_moment_norm": 4.60806729226, 
			 "electric_quadrupole_moment_norm": 15.7982948343, 
			 "total_energy": -418.613124085, 
			 "HOMO_LUMO_gap": 0.18602, 
			 "cosmo_polarized_energy": -10.46, 
			 "cosmo_cavitation_energy": 17.32, 
			 "cosmo_dispersion_energy": -12.76, 
			 "cosmo_repulsion_energy": 1.08, 
			 "cosmo_total_nonelectrostatic_energy": 5.64, 
			 "SMD_solvation_energy": 5.45 
		},
		"coords": [
			{
				"x": -3.5866574481,
				"y": 1.4400014462,
				"z": -0.9390962906,
				"element": "C" 
			},
			{
				"x": -2.5940459441,
				"y": 0.6562437056,
				"z": -0.1538939222,
				"element": "C" 
			},
			{
				"x": -2.2536199791,
				"y": 0.6834463778,
				"z": 1.1426314958,
				"element": "C" 
			},
			{
				"x": -1.1939168927,
				"y": -0.3260115998,
				"z": 1.3815592681,
				"element": "C" 
			},
			{
				"x": -0.6189900369,
				"y": -0.6201993872,
				"z": 2.3913045337,
				"element": "O" 
			},
			{
				"x": -0.9224688972,
				"y": -0.9541695231,
				"z": 0.1601683321,
				"element": "O" 
			},
			{
				"x": -1.7447735106,
				"y": -0.3958675448,
				"z": -0.8060990364,
				"element": "C" 
			},
			{
				"x": -1.7308599118,
				"y": -0.741262942,
				"z": -1.9553682424,
				"element": "O" 
			},
			{
				"x": -4.314983924,
				"y": 0.7691410733,
				"z": -1.4075404483,
				"element": "H" 
			},
			{
				"x": -4.1164877346,
				"y": 2.1596413544,
				"z": -0.3122948491,
				"element": "H" 
			},
			{
				"x": -3.0882492276,
				"y": 1.9748599854,
				"z": -1.754862451,
				"element": "H" 
			},
			{
				"x": -2.6407464933,
				"y": 1.3065770542,
				"z": 1.9380916103,
				"element": "H" 
			}
		],
		 "valence_orbital": [ 
			{
				"type": "occ",
				"energy": -0.40454,
				"method": "rhf"
			},
			{
				"type": "occ",
				"energy": -0.33762,
				"method": "rhf"
			},
			{
				"type": "occ",
				"energy": -0.31872,
				"method": "rhf"
			},
			{
				"type": "occ",
				"energy": -0.3129,
				"method": "rhf"
			},
			{
				"type": "occ",
				"energy": -0.29232,
				"method": "rhf"
			},
			{
				"type": "unocc",
				"energy": -0.1063,
				"method": "rhf"
			},
			{
				"type": "unocc",
				"energy": 0.02684,
				"method": "rhf"
			},
			{
				"type": "unocc",
				"energy": 0.05732,
				"method": "rhf"
			},
			{
				"type": "unocc",
				"energy": 0.08973,
				"method": "rhf"
			},
			{
				"type": "unocc",
				"energy": 0.10678,
				"method": "rhf"
			}
		],
		"cosmo_sigma_profile": { 
			"-0.025": 0.0,
			"-0.024": 0.0,
			"-0.023": 0.0,
			"-0.022": 0.0,
			"-0.021": 0.0,
			"-0.02": 0.0,
			"-0.019": 0.0,
			"-0.018": 0.0,
			"-0.017": 0.0,
			"-0.016": 0.0,
			"-0.015": 0.0,
			"-0.014": 0.0,
			"-0.013": 0.0,
			"-0.012": 0.0,
			"-0.011": 0.0723419575883,
			"-0.01": 1.8482976104,
			"-0.009": 2.11902976609,
			"-0.008": 3.73595379004,
			"-0.007": 7.91087160494,
			"-0.006": 12.973995114,
			"-0.005": 10.2773332067,
			"-0.004": 11.2610380883,
			"-0.003": 11.8075749305,
			"-0.002": 12.7274955506,
			"-0.001": 6.36370632092,
			"0.0": 3.02412676172,
			"0.001": 3.06322750012,
			"0.002": 3.77327244199,
			"0.003": 3.35319636146,
			"0.004": 3.36322939682,
			"0.005": 3.38462860646,
			"0.006": 6.81761917644,
			"0.007": 6.91942277054,
			"0.008": 5.97657526542,
			"0.009": 9.8170173664,
			"0.01": 7.823397975,
			"0.011": 0.850973573457,
			"0.012": 0.0,
			"0.013": 0.0,
			"0.014": 0.0,
			"0.015": 0.0,
			"0.016": 0.0,
			"0.017": 0.0,
			"0.018": 0.0,
			"0.019": 0.0,
			"0.02": 0.0,
			"0.021": 0.0,
			"0.022": 0.0,
			"0.023": 0.0,
			"0.024": 0.0,
			"0.025": 0.0
		}
	}
}
