{
	 "smiles": "CC(=C)C(=O)N(C1=CC=CC=C1)C1=CC=CC2=C1C=CC=C2", 
	 "Tm": 388.15, 
	 "num_atms": 39, 
	 "gaussian": { 
		 "optdone": 1, 
		 "sigma_profile": "yes", 
		 "theory": "DFT", 
		 "functional": "B3LYP", 
		 "basiset": "6-31G**", 
		 "properties": { 
			 "R2extent": 5943.5046, 
			 "electric_dipole_moment_norm": 3.59540296073, 
			 "electric_quadrupole_moment_norm": 8.75533045807, 
			 "total_energy": -902.345246609, 
			 "HOMO_LUMO_gap": 0.16125, 
			 "cosmo_polarized_energy": -12.04, 
			 "cosmo_cavitation_energy": 41.82, 
			 "cosmo_dispersion_energy": -27.77, 
			 "cosmo_repulsion_energy": 2.12, 
			 "cosmo_total_nonelectrostatic_energy": 16.17, 
			 "SMD_solvation_energy": 8.16 
		},
		"coords": [
			{
				"x": -2.0746589466,
				"y": 1.2413488296,
				"z": -2.0562279668,
				"element": "C" 
			},
			{
				"x": -2.6561302364,
				"y": 0.0266890698,
				"z": -1.3690350275,
				"element": "C" 
			},
			{
				"x": -3.9728382676,
				"y": -0.2127466192,
				"z": -1.3347408158,
				"element": "C" 
			},
			{
				"x": -1.7637995426,
				"y": -1.0555405762,
				"z": -0.8010610502,
				"element": "C" 
			},
			{
				"x": -2.0570430304,
				"y": -2.2352719726,
				"z": -0.929416354,
				"element": "O" 
			},
			{
				"x": -0.565836412,
				"y": -0.6663616791,
				"z": -0.1716493126,
				"element": "N" 
			},
			{
				"x": 0.3920340652,
				"y": -1.6810413908,
				"z": 0.1813899948,
				"element": "C" 
			},
			{
				"x": 0.7874405427,
				"y": -2.6378944795,
				"z": -0.7642485814,
				"element": "C" 
			},
			{
				"x": 1.7409548166,
				"y": -3.5954422193,
				"z": -0.428370915,
				"element": "C" 
			},
			{
				"x": 2.3194976119,
				"y": -3.6084882089,
				"z": 0.8435504237,
				"element": "C" 
			},
			{
				"x": 1.9280184039,
				"y": -2.6544443471,
				"z": 1.7816316783,
				"element": "C" 
			},
			{
				"x": 0.9651901817,
				"y": -1.6972438249,
				"z": 1.4574633844,
				"element": "C" 
			},
			{
				"x": -0.4450852077,
				"y": 0.612836781,
				"z": 0.4668763981,
				"element": "C" 
			},
			{
				"x": -1.3858131246,
				"y": 1.0019511514,
				"z": 1.4004335784,
				"element": "C" 
			},
			{
				"x": -1.2995263044,
				"y": 2.2624553355,
				"z": 2.0364600095,
				"element": "C" 
			},
			{
				"x": -0.2551977214,
				"y": 3.1105516872,
				"z": 1.7530011598,
				"element": "C" 
			},
			{
				"x": 0.7420960377,
				"y": 2.7425396313,
				"z": 0.8087711646,
				"element": "C" 
			},
			{
				"x": 0.6513460279,
				"y": 1.4769591775,
				"z": 0.1401984956,
				"element": "C" 
			},
			{
				"x": 1.6364744887,
				"y": 1.1451953303,
				"z": -0.8281022971,
				"element": "C" 
			},
			{
				"x": 2.6680962182,
				"y": 2.0135113561,
				"z": -1.1100695421,
				"element": "C" 
			},
			{
				"x": 2.7674401203,
				"y": 3.2559822109,
				"z": -0.4401291653,
				"element": "C" 
			},
			{
				"x": 1.8230140304,
				"y": 3.6104509906,
				"z": 0.4958299446,
				"element": "C" 
			},
			{
				"x": -1.2193775105,
				"y": 0.9704357336,
				"z": -2.6844641581,
				"element": "H" 
			},
			{
				"x": -1.7244210791,
				"y": 1.9992189683,
				"z": -1.3506050682,
				"element": "H" 
			},
			{
				"x": -2.8323327714,
				"y": 1.7017687592,
				"z": -2.6962128722,
				"element": "H" 
			},
			{
				"x": -4.6847217345,
				"y": 0.4817680041,
				"z": -1.7714149259,
				"element": "H" 
			},
			{
				"x": -4.3641427298,
				"y": -1.1146422805,
				"z": -0.8766825225,
				"element": "H" 
			},
			{
				"x": 0.3370522802,
				"y": -2.6381210591,
				"z": -1.749404544,
				"element": "H" 
			},
			{
				"x": 2.0360979494,
				"y": -4.3335829984,
				"z": -1.1686160373,
				"element": "H" 
			},
			{
				"x": 3.0661578069,
				"y": -4.3546626042,
				"z": 1.0983097288,
				"element": "H" 
			},
			{
				"x": 2.3661518857,
				"y": -2.6528724855,
				"z": 2.7756138897,
				"element": "H" 
			},
			{
				"x": 0.6604363094,
				"y": -0.9618008697,
				"z": 2.1938148788,
				"element": "H" 
			},
			{
				"x": -2.1994376963,
				"y": 0.3267826188,
				"z": 1.6443101455,
				"element": "H" 
			},
			{
				"x": -2.0575349042,
				"y": 2.5459206776,
				"z": 2.7603130113,
				"element": "H" 
			},
			{
				"x": -0.1775018841,
				"y": 4.0758404097,
				"z": 2.2460832688,
				"element": "H" 
			},
			{
				"x": 1.5698679889,
				"y": 0.1940932502,
				"z": -1.3431019931,
				"element": "H" 
			},
			{
				"x": 3.4125188108,
				"y": 1.7430283877,
				"z": -1.8532160474,
				"element": "H" 
			},
			{
				"x": 3.5882605895,
				"y": 3.9289126035,
				"z": -0.6702465602,
				"element": "H" 
			},
			{
				"x": 1.8874529376,
				"y": 4.5659166511,
				"z": 1.0099646018,
				"element": "H" 
			}
		],
		 "valence_orbital": [ 
			{
				"type": "occ",
				"energy": -0.25177,
				"method": "rhf"
			},
			{
				"type": "occ",
				"energy": -0.24881,
				"method": "rhf"
			},
			{
				"type": "occ",
				"energy": -0.23885,
				"method": "rhf"
			},
			{
				"type": "occ",
				"energy": -0.2295,
				"method": "rhf"
			},
			{
				"type": "occ",
				"energy": -0.21208,
				"method": "rhf"
			},
			{
				"type": "unocc",
				"energy": -0.05083,
				"method": "rhf"
			},
			{
				"type": "unocc",
				"energy": -0.03066,
				"method": "rhf"
			},
			{
				"type": "unocc",
				"energy": -0.01611,
				"method": "rhf"
			},
			{
				"type": "unocc",
				"energy": 0.00237,
				"method": "rhf"
			},
			{
				"type": "unocc",
				"energy": 0.00462,
				"method": "rhf"
			}
		],
		"cosmo_sigma_profile": { 
			"-0.025": 0.0,
			"-0.024": 0.0,
			"-0.023": 0.0,
			"-0.022": 0.0,
			"-0.021": 0.0,
			"-0.02": 0.0,
			"-0.019": 0.0,
			"-0.018": 0.0,
			"-0.017": 0.0,
			"-0.016": 0.0,
			"-0.015": 0.0,
			"-0.014": 0.0,
			"-0.013": 0.0,
			"-0.012": 0.0,
			"-0.011": 0.0,
			"-0.01": 0.0,
			"-0.009": 0.0,
			"-0.008": 0.0,
			"-0.007": 1.98916808067,
			"-0.006": 18.7160033294,
			"-0.005": 27.0977808609,
			"-0.004": 33.6011136154,
			"-0.003": 29.9881030662,
			"-0.002": 28.6348138467,
			"-0.001": 27.7476334721,
			"0.0": 26.8918221223,
			"0.001": 24.1574108107,
			"0.002": 22.4073243004,
			"0.003": 27.3733149287,
			"0.004": 24.4578781713,
			"0.005": 16.3834593674,
			"0.006": 6.1376331427,
			"0.007": 2.23633045154,
			"0.008": 2.02722132403,
			"0.009": 1.80627668435,
			"0.01": 1.47616878921,
			"0.011": 2.98449439664,
			"0.012": 2.51640503109,
			"0.013": 4.65505569076,
			"0.014": 1.17762722133,
			"0.015": 0.000604306115158,
			"0.016": 0.0,
			"0.017": 0.0,
			"0.018": 0.0,
			"0.019": 0.0,
			"0.02": 0.0,
			"0.021": 0.0,
			"0.022": 0.0,
			"0.023": 0.0,
			"0.024": 0.0,
			"0.025": 0.0
		}
	}
}
