{
	 "smiles": "COC1=CC(=CC(OC)=C1OC)C1=NC2=C(C=CC=C2)C(=C1)C(O)=O", 
	 "Tm": 469.15, 
	 "num_atms": 42, 
	 "gaussian": { 
		 "optdone": 1, 
		 "sigma_profile": "yes", 
		 "theory": "DFT", 
		 "functional": "B3LYP", 
		 "basiset": "6-31G**", 
		 "properties": { 
			 "R2extent": 11293.0805, 
			 "electric_dipole_moment_norm": 3.93309277541, 
			 "electric_quadrupole_moment_norm": 24.2313799805, 
			 "total_energy": -1165.11114355, 
			 "HOMO_LUMO_gap": 0.12924, 
			 "cosmo_polarized_energy": -21.14, 
			 "cosmo_cavitation_energy": 46.47, 
			 "cosmo_dispersion_energy": -32.58, 
			 "cosmo_repulsion_energy": 2.46, 
			 "cosmo_total_nonelectrostatic_energy": 16.35, 
			 "SMD_solvation_energy": 9.89 
		},
		"coords": [
			{
				"x": -3.4889442132,
				"y": 1.7279355781,
				"z": -3.2411312548,
				"element": "C" 
			},
			{
				"x": -3.7753230638,
				"y": 1.7774995142,
				"z": -1.8523275383,
				"element": "O" 
			},
			{
				"x": -2.8206358672,
				"y": 1.3441384548,
				"z": -0.9815735491,
				"element": "C" 
			},
			{
				"x": -1.5792713767,
				"y": 0.8219109243,
				"z": -1.3600332439,
				"element": "C" 
			},
			{
				"x": -0.6681014583,
				"y": 0.3975881859,
				"z": -0.3803600302,
				"element": "C" 
			},
			{
				"x": -1.0011066219,
				"y": 0.5028731012,
				"z": 0.9775986405,
				"element": "C" 
			},
			{
				"x": -2.2412844798,
				"y": 1.0202006369,
				"z": 1.3560131808,
				"element": "C" 
			},
			{
				"x": -2.666869726,
				"y": 1.1444409196,
				"z": 2.6445581612,
				"element": "O" 
			},
			{
				"x": -1.7739826796,
				"y": 0.7626703263,
				"z": 3.6796150977,
				"element": "C" 
			},
			{
				"x": -3.1568098044,
				"y": 1.4562634169,
				"z": 0.3793660949,
				"element": "C" 
			},
			{
				"x": -4.3414908971,
				"y": 2.0312565639,
				"z": 0.7505661731,
				"element": "O" 
			},
			{
				"x": -5.4267870078,
				"y": 1.1153526576,
				"z": 0.9068094439,
				"element": "C" 
			},
			{
				"x": 0.6584585324,
				"y": -0.1590645856,
				"z": -0.751101934,
				"element": "C" 
			},
			{
				"x": 1.5709454051,
				"y": -0.2586026855,
				"z": 0.2063537818,
				"element": "N" 
			},
			{
				"x": 2.8079109938,
				"y": -0.7360852629,
				"z": -0.091336718,
				"element": "C" 
			},
			{
				"x": 3.1883004023,
				"y": -1.1754065324,
				"z": -1.4039699988,
				"element": "C" 
			},
			{
				"x": 4.5338636308,
				"y": -1.5829976796,
				"z": -1.6213812487,
				"element": "C" 
			},
			{
				"x": 5.4407012411,
				"y": -1.6006870446,
				"z": -0.5821443272,
				"element": "C" 
			},
			{
				"x": 5.0518790955,
				"y": -1.2090541824,
				"z": 0.7200994867,
				"element": "C" 
			},
			{
				"x": 3.7661535799,
				"y": -0.7798825217,
				"z": 0.9574874667,
				"element": "C" 
			},
			{
				"x": 2.1620233091,
				"y": -1.1289697759,
				"z": -2.4020309535,
				"element": "C" 
			},
			{
				"x": 0.9334174485,
				"y": -0.6014079117,
				"z": -2.0781629593,
				"element": "C" 
			},
			{
				"x": 2.311675629,
				"y": -1.6470675894,
				"z": -3.8091939229,
				"element": "C" 
			},
			{
				"x": 3.0552202078,
				"y": -2.7734916055,
				"z": -3.9680314719,
				"element": "O" 
			},
			{
				"x": 1.7750031592,
				"y": -1.1356734245,
				"z": -4.7617245586,
				"element": "O" 
			},
			{
				"x": -2.6219207695,
				"y": 2.3495260102,
				"z": -3.4985950413,
				"element": "H" 
			},
			{
				"x": -3.308021337,
				"y": 0.7007347205,
				"z": -3.5837952595,
				"element": "H" 
			},
			{
				"x": -4.3736111872,
				"y": 2.1224051821,
				"z": -3.7431386519,
				"element": "H" 
			},
			{
				"x": -1.3180659254,
				"y": 0.7728184186,
				"z": -2.408061642,
				"element": "H" 
			},
			{
				"x": -0.274552862,
				"y": 0.1740600668,
				"z": 1.7074432127,
				"element": "H" 
			},
			{
				"x": -1.5193522717,
				"y": -0.3035647768,
				"z": 3.6242253655,
				"element": "H" 
			},
			{
				"x": -2.299680546,
				"y": 0.9592161736,
				"z": 4.6153221674,
				"element": "H" 
			},
			{
				"x": -0.8490601058,
				"y": 1.3521860322,
				"z": 3.6528028003,
				"element": "H" 
			},
			{
				"x": -5.646175016,
				"y": 0.5986018735,
				"z": -0.0352265985,
				"element": "H" 
			},
			{
				"x": -5.2125075316,
				"y": 0.3791243179,
				"z": 1.6906402008,
				"element": "H" 
			},
			{
				"x": -6.2929096197,
				"y": 1.7123139792,
				"z": 1.2001994394,
				"element": "H" 
			},
			{
				"x": 4.8663416243,
				"y": -1.844608754,
				"z": -2.6208090787,
				"element": "H" 
			},
			{
				"x": 6.4657049885,
				"y": -1.906392425,
				"z": -0.7691161448,
				"element": "H" 
			},
			{
				"x": 5.7773997924,
				"y": -1.2322139771,
				"z": 1.5277254634,
				"element": "H" 
			},
			{
				"x": 3.4438071031,
				"y": -0.4484780371,
				"z": 1.9389907333,
				"element": "H" 
			},
			{
				"x": 0.1723543105,
				"y": -0.5706723135,
				"z": -2.8472058232,
				"element": "H" 
			},
			{
				"x": 3.3211039146,
				"y": -3.1207959692,
				"z": -3.1036649607,
				"element": "H" 
			}
		],
		 "valence_orbital": [ 
			{
				"type": "occ",
				"energy": -0.26312,
				"method": "rhf"
			},
			{
				"type": "occ",
				"energy": -0.2618,
				"method": "rhf"
			},
			{
				"type": "occ",
				"energy": -0.24788,
				"method": "rhf"
			},
			{
				"type": "occ",
				"energy": -0.21957,
				"method": "rhf"
			},
			{
				"type": "occ",
				"energy": -0.21052,
				"method": "rhf"
			},
			{
				"type": "unocc",
				"energy": -0.08128,
				"method": "rhf"
			},
			{
				"type": "unocc",
				"energy": -0.04266,
				"method": "rhf"
			},
			{
				"type": "unocc",
				"energy": -0.01767,
				"method": "rhf"
			},
			{
				"type": "unocc",
				"energy": 0.00395,
				"method": "rhf"
			},
			{
				"type": "unocc",
				"energy": 0.01981,
				"method": "rhf"
			}
		],
		"cosmo_sigma_profile": { 
			"-0.025": 0.0,
			"-0.024": 0.0,
			"-0.023": 0.0,
			"-0.022": 0.0,
			"-0.021": 0.0,
			"-0.02": 0.0,
			"-0.019": 0.0,
			"-0.018": 0.21824469931,
			"-0.017": 0.741568885194,
			"-0.016": 1.03885671863,
			"-0.015": 0.487928417916,
			"-0.014": 0.758426936929,
			"-0.013": 1.19436271333,
			"-0.012": 1.14727402719,
			"-0.011": 0.894869638314,
			"-0.01": 0.883936578071,
			"-0.009": 2.39949959557,
			"-0.008": 2.52927954299,
			"-0.007": 7.10370314028,
			"-0.006": 20.0508936152,
			"-0.005": 33.5515511031,
			"-0.004": 34.4672840748,
			"-0.003": 33.9565979718,
			"-0.002": 25.0945603352,
			"-0.001": 22.2583771123,
			"0.0": 24.5928702412,
			"0.001": 20.7365886263,
			"0.002": 24.5713827685,
			"0.003": 28.5259000681,
			"0.004": 18.0826657842,
			"0.005": 10.9634698597,
			"0.006": 7.24587060158,
			"0.007": 7.32161878419,
			"0.008": 7.16318188527,
			"0.009": 7.85618332185,
			"0.01": 8.72877924047,
			"0.011": 8.17336705342,
			"0.012": 6.59359990538,
			"0.013": 2.07369768647,
			"0.014": 0.131944455161,
			"0.015": 0.0,
			"0.016": 0.0,
			"0.017": 0.0,
			"0.018": 0.0,
			"0.019": 0.0,
			"0.02": 0.0,
			"0.021": 0.0,
			"0.022": 0.0,
			"0.023": 0.0,
			"0.024": 0.0,
			"0.0": 0.0
		}
	}
}
