{
	 "smiles": "CC(C)(C)OC(=O)NC1=COC=C1", 
	 "Tm": 413.15, 
	 "num_atms": 26, 
	 "gaussian": { 
		 "optdone": 1, 
		 "sigma_profile": "yes", 
		 "theory": "DFT", 
		 "functional": "B3LYP", 
		 "basiset": "6-31G**", 
		 "properties": { 
			 "R2extent": 4199.9932, 
			 "electric_dipole_moment_norm": 3.07035140334, 
			 "electric_quadrupole_moment_norm": 10.6854803654, 
			 "total_energy": -631.221100834, 
			 "HOMO_LUMO_gap": 0.22264, 
			 "cosmo_polarized_energy": -10.13, 
			 "cosmo_cavitation_energy": 29.26, 
			 "cosmo_dispersion_energy": -21.21, 
			 "cosmo_repulsion_energy": 1.68, 
			 "cosmo_total_nonelectrostatic_energy": 9.73, 
			 "SMD_solvation_energy": 7.46 
		},
		"coords": [
			{
				"x": 2.2839492321,
				"y": 0.2319448016,
				"z": -1.0885947136,
				"element": "C" 
			},
			{
				"x": 1.158724125,
				"y": -0.7047896634,
				"z": -0.6418721448,
				"element": "C" 
			},
			{
				"x": 1.4694922215,
				"y": -1.3149930851,
				"z": 0.7288849711,
				"element": "C" 
			},
			{
				"x": 0.8842330419,
				"y": -1.7730877643,
				"z": -1.7055078807,
				"element": "C" 
			},
			{
				"x": 0.0073552459,
				"y": 0.2076128417,
				"z": -0.53681558,
				"element": "O" 
			},
			{
				"x": -1.209161117,
				"y": -0.2510151987,
				"z": -0.158155664,
				"element": "C" 
			},
			{
				"x": -1.5041204617,
				"y": -1.3988839897,
				"z": 0.129518525,
				"element": "O" 
			},
			{
				"x": -2.091382912,
				"y": 0.8001303274,
				"z": -0.1451808582,
				"element": "N" 
			},
			{
				"x": -3.4432581784,
				"y": 0.6958257723,
				"z": 0.1988487913,
				"element": "C" 
			},
			{
				"x": -4.1551069516,
				"y": -0.4085337298,
				"z": 0.578545803,
				"element": "C" 
			},
			{
				"x": -5.4552445902,
				"y": -0.0492052192,
				"z": 0.8224425387,
				"element": "O" 
			},
			{
				"x": -5.5593647574,
				"y": 1.2834252804,
				"z": 0.5953625036,
				"element": "C" 
			},
			{
				"x": -4.3614418201,
				"y": 1.8012755822,
				"z": 0.2099806886,
				"element": "C" 
			},
			{
				"x": 2.0390640921,
				"y": 0.7014852752,
				"z": -2.0457916003,
				"element": "H" 
			},
			{
				"x": 2.4470894627,
				"y": 1.0207789645,
				"z": -0.3484659933,
				"element": "H" 
			},
			{
				"x": 3.2150881329,
				"y": -0.3299999995,
				"z": -1.2067358122,
				"element": "H" 
			},
			{
				"x": 1.6176031058,
				"y": -0.5250138448,
				"z": 1.4719507109,
				"element": "H" 
			},
			{
				"x": 0.6599668898,
				"y": -1.965625909,
				"z": 1.0605601243,
				"element": "H" 
			},
			{
				"x": 2.3919473959,
				"y": -1.9015583498,
				"z": 0.6684480458,
				"element": "H" 
			},
			{
				"x": 0.0682611067,
				"y": -2.4287027025,
				"z": -1.400508016,
				"element": "H" 
			},
			{
				"x": 0.6244702488,
				"y": -1.3023763664,
				"z": -2.6589797347,
				"element": "H" 
			},
			{
				"x": 1.7842375452,
				"y": -2.3772527923,
				"z": -1.8591720642,
				"element": "H" 
			},
			{
				"x": -1.7290848733,
				"y": 1.7050447312,
				"z": -0.4032619365,
				"element": "H" 
			},
			{
				"x": -3.8937440531,
				"y": -1.4421151506,
				"z": 0.7113776598,
				"element": "H" 
			},
			{
				"x": -6.5348647047,
				"y": 1.7186326684,
				"z": 0.747046612,
				"element": "H" 
			},
			{
				"x": -4.1481074268,
				"y": 2.8320975201,
				"z": -0.0362249754,
				"element": "H" 
			}
		],
		 "valence_orbital": [ 
			{
				"type": "occ",
				"energy": -0.32722,
				"method": "rhf"
			},
			{
				"type": "occ",
				"energy": -0.29213,
				"method": "rhf"
			},
			{
				"type": "occ",
				"energy": -0.26972,
				"method": "rhf"
			},
			{
				"type": "occ",
				"energy": -0.24865,
				"method": "rhf"
			},
			{
				"type": "occ",
				"energy": -0.20586,
				"method": "rhf"
			},
			{
				"type": "unocc",
				"energy": 0.01678,
				"method": "rhf"
			},
			{
				"type": "unocc",
				"energy": 0.04393,
				"method": "rhf"
			},
			{
				"type": "unocc",
				"energy": 0.08097,
				"method": "rhf"
			},
			{
				"type": "unocc",
				"energy": 0.09366,
				"method": "rhf"
			},
			{
				"type": "unocc",
				"energy": 0.09975,
				"method": "rhf"
			}
		],
		"cosmo_sigma_profile": { 
			"-0.025": 0.0,
			"-0.024": 0.0,
			"-0.023": 0.0,
			"-0.022": 0.0,
			"-0.021": 0.0,
			"-0.02": 0.0,
			"-0.019": 0.0,
			"-0.018": 0.0,
			"-0.017": 0.0,
			"-0.016": 0.0386587440861,
			"-0.015": 1.07516973132,
			"-0.014": 0.552911965206,
			"-0.013": 1.04726505405,
			"-0.012": 1.1615015467,
			"-0.011": 1.46677665666,
			"-0.01": 0.677517332734,
			"-0.009": 2.19142956657,
			"-0.008": 4.54866896433,
			"-0.007": 4.44403970819,
			"-0.006": 4.81789433984,
			"-0.005": 5.10059728781,
			"-0.004": 16.4453880982,
			"-0.003": 20.2720002148,
			"-0.002": 16.6567347678,
			"-0.001": 21.6265165673,
			"0.0": 30.267288004,
			"0.001": 23.0382045111,
			"0.002": 10.9474873811,
			"0.003": 12.7319090985,
			"0.004": 16.2643642275,
			"0.005": 11.9809896883,
			"0.006": 6.13583005908,
			"0.007": 5.64808791165,
			"0.008": 3.11815439522,
			"0.009": 2.86880080488,
			"0.01": 1.73240719011,
			"0.011": 1.82157028477,
			"0.012": 1.87728761205,
			"0.013": 0.162743050026,
			"0.014": 0.0,
			"0.015": 0.0,
			"0.016": 0.0,
			"0.017": 0.0,
			"0.018": 0.0,
			"0.019": 0.0,
			"0.02": 0.0,
			"0.021": 0.0,
			"0.022": 0.0,
			"0.023": 0.0,
			"0.024": 0.0,
			"0.025": 0.0
		}
	}
}
