{
	 "smiles": "C1=CC2=C(C=C1)C1=C(C=CC=C1)C2C1=CC=NC=C1", 
	 "Tm": 417.15, 
	 "num_atms": 32, 
	 "gaussian": { 
		 "optdone": 1, 
		 "sigma_profile": "yes", 
		 "theory": "DFT", 
		 "functional": "B3LYP", 
		 "basiset": "6-31G**", 
		 "properties": { 
			 "R2extent": 4772.7994, 
			 "electric_dipole_moment_norm": 2.37332523477, 
			 "electric_quadrupole_moment_norm": 12.6013197476, 
			 "total_energy": -748.51370035, 
			 "HOMO_LUMO_gap": 0.18416, 
			 "cosmo_polarized_energy": -9.56, 
			 "cosmo_cavitation_energy": 35.78, 
			 "cosmo_dispersion_energy": -24.96, 
			 "cosmo_repulsion_energy": 1.9, 
			 "cosmo_total_nonelectrostatic_energy": 12.72, 
			 "SMD_solvation_energy": 4.06 
		},
		"coords": [
			{
				"x": 0.3089482487,
				"y": -1.7334952738,
				"z": -3.2671580811,
				"element": "C" 
			},
			{
				"x": 0.6789055846,
				"y": -0.672404537,
				"z": -2.4328661335,
				"element": "C" 
			},
			{
				"x": -0.2246593428,
				"y": -0.2236769693,
				"z": -1.4766746808,
				"element": "C" 
			},
			{
				"x": -1.490880379,
				"y": -0.8282704068,
				"z": -1.3434600541,
				"element": "C" 
			},
			{
				"x": -1.8588159031,
				"y": -1.8851925081,
				"z": -2.1792362893,
				"element": "C" 
			},
			{
				"x": -0.9497082869,
				"y": -2.3319890858,
				"z": -3.1408619801,
				"element": "C" 
			},
			{
				"x": -2.2181401204,
				"y": -0.1600564052,
				"z": -0.2552528094,
				"element": "C" 
			},
			{
				"x": -1.3976598066,
				"y": 0.8541031284,
				"z": 0.2784860166,
				"element": "C" 
			},
			{
				"x": -1.8393573472,
				"y": 1.6414137042,
				"z": 1.3354345061,
				"element": "C" 
			},
			{
				"x": -3.1170592904,
				"y": 1.4143591924,
				"z": 1.8595846427,
				"element": "C" 
			},
			{
				"x": -3.9360310125,
				"y": 0.4118708263,
				"z": 1.3279289475,
				"element": "C" 
			},
			{
				"x": -3.4940348298,
				"y": -0.3827482785,
				"z": 0.2677152344,
				"element": "C" 
			},
			{
				"x": -0.0724062784,
				"y": 0.9183065128,
				"z": -0.4757129382,
				"element": "C" 
			},
			{
				"x": 1.1626957811,
				"y": 0.8272738206,
				"z": 0.4057986526,
				"element": "C" 
			},
			{
				"x": 1.391029617,
				"y": -0.2776040469,
				"z": 1.2364460518,
				"element": "C" 
			},
			{
				"x": 2.5394297899,
				"y": -0.3086441985,
				"z": 2.0233300285,
				"element": "C" 
			},
			{
				"x": 3.4623944988,
				"y": 0.664915196,
				"z": 2.0430990406,
				"element": "N" 
			},
			{
				"x": 3.2398668736,
				"y": 1.7168215777,
				"z": 1.2488662958,
				"element": "C" 
			},
			{
				"x": 2.1206356502,
				"y": 1.8442469561,
				"z": 0.4222911314,
				"element": "C" 
			},
			{
				"x": 1.0049867662,
				"y": -2.0961557671,
				"z": -4.0179189012,
				"element": "H" 
			},
			{
				"x": 1.6593149734,
				"y": -0.2135839433,
				"z": -2.5291065639,
				"element": "H" 
			},
			{
				"x": -2.8334119642,
				"y": -2.3561605973,
				"z": -2.0852233201,
				"element": "H" 
			},
			{
				"x": -1.2216385597,
				"y": -3.1542805777,
				"z": -3.7965408984,
				"element": "H" 
			},
			{
				"x": -1.2032150119,
				"y": 2.4165266091,
				"z": 1.7543693901,
				"element": "H" 
			},
			{
				"x": -3.4753393671,
				"y": 2.0204244438,
				"z": 2.686600609,
				"element": "H" 
			},
			{
				"x": -4.9253547145,
				"y": 0.248735548,
				"z": 1.7458374286,
				"element": "H" 
			},
			{
				"x": -4.1343235949,
				"y": -1.1608967817,
				"z": -0.1384920322,
				"element": "H" 
			},
			{
				"x": -0.0190723154,
				"y": 1.8697167258,
				"z": -1.0242929105,
				"element": "H" 
			},
			{
				"x": 0.6836962876,
				"y": -1.1007534542,
				"z": 1.2686543558,
				"element": "H" 
			},
			{
				"x": 2.7302042859,
				"y": -1.160733737,
				"z": 2.67371494,
				"element": "H" 
			},
			{
				"x": 3.9930540868,
				"y": 2.5032264015,
				"z": 1.2699468461,
				"element": "H" 
			},
			{
				"x": 2.0016456811,
				"y": 2.7277059258,
				"z": -0.1994065248,
				"element": "H" 
			}
		],
		 "valence_orbital": [ 
			{
				"type": "occ",
				"energy": -0.2613,
				"method": "rhf"
			},
			{
				"type": "occ",
				"energy": -0.25178,
				"method": "rhf"
			},
			{
				"type": "occ",
				"energy": -0.24935,
				"method": "rhf"
			},
			{
				"type": "occ",
				"energy": -0.24766,
				"method": "rhf"
			},
			{
				"type": "occ",
				"energy": -0.21863,
				"method": "rhf"
			},
			{
				"type": "unocc",
				"energy": -0.03447,
				"method": "rhf"
			},
			{
				"type": "unocc",
				"energy": -0.02373,
				"method": "rhf"
			},
			{
				"type": "unocc",
				"energy": -0.01741,
				"method": "rhf"
			},
			{
				"type": "unocc",
				"energy": -0.01076,
				"method": "rhf"
			},
			{
				"type": "unocc",
				"energy": 0.0077,
				"method": "rhf"
			}
		],
		"cosmo_sigma_profile": { 
			"-0.025": 0.0,
			"-0.024": 0.0,
			"-0.023": 0.0,
			"-0.022": 0.0,
			"-0.021": 0.0,
			"-0.02": 0.0,
			"-0.019": 0.0,
			"-0.018": 0.0,
			"-0.017": 0.0,
			"-0.016": 0.0,
			"-0.015": 0.0,
			"-0.014": 0.0,
			"-0.013": 0.0,
			"-0.012": 0.0,
			"-0.011": 0.0,
			"-0.01": 0.0,
			"-0.009": 0.0,
			"-0.008": 0.0560788359284,
			"-0.007": 3.32410887904,
			"-0.006": 19.6434950007,
			"-0.005": 26.6691753899,
			"-0.004": 26.232972865,
			"-0.003": 27.247914054,
			"-0.002": 18.2260151149,
			"-0.001": 17.0721664047,
			"0.0": 17.2495382088,
			"0.001": 18.3453754783,
			"0.002": 25.8509080631,
			"0.003": 28.1223588437,
			"0.004": 18.4102301329,
			"0.005": 20.0890341821,
			"0.006": 9.89944022211,
			"0.007": 0.888010917437,
			"0.008": 1.79739189217,
			"0.009": 1.13170203307,
			"0.01": 0.550177140133,
			"0.011": 1.68560304065,
			"0.012": 0.889660724918,
			"0.013": 0.953063194349,
			"0.014": 0.831067948724,
			"0.015": 0.971801071411,
			"0.016": 0.840420353672,
			"0.017": 0.516975308246,
			"0.018": 0.0,
			"0.019": 0.0,
			"0.02": 0.0,
			"0.021": 0.0,
			"0.022": 0.0,
			"0.023": 0.0,
			"0.024": 0.0,
			"0.025": 0.0
		}
	}
}
