{
	 "smiles": "NC1=CC(F)=C(C=C1)C(F)(F)F", 
	 "Tm": 329.15, 
	 "num_atms": 17, 
	 "gaussian": { 
		 "optdone": 1, 
		 "sigma_profile": "yes", 
		 "theory": "DFT", 
		 "functional": "B3LYP", 
		 "basiset": "6-31G**", 
		 "properties": { 
			 "R2extent": 4222.7196, 
			 "electric_dipole_moment_norm": 5.27811071976, 
			 "electric_quadrupole_moment_norm": 11.1852002924, 
			 "total_energy": -723.87491394, 
			 "HOMO_LUMO_gap": 0.20944, 
			 "cosmo_polarized_energy": -9.47, 
			 "cosmo_cavitation_energy": 23.11, 
			 "cosmo_dispersion_energy": -16.62, 
			 "cosmo_repulsion_energy": 1.25, 
			 "cosmo_total_nonelectrostatic_energy": 7.74, 
			 "SMD_solvation_energy": 5.56 
		},
		"coords": [
			{
				"x": -0.2137466756,
				"y": -0.8984381537,
				"z": -1.3029266051,
				"element": "N" 
			},
			{
				"x": -0.1055899835,
				"y": 0.3691661043,
				"z": -0.7561681798,
				"element": "C" 
			},
			{
				"x": 0.4797188792,
				"y": 0.5513215073,
				"z": 0.5103416888,
				"element": "C" 
			},
			{
				"x": 0.6246019667,
				"y": 1.8317194686,
				"z": 1.0142355823,
				"element": "C" 
			},
			{
				"x": 1.1856398164,
				"y": 1.97880203,
				"z": 2.229533053,
				"element": "F" 
			},
			{
				"x": 0.2110439657,
				"y": 2.9698892165,
				"z": 0.3173758266,
				"element": "C" 
			},
			{
				"x": -0.3689606956,
				"y": 2.7760019767,
				"z": -0.9403812461,
				"element": "C" 
			},
			{
				"x": -0.5290220532,
				"y": 1.5042951125,
				"z": -1.474789698,
				"element": "C" 
			},
			{
				"x": 0.3879927868,
				"y": 4.3342211322,
				"z": 0.911638731,
				"element": "C" 
			},
			{
				"x": -0.2718308805,
				"y": 4.4690003826,
				"z": 2.0846863242,
				"element": "F" 
			},
			{
				"x": 1.6862153216,
				"y": 4.6169099934,
				"z": 1.1632354655,
				"element": "F" 
			},
			{
				"x": -0.0757360486,
				"y": 5.2978087892,
				"z": 0.0815538923,
				"element": "F" 
			},
			{
				"x": -0.1916465798,
				"y": -1.6749465736,
				"z": -0.6584758286,
				"element": "H" 
			},
			{
				"x": -0.8884843757,
				"y": -1.012937744,
				"z": -2.0448221984,
				"element": "H" 
			},
			{
				"x": 0.8263155154,
				"y": -0.2898187478,
				"z": 1.1015382722,
				"element": "H" 
			},
			{
				"x": -0.6999746764,
				"y": 3.6421654732,
				"z": -1.5018074741,
				"element": "H" 
			},
			{
				"x": -0.9790362829,
				"y": 1.3812400324,
				"z": -2.4555676057,
				"element": "H" 
			}
		],
		 "valence_orbital": [ 
			{
				"type": "occ",
				"energy": -0.37389,
				"method": "rhf"
			},
			{
				"type": "occ",
				"energy": -0.35741,
				"method": "rhf"
			},
			{
				"type": "occ",
				"energy": -0.32286,
				"method": "rhf"
			},
			{
				"type": "occ",
				"energy": -0.25837,
				"method": "rhf"
			},
			{
				"type": "occ",
				"energy": -0.22348,
				"method": "rhf"
			},
			{
				"type": "unocc",
				"energy": -0.01404,
				"method": "rhf"
			},
			{
				"type": "unocc",
				"energy": -0.00667,
				"method": "rhf"
			},
			{
				"type": "unocc",
				"energy": 0.06524,
				"method": "rhf"
			},
			{
				"type": "unocc",
				"energy": 0.09162,
				"method": "rhf"
			},
			{
				"type": "unocc",
				"energy": 0.10396,
				"method": "rhf"
			}
		],
		"cosmo_sigma_profile": { 
			"-0.025": 0.0,
			"-0.024": 0.0,
			"-0.023": 0.0,
			"-0.022": 0.0,
			"-0.021": 0.0,
			"-0.02": 0.0,
			"-0.019": 0.0,
			"-0.018": 0.0,
			"-0.017": 0.0,
			"-0.016": 0.0,
			"-0.015": 0.0,
			"-0.014": 0.216949901145,
			"-0.013": 2.91676421087,
			"-0.012": 2.65813840351,
			"-0.011": 3.2105922749,
			"-0.01": 3.85805324735,
			"-0.009": 2.97633376641,
			"-0.008": 3.23767730996,
			"-0.007": 5.30327991688,
			"-0.006": 5.54962121556,
			"-0.005": 5.93463582779,
			"-0.004": 4.95690991006,
			"-0.003": 5.41568509451,
			"-0.002": 5.80532463402,
			"-0.001": 7.4927768594,
			"0.0": 10.5045952618,
			"0.001": 16.0842665378,
			"0.002": 21.1929030949,
			"0.003": 44.4585568243,
			"0.004": 25.6139713592,
			"0.005": 2.63311928236,
			"0.006": 0.742158463879,
			"0.007": 0.822468440614,
			"0.008": 0.592657452109,
			"0.009": 0.99360675515,
			"0.01": 0.682104254397,
			"0.011": 0.575293017962,
			"0.012": 0.416569553829,
			"0.013": 0.1620036413,
			"0.014": 0.0,
			"0.015": 0.0,
			"0.016": 0.0,
			"0.017": 0.0,
			"0.018": 0.0,
			"0.019": 0.0,
			"0.02": 0.0,
			"0.021": 0.0,
			"0.022": 0.0,
			"0.023": 0.0,
			"0.024": 0.0,
			"0.025": 0.0
		}
	}
}
