{
	 "smiles": "CC(=O)NC1=CC=CC=C1N", 
	 "Tm": 408.15, 
	 "num_atms": 21, 
	 "gaussian": { 
		 "optdone": 1, 
		 "sigma_profile": "yes", 
		 "theory": "DFT", 
		 "functional": "B3LYP", 
		 "basiset": "6-31G**", 
		 "properties": { 
			 "R2extent": 1996.6154, 
			 "electric_dipole_moment_norm": 2.1893660498, 
			 "electric_quadrupole_moment_norm": 12.7756207939, 
			 "total_energy": -495.630404954, 
			 "HOMO_LUMO_gap": 0.18729, 
			 "cosmo_polarized_energy": -13.72, 
			 "cosmo_cavitation_energy": 24.33, 
			 "cosmo_dispersion_energy": -18.21, 
			 "cosmo_repulsion_energy": 1.47, 
			 "cosmo_total_nonelectrostatic_energy": 7.59, 
			 "SMD_solvation_energy": 4.71 
		},
		"coords": [
			{
				"x": 1.0391335701,
				"y": 1.0625553398,
				"z": 3.2448215359,
				"element": "C" 
			},
			{
				"x": 0.1466988756,
				"y": 0.4913398035,
				"z": 2.1538106041,
				"element": "C" 
			},
			{
				"x": -0.6287729671,
				"y": -0.4350468533,
				"z": 2.3876538053,
				"element": "O" 
			},
			{
				"x": 0.3005637384,
				"y": 1.0616792684,
				"z": 0.9204569917,
				"element": "N" 
			},
			{
				"x": -0.4306695703,
				"y": 0.8054993503,
				"z": -0.2796868394,
				"element": "C" 
			},
			{
				"x": -0.8273667701,
				"y": 1.9188735567,
				"z": -1.0294523334,
				"element": "C" 
			},
			{
				"x": -1.4553716156,
				"y": 1.7819425199,
				"z": -2.2637322853,
				"element": "C" 
			},
			{
				"x": -1.7051236854,
				"y": 0.4974530228,
				"z": -2.7521703702,
				"element": "C" 
			},
			{
				"x": -1.3298613661,
				"y": -0.6163956543,
				"z": -2.0106962362,
				"element": "C" 
			},
			{
				"x": -0.6742635505,
				"y": -0.5015379002,
				"z": -0.7685399365,
				"element": "C" 
			},
			{
				"x": -0.2199197284,
				"y": -1.6288959005,
				"z": -0.0954371065,
				"element": "N" 
			},
			{
				"x": 1.7810497305,
				"y": 0.30826057,
				"z": 3.5243378502,
				"element": "H" 
			},
			{
				"x": 1.562789529,
				"y": 1.9793075839,
				"z": 2.9602479925,
				"element": "H" 
			},
			{
				"x": 0.424302643,
				"y": 1.2575889938,
				"z": 4.126451925,
				"element": "H" 
			},
			{
				"x": 0.911905335,
				"y": 1.8643103639,
				"z": 0.876385989,
				"element": "H" 
			},
			{
				"x": -0.6341776758,
				"y": 2.9100056581,
				"z": -0.624987907,
				"element": "H" 
			},
			{
				"x": -1.7505243728,
				"y": 2.6608638306,
				"z": -2.8274228475,
				"element": "H" 
			},
			{
				"x": -2.1993076351,
				"y": 0.3612372007,
				"z": -3.7098360424,
				"element": "H" 
			},
			{
				"x": -1.527639114,
				"y": -1.6143535493,
				"z": -2.3951882381,
				"element": "H" 
			},
			{
				"x": -0.3495333035,
				"y": -1.5661107463,
				"z": 0.9143005541,
				"element": "H" 
			},
			{
				"x": -0.5872120669,
				"y": -2.4922764585,
				"z": -0.4744171052,
				"element": "H" 
			}
		],
		 "valence_orbital": [ 
			{
				"type": "occ",
				"energy": -0.30096,
				"method": "rhf"
			},
			{
				"type": "occ",
				"energy": -0.29101,
				"method": "rhf"
			},
			{
				"type": "occ",
				"energy": -0.2586,
				"method": "rhf"
			},
			{
				"type": "occ",
				"energy": -0.2318,
				"method": "rhf"
			},
			{
				"type": "occ",
				"energy": -0.19512,
				"method": "rhf"
			},
			{
				"type": "unocc",
				"energy": -0.00783,
				"method": "rhf"
			},
			{
				"type": "unocc",
				"energy": 0.018,
				"method": "rhf"
			},
			{
				"type": "unocc",
				"energy": 0.03362,
				"method": "rhf"
			},
			{
				"type": "unocc",
				"energy": 0.06953,
				"method": "rhf"
			},
			{
				"type": "unocc",
				"energy": 0.0983,
				"method": "rhf"
			}
		],
		"cosmo_sigma_profile": { 
			"-0.025": 0.0,
			"-0.024": 0.0,
			"-0.023": 0.0,
			"-0.022": 0.0,
			"-0.021": 0.0,
			"-0.02": 0.0,
			"-0.019": 0.0,
			"-0.018": 0.0,
			"-0.017": 0.0,
			"-0.016": 0.0,
			"-0.015": 0.669532885982,
			"-0.014": 1.0531878005,
			"-0.013": 1.45835933057,
			"-0.012": 1.89025046583,
			"-0.011": 2.37581459057,
			"-0.01": 3.50567901124,
			"-0.009": 3.24993162598,
			"-0.008": 3.7203764581,
			"-0.007": 3.76415584842,
			"-0.006": 8.44682967661,
			"-0.005": 13.7334238563,
			"-0.004": 14.221751263,
			"-0.003": 16.2811164427,
			"-0.002": 14.9856776569,
			"-0.001": 12.3877913644,
			"0.0": 8.98993984076,
			"0.001": 7.93695070302,
			"0.002": 7.46103279325,
			"0.003": 8.54513770007,
			"0.004": 9.89869712292,
			"0.005": 11.0303797615,
			"0.006": 11.4620177533,
			"0.007": 6.59655443816,
			"0.008": 2.55240314408,
			"0.009": 2.13407948112,
			"0.01": 3.03645195411,
			"0.011": 2.15465955159,
			"0.012": 2.72112244171,
			"0.013": 3.58948448523,
			"0.014": 2.41401881639,
			"0.015": 0.733289868204,
			"0.016": 0.050186930611,
			"0.017": 0.0,
			"0.018": 0.0,
			"0.019": 0.0,
			"0.02": 0.0,
			"0.021": 0.0,
			"0.022": 0.0,
			"0.023": 0.0,
			"0.024": 0.0,
			"0.025": 0.0
		}
	}
}
