{
	 "smiles": "CC(C)(C)OC(=O)NN1CC(CC1=O)C(O)=O", 
	 "Tm": 443.15, 
	 "num_atms": 33, 
	 "gaussian": { 
		 "optdone": 1, 
		 "sigma_profile": "yes", 
		 "theory": "DFT", 
		 "functional": "B3LYP", 
		 "basiset": "6-31G**", 
		 "properties": { 
			 "R2extent": 6228.9986, 
			 "electric_dipole_moment_norm": 5.26786547379, 
			 "electric_quadrupole_moment_norm": 26.7667661162, 
			 "total_energy": -876.353894312, 
			 "HOMO_LUMO_gap": 0.24905, 
			 "cosmo_polarized_energy": -25.16, 
			 "cosmo_cavitation_energy": 36.38, 
			 "cosmo_dispersion_energy": -25.09, 
			 "cosmo_repulsion_energy": 1.99, 
			 "cosmo_total_nonelectrostatic_energy": 13.28, 
			 "SMD_solvation_energy": 8.4 
		},
		"coords": [
			{
				"x": -2.782592331,
				"y": -0.1443402898,
				"z": -3.0563917576,
				"element": "C" 
			},
			{
				"x": -1.4967612469,
				"y": 0.2106197973,
				"z": -2.3074018498,
				"element": "C" 
			},
			{
				"x": -1.2718936876,
				"y": 1.7252231405,
				"z": -2.2876720332,
				"element": "C" 
			},
			{
				"x": -0.298576472,
				"y": -0.5525317196,
				"z": -2.8788999797,
				"element": "C" 
			},
			{
				"x": -1.7836174111,
				"y": -0.2687571553,
				"z": -0.9374708884,
				"element": "O" 
			},
			{
				"x": -0.8779877774,
				"y": -0.1400600331,
				"z": 0.042499829,
				"element": "C" 
			},
			{
				"x": 0.2307611684,
				"y": 0.3524591786,
				"z": -0.0167586791,
				"element": "O" 
			},
			{
				"x": -1.4427132395,
				"y": -0.6121108605,
				"z": 1.2342586926,
				"element": "N" 
			},
			{
				"x": -0.5620887407,
				"y": -0.930439949,
				"z": 2.2535924899,
				"element": "N" 
			},
			{
				"x": -0.104529607,
				"y": 0.1105429016,
				"z": 3.1662051853,
				"element": "C" 
			},
			{
				"x": 0.8699424657,
				"y": -0.6846162042,
				"z": 4.081661502,
				"element": "C" 
			},
			{
				"x": 1.4028376474,
				"y": -1.8060825394,
				"z": 3.1768714339,
				"element": "C" 
			},
			{
				"x": 0.3417471031,
				"y": -1.9799508089,
				"z": 2.1009264921,
				"element": "C" 
			},
			{
				"x": 0.2491911242,
				"y": -2.8445942878,
				"z": 1.2544474215,
				"element": "O" 
			},
			{
				"x": 1.9615310171,
				"y": 0.2021916413,
				"z": 4.6717951948,
				"element": "C" 
			},
			{
				"x": 1.5242789496,
				"y": 1.1429867991,
				"z": 5.5518154413,
				"element": "O" 
			},
			{
				"x": 3.1314017696,
				"y": 0.1267441789,
				"z": 4.3975894576,
				"element": "O" 
			},
			{
				"x": -2.9633353797,
				"y": -1.2225304348,
				"z": -3.0242720093,
				"element": "H" 
			},
			{
				"x": -2.7011459808,
				"y": 0.1621601835,
				"z": -4.1033051424,
				"element": "H" 
			},
			{
				"x": -3.6430065046,
				"y": 0.3646229617,
				"z": -2.6123053595,
				"element": "H" 
			},
			{
				"x": -2.1270947753,
				"y": 2.2323037593,
				"z": -1.8298428818,
				"element": "H" 
			},
			{
				"x": -0.368346884,
				"y": 1.9809569942,
				"z": -1.7333166529,
				"element": "H" 
			},
			{
				"x": -1.1697192582,
				"y": 2.0919720565,
				"z": -3.3139973876,
				"element": "H" 
			},
			{
				"x": -0.16263383,
				"y": -0.2814921659,
				"z": -3.9308239698,
				"element": "H" 
			},
			{
				"x": -0.4727238158,
				"y": -1.6312982485,
				"z": -2.823777977,
				"element": "H" 
			},
			{
				"x": 0.6155393567,
				"y": -0.3154687336,
				"z": -2.3340187119,
				"element": "H" 
			},
			{
				"x": -2.1996506921,
				"y": -1.2755954979,
				"z": 1.1227465481,
				"element": "H" 
			},
			{
				"x": -0.9503835256,
				"y": 0.5451203341,
				"z": 3.7086540601,
				"element": "H" 
			},
			{
				"x": 0.4110950434,
				"y": 0.9066285811,
				"z": 2.6147060001,
				"element": "H" 
			},
			{
				"x": 0.2912597178,
				"y": -1.1181780804,
				"z": 4.9077318589,
				"element": "H" 
			},
			{
				"x": 2.3369548169,
				"y": -1.4925345721,
				"z": 2.6981914782,
				"element": "H" 
			},
			{
				"x": 1.5981087583,
				"y": -2.7444144456,
				"z": 3.6993347324,
				"element": "H" 
			},
			{
				"x": 0.5694522211,
				"y": 1.0638635187,
				"z": 5.6888274621,
				"element": "H" 
			}
		],
		 "valence_orbital": [ 
			{
				"type": "occ",
				"energy": -0.29408,
				"method": "rhf"
			},
			{
				"type": "occ",
				"energy": -0.28395,
				"method": "rhf"
			},
			{
				"type": "occ",
				"energy": -0.28294,
				"method": "rhf"
			},
			{
				"type": "occ",
				"energy": -0.26979,
				"method": "rhf"
			},
			{
				"type": "occ",
				"energy": -0.25325,
				"method": "rhf"
			},
			{
				"type": "unocc",
				"energy": -0.0042,
				"method": "rhf"
			},
			{
				"type": "unocc",
				"energy": 0.01152,
				"method": "rhf"
			},
			{
				"type": "unocc",
				"energy": 0.03238,
				"method": "rhf"
			},
			{
				"type": "unocc",
				"energy": 0.03737,
				"method": "rhf"
			},
			{
				"type": "unocc",
				"energy": 0.0796,
				"method": "rhf"
			}
		],
		"cosmo_sigma_profile": { 
			"-0.025": 0.0,
			"-0.024": 0.0,
			"-0.023": 0.0,
			"-0.022": 0.0,
			"-0.021": 0.0,
			"-0.02": 0.102195915336,
			"-0.019": 0.812267299182,
			"-0.018": 1.57417426348,
			"-0.017": 1.16969084444,
			"-0.016": 1.02322225058,
			"-0.015": 1.38959543672,
			"-0.014": 2.6197813848,
			"-0.013": 1.33590615719,
			"-0.012": 2.533675463,
			"-0.011": 2.10938986959,
			"-0.01": 1.92532108558,
			"-0.009": 2.80551681845,
			"-0.008": 4.2145668917,
			"-0.007": 8.44191064672,
			"-0.006": 12.2171139689,
			"-0.005": 12.1606262545,
			"-0.004": 21.2376623098,
			"-0.003": 21.8530868773,
			"-0.002": 20.9718202723,
			"-0.001": 24.1291550291,
			"0.0": 29.6710373187,
			"0.001": 17.950317409,
			"0.002": 8.96087662195,
			"0.003": 8.56943606843,
			"0.004": 7.89274916468,
			"0.005": 7.62482681576,
			"0.006": 7.70538341029,
			"0.007": 7.01375729275,
			"0.008": 5.89416280721,
			"0.009": 7.06729970864,
			"0.01": 7.85512480906,
			"0.011": 9.69106488467,
			"0.012": 8.58390648456,
			"0.013": 4.47756528635,
			"0.014": 0.851598964276,
			"0.015": 0.0,
			"0.016": 0.0,
			"0.017": 0.0,
			"0.018": 0.0,
			"0.019": 0.0,
			"0.02": 0.0,
			"0.021": 0.0,
			"0.022": 0.0,
			"0.023": 0.0,
			"0.024": 0.0,
			"0.025": 0.0
		}
	}
}
