{
	 "smiles": "NC(=NO)C1=CC=C(OCC2=CC=CC=C2)C=C1", 
	 "Tm": 441.15, 
	 "num_atms": 32, 
	 "gaussian": { 
		 "optdone": 1, 
		 "sigma_profile": "yes", 
		 "theory": "DFT", 
		 "functional": "B3LYP", 
		 "basiset": "6-31G**", 
		 "properties": { 
			 "R2extent": 7971.8766, 
			 "electric_dipole_moment_norm": 1.92930029285, 
			 "electric_quadrupole_moment_norm": 13.3380224929, 
			 "total_energy": -801.814260092, 
			 "HOMO_LUMO_gap": 0.18247, 
			 "cosmo_polarized_energy": -15.21, 
			 "cosmo_cavitation_energy": 36.62, 
			 "cosmo_dispersion_energy": -26.74, 
			 "cosmo_repulsion_energy": 2.08, 
			 "cosmo_total_nonelectrostatic_energy": 11.95, 
			 "SMD_solvation_energy": 6.32 
		},
		"coords": [
			{
				"x": 4.712357562,
				"y": 0.7711782707,
				"z": -2.2607030112,
				"element": "N" 
			},
			{
				"x": 3.7194843739,
				"y": 1.7542890817,
				"z": -2.1217714417,
				"element": "C" 
			},
			{
				"x": 3.9689376102,
				"y": 2.8752167201,
				"z": -2.7133790179,
				"element": "N" 
			},
			{
				"x": 2.8631650175,
				"y": 3.7614208567,
				"z": -2.7180439715,
				"element": "O" 
			},
			{
				"x": 2.515131018,
				"y": 1.3418973372,
				"z": -1.3620189689,
				"element": "C" 
			},
			{
				"x": 1.7489397562,
				"y": 2.2539539585,
				"z": -0.6086368904,
				"element": "C" 
			},
			{
				"x": 0.6591847837,
				"y": 1.8231817457,
				"z": 0.1311233918,
				"element": "C" 
			},
			{
				"x": 0.291016982,
				"y": 0.4680872777,
				"z": 0.1355060459,
				"element": "C" 
			},
			{
				"x": -0.7980603375,
				"y": 0.1545241527,
				"z": 0.8934240059,
				"element": "O" 
			},
			{
				"x": -1.2577290586,
				"y": -1.1957723764,
				"z": 0.9032719251,
				"element": "C" 
			},
			{
				"x": -2.5112177576,
				"y": -1.2852090641,
				"z": 1.7405360091,
				"element": "C" 
			},
			{
				"x": -3.4730514652,
				"y": -0.2680507489,
				"z": 1.7063827973,
				"element": "C" 
			},
			{
				"x": -4.6489425876,
				"y": -0.3859474095,
				"z": 2.4468453333,
				"element": "C" 
			},
			{
				"x": -4.8818738024,
				"y": -1.5241233176,
				"z": 3.2225958976,
				"element": "C" 
			},
			{
				"x": -3.9276884767,
				"y": -2.5415277177,
				"z": 3.2599449836,
				"element": "C" 
			},
			{
				"x": -2.7463608495,
				"y": -2.4184249693,
				"z": 2.5262901729,
				"element": "C" 
			},
			{
				"x": 1.0390032269,
				"y": -0.4521493124,
				"z": -0.6083193098,
				"element": "C" 
			},
			{
				"x": 2.1402382453,
				"y": -0.0088818638,
				"z": -1.3422123437,
				"element": "C" 
			},
			{
				"x": 5.5264033836,
				"y": 1.1378163417,
				"z": -2.7420122547,
				"element": "H" 
			},
			{
				"x": 4.9638146286,
				"y": 0.3247057634,
				"z": -1.385606532,
				"element": "H" 
			},
			{
				"x": 3.2208256061,
				"y": 4.5032321778,
				"z": -3.2216320235,
				"element": "H" 
			},
			{
				"x": 2.0151644007,
				"y": 3.3026419604,
				"z": -0.613266287,
				"element": "H" 
			},
			{
				"x": 0.0696228471,
				"y": 2.5199180936,
				"z": 0.7180400502,
				"element": "H" 
			},
			{
				"x": -0.4812203416,
				"y": -1.8600958704,
				"z": 1.3070391668,
				"element": "H" 
			},
			{
				"x": -1.4624276482,
				"y": -1.51726104,
				"z": -0.1295703204,
				"element": "H" 
			},
			{
				"x": -3.2867877674,
				"y": 0.618773979,
				"z": 1.1095117988,
				"element": "H" 
			},
			{
				"x": -5.3855435744,
				"y": 0.4120650359,
				"z": 2.4177604675,
				"element": "H" 
			},
			{
				"x": -5.7989434761,
				"y": -1.6145284089,
				"z": 3.797647037,
				"element": "H" 
			},
			{
				"x": -4.0964605795,
				"y": -3.4265104702,
				"z": 3.8668500885,
				"element": "H" 
			},
			{
				"x": -2.0003796561,
				"y": -3.2087088036,
				"z": 2.5682673556,
				"element": "H" 
			},
			{
				"x": 0.7785906993,
				"y": -1.503589444,
				"z": -0.6264911536,
				"element": "H" 
			},
			{
				"x": 2.7126072374,
				"y": -0.7225219358,
				"z": -1.9255730007,
				"element": "H" 
			}
		],
		 "valence_orbital": [ 
			{
				"type": "occ",
				"energy": -0.25198,
				"method": "rhf"
			},
			{
				"type": "occ",
				"energy": -0.25101,
				"method": "rhf"
			},
			{
				"type": "occ",
				"energy": -0.24682,
				"method": "rhf"
			},
			{
				"type": "occ",
				"energy": -0.22961,
				"method": "rhf"
			},
			{
				"type": "occ",
				"energy": -0.20035,
				"method": "rhf"
			},
			{
				"type": "unocc",
				"energy": -0.01788,
				"method": "rhf"
			},
			{
				"type": "unocc",
				"energy": -0.00689,
				"method": "rhf"
			},
			{
				"type": "unocc",
				"energy": -0.00318,
				"method": "rhf"
			},
			{
				"type": "unocc",
				"energy": 0.00056,
				"method": "rhf"
			},
			{
				"type": "unocc",
				"energy": 0.0662,
				"method": "rhf"
			}
		],
		"cosmo_sigma_profile": { 
			"-0.025": 0.0,
			"-0.024": 0.0,
			"-0.023": 0.0,
			"-0.022": 0.0,
			"-0.021": 0.0,
			"-0.02": 0.0,
			"-0.019": 0.0,
			"-0.018": 0.0,
			"-0.017": 0.125210316867,
			"-0.016": 0.876023154056,
			"-0.015": 1.3200218027,
			"-0.014": 0.437615383322,
			"-0.013": 0.822464126889,
			"-0.012": 2.68413904832,
			"-0.011": 2.95548601162,
			"-0.01": 2.99871397652,
			"-0.009": 2.74960268731,
			"-0.008": 2.74162978204,
			"-0.007": 5.58906007857,
			"-0.006": 16.9276998718,
			"-0.005": 22.8795486794,
			"-0.004": 22.2018770633,
			"-0.003": 18.8013767651,
			"-0.002": 17.2804962049,
			"-0.001": 15.9248989764,
			"0.0": 13.448103946,
			"0.001": 15.7998057002,
			"0.002": 18.0403272649,
			"0.003": 21.5162491781,
			"0.004": 23.1458615572,
			"0.005": 21.9289280233,
			"0.006": 14.598107421,
			"0.007": 5.10465468205,
			"0.008": 5.13917252532,
			"0.009": 5.33820210575,
			"0.01": 3.25584671593,
			"0.011": 2.86603307558,
			"0.012": 1.77337172301,
			"0.013": 1.46743053772,
			"0.014": 0.643564518096,
			"0.015": 0.00349626173465,
			"0.016": 0.0,
			"0.017": 0.0,
			"0.018": 0.0,
			"0.019": 0.0,
			"0.02": 0.0,
			"0.021": 0.0,
			"0.022": 0.0,
			"0.023": 0.0,
			"0.024": 0.0,
			"0.025": 0.0
		}
	}
}
