{
	 "smiles": "O=C(CN1C=CN=C1N(=O)=O)NCC1=CC=CC=C1", 
	 "Tm": 462.15, 
	 "num_atms": 31, 
	 "gaussian": { 
		 "optdone": 1, 
		 "sigma_profile": "yes", 
		 "theory": "DFT", 
		 "functional": "B3LYP", 
		 "basiset": "6-31G**", 
		 "properties": { 
			 "R2extent": 5643.3867, 
			 "electric_dipole_moment_norm": 6.79627431245, 
			 "electric_quadrupole_moment_norm": 16.6315877567, 
			 "total_energy": -909.077337947, 
			 "HOMO_LUMO_gap": 0.16557, 
			 "cosmo_polarized_energy": -22.37, 
			 "cosmo_cavitation_energy": 36.16, 
			 "cosmo_dispersion_energy": -24.92, 
			 "cosmo_repulsion_energy": 1.93, 
			 "cosmo_total_nonelectrostatic_energy": 13.17, 
			 "SMD_solvation_energy": 7.25 
		},
		"coords": [
			{
				"x": 0.7018701885,
				"y": -1.8635177031,
				"z": -1.252519238,
				"element": "O" 
			},
			{
				"x": 0.6879913433,
				"y": -0.9304630056,
				"z": -0.4649470081,
				"element": "C" 
			},
			{
				"x": -0.3774310019,
				"y": 0.1760111149,
				"z": -0.5820314976,
				"element": "C" 
			},
			{
				"x": -1.6178038417,
				"y": -0.3683203939,
				"z": -1.1208824076,
				"element": "N" 
			},
			{
				"x": -1.9942322606,
				"y": -0.3013622065,
				"z": -2.4341814519,
				"element": "C" 
			},
			{
				"x": -3.1937261534,
				"y": -0.9807399436,
				"z": -2.5360749469,
				"element": "C" 
			},
			{
				"x": -3.563788733,
				"y": -1.4757605623,
				"z": -1.3245057998,
				"element": "N" 
			},
			{
				"x": -2.6029991789,
				"y": -1.1063631779,
				"z": -0.505476717,
				"element": "C" 
			},
			{
				"x": -2.5830804917,
				"y": -1.4422754149,
				"z": 0.8922346761,
				"element": "N" 
			},
			{
				"x": -1.5711557547,
				"y": -1.1156528113,
				"z": 1.5389990576,
				"element": "O" 
			},
			{
				"x": -3.5522551149,
				"y": -2.0252376735,
				"z": 1.3565231608,
				"element": "O" 
			},
			{
				"x": 1.6445759077,
				"y": -0.7635915961,
				"z": 0.4953458031,
				"element": "N" 
			},
			{
				"x": 1.6100705382,
				"y": 0.1439076766,
				"z": 1.6420017612,
				"element": "C" 
			},
			{
				"x": 1.8699050918,
				"y": 1.6063485758,
				"z": 1.3108512439,
				"element": "C" 
			},
			{
				"x": 1.2425355242,
				"y": 2.6075924146,
				"z": 2.0624022609,
				"element": "C" 
			},
			{
				"x": 1.5013163695,
				"y": 3.9558049639,
				"z": 1.8090685057,
				"element": "C" 
			},
			{
				"x": 2.3871385131,
				"y": 4.3191437794,
				"z": 0.7934273338,
				"element": "C" 
			},
			{
				"x": 3.0124445347,
				"y": 3.3268553362,
				"z": 0.0351558245,
				"element": "C" 
			},
			{
				"x": 2.7564032354,
				"y": 1.9793854506,
				"z": 0.2928271317,
				"element": "C" 
			},
			{
				"x": -0.0111310515,
				"y": 0.9225992245,
				"z": -1.2925429289,
				"element": "H" 
			},
			{
				"x": -0.5787279249,
				"y": 0.677094407,
				"z": 0.3602675104,
				"element": "H" 
			},
			{
				"x": -1.3875861346,
				"y": 0.2108417676,
				"z": -3.1653087426,
				"element": "H" 
			},
			{
				"x": -3.7974562439,
				"y": -1.133846897,
				"z": -3.4192354317,
				"element": "H" 
			},
			{
				"x": 2.3047704721,
				"y": -1.5295128806,
				"z": 0.5167736467,
				"element": "H" 
			},
			{
				"x": 0.6587108722,
				"y": 0.0435737566,
				"z": 2.1765573176,
				"element": "H" 
			},
			{
				"x": 2.3842769489,
				"y": -0.2124858626,
				"z": 2.3305834617,
				"element": "H" 
			},
			{
				"x": 0.5464332183,
				"y": 2.3302642259,
				"z": 2.8508437583,
				"element": "H" 
			},
			{
				"x": 1.0050644129,
				"y": 4.7204824392,
				"z": 2.3997091365,
				"element": "H" 
			},
			{
				"x": 2.5859348147,
				"y": 5.3675348464,
				"z": 0.5912832928,
				"element": "H" 
			},
			{
				"x": 3.7018206548,
				"y": 3.6018987649,
				"z": -0.7581643183,
				"element": "H" 
			},
			{
				"x": 3.2399112453,
				"y": 1.2093913848,
				"z": -0.301584395,
				"element": "H" 
			}
		],
		 "valence_orbital": [ 
			{
				"type": "occ",
				"energy": -0.27273,
				"method": "rhf"
			},
			{
				"type": "occ",
				"energy": -0.26894,
				"method": "rhf"
			},
			{
				"type": "occ",
				"energy": -0.26512,
				"method": "rhf"
			},
			{
				"type": "occ",
				"energy": -0.25701,
				"method": "rhf"
			},
			{
				"type": "occ",
				"energy": -0.25289,
				"method": "rhf"
			},
			{
				"type": "unocc",
				"energy": -0.08732,
				"method": "rhf"
			},
			{
				"type": "unocc",
				"energy": -0.02019,
				"method": "rhf"
			},
			{
				"type": "unocc",
				"energy": -0.01814,
				"method": "rhf"
			},
			{
				"type": "unocc",
				"energy": 0.00639,
				"method": "rhf"
			},
			{
				"type": "unocc",
				"energy": 0.02315,
				"method": "rhf"
			}
		],
		"cosmo_sigma_profile": { 
			"-0.025": 0.0,
			"-0.024": 0.0,
			"-0.023": 0.0,
			"-0.022": 0.0,
			"-0.021": 0.0,
			"-0.02": 0.0,
			"-0.019": 0.0,
			"-0.018": 0.0,
			"-0.017": 0.0,
			"-0.016": 0.0,
			"-0.015": 0.0454033642445,
			"-0.014": 1.16716639181,
			"-0.013": 1.43221872425,
			"-0.012": 1.66629186865,
			"-0.011": 3.72518851435,
			"-0.01": 5.02895663224,
			"-0.009": 4.46776700017,
			"-0.008": 7.08084523116,
			"-0.007": 9.30596657941,
			"-0.006": 17.4626101613,
			"-0.005": 21.3434846006,
			"-0.004": 21.7674850257,
			"-0.003": 22.2292447307,
			"-0.002": 17.3698460344,
			"-0.001": 14.6969609776,
			"0.0": 13.7602046214,
			"0.001": 15.5409183709,
			"0.002": 15.2990089938,
			"0.003": 12.614177456,
			"0.004": 13.1845046737,
			"0.005": 13.4498284133,
			"0.006": 10.3353284196,
			"0.007": 8.48421970783,
			"0.008": 8.48275224254,
			"0.009": 6.49647479726,
			"0.01": 4.99364708879,
			"0.011": 3.41843923185,
			"0.012": 4.24704932719,
			"0.013": 6.35863483801,
			"0.014": 2.22153256297,
			"0.015": 1.12705508799,
			"0.016": 0.190465903523,
			"0.017": 0.0,
			"0.018": 0.0,
			"0.019": 0.0,
			"0.02": 0.0,
			"0.021": 0.0,
			"0.022": 0.0,
			"0.023": 0.0,
			"0.024": 0.0,
			"0.025": 0.0
		}
	}
}
