{
	 "smiles": "CN1C(C)=C(C2=C1C=CC=C2)C1=CC=CC=C1", 
	 "Tm": 384.15, 
	 "num_atms": 32, 
	 "gaussian": { 
		 "optdone": 1, 
		 "sigma_profile": "yes", 
		 "theory": "DFT", 
		 "functional": "B3LYP", 
		 "basiset": "6-31G**", 
		 "properties": { 
			 "R2extent": 4839.3207, 
			 "electric_dipole_moment_norm": 2.72675920646, 
			 "electric_quadrupole_moment_norm": 12.3036123862, 
			 "total_energy": -673.514693742, 
			 "HOMO_LUMO_gap": 0.17733, 
			 "cosmo_polarized_energy": -8.42, 
			 "cosmo_cavitation_energy": 34.28, 
			 "cosmo_dispersion_energy": -24.61, 
			 "cosmo_repulsion_energy": 1.88, 
			 "cosmo_total_nonelectrostatic_energy": 11.55, 
			 "SMD_solvation_energy": 5.28 
		},
		"coords": [
			{
				"x": -2.2376545289,
				"y": 0.2135898289,
				"z": -2.3349276487,
				"element": "C" 
			},
			{
				"x": -1.3632751151,
				"y": 0.5329475195,
				"z": -1.224862798,
				"element": "N" 
			},
			{
				"x": -1.6732530965,
				"y": 0.4591281954,
				"z": 0.1304758115,
				"element": "C" 
			},
			{
				"x": -3.0244979611,
				"y": 0.0128710995,
				"z": 0.592000141,
				"element": "C" 
			},
			{
				"x": -0.555576572,
				"y": 0.7914413759,
				"z": 0.8773441256,
				"element": "C" 
			},
			{
				"x": 0.5050546052,
				"y": 1.0734029317,
				"z": -0.0634216082,
				"element": "C" 
			},
			{
				"x": -0.0365379712,
				"y": 0.8993427295,
				"z": -1.3639167233,
				"element": "C" 
			},
			{
				"x": 0.7217293679,
				"y": 1.0988576479,
				"z": -2.5227555183,
				"element": "C" 
			},
			{
				"x": 2.0471572152,
				"y": 1.4927345468,
				"z": -2.3648045653,
				"element": "C" 
			},
			{
				"x": 2.6000893129,
				"y": 1.6881281825,
				"z": -1.0841328208,
				"element": "C" 
			},
			{
				"x": 1.8419055258,
				"y": 1.4861271523,
				"z": 0.0638708002,
				"element": "C" 
			},
			{
				"x": -0.4484520743,
				"y": 0.8418385317,
				"z": 2.3473805855,
				"element": "C" 
			},
			{
				"x": 0.6333251064,
				"y": 0.2270189926,
				"z": 3.0057803071,
				"element": "C" 
			},
			{
				"x": 0.7498678202,
				"y": 0.2725908711,
				"z": 4.3942614482,
				"element": "C" 
			},
			{
				"x": -0.2153081002,
				"y": 0.9281027138,
				"z": 5.1621404468,
				"element": "C" 
			},
			{
				"x": -1.2932575402,
				"y": 1.5453841598,
				"z": 4.5255625972,
				"element": "C" 
			},
			{
				"x": -1.403624888,
				"y": 1.5099704945,
				"z": 3.1352219404,
				"element": "C" 
			},
			{
				"x": -2.1630073836,
				"y": 0.987000596,
				"z": -3.1060407794,
				"element": "H" 
			},
			{
				"x": -1.9839867678,
				"y": -0.7531330276,
				"z": -2.7880506244,
				"element": "H" 
			},
			{
				"x": -3.2722449452,
				"y": 0.1757010897,
				"z": -1.9936778152,
				"element": "H" 
			},
			{
				"x": -3.0219028755,
				"y": -0.1052950719,
				"z": 1.6764217782,
				"element": "H" 
			},
			{
				"x": -3.8143069589,
				"y": 0.7317431368,
				"z": 0.3376181723,
				"element": "H" 
			},
			{
				"x": -3.3061336039,
				"y": -0.9510945391,
				"z": 0.1510197959,
				"element": "H" 
			},
			{
				"x": 0.2981358823,
				"y": 0.9521977595,
				"z": -3.5117844914,
				"element": "H" 
			},
			{
				"x": 2.6637814044,
				"y": 1.6538620719,
				"z": -3.2443496954,
				"element": "H" 
			},
			{
				"x": 3.6354645863,
				"y": 2.0041298062,
				"z": -0.9945689162,
				"element": "H" 
			},
			{
				"x": 2.2741580487,
				"y": 1.648423335,
				"z": 1.0466017767,
				"element": "H" 
			},
			{
				"x": 1.3757401151,
				"y": -0.3043705952,
				"z": 2.4179252282,
				"element": "H" 
			},
			{
				"x": 1.5925726613,
				"y": -0.2131440004,
				"z": 4.8788606635,
				"element": "H" 
			},
			{
				"x": -0.1255026384,
				"y": 0.9610404572,
				"z": 6.244153764,
				"element": "H" 
			},
			{
				"x": -2.0440516076,
				"y": 2.0692998044,
				"z": 5.1110516826,
				"element": "H" 
			},
			{
				"x": -2.2246070233,
				"y": 2.0268622038,
				"z": 2.6470029397,
				"element": "H" 
			}
		],
		 "valence_orbital": [ 
			{
				"type": "occ",
				"energy": -0.27149,
				"method": "rhf"
			},
			{
				"type": "occ",
				"energy": -0.24265,
				"method": "rhf"
			},
			{
				"type": "occ",
				"energy": -0.2391,
				"method": "rhf"
			},
			{
				"type": "occ",
				"energy": -0.21064,
				"method": "rhf"
			},
			{
				"type": "occ",
				"energy": -0.18595,
				"method": "rhf"
			},
			{
				"type": "unocc",
				"energy": -0.00862,
				"method": "rhf"
			},
			{
				"type": "unocc",
				"energy": 0.00535,
				"method": "rhf"
			},
			{
				"type": "unocc",
				"energy": 0.00602,
				"method": "rhf"
			},
			{
				"type": "unocc",
				"energy": 0.03148,
				"method": "rhf"
			},
			{
				"type": "unocc",
				"energy": 0.08152,
				"method": "rhf"
			}
		],
		"cosmo_sigma_profile": { 
			"-0.025": 0.0,
			"-0.024": 0.0,
			"-0.023": 0.0,
			"-0.022": 0.0,
			"-0.021": 0.0,
			"-0.02": 0.0,
			"-0.019": 0.0,
			"-0.018": 0.0,
			"-0.017": 0.0,
			"-0.016": 0.0,
			"-0.015": 0.0,
			"-0.014": 0.0,
			"-0.013": 0.0,
			"-0.012": 0.0,
			"-0.011": 0.0,
			"-0.01": 0.0,
			"-0.009": 0.0,
			"-0.008": 0.0,
			"-0.007": 0.0117757807328,
			"-0.006": 6.09005796823,
			"-0.005": 24.0193024819,
			"-0.004": 29.4612509637,
			"-0.003": 35.5344076805,
			"-0.002": 27.9219334153,
			"-0.001": 21.9354553501,
			"0.0": 18.4293733755,
			"0.001": 12.4998126853,
			"0.002": 13.7265432747,
			"0.003": 14.7740360363,
			"0.004": 18.5778607435,
			"0.005": 19.2699946842,
			"0.006": 18.4005691894,
			"0.007": 10.4566937167,
			"0.008": 2.2468793399,
			"0.009": 0.0,
			"0.01": 0.0,
			"0.011": 0.0,
			"0.012": 0.0,
			"0.013": 0.0,
			"0.014": 0.0,
			"0.015": 0.0,
			"0.016": 0.0,
			"0.017": 0.0,
			"0.018": 0.0,
			"0.019": 0.0,
			"0.02": 0.0,
			"0.021": 0.0,
			"0.022": 0.0,
			"0.023": 0.0,
			"0.024": 0.0,
			"0.025": 0.0
		}
	}
}
