{
	 "smiles": "ClCC(=O)NC(=O)NC1=CC2=C(OCCO2)C=C1", 
	 "Tm": 402.15, 
	 "num_atms": 29, 
	 "gaussian": { 
		 "optdone": 1, 
		 "sigma_profile": "yes", 
		 "theory": "DFT", 
		 "functional": "B3LYP", 
		 "basiset": "6-31G**", 
		 "properties": { 
			 "R2extent": 9515.1462, 
			 "electric_dipole_moment_norm": 1.26137068699, 
			 "electric_quadrupole_moment_norm": 21.5163904489, 
			 "total_energy": -1296.41712347, 
			 "HOMO_LUMO_gap": 0.16368, 
			 "cosmo_polarized_energy": -16.28, 
			 "cosmo_cavitation_energy": 35.08, 
			 "cosmo_dispersion_energy": -26.56, 
			 "cosmo_repulsion_energy": 2.05, 
			 "cosmo_total_nonelectrostatic_energy": 10.56, 
			 "SMD_solvation_energy": 7.09 
		},
		"coords": [
			{
				"x": -1.5056087652,
				"y": -1.4634037775,
				"z": -6.170255473,
				"element": "Cl" 
			},
			{
				"x": -1.8973705973,
				"y": -2.5122115605,
				"z": -4.7519309279,
				"element": "C" 
			},
			{
				"x": -1.1397329388,
				"y": -2.2273831378,
				"z": -3.4547848126,
				"element": "C" 
			},
			{
				"x": -1.4063210825,
				"y": -2.9401446337,
				"z": -2.4895301426,
				"element": "O" 
			},
			{
				"x": -0.2309903892,
				"y": -1.2154822429,
				"z": -3.4547904229,
				"element": "N" 
			},
			{
				"x": 0.6074715271,
				"y": -0.7395802733,
				"z": -2.3913400564,
				"element": "C" 
			},
			{
				"x": 1.3533969628,
				"y": 0.1955876742,
				"z": -2.6331268158,
				"element": "O" 
			},
			{
				"x": 0.4557812776,
				"y": -1.4113486898,
				"z": -1.2222169226,
				"element": "N" 
			},
			{
				"x": 1.1377775391,
				"y": -1.1805395207,
				"z": -0.0058763636,
				"element": "C" 
			},
			{
				"x": 2.0994967461,
				"y": -0.1780655429,
				"z": 0.1579784597,
				"element": "C" 
			},
			{
				"x": 2.7239044987,
				"y": -0.0204923721,
				"z": 1.3954644403,
				"element": "C" 
			},
			{
				"x": 2.4075534072,
				"y": -0.8625873192,
				"z": 2.4740146982,
				"element": "C" 
			},
			{
				"x": 3.0190938985,
				"y": -0.7421142993,
				"z": 3.7007980549,
				"element": "O" 
			},
			{
				"x": 4.2179464863,
				"y": 0.0304240382,
				"z": 3.6652157173,
				"element": "C" 
			},
			{
				"x": 3.9968025548,
				"y": 1.3014944428,
				"z": 2.8606696582,
				"element": "C" 
			},
			{
				"x": 3.6582840518,
				"y": 0.9796603711,
				"z": 1.5122859056,
				"element": "O" 
			},
			{
				"x": 1.4401287005,
				"y": -1.8519059401,
				"z": 2.3022467408,
				"element": "C" 
			},
			{
				"x": 0.8037008399,
				"y": -2.0108573059,
				"z": 1.0766177269,
				"element": "C" 
			},
			{
				"x": -2.9636169186,
				"y": -2.4071387357,
				"z": -4.5484399721,
				"element": "H" 
			},
			{
				"x": -1.695608736,
				"y": -3.544710522,
				"z": -5.0392927626,
				"element": "H" 
			},
			{
				"x": -0.0906333782,
				"y": -0.6901485955,
				"z": -4.3098502927,
				"element": "H" 
			},
			{
				"x": -0.2296066534,
				"y": -2.1656929922,
				"z": -1.2426540874,
				"element": "H" 
			},
			{
				"x": 2.363067083,
				"y": 0.4807519854,
				"z": -0.6570726477,
				"element": "H" 
			},
			{
				"x": 4.4735763387,
				"y": 0.2567567577,
				"z": 4.7036068064,
				"element": "H" 
			},
			{
				"x": 5.0305918282,
				"y": -0.5576874525,
				"z": 3.2163689244,
				"element": "H" 
			},
			{
				"x": 3.1931347632,
				"y": 1.8958605938,
				"z": 3.3168893186,
				"element": "H" 
			},
			{
				"x": 4.9055707869,
				"y": 1.9071889704,
				"z": 2.8157050094,
				"element": "H" 
			},
			{
				"x": 1.2021025336,
				"y": -2.4940459775,
				"z": 3.1438536256,
				"element": "H" 
			},
			{
				"x": 0.0527076352,
				"y": -2.7861839427,
				"z": 0.9548466136,
				"element": "H" 
			}
		],
		 "valence_orbital": [ 
			{
				"type": "occ",
				"energy": -0.29577,
				"method": "rhf"
			},
			{
				"type": "occ",
				"energy": -0.27992,
				"method": "rhf"
			},
			{
				"type": "occ",
				"energy": -0.27763,
				"method": "rhf"
			},
			{
				"type": "occ",
				"energy": -0.22917,
				"method": "rhf"
			},
			{
				"type": "occ",
				"energy": -0.19827,
				"method": "rhf"
			},
			{
				"type": "unocc",
				"energy": -0.03459,
				"method": "rhf"
			},
			{
				"type": "unocc",
				"energy": -0.0005,
				"method": "rhf"
			},
			{
				"type": "unocc",
				"energy": 0.00369,
				"method": "rhf"
			},
			{
				"type": "unocc",
				"energy": 0.01712,
				"method": "rhf"
			},
			{
				"type": "unocc",
				"energy": 0.07367,
				"method": "rhf"
			}
		],
		"cosmo_sigma_profile": { 
			"-0.025": 0.0,
			"-0.024": 0.0,
			"-0.023": 0.0,
			"-0.022": 0.0,
			"-0.021": 0.0,
			"-0.02": 0.0,
			"-0.019": 0.0,
			"-0.018": 0.0,
			"-0.017": 0.0,
			"-0.016": 0.0,
			"-0.015": 0.0,
			"-0.014": 0.0,
			"-0.013": 0.0,
			"-0.012": 0.063278908982,
			"-0.011": 0.932077918287,
			"-0.01": 4.37261744962,
			"-0.009": 5.88026348118,
			"-0.008": 6.95549329361,
			"-0.007": 13.6443361196,
			"-0.006": 21.1197725942,
			"-0.005": 20.0249820535,
			"-0.004": 19.2275973107,
			"-0.003": 16.184854142,
			"-0.002": 15.417954062,
			"-0.001": 13.8551885031,
			"0.0": 13.2766548979,
			"0.001": 14.3616559974,
			"0.002": 16.6152755852,
			"0.003": 20.4968227886,
			"0.004": 23.7443631373,
			"0.005": 16.0164328787,
			"0.006": 5.90574772783,
			"0.007": 5.62323561584,
			"0.008": 5.02390089753,
			"0.009": 5.71517094847,
			"0.01": 6.71487876944,
			"0.011": 5.77841023824,
			"0.012": 4.49455983493,
			"0.013": 0.966012624793,
			"0.014": 0.0,
			"0.015": 0.0,
			"0.016": 0.0,
			"0.017": 0.0,
			"0.018": 0.0,
			"0.019": 0.0,
			"0.02": 0.0,
			"0.021": 0.0,
			"0.022": 0.0,
			"0.023": 0.0,
			"0.024": 0.0,
			"0.025": 0.0
		}
	}
}
