{
	 "smiles": "C[C@@H]1CC[C@@H]([C@H](O)C1)C(C)(C)O", 
	 "Tm": 307.65, 
	 "num_atms": 32, 
	 "gaussian": { 
		 "optdone": 1, 
		 "sigma_profile": "yes", 
		 "theory": "DFT", 
		 "functional": "B3LYP", 
		 "basiset": "6-31G**", 
		 "properties": { 
			 "R2extent": 2802.073, 
			 "electric_dipole_moment_norm": 2.86904438795, 
			 "electric_quadrupole_moment_norm": 8.67444180567, 
			 "total_energy": -543.570850399, 
			 "HOMO_LUMO_gap": 0.30909, 
			 "cosmo_polarized_energy": -10.43, 
			 "cosmo_cavitation_energy": 30.15, 
			 "cosmo_dispersion_energy": -21.69, 
			 "cosmo_repulsion_energy": 1.72, 
			 "cosmo_total_nonelectrostatic_energy": 10.18, 
			 "SMD_solvation_energy": 4.84 
		},
		"coords": [
			{
				"x": 3.0607844596,
				"y": 0.9963492109,
				"z": -0.7291637494,
				"element": "C" 
			},
			{
				"x": 1.5326101196,
				"y": 1.0498969581,
				"z": -0.6284014108,
				"element": "C" 
			},
			{
				"x": 1.0504474138,
				"y": 1.8926338444,
				"z": 0.5622074222,
				"element": "C" 
			},
			{
				"x": -0.4851788597,
				"y": 2.06892888,
				"z": 0.5633519244,
				"element": "C" 
			},
			{
				"x": -1.2330945589,
				"y": 0.8738274793,
				"z": -0.0836480776,
				"element": "C" 
			},
			{
				"x": -0.4571046511,
				"y": -0.4323028102,
				"z": 0.1560117003,
				"element": "C" 
			},
			{
				"x": -0.3175391609,
				"y": -0.6047876867,
				"z": 1.5722393062,
				"element": "O" 
			},
			{
				"x": 0.9204016756,
				"y": -0.3701298876,
				"z": -0.5490319165,
				"element": "C" 
			},
			{
				"x": -2.7592342337,
				"y": 0.847970194,
				"z": 0.242866643,
				"element": "C" 
			},
			{
				"x": -3.089641699,
				"y": 0.6728856578,
				"z": 1.7277434078,
				"element": "C" 
			},
			{
				"x": -3.4852618734,
				"y": -0.2283049219,
				"z": -0.5834922836,
				"element": "C" 
			},
			{
				"x": -3.308891281,
				"y": 2.1346916328,
				"z": -0.1035558393,
				"element": "O" 
			},
			{
				"x": 3.3868162469,
				"y": 0.3735084052,
				"z": -1.5701872999,
				"element": "H" 
			},
			{
				"x": 3.4851075215,
				"y": 1.9965271839,
				"z": -0.8697329726,
				"element": "H" 
			},
			{
				"x": 3.4971829411,
				"y": 0.5753563118,
				"z": 0.1849160147,
				"element": "H" 
			},
			{
				"x": 1.1575077066,
				"y": 1.5276698193,
				"z": -1.5460229338,
				"element": "H" 
			},
			{
				"x": 1.3602683695,
				"y": 1.3932369409,
				"z": 1.4873523851,
				"element": "H" 
			},
			{
				"x": 1.5392614733,
				"y": 2.8744465559,
				"z": 0.5509331123,
				"element": "H" 
			},
			{
				"x": -0.7655815785,
				"y": 2.9792114507,
				"z": 0.0250881618,
				"element": "H" 
			},
			{
				"x": -0.8259382061,
				"y": 2.2084241979,
				"z": 1.5919237544,
				"element": "H" 
			},
			{
				"x": -1.1910560496,
				"y": 1.01456817,
				"z": -1.1764858627,
				"element": "H" 
			},
			{
				"x": -1.01763507,
				"y": -1.2834025414,
				"z": -0.2577843025,
				"element": "H" 
			},
			{
				"x": 0.1963794833,
				"y": -1.4087859558,
				"z": 1.7207830479,
				"element": "H" 
			},
			{
				"x": 1.6059699607,
				"y": -1.0373325874,
				"z": -0.006383226,
				"element": "H" 
			},
			{
				"x": 0.8297043377,
				"y": -0.7887612854,
				"z": -1.5595502036,
				"element": "H" 
			},
			{
				"x": -2.6914879227,
				"y": 1.5019812121,
				"z": 2.3167966783,
				"element": "H" 
			},
			{
				"x": -4.1762657737,
				"y": 0.6654686035,
				"z": 1.8566842358,
				"element": "H" 
			},
			{
				"x": -2.6668676958,
				"y": -0.2553172435,
				"z": 2.1138712575,
				"element": "H" 
			},
			{
				"x": -3.2238943582,
				"y": -1.2429346546,
				"z": -0.2684154214,
				"element": "H" 
			},
			{
				"x": -3.2466479846,
				"y": -0.137004973,
				"z": -1.6511678438,
				"element": "H" 
			},
			{
				"x": -4.5654956012,
				"y": -0.104276517,
				"z": -0.4655195207,
				"element": "H" 
			},
			{
				"x": -3.1793251512,
				"y": 2.2615583559,
				"z": -1.0536261875,
				"element": "H" 
			}
		],
		 "valence_orbital": [ 
			{
				"type": "occ",
				"energy": -0.30589,
				"method": "rhf"
			},
			{
				"type": "occ",
				"energy": -0.29992,
				"method": "rhf"
			},
			{
				"type": "occ",
				"energy": -0.2838,
				"method": "rhf"
			},
			{
				"type": "occ",
				"energy": -0.26286,
				"method": "rhf"
			},
			{
				"type": "occ",
				"energy": -0.25061,
				"method": "rhf"
			},
			{
				"type": "unocc",
				"energy": 0.05848,
				"method": "rhf"
			},
			{
				"type": "unocc",
				"energy": 0.08563,
				"method": "rhf"
			},
			{
				"type": "unocc",
				"energy": 0.09624,
				"method": "rhf"
			},
			{
				"type": "unocc",
				"energy": 0.11703,
				"method": "rhf"
			},
			{
				"type": "unocc",
				"energy": 0.11977,
				"method": "rhf"
			}
		],
		"cosmo_sigma_profile": { 
			"-0.025": 0.0,
			"-0.024": 0.0,
			"-0.023": 0.0,
			"-0.022": 0.0,
			"-0.021": 0.0,
			"-0.02": 0.0,
			"-0.019": 0.0,
			"-0.018": 0.0,
			"-0.017": 0.0,
			"-0.016": 0.0,
			"-0.015": 0.385325033985,
			"-0.014": 1.61316154628,
			"-0.013": 1.82589309304,
			"-0.012": 1.60372790708,
			"-0.011": 1.62945273425,
			"-0.01": 2.48988466536,
			"-0.009": 2.12820692308,
			"-0.008": 2.26493282895,
			"-0.007": 1.47921606534,
			"-0.006": 2.1540080205,
			"-0.005": 3.14636987921,
			"-0.004": 4.46444281023,
			"-0.003": 14.859703438,
			"-0.002": 32.9341415594,
			"-0.001": 34.0730232638,
			"0.0": 33.6606953965,
			"0.001": 33.0194063033,
			"0.002": 20.1379583657,
			"0.003": 4.95517714436,
			"0.004": 4.29501718243,
			"0.005": 3.2300773163,
			"0.006": 2.70112418332,
			"0.007": 3.31421950293,
			"0.008": 2.31011874601,
			"0.009": 2.92186656364,
			"0.01": 2.6697714959,
			"0.011": 2.24741107521,
			"0.012": 2.05022163881,
			"0.013": 1.90762056443,
			"0.014": 1.88062519465,
			"0.015": 1.49262704504,
			"0.016": 0.0582825117941,
			"0.017": 0.0,
			"0.018": 0.0,
			"0.019": 0.0,
			"0.02": 0.0,
			"0.021": 0.0,
			"0.022": 0.0,
			"0.023": 0.0,
			"0.024": 0.0,
			"0.025": 0.0
		}
	}
}
