{
	 "smiles": "CCCCCCCCCCCCCCCC(=O)OCCO", 
	 "Tm": 324.15, 
	 "num_atms": 57, 
	 "gaussian": { 
		 "optdone": 1, 
		 "sigma_profile": "yes", 
		 "theory": "DFT", 
		 "functional": "B3LYP", 
		 "basiset": "6-31G**", 
		 "properties": { 
			 "R2extent": 13207.0682, 
			 "electric_dipole_moment_norm": 1.48555263118, 
			 "electric_quadrupole_moment_norm": 7.6444103337, 
			 "total_energy": -933.333868073, 
			 "HOMO_LUMO_gap": 0.27117, 
			 "cosmo_polarized_energy": -10.06, 
			 "cosmo_cavitation_energy": 56.17, 
			 "cosmo_dispersion_energy": -36.01, 
			 "cosmo_repulsion_energy": 2.9, 
			 "cosmo_total_nonelectrostatic_energy": 23.05, 
			 "SMD_solvation_energy": 8.08 
		},
		"coords": [
			{
				"x": 0.505461664,
				"y": -2.1846588214,
				"z": 5.624262937,
				"element": "C" 
			},
			{
				"x": -0.1379617163,
				"y": -2.3939646165,
				"z": 4.2494060562,
				"element": "C" 
			},
			{
				"x": -1.0956290943,
				"y": -3.5935656455,
				"z": 4.2138358626,
				"element": "C" 
			},
			{
				"x": -1.7135324697,
				"y": -3.8888876636,
				"z": 2.8371789462,
				"element": "C" 
			},
			{
				"x": -2.6732084069,
				"y": -2.8094689298,
				"z": 2.3152579987,
				"element": "C" 
			},
			{
				"x": -3.3223702653,
				"y": -3.1835923346,
				"z": 0.9752203556,
				"element": "C" 
			},
			{
				"x": -4.3618752544,
				"y": -2.1723052578,
				"z": 0.4593754719,
				"element": "C" 
			},
			{
				"x": -3.8324716787,
				"y": -0.7657119838,
				"z": 0.1272314083,
				"element": "C" 
			},
			{
				"x": -2.8141606335,
				"y": -0.7180101899,
				"z": -1.0208468772,
				"element": "C" 
			},
			{
				"x": -2.376684662,
				"y": 0.7108870479,
				"z": -1.3730644941,
				"element": "C" 
			},
			{
				"x": -1.4342141046,
				"y": 0.8134280677,
				"z": -2.5849314356,
				"element": "C" 
			},
			{
				"x": -0.0692661085,
				"y": 0.1125986436,
				"z": -2.4447124846,
				"element": "C" 
			},
			{
				"x": 0.8033711256,
				"y": 0.6564581395,
				"z": -1.3035378679,
				"element": "C" 
			},
			{
				"x": 2.2292613617,
				"y": 0.081751146,
				"z": -1.2446234211,
				"element": "C" 
			},
			{
				"x": 3.1133952158,
				"y": 0.403917134,
				"z": -2.4696025605,
				"element": "C" 
			},
			{
				"x": 3.2593693007,
				"y": 1.8998422997,
				"z": -2.6570385911,
				"element": "C" 
			},
			{
				"x": 3.7740876139,
				"y": 2.6505912567,
				"z": -1.8573201751,
				"element": "O" 
			},
			{
				"x": 2.7089689543,
				"y": 2.310388465,
				"z": -3.8323511351,
				"element": "O" 
			},
			{
				"x": 2.6989583652,
				"y": 3.7374096229,
				"z": -4.0890632807,
				"element": "C" 
			},
			{
				"x": 1.3721702282,
				"y": 4.3163403194,
				"z": -3.618593968,
				"element": "C" 
			},
			{
				"x": 0.2656740391,
				"y": 3.7152929847,
				"z": -4.2712228119,
				"element": "O" 
			},
			{
				"x": 1.0817660211,
				"y": -3.0653931509,
				"z": 5.9303744447,
				"element": "H" 
			},
			{
				"x": 1.1852654875,
				"y": -1.326227747,
				"z": 5.6233240125,
				"element": "H" 
			},
			{
				"x": -0.2543789074,
				"y": -2.0055870612,
				"z": 6.3937165551,
				"element": "H" 
			},
			{
				"x": 0.6483007007,
				"y": -2.5396211277,
				"z": 3.4954041316,
				"element": "H" 
			},
			{
				"x": -0.6717057808,
				"y": -1.4803165742,
				"z": 3.9592246767,
				"element": "H" 
			},
			{
				"x": -0.5512992965,
				"y": -4.4852560367,
				"z": 4.5541786697,
				"element": "H" 
			},
			{
				"x": -1.9006842065,
				"y": -3.4348784179,
				"z": 4.9460680414,
				"element": "H" 
			},
			{
				"x": -0.9077255532,
				"y": -4.0424932612,
				"z": 2.1045653653,
				"element": "H" 
			},
			{
				"x": -2.255356295,
				"y": -4.8430247772,
				"z": 2.8918658727,
				"element": "H" 
			},
			{
				"x": -3.4615523916,
				"y": -2.6358641715,
				"z": 3.0626370119,
				"element": "H" 
			},
			{
				"x": -2.1374483518,
				"y": -1.857866506,
				"z": 2.2131441218,
				"element": "H" 
			},
			{
				"x": -3.8161818775,
				"y": -4.1589754041,
				"z": 1.0837263163,
				"element": "H" 
			},
			{
				"x": -2.5375216902,
				"y": -3.3322150218,
				"z": 0.2212352079,
				"element": "H" 
			},
			{
				"x": -4.839516721,
				"y": -2.5876986204,
				"z": -0.4386702351,
				"element": "H" 
			},
			{
				"x": -5.159863998,
				"y": -2.0779751243,
				"z": 1.2086403122,
				"element": "H" 
			},
			{
				"x": -4.6882589495,
				"y": -0.1291288086,
				"z": -0.1357558897,
				"element": "H" 
			},
			{
				"x": -3.3899012329,
				"y": -0.3106412293,
				"z": 1.023545175,
				"element": "H" 
			},
			{
				"x": -1.9345605623,
				"y": -1.319273409,
				"z": -0.7585787642,
				"element": "H" 
			},
			{
				"x": -3.2512235666,
				"y": -1.192858322,
				"z": -1.9117290227,
				"element": "H" 
			},
			{
				"x": -3.2709378719,
				"y": 1.3125054006,
				"z": -1.5842064569,
				"element": "H" 
			},
			{
				"x": -1.9096847937,
				"y": 1.1749371921,
				"z": -0.4939132216,
				"element": "H" 
			},
			{
				"x": -1.2621397114,
				"y": 1.8758113475,
				"z": -2.8072661892,
				"element": "H" 
			},
			{
				"x": -1.9479515573,
				"y": 0.4009949918,
				"z": -3.4640830089,
				"element": "H" 
			},
			{
				"x": 0.4637490992,
				"y": 0.2228027586,
				"z": -3.3982382038,
				"element": "H" 
			},
			{
				"x": -0.210001017,
				"y": -0.9680601674,
				"z": -2.3093259048,
				"element": "H" 
			},
			{
				"x": 0.8582272247,
				"y": 1.7520179551,
				"z": -1.3767427222,
				"element": "H" 
			},
			{
				"x": 0.3173410588,
				"y": 0.452073969,
				"z": -0.3420659443,
				"element": "H" 
			},
			{
				"x": 2.1858107748,
				"y": -1.0087992594,
				"z": -1.1326619164,
				"element": "H" 
			},
			{
				"x": 2.7332028216,
				"y": 0.4724651528,
				"z": -0.3540273409,
				"element": "H" 
			},
			{
				"x": 4.1166424554,
				"y": -0.0019751417,
				"z": -2.3004084187,
				"element": "H" 
			},
			{
				"x": 2.7185636976,
				"y": -0.0458344784,
				"z": -3.3829913155,
				"element": "H" 
			},
			{
				"x": 2.800700766,
				"y": 3.8312544076,
				"z": -5.1727011976,
				"element": "H" 
			},
			{
				"x": 3.5435311406,
				"y": 4.2076419118,
				"z": -3.5807693826,
				"element": "H" 
			},
			{
				"x": 1.3048784004,
				"y": 4.2167104403,
				"z": -2.5246448328,
				"element": "H" 
			},
			{
				"x": 1.3398748398,
				"y": 5.3849837143,
				"z": -3.8568749867,
				"element": "H" 
			},
			{
				"x": 0.3832963696,
				"y": 2.7583248922,
				"z": -4.1969548938,
				"element": "H" 
			}
		],
		 "valence_orbital": [ 
			{
				"type": "occ",
				"energy": -0.30401,
				"method": "rhf"
			},
			{
				"type": "occ",
				"energy": -0.30079,
				"method": "rhf"
			},
			{
				"type": "occ",
				"energy": -0.30015,
				"method": "rhf"
			},
			{
				"type": "occ",
				"energy": -0.27876,
				"method": "rhf"
			},
			{
				"type": "occ",
				"energy": -0.26694,
				"method": "rhf"
			},
			{
				"type": "unocc",
				"energy": 0.00423,
				"method": "rhf"
			},
			{
				"type": "unocc",
				"energy": 0.05295,
				"method": "rhf"
			},
			{
				"type": "unocc",
				"energy": 0.07625,
				"method": "rhf"
			},
			{
				"type": "unocc",
				"energy": 0.09555,
				"method": "rhf"
			},
			{
				"type": "unocc",
				"energy": 0.09727,
				"method": "rhf"
			}
		],
		"cosmo_sigma_profile": { 
			"-0.025": 0.0,
			"-0.024": 0.0,
			"-0.023": 0.0,
			"-0.022": 0.0,
			"-0.021": 0.0,
			"-0.02": 0.0,
			"-0.019": 0.0,
			"-0.018": 0.0,
			"-0.017": 0.0,
			"-0.016": 0.0,
			"-0.015": 0.0,
			"-0.014": 0.0,
			"-0.013": 0.0,
			"-0.012": 0.0,
			"-0.011": 0.0,
			"-0.01": 0.0,
			"-0.009": 0.48294608674,
			"-0.008": 1.10867844218,
			"-0.007": 1.92173793333,
			"-0.006": 8.19784737968,
			"-0.005": 14.0799470262,
			"-0.004": 16.465067289,
			"-0.003": 22.8741291938,
			"-0.002": 53.788748736,
			"-0.001": 86.2228252894,
			"0.0": 85.314608023,
			"0.001": 68.7179033444,
			"0.002": 29.4819965485,
			"0.003": 5.32086929778,
			"0.004": 4.18630480072,
			"0.005": 3.45447329536,
			"0.006": 3.29333987608,
			"0.007": 2.91213480953,
			"0.008": 3.53347327346,
			"0.009": 2.40866390175,
			"0.01": 2.86113073962,
			"0.011": 3.36330132181,
			"0.012": 5.80084960897,
			"0.013": 2.74964331837,
			"0.014": 2.02574646529,
			"0.015": 0.279511456049,
			"0.016": 0.0,
			"0.017": 0.0,
			"0.018": 0.0,
			"0.019": 0.0,
			"0.02": 0.0,
			"0.021": 0.0,
			"0.022": 0.0,
			"0.023": 0.0,
			"0.024": 0.0,
			"0.025": 0.0
		}
	}
}
