{
	 "smiles": "CC(=O)N(C(C)=O)C1=CC=CC=C1", 
	 "Tm": 310.65, 
	 "num_atms": 24, 
	 "gaussian": { 
		 "optdone": 1, 
		 "sigma_profile": "yes", 
		 "theory": "DFT", 
		 "functional": "B3LYP", 
		 "basiset": "6-31G**", 
		 "properties": { 
			 "R2extent": 2828.0835, 
			 "electric_dipole_moment_norm": 2.41092573714, 
			 "electric_quadrupole_moment_norm": 18.2952693992, 
			 "total_energy": -592.902530041, 
			 "HOMO_LUMO_gap": 0.21463, 
			 "cosmo_polarized_energy": -15.96, 
			 "cosmo_cavitation_energy": 28.06, 
			 "cosmo_dispersion_energy": -19.55, 
			 "cosmo_repulsion_energy": 1.56, 
			 "cosmo_total_nonelectrostatic_energy": 10.08, 
			 "SMD_solvation_energy": 6.75 
		},
		"coords": [
			{
				"x": -2.5285777321,
				"y": 0.3665303981,
				"z": 2.8018262655,
				"element": "C" 
			},
			{
				"x": -1.434069748,
				"y": 0.4106423859,
				"z": 1.7497748389,
				"element": "C" 
			},
			{
				"x": -0.4168808281,
				"y": 1.0465833001,
				"z": 1.9492816317,
				"element": "O" 
			},
			{
				"x": -1.622945545,
				"y": -0.2214035724,
				"z": 0.4934316216,
				"element": "N" 
			},
			{
				"x": -2.580114067,
				"y": -1.1888786466,
				"z": 0.0916772328,
				"element": "C" 
			},
			{
				"x": -3.3676114501,
				"y": -1.9659826821,
				"z": 1.132316046,
				"element": "C" 
			},
			{
				"x": -2.7131417875,
				"y": -1.4392284003,
				"z": -1.0909179687,
				"element": "O" 
			},
			{
				"x": -0.6899849813,
				"y": 0.1858773773,
				"z": -0.5443712945,
				"element": "C" 
			},
			{
				"x": 0.4664474869,
				"y": -0.560049575,
				"z": -0.7650495313,
				"element": "C" 
			},
			{
				"x": 1.3598740099,
				"y": -0.168274526,
				"z": -1.7618179803,
				"element": "C" 
			},
			{
				"x": 1.0967232505,
				"y": 0.9658635343,
				"z": -2.5322589368,
				"element": "C" 
			},
			{
				"x": -0.0634090724,
				"y": 1.7084327825,
				"z": -2.3047154375,
				"element": "C" 
			},
			{
				"x": -0.9599708624,
				"y": 1.3187825833,
				"z": -1.3099312451,
				"element": "C" 
			},
			{
				"x": -3.5210731844,
				"y": 0.5420540972,
				"z": 2.3810983464,
				"element": "H" 
			},
			{
				"x": -2.2924347654,
				"y": 1.1531118994,
				"z": 3.518413953,
				"element": "H" 
			},
			{
				"x": -2.544716337,
				"y": -0.5865918756,
				"z": 3.3359844607,
				"element": "H" 
			},
			{
				"x": -4.1964669976,
				"y": -1.3815489229,
				"z": 1.5391071397,
				"element": "H" 
			},
			{
				"x": -2.7442407558,
				"y": -2.3035213471,
				"z": 1.963215524,
				"element": "H" 
			},
			{
				"x": -3.783680025,
				"y": -2.8302460317,
				"z": 0.6147217398,
				"element": "H" 
			},
			{
				"x": 0.6631358647,
				"y": -1.4370394362,
				"z": -0.1565432823,
				"element": "H" 
			},
			{
				"x": 2.262040577,
				"y": -0.7477490789,
				"z": -1.9338749862,
				"element": "H" 
			},
			{
				"x": 1.793640506,
				"y": 1.2700872397,
				"z": -3.3076848487,
				"element": "H" 
			},
			{
				"x": -0.2732799503,
				"y": 2.5901262736,
				"z": -2.902936494,
				"element": "H" 
			},
			{
				"x": -1.8675636056,
				"y": 1.8854222233,
				"z": -1.1275467945,
				"element": "H" 
			}
		],
		 "valence_orbital": [ 
			{
				"type": "occ",
				"energy": -0.28254,
				"method": "rhf"
			},
			{
				"type": "occ",
				"energy": -0.27519,
				"method": "rhf"
			},
			{
				"type": "occ",
				"energy": -0.25926,
				"method": "rhf"
			},
			{
				"type": "occ",
				"energy": -0.25021,
				"method": "rhf"
			},
			{
				"type": "occ",
				"energy": -0.24374,
				"method": "rhf"
			},
			{
				"type": "unocc",
				"energy": -0.02911,
				"method": "rhf"
			},
			{
				"type": "unocc",
				"energy": -0.0043,
				"method": "rhf"
			},
			{
				"type": "unocc",
				"energy": -0.00047,
				"method": "rhf"
			},
			{
				"type": "unocc",
				"energy": 0.02807,
				"method": "rhf"
			},
			{
				"type": "unocc",
				"energy": 0.07322,
				"method": "rhf"
			}
		],
		"cosmo_sigma_profile": { 
			"-0.025": 0.0,
			"-0.024": 0.0,
			"-0.023": 0.0,
			"-0.022": 0.0,
			"-0.021": 0.0,
			"-0.02": 0.0,
			"-0.019": 0.0,
			"-0.018": 0.0,
			"-0.017": 0.0,
			"-0.016": 0.0,
			"-0.015": 0.0,
			"-0.014": 0.0,
			"-0.013": 0.0,
			"-0.012": 0.0,
			"-0.011": 0.0,
			"-0.01": 0.267666394789,
			"-0.009": 2.88581664217,
			"-0.008": 4.98711563261,
			"-0.007": 8.00609311142,
			"-0.006": 17.9520513973,
			"-0.005": 21.9409149569,
			"-0.004": 24.3395784737,
			"-0.003": 18.1315327049,
			"-0.002": 20.1443348116,
			"-0.001": 11.8759060028,
			"0.0": 7.83905514407,
			"0.001": 7.02134944006,
			"0.002": 8.26643023934,
			"0.003": 8.78049361603,
			"0.004": 8.52520849829,
			"0.005": 9.18483754178,
			"0.006": 6.05749470737,
			"0.007": 4.02569806534,
			"0.008": 3.91391175143,
			"0.009": 4.44492728176,
			"0.01": 4.41589769645,
			"0.011": 6.72460056072,
			"0.012": 10.316599208,
			"0.013": 3.0830035511,
			"0.014": 0.0,
			"0.015": 0.0,
			"0.016": 0.0,
			"0.017": 0.0,
			"0.018": 0.0,
			"0.019": 0.0,
			"0.02": 0.0,
			"0.021": 0.0,
			"0.022": 0.0,
			"0.023": 0.0,
			"0.024": 0.0,
			"0.025": 0.0
		}
	}
}
