{
	 "smiles": "FC(F)OC1=CC2=C(C=C1)N=CC(C#N)=C2Cl", 
	 "Tm": 377.15, 
	 "num_atms": 22, 
	 "gaussian": { 
		 "optdone": 1, 
		 "sigma_profile": "yes", 
		 "theory": "DFT", 
		 "functional": "B3LYP", 
		 "basiset": "6-31G**", 
		 "properties": { 
			 "R2extent": 5610.9762, 
			 "electric_dipole_moment_norm": 3.71415444348, 
			 "electric_quadrupole_moment_norm": 20.2443332486, 
			 "total_energy": -1266.75811111, 
			 "HOMO_LUMO_gap": 0.16282, 
			 "cosmo_polarized_energy": -11.44, 
			 "cosmo_cavitation_energy": 30.99, 
			 "cosmo_dispersion_energy": -21.91, 
			 "cosmo_repulsion_energy": 1.63, 
			 "cosmo_total_nonelectrostatic_energy": 10.71, 
			 "SMD_solvation_energy": 6.01 
		},
		"coords": [
			{
				"x": 0.9009992873,
				"y": -1.1234532375,
				"z": -4.0819515172,
				"element": "F" 
			},
			{
				"x": 1.0106250327,
				"y": -0.6798730417,
				"z": -2.8215954817,
				"element": "C" 
			},
			{
				"x": 2.295674178,
				"y": -0.2705510744,
				"z": -2.6320827949,
				"element": "F" 
			},
			{
				"x": 0.715608899,
				"y": -1.7504783069,
				"z": -2.0035366769,
				"element": "O" 
			},
			{
				"x": 0.4637327332,
				"y": -1.5118929792,
				"z": -0.6699338142,
				"element": "C" 
			},
			{
				"x": 0.9145188487,
				"y": -0.4034233158,
				"z": 0.0147181147,
				"element": "C" 
			},
			{
				"x": 0.5865310142,
				"y": -0.2544612404,
				"z": 1.387661805,
				"element": "C" 
			},
			{
				"x": -0.1873406965,
				"y": -1.2638956681,
				"z": 2.0502576263,
				"element": "C" 
			},
			{
				"x": -0.6095974014,
				"y": -2.39681203,
				"z": 1.3042428821,
				"element": "C" 
			},
			{
				"x": -0.2969291984,
				"y": -2.5201842382,
				"z": -0.0254458839,
				"element": "C" 
			},
			{
				"x": -0.5395421716,
				"y": -1.1975574383,
				"z": 3.3653082347,
				"element": "N" 
			},
			{
				"x": -0.1463606384,
				"y": -0.1566689702,
				"z": 4.0572942056,
				"element": "C" 
			},
			{
				"x": 0.6303637254,
				"y": 0.9144479141,
				"z": 3.5181261445,
				"element": "C" 
			},
			{
				"x": 1.0004118599,
				"y": 1.9992173655,
				"z": 4.3709815886,
				"element": "C" 
			},
			{
				"x": 1.2763378821,
				"y": 2.8596362518,
				"z": 5.103282953,
				"element": "N" 
			},
			{
				"x": 0.9921715448,
				"y": 0.8541344648,
				"z": 2.1789119717,
				"element": "C" 
			},
			{
				"x": 1.936350919,
				"y": 2.1362972876,
				"z": 1.4764572675,
				"element": "Cl" 
			},
			{
				"x": 0.3441032932,
				"y": 0.1744120825,
				"z": -2.6527179082,
				"element": "H" 
			},
			{
				"x": 1.541576774,
				"y": 0.3347177159,
				"z": -0.4660407183,
				"element": "H" 
			},
			{
				"x": -1.1908526768,
				"y": -3.1500473478,
				"z": 1.8243651803,
				"element": "H" 
			},
			{
				"x": -0.6195039322,
				"y": -3.3746608465,
				"z": -0.6104557813,
				"element": "H" 
			},
			{
				"x": -0.4319792761,
				"y": -0.1112033471,
				"z": 5.1059526024,
				"element": "H" 
			}
		],
		 "valence_orbital": [ 
			{
				"type": "occ",
				"energy": -0.34137,
				"method": "rhf"
			},
			{
				"type": "occ",
				"energy": -0.31407,
				"method": "rhf"
			},
			{
				"type": "occ",
				"energy": -0.28902,
				"method": "rhf"
			},
			{
				"type": "occ",
				"energy": -0.27508,
				"method": "rhf"
			},
			{
				"type": "occ",
				"energy": -0.259,
				"method": "rhf"
			},
			{
				"type": "unocc",
				"energy": -0.09618,
				"method": "rhf"
			},
			{
				"type": "unocc",
				"energy": -0.0595,
				"method": "rhf"
			},
			{
				"type": "unocc",
				"energy": -0.01509,
				"method": "rhf"
			},
			{
				"type": "unocc",
				"energy": 0.00186,
				"method": "rhf"
			},
			{
				"type": "unocc",
				"energy": 0.02036,
				"method": "rhf"
			}
		],
		"cosmo_sigma_profile": { 
			"-0.025": 0.0,
			"-0.024": 0.0,
			"-0.023": 0.0,
			"-0.022": 0.0,
			"-0.021": 0.0,
			"-0.02": 0.0,
			"-0.019": 0.0,
			"-0.018": 0.0,
			"-0.017": 0.0,
			"-0.016": 0.0,
			"-0.015": 0.0,
			"-0.014": 0.0,
			"-0.013": 0.0,
			"-0.012": 0.0,
			"-0.011": 1.5331991872,
			"-0.01": 3.55902526698,
			"-0.009": 4.77947517794,
			"-0.008": 6.17210579446,
			"-0.007": 8.05159905128,
			"-0.006": 7.64934129211,
			"-0.005": 7.53006401793,
			"-0.004": 14.6753665673,
			"-0.003": 22.6563895558,
			"-0.002": 19.2124270813,
			"-0.001": 22.4964941691,
			"0.0": 23.7545739639,
			"0.001": 20.0585662187,
			"0.002": 20.5441841117,
			"0.003": 25.1863138221,
			"0.004": 10.8478261912,
			"0.005": 5.90886201075,
			"0.006": 5.53419718101,
			"0.007": 5.35469541879,
			"0.008": 4.01068921829,
			"0.009": 3.41144105415,
			"0.01": 3.95591142302,
			"0.011": 3.55527477304,
			"0.012": 2.46065316507,
			"0.013": 0.630928811684,
			"0.014": 0.617153614622,
			"0.015": 0.0195470225527,
			"0.016": 0.0,
			"0.017": 0.0,
			"0.018": 0.0,
			"0.019": 0.0,
			"0.02": 0.0,
			"0.021": 0.0,
			"0.022": 0.0,
			"0.023": 0.0,
			"0.024": 0.0,
			"0.025": 0.0
		}
	}
}
