{
	 "smiles": "CC1=C(C=CC=C1)N(CC(O)=O)S(C)(=O)=O", 
	 "Tm": 383.15, 
	 "num_atms": 29, 
	 "gaussian": { 
		 "optdone": 1, 
		 "sigma_profile": "yes", 
		 "theory": "DFT", 
		 "functional": "B3LYP", 
		 "basiset": "6-31G**", 
		 "properties": { 
			 "R2extent": 3845.3571, 
			 "electric_dipole_moment_norm": 4.77400966275, 
			 "electric_quadrupole_moment_norm": 9.35945966229, 
			 "total_energy": -1142.67790278, 
			 "HOMO_LUMO_gap": 0.22805, 
			 "cosmo_polarized_energy": -20.61, 
			 "cosmo_cavitation_energy": 33.35, 
			 "cosmo_dispersion_energy": -23.39, 
			 "cosmo_repulsion_energy": 1.78, 
			 "cosmo_total_nonelectrostatic_energy": 11.74, 
			 "SMD_solvation_energy": 6.65 
		},
		"coords": [
			{
				"x": -3.2140399808,
				"y": 1.3605537702,
				"z": -0.4084644951,
				"element": "C" 
			},
			{
				"x": -1.7812490262,
				"y": 1.6738494909,
				"z": -0.7678095945,
				"element": "C" 
			},
			{
				"x": -0.7324907195,
				"y": 0.7575007289,
				"z": -0.5371923285,
				"element": "C" 
			},
			{
				"x": 0.5828339675,
				"y": 1.0654121641,
				"z": -0.9094271247,
				"element": "C" 
			},
			{
				"x": 0.8721597614,
				"y": 2.2930410143,
				"z": -1.5020265451,
				"element": "C" 
			},
			{
				"x": -0.1528962199,
				"y": 3.2095485207,
				"z": -1.7369077978,
				"element": "C" 
			},
			{
				"x": -1.4623321341,
				"y": 2.8954769609,
				"z": -1.3754733808,
				"element": "C" 
			},
			{
				"x": -1.0452988537,
				"y": -0.5111435358,
				"z": 0.0764079306,
				"element": "N" 
			},
			{
				"x": -1.5146957334,
				"y": -1.6026162475,
				"z": -0.7648791433,
				"element": "C" 
			},
			{
				"x": -0.428147901,
				"y": -2.277341132,
				"z": -1.5957957041,
				"element": "C" 
			},
			{
				"x": -0.9843308331,
				"y": -3.1650881202,
				"z": -2.4522905689,
				"element": "O" 
			},
			{
				"x": 0.7611427194,
				"y": -2.0828708812,
				"z": -1.5162354704,
				"element": "O" 
			},
			{
				"x": -0.322053107,
				"y": -0.9267781096,
				"z": 1.5632526168,
				"element": "S" 
			},
			{
				"x": -1.2472649631,
				"y": 0.101366992,
				"z": 2.7191381634,
				"element": "C" 
			},
			{
				"x": -0.6796458435,
				"y": -2.3309482398,
				"z": 1.7912619894,
				"element": "O" 
			},
			{
				"x": 1.0703563071,
				"y": -0.4832124264,
				"z": 1.6337579835,
				"element": "O" 
			},
			{
				"x": -3.287002048,
				"y": 0.8113424196,
				"z": 0.5334000341,
				"element": "H" 
			},
			{
				"x": -3.8022216944,
				"y": 2.2782079073,
				"z": -0.3233244222,
				"element": "H" 
			},
			{
				"x": -3.6957745316,
				"y": 0.7397822345,
				"z": -1.1751401798,
				"element": "H" 
			},
			{
				"x": 1.3580930937,
				"y": 0.3323383886,
				"z": -0.7292167126,
				"element": "H" 
			},
			{
				"x": 1.8944027589,
				"y": 2.5268794797,
				"z": -1.7835925036,
				"element": "H" 
			},
			{
				"x": 0.064352757,
				"y": 4.16782354,
				"z": -2.2001387314,
				"element": "H" 
			},
			{
				"x": -2.2585452157,
				"y": 3.6121843748,
				"z": -1.560218515,
				"element": "H" 
			},
			{
				"x": -2.284492108,
				"y": -1.2210809199,
				"z": -1.4425416578,
				"element": "H" 
			},
			{
				"x": -1.9799984453,
				"y": -2.3725528595,
				"z": -0.1442796622,
				"element": "H" 
			},
			{
				"x": -0.2490801478,
				"y": -3.585758944,
				"z": -2.9289939369,
				"element": "H" 
			},
			{
				"x": -1.15621884,
				"y": 1.1435412715,
				"z": 2.4099996681,
				"element": "H" 
			},
			{
				"x": -0.7906440598,
				"y": -0.0407191857,
				"z": 3.7000750535,
				"element": "H" 
			},
			{
				"x": -2.2883189592,
				"y": -0.2211386562,
				"z": 2.7262550355,
				"element": "H" 
			}
		],
		 "valence_orbital": [ 
			{
				"type": "occ",
				"energy": -0.3007,
				"method": "rhf"
			},
			{
				"type": "occ",
				"energy": -0.28814,
				"method": "rhf"
			},
			{
				"type": "occ",
				"energy": -0.26864,
				"method": "rhf"
			},
			{
				"type": "occ",
				"energy": -0.24904,
				"method": "rhf"
			},
			{
				"type": "occ",
				"energy": -0.245,
				"method": "rhf"
			},
			{
				"type": "unocc",
				"energy": -0.01695,
				"method": "rhf"
			},
			{
				"type": "unocc",
				"energy": -0.00587,
				"method": "rhf"
			},
			{
				"type": "unocc",
				"energy": 0.00407,
				"method": "rhf"
			},
			{
				"type": "unocc",
				"energy": 0.05634,
				"method": "rhf"
			},
			{
				"type": "unocc",
				"energy": 0.0668,
				"method": "rhf"
			}
		],
		"cosmo_sigma_profile": { 
			"-0.025": 0.0,
			"-0.024": 0.0,
			"-0.023": 0.0,
			"-0.022": 0.0,
			"-0.021": 0.0,
			"-0.02": 0.0,
			"-0.019": 0.316254062523,
			"-0.018": 0.91810122392,
			"-0.017": 0.783433887086,
			"-0.016": 1.2243091643,
			"-0.015": 0.704770636822,
			"-0.014": 0.571591819255,
			"-0.013": 0.645083341299,
			"-0.012": 0.532502782579,
			"-0.011": 1.00639029103,
			"-0.01": 0.646730831169,
			"-0.009": 1.82382015017,
			"-0.008": 6.84726741694,
			"-0.007": 10.3922826901,
			"-0.006": 15.5430358508,
			"-0.005": 21.1036627272,
			"-0.004": 24.7822606678,
			"-0.003": 20.0530636673,
			"-0.002": 15.9999359445,
			"-0.001": 17.1112533735,
			"0.0": 14.1733241528,
			"0.001": 10.2838644437,
			"0.002": 9.92366767924,
			"0.003": 10.9520136197,
			"0.004": 12.3053615951,
			"0.005": 12.8202735245,
			"0.006": 6.23764858953,
			"0.007": 6.63789661699,
			"0.008": 7.53949195433,
			"0.009": 7.41983631514,
			"0.01": 8.95407986526,
			"0.011": 12.8786166611,
			"0.012": 3.00591919233,
			"0.013": 0.0,
			"0.014": 0.0,
			"0.015": 0.0,
			"0.016": 0.0,
			"0.017": 0.0,
			"0.018": 0.0,
			"0.019": 0.0,
			"0.02": 0.0,
			"0.021": 0.0,
			"0.022": 0.0,
			"0.023": 0.0,
			"0.024": 0.0,
			"0.025": 0.0
		}
	}
}
