{
	 "smiles": "O=S1(=O)CCNCN1", 
	 "Tm": 417.15, 
	 "num_atms": 16, 
	 "gaussian": { 
		 "optdone": 1, 
		 "sigma_profile": "yes", 
		 "theory": "DFT", 
		 "functional": "B3LYP", 
		 "basiset": "6-31G**", 
		 "properties": { 
			 "R2extent": 1103.287, 
			 "electric_dipole_moment_norm": 4.79056348878, 
			 "electric_quadrupole_moment_norm": 11.5003718562, 
			 "total_energy": -777.196337399, 
			 "HOMO_LUMO_gap": 0.30054, 
			 "cosmo_polarized_energy": -18.01, 
			 "cosmo_cavitation_energy": 19.35, 
			 "cosmo_dispersion_energy": -15.8, 
			 "cosmo_repulsion_energy": 1.25, 
			 "cosmo_total_nonelectrostatic_energy": 4.8, 
			 "SMD_solvation_energy": -0.64 
		},
		"coords": [
			{
				"x": -1.5957266435,
				"y": 0.1601167207,
				"z": 1.3004325333,
				"element": "O" 
			},
			{
				"x": -0.3427920897,
				"y": -0.5874110448,
				"z": 1.4955135276,
				"element": "S" 
			},
			{
				"x": -0.1206442332,
				"y": -1.3319572668,
				"z": 2.7351863366,
				"element": "O" 
			},
			{
				"x": 1.0250685851,
				"y": 0.5393841364,
				"z": 1.133808768,
				"element": "C" 
			},
			{
				"x": 0.913505035,
				"y": 1.0322127073,
				"z": -0.3163217468,
				"element": "C" 
			},
			{
				"x": 0.9978633249,
				"y": -0.1028395772,
				"z": -1.2370991105,
				"element": "N" 
			},
			{
				"x": -0.1251662236,
				"y": -1.0232470921,
				"z": -1.1169504863,
				"element": "C" 
			},
			{
				"x": -0.0537026742,
				"y": -1.6659969354,
				"z": 0.2113390432,
				"element": "N" 
			},
			{
				"x": 0.9364078052,
				"y": 1.3597015259,
				"z": 1.8504146007,
				"element": "H" 
			},
			{
				"x": 1.947048205,
				"y": -0.0194370665,
				"z": 1.3032174235,
				"element": "H" 
			},
			{
				"x": -0.017781643,
				"y": 1.6148738943,
				"z": -0.4157599511,
				"element": "H" 
			},
			{
				"x": 1.7533569361,
				"y": 1.7053568127,
				"z": -0.5162235442,
				"element": "H" 
			},
			{
				"x": 1.0626472425,
				"y": 0.2282353544,
				"z": -2.1947655307,
				"element": "H" 
			},
			{
				"x": -1.1068211839,
				"y": -0.535005479,
				"z": -1.26215364,
				"element": "H" 
			},
			{
				"x": -0.0131745126,
				"y": -1.8149137327,
				"z": -1.8631773469,
				"element": "H" 
			},
			{
				"x": -0.6840879301,
				"y": -2.4600729574,
				"z": 0.3098391235,
				"element": "H" 
			}
		],
		 "valence_orbital": [ 
			{
				"type": "occ",
				"energy": -0.32075,
				"method": "rhf"
			},
			{
				"type": "occ",
				"energy": -0.30442,
				"method": "rhf"
			},
			{
				"type": "occ",
				"energy": -0.2956,
				"method": "rhf"
			},
			{
				"type": "occ",
				"energy": -0.27098,
				"method": "rhf"
			},
			{
				"type": "occ",
				"energy": -0.24964,
				"method": "rhf"
			},
			{
				"type": "unocc",
				"energy": 0.0509,
				"method": "rhf"
			},
			{
				"type": "unocc",
				"energy": 0.06552,
				"method": "rhf"
			},
			{
				"type": "unocc",
				"energy": 0.07912,
				"method": "rhf"
			},
			{
				"type": "unocc",
				"energy": 0.09011,
				"method": "rhf"
			},
			{
				"type": "unocc",
				"energy": 0.10028,
				"method": "rhf"
			}
		],
		"cosmo_sigma_profile": { 
			"-0.025": 0.0,
			"-0.024": 0.0,
			"-0.023": 0.0,
			"-0.022": 0.0,
			"-0.021": 0.0,
			"-0.02": 0.0,
			"-0.019": 0.0,
			"-0.018": 0.0,
			"-0.017": 0.0,
			"-0.016": 0.0963052954284,
			"-0.015": 1.35885193783,
			"-0.014": 1.52925315179,
			"-0.013": 1.24747016788,
			"-0.012": 2.1324345067,
			"-0.011": 2.99435232428,
			"-0.01": 2.68831420733,
			"-0.009": 3.53876171412,
			"-0.008": 6.33223527731,
			"-0.007": 9.46696478379,
			"-0.006": 11.8706863504,
			"-0.005": 10.756311343,
			"-0.004": 14.0853515863,
			"-0.003": 10.3083664096,
			"-0.002": 4.85314992043,
			"-0.001": 4.28941403042,
			"0.0": 2.91583631389,
			"0.001": 2.56231789982,
			"0.002": 3.46688796248,
			"0.003": 2.94710080625,
			"0.004": 2.67767203936,
			"0.005": 2.34888105258,
			"0.006": 3.4148664002,
			"0.007": 3.6697371991,
			"0.008": 3.74173689528,
			"0.009": 4.07760677446,
			"0.01": 6.65027651989,
			"0.011": 12.9130710881,
			"0.012": 8.32738240007,
			"0.013": 2.16171741866,
			"0.014": 0.87205989851,
			"0.015": 0.237246725385,
			"0.016": 0.613432409363,
			"0.017": 0.108993051047,
			"0.018": 0.0,
			"0.019": 0.0,
			"0.02": 0.0,
			"0.021": 0.0,
			"0.022": 0.0,
			"0.023": 0.0,
			"0.024": 0.0,
			"0.025": 0.0
		}
	}
}
