{
	 "smiles": "CCCCN(CCCC)C(=O)COC(=O)C1=CC=CC=C1", 
	 "Tm": 298.15, 
	 "num_atms": 46, 
	 "gaussian": { 
		 "optdone": 1, 
		 "sigma_profile": "yes", 
		 "theory": "DFT", 
		 "functional": "B3LYP", 
		 "basiset": "6-31G**", 
		 "properties": { 
			 "R2extent": 10315.2197, 
			 "electric_dipole_moment_norm": 3.00043369532, 
			 "electric_quadrupole_moment_norm": 14.0396187142, 
			 "total_energy": -943.340842541, 
			 "HOMO_LUMO_gap": 0.19468, 
			 "cosmo_polarized_energy": -16.2, 
			 "cosmo_cavitation_energy": 47.25, 
			 "cosmo_dispersion_energy": -31.63, 
			 "cosmo_repulsion_energy": 2.48, 
			 "cosmo_total_nonelectrostatic_energy": 18.1, 
			 "SMD_solvation_energy": 8.77 
		},
		"coords": [
			{
				"x": -0.393581642,
				"y": 3.8574006731,
				"z": -0.2896889293,
				"element": "C" 
			},
			{
				"x": -0.0201526067,
				"y": 2.3714865319,
				"z": -0.2862581103,
				"element": "C" 
			},
			{
				"x": 0.6909584377,
				"y": 1.9484415683,
				"z": 1.0061252522,
				"element": "C" 
			},
			{
				"x": 1.1196186534,
				"y": 0.4726173152,
				"z": 1.0536358577,
				"element": "C" 
			},
			{
				"x": -0.0065478265,
				"y": -0.4727364116,
				"z": 1.0481035073,
				"element": "N" 
			},
			{
				"x": -0.6867541508,
				"y": -0.7114638645,
				"z": 2.3227995022,
				"element": "C" 
			},
			{
				"x": 0.0822961182,
				"y": -1.5632636622,
				"z": 3.3524760112,
				"element": "C" 
			},
			{
				"x": 0.3248350533,
				"y": -3.041247651,
				"z": 2.993042555,
				"element": "C" 
			},
			{
				"x": 1.490054903,
				"y": -3.305316161,
				"z": 2.0294970758,
				"element": "C" 
			},
			{
				"x": -0.3686050024,
				"y": -1.0292061817,
				"z": -0.1515093547,
				"element": "C" 
			},
			{
				"x": 0.2543087981,
				"y": -0.8401712548,
				"z": -1.1885973613,
				"element": "O" 
			},
			{
				"x": -1.6269730492,
				"y": -1.9231433471,
				"z": -0.1655835665,
				"element": "C" 
			},
			{
				"x": -1.9096098315,
				"y": -2.3380192525,
				"z": -1.495572919,
				"element": "O" 
			},
			{
				"x": -2.4969773297,
				"y": -1.3953254326,
				"z": -2.2799729695,
				"element": "C" 
			},
			{
				"x": -2.871387276,
				"y": -0.3205490186,
				"z": -1.8529097117,
				"element": "O" 
			},
			{
				"x": -2.6611018437,
				"y": -1.8512252434,
				"z": -3.6862533601,
				"element": "C" 
			},
			{
				"x": -3.3470812689,
				"y": -1.0073423372,
				"z": -4.5704667915,
				"element": "C" 
			},
			{
				"x": -3.5287595644,
				"y": -1.3870116076,
				"z": -5.8977558549,
				"element": "C" 
			},
			{
				"x": -3.0240209554,
				"y": -2.6096889173,
				"z": -6.3491883469,
				"element": "C" 
			},
			{
				"x": -2.3362489702,
				"y": -3.4511277252,
				"z": -5.4711876688,
				"element": "C" 
			},
			{
				"x": -2.1530718976,
				"y": -3.0758830124,
				"z": -4.1413425788,
				"element": "C" 
			},
			{
				"x": 0.4938943189,
				"y": 4.4936564149,
				"z": -0.1897553026,
				"element": "H" 
			},
			{
				"x": -0.8995113008,
				"y": 4.1363974277,
				"z": -1.2194242956,
				"element": "H" 
			},
			{
				"x": -1.0679873694,
				"y": 4.101403603,
				"z": 0.5398548112,
				"element": "H" 
			},
			{
				"x": 0.6258029685,
				"y": 2.1464017417,
				"z": -1.1431731246,
				"element": "H" 
			},
			{
				"x": -0.9233025406,
				"y": 1.767421636,
				"z": -0.4297469446,
				"element": "H" 
			},
			{
				"x": 0.0505806444,
				"y": 2.1778720413,
				"z": 1.8701419408,
				"element": "H" 
			},
			{
				"x": 1.5977589463,
				"y": 2.5550254649,
				"z": 1.1402239732,
				"element": "H" 
			},
			{
				"x": 1.7145910229,
				"y": 0.2895379087,
				"z": 1.9548320877,
				"element": "H" 
			},
			{
				"x": 1.7401523833,
				"y": 0.2335715936,
				"z": 0.1882751192,
				"element": "H" 
			},
			{
				"x": -1.6559806386,
				"y": -1.176568768,
				"z": 2.1320183312,
				"element": "H" 
			},
			{
				"x": -0.9072898832,
				"y": 0.2631007458,
				"z": 2.7769888058,
				"element": "H" 
			},
			{
				"x": 1.0406723307,
				"y": -1.0843941837,
				"z": 3.5911737395,
				"element": "H" 
			},
			{
				"x": -0.5091132134,
				"y": -1.5170462345,
				"z": 4.2764647364,
				"element": "H" 
			},
			{
				"x": 0.5209777237,
				"y": -3.5852798727,
				"z": 3.925475714,
				"element": "H" 
			},
			{
				"x": -0.6017420205,
				"y": -3.4758287849,
				"z": 2.5916764499,
				"element": "H" 
			},
			{
				"x": 1.6335550344,
				"y": -4.3807636888,
				"z": 1.8812245276,
				"element": "H" 
			},
			{
				"x": 1.3365765208,
				"y": -2.8518851489,
				"z": 1.0472332862,
				"element": "H" 
			},
			{
				"x": 2.4254230885,
				"y": -2.9019891727,
				"z": 2.4341919332,
				"element": "H" 
			},
			{
				"x": -1.4674515138,
				"y": -2.8426526803,
				"z": 0.4022329846,
				"element": "H" 
			},
			{
				"x": -2.4863386107,
				"y": -1.3837555719,
				"z": 0.2414658244,
				"element": "H" 
			},
			{
				"x": -3.7259712267,
				"y": -0.06235558,
				"z": -4.1962454294,
				"element": "H" 
			},
			{
				"x": -4.0611568042,
				"y": -0.7318116768,
				"z": -6.5809425385,
				"element": "H" 
			},
			{
				"x": -3.1644911516,
				"y": -2.9054177575,
				"z": -7.385139498,
				"element": "H" 
			},
			{
				"x": -1.940230719,
				"y": -4.3988367133,
				"z": -5.8240974116,
				"element": "H" 
			},
			{
				"x": -1.6149167388,
				"y": -3.7185277515,
				"z": -3.4545419582,
				"element": "H" 
			}
		],
		 "valence_orbital": [ 
			{
				"type": "occ",
				"energy": -0.27099,
				"method": "rhf"
			},
			{
				"type": "occ",
				"energy": -0.25456,
				"method": "rhf"
			},
			{
				"type": "occ",
				"energy": -0.25269,
				"method": "rhf"
			},
			{
				"type": "occ",
				"energy": -0.2469,
				"method": "rhf"
			},
			{
				"type": "occ",
				"energy": -0.23476,
				"method": "rhf"
			},
			{
				"type": "unocc",
				"energy": -0.04008,
				"method": "rhf"
			},
			{
				"type": "unocc",
				"energy": -0.00199,
				"method": "rhf"
			},
			{
				"type": "unocc",
				"energy": 0.02675,
				"method": "rhf"
			},
			{
				"type": "unocc",
				"energy": 0.06292,
				"method": "rhf"
			},
			{
				"type": "unocc",
				"energy": 0.06685,
				"method": "rhf"
			}
		],
		"cosmo_sigma_profile": { 
			"-0.025": 0.0,
			"-0.024": 0.0,
			"-0.023": 0.0,
			"-0.022": 0.0,
			"-0.021": 0.0,
			"-0.02": 0.0,
			"-0.019": 0.0,
			"-0.018": 0.0,
			"-0.017": 0.0,
			"-0.016": 0.0,
			"-0.015": 0.0,
			"-0.014": 0.0,
			"-0.013": 0.0,
			"-0.012": 0.0,
			"-0.011": 0.0,
			"-0.01": 0.000229254963156,
			"-0.009": 0.221484330351,
			"-0.008": 2.12888040363,
			"-0.007": 6.6972774013,
			"-0.006": 13.4266291328,
			"-0.005": 20.5735973684,
			"-0.004": 23.5038187666,
			"-0.003": 32.7515433297,
			"-0.002": 43.5306562668,
			"-0.001": 43.1822712665,
			"0.0": 43.730775397,
			"0.001": 41.0058576696,
			"0.002": 25.0479685721,
			"0.003": 17.4638049485,
			"0.004": 15.7791131754,
			"0.005": 6.31688580521,
			"0.006": 4.66692427914,
			"0.007": 4.09011908043,
			"0.008": 4.53457848203,
			"0.009": 4.22981965719,
			"0.01": 3.12572771396,
			"0.011": 4.55261511896,
			"0.012": 3.75657446684,
			"0.013": 2.85172512655,
			"0.014": 2.82837100284,
			"0.015": 0.0110492500486,
			"0.016": 0.0,
			"0.017": 0.0,
			"0.018": 0.0,
			"0.019": 0.0,
			"0.02": 0.0,
			"0.021": 0.0,
			"0.022": 0.0,
			"0.023": 0.0,
			"0.024": 0.0,
			"0.025": 0.0
		}
	}
}
