{
	 "smiles": "COC1=CC(CCNC(=O)CC(C)C)=CC=C1OCC1=CC=CC=C1", 
	 "Tm": 387.15, 
	 "num_atms": 52, 
	 "gaussian": { 
		 "optdone": 1, 
		 "sigma_profile": "yes", 
		 "theory": "DFT", 
		 "functional": "B3LYP", 
		 "basiset": "6-31G**", 
		 "properties": { 
			 "R2extent": 12469.8564, 
			 "electric_dipole_moment_norm": 5.80303667229, 
			 "electric_quadrupole_moment_norm": 22.292375632, 
			 "total_energy": -1096.93696711, 
			 "HOMO_LUMO_gap": 0.212, 
			 "cosmo_polarized_energy": -18.76, 
			 "cosmo_cavitation_energy": 54.48, 
			 "cosmo_dispersion_energy": -35.01, 
			 "cosmo_repulsion_energy": 2.72, 
			 "cosmo_total_nonelectrostatic_energy": 22.19, 
			 "SMD_solvation_energy": 9.73 
		},
		"coords": [
			{
				"x": -2.6651461027,
				"y": -1.7361420368,
				"z": 2.2867090874,
				"element": "C" 
			},
			{
				"x": -1.7150590091,
				"y": -0.7498701518,
				"z": 1.9153707764,
				"element": "O" 
			},
			{
				"x": -1.6868947502,
				"y": -0.3358485985,
				"z": 0.6133380903,
				"element": "C" 
			},
			{
				"x": -2.5437182226,
				"y": -0.7971708532,
				"z": -0.3879876422,
				"element": "C" 
			},
			{
				"x": -2.4398153327,
				"y": -0.3239912059,
				"z": -1.7085154809,
				"element": "C" 
			},
			{
				"x": -3.3500625913,
				"y": -0.8816737105,
				"z": -2.7800633886,
				"element": "C" 
			},
			{
				"x": -2.7936604314,
				"y": -2.1397730281,
				"z": -3.4921672982,
				"element": "C" 
			},
			{
				"x": -1.6254027427,
				"y": -1.8865015798,
				"z": -4.3163860678,
				"element": "N" 
			},
			{
				"x": -0.2973491888,
				"y": -2.1657377965,
				"z": -4.0867985859,
				"element": "C" 
			},
			{
				"x": 0.5440537883,
				"y": -1.7913405682,
				"z": -4.898482588,
				"element": "O" 
			},
			{
				"x": 0.0328002457,
				"y": -2.9627488559,
				"z": -2.8252075159,
				"element": "C" 
			},
			{
				"x": 1.5299280033,
				"y": -3.2340963437,
				"z": -2.5669779048,
				"element": "C" 
			},
			{
				"x": 2.1640669852,
				"y": -4.1269847993,
				"z": -3.645019025,
				"element": "C" 
			},
			{
				"x": 2.3315575825,
				"y": -1.9408585436,
				"z": -2.3504436894,
				"element": "C" 
			},
			{
				"x": -1.4613140404,
				"y": 0.6255430774,
				"z": -2.0087424873,
				"element": "C" 
			},
			{
				"x": -0.6047304332,
				"y": 1.0973608536,
				"z": -1.0092831577,
				"element": "C" 
			},
			{
				"x": -0.7045787211,
				"y": 0.630890858,
				"z": 0.2965955776,
				"element": "C" 
			},
			{
				"x": 0.1910887784,
				"y": 1.060906284,
				"z": 1.2451672725,
				"element": "O" 
			},
			{
				"x": -0.3373164796,
				"y": 1.9429328071,
				"z": 2.2524314484,
				"element": "C" 
			},
			{
				"x": 0.6236845019,
				"y": 1.9934415107,
				"z": 3.4134787146,
				"element": "C" 
			},
			{
				"x": 1.1471408044,
				"y": 0.8062721733,
				"z": 3.9428995655,
				"element": "C" 
			},
			{
				"x": 2.004998174,
				"y": 0.8429914045,
				"z": 5.0407579457,
				"element": "C" 
			},
			{
				"x": 2.3444051803,
				"y": 2.0652215633,
				"z": 5.6282926082,
				"element": "C" 
			},
			{
				"x": 1.8260685751,
				"y": 3.2505673955,
				"z": 5.1065739393,
				"element": "C" 
			},
			{
				"x": 0.9741821757,
				"y": 3.2131294588,
				"z": 4.0000961921,
				"element": "C" 
			},
			{
				"x": -2.5052402683,
				"y": -1.9224737649,
				"z": 3.3496200629,
				"element": "H" 
			},
			{
				"x": -3.6943104064,
				"y": -1.3872470802,
				"z": 2.1319699485,
				"element": "H" 
			},
			{
				"x": -2.5155085651,
				"y": -2.6697678001,
				"z": 1.7294960519,
				"element": "H" 
			},
			{
				"x": -3.3054571647,
				"y": -1.533001079,
				"z": -0.1525821273,
				"element": "H" 
			},
			{
				"x": -3.5504335982,
				"y": -0.1150194559,
				"z": -3.5383571788,
				"element": "H" 
			},
			{
				"x": -4.3205739344,
				"y": -1.1503976336,
				"z": -2.3444092101,
				"element": "H" 
			},
			{
				"x": -2.5465533074,
				"y": -2.9031838885,
				"z": -2.751698551,
				"element": "H" 
			},
			{
				"x": -3.5848803333,
				"y": -2.5608940443,
				"z": -4.1262026812,
				"element": "H" 
			},
			{
				"x": -1.7602827357,
				"y": -1.3539438012,
				"z": -5.167131834,
				"element": "H" 
			},
			{
				"x": -0.3915593304,
				"y": -2.432697119,
				"z": -1.9637782514,
				"element": "H" 
			},
			{
				"x": -0.5022334921,
				"y": -3.9214989987,
				"z": -2.884000539,
				"element": "H" 
			},
			{
				"x": 1.5551494124,
				"y": -3.7956349355,
				"z": -1.6213085262,
				"element": "H" 
			},
			{
				"x": 1.6122987286,
				"y": -5.0684653482,
				"z": -3.756006539,
				"element": "H" 
			},
			{
				"x": 3.1960000142,
				"y": -4.3788407718,
				"z": -3.3763392635,
				"element": "H" 
			},
			{
				"x": 2.1719534558,
				"y": -3.6183326154,
				"z": -4.6112258739,
				"element": "H" 
			},
			{
				"x": 1.8874714749,
				"y": -1.3262535739,
				"z": -1.5590044393,
				"element": "H" 
			},
			{
				"x": 3.3603217318,
				"y": -2.1732662345,
				"z": -2.0537146217,
				"element": "H" 
			},
			{
				"x": 2.3621076867,
				"y": -1.3486152157,
				"z": -3.267533119,
				"element": "H" 
			},
			{
				"x": -1.3625566027,
				"y": 1.0014158337,
				"z": -3.0224318842,
				"element": "H" 
			},
			{
				"x": 0.1638048245,
				"y": 1.8313972977,
				"z": -1.2297051285,
				"element": "H" 
			},
			{
				"x": -0.483157913,
				"y": 2.9442978032,
				"z": 1.8240065715,
				"element": "H" 
			},
			{
				"x": -1.3138309568,
				"y": 1.5700395766,
				"z": 2.5847144774,
				"element": "H" 
			},
			{
				"x": 0.8816664032,
				"y": -0.1372901681,
				"z": 3.476883489,
				"element": "H" 
			},
			{
				"x": 2.410289841,
				"y": -0.0825699557,
				"z": 5.4404632673,
				"element": "H" 
			},
			{
				"x": 3.0126767641,
				"y": 2.0921579733,
				"z": 6.4843983737,
				"element": "H" 
			},
			{
				"x": 2.0911406389,
				"y": 4.2051597961,
				"z": 5.5524444823,
				"element": "H" 
			},
			{
				"x": 0.5821708833,
				"y": 4.1400058891,
				"z": 3.5878966572,
				"element": "H" 
			}
		],
		 "valence_orbital": [ 
			{
				"type": "occ",
				"energy": -0.2449,
				"method": "rhf"
			},
			{
				"type": "occ",
				"energy": -0.23823,
				"method": "rhf"
			},
			{
				"type": "occ",
				"energy": -0.23737,
				"method": "rhf"
			},
			{
				"type": "occ",
				"energy": -0.23451,
				"method": "rhf"
			},
			{
				"type": "occ",
				"energy": -0.21711,
				"method": "rhf"
			},
			{
				"type": "unocc",
				"energy": -0.00511,
				"method": "rhf"
			},
			{
				"type": "unocc",
				"energy": -0.00057,
				"method": "rhf"
			},
			{
				"type": "unocc",
				"energy": 0.00473,
				"method": "rhf"
			},
			{
				"type": "unocc",
				"energy": 0.007,
				"method": "rhf"
			},
			{
				"type": "unocc",
				"energy": 0.03495,
				"method": "rhf"
			}
		],
		"cosmo_sigma_profile": { 
			"-0.025": 0.0,
			"-0.024": 0.0,
			"-0.023": 0.0,
			"-0.022": 0.0,
			"-0.021": 0.0,
			"-0.02": 0.0,
			"-0.019": 0.0,
			"-0.018": 0.0,
			"-0.017": 0.0,
			"-0.016": 0.0,
			"-0.015": 0.0,
			"-0.014": 0.0,
			"-0.013": 0.378049077525,
			"-0.012": 1.19032879132,
			"-0.011": 0.701498724287,
			"-0.01": 1.04346303006,
			"-0.009": 1.37740977434,
			"-0.008": 0.82839757368,
			"-0.007": 1.28650344628,
			"-0.006": 13.2881311273,
			"-0.005": 35.9653770042,
			"-0.004": 41.4675637765,
			"-0.003": 41.4339717792,
			"-0.002": 38.0739744649,
			"-0.001": 37.5907207001,
			"0.0": 34.7015970882,
			"0.001": 34.5908139155,
			"0.002": 39.2928346249,
			"0.003": 23.3841931167,
			"0.004": 19.1764387878,
			"0.005": 19.3491346367,
			"0.006": 15.4304174716,
			"0.007": 4.63716048043,
			"0.008": 4.16219540703,
			"0.009": 2.92249563133,
			"0.01": 3.32848518813,
			"0.011": 2.48008189097,
			"0.012": 2.49964279063,
			"0.013": 1.75876120671,
			"0.014": 3.61323075964,
			"0.015": 1.70223111239,
			"0.016": 0.0101300565814,
			"0.017": 0.0,
			"0.018": 0.0,
			"0.019": 0.0,
			"0.02": 0.0,
			"0.021": 0.0,
			"0.022": 0.0,
			"0.023": 0.0,
			"0.024": 0.0,
			"0.025": 0.0
		}
	}
}
