{
	 "smiles": "NC1=NC=NC(NC2=CC=CC=C2)=N1", 
	 "Tm": 509.15, 
	 "num_atms": 23, 
	 "gaussian": { 
		 "optdone": 1, 
		 "sigma_profile": "yes", 
		 "theory": "DFT", 
		 "functional": "B3LYP", 
		 "basiset": "6-31G**", 
		 "properties": { 
			 "R2extent": 3621.6033, 
			 "electric_dipole_moment_norm": 2.49290627782, 
			 "electric_quadrupole_moment_norm": 14.148227242, 
			 "total_energy": -622.17489232, 
			 "HOMO_LUMO_gap": 0.18404, 
			 "cosmo_polarized_energy": -12.84, 
			 "cosmo_cavitation_energy": 27.61, 
			 "cosmo_dispersion_energy": -21.07, 
			 "cosmo_repulsion_energy": 1.65, 
			 "cosmo_total_nonelectrostatic_energy": 8.2, 
			 "SMD_solvation_energy": 1.12 
		},
		"coords": [
			{
				"x": -0.4838487849,
				"y": -4.3933513761,
				"z": 0.1096260064,
				"element": "N" 
			},
			{
				"x": 0.1051366729,
				"y": -3.2331201923,
				"z": 0.4821850165,
				"element": "C" 
			},
			{
				"x": 1.1806768054,
				"y": -3.334975612,
				"z": 1.3030932561,
				"element": "N" 
			},
			{
				"x": 1.6953728237,
				"y": -2.1589203529,
				"z": 1.639947581,
				"element": "C" 
			},
			{
				"x": 1.2749271849,
				"y": -0.9477212617,
				"z": 1.2652117053,
				"element": "N" 
			},
			{
				"x": 0.202925165,
				"y": -0.9780505861,
				"z": 0.449801243,
				"element": "C" 
			},
			{
				"x": -0.3439877801,
				"y": 0.1820119268,
				"z": -0.0209313571,
				"element": "N" 
			},
			{
				"x": -0.0120124093,
				"y": 1.536620647,
				"z": 0.1669956654,
				"element": "C" 
			},
			{
				"x": 1.0573973781,
				"y": 1.988760674,
				"z": 0.9563329447,
				"element": "C" 
			},
			{
				"x": 1.29283083,
				"y": 3.3593044404,
				"z": 1.0700142846,
				"element": "C" 
			},
			{
				"x": 0.4883175643,
				"y": 4.292862585,
				"z": 0.41601489,
				"element": "C" 
			},
			{
				"x": -0.5744728106,
				"y": 3.8396183673,
				"z": -0.3681714689,
				"element": "C" 
			},
			{
				"x": -0.8237175186,
				"y": 2.4765503722,
				"z": -0.4927080997,
				"element": "C" 
			},
			{
				"x": -0.4228492931,
				"y": -2.0923256665,
				"z": 0.0234374143,
				"element": "N" 
			},
			{
				"x": -0.0478022048,
				"y": -5.2614949126,
				"z": 0.3713932175,
				"element": "H" 
			},
			{
				"x": -1.2269209529,
				"y": -4.3737809174,
				"z": -0.5682726839,
				"element": "H" 
			},
			{
				"x": 2.5633073811,
				"y": -2.1809433229,
				"z": 2.2984345616,
				"element": "H" 
			},
			{
				"x": -1.1404997103,
				"y": 0.003064755,
				"z": -0.6174775678,
				"element": "H" 
			},
			{
				"x": 1.6821008023,
				"y": 1.2682291317,
				"z": 1.4642667799,
				"element": "H" 
			},
			{
				"x": 2.1235473899,
				"y": 3.6965225232,
				"z": 1.6838866271,
				"element": "H" 
			},
			{
				"x": 0.6848581902,
				"y": 5.3559848944,
				"z": 0.5148146375,
				"element": "H" 
			},
			{
				"x": -1.2146351371,
				"y": 4.5475724241,
				"z": -0.8868276486,
				"element": "H" 
			},
			{
				"x": -1.6537515861,
				"y": 2.1313814593,
				"z": -1.1054670048,
				"element": "H" 
			}
		],
		 "valence_orbital": [ 
			{
				"type": "occ",
				"energy": -0.26265,
				"method": "rhf"
			},
			{
				"type": "occ",
				"energy": -0.25985,
				"method": "rhf"
			},
			{
				"type": "occ",
				"energy": -0.25002,
				"method": "rhf"
			},
			{
				"type": "occ",
				"energy": -0.24584,
				"method": "rhf"
			},
			{
				"type": "occ",
				"energy": -0.2092,
				"method": "rhf"
			},
			{
				"type": "unocc",
				"energy": -0.02516,
				"method": "rhf"
			},
			{
				"type": "unocc",
				"energy": -0.00848,
				"method": "rhf"
			},
			{
				"type": "unocc",
				"energy": 0.00409,
				"method": "rhf"
			},
			{
				"type": "unocc",
				"energy": 0.03486,
				"method": "rhf"
			},
			{
				"type": "unocc",
				"energy": 0.08422,
				"method": "rhf"
			}
		],
		"cosmo_sigma_profile": { 
			"-0.025": 0.0,
			"-0.024": 0.0,
			"-0.023": 0.0,
			"-0.022": 0.0,
			"-0.021": 0.0,
			"-0.02": 0.0,
			"-0.019": 0.0,
			"-0.018": 0.0,
			"-0.017": 0.0,
			"-0.016": 0.0,
			"-0.015": 0.165486986252,
			"-0.014": 2.83363736284,
			"-0.013": 3.17424432376,
			"-0.012": 2.6780368853,
			"-0.011": 3.14715600358,
			"-0.01": 3.08962317326,
			"-0.009": 3.89867762118,
			"-0.008": 2.70894390475,
			"-0.007": 5.34310614592,
			"-0.006": 7.61102448408,
			"-0.005": 10.7878651813,
			"-0.004": 10.9813583678,
			"-0.003": 13.3842968253,
			"-0.002": 12.1374423525,
			"-0.001": 13.6303562562,
			"0.0": 15.9230092219,
			"0.001": 14.2335624435,
			"0.002": 17.3204131278,
			"0.003": 15.2999491271,
			"0.004": 16.6972190789,
			"0.005": 14.285434538,
			"0.006": 13.0091244762,
			"0.007": 4.57175660169,
			"0.008": 3.35470445647,
			"0.009": 3.44591351627,
			"0.01": 1.76010137923,
			"0.011": 2.3713973065,
			"0.012": 1.53916256088,
			"0.013": 0.752766468147,
			"0.014": 0.611722763231,
			"0.015": 0.71078271585,
			"0.016": 0.112100815335,
			"0.017": 0.0,
			"0.018": 0.0,
			"0.019": 0.0,
			"0.02": 0.0,
			"0.021": 0.0,
			"0.022": 0.0,
			"0.023": 0.0,
			"0.024": 0.0,
			"0.025": 0.0
		}
	}
}
