{
	 "smiles": "CC1=C(C=CC2=CC=CC=C2)C(C)=NN1", 
	 "Tm": 457.15, 
	 "num_atms": 29, 
	 "gaussian": { 
		 "optdone": 1, 
		 "sigma_profile": "yes", 
		 "theory": "DFT", 
		 "functional": "B3LYP", 
		 "basiset": "6-31G**", 
		 "properties": { 
			 "R2extent": 5157.8728, 
			 "electric_dipole_moment_norm": 2.11463763799, 
			 "electric_quadrupole_moment_norm": 16.1622577405, 
			 "total_energy": -613.311973025, 
			 "HOMO_LUMO_gap": 0.15709, 
			 "cosmo_polarized_energy": -13.35, 
			 "cosmo_cavitation_energy": 32.76, 
			 "cosmo_dispersion_energy": -23.52, 
			 "cosmo_repulsion_energy": 1.84, 
			 "cosmo_total_nonelectrostatic_energy": 11.08, 
			 "SMD_solvation_energy": 4.56 
		},
		"coords": [
			{
				"x": 0.2328947059,
				"y": -2.8316923914,
				"z": -0.1344132058,
				"element": "C" 
			},
			{
				"x": 1.002394471,
				"y": -2.4133839705,
				"z": -1.3448805464,
				"element": "C" 
			},
			{
				"x": 1.4042038476,
				"y": -1.1627900619,
				"z": -1.8273109902,
				"element": "C" 
			},
			{
				"x": 1.1873100921,
				"y": 0.1664717794,
				"z": -1.2882872947,
				"element": "C" 
			},
			{
				"x": 0.3541676541,
				"y": 0.5305109374,
				"z": -0.2879309233,
				"element": "C" 
			},
			{
				"x": 0.173284286,
				"y": 1.8831554176,
				"z": 0.2493337805,
				"element": "C" 
			},
			{
				"x": 1.0158541895,
				"y": 2.9669973148,
				"z": -0.0702715346,
				"element": "C" 
			},
			{
				"x": 0.7876964301,
				"y": 4.2332260635,
				"z": 0.4599717806,
				"element": "C" 
			},
			{
				"x": -0.2820866448,
				"y": 4.456075776,
				"z": 1.3324783643,
				"element": "C" 
			},
			{
				"x": -1.1201453157,
				"y": 3.3925805543,
				"z": 1.6704955041,
				"element": "C" 
			},
			{
				"x": -0.8925444421,
				"y": 2.1254280735,
				"z": 1.1372070331,
				"element": "C" 
			},
			{
				"x": 2.1363332817,
				"y": -1.4615983751,
				"z": -3.022130088,
				"element": "C" 
			},
			{
				"x": 2.8033986561,
				"y": -0.5017246415,
				"z": -3.9591483865,
				"element": "C" 
			},
			{
				"x": 2.1784649895,
				"y": -2.7688914789,
				"z": -3.2605743847,
				"element": "N" 
			},
			{
				"x": 1.4863968159,
				"y": -3.3177734247,
				"z": -2.2333024499,
				"element": "N" 
			},
			{
				"x": -0.830757099,
				"y": -2.5787373059,
				"z": -0.2184123133,
				"element": "H" 
			},
			{
				"x": 0.6169456006,
				"y": -2.3342000279,
				"z": 0.7621498991,
				"element": "H" 
			},
			{
				"x": 0.3050187079,
				"y": -3.9125720016,
				"z": 0.0241162223,
				"element": "H" 
			},
			{
				"x": 1.7713242434,
				"y": 0.944833942,
				"z": -1.7766327729,
				"element": "H" 
			},
			{
				"x": -0.279776881,
				"y": -0.2242139998,
				"z": 0.1712495999,
				"element": "H" 
			},
			{
				"x": 1.8657439194,
				"y": 2.8148533271,
				"z": -0.7285990287,
				"element": "H" 
			},
			{
				"x": 1.4532566072,
				"y": 5.0512808375,
				"z": 0.1980099752,
				"element": "H" 
			},
			{
				"x": -0.4542847596,
				"y": 5.4449188638,
				"z": 1.7472737273,
				"element": "H" 
			},
			{
				"x": -1.9528608192,
				"y": 3.5490351439,
				"z": 2.3507332527,
				"element": "H" 
			},
			{
				"x": -1.5528289371,
				"y": 1.3034748437,
				"z": 1.4037207729,
				"element": "H" 
			},
			{
				"x": 3.2828220515,
				"y": -1.0560280428,
				"z": -4.7687570596,
				"element": "H" 
			},
			{
				"x": 2.0849202532,
				"y": 0.1991638718,
				"z": -4.3991455382,
				"element": "H" 
			},
			{
				"x": 3.5704143901,
				"y": 0.0937678382,
				"z": -3.4501646539,
				"element": "H" 
			},
			{
				"x": 1.3909397057,
				"y": -4.3206688624,
				"z": -2.1891787412,
				"element": "H" 
			}
		],
		 "valence_orbital": [ 
			{
				"type": "occ",
				"energy": -0.28033,
				"method": "rhf"
			},
			{
				"type": "occ",
				"energy": -0.25709,
				"method": "rhf"
			},
			{
				"type": "occ",
				"energy": -0.24557,
				"method": "rhf"
			},
			{
				"type": "occ",
				"energy": -0.23931,
				"method": "rhf"
			},
			{
				"type": "occ",
				"energy": -0.19233,
				"method": "rhf"
			},
			{
				"type": "unocc",
				"energy": -0.03524,
				"method": "rhf"
			},
			{
				"type": "unocc",
				"energy": 0.00501,
				"method": "rhf"
			},
			{
				"type": "unocc",
				"energy": 0.02812,
				"method": "rhf"
			},
			{
				"type": "unocc",
				"energy": 0.04971,
				"method": "rhf"
			},
			{
				"type": "unocc",
				"energy": 0.07618,
				"method": "rhf"
			}
		],
		"cosmo_sigma_profile": { 
			"-0.025": 0.393122150766,
			"-0.024": 0.057671854234,
			"-0.023": 0.14872185892,
			"-0.022": 0.179202768627,
			"-0.021": 0.0450430514532,
			"-0.02": 0.0,
			"-0.019": 0.0434687528275,
			"-0.018": 0.196110657311,
			"-0.017": 0.119651585478,
			"-0.016": 1.03500420222,
			"-0.015": 1.36796615855,
			"-0.014": 1.27093743293,
			"-0.013": 1.53938354233,
			"-0.012": 2.2084094936,
			"-0.011": 1.85502087977,
			"-0.01": 1.04370875776,
			"-0.009": 1.41468410839,
			"-0.008": 1.16981861297,
			"-0.007": 1.57073914535,
			"-0.006": 3.64837054038,
			"-0.005": 16.6272986874,
			"-0.004": 24.0039394892,
			"-0.003": 26.4749972246,
			"-0.002": 22.0272920485,
			"-0.001": 22.4788447547,
			"0.0": 17.8227861188,
			"0.001": 12.2758504377,
			"0.002": 12.6140002033,
			"0.003": 13.2057326687,
			"0.004": 17.2774325633,
			"0.005": 21.1855546588,
			"0.006": 17.3793769075,
			"0.007": 6.52612273142,
			"0.008": 1.67992580872,
			"0.009": 1.63490390744,
			"0.01": 1.15570077374,
			"0.011": 0.58393158035,
			"0.012": 1.38937301373,
			"0.013": 1.23193571758,
			"0.014": 1.36167301187,
			"0.015": 0.932718521021,
			"0.016": 0.691299189113,
			"0.017": 0.618059760773,
			"0.018": 0.0,
			"0.019": 0.0,
			"0.02": 0.0,
			"0.021": 6.70863312451,
			"0.022": -5.32029413309,
			"0.023": -1.23673781542,
			"0.024": 0.0,
			"0.025": 0.0
		}
	}
}
