{
	 "smiles": "CC1=C(C=C(C=C1)C(O)=O)S(N)(=O)=O", 
	 "Tm": 549.15, 
	 "num_atms": 23, 
	 "gaussian": { 
		 "optdone": 1, 
		 "sigma_profile": "yes", 
		 "theory": "DFT", 
		 "functional": "B3LYP", 
		 "basiset": "6-31G**", 
		 "properties": { 
			 "R2extent": 4320.3138, 
			 "electric_dipole_moment_norm": 2.67068048819, 
			 "electric_quadrupole_moment_norm": 21.5857462762, 
			 "total_energy": -1064.05280741, 
			 "HOMO_LUMO_gap": 0.2051, 
			 "cosmo_polarized_energy": -23.83, 
			 "cosmo_cavitation_energy": 28.56, 
			 "cosmo_dispersion_energy": -21.46, 
			 "cosmo_repulsion_energy": 1.64, 
			 "cosmo_total_nonelectrostatic_energy": 8.74, 
			 "SMD_solvation_energy": 5.87 
		},
		"coords": [
			{
				"x": 0.4439653325,
				"y": 1.8828455697,
				"z": -1.4957591598,
				"element": "C" 
			},
			{
				"x": 0.6907740432,
				"y": 0.7157121499,
				"z": -0.5732271582,
				"element": "C" 
			},
			{
				"x": 1.0073906347,
				"y": -0.5804251948,
				"z": -1.0402725914,
				"element": "C" 
			},
			{
				"x": 1.2295973926,
				"y": -1.6398727761,
				"z": -0.1687448078,
				"element": "C" 
			},
			{
				"x": 1.1604091078,
				"y": -1.4388871894,
				"z": 1.2159399412,
				"element": "C" 
			},
			{
				"x": 0.8341109807,
				"y": -0.1679290172,
				"z": 1.6987555822,
				"element": "C" 
			},
			{
				"x": 0.6047989195,
				"y": 0.8838859372,
				"z": 0.8134398684,
				"element": "C" 
			},
			{
				"x": 1.4044819604,
				"y": -2.6277090407,
				"z": 2.0968669172,
				"element": "C" 
			},
			{
				"x": 1.7192957629,
				"y": -2.3746099012,
				"z": 3.3949346063,
				"element": "O" 
			},
			{
				"x": 1.3316735891,
				"y": -3.7675616439,
				"z": 1.7030990224,
				"element": "O" 
			},
			{
				"x": 1.1185517014,
				"y": -0.8380207278,
				"z": -2.8216670884,
				"element": "S" 
			},
			{
				"x": 1.4799892767,
				"y": -2.4780228858,
				"z": -2.959074589,
				"element": "N" 
			},
			{
				"x": 2.2809368081,
				"y": -0.0911192849,
				"z": -3.3153282068,
				"element": "O" 
			},
			{
				"x": -0.2162493728,
				"y": -0.6254803692,
				"z": -3.3919555717,
				"element": "O" 
			},
			{
				"x": 0.2282407596,
				"y": 2.7873532234,
				"z": -0.9231292395,
				"element": "H" 
			},
			{
				"x": 1.3157779945,
				"y": 2.0676776709,
				"z": -2.130686089,
				"element": "H" 
			},
			{
				"x": -0.3979721268,
				"y": 1.6790403449,
				"z": -2.1640992433,
				"element": "H" 
			},
			{
				"x": 1.4580176466,
				"y": -2.6280816444,
				"z": -0.5471064076,
				"element": "H" 
			},
			{
				"x": 0.717459869,
				"y": 0.013636157,
				"z": 2.7645439044,
				"element": "H" 
			},
			{
				"x": 0.3452467334,
				"y": 1.8633824587,
				"z": 1.2040975913,
				"element": "H" 
			},
			{
				"x": 1.9078055005,
				"y": -1.4344714653,
				"z": 3.5201849476,
				"element": "H" 
			},
			{
				"x": 0.722447216,
				"y": -2.9608679362,
				"z": -3.4336630523,
				"element": "H" 
			},
			{
				"x": 2.3700502706,
				"y": -2.5927744348,
				"z": -3.4352491763,
				"element": "H" 
			}
		],
		 "valence_orbital": [ 
			{
				"type": "occ",
				"energy": -0.31584,
				"method": "rhf"
			},
			{
				"type": "occ",
				"energy": -0.30039,
				"method": "rhf"
			},
			{
				"type": "occ",
				"energy": -0.28488,
				"method": "rhf"
			},
			{
				"type": "occ",
				"energy": -0.28045,
				"method": "rhf"
			},
			{
				"type": "occ",
				"energy": -0.27072,
				"method": "rhf"
			},
			{
				"type": "unocc",
				"energy": -0.06562,
				"method": "rhf"
			},
			{
				"type": "unocc",
				"energy": -0.04206,
				"method": "rhf"
			},
			{
				"type": "unocc",
				"energy": 0.02816,
				"method": "rhf"
			},
			{
				"type": "unocc",
				"energy": 0.04235,
				"method": "rhf"
			},
			{
				"type": "unocc",
				"energy": 0.05152,
				"method": "rhf"
			}
		],
		"cosmo_sigma_profile": { 
			"-0.025": 0.0,
			"-0.024": 0.0,
			"-0.023": 0.0,
			"-0.022": 0.0,
			"-0.021": 0.0,
			"-0.02": 0.0,
			"-0.019": 0.59522549382,
			"-0.018": 1.26011399866,
			"-0.017": 0.742659746803,
			"-0.016": 1.41066292351,
			"-0.015": 3.20474945565,
			"-0.014": 3.27331540891,
			"-0.013": 3.57771398204,
			"-0.012": 3.21916528672,
			"-0.011": 3.25111159766,
			"-0.01": 3.37682117519,
			"-0.009": 3.83998315889,
			"-0.008": 4.60767121326,
			"-0.007": 6.59084145253,
			"-0.006": 7.89997330642,
			"-0.005": 8.09508294064,
			"-0.004": 9.83705820728,
			"-0.003": 12.3710224576,
			"-0.002": 15.2368751508,
			"-0.001": 18.2100618465,
			"0.0": 14.1572355221,
			"0.001": 19.6601345168,
			"0.002": 9.69235618981,
			"0.003": 6.03136868667,
			"0.004": 5.95385895047,
			"0.005": 5.09509909857,
			"0.006": 3.76018401268,
			"0.007": 5.83091422741,
			"0.008": 6.04612465791,
			"0.009": 7.78545843424,
			"0.01": 12.6139551465,
			"0.011": 14.0216470107,
			"0.012": 5.29625914229,
			"0.013": 0.965226333857,
			"0.014": 0.0,
			"0.015": 0.0,
			"0.016": 0.0,
			"0.017": 0.0,
			"0.018": 0.0,
			"0.019": 0.0,
			"0.02": 0.0,
			"0.021": 0.0,
			"0.022": 0.0,
			"0.023": 0.0,
			"0.024": 0.0,
			"0.025": 0.0
		}
	}
}
