{
	 "smiles": "CC(N)C1=NNN=N1", 
	 "Tm": 537.15, 
	 "num_atms": 15, 
	 "gaussian": { 
		 "optdone": 1, 
		 "sigma_profile": "yes", 
		 "theory": "DFT", 
		 "functional": "B3LYP", 
		 "basiset": "6-31G**", 
		 "properties": { 
			 "R2extent": 1056.5815, 
			 "electric_dipole_moment_norm": 2.42798513381, 
			 "electric_quadrupole_moment_norm": 12.0303244761, 
			 "total_energy": -392.2388671, 
			 "HOMO_LUMO_gap": 0.21166, 
			 "cosmo_polarized_energy": -14.37, 
			 "cosmo_cavitation_energy": 18.8, 
			 "cosmo_dispersion_energy": -14.31, 
			 "cosmo_repulsion_energy": 1.22, 
			 "cosmo_total_nonelectrostatic_energy": 5.72, 
			 "SMD_solvation_energy": 0.22 
		},
		"coords": [
			{
				"x": -0.2005942668,
				"y": -2.3066232073,
				"z": -1.0900728394,
				"element": "C" 
			},
			{
				"x": -1.2975701913,
				"y": -1.3048015699,
				"z": -0.7107773184,
				"element": "C" 
			},
			{
				"x": -1.8622783552,
				"y": -0.7009874728,
				"z": -1.9200031053,
				"element": "N" 
			},
			{
				"x": -0.7599121564,
				"y": -0.2175288422,
				"z": 0.1811521036,
				"element": "C" 
			},
			{
				"x": -1.1357690871,
				"y": 1.0576354367,
				"z": 0.1101771606,
				"element": "N" 
			},
			{
				"x": -0.4364028663,
				"y": 1.5855385146,
				"z": 1.1110360281,
				"element": "N" 
			},
			{
				"x": 0.3274696195,
				"y": 0.7234086799,
				"z": 1.7721396121,
				"element": "N" 
			},
			{
				"x": 0.1278608224,
				"y": -0.4327213501,
				"z": 1.1920258912,
				"element": "N" 
			},
			{
				"x": 0.2625396726,
				"y": -2.7325800664,
				"z": -0.1973107808,
				"element": "H" 
			},
			{
				"x": 0.5675769017,
				"y": -1.8106938427,
				"z": -1.689291695,
				"element": "H" 
			},
			{
				"x": -0.628861103,
				"y": -3.1212635489,
				"z": -1.6835079111,
				"element": "H" 
			},
			{
				"x": -2.0489147771,
				"y": -1.8482693254,
				"z": -0.1058134157,
				"element": "H" 
			},
			{
				"x": -2.5283836769,
				"y": 0.0265020196,
				"z": -1.6737906168,
				"element": "H" 
			},
			{
				"x": -2.3681617622,
				"y": -1.4099836475,
				"z": -2.4439952071,
				"element": "H" 
			},
			{
				"x": -0.4657987738,
				"y": 2.5692682222,
				"z": 1.3419320941,
				"element": "H" 
			}
		],
		 "valence_orbital": [ 
			{
				"type": "occ",
				"energy": -0.32654,
				"method": "rhf"
			},
			{
				"type": "occ",
				"energy": -0.31911,
				"method": "rhf"
			},
			{
				"type": "occ",
				"energy": -0.29219,
				"method": "rhf"
			},
			{
				"type": "occ",
				"energy": -0.29102,
				"method": "rhf"
			},
			{
				"type": "occ",
				"energy": -0.2395,
				"method": "rhf"
			},
			{
				"type": "unocc",
				"energy": -0.02784,
				"method": "rhf"
			},
			{
				"type": "unocc",
				"energy": 0.02931,
				"method": "rhf"
			},
			{
				"type": "unocc",
				"energy": 0.06503,
				"method": "rhf"
			},
			{
				"type": "unocc",
				"energy": 0.08858,
				"method": "rhf"
			},
			{
				"type": "unocc",
				"energy": 0.13436,
				"method": "rhf"
			}
		],
		"cosmo_sigma_profile": { 
			"-0.025": 0.0,
			"-0.024": 0.0,
			"-0.023": 0.0,
			"-0.022": 0.0,
			"-0.021": 0.0,
			"-0.02": 0.368292234088,
			"-0.019": 1.74210149153,
			"-0.018": 1.7805893255,
			"-0.017": 0.679944033545,
			"-0.016": 0.472653283306,
			"-0.015": 1.72838923558,
			"-0.014": 1.14614684937,
			"-0.013": 0.146143201082,
			"-0.012": 0.59057279694,
			"-0.011": 1.60805147185,
			"-0.01": 2.4797769973,
			"-0.009": 2.54071776784,
			"-0.008": 2.85575132663,
			"-0.007": 3.64743509312,
			"-0.006": 4.04315840349,
			"-0.005": 5.12333029415,
			"-0.004": 11.0722122562,
			"-0.003": 12.6423484978,
			"-0.002": 11.7199328329,
			"-0.001": 10.0229834801,
			"0.0": 9.82805593234,
			"0.001": 7.86662839672,
			"0.002": 4.90447906062,
			"0.003": 5.40872636994,
			"0.004": 3.94382381653,
			"0.005": 4.01456096814,
			"0.006": 3.87146812922,
			"0.007": 4.54015799475,
			"0.008": 4.86759208347,
			"0.009": 4.69903442497,
			"0.01": 5.6492252157,
			"0.011": 3.783201628,
			"0.012": 2.53649192413,
			"0.013": 1.99947884301,
			"0.014": 1.24757071455,
			"0.015": 0.697339672318,
			"0.016": 0.333132837801,
			"0.017": 0.440147943597,
			"0.018": 0.841922908984,
			"0.019": 0.165193379868,
			"0.02": 0.0,
			"0.021": 0.0,
			"0.022": 0.0,
			"0.023": 0.0,
			"0.024": 0.0,
			"0.025": 0.0
		}
	}
}
