{
	 "smiles": "CC(OCCC1=CC=CC=C1)=C(C#N)C1=CC=CC=C1", 
	 "Tm": 391.15, 
	 "num_atms": 37, 
	 "gaussian": { 
		 "optdone": 1, 
		 "sigma_profile": "yes", 
		 "theory": "DFT", 
		 "functional": "B3LYP", 
		 "basiset": "6-31G**", 
		 "properties": { 
			 "R2extent": 7569.6718, 
			 "electric_dipole_moment_norm": 5.7303477329, 
			 "electric_quadrupole_moment_norm": 11.8646916791, 
			 "total_energy": -826.107168685, 
			 "HOMO_LUMO_gap": 0.18311, 
			 "cosmo_polarized_energy": -16.72, 
			 "cosmo_cavitation_energy": 41.87, 
			 "cosmo_dispersion_energy": -27.91, 
			 "cosmo_repulsion_energy": 2.16, 
			 "cosmo_total_nonelectrostatic_energy": 16.11, 
			 "SMD_solvation_energy": 8.06 
		},
		"coords": [
			{
				"x": -2.4033863261,
				"y": -0.2850338369,
				"z": -0.8663516042,
				"element": "C" 
			},
			{
				"x": -1.2890376674,
				"y": -0.2885799972,
				"z": 0.1378192402,
				"element": "C" 
			},
			{
				"x": -0.5927841246,
				"y": 0.8533528925,
				"z": 0.3463083105,
				"element": "O" 
			},
			{
				"x": -0.9236280068,
				"y": 2.0811337175,
				"z": -0.3128909066,
				"element": "C" 
			},
			{
				"x": 0.1616631794,
				"y": 3.0969554886,
				"z": 0.0507006226,
				"element": "C" 
			},
			{
				"x": 1.5247238738,
				"y": 2.7735868289,
				"z": -0.5262383092,
				"element": "C" 
			},
			{
				"x": 1.9599794438,
				"y": 3.3918408089,
				"z": -1.7059097271,
				"element": "C" 
			},
			{
				"x": 3.2043659139,
				"y": 3.0849097083,
				"z": -2.2592985043,
				"element": "C" 
			},
			{
				"x": 4.0332178958,
				"y": 2.1512133818,
				"z": -1.6358373616,
				"element": "C" 
			},
			{
				"x": 3.6099067563,
				"y": 1.5296656935,
				"z": -0.4588989468,
				"element": "C" 
			},
			{
				"x": 2.3661238525,
				"y": 1.837809804,
				"z": 0.0933791631,
				"element": "C" 
			},
			{
				"x": -0.9257576573,
				"y": -1.3619441062,
				"z": 0.9028375506,
				"element": "C" 
			},
			{
				"x": 0.0859945526,
				"y": -1.1590279925,
				"z": 1.895098789,
				"element": "C" 
			},
			{
				"x": 0.9026339513,
				"y": -1.0221640295,
				"z": 2.7152631575,
				"element": "N" 
			},
			{
				"x": -1.5007592093,
				"y": -2.7326612791,
				"z": 0.8062205089,
				"element": "C" 
			},
			{
				"x": -1.6391463998,
				"y": -3.3925511321,
				"z": -0.4263362976,
				"element": "C" 
			},
			{
				"x": -2.175872367,
				"y": -4.6789767469,
				"z": -0.4915009398,
				"element": "C" 
			},
			{
				"x": -2.5638248477,
				"y": -5.3386074484,
				"z": 0.6752909212,
				"element": "C" 
			},
			{
				"x": -2.4050866694,
				"y": -4.7040244717,
				"z": 1.9095331942,
				"element": "C" 
			},
			{
				"x": -1.8780301609,
				"y": -3.4158491414,
				"z": 1.9752020051,
				"element": "C" 
			},
			{
				"x": -3.0889474287,
				"y": 0.5471558241,
				"z": -0.6740718969,
				"element": "H" 
			},
			{
				"x": -2.9686562672,
				"y": -1.2139995676,
				"z": -0.8178834741,
				"element": "H" 
			},
			{
				"x": -2.0250288475,
				"y": -0.1644882512,
				"z": -1.888385813,
				"element": "H" 
			},
			{
				"x": -0.9636317139,
				"y": 1.9349796219,
				"z": -1.3986759774,
				"element": "H" 
			},
			{
				"x": -1.9037449188,
				"y": 2.4364605822,
				"z": 0.0314253413,
				"element": "H" 
			},
			{
				"x": -0.1761277767,
				"y": 4.0748029945,
				"z": -0.312263971,
				"element": "H" 
			},
			{
				"x": 0.2103803002,
				"y": 3.1597507165,
				"z": 1.1434472498,
				"element": "H" 
			},
			{
				"x": 1.3219464402,
				"y": 4.1266961302,
				"z": -2.1926246021,
				"element": "H" 
			},
			{
				"x": 3.5268481265,
				"y": 3.5786946271,
				"z": -3.1718697447,
				"element": "H" 
			},
			{
				"x": 5.0037771588,
				"y": 1.9123837887,
				"z": -2.0614611376,
				"element": "H" 
			},
			{
				"x": 4.2492809967,
				"y": 0.8029475047,
				"z": 0.0341391054,
				"element": "H" 
			},
			{
				"x": 2.0429245751,
				"y": 1.3432105495,
				"z": 1.00437976,
				"element": "H" 
			},
			{
				"x": -1.2990080425,
				"y": -2.9057986249,
				"z": -1.33532648,
				"element": "H" 
			},
			{
				"x": -2.2730178671,
				"y": -5.1716272802,
				"z": -1.4548631221,
				"element": "H" 
			},
			{
				"x": -2.9746984256,
				"y": -6.3426916535,
				"z": 0.6251247944,
				"element": "H" 
			},
			{
				"x": -2.6938807104,
				"y": -5.2127825015,
				"z": 2.8247845395,
				"element": "H" 
			},
			{
				"x": -1.7532115822,
				"y": -2.9290426029,
				"z": 2.9379345628,
				"element": "H" 
			}
		],
		 "valence_orbital": [ 
			{
				"type": "occ",
				"energy": -0.2658,
				"method": "rhf"
			},
			{
				"type": "occ",
				"energy": -0.25423,
				"method": "rhf"
			},
			{
				"type": "occ",
				"energy": -0.2447,
				"method": "rhf"
			},
			{
				"type": "occ",
				"energy": -0.24001,
				"method": "rhf"
			},
			{
				"type": "occ",
				"energy": -0.2164,
				"method": "rhf"
			},
			{
				"type": "unocc",
				"energy": -0.03329,
				"method": "rhf"
			},
			{
				"type": "unocc",
				"energy": -0.00637,
				"method": "rhf"
			},
			{
				"type": "unocc",
				"energy": 0.00084,
				"method": "rhf"
			},
			{
				"type": "unocc",
				"energy": 0.00235,
				"method": "rhf"
			},
			{
				"type": "unocc",
				"energy": 0.00493,
				"method": "rhf"
			}
		],
		"cosmo_sigma_profile": { 
			"-0.025": 0.0,
			"-0.024": 0.0,
			"-0.023": 0.0,
			"-0.022": 0.0,
			"-0.021": 0.0,
			"-0.02": 0.0,
			"-0.019": 0.0,
			"-0.018": 0.0,
			"-0.017": 0.0,
			"-0.016": 0.0,
			"-0.015": 0.0,
			"-0.014": 0.0,
			"-0.013": 0.0,
			"-0.012": 0.0,
			"-0.011": 0.0,
			"-0.01": 0.0,
			"-0.009": 0.00396841672816,
			"-0.008": 1.54843462412,
			"-0.007": 6.22454658448,
			"-0.006": 17.2742438406,
			"-0.005": 36.4651568701,
			"-0.004": 33.7172383077,
			"-0.003": 31.9164680735,
			"-0.002": 25.0618508468,
			"-0.001": 22.2742622691,
			"0.0": 16.1715838512,
			"0.001": 20.3754180838,
			"0.002": 22.0389767396,
			"0.003": 21.1481000264,
			"0.004": 20.7179091068,
			"0.005": 20.9878987611,
			"0.006": 14.4325347014,
			"0.007": 5.63944631892,
			"0.008": 2.38623040604,
			"0.009": 2.96924401107,
			"0.01": 3.0710166526,
			"0.011": 2.72080600745,
			"0.012": 2.90558876351,
			"0.013": 2.30567601116,
			"0.014": 1.77808589363,
			"0.015": 0.128501279136,
			"0.016": 0.0,
			"0.017": 0.0,
			"0.018": 0.0,
			"0.019": 0.0,
			"0.02": 0.0,
			"0.021": 0.0,
			"0.022": 0.0,
			"0.023": 0.0,
			"0.024": 0.0,
			"0.025": 0.0
		}
	}
}
