{
	 "smiles": "COC1=CC=C(CC(N)C2=CC=C(OC)C=C2)C=C1", 
	 "Tm": 449.15, 
	 "num_atms": 38, 
	 "gaussian": { 
		 "optdone": 1, 
		 "sigma_profile": "yes", 
		 "theory": "DFT", 
		 "functional": "B3LYP", 
		 "basiset": "6-31G**", 
		 "properties": { 
			 "R2extent": 6508.4163, 
			 "electric_dipole_moment_norm": 2.48740247246, 
			 "electric_quadrupole_moment_norm": 13.8729062045, 
			 "total_energy": -826.330279966, 
			 "HOMO_LUMO_gap": 0.20735, 
			 "cosmo_polarized_energy": -13.5, 
			 "cosmo_cavitation_energy": 40.59, 
			 "cosmo_dispersion_energy": -27.99, 
			 "cosmo_repulsion_energy": 2.2, 
			 "cosmo_total_nonelectrostatic_energy": 14.8, 
			 "SMD_solvation_energy": 7.67 
		},
		"coords": [
			{
				"x": -0.34054984,
				"y": -4.3600456441,
				"z": -3.2868375972,
				"element": "C" 
			},
			{
				"x": -0.509708371,
				"y": -4.4967882879,
				"z": -1.8869030135,
				"element": "O" 
			},
			{
				"x": -0.8691016636,
				"y": -3.3876663232,
				"z": -1.1709877033,
				"element": "C" 
			},
			{
				"x": -1.0942253871,
				"y": -2.1220466018,
				"z": -1.7204776863,
				"element": "C" 
			},
			{
				"x": -1.4611126548,
				"y": -1.0640455017,
				"z": -0.8825719763,
				"element": "C" 
			},
			{
				"x": -1.6123424969,
				"y": -1.2291535162,
				"z": 0.4965920837,
				"element": "C" 
			},
			{
				"x": -2.0156401015,
				"y": -0.0679295236,
				"z": 1.377300202,
				"element": "C" 
			},
			{
				"x": -0.8807240861,
				"y": 0.6156017953,
				"z": 2.1988397631,
				"element": "C" 
			},
			{
				"x": -0.3605762302,
				"y": -0.3331168146,
				"z": 3.1924177338,
				"element": "N" 
			},
			{
				"x": 0.2490552771,
				"y": 1.1434708237,
				"z": 1.3313412468,
				"element": "C" 
			},
			{
				"x": 1.3239981563,
				"y": 0.3266600145,
				"z": 0.941381523,
				"element": "C" 
			},
			{
				"x": 2.3410501837,
				"y": 0.8195819505,
				"z": 0.1339425963,
				"element": "C" 
			},
			{
				"x": 2.3092632617,
				"y": 2.1483473281,
				"z": -0.3142198563,
				"element": "C" 
			},
			{
				"x": 3.3567579193,
				"y": 2.5356468863,
				"z": -1.1036143442,
				"element": "O" 
			},
			{
				"x": 3.3753504909,
				"y": 3.8690260364,
				"z": -1.582335929,
				"element": "C" 
			},
			{
				"x": 1.2472250145,
				"y": 2.9770794524,
				"z": 0.0630242507,
				"element": "C" 
			},
			{
				"x": 0.2360982254,
				"y": 2.4657370257,
				"z": 0.8827183619,
				"element": "C" 
			},
			{
				"x": -1.3836221543,
				"y": -2.5114262914,
				"z": 1.0254749402,
				"element": "C" 
			},
			{
				"x": -1.0168014939,
				"y": -3.5750228179,
				"z": 0.2112852361,
				"element": "C" 
			},
			{
				"x": -0.0535293935,
				"y": -5.3464583256,
				"z": -3.6554961986,
				"element": "H" 
			},
			{
				"x": 0.4509128913,
				"y": -3.6397342206,
				"z": -3.5328624602,
				"element": "H" 
			},
			{
				"x": -1.2704011237,
				"y": -4.0483775712,
				"z": -3.7810828454,
				"element": "H" 
			},
			{
				"x": -0.9898857914,
				"y": -1.9458443757,
				"z": -2.7846417598,
				"element": "H" 
			},
			{
				"x": -1.6299757689,
				"y": -0.0845510424,
				"z": -1.3230039628,
				"element": "H" 
			},
			{
				"x": -2.484631986,
				"y": 0.708371839,
				"z": 0.7625240851,
				"element": "H" 
			},
			{
				"x": -2.7820382817,
				"y": -0.3950041669,
				"z": 2.0945860287,
				"element": "H" 
			},
			{
				"x": -1.3568684829,
				"y": 1.4949602509,
				"z": 2.6698738606,
				"element": "H" 
			},
			{
				"x": -1.0945323797,
				"y": -0.5737354546,
				"z": 3.8547212967,
				"element": "H" 
			},
			{
				"x": 0.3878303092,
				"y": 0.1033158381,
				"z": 3.7253711519,
				"element": "H" 
			},
			{
				"x": 1.3535127192,
				"y": -0.7020246168,
				"z": 1.2836739637,
				"element": "H" 
			},
			{
				"x": 3.174070149,
				"y": 0.1924498799,
				"z": -0.1675475284,
				"element": "H" 
			},
			{
				"x": 2.5018146694,
				"y": 4.0885203179,
				"z": -2.2105702896,
				"element": "H" 
			},
			{
				"x": 4.2808636292,
				"y": 3.9624223022,
				"z": -2.1843842858,
				"element": "H" 
			},
			{
				"x": 3.4137314284,
				"y": 4.5964659967,
				"z": -0.760585285,
				"element": "H" 
			},
			{
				"x": 1.2001251266,
				"y": 4.0105486243,
				"z": -0.2597062404,
				"element": "H" 
			},
			{
				"x": -0.5786831206,
				"y": 3.1231202882,
				"z": 1.1794991283,
				"element": "H" 
			},
			{
				"x": -1.4825845204,
				"y": -2.6719794361,
				"z": 2.0941689866,
				"element": "H" 
			},
			{
				"x": -0.8410241232,
				"y": -4.564576118,
				"z": 0.621092523,
				"element": "H" 
			}
		],
		 "valence_orbital": [ 
			{
				"type": "occ",
				"energy": -0.2429,
				"method": "rhf"
			},
			{
				"type": "occ",
				"energy": -0.23834,
				"method": "rhf"
			},
			{
				"type": "occ",
				"energy": -0.23101,
				"method": "rhf"
			},
			{
				"type": "occ",
				"energy": -0.20806,
				"method": "rhf"
			},
			{
				"type": "occ",
				"energy": -0.20156,
				"method": "rhf"
			},
			{
				"type": "unocc",
				"energy": 0.00579,
				"method": "rhf"
			},
			{
				"type": "unocc",
				"energy": 0.01187,
				"method": "rhf"
			},
			{
				"type": "unocc",
				"energy": 0.01862,
				"method": "rhf"
			},
			{
				"type": "unocc",
				"energy": 0.02523,
				"method": "rhf"
			},
			{
				"type": "unocc",
				"energy": 0.08183,
				"method": "rhf"
			}
		],
		"cosmo_sigma_profile": { 
			"-0.025": 0.0,
			"-0.024": 0.0,
			"-0.023": 0.0,
			"-0.022": 0.0,
			"-0.021": 0.0,
			"-0.02": 0.0,
			"-0.019": 0.0,
			"-0.018": 0.0,
			"-0.017": 0.0,
			"-0.016": 0.0,
			"-0.015": 0.0,
			"-0.014": 0.0,
			"-0.013": 0.0,
			"-0.012": 0.0,
			"-0.011": 0.0,
			"-0.01": 0.654427575796,
			"-0.009": 2.49548510717,
			"-0.008": 2.56798865531,
			"-0.007": 3.30049109555,
			"-0.006": 10.0529394602,
			"-0.005": 29.5862155314,
			"-0.004": 33.7105932814,
			"-0.003": 40.4916502586,
			"-0.002": 29.5825874242,
			"-0.001": 19.9763097637,
			"0.0": 16.8146590829,
			"0.001": 15.3834649592,
			"0.002": 14.2207772678,
			"0.003": 14.8587858153,
			"0.004": 19.5564451083,
			"0.005": 21.2287254921,
			"0.006": 20.5989400571,
			"0.007": 7.91688009156,
			"0.008": 4.93007439364,
			"0.009": 3.47077550907,
			"0.01": 3.44674307059,
			"0.011": 2.46277701058,
			"0.012": 0.787977879633,
			"0.013": 0.792669537799,
			"0.014": 0.415053855059,
			"0.015": 0.293282105273,
			"0.016": 0.0688081117736,
			"0.017": 0.0,
			"0.018": 0.0,
			"0.019": 0.0,
			"0.02": 0.0,
			"0.021": 0.0,
			"0.022": 0.0,
			"0.023": 0.0,
			"0.024": 0.0,
			"0.025": 0.0
		}
	}
}
