{
	 "smiles": "COC1=CC=CC=C1C1NN2C(S1)=NN=C2C1=CN=CC=C1", 
	 "Tm": 494.15, 
	 "num_atms": 35, 
	 "gaussian": { 
		 "optdone": 1, 
		 "sigma_profile": "yes", 
		 "theory": "DFT", 
		 "functional": "B3LYP", 
		 "basiset": "6-31G**", 
		 "properties": { 
			 "R2extent": 9608.3094, 
			 "electric_dipole_moment_norm": 6.81613137051, 
			 "electric_quadrupole_moment_norm": 25.7749781267, 
			 "total_energy": -1326.50341042, 
			 "HOMO_LUMO_gap": 0.17314, 
			 "cosmo_polarized_energy": -22.25, 
			 "cosmo_cavitation_energy": 41.09, 
			 "cosmo_dispersion_energy": -29.87, 
			 "cosmo_repulsion_energy": 2.2, 
			 "cosmo_total_nonelectrostatic_energy": 13.42, 
			 "SMD_solvation_energy": 3.1 
		},
		"coords": [
			{
				"x": 1.839199078,
				"y": -1.2941824219,
				"z": -3.7060315684,
				"element": "C" 
			},
			{
				"x": 1.6367287257,
				"y": -0.779383293,
				"z": -2.3965271792,
				"element": "O" 
			},
			{
				"x": 2.0023143874,
				"y": 0.508997436,
				"z": -2.133119272,
				"element": "C" 
			},
			{
				"x": 2.578603425,
				"y": 1.3696858856,
				"z": -3.0735090982,
				"element": "C" 
			},
			{
				"x": 2.9293174806,
				"y": 2.6686874127,
				"z": -2.6993624871,
				"element": "C" 
			},
			{
				"x": 2.712097406,
				"y": 3.1180711521,
				"z": -1.3981821712,
				"element": "C" 
			},
			{
				"x": 2.1368855098,
				"y": 2.25763712,
				"z": -0.4629006555,
				"element": "C" 
			},
			{
				"x": 1.7687306079,
				"y": 0.9562775345,
				"z": -0.8139876652,
				"element": "C" 
			},
			{
				"x": 1.142556058,
				"y": 0.0180773785,
				"z": 0.1774568105,
				"element": "C" 
			},
			{
				"x": 0.3259970048,
				"y": 0.7516123598,
				"z": 1.1908131345,
				"element": "N" 
			},
			{
				"x": 0.2040994206,
				"y": -0.1387709957,
				"z": 2.2906332684,
				"element": "N" 
			},
			{
				"x": 1.2043582274,
				"y": -1.0442140875,
				"z": 2.4662938102,
				"element": "C" 
			},
			{
				"x": 2.4073720519,
				"y": -0.952762396,
				"z": 1.1851275715,
				"element": "S" 
			},
			{
				"x": 1.0565674289,
				"y": -1.7008869059,
				"z": 3.5933134811,
				"element": "N" 
			},
			{
				"x": -0.0785747341,
				"y": -1.1885597609,
				"z": 4.186583835,
				"element": "N" 
			},
			{
				"x": -0.5796842851,
				"y": -0.2311480051,
				"z": 3.4165826349,
				"element": "C" 
			},
			{
				"x": -1.7887419256,
				"y": 0.5370273242,
				"z": 3.7054289035,
				"element": "C" 
			},
			{
				"x": -2.0646704009,
				"y": 1.7785406628,
				"z": 3.1094476182,
				"element": "C" 
			},
			{
				"x": -3.1664384687,
				"y": 2.4956122518,
				"z": 3.3539563065,
				"element": "N" 
			},
			{
				"x": -4.0427839479,
				"y": 1.9999786174,
				"z": 4.2346925498,
				"element": "C" 
			},
			{
				"x": -3.8552928852,
				"y": 0.7891020457,
				"z": 4.9084524244,
				"element": "C" 
			},
			{
				"x": -2.7151210676,
				"y": 0.0436099927,
				"z": 4.6388908114,
				"element": "C" 
			},
			{
				"x": 1.2706866903,
				"y": -0.727349722,
				"z": -4.453576634,
				"element": "H" 
			},
			{
				"x": 1.4785054165,
				"y": -2.3230865983,
				"z": -3.6814697895,
				"element": "H" 
			},
			{
				"x": 2.9015167302,
				"y": -1.2894315629,
				"z": -3.9780966452,
				"element": "H" 
			},
			{
				"x": 2.7590953993,
				"y": 1.0368400129,
				"z": -4.0883168554,
				"element": "H" 
			},
			{
				"x": 3.3772049482,
				"y": 3.3280818242,
				"z": -3.4371695309,
				"element": "H" 
			},
			{
				"x": 2.9884674449,
				"y": 4.1273352308,
				"z": -1.1110379617,
				"element": "H" 
			},
			{
				"x": 1.9546219023,
				"y": 2.5872531924,
				"z": 0.5540513543,
				"element": "H" 
			},
			{
				"x": 0.5450948018,
				"y": -0.7387382928,
				"z": -0.3394600645,
				"element": "H" 
			},
			{
				"x": -0.6076782606,
				"y": 0.8791134566,
				"z": 0.7981919367,
				"element": "H" 
			},
			{
				"x": -1.3497459901,
				"y": 2.230421801,
				"z": 2.4243484496,
				"element": "H" 
			},
			{
				"x": -4.933199918,
				"y": 2.5994204323,
				"z": 4.4150580654,
				"element": "H" 
			},
			{
				"x": -4.5941437062,
				"y": 0.4394013599,
				"z": 5.6225953595,
				"element": "H" 
			},
			{
				"x": -2.5191445554,
				"y": -0.9046704422,
				"z": 5.1278292528,
				"element": "H" 
			}
		],
		 "valence_orbital": [ 
			{
				"type": "occ",
				"energy": -0.2624,
				"method": "rhf"
			},
			{
				"type": "occ",
				"energy": -0.25276,
				"method": "rhf"
			},
			{
				"type": "occ",
				"energy": -0.24724,
				"method": "rhf"
			},
			{
				"type": "occ",
				"energy": -0.23813,
				"method": "rhf"
			},
			{
				"type": "occ",
				"energy": -0.2182,
				"method": "rhf"
			},
			{
				"type": "unocc",
				"energy": -0.04506,
				"method": "rhf"
			},
			{
				"type": "unocc",
				"energy": -0.03681,
				"method": "rhf"
			},
			{
				"type": "unocc",
				"energy": -0.02825,
				"method": "rhf"
			},
			{
				"type": "unocc",
				"energy": -0.00767,
				"method": "rhf"
			},
			{
				"type": "unocc",
				"energy": 0.00229,
				"method": "rhf"
			}
		],
		"cosmo_sigma_profile": { 
			"-0.025": 0.0,
			"-0.024": 0.0,
			"-0.023": 0.0,
			"-0.022": 0.0,
			"-0.021": 0.0,
			"-0.02": 0.0,
			"-0.019": 0.0,
			"-0.018": 0.0,
			"-0.017": 0.0,
			"-0.016": 0.838429267248,
			"-0.015": 1.74561485455,
			"-0.014": 1.68080516767,
			"-0.013": 1.83204030598,
			"-0.012": 1.33173552569,
			"-0.011": 1.40151089084,
			"-0.01": 1.92055967376,
			"-0.009": 1.79097965886,
			"-0.008": 2.21019801053,
			"-0.007": 9.14025235421,
			"-0.006": 20.7550189108,
			"-0.005": 25.34523016,
			"-0.004": 25.0501556791,
			"-0.003": 22.1060445819,
			"-0.002": 19.2618364574,
			"-0.001": 20.5464166386,
			"0.0": 25.7295287161,
			"0.001": 30.9172609099,
			"0.002": 24.6103550173,
			"0.003": 19.6428011968,
			"0.004": 19.7291120409,
			"0.005": 15.2090089002,
			"0.006": 7.35181708697,
			"0.007": 2.99151066508,
			"0.008": 3.12944062671,
			"0.009": 2.64888655931,
			"0.01": 3.16726410802,
			"0.011": 3.77154375063,
			"0.012": 3.11229602948,
			"0.013": 4.94419909744,
			"0.014": 3.437138604,
			"0.015": 3.45616631105,
			"0.016": 1.58471058078,
			"0.017": 0.194254547299,
			"0.018": 0.0,
			"0.019": 0.0,
			"0.02": 0.0,
			"0.021": 0.0,
			"0.022": 0.0,
			"0.023": 0.0,
			"0.024": 0.0,
			"0.025": 0.0
		}
	}
}
