{
	 "smiles": "CC1=C(C=CC=C1)N1C=C(C=N1)C(O)=O", 
	 "Tm": 380.15, 
	 "num_atms": 25, 
	 "gaussian": { 
		 "optdone": 1, 
		 "sigma_profile": "yes", 
		 "theory": "DFT", 
		 "functional": "B3LYP", 
		 "basiset": "6-31G**", 
		 "properties": { 
			 "R2extent": 4127.7103, 
			 "electric_dipole_moment_norm": 4.16675868872, 
			 "electric_quadrupole_moment_norm": 22.2586066037, 
			 "total_energy": -685.133551, 
			 "HOMO_LUMO_gap": 0.19121, 
			 "cosmo_polarized_energy": -16.16, 
			 "cosmo_cavitation_energy": 29.35, 
			 "cosmo_dispersion_energy": -21.73, 
			 "cosmo_repulsion_energy": 1.67, 
			 "cosmo_total_nonelectrostatic_energy": 9.28, 
			 "SMD_solvation_energy": 6.2 
		},
		"coords": [
			{
				"x": 2.2258780996,
				"y": 2.1174274935,
				"z": 0.2041641526,
				"element": "C" 
			},
			{
				"x": 2.0838845171,
				"y": 0.819194885,
				"z": -0.5589458047,
				"element": "C" 
			},
			{
				"x": 0.871853643,
				"y": 0.1381805199,
				"z": -0.8256030405,
				"element": "C" 
			},
			{
				"x": 0.8843438068,
				"y": -1.0645941764,
				"z": -1.5492460987,
				"element": "C" 
			},
			{
				"x": 2.0717038223,
				"y": -1.6135657907,
				"z": -2.0182709718,
				"element": "C" 
			},
			{
				"x": 3.2760642185,
				"y": -0.9610815317,
				"z": -1.767924714,
				"element": "C" 
			},
			{
				"x": 3.2608348259,
				"y": 0.2305317709,
				"z": -1.050636018,
				"element": "C" 
			},
			{
				"x": -0.4059472268,
				"y": 0.6219677347,
				"z": -0.385154936,
				"element": "N" 
			},
			{
				"x": -1.6215363257,
				"y": 0.0461864326,
				"z": -0.5872647974,
				"element": "C" 
			},
			{
				"x": -2.5726274954,
				"y": 0.8551608991,
				"z": 0.0092422451,
				"element": "C" 
			},
			{
				"x": -1.81835317,
				"y": 1.9223860867,
				"z": 0.5603536906,
				"element": "C" 
			},
			{
				"x": -0.5239996985,
				"y": 1.7823359252,
				"z": 0.3241597614,
				"element": "N" 
			},
			{
				"x": -4.0175297134,
				"y": 0.5540909265,
				"z": -0.0015382725,
				"element": "C" 
			},
			{
				"x": -4.8326641441,
				"y": 1.443467607,
				"z": 0.629053638,
				"element": "O" 
			},
			{
				"x": -4.4887086767,
				"y": -0.4260695812,
				"z": -0.5318354566,
				"element": "O" 
			},
			{
				"x": 1.6675808907,
				"y": 2.9306464438,
				"z": -0.264655016,
				"element": "H" 
			},
			{
				"x": 1.8418739448,
				"y": 2.0368294362,
				"z": 1.2234141508,
				"element": "H" 
			},
			{
				"x": 3.2823773545,
				"y": 2.3960313058,
				"z": 0.2477832995,
				"element": "H" 
			},
			{
				"x": -0.0398597056,
				"y": -1.5888708317,
				"z": -1.7556362564,
				"element": "H" 
			},
			{
				"x": 2.0466154881,
				"y": -2.5451901697,
				"z": -2.5747343252,
				"element": "H" 
			},
			{
				"x": 4.2152484812,
				"y": -1.3720363406,
				"z": -2.1249723044,
				"element": "H" 
			},
			{
				"x": 4.1988895507,
				"y": 0.7417943769,
				"z": -0.8537792486,
				"element": "H" 
			},
			{
				"x": -1.7778968737,
				"y": -0.8751280326,
				"z": -1.1210222928,
				"element": "H" 
			},
			{
				"x": -2.1517423781,
				"y": 2.7891042447,
				"z": 1.1190442471,
				"element": "H" 
			},
			{
				"x": -4.320483235,
				"y": 2.172100366,
				"z": 1.0053043684,
				"element": "H" 
			}
		],
		 "valence_orbital": [ 
			{
				"type": "occ",
				"energy": -0.30823,
				"method": "rhf"
			},
			{
				"type": "occ",
				"energy": -0.26962,
				"method": "rhf"
			},
			{
				"type": "occ",
				"energy": -0.26944,
				"method": "rhf"
			},
			{
				"type": "occ",
				"energy": -0.25872,
				"method": "rhf"
			},
			{
				"type": "occ",
				"energy": -0.23847,
				"method": "rhf"
			},
			{
				"type": "unocc",
				"energy": -0.04726,
				"method": "rhf"
			},
			{
				"type": "unocc",
				"energy": -0.01612,
				"method": "rhf"
			},
			{
				"type": "unocc",
				"energy": -0.01084,
				"method": "rhf"
			},
			{
				"type": "unocc",
				"energy": 0.02332,
				"method": "rhf"
			},
			{
				"type": "unocc",
				"energy": 0.05307,
				"method": "rhf"
			}
		],
		"cosmo_sigma_profile": { 
			"-0.025": 0.0,
			"-0.024": 0.0,
			"-0.023": 0.0,
			"-0.022": 0.0,
			"-0.021": 0.0,
			"-0.02": 0.0,
			"-0.019": 0.366601473987,
			"-0.018": 0.962393693039,
			"-0.017": 1.15068505625,
			"-0.016": 1.6394900711,
			"-0.015": 0.70882282132,
			"-0.014": 1.41225892363,
			"-0.013": 0.949177641144,
			"-0.012": 2.53198942503,
			"-0.011": 2.38801674948,
			"-0.01": 2.71521918556,
			"-0.009": 2.49162045379,
			"-0.008": 3.44262840908,
			"-0.007": 3.48682172376,
			"-0.006": 10.4547639115,
			"-0.005": 11.104960504,
			"-0.004": 12.4471663204,
			"-0.003": 13.7988098233,
			"-0.002": 14.7850314966,
			"-0.001": 15.839727075,
			"0.0": 23.4179421804,
			"0.001": 21.9156658966,
			"0.002": 16.0946932482,
			"0.003": 12.5689351265,
			"0.004": 14.004713305,
			"0.005": 10.3306958445,
			"0.006": 4.5263044236,
			"0.007": 4.48882325321,
			"0.008": 4.55118414582,
			"0.009": 3.32617621853,
			"0.01": 3.85692265175,
			"0.011": 5.39227320476,
			"0.012": 5.54988949165,
			"0.013": 2.33028826288,
			"0.014": 0.271070066673,
			"0.015": 0.0,
			"0.016": 0.0,
			"0.017": 0.0,
			"0.018": 0.0,
			"0.019": 0.0,
			"0.02": 0.0,
			"0.021": 0.0,
			"0.022": 0.0,
			"0.023": 0.0,
			"0.024": 0.0,
			"0.025": 0.0
		}
	}
}
