{
	 "smiles": "NC1=CC=C2C(=O)C3=CC(N)=CC=C3C(=O)C2=C1", 
	 "Tm": 598.15, 
	 "num_atms": 28, 
	 "gaussian": { 
		 "optdone": 1, 
		 "sigma_profile": "yes", 
		 "theory": "DFT", 
		 "functional": "B3LYP", 
		 "basiset": "6-31G**", 
		 "properties": { 
			 "R2extent": 5262.197, 
			 "electric_dipole_moment_norm": 1.72068611315, 
			 "electric_quadrupole_moment_norm": 38.4878635405, 
			 "total_energy": -799.501263444, 
			 "HOMO_LUMO_gap": 0.12758, 
			 "cosmo_polarized_energy": -21.73, 
			 "cosmo_cavitation_energy": 32.49, 
			 "cosmo_dispersion_energy": -24.21, 
			 "cosmo_repulsion_energy": 1.81, 
			 "cosmo_total_nonelectrostatic_energy": 10.1, 
			 "SMD_solvation_energy": 5.99 
		},
		"coords": [
			{
				"x": -2.946831741,
				"y": 3.565754835,
				"z": -0.4147675313,
				"element": "N" 
			},
			{
				"x": -2.3137269195,
				"y": 2.3910310236,
				"z": -0.7745973207,
				"element": "C" 
			},
			{
				"x": -2.689173696,
				"y": 1.7011497339,
				"z": -1.9486632198,
				"element": "C" 
			},
			{
				"x": -2.0201444982,
				"y": 0.5504878829,
				"z": -2.3314374068,
				"element": "C" 
			},
			{
				"x": -0.9580951098,
				"y": 0.0431186658,
				"z": -1.5674988959,
				"element": "C" 
			},
			{
				"x": -0.2673269558,
				"y": -1.1876337786,
				"z": -2.0036647396,
				"element": "C" 
			},
			{
				"x": -0.5958785887,
				"y": -1.7937241222,
				"z": -3.0222995346,
				"element": "O" 
			},
			{
				"x": 0.8628386079,
				"y": -1.6764922731,
				"z": -1.1497540368,
				"element": "C" 
			},
			{
				"x": 1.5358741318,
				"y": -2.8297567474,
				"z": -1.5397125974,
				"element": "C" 
			},
			{
				"x": 2.5996576526,
				"y": -3.3350625065,
				"z": -0.7721982884,
				"element": "C" 
			},
			{
				"x": 3.2986739458,
				"y": -4.4531983044,
				"z": -1.1861974986,
				"element": "N" 
			},
			{
				"x": 2.9717697537,
				"y": -2.6480660411,
				"z": 0.4046187737,
				"element": "C" 
			},
			{
				"x": 2.2995191373,
				"y": -1.5001682866,
				"z": 0.7900518659,
				"element": "C" 
			},
			{
				"x": 1.2376466445,
				"y": -0.9926248341,
				"z": 0.0259773073,
				"element": "C" 
			},
			{
				"x": 0.5413492685,
				"y": 0.2333901413,
				"z": 0.4666822347,
				"element": "C" 
			},
			{
				"x": 0.85845794,
				"y": 0.8296659347,
				"z": 1.4946923319,
				"element": "O" 
			},
			{
				"x": -0.5805234487,
				"y": 0.7293678154,
				"z": -0.3940402779,
				"element": "C" 
			},
			{
				"x": -1.2504547148,
				"y": 1.8853076021,
				"z": -0.0066502863,
				"element": "C" 
			},
			{
				"x": -2.8414692147,
				"y": 3.867727824,
				"z": 0.5423757592,
				"element": "H" 
			},
			{
				"x": -3.8654568855,
				"y": 3.7310214197,
				"z": -0.7982763914,
				"element": "H" 
			},
			{
				"x": -3.5076677255,
				"y": 2.0835748141,
				"z": -2.5535525926,
				"element": "H" 
			},
			{
				"x": -2.3037808624,
				"y": 0.0140976969,
				"z": -3.2310364442,
				"element": "H" 
			},
			{
				"x": 1.2171615517,
				"y": -3.3255194754,
				"z": -2.4518222733,
				"element": "H" 
			},
			{
				"x": 3.833615531,
				"y": -4.9477407698,
				"z": -0.4879670099,
				"element": "H" 
			},
			{
				"x": 2.8439848026,
				"y": -5.0547730151,
				"z": -1.8568494367,
				"element": "H" 
			},
			{
				"x": 3.7950669212,
				"y": -3.0263828277,
				"z": 1.0055642296,
				"element": "H" 
			},
			{
				"x": 2.5784915764,
				"y": -0.9677953576,
				"z": 1.6934873731,
				"element": "H" 
			},
			{
				"x": -0.9280771041,
				"y": 2.3842429503,
				"z": 0.9024359068,
				"element": "H" 
			}
		],
		 "valence_orbital": [ 
			{
				"type": "occ",
				"energy": -0.25412,
				"method": "rhf"
			},
			{
				"type": "occ",
				"energy": -0.25065,
				"method": "rhf"
			},
			{
				"type": "occ",
				"energy": -0.23997,
				"method": "rhf"
			},
			{
				"type": "occ",
				"energy": -0.21977,
				"method": "rhf"
			},
			{
				"type": "occ",
				"energy": -0.20997,
				"method": "rhf"
			},
			{
				"type": "unocc",
				"energy": -0.08239,
				"method": "rhf"
			},
			{
				"type": "unocc",
				"energy": -0.0399,
				"method": "rhf"
			},
			{
				"type": "unocc",
				"energy": 0.00232,
				"method": "rhf"
			},
			{
				"type": "unocc",
				"energy": 0.00447,
				"method": "rhf"
			},
			{
				"type": "unocc",
				"energy": 0.06547,
				"method": "rhf"
			}
		],
		"cosmo_sigma_profile": { 
			"-0.025": 0.0,
			"-0.024": 0.0,
			"-0.023": 0.0,
			"-0.022": 0.0,
			"-0.021": 0.0,
			"-0.02": 0.0,
			"-0.019": 0.0,
			"-0.018": 0.0,
			"-0.017": 0.0,
			"-0.016": 0.0,
			"-0.015": 0.0,
			"-0.014": 1.56512765589,
			"-0.013": 5.70479688048,
			"-0.012": 7.06367677936,
			"-0.011": 5.98202964147,
			"-0.01": 6.08161058321,
			"-0.009": 5.53934135411,
			"-0.008": 6.99813106734,
			"-0.007": 6.29607443157,
			"-0.006": 8.06314858209,
			"-0.005": 10.089764821,
			"-0.004": 9.75340782151,
			"-0.003": 10.3750897433,
			"-0.002": 12.0516927669,
			"-0.001": 11.7398638988,
			"0.0": 14.4365108024,
			"0.001": 16.2321372717,
			"0.002": 24.6304890903,
			"0.003": 34.2118985485,
			"0.004": 16.4750423299,
			"0.005": 4.31795172265,
			"0.006": 6.44139886048,
			"0.007": 4.51152269802,
			"0.008": 4.53759612204,
			"0.009": 4.08558529739,
			"0.01": 5.43632877793,
			"0.011": 6.36902305259,
			"0.012": 8.71764433695,
			"0.013": 2.49063124416,
			"0.014": 0.0,
			"0.015": 0.0,
			"0.016": 0.0,
			"0.017": 0.0,
			"0.018": 0.0,
			"0.019": 0.0,
			"0.02": 0.0,
			"0.021": 0.0,
			"0.022": 0.0,
			"0.023": 0.0,
			"0.024": 0.0,
			"0.025": 0.0
		}
	}
}
