{
	 "smiles": "CCCNC(=O)C1CNC2=C(O1)C=CC=C2", 
	 "Tm": 403.15, 
	 "num_atms": 32, 
	 "gaussian": { 
		 "optdone": 1, 
		 "sigma_profile": "yes", 
		 "theory": "DFT", 
		 "functional": "B3LYP", 
		 "basiset": "6-31G**", 
		 "properties": { 
			 "R2extent": 4127.7318, 
			 "electric_dipole_moment_norm": 1.85836477044, 
			 "electric_quadrupole_moment_norm": 8.23306636861, 
			 "total_energy": -726.888385693, 
			 "HOMO_LUMO_gap": 0.20023, 
			 "cosmo_polarized_energy": -12.3, 
			 "cosmo_cavitation_energy": 34.34, 
			 "cosmo_dispersion_energy": -24.14, 
			 "cosmo_repulsion_energy": 1.92, 
			 "cosmo_total_nonelectrostatic_energy": 12.12, 
			 "SMD_solvation_energy": 4.67 
		},
		"coords": [
			{
				"x": 0.5893908417,
				"y": -4.1808103436,
				"z": -2.3049364653,
				"element": "C" 
			},
			{
				"x": 1.5012995518,
				"y": -3.081526085,
				"z": -2.8573800036,
				"element": "C" 
			},
			{
				"x": 1.8669936178,
				"y": -2.0013462838,
				"z": -1.8284399122,
				"element": "C" 
			},
			{
				"x": 0.7183090692,
				"y": -1.2507837912,
				"z": -1.3350670422,
				"element": "N" 
			},
			{
				"x": 0.3554207986,
				"y": -0.0506449896,
				"z": -1.8499402758,
				"element": "C" 
			},
			{
				"x": 0.9372117701,
				"y": 0.5158344526,
				"z": -2.771981278,
				"element": "O" 
			},
			{
				"x": -0.9092605525,
				"y": 0.5718200005,
				"z": -1.2207800985,
				"element": "C" 
			},
			{
				"x": -0.7954271457,
				"y": 2.0964439678,
				"z": -1.1565399683,
				"element": "C" 
			},
			{
				"x": 0.2147198136,
				"y": 2.5157056724,
				"z": -0.1972953207,
				"element": "N" 
			},
			{
				"x": 0.2727043569,
				"y": 1.7573422859,
				"z": 0.99013881,
				"element": "C" 
			},
			{
				"x": -0.4700338651,
				"y": 0.56856143,
				"z": 1.1230845319,
				"element": "C" 
			},
			{
				"x": -1.2010589278,
				"y": 0.0329316234,
				"z": 0.0746507825,
				"element": "O" 
			},
			{
				"x": -0.4856968874,
				"y": -0.1334588769,
				"z": 2.3294287427,
				"element": "C" 
			},
			{
				"x": 0.2743544891,
				"y": 0.3128274022,
				"z": 3.4081606308,
				"element": "C" 
			},
			{
				"x": 1.0545813842,
				"y": 1.4661297019,
				"z": 3.2765726951,
				"element": "C" 
			},
			{
				"x": 1.0409942134,
				"y": 2.1837617095,
				"z": 2.083944821,
				"element": "C" 
			},
			{
				"x": 1.05685884,
				"y": -4.6994042533,
				"z": -1.4592558266,
				"element": "H" 
			},
			{
				"x": 0.3654778639,
				"y": -4.9307315221,
				"z": -3.0698923872,
				"element": "H" 
			},
			{
				"x": -0.3657699256,
				"y": -3.7701591544,
				"z": -1.9598045664,
				"element": "H" 
			},
			{
				"x": 2.4357031138,
				"y": -3.5247705561,
				"z": -3.2250623201,
				"element": "H" 
			},
			{
				"x": 1.0270706737,
				"y": -2.5936014272,
				"z": -3.7169572383,
				"element": "H" 
			},
			{
				"x": 2.3744545156,
				"y": -2.4534801274,
				"z": -0.9677257262,
				"element": "H" 
			},
			{
				"x": 2.5464704064,
				"y": -1.2744100596,
				"z": -2.2801590593,
				"element": "H" 
			},
			{
				"x": 0.1710010049,
				"y": -1.602448203,
				"z": -0.5629143429,
				"element": "H" 
			},
			{
				"x": -1.7615300777,
				"y": 0.2829412429,
				"z": -1.8469498177,
				"element": "H" 
			},
			{
				"x": -1.770441502,
				"y": 2.5029765486,
				"z": -0.8619957212,
				"element": "H" 
			},
			{
				"x": -0.5395232713,
				"y": 2.4791900071,
				"z": -2.1445431149,
				"element": "H" 
			},
			{
				"x": 1.121060093,
				"y": 2.6828501897,
				"z": -0.6174224882,
				"element": "H" 
			},
			{
				"x": -1.0867100593,
				"y": -1.0357379021,
				"z": 2.393765598,
				"element": "H" 
			},
			{
				"x": 0.2620472203,
				"y": -0.239998924,
				"z": 4.342404699,
				"element": "H" 
			},
			{
				"x": 1.6574729011,
				"y": 1.8168977092,
				"z": 4.1087130511,
				"element": "H" 
			},
			{
				"x": 1.6139556756,
				"y": 3.1016985556,
				"z": 1.9830786113,
				"element": "H" 
			}
		],
		 "valence_orbital": [ 
			{
				"type": "occ",
				"energy": -0.28133,
				"method": "rhf"
			},
			{
				"type": "occ",
				"energy": -0.25805,
				"method": "rhf"
			},
			{
				"type": "occ",
				"energy": -0.2519,
				"method": "rhf"
			},
			{
				"type": "occ",
				"energy": -0.226,
				"method": "rhf"
			},
			{
				"type": "occ",
				"energy": -0.2001,
				"method": "rhf"
			},
			{
				"type": "unocc",
				"energy": 0.00013,
				"method": "rhf"
			},
			{
				"type": "unocc",
				"energy": 0.01738,
				"method": "rhf"
			},
			{
				"type": "unocc",
				"energy": 0.02233,
				"method": "rhf"
			},
			{
				"type": "unocc",
				"energy": 0.08326,
				"method": "rhf"
			},
			{
				"type": "unocc",
				"energy": 0.09115,
				"method": "rhf"
			}
		],
		"cosmo_sigma_profile": { 
			"-0.025": 0.0,
			"-0.024": 0.0,
			"-0.023": 0.0,
			"-0.022": 0.0,
			"-0.021": 0.0,
			"-0.02": 0.0,
			"-0.019": 0.0,
			"-0.018": 0.0,
			"-0.017": 0.0,
			"-0.016": 0.0,
			"-0.015": 0.0,
			"-0.014": 0.0,
			"-0.013": 0.0,
			"-0.012": 0.60608451211,
			"-0.011": 1.94808655867,
			"-0.01": 1.43286706264,
			"-0.009": 2.32062539085,
			"-0.008": 2.90901577332,
			"-0.007": 5.47569994939,
			"-0.006": 7.94255449974,
			"-0.005": 19.0723239483,
			"-0.004": 20.7782338771,
			"-0.003": 27.4531614924,
			"-0.002": 28.4858912654,
			"-0.001": 24.3233133263,
			"0.0": 22.1524763988,
			"0.001": 21.8386784179,
			"0.002": 14.2175023653,
			"0.003": 9.17097338783,
			"0.004": 10.0330660734,
			"0.005": 12.5685318813,
			"0.006": 11.6357313993,
			"0.007": 5.36119499805,
			"0.008": 2.17352445503,
			"0.009": 3.40162956556,
			"0.01": 2.65164039142,
			"0.011": 1.55549799632,
			"0.012": 2.89423705771,
			"0.013": 2.96395926743,
			"0.014": 4.23516881118,
			"0.015": 0.151593497379,
			"0.016": 0.0,
			"0.017": 0.0,
			"0.018": 0.0,
			"0.019": 0.0,
			"0.02": 0.0,
			"0.021": 0.0,
			"0.022": 0.0,
			"0.023": 0.0,
			"0.024": 0.0,
			"0.025": 0.0
		}
	}
}
