{
	 "smiles": "CS(=O)(=O)C1=CC(=C(Cl)C=C1)S(N)(=O)=O", 
	 "Tm": 502.15, 
	 "num_atms": 23, 
	 "gaussian": { 
		 "optdone": 1, 
		 "sigma_profile": "yes", 
		 "theory": "DFT", 
		 "functional": "B3LYP", 
		 "basiset": "6-31G**", 
		 "properties": { 
			 "R2extent": 5268.8604, 
			 "electric_dipole_moment_norm": 7.94808649173, 
			 "electric_quadrupole_moment_norm": 19.0636566752, 
			 "total_energy": -1883.63465703, 
			 "HOMO_LUMO_gap": 0.21423, 
			 "cosmo_polarized_energy": -27.75, 
			 "cosmo_cavitation_energy": 31.8, 
			 "cosmo_dispersion_energy": -23.97, 
			 "cosmo_repulsion_energy": 1.79, 
			 "cosmo_total_nonelectrostatic_energy": 9.62, 
			 "SMD_solvation_energy": 4.55 
		},
		"coords": [
			{
				"x": -0.0730683118,
				"y": -1.6955260961,
				"z": 2.8401008194,
				"element": "C" 
			},
			{
				"x": -0.9110105685,
				"y": -0.2087292458,
				"z": 2.2428388191,
				"element": "S" 
			},
			{
				"x": -2.3371610228,
				"y": -0.5273768057,
				"z": 2.1015857245,
				"element": "O" 
			},
			{
				"x": -0.4491474046,
				"y": 0.9235947036,
				"z": 3.0589537233,
				"element": "O" 
			},
			{
				"x": -0.2308585784,
				"y": 0.0219728205,
				"z": 0.5846454174,
				"element": "C" 
			},
			{
				"x": -0.7735950702,
				"y": -0.686026804,
				"z": -0.4855951671,
				"element": "C" 
			},
			{
				"x": -0.2530933831,
				"y": -0.5042761194,
				"z": -1.7691519331,
				"element": "C" 
			},
			{
				"x": 0.7972464096,
				"y": 0.4072217903,
				"z": -1.9593811863,
				"element": "C" 
			},
			{
				"x": 1.5054824902,
				"y": 0.6861986002,
				"z": -3.537110366,
				"element": "Cl" 
			},
			{
				"x": 1.325472906,
				"y": 1.1217049206,
				"z": -0.8824057277,
				"element": "C" 
			},
			{
				"x": 0.8086294768,
				"y": 0.9318494887,
				"z": 0.3972331223,
				"element": "C" 
			},
			{
				"x": -1.0627328951,
				"y": -1.4309208922,
				"z": -3.1094967724,
				"element": "S" 
			},
			{
				"x": 0.1133539767,
				"y": -2.3538499065,
				"z": -3.8461453414,
				"element": "N" 
			},
			{
				"x": -1.5280000603,
				"y": -0.4657641956,
				"z": -4.0962548538,
				"element": "O" 
			},
			{
				"x": -1.9534335658,
				"y": -2.3784302069,
				"z": -2.4445284082,
				"element": "O" 
			},
			{
				"x": -0.4547122024,
				"y": -1.8718361841,
				"z": 3.8480148037,
				"element": "H" 
			},
			{
				"x": 1.0027496722,
				"y": -1.5170432233,
				"z": 2.8678783141,
				"element": "H" 
			},
			{
				"x": -0.3215118504,
				"y": -2.535639213,
				"z": 2.1901539739,
				"element": "H" 
			},
			{
				"x": -1.6089225447,
				"y": -1.3637749867,
				"z": -0.3451534151,
				"element": "H" 
			},
			{
				"x": 2.1309473751,
				"y": 1.8265045608,
				"z": -1.0552564762,
				"element": "H" 
			},
			{
				"x": 1.1918618826,
				"y": 1.4939195787,
				"z": 1.2421408822,
				"element": "H" 
			},
			{
				"x": 0.4680533896,
				"y": -3.1048800443,
				"z": -3.2644683061,
				"element": "H" 
			},
			{
				"x": 0.8245498793,
				"y": -1.8139925399,
				"z": -4.3274976465,
				"element": "H" 
			}
		],
		 "valence_orbital": [ 
			{
				"type": "occ",
				"energy": -0.31692,
				"method": "rhf"
			},
			{
				"type": "occ",
				"energy": -0.31053,
				"method": "rhf"
			},
			{
				"type": "occ",
				"energy": -0.30286,
				"method": "rhf"
			},
			{
				"type": "occ",
				"energy": -0.29784,
				"method": "rhf"
			},
			{
				"type": "occ",
				"energy": -0.28975,
				"method": "rhf"
			},
			{
				"type": "unocc",
				"energy": -0.07552,
				"method": "rhf"
			},
			{
				"type": "unocc",
				"energy": -0.06123,
				"method": "rhf"
			},
			{
				"type": "unocc",
				"energy": -0.01258,
				"method": "rhf"
			},
			{
				"type": "unocc",
				"energy": 0.0411,
				"method": "rhf"
			},
			{
				"type": "unocc",
				"energy": 0.04907,
				"method": "rhf"
			}
		],
		"cosmo_sigma_profile": { 
			"-0.025": 0.0,
			"-0.024": 0.0,
			"-0.023": 0.0,
			"-0.022": 0.0,
			"-0.021": 0.0,
			"-0.02": 0.0,
			"-0.019": 0.0,
			"-0.018": 0.0,
			"-0.017": 0.0234768293662,
			"-0.016": 1.03343993569,
			"-0.015": 1.57532315114,
			"-0.014": 2.02551202231,
			"-0.013": 2.45452339299,
			"-0.012": 2.36677806855,
			"-0.011": 1.74853848298,
			"-0.01": 3.13303321478,
			"-0.009": 10.0371025424,
			"-0.008": 14.0186299111,
			"-0.007": 11.4058305657,
			"-0.006": 10.147975013,
			"-0.005": 12.6477468405,
			"-0.004": 16.0510685635,
			"-0.003": 13.2760870701,
			"-0.002": 18.2287877886,
			"-0.001": 18.6121220785,
			"0.0": 10.9404847784,
			"0.001": 8.58307054842,
			"0.002": 10.2520374226,
			"0.003": 7.53515428173,
			"0.004": 6.08187722583,
			"0.005": 5.96453277448,
			"0.006": 6.86720398648,
			"0.007": 7.26413175024,
			"0.008": 6.87392434279,
			"0.009": 9.27946137463,
			"0.01": 17.3114625838,
			"0.011": 16.1952621166,
			"0.012": 4.60065338777,
			"0.013": 0.0,
			"0.014": 0.0,
			"0.015": 0.0,
			"0.016": 0.0,
			"0.017": 0.0,
			"0.018": 0.0,
			"0.019": 0.0,
			"0.02": 0.0,
			"0.021": 0.0,
			"0.022": 0.0,
			"0.023": 0.0,
			"0.024": 0.0,
			"0.025": 0.0
		}
	}
}
