{
	 "smiles": "NNC1=CC=C(C=C1)S(=O)(=O)C(F)(F)F", 
	 "Tm": 367.15, 
	 "num_atms": 22, 
	 "gaussian": { 
		 "optdone": 1, 
		 "sigma_profile": "yes", 
		 "theory": "DFT", 
		 "functional": "B3LYP", 
		 "basiset": "6-31G**", 
		 "properties": { 
			 "R2extent": 4393.8853, 
			 "electric_dipole_moment_norm": 6.55343503516, 
			 "electric_quadrupole_moment_norm": 15.0199694394, 
			 "total_energy": -1228.50619953, 
			 "HOMO_LUMO_gap": 0.19252, 
			 "cosmo_polarized_energy": -16.63, 
			 "cosmo_cavitation_energy": 29.62, 
			 "cosmo_dispersion_energy": -21.25, 
			 "cosmo_repulsion_energy": 1.57, 
			 "cosmo_total_nonelectrostatic_energy": 9.94, 
			 "SMD_solvation_energy": 5.89 
		},
		"coords": [
			{
				"x": -0.6760067169,
				"y": -4.2871495762,
				"z": 1.824922255,
				"element": "N" 
			},
			{
				"x": -0.2076463849,
				"y": -3.1064834416,
				"z": 2.4143840711,
				"element": "N" 
			},
			{
				"x": -0.4262398393,
				"y": -1.8464416502,
				"z": 1.9038458746,
				"element": "C" 
			},
			{
				"x": -1.3850056035,
				"y": -1.6100242745,
				"z": 0.8959760192,
				"element": "C" 
			},
			{
				"x": -1.6002051862,
				"y": -0.322739868,
				"z": 0.4221932507,
				"element": "C" 
			},
			{
				"x": -0.8644129509,
				"y": 0.7436106088,
				"z": 0.9476688631,
				"element": "C" 
			},
			{
				"x": 0.0892790918,
				"y": 0.5283779559,
				"z": 1.9537581507,
				"element": "C" 
			},
			{
				"x": 0.3051976644,
				"y": -0.7536758825,
				"z": 2.4257681587,
				"element": "C" 
			},
			{
				"x": -1.1414351611,
				"y": 2.3823548526,
				"z": 0.3382686099,
				"element": "S" 
			},
			{
				"x": -2.4603913741,
				"y": 2.4526917527,
				"z": -0.2987802716,
				"element": "O" 
			},
			{
				"x": -0.6949845899,
				"y": 3.3592988257,
				"z": 1.336479696,
				"element": "O" 
			},
			{
				"x": 0.0939271348,
				"y": 2.5124598472,
				"z": -1.067382119,
				"element": "C" 
			},
			{
				"x": -0.0035758653,
				"y": 3.7177977876,
				"z": -1.6253049772,
				"element": "F" 
			},
			{
				"x": 1.3355473991,
				"y": 2.3376383548,
				"z": -0.6000372154,
				"element": "F" 
			},
			{
				"x": -0.1615153011,
				"y": 1.574642622,
				"z": -1.9869577651,
				"element": "F" 
			},
			{
				"x": -0.5107755452,
				"y": -4.2798520893,
				"z": 0.8183827829,
				"element": "H" 
			},
			{
				"x": -1.6762593682,
				"y": -4.3774068745,
				"z": 1.986644975,
				"element": "H" 
			},
			{
				"x": 0.612883389,
				"y": -3.2450110355,
				"z": 2.9856488122,
				"element": "H" 
			},
			{
				"x": -1.9658039843,
				"y": -2.433685791,
				"z": 0.4973541461,
				"element": "H" 
			},
			{
				"x": -2.3474639505,
				"y": -0.1355115004,
				"z": -0.3413677991,
				"element": "H" 
			},
			{
				"x": 0.6397375632,
				"y": 1.3683950443,
				"z": 2.363143034,
				"element": "H" 
			},
			{
				"x": 1.0377495793,
				"y": -0.926885668,
				"z": 3.209491448,
				"element": "H" 
			}
		],
		 "valence_orbital": [ 
			{
				"type": "occ",
				"energy": -0.31149,
				"method": "rhf"
			},
			{
				"type": "occ",
				"energy": -0.29782,
				"method": "rhf"
			},
			{
				"type": "occ",
				"energy": -0.29313,
				"method": "rhf"
			},
			{
				"type": "occ",
				"energy": -0.28072,
				"method": "rhf"
			},
			{
				"type": "occ",
				"energy": -0.2337,
				"method": "rhf"
			},
			{
				"type": "unocc",
				"energy": -0.04118,
				"method": "rhf"
			},
			{
				"type": "unocc",
				"energy": -0.02838,
				"method": "rhf"
			},
			{
				"type": "unocc",
				"energy": 0.05051,
				"method": "rhf"
			},
			{
				"type": "unocc",
				"energy": 0.0568,
				"method": "rhf"
			},
			{
				"type": "unocc",
				"energy": 0.068,
				"method": "rhf"
			}
		],
		"cosmo_sigma_profile": { 
			"-0.025": 0.0,
			"-0.024": 0.0,
			"-0.023": 0.0,
			"-0.022": 0.0,
			"-0.021": 0.0,
			"-0.02": 0.0,
			"-0.019": 0.0,
			"-0.018": 0.0,
			"-0.017": 0.0,
			"-0.016": 0.0,
			"-0.015": 0.0576065357073,
			"-0.014": 1.00747707634,
			"-0.013": 1.21902266541,
			"-0.012": 2.71809282658,
			"-0.011": 4.11381472153,
			"-0.01": 5.08074518776,
			"-0.009": 5.30741605487,
			"-0.008": 6.07817730989,
			"-0.007": 8.60450510148,
			"-0.006": 8.24372295132,
			"-0.005": 8.10876179782,
			"-0.004": 7.53716301916,
			"-0.003": 9.74559302744,
			"-0.002": 9.4021110424,
			"-0.001": 15.8763773798,
			"0.0": 22.4785640454,
			"0.001": 41.4744730133,
			"0.002": 18.8756506172,
			"0.003": 15.1296810137,
			"0.004": 5.57928346503,
			"0.005": 3.86544814055,
			"0.006": 3.82899632314,
			"0.007": 3.91635977799,
			"0.008": 3.94856976472,
			"0.009": 8.38854882338,
			"0.01": 9.88247767916,
			"0.011": 3.3599736047,
			"0.012": 0.738433673862,
			"0.013": 0.369671737929,
			"0.014": 0.374858072237,
			"0.015": 0.770596966452,
			"0.016": 0.400940052922,
			"0.017": 0.0,
			"0.018": 0.0,
			"0.019": 0.0,
			"0.02": 0.0,
			"0.021": 0.0,
			"0.022": 0.0,
			"0.023": 0.0,
			"0.024": 0.0,
			"0.025": 0.0
		}
	}
}
