{
	 "smiles": "OCCC1=CC=C(O)C=C1", 
	 "Tm": 363.65, 
	 "num_atms": 20, 
	 "gaussian": { 
		 "optdone": 1, 
		 "sigma_profile": "yes", 
		 "theory": "DFT", 
		 "functional": "B3LYP", 
		 "basiset": "6-31G**", 
		 "properties": { 
			 "R2extent": 2085.3577, 
			 "electric_dipole_moment_norm": 1.42810316504, 
			 "electric_quadrupole_moment_norm": 13.5895280599, 
			 "total_energy": -461.316709987, 
			 "HOMO_LUMO_gap": 0.21121, 
			 "cosmo_polarized_energy": -11.21, 
			 "cosmo_cavitation_energy": 23.24, 
			 "cosmo_dispersion_energy": -17.13, 
			 "cosmo_repulsion_energy": 1.4, 
			 "cosmo_total_nonelectrostatic_energy": 7.52, 
			 "SMD_solvation_energy": 4.1 
		},
		"coords": [
			{
				"x": -2.2524769678,
				"y": 1.5877978096,
				"z": -2.0435887286,
				"element": "O" 
			},
			{
				"x": -2.3627613113,
				"y": 0.2022709667,
				"z": -1.7627767275,
				"element": "C" 
			},
			{
				"x": -1.6242413201,
				"y": -0.2071916751,
				"z": -0.4737020629,
				"element": "C" 
			},
			{
				"x": -0.1376625232,
				"y": 0.0639994611,
				"z": -0.5459252185,
				"element": "C" 
			},
			{
				"x": 0.3830824682,
				"y": 1.3233380319,
				"z": -0.2161634468,
				"element": "C" 
			},
			{
				"x": 1.7469886881,
				"y": 1.6002124145,
				"z": -0.3317382073,
				"element": "C" 
			},
			{
				"x": 2.6230729171,
				"y": 0.609854944,
				"z": -0.7847031261,
				"element": "C" 
			},
			{
				"x": 3.9684422715,
				"y": 0.811966692,
				"z": -0.9165117631,
				"element": "O" 
			},
			{
				"x": 2.1240084858,
				"y": -0.6545131649,
				"z": -1.119323734,
				"element": "C" 
			},
			{
				"x": 0.7621589392,
				"y": -0.9133501791,
				"z": -1.0007454456,
				"element": "C" 
			},
			{
				"x": -1.311979304,
				"y": 1.7792209573,
				"z": -2.1640479869,
				"element": "H" 
			},
			{
				"x": -3.4335867363,
				"y": 0.0008900713,
				"z": -1.6535709678,
				"element": "H" 
			},
			{
				"x": -1.9955486525,
				"y": -0.4074973306,
				"z": -2.604322781,
				"element": "H" 
			},
			{
				"x": -2.0670429645,
				"y": 0.3444193608,
				"z": 0.363498389,
				"element": "H" 
			},
			{
				"x": -1.8058636243,
				"y": -1.2737330038,
				"z": -0.291911204,
				"element": "H" 
			},
			{
				"x": -0.285894862,
				"y": 2.0978726411,
				"z": 0.1499492292,
				"element": "H" 
			},
			{
				"x": 2.1280018041,
				"y": 2.5834125269,
				"z": -0.0622041514,
				"element": "H" 
			},
			{
				"x": 4.1803111481,
				"y": 1.7155552886,
				"z": -0.6488637229,
				"element": "H" 
			},
			{
				"x": 2.8156675616,
				"y": -1.4163202884,
				"z": -1.4639038225,
				"element": "H" 
			},
			{
				"x": 0.3887239822,
				"y": -1.9009055239,
				"z": -1.2614445214,
				"element": "H" 
			}
		],
		 "valence_orbital": [ 
			{
				"type": "occ",
				"energy": -0.33034,
				"method": "rhf"
			},
			{
				"type": "occ",
				"energy": -0.31753,
				"method": "rhf"
			},
			{
				"type": "occ",
				"energy": -0.26372,
				"method": "rhf"
			},
			{
				"type": "occ",
				"energy": -0.255,
				"method": "rhf"
			},
			{
				"type": "occ",
				"energy": -0.21965,
				"method": "rhf"
			},
			{
				"type": "unocc",
				"energy": -0.00844,
				"method": "rhf"
			},
			{
				"type": "unocc",
				"energy": 0.00847,
				"method": "rhf"
			},
			{
				"type": "unocc",
				"energy": 0.06801,
				"method": "rhf"
			},
			{
				"type": "unocc",
				"energy": 0.09119,
				"method": "rhf"
			},
			{
				"type": "unocc",
				"energy": 0.10831,
				"method": "rhf"
			}
		],
		"cosmo_sigma_profile": { 
			"-0.025": 0.0,
			"-0.024": 0.0,
			"-0.023": 0.0,
			"-0.022": 0.0,
			"-0.021": 0.0,
			"-0.02": 0.0,
			"-0.019": 0.0,
			"-0.018": 0.254249711597,
			"-0.017": 1.08934677324,
			"-0.016": 0.889531879199,
			"-0.015": 1.17424365448,
			"-0.014": 1.06545046975,
			"-0.013": 0.813061805705,
			"-0.012": 1.23215418365,
			"-0.011": 1.68428837992,
			"-0.01": 1.91685388138,
			"-0.009": 1.81358447638,
			"-0.008": 1.9448995707,
			"-0.007": 2.41094574999,
			"-0.006": 3.9981066373,
			"-0.005": 9.56130344222,
			"-0.004": 15.2880949181,
			"-0.003": 21.1264848721,
			"-0.002": 16.1179963438,
			"-0.001": 13.9568541268,
			"0.0": 10.9825557839,
			"0.001": 7.63368121325,
			"0.002": 7.25387801341,
			"0.003": 9.70998456108,
			"0.004": 11.3365099709,
			"0.005": 10.7115998748,
			"0.006": 7.72573327553,
			"0.007": 2.34450116849,
			"0.008": 2.89122790215,
			"0.009": 2.30896213693,
			"0.01": 2.88839950271,
			"0.011": 2.9863285303,
			"0.012": 2.61499491853,
			"0.013": 1.58169698639,
			"0.014": 2.34881440268,
			"0.015": 1.13181295671,
			"0.016": 0.0,
			"0.017": 0.0,
			"0.018": 0.0,
			"0.019": 0.0,
			"0.02": 0.0,
			"0.021": 0.0,
			"0.022": 0.0,
			"0.023": 0.0,
			"0.024": 0.0,
			"0.025": 0.0
		}
	}
}
