{
	 "smiles": "NC1=C(OC2=C(Cl)C=C(Cl)C=N2)C=CC=C1", 
	 "Tm": 378.15, 
	 "num_atms": 24, 
	 "gaussian": { 
		 "optdone": 1, 
		 "sigma_profile": "yes", 
		 "theory": "DFT", 
		 "functional": "B3LYP", 
		 "basiset": "6-31G**", 
		 "properties": { 
			 "R2extent": 5439.8555, 
			 "electric_dipole_moment_norm": 1.37313819771, 
			 "electric_quadrupole_moment_norm": 11.1720908191, 
			 "total_energy": -1529.09287037, 
			 "HOMO_LUMO_gap": 0.15834, 
			 "cosmo_polarized_energy": -10.74, 
			 "cosmo_cavitation_energy": 32.89, 
			 "cosmo_dispersion_energy": -23.73, 
			 "cosmo_repulsion_energy": 1.88, 
			 "cosmo_total_nonelectrostatic_energy": 11.04, 
			 "SMD_solvation_energy": 4.26 
		},
		"coords": [
			{
				"x": 0.0289636236,
				"y": -2.5658369052,
				"z": 2.5627291875,
				"element": "N" 
			},
			{
				"x": 0.5449001426,
				"y": -2.7707191273,
				"z": 1.2865951345,
				"element": "C" 
			},
			{
				"x": 1.0084382167,
				"y": -1.6834947895,
				"z": 0.5266576495,
				"element": "C" 
			},
			{
				"x": 1.0520536182,
				"y": -0.4402266417,
				"z": 1.1778187104,
				"element": "O" 
			},
			{
				"x": 0.1814292072,
				"y": 0.5402781508,
				"z": 0.8311752642,
				"element": "C" 
			},
			{
				"x": 0.2512138208,
				"y": 1.7492728144,
				"z": 1.556180529,
				"element": "C" 
			},
			{
				"x": 1.4049899524,
				"y": 1.9507038158,
				"z": 2.8513015448,
				"element": "Cl" 
			},
			{
				"x": -0.6197153642,
				"y": 2.7768139108,
				"z": 1.2268985324,
				"element": "C" 
			},
			{
				"x": -1.5303010776,
				"y": 2.5645578251,
				"z": 0.1879206451,
				"element": "C" 
			},
			{
				"x": -2.653373446,
				"y": 3.825746539,
				"z": -0.2737646556,
				"element": "Cl" 
			},
			{
				"x": -1.5323873383,
				"y": 1.3406680892,
				"z": -0.472654053,
				"element": "C" 
			},
			{
				"x": -0.6871052001,
				"y": 0.3560260837,
				"z": -0.1488842366,
				"element": "N" 
			},
			{
				"x": 1.4991192229,
				"y": -1.8381824115,
				"z": -0.7624702419,
				"element": "C" 
			},
			{
				"x": 1.5271302744,
				"y": -3.1064345154,
				"z": -1.3431987355,
				"element": "C" 
			},
			{
				"x": 1.0661257219,
				"y": -4.2027041667,
				"z": -0.6101895986,
				"element": "C" 
			},
			{
				"x": 0.5857894699,
				"y": -4.0409736623,
				"z": 0.6870839003,
				"element": "C" 
			},
			{
				"x": 0.0513888066,
				"y": -3.3752886376,
				"z": 3.1668032483,
				"element": "H" 
			},
			{
				"x": 0.3680494933,
				"y": -1.7295697661,
				"z": 3.0187502085,
				"element": "H" 
			},
			{
				"x": -0.5916248924,
				"y": 3.7165173327,
				"z": 1.7655700683,
				"element": "H" 
			},
			{
				"x": -2.2304820081,
				"y": 1.1460387714,
				"z": -1.2820995864,
				"element": "H" 
			},
			{
				"x": 1.8552161457,
				"y": -0.9649543283,
				"z": -1.2986492908,
				"element": "H" 
			},
			{
				"x": 1.905589579,
				"y": -3.234397507,
				"z": -2.3519253283,
				"element": "H" 
			},
			{
				"x": 1.0857447033,
				"y": -5.1963006895,
				"z": -1.0485410698,
				"element": "H" 
			},
			{
				"x": 0.231747328,
				"y": -4.900240185,
				"z": 1.2510921738,
				"element": "H" 
			}
		],
		 "valence_orbital": [ 
			{
				"type": "occ",
				"energy": -0.28862,
				"method": "rhf"
			},
			{
				"type": "occ",
				"energy": -0.28484,
				"method": "rhf"
			},
			{
				"type": "occ",
				"energy": -0.24991,
				"method": "rhf"
			},
			{
				"type": "occ",
				"energy": -0.23778,
				"method": "rhf"
			},
			{
				"type": "occ",
				"energy": -0.20475,
				"method": "rhf"
			},
			{
				"type": "unocc",
				"energy": -0.04641,
				"method": "rhf"
			},
			{
				"type": "unocc",
				"energy": -0.0224,
				"method": "rhf"
			},
			{
				"type": "unocc",
				"energy": -0.00045,
				"method": "rhf"
			},
			{
				"type": "unocc",
				"energy": 0.00489,
				"method": "rhf"
			},
			{
				"type": "unocc",
				"energy": 0.01712,
				"method": "rhf"
			}
		],
		"cosmo_sigma_profile": { 
			"-0.025": 0.0,
			"-0.024": 0.0,
			"-0.023": 0.0,
			"-0.022": 0.0,
			"-0.021": 0.0,
			"-0.02": 0.0,
			"-0.019": 0.0,
			"-0.018": 0.0,
			"-0.017": 0.0,
			"-0.016": 0.0,
			"-0.015": 0.0,
			"-0.014": 0.0,
			"-0.013": 0.586953758116,
			"-0.012": 1.18671995324,
			"-0.011": 2.03771503834,
			"-0.01": 3.30341321206,
			"-0.009": 4.33107889622,
			"-0.008": 6.1695961676,
			"-0.007": 5.73632742878,
			"-0.006": 9.0874254037,
			"-0.005": 13.2889718311,
			"-0.004": 13.252844983,
			"-0.003": 18.5441848853,
			"-0.002": 19.3139447782,
			"-0.001": 26.2600344713,
			"0.0": 22.9555510974,
			"0.001": 17.8804851566,
			"0.002": 19.0072797221,
			"0.003": 23.141580366,
			"0.004": 23.2294651569,
			"0.005": 11.3051016558,
			"0.006": 11.5706592257,
			"0.007": 4.76387462477,
			"0.008": 3.78831235589,
			"0.009": 1.81351415768,
			"0.01": 1.58663938473,
			"0.011": 1.43966198062,
			"0.012": 1.81105771374,
			"0.013": 1.12865670358,
			"0.014": 0.380736541714,
			"0.015": 0.016459880966,
			"0.016": 0.0,
			"0.017": 0.0,
			"0.018": 0.0,
			"0.019": 0.0,
			"0.02": 0.0,
			"0.021": 0.0,
			"0.022": 0.0,
			"0.023": 0.0,
			"0.024": 0.0,
			"0.025": 0.0
		}
	}
}
