{
	 "smiles": "CCCN1C(=O)N(C)C(=O)C2=C1N=C(N=C2S)C(C)(C)C", 
	 "Tm": 408.15, 
	 "num_atms": 41, 
	 "gaussian": { 
		 "optdone": 1, 
		 "sigma_profile": "yes", 
		 "theory": "DFT", 
		 "functional": "B3LYP", 
		 "basiset": "6-31G**", 
		 "properties": { 
			 "R2extent": 7201.0255, 
			 "electric_dipole_moment_norm": 2.62355046073, 
			 "electric_quadrupole_moment_norm": 4.52581058707, 
			 "total_energy": -1313.27237472, 
			 "HOMO_LUMO_gap": 0.18871, 
			 "cosmo_polarized_energy": -11.73, 
			 "cosmo_cavitation_energy": 44.01, 
			 "cosmo_dispersion_energy": -30.3, 
			 "cosmo_repulsion_energy": 2.28, 
			 "cosmo_total_nonelectrostatic_energy": 15.98, 
			 "SMD_solvation_energy": 7.07 
		},
		"coords": [
			{
				"x": 5.2018809715,
				"y": 0.1185242011,
				"z": -0.734750009,
				"element": "C" 
			},
			{
				"x": 3.7721503702,
				"y": 0.6675185524,
				"z": -0.7581303569,
				"element": "C" 
			},
			{
				"x": 2.7958732309,
				"y": -0.3300126659,
				"z": -1.388869783,
				"element": "C" 
			},
			{
				"x": 1.4095592673,
				"y": 0.181248199,
				"z": -1.4345517571,
				"element": "N" 
			},
			{
				"x": 1.0519723053,
				"y": 0.9342894589,
				"z": -2.5588433381,
				"element": "C" 
			},
			{
				"x": 1.8415646714,
				"y": 1.1549159286,
				"z": -3.4629295295,
				"element": "O" 
			},
			{
				"x": -0.2563593174,
				"y": 1.4187312291,
				"z": -2.6046433253,
				"element": "N" 
			},
			{
				"x": -0.6105145661,
				"y": 2.1937272216,
				"z": -3.8000315875,
				"element": "C" 
			},
			{
				"x": -1.2253808596,
				"y": 1.2298699555,
				"z": -1.6087222416,
				"element": "C" 
			},
			{
				"x": -2.3568769553,
				"y": 1.6893220104,
				"z": -1.7179545699,
				"element": "O" 
			},
			{
				"x": -0.7749614695,
				"y": 0.4601700092,
				"z": -0.4541366797,
				"element": "C" 
			},
			{
				"x": 0.5370476408,
				"y": -0.0427931021,
				"z": -0.3884194782,
				"element": "C" 
			},
			{
				"x": 0.9899386519,
				"y": -0.7463253614,
				"z": 0.659094413,
				"element": "N" 
			},
			{
				"x": 0.1287723157,
				"y": -0.9617821828,
				"z": 1.6569113512,
				"element": "C" 
			},
			{
				"x": -1.1433623688,
				"y": -0.529240383,
				"z": 1.6972368432,
				"element": "N" 
			},
			{
				"x": -1.5971182999,
				"y": 0.1753390906,
				"z": 0.6573147284,
				"element": "C" 
			},
			{
				"x": -3.2729808395,
				"y": 0.7345530192,
				"z": 0.7342883266,
				"element": "S" 
			},
			{
				"x": 0.6017108507,
				"y": -1.7618649726,
				"z": 2.8731363982,
				"element": "C" 
			},
			{
				"x": 2.0591972582,
				"y": -2.2227997203,
				"z": 2.7146962461,
				"element": "C" 
			},
			{
				"x": 0.4737120768,
				"y": -0.8609814138,
				"z": 4.1241767075,
				"element": "C" 
			},
			{
				"x": -0.3190570057,
				"y": -2.9940146718,
				"z": 3.0341884265,
				"element": "C" 
			},
			{
				"x": 5.5619508613,
				"y": -0.0965848061,
				"z": -1.7469278166,
				"element": "H" 
			},
			{
				"x": 5.8906251017,
				"y": 0.8393311059,
				"z": -0.2841162649,
				"element": "H" 
			},
			{
				"x": 5.2639402576,
				"y": -0.8085178485,
				"z": -0.1537239098,
				"element": "H" 
			},
			{
				"x": 3.7389987562,
				"y": 1.6019928597,
				"z": -1.329245609,
				"element": "H" 
			},
			{
				"x": 3.44000639,
				"y": 0.8939449135,
				"z": 0.2615875342,
				"element": "H" 
			},
			{
				"x": 3.081216679,
				"y": -0.5406603723,
				"z": -2.4201626094,
				"element": "H" 
			},
			{
				"x": 2.773339446,
				"y": -1.2588004936,
				"z": -0.8191916375,
				"element": "H" 
			},
			{
				"x": -1.6508882926,
				"y": 2.492288286,
				"z": -3.6962507156,
				"element": "H" 
			},
			{
				"x": 0.035189607,
				"y": 3.0705592884,
				"z": -3.8790292096,
				"element": "H" 
			},
			{
				"x": -0.4722964261,
				"y": 1.5810458882,
				"z": -4.6928318965,
				"element": "H" 
			},
			{
				"x": -3.4465126588,
				"y": 0.1647062742,
				"z": 1.9475504257,
				"element": "H" 
			},
			{
				"x": 2.183496935,
				"y": -2.8672457089,
				"z": 1.8401255517,
				"element": "H" 
			},
			{
				"x": 2.3613165045,
				"y": -2.7879851498,
				"z": 3.6026218589,
				"element": "H" 
			},
			{
				"x": 2.7389636178,
				"y": -1.3743173153,
				"z": 2.6000603974,
				"element": "H" 
			},
			{
				"x": 0.7664865441,
				"y": -1.4222543157,
				"z": 5.0177950685,
				"element": "H" 
			},
			{
				"x": 1.1262816868,
				"y": 0.0155920917,
				"z": 4.0482463655,
				"element": "H" 
			},
			{
				"x": -0.5541845362,
				"y": -0.5134236964,
				"z": 4.251293614,
				"element": "H" 
			},
			{
				"x": -0.2407927295,
				"y": -3.661487323,
				"z": 2.1691219159,
				"element": "H" 
			},
			{
				"x": -1.3630828649,
				"y": -2.6903909674,
				"z": 3.1394689551,
				"element": "H" 
			},
			{
				"x": -0.0278228077,
				"y": -3.5613871121,
				"z": 3.9244471969,
				"element": "H" 
			}
		],
		 "valence_orbital": [ 
			{
				"type": "occ",
				"energy": -0.28217,
				"method": "rhf"
			},
			{
				"type": "occ",
				"energy": -0.27673,
				"method": "rhf"
			},
			{
				"type": "occ",
				"energy": -0.2608,
				"method": "rhf"
			},
			{
				"type": "occ",
				"energy": -0.25724,
				"method": "rhf"
			},
			{
				"type": "occ",
				"energy": -0.25217,
				"method": "rhf"
			},
			{
				"type": "unocc",
				"energy": -0.06346,
				"method": "rhf"
			},
			{
				"type": "unocc",
				"energy": -0.04283,
				"method": "rhf"
			},
			{
				"type": "unocc",
				"energy": 0.00798,
				"method": "rhf"
			},
			{
				"type": "unocc",
				"energy": 0.02602,
				"method": "rhf"
			},
			{
				"type": "unocc",
				"energy": 0.05199,
				"method": "rhf"
			}
		],
		"cosmo_sigma_profile": { 
			"-0.025": 0.0,
			"-0.024": 0.0,
			"-0.023": 0.0,
			"-0.022": 0.0,
			"-0.021": 0.0,
			"-0.02": 0.0,
			"-0.019": 0.0,
			"-0.018": 0.0,
			"-0.017": 0.0,
			"-0.016": 0.0,
			"-0.015": 0.0,
			"-0.014": 0.0,
			"-0.013": 0.0,
			"-0.012": 0.0,
			"-0.011": 0.0276416832737,
			"-0.01": 1.1378780295,
			"-0.009": 1.23875019643,
			"-0.008": 2.16351289651,
			"-0.007": 2.89451661045,
			"-0.006": 6.36124159148,
			"-0.005": 10.599484098,
			"-0.004": 20.8816642774,
			"-0.003": 51.531494809,
			"-0.002": 48.5548326184,
			"-0.001": 39.5120523804,
			"0.0": 37.8736471045,
			"0.001": 39.7691818112,
			"0.002": 17.0844579262,
			"0.003": 9.47483303388,
			"0.004": 9.47676547463,
			"0.005": 10.9867712932,
			"0.006": 8.32179001005,
			"0.007": 5.84067189628,
			"0.008": 4.11619633213,
			"0.009": 3.9033154457,
			"0.01": 4.69995922463,
			"0.011": 5.43835364536,
			"0.012": 6.0103582307,
			"0.013": 0.153248648734,
			"0.014": 0.0,
			"0.015": 0.0,
			"0.016": 0.0,
			"0.017": 0.0,
			"0.018": 0.0,
			"0.019": 0.0,
			"0.02": 0.0,
			"0.021": 0.0,
			"0.022": 0.0,
			"0.023": 0.0,
			"0.024": 0.0,
			"0.025": 0.0
		}
	}
}
