{
	 "smiles": "FC(F)(F)C1=CC=C(Cl)C=C1", 
	 "Tm": 238.65, 
	 "num_atms": 15, 
	 "gaussian": { 
		 "optdone": 1, 
		 "sigma_profile": "yes", 
		 "theory": "DFT", 
		 "functional": "B3LYP", 
		 "basiset": "6-31G**", 
		 "properties": { 
			 "R2extent": 2657.749, 
			 "electric_dipole_moment_norm": 0.774560171969, 
			 "electric_quadrupole_moment_norm": 8.77387153428, 
			 "total_energy": -1028.87654992, 
			 "HOMO_LUMO_gap": 0.22486, 
			 "cosmo_polarized_energy": -3.84, 
			 "cosmo_cavitation_energy": 22.66, 
			 "cosmo_dispersion_energy": -16.45, 
			 "cosmo_repulsion_energy": 1.26, 
			 "cosmo_total_nonelectrostatic_energy": 7.48, 
			 "SMD_solvation_energy": 4.82 
		},
		"coords": [
			{
				"x": -1.0959189418,
				"y": -0.6828292399,
				"z": -2.0182328543,
				"element": "F" 
			},
			{
				"x": -0.0048805675,
				"y": -0.1100068899,
				"z": -1.4644553787,
				"element": "C" 
			},
			{
				"x": 1.0183148136,
				"y": -0.9815053862,
				"z": -1.6201258606,
				"element": "F" 
			},
			{
				"x": 0.2977033116,
				"y": 0.9850979585,
				"z": -2.1954632483,
				"element": "F" 
			},
			{
				"x": -0.2275796319,
				"y": 0.2300317213,
				"z": -0.0153177436,
				"element": "C" 
			},
			{
				"x": 0.4617621886,
				"y": 1.298037668,
				"z": 0.5647131112,
				"element": "C" 
			},
			{
				"x": 0.3000234869,
				"y": 1.58462445,
				"z": 1.9184247295,
				"element": "C" 
			},
			{
				"x": -0.5554668192,
				"y": 0.7910859094,
				"z": 2.683826874,
				"element": "C" 
			},
			{
				"x": -0.7638376388,
				"y": 1.1464279212,
				"z": 4.3881782487,
				"element": "Cl" 
			},
			{
				"x": -1.2510335164,
				"y": -0.2777753131,
				"z": 2.1171093497,
				"element": "C" 
			},
			{
				"x": -1.0820408887,
				"y": -0.555601204,
				"z": 0.7624606071,
				"element": "C" 
			},
			{
				"x": 1.1174670523,
				"y": 1.9122048929,
				"z": -0.0426242863,
				"element": "H" 
			},
			{
				"x": 0.8272396976,
				"y": 2.4139132762,
				"z": 2.3762638088,
				"element": "H" 
			},
			{
				"x": -1.915201425,
				"y": -0.8790276022,
				"z": 2.7275729643,
				"element": "H" 
			},
			{
				"x": -1.6231511213,
				"y": -1.3784781621,
				"z": 0.3084696785,
				"element": "H" 
			}
		],
		 "valence_orbital": [ 
			{
				"type": "occ",
				"energy": -0.37153,
				"method": "rhf"
			},
			{
				"type": "occ",
				"energy": -0.34755,
				"method": "rhf"
			},
			{
				"type": "occ",
				"energy": -0.32449,
				"method": "rhf"
			},
			{
				"type": "occ",
				"energy": -0.28124,
				"method": "rhf"
			},
			{
				"type": "occ",
				"energy": -0.26465,
				"method": "rhf"
			},
			{
				"type": "unocc",
				"energy": -0.03979,
				"method": "rhf"
			},
			{
				"type": "unocc",
				"energy": -0.03068,
				"method": "rhf"
			},
			{
				"type": "unocc",
				"energy": 0.01861,
				"method": "rhf"
			},
			{
				"type": "unocc",
				"energy": 0.10676,
				"method": "rhf"
			},
			{
				"type": "unocc",
				"energy": 0.11013,
				"method": "rhf"
			}
		],
		"cosmo_sigma_profile": { 
			"-0.025": 0.0,
			"-0.024": 0.0,
			"-0.023": 0.0,
			"-0.022": 0.0,
			"-0.021": 0.0,
			"-0.02": 0.0,
			"-0.019": 0.0,
			"-0.018": 0.0,
			"-0.017": 0.0,
			"-0.016": 0.0,
			"-0.015": 0.0,
			"-0.014": 0.0,
			"-0.013": 0.0,
			"-0.012": 0.0,
			"-0.011": 0.0,
			"-0.01": 0.0,
			"-0.009": 0.0,
			"-0.008": 4.05640241122,
			"-0.007": 8.11981252709,
			"-0.006": 7.75767020087,
			"-0.005": 6.87153918067,
			"-0.004": 7.03665996443,
			"-0.003": 6.90166773182,
			"-0.002": 9.25931936371,
			"-0.001": 11.7965503246,
			"0.0": 17.8914993133,
			"0.001": 24.5256054237,
			"0.002": 34.5284580984,
			"0.003": 33.1591146199,
			"0.004": 11.0118213657,
			"0.005": 1.9916575735,
			"0.006": 0.0,
			"0.007": 0.0,
			"0.008": 0.0,
			"0.009": 0.0,
			"0.01": 0.0,
			"0.011": 0.0,
			"0.012": 0.0,
			"0.013": 0.0,
			"0.014": 0.0,
			"0.015": 0.0,
			"0.016": 0.0,
			"0.017": 0.0,
			"0.018": 0.0,
			"0.019": 0.0,
			"0.02": 0.0,
			"0.021": 0.0,
			"0.022": 0.0,
			"0.023": 0.0,
			"0.024": 0.0,
			"0.025": 0.0
		}
	}
}
