{
	 "smiles": "CN(CC1=CC=CC=C1)C(N)=O", 
	 "Tm": 408.15, 
	 "num_atms": 24, 
	 "gaussian": { 
		 "optdone": 1, 
		 "sigma_profile": "yes", 
		 "theory": "DFT", 
		 "functional": "B3LYP", 
		 "basiset": "6-31G**", 
		 "properties": { 
			 "R2extent": 2743.1414, 
			 "electric_dipole_moment_norm": 3.7439611897, 
			 "electric_quadrupole_moment_norm": 12.7021798476, 
			 "total_energy": -534.940279957, 
			 "HOMO_LUMO_gap": 0.22689, 
			 "cosmo_polarized_energy": -13.91, 
			 "cosmo_cavitation_energy": 27.12, 
			 "cosmo_dispersion_energy": -19.4, 
			 "cosmo_repulsion_energy": 1.55, 
			 "cosmo_total_nonelectrostatic_energy": 9.28, 
			 "SMD_solvation_energy": 4.9 
		},
		"coords": [
			{
				"x": -2.5985720542,
				"y": 1.6827371533,
				"z": -1.6269792477,
				"element": "C" 
			},
			{
				"x": -2.4030584927,
				"y": 0.2700230706,
				"z": -1.3479421672,
				"element": "N" 
			},
			{
				"x": -2.2606644189,
				"y": -0.1452975667,
				"z": 0.050268621,
				"element": "C" 
			},
			{
				"x": -0.9306630573,
				"y": 0.2442710683,
				"z": 0.672611177,
				"element": "C" 
			},
			{
				"x": 0.2470611278,
				"y": -0.4074866028,
				"z": 0.2744382314,
				"element": "C" 
			},
			{
				"x": 1.4751156935,
				"y": -0.0486492707,
				"z": 0.8278357973,
				"element": "C" 
			},
			{
				"x": 1.5456089984,
				"y": 0.9645675602,
				"z": 1.7888673262,
				"element": "C" 
			},
			{
				"x": 0.3802176166,
				"y": 1.6149911737,
				"z": 2.1937928098,
				"element": "C" 
			},
			{
				"x": -0.8496948483,
				"y": 1.2551345247,
				"z": 1.6362057607,
				"element": "C" 
			},
			{
				"x": -2.1093179303,
				"y": -0.6557861881,
				"z": -2.3289874691,
				"element": "C" 
			},
			{
				"x": -2.1219227571,
				"y": -0.1771358367,
				"z": -3.6369962427,
				"element": "N" 
			},
			{
				"x": -1.9034707906,
				"y": -1.8441891495,
				"z": -2.0890403953,
				"element": "O" 
			},
			{
				"x": -1.6557374009,
				"y": 2.2403787716,
				"z": -1.7307460201,
				"element": "H" 
			},
			{
				"x": -3.1941038252,
				"y": 1.8110808516,
				"z": -2.5347965743,
				"element": "H" 
			},
			{
				"x": -3.1572867,
				"y": 2.1335345965,
				"z": -0.8022844442,
				"element": "H" 
			},
			{
				"x": -2.3812942079,
				"y": -1.2296393152,
				"z": 0.0595386221,
				"element": "H" 
			},
			{
				"x": -3.0840361342,
				"y": 0.298225718,
				"z": 0.6223772512,
				"element": "H" 
			},
			{
				"x": 0.1857503776,
				"y": -1.200526074,
				"z": -0.4658266417,
				"element": "H" 
			},
			{
				"x": 2.3790590167,
				"y": -0.5643718856,
				"z": 0.5153724379,
				"element": "H" 
			},
			{
				"x": 2.5031139713,
				"y": 1.240512996,
				"z": 2.221611097,
				"element": "H" 
			},
			{
				"x": 0.4257889014,
				"y": 2.4006850441,
				"z": 2.9429291568,
				"element": "H" 
			},
			{
				"x": -1.7569906141,
				"y": 1.7613710031,
				"z": 1.9591134068,
				"element": "H" 
			},
			{
				"x": -1.798697072,
				"y": 0.7622125034,
				"z": -3.8168365349,
				"element": "H" 
			},
			{
				"x": -1.7604053993,
				"y": -0.867644146,
				"z": -4.279525958,
				"element": "H" 
			}
		],
		 "valence_orbital": [ 
			{
				"type": "occ",
				"energy": -0.27249,
				"method": "rhf"
			},
			{
				"type": "occ",
				"energy": -0.25141,
				"method": "rhf"
			},
			{
				"type": "occ",
				"energy": -0.24769,
				"method": "rhf"
			},
			{
				"type": "occ",
				"energy": -0.24136,
				"method": "rhf"
			},
			{
				"type": "occ",
				"energy": -0.22995,
				"method": "rhf"
			},
			{
				"type": "unocc",
				"energy": -0.00306,
				"method": "rhf"
			},
			{
				"type": "unocc",
				"energy": 0.0018,
				"method": "rhf"
			},
			{
				"type": "unocc",
				"energy": 0.05569,
				"method": "rhf"
			},
			{
				"type": "unocc",
				"energy": 0.07698,
				"method": "rhf"
			},
			{
				"type": "unocc",
				"energy": 0.09597,
				"method": "rhf"
			}
		],
		"cosmo_sigma_profile": { 
			"-0.025": 0.0,
			"-0.024": 0.0,
			"-0.023": 0.0,
			"-0.022": 0.0,
			"-0.021": 0.0,
			"-0.02": 0.0,
			"-0.019": 0.0,
			"-0.018": 0.0,
			"-0.017": 0.0,
			"-0.016": 0.0,
			"-0.015": 0.0,
			"-0.014": 0.00726509749025,
			"-0.013": 1.49961220485,
			"-0.012": 2.11174895577,
			"-0.011": 2.7120575747,
			"-0.01": 2.36040175567,
			"-0.009": 2.33798735508,
			"-0.008": 2.04022959479,
			"-0.007": 2.94567766557,
			"-0.006": 8.39100113511,
			"-0.005": 18.1087024011,
			"-0.004": 17.3943896678,
			"-0.003": 21.3326520901,
			"-0.002": 18.4039140081,
			"-0.001": 13.8632374678,
			"0.0": 11.3243795045,
			"0.001": 12.1703783067,
			"0.002": 9.88460478,
			"0.003": 12.0407000778,
			"0.004": 12.0678726641,
			"0.005": 10.7528450167,
			"0.006": 10.9221913058,
			"0.007": 3.72521697319,
			"0.008": 1.59747129591,
			"0.009": 1.77948552558,
			"0.01": 1.06028464715,
			"0.011": 2.74529855588,
			"0.012": 1.41603298933,
			"0.013": 1.55399482373,
			"0.014": 3.56647898878,
			"0.015": 3.78962635503,
			"0.016": 0.286123632859,
			"0.017": 0.0,
			"0.018": 0.0,
			"0.019": 0.0,
			"0.02": 0.0,
			"0.021": 0.0,
			"0.022": 0.0,
			"0.023": 0.0,
			"0.024": 0.0,
			"0.025": 0.0
		}
	}
}
