{
	 "smiles": "COC(=O)CC1=C(SC(N)=C1C(=O)OC)C(=O)OC", 
	 "Tm": 452.15, 
	 "num_atms": 32, 
	 "gaussian": { 
		 "optdone": 1, 
		 "sigma_profile": "yes", 
		 "theory": "DFT", 
		 "functional": "B3LYP", 
		 "basiset": "6-31G**", 
		 "properties": { 
			 "R2extent": 6589.8344, 
			 "electric_dipole_moment_norm": 6.88693346127, 
			 "electric_quadrupole_moment_norm": 14.5241078198, 
			 "total_energy": -1331.31048872, 
			 "HOMO_LUMO_gap": 0.17121, 
			 "cosmo_polarized_energy": -21.0, 
			 "cosmo_cavitation_energy": 38.27, 
			 "cosmo_dispersion_energy": -27.04, 
			 "cosmo_repulsion_energy": 2.1, 
			 "cosmo_total_nonelectrostatic_energy": 13.33, 
			 "SMD_solvation_energy": 10.56 
		},
		"coords": [
			{
				"x": -2.3480101631,
				"y": 1.3565147403,
				"z": -1.3653884929,
				"element": "C" 
			},
			{
				"x": -1.5366424393,
				"y": 0.3550805067,
				"z": -0.733802389,
				"element": "O" 
			},
			{
				"x": -1.6706487077,
				"y": 0.2781319476,
				"z": 0.608455527,
				"element": "C" 
			},
			{
				"x": -2.4342468152,
				"y": 0.9661742149,
				"z": 1.2461730409,
				"element": "O" 
			},
			{
				"x": -0.8033649411,
				"y": -0.8095077081,
				"z": 1.226862089,
				"element": "C" 
			},
			{
				"x": 0.2623992309,
				"y": -1.4014931132,
				"z": 0.341986238,
				"element": "C" 
			},
			{
				"x": 0.2231811163,
				"y": -2.6972597742,
				"z": -0.1232192193,
				"element": "C" 
			},
			{
				"x": 1.6402370055,
				"y": -3.0866605068,
				"z": -1.1057043123,
				"element": "S" 
			},
			{
				"x": 2.2904544417,
				"y": -1.4894157866,
				"z": -0.8693711607,
				"element": "C" 
			},
			{
				"x": 3.4590301175,
				"y": -1.1467143091,
				"z": -1.4632974945,
				"element": "N" 
			},
			{
				"x": 1.4489796424,
				"y": -0.6960461133,
				"z": -0.0755163959,
				"element": "C" 
			},
			{
				"x": 1.7151564518,
				"y": 0.6938647192,
				"z": 0.3017951705,
				"element": "C" 
			},
			{
				"x": 0.9817772101,
				"y": 1.4116410184,
				"z": 0.9566811044,
				"element": "O" 
			},
			{
				"x": 2.92597823,
				"y": 1.1515259343,
				"z": -0.1570811453,
				"element": "O" 
			},
			{
				"x": 3.2292155826,
				"y": 2.5136598595,
				"z": 0.1893686729,
				"element": "C" 
			},
			{
				"x": -0.7936753084,
				"y": -3.726020205,
				"z": 0.0906966596,
				"element": "C" 
			},
			{
				"x": -1.816019375,
				"y": -3.6151291415,
				"z": 0.7459943853,
				"element": "O" 
			},
			{
				"x": -0.457193038,
				"y": -4.8781214868,
				"z": -0.550370965,
				"element": "O" 
			},
			{
				"x": -1.3900622893,
				"y": -5.9579726711,
				"z": -0.4038267021,
				"element": "C" 
			},
			{
				"x": -2.0934328411,
				"y": 2.3498613345,
				"z": -0.9871917373,
				"element": "H" 
			},
			{
				"x": -2.1300258939,
				"y": 1.2841733819,
				"z": -2.4312878954,
				"element": "H" 
			},
			{
				"x": -3.4082946209,
				"y": 1.1698002901,
				"z": -1.1770809001,
				"element": "H" 
			},
			{
				"x": -0.354747657,
				"y": -0.3557552954,
				"z": 2.1131780174,
				"element": "H" 
			},
			{
				"x": -1.4820054243,
				"y": -1.6012180992,
				"z": 1.5516252759,
				"element": "H" 
			},
			{
				"x": 4.0565792793,
				"y": -1.8591735191,
				"z": -1.8493953816,
				"element": "H" 
			},
			{
				"x": 3.8580699277,
				"y": -0.2557384599,
				"z": -1.2048034425,
				"element": "H" 
			},
			{
				"x": 2.4727459076,
				"y": 3.1901738005,
				"z": -0.2143884882,
				"element": "H" 
			},
			{
				"x": 4.2038042039,
				"y": 2.7200358047,
				"z": -0.2537537424,
				"element": "H" 
			},
			{
				"x": 3.2672687278,
				"y": 2.6352665028,
				"z": 1.2742561472,
				"element": "H" 
			},
			{
				"x": -2.3700175783,
				"y": -5.6771881464,
				"z": -0.7979157507,
				"element": "H" 
			},
			{
				"x": -1.4997388522,
				"y": -6.233066614,
				"z": 0.6482581296,
				"element": "H" 
			},
			{
				"x": -0.9711511303,
				"y": -6.7868231058,
				"z": -0.9744348427,
				"element": "H" 
			}
		],
		 "valence_orbital": [ 
			{
				"type": "occ",
				"energy": -0.28021,
				"method": "rhf"
			},
			{
				"type": "occ",
				"energy": -0.26949,
				"method": "rhf"
			},
			{
				"type": "occ",
				"energy": -0.26591,
				"method": "rhf"
			},
			{
				"type": "occ",
				"energy": -0.24773,
				"method": "rhf"
			},
			{
				"type": "occ",
				"energy": -0.21292,
				"method": "rhf"
			},
			{
				"type": "unocc",
				"energy": -0.04171,
				"method": "rhf"
			},
			{
				"type": "unocc",
				"energy": -0.02518,
				"method": "rhf"
			},
			{
				"type": "unocc",
				"energy": 0.00591,
				"method": "rhf"
			},
			{
				"type": "unocc",
				"energy": 0.03505,
				"method": "rhf"
			},
			{
				"type": "unocc",
				"energy": 0.07402,
				"method": "rhf"
			}
		],
		"cosmo_sigma_profile": { 
			"-0.025": 0.0,
			"-0.024": 0.0,
			"-0.023": 0.0,
			"-0.022": 0.0,
			"-0.021": 0.0,
			"-0.02": 0.0,
			"-0.019": 0.0,
			"-0.018": 0.0,
			"-0.017": 0.0,
			"-0.016": 0.529073336556,
			"-0.015": 1.83442711941,
			"-0.014": 1.04175676089,
			"-0.013": 1.32675603636,
			"-0.012": 2.1091036388,
			"-0.011": 2.58364782961,
			"-0.01": 2.01762304483,
			"-0.009": 1.63033038359,
			"-0.008": 1.37776939591,
			"-0.007": 3.52481401246,
			"-0.006": 15.5705556299,
			"-0.005": 22.6275089024,
			"-0.004": 26.7418803091,
			"-0.003": 31.5540119851,
			"-0.002": 22.5027824689,
			"-0.001": 19.8419746517,
			"0.0": 20.7291724241,
			"0.001": 20.6259541188,
			"0.002": 20.2962229287,
			"0.003": 15.3572206161,
			"0.004": 12.6517869253,
			"0.005": 10.2937916899,
			"0.006": 8.25729055196,
			"0.007": 5.14318885871,
			"0.008": 6.74055057211,
			"0.009": 5.01241622332,
			"0.01": 5.48749593625,
			"0.011": 7.38915658499,
			"0.012": 9.35966348381,
			"0.013": 1.81518175207,
			"0.014": 0.0054165614495,
			"0.015": 0.0,
			"0.016": 0.0,
			"0.017": 0.0,
			"0.018": 0.0,
			"0.019": 0.0,
			"0.02": 0.0,
			"0.021": 0.0,
			"0.022": 0.0,
			"0.023": 0.0,
			"0.024": 0.0,
			"0.025": 0.0
		}
	}
}
