{
	 "smiles": "C1CC2=CC=CC=C2O1", 
	 "Tm": 251.95, 
	 "num_atms": 17, 
	 "gaussian": { 
		 "optdone": 1, 
		 "sigma_profile": "yes", 
		 "theory": "DFT", 
		 "functional": "B3LYP", 
		 "basiset": "6-31G**", 
		 "properties": { 
			 "R2extent": 1133.6066, 
			 "electric_dipole_moment_norm": 1.58800528337, 
			 "electric_quadrupole_moment_norm": 5.44431390719, 
			 "total_energy": -384.888031548, 
			 "HOMO_LUMO_gap": 0.20783, 
			 "cosmo_polarized_energy": -5.24, 
			 "cosmo_cavitation_energy": 19.84, 
			 "cosmo_dispersion_energy": -15.4, 
			 "cosmo_repulsion_energy": 1.26, 
			 "cosmo_total_nonelectrostatic_energy": 5.71, 
			 "SMD_solvation_energy": 3.42 
		},
		"coords": [
			{
				"x": 0.3204611379,
				"y": 2.2924909319,
				"z": -0.4638740293,
				"element": "C" 
			},
			{
				"x": 1.0154620524,
				"y": 1.2170438799,
				"z": 0.4066095989,
				"element": "C" 
			},
			{
				"x": 0.2654953591,
				"y": -0.0296480075,
				"z": -0.0085721266,
				"element": "C" 
			},
			{
				"x": 0.4734596874,
				"y": -1.3775577408,
				"z": 0.2557712807,
				"element": "C" 
			},
			{
				"x": -0.4455852171,
				"y": -2.3165315973,
				"z": -0.2333417633,
				"element": "C" 
			},
			{
				"x": -1.5583735921,
				"y": -1.8969660503,
				"z": -0.9678520047,
				"element": "C" 
			},
			{
				"x": -1.7809229901,
				"y": -0.5418128108,
				"z": -1.2393678323,
				"element": "C" 
			},
			{
				"x": -0.8519470382,
				"y": 0.3691624036,
				"z": -0.7482719435,
				"element": "C" 
			},
			{
				"x": -0.9318289596,
				"y": 1.7225753103,
				"z": -0.922022725,
				"element": "O" 
			},
			{
				"x": 0.9217396003,
				"y": 2.540995372,
				"z": -1.3471819136,
				"element": "H" 
			},
			{
				"x": 0.0879405511,
				"y": 3.2144626339,
				"z": 0.0736219836,
				"element": "H" 
			},
			{
				"x": 0.8872168434,
				"y": 1.4184941354,
				"z": 1.4778268397,
				"element": "H" 
			},
			{
				"x": 2.0909982905,
				"y": 1.1687996207,
				"z": 0.2097999915,
				"element": "H" 
			},
			{
				"x": 1.3355247162,
				"y": -1.7026756893,
				"z": 0.8325012146,
				"element": "H" 
			},
			{
				"x": -0.2923745021,
				"y": -3.3737647613,
				"z": -0.0398067941,
				"element": "H" 
			},
			{
				"x": -2.263876399,
				"y": -2.63384347,
				"z": -1.3413717611,
				"element": "H" 
			},
			{
				"x": -2.63838954,
				"y": -0.2055241605,
				"z": -1.8121680156,
				"element": "H" 
			}
		],
		 "valence_orbital": [ 
			{
				"type": "occ",
				"energy": -0.35244,
				"method": "rhf"
			},
			{
				"type": "occ",
				"energy": -0.32487,
				"method": "rhf"
			},
			{
				"type": "occ",
				"energy": -0.30807,
				"method": "rhf"
			},
			{
				"type": "occ",
				"energy": -0.24306,
				"method": "rhf"
			},
			{
				"type": "occ",
				"energy": -0.20769,
				"method": "rhf"
			},
			{
				"type": "unocc",
				"energy": 0.00014,
				"method": "rhf"
			},
			{
				"type": "unocc",
				"energy": 0.01963,
				"method": "rhf"
			},
			{
				"type": "unocc",
				"energy": 0.09711,
				"method": "rhf"
			},
			{
				"type": "unocc",
				"energy": 0.10255,
				"method": "rhf"
			},
			{
				"type": "unocc",
				"energy": 0.12371,
				"method": "rhf"
			}
		],
		"cosmo_sigma_profile": { 
			"-0.025": 0.0,
			"-0.024": 0.0,
			"-0.023": 0.0,
			"-0.022": 0.0,
			"-0.021": 0.0,
			"-0.02": 0.0,
			"-0.019": 0.0,
			"-0.018": 0.0,
			"-0.017": 0.0,
			"-0.016": 0.0,
			"-0.015": 0.0,
			"-0.014": 0.0,
			"-0.013": 0.0,
			"-0.012": 0.0,
			"-0.011": 0.0,
			"-0.01": 0.0,
			"-0.009": 0.0,
			"-0.008": 0.0,
			"-0.007": 0.00889643394452,
			"-0.006": 4.1873401437,
			"-0.005": 17.1116886365,
			"-0.004": 18.9821835896,
			"-0.003": 20.2417558476,
			"-0.002": 15.7133424395,
			"-0.001": 10.3052018795,
			"0.0": 7.19586806035,
			"0.001": 7.84517677313,
			"0.002": 7.46300330325,
			"0.003": 9.60254746297,
			"0.004": 9.41212730511,
			"0.005": 9.42366567833,
			"0.006": 9.98916136141,
			"0.007": 3.86201789728,
			"0.008": 1.15443594451,
			"0.009": 1.14398433933,
			"0.01": 1.77833860113,
			"0.011": 1.64088963549,
			"0.012": 0.869534705369,
			"0.013": 0.0,
			"0.014": 0.0,
			"0.015": 0.0,
			"0.016": 0.0,
			"0.017": 0.0,
			"0.018": 0.0,
			"0.019": 0.0,
			"0.02": 0.0,
			"0.021": 0.0,
			"0.022": 0.0,
			"0.023": 0.0,
			"0.024": 0.0,
			"0.025": 0.0
		}
	}
}
