{
	 "smiles": "CC(O)C1=CC=C(Br)C=C1", 
	 "Tm": 310.15, 
	 "num_atms": 19, 
	 "gaussian": { 
		 "optdone": 1, 
		 "sigma_profile": "yes", 
		 "theory": "DFT", 
		 "functional": "B3LYP", 
		 "basiset": "6-31G**", 
		 "properties": { 
			 "R2extent": 5585.9741, 
			 "electric_dipole_moment_norm": 1.53225670499, 
			 "electric_quadrupole_moment_norm": 9.54504063009, 
			 "total_energy": -2956.90296705, 
			 "HOMO_LUMO_gap": 0.22146, 
			 "cosmo_polarized_energy": -7.57, 
			 "cosmo_cavitation_energy": 24.84, 
			 "cosmo_dispersion_energy": -18.48, 
			 "cosmo_repulsion_energy": 1.51, 
			 "cosmo_total_nonelectrostatic_energy": 7.87, 
			 "SMD_solvation_energy": 3.18 
		},
		"coords": [
			{
				"x": -1.4674786908,
				"y": -0.1038327429,
				"z": -0.9615587225,
				"element": "C" 
			},
			{
				"x": -0.1528412759,
				"y": 0.5920143444,
				"z": -1.3181133366,
				"element": "C" 
			},
			{
				"x": 0.731856696,
				"y": -0.4352893145,
				"z": -1.7601065998,
				"element": "O" 
			},
			{
				"x": 0.418398517,
				"y": 1.3721943117,
				"z": -0.142063735,
				"element": "C" 
			},
			{
				"x": 0.102403663,
				"y": 2.7228571038,
				"z": 0.0435618419,
				"element": "C" 
			},
			{
				"x": 0.5931941861,
				"y": 3.4348171809,
				"z": 1.1383772975,
				"element": "C" 
			},
			{
				"x": 1.417075545,
				"y": 2.7829754524,
				"z": 2.0543024025,
				"element": "C" 
			},
			{
				"x": 2.1046496183,
				"y": 3.749834974,
				"z": 3.5549449303,
				"element": "Br" 
			},
			{
				"x": 1.7538159925,
				"y": 1.4403616149,
				"z": 1.8901386168,
				"element": "C" 
			},
			{
				"x": 1.2508066006,
				"y": 0.7430660337,
				"z": 0.7917218254,
				"element": "C" 
			},
			{
				"x": -1.843074215,
				"y": -0.6558149821,
				"z": -1.8279009321,
				"element": "H" 
			},
			{
				"x": -1.3080182304,
				"y": -0.8094953064,
				"z": -0.1408980984,
				"element": "H" 
			},
			{
				"x": -2.2203125877,
				"y": 0.6261678307,
				"z": -0.6513559951,
				"element": "H" 
			},
			{
				"x": -0.3476399095,
				"y": 1.3029553389,
				"z": -2.1383513804,
				"element": "H" 
			},
			{
				"x": 1.575509539,
				"y": -0.0212297293,
				"z": -1.9863807479,
				"element": "H" 
			},
			{
				"x": -0.5334501943,
				"y": 3.2322934623,
				"z": -0.6770288171,
				"element": "H" 
			},
			{
				"x": 0.3464421268,
				"y": 4.4817021745,
				"z": 1.2744330106,
				"element": "H" 
			},
			{
				"x": 2.3995523399,
				"y": 0.9486875578,
				"z": 2.6091119964,
				"element": "H" 
			},
			{
				"x": 1.5101102793,
				"y": -0.3010653049,
				"z": 0.6464664436,
				"element": "H" 
			}
		],
		 "valence_orbital": [ 
			{
				"type": "occ",
				"energy": -0.30933,
				"method": "rhf"
			},
			{
				"type": "occ",
				"energy": -0.28648,
				"method": "rhf"
			},
			{
				"type": "occ",
				"energy": -0.27941,
				"method": "rhf"
			},
			{
				"type": "occ",
				"energy": -0.26406,
				"method": "rhf"
			},
			{
				"type": "occ",
				"energy": -0.23823,
				"method": "rhf"
			},
			{
				"type": "unocc",
				"energy": -0.01677,
				"method": "rhf"
			},
			{
				"type": "unocc",
				"energy": -0.01539,
				"method": "rhf"
			},
			{
				"type": "unocc",
				"energy": 0.00797,
				"method": "rhf"
			},
			{
				"type": "unocc",
				"energy": 0.07938,
				"method": "rhf"
			},
			{
				"type": "unocc",
				"energy": 0.10984,
				"method": "rhf"
			}
		],
		"cosmo_sigma_profile": { 
			"-0.025": 0.0,
			"-0.024": 0.0,
			"-0.023": 0.0,
			"-0.022": 0.0,
			"-0.021": 0.0,
			"-0.02": 0.0,
			"-0.019": 0.0,
			"-0.018": 0.0,
			"-0.017": 0.0,
			"-0.016": 0.156695046567,
			"-0.015": 0.981050785837,
			"-0.014": 0.982024423542,
			"-0.013": 0.452591852612,
			"-0.012": 1.13694700859,
			"-0.011": 0.865872996718,
			"-0.01": 0.694553979722,
			"-0.009": 0.197514674393,
			"-0.008": 1.4989969688,
			"-0.007": 2.95690019097,
			"-0.006": 8.10112975773,
			"-0.005": 11.2593629527,
			"-0.004": 14.3398050978,
			"-0.003": 15.1459500583,
			"-0.002": 15.8495507799,
			"-0.001": 15.5864388588,
			"0.0": 16.9367580057,
			"0.001": 15.7148071191,
			"0.002": 16.2169312636,
			"0.003": 17.2234607567,
			"0.004": 21.4662113888,
			"0.005": 10.77416037,
			"0.006": 1.41985533387,
			"0.007": 0.801694922493,
			"0.008": 1.16923371481,
			"0.009": 1.56679341386,
			"0.01": 1.15836513252,
			"0.011": 0.896090145156,
			"0.012": 1.18010842354,
			"0.013": 1.68322244243,
			"0.014": 1.42349741507,
			"0.015": 0.000171975401606,
			"0.016": 0.0,
			"0.017": 0.0,
			"0.018": 0.0,
			"0.019": 0.0,
			"0.02": 0.0,
			"0.021": 0.0,
			"0.022": 0.0,
			"0.023": 0.0,
			"0.024": 0.0,
			"0.025": 0.0
		}
	}
}
