{
	 "smiles": "CC1=NC2=C(C=CC=C2)C(=O)N1C1=CC=CC=C1Cl", 
	 "Tm": 399.15, 
	 "num_atms": 30, 
	 "gaussian": { 
		 "optdone": 1, 
		 "sigma_profile": "yes", 
		 "theory": "DFT", 
		 "functional": "B3LYP", 
		 "basiset": "6-31G**", 
		 "properties": { 
			 "R2extent": 6424.2449, 
			 "electric_dipole_moment_norm": 2.73165607096, 
			 "electric_quadrupole_moment_norm": 16.6157365729, 
			 "total_energy": -1223.17508033, 
			 "HOMO_LUMO_gap": 0.1863, 
			 "cosmo_polarized_energy": -12.97, 
			 "cosmo_cavitation_energy": 35.78, 
			 "cosmo_dispersion_energy": -25.16, 
			 "cosmo_repulsion_energy": 1.91, 
			 "cosmo_total_nonelectrostatic_energy": 12.53, 
			 "SMD_solvation_energy": 5.12 
		},
		"coords": [
			{
				"x": -2.314847377,
				"y": 2.0137079631,
				"z": -1.0682465271,
				"element": "C" 
			},
			{
				"x": -2.0316354969,
				"y": 0.5790523783,
				"z": -0.7165568738,
				"element": "C" 
			},
			{
				"x": -2.9572125193,
				"y": -0.1167454742,
				"z": -0.1387226478,
				"element": "N" 
			},
			{
				"x": -2.693587252,
				"y": -1.4409602059,
				"z": 0.1783757551,
				"element": "C" 
			},
			{
				"x": -1.452346939,
				"y": -2.0525420543,
				"z": -0.1003477498,
				"element": "C" 
			},
			{
				"x": -1.2258136441,
				"y": -3.3966369228,
				"z": 0.2379682994,
				"element": "C" 
			},
			{
				"x": -2.2283495491,
				"y": -4.1320692888,
				"z": 0.8510969467,
				"element": "C" 
			},
			{
				"x": -3.4679848875,
				"y": -3.5286539147,
				"z": 1.1321586947,
				"element": "C" 
			},
			{
				"x": -3.7014101881,
				"y": -2.20224622,
				"z": 0.802486824,
				"element": "C" 
			},
			{
				"x": -0.3949822803,
				"y": -1.2735259024,
				"z": -0.7468584107,
				"element": "C" 
			},
			{
				"x": 0.7206523064,
				"y": -1.6815608378,
				"z": -1.031720695,
				"element": "O" 
			},
			{
				"x": -0.7697638943,
				"y": 0.069168307,
				"z": -1.0331945422,
				"element": "N" 
			},
			{
				"x": 0.2273113306,
				"y": 0.8819557897,
				"z": -1.6742930897,
				"element": "C" 
			},
			{
				"x": 1.1697485808,
				"y": 1.5587516197,
				"z": -0.8960837588,
				"element": "C" 
			},
			{
				"x": 2.1522370268,
				"y": 2.3450420122,
				"z": -1.4933721738,
				"element": "C" 
			},
			{
				"x": 2.2014339446,
				"y": 2.4540339647,
				"z": -2.8839603677,
				"element": "C" 
			},
			{
				"x": 1.2740479161,
				"y": 1.7774394355,
				"z": -3.6749501497,
				"element": "C" 
			},
			{
				"x": 0.2932649755,
				"y": 0.9913130269,
				"z": -3.0695269699,
				"element": "C" 
			},
			{
				"x": -0.8621218816,
				"y": 0.1462225359,
				"z": -4.0790260975,
				"element": "Cl" 
			},
			{
				"x": -3.3206804424,
				"y": 2.2490894469,
				"z": -0.7224314566,
				"element": "H" 
			},
			{
				"x": -2.2588654959,
				"y": 2.1754050772,
				"z": -2.1494783059,
				"element": "H" 
			},
			{
				"x": -1.5981997754,
				"y": 2.6940665831,
				"z": -0.5978201634,
				"element": "H" 
			},
			{
				"x": -0.2582478058,
				"y": -3.8291069692,
				"z": 0.0059287242,
				"element": "H" 
			},
			{
				"x": -2.0593207557,
				"y": -5.1717686045,
				"z": 1.1142364855,
				"element": "H" 
			},
			{
				"x": -4.2510580726,
				"y": -4.10861584,
				"z": 1.6125865414,
				"element": "H" 
			},
			{
				"x": -4.6509170317,
				"y": -1.7204945713,
				"z": 1.0111094599,
				"element": "H" 
			},
			{
				"x": 1.1224866435,
				"y": 1.4510680813,
				"z": 0.1827914321,
				"element": "H" 
			},
			{
				"x": 2.8778099215,
				"y": 2.8649367954,
				"z": -0.8761394061,
				"element": "H" 
			},
			{
				"x": 2.964304985,
				"y": 3.0629736767,
				"z": -3.3592115158,
				"element": "H" 
			},
			{
				"x": 1.3052476581,
				"y": 1.8497001125,
				"z": -4.7562982619,
				"element": "H" 
			}
		],
		 "valence_orbital": [ 
			{
				"type": "occ",
				"energy": -0.26523,
				"method": "rhf"
			},
			{
				"type": "occ",
				"energy": -0.26017,
				"method": "rhf"
			},
			{
				"type": "occ",
				"energy": -0.2571,
				"method": "rhf"
			},
			{
				"type": "occ",
				"energy": -0.25616,
				"method": "rhf"
			},
			{
				"type": "occ",
				"energy": -0.22557,
				"method": "rhf"
			},
			{
				"type": "unocc",
				"energy": -0.03927,
				"method": "rhf"
			},
			{
				"type": "unocc",
				"energy": -0.03133,
				"method": "rhf"
			},
			{
				"type": "unocc",
				"energy": -0.02843,
				"method": "rhf"
			},
			{
				"type": "unocc",
				"energy": -0.02519,
				"method": "rhf"
			},
			{
				"type": "unocc",
				"energy": 0.02013,
				"method": "rhf"
			}
		],
		"cosmo_sigma_profile": { 
			"-0.025": 0.0,
			"-0.024": 0.0,
			"-0.023": 0.0,
			"-0.022": 0.0,
			"-0.021": 0.0,
			"-0.02": 0.0,
			"-0.019": 0.0,
			"-0.018": 0.0,
			"-0.017": 0.0,
			"-0.016": 0.0,
			"-0.015": 0.0,
			"-0.014": 0.0,
			"-0.013": 0.0,
			"-0.012": 0.0,
			"-0.011": 0.0,
			"-0.01": 0.0,
			"-0.009": 0.0,
			"-0.008": 2.38982186798,
			"-0.007": 9.87680232725,
			"-0.006": 19.78781502,
			"-0.005": 22.7077957677,
			"-0.004": 21.1383130261,
			"-0.003": 18.984396678,
			"-0.002": 23.2217371713,
			"-0.001": 22.386483759,
			"0.0": 20.0279549533,
			"0.001": 23.0675350568,
			"0.002": 27.683838814,
			"0.003": 28.7278301512,
			"0.004": 17.3417437003,
			"0.005": 4.39582253936,
			"0.006": 3.56854240199,
			"0.007": 2.75632405016,
			"0.008": 3.00306072864,
			"0.009": 3.45448951821,
			"0.01": 2.71668528611,
			"0.011": 2.680704093,
			"0.012": 5.10920497989,
			"0.013": 4.13178115357,
			"0.014": 0.588876379073,
			"0.015": 0.0380252391787,
			"0.016": 0.0,
			"0.017": 0.0,
			"0.018": 0.0,
			"0.019": 0.0,
			"0.02": 0.0,
			"0.021": 0.0,
			"0.022": 0.0,
			"0.023": 0.0,
			"0.024": 0.0,
			"0.025": 0.0
		}
	}
}
