{
	 "smiles": "NC1=CC(=CC=C1)C1=NN=CN1", 
	 "Tm": 456.15, 
	 "num_atms": 20, 
	 "gaussian": { 
		 "optdone": 1, 
		 "sigma_profile": "yes", 
		 "theory": "DFT", 
		 "functional": "B3LYP", 
		 "basiset": "6-31G**", 
		 "properties": { 
			 "R2extent": 2335.0646, 
			 "electric_dipole_moment_norm": 6.46798699829, 
			 "electric_quadrupole_moment_norm": 19.8840757052, 
			 "total_energy": -528.661524103, 
			 "HOMO_LUMO_gap": 0.1773, 
			 "cosmo_polarized_energy": -24.65, 
			 "cosmo_cavitation_energy": 24.51, 
			 "cosmo_dispersion_energy": -18.42, 
			 "cosmo_repulsion_energy": 1.45, 
			 "cosmo_total_nonelectrostatic_energy": 7.55, 
			 "SMD_solvation_energy": 2.57 
		},
		"coords": [
			{
				"x": -0.8313122221,
				"y": 1.1347908933,
				"z": -3.0999322151,
				"element": "N" 
			},
			{
				"x": -0.6691339036,
				"y": 1.2701126844,
				"z": -1.7191182378,
				"element": "C" 
			},
			{
				"x": -0.0304902219,
				"y": 0.2674333553,
				"z": -0.9731785658,
				"element": "C" 
			},
			{
				"x": 0.0875423331,
				"y": 0.3697336815,
				"z": 0.419419758,
				"element": "C" 
			},
			{
				"x": -0.4271490375,
				"y": 1.4938693783,
				"z": 1.0833544399,
				"element": "C" 
			},
			{
				"x": -1.0582618147,
				"y": 2.489697096,
				"z": 0.3425670557,
				"element": "C" 
			},
			{
				"x": -1.1865464604,
				"y": 2.3870398974,
				"z": -1.0411236993,
				"element": "C" 
			},
			{
				"x": 0.7452428194,
				"y": -0.6765706039,
				"z": 1.2077113581,
				"element": "C" 
			},
			{
				"x": 1.1591334575,
				"y": -0.5605822514,
				"z": 2.455857969,
				"element": "N" 
			},
			{
				"x": 1.7106300982,
				"y": -1.763746363,
				"z": 2.8396067658,
				"element": "N" 
			},
			{
				"x": 1.6175164335,
				"y": -2.5773416428,
				"z": 1.8164146558,
				"element": "C" 
			},
			{
				"x": 1.0234614493,
				"y": -1.9466964505,
				"z": 0.7583639264,
				"element": "N" 
			},
			{
				"x": -0.9712441386,
				"y": 2.0026230837,
				"z": -3.5989778152,
				"element": "H" 
			},
			{
				"x": -0.1470656296,
				"y": 0.5486220815,
				"z": -3.5582699829,
				"element": "H" 
			},
			{
				"x": 0.3924500947,
				"y": -0.5835562242,
				"z": -1.5030895755,
				"element": "H" 
			},
			{
				"x": -0.3244415399,
				"y": 1.5641469569,
				"z": 2.159571513,
				"element": "H" 
			},
			{
				"x": -1.4598600155,
				"y": 3.3624298562,
				"z": 0.8495247896,
				"element": "H" 
			},
			{
				"x": -1.6868642061,
				"y": 3.1705732003,
				"z": -1.6046129602,
				"element": "H" 
			},
			{
				"x": 1.9562440768,
				"y": -3.6029675565,
				"z": 1.7873156832,
				"element": "H" 
			},
			{
				"x": 0.7715484272,
				"y": -2.3514110722,
				"z": -0.1299048627,
				"element": "H" 
			}
		],
		 "valence_orbital": [ 
			{
				"type": "occ",
				"energy": -0.29998,
				"method": "rhf"
			},
			{
				"type": "occ",
				"energy": -0.28018,
				"method": "rhf"
			},
			{
				"type": "occ",
				"energy": -0.24763,
				"method": "rhf"
			},
			{
				"type": "occ",
				"energy": -0.23365,
				"method": "rhf"
			},
			{
				"type": "occ",
				"energy": -0.2087,
				"method": "rhf"
			},
			{
				"type": "unocc",
				"energy": -0.0314,
				"method": "rhf"
			},
			{
				"type": "unocc",
				"energy": 0.00645,
				"method": "rhf"
			},
			{
				"type": "unocc",
				"energy": 0.03553,
				"method": "rhf"
			},
			{
				"type": "unocc",
				"energy": 0.05528,
				"method": "rhf"
			},
			{
				"type": "unocc",
				"energy": 0.06866,
				"method": "rhf"
			}
		],
		"cosmo_sigma_profile": { 
			"-0.025": 0.0,
			"-0.024": 0.0,
			"-0.023": 0.0,
			"-0.022": 0.0,
			"-0.021": 0.0,
			"-0.02": 0.0,
			"-0.019": 0.0,
			"-0.018": 0.210143313074,
			"-0.017": 1.5870833259,
			"-0.016": 1.46241835625,
			"-0.015": 1.48934821944,
			"-0.014": 1.74554140662,
			"-0.013": 1.64876868695,
			"-0.012": 4.05287818421,
			"-0.011": 4.93267393324,
			"-0.01": 7.54684884659,
			"-0.009": 6.85726352668,
			"-0.008": 5.18488538398,
			"-0.007": 5.51145647224,
			"-0.006": 6.30244951366,
			"-0.005": 8.48768416002,
			"-0.004": 8.92269482601,
			"-0.003": 8.87732661178,
			"-0.002": 7.66318757419,
			"-0.001": 8.52447706413,
			"0.0": 10.5162329849,
			"0.001": 9.33550457577,
			"0.002": 10.0120568659,
			"0.003": 9.084652304,
			"0.004": 11.4673542617,
			"0.005": 13.4285423776,
			"0.006": 8.90365168456,
			"0.007": 2.94192602164,
			"0.008": 3.42669701176,
			"0.009": 3.09797231624,
			"0.01": 1.96454636254,
			"0.011": 3.49582565744,
			"0.012": 3.49987495459,
			"0.013": 3.44766384266,
			"0.014": 4.16149420825,
			"0.015": 2.8311094706,
			"0.016": 2.52452374953,
			"0.017": 1.05898236827,
			"0.018": 0.0421629211091,
			"0.019": 0.0,
			"0.02": 0.0,
			"0.021": 0.0,
			"0.022": 0.0,
			"0.023": 0.0,
			"0.024": 0.0,
			"0.025": 0.0
		}
	}
}
