{
	 "smiles": "CCOC(=O)C1=NN=C(O1)C1=CC=CC=C1", 
	 "Tm": 343.15, 
	 "num_atms": 26, 
	 "gaussian": { 
		 "optdone": 1, 
		 "sigma_profile": "yes", 
		 "theory": "DFT", 
		 "functional": "B3LYP", 
		 "basiset": "6-31G**", 
		 "properties": { 
			 "R2extent": 5349.5843, 
			 "electric_dipole_moment_norm": 5.45343168289, 
			 "electric_quadrupole_moment_norm": 19.0543993526, 
			 "total_energy": -760.350301287, 
			 "HOMO_LUMO_gap": 0.1765, 
			 "cosmo_polarized_energy": -13.58, 
			 "cosmo_cavitation_energy": 32.01, 
			 "cosmo_dispersion_energy": -23.24, 
			 "cosmo_repulsion_energy": 1.82, 
			 "cosmo_total_nonelectrostatic_energy": 10.59, 
			 "SMD_solvation_energy": 5.3 
		},
		"coords": [
			{
				"x": 5.5377885578,
				"y": -1.1901748693,
				"z": 1.7037785311,
				"element": "C" 
			},
			{
				"x": 4.3069509785,
				"y": -0.901086602,
				"z": 2.5486317296,
				"element": "C" 
			},
			{
				"x": 3.1462565926,
				"y": -0.6417179237,
				"z": 1.7148359711,
				"element": "O" 
			},
			{
				"x": 2.462652501,
				"y": -1.7229954099,
				"z": 1.3009739651,
				"element": "C" 
			},
			{
				"x": 2.7227202091,
				"y": -2.874942721,
				"z": 1.5633243185,
				"element": "O" 
			},
			{
				"x": 1.3069691278,
				"y": -1.3237246786,
				"z": 0.4586807593,
				"element": "C" 
			},
			{
				"x": 0.4415258348,
				"y": -2.1118436111,
				"z": -0.1059953362,
				"element": "N" 
			},
			{
				"x": -0.4443866635,
				"y": -1.2974857778,
				"z": -0.7831487679,
				"element": "N" 
			},
			{
				"x": -0.0532154345,
				"y": -0.0648556466,
				"z": -0.5822050771,
				"element": "C" 
			},
			{
				"x": 1.0576522661,
				"y": -0.0073777635,
				"z": 0.2007440754,
				"element": "O" 
			},
			{
				"x": -0.6512677917,
				"y": 1.1660266752,
				"z": -1.0817210776,
				"element": "C" 
			},
			{
				"x": -1.7979884392,
				"y": 1.0871587391,
				"z": -1.8897122821,
				"element": "C" 
			},
			{
				"x": -2.3824385462,
				"y": 2.2525285449,
				"z": -2.3757426294,
				"element": "C" 
			},
			{
				"x": -1.8324293407,
				"y": 3.4992111025,
				"z": -2.0626097561,
				"element": "C" 
			},
			{
				"x": -0.6924830263,
				"y": 3.5785863571,
				"z": -1.2593729945,
				"element": "C" 
			},
			{
				"x": -0.0995444155,
				"y": 2.4178410755,
				"z": -0.7676141879,
				"element": "C" 
			},
			{
				"x": 6.411121727,
				"y": -1.3051399703,
				"z": 2.3541383407,
				"element": "H" 
			},
			{
				"x": 5.4089781087,
				"y": -2.1158921333,
				"z": 1.1378067346,
				"element": "H" 
			},
			{
				"x": 5.7339070316,
				"y": -0.3705314581,
				"z": 1.0065946634,
				"element": "H" 
			},
			{
				"x": 4.4231542176,
				"y": 0.0139186838,
				"z": 3.133185579,
				"element": "H" 
			},
			{
				"x": 4.0778769959,
				"y": -1.7348699276,
				"z": 3.2161546744,
				"element": "H" 
			},
			{
				"x": -2.2123122985,
				"y": 0.1123553826,
				"z": -2.1233743278,
				"element": "H" 
			},
			{
				"x": -3.2685576582,
				"y": 2.1897058528,
				"z": -2.9999890698,
				"element": "H" 
			},
			{
				"x": -2.2917170807,
				"y": 4.4064459155,
				"z": -2.4439948263,
				"element": "H" 
			},
			{
				"x": -0.2642517582,
				"y": 4.5460111328,
				"z": -1.0152390002,
				"element": "H" 
			},
			{
				"x": 0.7858383049,
				"y": 2.4745490309,
				"z": -0.1433300093,
				"element": "H" 
			}
		],
		 "valence_orbital": [ 
			{
				"type": "occ",
				"energy": -0.31156,
				"method": "rhf"
			},
			{
				"type": "occ",
				"energy": -0.29427,
				"method": "rhf"
			},
			{
				"type": "occ",
				"energy": -0.28256,
				"method": "rhf"
			},
			{
				"type": "occ",
				"energy": -0.2695,
				"method": "rhf"
			},
			{
				"type": "occ",
				"energy": -0.25008,
				"method": "rhf"
			},
			{
				"type": "unocc",
				"energy": -0.07358,
				"method": "rhf"
			},
			{
				"type": "unocc",
				"energy": -0.03772,
				"method": "rhf"
			},
			{
				"type": "unocc",
				"energy": -0.01785,
				"method": "rhf"
			},
			{
				"type": "unocc",
				"energy": 0.04779,
				"method": "rhf"
			},
			{
				"type": "unocc",
				"energy": 0.08262,
				"method": "rhf"
			}
		],
		"cosmo_sigma_profile": { 
			"-0.025": 0.0,
			"-0.024": 0.0,
			"-0.023": 0.0,
			"-0.022": 0.0,
			"-0.021": 0.0,
			"-0.02": 0.0,
			"-0.019": 0.0,
			"-0.018": 0.0,
			"-0.017": 0.0,
			"-0.016": 0.0,
			"-0.015": 0.0,
			"-0.014": 0.0,
			"-0.013": 0.0,
			"-0.012": 0.0,
			"-0.011": 0.0,
			"-0.01": 0.0,
			"-0.009": 0.0,
			"-0.008": 0.000433787570392,
			"-0.007": 7.48731404352,
			"-0.006": 18.1240575807,
			"-0.005": 24.0810945349,
			"-0.004": 26.3098541302,
			"-0.003": 22.0265096415,
			"-0.002": 21.1920714246,
			"-0.001": 19.2365892792,
			"0.0": 20.0355750875,
			"0.001": 14.4569247125,
			"0.002": 14.4676037457,
			"0.003": 17.1164713856,
			"0.004": 9.23353268015,
			"0.005": 5.07859233451,
			"0.006": 3.74438554533,
			"0.007": 4.58992619882,
			"0.008": 5.4422108215,
			"0.009": 4.85611727546,
			"0.01": 7.22357072312,
			"0.011": 6.5930142621,
			"0.012": 3.04788832892,
			"0.013": 2.18758743931,
			"0.014": 0.395520576159,
			"0.015": 0.0,
			"0.016": 0.0,
			"0.017": 0.0,
			"0.018": 0.0,
			"0.019": 0.0,
			"0.02": 0.0,
			"0.021": 0.0,
			"0.022": 0.0,
			"0.023": 0.0,
			"0.024": 0.0,
			"0.025": 0.0
		}
	}
}
