{
	 "smiles": "COC(=O)C1=CC=CC(=C1)C#N", 
	 "Tm": 338.15, 
	 "num_atms": 19, 
	 "gaussian": { 
		 "optdone": 1, 
		 "sigma_profile": "yes", 
		 "theory": "DFT", 
		 "functional": "B3LYP", 
		 "basiset": "6-31G**", 
		 "properties": { 
			 "R2extent": 2571.0097, 
			 "electric_dipole_moment_norm": 5.8035948127, 
			 "electric_quadrupole_moment_norm": 12.4212073644, 
			 "total_energy": -552.36886243, 
			 "HOMO_LUMO_gap": 0.20462, 
			 "cosmo_polarized_energy": -11.64, 
			 "cosmo_cavitation_energy": 25.25, 
			 "cosmo_dispersion_energy": -17.86, 
			 "cosmo_repulsion_energy": 1.43, 
			 "cosmo_total_nonelectrostatic_energy": 8.81, 
			 "SMD_solvation_energy": 7.45 
		},
		"coords": [
			{
				"x": -0.7784974932,
				"y": -1.6265411072,
				"z": -3.6161339339,
				"element": "C" 
			},
			{
				"x": -0.6443318023,
				"y": -0.7685950572,
				"z": -2.4697868118,
				"element": "O" 
			},
			{
				"x": -0.2851063994,
				"y": -1.389337669,
				"z": -1.3264646309,
				"element": "C" 
			},
			{
				"x": -0.083821314,
				"y": -2.5844665545,
				"z": -1.2462023059,
				"element": "O" 
			},
			{
				"x": -0.1645544116,
				"y": -0.4396692859,
				"z": -0.1789034586,
				"element": "C" 
			},
			{
				"x": -0.404742598,
				"y": 0.9349662332,
				"z": -0.3101471598,
				"element": "C" 
			},
			{
				"x": -0.2768942217,
				"y": 1.7745522389,
				"z": 0.796609263,
				"element": "C" 
			},
			{
				"x": 0.0890976959,
				"y": 1.2539758469,
				"z": 2.0352569558,
				"element": "C" 
			},
			{
				"x": 0.3307928435,
				"y": -0.1251612579,
				"z": 2.1699695266,
				"element": "C" 
			},
			{
				"x": 0.2032206392,
				"y": -0.9708490679,
				"z": 1.0604136325,
				"element": "C" 
			},
			{
				"x": 0.7080701832,
				"y": -0.6631376834,
				"z": 3.4459208478,
				"element": "C" 
			},
			{
				"x": 1.0133854545,
				"y": -1.09146311,
				"z": 4.4831292861,
				"element": "N" 
			},
			{
				"x": -1.0684251116,
				"y": -0.9740669806,
				"z": -4.4390464227,
				"element": "H" 
			},
			{
				"x": 0.1692122293,
				"y": -2.1249187122,
				"z": -3.833968376,
				"element": "H" 
			},
			{
				"x": -1.5433181536,
				"y": -2.3863207667,
				"z": -3.4378793879,
				"element": "H" 
			},
			{
				"x": -0.6892942961,
				"y": 1.3353979166,
				"z": -1.276104855,
				"element": "H" 
			},
			{
				"x": -0.4631167716,
				"y": 2.8389704524,
				"z": 0.6939530487,
				"element": "H" 
			},
			{
				"x": 0.1904515592,
				"y": 1.9008965243,
				"z": 2.9003005966,
				"element": "H" 
			},
			{
				"x": 0.3854719683,
				"y": -2.0361319599,
				"z": 1.1453841851,
				"element": "H" 
			}
		],
		 "valence_orbital": [ 
			{
				"type": "occ",
				"energy": -0.33468,
				"method": "rhf"
			},
			{
				"type": "occ",
				"energy": -0.3158,
				"method": "rhf"
			},
			{
				"type": "occ",
				"energy": -0.28888,
				"method": "rhf"
			},
			{
				"type": "occ",
				"energy": -0.28365,
				"method": "rhf"
			},
			{
				"type": "occ",
				"energy": -0.27444,
				"method": "rhf"
			},
			{
				"type": "unocc",
				"energy": -0.06982,
				"method": "rhf"
			},
			{
				"type": "unocc",
				"energy": -0.05127,
				"method": "rhf"
			},
			{
				"type": "unocc",
				"energy": 0.02476,
				"method": "rhf"
			},
			{
				"type": "unocc",
				"energy": 0.03268,
				"method": "rhf"
			},
			{
				"type": "unocc",
				"energy": 0.07656,
				"method": "rhf"
			}
		],
		"cosmo_sigma_profile": { 
			"-0.025": 0.0,
			"-0.024": 0.0,
			"-0.023": 0.0,
			"-0.022": 0.0,
			"-0.021": 0.0,
			"-0.02": 0.0,
			"-0.019": 0.0,
			"-0.018": 0.0,
			"-0.017": 0.0,
			"-0.016": 0.0,
			"-0.015": 0.0,
			"-0.014": 0.0,
			"-0.013": 0.0,
			"-0.012": 0.0,
			"-0.011": 0.0,
			"-0.01": 0.0,
			"-0.009": 0.779398689538,
			"-0.008": 4.95562005824,
			"-0.007": 9.686325987,
			"-0.006": 13.2367176875,
			"-0.005": 13.4104174099,
			"-0.004": 15.8718285287,
			"-0.003": 17.6506871782,
			"-0.002": 15.6170235094,
			"-0.001": 16.9847626138,
			"0.0": 20.1982525283,
			"0.001": 15.8500314159,
			"0.002": 8.27486274595,
			"0.003": 5.11731170449,
			"0.004": 5.36012725148,
			"0.005": 5.4357043258,
			"0.006": 3.98841524896,
			"0.007": 4.47642708122,
			"0.008": 5.10790179441,
			"0.009": 4.48043012217,
			"0.01": 5.51011396093,
			"0.011": 6.44539249164,
			"0.012": 4.41979977611,
			"0.013": 1.03624640127,
			"0.014": 0.0,
			"0.015": 0.0,
			"0.016": 0.0,
			"0.017": 0.0,
			"0.018": 0.0,
			"0.019": 0.0,
			"0.02": 0.0,
			"0.021": 0.0,
			"0.022": 0.0,
			"0.023": 0.0,
			"0.024": 0.0,
			"0.025": 0.0
		}
	}
}
