{
	 "smiles": "CC1=C(C=C(O1)C(O)C(O)C(O)CO)C(O)=O", 
	 "Tm": 290.15, 
	 "num_atms": 31, 
	 "gaussian": { 
		 "optdone": 1, 
		 "sigma_profile": "yes", 
		 "theory": "DFT", 
		 "functional": "B3LYP", 
		 "basiset": "6-31G**", 
		 "properties": { 
			 "R2extent": 5335.1515, 
			 "electric_dipole_moment_norm": 5.55880007735, 
			 "electric_quadrupole_moment_norm": 24.9405132858, 
			 "total_energy": -916.034488017, 
			 "HOMO_LUMO_gap": 0.20709, 
			 "cosmo_polarized_energy": -24.63, 
			 "cosmo_cavitation_energy": 34.81, 
			 "cosmo_dispersion_energy": -24.65, 
			 "cosmo_repulsion_energy": 1.97, 
			 "cosmo_total_nonelectrostatic_energy": 12.13, 
			 "SMD_solvation_energy": 7.37 
		},
		"coords": [
			{
				"x": -0.0399560947,
				"y": -3.2131557288,
				"z": 1.3877779208,
				"element": "C" 
			},
			{
				"x": -0.1835587115,
				"y": -2.3824401648,
				"z": 0.1648326216,
				"element": "C" 
			},
			{
				"x": 0.2544926603,
				"y": -2.5222509807,
				"z": -1.1334774224,
				"element": "C" 
			},
			{
				"x": -0.2314916732,
				"y": -1.3651234157,
				"z": -1.8447852912,
				"element": "C" 
			},
			{
				"x": -0.9221403043,
				"y": -0.6140544171,
				"z": -0.9477289378,
				"element": "C" 
			},
			{
				"x": -0.8977256997,
				"y": -1.2333440438,
				"z": 0.2793416782,
				"element": "O" 
			},
			{
				"x": -1.6580905269,
				"y": 0.6792574692,
				"z": -1.0559212952,
				"element": "C" 
			},
			{
				"x": -3.0514156161,
				"y": 0.4327219299,
				"z": -0.9210854516,
				"element": "O" 
			},
			{
				"x": -1.2308766755,
				"y": 1.7033814138,
				"z": 0.0088977165,
				"element": "C" 
			},
			{
				"x": -2.0900523718,
				"y": 2.8251110774,
				"z": -0.1805515106,
				"element": "O" 
			},
			{
				"x": 0.232700436,
				"y": 2.1609370922,
				"z": -0.0243352046,
				"element": "C" 
			},
			{
				"x": 0.3141746157,
				"y": 3.1799971746,
				"z": 0.9707511512,
				"element": "O" 
			},
			{
				"x": 0.679576946,
				"y": 2.7386867167,
				"z": -1.3679399389,
				"element": "C" 
			},
			{
				"x": 1.9350890526,
				"y": 3.374769186,
				"z": -1.1194224545,
				"element": "O" 
			},
			{
				"x": 1.0589877538,
				"y": -3.6544669705,
				"z": -1.6385776135,
				"element": "C" 
			},
			{
				"x": 1.174618225,
				"y": -3.7450094688,
				"z": -2.9930578343,
				"element": "O" 
			},
			{
				"x": 1.6077603865,
				"y": -4.4774024946,
				"z": -0.9387977511,
				"element": "O" 
			},
			{
				"x": -1.0206902256,
				"y": -3.5348355809,
				"z": 1.7557717627,
				"element": "H" 
			},
			{
				"x": 0.5706277339,
				"y": -4.0852177766,
				"z": 1.1564168622,
				"element": "H" 
			},
			{
				"x": 0.4407799332,
				"y": -2.6404047539,
				"z": 2.1887508352,
				"element": "H" 
			},
			{
				"x": -0.0758854085,
				"y": -1.1036646876,
				"z": -2.8832778598,
				"element": "H" 
			},
			{
				"x": -1.4385893144,
				"y": 1.093489726,
				"z": -2.0534784622,
				"element": "H" 
			},
			{
				"x": -3.4478750597,
				"y": 1.2984469539,
				"z": -0.7353156116,
				"element": "H" 
			},
			{
				"x": -1.4118096482,
				"y": 1.2535226856,
				"z": 0.9958730504,
				"element": "H" 
			},
			{
				"x": -1.7578383474,
				"y": 3.5039929465,
				"z": 0.4277161055,
				"element": "H" 
			},
			{
				"x": 0.8886849837,
				"y": 1.3175808147,
				"z": 0.2384160732,
				"element": "H" 
			},
			{
				"x": 1.1168218251,
				"y": 3.6818883597,
				"z": 0.7568289088,
				"element": "H" 
			},
			{
				"x": 0.7825216655,
				"y": 1.9396225564,
				"z": -2.1151574488,
				"element": "H" 
			},
			{
				"x": -0.0730101251,
				"y": 3.4576012924,
				"z": -1.7169234888,
				"element": "H" 
			},
			{
				"x": 2.1377599324,
				"y": 3.9632783813,
				"z": -1.8559327309,
				"element": "H" 
			},
			{
				"x": 0.5920096529,
				"y": -3.1050152923,
				"z": -3.4238083786,
				"element": "H" 
			}
		],
		 "valence_orbital": [ 
			{
				"type": "occ",
				"energy": -0.28568,
				"method": "rhf"
			},
			{
				"type": "occ",
				"energy": -0.28425,
				"method": "rhf"
			},
			{
				"type": "occ",
				"energy": -0.27499,
				"method": "rhf"
			},
			{
				"type": "occ",
				"energy": -0.27129,
				"method": "rhf"
			},
			{
				"type": "occ",
				"energy": -0.23744,
				"method": "rhf"
			},
			{
				"type": "unocc",
				"energy": -0.03035,
				"method": "rhf"
			},
			{
				"type": "unocc",
				"energy": -9e-05,
				"method": "rhf"
			},
			{
				"type": "unocc",
				"energy": 0.0468,
				"method": "rhf"
			},
			{
				"type": "unocc",
				"energy": 0.0587,
				"method": "rhf"
			},
			{
				"type": "unocc",
				"energy": 0.08098,
				"method": "rhf"
			}
		],
		"cosmo_sigma_profile": { 
			"-0.025": 0.0,
			"-0.024": 0.0,
			"-0.023": 0.0,
			"-0.022": 0.0,
			"-0.021": 0.0,
			"-0.02": 0.0,
			"-0.019": 0.263400841703,
			"-0.018": 0.951419341406,
			"-0.017": 1.46719642836,
			"-0.016": 2.18884961992,
			"-0.015": 2.00700297471,
			"-0.014": 1.5434648206,
			"-0.013": 2.31176164002,
			"-0.012": 2.87684172135,
			"-0.011": 3.12143225973,
			"-0.01": 4.26646226878,
			"-0.009": 3.92790274955,
			"-0.008": 3.85004768693,
			"-0.007": 6.77483789069,
			"-0.006": 11.6037906828,
			"-0.005": 12.5199767659,
			"-0.004": 18.2148673174,
			"-0.003": 21.2059952849,
			"-0.002": 22.7281488408,
			"-0.001": 22.1917635871,
			"0.0": 16.3532692091,
			"0.001": 12.3547683945,
			"0.002": 12.4361829762,
			"0.003": 10.0180738402,
			"0.004": 9.28476520133,
			"0.005": 8.13542736135,
			"0.006": 7.22906030563,
			"0.007": 6.79188174975,
			"0.008": 7.45162592728,
			"0.009": 7.64074158948,
			"0.01": 7.64056340619,
			"0.011": 8.77982468262,
			"0.012": 7.72336379675,
			"0.013": 5.57647000045,
			"0.014": 1.42093766661,
			"0.015": 0.0,
			"0.016": 0.0,
			"0.017": 0.0,
			"0.018": 0.0,
			"0.019": 0.0,
			"0.02": 0.0,
			"0.021": 0.0,
			"0.022": 0.0,
			"0.023": 0.0,
			"0.024": 0.0,
			"0.025": 0.0
		}
	}
}
