{
	 "smiles": "CC(C)(C)OC(=O)N1CCN(CC1)C1=CN=C(N)C=C1", 
	 "Tm": 405.15, 
	 "num_atms": 42, 
	 "gaussian": { 
		 "optdone": 1, 
		 "sigma_profile": "yes", 
		 "theory": "DFT", 
		 "functional": "B3LYP", 
		 "basiset": "6-31G**", 
		 "properties": { 
			 "R2extent": 10036.3819, 
			 "electric_dipole_moment_norm": 2.15328962288, 
			 "electric_quadrupole_moment_norm": 21.1371460481, 
			 "total_energy": -916.231506492, 
			 "HOMO_LUMO_gap": 0.16513, 
			 "cosmo_polarized_energy": -16.12, 
			 "cosmo_cavitation_energy": 42.65, 
			 "cosmo_dispersion_energy": -30.42, 
			 "cosmo_repulsion_energy": 2.34, 
			 "cosmo_total_nonelectrostatic_energy": 14.56, 
			 "SMD_solvation_energy": 4.82 
		},
		"coords": [
			{
				"x": 3.7412579433,
				"y": -1.4464120081,
				"z": -2.7395888689,
				"element": "C" 
			},
			{
				"x": 2.6346136982,
				"y": -2.3019994924,
				"z": -2.1137138075,
				"element": "C" 
			},
			{
				"x": 3.2122338076,
				"y": -3.2501340147,
				"z": -1.0593499107,
				"element": "C" 
			},
			{
				"x": 1.8372985489,
				"y": -3.0809070714,
				"z": -3.1655459724,
				"element": "C" 
			},
			{
				"x": 1.7295809923,
				"y": -1.4562721188,
				"z": -1.3200801688,
				"element": "O" 
			},
			{
				"x": 1.0188151919,
				"y": -0.4592657803,
				"z": -1.9035988215,
				"element": "C" 
			},
			{
				"x": 1.0282659286,
				"y": -0.1739976724,
				"z": -3.0939030086,
				"element": "O" 
			},
			{
				"x": 0.2736846811,
				"y": 0.2021821009,
				"z": -0.9637233905,
				"element": "N" 
			},
			{
				"x": 0.2395599976,
				"y": -0.191802271,
				"z": 0.4471526833,
				"element": "C" 
			},
			{
				"x": -0.4909491067,
				"y": 0.8655664893,
				"z": 1.2758311364,
				"element": "C" 
			},
			{
				"x": -1.8298826752,
				"y": 1.1010504008,
				"z": 0.7589489179,
				"element": "N" 
			},
			{
				"x": -1.9850376849,
				"y": 1.1348687873,
				"z": -0.6977661673,
				"element": "C" 
			},
			{
				"x": -0.630371259,
				"y": 1.2632430221,
				"z": -1.3950458342,
				"element": "C" 
			},
			{
				"x": -2.8068193101,
				"y": 1.6816686462,
				"z": 1.5726880984,
				"element": "C" 
			},
			{
				"x": -2.5290332982,
				"y": 2.1949426531,
				"z": 2.8524459059,
				"element": "C" 
			},
			{
				"x": -3.4464881404,
				"y": 2.7210231004,
				"z": 3.6725583234,
				"element": "N" 
			},
			{
				"x": -4.7140864017,
				"y": 2.802871589,
				"z": 3.2573453633,
				"element": "C" 
			},
			{
				"x": -5.6181278076,
				"y": 3.4281617474,
				"z": 4.1173725901,
				"element": "N" 
			},
			{
				"x": -5.1052581909,
				"y": 2.3350446817,
				"z": 1.9893555984,
				"element": "C" 
			},
			{
				"x": -4.1536369548,
				"y": 1.7669402317,
				"z": 1.158188154,
				"element": "C" 
			},
			{
				"x": 4.4725324441,
				"y": -2.095175579,
				"z": -3.2327304953,
				"element": "H" 
			},
			{
				"x": 4.2629795573,
				"y": -0.8748276428,
				"z": -1.9652414083,
				"element": "H" 
			},
			{
				"x": 3.330214302,
				"y": -0.7541568192,
				"z": -3.4744953101,
				"element": "H" 
			},
			{
				"x": 3.7459955781,
				"y": -2.6897666518,
				"z": -0.2860849561,
				"element": "H" 
			},
			{
				"x": 2.4154977128,
				"y": -3.8264502553,
				"z": -0.57999842,
				"element": "H" 
			},
			{
				"x": 3.9127606152,
				"y": -3.9490778758,
				"z": -1.5258874911,
				"element": "H" 
			},
			{
				"x": 1.0326742846,
				"y": -3.6489393564,
				"z": -2.6876039898,
				"element": "H" 
			},
			{
				"x": 1.4044878077,
				"y": -2.4062243606,
				"z": -3.9042555197,
				"element": "H" 
			},
			{
				"x": 2.4969304511,
				"y": -3.7906603587,
				"z": -3.6754601847,
				"element": "H" 
			},
			{
				"x": -0.2656610113,
				"y": -1.1595868739,
				"z": 0.5638042762,
				"element": "H" 
			},
			{
				"x": 1.2591670547,
				"y": -0.3077629566,
				"z": 0.825237726,
				"element": "H" 
			},
			{
				"x": -0.5691707094,
				"y": 0.4844046364,
				"z": 2.2988066296,
				"element": "H" 
			},
			{
				"x": 0.1157073546,
				"y": 1.7871103402,
				"z": 1.3249028975,
				"element": "H" 
			},
			{
				"x": -2.4976068543,
				"y": 0.2323709957,
				"z": -1.0654467147,
				"element": "H" 
			},
			{
				"x": -2.5998700977,
				"y": 1.997269128,
				"z": -0.9839664931,
				"element": "H" 
			},
			{
				"x": -0.1970860499,
				"y": 2.250750806,
				"z": -1.1831792335,
				"element": "H" 
			},
			{
				"x": -0.747868011,
				"y": 1.1813883885,
				"z": -2.4762547727,
				"element": "H" 
			},
			{
				"x": -1.5151597556,
				"y": 2.1852168745,
				"z": 3.2435285534,
				"element": "H" 
			},
			{
				"x": -6.5674550611,
				"y": 3.0835977573,
				"z": 4.0760147429,
				"element": "H" 
			},
			{
				"x": -5.2636776303,
				"y": 3.4905645166,
				"z": 5.0629942487,
				"element": "H" 
			},
			{
				"x": -6.1394855052,
				"y": 2.4139735136,
				"z": 1.6665299828,
				"element": "H" 
			},
			{
				"x": -4.4564264363,
				"y": 1.3766087524,
				"z": 0.1922151112,
				"element": "H" 
			}
		],
		 "valence_orbital": [ 
			{
				"type": "occ",
				"energy": -0.26023,
				"method": "rhf"
			},
			{
				"type": "occ",
				"energy": -0.2504,
				"method": "rhf"
			},
			{
				"type": "occ",
				"energy": -0.24558,
				"method": "rhf"
			},
			{
				"type": "occ",
				"energy": -0.2359,
				"method": "rhf"
			},
			{
				"type": "occ",
				"energy": -0.17576,
				"method": "rhf"
			},
			{
				"type": "unocc",
				"energy": -0.01063,
				"method": "rhf"
			},
			{
				"type": "unocc",
				"energy": 0.02719,
				"method": "rhf"
			},
			{
				"type": "unocc",
				"energy": 0.05434,
				"method": "rhf"
			},
			{
				"type": "unocc",
				"energy": 0.07593,
				"method": "rhf"
			},
			{
				"type": "unocc",
				"energy": 0.08891,
				"method": "rhf"
			}
		],
		"cosmo_sigma_profile": { 
			"-0.025": 0.0,
			"-0.024": 0.0,
			"-0.023": 0.0,
			"-0.022": 0.0,
			"-0.021": 0.0,
			"-0.02": 0.0,
			"-0.019": 0.0,
			"-0.018": 0.0,
			"-0.017": 0.0,
			"-0.016": 0.0,
			"-0.015": 0.0,
			"-0.014": 0.0,
			"-0.013": 0.241957066853,
			"-0.012": 1.15841344083,
			"-0.011": 2.61975694969,
			"-0.01": 2.06079357108,
			"-0.009": 2.09793452878,
			"-0.008": 3.18940794803,
			"-0.007": 2.71972902538,
			"-0.006": 7.51663107575,
			"-0.005": 18.8958558563,
			"-0.004": 39.7687594361,
			"-0.003": 39.8527148496,
			"-0.002": 28.5296174082,
			"-0.001": 26.500007612,
			"0.0": 31.6234169534,
			"0.001": 29.0161651866,
			"0.002": 13.396784583,
			"0.003": 11.9672114772,
			"0.004": 15.8606031044,
			"0.005": 14.1148396886,
			"0.006": 8.29500832079,
			"0.007": 5.82503264073,
			"0.008": 4.90863885838,
			"0.009": 3.16919965158,
			"0.01": 3.11083142819,
			"0.011": 3.7634747299,
			"0.012": 3.47687960041,
			"0.013": 4.08580306197,
			"0.014": 3.17147275198,
			"0.015": 1.43303894003,
			"0.016": 0.685203276553,
			"0.017": 0.158944144629,
			"0.018": 0.0,
			"0.019": 0.0,
			"0.02": 0.0,
			"0.021": 0.0,
			"0.022": 0.0,
			"0.023": 0.0,
			"0.024": 0.0,
			"0.025": 0.0
		}
	}
}
