{
	 "smiles": "COCCNS(=O)(=O)C1=CC=C(C=C1)C(O)=O", 
	 "Tm": 528.15, 
	 "num_atms": 30, 
	 "gaussian": { 
		 "optdone": 1, 
		 "sigma_profile": "yes", 
		 "theory": "DFT", 
		 "functional": "B3LYP", 
		 "basiset": "6-31G**", 
		 "properties": { 
			 "R2extent": 6812.6334, 
			 "electric_dipole_moment_norm": 4.43989330165, 
			 "electric_quadrupole_moment_norm": 24.6939685298, 
			 "total_energy": -1217.87135506, 
			 "HOMO_LUMO_gap": 0.18981, 
			 "cosmo_polarized_energy": -25.72, 
			 "cosmo_cavitation_energy": 36.32, 
			 "cosmo_dispersion_energy": -25.83, 
			 "cosmo_repulsion_energy": 2.0, 
			 "cosmo_total_nonelectrostatic_energy": 12.49, 
			 "SMD_solvation_energy": 6.59 
		},
		"coords": [
			{
				"x": 0.9474345437,
				"y": 2.4730193042,
				"z": 3.134234855,
				"element": "C" 
			},
			{
				"x": 2.0435568792,
				"y": 2.560924515,
				"z": 2.2425461282,
				"element": "O" 
			},
			{
				"x": 2.0334352198,
				"y": 1.5987868096,
				"z": 1.2089427357,
				"element": "C" 
			},
			{
				"x": 1.0991512121,
				"y": 1.9937122229,
				"z": 0.0563218936,
				"element": "C" 
			},
			{
				"x": 1.2101311509,
				"y": 0.9888377043,
				"z": -1.0115436632,
				"element": "N" 
			},
			{
				"x": 0.1132915104,
				"y": 1.0648417298,
				"z": -2.2948109213,
				"element": "S" 
			},
			{
				"x": 0.7762022146,
				"y": 0.3591206165,
				"z": -3.3942052229,
				"element": "O" 
			},
			{
				"x": -0.411613427,
				"y": 2.4248057501,
				"z": -2.4596547737,
				"element": "O" 
			},
			{
				"x": -1.2415495246,
				"y": 0.050542975,
				"z": -1.6856669369,
				"element": "C" 
			},
			{
				"x": -1.0523862757,
				"y": -1.3264987242,
				"z": -1.5310158433,
				"element": "C" 
			},
			{
				"x": -2.1125411632,
				"y": -2.107734269,
				"z": -1.0881950247,
				"element": "C" 
			},
			{
				"x": -3.3516281299,
				"y": -1.5199650717,
				"z": -0.7894687885,
				"element": "C" 
			},
			{
				"x": -3.5281572559,
				"y": -0.142815105,
				"z": -0.9738532664,
				"element": "C" 
			},
			{
				"x": -2.4721484248,
				"y": 0.6500978538,
				"z": -1.4255286651,
				"element": "C" 
			},
			{
				"x": -4.4513186843,
				"y": -2.4312792851,
				"z": -0.3194587071,
				"element": "C" 
			},
			{
				"x": -5.4875214842,
				"y": -1.8542251611,
				"z": 0.3417384025,
				"element": "O" 
			},
			{
				"x": -4.4386220122,
				"y": -3.6241803602,
				"z": -0.5061684398,
				"element": "O" 
			},
			{
				"x": 0.8745560546,
				"y": 1.4722072963,
				"z": 3.5868011509,
				"element": "H" 
			},
			{
				"x": -0.0134459684,
				"y": 2.7069480807,
				"z": 2.6527781525,
				"element": "H" 
			},
			{
				"x": 1.1231614212,
				"y": 3.2059034595,
				"z": 3.9248887501,
				"element": "H" 
			},
			{
				"x": 1.7563090742,
				"y": 0.602194144,
				"z": 1.5858976397,
				"element": "H" 
			},
			{
				"x": 3.064372439,
				"y": 1.5393849367,
				"z": 0.8390497209,
				"element": "H" 
			},
			{
				"x": 0.0604388898,
				"y": 2.0007868766,
				"z": 0.3999251003,
				"element": "H" 
			},
			{
				"x": 1.340226564,
				"y": 3.0063940526,
				"z": -0.287547149,
				"element": "H" 
			},
			{
				"x": 2.1386219666,
				"y": 0.919990984,
				"z": -1.4249406431,
				"element": "H" 
			},
			{
				"x": -0.0919276571,
				"y": -1.7729645699,
				"z": -1.7639243684,
				"element": "H" 
			},
			{
				"x": -2.0074872007,
				"y": -3.1803601781,
				"z": -0.9685391986,
				"element": "H" 
			},
			{
				"x": -4.4963017304,
				"y": 0.3240368011,
				"z": -0.8109582034,
				"element": "H" 
			},
			{
				"x": -2.5953773784,
				"y": 1.7141699827,
				"z": -1.5927198,
				"element": "H" 
			},
			{
				"x": -5.2858628233,
				"y": -0.9322833713,
				"z": 0.5526750861,
				"element": "H" 
			}
		],
		 "valence_orbital": [ 
			{
				"type": "occ",
				"energy": -0.30358,
				"method": "rhf"
			},
			{
				"type": "occ",
				"energy": -0.29305,
				"method": "rhf"
			},
			{
				"type": "occ",
				"energy": -0.28643,
				"method": "rhf"
			},
			{
				"type": "occ",
				"energy": -0.27775,
				"method": "rhf"
			},
			{
				"type": "occ",
				"energy": -0.26981,
				"method": "rhf"
			},
			{
				"type": "unocc",
				"energy": -0.08,
				"method": "rhf"
			},
			{
				"type": "unocc",
				"energy": -0.04237,
				"method": "rhf"
			},
			{
				"type": "unocc",
				"energy": 0.01644,
				"method": "rhf"
			},
			{
				"type": "unocc",
				"energy": 0.03857,
				"method": "rhf"
			},
			{
				"type": "unocc",
				"energy": 0.05417,
				"method": "rhf"
			}
		],
		"cosmo_sigma_profile": { 
			"-0.025": 0.0,
			"-0.024": 0.0,
			"-0.023": 0.0,
			"-0.022": 0.0,
			"-0.021": 0.0,
			"-0.02": 0.0193039262291,
			"-0.019": 0.765927555613,
			"-0.018": 1.0153210844,
			"-0.017": 0.952274790783,
			"-0.016": 1.18774813681,
			"-0.015": 1.27124558123,
			"-0.014": 2.26831370969,
			"-0.013": 2.19299606841,
			"-0.012": 2.91478569161,
			"-0.011": 2.58638620961,
			"-0.01": 2.48921450651,
			"-0.009": 2.96179225032,
			"-0.008": 5.91820389884,
			"-0.007": 9.38720924744,
			"-0.006": 11.1076276934,
			"-0.005": 17.6723473632,
			"-0.004": 25.0967468788,
			"-0.003": 21.8420639692,
			"-0.002": 23.4720703402,
			"-0.001": 16.6481187623,
			"0.0": 18.7224754406,
			"0.001": 19.9459439572,
			"0.002": 8.95279826283,
			"0.003": 6.65188594243,
			"0.004": 7.31883553376,
			"0.005": 6.68494754833,
			"0.006": 7.94838687221,
			"0.007": 6.59649311197,
			"0.008": 6.85300453277,
			"0.009": 9.69808334911,
			"0.01": 13.9120835442,
			"0.011": 14.9240349884,
			"0.012": 5.88953879844,
			"0.013": 1.98686036531,
			"0.014": 0.0904915429624,
			"0.015": 0.0,
			"0.016": 0.0,
			"0.017": 0.0,
			"0.018": 0.0,
			"0.019": 0.0,
			"0.02": 0.0,
			"0.021": 0.0,
			"0.022": 0.0,
			"0.023": 0.0,
			"0.024": 0.0,
			"0.025": 0.0
		}
	}
}
