{
	 "smiles": "OCC1=NC=CN1", 
	 "Tm": 373.15, 
	 "num_atms": 13, 
	 "gaussian": { 
		 "optdone": 1, 
		 "sigma_profile": "yes", 
		 "theory": "DFT", 
		 "functional": "B3LYP", 
		 "basiset": "6-31G**", 
		 "properties": { 
			 "R2extent": 1515.9643, 
			 "electric_dipole_moment_norm": 2.55026517249, 
			 "electric_quadrupole_moment_norm": 11.6607035508, 
			 "total_energy": -340.75015625, 
			 "HOMO_LUMO_gap": 0.24408, 
			 "cosmo_polarized_energy": -13.16, 
			 "cosmo_cavitation_energy": 16.93, 
			 "cosmo_dispersion_energy": -12.87, 
			 "cosmo_repulsion_energy": 1.11, 
			 "cosmo_total_nonelectrostatic_energy": 5.17, 
			 "SMD_solvation_energy": 1.71 
		},
		"coords": [
			{
				"x": 0.5053751002,
				"y": -1.9994947256,
				"z": -1.4300156327,
				"element": "O" 
			},
			{
				"x": 0.8901582458,
				"y": -0.8092715132,
				"z": -0.7429089324,
				"element": "C" 
			},
			{
				"x": 0.6913862891,
				"y": 0.4123603891,
				"z": -1.5898096245,
				"element": "C" 
			},
			{
				"x": 0.3669886997,
				"y": 1.6223453078,
				"z": -1.1789905015,
				"element": "N" 
			},
			{
				"x": 0.3487785955,
				"y": 2.4003742417,
				"z": -2.3169025077,
				"element": "C" 
			},
			{
				"x": 0.657375286,
				"y": 1.6503635966,
				"z": -3.4251987617,
				"element": "C" 
			},
			{
				"x": 0.8797796329,
				"y": 0.3767627903,
				"z": -2.9440660941,
				"element": "N" 
			},
			{
				"x": -0.453607434,
				"y": -1.9675917267,
				"z": -1.5477811976,
				"element": "H" 
			},
			{
				"x": 1.9507264324,
				"y": -0.9486178986,
				"z": -0.5024701125,
				"element": "H" 
			},
			{
				"x": 0.356066007,
				"y": -0.667645326,
				"z": 0.2050701411,
				"element": "H" 
			},
			{
				"x": 0.1073455278,
				"y": 3.4535060035,
				"z": -2.275175414,
				"element": "H" 
			},
			{
				"x": 0.7258027326,
				"y": 1.8910482205,
				"z": -4.4748034038,
				"element": "H" 
			},
			{
				"x": 1.098224885,
				"y": -0.4565393594,
				"z": -3.4694479587,
				"element": "H" 
			}
		],
		 "valence_orbital": [ 
			{
				"type": "occ",
				"energy": -0.34593,
				"method": "rhf"
			},
			{
				"type": "occ",
				"energy": -0.29107,
				"method": "rhf"
			},
			{
				"type": "occ",
				"energy": -0.27678,
				"method": "rhf"
			},
			{
				"type": "occ",
				"energy": -0.26322,
				"method": "rhf"
			},
			{
				"type": "occ",
				"energy": -0.2208,
				"method": "rhf"
			},
			{
				"type": "unocc",
				"energy": 0.02328,
				"method": "rhf"
			},
			{
				"type": "unocc",
				"energy": 0.06428,
				"method": "rhf"
			},
			{
				"type": "unocc",
				"energy": 0.0763,
				"method": "rhf"
			},
			{
				"type": "unocc",
				"energy": 0.09967,
				"method": "rhf"
			},
			{
				"type": "unocc",
				"energy": 0.13614,
				"method": "rhf"
			}
		],
		"cosmo_sigma_profile": { 
			"-0.025": 0.0,
			"-0.024": 0.0,
			"-0.023": 0.0,
			"-0.022": 0.0,
			"-0.021": 0.0,
			"-0.02": 0.0,
			"-0.019": 0.0,
			"-0.018": 0.0,
			"-0.017": 0.0855820045579,
			"-0.016": 1.17934087991,
			"-0.015": 2.28590782147,
			"-0.014": 0.897577364448,
			"-0.013": 2.1355557038,
			"-0.012": 2.11781464621,
			"-0.011": 1.64955396325,
			"-0.01": 2.19818122977,
			"-0.009": 1.44099712619,
			"-0.008": 4.21683520127,
			"-0.007": 4.02535979234,
			"-0.006": 6.90630154243,
			"-0.005": 9.56337577899,
			"-0.004": 8.69152803812,
			"-0.003": 9.00582913848,
			"-0.002": 8.02287299284,
			"-0.001": 4.83650811739,
			"0.0": 7.20114160799,
			"0.001": 3.63844922646,
			"0.002": 4.95621999541,
			"0.003": 5.74068454347,
			"0.004": 6.26768981758,
			"0.005": 5.62944959171,
			"0.006": 5.81974597369,
			"0.007": 4.02727717411,
			"0.008": 2.90784428306,
			"0.009": 2.5620566083,
			"0.01": 2.33741173694,
			"0.011": 1.77445589967,
			"0.012": 2.95718055091,
			"0.013": 3.08913973404,
			"0.014": 1.76158509662,
			"0.015": 1.31671453764,
			"0.016": 0.664485184369,
			"0.017": 1.13324699037,
			"0.018": 0.923877241727,
			"0.019": 0.141422835476,
			"0.02": 0.0,
			"0.021": 0.0,
			"0.022": 0.0,
			"0.023": 0.0,
			"0.024": 0.0,
			"0.025": 0.0
		}
	}
}
