{
	 "smiles": "NC(=S)NC1=CC=CN=C1", 
	 "Tm": 433.15, 
	 "num_atms": 17, 
	 "gaussian": { 
		 "optdone": 1, 
		 "sigma_profile": "yes", 
		 "theory": "DFT", 
		 "functional": "B3LYP", 
		 "basiset": "6-31G**", 
		 "properties": { 
			 "R2extent": 2402.9348, 
			 "electric_dipole_moment_norm": 4.46813067065, 
			 "electric_quadrupole_moment_norm": 18.5868847914, 
			 "total_energy": -795.30620753, 
			 "HOMO_LUMO_gap": 0.16455, 
			 "cosmo_polarized_energy": -18.87, 
			 "cosmo_cavitation_energy": 23.01, 
			 "cosmo_dispersion_energy": -17.67, 
			 "cosmo_repulsion_energy": 1.39, 
			 "cosmo_total_nonelectrostatic_energy": 6.74, 
			 "SMD_solvation_energy": 1.69 
		},
		"coords": [
			{
				"x": 0.2974551937,
				"y": 0.1909703316,
				"z": 2.5213342006,
				"element": "N" 
			},
			{
				"x": 1.4872033756,
				"y": 0.5285649975,
				"z": 1.9606326606,
				"element": "C" 
			},
			{
				"x": 2.6240046672,
				"y": 1.4738611339,
				"z": 2.7559867044,
				"element": "S" 
			},
			{
				"x": 1.7348107187,
				"y": 0.0664575351,
				"z": 0.690948822,
				"element": "N" 
			},
			{
				"x": 0.9202151939,
				"y": -0.684840633,
				"z": -0.1827335585,
				"element": "C" 
			},
			{
				"x": 1.5057637896,
				"y": -1.6745150076,
				"z": -0.9850134015,
				"element": "C" 
			},
			{
				"x": 0.7045003947,
				"y": -2.3810546211,
				"z": -1.8744258738,
				"element": "C" 
			},
			{
				"x": -0.6607599417,
				"y": -2.0896303249,
				"z": -1.9261470471,
				"element": "C" 
			},
			{
				"x": -1.2329661589,
				"y": -1.1420091435,
				"z": -1.1757610749,
				"element": "N" 
			},
			{
				"x": -0.4572893017,
				"y": -0.4480450535,
				"z": -0.3377171963,
				"element": "C" 
			},
			{
				"x": 0.1896322868,
				"y": 0.433605377,
				"z": 3.4936967305,
				"element": "H" 
			},
			{
				"x": -0.2507653613,
				"y": -0.5783641209,
				"z": 2.1626012926,
				"element": "H" 
			},
			{
				"x": 2.6793755565,
				"y": 0.2633921726,
				"z": 0.388854705,
				"element": "H" 
			},
			{
				"x": 2.5692702098,
				"y": -1.8815597523,
				"z": -0.9016741493,
				"element": "H" 
			},
			{
				"x": 1.1274994739,
				"y": -3.1521848096,
				"z": -2.510422643,
				"element": "H" 
			},
			{
				"x": -1.3174602713,
				"y": -2.630880105,
				"z": -2.6037610069,
				"element": "H" 
			},
			{
				"x": -0.9421898256,
				"y": 0.3444320236,
				"z": 0.2267008355,
				"element": "H" 
			}
		],
		 "valence_orbital": [ 
			{
				"type": "occ",
				"energy": -0.29934,
				"method": "rhf"
			},
			{
				"type": "occ",
				"energy": -0.27388,
				"method": "rhf"
			},
			{
				"type": "occ",
				"energy": -0.25787,
				"method": "rhf"
			},
			{
				"type": "occ",
				"energy": -0.21761,
				"method": "rhf"
			},
			{
				"type": "occ",
				"energy": -0.21182,
				"method": "rhf"
			},
			{
				"type": "unocc",
				"energy": -0.04727,
				"method": "rhf"
			},
			{
				"type": "unocc",
				"energy": -0.03869,
				"method": "rhf"
			},
			{
				"type": "unocc",
				"energy": 0.00694,
				"method": "rhf"
			},
			{
				"type": "unocc",
				"energy": 0.06211,
				"method": "rhf"
			},
			{
				"type": "unocc",
				"energy": 0.084,
				"method": "rhf"
			}
		],
		"cosmo_sigma_profile": { 
			"-0.025": 0.0,
			"-0.024": 0.0,
			"-0.023": 0.0,
			"-0.022": 0.0,
			"-0.021": 0.0,
			"-0.02": 0.0,
			"-0.019": 0.0,
			"-0.018": 0.0,
			"-0.017": 0.0,
			"-0.016": 0.0,
			"-0.015": 1.43423193308,
			"-0.014": 2.73547222979,
			"-0.013": 3.61234396947,
			"-0.012": 3.65616773907,
			"-0.011": 3.52591952928,
			"-0.01": 2.95499432644,
			"-0.009": 3.58555941414,
			"-0.008": 4.8137107822,
			"-0.007": 8.00038684503,
			"-0.006": 11.0127231277,
			"-0.005": 9.66730916798,
			"-0.004": 7.88518407979,
			"-0.003": 8.60988277303,
			"-0.002": 7.91877417048,
			"-0.001": 9.17152029126,
			"0.0": 11.7223760774,
			"0.001": 13.6793350502,
			"0.002": 11.7971109224,
			"0.003": 5.6654225077,
			"0.004": 5.71297628381,
			"0.005": 4.82020963479,
			"0.006": 4.73823087701,
			"0.007": 5.32078230657,
			"0.008": 4.87935097395,
			"0.009": 4.19948243195,
			"0.01": 7.56008733629,
			"0.011": 9.14432688267,
			"0.012": 5.65175060201,
			"0.013": 0.922186024299,
			"0.014": 1.02394609484,
			"0.015": 0.895268625164,
			"0.016": 0.63450024718,
			"0.017": 0.00793732497521,
			"0.018": 0.0,
			"0.019": 0.0,
			"0.02": 0.0,
			"0.021": 0.0,
			"0.022": 0.0,
			"0.023": 0.0,
			"0.024": 0.0,
			"0.025": 0.0
		}
	}
}
