{
	 "smiles": "OC1=CC=C(C=C1)C(=O)OCNC(=O)C1=CC=CC=C1", 
	 "Tm": 439.15, 
	 "num_atms": 33, 
	 "gaussian": { 
		 "optdone": 1, 
		 "sigma_profile": "yes", 
		 "theory": "DFT", 
		 "functional": "B3LYP", 
		 "basiset": "6-31G**", 
		 "properties": { 
			 "R2extent": 8163.588, 
			 "electric_dipole_moment_norm": 4.52584060479, 
			 "electric_quadrupole_moment_norm": 26.3764711923, 
			 "total_energy": -935.106132372, 
			 "HOMO_LUMO_gap": 0.19421, 
			 "cosmo_polarized_energy": -19.15, 
			 "cosmo_cavitation_energy": 38.52, 
			 "cosmo_dispersion_energy": -27.29, 
			 "cosmo_repulsion_energy": 2.08, 
			 "cosmo_total_nonelectrostatic_energy": 13.32, 
			 "SMD_solvation_energy": 8.02 
		},
		"coords": [
			{
				"x": 4.8576460189,
				"y": -3.6962707859,
				"z": 1.616629099,
				"element": "O" 
			},
			{
				"x": 3.6564344151,
				"y": -3.0601573972,
				"z": 1.5926485119,
				"element": "C" 
			},
			{
				"x": 2.791807857,
				"y": -3.0359096189,
				"z": 2.6963228946,
				"element": "C" 
			},
			{
				"x": 1.5777818882,
				"y": -2.3674377035,
				"z": 2.6059206215,
				"element": "C" 
			},
			{
				"x": 1.2085271769,
				"y": -1.7143601127,
				"z": 1.4213264158,
				"element": "C" 
			},
			{
				"x": 2.0818048122,
				"y": -1.7460811283,
				"z": 0.3210632629,
				"element": "C" 
			},
			{
				"x": 3.2963147375,
				"y": -2.412775263,
				"z": 0.4021144768,
				"element": "C" 
			},
			{
				"x": -0.0991848555,
				"y": -1.022039473,
				"z": 1.3890023641,
				"element": "C" 
			},
			{
				"x": -0.900379732,
				"y": -1.0094127076,
				"z": 2.3076687677,
				"element": "O" 
			},
			{
				"x": -0.3341765336,
				"y": -0.3852915045,
				"z": 0.2087209337,
				"element": "O" 
			},
			{
				"x": -1.6214045677,
				"y": 0.28373797,
				"z": 0.1294178982,
				"element": "C" 
			},
			{
				"x": -1.7084845299,
				"y": 1.4567379578,
				"z": 0.9343047688,
				"element": "N" 
			},
			{
				"x": -1.6271594372,
				"y": 2.788103368,
				"z": 0.567626361,
				"element": "C" 
			},
			{
				"x": -1.9877536708,
				"y": 3.6577623622,
				"z": 1.3510657369,
				"element": "O" 
			},
			{
				"x": -1.1000922421,
				"y": 3.1444331194,
				"z": -0.7937798146,
				"element": "C" 
			},
			{
				"x": -1.6632512139,
				"y": 4.2671438474,
				"z": -1.4185468234,
				"element": "C" 
			},
			{
				"x": -1.1904845545,
				"y": 4.6965024483,
				"z": -2.6556697493,
				"element": "C" 
			},
			{
				"x": -0.1289471154,
				"y": 4.0259259697,
				"z": -3.270128793,
				"element": "C" 
			},
			{
				"x": 0.4567891347,
				"y": 2.9270812721,
				"z": -2.6403944846,
				"element": "C" 
			},
			{
				"x": -0.0267969001,
				"y": 2.4825400471,
				"z": -1.4082488474,
				"element": "C" 
			},
			{
				"x": 4.9919301988,
				"y": -4.0990836707,
				"z": 2.4848278975,
				"element": "H" 
			},
			{
				"x": 3.0731673709,
				"y": -3.5389985914,
				"z": 3.6188792079,
				"element": "H" 
			},
			{
				"x": 0.8959657148,
				"y": -2.3384830185,
				"z": 3.4490145091,
				"element": "H" 
			},
			{
				"x": 1.7997943436,
				"y": -1.2478357952,
				"z": -0.5992729568,
				"element": "H" 
			},
			{
				"x": 3.9805201623,
				"y": -2.446824926,
				"z": -0.4388430746,
				"element": "H" 
			},
			{
				"x": -1.7347733641,
				"y": 0.5288547111,
				"z": -0.9241542214,
				"element": "H" 
			},
			{
				"x": -2.3841069615,
				"y": -0.430081628,
				"z": 0.4444985398,
				"element": "H" 
			},
			{
				"x": -1.9812877513,
				"y": 1.3208732887,
				"z": 1.8996061879,
				"element": "H" 
			},
			{
				"x": -2.4659075758,
				"y": 4.7932908233,
				"z": -0.9127262659,
				"element": "H" 
			},
			{
				"x": -1.6417980874,
				"y": 5.5589202209,
				"z": -3.1375843968,
				"element": "H" 
			},
			{
				"x": 0.2458620748,
				"y": 4.3654728274,
				"z": -4.2315516178,
				"element": "H" 
			},
			{
				"x": 1.2959851812,
				"y": 2.4168781098,
				"z": -3.1044258081,
				"element": "H" 
			},
			{
				"x": 0.4471580057,
				"y": 1.6396849813,
				"z": -0.9162316014,
				"element": "H" 
			}
		],
		 "valence_orbital": [ 
			{
				"type": "occ",
				"energy": -0.26409,
				"method": "rhf"
			},
			{
				"type": "occ",
				"energy": -0.26209,
				"method": "rhf"
			},
			{
				"type": "occ",
				"energy": -0.25746,
				"method": "rhf"
			},
			{
				"type": "occ",
				"energy": -0.24388,
				"method": "rhf"
			},
			{
				"type": "occ",
				"energy": -0.23945,
				"method": "rhf"
			},
			{
				"type": "unocc",
				"energy": -0.04524,
				"method": "rhf"
			},
			{
				"type": "unocc",
				"energy": -0.03271,
				"method": "rhf"
			},
			{
				"type": "unocc",
				"energy": -0.01648,
				"method": "rhf"
			},
			{
				"type": "unocc",
				"energy": -0.00774,
				"method": "rhf"
			},
			{
				"type": "unocc",
				"energy": 0.04961,
				"method": "rhf"
			}
		],
		"cosmo_sigma_profile": { 
			"-0.025": 0.0,
			"-0.024": 0.0,
			"-0.023": 0.0,
			"-0.022": 0.0,
			"-0.021": 0.0,
			"-0.02": 0.0,
			"-0.019": 0.162757045773,
			"-0.018": 1.13691272737,
			"-0.017": 1.2984761622,
			"-0.016": 0.628454145461,
			"-0.015": 1.50023993248,
			"-0.014": 0.751014390404,
			"-0.013": 0.89121814938,
			"-0.012": 1.43878143378,
			"-0.011": 1.84811413759,
			"-0.01": 1.67979825417,
			"-0.009": 2.00686945787,
			"-0.008": 3.6606216964,
			"-0.007": 8.81068289947,
			"-0.006": 18.2088540062,
			"-0.005": 20.9274191675,
			"-0.004": 20.8174463158,
			"-0.003": 17.8569995229,
			"-0.002": 19.755069366,
			"-0.001": 18.2699954615,
			"0.0": 22.7201215428,
			"0.001": 24.3046133479,
			"0.002": 22.927448297,
			"0.003": 26.2049362542,
			"0.004": 22.4434306455,
			"0.005": 8.75142243515,
			"0.006": 4.21031550826,
			"0.007": 4.25225820833,
			"0.008": 4.67293956176,
			"0.009": 3.9045891763,
			"0.01": 4.78835387968,
			"0.011": 5.44990966342,
			"0.012": 4.56914871421,
			"0.013": 5.51618086959,
			"0.014": 1.95288646579,
			"0.015": 0.0,
			"0.016": 0.0,
			"0.017": 0.0,
			"0.018": 0.0,
			"0.019": 0.0,
			"0.02": 0.0,
			"0.021": 0.0,
			"0.022": 0.0,
			"0.023": 0.0,
			"0.024": 0.0,
			"0.025": 0.0
		}
	}
}
