{
	 "smiles": "FC1=CC=C(C=C1)C(=O)C1CC1", 
	 "Tm": 258.15, 
	 "num_atms": 21, 
	 "gaussian": { 
		 "optdone": 1, 
		 "sigma_profile": "yes", 
		 "theory": "DFT", 
		 "functional": "B3LYP", 
		 "basiset": "6-31G**", 
		 "properties": { 
			 "R2extent": 2710.4762, 
			 "electric_dipole_moment_norm": 2.35531676001, 
			 "electric_quadrupole_moment_norm": 8.40927818008, 
			 "total_energy": -561.520721167, 
			 "HOMO_LUMO_gap": 0.19612, 
			 "cosmo_polarized_energy": -7.79, 
			 "cosmo_cavitation_energy": 25.41, 
			 "cosmo_dispersion_energy": -18.54, 
			 "cosmo_repulsion_energy": 1.44, 
			 "cosmo_total_nonelectrostatic_energy": 8.3, 
			 "SMD_solvation_energy": 4.99 
		},
		"coords": [
			{
				"x": 0.2848214238,
				"y": -0.8497337794,
				"z": -3.7180420733,
				"element": "F" 
			},
			{
				"x": 0.0282313763,
				"y": -0.5538020639,
				"z": -2.4302334832,
				"element": "C" 
			},
			{
				"x": -0.5140727679,
				"y": 0.6910429674,
				"z": -2.1191840848,
				"element": "C" 
			},
			{
				"x": -0.7747724123,
				"y": 0.9860810328,
				"z": -0.787112528,
				"element": "C" 
			},
			{
				"x": -0.5014343607,
				"y": 0.0554968544,
				"z": 0.2314499741,
				"element": "C" 
			},
			{
				"x": 0.0450815337,
				"y": -1.1887662776,
				"z": -0.1213919145,
				"element": "C" 
			},
			{
				"x": 0.3132573652,
				"y": -1.5008568576,
				"z": -1.4529980183,
				"element": "C" 
			},
			{
				"x": -0.8168269559,
				"y": 0.4660308055,
				"z": 1.6385228976,
				"element": "C" 
			},
			{
				"x": -1.2855128526,
				"y": 1.5790879461,
				"z": 1.8610552535,
				"element": "O" 
			},
			{
				"x": -0.5633499705,
				"y": -0.4741332204,
				"z": 2.7714664645,
				"element": "C" 
			},
			{
				"x": -0.1447807164,
				"y": 0.150858121,
				"z": 4.0980132732,
				"element": "C" 
			},
			{
				"x": -1.5228221894,
				"y": -0.394111605,
				"z": 3.9538219755,
				"element": "C" 
			},
			{
				"x": -0.7203510689,
				"y": 1.399183341,
				"z": -2.9144483097,
				"element": "H" 
			},
			{
				"x": -1.1962078696,
				"y": 1.9431107662,
				"z": -0.499905289,
				"element": "H" 
			},
			{
				"x": 0.2700876642,
				"y": -1.9310324415,
				"z": 0.6358075811,
				"element": "H" 
			},
			{
				"x": 0.7355095852,
				"y": -2.4572755244,
				"z": -1.7410429381,
				"element": "H" 
			},
			{
				"x": -0.1539791453,
				"y": -1.4513272984,
				"z": 2.5475914815,
				"element": "H" 
			},
			{
				"x": -0.0319242649,
				"y": 1.2298620782,
				"z": 4.0889950453,
				"element": "H" 
			},
			{
				"x": 0.5805349815,
				"y": -0.3954353224,
				"z": 4.6926583115,
				"element": "H" 
			},
			{
				"x": -1.7764361513,
				"y": -1.3276390615,
				"z": 4.4460785015,
				"element": "H" 
			},
			{
				"x": -2.3327532043,
				"y": 0.3199595395,
				"z": 3.8481978797,
				"element": "H" 
			}
		],
		 "valence_orbital": [ 
			{
				"type": "occ",
				"energy": -0.31113,
				"method": "rhf"
			},
			{
				"type": "occ",
				"energy": -0.29241,
				"method": "rhf"
			},
			{
				"type": "occ",
				"energy": -0.27017,
				"method": "rhf"
			},
			{
				"type": "occ",
				"energy": -0.25333,
				"method": "rhf"
			},
			{
				"type": "occ",
				"energy": -0.25092,
				"method": "rhf"
			},
			{
				"type": "unocc",
				"energy": -0.0548,
				"method": "rhf"
			},
			{
				"type": "unocc",
				"energy": -0.01909,
				"method": "rhf"
			},
			{
				"type": "unocc",
				"energy": 0.04011,
				"method": "rhf"
			},
			{
				"type": "unocc",
				"energy": 0.07593,
				"method": "rhf"
			},
			{
				"type": "unocc",
				"energy": 0.09771,
				"method": "rhf"
			}
		],
		"cosmo_sigma_profile": { 
			"-0.025": 0.0,
			"-0.024": 0.0,
			"-0.023": 0.0,
			"-0.022": 0.0,
			"-0.021": 0.0,
			"-0.02": 0.0,
			"-0.019": 0.0,
			"-0.018": 0.0,
			"-0.017": 0.0,
			"-0.016": 0.0,
			"-0.015": 0.0,
			"-0.014": 0.0,
			"-0.013": 0.0,
			"-0.012": 0.0,
			"-0.011": 0.0,
			"-0.01": 0.0810418714791,
			"-0.009": 1.3596396041,
			"-0.008": 3.55230774852,
			"-0.007": 6.08152115033,
			"-0.006": 8.06398664276,
			"-0.005": 14.2690805989,
			"-0.004": 13.2514235936,
			"-0.003": 12.245717741,
			"-0.002": 12.2012176907,
			"-0.001": 19.2143740533,
			"0.0": 21.1263679645,
			"0.001": 19.7742975249,
			"0.002": 22.1539157542,
			"0.003": 18.9380502199,
			"0.004": 13.5106134049,
			"0.005": 2.11396596076,
			"0.006": 2.02736413836,
			"0.007": 1.89500350323,
			"0.008": 1.14486291127,
			"0.009": 1.56725579662,
			"0.01": 1.6998687863,
			"0.011": 2.00239560162,
			"0.012": 3.35149052139,
			"0.013": 1.7890923694,
			"0.014": 0.0,
			"0.015": 0.0,
			"0.016": 0.0,
			"0.017": 0.0,
			"0.018": 0.0,
			"0.019": 0.0,
			"0.02": 0.0,
			"0.021": 0.0,
			"0.022": 0.0,
			"0.023": 0.0,
			"0.024": 0.0,
			"0.025": 0.0
		}
	}
}
