{
	 "smiles": "OC(=O)C1=CC=CC(=O)N1CCOC1=C(Cl)C=CC=C1", 
	 "Tm": 392.15, 
	 "num_atms": 32, 
	 "gaussian": { 
		 "optdone": 1, 
		 "sigma_profile": "yes", 
		 "theory": "DFT", 
		 "functional": "B3LYP", 
		 "basiset": "6-31G**", 
		 "properties": { 
			 "R2extent": 6628.3321, 
			 "electric_dipole_moment_norm": 4.1094750492, 
			 "electric_quadrupole_moment_norm": 17.3945454269, 
			 "total_energy": -1356.55909073, 
			 "HOMO_LUMO_gap": 0.15045, 
			 "cosmo_polarized_energy": -16.36, 
			 "cosmo_cavitation_energy": 38.01, 
			 "cosmo_dispersion_energy": -26.47, 
			 "cosmo_repulsion_energy": 2.02, 
			 "cosmo_total_nonelectrostatic_energy": 13.56, 
			 "SMD_solvation_energy": 7.62 
		},
		"coords": [
			{
				"x": 1.5507514804,
				"y": 0.5129214986,
				"z": 2.6903241395,
				"element": "O" 
			},
			{
				"x": 2.0469428611,
				"y": 0.5266785658,
				"z": 1.4342719639,
				"element": "C" 
			},
			{
				"x": 2.6076243893,
				"y": 1.5041549708,
				"z": 0.9772363834,
				"element": "O" 
			},
			{
				"x": 1.8680904659,
				"y": -0.8016136919,
				"z": 0.764105629,
				"element": "C" 
			},
			{
				"x": 1.8463360295,
				"y": -1.9279254378,
				"z": 1.5494815241,
				"element": "C" 
			},
			{
				"x": 1.7897409815,
				"y": -3.2086654947,
				"z": 0.9399748818,
				"element": "C" 
			},
			{
				"x": 1.7363369881,
				"y": -3.3195792307,
				"z": -0.4159201723,
				"element": "C" 
			},
			{
				"x": 1.707533754,
				"y": -2.1546144189,
				"z": -1.2780530237,
				"element": "C" 
			},
			{
				"x": 1.5904816681,
				"y": -2.1969400209,
				"z": -2.5015875036,
				"element": "O" 
			},
			{
				"x": 1.8213883147,
				"y": -0.8970248517,
				"z": -0.6118825031,
				"element": "N" 
			},
			{
				"x": 1.740643774,
				"y": 0.2731849034,
				"z": -1.5076796856,
				"element": "C" 
			},
			{
				"x": 0.2994733563,
				"y": 0.7180638601,
				"z": -1.7309864361,
				"element": "C" 
			},
			{
				"x": -0.2708393623,
				"y": 1.1289939515,
				"z": -0.4710972148,
				"element": "O" 
			},
			{
				"x": -0.9159251845,
				"y": 2.3379863719,
				"z": -0.4381114461,
				"element": "C" 
			},
			{
				"x": -2.2412316723,
				"y": 2.4800864752,
				"z": -0.8794011471,
				"element": "C" 
			},
			{
				"x": -3.0921792704,
				"y": 1.0951376982,
				"z": -1.537560877,
				"element": "Cl" 
			},
			{
				"x": -2.8955180489,
				"y": 3.7085167004,
				"z": -0.786574438,
				"element": "C" 
			},
			{
				"x": -2.2282910592,
				"y": 4.8093433555,
				"z": -0.2488949456,
				"element": "C" 
			},
			{
				"x": -0.9115837542,
				"y": 4.6792850108,
				"z": 0.196145694,
				"element": "C" 
			},
			{
				"x": -0.2593168759,
				"y": 3.4507711397,
				"z": 0.0987142438,
				"element": "C" 
			},
			{
				"x": 1.7670439235,
				"y": 1.3808844296,
				"z": 3.0699213087,
				"element": "H" 
			},
			{
				"x": 1.8858141608,
				"y": -1.8204622701,
				"z": 2.6238863423,
				"element": "H" 
			},
			{
				"x": 1.788688873,
				"y": -4.0969283414,
				"z": 1.5653965934,
				"element": "H" 
			},
			{
				"x": 1.686011874,
				"y": -4.2764184924,
				"z": -0.9223764971,
				"element": "H" 
			},
			{
				"x": 2.153482159,
				"y": -0.0508844944,
				"z": -2.4637757518,
				"element": "H" 
			},
			{
				"x": 2.3374942624,
				"y": 1.0780302778,
				"z": -1.0895923494,
				"element": "H" 
			},
			{
				"x": 0.2893178204,
				"y": 1.5519376798,
				"z": -2.4416921629,
				"element": "H" 
			},
			{
				"x": -0.2976253478,
				"y": -0.1010369887,
				"z": -2.1412873934,
				"element": "H" 
			},
			{
				"x": -3.9202658093,
				"y": 3.7914623489,
				"z": -1.1321135825,
				"element": "H" 
			},
			{
				"x": -2.7415686442,
				"y": 5.7632373994,
				"z": -0.1770190289,
				"element": "H" 
			},
			{
				"x": -0.3896086121,
				"y": 5.5341306732,
				"z": 0.6154597528,
				"element": "H" 
			},
			{
				"x": 0.7636565051,
				"y": 3.3212864231,
				"z": 0.4379877022,
				"element": "H" 
			}
		],
		 "valence_orbital": [ 
			{
				"type": "occ",
				"energy": -0.28116,
				"method": "rhf"
			},
			{
				"type": "occ",
				"energy": -0.25613,
				"method": "rhf"
			},
			{
				"type": "occ",
				"energy": -0.25344,
				"method": "rhf"
			},
			{
				"type": "occ",
				"energy": -0.24235,
				"method": "rhf"
			},
			{
				"type": "occ",
				"energy": -0.22335,
				"method": "rhf"
			},
			{
				"type": "unocc",
				"energy": -0.0729,
				"method": "rhf"
			},
			{
				"type": "unocc",
				"energy": -0.01519,
				"method": "rhf"
			},
			{
				"type": "unocc",
				"energy": -0.01112,
				"method": "rhf"
			},
			{
				"type": "unocc",
				"energy": -0.00697,
				"method": "rhf"
			},
			{
				"type": "unocc",
				"energy": 0.0292,
				"method": "rhf"
			}
		],
		"cosmo_sigma_profile": { 
			"-0.025": 0.0,
			"-0.024": 0.0,
			"-0.023": 0.0,
			"-0.022": 0.0,
			"-0.021": 0.0,
			"-0.02": 0.0,
			"-0.019": 0.489753161891,
			"-0.018": 0.932488935209,
			"-0.017": 0.85086884742,
			"-0.016": 0.734655423679,
			"-0.015": 1.21281796137,
			"-0.014": 0.483061084542,
			"-0.013": 0.327650648261,
			"-0.012": 0.698094132699,
			"-0.011": 1.08727902443,
			"-0.01": 0.265579814946,
			"-0.009": 0.378129308847,
			"-0.008": 3.21180532821,
			"-0.007": 10.9521342322,
			"-0.006": 18.1426585216,
			"-0.005": 17.5605188071,
			"-0.004": 18.9402317789,
			"-0.003": 21.1179687786,
			"-0.002": 23.3130925794,
			"-0.001": 23.4430401906,
			"0.0": 20.325258113,
			"0.001": 25.9068844748,
			"0.002": 27.2737500979,
			"0.003": 23.1980407543,
			"0.004": 20.986163271,
			"0.005": 10.9833839565,
			"0.006": 4.43506086461,
			"0.007": 5.47199054174,
			"0.008": 4.48099125349,
			"0.009": 3.6838703871,
			"0.01": 3.51315590902,
			"0.011": 2.12823633385,
			"0.012": 1.94515379644,
			"0.013": 3.42505907557,
			"0.014": 3.53404336019,
			"0.015": 1.01211559266,
			"0.016": 0.0,
			"0.017": 0.0,
			"0.018": 0.0,
			"0.019": 0.0,
			"0.02": 0.0,
			"0.021": 0.0,
			"0.022": 0.0,
			"0.023": 0.0,
			"0.024": 0.0,
			"0.025": 0.0
		}
	}
}
