{
	 "smiles": "NC1=C(CCCO)C=NN1", 
	 "Tm": 362.15, 
	 "num_atms": 21, 
	 "gaussian": { 
		 "optdone": 1, 
		 "sigma_profile": "yes", 
		 "theory": "DFT", 
		 "functional": "B3LYP", 
		 "basiset": "6-31G**", 
		 "properties": { 
			 "R2extent": 2039.4452, 
			 "electric_dipole_moment_norm": 3.74349197542, 
			 "electric_quadrupole_moment_norm": 9.1720419673, 
			 "total_energy": -474.712668253, 
			 "HOMO_LUMO_gap": 0.24834, 
			 "cosmo_polarized_energy": -17.38, 
			 "cosmo_cavitation_energy": 24.52, 
			 "cosmo_dispersion_energy": -17.79, 
			 "cosmo_repulsion_energy": 1.5, 
			 "cosmo_total_nonelectrostatic_energy": 8.23, 
			 "SMD_solvation_energy": 3.08 
		},
		"coords": [
			{
				"x": 0.8484557836,
				"y": 1.5198613642,
				"z": 2.2527898538,
				"element": "N" 
			},
			{
				"x": 0.4438996007,
				"y": 0.2368923068,
				"z": 1.8265247379,
				"element": "C" 
			},
			{
				"x": -0.3763811431,
				"y": -0.2263415062,
				"z": 0.8037469079,
				"element": "C" 
			},
			{
				"x": -1.0598949513,
				"y": 0.5812419596,
				"z": -0.2619570306,
				"element": "C" 
			},
			{
				"x": -0.4108498752,
				"y": 0.452357601,
				"z": -1.6543853534,
				"element": "C" 
			},
			{
				"x": -1.1076958322,
				"y": 1.2849413961,
				"z": -2.7336929511,
				"element": "C" 
			},
			{
				"x": -2.4452326673,
				"y": 0.8726345284,
				"z": -2.990926093,
				"element": "O" 
			},
			{
				"x": -0.3763334637,
				"y": -1.6334504593,
				"z": 0.9826815153,
				"element": "C" 
			},
			{
				"x": 0.3749824168,
				"y": -2.021964644,
				"z": 2.0114558507,
				"element": "N" 
			},
			{
				"x": 0.8570465,
				"y": -0.8647789169,
				"z": 2.5130324937,
				"element": "N" 
			},
			{
				"x": 0.1446500529,
				"y": 2.2174868171,
				"z": 2.0364590608,
				"element": "H" 
			},
			{
				"x": 1.7235177643,
				"y": 1.8124986329,
				"z": 1.8253737602,
				"element": "H" 
			},
			{
				"x": -1.0672986956,
				"y": 1.6416421253,
				"z": 0.0299521015,
				"element": "H" 
			},
			{
				"x": -2.1125764755,
				"y": 0.2757090616,
				"z": -0.3312532383,
				"element": "H" 
			},
			{
				"x": 0.64118098,
				"y": 0.7606835635,
				"z": -1.5936670291,
				"element": "H" 
			},
			{
				"x": -0.4148417976,
				"y": -0.6001778225,
				"z": -1.9606786733,
				"element": "H" 
			},
			{
				"x": -0.5770708702,
				"y": 1.1720958265,
				"z": -3.6847996554,
				"element": "H" 
			},
			{
				"x": -1.067076965,
				"y": 2.3548537682,
				"z": -2.4669045251,
				"element": "H" 
			},
			{
				"x": -2.985913406,
				"y": 1.1191698406,
				"z": -2.2307661712,
				"element": "H" 
			},
			{
				"x": -0.8958865107,
				"y": -2.3780412719,
				"z": 0.392138624,
				"element": "H" 
			},
			{
				"x": 1.4205195553,
				"y": -0.8675141711,
				"z": 3.3493758147,
				"element": "H" 
			}
		],
		 "valence_orbital": [ 
			{
				"type": "occ",
				"energy": -0.29844,
				"method": "rhf"
			},
			{
				"type": "occ",
				"energy": -0.27138,
				"method": "rhf"
			},
			{
				"type": "occ",
				"energy": -0.26824,
				"method": "rhf"
			},
			{
				"type": "occ",
				"energy": -0.24231,
				"method": "rhf"
			},
			{
				"type": "occ",
				"energy": -0.21881,
				"method": "rhf"
			},
			{
				"type": "unocc",
				"energy": 0.02953,
				"method": "rhf"
			},
			{
				"type": "unocc",
				"energy": 0.05506,
				"method": "rhf"
			},
			{
				"type": "unocc",
				"energy": 0.06608,
				"method": "rhf"
			},
			{
				"type": "unocc",
				"energy": 0.08138,
				"method": "rhf"
			},
			{
				"type": "unocc",
				"energy": 0.09985,
				"method": "rhf"
			}
		],
		"cosmo_sigma_profile": { 
			"-0.025": 0.0,
			"-0.024": 0.0,
			"-0.023": 0.0,
			"-0.022": 0.0,
			"-0.021": 0.0,
			"-0.02": 0.0,
			"-0.019": 0.0,
			"-0.018": 0.0,
			"-0.017": 0.0,
			"-0.016": 0.282528589965,
			"-0.015": 1.49553063454,
			"-0.014": 1.72826050025,
			"-0.013": 2.33637805675,
			"-0.012": 2.51999436923,
			"-0.011": 4.2225569985,
			"-0.01": 4.99915011571,
			"-0.009": 4.69720201809,
			"-0.008": 5.12896110749,
			"-0.007": 4.51431242344,
			"-0.006": 5.52391959423,
			"-0.005": 7.34724887437,
			"-0.004": 10.4343446028,
			"-0.003": 16.5184390345,
			"-0.002": 18.5443040191,
			"-0.001": 14.4644203374,
			"0.0": 10.1040181858,
			"0.001": 8.71993891934,
			"0.002": 6.30289370682,
			"0.003": 6.42855809478,
			"0.004": 6.14100143014,
			"0.005": 6.95542960491,
			"0.006": 6.82154669403,
			"0.007": 4.71833857801,
			"0.008": 3.66224824205,
			"0.009": 3.87664611827,
			"0.01": 3.33691664058,
			"0.011": 3.06973068078,
			"0.012": 3.8883917834,
			"0.013": 3.12455358511,
			"0.014": 4.37143326017,
			"0.015": 2.82365331215,
			"0.016": 1.58186054328,
			"0.017": 0.65797877382,
			"0.018": 0.0116304451827,
			"0.019": 0.0,
			"0.02": 0.0,
			"0.021": 0.0,
			"0.022": 0.0,
			"0.023": 0.0,
			"0.024": 0.0,
			"0.025": 0.0
		}
	}
}
