{
	 "smiles": "CCOC(=O)C1=C(C)NC(C)=C(C1C1=CC=CC(Cl)=C1Cl)C(=O)OC", 
	 "Tm": 418.15, 
	 "num_atms": 44, 
	 "gaussian": { 
		 "optdone": 1, 
		 "sigma_profile": "yes", 
		 "theory": "DFT", 
		 "functional": "B3LYP", 
		 "basiset": "6-31G**", 
		 "properties": { 
			 "R2extent": 10360.21, 
			 "electric_dipole_moment_norm": 3.80644749603, 
			 "electric_quadrupole_moment_norm": 16.6536821913, 
			 "total_energy": -1973.41397707, 
			 "HOMO_LUMO_gap": 0.15359, 
			 "cosmo_polarized_energy": -18.4, 
			 "cosmo_cavitation_energy": 49.15, 
			 "cosmo_dispersion_energy": -32.94, 
			 "cosmo_repulsion_energy": 2.54, 
			 "cosmo_total_nonelectrostatic_energy": 18.75, 
			 "SMD_solvation_energy": 10.37 
		},
		"coords": [
			{
				"x": -5.0264490051,
				"y": -0.8651032887,
				"z": -2.7582670799,
				"element": "C" 
			},
			{
				"x": -3.5735004603,
				"y": -1.207966468,
				"z": -3.0537173247,
				"element": "C" 
			},
			{
				"x": -2.7509188374,
				"y": -1.1132605278,
				"z": -1.8682251473,
				"element": "O" 
			},
			{
				"x": -2.2849347082,
				"y": 0.1279750811,
				"z": -1.5587462908,
				"element": "C" 
			},
			{
				"x": -2.54596519,
				"y": 1.1086371677,
				"z": -2.2398332811,
				"element": "O" 
			},
			{
				"x": -1.457165815,
				"y": 0.1933054433,
				"z": -0.3435045712,
				"element": "C" 
			},
			{
				"x": -1.2966725508,
				"y": -0.8285975326,
				"z": 0.5438303935,
				"element": "C" 
			},
			{
				"x": -1.7832689576,
				"y": -2.250777155,
				"z": 0.4072042271,
				"element": "C" 
			},
			{
				"x": -0.6451152611,
				"y": -0.5805570249,
				"z": 1.7386804855,
				"element": "N" 
			},
			{
				"x": -0.2806337609,
				"y": 0.6737673805,
				"z": 2.1907500866,
				"element": "C" 
			},
			{
				"x": 0.1986369665,
				"y": 0.7037775824,
				"z": 3.6185389239,
				"element": "C" 
			},
			{
				"x": -0.40037887,
				"y": 1.7414424132,
				"z": 1.3530855401,
				"element": "C" 
			},
			{
				"x": -0.8294048179,
				"y": 1.5657119262,
				"z": -0.1003817565,
				"element": "C" 
			},
			{
				"x": 0.2761118297,
				"y": 1.9083344504,
				"z": -1.1262726836,
				"element": "C" 
			},
			{
				"x": 0.0185332617,
				"y": 2.9594863249,
				"z": -2.0185993845,
				"element": "C" 
			},
			{
				"x": 0.9396128482,
				"y": 3.3556873671,
				"z": -2.9810863164,
				"element": "C" 
			},
			{
				"x": 2.1647585938,
				"y": 2.7023402112,
				"z": -3.0823955473,
				"element": "C" 
			},
			{
				"x": 2.4476930234,
				"y": 1.6500871462,
				"z": -2.2152762053,
				"element": "C" 
			},
			{
				"x": 3.9984613647,
				"y": 0.8476426751,
				"z": -2.3781309972,
				"element": "Cl" 
			},
			{
				"x": 1.5126928729,
				"y": 1.2489847972,
				"z": -1.2444091485,
				"element": "C" 
			},
			{
				"x": 1.9260127548,
				"y": -0.0957821851,
				"z": -0.197009509,
				"element": "Cl" 
			},
			{
				"x": -0.142067665,
				"y": 3.094214209,
				"z": 1.8688719041,
				"element": "C" 
			},
			{
				"x": 0.28555536,
				"y": 3.3846572078,
				"z": 2.9769113707,
				"element": "O" 
			},
			{
				"x": -0.4552680052,
				"y": 4.0491824741,
				"z": 0.9514811638,
				"element": "O" 
			},
			{
				"x": -0.2280297266,
				"y": 5.3986354409,
				"z": 1.3750176797,
				"element": "C" 
			},
			{
				"x": -5.6347311137,
				"y": -1.0171594561,
				"z": -3.6563685822,
				"element": "H" 
			},
			{
				"x": -5.4253087284,
				"y": -1.5027033038,
				"z": -1.9632074924,
				"element": "H" 
			},
			{
				"x": -5.1173687687,
				"y": 0.1802609172,
				"z": -2.4546914727,
				"element": "H" 
			},
			{
				"x": -3.4662640794,
				"y": -2.2473620814,
				"z": -3.3747559141,
				"element": "H" 
			},
			{
				"x": -3.1639783809,
				"y": -0.5471364119,
				"z": -3.8209858614,
				"element": "H" 
			},
			{
				"x": -1.4562988977,
				"y": -2.8533326514,
				"z": 1.2606083613,
				"element": "H" 
			},
			{
				"x": -1.4043694697,
				"y": -2.7072515949,
				"z": -0.5080370895,
				"element": "H" 
			},
			{
				"x": -2.8732842948,
				"y": -2.2915128782,
				"z": 0.3533091869,
				"element": "H" 
			},
			{
				"x": -0.519037264,
				"y": -1.3554372891,
				"z": 2.3705668359,
				"element": "H" 
			},
			{
				"x": 1.206237226,
				"y": 1.1184576631,
				"z": 3.6820338279,
				"element": "H" 
			},
			{
				"x": 0.1976090743,
				"y": -0.3034329515,
				"z": 4.0488329272,
				"element": "H" 
			},
			{
				"x": -0.4328911612,
				"y": 1.3515074722,
				"z": 4.2301460225,
				"element": "H" 
			},
			{
				"x": -1.6073075744,
				"y": 2.3046378825,
				"z": -0.3077547321,
				"element": "H" 
			},
			{
				"x": -0.939687484,
				"y": 3.4611021326,
				"z": -1.9489546684,
				"element": "H" 
			},
			{
				"x": 0.705781147,
				"y": 4.1722413225,
				"z": -3.6572936225,
				"element": "H" 
			},
			{
				"x": 2.9009688932,
				"y": 2.9924952604,
				"z": -3.823423877,
				"element": "H" 
			},
			{
				"x": -0.504697209,
				"y": 6.0240634119,
				"z": 0.5258239374,
				"element": "H" 
			},
			{
				"x": -0.8428618317,
				"y": 5.6419163056,
				"z": 2.2458011316,
				"element": "H" 
			},
			{
				"x": 0.8221946721,
				"y": 5.5510211339,
				"z": 1.6367345499,
				"element": "H" 
			}
		],
		 "valence_orbital": [ 
			{
				"type": "occ",
				"energy": -0.26468,
				"method": "rhf"
			},
			{
				"type": "occ",
				"energy": -0.25631,
				"method": "rhf"
			},
			{
				"type": "occ",
				"energy": -0.24236,
				"method": "rhf"
			},
			{
				"type": "occ",
				"energy": -0.23516,
				"method": "rhf"
			},
			{
				"type": "occ",
				"energy": -0.20497,
				"method": "rhf"
			},
			{
				"type": "unocc",
				"energy": -0.05138,
				"method": "rhf"
			},
			{
				"type": "unocc",
				"energy": -0.00887,
				"method": "rhf"
			},
			{
				"type": "unocc",
				"energy": -0.00257,
				"method": "rhf"
			},
			{
				"type": "unocc",
				"energy": 0.00599,
				"method": "rhf"
			},
			{
				"type": "unocc",
				"energy": 0.01261,
				"method": "rhf"
			}
		],
		"cosmo_sigma_profile": { 
			"-0.025": 0.0,
			"-0.024": 0.0,
			"-0.023": 0.0,
			"-0.022": 0.0,
			"-0.021": 0.0,
			"-0.02": 0.0,
			"-0.019": 0.0,
			"-0.018": 0.0,
			"-0.017": 0.0,
			"-0.016": 0.307085009872,
			"-0.015": 1.36107047266,
			"-0.014": 1.52243190692,
			"-0.013": 1.47598480957,
			"-0.012": 1.37790200005,
			"-0.011": 1.4342324236,
			"-0.01": 1.42473845908,
			"-0.009": 1.18895069172,
			"-0.008": 2.03414869338,
			"-0.007": 5.37553418222,
			"-0.006": 9.73153714918,
			"-0.005": 20.2029404778,
			"-0.004": 27.8417701921,
			"-0.003": 36.7017695293,
			"-0.002": 36.1137111949,
			"-0.001": 36.5984740341,
			"0.0": 38.4850883563,
			"0.001": 36.1893368948,
			"0.002": 32.1104930743,
			"0.003": 27.0894925296,
			"0.004": 24.280484954,
			"0.005": 15.5630662717,
			"0.006": 8.67934599869,
			"0.007": 4.42140209036,
			"0.008": 2.50281679926,
			"0.009": 3.15893625718,
			"0.01": 3.24172291891,
			"0.011": 3.72122086386,
			"0.012": 4.02414756977,
			"0.013": 4.4559178605,
			"0.014": 0.32799783034,
			"0.015": 0.0,
			"0.016": 0.0,
			"0.017": 0.0,
			"0.018": 0.0,
			"0.019": 0.0,
			"0.02": 0.0,
			"0.021": 0.0,
			"0.022": 0.0,
			"0.023": 0.0,
			"0.024": 0.0,
			"0.025": 0.0
		}
	}
}
