{
	 "smiles": "COC1=CC(=CC=C1)C1=NOC(CCl)=N1", 
	 "Tm": 312.15, 
	 "num_atms": 24, 
	 "gaussian": { 
		 "optdone": 1, 
		 "sigma_profile": "yes", 
		 "theory": "DFT", 
		 "functional": "B3LYP", 
		 "basiset": "6-31G**", 
		 "properties": { 
			 "R2extent": 5562.6467, 
			 "electric_dipole_moment_norm": 1.67201595088, 
			 "electric_quadrupole_moment_norm": 12.3819310715, 
			 "total_energy": -1106.58323516, 
			 "HOMO_LUMO_gap": 0.16623, 
			 "cosmo_polarized_energy": -10.4, 
			 "cosmo_cavitation_energy": 31.09, 
			 "cosmo_dispersion_energy": -22.98, 
			 "cosmo_repulsion_energy": 1.81, 
			 "cosmo_total_nonelectrostatic_energy": 9.92, 
			 "SMD_solvation_energy": 4.21 
		},
		"coords": [
			{
				"x": 0.0359692372,
				"y": -2.8125561256,
				"z": 2.5977037656,
				"element": "C" 
			},
			{
				"x": -0.3300237892,
				"y": -3.3283260038,
				"z": 1.3259064082,
				"element": "O" 
			},
			{
				"x": -0.3217643998,
				"y": -2.4802659319,
				"z": 0.2590714304,
				"element": "C" 
			},
			{
				"x": 0.025685618,
				"y": -1.1305996606,
				"z": 0.325144907,
				"element": "C" 
			},
			{
				"x": -0.0026642613,
				"y": -0.350246244,
				"z": -0.8445223236,
				"element": "C" 
			},
			{
				"x": -0.3750781518,
				"y": -0.9136171121,
				"z": -2.0683316292,
				"element": "C" 
			},
			{
				"x": -0.7200566297,
				"y": -2.2669396878,
				"z": -2.1188037962,
				"element": "C" 
			},
			{
				"x": -0.6958901455,
				"y": -3.048846517,
				"z": -0.970980001,
				"element": "C" 
			},
			{
				"x": 0.3619825953,
				"y": 1.0708120833,
				"z": -0.7804181641,
				"element": "C" 
			},
			{
				"x": 0.722994736,
				"y": 1.6691350188,
				"z": 0.3364070794,
				"element": "N" 
			},
			{
				"x": 0.9786017925,
				"y": 2.9873328061,
				"z": -0.0619264451,
				"element": "O" 
			},
			{
				"x": 0.7380790026,
				"y": 3.0373558311,
				"z": -1.3818796458,
				"element": "C" 
			},
			{
				"x": 0.9292492343,
				"y": 4.3302334281,
				"z": -2.0898004054,
				"element": "C" 
			},
			{
				"x": -0.4710836384,
				"y": 5.4565408266,
				"z": -1.8239796074,
				"element": "Cl" 
			},
			{
				"x": 0.360449271,
				"y": 1.9027527815,
				"z": -1.8863840025,
				"element": "N" 
			},
			{
				"x": -0.6413070104,
				"y": -2.0112141163,
				"z": 2.9190339093,
				"element": "H" 
			},
			{
				"x": 1.0657124126,
				"y": -2.4333187317,
				"z": 2.59901494,
				"element": "H" 
			},
			{
				"x": -0.0402383373,
				"y": -3.6489211774,
				"z": 3.2939728146,
				"element": "H" 
			},
			{
				"x": 0.3174549464,
				"y": -0.6654666228,
				"z": 1.25793046,
				"element": "H" 
			},
			{
				"x": -0.3925187217,
				"y": -0.2959939232,
				"z": -2.9585247306,
				"element": "H" 
			},
			{
				"x": -1.0111325158,
				"y": -2.7140374266,
				"z": -3.0646215155,
				"element": "H" 
			},
			{
				"x": -0.961417374,
				"y": -4.1006424717,
				"z": -0.994048067,
				"element": "H" 
			},
			{
				"x": 0.9996723243,
				"y": 4.1456757703,
				"z": -3.1599084128,
				"element": "H" 
			},
			{
				"x": 1.8188238046,
				"y": 4.8462532066,
				"z": -1.7288569683,
				"element": "H" 
			}
		],
		 "valence_orbital": [ 
			{
				"type": "occ",
				"energy": -0.31399,
				"method": "rhf"
			},
			{
				"type": "occ",
				"energy": -0.30525,
				"method": "rhf"
			},
			{
				"type": "occ",
				"energy": -0.30082,
				"method": "rhf"
			},
			{
				"type": "occ",
				"energy": -0.25072,
				"method": "rhf"
			},
			{
				"type": "occ",
				"energy": -0.2263,
				"method": "rhf"
			},
			{
				"type": "unocc",
				"energy": -0.06007,
				"method": "rhf"
			},
			{
				"type": "unocc",
				"energy": -0.03384,
				"method": "rhf"
			},
			{
				"type": "unocc",
				"energy": 0.00415,
				"method": "rhf"
			},
			{
				"type": "unocc",
				"energy": 0.035,
				"method": "rhf"
			},
			{
				"type": "unocc",
				"energy": 0.06749,
				"method": "rhf"
			}
		],
		"cosmo_sigma_profile": { 
			"-0.025": 0.0,
			"-0.024": 0.0,
			"-0.023": 0.0,
			"-0.022": 0.0,
			"-0.021": 0.0,
			"-0.02": 0.0,
			"-0.019": 0.0,
			"-0.018": 0.0,
			"-0.017": 0.0,
			"-0.016": 0.0,
			"-0.015": 0.0,
			"-0.014": 0.0,
			"-0.013": 0.0,
			"-0.012": 0.0,
			"-0.011": 0.556513142476,
			"-0.01": 3.92624774407,
			"-0.009": 3.81433421877,
			"-0.008": 4.68447133512,
			"-0.007": 6.21737186059,
			"-0.006": 13.6687904442,
			"-0.005": 18.5371194607,
			"-0.004": 17.683452268,
			"-0.003": 16.4445906823,
			"-0.002": 13.7238185758,
			"-0.001": 14.3314915281,
			"0.0": 14.6028363207,
			"0.001": 17.5911940266,
			"0.002": 20.6156411118,
			"0.003": 22.3777709609,
			"0.004": 20.8855737316,
			"0.005": 17.4812325063,
			"0.006": 7.19031564605,
			"0.007": 3.93655345745,
			"0.008": 4.32228579729,
			"0.009": 3.44231603781,
			"0.01": 3.24142743077,
			"0.011": 2.0749390959,
			"0.012": 0.344079893685,
			"0.013": 0.0,
			"0.014": 0.0,
			"0.015": 0.0,
			"0.016": 0.0,
			"0.017": 0.0,
			"0.018": 0.0,
			"0.019": 0.0,
			"0.02": 0.0,
			"0.021": 0.0,
			"0.022": 0.0,
			"0.023": 0.0,
			"0.024": 0.0,
			"0.025": 0.0
		}
	}
}
