{
	 "smiles": "NC1=NC2=C(S1)C=CC1=C2CCCC1", 
	 "Tm": 396.15, 
	 "num_atms": 26, 
	 "gaussian": { 
		 "optdone": 1, 
		 "sigma_profile": "yes", 
		 "theory": "DFT", 
		 "functional": "B3LYP", 
		 "basiset": "6-31G**", 
		 "properties": { 
			 "R2extent": 3785.4521, 
			 "electric_dipole_moment_norm": 1.55194336881, 
			 "electric_quadrupole_moment_norm": 13.3608912188, 
			 "total_energy": -934.122726359, 
			 "HOMO_LUMO_gap": 0.19756, 
			 "cosmo_polarized_energy": -10.26, 
			 "cosmo_cavitation_energy": 29.39, 
			 "cosmo_dispersion_energy": -22.74, 
			 "cosmo_repulsion_energy": 1.75, 
			 "cosmo_total_nonelectrostatic_energy": 8.39, 
			 "SMD_solvation_energy": 2.24 
		},
		"coords": [
			{
				"x": -2.0948378997,
				"y": 2.7718105523,
				"z": -2.3294047388,
				"element": "N" 
			},
			{
				"x": -0.947505219,
				"y": 2.3547032761,
				"z": -1.7011373292,
				"element": "C" 
			},
			{
				"x": -0.8938966682,
				"y": 1.3656760172,
				"z": -0.8685574055,
				"element": "N" 
			},
			{
				"x": 0.4133364342,
				"y": 1.134528996,
				"z": -0.455886307,
				"element": "C" 
			},
			{
				"x": 1.3906287669,
				"y": 2.0044019666,
				"z": -0.9992400871,
				"element": "C" 
			},
			{
				"x": 0.6077514182,
				"y": 3.1446126203,
				"z": -2.0956004876,
				"element": "S" 
			},
			{
				"x": 2.7383656789,
				"y": 1.8961905937,
				"z": -0.6681534732,
				"element": "C" 
			},
			{
				"x": 3.1144236639,
				"y": 0.8911764024,
				"z": 0.2244721305,
				"element": "C" 
			},
			{
				"x": 2.1656841413,
				"y": 0.0199681875,
				"z": 0.7794175422,
				"element": "C" 
			},
			{
				"x": 0.8072620658,
				"y": 0.1329750884,
				"z": 0.4447189184,
				"element": "C" 
			},
			{
				"x": -0.1551938826,
				"y": -0.8450208644,
				"z": 1.0683536519,
				"element": "C" 
			},
			{
				"x": 0.3769665892,
				"y": -2.2936077674,
				"z": 0.9612102416,
				"element": "C" 
			},
			{
				"x": 1.8845101919,
				"y": -2.4259159699,
				"z": 1.3264875941,
				"element": "C" 
			},
			{
				"x": 2.5277009482,
				"y": -1.0832919447,
				"z": 1.7450967212,
				"element": "C" 
			},
			{
				"x": -2.9385643241,
				"y": 2.4048090821,
				"z": -1.9091570181,
				"element": "H" 
			},
			{
				"x": -2.1489993501,
				"y": 3.7436573647,
				"z": -2.597545597,
				"element": "H" 
			},
			{
				"x": 3.4792402354,
				"y": 2.5663423107,
				"z": -1.0923796331,
				"element": "H" 
			},
			{
				"x": 4.1617250644,
				"y": 0.7816338663,
				"z": 0.4938655157,
				"element": "H" 
			},
			{
				"x": -0.2863174253,
				"y": -0.5903927794,
				"z": 2.1306834388,
				"element": "H" 
			},
			{
				"x": -1.1399719283,
				"y": -0.7578932404,
				"z": 0.6033045363,
				"element": "H" 
			},
			{
				"x": -0.2304691218,
				"y": -2.9432761846,
				"z": 1.6008412718,
				"element": "H" 
			},
			{
				"x": 0.2216193824,
				"y": -2.6407754639,
				"z": -0.065733942,
				"element": "H" 
			},
			{
				"x": 2.4350757909,
				"y": -2.8135816837,
				"z": 0.462585175,
				"element": "H" 
			},
			{
				"x": 2.0221905087,
				"y": -3.1552460198,
				"z": 2.1323465871,
				"element": "H" 
			},
			{
				"x": 3.6147125251,
				"y": -1.1918907026,
				"z": 1.823520611,
				"element": "H" 
			},
			{
				"x": 2.1705624135,
				"y": -0.8167937033,
				"z": 2.7509920831,
				"element": "H" 
			}
		],
		 "valence_orbital": [ 
			{
				"type": "occ",
				"energy": -0.28735,
				"method": "rhf"
			},
			{
				"type": "occ",
				"energy": -0.28448,
				"method": "rhf"
			},
			{
				"type": "occ",
				"energy": -0.26924,
				"method": "rhf"
			},
			{
				"type": "occ",
				"energy": -0.21526,
				"method": "rhf"
			},
			{
				"type": "occ",
				"energy": -0.20525,
				"method": "rhf"
			},
			{
				"type": "unocc",
				"energy": -0.00769,
				"method": "rhf"
			},
			{
				"type": "unocc",
				"energy": 0.0072,
				"method": "rhf"
			},
			{
				"type": "unocc",
				"energy": 0.00844,
				"method": "rhf"
			},
			{
				"type": "unocc",
				"energy": 0.05199,
				"method": "rhf"
			},
			{
				"type": "unocc",
				"energy": 0.07149,
				"method": "rhf"
			}
		],
		"cosmo_sigma_profile": { 
			"-0.025": 0.0,
			"-0.024": 0.0,
			"-0.023": 0.0,
			"-0.022": 0.0,
			"-0.021": 0.0,
			"-0.02": 0.0,
			"-0.019": 0.0,
			"-0.018": 0.0,
			"-0.017": 0.0,
			"-0.016": 0.0,
			"-0.015": 0.676339464763,
			"-0.014": 1.9501997474,
			"-0.013": 3.00093910466,
			"-0.012": 2.01348455565,
			"-0.011": 2.85067091045,
			"-0.01": 3.1459917066,
			"-0.009": 1.32704584791,
			"-0.008": 1.50816266065,
			"-0.007": 2.0730172183,
			"-0.006": 4.40402101093,
			"-0.005": 6.04804800133,
			"-0.004": 7.18399629337,
			"-0.003": 17.4735789947,
			"-0.002": 24.0172683338,
			"-0.001": 26.3012545458,
			"0.0": 26.1060348392,
			"0.001": 21.7039250679,
			"0.002": 14.962232817,
			"0.003": 15.4890141095,
			"0.004": 14.2990804131,
			"0.005": 14.4045272865,
			"0.006": 9.5021491523,
			"0.007": 3.72259615376,
			"0.008": 1.75171836982,
			"0.009": 2.36090385039,
			"0.01": 2.23990007585,
			"0.011": 1.39016359634,
			"0.012": 1.39655750937,
			"0.013": 0.77869959962,
			"0.014": 0.0562661520337,
			"0.015": 0.0,
			"0.016": 0.0,
			"0.017": 0.0,
			"0.018": 0.0,
			"0.019": 0.0,
			"0.02": 0.0,
			"0.021": 0.0,
			"0.022": 0.0,
			"0.023": 0.0,
			"0.024": 0.0,
			"0.025": 0.0
		}
	}
}
