{
	 "smiles": "BrC1=CC=CC2=C1C=CC=N2", 
	 "Tm": 319.15, 
	 "num_atms": 17, 
	 "gaussian": { 
		 "optdone": 1, 
		 "sigma_profile": "yes", 
		 "theory": "DFT", 
		 "functional": "B3LYP", 
		 "basiset": "6-31G**", 
		 "properties": { 
			 "R2extent": 4901.0692, 
			 "electric_dipole_moment_norm": 0.334268185743, 
			 "electric_quadrupole_moment_norm": 10.0926497943, 
			 "total_energy": -2972.7338852, 
			 "HOMO_LUMO_gap": 0.17142, 
			 "cosmo_polarized_energy": -5.87, 
			 "cosmo_cavitation_energy": 23.12, 
			 "cosmo_dispersion_energy": -17.93, 
			 "cosmo_repulsion_energy": 1.4, 
			 "cosmo_total_nonelectrostatic_energy": 6.6, 
			 "SMD_solvation_energy": 1.32 
		},
		"coords": [
			{
				"x": -3.918903653,
				"y": 0.433252955,
				"z": -2.9706082378,
				"element": "Br" 
			},
			{
				"x": -2.9692050853,
				"y": -0.5557010393,
				"z": -1.6295606699,
				"element": "C" 
			},
			{
				"x": -3.5148257963,
				"y": -1.7368833315,
				"z": -1.1843175874,
				"element": "C" 
			},
			{
				"x": -2.8426564058,
				"y": -2.4944109094,
				"z": -0.1951387995,
				"element": "C" 
			},
			{
				"x": -1.6468624015,
				"y": -2.0623807472,
				"z": 0.3279032316,
				"element": "C" 
			},
			{
				"x": -1.0669325728,
				"y": -0.8458364645,
				"z": -0.118279178,
				"element": "C" 
			},
			{
				"x": -1.7345591505,
				"y": -0.0634082618,
				"z": -1.1217373891,
				"element": "C" 
			},
			{
				"x": -1.1089461829,
				"y": 1.1421250096,
				"z": -1.5289921239,
				"element": "C" 
			},
			{
				"x": 0.0871664494,
				"y": 1.506582589,
				"z": -0.9588183115,
				"element": "C" 
			},
			{
				"x": 0.6626695287,
				"y": 0.6634858714,
				"z": 0.0234816636,
				"element": "C" 
			},
			{
				"x": 0.1209733876,
				"y": -0.4643546944,
				"z": 0.4344640313,
				"element": "N" 
			},
			{
				"x": -4.4571384893,
				"y": -2.0857155838,
				"z": -1.5906057401,
				"element": "H" 
			},
			{
				"x": -3.2874591624,
				"y": -3.4246471465,
				"z": 0.1450910348,
				"element": "H" 
			},
			{
				"x": -1.1122553694,
				"y": -2.6239568003,
				"z": 1.0862344537,
				"element": "H" 
			},
			{
				"x": -1.5834605596,
				"y": 1.7587644446,
				"z": -2.2843544701,
				"element": "H" 
			},
			{
				"x": 0.5910557444,
				"y": 2.422948091,
				"z": -1.2488892219,
				"element": "H" 
			},
			{
				"x": 1.6106397186,
				"y": 0.940936018,
				"z": 0.4833273143,
				"element": "H" 
			}
		],
		 "valence_orbital": [ 
			{
				"type": "occ",
				"energy": -0.29291,
				"method": "rhf"
			},
			{
				"type": "occ",
				"energy": -0.29261,
				"method": "rhf"
			},
			{
				"type": "occ",
				"energy": -0.26153,
				"method": "rhf"
			},
			{
				"type": "occ",
				"energy": -0.26126,
				"method": "rhf"
			},
			{
				"type": "occ",
				"energy": -0.23386,
				"method": "rhf"
			},
			{
				"type": "unocc",
				"energy": -0.06244,
				"method": "rhf"
			},
			{
				"type": "unocc",
				"energy": -0.02618,
				"method": "rhf"
			},
			{
				"type": "unocc",
				"energy": 0.0025,
				"method": "rhf"
			},
			{
				"type": "unocc",
				"energy": 0.01176,
				"method": "rhf"
			},
			{
				"type": "unocc",
				"energy": 0.08006,
				"method": "rhf"
			}
		],
		"cosmo_sigma_profile": { 
			"-0.025": 0.0,
			"-0.024": 0.0,
			"-0.023": 0.0,
			"-0.022": 0.0,
			"-0.021": 0.0,
			"-0.02": 0.0,
			"-0.019": 0.0,
			"-0.018": 0.0,
			"-0.017": 0.0,
			"-0.016": 0.0,
			"-0.015": 0.0,
			"-0.014": 0.0,
			"-0.013": 0.0,
			"-0.012": 0.0,
			"-0.011": 0.0,
			"-0.01": 0.0,
			"-0.009": 0.0,
			"-0.008": 0.58637455126,
			"-0.007": 8.13818228818,
			"-0.006": 12.3030697172,
			"-0.005": 12.5790864979,
			"-0.004": 10.9431079019,
			"-0.003": 9.82656134513,
			"-0.002": 10.2460985018,
			"-0.001": 11.0246465914,
			"0.0": 17.6977549773,
			"0.001": 28.1778290817,
			"0.002": 25.1919977483,
			"0.003": 17.5027625114,
			"0.004": 11.1443094657,
			"0.005": 4.22644073654,
			"0.006": 1.21313220232,
			"0.007": 1.8137521047,
			"0.008": 0.950238995345,
			"0.009": 0.95653743664,
			"0.01": 1.04118594398,
			"0.011": 1.29723994337,
			"0.012": 0.402297199883,
			"0.013": 0.860990584525,
			"0.014": 1.11003679991,
			"0.015": 0.47555482691,
			"0.016": 0.387801262888,
			"0.017": 0.0,
			"0.018": 0.0,
			"0.019": 0.0,
			"0.02": 0.0,
			"0.021": 0.0,
			"0.022": 0.0,
			"0.023": 0.0,
			"0.024": 0.0,
			"0.025": 0.0
		}
	}
}
