{
	 "smiles": "CS(=O)(=O)N1CCCC1C#N", 
	 "Tm": 336.15, 
	 "num_atms": 21, 
	 "gaussian": { 
		 "optdone": 1, 
		 "sigma_profile": "yes", 
		 "theory": "DFT", 
		 "functional": "B3LYP", 
		 "basiset": "6-31G**", 
		 "properties": { 
			 "R2extent": 2659.1802, 
			 "electric_dipole_moment_norm": 2.78521127026, 
			 "electric_quadrupole_moment_norm": 21.2530326681, 
			 "total_energy": -892.713550137, 
			 "HOMO_LUMO_gap": 0.28742, 
			 "cosmo_polarized_energy": -16.16, 
			 "cosmo_cavitation_energy": 25.73, 
			 "cosmo_dispersion_energy": -18.45, 
			 "cosmo_repulsion_energy": 1.44, 
			 "cosmo_total_nonelectrostatic_energy": 8.73, 
			 "SMD_solvation_energy": 4.63 
		},
		"coords": [
			{
				"x": -1.5697959652,
				"y": -2.1953491082,
				"z": 2.2019206565,
				"element": "C" 
			},
			{
				"x": -0.2381324024,
				"y": -2.2042262696,
				"z": 0.9923166935,
				"element": "S" 
			},
			{
				"x": 0.5812084239,
				"y": -3.3971892867,
				"z": 1.2169134871,
				"element": "O" 
			},
			{
				"x": -0.8311937592,
				"y": -1.9198220392,
				"z": -0.3197218569,
				"element": "O" 
			},
			{
				"x": 0.6958101192,
				"y": -0.8729041103,
				"z": 1.4543153826,
				"element": "N" 
			},
			{
				"x": 2.0857210753,
				"y": -1.0865894335,
				"z": 1.9361891959,
				"element": "C" 
			},
			{
				"x": 2.7064813402,
				"y": 0.3099838326,
				"z": 1.8099495277,
				"element": "C" 
			},
			{
				"x": 2.020823484,
				"y": 0.8929522724,
				"z": 0.5658677956,
				"element": "C" 
			},
			{
				"x": 0.5627903882,
				"y": 0.3921884127,
				"z": 0.7002725239,
				"element": "C" 
			},
			{
				"x": -0.2948711745,
				"y": 1.3426900855,
				"z": 1.4420242476,
				"element": "C" 
			},
			{
				"x": -0.9764486791,
				"y": 2.0783346363,
				"z": 2.0270063233,
				"element": "N" 
			},
			{
				"x": -2.0893138826,
				"y": -1.2379061176,
				"z": 2.1426213172,
				"element": "H" 
			},
			{
				"x": -2.2432263584,
				"y": -3.0154394102,
				"z": 1.945821968,
				"element": "H" 
			},
			{
				"x": -1.1404171437,
				"y": -2.3450539005,
				"z": 3.1928854993,
				"element": "H" 
			},
			{
				"x": 2.0810677851,
				"y": -1.4584842435,
				"z": 2.9638806743,
				"element": "H" 
			},
			{
				"x": 2.6050622044,
				"y": -1.8198913139,
				"z": 1.310957689,
				"element": "H" 
			},
			{
				"x": 3.79432597,
				"y": 0.2655281375,
				"z": 1.7149868452,
				"element": "H" 
			},
			{
				"x": 2.4662775527,
				"y": 0.9143984747,
				"z": 2.690963578,
				"element": "H" 
			},
			{
				"x": 2.4478467974,
				"y": 0.4632375695,
				"z": -0.3458266743,
				"element": "H" 
			},
			{
				"x": 2.0823247858,
				"y": 1.980885926,
				"z": 0.4962695848,
				"element": "H" 
			},
			{
				"x": 0.098159439,
				"y": 0.2087558859,
				"z": -0.2729144586,
				"element": "H" 
			}
		],
		 "valence_orbital": [ 
			{
				"type": "occ",
				"energy": -0.33547,
				"method": "rhf"
			},
			{
				"type": "occ",
				"energy": -0.3217,
				"method": "rhf"
			},
			{
				"type": "occ",
				"energy": -0.31423,
				"method": "rhf"
			},
			{
				"type": "occ",
				"energy": -0.30828,
				"method": "rhf"
			},
			{
				"type": "occ",
				"energy": -0.27255,
				"method": "rhf"
			},
			{
				"type": "unocc",
				"energy": 0.01487,
				"method": "rhf"
			},
			{
				"type": "unocc",
				"energy": 0.01887,
				"method": "rhf"
			},
			{
				"type": "unocc",
				"energy": 0.05946,
				"method": "rhf"
			},
			{
				"type": "unocc",
				"energy": 0.06282,
				"method": "rhf"
			},
			{
				"type": "unocc",
				"energy": 0.07417,
				"method": "rhf"
			}
		],
		"cosmo_sigma_profile": { 
			"-0.025": 0.0,
			"-0.024": 0.0,
			"-0.023": 0.0,
			"-0.022": 0.0,
			"-0.021": 0.0,
			"-0.02": 0.0,
			"-0.019": 0.0,
			"-0.018": 0.0,
			"-0.017": 0.0,
			"-0.016": 0.0,
			"-0.015": 0.0,
			"-0.014": 0.0,
			"-0.013": 0.0,
			"-0.012": 0.0,
			"-0.011": 0.0,
			"-0.01": 0.0331748740985,
			"-0.009": 3.32299251322,
			"-0.008": 6.74967252678,
			"-0.007": 8.06207277932,
			"-0.006": 17.5967774916,
			"-0.005": 23.6240140944,
			"-0.004": 25.7547624307,
			"-0.003": 19.6806270673,
			"-0.002": 12.8441353817,
			"-0.001": 7.52388650583,
			"0.0": 3.6850758168,
			"0.001": 4.73315748215,
			"0.002": 5.69622970776,
			"0.003": 4.99589889829,
			"0.004": 2.90317047987,
			"0.005": 4.86544143312,
			"0.006": 4.10467441226,
			"0.007": 5.4363291786,
			"0.008": 6.44731077999,
			"0.009": 7.20981153398,
			"0.01": 9.60851003394,
			"0.011": 12.5937455254,
			"0.012": 4.97549829007,
			"0.013": 1.26797972021,
			"0.014": 0.0156577606286,
			"0.015": 0.0,
			"0.016": 0.0,
			"0.017": 0.0,
			"0.018": 0.0,
			"0.019": 0.0,
			"0.02": 0.0,
			"0.021": 0.0,
			"0.022": 0.0,
			"0.023": 0.0,
			"0.024": 0.0,
			"0.025": 0.0
		}
	}
}
