{
	 "smiles": "ClC1=CC=C(CS(Cl)(=O)=O)C=C1", 
	 "Tm": 368.15, 
	 "num_atms": 18, 
	 "gaussian": { 
		 "optdone": 1, 
		 "sigma_profile": "yes", 
		 "theory": "DFT", 
		 "functional": "B3LYP", 
		 "basiset": "6-31G**", 
		 "properties": { 
			 "R2extent": 4594.0745, 
			 "electric_dipole_moment_norm": 3.78429359723, 
			 "electric_quadrupole_moment_norm": 15.002297626, 
			 "total_energy": -1739.31916629, 
			 "HOMO_LUMO_gap": 0.1743, 
			 "cosmo_polarized_energy": -12.18, 
			 "cosmo_cavitation_energy": 27.66, 
			 "cosmo_dispersion_energy": -20.55, 
			 "cosmo_repulsion_energy": 1.6, 
			 "cosmo_total_nonelectrostatic_energy": 8.71, 
			 "SMD_solvation_energy": 2.96 
		},
		"coords": [
			{
				"x": -1.1751926826,
				"y": 1.6486475989,
				"z": 3.9916370642,
				"element": "Cl" 
			},
			{
				"x": -0.6957561566,
				"y": 1.2307418973,
				"z": 2.3581785367,
				"element": "C" 
			},
			{
				"x": -1.4042164302,
				"y": 1.7596362778,
				"z": 1.2795157549,
				"element": "C" 
			},
			{
				"x": -1.0180783338,
				"y": 1.4201506496,
				"z": -0.0153722041,
				"element": "C" 
			},
			{
				"x": 0.0601591799,
				"y": 0.5542762511,
				"z": -0.2398374841,
				"element": "C" 
			},
			{
				"x": 0.453839313,
				"y": 0.1838790768,
				"z": -1.6345795057,
				"element": "C" 
			},
			{
				"x": 1.9791106435,
				"y": 1.0127943201,
				"z": -2.2627167269,
				"element": "S" 
			},
			{
				"x": 1.3390131844,
				"y": 3.0473655815,
				"z": -2.3158230245,
				"element": "Cl" 
			},
			{
				"x": 3.0412158362,
				"y": 0.9195744341,
				"z": -1.268490968,
				"element": "O" 
			},
			{
				"x": 2.1829236368,
				"y": 0.5919098246,
				"z": -3.6439534273,
				"element": "O" 
			},
			{
				"x": 0.7587382617,
				"y": 0.0377194721,
				"z": 0.8610408135,
				"element": "C" 
			},
			{
				"x": 0.3868055766,
				"y": 0.3719259397,
				"z": 2.1600902562,
				"element": "C" 
			},
			{
				"x": -2.2419837253,
				"y": 2.4256759124,
				"z": 1.4516094374,
				"element": "H" 
			},
			{
				"x": -1.5644859129,
				"y": 1.8330701557,
				"z": -0.8582387373,
				"element": "H" 
			},
			{
				"x": 0.7356740681,
				"y": -0.8698117775,
				"z": -1.7339920713,
				"element": "H" 
			},
			{
				"x": -0.3076499749,
				"y": 0.4163272378,
				"z": -2.3810711141,
				"element": "H" 
			},
			{
				"x": 1.6063337359,
				"y": -0.621782384,
				"z": 0.7029823753,
				"element": "H" 
			},
			{
				"x": 0.92714978,
				"y": -0.027300468,
				"z": 3.010821025,
				"element": "H" 
			}
		],
		 "valence_orbital": [ 
			{
				"type": "occ",
				"energy": -0.33142,
				"method": "rhf"
			},
			{
				"type": "occ",
				"energy": -0.32662,
				"method": "rhf"
			},
			{
				"type": "occ",
				"energy": -0.31844,
				"method": "rhf"
			},
			{
				"type": "occ",
				"energy": -0.28344,
				"method": "rhf"
			},
			{
				"type": "occ",
				"energy": -0.26414,
				"method": "rhf"
			},
			{
				"type": "unocc",
				"energy": -0.08984,
				"method": "rhf"
			},
			{
				"type": "unocc",
				"energy": -0.0418,
				"method": "rhf"
			},
			{
				"type": "unocc",
				"energy": -0.03423,
				"method": "rhf"
			},
			{
				"type": "unocc",
				"energy": 0.01472,
				"method": "rhf"
			},
			{
				"type": "unocc",
				"energy": 0.04499,
				"method": "rhf"
			}
		],
		"cosmo_sigma_profile": { 
			"-0.025": 0.0,
			"-0.024": 0.0,
			"-0.023": 0.0,
			"-0.022": 0.0,
			"-0.021": 0.0,
			"-0.02": 0.0,
			"-0.019": 0.0,
			"-0.018": 0.0,
			"-0.017": 0.0,
			"-0.016": 0.0,
			"-0.015": 0.0,
			"-0.014": 0.0,
			"-0.013": 0.11292180755,
			"-0.012": 1.17973606174,
			"-0.011": 3.45804889192,
			"-0.01": 5.35494750028,
			"-0.009": 4.07057994612,
			"-0.008": 6.3359767971,
			"-0.007": 11.8875999876,
			"-0.006": 10.7712269936,
			"-0.005": 7.39793726152,
			"-0.004": 6.98212921413,
			"-0.003": 9.03348727825,
			"-0.002": 8.62200899853,
			"-0.001": 11.7241815782,
			"0.0": 15.5310299755,
			"0.001": 20.5347324964,
			"0.002": 27.491315364,
			"0.003": 23.803834495,
			"0.004": 20.0665759299,
			"0.005": 6.25492957654,
			"0.006": 2.86893350017,
			"0.007": 5.29876921414,
			"0.008": 10.3560241321,
			"0.009": 7.02722173889,
			"0.01": 0.231956156974,
			"0.011": 0.0,
			"0.012": 0.0,
			"0.013": 0.0,
			"0.014": 0.0,
			"0.015": 0.0,
			"0.016": 0.0,
			"0.017": 0.0,
			"0.018": 0.0,
			"0.019": 0.0,
			"0.02": 0.0,
			"0.021": 0.0,
			"0.022": 0.0,
			"0.023": 0.0,
			"0.024": 0.0,
			"0.025": 0.0
		}
	}
}
