{
	 "smiles": "CCOCCC(OCC)OCC", 
	 "Tm": 326.15, 
	 "num_atms": 32, 
	 "gaussian": { 
		 "optdone": 1, 
		 "sigma_profile": "yes", 
		 "theory": "DFT", 
		 "functional": "B3LYP", 
		 "basiset": "6-31G**", 
		 "properties": { 
			 "R2extent": 3695.6807, 
			 "electric_dipole_moment_norm": 1.57308932677, 
			 "electric_quadrupole_moment_norm": 5.19519775466, 
			 "total_energy": -580.667179772, 
			 "HOMO_LUMO_gap": 0.32964, 
			 "cosmo_polarized_energy": -7.45, 
			 "cosmo_cavitation_energy": 33.57, 
			 "cosmo_dispersion_energy": -23.1, 
			 "cosmo_repulsion_energy": 1.94, 
			 "cosmo_total_nonelectrostatic_energy": 12.4, 
			 "SMD_solvation_energy": 6.0 
		},
		"coords": [
			{
				"x": -0.4866286421,
				"y": 3.8663647592,
				"z": -0.0053965084,
				"element": "C" 
			},
			{
				"x": -1.4702895987,
				"y": 2.8208381892,
				"z": -0.5274725666,
				"element": "C" 
			},
			{
				"x": -0.86819818,
				"y": 1.9221924987,
				"z": -1.4528568048,
				"element": "O" 
			},
			{
				"x": -0.1969704402,
				"y": 0.8170590459,
				"z": -0.8616889086,
				"element": "C" 
			},
			{
				"x": -1.1366240451,
				"y": -0.3755510501,
				"z": -0.6522855185,
				"element": "C" 
			},
			{
				"x": -0.4084729544,
				"y": -1.5972282937,
				"z": -0.0936833767,
				"element": "C" 
			},
			{
				"x": 0.0184785454,
				"y": -1.2615917593,
				"z": 1.2120175731,
				"element": "O" 
			},
			{
				"x": 0.9739073571,
				"y": -2.1644517147,
				"z": 1.7815544638,
				"element": "C" 
			},
			{
				"x": 2.408231725,
				"y": -1.7756398733,
				"z": 1.4356905041,
				"element": "C" 
			},
			{
				"x": -1.1688609364,
				"y": -2.7888634166,
				"z": -0.1182921067,
				"element": "O" 
			},
			{
				"x": -2.4072270419,
				"y": -2.7684519252,
				"z": 0.5969107248,
				"element": "C" 
			},
			{
				"x": -2.8798914386,
				"y": -4.2059614107,
				"z": 0.7429873456,
				"element": "C" 
			},
			{
				"x": 0.33102403,
				"y": 3.4025561405,
				"z": 0.5558318706,
				"element": "H" 
			},
			{
				"x": -0.9934216765,
				"y": 4.5716002267,
				"z": 0.6628441321,
				"element": "H" 
			},
			{
				"x": -0.0525460113,
				"y": 4.4278222067,
				"z": -0.8379914137,
				"element": "H" 
			},
			{
				"x": -2.283656414,
				"y": 3.3116549061,
				"z": -1.0735370772,
				"element": "H" 
			},
			{
				"x": -1.927799995,
				"y": 2.2731777276,
				"z": 0.3105895193,
				"element": "H" 
			},
			{
				"x": 0.2723740085,
				"y": 1.0915253119,
				"z": 0.091594207,
				"element": "H" 
			},
			{
				"x": 0.6075669555,
				"y": 0.5400903847,
				"z": -1.5542858814,
				"element": "H" 
			},
			{
				"x": -1.5931187942,
				"y": -0.6470388494,
				"z": -1.609853204,
				"element": "H" 
			},
			{
				"x": -1.9412032098,
				"y": -0.0910250811,
				"z": 0.0343576973,
				"element": "H" 
			},
			{
				"x": 0.4563410456,
				"y": -1.8415881001,
				"z": -0.7286260361,
				"element": "H" 
			},
			{
				"x": 0.8194704984,
				"y": -2.1163096345,
				"z": 2.8646120004,
				"element": "H" 
			},
			{
				"x": 0.7506795373,
				"y": -3.1887388467,
				"z": 1.4598112562,
				"element": "H" 
			},
			{
				"x": 3.1152592422,
				"y": -2.4542136255,
				"z": 1.9254908898,
				"element": "H" 
			},
			{
				"x": 2.5908960732,
				"y": -1.8270989333,
				"z": 0.3574404356,
				"element": "H" 
			},
			{
				"x": 2.6215932123,
				"y": -0.7558223699,
				"z": 1.7697543252,
				"element": "H" 
			},
			{
				"x": -3.1544030816,
				"y": -2.1775977582,
				"z": 0.0474374617,
				"element": "H" 
			},
			{
				"x": -2.2654136278,
				"y": -2.3013152629,
				"z": 1.5795691333,
				"element": "H" 
			},
			{
				"x": -3.8439204984,
				"y": -4.2398345824,
				"z": 1.2608496017,
				"element": "H" 
			},
			{
				"x": -2.1570422483,
				"y": -4.7948092111,
				"z": 1.3154052373,
				"element": "H" 
			},
			{
				"x": -2.9984333963,
				"y": -4.6733496986,
				"z": -0.2390789764,
				"element": "H" 
			}
		],
		 "valence_orbital": [ 
			{
				"type": "occ",
				"energy": -0.29719,
				"method": "rhf"
			},
			{
				"type": "occ",
				"energy": -0.291,
				"method": "rhf"
			},
			{
				"type": "occ",
				"energy": -0.26887,
				"method": "rhf"
			},
			{
				"type": "occ",
				"energy": -0.26191,
				"method": "rhf"
			},
			{
				"type": "occ",
				"energy": -0.24106,
				"method": "rhf"
			},
			{
				"type": "unocc",
				"energy": 0.08858,
				"method": "rhf"
			},
			{
				"type": "unocc",
				"energy": 0.09249,
				"method": "rhf"
			},
			{
				"type": "unocc",
				"energy": 0.10293,
				"method": "rhf"
			},
			{
				"type": "unocc",
				"energy": 0.11748,
				"method": "rhf"
			},
			{
				"type": "unocc",
				"energy": 0.12554,
				"method": "rhf"
			}
		],
		"cosmo_sigma_profile": { 
			"-0.025": 0.0,
			"-0.024": 0.0,
			"-0.023": 0.0,
			"-0.022": 0.0,
			"-0.021": 0.0,
			"-0.02": 0.0,
			"-0.019": 0.0,
			"-0.018": 0.0,
			"-0.017": 0.0,
			"-0.016": 0.0,
			"-0.015": 0.0,
			"-0.014": 0.0,
			"-0.013": 0.0,
			"-0.012": 0.0,
			"-0.011": 0.0,
			"-0.01": 0.0,
			"-0.009": 0.0,
			"-0.008": 0.0,
			"-0.007": 0.0,
			"-0.006": 0.0626720252081,
			"-0.005": 5.24250205244,
			"-0.004": 22.001292964,
			"-0.003": 41.7695961952,
			"-0.002": 44.089238329,
			"-0.001": 36.2623154453,
			"0.0": 30.7894030259,
			"0.001": 25.492717526,
			"0.002": 10.691047355,
			"0.003": 5.80915046731,
			"0.004": 4.69208100633,
			"0.005": 5.15023949444,
			"0.006": 3.93835842766,
			"0.007": 3.53391725609,
			"0.008": 4.00856847635,
			"0.009": 3.09808435829,
			"0.01": 3.00899842895,
			"0.011": 2.21573564459,
			"0.012": 3.21071527147,
			"0.013": 2.49003512279,
			"0.014": 1.49599935839,
			"0.015": 0.0907794441419,
			"0.016": 0.0,
			"0.017": 0.0,
			"0.018": 0.0,
			"0.019": 0.0,
			"0.02": 0.0,
			"0.021": 0.0,
			"0.022": 0.0,
			"0.023": 0.0,
			"0.024": 0.0,
			"0.025": 0.0
		}
	}
}
