{
	 "smiles": "S1C(=C(C(=C1C1=CC=CC=C1)C1=CC=CC=C1)C1=CC=CC=C1)C1=CC=CC=C1", 
	 "Tm": 455.15, 
	 "num_atms": 49, 
	 "gaussian": { 
		 "optdone": 1, 
		 "sigma_profile": "yes", 
		 "theory": "DFT", 
		 "functional": "B3LYP", 
		 "basiset": "6-31G**", 
		 "properties": { 
			 "R2extent": 12047.2521, 
			 "electric_dipole_moment_norm": 0.877258690467, 
			 "electric_quadrupole_moment_norm": 7.04060882169, 
			 "total_energy": -1477.23094653, 
			 "HOMO_LUMO_gap": 0.15756, 
			 "cosmo_polarized_energy": -9.28, 
			 "cosmo_cavitation_energy": 53.6, 
			 "cosmo_dispersion_energy": -35.46, 
			 "cosmo_repulsion_energy": 2.68, 
			 "cosmo_total_nonelectrostatic_energy": 20.82, 
			 "SMD_solvation_energy": 8.05 
		},
		"coords": [
			{
				"x": -0.3494787854,
				"y": 2.4204471707,
				"z": 0.8897909963,
				"element": "S" 
			},
			{
				"x": 0.6871870162,
				"y": 1.6621592901,
				"z": -0.2923274827,
				"element": "C" 
			},
			{
				"x": 0.5110460832,
				"y": 0.2894810916,
				"z": -0.2902966356,
				"element": "C" 
			},
			{
				"x": -0.4755841221,
				"y": -0.1507915289,
				"z": 0.6732789131,
				"element": "C" 
			},
			{
				"x": -1.0293104611,
				"y": 0.893471582,
				"z": 1.3931118712,
				"element": "C" 
			},
			{
				"x": -2.0092868248,
				"y": 0.8814814699,
				"z": 2.4970362467,
				"element": "C" 
			},
			{
				"x": -3.0224499719,
				"y": 1.8552309065,
				"z": 2.5629748231,
				"element": "C" 
			},
			{
				"x": -3.9317456872,
				"y": 1.8709888378,
				"z": 3.6197284235,
				"element": "C" 
			},
			{
				"x": -3.8509604342,
				"y": 0.9118783286,
				"z": 4.6303810119,
				"element": "C" 
			},
			{
				"x": -2.8488522466,
				"y": -0.0598591405,
				"z": 4.577487638,
				"element": "C" 
			},
			{
				"x": -1.9343795366,
				"y": -0.0745780742,
				"z": 3.5265398125,
				"element": "C" 
			},
			{
				"x": -0.8664491375,
				"y": -1.5752271342,
				"z": 0.8590101985,
				"element": "C" 
			},
			{
				"x": -2.2040499292,
				"y": -1.9740222478,
				"z": 0.7032324478,
				"element": "C" 
			},
			{
				"x": -2.5766357725,
				"y": -3.3064021463,
				"z": 0.8798975999,
				"element": "C" 
			},
			{
				"x": -1.6185801986,
				"y": -4.2650386632,
				"z": 1.2153344002,
				"element": "C" 
			},
			{
				"x": -0.2849393594,
				"y": -3.8816742499,
				"z": 1.3706000722,
				"element": "C" 
			},
			{
				"x": 0.0886238148,
				"y": -2.5497113184,
				"z": 1.1921545666,
				"element": "C" 
			},
			{
				"x": 1.268939171,
				"y": -0.6376071202,
				"z": -1.1748076403,
				"element": "C" 
			},
			{
				"x": 2.6728941786,
				"y": -0.6622918878,
				"z": -1.146775827,
				"element": "C" 
			},
			{
				"x": 3.38819967,
				"y": -1.5255126493,
				"z": -1.976524094,
				"element": "C" 
			},
			{
				"x": 2.7129347736,
				"y": -2.3805713215,
				"z": -2.8495867068,
				"element": "C" 
			},
			{
				"x": 1.3171331431,
				"y": -2.3674989572,
				"z": -2.8849713759,
				"element": "C" 
			},
			{
				"x": 0.6011787315,
				"y": -1.5058349799,
				"z": -2.0540471146,
				"element": "C" 
			},
			{
				"x": 1.535099546,
				"y": 2.5170295065,
				"z": -1.1463672674,
				"element": "C" 
			},
			{
				"x": 2.2265086218,
				"y": 3.6124852489,
				"z": -0.5977664546,
				"element": "C" 
			},
			{
				"x": 3.003151483,
				"y": 4.4442346431,
				"z": -1.4032648754,
				"element": "C" 
			},
			{
				"x": 3.1090852274,
				"y": 4.1966935411,
				"z": -2.7726946927,
				"element": "C" 
			},
			{
				"x": 2.4265077344,
				"y": 3.1129582248,
				"z": -3.3302841614,
				"element": "C" 
			},
			{
				"x": 1.6441024997,
				"y": 2.2837295846,
				"z": -2.5295528545,
				"element": "C" 
			},
			{
				"x": -3.1039067285,
				"y": 2.594212616,
				"z": 1.7710169548,
				"element": "H" 
			},
			{
				"x": -4.7080108385,
				"y": 2.6304069412,
				"z": 3.6483755897,
				"element": "H" 
			},
			{
				"x": -4.560484065,
				"y": 0.9220398157,
				"z": 5.4526953316,
				"element": "H" 
			},
			{
				"x": -2.77196154,
				"y": -0.8058434887,
				"z": 5.3634796459,
				"element": "H" 
			},
			{
				"x": -1.1501943751,
				"y": -0.8229472414,
				"z": 3.5023274079,
				"element": "H" 
			},
			{
				"x": -2.9512235773,
				"y": -1.2308635101,
				"z": 0.4420477723,
				"element": "H" 
			},
			{
				"x": -3.6162487499,
				"y": -3.5955026678,
				"z": 0.7534774819,
				"element": "H" 
			},
			{
				"x": -1.90842285,
				"y": -5.3029000693,
				"z": 1.3527483576,
				"element": "H" 
			},
			{
				"x": 0.4677587893,
				"y": -4.6205629287,
				"z": 1.6309430859,
				"element": "H" 
			},
			{
				"x": 1.1276383186,
				"y": -2.2586572384,
				"z": 1.3110792845,
				"element": "H" 
			},
			{
				"x": 3.2007502319,
				"y": 0.0012218096,
				"z": -0.4686309226,
				"element": "H" 
			},
			{
				"x": 4.4739816667,
				"y": -1.5308421743,
				"z": -1.9390913482,
				"element": "H" 
			},
			{
				"x": 3.2697220101,
				"y": -3.0531830811,
				"z": -3.4958294225,
				"element": "H" 
			},
			{
				"x": 0.7828861766,
				"y": -3.0296432322,
				"z": -3.5605738134,
				"element": "H" 
			},
			{
				"x": -0.483936705,
				"y": -1.5028127861,
				"z": -2.0840511251,
				"element": "H" 
			},
			{
				"x": 2.1643967962,
				"y": 3.8015033118,
				"z": 0.4701029125,
				"element": "H" 
			},
			{
				"x": 3.5310240083,
				"y": 5.2825233514,
				"z": -0.957452788,
				"element": "H" 
			},
			{
				"x": 3.7158977072,
				"y": 4.8427935747,
				"z": -3.4004370537,
				"element": "H" 
			},
			{
				"x": 2.4954364383,
				"y": 2.9164701201,
				"z": -4.3965051566,
				"element": "H" 
			},
			{
				"x": 1.1051080588,
				"y": 1.4544388709,
				"z": -2.9738140332,
				"element": "H" 
			}
		],
		 "valence_orbital": [ 
			{
				"type": "occ",
				"energy": -0.24689,
				"method": "rhf"
			},
			{
				"type": "occ",
				"energy": -0.2441,
				"method": "rhf"
			},
			{
				"type": "occ",
				"energy": -0.24182,
				"method": "rhf"
			},
			{
				"type": "occ",
				"energy": -0.22123,
				"method": "rhf"
			},
			{
				"type": "occ",
				"energy": -0.20065,
				"method": "rhf"
			},
			{
				"type": "unocc",
				"energy": -0.04309,
				"method": "rhf"
			},
			{
				"type": "unocc",
				"energy": -0.01561,
				"method": "rhf"
			},
			{
				"type": "unocc",
				"energy": -0.00815,
				"method": "rhf"
			},
			{
				"type": "unocc",
				"energy": -0.00563,
				"method": "rhf"
			},
			{
				"type": "unocc",
				"energy": -0.00115,
				"method": "rhf"
			}
		],
		"cosmo_sigma_profile": { 
			"-0.025": 0.0,
			"-0.024": 0.0,
			"-0.023": 0.0,
			"-0.022": 0.0,
			"-0.021": 0.0,
			"-0.02": 0.0,
			"-0.019": 0.0,
			"-0.018": 0.0,
			"-0.017": 0.0,
			"-0.016": 0.0,
			"-0.015": 0.0,
			"-0.014": 0.0,
			"-0.013": 0.0,
			"-0.012": 0.0,
			"-0.011": 0.0,
			"-0.01": 0.0,
			"-0.009": 0.0,
			"-0.008": 0.0,
			"-0.007": 0.0114158451708,
			"-0.006": 14.4677925223,
			"-0.005": 35.6520093226,
			"-0.004": 42.4940520391,
			"-0.003": 41.2456711622,
			"-0.002": 30.8620462004,
			"-0.001": 33.1687333374,
			"0.0": 33.5352917273,
			"0.001": 34.4490610758,
			"0.002": 36.5508901374,
			"0.003": 41.0948060695,
			"0.004": 36.5493260609,
			"0.005": 37.4746138343,
			"0.006": 14.6524413631,
			"0.007": 0.00858780245874,
			"0.008": 0.0,
			"0.009": 0.0,
			"0.01": 0.0,
			"0.011": 0.0,
			"0.012": 0.0,
			"0.013": 0.0,
			"0.014": 0.0,
			"0.015": 0.0,
			"0.016": 0.0,
			"0.017": 0.0,
			"0.018": 0.0,
			"0.019": 0.0,
			"0.02": 0.0,
			"0.021": 0.0,
			"0.022": 0.0,
			"0.023": 0.0,
			"0.024": 0.0,
			"0.025": 0.0
		}
	}
}
