{
	 "smiles": "NC1=NN(CC2=CN=CC=C2)C=N1", 
	 "Tm": 386.15, 
	 "num_atms": 22, 
	 "gaussian": { 
		 "optdone": 1, 
		 "sigma_profile": "yes", 
		 "theory": "DFT", 
		 "functional": "B3LYP", 
		 "basiset": "6-31G**", 
		 "properties": { 
			 "R2extent": 2778.721, 
			 "electric_dipole_moment_norm": 2.87540998816, 
			 "electric_quadrupole_moment_norm": 15.1664659354, 
			 "total_energy": -584.013821703, 
			 "HOMO_LUMO_gap": 0.18325, 
			 "cosmo_polarized_energy": -17.68, 
			 "cosmo_cavitation_energy": 26.86, 
			 "cosmo_dispersion_energy": -19.5, 
			 "cosmo_repulsion_energy": 1.55, 
			 "cosmo_total_nonelectrostatic_energy": 8.92, 
			 "SMD_solvation_energy": 0.76 
		},
		"coords": [
			{
				"x": -2.9804528214,
				"y": -2.693861909,
				"z": 0.3052644464,
				"element": "N" 
			},
			{
				"x": -2.2105523824,
				"y": -1.6076843515,
				"z": 0.6706706606,
				"element": "C" 
			},
			{
				"x": -1.6638449625,
				"y": -0.7784136621,
				"z": -0.2156779399,
				"element": "N" 
			},
			{
				"x": -1.0796979831,
				"y": 0.1581859632,
				"z": 0.5982311698,
				"element": "N" 
			},
			{
				"x": -0.2824035479,
				"y": 1.2343837068,
				"z": 0.0269100139,
				"element": "C" 
			},
			{
				"x": 1.1266546999,
				"y": 0.8202933537,
				"z": -0.3538094704,
				"element": "C" 
			},
			{
				"x": 1.3526638402,
				"y": -0.1554400669,
				"z": -1.3367881003,
				"element": "C" 
			},
			{
				"x": 2.5675429094,
				"y": -0.5575054532,
				"z": -1.7230265232,
				"element": "N" 
			},
			{
				"x": 3.6251964581,
				"y": 0.0150653907,
				"z": -1.1318245705,
				"element": "C" 
			},
			{
				"x": 3.5186204244,
				"y": 0.9948378056,
				"z": -0.145681389,
				"element": "C" 
			},
			{
				"x": 2.2440767186,
				"y": 1.4010600799,
				"z": 0.2485312473,
				"element": "C" 
			},
			{
				"x": -1.2932281385,
				"y": -0.1688765928,
				"z": 1.8872174039,
				"element": "C" 
			},
			{
				"x": -2.0112577868,
				"y": -1.2760533029,
				"z": 1.9820135242,
				"element": "N" 
			},
			{
				"x": -3.0148999012,
				"y": -3.4126242217,
				"z": 1.0144136295,
				"element": "H" 
			},
			{
				"x": -2.7841726889,
				"y": -3.0478125258,
				"z": -0.6205190943,
				"element": "H" 
			},
			{
				"x": -0.2500848699,
				"y": 2.0446806376,
				"z": 0.7610589268,
				"element": "H" 
			},
			{
				"x": -0.8299357956,
				"y": 1.5991497527,
				"z": -0.8472369983,
				"element": "H" 
			},
			{
				"x": 0.5038923443,
				"y": -0.6367446936,
				"z": -1.8181153382,
				"element": "H" 
			},
			{
				"x": 4.6036498815,
				"y": -0.3266145625,
				"z": -1.4650039001,
				"element": "H" 
			},
			{
				"x": 4.4089051499,
				"y": 1.4260007008,
				"z": 0.3013286185,
				"element": "H" 
			},
			{
				"x": 2.120677383,
				"y": 2.163058662,
				"z": 1.0150009695,
				"element": "H" 
			},
			{
				"x": -0.921948931,
				"y": 0.4212152889,
				"z": 2.7144427139,
				"element": "H" 
			}
		],
		 "valence_orbital": [ 
			{
				"type": "occ",
				"energy": -0.27956,
				"method": "rhf"
			},
			{
				"type": "occ",
				"energy": -0.27115,
				"method": "rhf"
			},
			{
				"type": "occ",
				"energy": -0.26269,
				"method": "rhf"
			},
			{
				"type": "occ",
				"energy": -0.25508,
				"method": "rhf"
			},
			{
				"type": "occ",
				"energy": -0.2123,
				"method": "rhf"
			},
			{
				"type": "unocc",
				"energy": -0.02905,
				"method": "rhf"
			},
			{
				"type": "unocc",
				"energy": -0.02197,
				"method": "rhf"
			},
			{
				"type": "unocc",
				"energy": 0.01503,
				"method": "rhf"
			},
			{
				"type": "unocc",
				"energy": 0.07278,
				"method": "rhf"
			},
			{
				"type": "unocc",
				"energy": 0.08318,
				"method": "rhf"
			}
		],
		"cosmo_sigma_profile": { 
			"-0.025": 0.0,
			"-0.024": 0.0,
			"-0.023": 0.0,
			"-0.022": 0.0,
			"-0.021": 0.0,
			"-0.02": 0.0,
			"-0.019": 0.0,
			"-0.018": 0.0,
			"-0.017": 0.0,
			"-0.016": 0.0,
			"-0.015": 0.0,
			"-0.014": 0.0191751767355,
			"-0.013": 1.30934581249,
			"-0.012": 2.5010532737,
			"-0.011": 2.22014516651,
			"-0.01": 5.42808600667,
			"-0.009": 5.86964670739,
			"-0.008": 7.90188368424,
			"-0.007": 10.8020232133,
			"-0.006": 12.5489814472,
			"-0.005": 13.6504901025,
			"-0.004": 12.6880895495,
			"-0.003": 9.9982952506,
			"-0.002": 9.33521572059,
			"-0.001": 10.1437639839,
			"0.0": 10.9463580411,
			"0.001": 14.2308106107,
			"0.002": 18.2842922095,
			"0.003": 12.6843727489,
			"0.004": 7.02328700125,
			"0.005": 6.27983036502,
			"0.006": 4.91287850851,
			"0.007": 4.21051281014,
			"0.008": 5.71147399815,
			"0.009": 4.42473501565,
			"0.01": 3.91611499891,
			"0.011": 3.04417800021,
			"0.012": 3.95014147156,
			"0.013": 3.32617719667,
			"0.014": 3.00338237595,
			"0.015": 1.73040269966,
			"0.016": 1.96280947194,
			"0.017": 0.771962367868,
			"0.018": 0.0,
			"0.019": 0.0,
			"0.02": 0.0,
			"0.021": 0.0,
			"0.022": 0.0,
			"0.023": 0.0,
			"0.024": 0.0,
			"0.025": 0.0
		}
	}
}
