{
	 "smiles": "OC(=O)CNC(=O)OCC1C2=C(C=CC=C2)C2=C1C=CC=C2", 
	 "Tm": 449.15, 
	 "num_atms": 37, 
	 "gaussian": { 
		 "optdone": 1, 
		 "sigma_profile": "yes", 
		 "theory": "DFT", 
		 "functional": "B3LYP", 
		 "basiset": "6-31G**", 
		 "properties": { 
			 "R2extent": 6958.6831, 
			 "electric_dipole_moment_norm": 3.6142722006, 
			 "electric_quadrupole_moment_norm": 20.4983597529, 
			 "total_energy": -1012.53939747, 
			 "HOMO_LUMO_gap": 0.1842, 
			 "cosmo_polarized_energy": -21.54, 
			 "cosmo_cavitation_energy": 41.68, 
			 "cosmo_dispersion_energy": -27.4, 
			 "cosmo_repulsion_energy": 2.13, 
			 "cosmo_total_nonelectrostatic_energy": 16.4, 
			 "SMD_solvation_energy": 8.86 
		},
		"coords": [
			{
				"x": 2.9606780975,
				"y": 3.2361559298,
				"z": 0.7768215539,
				"element": "O" 
			},
			{
				"x": 3.3045644781,
				"y": 1.9968976983,
				"z": 0.3798610791,
				"element": "C" 
			},
			{
				"x": 4.0973195027,
				"y": 1.7915852048,
				"z": -0.5049939009,
				"element": "O" 
			},
			{
				"x": 2.5978818529,
				"y": 0.8513945583,
				"z": 1.1197133008,
				"element": "C" 
			},
			{
				"x": 1.8823627288,
				"y": 1.2808996925,
				"z": 2.3196935856,
				"element": "N" 
			},
			{
				"x": 0.523464909,
				"y": 1.1074779813,
				"z": 2.5311652388,
				"element": "C" 
			},
			{
				"x": 0.0114198788,
				"y": 1.1541591916,
				"z": 3.6314747394,
				"element": "O" 
			},
			{
				"x": -0.1293887871,
				"y": 0.9453299139,
				"z": 1.3581685461,
				"element": "O" 
			},
			{
				"x": -1.5441748676,
				"y": 0.6779120446,
				"z": 1.4283059959,
				"element": "C" 
			},
			{
				"x": -1.844789228,
				"y": -0.7446895498,
				"z": 0.9417768274,
				"element": "C" 
			},
			{
				"x": -1.1210922688,
				"y": -1.8413863254,
				"z": 1.7117902552,
				"element": "C" 
			},
			{
				"x": -0.3933698774,
				"y": -2.6592050074,
				"z": 0.8228877535,
				"element": "C" 
			},
			{
				"x": 0.3417651665,
				"y": -3.7454781223,
				"z": 1.3023847262,
				"element": "C" 
			},
			{
				"x": 0.3468072636,
				"y": -4.0019792999,
				"z": 2.6755911552,
				"element": "C" 
			},
			{
				"x": -0.369206795,
				"y": -3.1850856749,
				"z": 3.5571151718,
				"element": "C" 
			},
			{
				"x": -1.1095685216,
				"y": -2.0972687513,
				"z": 3.0785355485,
				"element": "C" 
			},
			{
				"x": -0.5791504109,
				"y": -2.1515860718,
				"z": -0.5440275106,
				"element": "C" 
			},
			{
				"x": -1.4245078245,
				"y": -1.0248230681,
				"z": -0.4944596561,
				"element": "C" 
			},
			{
				"x": -1.7694022024,
				"y": -0.3492980081,
				"z": -1.6593834571,
				"element": "C" 
			},
			{
				"x": -1.2608016406,
				"y": -0.8019865191,
				"z": -2.88256419,
				"element": "C" 
			},
			{
				"x": -0.4210725636,
				"y": -1.9197468355,
				"z": -2.9327487643,
				"element": "C" 
			},
			{
				"x": -0.0750108427,
				"y": -2.6041590856,
				"z": -1.7653376639,
				"element": "C" 
			},
			{
				"x": 2.3243333504,
				"y": 3.1376867445,
				"z": 1.5093555227,
				"element": "H" 
			},
			{
				"x": 3.3528138592,
				"y": 0.0974906649,
				"z": 1.359987497,
				"element": "H" 
			},
			{
				"x": 1.8909684529,
				"y": 0.3959223978,
				"z": 0.4239619123,
				"element": "H" 
			},
			{
				"x": 2.3901123865,
				"y": 1.247414534,
				"z": 3.1941612379,
				"element": "H" 
			},
			{
				"x": -2.0267018388,
				"y": 1.4153798149,
				"z": 0.7806298923,
				"element": "H" 
			},
			{
				"x": -1.8795532288,
				"y": 0.8281237563,
				"z": 2.455929254,
				"element": "H" 
			},
			{
				"x": -2.9341569954,
				"y": -0.8702759432,
				"z": 1.0429169112,
				"element": "H" 
			},
			{
				"x": 0.9015638848,
				"y": -4.3825823374,
				"z": 0.6232632236,
				"element": "H" 
			},
			{
				"x": 0.9139163973,
				"y": -4.8435071835,
				"z": 3.0632963337,
				"element": "H" 
			},
			{
				"x": -0.3505116497,
				"y": -3.3950785516,
				"z": 4.622472947,
				"element": "H" 
			},
			{
				"x": -1.6513977275,
				"y": -1.4602978193,
				"z": 3.771722741,
				"element": "H" 
			},
			{
				"x": -2.4236239403,
				"y": 0.5187263407,
				"z": -1.6309204881,
				"element": "H" 
			},
			{
				"x": -1.5199575855,
				"y": -0.2811940429,
				"z": -3.7996231149,
				"element": "H" 
			},
			{
				"x": -0.0342625017,
				"y": -2.2583591105,
				"z": -3.8895125765,
				"element": "H" 
			},
			{
				"x": 0.576329089,
				"y": -3.4724691608,
				"z": -1.8120116276,
				"element": "H" 
			}
		],
		 "valence_orbital": [ 
			{
				"type": "occ",
				"energy": -0.28717,
				"method": "rhf"
			},
			{
				"type": "occ",
				"energy": -0.2594,
				"method": "rhf"
			},
			{
				"type": "occ",
				"energy": -0.25602,
				"method": "rhf"
			},
			{
				"type": "occ",
				"energy": -0.25078,
				"method": "rhf"
			},
			{
				"type": "occ",
				"energy": -0.22156,
				"method": "rhf"
			},
			{
				"type": "unocc",
				"energy": -0.03736,
				"method": "rhf"
			},
			{
				"type": "unocc",
				"energy": -0.01966,
				"method": "rhf"
			},
			{
				"type": "unocc",
				"energy": 0.00184,
				"method": "rhf"
			},
			{
				"type": "unocc",
				"energy": 0.01317,
				"method": "rhf"
			},
			{
				"type": "unocc",
				"energy": 0.02832,
				"method": "rhf"
			}
		],
		"cosmo_sigma_profile": { 
			"-0.025": 0.0,
			"-0.024": 0.0,
			"-0.023": 0.0,
			"-0.022": 0.0,
			"-0.021": 0.0,
			"-0.02": 0.0,
			"-0.019": 0.0,
			"-0.018": 0.0,
			"-0.017": 0.0,
			"-0.016": 0.0813743824676,
			"-0.015": 1.59599494075,
			"-0.014": 2.12831577191,
			"-0.013": 2.39598498584,
			"-0.012": 1.95698865004,
			"-0.011": 2.55561241375,
			"-0.01": 3.55487149189,
			"-0.009": 2.78375239674,
			"-0.008": 4.45349878733,
			"-0.007": 7.09166822183,
			"-0.006": 22.7227956021,
			"-0.005": 29.200841126,
			"-0.004": 26.4307329074,
			"-0.003": 24.7220375669,
			"-0.002": 18.3236608658,
			"-0.001": 17.1501117157,
			"0.0": 14.7406444082,
			"0.001": 17.2490339991,
			"0.002": 18.5102853945,
			"0.003": 19.2354462673,
			"0.004": 19.8825060914,
			"0.005": 23.1029141192,
			"0.006": 12.9641195488,
			"0.007": 2.8997063274,
			"0.008": 4.60019647252,
			"0.009": 5.07443634009,
			"0.01": 6.32005539006,
			"0.011": 6.33130293526,
			"0.012": 9.85884571092,
			"0.013": 4.24479953649,
			"0.014": 0.0724827842139,
			"0.015": 0.0,
			"0.016": 0.0,
			"0.017": 0.0,
			"0.018": 0.0,
			"0.019": 0.0,
			"0.02": 0.0,
			"0.021": 0.0,
			"0.022": 0.0,
			"0.023": 0.0,
			"0.024": 0.0,
			"0.025": 0.0
		}
	}
}
