{
	 "smiles": "O=C(C1CCCCC1)N1CCNCC1", 
	 "Tm": 360.15, 
	 "num_atms": 34, 
	 "gaussian": { 
		 "optdone": 1, 
		 "sigma_profile": "yes", 
		 "theory": "DFT", 
		 "functional": "B3LYP", 
		 "basiset": "6-31G**", 
		 "properties": { 
			 "R2extent": 3679.4872, 
			 "electric_dipole_moment_norm": 3.12942650657, 
			 "electric_quadrupole_moment_norm": 7.62110447901, 
			 "total_energy": -615.951703756, 
			 "HOMO_LUMO_gap": 0.24758, 
			 "cosmo_polarized_energy": -12.11, 
			 "cosmo_cavitation_energy": 32.25, 
			 "cosmo_dispersion_energy": -23.5, 
			 "cosmo_repulsion_energy": 1.85, 
			 "cosmo_total_nonelectrostatic_energy": 10.61, 
			 "SMD_solvation_energy": 1.84 
		},
		"coords": [
			{
				"x": -1.4608123202,
				"y": 1.1132597094,
				"z": 2.066338979,
				"element": "O" 
			},
			{
				"x": -1.1950845116,
				"y": 0.4119498941,
				"z": 1.0902941949,
				"element": "C" 
			},
			{
				"x": 0.2539517082,
				"y": 0.3808912,
				"z": 0.5798746539,
				"element": "C" 
			},
			{
				"x": 0.4612013935,
				"y": 1.1879201091,
				"z": -0.7381560447,
				"element": "C" 
			},
			{
				"x": 1.7526608121,
				"y": 0.7673559337,
				"z": -1.4734036768,
				"element": "C" 
			},
			{
				"x": 2.8609835396,
				"y": 0.4052305243,
				"z": -0.475204659,
				"element": "C" 
			},
			{
				"x": 2.4699191321,
				"y": -0.8253810089,
				"z": 0.3843301965,
				"element": "C" 
			},
			{
				"x": 0.9375492453,
				"y": -1.0008280916,
				"z": 0.5068950004,
				"element": "C" 
			},
			{
				"x": -2.1805219692,
				"y": -0.320531638,
				"z": 0.4608778179,
				"element": "N" 
			},
			{
				"x": -2.0296014625,
				"y": -1.1940308568,
				"z": -0.705314299,
				"element": "C" 
			},
			{
				"x": -3.3538932991,
				"y": -1.2128693728,
				"z": -1.5200348143,
				"element": "C" 
			},
			{
				"x": -4.0876872826,
				"y": 0.0451974166,
				"z": -1.4549153637,
				"element": "N" 
			},
			{
				"x": -4.4932305553,
				"y": 0.3515182394,
				"z": -0.0710519245,
				"element": "C" 
			},
			{
				"x": -3.5442258377,
				"y": -0.2611797608,
				"z": 0.9871330181,
				"element": "C" 
			},
			{
				"x": 0.7667466407,
				"y": 0.9309739881,
				"z": 1.3746486535,
				"element": "H" 
			},
			{
				"x": 0.5072238874,
				"y": 2.2520312319,
				"z": -0.4806284301,
				"element": "H" 
			},
			{
				"x": -0.3972688586,
				"y": 1.081430422,
				"z": -1.4105960577,
				"element": "H" 
			},
			{
				"x": 2.078942139,
				"y": 1.5734184661,
				"z": -2.1401522433,
				"element": "H" 
			},
			{
				"x": 1.5528886109,
				"y": -0.0989861886,
				"z": -2.1181842341,
				"element": "H" 
			},
			{
				"x": 3.8040344273,
				"y": 0.2153571215,
				"z": -0.9991985634,
				"element": "H" 
			},
			{
				"x": 3.0431951352,
				"y": 1.2711381135,
				"z": 0.1741959251,
				"element": "H" 
			},
			{
				"x": 2.8969851844,
				"y": -1.7371137017,
				"z": -0.0494933839,
				"element": "H" 
			},
			{
				"x": 2.9097719418,
				"y": -0.7253217828,
				"z": 1.3833180822,
				"element": "H" 
			},
			{
				"x": 0.5701657463,
				"y": -1.5739346336,
				"z": -0.3493472004,
				"element": "H" 
			},
			{
				"x": 0.6984534058,
				"y": -1.5914418705,
				"z": 1.3983289584,
				"element": "H" 
			},
			{
				"x": -1.2249810154,
				"y": -0.8185582239,
				"z": -1.3388388854,
				"element": "H" 
			},
			{
				"x": -1.7599226469,
				"y": -2.219185326,
				"z": -0.4065084236,
				"element": "H" 
			},
			{
				"x": -3.1308110576,
				"y": -1.4571677723,
				"z": -2.563961924,
				"element": "H" 
			},
			{
				"x": -4.0130433145,
				"y": -2.006751631,
				"z": -1.1495371631,
				"element": "H" 
			},
			{
				"x": -3.4896684478,
				"y": 0.7924334113,
				"z": -1.7972713214,
				"element": "H" 
			},
			{
				"x": -4.5284950714,
				"y": 1.4395314283,
				"z": 0.0398876599,
				"element": "H" 
			},
			{
				"x": -5.5112728377,
				"y": -0.0236176272,
				"z": 0.10263781,
				"element": "H" 
			},
			{
				"x": -3.8667461711,
				"y": -1.27864838,
				"z": 1.2476600769,
				"element": "H" 
			},
			{
				"x": -3.5215062907,
				"y": 0.3315106574,
				"z": 1.9004775858,
				"element": "H" 
			}
		],
		 "valence_orbital": [ 
			{
				"type": "occ",
				"energy": -0.30234,
				"method": "rhf"
			},
			{
				"type": "occ",
				"energy": -0.30074,
				"method": "rhf"
			},
			{
				"type": "occ",
				"energy": -0.23957,
				"method": "rhf"
			},
			{
				"type": "occ",
				"energy": -0.23291,
				"method": "rhf"
			},
			{
				"type": "occ",
				"energy": -0.21759,
				"method": "rhf"
			},
			{
				"type": "unocc",
				"energy": 0.02999,
				"method": "rhf"
			},
			{
				"type": "unocc",
				"energy": 0.05766,
				"method": "rhf"
			},
			{
				"type": "unocc",
				"energy": 0.08,
				"method": "rhf"
			},
			{
				"type": "unocc",
				"energy": 0.09753,
				"method": "rhf"
			},
			{
				"type": "unocc",
				"energy": 0.10277,
				"method": "rhf"
			}
		],
		"cosmo_sigma_profile": { 
			"-0.025": 0.0,
			"-0.024": 0.0,
			"-0.023": 0.0,
			"-0.022": 0.0,
			"-0.021": 0.0,
			"-0.02": 0.0,
			"-0.019": 0.0,
			"-0.018": 0.0,
			"-0.017": 0.0,
			"-0.016": 0.0,
			"-0.015": 0.0,
			"-0.014": 0.0,
			"-0.013": 0.0,
			"-0.012": 0.0,
			"-0.011": 0.0,
			"-0.01": 0.379826299764,
			"-0.009": 1.41555673348,
			"-0.008": 1.3270857382,
			"-0.007": 1.74854106579,
			"-0.006": 2.96721128408,
			"-0.005": 9.49166393872,
			"-0.004": 21.3088000203,
			"-0.003": 31.6162032449,
			"-0.002": 42.087619644,
			"-0.001": 39.9832144183,
			"0.0": 29.5515831622,
			"0.001": 21.3175308504,
			"0.002": 7.14875442967,
			"0.003": 3.52207259495,
			"0.004": 2.29976870407,
			"0.005": 2.37460591051,
			"0.006": 3.03971914133,
			"0.007": 1.90890090139,
			"0.008": 2.43493708108,
			"0.009": 2.44439248394,
			"0.01": 1.78183256102,
			"0.011": 1.81222994155,
			"0.012": 2.47147016945,
			"0.013": 2.81123668293,
			"0.014": 5.05789384439,
			"0.015": 3.73338379582,
			"0.016": 0.992414470808,
			"0.017": 0.561454443222,
			"0.018": 0.687627569386,
			"0.019": 0.0120563953924,
			"0.02": 0.0,
			"0.021": 0.0,
			"0.022": 0.0,
			"0.023": 0.0,
			"0.024": 0.0,
			"0.025": 0.0
		}
	}
}
