{
	 "smiles": "ClS(=O)(=O)N1CCN(CC1)C=O", 
	 "Tm": 377.15, 
	 "num_atms": 21, 
	 "gaussian": { 
		 "optdone": 1, 
		 "sigma_profile": "yes", 
		 "theory": "DFT", 
		 "functional": "B3LYP", 
		 "basiset": "6-31G**", 
		 "properties": { 
			 "R2extent": 3317.9508, 
			 "electric_dipole_moment_norm": 3.66990694841, 
			 "electric_quadrupole_moment_norm": 22.0419239058, 
			 "total_energy": -1389.43427605, 
			 "HOMO_LUMO_gap": 0.1775, 
			 "cosmo_polarized_energy": -17.43, 
			 "cosmo_cavitation_energy": 27.0, 
			 "cosmo_dispersion_energy": -20.28, 
			 "cosmo_repulsion_energy": 1.56, 
			 "cosmo_total_nonelectrostatic_energy": 8.28, 
			 "SMD_solvation_energy": 2.8 
		},
		"coords": [
			{
				"x": 1.0412229663,
				"y": 2.6054223014,
				"z": 1.127192308,
				"element": "Cl" 
			},
			{
				"x": 1.6771675138,
				"y": 0.917022906,
				"z": 2.3053530604,
				"element": "S" 
			},
			{
				"x": 0.9667407581,
				"y": 1.0428404765,
				"z": 3.5659797903,
				"element": "O" 
			},
			{
				"x": 3.1252993777,
				"y": 0.8982196419,
				"z": 2.1938178056,
				"element": "O" 
			},
			{
				"x": 1.0840005406,
				"y": -0.3850109613,
				"z": 1.4863070716,
				"element": "N" 
			},
			{
				"x": 1.7807484599,
				"y": -0.7434270209,
				"z": 0.2275870265,
				"element": "C" 
			},
			{
				"x": 1.0391507662,
				"y": -1.9116909169,
				"z": -0.4181804273,
				"element": "C" 
			},
			{
				"x": -0.3322462407,
				"y": -1.5271904437,
				"z": -0.7330632503,
				"element": "N" 
			},
			{
				"x": -1.0274025726,
				"y": -0.6173705074,
				"z": 0.1824977327,
				"element": "C" 
			},
			{
				"x": -0.3735895847,
				"y": -0.6624734716,
				"z": 1.5601147747,
				"element": "C" 
			},
			{
				"x": -0.9784448968,
				"y": -1.9572681166,
				"z": -1.857035398,
				"element": "C" 
			},
			{
				"x": -2.1235944911,
				"y": -1.6580593329,
				"z": -2.1482754969,
				"element": "O" 
			},
			{
				"x": 2.8081867138,
				"y": -1.0220837853,
				"z": 0.4677895795,
				"element": "H" 
			},
			{
				"x": 1.8008648248,
				"y": 0.1096095914,
				"z": -0.4633564974,
				"element": "H" 
			},
			{
				"x": 1.0718919067,
				"y": -2.7803482735,
				"z": 0.2546383704,
				"element": "H" 
			},
			{
				"x": 1.5551080098,
				"y": -2.1928399133,
				"z": -1.3409315875,
				"element": "H" 
			},
			{
				"x": -1.0134752396,
				"y": 0.4063382016,
				"z": -0.2120210113,
				"element": "H" 
			},
			{
				"x": -2.0747677154,
				"y": -0.9239452184,
				"z": 0.2502211537,
				"element": "H" 
			},
			{
				"x": -0.5000372246,
				"y": -1.6503293624,
				"z": 2.0161013085,
				"element": "H" 
			},
			{
				"x": -0.8398341191,
				"y": 0.0632534,
				"z": 2.2275582176,
				"element": "H" 
			},
			{
				"x": -0.344589753,
				"y": -2.6158691945,
				"z": -2.4835945309,
				"element": "H" 
			}
		],
		 "valence_orbital": [ 
			{
				"type": "occ",
				"energy": -0.33826,
				"method": "rhf"
			},
			{
				"type": "occ",
				"energy": -0.32037,
				"method": "rhf"
			},
			{
				"type": "occ",
				"energy": -0.29551,
				"method": "rhf"
			},
			{
				"type": "occ",
				"energy": -0.26947,
				"method": "rhf"
			},
			{
				"type": "occ",
				"energy": -0.26359,
				"method": "rhf"
			},
			{
				"type": "unocc",
				"energy": -0.08609,
				"method": "rhf"
			},
			{
				"type": "unocc",
				"energy": 0.00613,
				"method": "rhf"
			},
			{
				"type": "unocc",
				"energy": 0.04293,
				"method": "rhf"
			},
			{
				"type": "unocc",
				"energy": 0.05353,
				"method": "rhf"
			},
			{
				"type": "unocc",
				"energy": 0.06307,
				"method": "rhf"
			}
		],
		"cosmo_sigma_profile": { 
			"-0.025": 0.0,
			"-0.024": 0.0,
			"-0.023": 0.0,
			"-0.022": 0.0,
			"-0.021": 0.0,
			"-0.02": 0.0,
			"-0.019": 0.0,
			"-0.018": 0.0,
			"-0.017": 0.0,
			"-0.016": 0.0,
			"-0.015": 0.0,
			"-0.014": 0.0,
			"-0.013": 0.0,
			"-0.012": 0.0,
			"-0.011": 0.0,
			"-0.01": 0.00888148715821,
			"-0.009": 1.53811097482,
			"-0.008": 8.9313443803,
			"-0.007": 18.8914763581,
			"-0.006": 21.3269009268,
			"-0.005": 17.7574729326,
			"-0.004": 14.1034518353,
			"-0.003": 9.39587911533,
			"-0.002": 9.54139995074,
			"-0.001": 11.0052559529,
			"0.0": 10.136361509,
			"0.001": 8.36026147949,
			"0.002": 11.4280041904,
			"0.003": 9.55188758642,
			"0.004": 13.5109012848,
			"0.005": 6.64542556529,
			"0.006": 4.80957371501,
			"0.007": 7.85735451476,
			"0.008": 11.9931984126,
			"0.009": 4.50600562598,
			"0.01": 1.45102416048,
			"0.011": 1.80066737969,
			"0.012": 2.08896185013,
			"0.013": 5.36629766142,
			"0.014": 3.21125276065,
			"0.015": 0.544000277779,
			"0.016": 0.0,
			"0.017": 0.0,
			"0.018": 0.0,
			"0.019": 0.0,
			"0.02": 0.0,
			"0.021": 0.0,
			"0.022": 0.0,
			"0.023": 0.0,
			"0.024": 0.0,
			"0.025": 0.0
		}
	}
}
