{
	 "smiles": "ClS(=O)(=O)C=CC1=CC=CC=C1", 
	 "Tm": 357.15, 
	 "num_atms": 19, 
	 "gaussian": { 
		 "optdone": 1, 
		 "sigma_profile": "yes", 
		 "theory": "DFT", 
		 "functional": "B3LYP", 
		 "basiset": "6-31G**", 
		 "properties": { 
			 "R2extent": 4153.1314, 
			 "electric_dipole_moment_norm": 5.76342587443, 
			 "electric_quadrupole_moment_norm": 20.6048690095, 
			 "total_energy": -1317.80439961, 
			 "HOMO_LUMO_gap": 0.16204, 
			 "cosmo_polarized_energy": -10.93, 
			 "cosmo_cavitation_energy": 26.68, 
			 "cosmo_dispersion_energy": -19.99, 
			 "cosmo_repulsion_energy": 1.54, 
			 "cosmo_total_nonelectrostatic_energy": 8.23, 
			 "SMD_solvation_energy": 3.57 
		},
		"coords": [
			{
				"x": -0.4097088913,
				"y": -4.0283411359,
				"z": -0.2902083788,
				"element": "Cl" 
			},
			{
				"x": 1.6254276798,
				"y": -3.4160132613,
				"z": -0.5913208469,
				"element": "S" 
			},
			{
				"x": 2.2292066653,
				"y": -4.4189330077,
				"z": -1.4588969388,
				"element": "O" 
			},
			{
				"x": 2.1532814165,
				"y": -3.1482659174,
				"z": 0.7437333794,
				"element": "O" 
			},
			{
				"x": 1.4361077011,
				"y": -1.9467718405,
				"z": -1.5614306817,
				"element": "C" 
			},
			{
				"x": 1.0039225027,
				"y": -0.7138542835,
				"z": -1.2279105759,
				"element": "C" 
			},
			{
				"x": 0.4812786516,
				"y": -0.0576536893,
				"z": -0.0322196686,
				"element": "C" 
			},
			{
				"x": 0.0760602371,
				"y": 1.2853419533,
				"z": -0.1937702343,
				"element": "C" 
			},
			{
				"x": -0.4569893789,
				"y": 2.0110949419,
				"z": 0.8657657518,
				"element": "C" 
			},
			{
				"x": -0.5949875099,
				"y": 1.4076654923,
				"z": 2.1173310464,
				"element": "C" 
			},
			{
				"x": -0.1940736078,
				"y": 0.0810337104,
				"z": 2.2968508524,
				"element": "C" 
			},
			{
				"x": 0.3395218601,
				"y": -0.6500192731,
				"z": 1.2398612468,
				"element": "C" 
			},
			{
				"x": 1.7250335633,
				"y": -2.1764572551,
				"z": -2.5809920207,
				"element": "H" 
			},
			{
				"x": 1.0384279725,
				"y": -0.0408143555,
				"z": -2.085590012,
				"element": "H" 
			},
			{
				"x": 0.1797668499,
				"y": 1.7566472738,
				"z": -1.1676352024,
				"element": "H" 
			},
			{
				"x": -0.7630873654,
				"y": 3.0419725568,
				"z": 0.7166918857,
				"element": "H" 
			},
			{
				"x": -1.0096931675,
				"y": 1.9685005289,
				"z": 2.9498142798,
				"element": "H" 
			},
			{
				"x": -0.2942303809,
				"y": -0.3892532125,
				"z": 3.270235195,
				"element": "H" 
			},
			{
				"x": 0.662535202,
				"y": -1.6667792255,
				"z": 1.4118909229,
				"element": "H" 
			}
		],
		 "valence_orbital": [ 
			{
				"type": "occ",
				"energy": -0.33022,
				"method": "rhf"
			},
			{
				"type": "occ",
				"energy": -0.31991,
				"method": "rhf"
			},
			{
				"type": "occ",
				"energy": -0.30994,
				"method": "rhf"
			},
			{
				"type": "occ",
				"energy": -0.2732,
				"method": "rhf"
			},
			{
				"type": "occ",
				"energy": -0.26127,
				"method": "rhf"
			},
			{
				"type": "unocc",
				"energy": -0.09923,
				"method": "rhf"
			},
			{
				"type": "unocc",
				"energy": -0.06109,
				"method": "rhf"
			},
			{
				"type": "unocc",
				"energy": -0.02201,
				"method": "rhf"
			},
			{
				"type": "unocc",
				"energy": 0.01468,
				"method": "rhf"
			},
			{
				"type": "unocc",
				"energy": 0.04667,
				"method": "rhf"
			}
		],
		"cosmo_sigma_profile": { 
			"-0.025": 0.0,
			"-0.024": 0.0,
			"-0.023": 0.0,
			"-0.022": 0.0,
			"-0.021": 0.0,
			"-0.02": 0.0,
			"-0.019": 0.0,
			"-0.018": 0.0,
			"-0.017": 0.0,
			"-0.016": 0.0,
			"-0.015": 0.0,
			"-0.014": 0.0,
			"-0.013": 0.0,
			"-0.012": 0.0,
			"-0.011": 0.537082077897,
			"-0.01": 2.64993406938,
			"-0.009": 5.10273067301,
			"-0.008": 5.04917303684,
			"-0.007": 7.7040239664,
			"-0.006": 11.4350444775,
			"-0.005": 12.9356788808,
			"-0.004": 11.5293242528,
			"-0.003": 10.0001492501,
			"-0.002": 10.0182693174,
			"-0.001": 14.0900100391,
			"0.0": 17.3873432811,
			"0.001": 17.0535010197,
			"0.002": 19.5630388907,
			"0.003": 27.2073371982,
			"0.004": 16.8381262511,
			"0.005": 3.52197105022,
			"0.006": 3.94800445343,
			"0.007": 4.30378564281,
			"0.008": 9.51304540584,
			"0.009": 6.41071820111,
			"0.01": 0.433876401378,
			"0.011": 0.0,
			"0.012": 0.0,
			"0.013": 0.0,
			"0.014": 0.0,
			"0.015": 0.0,
			"0.016": 0.0,
			"0.017": 0.0,
			"0.018": 0.0,
			"0.019": 0.0,
			"0.02": 0.0,
			"0.021": 0.0,
			"0.022": 0.0,
			"0.023": 0.0,
			"0.024": 0.0,
			"0.025": 0.0
		}
	}
}
