{
	 "smiles": "CN(C)S(=O)(=O)C1=C(Cl)C=CC(=C1)C(O)=O", 
	 "Tm": 513.15, 
	 "num_atms": 26, 
	 "gaussian": { 
		 "optdone": 1, 
		 "sigma_profile": "yes", 
		 "theory": "DFT", 
		 "functional": "B3LYP", 
		 "basiset": "6-31G**", 
		 "properties": { 
			 "R2extent": 4672.9459, 
			 "electric_dipole_moment_norm": 3.90283003217, 
			 "electric_quadrupole_moment_norm": 19.3630322894, 
			 "total_energy": -1562.9343724, 
			 "HOMO_LUMO_gap": 0.18689, 
			 "cosmo_polarized_energy": -20.09, 
			 "cosmo_cavitation_energy": 33.06, 
			 "cosmo_dispersion_energy": -23.71, 
			 "cosmo_repulsion_energy": 1.79, 
			 "cosmo_total_nonelectrostatic_energy": 11.14, 
			 "SMD_solvation_energy": 6.18 
		},
		"coords": [
			{
				"x": 1.7495032168,
				"y": 0.6826044285,
				"z": -3.3082088406,
				"element": "C" 
			},
			{
				"x": 1.1921828891,
				"y": -0.0997035691,
				"z": -2.1967145142,
				"element": "N" 
			},
			{
				"x": 1.6878687246,
				"y": -1.4770468614,
				"z": -2.096767094,
				"element": "C" 
			},
			{
				"x": 1.0391658195,
				"y": 0.7064485991,
				"z": -0.7240740862,
				"element": "S" 
			},
			{
				"x": 0.9069810697,
				"y": 2.1348035736,
				"z": -1.0076319067,
				"element": "O" 
			},
			{
				"x": 2.044386,
				"y": 0.230088229,
				"z": 0.2372547018,
				"element": "O" 
			},
			{
				"x": -0.5455850763,
				"y": 0.0732015842,
				"z": -0.116807388,
				"element": "C" 
			},
			{
				"x": -1.7756455933,
				"y": 0.2712965561,
				"z": -0.7633871203,
				"element": "C" 
			},
			{
				"x": -1.9133189246,
				"y": 1.1215250288,
				"z": -2.2775035695,
				"element": "Cl" 
			},
			{
				"x": -2.9488809243,
				"y": -0.2334800647,
				"z": -0.1929656898,
				"element": "C" 
			},
			{
				"x": -2.902265974,
				"y": -0.9186873048,
				"z": 1.0147394388,
				"element": "C" 
			},
			{
				"x": -1.685511942,
				"y": -1.0980127939,
				"z": 1.684500858,
				"element": "C" 
			},
			{
				"x": -0.513688045,
				"y": -0.6063732035,
				"z": 1.1032396589,
				"element": "C" 
			},
			{
				"x": -1.7067693896,
				"y": -1.8536970781,
				"z": 2.982154779,
				"element": "C" 
			},
			{
				"x": -0.6284683878,
				"y": -1.7234892362,
				"z": 3.7932759698,
				"element": "O" 
			},
			{
				"x": -2.6339593603,
				"y": -2.5562353408,
				"z": 3.3089589117,
				"element": "O" 
			},
			{
				"x": 1.3209434699,
				"y": 1.6834217192,
				"z": -3.2996438086,
				"element": "H" 
			},
			{
				"x": 2.844624639,
				"y": 0.7580233975,
				"z": -3.2618881115,
				"element": "H" 
			},
			{
				"x": 1.4677621677,
				"y": 0.1818676574,
				"z": -4.2388360927,
				"element": "H" 
			},
			{
				"x": 1.1456821772,
				"y": -2.0174274637,
				"z": -1.3179350681,
				"element": "H" 
			},
			{
				"x": 2.761912826,
				"y": -1.5256164504,
				"z": -1.8776192268,
				"element": "H" 
			},
			{
				"x": 1.490324811,
				"y": -1.9726167023,
				"z": -3.0510697365,
				"element": "H" 
			},
			{
				"x": -3.8913845867,
				"y": -0.0820537683,
				"z": -0.7070503975,
				"element": "H" 
			},
			{
				"x": -3.8046011068,
				"y": -1.3242603232,
				"z": 1.4591097615,
				"element": "H" 
			},
			{
				"x": 0.4629865736,
				"y": -0.7547956056,
				"z": 1.5534739098,
				"element": "H" 
			},
			{
				"x": -0.0420450735,
				"y": -1.0189850076,
				"z": 3.4841946618,
				"element": "H" 
			}
		],
		 "valence_orbital": [ 
			{
				"type": "occ",
				"energy": -0.31306,
				"method": "rhf"
			},
			{
				"type": "occ",
				"energy": -0.2997,
				"method": "rhf"
			},
			{
				"type": "occ",
				"energy": -0.28867,
				"method": "rhf"
			},
			{
				"type": "occ",
				"energy": -0.27795,
				"method": "rhf"
			},
			{
				"type": "occ",
				"energy": -0.26353,
				"method": "rhf"
			},
			{
				"type": "unocc",
				"energy": -0.07664,
				"method": "rhf"
			},
			{
				"type": "unocc",
				"energy": -0.05761,
				"method": "rhf"
			},
			{
				"type": "unocc",
				"energy": -0.00014,
				"method": "rhf"
			},
			{
				"type": "unocc",
				"energy": 0.01922,
				"method": "rhf"
			},
			{
				"type": "unocc",
				"energy": 0.05405,
				"method": "rhf"
			}
		],
		"cosmo_sigma_profile": { 
			"-0.025": 0.0,
			"-0.024": 0.0,
			"-0.023": 0.0,
			"-0.022": 0.0,
			"-0.021": 0.0,
			"-0.02": 0.292868486105,
			"-0.019": 1.12201180414,
			"-0.018": 0.739106159169,
			"-0.017": 1.15230179119,
			"-0.016": 0.886061236648,
			"-0.015": 0.731343613499,
			"-0.014": 1.36153917842,
			"-0.013": 0.987742378659,
			"-0.012": 1.13039011078,
			"-0.011": 1.02593211452,
			"-0.01": 0.756093267509,
			"-0.009": 2.2094768157,
			"-0.008": 4.28369998971,
			"-0.007": 6.21520497671,
			"-0.006": 11.8112057726,
			"-0.005": 18.8977844147,
			"-0.004": 21.3487455128,
			"-0.003": 25.083415172,
			"-0.002": 24.5260034754,
			"-0.001": 22.0275264898,
			"0.0": 16.4919918625,
			"0.001": 10.2378390449,
			"0.002": 10.999934341,
			"0.003": 11.275289658,
			"0.004": 8.02139259426,
			"0.005": 6.46116293402,
			"0.006": 5.45505094131,
			"0.007": 6.24607970429,
			"0.008": 6.85668673966,
			"0.009": 9.05182939906,
			"0.01": 12.970628614,
			"0.011": 11.2943848572,
			"0.012": 3.2574255454,
			"0.013": 0.574890008325,
			"0.014": 0.0,
			"0.015": 0.0,
			"0.016": 0.0,
			"0.017": 0.0,
			"0.018": 0.0,
			"0.019": 0.0,
			"0.02": 0.0,
			"0.021": 0.0,
			"0.022": 0.0,
			"0.023": 0.0,
			"0.024": 0.0,
			"0.025": 0.0
		}
	}
}
