{
	 "smiles": "CC1=C(F)C=CC(=C1)C(N)=S", 
	 "Tm": 363.15, 
	 "num_atms": 19, 
	 "gaussian": { 
		 "optdone": 1, 
		 "sigma_profile": "yes", 
		 "theory": "DFT", 
		 "functional": "B3LYP", 
		 "basiset": "6-31G**", 
		 "properties": { 
			 "R2extent": 2410.2923, 
			 "electric_dipole_moment_norm": 4.48944262242, 
			 "electric_quadrupole_moment_norm": 12.6490393216, 
			 "total_energy": -862.464134384, 
			 "HOMO_LUMO_gap": 0.14802, 
			 "cosmo_polarized_energy": -14.58, 
			 "cosmo_cavitation_energy": 25.09, 
			 "cosmo_dispersion_energy": -18.73, 
			 "cosmo_repulsion_energy": 1.44, 
			 "cosmo_total_nonelectrostatic_energy": 7.8, 
			 "SMD_solvation_energy": 3.95 
		},
		"coords": [
			{
				"x": 2.8390444736,
				"y": -1.4929673507,
				"z": 1.1578919515,
				"element": "C" 
			},
			{
				"x": 1.4210593278,
				"y": -1.0260893151,
				"z": 0.9522295088,
				"element": "C" 
			},
			{
				"x": 0.4367378896,
				"y": -1.3173649044,
				"z": 1.9000637453,
				"element": "C" 
			},
			{
				"x": 0.8005376506,
				"y": -2.0069940378,
				"z": 3.0027182068,
				"element": "F" 
			},
			{
				"x": -0.8923943758,
				"y": -0.9396852887,
				"z": 1.7541085624,
				"element": "C" 
			},
			{
				"x": -1.2710191572,
				"y": -0.235002871,
				"z": 0.616369854,
				"element": "C" 
			},
			{
				"x": -0.3198768329,
				"y": 0.1021172418,
				"z": -0.3584075729,
				"element": "C" 
			},
			{
				"x": 1.0145573015,
				"y": -0.3051944308,
				"z": -0.172914482,
				"element": "C" 
			},
			{
				"x": -0.7278981309,
				"y": 0.8692132148,
				"z": -1.5666929064,
				"element": "C" 
			},
			{
				"x": 0.2414050714,
				"y": 1.6428491561,
				"z": -2.1115993632,
				"element": "N" 
			},
			{
				"x": -2.24938547,
				"y": 0.7798809458,
				"z": -2.2480013004,
				"element": "S" 
			},
			{
				"x": 3.4758311372,
				"y": -1.1880022399,
				"z": 0.3239288762,
				"element": "H" 
			},
			{
				"x": 2.8889287314,
				"y": -2.583509352,
				"z": 1.2447799689,
				"element": "H" 
			},
			{
				"x": 3.2623194455,
				"y": -1.0821759491,
				"z": 2.0807776959,
				"element": "H" 
			},
			{
				"x": -1.6076561381,
				"y": -1.201581776,
				"z": 2.5261458412,
				"element": "H" 
			},
			{
				"x": -2.3021417304,
				"y": 0.0646471535,
				"z": 0.4678257373,
				"element": "H" 
			},
			{
				"x": 1.7533389134,
				"y": -0.1009331155,
				"z": -0.9431177506,
				"element": "H" 
			},
			{
				"x": -0.0002144604,
				"y": 2.2043300745,
				"z": -2.9151446673,
				"element": "H" 
			},
			{
				"x": 1.0713263538,
				"y": 1.8839628444,
				"z": -1.5902619056,
				"element": "H" 
			}
		],
		 "valence_orbital": [ 
			{
				"type": "occ",
				"energy": -0.34666,
				"method": "rhf"
			},
			{
				"type": "occ",
				"energy": -0.26672,
				"method": "rhf"
			},
			{
				"type": "occ",
				"energy": -0.25729,
				"method": "rhf"
			},
			{
				"type": "occ",
				"energy": -0.2289,
				"method": "rhf"
			},
			{
				"type": "occ",
				"energy": -0.2076,
				"method": "rhf"
			},
			{
				"type": "unocc",
				"energy": -0.05958,
				"method": "rhf"
			},
			{
				"type": "unocc",
				"energy": -0.01909,
				"method": "rhf"
			},
			{
				"type": "unocc",
				"energy": 0.02104,
				"method": "rhf"
			},
			{
				"type": "unocc",
				"energy": 0.06955,
				"method": "rhf"
			},
			{
				"type": "unocc",
				"energy": 0.09043,
				"method": "rhf"
			}
		],
		"cosmo_sigma_profile": { 
			"-0.025": 0.0,
			"-0.024": 0.0,
			"-0.023": 0.0,
			"-0.022": 0.0,
			"-0.021": 0.0,
			"-0.02": 0.0,
			"-0.019": 0.0,
			"-0.018": 0.0,
			"-0.017": 0.0,
			"-0.016": 0.16358678498,
			"-0.015": 1.70312978058,
			"-0.014": 2.42219498028,
			"-0.013": 2.01586792724,
			"-0.012": 2.94004319636,
			"-0.011": 2.88625392423,
			"-0.01": 1.81181158431,
			"-0.009": 1.83097351221,
			"-0.008": 2.88611329662,
			"-0.007": 5.44106305336,
			"-0.006": 4.89422056034,
			"-0.005": 11.1621053093,
			"-0.004": 8.96086752488,
			"-0.003": 11.2909577845,
			"-0.002": 12.0956705646,
			"-0.001": 17.135989582,
			"0.0": 17.959679331,
			"0.001": 14.9473860703,
			"0.002": 13.7314555904,
			"0.003": 14.9471677679,
			"0.004": 14.6282632583,
			"0.005": 5.22973561389,
			"0.006": 4.52227708987,
			"0.007": 4.45886190482,
			"0.008": 6.38402736942,
			"0.009": 6.44919986054,
			"0.01": 4.59919127618,
			"0.011": 3.52142879969,
			"0.012": 1.71671441272,
			"0.013": 0.0316758263825,
			"0.014": 0.0,
			"0.015": 0.0,
			"0.016": 0.0,
			"0.017": 0.0,
			"0.018": 0.0,
			"0.019": 0.0,
			"0.02": 0.0,
			"0.021": 0.0,
			"0.022": 0.0,
			"0.023": 0.0,
			"0.024": 0.0,
			"0.025": 0.0
		}
	}
}
