{
	 "smiles": "C=CC1CCC=CC1", 
	 "Tm": 164.15, 
	 "num_atms": 20, 
	 "gaussian": { 
		 "optdone": 1, 
		 "sigma_profile": "yes", 
		 "theory": "DFT", 
		 "functional": "B3LYP", 
		 "basiset": "6-31G**", 
		 "properties": { 
			 "R2extent": 1654.0981, 
			 "electric_dipole_moment_norm": 0.323059406302, 
			 "electric_quadrupole_moment_norm": 1.21853385263, 
			 "total_energy": -312.049713032, 
			 "HOMO_LUMO_gap": 0.25832, 
			 "cosmo_polarized_energy": -2.09, 
			 "cosmo_cavitation_energy": 21.51, 
			 "cosmo_dispersion_energy": -15.79, 
			 "cosmo_repulsion_energy": 1.32, 
			 "cosmo_total_nonelectrostatic_energy": 7.04, 
			 "SMD_solvation_energy": 3.86 
		},
		"coords": [
			{
				"x": 1.5370600125,
				"y": -2.3513387115,
				"z": 0.1318670759,
				"element": "C" 
			},
			{
				"x": 0.76660128,
				"y": -1.512844884,
				"z": 0.8258747034,
				"element": "C" 
			},
			{
				"x": 1.1088466931,
				"y": -0.0726325325,
				"z": 1.1228358498,
				"element": "C" 
			},
			{
				"x": 1.4064342467,
				"y": 0.1533611762,
				"z": 2.6251507997,
				"element": "C" 
			},
			{
				"x": 0.1800354321,
				"y": -0.1215840871,
				"z": 3.5102359295,
				"element": "C" 
			},
			{
				"x": -1.0811318691,
				"y": 0.4677813638,
				"z": 2.9302352742,
				"element": "C" 
			},
			{
				"x": -1.1717393745,
				"y": 0.9185136767,
				"z": 1.6745745707,
				"element": "C" 
			},
			{
				"x": -0.0324718349,
				"y": 0.8776663851,
				"z": 0.6844991267,
				"element": "C" 
			},
			{
				"x": 2.4939290155,
				"y": -2.0383763892,
				"z": -0.2811030086,
				"element": "H" 
			},
			{
				"x": 1.2431570194,
				"y": -3.3809130064,
				"z": -0.05170198,
				"element": "H" 
			},
			{
				"x": -0.1884035195,
				"y": -1.8685725526,
				"z": 1.2133558805,
				"element": "H" 
			},
			{
				"x": 2.0119992731,
				"y": 0.1804317853,
				"z": 0.5532742268,
				"element": "H" 
			},
			{
				"x": 2.2486389427,
				"y": -0.473494412,
				"z": 2.9375114792,
				"element": "H" 
			},
			{
				"x": 1.7159332064,
				"y": 1.1981249269,
				"z": 2.7588612165,
				"element": "H" 
			},
			{
				"x": 0.3501097808,
				"y": 0.283620138,
				"z": 4.5164670734,
				"element": "H" 
			},
			{
				"x": 0.0468970693,
				"y": -1.204539606,
				"z": 3.6535603965,
				"element": "H" 
			},
			{
				"x": -1.9520427577,
				"y": 0.5177877452,
				"z": 3.5821236314,
				"element": "H" 
			},
			{
				"x": -2.1108303165,
				"y": 1.3456886316,
				"z": 1.3258869502,
				"element": "H" 
			},
			{
				"x": -0.407264674,
				"y": 0.5770303869,
				"z": -0.3023723438,
				"element": "H" 
			},
			{
				"x": 0.3697423746,
				"y": 1.8932899656,
				"z": 0.5499631478,
				"element": "H" 
			}
		],
		 "valence_orbital": [ 
			{
				"type": "occ",
				"energy": -0.32007,
				"method": "rhf"
			},
			{
				"type": "occ",
				"energy": -0.31334,
				"method": "rhf"
			},
			{
				"type": "occ",
				"energy": -0.3008,
				"method": "rhf"
			},
			{
				"type": "occ",
				"energy": -0.24986,
				"method": "rhf"
			},
			{
				"type": "occ",
				"energy": -0.23572,
				"method": "rhf"
			},
			{
				"type": "unocc",
				"energy": 0.0226,
				"method": "rhf"
			},
			{
				"type": "unocc",
				"energy": 0.03224,
				"method": "rhf"
			},
			{
				"type": "unocc",
				"energy": 0.09396,
				"method": "rhf"
			},
			{
				"type": "unocc",
				"energy": 0.11515,
				"method": "rhf"
			},
			{
				"type": "unocc",
				"energy": 0.13465,
				"method": "rhf"
			}
		],
		"cosmo_sigma_profile": { 
			"-0.025": 0.0,
			"-0.024": 0.0,
			"-0.023": 0.0,
			"-0.022": 0.0,
			"-0.021": 0.0,
			"-0.02": 0.0,
			"-0.019": 0.0,
			"-0.018": 0.0,
			"-0.017": 0.0,
			"-0.016": 0.0,
			"-0.015": 0.0,
			"-0.014": 0.0,
			"-0.013": 0.0,
			"-0.012": 0.0,
			"-0.011": 0.0,
			"-0.01": 0.0,
			"-0.009": 0.0,
			"-0.008": 0.0,
			"-0.007": 0.0,
			"-0.006": 0.0,
			"-0.005": 0.851415249012,
			"-0.004": 7.51967420657,
			"-0.003": 18.1417803327,
			"-0.002": 28.3849009258,
			"-0.001": 29.4615841437,
			"0.0": 27.7039399374,
			"0.001": 16.9603001551,
			"0.002": 9.3036803535,
			"0.003": 7.7386408869,
			"0.004": 6.78022367421,
			"0.005": 5.41085085462,
			"0.006": 4.77989588682,
			"0.007": 3.58619829047,
			"0.008": 1.03976410415,
			"0.009": 0.0,
			"0.01": 0.0,
			"0.011": 0.0,
			"0.012": 0.0,
			"0.013": 0.0,
			"0.014": 0.0,
			"0.015": 0.0,
			"0.016": 0.0,
			"0.017": 0.0,
			"0.018": 0.0,
			"0.019": 0.0,
			"0.02": 0.0,
			"0.021": 0.0,
			"0.022": 0.0,
			"0.023": 0.0,
			"0.024": 0.0,
			"0.025": 0.0
		}
	}
}
