{
	 "smiles": "CC(C)(C)C(=O)N1CCCC1C(O)=O", 
	 "Tm": 410.15, 
	 "num_atms": 31, 
	 "gaussian": { 
		 "optdone": 1, 
		 "sigma_profile": "yes", 
		 "theory": "DFT", 
		 "functional": "B3LYP", 
		 "basiset": "6-31G**", 
		 "properties": { 
			 "R2extent": 3600.8427, 
			 "electric_dipole_moment_norm": 6.24707431923, 
			 "electric_quadrupole_moment_norm": 24.6003350243, 
			 "total_energy": -671.773746152, 
			 "HOMO_LUMO_gap": 0.24367, 
			 "cosmo_polarized_energy": -13.94, 
			 "cosmo_cavitation_energy": 30.83, 
			 "cosmo_dispersion_energy": -22.04, 
			 "cosmo_repulsion_energy": 1.72, 
			 "cosmo_total_nonelectrostatic_energy": 10.51, 
			 "SMD_solvation_energy": 6.17 
		},
		"coords": [
			{
				"x": 0.236858869,
				"y": 0.7077654924,
				"z": -2.5902554752,
				"element": "C" 
			},
			{
				"x": 0.7360399918,
				"y": 0.9091854768,
				"z": -1.1406705045,
				"element": "C" 
			},
			{
				"x": 1.4737673923,
				"y": 2.2632622028,
				"z": -1.0804881965,
				"element": "C" 
			},
			{
				"x": 1.7382748031,
				"y": -0.1951893805,
				"z": -0.7261399574,
				"element": "C" 
			},
			{
				"x": -0.4391936872,
				"y": 0.975855449,
				"z": -0.1308454312,
				"element": "C" 
			},
			{
				"x": -0.5158126618,
				"y": 1.9540893906,
				"z": 0.6386932471,
				"element": "O" 
			},
			{
				"x": -1.3864802781,
				"y": 0.0019144371,
				"z": -0.0506382942,
				"element": "N" 
			},
			{
				"x": -1.491776298,
				"y": -1.287396368,
				"z": -0.7565954144,
				"element": "C" 
			},
			{
				"x": -1.9866752136,
				"y": -2.2404846841,
				"z": 0.3348180722,
				"element": "C" 
			},
			{
				"x": -2.9644758165,
				"y": -1.3690653869,
				"z": 1.1366509655,
				"element": "C" 
			},
			{
				"x": -2.39749967,
				"y": 0.0587022939,
				"z": 1.047168172,
				"element": "C" 
			},
			{
				"x": -3.5070680148,
				"y": 1.1127793733,
				"z": 0.7786261289,
				"element": "C" 
			},
			{
				"x": -3.0912667527,
				"y": 2.3793559465,
				"z": 0.7830180894,
				"element": "O" 
			},
			{
				"x": -4.6665227618,
				"y": 0.8105467228,
				"z": 0.6024371137,
				"element": "O" 
			},
			{
				"x": -0.4913372628,
				"y": 1.4787726524,
				"z": -2.8619945773,
				"element": "H" 
			},
			{
				"x": -0.2226818846,
				"y": -0.2656460402,
				"z": -2.768563551,
				"element": "H" 
			},
			{
				"x": 1.0850728194,
				"y": 0.7971365542,
				"z": -3.2768074872,
				"element": "H" 
			},
			{
				"x": 2.3201208207,
				"y": 2.243792549,
				"z": -1.7748052856,
				"element": "H" 
			},
			{
				"x": 1.8471165442,
				"y": 2.4691986536,
				"z": -0.075920845,
				"element": "H" 
			},
			{
				"x": 0.813867243,
				"y": 3.0876863777,
				"z": -1.3613177148,
				"element": "H" 
			},
			{
				"x": 2.6056842697,
				"y": -0.1673467004,
				"z": -1.3938055049,
				"element": "H" 
			},
			{
				"x": 2.0971255076,
				"y": -0.0264176752,
				"z": 0.2940889189,
				"element": "H" 
			},
			{
				"x": 1.3245681344,
				"y": -1.2056202261,
				"z": -0.7727503861,
				"element": "H" 
			},
			{
				"x": -0.5390994805,
				"y": -1.5897248322,
				"z": -1.182351505,
				"element": "H" 
			},
			{
				"x": -2.2243132951,
				"y": -1.2091318645,
				"z": -1.5706234631,
				"element": "H" 
			},
			{
				"x": -2.4555385414,
				"y": -3.1369170295,
				"z": -0.0796092675,
				"element": "H" 
			},
			{
				"x": -1.140277352,
				"y": -2.5563384596,
				"z": 0.955120684,
				"element": "H" 
			},
			{
				"x": -3.070010122,
				"y": -1.6924130751,
				"z": 2.1747982381,
				"element": "H" 
			},
			{
				"x": -3.9601094232,
				"y": -1.370898993,
				"z": 0.6861704359,
				"element": "H" 
			},
			{
				"x": -1.8697402747,
				"y": 0.363412494,
				"z": 1.9581693692,
				"element": "H" 
			},
			{
				"x": -2.1005176045,
				"y": 2.3918346491,
				"z": 0.8703234261,
				"element": "H" 
			}
		],
		 "valence_orbital": [ 
			{
				"type": "occ",
				"energy": -0.33848,
				"method": "rhf"
			},
			{
				"type": "occ",
				"energy": -0.29561,
				"method": "rhf"
			},
			{
				"type": "occ",
				"energy": -0.2823,
				"method": "rhf"
			},
			{
				"type": "occ",
				"energy": -0.26883,
				"method": "rhf"
			},
			{
				"type": "occ",
				"energy": -0.24697,
				"method": "rhf"
			},
			{
				"type": "unocc",
				"energy": -0.0033,
				"method": "rhf"
			},
			{
				"type": "unocc",
				"energy": 0.01597,
				"method": "rhf"
			},
			{
				"type": "unocc",
				"energy": 0.05813,
				"method": "rhf"
			},
			{
				"type": "unocc",
				"energy": 0.08602,
				"method": "rhf"
			},
			{
				"type": "unocc",
				"energy": 0.1028,
				"method": "rhf"
			}
		],
		"cosmo_sigma_profile": { 
			"-0.025": 0.0,
			"-0.024": 0.0,
			"-0.023": 0.0,
			"-0.022": 0.0,
			"-0.021": 0.0,
			"-0.02": 0.0,
			"-0.019": 0.0,
			"-0.018": 0.0,
			"-0.017": 0.0,
			"-0.016": 0.0,
			"-0.015": 0.0,
			"-0.014": 0.0,
			"-0.013": 0.0,
			"-0.012": 0.0,
			"-0.011": 0.0,
			"-0.01": 0.0,
			"-0.009": 0.0,
			"-0.008": 0.733072709828,
			"-0.007": 4.29683582239,
			"-0.006": 5.32167064747,
			"-0.005": 12.7366697814,
			"-0.004": 29.1516000943,
			"-0.003": 36.6309925561,
			"-0.002": 31.5912760402,
			"-0.001": 25.5380982334,
			"0.0": 24.6224953389,
			"0.001": 14.7617592588,
			"0.002": 5.89672404173,
			"0.003": 3.17651094661,
			"0.004": 3.44546603402,
			"0.005": 4.11855542449,
			"0.006": 3.68093781984,
			"0.007": 3.54419404205,
			"0.008": 3.51440439604,
			"0.009": 4.06134222847,
			"0.01": 5.24430786813,
			"0.011": 7.49600304381,
			"0.012": 7.54683417271,
			"0.013": 2.58434569565,
			"0.014": 0.389941675688,
			"0.015": 0.0,
			"0.016": 0.0,
			"0.017": 0.0,
			"0.018": 0.0,
			"0.019": 0.0,
			"0.02": 0.0,
			"0.021": 0.0,
			"0.022": 0.0,
			"0.023": 0.0,
			"0.024": 0.0,
			"0.025": 0.0
		}
	}
}
