{
	 "smiles": "CCOC1=CC=C(C=C1)S(=O)(=O)N(C)C1=CC=C(OCC(O)=O)C=C1", 
	 "Tm": 356.15, 
	 "num_atms": 44, 
	 "gaussian": { 
		 "optdone": 1, 
		 "sigma_profile": "yes", 
		 "theory": "DFT", 
		 "functional": "B3LYP", 
		 "basiset": "6-31G**", 
		 "properties": { 
			 "R2extent": 15842.7547, 
			 "electric_dipole_moment_norm": 6.16578571392, 
			 "electric_quadrupole_moment_norm": 35.3306857376, 
			 "total_energy": -1563.45716463, 
			 "HOMO_LUMO_gap": 0.19581, 
			 "cosmo_polarized_energy": -26.19, 
			 "cosmo_cavitation_energy": 50.0, 
			 "cosmo_dispersion_energy": -34.71, 
			 "cosmo_repulsion_energy": 2.63, 
			 "cosmo_total_nonelectrostatic_energy": 17.92, 
			 "SMD_solvation_energy": 9.37 
		},
		"coords": [
			{
				"x": -0.0807151908,
				"y": -2.6723569242,
				"z": -6.2014426725,
				"element": "C" 
			},
			{
				"x": -1.5430593759,
				"y": -2.2471529212,
				"z": -6.129436015,
				"element": "C" 
			},
			{
				"x": -1.6990809165,
				"y": -0.8973999048,
				"z": -5.6732285263,
				"element": "O" 
			},
			{
				"x": -1.6559650629,
				"y": -0.6107924154,
				"z": -4.346375056,
				"element": "C" 
			},
			{
				"x": -1.8126986135,
				"y": 0.7476179442,
				"z": -4.022354088,
				"element": "C" 
			},
			{
				"x": -1.8023614966,
				"y": 1.1588614019,
				"z": -2.6966354136,
				"element": "C" 
			},
			{
				"x": -1.6292342537,
				"y": 0.2115373873,
				"z": -1.6818197731,
				"element": "C" 
			},
			{
				"x": -1.4805532855,
				"y": -1.1406930785,
				"z": -1.9916010606,
				"element": "C" 
			},
			{
				"x": -1.4880499178,
				"y": -1.5567784613,
				"z": -3.3207707429,
				"element": "C" 
			},
			{
				"x": -1.6637357931,
				"y": 0.7233198844,
				"z": 0.0296770235,
				"element": "S" 
			},
			{
				"x": -2.0116096073,
				"y": 2.1540933916,
				"z": 0.055994249,
				"element": "O" 
			},
			{
				"x": -2.4394488436,
				"y": -0.2462661323,
				"z": 0.8059859877,
				"element": "O" 
			},
			{
				"x": -0.0242635683,
				"y": 0.4947684761,
				"z": 0.494786221,
				"element": "N" 
			},
			{
				"x": 0.9043466369,
				"y": 1.464641235,
				"z": -0.1107527778,
				"element": "C" 
			},
			{
				"x": 0.1549946253,
				"y": 0.2839637415,
				"z": 1.9141496946,
				"element": "C" 
			},
			{
				"x": 0.5568482575,
				"y": -0.9742503152,
				"z": 2.3573180881,
				"element": "C" 
			},
			{
				"x": 0.7796698859,
				"y": -1.2192006177,
				"z": 3.7135155986,
				"element": "C" 
			},
			{
				"x": 0.5861773859,
				"y": -0.1884736475,
				"z": 4.638319951,
				"element": "C" 
			},
			{
				"x": 0.7493035323,
				"y": -0.3093340155,
				"z": 5.9950518004,
				"element": "O" 
			},
			{
				"x": 1.0511453751,
				"y": -1.5654896062,
				"z": 6.5449200391,
				"element": "C" 
			},
			{
				"x": 2.523527568,
				"y": -1.9378621422,
				"z": 6.4040143833,
				"element": "C" 
			},
			{
				"x": 2.7444654923,
				"y": -3.1529102266,
				"z": 6.9611072429,
				"element": "O" 
			},
			{
				"x": 3.3837775886,
				"y": -1.2656197365,
				"z": 5.8922006533,
				"element": "O" 
			},
			{
				"x": 0.176761429,
				"y": 1.0782002338,
				"z": 4.2001821185,
				"element": "C" 
			},
			{
				"x": -0.0362046383,
				"y": 1.3125094208,
				"z": 2.8485002019,
				"element": "C" 
			},
			{
				"x": 0.4809756133,
				"y": -1.9885776303,
				"z": -6.843974452,
				"element": "H" 
			},
			{
				"x": 0.3907710308,
				"y": -2.678427812,
				"z": -5.2149717503,
				"element": "H" 
			},
			{
				"x": -0.0057827848,
				"y": -3.6806163249,
				"z": -6.622040777,
				"element": "H" 
			},
			{
				"x": -2.1359741159,
				"y": -2.9282994058,
				"z": -5.5070004396,
				"element": "H" 
			},
			{
				"x": -1.9881720548,
				"y": -2.2457424582,
				"z": -7.1279458704,
				"element": "H" 
			},
			{
				"x": -1.9502055733,
				"y": 1.4578370862,
				"z": -4.8306190943,
				"element": "H" 
			},
			{
				"x": -1.9378951068,
				"y": 2.2024035783,
				"z": -2.4345516988,
				"element": "H" 
			},
			{
				"x": -1.365094118,
				"y": -1.8677333946,
				"z": -1.1949636178,
				"element": "H" 
			},
			{
				"x": -1.3673815642,
				"y": -2.6095947379,
				"z": -3.5438415903,
				"element": "H" 
			},
			{
				"x": 0.7612202655,
				"y": 2.487568105,
				"z": 0.2578197428,
				"element": "H" 
			},
			{
				"x": 0.7779208409,
				"y": 1.460334951,
				"z": -1.1964184714,
				"element": "H" 
			},
			{
				"x": 1.9207629141,
				"y": 1.137402217,
				"z": 0.1185854925,
				"element": "H" 
			},
			{
				"x": 0.7014270957,
				"y": -1.7650192433,
				"z": 1.6287089584,
				"element": "H" 
			},
			{
				"x": 1.1099443689,
				"y": -2.2034299541,
				"z": 4.0233649226,
				"element": "H" 
			},
			{
				"x": 0.8222359862,
				"y": -1.4995938004,
				"z": 7.6132909427,
				"element": "H" 
			},
			{
				"x": 0.4305541843,
				"y": -2.3701599222,
				"z": 6.1293044332,
				"element": "H" 
			},
			{
				"x": 3.6952191251,
				"y": -3.3315333479,
				"z": 6.8657689501,
				"element": "H" 
			},
			{
				"x": 0.0255228856,
				"y": 1.8584596893,
				"z": 4.9384408964,
				"element": "H" 
			},
			{
				"x": -0.3695862057,
				"y": 2.2898894333,
				"z": 2.5139362961,
				"element": "H" 
			}
		],
		 "valence_orbital": [ 
			{
				"type": "occ",
				"energy": -0.26807,
				"method": "rhf"
			},
			{
				"type": "occ",
				"energy": -0.25414,
				"method": "rhf"
			},
			{
				"type": "occ",
				"energy": -0.25174,
				"method": "rhf"
			},
			{
				"type": "occ",
				"energy": -0.23316,
				"method": "rhf"
			},
			{
				"type": "occ",
				"energy": -0.22195,
				"method": "rhf"
			},
			{
				"type": "unocc",
				"energy": -0.02614,
				"method": "rhf"
			},
			{
				"type": "unocc",
				"energy": -0.01681,
				"method": "rhf"
			},
			{
				"type": "unocc",
				"energy": -0.00799,
				"method": "rhf"
			},
			{
				"type": "unocc",
				"energy": -0.0002,
				"method": "rhf"
			},
			{
				"type": "unocc",
				"energy": 0.00491,
				"method": "rhf"
			}
		],
		"cosmo_sigma_profile": { 
			"-0.025": 0.0,
			"-0.024": 0.0,
			"-0.023": 0.0,
			"-0.022": 0.0,
			"-0.021": 0.0,
			"-0.02": 0.0,
			"-0.019": 0.523632327046,
			"-0.018": 0.911639031234,
			"-0.017": 1.09570075223,
			"-0.016": 0.873885814386,
			"-0.015": 0.432486073503,
			"-0.014": 0.55482642774,
			"-0.013": 0.169300268534,
			"-0.012": 0.950933600072,
			"-0.011": 1.32563175293,
			"-0.01": 1.57763639943,
			"-0.009": 4.14259203826,
			"-0.008": 8.21417711314,
			"-0.007": 13.6066588339,
			"-0.006": 22.952891066,
			"-0.005": 28.0202338907,
			"-0.004": 31.4123713704,
			"-0.003": 30.9376886761,
			"-0.002": 29.0685425829,
			"-0.001": 23.8007495698,
			"0.0": 24.7188956884,
			"0.001": 22.6493899602,
			"0.002": 27.3665751773,
			"0.003": 25.0986064309,
			"0.004": 16.3369132167,
			"0.005": 12.04184549,
			"0.006": 8.99797076951,
			"0.007": 9.04557980771,
			"0.008": 9.586414961,
			"0.009": 10.363442794,
			"0.01": 10.9368035157,
			"0.011": 14.2201750604,
			"0.012": 5.13058596354,
			"0.013": 0.00535282544353,
			"0.014": 0.0,
			"0.015": 0.0,
			"0.016": 0.0,
			"0.017": 0.0,
			"0.018": 0.0,
			"0.019": 0.0,
			"0.02": 0.0,
			"0.021": 0.0,
			"0.022": 0.0,
			"0.023": 0.0,
			"0.024": 0.0,
			"0.0": 0.0
		}
	}
}
