{
	 "smiles": "CC1(C)C2CCC1(C)C(=O)C21CCC(=O)O1", 
	 "Tm": 480.15, 
	 "num_atms": 34, 
	 "gaussian": { 
		 "optdone": 1, 
		 "sigma_profile": "yes", 
		 "theory": "DFT", 
		 "functional": "B3LYP", 
		 "basiset": "6-31G**", 
		 "properties": { 
			 "R2extent": 3701.9662, 
			 "electric_dipole_moment_norm": 5.3702929799, 
			 "electric_quadrupole_moment_norm": 23.347934838, 
			 "total_energy": -731.912246546, 
			 "HOMO_LUMO_gap": 0.20838, 
			 "cosmo_polarized_energy": -13.97, 
			 "cosmo_cavitation_energy": 32.66, 
			 "cosmo_dispersion_energy": -23.08, 
			 "cosmo_repulsion_energy": 1.75, 
			 "cosmo_total_nonelectrostatic_energy": 11.33, 
			 "SMD_solvation_energy": 6.8 
		},
		"coords": [
			{
				"x": 1.9557538145,
				"y": -1.0948937913,
				"z": 1.5392881893,
				"element": "C" 
			},
			{
				"x": 1.1059069585,
				"y": -0.8041517287,
				"z": 0.2864963163,
				"element": "C" 
			},
			{
				"x": 1.5795259911,
				"y": -1.7820437296,
				"z": -0.8054485486,
				"element": "C" 
			},
			{
				"x": -0.4573528401,
				"y": -0.8190267715,
				"z": 0.4915867415,
				"element": "C" 
			},
			{
				"x": -0.9583740216,
				"y": -0.3523531166,
				"z": -0.8978394267,
				"element": "C" 
			},
			{
				"x": 0.0779774688,
				"y": 0.7412666796,
				"z": -1.2975037388,
				"element": "C" 
			},
			{
				"x": 1.1370079136,
				"y": 0.7072555325,
				"z": -0.1432226893,
				"element": "C" 
			},
			{
				"x": 2.46404638,
				"y": 1.3714030517,
				"z": -0.4667197714,
				"element": "C" 
			},
			{
				"x": 0.3945378543,
				"y": 1.3488882083,
				"z": 1.0318697801,
				"element": "C" 
			},
			{
				"x": 0.5629753242,
				"y": 2.4473041279,
				"z": 1.5090532063,
				"element": "O" 
			},
			{
				"x": -0.7001377934,
				"y": 0.3362691992,
				"z": 1.4971204148,
				"element": "C" 
			},
			{
				"x": -2.0997957795,
				"y": 0.9814737157,
				"z": 1.6367303558,
				"element": "C" 
			},
			{
				"x": -2.7158067674,
				"y": 0.252527891,
				"z": 2.8297198298,
				"element": "C" 
			},
			{
				"x": -1.5042899197,
				"y": -0.1827675362,
				"z": 3.6378452889,
				"element": "C" 
			},
			{
				"x": -1.4486750415,
				"y": -0.5697717249,
				"z": 4.7740777368,
				"element": "O" 
			},
			{
				"x": -0.3889074014,
				"y": -0.0901290412,
				"z": 2.8489701032,
				"element": "O" 
			},
			{
				"x": 1.7284871749,
				"y": -2.0904965809,
				"z": 1.9343397642,
				"element": "H" 
			},
			{
				"x": 3.0180136746,
				"y": -1.0818413739,
				"z": 1.273077468,
				"element": "H" 
			},
			{
				"x": 1.805005337,
				"y": -0.3850024948,
				"z": 2.3524200274,
				"element": "H" 
			},
			{
				"x": 1.3888551749,
				"y": -2.8136596947,
				"z": -0.4884609607,
				"element": "H" 
			},
			{
				"x": 1.1016316355,
				"y": -1.6418548339,
				"z": -1.776447943,
				"element": "H" 
			},
			{
				"x": 2.659501676,
				"y": -1.6848314797,
				"z": -0.9558778619,
				"element": "H" 
			},
			{
				"x": -0.8734000551,
				"y": -1.772917387,
				"z": 0.8287331672,
				"element": "H" 
			},
			{
				"x": -0.9544628761,
				"y": -1.1866001163,
				"z": -1.6024747301,
				"element": "H" 
			},
			{
				"x": -1.9821571843,
				"y": 0.0261986723,
				"z": -0.8813855216,
				"element": "H" 
			},
			{
				"x": 0.5682471104,
				"y": 0.5154042885,
				"z": -2.2492533077,
				"element": "H" 
			},
			{
				"x": -0.3707697329,
				"y": 1.7343162201,
				"z": -1.4027800023,
				"element": "H" 
			},
			{
				"x": 3.1635823938,
				"y": 1.2929246405,
				"z": 0.3706861539,
				"element": "H" 
			},
			{
				"x": 2.928479041,
				"y": 0.9176667673,
				"z": -1.3480462573,
				"element": "H" 
			},
			{
				"x": 2.3171058123,
				"y": 2.4371051277,
				"z": -0.6668732248,
				"element": "H" 
			},
			{
				"x": -1.9510321546,
				"y": 2.0392418615,
				"z": 1.8771979073,
				"element": "H" 
			},
			{
				"x": -2.699720322,
				"y": 0.9211040659,
				"z": 0.7292894812,
				"element": "H" 
			},
			{
				"x": -3.2695947035,
				"y": -0.6467382986,
				"z": 2.5342628204,
				"element": "H" 
			},
			{
				"x": -3.3802641419,
				"y": 0.8613296503,
				"z": 3.4455692317,
				"element": "H" 
			}
		],
		 "valence_orbital": [ 
			{
				"type": "occ",
				"energy": -0.32587,
				"method": "rhf"
			},
			{
				"type": "occ",
				"energy": -0.30851,
				"method": "rhf"
			},
			{
				"type": "occ",
				"energy": -0.29305,
				"method": "rhf"
			},
			{
				"type": "occ",
				"energy": -0.2697,
				"method": "rhf"
			},
			{
				"type": "occ",
				"energy": -0.24421,
				"method": "rhf"
			},
			{
				"type": "unocc",
				"energy": -0.03583,
				"method": "rhf"
			},
			{
				"type": "unocc",
				"energy": 0.00939,
				"method": "rhf"
			},
			{
				"type": "unocc",
				"energy": 0.0652,
				"method": "rhf"
			},
			{
				"type": "unocc",
				"energy": 0.07869,
				"method": "rhf"
			},
			{
				"type": "unocc",
				"energy": 0.09584,
				"method": "rhf"
			}
		],
		"cosmo_sigma_profile": { 
			"-0.025": 0.0,
			"-0.024": 0.0,
			"-0.023": 0.0,
			"-0.022": 0.0,
			"-0.021": 0.0,
			"-0.02": 0.0,
			"-0.019": 0.0,
			"-0.018": 0.0,
			"-0.017": 0.0,
			"-0.016": 0.0,
			"-0.015": 0.0,
			"-0.014": 0.0,
			"-0.013": 0.0,
			"-0.012": 0.0,
			"-0.011": 0.0,
			"-0.01": 0.0,
			"-0.009": 0.0,
			"-0.008": 0.280950706744,
			"-0.007": 5.14845293718,
			"-0.006": 11.3806198858,
			"-0.005": 15.0592929461,
			"-0.004": 20.4761619797,
			"-0.003": 31.9024357739,
			"-0.002": 41.182866364,
			"-0.001": 26.2809777791,
			"0.0": 24.0924296367,
			"0.001": 18.3109655954,
			"0.002": 6.68107251397,
			"0.003": 3.93395012918,
			"0.004": 4.07208407456,
			"0.005": 4.57964872951,
			"0.006": 4.53324459131,
			"0.007": 3.96095983806,
			"0.008": 4.60515703068,
			"0.009": 4.05545098044,
			"0.01": 6.1918426125,
			"0.011": 9.41146051257,
			"0.012": 6.42619217047,
			"0.013": 1.25919991916,
			"0.014": 0.0,
			"0.015": 0.0,
			"0.016": 0.0,
			"0.017": 0.0,
			"0.018": 0.0,
			"0.019": 0.0,
			"0.02": 0.0,
			"0.021": 0.0,
			"0.022": 0.0,
			"0.023": 0.0,
			"0.024": 0.0,
			"0.025": 0.0
		}
	}
}
