{
	 "smiles": "CC1=C(CO)N=CN1", 
	 "Tm": 507.15, 
	 "num_atms": 16, 
	 "gaussian": { 
		 "optdone": 1, 
		 "sigma_profile": "yes", 
		 "theory": "DFT", 
		 "functional": "B3LYP", 
		 "basiset": "6-31G**", 
		 "properties": { 
			 "R2extent": 1768.5677, 
			 "electric_dipole_moment_norm": 5.15038448856, 
			 "electric_quadrupole_moment_norm": 14.7054311933, 
			 "total_energy": -380.071024273, 
			 "HOMO_LUMO_gap": 0.24222, 
			 "cosmo_polarized_energy": -13.73, 
			 "cosmo_cavitation_energy": 19.42, 
			 "cosmo_dispersion_energy": -14.72, 
			 "cosmo_repulsion_energy": 1.25, 
			 "cosmo_total_nonelectrostatic_energy": 5.95, 
			 "SMD_solvation_energy": 2.65 
		},
		"coords": [
			{
				"x": -0.2477763357,
				"y": 2.4770389523,
				"z": 0.8561134378,
				"element": "C" 
			},
			{
				"x": -0.7124009992,
				"y": 2.1454327612,
				"z": -0.5239398546,
				"element": "C" 
			},
			{
				"x": -0.6786585005,
				"y": 0.9890584938,
				"z": -1.2695648205,
				"element": "C" 
			},
			{
				"x": -0.1394831216,
				"y": -0.3783154802,
				"z": -0.9533262662,
				"element": "C" 
			},
			{
				"x": -0.9818781364,
				"y": -1.3946946034,
				"z": -1.4696219578,
				"element": "O" 
			},
			{
				"x": -1.2464089756,
				"y": 1.1926800702,
				"z": -2.5133350079,
				"element": "N" 
			},
			{
				"x": -1.6220757788,
				"y": 2.4508750566,
				"z": -2.5310684694,
				"element": "C" 
			},
			{
				"x": -1.3175543357,
				"y": 3.0767799279,
				"z": -1.3561444303,
				"element": "N" 
			},
			{
				"x": 0.0534824202,
				"y": 1.5652867326,
				"z": 1.3773593924,
				"element": "H" 
			},
			{
				"x": 0.6156127377,
				"y": 3.1544669312,
				"z": 0.8545220171,
				"element": "H" 
			},
			{
				"x": -1.0386978219,
				"y": 2.9499390953,
				"z": 1.4509309945,
				"element": "H" 
			},
			{
				"x": -0.0621514955,
				"y": -0.5249697098,
				"z": 0.1304970478,
				"element": "H" 
			},
			{
				"x": 0.8815916892,
				"y": -0.476849505,
				"z": -1.3624776928,
				"element": "H" 
			},
			{
				"x": -1.323422158,
				"y": -1.0400637719,
				"z": -2.3052864757,
				"element": "H" 
			},
			{
				"x": -2.1142022798,
				"y": 2.9582902106,
				"z": -3.3496101171,
				"element": "H" 
			},
			{
				"x": -1.5146769083,
				"y": 4.0383448386,
				"z": -1.1225477975,
				"element": "H" 
			}
		],
		 "valence_orbital": [ 
			{
				"type": "occ",
				"energy": -0.32409,
				"method": "rhf"
			},
			{
				"type": "occ",
				"energy": -0.27604,
				"method": "rhf"
			},
			{
				"type": "occ",
				"energy": -0.27533,
				"method": "rhf"
			},
			{
				"type": "occ",
				"energy": -0.24815,
				"method": "rhf"
			},
			{
				"type": "occ",
				"energy": -0.21813,
				"method": "rhf"
			},
			{
				"type": "unocc",
				"energy": 0.02409,
				"method": "rhf"
			},
			{
				"type": "unocc",
				"energy": 0.06368,
				"method": "rhf"
			},
			{
				"type": "unocc",
				"energy": 0.07004,
				"method": "rhf"
			},
			{
				"type": "unocc",
				"energy": 0.10046,
				"method": "rhf"
			},
			{
				"type": "unocc",
				"energy": 0.12743,
				"method": "rhf"
			}
		],
		"cosmo_sigma_profile": { 
			"-0.025": 0.0,
			"-0.024": 0.0,
			"-0.023": 0.0,
			"-0.022": 0.0,
			"-0.021": 0.0,
			"-0.02": 0.0,
			"-0.019": 0.0,
			"-0.018": 0.0,
			"-0.017": 0.0905797637648,
			"-0.016": 1.2482204497,
			"-0.015": 1.41254432389,
			"-0.014": 1.34067053395,
			"-0.013": 1.35181405588,
			"-0.012": 1.10462464041,
			"-0.011": 1.29791277615,
			"-0.01": 1.57738785285,
			"-0.009": 2.63624388772,
			"-0.008": 4.23223383591,
			"-0.007": 2.54548786575,
			"-0.006": 4.98132727509,
			"-0.005": 8.84216439484,
			"-0.004": 11.7360456512,
			"-0.003": 12.1135392956,
			"-0.002": 12.3580569139,
			"-0.001": 13.8089991494,
			"0.0": 9.36052345485,
			"0.001": 7.23255606877,
			"0.002": 6.01190765183,
			"0.003": 5.7923193816,
			"0.004": 6.68121618119,
			"0.005": 6.17558906469,
			"0.006": 4.32963524572,
			"0.007": 3.2038449957,
			"0.008": 2.6894078922,
			"0.009": 3.0464450241,
			"0.01": 3.66662422719,
			"0.011": 1.87716826732,
			"0.012": 1.85325419938,
			"0.013": 2.74224999693,
			"0.014": 3.54732865127,
			"0.015": 2.15087981046,
			"0.016": 0.114190991784,
			"0.017": 0.0,
			"0.018": 0.0,
			"0.019": 0.0,
			"0.02": 0.0,
			"0.021": 0.0,
			"0.022": 0.0,
			"0.023": 0.0,
			"0.024": 0.0,
			"0.025": 0.0
		}
	}
}
