{
	 "smiles": "CS(=O)(=O)N1CCCC2=C1C=CC(=C2)C(O)=O", 
	 "Tm": 492.15, 
	 "num_atms": 30, 
	 "gaussian": { 
		 "optdone": 1, 
		 "sigma_profile": "yes", 
		 "theory": "DFT", 
		 "functional": "B3LYP", 
		 "basiset": "6-31G**", 
		 "properties": { 
			 "R2extent": 5377.6786, 
			 "electric_dipole_moment_norm": 5.80490350738, 
			 "electric_quadrupole_moment_norm": 34.2308650402, 
			 "total_energy": -1180.7893792, 
			 "HOMO_LUMO_gap": 0.1849, 
			 "cosmo_polarized_energy": -23.61, 
			 "cosmo_cavitation_energy": 33.54, 
			 "cosmo_dispersion_energy": -24.89, 
			 "cosmo_repulsion_energy": 1.86, 
			 "cosmo_total_nonelectrostatic_energy": 10.51, 
			 "SMD_solvation_energy": 5.67 
		},
		"coords": [
			{
				"x": 0.1658181457,
				"y": -2.3105255567,
				"z": -0.3455182596,
				"element": "C" 
			},
			{
				"x": -1.3861543176,
				"y": -1.4082094594,
				"z": -0.1548377081,
				"element": "S" 
			},
			{
				"x": -2.2933442245,
				"y": -1.8216387548,
				"z": -1.226205248,
				"element": "O" 
			},
			{
				"x": -1.7948155827,
				"y": -1.5233960502,
				"z": 1.2451907216,
				"element": "O" 
			},
			{
				"x": -0.9743000398,
				"y": 0.220040226,
				"z": -0.4879288723,
				"element": "N" 
			},
			{
				"x": -1.4234636807,
				"y": 0.8051509737,
				"z": -1.7665262305,
				"element": "C" 
			},
			{
				"x": -0.2265755969,
				"y": 1.1743319337,
				"z": -2.6403697734,
				"element": "C" 
			},
			{
				"x": 0.6375442785,
				"y": 2.201449079,
				"z": -1.9058645629,
				"element": "C" 
			},
			{
				"x": 0.8534075692,
				"y": 1.846913345,
				"z": -0.4455882834,
				"element": "C" 
			},
			{
				"x": 0.0604747167,
				"y": 0.8836722087,
				"z": 0.2237465549,
				"element": "C" 
			},
			{
				"x": 0.3072572821,
				"y": 0.6106515073,
				"z": 1.5857039559,
				"element": "C" 
			},
			{
				"x": 1.3317233472,
				"y": 1.2553910233,
				"z": 2.2616419725,
				"element": "C" 
			},
			{
				"x": 2.1148791641,
				"y": 2.2237831139,
				"z": 1.6205015462,
				"element": "C" 
			},
			{
				"x": 1.8584825835,
				"y": 2.49807383,
				"z": 0.273429297,
				"element": "C" 
			},
			{
				"x": 3.206750163,
				"y": 2.8808366211,
				"z": 2.4022025735,
				"element": "C" 
			},
			{
				"x": 3.6748262899,
				"y": 4.0682057095,
				"z": 1.9247615506,
				"element": "O" 
			},
			{
				"x": 3.6781297362,
				"y": 2.4105221439,
				"z": 3.4112798688,
				"element": "O" 
			},
			{
				"x": 0.9165062358,
				"y": -1.8831235282,
				"z": 0.3198493132,
				"element": "H" 
			},
			{
				"x": -0.0426525447,
				"y": -3.3447942577,
				"z": -0.0666555741,
				"element": "H" 
			},
			{
				"x": 0.4792349244,
				"y": -2.2495172946,
				"z": -1.3881231213,
				"element": "H" 
			},
			{
				"x": -2.0172985212,
				"y": 1.698507906,
				"z": -1.5349010288,
				"element": "H" 
			},
			{
				"x": -2.0810675857,
				"y": 0.085309392,
				"z": -2.2501283236,
				"element": "H" 
			},
			{
				"x": 0.3514467707,
				"y": 0.2690518677,
				"z": -2.862125246,
				"element": "H" 
			},
			{
				"x": -0.5731844018,
				"y": 1.5780846225,
				"z": -3.597294452,
				"element": "H" 
			},
			{
				"x": 1.6074758168,
				"y": 2.318696202,
				"z": -2.4022262456,
				"element": "H" 
			},
			{
				"x": 0.1475042619,
				"y": 3.1838287177,
				"z": -1.9614918777,
				"element": "H" 
			},
			{
				"x": -0.3227969695,
				"y": -0.0968685728,
				"z": 2.1087524325,
				"element": "H" 
			},
			{
				"x": 1.5284715822,
				"y": 1.0336606396,
				"z": 3.3049026757,
				"element": "H" 
			},
			{
				"x": 2.4833316228,
				"y": 3.2037387831,
				"z": -0.2719332223,
				"element": "H" 
			},
			{
				"x": 3.0884889746,
				"y": 4.4006736285,
				"z": 1.2314555669,
				"element": "H" 
			}
		],
		 "valence_orbital": [ 
			{
				"type": "occ",
				"energy": -0.31422,
				"method": "rhf"
			},
			{
				"type": "occ",
				"energy": -0.30501,
				"method": "rhf"
			},
			{
				"type": "occ",
				"energy": -0.27358,
				"method": "rhf"
			},
			{
				"type": "occ",
				"energy": -0.26844,
				"method": "rhf"
			},
			{
				"type": "occ",
				"energy": -0.23683,
				"method": "rhf"
			},
			{
				"type": "unocc",
				"energy": -0.05193,
				"method": "rhf"
			},
			{
				"type": "unocc",
				"energy": -0.02955,
				"method": "rhf"
			},
			{
				"type": "unocc",
				"energy": 0.03332,
				"method": "rhf"
			},
			{
				"type": "unocc",
				"energy": 0.04802,
				"method": "rhf"
			},
			{
				"type": "unocc",
				"energy": 0.05674,
				"method": "rhf"
			}
		],
		"cosmo_sigma_profile": { 
			"-0.025": 0.0,
			"-0.024": 0.0,
			"-0.023": 0.0,
			"-0.022": 0.0,
			"-0.021": 0.0,
			"-0.02": 0.0,
			"-0.019": 0.112929228481,
			"-0.018": 0.860460579245,
			"-0.017": 0.652982009955,
			"-0.016": 1.27307336115,
			"-0.015": 0.909124138763,
			"-0.014": 0.820851244119,
			"-0.013": 0.899351531012,
			"-0.012": 0.999509636248,
			"-0.011": 1.37039562757,
			"-0.01": 1.38404511817,
			"-0.009": 3.22560878491,
			"-0.008": 6.80663190607,
			"-0.007": 9.14177840746,
			"-0.006": 10.3006528637,
			"-0.005": 21.6460743294,
			"-0.004": 28.8909434103,
			"-0.003": 25.1987858351,
			"-0.002": 17.3177590868,
			"-0.001": 16.2748674261,
			"0.0": 11.3096434387,
			"0.001": 11.1167573621,
			"0.002": 12.7307082338,
			"0.003": 13.9943760549,
			"0.004": 6.36639276183,
			"0.005": 4.6569676599,
			"0.006": 4.94909673233,
			"0.007": 5.03667034153,
			"0.008": 7.49494799541,
			"0.009": 6.94063239003,
			"0.01": 11.57086087,
			"0.011": 13.0468187036,
			"0.012": 6.52906145103,
			"0.013": 2.12133676582,
			"0.014": 0.17959541159,
			"0.015": 0.0,
			"0.016": 0.0,
			"0.017": 0.0,
			"0.018": 0.0,
			"0.019": 0.0,
			"0.02": 0.0,
			"0.021": 0.0,
			"0.022": 0.0,
			"0.023": 0.0,
			"0.024": 0.0,
			"0.025": 0.0
		}
	}
}
