{
	 "smiles": "CC1=C(C(O)=O)C(N)=C(F)C=C1", 
	 "Tm": 388.15, 
	 "num_atms": 20, 
	 "gaussian": { 
		 "optdone": 1, 
		 "sigma_profile": "yes", 
		 "theory": "DFT", 
		 "functional": "B3LYP", 
		 "basiset": "6-31G**", 
		 "properties": { 
			 "R2extent": 2477.656, 
			 "electric_dipole_moment_norm": 3.29032705669, 
			 "electric_quadrupole_moment_norm": 17.3307349209, 
			 "total_energy": -614.725349022, 
			 "HOMO_LUMO_gap": 0.16522, 
			 "cosmo_polarized_energy": -12.09, 
			 "cosmo_cavitation_energy": 23.65, 
			 "cosmo_dispersion_energy": -17.95, 
			 "cosmo_repulsion_energy": 1.39, 
			 "cosmo_total_nonelectrostatic_energy": 7.09, 
			 "SMD_solvation_energy": 5.29 
		},
		"coords": [
			{
				"x": -0.7325575124,
				"y": -2.3845631603,
				"z": -2.2259640134,
				"element": "C" 
			},
			{
				"x": -0.2706696622,
				"y": -1.1126477456,
				"z": -1.535752872,
				"element": "C" 
			},
			{
				"x": -1.1597207929,
				"y": -0.0828022391,
				"z": -1.1116107165,
				"element": "C" 
			},
			{
				"x": -2.6441430554,
				"y": -0.1556899317,
				"z": -1.2455127944,
				"element": "C" 
			},
			{
				"x": -3.2342760169,
				"y": -1.3772113211,
				"z": -1.2222008656,
				"element": "O" 
			},
			{
				"x": -3.3666347089,
				"y": 0.8198948321,
				"z": -1.3520879545,
				"element": "O" 
			},
			{
				"x": -0.6333941129,
				"y": 1.1205463542,
				"z": -0.5539393986,
				"element": "C" 
			},
			{
				"x": -1.3983214843,
				"y": 2.1706216563,
				"z": -0.1343264733,
				"element": "N" 
			},
			{
				"x": 0.7637403118,
				"y": 1.200177643,
				"z": -0.3799678678,
				"element": "C" 
			},
			{
				"x": 1.2429038167,
				"y": 2.3476178623,
				"z": 0.1681273599,
				"element": "F" 
			},
			{
				"x": 1.6256688203,
				"y": 0.2036408351,
				"z": -0.7639195547,
				"element": "C" 
			},
			{
				"x": 1.1016680184,
				"y": -0.9517730382,
				"z": -1.3574400012,
				"element": "C" 
			},
			{
				"x": 0.1034089987,
				"y": -2.8316914951,
				"z": -2.7687906218,
				"element": "H" 
			},
			{
				"x": -1.5398710159,
				"y": -2.2116353094,
				"z": -2.941803064,
				"element": "H" 
			},
			{
				"x": -1.0709890941,
				"y": -3.1561159858,
				"z": -1.5171039223,
				"element": "H" 
			},
			{
				"x": -2.5888005467,
				"y": -2.0595319991,
				"z": -0.9971613267,
				"element": "H" 
			},
			{
				"x": -0.9093750024,
				"y": 3.0211344612,
				"z": 0.0939537356,
				"element": "H" 
			},
			{
				"x": -2.3340158317,
				"y": 2.2239377288,
				"z": -0.5150163893,
				"element": "H" 
			},
			{
				"x": 2.6924545724,
				"y": 0.3379639373,
				"z": -0.6197613677,
				"element": "H" 
			},
			{
				"x": 1.7789242983,
				"y": -1.729673085,
				"z": -1.6945218919,
				"element": "H" 
			}
		],
		 "valence_orbital": [ 
			{
				"type": "occ",
				"energy": -0.32104,
				"method": "rhf"
			},
			{
				"type": "occ",
				"energy": -0.31404,
				"method": "rhf"
			},
			{
				"type": "occ",
				"energy": -0.27733,
				"method": "rhf"
			},
			{
				"type": "occ",
				"energy": -0.25631,
				"method": "rhf"
			},
			{
				"type": "occ",
				"energy": -0.21068,
				"method": "rhf"
			},
			{
				"type": "unocc",
				"energy": -0.04546,
				"method": "rhf"
			},
			{
				"type": "unocc",
				"energy": 0.00295,
				"method": "rhf"
			},
			{
				"type": "unocc",
				"energy": 0.04271,
				"method": "rhf"
			},
			{
				"type": "unocc",
				"energy": 0.06783,
				"method": "rhf"
			},
			{
				"type": "unocc",
				"energy": 0.08289,
				"method": "rhf"
			}
		],
		"cosmo_sigma_profile": { 
			"-0.025": 0.0,
			"-0.024": 0.0,
			"-0.023": 0.0,
			"-0.022": 0.0,
			"-0.021": 0.0,
			"-0.02": 0.0,
			"-0.019": 0.0,
			"-0.018": 0.0,
			"-0.017": 0.313900034855,
			"-0.016": 0.927997531431,
			"-0.015": 0.852075318678,
			"-0.014": 1.27663926816,
			"-0.013": 0.938571032804,
			"-0.012": 1.31911996928,
			"-0.011": 2.29752894484,
			"-0.01": 1.76926501923,
			"-0.009": 2.24701878773,
			"-0.008": 4.10778448277,
			"-0.007": 4.48218518069,
			"-0.006": 7.93113200256,
			"-0.005": 11.8914704117,
			"-0.004": 11.7003899923,
			"-0.003": 10.7821118055,
			"-0.002": 10.5499351342,
			"-0.001": 13.8813816312,
			"0.0": 10.4944270667,
			"0.001": 14.4200892467,
			"0.002": 15.5842314689,
			"0.003": 14.1046528959,
			"0.004": 14.5073007211,
			"0.005": 5.91639879579,
			"0.006": 3.49010995282,
			"0.007": 2.69793465994,
			"0.008": 3.20686169202,
			"0.009": 3.64545162112,
			"0.01": 4.47494265872,
			"0.011": 4.39682231811,
			"0.012": 2.61890453448,
			"0.013": 1.67608796209,
			"0.014": 0.123492975637,
			"0.015": 0.0,
			"0.016": 0.0,
			"0.017": 0.0,
			"0.018": 0.0,
			"0.019": 0.0,
			"0.02": 0.0,
			"0.021": 0.0,
			"0.022": 0.0,
			"0.023": 0.0,
			"0.024": 0.0,
			"0.025": 0.0
		}
	}
}
