{
	 "smiles": "CCN(CC)C(=O)COC1=CC=C(C=C1)C(C)=O", 
	 "Tm": 335.15, 
	 "num_atms": 37, 
	 "gaussian": { 
		 "optdone": 1, 
		 "sigma_profile": "yes", 
		 "theory": "DFT", 
		 "functional": "B3LYP", 
		 "basiset": "6-31G**", 
		 "properties": { 
			 "R2extent": 6785.5815, 
			 "electric_dipole_moment_norm": 5.49603350154, 
			 "electric_quadrupole_moment_norm": 23.9911073625, 
			 "total_energy": -825.373754577, 
			 "HOMO_LUMO_gap": 0.18349, 
			 "cosmo_polarized_energy": -19.76, 
			 "cosmo_cavitation_energy": 39.84, 
			 "cosmo_dispersion_energy": -27.35, 
			 "cosmo_repulsion_energy": 2.12, 
			 "cosmo_total_nonelectrostatic_energy": 14.61, 
			 "SMD_solvation_energy": 7.91 
		},
		"coords": [
			{
				"x": -3.4809896531,
				"y": 2.3230369713,
				"z": -2.1649582911,
				"element": "C" 
			},
			{
				"x": -3.6202277141,
				"y": 0.7971928164,
				"z": -2.225605723,
				"element": "C" 
			},
			{
				"x": -2.3866413193,
				"y": 0.091827236,
				"z": -2.5782516663,
				"element": "N" 
			},
			{
				"x": -1.9727290021,
				"y": 0.0606016789,
				"z": -3.9911311422,
				"element": "C" 
			},
			{
				"x": -0.8124601615,
				"y": 1.0032806307,
				"z": -4.3232269425,
				"element": "C" 
			},
			{
				"x": -1.5914095119,
				"y": -0.5786025578,
				"z": -1.6859622315,
				"element": "C" 
			},
			{
				"x": -0.5800268988,
				"y": -1.1772552434,
				"z": -2.0280354203,
				"element": "O" 
			},
			{
				"x": -2.0251828346,
				"y": -0.5631787362,
				"z": -0.202824259,
				"element": "C" 
			},
			{
				"x": -1.1053721165,
				"y": -1.247998925,
				"z": 0.6180382451,
				"element": "O" 
			},
			{
				"x": 0.0740908537,
				"y": -0.653521836,
				"z": 0.9547122156,
				"element": "C" 
			},
			{
				"x": 0.8932314295,
				"y": -1.3991403209,
				"z": 1.8156921272,
				"element": "C" 
			},
			{
				"x": 2.1011347187,
				"y": -0.8754274329,
				"z": 2.2530732356,
				"element": "C" 
			},
			{
				"x": 2.5223115295,
				"y": 0.4039893479,
				"z": 1.8487616766,
				"element": "C" 
			},
			{
				"x": 1.6930124834,
				"y": 1.1334578871,
				"z": 0.9843495101,
				"element": "C" 
			},
			{
				"x": 0.4825165302,
				"y": 0.6204935686,
				"z": 0.5334385021,
				"element": "C" 
			},
			{
				"x": 3.8066837571,
				"y": 1.0212308037,
				"z": 2.289331013,
				"element": "C" 
			},
			{
				"x": 4.7220785147,
				"y": 0.229178301,
				"z": 3.2112197991,
				"element": "C" 
			},
			{
				"x": 4.1255862667,
				"y": 2.1441485985,
				"z": 1.9207217339,
				"element": "O" 
			},
			{
				"x": -3.1820256773,
				"y": 2.7344006997,
				"z": -3.1331654791,
				"element": "H" 
			},
			{
				"x": -2.731736274,
				"y": 2.622642344,
				"z": -1.4253177413,
				"element": "H" 
			},
			{
				"x": -4.4373290565,
				"y": 2.7786937505,
				"z": -1.8872894042,
				"element": "H" 
			},
			{
				"x": -4.3842373797,
				"y": 0.5266917015,
				"z": -2.9649591597,
				"element": "H" 
			},
			{
				"x": -3.988552701,
				"y": 0.4233027659,
				"z": -1.2678533028,
				"element": "H" 
			},
			{
				"x": -1.6810327199,
				"y": -0.9664274069,
				"z": -4.2285705078,
				"element": "H" 
			},
			{
				"x": -2.8550610032,
				"y": 0.3077927167,
				"z": -4.5904633876,
				"element": "H" 
			},
			{
				"x": 0.0689939426,
				"y": 0.7300111103,
				"z": -3.7394535003,
				"element": "H" 
			},
			{
				"x": -0.558076444,
				"y": 0.9212311165,
				"z": -5.3853443402,
				"element": "H" 
			},
			{
				"x": -1.0643859134,
				"y": 2.047509594,
				"z": -4.1145879513,
				"element": "H" 
			},
			{
				"x": -2.1880173829,
				"y": 0.4620682274,
				"z": 0.1548758078,
				"element": "H" 
			},
			{
				"x": -2.9673182333,
				"y": -1.1085739754,
				"z": -0.0874317632,
				"element": "H" 
			},
			{
				"x": 0.5573328591,
				"y": -2.3833539798,
				"z": 2.1242107278,
				"element": "H" 
			},
			{
				"x": 2.7179820196,
				"y": -1.4711382499,
				"z": 2.9183111875,
				"element": "H" 
			},
			{
				"x": 2.027565805,
				"y": 2.1161110383,
				"z": 0.6685414789,
				"element": "H" 
			},
			{
				"x": -0.1193310202,
				"y": 1.2039252554,
				"z": -0.1529081252,
				"element": "H" 
			},
			{
				"x": 4.2169456047,
				"y": -0.0183051639,
				"z": 4.1515276417,
				"element": "H" 
			},
			{
				"x": 5.6062174055,
				"y": 0.8307756696,
				"z": 3.4239895743,
				"element": "H" 
			},
			{
				"x": 5.0280592974,
				"y": -0.714870002,
				"z": 2.7469458622,
				"element": "H" 
			}
		],
		 "valence_orbital": [ 
			{
				"type": "occ",
				"energy": -0.25866,
				"method": "rhf"
			},
			{
				"type": "occ",
				"energy": -0.25387,
				"method": "rhf"
			},
			{
				"type": "occ",
				"energy": -0.24684,
				"method": "rhf"
			},
			{
				"type": "occ",
				"energy": -0.23581,
				"method": "rhf"
			},
			{
				"type": "occ",
				"energy": -0.22228,
				"method": "rhf"
			},
			{
				"type": "unocc",
				"energy": -0.03879,
				"method": "rhf"
			},
			{
				"type": "unocc",
				"energy": -0.00318,
				"method": "rhf"
			},
			{
				"type": "unocc",
				"energy": 0.01784,
				"method": "rhf"
			},
			{
				"type": "unocc",
				"energy": 0.05506,
				"method": "rhf"
			},
			{
				"type": "unocc",
				"energy": 0.06012,
				"method": "rhf"
			}
		],
		"cosmo_sigma_profile": { 
			"-0.025": 0.0,
			"-0.024": 0.0,
			"-0.023": 0.0,
			"-0.022": 0.0,
			"-0.021": 0.0,
			"-0.02": 0.0,
			"-0.019": 0.0,
			"-0.018": 0.0,
			"-0.017": 0.0,
			"-0.016": 0.0,
			"-0.015": 0.0,
			"-0.014": 0.0,
			"-0.013": 0.0,
			"-0.012": 0.0,
			"-0.011": 0.0,
			"-0.01": 0.0,
			"-0.009": 1.57232512982,
			"-0.008": 4.85887268371,
			"-0.007": 9.33579697764,
			"-0.006": 17.980624789,
			"-0.005": 22.8588093768,
			"-0.004": 27.4651383811,
			"-0.003": 30.6362074071,
			"-0.002": 29.7821975568,
			"-0.001": 27.9461693643,
			"0.0": 27.9164896915,
			"0.001": 20.9251554096,
			"0.002": 13.4898019372,
			"0.003": 14.4965993638,
			"0.004": 13.9084571931,
			"0.005": 5.68909056434,
			"0.006": 5.61198174621,
			"0.007": 4.75312949864,
			"0.008": 4.1274043551,
			"0.009": 4.44716602536,
			"0.01": 3.9222097905,
			"0.011": 4.64423230284,
			"0.012": 6.39741745174,
			"0.013": 6.40339775879,
			"0.014": 4.2301731413,
			"0.015": 0.255557603751,
			"0.016": 0.0,
			"0.017": 0.0,
			"0.018": 0.0,
			"0.019": 0.0,
			"0.02": 0.0,
			"0.021": 0.0,
			"0.022": 0.0,
			"0.023": 0.0,
			"0.024": 0.0,
			"0.025": 0.0
		}
	}
}
