{
	 "smiles": "COC(=O)NC1=NC2=C(N1)C=CC(=C2)[S@](=O)C1=CC=CC=C1", 
	 "Tm": 526.15, 
	 "num_atms": 35, 
	 "gaussian": { 
		 "optdone": 1, 
		 "sigma_profile": "yes", 
		 "theory": "DFT", 
		 "functional": "B3LYP", 
		 "basiset": "6-31G**", 
		 "properties": { 
			 "R2extent": 11135.153, 
			 "electric_dipole_moment_norm": 7.45381886217, 
			 "electric_quadrupole_moment_norm": 23.7783958519, 
			 "total_energy": -1367.52408575, 
			 "HOMO_LUMO_gap": 0.18934, 
			 "cosmo_polarized_energy": -24.67, 
			 "cosmo_cavitation_energy": 42.02, 
			 "cosmo_dispersion_energy": -30.63, 
			 "cosmo_repulsion_energy": 2.28, 
			 "cosmo_total_nonelectrostatic_energy": 13.68, 
			 "SMD_solvation_energy": 5.93 
		},
		"coords": [
			{
				"x": -5.5982945495,
				"y": -2.5654372011,
				"z": 0.3917860058,
				"element": "C" 
			},
			{
				"x": -4.4982201833,
				"y": -1.6523262744,
				"z": 0.2073775036,
				"element": "O" 
			},
			{
				"x": -4.5868027605,
				"y": -0.8893699855,
				"z": -0.9137923722,
				"element": "C" 
			},
			{
				"x": -5.4969675287,
				"y": -0.9458198798,
				"z": -1.7119662297,
				"element": "O" 
			},
			{
				"x": -3.5151181741,
				"y": -0.033479201,
				"z": -1.0454799044,
				"element": "N" 
			},
			{
				"x": -2.3975363755,
				"y": 0.1736436888,
				"z": -0.2498428505,
				"element": "C" 
			},
			{
				"x": -1.483525077,
				"y": 1.0578638739,
				"z": -0.5672872651,
				"element": "N" 
			},
			{
				"x": -0.549049268,
				"y": 0.9644441562,
				"z": 0.4548636999,
				"element": "C" 
			},
			{
				"x": -0.9444943789,
				"y": -0.0167065184,
				"z": 1.4008495898,
				"element": "C" 
			},
			{
				"x": -2.1468513249,
				"y": -0.5093812866,
				"z": 0.9142189087,
				"element": "N" 
			},
			{
				"x": -0.2006236785,
				"y": -0.3106403465,
				"z": 2.5417604517,
				"element": "C" 
			},
			{
				"x": 0.9818635561,
				"y": 0.406125337,
				"z": 2.7242000714,
				"element": "C" 
			},
			{
				"x": 1.388141311,
				"y": 1.3617755698,
				"z": 1.7773382228,
				"element": "C" 
			},
			{
				"x": 0.6396417017,
				"y": 1.6731111788,
				"z": 0.6475870779,
				"element": "C" 
			},
			{
				"x": 2.9194744675,
				"y": 2.314893445,
				"z": 2.0665659516,
				"element": "S" 
			},
			{
				"x": 2.8786040155,
				"y": 3.5003659802,
				"z": 1.1238662712,
				"element": "O" 
			},
			{
				"x": 4.1033863398,
				"y": 1.1269615076,
				"z": 1.3301168442,
				"element": "C" 
			},
			{
				"x": 4.5289155155,
				"y": 0.0060730279,
				"z": 2.0438284041,
				"element": "C" 
			},
			{
				"x": 5.4676678125,
				"y": -0.8501350052,
				"z": 1.4662591231,
				"element": "C" 
			},
			{
				"x": 5.9804826486,
				"y": -0.5732834861,
				"z": 0.1959647559,
				"element": "C" 
			},
			{
				"x": 5.5587259555,
				"y": 0.5630242624,
				"z": -0.4981344153,
				"element": "C" 
			},
			{
				"x": 4.6182830455,
				"y": 1.4239866472,
				"z": 0.0707983089,
				"element": "C" 
			},
			{
				"x": -6.5388049606,
				"y": -2.0169171479,
				"z": 0.4712386,
				"element": "H" 
			},
			{
				"x": -5.6584654893,
				"y": -3.2627901141,
				"z": -0.4459698394,
				"element": "H" 
			},
			{
				"x": -5.3827752974,
				"y": -3.0957199356,
				"z": 1.3190427478,
				"element": "H" 
			},
			{
				"x": -3.5462466243,
				"y": 0.5536671232,
				"z": -1.8681702942,
				"element": "H" 
			},
			{
				"x": -2.7500006755,
				"y": -1.2189420386,
				"z": 1.2999169527,
				"element": "H" 
			},
			{
				"x": -0.5252913682,
				"y": -1.0508118014,
				"z": 3.2664682264,
				"element": "H" 
			},
			{
				"x": 1.5842716361,
				"y": 0.2281196349,
				"z": 3.6104237626,
				"element": "H" 
			},
			{
				"x": 0.9732810187,
				"y": 2.4483526305,
				"z": -0.0343301988,
				"element": "H" 
			},
			{
				"x": 4.1377779017,
				"y": -0.2008626282,
				"z": 3.036490459,
				"element": "H" 
			},
			{
				"x": 5.8042581312,
				"y": -1.7279291804,
				"z": 2.0104658037,
				"element": "H" 
			},
			{
				"x": 6.7155924135,
				"y": -1.2387696485,
				"z": -0.2473458557,
				"element": "H" 
			},
			{
				"x": 5.9653821928,
				"y": 0.7816638156,
				"z": -1.4814847641,
				"element": "H" 
			},
			{
				"x": 4.280318051,
				"y": 2.3255498003,
				"z": -0.4314237535,
				"element": "H" 
			}
		],
		 "valence_orbital": [ 
			{
				"type": "occ",
				"energy": -0.26272,
				"method": "rhf"
			},
			{
				"type": "occ",
				"energy": -0.25599,
				"method": "rhf"
			},
			{
				"type": "occ",
				"energy": -0.23763,
				"method": "rhf"
			},
			{
				"type": "occ",
				"energy": -0.22433,
				"method": "rhf"
			},
			{
				"type": "occ",
				"energy": -0.21697,
				"method": "rhf"
			},
			{
				"type": "unocc",
				"energy": -0.02763,
				"method": "rhf"
			},
			{
				"type": "unocc",
				"energy": -0.02045,
				"method": "rhf"
			},
			{
				"type": "unocc",
				"energy": -0.0068,
				"method": "rhf"
			},
			{
				"type": "unocc",
				"energy": 0.00035,
				"method": "rhf"
			},
			{
				"type": "unocc",
				"energy": 0.0207,
				"method": "rhf"
			}
		],
		"cosmo_sigma_profile": { 
			"-0.025": 0.0,
			"-0.024": 0.0,
			"-0.023": 0.0,
			"-0.022": 0.0,
			"-0.021": 0.0,
			"-0.02": 0.0,
			"-0.019": 0.0,
			"-0.018": 0.0,
			"-0.017": 0.132275686611,
			"-0.016": 0.612005989951,
			"-0.015": 1.27587754548,
			"-0.014": 1.74804769574,
			"-0.013": 1.93108112877,
			"-0.012": 0.794092830468,
			"-0.011": 1.46131456881,
			"-0.01": 2.30004609624,
			"-0.009": 2.14433913233,
			"-0.008": 4.52572382241,
			"-0.007": 12.2996725649,
			"-0.006": 20.6496972429,
			"-0.005": 23.806531535,
			"-0.004": 30.5309309639,
			"-0.003": 23.4412737121,
			"-0.002": 21.2895658811,
			"-0.001": 21.2203854057,
			"0.0": 22.1673991451,
			"0.001": 19.067227536,
			"0.002": 20.9823556843,
			"0.003": 25.295800697,
			"0.004": 26.0961496228,
			"0.005": 8.90081926422,
			"0.006": 5.53211238847,
			"0.007": 3.47153562001,
			"0.008": 3.97154566698,
			"0.009": 3.50075054161,
			"0.01": 3.36003296479,
			"0.011": 7.28869582701,
			"0.012": 6.81201286948,
			"0.013": 4.06221550196,
			"0.014": 3.85758847339,
			"0.015": 2.94651935701,
			"0.016": 0.951357019267,
			"0.017": 0.0443405171843,
			"0.018": 0.0,
			"0.019": 0.0,
			"0.02": 0.0,
			"0.021": 0.0,
			"0.022": 0.0,
			"0.023": 0.0,
			"0.024": 0.0,
			"0.025": 0.0
		}
	}
}
