{
	 "smiles": "CN(C)CCNS(=O)(=O)C1=CC(=C(Cl)C=C1)[N+]([O-])=O", 
	 "Tm": 362.15, 
	 "num_atms": 33, 
	 "gaussian": { 
		 "optdone": 1, 
		 "sigma_profile": "yes", 
		 "theory": "DFT", 
		 "functional": "B3LYP", 
		 "basiset": "6-31G**", 
		 "properties": { 
			 "R2extent": 8815.2048, 
			 "electric_dipole_moment_norm": 4.58278768982, 
			 "electric_quadrupole_moment_norm": 21.0520070651, 
			 "total_energy": -1712.83116924, 
			 "HOMO_LUMO_gap": 0.12122, 
			 "cosmo_polarized_energy": -18.01, 
			 "cosmo_cavitation_energy": 40.65, 
			 "cosmo_dispersion_energy": -28.66, 
			 "cosmo_repulsion_energy": 2.2, 
			 "cosmo_total_nonelectrostatic_energy": 14.19, 
			 "SMD_solvation_energy": 5.55 
		},
		"coords": [
			{
				"x": 0.9599828912,
				"y": -3.5035617151,
				"z": -2.9464561257,
				"element": "C" 
			},
			{
				"x": 0.7998934313,
				"y": -4.0986687496,
				"z": -1.6228452522,
				"element": "N" 
			},
			{
				"x": 1.4781806042,
				"y": -5.3882544583,
				"z": -1.5507032812,
				"element": "C" 
			},
			{
				"x": 1.2211816258,
				"y": -3.1993070943,
				"z": -0.551184554,
				"element": "C" 
			},
			{
				"x": 0.1686668859,
				"y": -2.1140619902,
				"z": -0.2774954451,
				"element": "C" 
			},
			{
				"x": 0.4920343322,
				"y": -1.2540867056,
				"z": 0.8716404014,
				"element": "N" 
			},
			{
				"x": 1.5035709165,
				"y": 0.0690895278,
				"z": 0.683346846,
				"element": "S" 
			},
			{
				"x": 2.1227640658,
				"y": 0.2712837358,
				"z": 1.995219529,
				"element": "O" 
			},
			{
				"x": 2.3022425971,
				"y": -0.0436239724,
				"z": -0.5422846282,
				"element": "O" 
			},
			{
				"x": 0.340726494,
				"y": 1.4124353146,
				"z": 0.3904991726,
				"element": "C" 
			},
			{
				"x": -0.6348047768,
				"y": 1.6989551617,
				"z": 1.3393599077,
				"element": "C" 
			},
			{
				"x": -1.4888327728,
				"y": 2.7802082052,
				"z": 1.1383102327,
				"element": "C" 
			},
			{
				"x": -1.3900837343,
				"y": 3.5674531197,
				"z": -0.0230666615,
				"element": "C" 
			},
			{
				"x": -2.4706540063,
				"y": 4.8780882452,
				"z": -0.3899888901,
				"element": "Cl" 
			},
			{
				"x": -0.4097957471,
				"y": 3.2525185872,
				"z": -0.968309878,
				"element": "C" 
			},
			{
				"x": 0.4638291416,
				"y": 2.1874511783,
				"z": -0.7620106749,
				"element": "C" 
			},
			{
				"x": -2.4727148408,
				"y": 3.0364964102,
				"z": 2.2087546357,
				"element": "N" 
			},
			{
				"x": -2.8786944947,
				"y": 2.0531469497,
				"z": 2.826498803,
				"element": "O" 
			},
			{
				"x": -2.7930974078,
				"y": 4.1980462971,
				"z": 2.4299707615,
				"element": "O" 
			},
			{
				"x": 0.3956133228,
				"y": -2.5701222142,
				"z": -3.0225177402,
				"element": "H" 
			},
			{
				"x": 2.0148462236,
				"y": -3.2831288045,
				"z": -3.1970518644,
				"element": "H" 
			},
			{
				"x": 0.5655882064,
				"y": -4.188037033,
				"z": -3.7038986815,
				"element": "H" 
			},
			{
				"x": 1.0845404327,
				"y": -6.052064623,
				"z": -2.327087122,
				"element": "H" 
			},
			{
				"x": 2.5737927483,
				"y": -5.3178679709,
				"z": -1.6897356407,
				"element": "H" 
			},
			{
				"x": 1.2880549967,
				"y": -5.856375028,
				"z": -0.579751361,
				"element": "H" 
			},
			{
				"x": 2.1973830684,
				"y": -2.7218818146,
				"z": -0.7487181327,
				"element": "H" 
			},
			{
				"x": 1.3336704643,
				"y": -3.7947076013,
				"z": 0.3637933333,
				"element": "H" 
			},
			{
				"x": 0.0363724051,
				"y": -1.4634803064,
				"z": -1.1452998034,
				"element": "H" 
			},
			{
				"x": -0.7986196598,
				"y": -2.5862899388,
				"z": -0.0799313304,
				"element": "H" 
			},
			{
				"x": 0.753385974,
				"y": -1.7386248632,
				"z": 1.7263745951,
				"element": "H" 
			},
			{
				"x": -0.753161552,
				"y": 1.0988862503,
				"z": 2.2330579059,
				"element": "H" 
			},
			{
				"x": -0.3422024625,
				"y": 3.8514324022,
				"z": -1.8692368155,
				"element": "H" 
			},
			{
				"x": 1.2327406266,
				"y": 1.9485534986,
				"z": -1.4880522412,
				"element": "H" 
			}
		],
		 "valence_orbital": [ 
			{
				"type": "occ",
				"energy": -0.31004,
				"method": "rhf"
			},
			{
				"type": "occ",
				"energy": -0.29723,
				"method": "rhf"
			},
			{
				"type": "occ",
				"energy": -0.29374,
				"method": "rhf"
			},
			{
				"type": "occ",
				"energy": -0.2745,
				"method": "rhf"
			},
			{
				"type": "occ",
				"energy": -0.22311,
				"method": "rhf"
			},
			{
				"type": "unocc",
				"energy": -0.10189,
				"method": "rhf"
			},
			{
				"type": "unocc",
				"energy": -0.06647,
				"method": "rhf"
			},
			{
				"type": "unocc",
				"energy": -0.03257,
				"method": "rhf"
			},
			{
				"type": "unocc",
				"energy": -0.00049,
				"method": "rhf"
			},
			{
				"type": "unocc",
				"energy": 0.04538,
				"method": "rhf"
			}
		],
		"cosmo_sigma_profile": { 
			"-0.025": 0.0,
			"-0.024": 0.0,
			"-0.023": 0.0,
			"-0.022": 0.0,
			"-0.021": 0.0,
			"-0.02": 0.0,
			"-0.019": 0.0,
			"-0.018": 0.0,
			"-0.017": 0.0,
			"-0.016": 0.0,
			"-0.015": 0.281144688203,
			"-0.014": 1.11719306675,
			"-0.013": 0.787518091452,
			"-0.012": 1.35072883939,
			"-0.011": 1.16874225678,
			"-0.01": 1.60375719561,
			"-0.009": 5.76212663154,
			"-0.008": 7.9416434154,
			"-0.007": 8.04387843081,
			"-0.006": 10.2826249156,
			"-0.005": 14.8540274316,
			"-0.004": 22.2058747255,
			"-0.003": 26.4365322994,
			"-0.002": 35.750643985,
			"-0.001": 39.0204876644,
			"0.0": 28.5379285854,
			"0.001": 16.4313777198,
			"0.002": 13.38075899,
			"0.003": 13.1357772035,
			"0.004": 7.59108111056,
			"0.005": 7.94608155168,
			"0.006": 10.6391274831,
			"0.007": 14.796315027,
			"0.008": 9.38388912408,
			"0.009": 7.1794762885,
			"0.01": 8.66440621034,
			"0.011": 7.28847272304,
			"0.012": 1.23874336595,
			"0.013": 0.140730607647,
			"0.014": 0.518272699874,
			"0.015": 0.611180251469,
			"0.016": 0.0137070335448,
			"0.017": 0.0,
			"0.018": 0.0,
			"0.019": 0.0,
			"0.02": 0.0,
			"0.021": 0.0,
			"0.022": 0.0,
			"0.023": 0.0,
			"0.024": 0.0,
			"0.025": 0.0
		}
	}
}
