{
	 "smiles": "OC(=O)CC1=C(OC(F)F)C=CC=C1", 
	 "Tm": 350.15, 
	 "num_atms": 22, 
	 "gaussian": { 
		 "optdone": 1, 
		 "sigma_profile": "yes", 
		 "theory": "DFT", 
		 "functional": "B3LYP", 
		 "basiset": "6-31G**", 
		 "properties": { 
			 "R2extent": 2993.7047, 
			 "electric_dipole_moment_norm": 4.80820619462, 
			 "electric_quadrupole_moment_norm": 22.6237102801, 
			 "total_energy": -773.137001144, 
			 "HOMO_LUMO_gap": 0.2283, 
			 "cosmo_polarized_energy": -12.99, 
			 "cosmo_cavitation_energy": 26.67, 
			 "cosmo_dispersion_energy": -19.16, 
			 "cosmo_repulsion_energy": 1.47, 
			 "cosmo_total_nonelectrostatic_energy": 8.97, 
			 "SMD_solvation_energy": 6.6 
		},
		"coords": [
			{
				"x": 2.6657926145,
				"y": -0.7082024545,
				"z": -0.5595672278,
				"element": "O" 
			},
			{
				"x": 3.012865568,
				"y": -0.4342163206,
				"z": 0.7176246909,
				"element": "C" 
			},
			{
				"x": 4.1704835477,
				"y": -0.2962693173,
				"z": 1.0287704648,
				"element": "O" 
			},
			{
				"x": 1.8510583003,
				"y": -0.2941426589,
				"z": 1.7069643004,
				"element": "C" 
			},
			{
				"x": 1.0116663287,
				"y": 0.9380107731,
				"z": 1.4258288226,
				"element": "C" 
			},
			{
				"x": -0.3484895997,
				"y": 0.8673958206,
				"z": 1.1043845508,
				"element": "C" 
			},
			{
				"x": -0.9802686048,
				"y": -0.3941088694,
				"z": 1.1152864016,
				"element": "O" 
			},
			{
				"x": -1.3164842717,
				"y": -0.9588875632,
				"z": -0.0741420299,
				"element": "C" 
			},
			{
				"x": -0.1997251306,
				"y": -1.1761661603,
				"z": -0.860252315,
				"element": "F" 
			},
			{
				"x": -2.1360994052,
				"y": -0.1754370176,
				"z": -0.8159646717,
				"element": "F" 
			},
			{
				"x": -1.114883021,
				"y": 2.0092078267,
				"z": 0.8698801649,
				"element": "C" 
			},
			{
				"x": -0.5098382097,
				"y": 3.2619670624,
				"z": 0.9367586661,
				"element": "C" 
			},
			{
				"x": 0.8486621534,
				"y": 3.3632697358,
				"z": 1.2463638868,
				"element": "C" 
			},
			{
				"x": 1.5944002926,
				"y": 2.2130440789,
				"z": 1.4909264607,
				"element": "C" 
			},
			{
				"x": 1.7017476363,
				"y": -0.7747495938,
				"z": -0.64918039,
				"element": "H" 
			},
			{
				"x": 1.2267696942,
				"y": -1.1908559734,
				"z": 1.6736018256,
				"element": "H" 
			},
			{
				"x": 2.2967160883,
				"y": -0.2290841519,
				"z": 2.7020350641,
				"element": "H" 
			},
			{
				"x": -1.7930124275,
				"y": -1.9209523774,
				"z": 0.1218441793,
				"element": "H" 
			},
			{
				"x": -2.1692675393,
				"y": 1.9036251844,
				"z": 0.6452672547,
				"element": "H" 
			},
			{
				"x": -1.0998965002,
				"y": 4.1544309128,
				"z": 0.7529494721,
				"element": "H" 
			},
			{
				"x": 1.3248566033,
				"y": 4.337241758,
				"z": 1.3024116456,
				"element": "H" 
			},
			{
				"x": 2.6509458826,
				"y": 2.2888793056,
				"z": 1.7331087834,
				"element": "H" 
			}
		],
		 "valence_orbital": [ 
			{
				"type": "occ",
				"energy": -0.34125,
				"method": "rhf"
			},
			{
				"type": "occ",
				"energy": -0.30844,
				"method": "rhf"
			},
			{
				"type": "occ",
				"energy": -0.2759,
				"method": "rhf"
			},
			{
				"type": "occ",
				"energy": -0.26641,
				"method": "rhf"
			},
			{
				"type": "occ",
				"energy": -0.25488,
				"method": "rhf"
			},
			{
				"type": "unocc",
				"energy": -0.02658,
				"method": "rhf"
			},
			{
				"type": "unocc",
				"energy": -0.02181,
				"method": "rhf"
			},
			{
				"type": "unocc",
				"energy": 0.01859,
				"method": "rhf"
			},
			{
				"type": "unocc",
				"energy": 0.07706,
				"method": "rhf"
			},
			{
				"type": "unocc",
				"energy": 0.08707,
				"method": "rhf"
			}
		],
		"cosmo_sigma_profile": { 
			"-0.025": 0.0,
			"-0.024": 0.0,
			"-0.023": 0.0,
			"-0.022": 0.0,
			"-0.021": 0.0,
			"-0.02": 0.0,
			"-0.019": 0.0,
			"-0.018": 0.0,
			"-0.017": 0.0,
			"-0.016": 0.0,
			"-0.015": 0.0,
			"-0.014": 0.0,
			"-0.013": 0.0,
			"-0.012": 0.195476267013,
			"-0.011": 3.27171872623,
			"-0.01": 2.72710502349,
			"-0.009": 2.44752258845,
			"-0.008": 4.0156118752,
			"-0.007": 7.37285769826,
			"-0.006": 14.6917916166,
			"-0.005": 15.4815448435,
			"-0.004": 14.989121195,
			"-0.003": 12.8647651599,
			"-0.002": 12.2920619656,
			"-0.001": 11.8362882534,
			"0.0": 13.9093683026,
			"0.001": 12.6889068227,
			"0.002": 17.0118977425,
			"0.003": 22.1510041733,
			"0.004": 12.256214508,
			"0.005": 3.30116620615,
			"0.006": 2.85272135662,
			"0.007": 3.69392153287,
			"0.008": 2.9306513078,
			"0.009": 2.75402821182,
			"0.01": 4.70283205391,
			"0.011": 5.26243962372,
			"0.012": 5.39909845977,
			"0.013": 2.13727994397,
			"0.014": 0.0603233935782,
			"0.015": 0.0,
			"0.016": 0.0,
			"0.017": 0.0,
			"0.018": 0.0,
			"0.019": 0.0,
			"0.02": 0.0,
			"0.021": 0.0,
			"0.022": 0.0,
			"0.023": 0.0,
			"0.024": 0.0,
			"0.025": 0.0
		}
	}
}
