{
	 "smiles": "CC(=O)O[C@H]1CC[C@@]2(C)[C@H](C1)CC1(OCCO1)C1C3CCC(=O)[C@@]3(C)CCC21", 
	 "Tm": 513.15, 
	 "num_atms": 62, 
	 "gaussian": { 
		 "optdone": 1, 
		 "sigma_profile": "yes", 
		 "theory": "DFT", 
		 "functional": "B3LYP", 
		 "basiset": "6-31G**", 
		 "properties": { 
			 "R2extent": 12973.9077, 
			 "electric_dipole_moment_norm": 3.60552065727, 
			 "electric_quadrupole_moment_norm": 29.0887082539, 
			 "total_energy": -1273.07644196, 
			 "HOMO_LUMO_gap": 0.21833, 
			 "cosmo_polarized_energy": -16.62, 
			 "cosmo_cavitation_energy": 53.99, 
			 "cosmo_dispersion_energy": -36.94, 
			 "cosmo_repulsion_energy": 2.73, 
			 "cosmo_total_nonelectrostatic_energy": 19.78, 
			 "SMD_solvation_energy": 9.48 
		},
		"coords": [
			{
				"x": 3.3963646078,
				"y": -6.4897535855,
				"z": 0.2686360272,
				"element": "C" 
			},
			{
				"x": 2.5088483471,
				"y": -5.3685850157,
				"z": 0.7587122389,
				"element": "C" 
			},
			{
				"x": 1.4502036092,
				"y": -5.5154847769,
				"z": 1.3315772486,
				"element": "O" 
			},
			{
				"x": 3.0589832252,
				"y": -4.1657372645,
				"z": 0.4736334533,
				"element": "O" 
			},
			{
				"x": 2.3268069492,
				"y": -2.9834280269,
				"z": 0.8963589011,
				"element": "C" 
			},
			{
				"x": 3.3510432955,
				"y": -1.8709896963,
				"z": 1.0996399021,
				"element": "C" 
			},
			{
				"x": 2.6399276068,
				"y": -0.5543154942,
				"z": 1.456103583,
				"element": "C" 
			},
			{
				"x": 1.6036161894,
				"y": -0.1062540806,
				"z": 0.3922803873,
				"element": "C" 
			},
			{
				"x": 2.362496432,
				"y": 0.2198656894,
				"z": -0.9211019118,
				"element": "C" 
			},
			{
				"x": 0.5907756555,
				"y": -1.2708333552,
				"z": 0.2008845284,
				"element": "C" 
			},
			{
				"x": 1.270759986,
				"y": -2.6095110089,
				"z": -0.1451376851,
				"element": "C" 
			},
			{
				"x": -0.489845381,
				"y": -0.8986854886,
				"z": -0.8171279698,
				"element": "C" 
			},
			{
				"x": -1.287301166,
				"y": 0.3220015516,
				"z": -0.3492328767,
				"element": "C" 
			},
			{
				"x": -2.2597253849,
				"y": 0.6917998413,
				"z": -1.3250937582,
				"element": "O" 
			},
			{
				"x": -3.4480739922,
				"y": -0.0321286568,
				"z": -1.0243466867,
				"element": "C" 
			},
			{
				"x": -3.4265556795,
				"y": -0.0885179433,
				"z": 0.5052059028,
				"element": "C" 
			},
			{
				"x": -2.0354698931,
				"y": -0.0647177673,
				"z": 0.8223252133,
				"element": "O" 
			},
			{
				"x": -0.3899357398,
				"y": 1.5549738795,
				"z": -0.0625496628,
				"element": "C" 
			},
			{
				"x": -1.2137574091,
				"y": 2.6833632326,
				"z": 0.5977179274,
				"element": "C" 
			},
			{
				"x": -2.1083404744,
				"y": 3.6045447067,
				"z": -0.2583378827,
				"element": "C" 
			},
			{
				"x": -2.5360446682,
				"y": 4.6990255718,
				"z": 0.7461760252,
				"element": "C" 
			},
			{
				"x": -1.4899615794,
				"y": 4.6582254056,
				"z": 1.8752994265,
				"element": "C" 
			},
			{
				"x": -1.5370098965,
				"y": 5.3014403834,
				"z": 2.9019542797,
				"element": "O" 
			},
			{
				"x": -0.3936240006,
				"y": 3.6580459353,
				"z": 1.4788602516,
				"element": "C" 
			},
			{
				"x": 0.6387690504,
				"y": 4.5200608875,
				"z": 0.700003462,
				"element": "C" 
			},
			{
				"x": 0.2564052123,
				"y": 2.8909877652,
				"z": 2.6525324745,
				"element": "C" 
			},
			{
				"x": 0.4921077147,
				"y": 1.391184819,
				"z": 2.3197753983,
				"element": "C" 
			},
			{
				"x": 0.8653113317,
				"y": 1.2130191885,
				"z": 0.8270823462,
				"element": "C" 
			},
			{
				"x": 3.537538124,
				"y": -6.4100085106,
				"z": -0.8133736347,
				"element": "H" 
			},
			{
				"x": 2.9398122536,
				"y": -7.4480312766,
				"z": 0.5142647208,
				"element": "H" 
			},
			{
				"x": 4.3849030514,
				"y": -6.4163652161,
				"z": 0.7314154515,
				"element": "H" 
			},
			{
				"x": 1.8293852148,
				"y": -3.2207974864,
				"z": 1.8428006342,
				"element": "H" 
			},
			{
				"x": 3.9529118361,
				"y": -1.7656846445,
				"z": 0.1901240619,
				"element": "H" 
			},
			{
				"x": 4.0425009327,
				"y": -2.1523686802,
				"z": 1.90182445,
				"element": "H" 
			},
			{
				"x": 3.381931093,
				"y": 0.2383714898,
				"z": 1.6158104846,
				"element": "H" 
			},
			{
				"x": 2.133173924,
				"y": -0.7030032972,
				"z": 2.415932883,
				"element": "H" 
			},
			{
				"x": 1.7169107853,
				"y": 0.6820516371,
				"z": -1.6721166368,
				"element": "H" 
			},
			{
				"x": 3.174348598,
				"y": 0.9262275429,
				"z": -0.7143588356,
				"element": "H" 
			},
			{
				"x": 2.8107485177,
				"y": -0.6620904905,
				"z": -1.3840914028,
				"element": "H" 
			},
			{
				"x": 0.0791366953,
				"y": -1.4098396473,
				"z": 1.1638311925,
				"element": "H" 
			},
			{
				"x": 1.7475699395,
				"y": -2.5626677752,
				"z": -1.1320984356,
				"element": "H" 
			},
			{
				"x": 0.5172095032,
				"y": -3.4028602498,
				"z": -0.1901314389,
				"element": "H" 
			},
			{
				"x": -0.0524279874,
				"y": -0.6817444505,
				"z": -1.7978130756,
				"element": "H" 
			},
			{
				"x": -1.1839515663,
				"y": -1.7355724078,
				"z": -0.9528060281,
				"element": "H" 
			},
			{
				"x": -4.2989545914,
				"y": 0.517013462,
				"z": -1.4349384085,
				"element": "H" 
			},
			{
				"x": -3.4266844791,
				"y": -1.0375469524,
				"z": -1.4678090636,
				"element": "H" 
			},
			{
				"x": -3.8767677518,
				"y": -0.9992105733,
				"z": 0.9129048058,
				"element": "H" 
			},
			{
				"x": -3.9285075368,
				"y": 0.7835431933,
				"z": 0.9463613221,
				"element": "H" 
			},
			{
				"x": -0.040728949,
				"y": 1.8856528652,
				"z": -1.0485447805,
				"element": "H" 
			},
			{
				"x": -1.8859195778,
				"y": 2.1780392104,
				"z": 1.3050237133,
				"element": "H" 
			},
			{
				"x": -1.5403334932,
				"y": 4.0322927777,
				"z": -1.0921234991,
				"element": "H" 
			},
			{
				"x": -2.9537308794,
				"y": 3.0719612999,
				"z": -0.6952656889,
				"element": "H" 
			},
			{
				"x": -2.5999904158,
				"y": 5.7069674329,
				"z": 0.3231689928,
				"element": "H" 
			},
			{
				"x": -3.5147044495,
				"y": 4.4896767617,
				"z": 1.1940732079,
				"element": "H" 
			},
			{
				"x": 1.4232676918,
				"y": 3.9140323685,
				"z": 0.2408040659,
				"element": "H" 
			},
			{
				"x": 0.1752075712,
				"y": 5.1118592216,
				"z": -0.0956468025,
				"element": "H" 
			},
			{
				"x": 1.1157382314,
				"y": 5.2195937778,
				"z": 1.3937727009,
				"element": "H" 
			},
			{
				"x": 1.2134776587,
				"y": 3.3595511501,
				"z": 2.9087268258,
				"element": "H" 
			},
			{
				"x": -0.3713511307,
				"y": 2.9831087413,
				"z": 3.5457396894,
				"element": "H" 
			},
			{
				"x": 1.2885358596,
				"y": 1.0274286061,
				"z": 2.9724397826,
				"element": "H" 
			},
			{
				"x": -0.3994640963,
				"y": 0.8011896209,
				"z": 2.5546504627,
				"element": "H" 
			},
			{
				"x": 1.6028354751,
				"y": 1.9978338022,
				"z": 0.62341774,
				"element": "H" 
			}
		],
		 "valence_orbital": [ 
			{
				"type": "occ",
				"energy": -0.28107,
				"method": "rhf"
			},
			{
				"type": "occ",
				"energy": -0.27138,
				"method": "rhf"
			},
			{
				"type": "occ",
				"energy": -0.26522,
				"method": "rhf"
			},
			{
				"type": "occ",
				"energy": -0.25272,
				"method": "rhf"
			},
			{
				"type": "occ",
				"energy": -0.22556,
				"method": "rhf"
			},
			{
				"type": "unocc",
				"energy": -0.00723,
				"method": "rhf"
			},
			{
				"type": "unocc",
				"energy": 0.01619,
				"method": "rhf"
			},
			{
				"type": "unocc",
				"energy": 0.06358,
				"method": "rhf"
			},
			{
				"type": "unocc",
				"energy": 0.06922,
				"method": "rhf"
			},
			{
				"type": "unocc",
				"energy": 0.08483,
				"method": "rhf"
			}
		],
		"cosmo_sigma_profile": { 
			"-0.025": 0.0,
			"-0.024": 0.0,
			"-0.023": 0.0,
			"-0.022": 0.0,
			"-0.021": 0.0,
			"-0.02": 0.0,
			"-0.019": 0.0,
			"-0.018": 0.0,
			"-0.017": 0.0,
			"-0.016": 0.0,
			"-0.015": 0.0,
			"-0.014": 0.0,
			"-0.013": 0.0,
			"-0.012": 0.0,
			"-0.011": 0.0,
			"-0.01": 0.0,
			"-0.009": 0.0,
			"-0.008": 0.0,
			"-0.007": 0.638042392859,
			"-0.006": 6.8983238327,
			"-0.005": 21.1086334913,
			"-0.004": 42.8789310179,
			"-0.003": 55.6933974658,
			"-0.002": 68.0349719418,
			"-0.001": 53.7740588384,
			"0.0": 45.2532921187,
			"0.001": 28.2624168608,
			"0.002": 13.8201080676,
			"0.003": 9.29182941246,
			"0.004": 7.6384621241,
			"0.005": 7.81933139835,
			"0.006": 7.81879024959,
			"0.007": 7.89287910487,
			"0.008": 5.56900973299,
			"0.009": 5.85761575649,
			"0.01": 5.43020963709,
			"0.011": 6.36572036538,
			"0.012": 9.74146927242,
			"0.013": 6.03946635681,
			"0.014": 0.621132128685,
			"0.015": 0.0,
			"0.016": 0.0,
			"0.017": 0.0,
			"0.018": 0.0,
			"0.019": 0.0,
			"0.02": 0.0,
			"0.021": 0.0,
			"0.022": 0.0,
			"0.023": 0.0,
			"0.024": 0.0,
			"0.025": 0.0
		}
	}
}
