{
	 "smiles": "COC1=C(C=C(Br)C=C1F)S(Cl)(=O)=O", 
	 "Tm": 324.15, 
	 "num_atms": 19, 
	 "gaussian": { 
		 "optdone": 1, 
		 "sigma_profile": "yes", 
		 "theory": "DFT", 
		 "functional": "B3LYP", 
		 "basiset": "6-31G**", 
		 "properties": { 
			 "R2extent": 5571.0072, 
			 "electric_dipole_moment_norm": 4.70207982706, 
			 "electric_quadrupole_moment_norm": 10.2222908998, 
			 "total_energy": -4024.94884834, 
			 "HOMO_LUMO_gap": 0.16541, 
			 "cosmo_polarized_energy": -9.56, 
			 "cosmo_cavitation_energy": 29.85, 
			 "cosmo_dispersion_energy": -22.22, 
			 "cosmo_repulsion_energy": 1.7, 
			 "cosmo_total_nonelectrostatic_energy": 9.32, 
			 "SMD_solvation_energy": 3.98 
		},
		"coords": [
			{
				"x": -2.907839821,
				"y": 2.2395437417,
				"z": -0.2253211625,
				"element": "C" 
			},
			{
				"x": -1.5552549107,
				"y": 2.290049432,
				"z": 0.2632387016,
				"element": "O" 
			},
			{
				"x": -0.9594623173,
				"y": 1.1740065041,
				"z": 0.7183097064,
				"element": "C" 
			},
			{
				"x": 0.4076204863,
				"y": 0.97583585,
				"z": 0.4475925877,
				"element": "C" 
			},
			{
				"x": 1.1326289476,
				"y": -0.105907392,
				"z": 0.9516142617,
				"element": "C" 
			},
			{
				"x": 0.4685038451,
				"y": -1.0436829013,
				"z": 1.7348095303,
				"element": "C" 
			},
			{
				"x": 1.4170757134,
				"y": -2.5404576179,
				"z": 2.4264827257,
				"element": "Br" 
			},
			{
				"x": -0.8891088311,
				"y": -0.8990326978,
				"z": 2.0203909542,
				"element": "C" 
			},
			{
				"x": -1.5739646504,
				"y": 0.1991945743,
				"z": 1.5227237467,
				"element": "C" 
			},
			{
				"x": -2.8760821028,
				"y": 0.3419453535,
				"z": 1.8405897466,
				"element": "F" 
			},
			{
				"x": 1.2772655875,
				"y": 2.0860991164,
				"z": -0.6623187267,
				"element": "S" 
			},
			{
				"x": 1.3586488982,
				"y": 3.8717406093,
				"z": 0.4771302963,
				"element": "Cl" 
			},
			{
				"x": 2.6530948531,
				"y": 1.6165664583,
				"z": -0.7753293942,
				"element": "O" 
			},
			{
				"x": 0.4692952414,
				"y": 2.3632923621,
				"z": -1.8409935193,
				"element": "O" 
			},
			{
				"x": -3.6241026441,
				"y": 2.2300747297,
				"z": 0.597811588,
				"element": "H" 
			},
			{
				"x": -3.0563113795,
				"y": 1.3617553599,
				"z": -0.8612150806,
				"element": "H" 
			},
			{
				"x": -3.0274210371,
				"y": 3.1448790088,
				"z": -0.8200001267,
				"element": "H" 
			},
			{
				"x": 2.1840594515,
				"y": -0.2056122736,
				"z": 0.715411956,
				"element": "H" 
			},
			{
				"x": -1.4205453301,
				"y": -1.6135902177,
				"z": 2.6373722086,
				"element": "H" 
			}
		],
		 "valence_orbital": [ 
			{
				"type": "occ",
				"energy": -0.31588,
				"method": "rhf"
			},
			{
				"type": "occ",
				"energy": -0.31334,
				"method": "rhf"
			},
			{
				"type": "occ",
				"energy": -0.3096,
				"method": "rhf"
			},
			{
				"type": "occ",
				"energy": -0.29531,
				"method": "rhf"
			},
			{
				"type": "occ",
				"energy": -0.25592,
				"method": "rhf"
			},
			{
				"type": "unocc",
				"energy": -0.09051,
				"method": "rhf"
			},
			{
				"type": "unocc",
				"energy": -0.05844,
				"method": "rhf"
			},
			{
				"type": "unocc",
				"energy": -0.03942,
				"method": "rhf"
			},
			{
				"type": "unocc",
				"energy": -0.01705,
				"method": "rhf"
			},
			{
				"type": "unocc",
				"energy": 0.03893,
				"method": "rhf"
			}
		],
		"cosmo_sigma_profile": { 
			"-0.025": 0.0,
			"-0.024": 0.0,
			"-0.023": 0.0,
			"-0.022": 0.0,
			"-0.021": 0.0,
			"-0.02": 0.0,
			"-0.019": 0.0,
			"-0.018": 0.0,
			"-0.017": 0.0,
			"-0.016": 0.0,
			"-0.015": 0.0,
			"-0.014": 0.0,
			"-0.013": 0.0,
			"-0.012": 0.0,
			"-0.011": 0.0,
			"-0.01": 0.934783040037,
			"-0.009": 1.95184848498,
			"-0.008": 2.69939803129,
			"-0.007": 7.44870909715,
			"-0.006": 10.3844681568,
			"-0.005": 14.6352212471,
			"-0.004": 17.1792106203,
			"-0.003": 19.9533932088,
			"-0.002": 21.9175830095,
			"-0.001": 20.7930185381,
			"0.0": 18.5440567187,
			"0.001": 15.0052273232,
			"0.002": 19.2147167759,
			"0.003": 28.8621899882,
			"0.004": 12.1293974036,
			"0.005": 5.86972933867,
			"0.006": 6.93629298525,
			"0.007": 8.08996013646,
			"0.008": 10.112028057,
			"0.009": 3.45134170788,
			"0.01": 0.0,
			"0.011": 0.0,
			"0.012": 0.0,
			"0.013": 0.0,
			"0.014": 0.0,
			"0.015": 0.0,
			"0.016": 0.0,
			"0.017": 0.0,
			"0.018": 0.0,
			"0.019": 0.0,
			"0.02": 0.0,
			"0.021": 0.0,
			"0.022": 0.0,
			"0.023": 0.0,
			"0.024": 0.0,
			"0.025": 0.0
		}
	}
}
