{
	 "smiles": "NN=C(C(=NN)C1=C2C=CC=CC2=CC=C1)C1=CC=CC=C1", 
	 "Tm": 491.15, 
	 "num_atms": 38, 
	 "gaussian": { 
		 "optdone": 1, 
		 "sigma_profile": "yes", 
		 "theory": "DFT", 
		 "functional": "B3LYP", 
		 "basiset": "6-31G**", 
		 "properties": { 
			 "R2extent": 7680.6608, 
			 "electric_dipole_moment_norm": 4.52937885035, 
			 "electric_quadrupole_moment_norm": 11.4296759958, 
			 "total_energy": -914.492590415, 
			 "HOMO_LUMO_gap": 0.14594, 
			 "cosmo_polarized_energy": -17.61, 
			 "cosmo_cavitation_energy": 41.21, 
			 "cosmo_dispersion_energy": -28.9, 
			 "cosmo_repulsion_energy": 2.22, 
			 "cosmo_total_nonelectrostatic_energy": 14.53, 
			 "SMD_solvation_energy": 5.91 
		},
		"coords": [
			{
				"x": -3.2358347783,
				"y": 0.5606534395,
				"z": -0.8277315273,
				"element": "N" 
			},
			{
				"x": -1.9256255657,
				"y": 0.4288085644,
				"z": -0.4800729067,
				"element": "N" 
			},
			{
				"x": -1.2265691518,
				"y": -0.5902473478,
				"z": -0.8618491568,
				"element": "C" 
			},
			{
				"x": 0.203904188,
				"y": -0.5978147498,
				"z": -0.3874833234,
				"element": "C" 
			},
			{
				"x": 0.7495652082,
				"y": -1.5919642694,
				"z": 0.2372490319,
				"element": "N" 
			},
			{
				"x": 0.0040261123,
				"y": -2.6678899615,
				"z": 0.6256523149,
				"element": "N" 
			},
			{
				"x": 1.0499944557,
				"y": 0.5939466449,
				"z": -0.6820194824,
				"element": "C" 
			},
			{
				"x": 2.0543395202,
				"y": 1.0990021422,
				"z": 0.2220231201,
				"element": "C" 
			},
			{
				"x": 2.2752251721,
				"y": 0.5790028407,
				"z": 1.5288744235,
				"element": "C" 
			},
			{
				"x": 3.2349291518,
				"y": 1.1142435518,
				"z": 2.3596987623,
				"element": "C" 
			},
			{
				"x": 4.0370787354,
				"y": 2.198859326,
				"z": 1.9354122631,
				"element": "C" 
			},
			{
				"x": 3.8437354304,
				"y": 2.7387596226,
				"z": 0.6860668941,
				"element": "C" 
			},
			{
				"x": 2.8533901524,
				"y": 2.2207781003,
				"z": -0.1930096151,
				"element": "C" 
			},
			{
				"x": 2.6408630839,
				"y": 2.8110801087,
				"z": -1.466254554,
				"element": "C" 
			},
			{
				"x": 1.6594600191,
				"y": 2.3310261547,
				"z": -2.3000912786,
				"element": "C" 
			},
			{
				"x": 0.8682860118,
				"y": 1.234644486,
				"z": -1.9003014338,
				"element": "C" 
			},
			{
				"x": -1.6945353677,
				"y": -1.6986005367,
				"z": -1.7498132326,
				"element": "C" 
			},
			{
				"x": -0.8369955215,
				"y": -2.187251923,
				"z": -2.7543756947,
				"element": "C" 
			},
			{
				"x": -1.2413928005,
				"y": -3.2165176026,
				"z": -3.6017029582,
				"element": "C" 
			},
			{
				"x": -2.5065094066,
				"y": -3.7919815249,
				"z": -3.4566261561,
				"element": "C" 
			},
			{
				"x": -3.3613535956,
				"y": -3.3328350923,
				"z": -2.4536133406,
				"element": "C" 
			},
			{
				"x": -2.9634706874,
				"y": -2.2956145976,
				"z": -1.608104902,
				"element": "C" 
			},
			{
				"x": -3.5277854604,
				"y": 0.1121552648,
				"z": -1.6960824291,
				"element": "H" 
			},
			{
				"x": -3.5045485598,
				"y": 1.5349601126,
				"z": -0.7806660856,
				"element": "H" 
			},
			{
				"x": -0.8233255094,
				"y": -2.8851603414,
				"z": 0.0742026437,
				"element": "H" 
			},
			{
				"x": 0.6028213174,
				"y": -3.4722660988,
				"z": 0.7562223374,
				"element": "H" 
			},
			{
				"x": 1.6817041562,
				"y": -0.2607688774,
				"z": 1.8617666052,
				"element": "H" 
			},
			{
				"x": 3.3754939846,
				"y": 0.6986320509,
				"z": 3.3536845608,
				"element": "H" 
			},
			{
				"x": 4.7951371092,
				"y": 2.606468012,
				"z": 2.5984323334,
				"element": "H" 
			},
			{
				"x": 4.4425048163,
				"y": 3.5816889716,
				"z": 0.3496812261,
				"element": "H" 
			},
			{
				"x": 3.2600768993,
				"y": 3.6538858061,
				"z": -1.7627836764,
				"element": "H" 
			},
			{
				"x": 1.4895397212,
				"y": 2.7872379219,
				"z": -3.2712904463,
				"element": "H" 
			},
			{
				"x": 0.0984110756,
				"y": 0.8747018897,
				"z": -2.5757661627,
				"element": "H" 
			},
			{
				"x": 0.1522734334,
				"y": -1.7525012222,
				"z": -2.8624839565,
				"element": "H" 
			},
			{
				"x": -0.5667960865,
				"y": -3.5728393862,
				"z": -4.3749477794,
				"element": "H" 
			},
			{
				"x": -2.8199875767,
				"y": -4.595948293,
				"z": -4.1160865478,
				"element": "H" 
			},
			{
				"x": -4.3409326704,
				"y": -3.7841196204,
				"z": -2.3237230532,
				"element": "H" 
			},
			{
				"x": -3.6288970163,
				"y": -1.9601135662,
				"z": -0.8189868169,
				"element": "H" 
			}
		],
		 "valence_orbital": [ 
			{
				"type": "occ",
				"energy": -0.25182,
				"method": "rhf"
			},
			{
				"type": "occ",
				"energy": -0.23466,
				"method": "rhf"
			},
			{
				"type": "occ",
				"energy": -0.22942,
				"method": "rhf"
			},
			{
				"type": "occ",
				"energy": -0.21697,
				"method": "rhf"
			},
			{
				"type": "occ",
				"energy": -0.18705,
				"method": "rhf"
			},
			{
				"type": "unocc",
				"energy": -0.04111,
				"method": "rhf"
			},
			{
				"type": "unocc",
				"energy": -0.03364,
				"method": "rhf"
			},
			{
				"type": "unocc",
				"energy": -0.01867,
				"method": "rhf"
			},
			{
				"type": "unocc",
				"energy": -0.001,
				"method": "rhf"
			},
			{
				"type": "unocc",
				"energy": 0.00609,
				"method": "rhf"
			}
		],
		"cosmo_sigma_profile": { 
			"-0.025": 0.0,
			"-0.024": 0.0,
			"-0.023": 0.0,
			"-0.022": 0.0,
			"-0.021": 0.0,
			"-0.02": 0.0,
			"-0.019": 0.0,
			"-0.018": 0.0,
			"-0.017": 0.0,
			"-0.016": 0.0,
			"-0.015": 0.0,
			"-0.014": 0.0485397193397,
			"-0.013": 1.49027483417,
			"-0.012": 3.06350628888,
			"-0.011": 3.68556150877,
			"-0.01": 4.19512868733,
			"-0.009": 3.19719945081,
			"-0.008": 3.30423060016,
			"-0.007": 4.33095798175,
			"-0.006": 15.6757718861,
			"-0.005": 25.9971863623,
			"-0.004": 29.3040524295,
			"-0.003": 26.8856256849,
			"-0.002": 20.6282629639,
			"-0.001": 17.2860974634,
			"0.0": 16.8362028546,
			"0.001": 18.9483707095,
			"0.002": 19.5009828749,
			"0.003": 19.8746926257,
			"0.004": 29.9854161563,
			"0.005": 26.6008386263,
			"0.006": 11.6865961179,
			"0.007": 4.75703708064,
			"0.008": 4.01015742258,
			"0.009": 4.44468260837,
			"0.01": 4.13756011647,
			"0.011": 3.91552351039,
			"0.012": 2.61896375848,
			"0.013": 2.14780745035,
			"0.014": 1.00212534827,
			"0.015": 0.0272581869625,
			"0.016": 0.0,
			"0.017": 0.0,
			"0.018": 0.0,
			"0.019": 0.0,
			"0.02": 0.0,
			"0.021": 0.0,
			"0.022": 0.0,
			"0.023": 0.0,
			"0.024": 0.0,
			"0.025": 0.0
		}
	}
}
