{
	 "smiles": "CCCCCCCCCCN(CCCCCCCCCC)CCCCCCCCCC", 
	 "Tm": 269.15, 
	 "num_atms": 94, 
	 "gaussian": { 
		 "optdone": 1, 
		 "sigma_profile": "yes", 
		 "theory": "DFT", 
		 "functional": "B3LYP", 
		 "basiset": "6-31G**", 
		 "properties": { 
			 "R2extent": 23763.6209, 
			 "electric_dipole_moment_norm": 0.452804284432, 
			 "electric_quadrupole_moment_norm": 3.04833959886, 
			 "total_energy": -1235.97489409, 
			 "HOMO_LUMO_gap": 0.24505, 
			 "cosmo_polarized_energy": -3.41, 
			 "cosmo_cavitation_energy": 86.24, 
			 "cosmo_dispersion_energy": -49.99, 
			 "cosmo_repulsion_energy": 4.03, 
			 "cosmo_total_nonelectrostatic_energy": 40.28, 
			 "SMD_solvation_energy": 9.23 
		},
		"coords": [
			{
				"x": -2.6749007955,
				"y": -2.3662891968,
				"z": -6.1013566184,
				"element": "C" 
			},
			{
				"x": -2.747917525,
				"y": -3.0102278762,
				"z": -4.7114450509,
				"element": "C" 
			},
			{
				"x": -2.7501482175,
				"y": -2.0111475845,
				"z": -3.5414319256,
				"element": "C" 
			},
			{
				"x": -4.0018466986,
				"y": -1.1237454847,
				"z": -3.4642563657,
				"element": "C" 
			},
			{
				"x": -3.9965032439,
				"y": -0.1114488984,
				"z": -2.3053465812,
				"element": "C" 
			},
			{
				"x": -4.0649705314,
				"y": -0.7413659104,
				"z": -0.9057672758,
				"element": "C" 
			},
			{
				"x": -4.215372732,
				"y": 0.2753256071,
				"z": 0.2401665467,
				"element": "C" 
			},
			{
				"x": -3.0527559323,
				"y": 1.2686354593,
				"z": 0.4169097575,
				"element": "C" 
			},
			{
				"x": -1.7019797879,
				"y": 0.6223763309,
				"z": 0.7555173478,
				"element": "C" 
			},
			{
				"x": -0.6080339279,
				"y": 1.6826837081,
				"z": 1.0138196648,
				"element": "C" 
			},
			{
				"x": 0.7201103806,
				"y": 1.2372809821,
				"z": 1.4202392724,
				"element": "N" 
			},
			{
				"x": 1.6175096732,
				"y": 0.7571737713,
				"z": 0.3739516436,
				"element": "C" 
			},
			{
				"x": 1.4524571296,
				"y": -0.6993992675,
				"z": -0.1188770095,
				"element": "C" 
			},
			{
				"x": 2.6041540563,
				"y": -1.2360723517,
				"z": -0.9911030858,
				"element": "C" 
			},
			{
				"x": 2.7400231155,
				"y": -0.6386701003,
				"z": -2.408656064,
				"element": "C" 
			},
			{
				"x": 3.5626327954,
				"y": 0.656422139,
				"z": -2.5110027982,
				"element": "C" 
			},
			{
				"x": 3.813737344,
				"y": 1.1305507051,
				"z": -3.9538633314,
				"element": "C" 
			},
			{
				"x": 2.5607795499,
				"y": 1.5211438981,
				"z": -4.7610928889,
				"element": "C" 
			},
			{
				"x": 1.7197040193,
				"y": 2.6719444013,
				"z": -4.1816005932,
				"element": "C" 
			},
			{
				"x": 2.4473204631,
				"y": 4.0207105377,
				"z": -4.0932416125,
				"element": "C" 
			},
			{
				"x": 1.5445708367,
				"y": 5.1542250656,
				"z": -3.5949590573,
				"element": "C" 
			},
			{
				"x": 0.829066418,
				"y": 0.5492298097,
				"z": 2.7035692132,
				"element": "C" 
			},
			{
				"x": 0.4595517302,
				"y": 1.4399872146,
				"z": 3.9010151221,
				"element": "C" 
			},
			{
				"x": 0.8883804547,
				"y": 0.8622066405,
				"z": 5.2620179988,
				"element": "C" 
			},
			{
				"x": 0.1666346803,
				"y": -0.4067304445,
				"z": 5.7611370511,
				"element": "C" 
			},
			{
				"x": -1.3262661753,
				"y": -0.211351648,
				"z": 6.1198341165,
				"element": "C" 
			},
			{
				"x": -2.3517660853,
				"y": -0.5114389035,
				"z": 5.0017837447,
				"element": "C" 
			},
			{
				"x": -2.935107588,
				"y": -1.9381189614,
				"z": 4.9458464547,
				"element": "C" 
			},
			{
				"x": -1.9746281313,
				"y": -3.0959270915,
				"z": 4.598821164,
				"element": "C" 
			},
			{
				"x": -1.2431814197,
				"y": -3.7325760014,
				"z": 5.7906806377,
				"element": "C" 
			},
			{
				"x": -0.3362764455,
				"y": -4.8967915583,
				"z": 5.3781373058,
				"element": "C" 
			},
			{
				"x": -3.5485035359,
				"y": -1.7405793883,
				"z": -6.3106042886,
				"element": "H" 
			},
			{
				"x": -2.6239423212,
				"y": -3.1285978575,
				"z": -6.8859078711,
				"element": "H" 
			},
			{
				"x": -1.7845363365,
				"y": -1.7334094729,
				"z": -6.1957829995,
				"element": "H" 
			},
			{
				"x": -1.8934715053,
				"y": -3.688498626,
				"z": -4.5905794598,
				"element": "H" 
			},
			{
				"x": -3.6452312609,
				"y": -3.6412910982,
				"z": -4.6476210466,
				"element": "H" 
			},
			{
				"x": -1.8583285444,
				"y": -1.3706344245,
				"z": -3.61276672,
				"element": "H" 
			},
			{
				"x": -2.64504151,
				"y": -2.574178088,
				"z": -2.6057810893,
				"element": "H" 
			},
			{
				"x": -4.8922509552,
				"y": -1.7643325498,
				"z": -3.3816017861,
				"element": "H" 
			},
			{
				"x": -4.1130810696,
				"y": -0.5704831915,
				"z": -4.4050155703,
				"element": "H" 
			},
			{
				"x": -3.100517199,
				"y": 0.5185631799,
				"z": -2.3895522813,
				"element": "H" 
			},
			{
				"x": -4.8533675302,
				"y": 0.5660606044,
				"z": -2.4257465157,
				"element": "H" 
			},
			{
				"x": -3.1789368521,
				"y": -1.3633111902,
				"z": -0.7297923739,
				"element": "H" 
			},
			{
				"x": -4.9227538183,
				"y": -1.4274995265,
				"z": -0.8720987838,
				"element": "H" 
			},
			{
				"x": -4.3520778399,
				"y": -0.2749465372,
				"z": 1.1812880414,
				"element": "H" 
			},
			{
				"x": -5.14214849,
				"y": 0.8451067733,
				"z": 0.0854470628,
				"element": "H" 
			},
			{
				"x": -2.9451321324,
				"y": 1.8812579816,
				"z": -0.4886160391,
				"element": "H" 
			},
			{
				"x": -3.3203945079,
				"y": 1.9709139841,
				"z": 1.218607827,
				"element": "H" 
			},
			{
				"x": -1.8201390372,
				"y": -0.0144234241,
				"z": 1.6426911255,
				"element": "H" 
			},
			{
				"x": -1.3891017413,
				"y": -0.0397393109,
				"z": -0.0587272523,
				"element": "H" 
			},
			{
				"x": -0.9837759786,
				"y": 2.3743623328,
				"z": 1.7800106725,
				"element": "H" 
			},
			{
				"x": -0.483693181,
				"y": 2.2869390216,
				"z": 0.1051529376,
				"element": "H" 
			},
			{
				"x": 2.6466552749,
				"y": 0.8702121667,
				"z": 0.7475618653,
				"element": "H" 
			},
			{
				"x": 1.5214715775,
				"y": 1.4472555698,
				"z": -0.4722897835,
				"element": "H" 
			},
			{
				"x": 0.510961762,
				"y": -0.8048800161,
				"z": -0.6721619692,
				"element": "H" 
			},
			{
				"x": 1.3636261967,
				"y": -1.3514556061,
				"z": 0.7595427865,
				"element": "H" 
			},
			{
				"x": 3.5563150447,
				"y": -1.1178593857,
				"z": -0.4531333417,
				"element": "H" 
			},
			{
				"x": 2.45491692,
				"y": -2.318376127,
				"z": -1.092817847,
				"element": "H" 
			},
			{
				"x": 1.7362484461,
				"y": -0.4863213956,
				"z": -2.8280664875,
				"element": "H" 
			},
			{
				"x": 3.2202223615,
				"y": -1.3870727717,
				"z": -3.0543356345,
				"element": "H" 
			},
			{
				"x": 4.5362666167,
				"y": 0.4867984753,
				"z": -2.0311872354,
				"element": "H" 
			},
			{
				"x": 3.0871815047,
				"y": 1.4597617043,
				"z": -1.9370253577,
				"element": "H" 
			},
			{
				"x": 4.338925809,
				"y": 0.3343547822,
				"z": -4.4995305076,
				"element": "H" 
			},
			{
				"x": 4.5079286484,
				"y": 1.9799706981,
				"z": -3.9278584066,
				"element": "H" 
			},
			{
				"x": 2.8784097071,
				"y": 1.7954998592,
				"z": -5.7765259819,
				"element": "H" 
			},
			{
				"x": 1.9165832774,
				"y": 0.6408009818,
				"z": -4.8802015382,
				"element": "H" 
			},
			{
				"x": 1.3457899393,
				"y": 2.3989960033,
				"z": -3.184860884,
				"element": "H" 
			},
			{
				"x": 0.8256669595,
				"y": 2.7958308504,
				"z": -4.8082401268,
				"element": "H" 
			},
			{
				"x": 2.8476427079,
				"y": 4.2788764804,
				"z": -5.0836187167,
				"element": "H" 
			},
			{
				"x": 3.3161423773,
				"y": 3.9342536228,
				"z": -3.4286123879,
				"element": "H" 
			},
			{
				"x": 1.154364922,
				"y": 4.938546297,
				"z": -2.593546444,
				"element": "H" 
			},
			{
				"x": 2.0853598856,
				"y": 6.1049026925,
				"z": -3.5419585965,
				"element": "H" 
			},
			{
				"x": 0.6843885376,
				"y": 5.2971572547,
				"z": -4.2592129994,
				"element": "H" 
			},
			{
				"x": 0.2479055235,
				"y": -0.3900359342,
				"z": 2.7441132092,
				"element": "H" 
			},
			{
				"x": 1.8805984575,
				"y": 0.2534172636,
				"z": 2.8153641782,
				"element": "H" 
			},
			{
				"x": -0.6167276119,
				"y": 1.6500840293,
				"z": 3.9093659857,
				"element": "H" 
			},
			{
				"x": 0.9590262992,
				"y": 2.4056295635,
				"z": 3.7554224029,
				"element": "H" 
			},
			{
				"x": 0.762183523,
				"y": 1.6437497306,
				"z": 6.0236334231,
				"element": "H" 
			},
			{
				"x": 1.9671382209,
				"y": 0.6548926183,
				"z": 5.2238301573,
				"element": "H" 
			},
			{
				"x": 0.2784639385,
				"y": -1.2144651784,
				"z": 5.0284462224,
				"element": "H" 
			},
			{
				"x": 0.7021961613,
				"y": -0.7451876398,
				"z": 6.6573668675,
				"element": "H" 
			},
			{
				"x": -1.4592813816,
				"y": 0.8260651031,
				"z": 6.4546669119,
				"element": "H" 
			},
			{
				"x": -1.5760115076,
				"y": -0.8287375702,
				"z": 6.9919408836,
				"element": "H" 
			},
			{
				"x": -1.9142745924,
				"y": -0.2720090595,
				"z": 4.0245431963,
				"element": "H" 
			},
			{
				"x": -3.2021895689,
				"y": 0.1725936162,
				"z": 5.1193545284,
				"element": "H" 
			},
			{
				"x": -3.4329720078,
				"y": -2.159602956,
				"z": 5.9010901915,
				"element": "H" 
			},
			{
				"x": -3.7351994815,
				"y": -1.9225132186,
				"z": 4.1942958704,
				"element": "H" 
			},
			{
				"x": -1.2420426734,
				"y": -2.7568515452,
				"z": 3.852315182,
				"element": "H" 
			},
			{
				"x": -2.5513889175,
				"y": -3.8889918759,
				"z": 4.1033620499,
				"element": "H" 
			},
			{
				"x": -0.6472445674,
				"y": -2.9813525074,
				"z": 6.3202277262,
				"element": "H" 
			},
			{
				"x": -1.9907659351,
				"y": -4.0898486109,
				"z": 6.5121605505,
				"element": "H" 
			},
			{
				"x": 0.1565605928,
				"y": -5.3488701443,
				"z": 6.2452497642,
				"element": "H" 
			},
			{
				"x": 0.4472928589,
				"y": -4.5637191798,
				"z": 4.6876173251,
				"element": "H" 
			},
			{
				"x": -0.9068878689,
				"y": -5.6840728247,
				"z": 4.8717625958,
				"element": "H" 
			}
		],
		 "valence_orbital": [ 
			{
				"type": "occ",
				"energy": -0.29805,
				"method": "rhf"
			},
			{
				"type": "occ",
				"energy": -0.29733,
				"method": "rhf"
			},
			{
				"type": "occ",
				"energy": -0.2959,
				"method": "rhf"
			},
			{
				"type": "occ",
				"energy": -0.29473,
				"method": "rhf"
			},
			{
				"type": "occ",
				"energy": -0.18728,
				"method": "rhf"
			},
			{
				"type": "unocc",
				"energy": 0.05777,
				"method": "rhf"
			},
			{
				"type": "unocc",
				"energy": 0.06605,
				"method": "rhf"
			},
			{
				"type": "unocc",
				"energy": 0.08027,
				"method": "rhf"
			},
			{
				"type": "unocc",
				"energy": 0.08539,
				"method": "rhf"
			},
			{
				"type": "unocc",
				"energy": 0.0902,
				"method": "rhf"
			}
		],
		"cosmo_sigma_profile": { 
			"-0.025": 0.0,
			"-0.024": 0.0,
			"-0.023": 0.0,
			"-0.022": 0.0,
			"-0.021": 0.0,
			"-0.02": 0.0,
			"-0.019": 0.0,
			"-0.018": 0.0,
			"-0.017": 0.0,
			"-0.016": 0.0,
			"-0.015": 0.0,
			"-0.014": 0.0,
			"-0.013": 0.0,
			"-0.012": 0.0,
			"-0.011": 0.0,
			"-0.01": 0.0,
			"-0.009": 0.0,
			"-0.008": 0.0,
			"-0.007": 0.0,
			"-0.006": 0.0,
			"-0.005": 0.0,
			"-0.004": 0.0,
			"-0.003": 8.33269879743,
			"-0.002": 85.3836446766,
			"-0.001": 168.188957081,
			"0.0": 169.635277993,
			"0.001": 145.825559435,
			"0.002": 67.1377276579,
			"0.003": 3.92159120603,
			"0.004": 1.3000213118,
			"0.005": 1.13842655695,
			"0.006": 0.497963135601,
			"0.007": 1.1210393121,
			"0.008": 0.924792382326,
			"0.009": 0.54226159512,
			"0.01": 0.936640221845,
			"0.011": 0.577291822989,
			"0.012": 0.537229133337,
			"0.013": 0.420812694934,
			"0.014": 0.431752698922,
			"0.015": 0.163222290847,
			"0.016": 0.0,
			"0.017": 0.0,
			"0.018": 0.0,
			"0.019": 0.0,
			"0.02": 0.0,
			"0.021": 0.0,
			"0.022": 0.0,
			"0.023": 0.0,
			"0.024": 0.0,
			"0.025": 0.0
		}
	}
}
