{
	 "smiles": "CN1C(=O)CC2=C1C=CC(=C2)C(C)=O", 
	 "Tm": 450.15, 
	 "num_atms": 25, 
	 "gaussian": { 
		 "optdone": 1, 
		 "sigma_profile": "yes", 
		 "theory": "DFT", 
		 "functional": "B3LYP", 
		 "basiset": "6-31G**", 
		 "properties": { 
			 "R2extent": 3790.7952, 
			 "electric_dipole_moment_norm": 3.82554927037, 
			 "electric_quadrupole_moment_norm": 18.5623738412, 
			 "total_energy": -631.030222963, 
			 "HOMO_LUMO_gap": 0.17167, 
			 "cosmo_polarized_energy": -14.07, 
			 "cosmo_cavitation_energy": 28.79, 
			 "cosmo_dispersion_energy": -21.02, 
			 "cosmo_repulsion_energy": 1.63, 
			 "cosmo_total_nonelectrostatic_energy": 9.41, 
			 "SMD_solvation_energy": 6.08 
		},
		"coords": [
			{
				"x": -1.5068853084,
				"y": -0.7018001169,
				"z": -4.009533235,
				"element": "C" 
			},
			{
				"x": -0.9927186167,
				"y": -0.0585726806,
				"z": -2.8176642175,
				"element": "N" 
			},
			{
				"x": -0.3166170062,
				"y": 1.1635275137,
				"z": -2.8495244461,
				"element": "C" 
			},
			{
				"x": -0.0907485127,
				"y": 1.8066760046,
				"z": -3.855718023,
				"element": "O" 
			},
			{
				"x": 0.061597278,
				"y": 1.5029676192,
				"z": -1.4021414798,
				"element": "C" 
			},
			{
				"x": -0.4820296497,
				"y": 0.3405249443,
				"z": -0.6133787783,
				"element": "C" 
			},
			{
				"x": -1.0970786535,
				"y": -0.5519478651,
				"z": -1.5174143044,
				"element": "C" 
			},
			{
				"x": -1.6975949078,
				"y": -1.7322292104,
				"z": -1.0863334231,
				"element": "C" 
			},
			{
				"x": -1.673546414,
				"y": -2.0110542547,
				"z": 0.2834756099,
				"element": "C" 
			},
			{
				"x": -1.0684923534,
				"y": -1.1398772943,
				"z": 1.2015563805,
				"element": "C" 
			},
			{
				"x": -0.4670464109,
				"y": 0.0505567961,
				"z": 0.7341195467,
				"element": "C" 
			},
			{
				"x": -1.0276098082,
				"y": -1.4112566482,
				"z": 2.669385676,
				"element": "C" 
			},
			{
				"x": -1.6667560475,
				"y": -2.6842581581,
				"z": 3.2032104548,
				"element": "C" 
			},
			{
				"x": -0.4885767041,
				"y": -0.6237476983,
				"z": 3.435502728,
				"element": "O" 
			},
			{
				"x": -1.2592861964,
				"y": -0.0581502593,
				"z": -4.8546763368,
				"element": "H" 
			},
			{
				"x": -1.0462705848,
				"y": -1.685327776,
				"z": -4.1534614294,
				"element": "H" 
			},
			{
				"x": -2.594025494,
				"y": -0.8238012223,
				"z": -3.9507311077,
				"element": "H" 
			},
			{
				"x": -0.3799308401,
				"y": 2.4676431186,
				"z": -1.1284195935,
				"element": "H" 
			},
			{
				"x": 1.1488097581,
				"y": 1.6170158403,
				"z": -1.328445208,
				"element": "H" 
			},
			{
				"x": -2.1694494964,
				"y": -2.4158620203,
				"z": -1.7840196213,
				"element": "H" 
			},
			{
				"x": -2.1380126705,
				"y": -2.9274482595,
				"z": 0.6325406077,
				"element": "H" 
			},
			{
				"x": -0.0049146007,
				"y": 0.7096207074,
				"z": 1.4621806038,
				"element": "H" 
			},
			{
				"x": -2.7353674626,
				"y": -2.7202978072,
				"z": 2.9641601386,
				"element": "H" 
			},
			{
				"x": -1.5385076761,
				"y": -2.7084601732,
				"z": 4.2856322802,
				"element": "H" 
			},
			{
				"x": -1.2027416214,
				"y": -3.5740410995,
				"z": 2.7634971776,
				"element": "H" 
			}
		],
		 "valence_orbital": [ 
			{
				"type": "occ",
				"energy": -0.30664,
				"method": "rhf"
			},
			{
				"type": "occ",
				"energy": -0.26689,
				"method": "rhf"
			},
			{
				"type": "occ",
				"energy": -0.26419,
				"method": "rhf"
			},
			{
				"type": "occ",
				"energy": -0.2454,
				"method": "rhf"
			},
			{
				"type": "occ",
				"energy": -0.22435,
				"method": "rhf"
			},
			{
				"type": "unocc",
				"energy": -0.05268,
				"method": "rhf"
			},
			{
				"type": "unocc",
				"energy": -0.019,
				"method": "rhf"
			},
			{
				"type": "unocc",
				"energy": 0.00767,
				"method": "rhf"
			},
			{
				"type": "unocc",
				"energy": 0.05204,
				"method": "rhf"
			},
			{
				"type": "unocc",
				"energy": 0.08546,
				"method": "rhf"
			}
		],
		"cosmo_sigma_profile": { 
			"-0.025": 0.0,
			"-0.024": 0.0,
			"-0.023": 0.0,
			"-0.022": 0.0,
			"-0.021": 0.0,
			"-0.02": 0.0,
			"-0.019": 0.0,
			"-0.018": 0.0,
			"-0.017": 0.0,
			"-0.016": 0.0,
			"-0.015": 0.0,
			"-0.014": 0.0,
			"-0.013": 0.0,
			"-0.012": 0.0,
			"-0.011": 0.0,
			"-0.01": 0.0,
			"-0.009": 0.0,
			"-0.008": 1.02956461058,
			"-0.007": 6.42894398368,
			"-0.006": 19.9254695515,
			"-0.005": 24.0553020027,
			"-0.004": 23.1489279554,
			"-0.003": 22.3420885975,
			"-0.002": 18.4115188494,
			"-0.001": 17.7677073833,
			"0.0": 12.3659883712,
			"0.001": 9.45461113783,
			"0.002": 10.4260478406,
			"0.003": 13.6253854735,
			"0.004": 11.1998247053,
			"0.005": 2.31753940172,
			"0.006": 3.62358287794,
			"0.007": 3.41942767532,
			"0.008": 2.54401256354,
			"0.009": 2.80552776656,
			"0.01": 3.00164085858,
			"0.011": 5.50192339625,
			"0.012": 8.12702899922,
			"0.013": 6.39630854446,
			"0.014": 1.22723574697,
			"0.015": 0.0,
			"0.016": 0.0,
			"0.017": 0.0,
			"0.018": 0.0,
			"0.019": 0.0,
			"0.02": 0.0,
			"0.021": 0.0,
			"0.022": 0.0,
			"0.023": 0.0,
			"0.024": 0.0,
			"0.025": 0.0
		}
	}
}
