{
	 "smiles": "NNC(=O)CC1=CC=CC=C1", 
	 "Tm": 389.15, 
	 "num_atms": 21, 
	 "gaussian": { 
		 "optdone": 1, 
		 "sigma_profile": "yes", 
		 "theory": "DFT", 
		 "functional": "B3LYP", 
		 "basiset": "6-31G**", 
		 "properties": { 
			 "R2extent": 2347.0032, 
			 "electric_dipole_moment_norm": 3.35078231015, 
			 "electric_quadrupole_moment_norm": 13.0224804196, 
			 "total_energy": -495.581524498, 
			 "HOMO_LUMO_gap": 0.23811, 
			 "cosmo_polarized_energy": -17.39, 
			 "cosmo_cavitation_energy": 25.28, 
			 "cosmo_dispersion_energy": -18.15, 
			 "cosmo_repulsion_energy": 1.49, 
			 "cosmo_total_nonelectrostatic_energy": 8.62, 
			 "SMD_solvation_energy": 5.47 
		},
		"coords": [
			{
				"x": 2.7398072147,
				"y": 1.6756826604,
				"z": 2.7769304085,
				"element": "N" 
			},
			{
				"x": 1.6790462521,
				"y": 2.4103547166,
				"z": 2.2313648934,
				"element": "N" 
			},
			{
				"x": 0.764964686,
				"y": 2.0088310113,
				"z": 1.2841351279,
				"element": "C" 
			},
			{
				"x": -0.1118397447,
				"y": 2.7668255919,
				"z": 0.9030850879,
				"element": "O" 
			},
			{
				"x": 0.9404679821,
				"y": 0.5718032618,
				"z": 0.7682496893,
				"element": "C" 
			},
			{
				"x": -0.0861731893,
				"y": 0.1822342916,
				"z": -0.2673270216,
				"element": "C" 
			},
			{
				"x": 0.1541752302,
				"y": 0.4018387304,
				"z": -1.6284822535,
				"element": "C" 
			},
			{
				"x": -0.7941048379,
				"y": 0.0449617344,
				"z": -2.587398379,
				"element": "C" 
			},
			{
				"x": -1.9996624617,
				"y": -0.5396379926,
				"z": -2.1957666321,
				"element": "C" 
			},
			{
				"x": -2.2497053645,
				"y": -0.7628081394,
				"z": -0.8407182403,
				"element": "C" 
			},
			{
				"x": -1.2982510767,
				"y": -0.4041716911,
				"z": 0.1144067497,
				"element": "C" 
			},
			{
				"x": 3.3943987322,
				"y": 1.3945356196,
				"z": 2.0512676258,
				"element": "H" 
			},
			{
				"x": 2.3964018511,
				"y": 0.8431425932,
				"z": 3.2492367664,
				"element": "H" 
			},
			{
				"x": 1.5727922569,
				"y": 3.3546229502,
				"z": 2.5779625849,
				"element": "H" 
			},
			{
				"x": 1.9535173049,
				"y": 0.4709724675,
				"z": 0.3578315703,
				"element": "H" 
			},
			{
				"x": 0.8971286169,
				"y": -0.113052113,
				"z": 1.6249706999,
				"element": "H" 
			},
			{
				"x": 1.090452477,
				"y": 0.8584614641,
				"z": -1.9402125533,
				"element": "H" 
			},
			{
				"x": -0.5905899382,
				"y": 0.2220875878,
				"z": -3.6397366917,
				"element": "H" 
			},
			{
				"x": -2.7381829216,
				"y": -0.8205655721,
				"z": -2.9411320332,
				"element": "H" 
			},
			{
				"x": -3.1849427483,
				"y": -1.2176197645,
				"z": -0.5265766405,
				"element": "H" 
			},
			{
				"x": -1.5001003212,
				"y": -0.5791994081,
				"z": 1.1684092413,
				"element": "H" 
			}
		],
		 "valence_orbital": [ 
			{
				"type": "occ",
				"energy": -0.29202,
				"method": "rhf"
			},
			{
				"type": "occ",
				"energy": -0.25686,
				"method": "rhf"
			},
			{
				"type": "occ",
				"energy": -0.24759,
				"method": "rhf"
			},
			{
				"type": "occ",
				"energy": -0.245,
				"method": "rhf"
			},
			{
				"type": "occ",
				"energy": -0.23681,
				"method": "rhf"
			},
			{
				"type": "unocc",
				"energy": 0.0013,
				"method": "rhf"
			},
			{
				"type": "unocc",
				"energy": 0.00179,
				"method": "rhf"
			},
			{
				"type": "unocc",
				"energy": 0.03085,
				"method": "rhf"
			},
			{
				"type": "unocc",
				"energy": 0.05569,
				"method": "rhf"
			},
			{
				"type": "unocc",
				"energy": 0.0922,
				"method": "rhf"
			}
		],
		"cosmo_sigma_profile": { 
			"-0.025": 0.0,
			"-0.024": 0.0,
			"-0.023": 0.0,
			"-0.022": 0.0,
			"-0.021": 0.0,
			"-0.02": 0.0,
			"-0.019": 0.0,
			"-0.018": 0.0,
			"-0.017": 0.0,
			"-0.016": 0.0,
			"-0.015": 0.0,
			"-0.014": 0.157957460534,
			"-0.013": 0.647693096605,
			"-0.012": 2.42959174341,
			"-0.011": 4.50923906565,
			"-0.01": 6.09514526217,
			"-0.009": 4.9854627957,
			"-0.008": 3.44477752532,
			"-0.007": 4.41071448513,
			"-0.006": 10.7756495896,
			"-0.005": 16.4666746068,
			"-0.004": 14.5212855341,
			"-0.003": 14.9355908731,
			"-0.002": 10.4890605338,
			"-0.001": 10.6644870984,
			"0.0": 9.0035204592,
			"0.001": 9.61551617151,
			"0.002": 9.38791156537,
			"0.003": 10.4629850695,
			"0.004": 7.80100550468,
			"0.005": 9.14358793104,
			"0.006": 9.24015293235,
			"0.007": 4.00853197681,
			"0.008": 2.96475619446,
			"0.009": 2.50488357803,
			"0.01": 2.48606497883,
			"0.011": 2.70254785213,
			"0.012": 2.61510370725,
			"0.013": 5.30133106141,
			"0.014": 5.92135328838,
			"0.015": 1.5549843282,
			"0.016": 0.423120563546,
			"0.017": 0.0,
			"0.018": 0.0,
			"0.019": 0.0,
			"0.02": 0.0,
			"0.021": 0.0,
			"0.022": 0.0,
			"0.023": 0.0,
			"0.024": 0.0,
			"0.025": 0.0
		}
	}
}
