{
	 "smiles": "S=C(OC1=CC=CC=C1)OC1=CC=CC=C1", 
	 "Tm": 379.15, 
	 "num_atms": 26, 
	 "gaussian": { 
		 "optdone": 1, 
		 "sigma_profile": "yes", 
		 "theory": "DFT", 
		 "functional": "B3LYP", 
		 "basiset": "6-31G**", 
		 "properties": { 
			 "R2extent": 4600.6363, 
			 "electric_dipole_moment_norm": 5.14745580068, 
			 "electric_quadrupole_moment_norm": 17.9006651784, 
			 "total_energy": -1050.01227378, 
			 "HOMO_LUMO_gap": 0.16762, 
			 "cosmo_polarized_energy": -10.15, 
			 "cosmo_cavitation_energy": 32.74, 
			 "cosmo_dispersion_energy": -22.61, 
			 "cosmo_repulsion_energy": 1.75, 
			 "cosmo_total_nonelectrostatic_energy": 11.88, 
			 "SMD_solvation_energy": 4.9 
		},
		"coords": [
			{
				"x": -2.9564545734,
				"y": 3.9632859151,
				"z": -0.4253363788,
				"element": "S" 
			},
			{
				"x": -2.0786587832,
				"y": 2.585422056,
				"z": -0.4190181449,
				"element": "C" 
			},
			{
				"x": -2.1611274524,
				"y": 1.682413328,
				"z": -1.4211818151,
				"element": "O" 
			},
			{
				"x": -2.1704853437,
				"y": 0.3035361452,
				"z": -1.1733948457,
				"element": "C" 
			},
			{
				"x": -2.8428269792,
				"y": -0.2371763794,
				"z": -0.0783485961,
				"element": "C" 
			},
			{
				"x": -2.8846710555,
				"y": -1.625183987,
				"z": 0.0617789725,
				"element": "C" 
			},
			{
				"x": -2.274998659,
				"y": -2.4534125654,
				"z": -0.8826564158,
				"element": "C" 
			},
			{
				"x": -1.6182875162,
				"y": -1.8892325662,
				"z": -1.9786714827,
				"element": "C" 
			},
			{
				"x": -1.5612725453,
				"y": -0.5040264646,
				"z": -2.1299551811,
				"element": "C" 
			},
			{
				"x": -1.2295977654,
				"y": 2.285120022,
				"z": 0.588694448,
				"element": "O" 
			},
			{
				"x": 0.0251047338,
				"y": 1.709330796,
				"z": 0.349931156,
				"element": "C" 
			},
			{
				"x": 0.8044042941,
				"y": 2.0838932206,
				"z": -0.7436485805,
				"element": "C" 
			},
			{
				"x": 2.0807388036,
				"y": 1.5345450535,
				"z": -0.8745967104,
				"element": "C" 
			},
			{
				"x": 2.5693265214,
				"y": 0.6374857353,
				"z": 0.0773357757,
				"element": "C" 
			},
			{
				"x": 1.7753201575,
				"y": 0.2869300747,
				"z": 1.1716335396,
				"element": "C" 
			},
			{
				"x": 0.495079346,
				"y": 0.821431899,
				"z": 1.3138159577,
				"element": "C" 
			},
			{
				"x": -3.3290912411,
				"y": 0.4109811721,
				"z": 0.6428578385,
				"element": "H" 
			},
			{
				"x": -3.4061180917,
				"y": -2.0575861863,
				"z": 0.9105355102,
				"element": "H" 
			},
			{
				"x": -2.3155461819,
				"y": -3.5320694704,
				"z": -0.7675692856,
				"element": "H" 
			},
			{
				"x": -1.1455122046,
				"y": -2.5268945849,
				"z": -2.7195359882,
				"element": "H" 
			},
			{
				"x": -1.0563174263,
				"y": -0.0426177429,
				"z": -2.9714136284,
				"element": "H" 
			},
			{
				"x": 0.425910978,
				"y": 2.7944274044,
				"z": -1.4706777017,
				"element": "H" 
			},
			{
				"x": 2.6969739254,
				"y": 1.8195746996,
				"z": -1.7221095143,
				"element": "H" 
			},
			{
				"x": 3.5646296601,
				"y": 0.2178407026,
				"z": -0.0306447285,
				"element": "H" 
			},
			{
				"x": 2.1499847432,
				"y": -0.4067471361,
				"z": 1.9182566296,
				"element": "H" 
			},
			{
				"x": -0.1405073444,
				"y": 0.563528859,
				"z": 2.1537191699,
				"element": "H" 
			}
		],
		 "valence_orbital": [ 
			{
				"type": "occ",
				"energy": -0.26884,
				"method": "rhf"
			},
			{
				"type": "occ",
				"energy": -0.26375,
				"method": "rhf"
			},
			{
				"type": "occ",
				"energy": -0.25538,
				"method": "rhf"
			},
			{
				"type": "occ",
				"energy": -0.24392,
				"method": "rhf"
			},
			{
				"type": "occ",
				"energy": -0.22612,
				"method": "rhf"
			},
			{
				"type": "unocc",
				"energy": -0.0585,
				"method": "rhf"
			},
			{
				"type": "unocc",
				"energy": -0.02115,
				"method": "rhf"
			},
			{
				"type": "unocc",
				"energy": -0.01771,
				"method": "rhf"
			},
			{
				"type": "unocc",
				"energy": -0.0123,
				"method": "rhf"
			},
			{
				"type": "unocc",
				"energy": 0.00377,
				"method": "rhf"
			}
		],
		"cosmo_sigma_profile": { 
			"-0.025": 0.0,
			"-0.024": 0.0,
			"-0.023": 0.0,
			"-0.022": 0.0,
			"-0.021": 0.0,
			"-0.02": 0.0,
			"-0.019": 0.0,
			"-0.018": 0.0,
			"-0.017": 0.0,
			"-0.016": 0.0,
			"-0.015": 0.0,
			"-0.014": 0.0,
			"-0.013": 0.0,
			"-0.012": 0.0,
			"-0.011": 0.0,
			"-0.01": 0.0,
			"-0.009": 0.0,
			"-0.008": 1.21240190807,
			"-0.007": 10.5395783518,
			"-0.006": 21.541465723,
			"-0.005": 22.5879590778,
			"-0.004": 20.2298687644,
			"-0.003": 14.679523696,
			"-0.002": 13.8813228252,
			"-0.001": 15.0546742579,
			"0.0": 16.6285961403,
			"0.001": 18.5635961012,
			"0.002": 21.8417717925,
			"0.003": 24.4428746291,
			"0.004": 30.0573254803,
			"0.005": 11.0697364396,
			"0.006": 5.86506311837,
			"0.007": 6.32716263942,
			"0.008": 5.37417089113,
			"0.009": 4.43809274081,
			"0.01": 1.93811377501,
			"0.011": 0.0,
			"0.012": 0.0,
			"0.013": 0.0,
			"0.014": 0.0,
			"0.015": 0.0,
			"0.016": 0.0,
			"0.017": 0.0,
			"0.018": 0.0,
			"0.019": 0.0,
			"0.02": 0.0,
			"0.021": 0.0,
			"0.022": 0.0,
			"0.023": 0.0,
			"0.024": 0.0,
			"0.025": 0.0
		}
	}
}
