{
	 "smiles": "CC1=CC=C(S1)C(O)=O", 
	 "Tm": 410.15, 
	 "num_atms": 15, 
	 "gaussian": { 
		 "optdone": 1, 
		 "sigma_profile": "yes", 
		 "theory": "DFT", 
		 "functional": "B3LYP", 
		 "basiset": "6-31G**", 
		 "properties": { 
			 "R2extent": 2022.3397, 
			 "electric_dipole_moment_norm": 5.58491251319, 
			 "electric_quadrupole_moment_norm": 16.4641766694, 
			 "total_energy": -780.888250857, 
			 "HOMO_LUMO_gap": 0.18844, 
			 "cosmo_polarized_energy": -15.0, 
			 "cosmo_cavitation_energy": 21.0, 
			 "cosmo_dispersion_energy": -16.15, 
			 "cosmo_repulsion_energy": 1.28, 
			 "cosmo_total_nonelectrostatic_energy": 6.13, 
			 "SMD_solvation_energy": 4.71 
		},
		"coords": [
			{
				"x": -1.8621555061,
				"y": 0.7841105708,
				"z": 1.3862456883,
				"element": "C" 
			},
			{
				"x": -0.5926638091,
				"y": -0.0109085264,
				"z": 1.3112821765,
				"element": "C" 
			},
			{
				"x": -0.1702828435,
				"y": -1.0042428219,
				"z": 2.1641611551,
				"element": "C" 
			},
			{
				"x": 1.0869824364,
				"y": -1.5566162565,
				"z": 1.8020752544,
				"element": "C" 
			},
			{
				"x": 1.6215261366,
				"y": -0.9852747472,
				"z": 0.6688338319,
				"element": "C" 
			},
			{
				"x": 0.5693082163,
				"y": 0.2581432666,
				"z": 0.0451606217,
				"element": "S" 
			},
			{
				"x": 2.8918121626,
				"y": -1.2372509341,
				"z": -0.0400455421,
				"element": "C" 
			},
			{
				"x": 3.6327003664,
				"y": -2.2937656798,
				"z": 0.391432341,
				"element": "O" 
			},
			{
				"x": 3.2831961471,
				"y": -0.5563793846,
				"z": -0.9611781016,
				"element": "O" 
			},
			{
				"x": -2.4497096278,
				"y": 0.4658481774,
				"z": 2.2513645161,
				"element": "H" 
			},
			{
				"x": -1.6635472535,
				"y": 1.8565551564,
				"z": 1.4886966581,
				"element": "H" 
			},
			{
				"x": -2.478640364,
				"y": 0.6488217198,
				"z": 0.4908049532,
				"element": "H" 
			},
			{
				"x": -0.7452264635,
				"y": -1.3244314067,
				"z": 3.0262216529,
				"element": "H" 
			},
			{
				"x": 1.5722248869,
				"y": -2.3362179597,
				"z": 2.3823160409,
				"element": "H" 
			},
			{
				"x": 3.1551755152,
				"y": -2.793791174,
				"z": 1.0672287536,
				"element": "H" 
			}
		],
		 "valence_orbital": [ 
			{
				"type": "occ",
				"energy": -0.35363,
				"method": "rhf"
			},
			{
				"type": "occ",
				"energy": -0.31472,
				"method": "rhf"
			},
			{
				"type": "occ",
				"energy": -0.27504,
				"method": "rhf"
			},
			{
				"type": "occ",
				"energy": -0.26729,
				"method": "rhf"
			},
			{
				"type": "occ",
				"energy": -0.24665,
				"method": "rhf"
			},
			{
				"type": "unocc",
				"energy": -0.05821,
				"method": "rhf"
			},
			{
				"type": "unocc",
				"energy": 0.01996,
				"method": "rhf"
			},
			{
				"type": "unocc",
				"energy": 0.0279,
				"method": "rhf"
			},
			{
				"type": "unocc",
				"energy": 0.05145,
				"method": "rhf"
			},
			{
				"type": "unocc",
				"energy": 0.08093,
				"method": "rhf"
			}
		],
		"cosmo_sigma_profile": { 
			"-0.025": 0.0,
			"-0.024": 0.0,
			"-0.023": 0.0,
			"-0.022": 0.0,
			"-0.021": 0.0,
			"-0.02": 0.0,
			"-0.019": 0.456562299748,
			"-0.018": 0.965047502923,
			"-0.017": 1.53734526692,
			"-0.016": 0.408319848514,
			"-0.015": 1.13051815694,
			"-0.014": 0.83991651889,
			"-0.013": 1.19025205758,
			"-0.012": 1.57368762546,
			"-0.011": 1.06672869511,
			"-0.01": 1.1618818439,
			"-0.009": 1.51929884599,
			"-0.008": 1.82420043538,
			"-0.007": 3.89984384408,
			"-0.006": 6.69377059072,
			"-0.005": 11.3424799176,
			"-0.004": 11.607964386,
			"-0.003": 10.9205155953,
			"-0.002": 13.5304545239,
			"-0.001": 11.5954995554,
			"0.0": 8.24950669825,
			"0.001": 8.62720960982,
			"0.002": 15.1084051071,
			"0.003": 16.0524060678,
			"0.004": 7.02610631459,
			"0.005": 2.66780669994,
			"0.006": 2.933637076,
			"0.007": 2.45874362151,
			"0.008": 2.47634363184,
			"0.009": 3.64350328725,
			"0.01": 4.84267374646,
			"0.011": 4.96898682654,
			"0.012": 5.33764121201,
			"0.013": 1.95381827136,
			"0.014": 0.176557377059,
			"0.015": 0.0,
			"0.016": 0.0,
			"0.017": 0.0,
			"0.018": 0.0,
			"0.019": 0.0,
			"0.02": 0.0,
			"0.021": 0.0,
			"0.022": 0.0,
			"0.023": 0.0,
			"0.024": 0.0,
			"0.025": 0.0
		}
	}
}
