{
	 "smiles": "CS(=O)(=O)C1=CC=C(Cl)S1", 
	 "Tm": 343.15, 
	 "num_atms": 15, 
	 "gaussian": { 
		 "optdone": 1, 
		 "sigma_profile": "yes", 
		 "theory": "DFT", 
		 "functional": "B3LYP", 
		 "basiset": "6-31G**", 
		 "properties": { 
			 "R2extent": 3033.8703, 
			 "electric_dipole_moment_norm": 4.30272590575, 
			 "electric_quadrupole_moment_norm": 13.6767114351, 
			 "total_energy": -1600.46674775, 
			 "HOMO_LUMO_gap": 0.19788, 
			 "cosmo_polarized_energy": -13.13, 
			 "cosmo_cavitation_energy": 24.34, 
			 "cosmo_dispersion_energy": -18.84, 
			 "cosmo_repulsion_energy": 1.44, 
			 "cosmo_total_nonelectrostatic_energy": 6.93, 
			 "SMD_solvation_energy": 3.44 
		},
		"coords": [
			{
				"x": 1.1008918457,
				"y": 1.5865169514,
				"z": -1.9559556757,
				"element": "C" 
			},
			{
				"x": 1.1598445424,
				"y": 1.8500808048,
				"z": -0.169426517,
				"element": "S" 
			},
			{
				"x": 2.4114138175,
				"y": 1.2626859062,
				"z": 0.3252265519,
				"element": "O" 
			},
			{
				"x": 0.8073222507,
				"y": 3.2533895949,
				"z": 0.083202805,
				"element": "O" 
			},
			{
				"x": -0.1663915551,
				"y": 0.8427449638,
				"z": 0.4583303128,
				"element": "C" 
			},
			{
				"x": -0.0395353983,
				"y": -0.436973132,
				"z": 0.9331018833,
				"element": "C" 
			},
			{
				"x": -1.276312862,
				"y": -0.9839511614,
				"z": 1.3756703297,
				"element": "C" 
			},
			{
				"x": -2.3083224018,
				"y": -0.0943903629,
				"z": 1.2243250466,
				"element": "C" 
			},
			{
				"x": -3.9633470674,
				"y": -0.3571981562,
				"z": 1.6456336542,
				"element": "Cl" 
			},
			{
				"x": -1.8039948507,
				"y": 1.4328245918,
				"z": 0.5587387014,
				"element": "S" 
			},
			{
				"x": 1.899108473,
				"y": 2.1993833863,
				"z": -2.3803125457,
				"element": "H" 
			},
			{
				"x": 1.276155565,
				"y": 0.5311696471,
				"z": -2.167683427,
				"element": "H" 
			},
			{
				"x": 0.1312818992,
				"y": 1.9119133935,
				"z": -2.3352650786,
				"element": "H" 
			},
			{
				"x": 0.9127583559,
				"y": -0.9522192833,
				"z": 0.9728980499,
				"element": "H" 
			},
			{
				"x": -1.4002726142,
				"y": -1.9761771441,
				"z": 1.7907159092,
				"element": "H" 
			}
		],
		 "valence_orbital": [ 
			{
				"type": "occ",
				"energy": -0.32179,
				"method": "rhf"
			},
			{
				"type": "occ",
				"energy": -0.30609,
				"method": "rhf"
			},
			{
				"type": "occ",
				"energy": -0.30062,
				"method": "rhf"
			},
			{
				"type": "occ",
				"energy": -0.28599,
				"method": "rhf"
			},
			{
				"type": "occ",
				"energy": -0.25965,
				"method": "rhf"
			},
			{
				"type": "unocc",
				"energy": -0.06177,
				"method": "rhf"
			},
			{
				"type": "unocc",
				"energy": -0.00964,
				"method": "rhf"
			},
			{
				"type": "unocc",
				"energy": 0.00236,
				"method": "rhf"
			},
			{
				"type": "unocc",
				"energy": 0.02285,
				"method": "rhf"
			},
			{
				"type": "unocc",
				"energy": 0.05764,
				"method": "rhf"
			}
		],
		"cosmo_sigma_profile": { 
			"-0.025": 0.0,
			"-0.024": 0.0,
			"-0.023": 0.0,
			"-0.022": 0.0,
			"-0.021": 0.0,
			"-0.02": 0.0,
			"-0.019": 0.0,
			"-0.018": 0.0,
			"-0.017": 0.0,
			"-0.016": 0.0,
			"-0.015": 0.0,
			"-0.014": 0.0,
			"-0.013": 0.0,
			"-0.012": 0.0,
			"-0.011": 0.0,
			"-0.01": 0.264778385211,
			"-0.009": 6.09527721971,
			"-0.008": 10.4372400107,
			"-0.007": 8.575100173,
			"-0.006": 10.223999267,
			"-0.005": 8.98471707255,
			"-0.004": 13.2223323738,
			"-0.003": 11.7909940045,
			"-0.002": 10.1795603095,
			"-0.001": 15.4820655097,
			"0.0": 20.3034596162,
			"0.001": 19.9273700147,
			"0.002": 16.0383749248,
			"0.003": 9.69673164127,
			"0.004": 3.03601164969,
			"0.005": 2.40203553658,
			"0.006": 2.72125921392,
			"0.007": 2.81543590681,
			"0.008": 2.47850850984,
			"0.009": 3.98252151276,
			"0.01": 6.29459438113,
			"0.011": 10.5862555518,
			"0.012": 4.28508063382,
			"0.013": 0.0,
			"0.014": 0.0,
			"0.015": 0.0,
			"0.016": 0.0,
			"0.017": 0.0,
			"0.018": 0.0,
			"0.019": 0.0,
			"0.02": 0.0,
			"0.021": 0.0,
			"0.022": 0.0,
			"0.023": 0.0,
			"0.024": 0.0,
			"0.025": 0.0
		}
	}
}
