{
	 "smiles": "C(N1CCN(CC2=CC=CC=C2)CC1)C1=CC=CC=C1", 
	 "Tm": 363.15, 
	 "num_atms": 42, 
	 "gaussian": { 
		 "optdone": 1, 
		 "sigma_profile": "yes", 
		 "theory": "DFT", 
		 "functional": "B3LYP", 
		 "basiset": "6-31G**", 
		 "properties": { 
			 "R2extent": 7401.1337, 
			 "electric_dipole_moment_norm": 1.05829880941, 
			 "electric_quadrupole_moment_norm": 5.5712491759, 
			 "total_energy": -808.654717751, 
			 "HOMO_LUMO_gap": 0.1977, 
			 "cosmo_polarized_energy": -7.5, 
			 "cosmo_cavitation_energy": 42.63, 
			 "cosmo_dispersion_energy": -29.0, 
			 "cosmo_repulsion_energy": 2.22, 
			 "cosmo_total_nonelectrostatic_energy": 15.85, 
			 "SMD_solvation_energy": 4.49 
		},
		"coords": [
			{
				"x": -2.3738108217,
				"y": -3.1156904867,
				"z": -0.2616877408,
				"element": "C" 
			},
			{
				"x": -1.1658602477,
				"y": -2.4739222892,
				"z": -0.7704313791,
				"element": "N" 
			},
			{
				"x": -0.1292430213,
				"y": -2.3328552102,
				"z": 0.2611430959,
				"element": "C" 
			},
			{
				"x": 1.2314377068,
				"y": -1.9596539798,
				"z": -0.3852894313,
				"element": "C" 
			},
			{
				"x": 1.0948601496,
				"y": -1.2805779553,
				"z": -1.6710148057,
				"element": "N" 
			},
			{
				"x": 0.5244621794,
				"y": 0.0686260861,
				"z": -1.5711188363,
				"element": "C" 
			},
			{
				"x": 1.4609083902,
				"y": 1.0443256316,
				"z": -0.8806840258,
				"element": "C" 
			},
			{
				"x": 0.9756781886,
				"y": 1.9397030198,
				"z": 0.0789656566,
				"element": "C" 
			},
			{
				"x": 1.8232879733,
				"y": 2.873158073,
				"z": 0.6810437363,
				"element": "C" 
			},
			{
				"x": 3.1737880264,
				"y": 2.9155898021,
				"z": 0.3343538906,
				"element": "C" 
			},
			{
				"x": 3.6705743693,
				"y": 2.0192536534,
				"z": -0.616492882,
				"element": "C" 
			},
			{
				"x": 2.8209640277,
				"y": 1.0924093615,
				"z": -1.2188076461,
				"element": "C" 
			},
			{
				"x": 0.4190035934,
				"y": -2.1675337224,
				"z": -2.6285408482,
				"element": "C" 
			},
			{
				"x": -0.6268940885,
				"y": -3.1071517241,
				"z": -1.9696379452,
				"element": "C" 
			},
			{
				"x": -3.1101079923,
				"y": -2.2693674293,
				"z": 0.7619069853,
				"element": "C" 
			},
			{
				"x": -3.4298879538,
				"y": -0.9341468585,
				"z": 0.4769604478,
				"element": "C" 
			},
			{
				"x": -4.1370940107,
				"y": -0.1607023608,
				"z": 1.3962130636,
				"element": "C" 
			},
			{
				"x": -4.5402417615,
				"y": -0.7119971539,
				"z": 2.6159887327,
				"element": "C" 
			},
			{
				"x": -4.2272091812,
				"y": -2.0392283962,
				"z": 2.9089471234,
				"element": "C" 
			},
			{
				"x": -3.5139315162,
				"y": -2.8097899139,
				"z": 1.9869909188,
				"element": "C" 
			},
			{
				"x": -3.0358965084,
				"y": -3.2921529173,
				"z": -1.1201457121,
				"element": "H" 
			},
			{
				"x": -2.1604847263,
				"y": -4.1101925192,
				"z": 0.1779869987,
				"element": "H" 
			},
			{
				"x": -0.0060769207,
				"y": -3.2696349203,
				"z": 0.8405015275,
				"element": "H" 
			},
			{
				"x": -0.4532315978,
				"y": -1.5643144605,
				"z": 0.9702324833,
				"element": "H" 
			},
			{
				"x": 1.8123095731,
				"y": -1.3335719201,
				"z": 0.297568547,
				"element": "H" 
			},
			{
				"x": 1.8203580574,
				"y": -2.8689255256,
				"z": -0.5577988809,
				"element": "H" 
			},
			{
				"x": 0.3540324402,
				"y": 0.4157934817,
				"z": -2.5986965509,
				"element": "H" 
			},
			{
				"x": -0.4575988424,
				"y": 0.0866077425,
				"z": -1.0719752488,
				"element": "H" 
			},
			{
				"x": -0.0751963138,
				"y": 1.9048967208,
				"z": 0.3573099812,
				"element": "H" 
			},
			{
				"x": 1.4290318773,
				"y": 3.5604790687,
				"z": 1.424614505,
				"element": "H" 
			},
			{
				"x": 3.836326761,
				"y": 3.637714964,
				"z": 0.8033584977,
				"element": "H" 
			},
			{
				"x": 4.7224250132,
				"y": 2.0444232892,
				"z": -0.8887322949,
				"element": "H" 
			},
			{
				"x": 3.2019398344,
				"y": 0.3844302707,
				"z": -1.9487876731,
				"element": "H" 
			},
			{
				"x": 1.1697133939,
				"y": -2.7826794663,
				"z": -3.145649974,
				"element": "H" 
			},
			{
				"x": -0.065397537,
				"y": -1.5467121127,
				"z": -3.387875585,
				"element": "H" 
			},
			{
				"x": -1.4480561554,
				"y": -3.298615754,
				"z": -2.6691062128,
				"element": "H" 
			},
			{
				"x": -0.1709722199,
				"y": -4.0925620985,
				"z": -1.7466553493,
				"element": "H" 
			},
			{
				"x": -3.1102176293,
				"y": -0.5088431364,
				"z": -0.4700677436,
				"element": "H" 
			},
			{
				"x": -4.3776576702,
				"y": 0.8726714941,
				"z": 1.1612673357,
				"element": "H" 
			},
			{
				"x": -5.0923009558,
				"y": -0.1095977186,
				"z": 3.3318876221,
				"element": "H" 
			},
			{
				"x": -4.5320367074,
				"y": -2.4752909014,
				"z": 3.856288084,
				"element": "H" 
			},
			{
				"x": -3.2666971761,
				"y": -3.8423717282,
				"z": 2.2222675327,
				"element": "H" 
			}
		],
		 "valence_orbital": [ 
			{
				"type": "occ",
				"energy": -0.24165,
				"method": "rhf"
			},
			{
				"type": "occ",
				"energy": -0.24063,
				"method": "rhf"
			},
			{
				"type": "occ",
				"energy": -0.23579,
				"method": "rhf"
			},
			{
				"type": "occ",
				"energy": -0.21421,
				"method": "rhf"
			},
			{
				"type": "occ",
				"energy": -0.19932,
				"method": "rhf"
			},
			{
				"type": "unocc",
				"energy": -0.00162,
				"method": "rhf"
			},
			{
				"type": "unocc",
				"energy": 0.00287,
				"method": "rhf"
			},
			{
				"type": "unocc",
				"energy": 0.00401,
				"method": "rhf"
			},
			{
				"type": "unocc",
				"energy": 0.00782,
				"method": "rhf"
			},
			{
				"type": "unocc",
				"energy": 0.07891,
				"method": "rhf"
			}
		],
		"cosmo_sigma_profile": { 
			"-0.025": 0.0,
			"-0.024": 0.0,
			"-0.023": 0.0,
			"-0.022": 0.0,
			"-0.021": 0.0,
			"-0.02": 0.0,
			"-0.019": 0.0,
			"-0.018": 0.0,
			"-0.017": 0.0,
			"-0.016": 0.0,
			"-0.015": 0.0,
			"-0.014": 0.0,
			"-0.013": 0.0,
			"-0.012": 0.0,
			"-0.011": 0.0,
			"-0.01": 0.0,
			"-0.009": 0.0,
			"-0.008": 0.0,
			"-0.007": 0.0,
			"-0.006": 2.42032972292,
			"-0.005": 16.9635327949,
			"-0.004": 30.214678484,
			"-0.003": 39.6126825502,
			"-0.002": 45.7594292479,
			"-0.001": 46.6971393913,
			"0.0": 28.8793151046,
			"0.001": 20.5370482949,
			"0.002": 19.473198161,
			"0.003": 19.2982596306,
			"0.004": 17.8552157194,
			"0.005": 18.3174193919,
			"0.006": 17.9543410749,
			"0.007": 6.78937729797,
			"0.008": 1.34754788855,
			"0.009": 1.25871772093,
			"0.01": 0.771476425454,
			"0.011": 0.459254720977,
			"0.012": 0.390761493597,
			"0.013": 0.125353167878,
			"0.014": 0.0,
			"0.015": 0.0,
			"0.016": 0.0,
			"0.017": 0.0,
			"0.018": 0.0,
			"0.019": 0.0,
			"0.02": 0.0,
			"0.021": 0.0,
			"0.022": 0.0,
			"0.023": 0.0,
			"0.024": 0.0,
			"0.025": 0.0
		}
	}
}
