{
	 "smiles": "BrC1=CC2=CC=CC=C2C1", 
	 "Tm": 309.15, 
	 "num_atms": 17, 
	 "gaussian": { 
		 "optdone": 1, 
		 "sigma_profile": "yes", 
		 "theory": "DFT", 
		 "functional": "B3LYP", 
		 "basiset": "6-31G**", 
		 "properties": { 
			 "R2extent": 5931.6433, 
			 "electric_dipole_moment_norm": 1.23553080496, 
			 "electric_quadrupole_moment_norm": 6.73607401607, 
			 "total_energy": -2918.57093656, 
			 "HOMO_LUMO_gap": 0.18386, 
			 "cosmo_polarized_energy": -4.31, 
			 "cosmo_cavitation_energy": 22.93, 
			 "cosmo_dispersion_energy": -17.62, 
			 "cosmo_repulsion_energy": 1.43, 
			 "cosmo_total_nonelectrostatic_energy": 6.73, 
			 "SMD_solvation_energy": 2.34 
		},
		"coords": [
			{
				"x": 0.2650335163,
				"y": -3.8885505323,
				"z": 4.0358613361,
				"element": "Br" 
			},
			{
				"x": 0.7951367094,
				"y": -2.7148033118,
				"z": 2.6520871206,
				"element": "C" 
			},
			{
				"x": 0.6254642069,
				"y": -2.9121068182,
				"z": 1.3319723239,
				"element": "C" 
			},
			{
				"x": 1.1789904614,
				"y": -1.7596921228,
				"z": 0.6145386231,
				"element": "C" 
			},
			{
				"x": 1.2498930473,
				"y": -1.4827304685,
				"z": -0.7519811341,
				"element": "C" 
			},
			{
				"x": 1.8427434687,
				"y": -0.2846488346,
				"z": -1.1615245777,
				"element": "C" 
			},
			{
				"x": 2.3546134067,
				"y": 0.6188188466,
				"z": -0.2249434575,
				"element": "C" 
			},
			{
				"x": 2.2841134872,
				"y": 0.3420392493,
				"z": 1.1473019092,
				"element": "C" 
			},
			{
				"x": 1.6966462741,
				"y": -0.8457870113,
				"z": 1.5600122611,
				"element": "C" 
			},
			{
				"x": 1.4826226741,
				"y": -1.4040738751,
				"z": 2.9506048375,
				"element": "C" 
			},
			{
				"x": 0.1599454435,
				"y": -3.7731072442,
				"z": 0.8686502086,
				"element": "H" 
			},
			{
				"x": 0.8535621305,
				"y": -2.1816956104,
				"z": -1.4831508697,
				"element": "H" 
			},
			{
				"x": 1.9067560421,
				"y": -0.0522869787,
				"z": -2.2207739188,
				"element": "H" 
			},
			{
				"x": 2.811299366,
				"y": 1.5440837442,
				"z": -0.5639331822,
				"element": "H" 
			},
			{
				"x": 2.6839166151,
				"y": 1.0486355602,
				"z": 1.870090385,
				"element": "H" 
			},
			{
				"x": 2.4226581547,
				"y": -1.5578989477,
				"z": 3.4958973908,
				"element": "H" 
			},
			{
				"x": 0.857104996,
				"y": -0.7552956447,
				"z": 3.5770907441,
				"element": "H" 
			}
		],
		 "valence_orbital": [ 
			{
				"type": "occ",
				"energy": -0.33057,
				"method": "rhf"
			},
			{
				"type": "occ",
				"energy": -0.2863,
				"method": "rhf"
			},
			{
				"type": "occ",
				"energy": -0.2846,
				"method": "rhf"
			},
			{
				"type": "occ",
				"energy": -0.24862,
				"method": "rhf"
			},
			{
				"type": "occ",
				"energy": -0.21518,
				"method": "rhf"
			},
			{
				"type": "unocc",
				"energy": -0.03132,
				"method": "rhf"
			},
			{
				"type": "unocc",
				"energy": -0.00372,
				"method": "rhf"
			},
			{
				"type": "unocc",
				"energy": 0.01864,
				"method": "rhf"
			},
			{
				"type": "unocc",
				"energy": 0.04526,
				"method": "rhf"
			},
			{
				"type": "unocc",
				"energy": 0.09843,
				"method": "rhf"
			}
		],
		"cosmo_sigma_profile": { 
			"-0.025": 0.0,
			"-0.024": 0.0,
			"-0.023": 0.0,
			"-0.022": 0.0,
			"-0.021": 0.0,
			"-0.02": 0.0,
			"-0.019": 0.0,
			"-0.018": 0.0,
			"-0.017": 0.0,
			"-0.016": 0.0,
			"-0.015": 0.0,
			"-0.014": 0.0,
			"-0.013": 0.0,
			"-0.012": 0.0,
			"-0.011": 0.0,
			"-0.01": 0.0,
			"-0.009": 0.0,
			"-0.008": 0.120738993688,
			"-0.007": 2.27346665143,
			"-0.006": 9.46841852985,
			"-0.005": 15.2911428314,
			"-0.004": 16.1530023798,
			"-0.003": 17.8314124508,
			"-0.002": 12.9597904726,
			"-0.001": 11.4365342541,
			"0.0": 11.0857490937,
			"0.001": 12.6089497019,
			"0.002": 15.2528527289,
			"0.003": 19.6870521216,
			"0.004": 21.1398293801,
			"0.005": 14.342823747,
			"0.006": 7.22142618759,
			"0.007": 0.408857854592,
			"0.008": 0.0,
			"0.009": 0.0,
			"0.01": 0.0,
			"0.011": 0.0,
			"0.012": 0.0,
			"0.013": 0.0,
			"0.014": 0.0,
			"0.015": 0.0,
			"0.016": 0.0,
			"0.017": 0.0,
			"0.018": 0.0,
			"0.019": 0.0,
			"0.02": 0.0,
			"0.021": 0.0,
			"0.022": 0.0,
			"0.023": 0.0,
			"0.024": 0.0,
			"0.025": 0.0
		}
	}
}
