{
	 "smiles": "CN(C)C1CCN(CC1)C1=CC=C(N)C=C1", 
	 "Tm": 393.15, 
	 "num_atms": 37, 
	 "gaussian": { 
		 "optdone": 1, 
		 "sigma_profile": "yes", 
		 "theory": "DFT", 
		 "functional": "B3LYP", 
		 "basiset": "6-31G**", 
		 "properties": { 
			 "R2extent": 4723.8305, 
			 "electric_dipole_moment_norm": 1.92648456002, 
			 "electric_quadrupole_moment_norm": 14.6692209084, 
			 "total_energy": -672.268965182, 
			 "HOMO_LUMO_gap": 0.17425, 
			 "cosmo_polarized_energy": -11.05, 
			 "cosmo_cavitation_energy": 35.97, 
			 "cosmo_dispersion_energy": -25.89, 
			 "cosmo_repulsion_energy": 2.0, 
			 "cosmo_total_nonelectrostatic_energy": 12.09, 
			 "SMD_solvation_energy": 2.04 
		},
		"coords": [
			{
				"x": 1.9268880148,
				"y": 0.1218836274,
				"z": 3.9270912437,
				"element": "C" 
			},
			{
				"x": 0.5639672575,
				"y": 0.3384655016,
				"z": 3.4490188828,
				"element": "N" 
			},
			{
				"x": -0.3213803188,
				"y": -0.6527667954,
				"z": 4.0578220723,
				"element": "C" 
			},
			{
				"x": 0.4561674828,
				"y": 0.3375393769,
				"z": 1.9765354998,
				"element": "C" 
			},
			{
				"x": 1.3772571277,
				"y": 1.3820641095,
				"z": 1.3226143194,
				"element": "C" 
			},
			{
				"x": 1.2845848252,
				"y": 1.3454186574,
				"z": -0.2295004497,
				"element": "C" 
			},
			{
				"x": 0.0050683177,
				"y": 0.8492796535,
				"z": -0.7390553094,
				"element": "N" 
			},
			{
				"x": -1.0853564603,
				"y": 1.2724594507,
				"z": 0.1389884089,
				"element": "C" 
			},
			{
				"x": -1.0069060486,
				"y": 0.6132467727,
				"z": 1.5377206016,
				"element": "C" 
			},
			{
				"x": -0.0889605354,
				"y": -0.4352241429,
				"z": -1.3362536509,
				"element": "C" 
			},
			{
				"x": -1.2132521489,
				"y": -0.7366928434,
				"z": -2.1295441059,
				"element": "C" 
			},
			{
				"x": -1.3590400428,
				"y": -1.9687739213,
				"z": -2.7555662108,
				"element": "C" 
			},
			{
				"x": -0.3699638243,
				"y": -2.9599438886,
				"z": -2.6447621867,
				"element": "C" 
			},
			{
				"x": -0.4814339022,
				"y": -4.1759165402,
				"z": -3.3411836859,
				"element": "N" 
			},
			{
				"x": 0.759994909,
				"y": -2.6631623323,
				"z": -1.8732580573,
				"element": "C" 
			},
			{
				"x": 0.8919655118,
				"y": -1.4351520297,
				"z": -1.2234697311,
				"element": "C" 
			},
			{
				"x": 2.581511469,
				"y": 0.9486275329,
				"z": 3.6439877306,
				"element": "H" 
			},
			{
				"x": 2.3784556247,
				"y": -0.8195466091,
				"z": 3.5558390444,
				"element": "H" 
			},
			{
				"x": 1.9172590597,
				"y": 0.0759639324,
				"z": 5.0203040817,
				"element": "H" 
			},
			{
				"x": -0.2230358354,
				"y": -0.6042282155,
				"z": 5.1466943672,
				"element": "H" 
			},
			{
				"x": -0.0943446121,
				"y": -1.6906280119,
				"z": 3.7431387262,
				"element": "H" 
			},
			{
				"x": -1.365001753,
				"y": -0.4472704043,
				"z": 3.8125731043,
				"element": "H" 
			},
			{
				"x": 0.7483217421,
				"y": -0.6580949772,
				"z": 1.5854977381,
				"element": "H" 
			},
			{
				"x": 2.4214516173,
				"y": 1.2304881341,
				"z": 1.6071287335,
				"element": "H" 
			},
			{
				"x": 1.0921696126,
				"y": 2.3714801767,
				"z": 1.7010801824,
				"element": "H" 
			},
			{
				"x": 1.4357717745,
				"y": 2.3666735999,
				"z": -0.6091105382,
				"element": "H" 
			},
			{
				"x": 2.0907746586,
				"y": 0.7437634297,
				"z": -0.6510245605,
				"element": "H" 
			},
			{
				"x": -2.0492759855,
				"y": 1.0578809551,
				"z": -0.3268000415,
				"element": "H" 
			},
			{
				"x": -1.0234125666,
				"y": 2.3640031718,
				"z": 0.232735133,
				"element": "H" 
			},
			{
				"x": -1.5734312131,
				"y": -0.323016424,
				"z": 1.5273792866,
				"element": "H" 
			},
			{
				"x": -1.4762819953,
				"y": 1.2744518276,
				"z": 2.2762655817,
				"element": "H" 
			},
			{
				"x": -1.9788419763,
				"y": 0.0196095099,
				"z": -2.2737725777,
				"element": "H" 
			},
			{
				"x": -2.2408445538,
				"y": -2.1575084428,
				"z": -3.3639577638,
				"element": "H" 
			},
			{
				"x": -1.4358100428,
				"y": -4.4608151163,
				"z": -3.5196375204,
				"element": "H" 
			},
			{
				"x": 0.0441987992,
				"y": -4.9352944457,
				"z": -2.9275632192,
				"element": "H" 
			},
			{
				"x": 1.5470756232,
				"y": -3.4065964588,
				"z": -1.766937417,
				"element": "H" 
			},
			{
				"x": 1.7750903878,
				"y": -1.2734678204,
				"z": -0.6150177127,
				"element": "H" 
			}
		],
		 "valence_orbital": [ 
			{
				"type": "occ",
				"energy": -0.30018,
				"method": "rhf"
			},
			{
				"type": "occ",
				"energy": -0.23773,
				"method": "rhf"
			},
			{
				"type": "occ",
				"energy": -0.22971,
				"method": "rhf"
			},
			{
				"type": "occ",
				"energy": -0.20718,
				"method": "rhf"
			},
			{
				"type": "occ",
				"energy": -0.16555,
				"method": "rhf"
			},
			{
				"type": "unocc",
				"energy": 0.0087,
				"method": "rhf"
			},
			{
				"type": "unocc",
				"energy": 0.03295,
				"method": "rhf"
			},
			{
				"type": "unocc",
				"energy": 0.0805,
				"method": "rhf"
			},
			{
				"type": "unocc",
				"energy": 0.08794,
				"method": "rhf"
			},
			{
				"type": "unocc",
				"energy": 0.09559,
				"method": "rhf"
			}
		],
		"cosmo_sigma_profile": { 
			"-0.025": 0.0,
			"-0.024": 0.0,
			"-0.023": 0.0,
			"-0.022": 0.0,
			"-0.021": 0.0,
			"-0.02": 0.0,
			"-0.019": 0.0,
			"-0.018": 0.0,
			"-0.017": 0.0,
			"-0.016": 0.0,
			"-0.015": 0.0,
			"-0.014": 0.0,
			"-0.013": 0.0,
			"-0.012": 0.874278067278,
			"-0.011": 2.84241786544,
			"-0.01": 2.13974949377,
			"-0.009": 2.99581247316,
			"-0.008": 3.09880225143,
			"-0.007": 3.20798803845,
			"-0.006": 3.74047439437,
			"-0.005": 10.3883969273,
			"-0.004": 16.9963338779,
			"-0.003": 29.4670694471,
			"-0.002": 35.8766946714,
			"-0.001": 40.6121142281,
			"0.0": 36.5838264119,
			"0.001": 16.6840630658,
			"0.002": 9.81059801812,
			"0.003": 7.74871359626,
			"0.004": 7.5007746325,
			"0.005": 8.68556533405,
			"0.006": 8.83953391755,
			"0.007": 11.2967139185,
			"0.008": 6.81220752295,
			"0.009": 2.47327168071,
			"0.01": 2.66746093867,
			"0.011": 1.71186803756,
			"0.012": 1.4624680829,
			"0.013": 1.4894956165,
			"0.014": 1.45276701922,
			"0.015": 0.783366866295,
			"0.016": 0.93637489643,
			"0.017": 0.357022140359,
			"0.018": 0.0,
			"0.019": 0.0,
			"0.02": 0.0,
			"0.021": 0.0,
			"0.022": 0.0,
			"0.023": 0.0,
			"0.024": 0.0,
			"0.025": 0.0
		}
	}
}
