{
	 "smiles": "ClC1=NC=CC=C1C1=C(Cl)N=CC=C1", 
	 "Tm": 392.15, 
	 "num_atms": 20, 
	 "gaussian": { 
		 "optdone": 1, 
		 "sigma_profile": "yes", 
		 "theory": "DFT", 
		 "functional": "B3LYP", 
		 "basiset": "6-31G**", 
		 "properties": { 
			 "R2extent": 3385.7993, 
			 "electric_dipole_moment_norm": 3.80160754813, 
			 "electric_quadrupole_moment_norm": 16.3842044546, 
			 "total_energy": -1414.5582426, 
			 "HOMO_LUMO_gap": 0.20335, 
			 "cosmo_polarized_energy": -11.02, 
			 "cosmo_cavitation_energy": 28.38, 
			 "cosmo_dispersion_energy": -20.47, 
			 "cosmo_repulsion_energy": 1.62, 
			 "cosmo_total_nonelectrostatic_energy": 9.53, 
			 "SMD_solvation_energy": 1.64 
		},
		"coords": [
			{
				"x": 2.0381663609,
				"y": 2.0074452994,
				"z": 0.6700026836,
				"element": "Cl" 
			},
			{
				"x": 2.0348337553,
				"y": 0.2772974927,
				"z": 0.3197663705,
				"element": "C" 
			},
			{
				"x": 3.1764923532,
				"y": -0.3465219588,
				"z": 0.5416410289,
				"element": "N" 
			},
			{
				"x": 3.2392433236,
				"y": -1.6571771779,
				"z": 0.2761143622,
				"element": "C" 
			},
			{
				"x": 2.1590565651,
				"y": -2.380111396,
				"z": -0.2233204705,
				"element": "C" 
			},
			{
				"x": 0.9634788084,
				"y": -1.7025249347,
				"z": -0.4473503978,
				"element": "C" 
			},
			{
				"x": 0.8651487283,
				"y": -0.3317852798,
				"z": -0.175221596,
				"element": "C" 
			},
			{
				"x": -0.4202892072,
				"y": 0.3898583621,
				"z": -0.3711057933,
				"element": "C" 
			},
			{
				"x": -1.0152072131,
				"y": 0.5968661629,
				"z": -1.6310160142,
				"element": "C" 
			},
			{
				"x": -0.1855582807,
				"y": 0.0494991719,
				"z": -3.0898331289,
				"element": "Cl" 
			},
			{
				"x": -2.1733023521,
				"y": 1.1973436247,
				"z": -1.8310006603,
				"element": "N" 
			},
			{
				"x": -2.8396676214,
				"y": 1.6509376972,
				"z": -0.7621372445,
				"element": "C" 
			},
			{
				"x": -2.3619401319,
				"y": 1.5184490396,
				"z": 0.5390553335,
				"element": "C" 
			},
			{
				"x": -1.139368469,
				"y": 0.8791785675,
				"z": 0.7271400919,
				"element": "C" 
			},
			{
				"x": 4.1949130927,
				"y": -2.1375565037,
				"z": 0.4730623943,
				"element": "H" 
			},
			{
				"x": 2.2495050231,
				"y": -3.4414271357,
				"z": -0.4282850476,
				"element": "H" 
			},
			{
				"x": 0.0950118669,
				"y": -2.2269965138,
				"z": -0.8332886141,
				"element": "H" 
			},
			{
				"x": -3.790522014,
				"y": 2.1381637195,
				"z": -0.9654670956,
				"element": "H" 
			},
			{
				"x": -2.9302172413,
				"y": 1.9013017734,
				"z": 1.3799281904,
				"element": "H" 
			},
			{
				"x": -0.7302773468,
				"y": 0.7513599896,
				"z": 1.7244156076,
				"element": "H" 
			}
		],
		 "valence_orbital": [ 
			{
				"type": "occ",
				"energy": -0.29818,
				"method": "rhf"
			},
			{
				"type": "occ",
				"energy": -0.28474,
				"method": "rhf"
			},
			{
				"type": "occ",
				"energy": -0.27741,
				"method": "rhf"
			},
			{
				"type": "occ",
				"energy": -0.26814,
				"method": "rhf"
			},
			{
				"type": "occ",
				"energy": -0.25684,
				"method": "rhf"
			},
			{
				"type": "unocc",
				"energy": -0.05349,
				"method": "rhf"
			},
			{
				"type": "unocc",
				"energy": -0.03915,
				"method": "rhf"
			},
			{
				"type": "unocc",
				"energy": -0.03752,
				"method": "rhf"
			},
			{
				"type": "unocc",
				"energy": -0.02119,
				"method": "rhf"
			},
			{
				"type": "unocc",
				"energy": 0.02695,
				"method": "rhf"
			}
		],
		"cosmo_sigma_profile": { 
			"-0.025": 0.0,
			"-0.024": 0.0,
			"-0.023": 0.0,
			"-0.022": 0.0,
			"-0.021": 0.0,
			"-0.02": 0.0,
			"-0.019": 0.0,
			"-0.018": 0.0,
			"-0.017": 0.0,
			"-0.016": 0.0,
			"-0.015": 0.0,
			"-0.014": 0.0,
			"-0.013": 0.0,
			"-0.012": 0.0,
			"-0.011": 0.0,
			"-0.01": 0.0,
			"-0.009": 0.211259962616,
			"-0.008": 8.05298360109,
			"-0.007": 15.1713833374,
			"-0.006": 14.1500510386,
			"-0.005": 11.6798556746,
			"-0.004": 9.71571178856,
			"-0.003": 10.1132946429,
			"-0.002": 13.1204376064,
			"-0.001": 19.4310924736,
			"0.0": 24.2600579668,
			"0.001": 24.8704583721,
			"0.002": 17.9127517096,
			"0.003": 17.4808431815,
			"0.004": 14.7349230884,
			"0.005": 9.38525408611,
			"0.006": 4.65541305397,
			"0.007": 4.41964169371,
			"0.008": 2.70788328793,
			"0.009": 2.4364195986,
			"0.01": 2.09423576492,
			"0.011": 1.55745761228,
			"0.012": 2.19416889198,
			"0.013": 1.82974439519,
			"0.014": 1.23809250291,
			"0.015": 0.275360617254,
			"0.016": 0.0,
			"0.017": 0.0,
			"0.018": 0.0,
			"0.019": 0.0,
			"0.02": 0.0,
			"0.021": 0.0,
			"0.022": 0.0,
			"0.023": 0.0,
			"0.024": 0.0,
			"0.025": 0.0
		}
	}
}
