{
	 "smiles": "COC1=C2C(CC2=C(Br)C=C1)=NNC1=CC=C(C=C1[N+]([O-])=O)[N+]([O-])=O", 
	 "Tm": 561.15, 
	 "num_atms": 36, 
	 "gaussian": { 
		 "optdone": 1, 
		 "sigma_profile": "yes", 
		 "theory": "DFT", 
		 "functional": "B3LYP", 
		 "basiset": "6-31G**", 
		 "properties": { 
			 "R2extent": 16220.1403, 
			 "electric_dipole_moment_norm": 7.41217413989, 
			 "electric_quadrupole_moment_norm": 38.6651721715, 
			 "total_energy": -3744.4831079, 
			 "HOMO_LUMO_gap": 0.12453, 
			 "cosmo_polarized_energy": -15.06, 
			 "cosmo_cavitation_energy": 44.53, 
			 "cosmo_dispersion_energy": -32.3, 
			 "cosmo_repulsion_energy": 2.41, 
			 "cosmo_total_nonelectrostatic_energy": 14.63, 
			 "SMD_solvation_energy": 9.84 
		},
		"coords": [
			{
				"x": -0.9372728956,
				"y": 3.6586657206,
				"z": -0.4289751699,
				"element": "C" 
			},
			{
				"x": -0.3070944477,
				"y": 2.4077931882,
				"z": -0.7068869177,
				"element": "O" 
			},
			{
				"x": 0.185881511,
				"y": 2.1685872555,
				"z": -1.9412485984,
				"element": "C" 
			},
			{
				"x": 0.7950226174,
				"y": 0.9304561708,
				"z": -2.1664443436,
				"element": "C" 
			},
			{
				"x": 1.1714554804,
				"y": -0.3647059986,
				"z": -1.5747704589,
				"element": "C" 
			},
			{
				"x": 1.7886467209,
				"y": -0.8091801086,
				"z": -2.9203928652,
				"element": "C" 
			},
			{
				"x": 1.3421596186,
				"y": 0.5682710496,
				"z": -3.4036282632,
				"element": "C" 
			},
			{
				"x": 1.3080613019,
				"y": 1.4285261616,
				"z": -4.4827925055,
				"element": "C" 
			},
			{
				"x": 2.0446036675,
				"y": 0.9601712186,
				"z": -6.175572534,
				"element": "Br" 
			},
			{
				"x": 0.7014501278,
				"y": 2.6764356676,
				"z": -4.2790507286,
				"element": "C" 
			},
			{
				"x": 0.1520818074,
				"y": 3.0433691397,
				"z": -3.0411261658,
				"element": "C" 
			},
			{
				"x": 1.1034643093,
				"y": -1.0085471299,
				"z": -0.4720836434,
				"element": "N" 
			},
			{
				"x": 0.5026787372,
				"y": -0.4014616395,
				"z": 0.5968476461,
				"element": "N" 
			},
			{
				"x": 0.4215091051,
				"y": -1.0737615383,
				"z": 1.7792591871,
				"element": "C" 
			},
			{
				"x": 0.9599250837,
				"y": -2.3879980962,
				"z": 1.8826118713,
				"element": "C" 
			},
			{
				"x": 0.9010788934,
				"y": -3.1042987029,
				"z": 3.0550514862,
				"element": "C" 
			},
			{
				"x": 0.2966437618,
				"y": -2.5380243886,
				"z": 4.1903047286,
				"element": "C" 
			},
			{
				"x": -0.2413443342,
				"y": -1.2677666154,
				"z": 4.146057721,
				"element": "C" 
			},
			{
				"x": -0.185054497,
				"y": -0.5346252394,
				"z": 2.9585573419,
				"element": "C" 
			},
			{
				"x": -0.7740082882,
				"y": 0.7908675406,
				"z": 2.9999674776,
				"element": "N" 
			},
			{
				"x": -0.7437587538,
				"y": 1.4767787912,
				"z": 1.9612871924,
				"element": "O" 
			},
			{
				"x": -1.2771061213,
				"y": 1.1856742851,
				"z": 4.0490267831,
				"element": "O" 
			},
			{
				"x": 0.2348640533,
				"y": -3.2991937984,
				"z": 5.4339002396,
				"element": "N" 
			},
			{
				"x": 0.7270192968,
				"y": -4.4297737813,
				"z": 5.4308866881,
				"element": "O" 
			},
			{
				"x": -0.3025851386,
				"y": -2.769573361,
				"z": 6.4075107858,
				"element": "O" 
			},
			{
				"x": -1.2402973908,
				"y": 3.6001503932,
				"z": 0.6153586326,
				"element": "H" 
			},
			{
				"x": -1.8165129262,
				"y": 3.8045794951,
				"z": -1.0669522521,
				"element": "H" 
			},
			{
				"x": -0.2370905747,
				"y": 4.4899753342,
				"z": -0.5704183684,
				"element": "H" 
			},
			{
				"x": 2.8697524316,
				"y": -0.9799121304,
				"z": -2.9014239067,
				"element": "H" 
			},
			{
				"x": 1.2972544628,
				"y": -1.6634475039,
				"z": -3.396896084,
				"element": "H" 
			},
			{
				"x": 0.6538352913,
				"y": 3.3819343314,
				"z": -5.1016859662,
				"element": "H" 
			},
			{
				"x": -0.3026645715,
				"y": 4.022810656,
				"z": -2.9490230413,
				"element": "H" 
			},
			{
				"x": 0.1102760523,
				"y": 0.5407891442,
				"z": 0.542856139,
				"element": "H" 
			},
			{
				"x": 1.4209768241,
				"y": -2.8073756255,
				"z": 0.9994518501,
				"element": "H" 
			},
			{
				"x": 1.3142568583,
				"y": -4.1032234399,
				"z": 3.1212954433,
				"element": "H" 
			},
			{
				"x": -0.7062080741,
				"y": -0.8326664457,
				"z": 5.0198405991,
				"element": "H" 
			}
		],
		 "valence_orbital": [ 
			{
				"type": "occ",
				"energy": -0.29256,
				"method": "rhf"
			},
			{
				"type": "occ",
				"energy": -0.28761,
				"method": "rhf"
			},
			{
				"type": "occ",
				"energy": -0.2809,
				"method": "rhf"
			},
			{
				"type": "occ",
				"energy": -0.24805,
				"method": "rhf"
			},
			{
				"type": "occ",
				"energy": -0.22566,
				"method": "rhf"
			},
			{
				"type": "unocc",
				"energy": -0.10113,
				"method": "rhf"
			},
			{
				"type": "unocc",
				"energy": -0.0887,
				"method": "rhf"
			},
			{
				"type": "unocc",
				"energy": -0.06181,
				"method": "rhf"
			},
			{
				"type": "unocc",
				"energy": -0.02625,
				"method": "rhf"
			},
			{
				"type": "unocc",
				"energy": -0.01558,
				"method": "rhf"
			}
		],
		"cosmo_sigma_profile": { 
			"-0.025": 0.0,
			"-0.024": 0.0,
			"-0.023": 0.0,
			"-0.022": 0.0,
			"-0.021": 0.0,
			"-0.02": 0.0,
			"-0.019": 0.0,
			"-0.018": 0.0,
			"-0.017": 0.0,
			"-0.016": 0.0,
			"-0.015": 0.0,
			"-0.014": 0.0,
			"-0.013": 0.0,
			"-0.012": 0.0,
			"-0.011": 0.0,
			"-0.01": 0.0,
			"-0.009": 0.184798176261,
			"-0.008": 2.96666220827,
			"-0.007": 11.585762544,
			"-0.006": 22.1557740638,
			"-0.005": 23.8672005334,
			"-0.004": 28.4895252032,
			"-0.003": 28.3761769731,
			"-0.002": 32.5465766339,
			"-0.001": 30.0626074502,
			"0.0": 28.4240326893,
			"0.001": 28.4302704479,
			"0.002": 24.626070468,
			"0.003": 18.9829249342,
			"0.004": 19.3117374247,
			"0.005": 14.6986371401,
			"0.006": 8.900906069,
			"0.007": 13.4467660327,
			"0.008": 13.16075878,
			"0.009": 7.13344971764,
			"0.01": 4.54983321971,
			"0.011": 0.547449746579,
			"0.012": 0.0,
			"0.013": 0.0,
			"0.014": 0.0,
			"0.015": 0.0,
			"0.016": 0.0,
			"0.017": 0.0,
			"0.018": 0.0,
			"0.019": 0.0,
			"0.02": 0.0,
			"0.021": 0.0,
			"0.022": 0.0,
			"0.023": 0.0,
			"0.024": 0.0,
			"0.025": 0.0
		}
	}
}
