{
	 "smiles": "NC1=NN=C(O1)C1=CC=C(Br)C=C1", 
	 "Tm": 547.15, 
	 "num_atms": 19, 
	 "gaussian": { 
		 "optdone": 1, 
		 "sigma_profile": "yes", 
		 "theory": "DFT", 
		 "functional": "B3LYP", 
		 "basiset": "6-31G**", 
		 "properties": { 
			 "R2extent": 5726.3025, 
			 "electric_dipole_moment_norm": 4.10082866382, 
			 "electric_quadrupole_moment_norm": 15.9719686567, 
			 "total_energy": -3119.32673889, 
			 "HOMO_LUMO_gap": 0.17025, 
			 "cosmo_polarized_energy": -15.52, 
			 "cosmo_cavitation_energy": 26.89, 
			 "cosmo_dispersion_energy": -20.55, 
			 "cosmo_repulsion_energy": 1.63, 
			 "cosmo_total_nonelectrostatic_energy": 7.97, 
			 "SMD_solvation_energy": 1.97 
		},
		"coords": [
			{
				"x": 3.6748324081,
				"y": 1.8064343271,
				"z": -0.8792063134,
				"element": "N" 
			},
			{
				"x": 2.8340537817,
				"y": 1.1624584218,
				"z": -0.0164187477,
				"element": "C" 
			},
			{
				"x": 2.9278962055,
				"y": 1.053477479,
				"z": 1.2774953263,
				"element": "N" 
			},
			{
				"x": 1.771225888,
				"y": 0.3815091796,
				"z": 1.6774603271,
				"element": "N" 
			},
			{
				"x": 1.0821128789,
				"y": 0.1270408244,
				"z": 0.6102337792,
				"element": "C" 
			},
			{
				"x": 1.7067155719,
				"y": 0.6060346274,
				"z": -0.5279507391,
				"element": "O" 
			},
			{
				"x": -0.1910538474,
				"y": -0.5663044988,
				"z": 0.4829100045,
				"element": "C" 
			},
			{
				"x": -0.8052614492,
				"y": -0.7445752898,
				"z": -0.765782538,
				"element": "C" 
			},
			{
				"x": -2.024314952,
				"y": -1.4118159776,
				"z": -0.8638291293,
				"element": "C" 
			},
			{
				"x": -2.6295500242,
				"y": -1.9009147397,
				"z": 0.2925996929,
				"element": "C" 
			},
			{
				"x": -4.3001974494,
				"y": -2.8156312613,
				"z": 0.1628877974,
				"element": "Br" 
			},
			{
				"x": -2.0344457219,
				"y": -1.7327059617,
				"z": 1.5447160007,
				"element": "C" 
			},
			{
				"x": -0.8176625515,
				"y": -1.0667513392,
				"z": 1.6370268716,
				"element": "C" 
			},
			{
				"x": 3.7195492215,
				"y": 1.4292605919,
				"z": -1.8155266145,
				"element": "H" 
			},
			{
				"x": 4.5737728166,
				"y": 2.0253564998,
				"z": -0.4728734208,
				"element": "H" 
			},
			{
				"x": -0.3302446547,
				"y": -0.3599767422,
				"z": -1.6617891381,
				"element": "H" 
			},
			{
				"x": -2.4992964286,
				"y": -1.5495289677,
				"z": -1.8282861991,
				"element": "H" 
			},
			{
				"x": -2.518442937,
				"y": -2.1188592498,
				"z": 2.4343276039,
				"element": "H" 
			},
			{
				"x": -0.3394887564,
				"y": -0.9262079232,
				"z": 2.6004054364,
				"element": "H" 
			}
		],
		 "valence_orbital": [ 
			{
				"type": "occ",
				"energy": -0.29179,
				"method": "rhf"
			},
			{
				"type": "occ",
				"energy": -0.27468,
				"method": "rhf"
			},
			{
				"type": "occ",
				"energy": -0.27215,
				"method": "rhf"
			},
			{
				"type": "occ",
				"energy": -0.26747,
				"method": "rhf"
			},
			{
				"type": "occ",
				"energy": -0.22173,
				"method": "rhf"
			},
			{
				"type": "unocc",
				"energy": -0.05148,
				"method": "rhf"
			},
			{
				"type": "unocc",
				"energy": -0.02101,
				"method": "rhf"
			},
			{
				"type": "unocc",
				"energy": 0.00302,
				"method": "rhf"
			},
			{
				"type": "unocc",
				"energy": 0.0308,
				"method": "rhf"
			},
			{
				"type": "unocc",
				"energy": 0.05622,
				"method": "rhf"
			}
		],
		"cosmo_sigma_profile": { 
			"-0.025": 0.0,
			"-0.024": 0.0,
			"-0.023": 0.0,
			"-0.022": 0.0,
			"-0.021": 0.0,
			"-0.02": 0.0,
			"-0.019": 0.0,
			"-0.018": 0.0,
			"-0.017": 0.0,
			"-0.016": 0.263557528444,
			"-0.015": 2.19201303498,
			"-0.014": 3.22135431718,
			"-0.013": 2.10575188882,
			"-0.012": 2.75765233013,
			"-0.011": 2.39455851042,
			"-0.01": 1.79250414396,
			"-0.009": 1.90396551071,
			"-0.008": 3.02643755017,
			"-0.007": 7.46878338069,
			"-0.006": 8.74494219156,
			"-0.005": 8.81446442463,
			"-0.004": 10.1239973697,
			"-0.003": 12.1387891914,
			"-0.002": 12.86862269,
			"-0.001": 13.5726571824,
			"0.0": 16.6200064971,
			"0.001": 20.9799197751,
			"0.002": 26.4486878447,
			"0.003": 16.2868392294,
			"0.004": 14.0209641098,
			"0.005": 5.1572428288,
			"0.006": 2.95211778373,
			"0.007": 2.01342123376,
			"0.008": 2.55327899552,
			"0.009": 2.56600020647,
			"0.01": 3.09717324645,
			"0.011": 2.55402470796,
			"0.012": 3.71704034649,
			"0.013": 2.46423880498,
			"0.014": 2.81684721375,
			"0.015": 1.3893482925,
			"0.016": 0.829535494597,
			"0.017": 0.0191398885372,
			"0.018": 0.0,
			"0.019": 0.0,
			"0.02": 0.0,
			"0.021": 0.0,
			"0.022": 0.0,
			"0.023": 0.0,
			"0.024": 0.0,
			"0.025": 0.0
		}
	}
}
