{
	 "smiles": "CC1=CC=C(O1)C1=NN(C=C1C=O)C1=CC=CC=C1", 
	 "Tm": 386.15, 
	 "num_atms": 31, 
	 "gaussian": { 
		 "optdone": 1, 
		 "sigma_profile": "yes", 
		 "theory": "DFT", 
		 "functional": "B3LYP", 
		 "basiset": "6-31G**", 
		 "properties": { 
			 "R2extent": 6781.2741, 
			 "electric_dipole_moment_norm": 2.81842269009, 
			 "electric_quadrupole_moment_norm": 27.2233600821, 
			 "total_energy": -838.741180805, 
			 "HOMO_LUMO_gap": 0.15331, 
			 "cosmo_polarized_energy": -11.8, 
			 "cosmo_cavitation_energy": 36.59, 
			 "cosmo_dispersion_energy": -26.2, 
			 "cosmo_repulsion_energy": 1.99, 
			 "cosmo_total_nonelectrostatic_energy": 12.38, 
			 "SMD_solvation_energy": 7.31 
		},
		"coords": [
			{
				"x": 3.074061842,
				"y": 2.0984995165,
				"z": 4.6425784237,
				"element": "C" 
			},
			{
				"x": 2.0567063867,
				"y": 1.3238511811,
				"z": 3.8827848176,
				"element": "C" 
			},
			{
				"x": 1.1155620607,
				"y": 0.3971175717,
				"z": 4.2338836387,
				"element": "C" 
			},
			{
				"x": 0.4374438385,
				"y": 0.0186616126,
				"z": 3.0357798175,
				"element": "C" 
			},
			{
				"x": 1.0086883899,
				"y": 0.7406433345,
				"z": 2.0227316714,
				"element": "C" 
			},
			{
				"x": 2.0003380255,
				"y": 1.5416529222,
				"z": 2.5328196876,
				"element": "O" 
			},
			{
				"x": 0.7585808187,
				"y": 0.7971183142,
				"z": 0.5981537685,
				"element": "C" 
			},
			{
				"x": -0.1998541823,
				"y": 0.0312910965,
				"z": 0.075029011,
				"element": "N" 
			},
			{
				"x": -0.1944565687,
				"y": 0.3019598609,
				"z": -1.2614502429,
				"element": "N" 
			},
			{
				"x": 0.7457818465,
				"y": 1.2200186008,
				"z": -1.5865175939,
				"element": "C" 
			},
			{
				"x": 1.3997033951,
				"y": 1.5812410327,
				"z": -0.4184331584,
				"element": "C" 
			},
			{
				"x": 2.4892638586,
				"y": 2.5586901299,
				"z": -0.3600681804,
				"element": "C" 
			},
			{
				"x": 2.9126983599,
				"y": 3.1392799388,
				"z": -1.3489066788,
				"element": "O" 
			},
			{
				"x": -1.1170170622,
				"y": -0.3644131167,
				"z": -2.1172389036,
				"element": "C" 
			},
			{
				"x": -1.1281378057,
				"y": -0.1040387682,
				"z": -3.4926870836,
				"element": "C" 
			},
			{
				"x": -2.0402857295,
				"y": -0.7678514093,
				"z": -4.3111589435,
				"element": "C" 
			},
			{
				"x": -2.9404621559,
				"y": -1.6879461075,
				"z": -3.7716218697,
				"element": "C" 
			},
			{
				"x": -2.9212478716,
				"y": -1.9406469599,
				"z": -2.3988289527,
				"element": "C" 
			},
			{
				"x": -2.0157152138,
				"y": -1.2853815494,
				"z": -1.5670854685,
				"element": "C" 
			},
			{
				"x": 3.0213672607,
				"y": 1.8393465605,
				"z": 5.7023211132,
				"element": "H" 
			},
			{
				"x": 2.9117411706,
				"y": 3.1781193036,
				"z": 4.5444488608,
				"element": "H" 
			},
			{
				"x": 4.0886778116,
				"y": 1.8851526168,
				"z": 4.2867795642,
				"element": "H" 
			},
			{
				"x": 0.9300738496,
				"y": 0.0290830302,
				"z": 5.2329257162,
				"element": "H" 
			},
			{
				"x": -0.3675964561,
				"y": -0.6920383244,
				"z": 2.9244838867,
				"element": "H" 
			},
			{
				"x": 0.9165685216,
				"y": 1.5747932188,
				"z": -2.5895678674,
				"element": "H" 
			},
			{
				"x": 2.915457731,
				"y": 2.7468217997,
				"z": 0.6415939363,
				"element": "H" 
			},
			{
				"x": -0.4377679496,
				"y": 0.6065241169,
				"z": -3.9324492208,
				"element": "H" 
			},
			{
				"x": -2.0431259947,
				"y": -0.5608404335,
				"z": -5.3770438926,
				"element": "H" 
			},
			{
				"x": -3.6484543208,
				"y": -2.2017132268,
				"z": -4.4144495888,
				"element": "H" 
			},
			{
				"x": -3.6163129454,
				"y": -2.6542412836,
				"z": -1.9664127196,
				"element": "H" 
			},
			{
				"x": -1.9897809109,
				"y": -1.4714545799,
				"z": -0.5013935484,
				"element": "H" 
			}
		],
		 "valence_orbital": [ 
			{
				"type": "occ",
				"energy": -0.26779,
				"method": "rhf"
			},
			{
				"type": "occ",
				"energy": -0.26259,
				"method": "rhf"
			},
			{
				"type": "occ",
				"energy": -0.24444,
				"method": "rhf"
			},
			{
				"type": "occ",
				"energy": -0.24312,
				"method": "rhf"
			},
			{
				"type": "occ",
				"energy": -0.20496,
				"method": "rhf"
			},
			{
				"type": "unocc",
				"energy": -0.05165,
				"method": "rhf"
			},
			{
				"type": "unocc",
				"energy": -0.03951,
				"method": "rhf"
			},
			{
				"type": "unocc",
				"energy": -0.01306,
				"method": "rhf"
			},
			{
				"type": "unocc",
				"energy": 0.01448,
				"method": "rhf"
			},
			{
				"type": "unocc",
				"energy": 0.04214,
				"method": "rhf"
			}
		],
		"cosmo_sigma_profile": { 
			"-0.025": 0.0,
			"-0.024": 0.0,
			"-0.023": 0.0,
			"-0.022": 0.0,
			"-0.021": 0.0,
			"-0.02": 0.0,
			"-0.019": 0.0,
			"-0.018": 0.0,
			"-0.017": 0.0,
			"-0.016": 0.0,
			"-0.015": 0.0,
			"-0.014": 0.0,
			"-0.013": 0.0,
			"-0.012": 0.808837375998,
			"-0.011": 1.67207643889,
			"-0.01": 1.49233403522,
			"-0.009": 1.23977009462,
			"-0.008": 1.99535822992,
			"-0.007": 5.44262682164,
			"-0.006": 13.97390996,
			"-0.005": 20.6962381332,
			"-0.004": 22.0558229322,
			"-0.003": 23.1228686278,
			"-0.002": 23.1915490393,
			"-0.001": 24.3387409628,
			"0.0": 23.814358332,
			"0.001": 24.5782224851,
			"0.002": 24.3640098141,
			"0.003": 22.4214165337,
			"0.004": 23.0680214484,
			"0.005": 11.3255968147,
			"0.006": 3.78923490348,
			"0.007": 3.3582842873,
			"0.008": 3.32495454748,
			"0.009": 2.80071781303,
			"0.01": 2.21622161202,
			"0.011": 3.23620386315,
			"0.012": 4.57462748742,
			"0.013": 1.68165208513,
			"0.014": 0.294196711488,
			"0.015": 0.0,
			"0.016": 0.0,
			"0.017": 0.0,
			"0.018": 0.0,
			"0.019": 0.0,
			"0.02": 0.0,
			"0.021": 0.0,
			"0.022": 0.0,
			"0.023": 0.0,
			"0.024": 0.0,
			"0.0": 0.0
		}
	}
}
