{
	 "smiles": "CCCCCCCCCCCCCCCCCC[Si](OC)(OC)OC", 
	 "Tm": 288.15, 
	 "num_atms": 71, 
	 "gaussian": { 
		 "optdone": 1, 
		 "sigma_profile": "yes", 
		 "theory": "DFT", 
		 "functional": "B3LYP", 
		 "basiset": "6-31G**", 
		 "properties": { 
			 "R2extent": 22868.0238, 
			 "electric_dipole_moment_norm": 1.30354271507, 
			 "electric_quadrupole_moment_norm": 13.2263852465, 
			 "total_energy": -1343.28760307, 
			 "HOMO_LUMO_gap": 0.32954, 
			 "cosmo_polarized_energy": -8.78, 
			 "cosmo_cavitation_energy": 69.82, 
			 "cosmo_dispersion_energy": -43.85, 
			 "cosmo_repulsion_energy": 3.6, 
			 "cosmo_total_nonelectrostatic_energy": 29.58, 
			 "SMD_solvation_energy": 10.93 
		},
		"coords": [
			{
				"x": 6.0306723302,
				"y": 3.3720101419,
				"z": -0.3599234796,
				"element": "C" 
			},
			{
				"x": 6.0196293584,
				"y": 2.9532427374,
				"z": 1.114116162,
				"element": "C" 
			},
			{
				"x": 5.2221903359,
				"y": 3.9173548491,
				"z": 2.0034774642,
				"element": "C" 
			},
			{
				"x": 5.2603341344,
				"y": 3.5881358244,
				"z": 3.5064475397,
				"element": "C" 
			},
			{
				"x": 4.6419883709,
				"y": 2.2398248812,
				"z": 3.9184423885,
				"element": "C" 
			},
			{
				"x": 3.1357891708,
				"y": 2.1232119687,
				"z": 3.6386580219,
				"element": "C" 
			},
			{
				"x": 2.4778710804,
				"y": 0.8492152553,
				"z": 4.1973991955,
				"element": "C" 
			},
			{
				"x": 2.9368030815,
				"y": -0.4531888328,
				"z": 3.5243119883,
				"element": "C" 
			},
			{
				"x": 2.3005173236,
				"y": -1.7294345044,
				"z": 4.1043934573,
				"element": "C" 
			},
			{
				"x": 0.7704827352,
				"y": -1.8458760595,
				"z": 3.9648993517,
				"element": "C" 
			},
			{
				"x": 0.2199855782,
				"y": -1.8285188365,
				"z": 2.5273041056,
				"element": "C" 
			},
			{
				"x": 0.6902972649,
				"y": -2.9996140966,
				"z": 1.6511702612,
				"element": "C" 
			},
			{
				"x": 0.112261456,
				"y": -3.0034822799,
				"z": 0.2251559072,
				"element": "C" 
			},
			{
				"x": -1.3966225235,
				"y": -3.2929635957,
				"z": 0.1489452427,
				"element": "C" 
			},
			{
				"x": -1.9742545365,
				"y": -3.3915723559,
				"z": -1.2812665143,
				"element": "C" 
			},
			{
				"x": -2.5352865834,
				"y": -2.0913122992,
				"z": -1.8850280435,
				"element": "C" 
			},
			{
				"x": -1.51866015,
				"y": -0.9625873916,
				"z": -2.1115831454,
				"element": "C" 
			},
			{
				"x": -2.1072264096,
				"y": 0.2716825839,
				"z": -2.8325956923,
				"element": "C" 
			},
			{
				"x": -2.494277556,
				"y": 0.1105904806,
				"z": -4.6604060718,
				"element": "Si" 
			},
			{
				"x": -1.1976811095,
				"y": -0.3866952048,
				"z": -5.556829938,
				"element": "O" 
			},
			{
				"x": -0.8147905444,
				"y": -1.7294022978,
				"z": -5.8050152814,
				"element": "C" 
			},
			{
				"x": -2.8493565568,
				"y": 1.5837471637,
				"z": -5.3292780806,
				"element": "O" 
			},
			{
				"x": -3.7582170833,
				"y": 2.5145624325,
				"z": -4.7638737838,
				"element": "C" 
			},
			{
				"x": -3.7722402532,
				"y": -0.9394409683,
				"z": -4.8257071864,
				"element": "O" 
			},
			{
				"x": -4.4663565669,
				"y": -1.1418842185,
				"z": -6.0527606743,
				"element": "C" 
			},
			{
				"x": 5.0139851639,
				"y": 3.4137354348,
				"z": -0.7675495814,
				"element": "H" 
			},
			{
				"x": 6.6050012168,
				"y": 2.6697048181,
				"z": -0.9731280563,
				"element": "H" 
			},
			{
				"x": 6.4760664209,
				"y": 4.3655698522,
				"z": -0.4863250791,
				"element": "H" 
			},
			{
				"x": 5.6065871048,
				"y": 1.9399079032,
				"z": 1.1969449595,
				"element": "H" 
			},
			{
				"x": 7.0521527182,
				"y": 2.891044117,
				"z": 1.4853535049,
				"element": "H" 
			},
			{
				"x": 4.1816908403,
				"y": 3.9543841036,
				"z": 1.653426351,
				"element": "H" 
			},
			{
				"x": 5.6180272168,
				"y": 4.9326836112,
				"z": 1.8630534993,
				"element": "H" 
			},
			{
				"x": 4.7479385716,
				"y": 4.3909751224,
				"z": 4.0544097411,
				"element": "H" 
			},
			{
				"x": 6.3058267385,
				"y": 3.6121148857,
				"z": 3.8436567672,
				"element": "H" 
			},
			{
				"x": 5.1807199055,
				"y": 1.4222114828,
				"z": 3.4243532189,
				"element": "H" 
			},
			{
				"x": 4.8093747602,
				"y": 2.0992976086,
				"z": 4.9954683271,
				"element": "H" 
			},
			{
				"x": 2.6318803753,
				"y": 2.9983650034,
				"z": 4.0722325508,
				"element": "H" 
			},
			{
				"x": 2.950097676,
				"y": 2.1741130885,
				"z": 2.5571228731,
				"element": "H" 
			},
			{
				"x": 2.6734508522,
				"y": 0.7851615777,
				"z": 5.2780261964,
				"element": "H" 
			},
			{
				"x": 1.3901048234,
				"y": 0.9479096039,
				"z": 4.0929525743,
				"element": "H" 
			},
			{
				"x": 2.7341080965,
				"y": -0.3903322,
				"z": 2.446005324,
				"element": "H" 
			},
			{
				"x": 4.0258207428,
				"y": -0.5472997492,
				"z": 3.6170910294,
				"element": "H" 
			},
			{
				"x": 2.7751487249,
				"y": -2.6009119639,
				"z": 3.6361181625,
				"element": "H" 
			},
			{
				"x": 2.5528560982,
				"y": -1.7934941794,
				"z": 5.1718804518,
				"element": "H" 
			},
			{
				"x": 0.2914062004,
				"y": -1.0384692046,
				"z": 4.5329405472,
				"element": "H" 
			},
			{
				"x": 0.4524749126,
				"y": -2.778410889,
				"z": 4.4512790671,
				"element": "H" 
			},
			{
				"x": -0.8754912239,
				"y": -1.8334007102,
				"z": 2.5857517378,
				"element": "H" 
			},
			{
				"x": 0.4875809387,
				"y": -0.8829925054,
				"z": 2.035299464,
				"element": "H" 
			},
			{
				"x": 1.7850301064,
				"y": -2.9817292683,
				"z": 1.5797423557,
				"element": "H" 
			},
			{
				"x": 0.43529196,
				"y": -3.9474913265,
				"z": 2.1480573809,
				"element": "H" 
			},
			{
				"x": 0.3424006107,
				"y": -2.0452998293,
				"z": -0.2575073411,
				"element": "H" 
			},
			{
				"x": 0.6366420117,
				"y": -3.7686813729,
				"z": -0.3635334551,
				"element": "H" 
			},
			{
				"x": -1.9598309628,
				"y": -2.5356989997,
				"z": 0.7103899915,
				"element": "H" 
			},
			{
				"x": -1.5771486741,
				"y": -4.2433930887,
				"z": 0.669547535,
				"element": "H" 
			},
			{
				"x": -1.209840237,
				"y": -3.8076055192,
				"z": -1.9536515682,
				"element": "H" 
			},
			{
				"x": -2.7918863218,
				"y": -4.1233336498,
				"z": -1.2762483073,
				"element": "H" 
			},
			{
				"x": -3.3371920926,
				"y": -1.7148129791,
				"z": -1.2331254193,
				"element": "H" 
			},
			{
				"x": -3.0200443608,
				"y": -2.3307747882,
				"z": -2.8388532579,
				"element": "H" 
			},
			{
				"x": -0.6609719782,
				"y": -1.3470950729,
				"z": -2.6805038831,
				"element": "H" 
			},
			{
				"x": -1.1140325791,
				"y": -0.6394153725,
				"z": -1.144762684,
				"element": "H" 
			},
			{
				"x": -3.0121109781,
				"y": 0.6063501428,
				"z": -2.3065283288,
				"element": "H" 
			},
			{
				"x": -1.3951467344,
				"y": 1.1055443291,
				"z": -2.7594540344,
				"element": "H" 
			},
			{
				"x": -0.4898149404,
				"y": -1.8161983932,
				"z": -6.8473381177,
				"element": "H" 
			},
			{
				"x": -1.6374670261,
				"y": -2.4355746434,
				"z": -5.6368795568,
				"element": "H" 
			},
			{
				"x": 0.0237184712,
				"y": -2.0149919099,
				"z": -5.1579376561,
				"element": "H" 
			},
			{
				"x": -4.7599696853,
				"y": 2.0840458154,
				"z": -4.631352898,
				"element": "H" 
			},
			{
				"x": -3.4091298899,
				"y": 2.8850946376,
				"z": -3.7909254109,
				"element": "H" 
			},
			{
				"x": -3.838956486,
				"y": 3.3673376515,
				"z": -5.4443124522,
				"element": "H" 
			},
			{
				"x": -4.6213013028,
				"y": -0.1990361061,
				"z": -6.590173481,
				"element": "H" 
			},
			{
				"x": -3.9183464387,
				"y": -1.8287509582,
				"z": -6.7098575972,
				"element": "H" 
			},
			{
				"x": -5.4414536935,
				"y": -1.5831614871,
				"z": -5.8260086393,
				"element": "H" 
			}
		],
		 "valence_orbital": [ 
			{
				"type": "occ",
				"energy": -0.2906,
				"method": "rhf"
			},
			{
				"type": "occ",
				"energy": -0.28497,
				"method": "rhf"
			},
			{
				"type": "occ",
				"energy": -0.28318,
				"method": "rhf"
			},
			{
				"type": "occ",
				"energy": -0.27384,
				"method": "rhf"
			},
			{
				"type": "occ",
				"energy": -0.26873,
				"method": "rhf"
			},
			{
				"type": "unocc",
				"energy": 0.06081,
				"method": "rhf"
			},
			{
				"type": "unocc",
				"energy": 0.07343,
				"method": "rhf"
			},
			{
				"type": "unocc",
				"energy": 0.07836,
				"method": "rhf"
			},
			{
				"type": "unocc",
				"energy": 0.08767,
				"method": "rhf"
			},
			{
				"type": "unocc",
				"energy": 0.09429,
				"method": "rhf"
			}
		],
		"cosmo_sigma_profile": { 
			"-0.025": 0.0,
			"-0.024": 0.0,
			"-0.023": 0.0,
			"-0.022": 0.0,
			"-0.021": 0.0,
			"-0.02": 0.0,
			"-0.019": 0.0,
			"-0.018": 0.0,
			"-0.017": 0.0,
			"-0.016": 0.0,
			"-0.015": 0.0,
			"-0.014": 0.0,
			"-0.013": 0.0,
			"-0.012": 0.0,
			"-0.011": 0.0,
			"-0.01": 0.0,
			"-0.009": 0.0,
			"-0.008": 0.0,
			"-0.007": 0.0,
			"-0.006": 0.0,
			"-0.005": 4.90073320381,
			"-0.004": 24.0303177003,
			"-0.003": 35.1482378385,
			"-0.002": 73.1902114774,
			"-0.001": 109.380022693,
			"0.0": 111.586152315,
			"0.001": 92.8184213638,
			"0.002": 41.440334358,
			"0.003": 5.77595959,
			"0.004": 2.93994786618,
			"0.005": 3.5722374687,
			"0.006": 3.43158214889,
			"0.007": 3.10451470212,
			"0.008": 3.56630905011,
			"0.009": 2.80480093562,
			"0.01": 2.05468550788,
			"0.011": 2.69520533354,
			"0.012": 2.20524866557,
			"0.013": 2.56612734307,
			"0.014": 2.70817787211,
			"0.015": 0.945874445325,
			"0.016": 0.0,
			"0.017": 0.0,
			"0.018": 0.0,
			"0.019": 0.0,
			"0.02": 0.0,
			"0.021": 0.0,
			"0.022": 0.0,
			"0.023": 0.0,
			"0.024": 0.0,
			"0.025": 0.0
		}
	}
}
