{
	 "smiles": "COC(=O)C1=NNC(=O)C=C1", 
	 "Tm": 462.15, 
	 "num_atms": 17, 
	 "gaussian": { 
		 "optdone": 1, 
		 "sigma_profile": "yes", 
		 "theory": "DFT", 
		 "functional": "B3LYP", 
		 "basiset": "6-31G**", 
		 "properties": { 
			 "R2extent": 2899.5556, 
			 "electric_dipole_moment_norm": 2.53684163676, 
			 "electric_quadrupole_moment_norm": 9.09062874778, 
			 "total_energy": -567.407909651, 
			 "HOMO_LUMO_gap": 0.17227, 
			 "cosmo_polarized_energy": -13.96, 
			 "cosmo_cavitation_energy": 22.61, 
			 "cosmo_dispersion_energy": -16.87, 
			 "cosmo_repulsion_energy": 1.37, 
			 "cosmo_total_nonelectrostatic_energy": 7.12, 
			 "SMD_solvation_energy": 5.85 
		},
		"coords": [
			{
				"x": -1.4537289968,
				"y": 1.1663786315,
				"z": -2.6532291543,
				"element": "C" 
			},
			{
				"x": -0.9894529844,
				"y": 0.2376559504,
				"z": -1.6585052696,
				"element": "O" 
			},
			{
				"x": 0.0902538562,
				"y": -0.4756422544,
				"z": -2.0078971757,
				"element": "C" 
			},
			{
				"x": 0.663983305,
				"y": -0.3753461491,
				"z": -3.0762132306,
				"element": "O" 
			},
			{
				"x": 0.5407329927,
				"y": -1.4277847663,
				"z": -0.9484642928,
				"element": "C" 
			},
			{
				"x": -0.1266329433,
				"y": -1.4824981049,
				"z": 0.1798697887,
				"element": "N" 
			},
			{
				"x": 0.3167656392,
				"y": -2.3462138389,
				"z": 1.0873397307,
				"element": "N" 
			},
			{
				"x": 1.4202068499,
				"y": -3.2277139828,
				"z": 1.0117211607,
				"element": "C" 
			},
			{
				"x": 1.6843638746,
				"y": -3.960007689,
				"z": 1.9539185583,
				"element": "O" 
			},
			{
				"x": 2.1196088217,
				"y": -3.1218001892,
				"z": -0.2606303542,
				"element": "C" 
			},
			{
				"x": 1.6899626499,
				"y": -2.2485283508,
				"z": -1.2070352293,
				"element": "C" 
			},
			{
				"x": -0.6773288101,
				"y": 1.8990206624,
				"z": -2.8869393467,
				"element": "H" 
			},
			{
				"x": -1.7308144442,
				"y": 0.6405299306,
				"z": -3.570232178,
				"element": "H" 
			},
			{
				"x": -2.3223694387,
				"y": 1.6540195883,
				"z": -2.2121596889,
				"element": "H" 
			},
			{
				"x": -0.2118757552,
				"y": -2.3742651484,
				"z": 1.9530950759,
				"element": "H" 
			},
			{
				"x": 2.9807972871,
				"y": -3.7647727592,
				"z": -0.402900763,
				"element": "H" 
			},
			{
				"x": 2.1844280964,
				"y": -2.14113153,
				"z": -2.1662376313,
				"element": "H" 
			}
		],
		 "valence_orbital": [ 
			{
				"type": "occ",
				"energy": -0.32991,
				"method": "rhf"
			},
			{
				"type": "occ",
				"energy": -0.3121,
				"method": "rhf"
			},
			{
				"type": "occ",
				"energy": -0.29173,
				"method": "rhf"
			},
			{
				"type": "occ",
				"energy": -0.26183,
				"method": "rhf"
			},
			{
				"type": "occ",
				"energy": -0.25249,
				"method": "rhf"
			},
			{
				"type": "unocc",
				"energy": -0.08022,
				"method": "rhf"
			},
			{
				"type": "unocc",
				"energy": -0.0443,
				"method": "rhf"
			},
			{
				"type": "unocc",
				"energy": 0.04804,
				"method": "rhf"
			},
			{
				"type": "unocc",
				"energy": 0.07931,
				"method": "rhf"
			},
			{
				"type": "unocc",
				"energy": 0.10186,
				"method": "rhf"
			}
		],
		"cosmo_sigma_profile": { 
			"-0.025": 0.0,
			"-0.024": 0.0,
			"-0.023": 0.0,
			"-0.022": 0.0,
			"-0.021": 0.0,
			"-0.02": 0.0,
			"-0.019": 0.0,
			"-0.018": 0.0,
			"-0.017": 0.584595929004,
			"-0.016": 1.21670091136,
			"-0.015": 1.26793152991,
			"-0.014": 0.733566745647,
			"-0.013": 0.77640889679,
			"-0.012": 0.821898555912,
			"-0.011": 0.804734456208,
			"-0.01": 0.740736997507,
			"-0.009": 1.73605804392,
			"-0.008": 4.36742071605,
			"-0.007": 6.01070819615,
			"-0.006": 10.2410974581,
			"-0.005": 13.2525457455,
			"-0.004": 18.5864445113,
			"-0.003": 19.1198298805,
			"-0.002": 14.7922058402,
			"-0.001": 10.8286893649,
			"0.0": 10.7542699461,
			"0.001": 5.44196592185,
			"0.002": 4.04289655403,
			"0.003": 4.69421819306,
			"0.004": 5.27220452161,
			"0.005": 4.14068280449,
			"0.006": 3.26947660169,
			"0.007": 3.07088899585,
			"0.008": 3.72611295782,
			"0.009": 4.80733175084,
			"0.01": 5.16384021665,
			"0.011": 7.2135301576,
			"0.012": 5.49229350293,
			"0.013": 6.6889096759,
			"0.014": 1.45438691766,
			"0.015": 0.0,
			"0.016": 0.0,
			"0.017": 0.0,
			"0.018": 0.0,
			"0.019": 0.0,
			"0.02": 0.0,
			"0.021": 0.0,
			"0.022": 0.0,
			"0.023": 0.0,
			"0.024": 0.0,
			"0.025": 0.0
		}
	}
}
