{
	 "smiles": "CC1=CC2=C(C=C1C)N=C(N)S2", 
	 "Tm": 460.15, 
	 "num_atms": 22, 
	 "gaussian": { 
		 "optdone": 1, 
		 "sigma_profile": "yes", 
		 "theory": "DFT", 
		 "functional": "B3LYP", 
		 "basiset": "6-31G**", 
		 "properties": { 
			 "R2extent": 3340.7501, 
			 "electric_dipole_moment_norm": 1.36072003366, 
			 "electric_quadrupole_moment_norm": 17.7511004115, 
			 "total_energy": -856.701886673, 
			 "HOMO_LUMO_gap": 0.19506, 
			 "cosmo_polarized_energy": -10.88, 
			 "cosmo_cavitation_energy": 26.86, 
			 "cosmo_dispersion_energy": -20.56, 
			 "cosmo_repulsion_energy": 1.58, 
			 "cosmo_total_nonelectrostatic_energy": 7.88, 
			 "SMD_solvation_energy": 2.35 
		},
		"coords": [
			{
				"x": -0.9470584646,
				"y": 0.3216728864,
				"z": 2.3638142439,
				"element": "C" 
			},
			{
				"x": -0.8463679696,
				"y": 0.3521043146,
				"z": 0.8565877762,
				"element": "C" 
			},
			{
				"x": -0.8532228148,
				"y": -0.8475292317,
				"z": 0.1377409859,
				"element": "C" 
			},
			{
				"x": -0.7576578792,
				"y": -0.8174089962,
				"z": -1.2509036533,
				"element": "C" 
			},
			{
				"x": -0.6574011824,
				"y": 0.4019158853,
				"z": -1.9557034009,
				"element": "C" 
			},
			{
				"x": -0.6517340625,
				"y": 1.5978078854,
				"z": -1.2286633162,
				"element": "C" 
			},
			{
				"x": -0.7441092596,
				"y": 1.5860401006,
				"z": 0.1636149997,
				"element": "C" 
			},
			{
				"x": -0.7346778182,
				"y": 2.8906970414,
				"z": 0.9259925741,
				"element": "C" 
			},
			{
				"x": -0.5841941827,
				"y": 0.3008744719,
				"z": -3.33884596,
				"element": "N" 
			},
			{
				"x": -0.6128405383,
				"y": -0.939378359,
				"z": -3.7079772472,
				"element": "C" 
			},
			{
				"x": -0.489768997,
				"y": -1.3598582597,
				"z": -5.009153167,
				"element": "N" 
			},
			{
				"x": -0.7338460494,
				"y": -2.155671821,
				"z": -2.3991033167,
				"element": "S" 
			},
			{
				"x": -1.0195470408,
				"y": -0.7047906755,
				"z": 2.7331954686,
				"element": "H" 
			},
			{
				"x": -0.0740360176,
				"y": 0.7850116541,
				"z": 2.8398731561,
				"element": "H" 
			},
			{
				"x": -1.827684839,
				"y": 0.8674762924,
				"z": 2.724488976,
				"element": "H" 
			},
			{
				"x": -0.9308739114,
				"y": -1.7919995867,
				"z": 0.6686519239,
				"element": "H" 
			},
			{
				"x": -0.5740339179,
				"y": 2.536685887,
				"z": -1.7687248258,
				"element": "H" 
			},
			{
				"x": -1.6501470616,
				"y": 3.0239197653,
				"z": 1.5155079888,
				"element": "H" 
			},
			{
				"x": 0.10357302,
				"y": 2.9430864373,
				"z": 1.6316158931,
				"element": "H" 
			},
			{
				"x": -0.6503256101,
				"y": 3.7421505645,
				"z": 0.2458974909,
				"element": "H" 
			},
			{
				"x": -0.6141071204,
				"y": -0.6162463213,
				"z": -5.6835693025,
				"element": "H" 
			},
			{
				"x": -0.9360382827,
				"y": -2.2303599351,
				"z": -5.2589372877,
				"element": "H" 
			}
		],
		 "valence_orbital": [ 
			{
				"type": "occ",
				"energy": -0.28961,
				"method": "rhf"
			},
			{
				"type": "occ",
				"energy": -0.28199,
				"method": "rhf"
			},
			{
				"type": "occ",
				"energy": -0.2698,
				"method": "rhf"
			},
			{
				"type": "occ",
				"energy": -0.22118,
				"method": "rhf"
			},
			{
				"type": "occ",
				"energy": -0.20223,
				"method": "rhf"
			},
			{
				"type": "unocc",
				"energy": -0.00717,
				"method": "rhf"
			},
			{
				"type": "unocc",
				"energy": 0.00699,
				"method": "rhf"
			},
			{
				"type": "unocc",
				"energy": 0.00788,
				"method": "rhf"
			},
			{
				"type": "unocc",
				"energy": 0.05147,
				"method": "rhf"
			},
			{
				"type": "unocc",
				"energy": 0.07183,
				"method": "rhf"
			}
		],
		"cosmo_sigma_profile": { 
			"-0.025": 0.0,
			"-0.024": 0.0,
			"-0.023": 0.0,
			"-0.022": 0.0,
			"-0.021": 0.0,
			"-0.02": 0.0,
			"-0.019": 0.0,
			"-0.018": 0.0,
			"-0.017": 0.0,
			"-0.016": 0.0,
			"-0.015": 0.580377898856,
			"-0.014": 2.10996724416,
			"-0.013": 3.01561271603,
			"-0.012": 2.10892810876,
			"-0.011": 2.64332514281,
			"-0.01": 2.61516789466,
			"-0.009": 2.22146905161,
			"-0.008": 1.39403163596,
			"-0.007": 1.49726668249,
			"-0.006": 4.59824109155,
			"-0.005": 6.79691883491,
			"-0.004": 15.8852723771,
			"-0.003": 17.4472949317,
			"-0.002": 15.6414184161,
			"-0.001": 15.4326674656,
			"0.0": 21.6954547215,
			"0.001": 18.4909683664,
			"0.002": 14.3400562868,
			"0.003": 13.9401117844,
			"0.004": 13.8251753653,
			"0.005": 16.6128743564,
			"0.006": 9.01820065331,
			"0.007": 1.85024419342,
			"0.008": 2.03785464386,
			"0.009": 1.9930216464,
			"0.01": 1.62427134335,
			"0.011": 1.87018655124,
			"0.012": 1.33202740351,
			"0.013": 0.575420758493,
			"0.014": 0.672079520313,
			"0.015": 1.07610472808,
			"0.016": 0.198062587865,
			"0.017": 0.0,
			"0.018": 0.0,
			"0.019": 0.0,
			"0.02": 0.0,
			"0.021": 0.0,
			"0.022": 0.0,
			"0.023": 0.0,
			"0.024": 0.0,
			"0.025": 0.0
		}
	}
}
