{
	 "smiles": "OCC(F)F", 
	 "Tm": 245.05, 
	 "num_atms": 9, 
	 "gaussian": { 
		 "optdone": 1, 
		 "sigma_profile": "yes", 
		 "theory": "DFT", 
		 "functional": "B3LYP", 
		 "basiset": "6-31G**", 
		 "properties": { 
			 "R2extent": 662.3325, 
			 "electric_dipole_moment_norm": 2.07253856659, 
			 "electric_quadrupole_moment_norm": 6.80994172369, 
			 "total_energy": -353.507701991, 
			 "HOMO_LUMO_gap": 0.35891, 
			 "cosmo_polarized_energy": -7.4, 
			 "cosmo_cavitation_energy": 13.22, 
			 "cosmo_dispersion_energy": -9.8, 
			 "cosmo_repulsion_energy": 0.86, 
			 "cosmo_total_nonelectrostatic_energy": 4.28, 
			 "SMD_solvation_energy": 3.41 
		},
		"coords": [
			{
				"x": -1.6380335175,
				"y": -1.5102874172,
				"z": -0.8765520602,
				"element": "O" 
			},
			{
				"x": -0.5337946631,
				"y": -2.1165827269,
				"z": -0.2484724016,
				"element": "C" 
			},
			{
				"x": 0.7346417478,
				"y": -1.3007776975,
				"z": -0.4258434877,
				"element": "C" 
			},
			{
				"x": 0.4809416443,
				"y": -0.0208737577,
				"z": 0.0214229035,
				"element": "F" 
			},
			{
				"x": 1.0830803748,
				"y": -1.2115275353,
				"z": -1.738354646,
				"element": "F" 
			},
			{
				"x": -1.6589632343,
				"y": -0.5898629641,
				"z": -0.5792565707,
				"element": "H" 
			},
			{
				"x": -0.6899327167,
				"y": -2.2622304136,
				"z": 0.8334631065,
				"element": "H" 
			},
			{
				"x": -0.3932367187,
				"y": -3.1014606887,
				"z": -0.7039837438,
				"element": "H" 
			},
			{
				"x": 1.5884970834,
				"y": -1.695196799,
				"z": 0.1390769,
				"element": "H" 
			}
		],
		 "valence_orbital": [ 
			{
				"type": "occ",
				"energy": -0.40797,
				"method": "rhf"
			},
			{
				"type": "occ",
				"energy": -0.39218,
				"method": "rhf"
			},
			{
				"type": "occ",
				"energy": -0.37438,
				"method": "rhf"
			},
			{
				"type": "occ",
				"energy": -0.33427,
				"method": "rhf"
			},
			{
				"type": "occ",
				"energy": -0.28241,
				"method": "rhf"
			},
			{
				"type": "unocc",
				"energy": 0.0765,
				"method": "rhf"
			},
			{
				"type": "unocc",
				"energy": 0.10887,
				"method": "rhf"
			},
			{
				"type": "unocc",
				"energy": 0.11991,
				"method": "rhf"
			},
			{
				"type": "unocc",
				"energy": 0.14313,
				"method": "rhf"
			},
			{
				"type": "unocc",
				"energy": 0.15536,
				"method": "rhf"
			}
		],
		"cosmo_sigma_profile": { 
			"-0.025": 0.0,
			"-0.024": 0.0,
			"-0.023": 0.0,
			"-0.022": 0.0,
			"-0.021": 0.0,
			"-0.02": 0.0,
			"-0.019": 0.0,
			"-0.018": 0.0,
			"-0.017": 0.0,
			"-0.016": 0.0,
			"-0.015": 0.257949342134,
			"-0.014": 0.651317073299,
			"-0.013": 0.68716846102,
			"-0.012": 0.604217251954,
			"-0.011": 0.591807806731,
			"-0.01": 1.05060491674,
			"-0.009": 3.43421307724,
			"-0.008": 5.65497611456,
			"-0.007": 6.32818793458,
			"-0.006": 6.66031932712,
			"-0.005": 6.88696793086,
			"-0.004": 4.85453359854,
			"-0.003": 3.98725020552,
			"-0.002": 3.18571610572,
			"-0.001": 3.61369489765,
			"0.0": 3.23917563851,
			"0.001": 3.5367097036,
			"0.002": 3.82925388476,
			"0.003": 5.10885265438,
			"0.004": 12.8332120191,
			"0.005": 12.8764346594,
			"0.006": 1.68042493122,
			"0.007": 1.91862898533,
			"0.008": 1.61344883049,
			"0.009": 1.61124061764,
			"0.01": 1.03488359422,
			"0.011": 1.26864931345,
			"0.012": 1.94124035133,
			"0.013": 2.26430016908,
			"0.014": 0.742883561777,
			"0.015": 0.0,
			"0.016": 0.0,
			"0.017": 0.0,
			"0.018": 0.0,
			"0.019": 0.0,
			"0.02": 0.0,
			"0.021": 0.0,
			"0.022": 0.0,
			"0.023": 0.0,
			"0.024": 0.0,
			"0.025": 0.0
		}
	}
}
