{
	 "smiles": "ClC(=O)C1=CC2=C(SN=N2)C=C1", 
	 "Tm": 367.65, 
	 "num_atms": 15, 
	 "gaussian": { 
		 "optdone": 1, 
		 "sigma_profile": "yes", 
		 "theory": "DFT", 
		 "functional": "B3LYP", 
		 "basiset": "6-31G**", 
		 "properties": { 
			 "R2extent": 3239.9873, 
			 "electric_dipole_moment_norm": 3.40574930669, 
			 "electric_quadrupole_moment_norm": 11.2133795379, 
			 "total_energy": -1311.62905078, 
			 "HOMO_LUMO_gap": 0.18005, 
			 "cosmo_polarized_energy": -8.52, 
			 "cosmo_cavitation_energy": 24.05, 
			 "cosmo_dispersion_energy": -18.62, 
			 "cosmo_repulsion_energy": 1.41, 
			 "cosmo_total_nonelectrostatic_energy": 6.84, 
			 "SMD_solvation_energy": 2.43 
		},
		"coords": [
			{
				"x": 3.0304328643,
				"y": 2.4417590941,
				"z": -1.4922407066,
				"element": "Cl" 
			},
			{
				"x": 2.1859001335,
				"y": 0.840565462,
				"z": -1.7297020495,
				"element": "C" 
			},
			{
				"x": 2.6983017952,
				"y": 0.0137230338,
				"z": -2.4221873654,
				"element": "O" 
			},
			{
				"x": 0.8907584202,
				"y": 0.6946587041,
				"z": -1.0193037083,
				"element": "C" 
			},
			{
				"x": 0.2349993528,
				"y": -0.525932885,
				"z": -1.1930204107,
				"element": "C" 
			},
			{
				"x": -0.9873785085,
				"y": -0.7206621402,
				"z": -0.5489067336,
				"element": "C" 
			},
			{
				"x": -1.5609682292,
				"y": 0.2891758992,
				"z": 0.2656635933,
				"element": "C" 
			},
			{
				"x": -3.0541946823,
				"y": -0.2927248356,
				"z": 0.8925690703,
				"element": "S" 
			},
			{
				"x": -2.8235100243,
				"y": -1.864903731,
				"z": 0.0222733694,
				"element": "N" 
			},
			{
				"x": -1.7533339507,
				"y": -1.8759794006,
				"z": -0.6260425443,
				"element": "N" 
			},
			{
				"x": -0.8944375214,
				"y": 1.5132598289,
				"z": 0.4345076075,
				"element": "C" 
			},
			{
				"x": 0.3193693552,
				"y": 1.7029643391,
				"z": -0.206804907,
				"element": "C" 
			},
			{
				"x": 0.6645021284,
				"y": -1.3039575661,
				"z": -1.8130906457,
				"element": "H" 
			},
			{
				"x": -1.3143391132,
				"y": 2.2988774057,
				"z": 1.0523860012,
				"element": "H" 
			},
			{
				"x": 0.8444979801,
				"y": 2.6422767916,
				"z": -0.0854005709,
				"element": "H" 
			}
		],
		 "valence_orbital": [ 
			{
				"type": "occ",
				"energy": -0.33139,
				"method": "rhf"
			},
			{
				"type": "occ",
				"energy": -0.30616,
				"method": "rhf"
			},
			{
				"type": "occ",
				"energy": -0.29535,
				"method": "rhf"
			},
			{
				"type": "occ",
				"energy": -0.28329,
				"method": "rhf"
			},
			{
				"type": "occ",
				"energy": -0.27313,
				"method": "rhf"
			},
			{
				"type": "unocc",
				"energy": -0.09308,
				"method": "rhf"
			},
			{
				"type": "unocc",
				"energy": -0.08909,
				"method": "rhf"
			},
			{
				"type": "unocc",
				"energy": -0.04179,
				"method": "rhf"
			},
			{
				"type": "unocc",
				"energy": -0.01851,
				"method": "rhf"
			},
			{
				"type": "unocc",
				"energy": 0.0085,
				"method": "rhf"
			}
		],
		"cosmo_sigma_profile": { 
			"-0.025": 0.0,
			"-0.024": 0.0,
			"-0.023": 0.0,
			"-0.022": 0.0,
			"-0.021": 0.0,
			"-0.02": 0.0,
			"-0.019": 0.0,
			"-0.018": 0.0,
			"-0.017": 0.0,
			"-0.016": 0.0,
			"-0.015": 0.0,
			"-0.014": 0.0,
			"-0.013": 0.0,
			"-0.012": 0.0,
			"-0.011": 0.0,
			"-0.01": 0.309204058346,
			"-0.009": 3.80697295644,
			"-0.008": 5.4751563512,
			"-0.007": 4.87060655719,
			"-0.006": 5.77240875986,
			"-0.005": 8.48462643124,
			"-0.004": 10.6218951824,
			"-0.003": 16.4632066356,
			"-0.002": 23.4939113435,
			"-0.001": 23.3345644966,
			"0.0": 18.8296925062,
			"0.001": 15.1145724508,
			"0.002": 11.3015415833,
			"0.003": 8.43270067456,
			"0.004": 10.0685373654,
			"0.005": 6.9321783542,
			"0.006": 5.56710619786,
			"0.007": 5.52604855135,
			"0.008": 7.25492448501,
			"0.009": 5.04154809646,
			"0.01": 2.29287968602,
			"0.011": 1.36207658137,
			"0.012": 0.0121468821488,
			"0.013": 0.0,
			"0.014": 0.0,
			"0.015": 0.0,
			"0.016": 0.0,
			"0.017": 0.0,
			"0.018": 0.0,
			"0.019": 0.0,
			"0.02": 0.0,
			"0.021": 0.0,
			"0.022": 0.0,
			"0.023": 0.0,
			"0.024": 0.0,
			"0.025": 0.0
		}
	}
}
