{
	 "smiles": "NNC(=O)C1=CC=C(C=C1)C(F)(F)F", 
	 "Tm": 394.15, 
	 "num_atms": 21, 
	 "gaussian": { 
		 "optdone": 1, 
		 "sigma_profile": "yes", 
		 "theory": "DFT", 
		 "functional": "B3LYP", 
		 "basiset": "6-31G**", 
		 "properties": { 
			 "R2extent": 4017.9331, 
			 "electric_dipole_moment_norm": 2.50612640344, 
			 "electric_quadrupole_moment_norm": 14.9497421215, 
			 "total_energy": -793.298905078, 
			 "HOMO_LUMO_gap": 0.19593, 
			 "cosmo_polarized_energy": -13.88, 
			 "cosmo_cavitation_energy": 27.25, 
			 "cosmo_dispersion_energy": -19.26, 
			 "cosmo_repulsion_energy": 1.47, 
			 "cosmo_total_nonelectrostatic_energy": 9.46, 
			 "SMD_solvation_energy": 6.95 
		},
		"coords": [
			{
				"x": 1.5170492439,
				"y": 2.0272812033,
				"z": 2.8197869256,
				"element": "N" 
			},
			{
				"x": 2.2354784438,
				"y": 0.8235622001,
				"z": 2.9871642674,
				"element": "N" 
			},
			{
				"x": 2.1181586841,
				"y": -0.3104697838,
				"z": 2.2084368001,
				"element": "C" 
			},
			{
				"x": 3.0559352079,
				"y": -1.0900031336,
				"z": 2.0960800188,
				"element": "O" 
			},
			{
				"x": 0.803551498,
				"y": -0.5708118611,
				"z": 1.5233493375,
				"element": "C" 
			},
			{
				"x": 0.8454782961,
				"y": -1.1662117376,
				"z": 0.2556740678,
				"element": "C" 
			},
			{
				"x": -0.3318312039,
				"y": -1.486887717,
				"z": -0.4132686812,
				"element": "C" 
			},
			{
				"x": -1.5658423274,
				"y": -1.2410886517,
				"z": 0.1958691313,
				"element": "C" 
			},
			{
				"x": -1.6188022421,
				"y": -0.6810449547,
				"z": 1.4748163318,
				"element": "C" 
			},
			{
				"x": -0.4383011006,
				"y": -0.3426024605,
				"z": 2.1323911888,
				"element": "C" 
			},
			{
				"x": -2.8428913031,
				"y": -1.5375716946,
				"z": -0.5455380044,
				"element": "C" 
			},
			{
				"x": -2.6977917908,
				"y": -2.5685900339,
				"z": -1.4048862932,
				"element": "F" 
			},
			{
				"x": -3.2486573373,
				"y": -0.4710825179,
				"z": -1.2736407627,
				"element": "F" 
			},
			{
				"x": -3.8531615307,
				"y": -1.8453183822,
				"z": 0.2967842158,
				"element": "F" 
			},
			{
				"x": 1.3040392188,
				"y": 2.1827284042,
				"z": 1.8375721158,
				"element": "H" 
			},
			{
				"x": 0.6417009358,
				"y": 1.9834058709,
				"z": 3.3321144846,
				"element": "H" 
			},
			{
				"x": 3.1791112801,
				"y": 0.9624263136,
				"z": 3.3302158725,
				"element": "H" 
			},
			{
				"x": 1.8119366725,
				"y": -1.3817054909,
				"z": -0.1871005178,
				"element": "H" 
			},
			{
				"x": -0.2968840889,
				"y": -1.9424512147,
				"z": -1.3968508185,
				"element": "H" 
			},
			{
				"x": -2.5781201773,
				"y": -0.5241849232,
				"z": 1.955768719,
				"element": "H" 
			},
			{
				"x": -0.4868563789,
				"y": 0.0617205652,
				"z": 3.1382616007,
				"element": "H" 
			}
		],
		 "valence_orbital": [ 
			{
				"type": "occ",
				"energy": -0.30604,
				"method": "rhf"
			},
			{
				"type": "occ",
				"energy": -0.2845,
				"method": "rhf"
			},
			{
				"type": "occ",
				"energy": -0.27944,
				"method": "rhf"
			},
			{
				"type": "occ",
				"energy": -0.26381,
				"method": "rhf"
			},
			{
				"type": "occ",
				"energy": -0.25505,
				"method": "rhf"
			},
			{
				"type": "unocc",
				"energy": -0.05912,
				"method": "rhf"
			},
			{
				"type": "unocc",
				"energy": -0.02914,
				"method": "rhf"
			},
			{
				"type": "unocc",
				"energy": 0.02592,
				"method": "rhf"
			},
			{
				"type": "unocc",
				"energy": 0.0577,
				"method": "rhf"
			},
			{
				"type": "unocc",
				"energy": 0.09231,
				"method": "rhf"
			}
		],
		"cosmo_sigma_profile": { 
			"-0.025": 0.0,
			"-0.024": 0.0,
			"-0.023": 0.0,
			"-0.022": 0.0,
			"-0.021": 0.0,
			"-0.02": 0.0,
			"-0.019": 0.0,
			"-0.018": 0.0,
			"-0.017": 0.0,
			"-0.016": 0.0,
			"-0.015": 0.0,
			"-0.014": 0.141286240977,
			"-0.013": 1.14968488319,
			"-0.012": 3.5269541896,
			"-0.011": 3.4263710876,
			"-0.01": 4.01702614888,
			"-0.009": 4.20243009068,
			"-0.008": 5.10918298644,
			"-0.007": 8.33472320434,
			"-0.006": 10.1512866978,
			"-0.005": 8.99744555277,
			"-0.004": 9.01030344659,
			"-0.003": 10.0819105867,
			"-0.002": 10.6321056218,
			"-0.001": 12.0019054635,
			"0.0": 13.1352975718,
			"0.001": 18.7488772269,
			"0.002": 32.5744936816,
			"0.003": 30.8765442427,
			"0.004": 3.64079114353,
			"0.005": 2.37269550498,
			"0.006": 2.47183948192,
			"0.007": 1.70909403665,
			"0.008": 2.43910300207,
			"0.009": 2.03143392847,
			"0.01": 1.43167822748,
			"0.011": 2.63202307397,
			"0.012": 4.16542045413,
			"0.013": 5.57802991689,
			"0.014": 2.04983757152,
			"0.015": 0.477687640894,
			"0.016": 0.388787886656,
			"0.017": 0.0,
			"0.018": 0.0,
			"0.019": 0.0,
			"0.02": 0.0,
			"0.021": 0.0,
			"0.022": 0.0,
			"0.023": 0.0,
			"0.024": 0.0,
			"0.025": 0.0
		}
	}
}
