{
	 "smiles": "COC1=CC=C(C=C1)[Si](CC=C)(C(C)C)C(C)C", 
	 "Tm": 409.15, 
	 "num_atms": 44, 
	 "gaussian": { 
		 "optdone": 1, 
		 "sigma_profile": "yes", 
		 "theory": "DFT", 
		 "functional": "B3LYP", 
		 "basiset": "6-31G**", 
		 "properties": { 
			 "R2extent": 6951.1429, 
			 "electric_dipole_moment_norm": 2.02294521429, 
			 "electric_quadrupole_moment_norm": 9.55477292195, 
			 "total_energy": -990.096270235, 
			 "HOMO_LUMO_gap": 0.21373, 
			 "cosmo_polarized_energy": -6.61, 
			 "cosmo_cavitation_energy": 45.14, 
			 "cosmo_dispersion_energy": -28.07, 
			 "cosmo_repulsion_energy": 2.24, 
			 "cosmo_total_nonelectrostatic_energy": 19.31, 
			 "SMD_solvation_energy": 9.2 
		},
		"coords": [
			{
				"x": 1.4035113847,
				"y": -5.8875759245,
				"z": -2.1746644676,
				"element": "C" 
			},
			{
				"x": 0.8131893865,
				"y": -5.5745708989,
				"z": -0.9233697468,
				"element": "O" 
			},
			{
				"x": 0.6247815464,
				"y": -4.2604668415,
				"z": -0.6079761456,
				"element": "C" 
			},
			{
				"x": 0.9748293075,
				"y": -3.1840032586,
				"z": -1.4316962791,
				"element": "C" 
			},
			{
				"x": 0.7320942228,
				"y": -1.8789700792,
				"z": -0.995041497,
				"element": "C" 
			},
			{
				"x": 0.1442267985,
				"y": -1.5916346198,
				"z": 0.2490774217,
				"element": "C" 
			},
			{
				"x": -0.197197108,
				"y": -2.7019590608,
				"z": 1.0493139643,
				"element": "C" 
			},
			{
				"x": 0.0352860073,
				"y": -4.0094862686,
				"z": 0.6388501944,
				"element": "C" 
			},
			{
				"x": -0.1733415087,
				"y": 0.206521524,
				"z": 0.7694440369,
				"element": "Si" 
			},
			{
				"x": -0.8354623284,
				"y": 0.1543536582,
				"z": 2.5716309665,
				"element": "C" 
			},
			{
				"x": -0.9270361898,
				"y": 1.4586871796,
				"z": 3.3098585209,
				"element": "C" 
			},
			{
				"x": -2.0493703268,
				"y": 2.0318964123,
				"z": 3.7528463216,
				"element": "C" 
			},
			{
				"x": 1.5322852963,
				"y": 1.0888115611,
				"z": 0.6676181418,
				"element": "C" 
			},
			{
				"x": 1.5194892007,
				"y": 2.628823227,
				"z": 0.6648289014,
				"element": "C" 
			},
			{
				"x": 2.4946473707,
				"y": 0.5529356344,
				"z": 1.7478226528,
				"element": "C" 
			},
			{
				"x": -1.4645768403,
				"y": 0.9481436422,
				"z": -0.4468274523,
				"element": "C" 
			},
			{
				"x": -2.6496325577,
				"y": -0.0139428889,
				"z": -0.6722176738,
				"element": "C" 
			},
			{
				"x": -1.9948360985,
				"y": 2.3474673073,
				"z": -0.0736514075,
				"element": "C" 
			},
			{
				"x": 1.4576741405,
				"y": -6.9764895374,
				"z": -2.2187502467,
				"element": "H" 
			},
			{
				"x": 0.7956068413,
				"y": -5.5230006318,
				"z": -3.0128352064,
				"element": "H" 
			},
			{
				"x": 2.4162264576,
				"y": -5.472878326,
				"z": -2.2609517036,
				"element": "H" 
			},
			{
				"x": 1.431548239,
				"y": -3.3466829421,
				"z": -2.4011201921,
				"element": "H" 
			},
			{
				"x": 1.0160200304,
				"y": -1.0666402255,
				"z": -1.6615718302,
				"element": "H" 
			},
			{
				"x": -0.6584973672,
				"y": -2.5496929323,
				"z": 2.0213935143,
				"element": "H" 
			},
			{
				"x": -0.2309381682,
				"y": -4.8551640641,
				"z": 1.2651673199,
				"element": "H" 
			},
			{
				"x": -0.1573069945,
				"y": -0.5184726045,
				"z": 3.1166768051,
				"element": "H" 
			},
			{
				"x": -1.8161970605,
				"y": -0.3387654822,
				"z": 2.5614264241,
				"element": "H" 
			},
			{
				"x": 0.019908857,
				"y": 1.9636896949,
				"z": 3.5040329991,
				"element": "H" 
			},
			{
				"x": -3.023807725,
				"y": 1.5718264798,
				"z": 3.6034049803,
				"element": "H" 
			},
			{
				"x": -2.0343321101,
				"y": 2.9806501034,
				"z": 4.2808357554,
				"element": "H" 
			},
			{
				"x": 1.9362247003,
				"y": 0.7690504982,
				"z": -0.305724033,
				"element": "H" 
			},
			{
				"x": 0.9754157275,
				"y": 3.0332234067,
				"z": -0.1938092767,
				"element": "H" 
			},
			{
				"x": 2.5432569296,
				"y": 3.0226137319,
				"z": 0.6159282545,
				"element": "H" 
			},
			{
				"x": 1.0593027818,
				"y": 3.0397420609,
				"z": 1.5703204178,
				"element": "H" 
			},
			{
				"x": 2.1808450731,
				"y": 0.8568413876,
				"z": 2.7535853591,
				"element": "H" 
			},
			{
				"x": 2.5574889683,
				"y": -0.5401804526,
				"z": 1.736451337,
				"element": "H" 
			},
			{
				"x": 3.5085593412,
				"y": 0.9446743614,
				"z": 1.5965979856,
				"element": "H" 
			},
			{
				"x": -0.929634379,
				"y": 1.0378407768,
				"z": -1.4063700979,
				"element": "H" 
			},
			{
				"x": -3.3440281295,
				"y": 0.3952786345,
				"z": -1.4171923751,
				"element": "H" 
			},
			{
				"x": -3.2236525289,
				"y": -0.1622993064,
				"z": 0.2508950738,
				"element": "H" 
			},
			{
				"x": -2.324631373,
				"y": -0.9981091809,
				"z": -1.020742696,
				"element": "H" 
			},
			{
				"x": -1.1990139663,
				"y": 3.0880825395,
				"z": 0.0398315745,
				"element": "H" 
			},
			{
				"x": -2.5495568501,
				"y": 2.3242104451,
				"z": 0.8691889588,
				"element": "H" 
			},
			{
				"x": -2.6788689983,
				"y": 2.7160212597,
				"z": -0.849315554,
				"element": "H" 
			}
		],
		 "valence_orbital": [ 
			{
				"type": "occ",
				"energy": -0.27705,
				"method": "rhf"
			},
			{
				"type": "occ",
				"energy": -0.2611,
				"method": "rhf"
			},
			{
				"type": "occ",
				"energy": -0.24814,
				"method": "rhf"
			},
			{
				"type": "occ",
				"energy": -0.23226,
				"method": "rhf"
			},
			{
				"type": "occ",
				"energy": -0.21567,
				"method": "rhf"
			},
			{
				"type": "unocc",
				"energy": -0.00194,
				"method": "rhf"
			},
			{
				"type": "unocc",
				"energy": 0.00528,
				"method": "rhf"
			},
			{
				"type": "unocc",
				"energy": 0.02315,
				"method": "rhf"
			},
			{
				"type": "unocc",
				"energy": 0.06931,
				"method": "rhf"
			},
			{
				"type": "unocc",
				"energy": 0.08164,
				"method": "rhf"
			}
		],
		"cosmo_sigma_profile": { 
			"-0.025": 0.0,
			"-0.024": 0.0,
			"-0.023": 0.0,
			"-0.022": 0.0,
			"-0.021": 0.0,
			"-0.02": 0.0,
			"-0.019": 0.0,
			"-0.018": 0.0,
			"-0.017": 0.0,
			"-0.016": 0.0,
			"-0.015": 0.0,
			"-0.014": 0.0,
			"-0.013": 0.0,
			"-0.012": 0.0,
			"-0.011": 0.0,
			"-0.01": 0.0,
			"-0.009": 0.0,
			"-0.008": 0.0,
			"-0.007": 0.134340943516,
			"-0.006": 4.30203576795,
			"-0.005": 15.8136959205,
			"-0.004": 24.8715089161,
			"-0.003": 35.7701384625,
			"-0.002": 39.4940585652,
			"-0.001": 41.1795756983,
			"0.0": 42.5744667595,
			"0.001": 44.2520725511,
			"0.002": 36.2351114943,
			"0.003": 16.1830886833,
			"0.004": 14.9268317229,
			"0.005": 13.0375913129,
			"0.006": 10.7752539083,
			"0.007": 3.48977443484,
			"0.008": 1.70313159406,
			"0.009": 1.5928636539,
			"0.01": 1.532092719,
			"0.011": 0.658391970782,
			"0.012": 0.0,
			"0.013": 0.0,
			"0.014": 0.0,
			"0.015": 0.0,
			"0.016": 0.0,
			"0.017": 0.0,
			"0.018": 0.0,
			"0.019": 0.0,
			"0.02": 0.0,
			"0.021": 0.0,
			"0.022": 0.0,
			"0.023": 0.0,
			"0.024": 0.0,
			"0.025": 0.0
		}
	}
}
