{
	 "smiles": "CN(CC1=CN(C)N=C1)C(=O)CCl", 
	 "Tm": 309.15, 
	 "num_atms": 25, 
	 "gaussian": { 
		 "optdone": 1, 
		 "sigma_profile": "yes", 
		 "theory": "DFT", 
		 "functional": "B3LYP", 
		 "basiset": "6-31G**", 
		 "properties": { 
			 "R2extent": 5045.8622, 
			 "electric_dipole_moment_norm": 3.52944041032, 
			 "electric_quadrupole_moment_norm": 29.2431626631, 
			 "total_energy": -1011.73405802, 
			 "HOMO_LUMO_gap": 0.25252, 
			 "cosmo_polarized_energy": -18.07, 
			 "cosmo_cavitation_energy": 30.28, 
			 "cosmo_dispersion_energy": -21.45, 
			 "cosmo_repulsion_energy": 1.74, 
			 "cosmo_total_nonelectrostatic_energy": 10.56, 
			 "SMD_solvation_energy": 5.02 
		},
		"coords": [
			{
				"x": -1.4630288849,
				"y": 1.2666050951,
				"z": -1.332688627,
				"element": "C" 
			},
			{
				"x": -1.0447569457,
				"y": -0.1086133003,
				"z": -1.5895564949,
				"element": "N" 
			},
			{
				"x": -0.357053589,
				"y": -0.7927966734,
				"z": -0.4959661141,
				"element": "C" 
			},
			{
				"x": 1.1109369355,
				"y": -0.4597721802,
				"z": -0.3893361055,
				"element": "C" 
			},
			{
				"x": 1.9406801151,
				"y": 0.0727396079,
				"z": -1.3636392384,
				"element": "C" 
			},
			{
				"x": 3.1860775968,
				"y": 0.1555334448,
				"z": -0.8234531178,
				"element": "N" 
			},
			{
				"x": 4.380597044,
				"y": 0.7238868384,
				"z": -1.4212455618,
				"element": "C" 
			},
			{
				"x": 3.2230861958,
				"y": -0.2833922021,
				"z": 0.4512888724,
				"element": "N" 
			},
			{
				"x": 1.9720229939,
				"y": -0.6581776517,
				"z": 0.7165511658,
				"element": "C" 
			},
			{
				"x": -1.2019376088,
				"y": -0.6228450093,
				"z": -2.8568353325,
				"element": "C" 
			},
			{
				"x": -1.7152408661,
				"y": 0.0042093613,
				"z": -3.7690495598,
				"element": "O" 
			},
			{
				"x": -0.6965079794,
				"y": -2.0681572405,
				"z": -3.0388546899,
				"element": "C" 
			},
			{
				"x": -0.7372304816,
				"y": -2.586126133,
				"z": -4.752592656,
				"element": "Cl" 
			},
			{
				"x": -2.2235518657,
				"y": 1.292339902,
				"z": -0.5432580192,
				"element": "H" 
			},
			{
				"x": -1.8801704516,
				"y": 1.6745763323,
				"z": -2.251573733,
				"element": "H" 
			},
			{
				"x": -0.6081698695,
				"y": 1.8737951389,
				"z": -1.0144057008,
				"element": "H" 
			},
			{
				"x": -0.5016240876,
				"y": -1.8732680491,
				"z": -0.5950474869,
				"element": "H" 
			},
			{
				"x": -0.8650612394,
				"y": -0.5182413556,
				"z": 0.4367365744,
				"element": "H" 
			},
			{
				"x": 1.7358564557,
				"y": 0.4006414672,
				"z": -2.3726619239,
				"element": "H" 
			},
			{
				"x": 5.2398661865,
				"y": 0.1136324662,
				"z": -1.1391876146,
				"element": "H" 
			},
			{
				"x": 4.543075977,
				"y": 1.7497236085,
				"z": -1.0752981624,
				"element": "H" 
			},
			{
				"x": 4.2740146986,
				"y": 0.7222227213,
				"z": -2.5075515136,
				"element": "H" 
			},
			{
				"x": 1.7308436253,
				"y": -1.0644266254,
				"z": 1.6907237021,
				"element": "H" 
			},
			{
				"x": -1.3265526969,
				"y": -2.7630575536,
				"z": -2.478187098,
				"element": "H" 
			},
			{
				"x": 0.3326287419,
				"y": -2.1757320096,
				"z": -2.6925115647,
				"element": "H" 
			}
		],
		 "valence_orbital": [ 
			{
				"type": "occ",
				"energy": -0.29401,
				"method": "rhf"
			},
			{
				"type": "occ",
				"energy": -0.25962,
				"method": "rhf"
			},
			{
				"type": "occ",
				"energy": -0.25836,
				"method": "rhf"
			},
			{
				"type": "occ",
				"energy": -0.24971,
				"method": "rhf"
			},
			{
				"type": "occ",
				"energy": -0.24683,
				"method": "rhf"
			},
			{
				"type": "unocc",
				"energy": 0.00569,
				"method": "rhf"
			},
			{
				"type": "unocc",
				"energy": 0.01434,
				"method": "rhf"
			},
			{
				"type": "unocc",
				"energy": 0.02892,
				"method": "rhf"
			},
			{
				"type": "unocc",
				"energy": 0.05043,
				"method": "rhf"
			},
			{
				"type": "unocc",
				"energy": 0.08301,
				"method": "rhf"
			}
		],
		"cosmo_sigma_profile": { 
			"-0.025": 0.0,
			"-0.024": 0.0,
			"-0.023": 0.0,
			"-0.022": 0.0,
			"-0.021": 0.0,
			"-0.02": 0.0,
			"-0.019": 0.0,
			"-0.018": 0.0,
			"-0.017": 0.0,
			"-0.016": 0.0,
			"-0.015": 0.0,
			"-0.014": 0.0,
			"-0.013": 0.0,
			"-0.012": 0.0,
			"-0.011": 0.00531886369104,
			"-0.01": 1.29497914139,
			"-0.009": 4.76407325827,
			"-0.008": 6.74819105764,
			"-0.007": 10.8923517796,
			"-0.006": 16.9914765518,
			"-0.005": 20.9072899721,
			"-0.004": 20.9272658417,
			"-0.003": 22.2576377593,
			"-0.002": 19.1836630551,
			"-0.001": 13.6041987029,
			"0.0": 10.2411792866,
			"0.001": 9.68178995417,
			"0.002": 8.77760817702,
			"0.003": 8.82468371256,
			"0.004": 10.0979078772,
			"0.005": 10.7927252073,
			"0.006": 11.1000773466,
			"0.007": 5.10529918273,
			"0.008": 4.70588771366,
			"0.009": 3.02442786051,
			"0.01": 2.08941493004,
			"0.011": 3.74471323013,
			"0.012": 3.74644030802,
			"0.013": 5.75915104455,
			"0.014": 4.00657089711,
			"0.015": 1.71162502581,
			"0.016": 0.852997090717,
			"0.017": 0.038861342917,
			"0.018": 0.0,
			"0.019": 0.0,
			"0.02": 0.0,
			"0.021": 0.0,
			"0.022": 0.0,
			"0.023": 0.0,
			"0.024": 0.0,
			"0.025": 0.0
		}
	}
}
