{
	 "smiles": "CC1=CC=CC=C1", 
	 "Tm": 179.15, 
	 "num_atms": 15, 
	 "gaussian": { 
		 "optdone": 1, 
		 "sigma_profile": "yes", 
		 "theory": "DFT", 
		 "functional": "B3LYP", 
		 "basiset": "6-31G**", 
		 "properties": { 
			 "R2extent": 1300.213, 
			 "electric_dipole_moment_norm": 0.340435617996, 
			 "electric_quadrupole_moment_norm": 4.49623691102, 
			 "total_energy": -271.572950392, 
			 "HOMO_LUMO_gap": 0.24, 
			 "cosmo_polarized_energy": -2.99, 
			 "cosmo_cavitation_energy": 18.05, 
			 "cosmo_dispersion_energy": -13.55, 
			 "cosmo_repulsion_energy": 1.14, 
			 "cosmo_total_nonelectrostatic_energy": 5.64, 
			 "SMD_solvation_energy": 3.25 
		},
		"coords": [
			{
				"x": 2.9197561257,
				"y": 0.4232731763,
				"z": 2.4452596225,
				"element": "C" 
			},
			{
				"x": 1.7270724771,
				"y": 0.7919936725,
				"z": 1.5918744161,
				"element": "C" 
			},
			{
				"x": 0.4917510072,
				"y": 0.1543343669,
				"z": 1.7684514831,
				"element": "C" 
			},
			{
				"x": -0.6184702068,
				"y": 0.5131286368,
				"z": 1.0025423091,
				"element": "C" 
			},
			{
				"x": -0.5113094134,
				"y": 1.5192696795,
				"z": 0.0407008129,
				"element": "C" 
			},
			{
				"x": 0.7143462267,
				"y": 2.1603033005,
				"z": -0.1484587166,
				"element": "C" 
			},
			{
				"x": 1.8212824168,
				"y": 1.797454941,
				"z": 0.6202928096,
				"element": "C" 
			},
			{
				"x": 3.8604373821,
				"y": 0.5835951198,
				"z": 1.9095598332,
				"element": "H" 
			},
			{
				"x": 2.8820183074,
				"y": -0.62576578,
				"z": 2.7545363832,
				"element": "H" 
			},
			{
				"x": 2.9575484677,
				"y": 1.0305757517,
				"z": 3.3582354916,
				"element": "H" 
			},
			{
				"x": 0.3997780686,
				"y": -0.6333019386,
				"z": 2.5127401121,
				"element": "H" 
			},
			{
				"x": -1.566109112,
				"y": 0.0036473908,
				"z": 1.1546964445,
				"element": "H" 
			},
			{
				"x": -1.3733231537,
				"y": 1.7979275474,
				"z": -0.5587056447,
				"element": "H" 
			},
			{
				"x": 0.8107800992,
				"y": 2.9411333519,
				"z": -0.897955564,
				"element": "H" 
			},
			{
				"x": 2.7730413076,
				"y": 2.2997307837,
				"z": 0.4632302075,
				"element": "H" 
			}
		],
		 "valence_orbital": [ 
			{
				"type": "occ",
				"energy": -0.3475,
				"method": "rhf"
			},
			{
				"type": "occ",
				"energy": -0.33537,
				"method": "rhf"
			},
			{
				"type": "occ",
				"energy": -0.33255,
				"method": "rhf"
			},
			{
				"type": "occ",
				"energy": -0.24397,
				"method": "rhf"
			},
			{
				"type": "occ",
				"energy": -0.23558,
				"method": "rhf"
			},
			{
				"type": "unocc",
				"energy": 0.00442,
				"method": "rhf"
			},
			{
				"type": "unocc",
				"energy": 0.00584,
				"method": "rhf"
			},
			{
				"type": "unocc",
				"energy": 0.09614,
				"method": "rhf"
			},
			{
				"type": "unocc",
				"energy": 0.12231,
				"method": "rhf"
			},
			{
				"type": "unocc",
				"energy": 0.13864,
				"method": "rhf"
			}
		],
		"cosmo_sigma_profile": { 
			"-0.025": 0.0,
			"-0.024": 0.0,
			"-0.023": 0.0,
			"-0.022": 0.0,
			"-0.021": 0.0,
			"-0.02": 0.0,
			"-0.019": 0.0,
			"-0.018": 0.0,
			"-0.017": 0.0,
			"-0.016": 0.0,
			"-0.015": 0.0,
			"-0.014": 0.0,
			"-0.013": 0.0,
			"-0.012": 0.0,
			"-0.011": 0.0,
			"-0.01": 0.0,
			"-0.009": 0.0,
			"-0.008": 0.0,
			"-0.007": 0.0,
			"-0.006": 0.980379034974,
			"-0.005": 8.74017331067,
			"-0.004": 15.741099081,
			"-0.003": 18.6173832788,
			"-0.002": 14.4914732714,
			"-0.001": 13.6506794629,
			"0.0": 15.5300046079,
			"0.001": 9.83961373178,
			"0.002": 7.46866425465,
			"0.003": 8.59011348635,
			"0.004": 7.4173304537,
			"0.005": 8.56931054225,
			"0.006": 8.16438821712,
			"0.007": 5.51382465336,
			"0.008": 0.0132740491594,
			"0.009": 0.0,
			"0.01": 0.0,
			"0.011": 0.0,
			"0.012": 0.0,
			"0.013": 0.0,
			"0.014": 0.0,
			"0.015": 0.0,
			"0.016": 0.0,
			"0.017": 0.0,
			"0.018": 0.0,
			"0.019": 0.0,
			"0.02": 0.0,
			"0.021": 0.0,
			"0.022": 0.0,
			"0.023": 0.0,
			"0.024": 0.0,
			"0.025": 0.0
		}
	}
}
