{
	 "smiles": "O=N(=O)C1=CC=C(C=NNP(=O)(N2CC2)N2CC2)C=C1", 
	 "Tm": 422.15, 
	 "num_atms": 34, 
	 "gaussian": { 
		 "optdone": 1, 
		 "sigma_profile": "yes", 
		 "theory": "DFT", 
		 "functional": "B3LYP", 
		 "basiset": "6-31G**", 
		 "properties": { 
			 "R2extent": 10530.672, 
			 "electric_dipole_moment_norm": 5.69727123981, 
			 "electric_quadrupole_moment_norm": 41.1782637405, 
			 "total_energy": -1268.21905777, 
			 "HOMO_LUMO_gap": 0.14315, 
			 "cosmo_polarized_energy": -23.54, 
			 "cosmo_cavitation_energy": 42.01, 
			 "cosmo_dispersion_energy": -28.79, 
			 "cosmo_repulsion_energy": 2.2, 
			 "cosmo_total_nonelectrostatic_energy": 15.42, 
			 "SMD_solvation_energy": 5.27 
		},
		"coords": [
			{
				"x": 2.2350539254,
				"y": 5.3711023038,
				"z": -3.0047077966,
				"element": "O" 
			},
			{
				"x": 2.867949754,
				"y": 4.4005884698,
				"z": -3.4226013181,
				"element": "N" 
			},
			{
				"x": 3.6674565592,
				"y": 4.437865122,
				"z": -4.3592505153,
				"element": "O" 
			},
			{
				"x": 2.654731465,
				"y": 3.1100075577,
				"z": -2.7581764195,
				"element": "C" 
			},
			{
				"x": 3.3566060193,
				"y": 1.9937595594,
				"z": -3.2085203687,
				"element": "C" 
			},
			{
				"x": 3.1482196413,
				"y": 0.7748097313,
				"z": -2.5729960726,
				"element": "C" 
			},
			{
				"x": 2.2489149802,
				"y": 0.6647605269,
				"z": -1.4974579486,
				"element": "C" 
			},
			{
				"x": 2.0563276702,
				"y": -0.6350987662,
				"z": -0.8544839238,
				"element": "C" 
			},
			{
				"x": 1.2434021503,
				"y": -0.7756158552,
				"z": 0.1313648821,
				"element": "N" 
			},
			{
				"x": 1.1081998578,
				"y": -2.0008136054,
				"z": 0.6833198738,
				"element": "N" 
			},
			{
				"x": 0.0738018002,
				"y": -2.3305878606,
				"z": 1.9850032102,
				"element": "P" 
			},
			{
				"x": 0.1852978679,
				"y": -3.7816433655,
				"z": 2.3228876423,
				"element": "O" 
			},
			{
				"x": -1.431889714,
				"y": -1.743069684,
				"z": 1.4921835018,
				"element": "N" 
			},
			{
				"x": -2.6499165106,
				"y": -2.228748567,
				"z": 2.1633293184,
				"element": "C" 
			},
			{
				"x": -2.3387212013,
				"y": -2.6523643038,
				"z": 0.773853308,
				"element": "C" 
			},
			{
				"x": 0.5054264711,
				"y": -1.2039747715,
				"z": 3.1680930921,
				"element": "N" 
			},
			{
				"x": 0.130581006,
				"y": -1.4523813116,
				"z": 4.5708683231,
				"element": "C" 
			},
			{
				"x": 1.5472702678,
				"y": -1.571771745,
				"z": 4.1398822633,
				"element": "C" 
			},
			{
				"x": 1.5543459998,
				"y": 1.8130238713,
				"z": -1.0658544955,
				"element": "C" 
			},
			{
				"x": 1.7541033233,
				"y": 3.0339336521,
				"z": -1.6919885129,
				"element": "C" 
			},
			{
				"x": 4.0449651926,
				"y": 2.0964750114,
				"z": -4.0378331076,
				"element": "H" 
			},
			{
				"x": 3.6882683494,
				"y": -0.10460813,
				"z": -2.9129179095,
				"element": "H" 
			},
			{
				"x": 2.6337013881,
				"y": -1.4819847567,
				"z": -1.2488854504,
				"element": "H" 
			},
			{
				"x": 1.6420644249,
				"y": -2.79018176,
				"z": 0.3196791525,
				"element": "H" 
			},
			{
				"x": -3.3965882028,
				"y": -1.4617544562,
				"z": 2.3505520067,
				"element": "H" 
			},
			{
				"x": -2.5457555181,
				"y": -2.9832051221,
				"z": 2.9404034879,
				"element": "H" 
			},
			{
				"x": -2.8564967341,
				"y": -2.1966187939,
				"z": -0.0657108538,
				"element": "H" 
			},
			{
				"x": -2.0217729927,
				"y": -3.6835600449,
				"z": 0.6325860232,
				"element": "H" 
			},
			{
				"x": -0.3881123504,
				"y": -2.3782157165,
				"z": 4.8110059117,
				"element": "H" 
			},
			{
				"x": -0.2085058493,
				"y": -0.5710565306,
				"z": 5.1085779103,
				"element": "H" 
			},
			{
				"x": 2.2545890055,
				"y": -0.7767818807,
				"z": 4.3597643937,
				"element": "H" 
			},
			{
				"x": 1.9631473371,
				"y": -2.5757802098,
				"z": 4.0872730302,
				"element": "H" 
			},
			{
				"x": 0.8618576529,
				"y": 1.7239993506,
				"z": -0.2363362489,
				"element": "H" 
			},
			{
				"x": 1.2308769642,
				"y": 3.9277920809,
				"z": -1.3762063895,
				"element": "H" 
			}
		],
		 "valence_orbital": [ 
			{
				"type": "occ",
				"energy": -0.28426,
				"method": "rhf"
			},
			{
				"type": "occ",
				"energy": -0.27486,
				"method": "rhf"
			},
			{
				"type": "occ",
				"energy": -0.27237,
				"method": "rhf"
			},
			{
				"type": "occ",
				"energy": -0.25436,
				"method": "rhf"
			},
			{
				"type": "occ",
				"energy": -0.2339,
				"method": "rhf"
			},
			{
				"type": "unocc",
				"energy": -0.09075,
				"method": "rhf"
			},
			{
				"type": "unocc",
				"energy": -0.0335,
				"method": "rhf"
			},
			{
				"type": "unocc",
				"energy": -0.02149,
				"method": "rhf"
			},
			{
				"type": "unocc",
				"energy": 0.04494,
				"method": "rhf"
			},
			{
				"type": "unocc",
				"energy": 0.05588,
				"method": "rhf"
			}
		],
		"cosmo_sigma_profile": { 
			"-0.025": 0.0,
			"-0.024": 0.0,
			"-0.023": 0.0,
			"-0.022": 0.0,
			"-0.021": 0.0,
			"-0.02": 0.0,
			"-0.019": 0.0,
			"-0.018": 0.0,
			"-0.017": 0.0,
			"-0.016": 0.0,
			"-0.015": 0.802441985239,
			"-0.014": 1.44587996086,
			"-0.013": 1.56320708952,
			"-0.012": 1.43986462968,
			"-0.011": 0.614934515312,
			"-0.01": 1.19923217198,
			"-0.009": 1.98881057505,
			"-0.008": 5.56732502066,
			"-0.007": 14.1866315462,
			"-0.006": 23.5514869275,
			"-0.005": 25.388224054,
			"-0.004": 24.7656782043,
			"-0.003": 25.9345376918,
			"-0.002": 24.9007644099,
			"-0.001": 23.6578157784,
			"0.0": 23.361870187,
			"0.001": 27.4157523157,
			"0.002": 18.0485310944,
			"0.003": 9.89510242395,
			"0.004": 8.14513613493,
			"0.005": 6.04030802766,
			"0.006": 6.88827400541,
			"0.007": 10.2174756776,
			"0.008": 10.7719280854,
			"0.009": 6.84102164408,
			"0.01": 6.48554291321,
			"0.011": 3.37713070332,
			"0.012": 3.44029214482,
			"0.013": 4.44769307979,
			"0.014": 4.99939369,
			"0.015": 5.62545050805,
			"0.016": 0.0754415703428,
			"0.017": 0.0,
			"0.018": 0.0,
			"0.019": 0.0,
			"0.02": 0.0,
			"0.021": 0.0,
			"0.022": 0.0,
			"0.023": 0.0,
			"0.024": 0.0,
			"0.025": 0.0
		}
	}
}
