{
	 "smiles": "COC1=C(OC)C=C(C(=C1)C(=O)C1=CC=C(C)C=C1)[N+]([O-])=O", 
	 "Tm": 383.15, 
	 "num_atms": 37, 
	 "gaussian": { 
		 "optdone": 1, 
		 "sigma_profile": "yes", 
		 "theory": "DFT", 
		 "functional": "B3LYP", 
		 "basiset": "6-31G**", 
		 "properties": { 
			 "R2extent": 8026.8236, 
			 "electric_dipole_moment_norm": 5.60422562893, 
			 "electric_quadrupole_moment_norm": 27.564454014, 
			 "total_energy": -1049.48532729, 
			 "HOMO_LUMO_gap": 0.15849, 
			 "cosmo_polarized_energy": -17.31, 
			 "cosmo_cavitation_energy": 42.12, 
			 "cosmo_dispersion_energy": -28.94, 
			 "cosmo_repulsion_energy": 2.23, 
			 "cosmo_total_nonelectrostatic_energy": 15.41, 
			 "SMD_solvation_energy": 11.36 
		},
		"coords": [
			{
				"x": -4.5783073649,
				"y": -0.9061596317,
				"z": 0.1608162303,
				"element": "C" 
			},
			{
				"x": -4.0146141299,
				"y": -1.0711486022,
				"z": -1.1379367964,
				"element": "O" 
			},
			{
				"x": -2.7639380222,
				"y": -0.6057034097,
				"z": -1.3677722397,
				"element": "C" 
			},
			{
				"x": -2.253618038,
				"y": -0.8098722563,
				"z": -2.6762863327,
				"element": "C" 
			},
			{
				"x": -2.9651787521,
				"y": -1.4821132563,
				"z": -3.6294970032,
				"element": "O" 
			},
			{
				"x": -4.1389032613,
				"y": -0.8282690739,
				"z": -4.1291138116,
				"element": "C" 
			},
			{
				"x": -0.9750114534,
				"y": -0.3698919248,
				"z": -2.9781598581,
				"element": "C" 
			},
			{
				"x": -0.1949818133,
				"y": 0.259043524,
				"z": -2.0026433067,
				"element": "C" 
			},
			{
				"x": -0.6712403933,
				"y": 0.4668112017,
				"z": -0.7045533659,
				"element": "C" 
			},
			{
				"x": -1.9704072681,
				"y": 0.0358041791,
				"z": -0.4117139386,
				"element": "C" 
			},
			{
				"x": 0.0766774093,
				"y": 1.1516236606,
				"z": 0.430377624,
				"element": "C" 
			},
			{
				"x": -0.3607835414,
				"y": 2.2126362269,
				"z": 0.8483048131,
				"element": "O" 
			},
			{
				"x": 1.2051921546,
				"y": 0.4422054903,
				"z": 1.0955867061,
				"element": "C" 
			},
			{
				"x": 1.5680244383,
				"y": -0.8738716443,
				"z": 0.780736404,
				"element": "C" 
			},
			{
				"x": 2.610568805,
				"y": -1.4990068824,
				"z": 1.4618999657,
				"element": "C" 
			},
			{
				"x": 3.3200558518,
				"y": -0.8301038445,
				"z": 2.4676551271,
				"element": "C" 
			},
			{
				"x": 4.4720863021,
				"y": -1.4940249538,
				"z": 3.1815821017,
				"element": "C" 
			},
			{
				"x": 2.9448670076,
				"y": 0.4868743101,
				"z": 2.7821292197,
				"element": "C" 
			},
			{
				"x": 1.9034300566,
				"y": 1.1141890426,
				"z": 2.1113608213,
				"element": "C" 
			},
			{
				"x": 1.1244325232,
				"y": 0.750280976,
				"z": -2.4009215201,
				"element": "N" 
			},
			{
				"x": 1.7172366065,
				"y": 1.4941444738,
				"z": -1.6160134383,
				"element": "O" 
			},
			{
				"x": 1.5633129399,
				"y": 0.4038306327,
				"z": -3.4980404348,
				"element": "O" 
			},
			{
				"x": -3.9811178348,
				"y": -1.4219862312,
				"z": 0.921586115,
				"element": "H" 
			},
			{
				"x": -4.6707557771,
				"y": 0.1535644927,
				"z": 0.4254654024,
				"element": "H" 
			},
			{
				"x": -5.5698304185,
				"y": -1.3567738219,
				"z": 0.112056175,
				"element": "H" 
			},
			{
				"x": -3.8829845086,
				"y": 0.1416833984,
				"z": -4.5730302014,
				"element": "H" 
			},
			{
				"x": -4.8861919249,
				"y": -0.6888804137,
				"z": -3.3433699567,
				"element": "H" 
			},
			{
				"x": -4.5394476252,
				"y": -1.4845848018,
				"z": -4.9034378454,
				"element": "H" 
			},
			{
				"x": -0.579549185,
				"y": -0.5129469715,
				"z": -3.975421109,
				"element": "H" 
			},
			{
				"x": -2.3498386514,
				"y": 0.2086417769,
				"z": 0.5875920018,
				"element": "H" 
			},
			{
				"x": 1.0317410972,
				"y": -1.4185165051,
				"z": 0.0097406791,
				"element": "H" 
			},
			{
				"x": 2.8780573022,
				"y": -2.5217692316,
				"z": 1.209394978,
				"element": "H" 
			},
			{
				"x": 4.4754700934,
				"y": -1.2501651568,
				"z": 4.2487322199,
				"element": "H" 
			},
			{
				"x": 5.4324169172,
				"y": -1.1580396185,
				"z": 2.7709614928,
				"element": "H" 
			},
			{
				"x": 4.4347757373,
				"y": -2.5821864139,
				"z": 3.079903535,
				"element": "H" 
			},
			{
				"x": 3.4797280927,
				"y": 1.0210937036,
				"z": 3.5636028231,
				"element": "H" 
			},
			{
				"x": 1.6089266284,
				"y": 2.1295875564,
				"z": 2.3544267235,
				"element": "H" 
			}
		],
		 "valence_orbital": [ 
			{
				"type": "occ",
				"energy": -0.2718,
				"method": "rhf"
			},
			{
				"type": "occ",
				"energy": -0.25675,
				"method": "rhf"
			},
			{
				"type": "occ",
				"energy": -0.25259,
				"method": "rhf"
			},
			{
				"type": "occ",
				"energy": -0.24592,
				"method": "rhf"
			},
			{
				"type": "occ",
				"energy": -0.24207,
				"method": "rhf"
			},
			{
				"type": "unocc",
				"energy": -0.08358,
				"method": "rhf"
			},
			{
				"type": "unocc",
				"energy": -0.05446,
				"method": "rhf"
			},
			{
				"type": "unocc",
				"energy": -0.02469,
				"method": "rhf"
			},
			{
				"type": "unocc",
				"energy": -0.00685,
				"method": "rhf"
			},
			{
				"type": "unocc",
				"energy": 0.01011,
				"method": "rhf"
			}
		],
		"cosmo_sigma_profile": { 
			"-0.025": 0.0,
			"-0.024": 0.0,
			"-0.023": 0.0,
			"-0.022": 0.0,
			"-0.021": 0.0,
			"-0.02": 0.0,
			"-0.019": 0.0,
			"-0.018": 0.0,
			"-0.017": 0.0,
			"-0.016": 0.0,
			"-0.015": 0.0,
			"-0.014": 0.0,
			"-0.013": 0.0,
			"-0.012": 0.0,
			"-0.011": 0.0,
			"-0.01": 0.0,
			"-0.009": 0.457552807411,
			"-0.008": 2.71443059403,
			"-0.007": 8.28847302835,
			"-0.006": 19.8538105259,
			"-0.005": 29.0234688528,
			"-0.004": 33.0772626441,
			"-0.003": 32.1529436416,
			"-0.002": 29.742758992,
			"-0.001": 28.4440190281,
			"0.0": 25.1017699184,
			"0.001": 17.4284558049,
			"0.002": 13.792116282,
			"0.003": 13.9240753803,
			"0.004": 17.4722569184,
			"0.005": 8.89930677056,
			"0.006": 9.81277389376,
			"0.007": 10.6295930042,
			"0.008": 11.4874025016,
			"0.009": 8.60203486752,
			"0.01": 6.99602142663,
			"0.011": 5.10766470624,
			"0.012": 2.49033293038,
			"0.013": 0.332477247787,
			"0.014": 0.0,
			"0.015": 0.0,
			"0.016": 0.0,
			"0.017": 0.0,
			"0.018": 0.0,
			"0.019": 0.0,
			"0.02": 0.0,
			"0.021": 0.0,
			"0.022": 0.0,
			"0.023": 0.0,
			"0.024": 0.0,
			"0.025": 0.0
		}
	}
}
