{
	 "smiles": "CC(=O)NC1=CC=C(C=N1)[N+]([O-])=O", 
	 "Tm": 473.15, 
	 "num_atms": 20, 
	 "gaussian": { 
		 "optdone": 1, 
		 "sigma_profile": "yes", 
		 "theory": "DFT", 
		 "functional": "B3LYP", 
		 "basiset": "6-31G**", 
		 "properties": { 
			 "R2extent": 3568.7947, 
			 "electric_dipole_moment_norm": 7.17679536492, 
			 "electric_quadrupole_moment_norm": 12.7071793829, 
			 "total_energy": -660.797310257, 
			 "HOMO_LUMO_gap": 0.16271, 
			 "cosmo_polarized_energy": -22.62, 
			 "cosmo_cavitation_energy": 26.07, 
			 "cosmo_dispersion_energy": -19.11, 
			 "cosmo_repulsion_energy": 1.52, 
			 "cosmo_total_nonelectrostatic_energy": 8.48, 
			 "SMD_solvation_energy": 6.76 
		},
		"coords": [
			{
				"x": -2.659899913,
				"y": -1.2703042941,
				"z": -3.8604135295,
				"element": "C" 
			},
			{
				"x": -1.9859056467,
				"y": -1.6896263187,
				"z": -2.5599044456,
				"element": "C" 
			},
			{
				"x": -1.7696153729,
				"y": -2.8416994358,
				"z": -2.2627991747,
				"element": "O" 
			},
			{
				"x": -1.6508796042,
				"y": -0.5833356937,
				"z": -1.7575303701,
				"element": "N" 
			},
			{
				"x": -1.0335108705,
				"y": -0.5336085972,
				"z": -0.5111191925,
				"element": "C" 
			},
			{
				"x": -0.8157042439,
				"y": 0.7410218455,
				"z": 0.0648963542,
				"element": "C" 
			},
			{
				"x": -0.2050498887,
				"y": 0.8144618806,
				"z": 1.3013277298,
				"element": "C" 
			},
			{
				"x": 0.1661081889,
				"y": -0.3827713112,
				"z": 1.9183042283,
				"element": "C" 
			},
			{
				"x": -0.0859216883,
				"y": -1.5961893313,
				"z": 1.2801672332,
				"element": "C" 
			},
			{
				"x": -0.6747576364,
				"y": -1.6745896807,
				"z": 0.0874304191,
				"element": "N" 
			},
			{
				"x": 0.8143434727,
				"y": -0.3592490497,
				"z": 3.224558427,
				"element": "N" 
			},
			{
				"x": 1.0117639291,
				"y": 0.7424444992,
				"z": 3.7409560215,
				"element": "O" 
			},
			{
				"x": 1.1233021369,
				"y": -1.4389863501,
				"z": 3.7289399566,
				"element": "O" 
			},
			{
				"x": -2.8877992735,
				"y": -2.1686747441,
				"z": -4.4325662109,
				"element": "H" 
			},
			{
				"x": -2.0053288962,
				"y": -0.6223570854,
				"z": -4.454117454,
				"element": "H" 
			},
			{
				"x": -3.5891130879,
				"y": -0.7233300675,
				"z": -3.6650275705,
				"element": "H" 
			},
			{
				"x": -1.8938149597,
				"y": 0.3184356639,
				"z": -2.1427184013,
				"element": "H" 
			},
			{
				"x": -1.1220835181,
				"y": 1.6446285334,
				"z": -0.4539021522,
				"element": "H" 
			},
			{
				"x": -0.0101390835,
				"y": 1.7584321533,
				"z": 1.7954651261,
				"element": "H" 
			},
			{
				"x": 0.2008059561,
				"y": -2.5287026163,
				"z": 1.7561530053,
				"element": "H" 
			}
		],
		 "valence_orbital": [ 
			{
				"type": "occ",
				"energy": -0.30824,
				"method": "rhf"
			},
			{
				"type": "occ",
				"energy": -0.29442,
				"method": "rhf"
			},
			{
				"type": "occ",
				"energy": -0.29202,
				"method": "rhf"
			},
			{
				"type": "occ",
				"energy": -0.25857,
				"method": "rhf"
			},
			{
				"type": "occ",
				"energy": -0.25522,
				"method": "rhf"
			},
			{
				"type": "unocc",
				"energy": -0.09251,
				"method": "rhf"
			},
			{
				"type": "unocc",
				"energy": -0.04844,
				"method": "rhf"
			},
			{
				"type": "unocc",
				"energy": -0.01958,
				"method": "rhf"
			},
			{
				"type": "unocc",
				"energy": 0.02671,
				"method": "rhf"
			},
			{
				"type": "unocc",
				"energy": 0.04515,
				"method": "rhf"
			}
		],
		"cosmo_sigma_profile": { 
			"-0.025": 0.0,
			"-0.024": 0.0,
			"-0.023": 0.0,
			"-0.022": 0.0,
			"-0.021": 0.0,
			"-0.02": 0.0,
			"-0.019": 0.0,
			"-0.018": 0.0,
			"-0.017": 0.376216084457,
			"-0.016": 1.12022834832,
			"-0.015": 1.82054506424,
			"-0.014": 1.5323866083,
			"-0.013": 1.34052318652,
			"-0.012": 1.52304217899,
			"-0.011": 2.20336850056,
			"-0.01": 1.47909841652,
			"-0.009": 3.53545508321,
			"-0.008": 6.32347989013,
			"-0.007": 8.10308082024,
			"-0.006": 11.2846510073,
			"-0.005": 10.6471965567,
			"-0.004": 11.7620038324,
			"-0.003": 16.459119706,
			"-0.002": 22.1346401733,
			"-0.001": 19.8454672778,
			"0.0": 10.9156515552,
			"0.001": 5.74274150436,
			"0.002": 4.88222116895,
			"0.003": 4.85308442549,
			"0.004": 4.30498524793,
			"0.005": 4.66244953057,
			"0.006": 5.98978921497,
			"0.007": 8.98327149653,
			"0.008": 9.76063354694,
			"0.009": 6.31750026432,
			"0.01": 4.79866285015,
			"0.011": 2.5556974461,
			"0.012": 4.60367079882,
			"0.013": 3.65466949876,
			"0.014": 1.5314709918,
			"0.015": 0.956331501093,
			"0.016": 0.811581243949,
			"0.017": 1.39482799665,
			"0.018": 0.624716504335,
			"0.019": 0.0865280641859,
			"0.02": 0.0,
			"0.021": 0.0,
			"0.022": 0.0,
			"0.023": 0.0,
			"0.024": 0.0,
			"0.025": 0.0
		}
	}
}
