{
	 "smiles": "OC(=O)CCC(NC(=O)OCC1=CC=CC=C1)C(O)=O", 
	 "Tm": 393.15, 
	 "num_atms": 35, 
	 "gaussian": { 
		 "optdone": 1, 
		 "sigma_profile": "yes", 
		 "theory": "DFT", 
		 "functional": "B3LYP", 
		 "basiset": "6-31G**", 
		 "properties": { 
			 "R2extent": 6708.1618, 
			 "electric_dipole_moment_norm": 4.00445153423, 
			 "electric_quadrupole_moment_norm": 31.6611364122, 
			 "total_energy": -1010.56129033, 
			 "HOMO_LUMO_gap": 0.2363, 
			 "cosmo_polarized_energy": -28.7, 
			 "cosmo_cavitation_energy": 40.48, 
			 "cosmo_dispersion_energy": -26.53, 
			 "cosmo_repulsion_energy": 2.06, 
			 "cosmo_total_nonelectrostatic_energy": 16.01, 
			 "SMD_solvation_energy": 9.93 
		},
		"coords": [
			{
				"x": 0.5480590767,
				"y": -3.665840177,
				"z": -0.6934880398,
				"element": "O" 
			},
			{
				"x": 0.9182867621,
				"y": -2.4330235307,
				"z": -1.1231623581,
				"element": "C" 
			},
			{
				"x": 0.1442926662,
				"y": -1.7688569897,
				"z": -1.7712378085,
				"element": "O" 
			},
			{
				"x": 2.3210926676,
				"y": -1.9964262009,
				"z": -0.7143597009,
				"element": "C" 
			},
			{
				"x": 2.7511870634,
				"y": -0.6366758164,
				"z": -1.2747178004,
				"element": "C" 
			},
			{
				"x": 1.8831954637,
				"y": 0.5344641969,
				"z": -0.8053410249,
				"element": "C" 
			},
			{
				"x": 1.8560096095,
				"y": 0.6265868721,
				"z": 0.6578020895,
				"element": "N" 
			},
			{
				"x": 0.8166144186,
				"y": 1.0889811688,
				"z": 1.4180147624,
				"element": "C" 
			},
			{
				"x": 0.8013028458,
				"y": 1.1339440901,
				"z": 2.6309038025,
				"element": "O" 
			},
			{
				"x": -0.2170691558,
				"y": 1.4981470459,
				"z": 0.617570545,
				"element": "O" 
			},
			{
				"x": -1.462252786,
				"y": 1.8054789948,
				"z": 1.3014317537,
				"element": "C" 
			},
			{
				"x": -2.5541177209,
				"y": 1.9022234049,
				"z": 0.26900039,
				"element": "C" 
			},
			{
				"x": -2.7480672246,
				"y": 0.8741792418,
				"z": -0.6656322476,
				"element": "C" 
			},
			{
				"x": -3.7803854191,
				"y": 0.9598815809,
				"z": -1.5981700208,
				"element": "C" 
			},
			{
				"x": -4.6362125201,
				"y": 2.0649963113,
				"z": -1.6017665507,
				"element": "C" 
			},
			{
				"x": -4.4497345271,
				"y": 3.0893032383,
				"z": -0.6736537572,
				"element": "C" 
			},
			{
				"x": -3.4081655709,
				"y": 3.0097973384,
				"z": 0.2532505349,
				"element": "C" 
			},
			{
				"x": 2.3552595969,
				"y": 1.8663652311,
				"z": -1.4255541247,
				"element": "C" 
			},
			{
				"x": 1.5259374818,
				"y": 2.9080523086,
				"z": -1.2139691134,
				"element": "O" 
			},
			{
				"x": 3.3860288357,
				"y": 1.9938897805,
				"z": -2.0416607491,
				"element": "O" 
			},
			{
				"x": 1.2654812435,
				"y": -4.0807222152,
				"z": -0.1932383691,
				"element": "H" 
			},
			{
				"x": 3.02922392,
				"y": -2.7682922834,
				"z": -1.0436658797,
				"element": "H" 
			},
			{
				"x": 2.3582450887,
				"y": -1.9935034872,
				"z": 0.3832309806,
				"element": "H" 
			},
			{
				"x": 3.7967861116,
				"y": -0.4464528448,
				"z": -1.0097054348,
				"element": "H" 
			},
			{
				"x": 2.7151674897,
				"y": -0.6564237388,
				"z": -2.3669154632,
				"element": "H" 
			},
			{
				"x": 0.8584734113,
				"y": 0.3522716179,
				"z": -1.1325492255,
				"element": "H" 
			},
			{
				"x": 2.7228530509,
				"y": 0.5270286033,
				"z": 1.1680429481,
				"element": "H" 
			},
			{
				"x": -1.645794036,
				"y": 1.0091355325,
				"z": 2.0289212699,
				"element": "H" 
			},
			{
				"x": -1.3428066448,
				"y": 2.7406619049,
				"z": 1.8554566519,
				"element": "H" 
			},
			{
				"x": -2.0827596257,
				"y": 0.015144589,
				"z": -0.6749473084,
				"element": "H" 
			},
			{
				"x": -3.9174984811,
				"y": 0.1620072167,
				"z": -2.322074334,
				"element": "H" 
			},
			{
				"x": -5.4413917898,
				"y": 2.1276454288,
				"z": -2.3280777158,
				"element": "H" 
			},
			{
				"x": -5.106607997,
				"y": 3.9542572774,
				"z": -0.6748190231,
				"element": "H" 
			},
			{
				"x": -3.2582725656,
				"y": 3.8146538089,
				"z": 0.968681864,
				"element": "H" 
			},
			{
				"x": 0.7367392609,
				"y": 2.6161205006,
				"z": -0.7203015428,
				"element": "H" 
			}
		],
		 "valence_orbital": [ 
			{
				"type": "occ",
				"energy": -0.29187,
				"method": "rhf"
			},
			{
				"type": "occ",
				"energy": -0.28872,
				"method": "rhf"
			},
			{
				"type": "occ",
				"energy": -0.25679,
				"method": "rhf"
			},
			{
				"type": "occ",
				"energy": -0.25553,
				"method": "rhf"
			},
			{
				"type": "occ",
				"energy": -0.25218,
				"method": "rhf"
			},
			{
				"type": "unocc",
				"energy": -0.01588,
				"method": "rhf"
			},
			{
				"type": "unocc",
				"energy": -0.0093,
				"method": "rhf"
			},
			{
				"type": "unocc",
				"energy": -0.00706,
				"method": "rhf"
			},
			{
				"type": "unocc",
				"energy": 0.00254,
				"method": "rhf"
			},
			{
				"type": "unocc",
				"energy": 0.03464,
				"method": "rhf"
			}
		],
		"cosmo_sigma_profile": { 
			"-0.025": 0.0,
			"-0.024": 0.0,
			"-0.023": 0.0,
			"-0.022": 0.0,
			"-0.021": 0.0,
			"-0.02": 0.0118213241191,
			"-0.019": 0.881497771662,
			"-0.018": 1.18820828446,
			"-0.017": 0.946152644291,
			"-0.016": 1.2400157562,
			"-0.015": 1.57973762596,
			"-0.014": 2.68224189478,
			"-0.013": 2.91585517417,
			"-0.012": 1.66819933869,
			"-0.011": 2.67171114289,
			"-0.01": 3.30455821708,
			"-0.009": 4.11481378135,
			"-0.008": 6.69393893962,
			"-0.007": 10.7215796742,
			"-0.006": 19.4184552236,
			"-0.005": 25.2985175474,
			"-0.004": 25.7598216744,
			"-0.003": 22.0898884815,
			"-0.002": 17.5922994887,
			"-0.001": 13.3441094459,
			"0.0": 14.420583214,
			"0.001": 15.3991734365,
			"0.002": 15.2166551101,
			"0.003": 13.8022638404,
			"0.004": 14.0811826469,
			"0.005": 15.251485618,
			"0.006": 8.61622563219,
			"0.007": 6.01817056845,
			"0.008": 6.16641036449,
			"0.009": 8.01222809381,
			"0.01": 11.1987154296,
			"0.011": 11.7726071206,
			"0.012": 11.0245226906,
			"0.013": 5.31241160548,
			"0.014": 0.0256576917897,
			"0.015": 0.0,
			"0.016": 0.0,
			"0.017": 0.0,
			"0.018": 0.0,
			"0.019": 0.0,
			"0.02": 0.0,
			"0.021": 0.0,
			"0.022": 0.0,
			"0.023": 0.0,
			"0.024": 0.0,
			"0.025": 0.0
		}
	}
}
