{
	 "smiles": "CCSC1=NN=C(C(=O)N1N)C(C)(C)C", 
	 "Tm": 368.15, 
	 "num_atms": 31, 
	 "gaussian": { 
		 "optdone": 1, 
		 "sigma_profile": "yes", 
		 "theory": "DFT", 
		 "functional": "B3LYP", 
		 "basiset": "6-31G**", 
		 "properties": { 
			 "R2extent": 4328.6822, 
			 "electric_dipole_moment_norm": 3.2189691471, 
			 "electric_quadrupole_moment_norm": 13.9985661952, 
			 "total_energy": -1044.96774888, 
			 "HOMO_LUMO_gap": 0.17586, 
			 "cosmo_polarized_energy": -14.43, 
			 "cosmo_cavitation_energy": 34.09, 
			 "cosmo_dispersion_energy": -24.61, 
			 "cosmo_repulsion_energy": 1.9, 
			 "cosmo_total_nonelectrostatic_energy": 11.39, 
			 "SMD_solvation_energy": 4.95 
		},
		"coords": [
			{
				"x": 2.5595405224,
				"y": 2.2049373066,
				"z": -2.5216058268,
				"element": "C" 
			},
			{
				"x": 1.1384694066,
				"y": 2.7423018377,
				"z": -2.6581997757,
				"element": "C" 
			},
			{
				"x": 0.4370651129,
				"y": 3.3982482717,
				"z": -1.0739859778,
				"element": "S" 
			},
			{
				"x": 0.2271283837,
				"y": 1.9033092454,
				"z": -0.1230701664,
				"element": "C" 
			},
			{
				"x": 0.9003328377,
				"y": 1.7924955212,
				"z": 0.9930801753,
				"element": "N" 
			},
			{
				"x": 0.6879911931,
				"y": 0.7081592574,
				"z": 1.7969526588,
				"element": "N" 
			},
			{
				"x": -0.1559397733,
				"y": -0.2396415884,
				"z": 1.4779845004,
				"element": "C" 
			},
			{
				"x": -0.9515380258,
				"y": -0.1876472395,
				"z": 0.2466765488,
				"element": "C" 
			},
			{
				"x": -1.7792615894,
				"y": -1.0032448051,
				"z": -0.1625249672,
				"element": "O" 
			},
			{
				"x": -0.6999586623,
				"y": 0.9695541067,
				"z": -0.5116586868,
				"element": "N" 
			},
			{
				"x": -1.4023372005,
				"y": 1.0780987248,
				"z": -1.7304382824,
				"element": "N" 
			},
			{
				"x": -0.3219816315,
				"y": -1.4217676315,
				"z": 2.4345516717,
				"element": "C" 
			},
			{
				"x": 0.0395170143,
				"y": -2.7328103427,
				"z": 1.6933830155,
				"element": "C" 
			},
			{
				"x": 0.6039607541,
				"y": -1.2597580045,
				"z": 3.6525917654,
				"element": "C" 
			},
			{
				"x": -1.7911965032,
				"y": -1.4856697239,
				"z": 2.9206126519,
				"element": "C" 
			},
			{
				"x": 2.6002707624,
				"y": 1.3529867219,
				"z": -1.8369538161,
				"element": "H" 
			},
			{
				"x": 3.2425328098,
				"y": 2.9712668833,
				"z": -2.1458143758,
				"element": "H" 
			},
			{
				"x": 2.9209046643,
				"y": 1.8675900642,
				"z": -3.499877622,
				"element": "H" 
			},
			{
				"x": 1.1044271396,
				"y": 3.6152675571,
				"z": -3.317693437,
				"element": "H" 
			},
			{
				"x": 0.4463395846,
				"y": 1.9940489113,
				"z": -3.0490190738,
				"element": "H" 
			},
			{
				"x": -1.9688777874,
				"y": 1.9247396714,
				"z": -1.6854605063,
				"element": "H" 
			},
			{
				"x": -2.0132713478,
				"y": 0.2568997642,
				"z": -1.7260867123,
				"element": "H" 
			},
			{
				"x": 1.080923152,
				"y": -2.7150904739,
				"z": 1.3540150644,
				"element": "H" 
			},
			{
				"x": -0.6083386195,
				"y": -2.8979406185,
				"z": 0.8305985402,
				"element": "H" 
			},
			{
				"x": -0.073918782,
				"y": -3.5805220997,
				"z": 2.3775911928,
				"element": "H" 
			},
			{
				"x": 0.3815297621,
				"y": -0.3458804782,
				"z": 4.2089985337,
				"element": "H" 
			},
			{
				"x": 0.4679990209,
				"y": -2.1167982913,
				"z": 4.320632414,
				"element": "H" 
			},
			{
				"x": 1.6548103287,
				"y": -1.2129351631,
				"z": 3.3561014057,
				"element": "H" 
			},
			{
				"x": -1.9098514063,
				"y": -2.3289670408,
				"z": 3.6093241529,
				"element": "H" 
			},
			{
				"x": -2.0636421833,
				"y": -0.5725905703,
				"z": 3.461059124,
				"element": "H" 
			},
			{
				"x": -2.4838289371,
				"y": -1.6216397735,
				"z": 2.0880358109,
				"element": "H" 
			}
		],
		 "valence_orbital": [ 
			{
				"type": "occ",
				"energy": -0.29362,
				"method": "rhf"
			},
			{
				"type": "occ",
				"energy": -0.28462,
				"method": "rhf"
			},
			{
				"type": "occ",
				"energy": -0.25523,
				"method": "rhf"
			},
			{
				"type": "occ",
				"energy": -0.24633,
				"method": "rhf"
			},
			{
				"type": "occ",
				"energy": -0.24376,
				"method": "rhf"
			},
			{
				"type": "unocc",
				"energy": -0.0679,
				"method": "rhf"
			},
			{
				"type": "unocc",
				"energy": -0.03171,
				"method": "rhf"
			},
			{
				"type": "unocc",
				"energy": 0.02777,
				"method": "rhf"
			},
			{
				"type": "unocc",
				"energy": 0.0576,
				"method": "rhf"
			},
			{
				"type": "unocc",
				"energy": 0.06852,
				"method": "rhf"
			}
		],
		"cosmo_sigma_profile": { 
			"-0.025": 0.0,
			"-0.024": 0.0,
			"-0.023": 0.0,
			"-0.022": 0.0,
			"-0.021": 0.0,
			"-0.02": 0.0,
			"-0.019": 0.0,
			"-0.018": 0.0,
			"-0.017": 0.0,
			"-0.016": 0.0,
			"-0.015": 0.0,
			"-0.014": 0.670280529278,
			"-0.013": 1.79292868883,
			"-0.012": 2.85361326574,
			"-0.011": 2.16531201919,
			"-0.01": 1.6834602173,
			"-0.009": 1.81706737908,
			"-0.008": 1.88170735409,
			"-0.007": 5.34903102343,
			"-0.006": 6.97928021388,
			"-0.005": 8.41425927214,
			"-0.004": 12.9831280005,
			"-0.003": 31.0855678961,
			"-0.002": 31.9193784314,
			"-0.001": 27.6206960893,
			"0.0": 29.0253522735,
			"0.001": 29.7319651257,
			"0.002": 13.6528290663,
			"0.003": 8.33913403775,
			"0.004": 7.15569958478,
			"0.005": 7.04570453713,
			"0.006": 6.00366902898,
			"0.007": 4.41307520877,
			"0.008": 4.64363689258,
			"0.009": 4.63500978491,
			"0.01": 3.57707096948,
			"0.011": 5.00874603984,
			"0.012": 2.77334494847,
			"0.013": 2.80085961766,
			"0.014": 1.63555479336,
			"0.015": 1.1441387026,
			"0.016": 0.360980316869,
			"0.017": 0.0,
			"0.018": 0.0,
			"0.019": 0.0,
			"0.02": 0.0,
			"0.021": 0.0,
			"0.022": 0.0,
			"0.023": 0.0,
			"0.024": 0.0,
			"0.025": 0.0
		}
	}
}
