{
	 "smiles": "[O-][N+](=O)C1=CC=C(OCC2=CC=CC=C2)C=C1", 
	 "Tm": 366.15, 
	 "num_atms": 28, 
	 "gaussian": { 
		 "optdone": 1, 
		 "sigma_profile": "yes", 
		 "theory": "DFT", 
		 "functional": "B3LYP", 
		 "basiset": "6-31G**", 
		 "properties": { 
			 "R2extent": 5393.0233, 
			 "electric_dipole_moment_norm": 6.17123936418, 
			 "electric_quadrupole_moment_norm": 27.6454797607, 
			 "total_energy": -782.329589044, 
			 "HOMO_LUMO_gap": 0.16925, 
			 "cosmo_polarized_energy": -11.44, 
			 "cosmo_cavitation_energy": 33.11, 
			 "cosmo_dispersion_energy": -23.66, 
			 "cosmo_repulsion_energy": 1.83, 
			 "cosmo_total_nonelectrostatic_energy": 11.29, 
			 "SMD_solvation_energy": 8.06 
		},
		"coords": [
			{
				"x": 0.8188831609,
				"y": 4.8240318904,
				"z": -0.4633774586,
				"element": "O" 
			},
			{
				"x": 0.2271510317,
				"y": 4.4696609442,
				"z": 0.5583575747,
				"element": "N" 
			},
			{
				"x": 0.0271252664,
				"y": 5.1945876236,
				"z": 1.5351045007,
				"element": "O" 
			},
			{
				"x": -0.2722010694,
				"y": 3.09699604,
				"z": 0.6164699282,
				"element": "C" 
			},
			{
				"x": -0.0591146508,
				"y": 2.2476296925,
				"z": -0.4664731501,
				"element": "C" 
			},
			{
				"x": -0.5312164283,
				"y": 0.9392298514,
				"z": -0.4184147612,
				"element": "C" 
			},
			{
				"x": -1.2207933226,
				"y": 0.492235524,
				"z": 0.7202304338,
				"element": "C" 
			},
			{
				"x": -1.7397063126,
				"y": -0.7538399551,
				"z": 0.873670429,
				"element": "O" 
			},
			{
				"x": -1.6957173264,
				"y": -1.6827549353,
				"z": -0.2159041146,
				"element": "C" 
			},
			{
				"x": -0.3399313147,
				"y": -2.3264516532,
				"z": -0.4259304574,
				"element": "C" 
			},
			{
				"x": 0.0680592135,
				"y": -2.6937544401,
				"z": -1.7134035764,
				"element": "C" 
			},
			{
				"x": 1.2886120729,
				"y": -3.3415348503,
				"z": -1.9124945249,
				"element": "C" 
			},
			{
				"x": 2.117087933,
				"y": -3.619455754,
				"z": -0.8243703819,
				"element": "C" 
			},
			{
				"x": 1.7175743226,
				"y": -3.2503481921,
				"z": 0.4622404219,
				"element": "C" 
			},
			{
				"x": 0.4939072331,
				"y": -2.611497367,
				"z": 0.6619395758,
				"element": "C" 
			},
			{
				"x": -1.4222636283,
				"y": 1.3619981369,
				"z": 1.8078538323,
				"element": "C" 
			},
			{
				"x": -0.9502164634,
				"y": 2.6628196176,
				"z": 1.7594725226,
				"element": "C" 
			},
			{
				"x": 0.4783977719,
				"y": 2.6174595159,
				"z": -1.3307067006,
				"element": "H" 
			},
			{
				"x": -0.3389615323,
				"y": 0.2747156814,
				"z": -1.2506204628,
				"element": "H" 
			},
			{
				"x": -2.0471171676,
				"y": -1.2020179187,
				"z": -1.1375550786,
				"element": "H" 
			},
			{
				"x": -2.4366314427,
				"y": -2.4390579089,
				"z": 0.0629568918,
				"element": "H" 
			},
			{
				"x": -0.5709794983,
				"y": -2.4730101079,
				"z": -2.5657754187,
				"element": "H" 
			},
			{
				"x": 1.5944769515,
				"y": -3.6200883846,
				"z": -2.9167791863,
				"element": "H" 
			},
			{
				"x": 3.0700885523,
				"y": -4.1171331309,
				"z": -0.9778349599,
				"element": "H" 
			},
			{
				"x": 2.3598351002,
				"y": -3.4613140531,
				"z": 1.3124433275,
				"element": "H" 
			},
			{
				"x": 0.1835776316,
				"y": -2.3223850426,
				"z": 1.6613627685,
				"element": "H" 
			},
			{
				"x": -1.9581352231,
				"y": 0.9906688942,
				"z": 2.6745236839,
				"element": "H" 
			},
			{
				"x": -1.0970908612,
				"y": 3.3502102817,
				"z": 2.5830143412,
				"element": "H" 
			}
		],
		 "valence_orbital": [ 
			{
				"type": "occ",
				"energy": -0.28022,
				"method": "rhf"
			},
			{
				"type": "occ",
				"energy": -0.27611,
				"method": "rhf"
			},
			{
				"type": "occ",
				"energy": -0.26392,
				"method": "rhf"
			},
			{
				"type": "occ",
				"energy": -0.25871,
				"method": "rhf"
			},
			{
				"type": "occ",
				"energy": -0.24666,
				"method": "rhf"
			},
			{
				"type": "unocc",
				"energy": -0.07741,
				"method": "rhf"
			},
			{
				"type": "unocc",
				"energy": -0.02604,
				"method": "rhf"
			},
			{
				"type": "unocc",
				"energy": -0.01781,
				"method": "rhf"
			},
			{
				"type": "unocc",
				"energy": -0.01513,
				"method": "rhf"
			},
			{
				"type": "unocc",
				"energy": 0.01604,
				"method": "rhf"
			}
		],
		"cosmo_sigma_profile": { 
			"-0.025": 0.0,
			"-0.024": 0.0,
			"-0.023": 0.0,
			"-0.022": 0.0,
			"-0.021": 0.0,
			"-0.02": 0.0,
			"-0.019": 0.0,
			"-0.018": 0.0,
			"-0.017": 0.0,
			"-0.016": 0.0,
			"-0.015": 0.0,
			"-0.014": 0.0,
			"-0.013": 0.0,
			"-0.012": 0.0,
			"-0.011": 0.0,
			"-0.01": 0.0,
			"-0.009": 0.0,
			"-0.008": 1.628668236,
			"-0.007": 11.277463019,
			"-0.006": 17.7835999879,
			"-0.005": 21.4017883594,
			"-0.004": 20.4004225153,
			"-0.003": 19.1542538571,
			"-0.002": 17.2700138508,
			"-0.001": 18.0757299207,
			"0.0": 19.9164295181,
			"0.001": 23.74323345,
			"0.002": 21.6944139712,
			"0.003": 14.0317730897,
			"0.004": 10.6315892291,
			"0.005": 12.9263266707,
			"0.006": 7.78088370961,
			"0.007": 5.99286291759,
			"0.008": 10.9610347095,
			"0.009": 5.57714482203,
			"0.01": 3.95598446134,
			"0.011": 1.27626624394,
			"0.012": 0.0,
			"0.013": 0.0,
			"0.014": 0.0,
			"0.015": 0.0,
			"0.016": 0.0,
			"0.017": 0.0,
			"0.018": 0.0,
			"0.019": 0.0,
			"0.02": 0.0,
			"0.021": 0.0,
			"0.022": 0.0,
			"0.023": 0.0,
			"0.024": 0.0,
			"0.025": 0.0
		}
	}
}
