{
	 "smiles": "OC(=O)CSCC1=CC(Br)=CC=C1", 
	 "Tm": 348.15, 
	 "num_atms": 22, 
	 "gaussian": { 
		 "optdone": 1, 
		 "sigma_profile": "yes", 
		 "theory": "DFT", 
		 "functional": "B3LYP", 
		 "basiset": "6-31G**", 
		 "properties": { 
			 "R2extent": 8197.9928, 
			 "electric_dipole_moment_norm": 2.17957126518, 
			 "electric_quadrupole_moment_norm": 10.2279704194, 
			 "total_energy": -3468.43595035, 
			 "HOMO_LUMO_gap": 0.20619, 
			 "cosmo_polarized_energy": -12.19, 
			 "cosmo_cavitation_energy": 30.86, 
			 "cosmo_dispersion_energy": -22.68, 
			 "cosmo_repulsion_energy": 1.78, 
			 "cosmo_total_nonelectrostatic_energy": 9.97, 
			 "SMD_solvation_energy": 4.74 
		},
		"coords": [
			{
				"x": 0.4759941196,
				"y": -1.8096316168,
				"z": -3.2029543351,
				"element": "O" 
			},
			{
				"x": -0.5523833415,
				"y": -1.0426990859,
				"z": -2.7809909136,
				"element": "C" 
			},
			{
				"x": -0.7296302599,
				"y": 0.0947927052,
				"z": -3.1661925424,
				"element": "O" 
			},
			{
				"x": -1.4145012002,
				"y": -1.7550642532,
				"z": -1.7642870669,
				"element": "C" 
			},
			{
				"x": -1.0047465482,
				"y": -1.2070900827,
				"z": -0.0555292282,
				"element": "S" 
			},
			{
				"x": -1.7327726118,
				"y": 0.4973706461,
				"z": -0.082169083,
				"element": "C" 
			},
			{
				"x": -1.4093164231,
				"y": 1.2005394698,
				"z": 1.210991188,
				"element": "C" 
			},
			{
				"x": -2.2772661194,
				"y": 1.0965290712,
				"z": 2.3059928584,
				"element": "C" 
			},
			{
				"x": -1.9656240578,
				"y": 1.7453350701,
				"z": 3.4983257249,
				"element": "C" 
			},
			{
				"x": -3.166552145,
				"y": 1.6018366096,
				"z": 4.9806007575,
				"element": "Br" 
			},
			{
				"x": -0.8012149799,
				"y": 2.4985315939,
				"z": 3.6335395574,
				"element": "C" 
			},
			{
				"x": 0.0637637032,
				"y": 2.5957411582,
				"z": 2.5420458215,
				"element": "C" 
			},
			{
				"x": -0.2342784993,
				"y": 1.9525416917,
				"z": 1.3416515624,
				"element": "C" 
			},
			{
				"x": 0.9964141046,
				"y": -1.2592333674,
				"z": -3.8127285417,
				"element": "H" 
			},
			{
				"x": -1.2404511784,
				"y": -2.831787416,
				"z": -1.788152999,
				"element": "H" 
			},
			{
				"x": -2.4663234286,
				"y": -1.5469474834,
				"z": -1.974911935,
				"element": "H" 
			},
			{
				"x": -1.3175967109,
				"y": 1.0277148559,
				"z": -0.9414957172,
				"element": "H" 
			},
			{
				"x": -2.8143549077,
				"y": 0.4039897082,
				"z": -0.2179677625,
				"element": "H" 
			},
			{
				"x": -3.190003615,
				"y": 0.5157238943,
				"z": 2.2268271546,
				"element": "H" 
			},
			{
				"x": -0.577890039,
				"y": 2.9980760636,
				"z": 4.5691428444,
				"element": "H" 
			},
			{
				"x": 0.9740629599,
				"y": 3.1808670189,
				"z": 2.6331551321,
				"element": "H" 
			},
			{
				"x": 0.4448711781,
				"y": 2.0331637488,
				"z": 0.4978075233,
				"element": "H" 
			}
		],
		 "valence_orbital": [ 
			{
				"type": "occ",
				"energy": -0.29029,
				"method": "rhf"
			},
			{
				"type": "occ",
				"energy": -0.28679,
				"method": "rhf"
			},
			{
				"type": "occ",
				"energy": -0.26013,
				"method": "rhf"
			},
			{
				"type": "occ",
				"energy": -0.24509,
				"method": "rhf"
			},
			{
				"type": "occ",
				"energy": -0.23327,
				"method": "rhf"
			},
			{
				"type": "unocc",
				"energy": -0.02708,
				"method": "rhf"
			},
			{
				"type": "unocc",
				"energy": -0.01658,
				"method": "rhf"
			},
			{
				"type": "unocc",
				"energy": -0.01373,
				"method": "rhf"
			},
			{
				"type": "unocc",
				"energy": 0.00682,
				"method": "rhf"
			},
			{
				"type": "unocc",
				"energy": 0.0364,
				"method": "rhf"
			}
		],
		"cosmo_sigma_profile": { 
			"-0.025": 0.0,
			"-0.024": 0.0,
			"-0.023": 0.0,
			"-0.022": 0.0,
			"-0.021": 0.0,
			"-0.02": 0.0,
			"-0.019": 0.129614943387,
			"-0.018": 0.951978885698,
			"-0.017": 1.05263442952,
			"-0.016": 0.799086045102,
			"-0.015": 1.01596458466,
			"-0.014": 0.23566347059,
			"-0.013": 0.435351900917,
			"-0.012": 0.879190214873,
			"-0.011": 1.24848031075,
			"-0.01": 0.216507648106,
			"-0.009": 0.463420993332,
			"-0.008": 3.58914500884,
			"-0.007": 11.8243556132,
			"-0.006": 16.8175442358,
			"-0.005": 16.0508412102,
			"-0.004": 16.1362894332,
			"-0.003": 12.5550154256,
			"-0.002": 12.2477640148,
			"-0.001": 13.686866683,
			"0.0": 12.0485301534,
			"0.001": 17.4839269307,
			"0.002": 21.817981963,
			"0.003": 24.771941796,
			"0.004": 23.5739895751,
			"0.005": 13.004530866,
			"0.006": 4.8997566207,
			"0.007": 4.73458863413,
			"0.008": 4.84708212487,
			"0.009": 5.06052853983,
			"0.01": 2.14319711794,
			"0.011": 4.01556134884,
			"0.012": 2.20874715465,
			"0.013": 0.00415509030206,
			"0.014": 0.0,
			"0.015": 0.0,
			"0.016": 0.0,
			"0.017": 0.0,
			"0.018": 0.0,
			"0.019": 0.0,
			"0.02": 0.0,
			"0.021": 0.0,
			"0.022": 0.0,
			"0.023": 0.0,
			"0.024": 0.0,
			"0.025": 0.0
		}
	}
}
