{
	 "smiles": "OC1(C(=O)C2=CC=CC=C2C1=O)C1(O)C(=O)C2=C(C=CC=C2)C1=O", 
	 "Tm": 525.15, 
	 "num_atms": 34, 
	 "gaussian": { 
		 "optdone": 1, 
		 "sigma_profile": "yes", 
		 "theory": "DFT", 
		 "functional": "B3LYP", 
		 "basiset": "6-31G**", 
		 "properties": { 
			 "R2extent": 6515.7766, 
			 "electric_dipole_moment_norm": 6.08628500894, 
			 "electric_quadrupole_moment_norm": 22.8776725477, 
			 "total_energy": -1143.24758946, 
			 "HOMO_LUMO_gap": 0.15063, 
			 "cosmo_polarized_energy": -23.73, 
			 "cosmo_cavitation_energy": 39.53, 
			 "cosmo_dispersion_energy": -26.36, 
			 "cosmo_repulsion_energy": 1.96, 
			 "cosmo_total_nonelectrostatic_energy": 15.13, 
			 "SMD_solvation_energy": 8.46 
		},
		"coords": [
			{
				"x": 0.9760131147,
				"y": -2.6429714577,
				"z": 2.3477149916,
				"element": "O" 
			},
			{
				"x": 0.7850431542,
				"y": -1.478540397,
				"z": 1.5850802276,
				"element": "C" 
			},
			{
				"x": 0.3504165602,
				"y": -1.8099499782,
				"z": 0.1372085586,
				"element": "C" 
			},
			{
				"x": -0.5912384165,
				"y": -2.5115059194,
				"z": -0.1743299392,
				"element": "O" 
			},
			{
				"x": 1.2617404507,
				"y": -1.07975888,
				"z": -0.781496783,
				"element": "C" 
			},
			{
				"x": 1.2018063975,
				"y": -0.9941909825,
				"z": -2.1736179381,
				"element": "C" 
			},
			{
				"x": 2.1818142535,
				"y": -0.2454697538,
				"z": -2.823730136,
				"element": "C" 
			},
			{
				"x": 3.2010982536,
				"y": 0.3983926417,
				"z": -2.0986515788,
				"element": "C" 
			},
			{
				"x": 3.2654037986,
				"y": 0.3049257399,
				"z": -0.7085731515,
				"element": "C" 
			},
			{
				"x": 2.2793184531,
				"y": -0.4376251562,
				"z": -0.0597145552,
				"element": "C" 
			},
			{
				"x": 2.1422334622,
				"y": -0.7571577699,
				"z": 1.3818679635,
				"element": "C" 
			},
			{
				"x": 2.9780536891,
				"y": -0.6399119012,
				"z": 2.2544767633,
				"element": "O" 
			},
			{
				"x": -0.2651859146,
				"y": -0.5543306887,
				"z": 2.322759798,
				"element": "C" 
			},
			{
				"x": 0.1678951555,
				"y": -0.3432484254,
				"z": 3.6425718666,
				"element": "O" 
			},
			{
				"x": -1.6807831025,
				"y": -1.1863129758,
				"z": 2.3308374524,
				"element": "C" 
			},
			{
				"x": -2.023680171,
				"y": -2.056066267,
				"z": 3.1053004632,
				"element": "O" 
			},
			{
				"x": -2.5307994168,
				"y": -0.4170518742,
				"z": 1.3902618623,
				"element": "C" 
			},
			{
				"x": -1.8511804349,
				"y": 0.7412947084,
				"z": 0.9838494167,
				"element": "C" 
			},
			{
				"x": -2.4592553963,
				"y": 1.6760852765,
				"z": 0.1440330958,
				"element": "C" 
			},
			{
				"x": -3.7613065165,
				"y": 1.4192983005,
				"z": -0.2830354641,
				"element": "C" 
			},
			{
				"x": -4.4411806073,
				"y": 0.2570535174,
				"z": 0.1246201508,
				"element": "C" 
			},
			{
				"x": -3.8361892015,
				"y": -0.6718437034,
				"z": 0.9709813987,
				"element": "C" 
			},
			{
				"x": -0.4883569636,
				"y": 0.7818364963,
				"z": 1.5744518712,
				"element": "C" 
			},
			{
				"x": 0.3274341831,
				"y": 1.6755776511,
				"z": 1.4665225965,
				"element": "O" 
			},
			{
				"x": 1.6576425989,
				"y": -2.4085813408,
				"z": 2.9999672968,
				"element": "H" 
			},
			{
				"x": 0.4135751344,
				"y": -1.5025518312,
				"z": -2.7196993682,
				"element": "H" 
			},
			{
				"x": 2.1646434857,
				"y": -0.1580608187,
				"z": -3.9061212153,
				"element": "H" 
			},
			{
				"x": 3.9507348882,
				"y": 0.9730598886,
				"z": -2.6346628923,
				"element": "H" 
			},
			{
				"x": 4.0502817687,
				"y": 0.7916567313,
				"z": -0.1390829645,
				"element": "H" 
			},
			{
				"x": -0.1709997248,
				"y": -1.1038756282,
				"z": 4.1441935523,
				"element": "H" 
			},
			{
				"x": -1.9245232021,
				"y": 2.5716329657,
				"z": -0.1559678976,
				"element": "H" 
			},
			{
				"x": -4.2638673993,
				"y": 2.1257456219,
				"z": -0.9371515624,
				"element": "H" 
			},
			{
				"x": -5.4553993936,
				"y": 0.0865423077,
				"z": -0.2243687927,
				"element": "H" 
			},
			{
				"x": -4.3527029407,
				"y": -1.5684960977,
				"z": 1.2973049131,
				"element": "H" 
			}
		],
		 "valence_orbital": [ 
			{
				"type": "occ",
				"energy": -0.28169,
				"method": "rhf"
			},
			{
				"type": "occ",
				"energy": -0.28147,
				"method": "rhf"
			},
			{
				"type": "occ",
				"energy": -0.26143,
				"method": "rhf"
			},
			{
				"type": "occ",
				"energy": -0.2542,
				"method": "rhf"
			},
			{
				"type": "occ",
				"energy": -0.24545,
				"method": "rhf"
			},
			{
				"type": "unocc",
				"energy": -0.09482,
				"method": "rhf"
			},
			{
				"type": "unocc",
				"energy": -0.08009,
				"method": "rhf"
			},
			{
				"type": "unocc",
				"energy": -0.07332,
				"method": "rhf"
			},
			{
				"type": "unocc",
				"energy": -0.06855,
				"method": "rhf"
			},
			{
				"type": "unocc",
				"energy": 0.00884,
				"method": "rhf"
			}
		],
		"cosmo_sigma_profile": { 
			"-0.025": 0.0,
			"-0.024": 0.0,
			"-0.023": 0.0,
			"-0.022": 0.0,
			"-0.021": 0.0,
			"-0.02": 0.0,
			"-0.019": 0.0,
			"-0.018": 0.0,
			"-0.017": 0.0,
			"-0.016": 0.0,
			"-0.015": 0.692559738827,
			"-0.014": 1.10691583836,
			"-0.013": 1.15472107459,
			"-0.012": 1.67627645399,
			"-0.011": 1.19348302221,
			"-0.01": 1.58724888434,
			"-0.009": 2.33470144075,
			"-0.008": 12.9279362864,
			"-0.007": 21.8261490217,
			"-0.006": 20.498190995,
			"-0.005": 16.6031997526,
			"-0.004": 16.6218703745,
			"-0.003": 18.564493075,
			"-0.002": 18.5963347986,
			"-0.001": 23.3167560873,
			"0.0": 27.5355090258,
			"0.001": 28.0451391402,
			"0.002": 11.5466586205,
			"0.003": 6.85086695147,
			"0.004": 6.29427985988,
			"0.005": 7.40270920138,
			"0.006": 8.76657491266,
			"0.007": 8.56057402201,
			"0.008": 11.5413515764,
			"0.009": 14.270823053,
			"0.01": 19.9461366045,
			"0.011": 7.50488532175,
			"0.012": 0.797188814187,
			"0.013": 0.0,
			"0.014": 0.0,
			"0.015": 0.0,
			"0.016": 0.0,
			"0.017": 0.0,
			"0.018": 0.0,
			"0.019": 0.0,
			"0.02": 0.0,
			"0.021": 0.0,
			"0.022": 0.0,
			"0.023": 0.0,
			"0.024": 0.0,
			"0.025": 0.0
		}
	}
}
