{
	 "smiles": "COC1=C(NC2=NC(=CS2)C2=CC=C(C)C=C2)C=CC=C1", 
	 "Tm": 417.15, 
	 "num_atms": 37, 
	 "gaussian": { 
		 "optdone": 1, 
		 "sigma_profile": "yes", 
		 "theory": "DFT", 
		 "functional": "B3LYP", 
		 "basiset": "6-31G**", 
		 "properties": { 
			 "R2extent": 10849.3382, 
			 "electric_dipole_moment_norm": 2.36296673485, 
			 "electric_quadrupole_moment_norm": 21.9137921999, 
			 "total_energy": -1240.3652703, 
			 "HOMO_LUMO_gap": 0.15908, 
			 "cosmo_polarized_energy": -10.93, 
			 "cosmo_cavitation_energy": 42.2, 
			 "cosmo_dispersion_energy": -31.56, 
			 "cosmo_repulsion_energy": 2.35, 
			 "cosmo_total_nonelectrostatic_energy": 12.99, 
			 "SMD_solvation_energy": 6.46 
		},
		"coords": [
			{
				"x": -1.2241168965,
				"y": -4.2156938336,
				"z": 2.2090543029,
				"element": "C" 
			},
			{
				"x": -0.5884881469,
				"y": -2.9696980161,
				"z": 1.9686617889,
				"element": "O" 
			},
			{
				"x": -0.0533892002,
				"y": -2.2931788683,
				"z": 3.0349317401,
				"element": "C" 
			},
			{
				"x": 0.5909696754,
				"y": -1.0742662971,
				"z": 2.6941645909,
				"element": "C" 
			},
			{
				"x": 0.589736025,
				"y": -0.7390643154,
				"z": 1.3390968921,
				"element": "N" 
			},
			{
				"x": 0.8563239476,
				"y": 0.4333991322,
				"z": 0.6825873972,
				"element": "C" 
			},
			{
				"x": 0.8624352645,
				"y": 0.4789279807,
				"z": -0.6222458489,
				"element": "N" 
			},
			{
				"x": 1.0847253405,
				"y": 1.7622095797,
				"z": -1.0905212614,
				"element": "C" 
			},
			{
				"x": 1.2585681125,
				"y": 2.710177285,
				"z": -0.1171670152,
				"element": "C" 
			},
			{
				"x": 1.1274973468,
				"y": 1.9970548179,
				"z": 1.4668592653,
				"element": "S" 
			},
			{
				"x": 1.1315132691,
				"y": 1.9878026142,
				"z": -2.5483862783,
				"element": "C" 
			},
			{
				"x": 1.0781298151,
				"y": 0.8968811676,
				"z": -3.4294388789,
				"element": "C" 
			},
			{
				"x": 1.125656389,
				"y": 1.0903865899,
				"z": -4.8083631914,
				"element": "C" 
			},
			{
				"x": 1.2290306803,
				"y": 2.3723833047,
				"z": -5.3615266452,
				"element": "C" 
			},
			{
				"x": 1.3108767018,
				"y": 2.5789909205,
				"z": -6.8552533472,
				"element": "C" 
			},
			{
				"x": 1.2740184549,
				"y": 3.4613922724,
				"z": -4.4783860017,
				"element": "C" 
			},
			{
				"x": 1.2255504817,
				"y": 3.2762643925,
				"z": -3.1006994359,
				"element": "C" 
			},
			{
				"x": 1.1928862166,
				"y": -0.3289345475,
				"z": 3.7116633195,
				"element": "C" 
			},
			{
				"x": 1.1321405817,
				"y": -0.761189085,
				"z": 5.0409047065,
				"element": "C" 
			},
			{
				"x": 0.4867267957,
				"y": -1.9475948208,
				"z": 5.3663843521,
				"element": "C" 
			},
			{
				"x": -0.1026576939,
				"y": -2.7206894645,
				"z": 4.3571860632,
				"element": "C" 
			},
			{
				"x": -2.0909190385,
				"y": -4.1011721749,
				"z": 2.8716805495,
				"element": "H" 
			},
			{
				"x": -1.5599230306,
				"y": -4.5764229279,
				"z": 1.2358930735,
				"element": "H" 
			},
			{
				"x": -0.5287608209,
				"y": -4.9428562386,
				"z": 2.6465953221,
				"element": "H" 
			},
			{
				"x": 0.2623274558,
				"y": -1.4693042131,
				"z": 0.7192166671,
				"element": "H" 
			},
			{
				"x": 1.4837682788,
				"y": 3.761049614,
				"z": -0.2158798775,
				"element": "H" 
			},
			{
				"x": 0.9958707143,
				"y": -0.1015512681,
				"z": -3.0151383076,
				"element": "H" 
			},
			{
				"x": 1.0804924384,
				"y": 0.2270277203,
				"z": -5.4682505189,
				"element": "H" 
			},
			{
				"x": 0.7764826689,
				"y": 3.4828179083,
				"z": -7.165460899,
				"element": "H" 
			},
			{
				"x": 0.8859428683,
				"y": 1.7309292077,
				"z": -7.4003381868,
				"element": "H" 
			},
			{
				"x": 2.3516529332,
				"y": 2.6906242879,
				"z": -7.1855151975,
				"element": "H" 
			},
			{
				"x": 1.3418970084,
				"y": 4.4707247674,
				"z": -4.8777501135,
				"element": "H" 
			},
			{
				"x": 1.247745853,
				"y": 4.1465675149,
				"z": -2.451331505,
				"element": "H" 
			},
			{
				"x": 1.7362994632,
				"y": 0.5766602223,
				"z": 3.473391041,
				"element": "H" 
			},
			{
				"x": 1.6039416636,
				"y": -0.1624755172,
				"z": 5.8136577416,
				"element": "H" 
			},
			{
				"x": 0.438104391,
				"y": -2.2860448529,
				"z": 6.3964938082,
				"element": "H" 
			},
			{
				"x": -0.5997560072,
				"y": -3.6492348589,
				"z": 4.6119298884,
				"element": "H" 
			}
		],
		 "valence_orbital": [ 
			{
				"type": "occ",
				"energy": -0.26219,
				"method": "rhf"
			},
			{
				"type": "occ",
				"energy": -0.2411,
				"method": "rhf"
			},
			{
				"type": "occ",
				"energy": -0.23679,
				"method": "rhf"
			},
			{
				"type": "occ",
				"energy": -0.21449,
				"method": "rhf"
			},
			{
				"type": "occ",
				"energy": -0.18489,
				"method": "rhf"
			},
			{
				"type": "unocc",
				"energy": -0.02581,
				"method": "rhf"
			},
			{
				"type": "unocc",
				"energy": -0.00708,
				"method": "rhf"
			},
			{
				"type": "unocc",
				"energy": 0.00541,
				"method": "rhf"
			},
			{
				"type": "unocc",
				"energy": 0.00916,
				"method": "rhf"
			},
			{
				"type": "unocc",
				"energy": 0.02492,
				"method": "rhf"
			}
		],
		"cosmo_sigma_profile": { 
			"-0.025": 0.0,
			"-0.024": 0.0,
			"-0.023": 0.0,
			"-0.022": 0.0,
			"-0.021": 0.0,
			"-0.02": 0.0,
			"-0.019": 0.0,
			"-0.018": 0.0,
			"-0.017": 0.0,
			"-0.016": 0.0,
			"-0.015": 0.0,
			"-0.014": 0.0,
			"-0.013": 0.0,
			"-0.012": 0.0,
			"-0.011": 0.0,
			"-0.01": 0.200833195089,
			"-0.009": 1.87059504026,
			"-0.008": 3.10901906169,
			"-0.007": 4.38695865747,
			"-0.006": 11.8387039915,
			"-0.005": 24.3717989292,
			"-0.004": 32.6445794602,
			"-0.003": 31.646073286,
			"-0.002": 22.58287947,
			"-0.001": 24.0479874533,
			"0.0": 26.8962002181,
			"0.001": 26.2886911172,
			"0.002": 25.746700728,
			"0.003": 27.446575705,
			"0.004": 28.8118413593,
			"0.005": 23.2767164183,
			"0.006": 16.8244094594,
			"0.007": 2.24864240629,
			"0.008": 1.76344044143,
			"0.009": 1.42824036112,
			"0.01": 1.77084549743,
			"0.011": 0.514799210358,
			"0.012": 0.00259815735849,
			"0.013": 0.0,
			"0.014": 0.0,
			"0.015": 0.0,
			"0.016": 0.0,
			"0.017": 0.0,
			"0.018": 0.0,
			"0.019": 0.0,
			"0.02": 0.0,
			"0.021": 0.0,
			"0.022": 0.0,
			"0.023": 0.0,
			"0.024": 0.0,
			"0.025": 0.0
		}
	}
}
