{
	 "smiles": "CC1=C(NC(=O)C2CCCNC2)N=CC=C1", 
	 "Tm": 397.15, 
	 "num_atms": 33, 
	 "gaussian": { 
		 "optdone": 1, 
		 "sigma_profile": "yes", 
		 "theory": "DFT", 
		 "functional": "B3LYP", 
		 "basiset": "6-31G**", 
		 "properties": { 
			 "R2extent": 4128.6556, 
			 "electric_dipole_moment_norm": 5.14414977231, 
			 "electric_quadrupole_moment_norm": 8.89565484043, 
			 "total_energy": -707.007289839, 
			 "HOMO_LUMO_gap": 0.17325, 
			 "cosmo_polarized_energy": -15.29, 
			 "cosmo_cavitation_energy": 34.18, 
			 "cosmo_dispersion_energy": -23.93, 
			 "cosmo_repulsion_energy": 1.87, 
			 "cosmo_total_nonelectrostatic_energy": 12.12, 
			 "SMD_solvation_energy": 1.96 
		},
		"coords": [
			{
				"x": -0.7739671875,
				"y": 1.9680232577,
				"z": 1.0801985504,
				"element": "C" 
			},
			{
				"x": -0.957092584,
				"y": 1.9003315661,
				"z": -0.4149297889,
				"element": "C" 
			},
			{
				"x": -1.77694005,
				"y": 0.9393398282,
				"z": -1.0436288468,
				"element": "C" 
			},
			{
				"x": -2.4686945177,
				"y": -0.0521549981,
				"z": -0.2927486646,
				"element": "N" 
			},
			{
				"x": -1.9720818893,
				"y": -1.2244112806,
				"z": 0.2731665052,
				"element": "C" 
			},
			{
				"x": -2.7539161361,
				"y": -2.0939805261,
				"z": 0.6320491778,
				"element": "O" 
			},
			{
				"x": -0.4702365452,
				"y": -1.3972923494,
				"z": 0.4382624476,
				"element": "C" 
			},
			{
				"x": 0.0152291948,
				"y": -2.6408861164,
				"z": -0.3634682633,
				"element": "C" 
			},
			{
				"x": 1.221189366,
				"y": -3.328474323,
				"z": 0.317337025,
				"element": "C" 
			},
			{
				"x": 2.0919935993,
				"y": -2.3193860782,
				"z": 1.0666743245,
				"element": "C" 
			},
			{
				"x": 1.3245956074,
				"y": -1.7222647058,
				"z": 2.1743437797,
				"element": "N" 
			},
			{
				"x": -0.1188321016,
				"y": -1.6078850982,
				"z": 1.9330422198,
				"element": "C" 
			},
			{
				"x": -2.0445572387,
				"y": 0.9372328321,
				"z": -2.3549686966,
				"element": "N" 
			},
			{
				"x": -1.4664519504,
				"y": 1.8635374504,
				"z": -3.1240068157,
				"element": "C" 
			},
			{
				"x": -0.5870935602,
				"y": 2.8238323788,
				"z": -2.6261261942,
				"element": "C" 
			},
			{
				"x": -0.3464949331,
				"y": 2.8386254563,
				"z": -1.2549990562,
				"element": "C" 
			},
			{
				"x": -1.6542443681,
				"y": 1.5811025001,
				"z": 1.5994214038,
				"element": "H" 
			},
			{
				"x": 0.0883213489,
				"y": 1.3802105122,
				"z": 1.4163689668,
				"element": "H" 
			},
			{
				"x": -0.6052221396,
				"y": 3.0005712071,
				"z": 1.3993550757,
				"element": "H" 
			},
			{
				"x": -3.4303692447,
				"y": -0.1846076286,
				"z": -0.5890826875,
				"element": "H" 
			},
			{
				"x": 0.0584863491,
				"y": -0.5107397151,
				"z": 0.0771884107,
				"element": "H" 
			},
			{
				"x": 0.2800387904,
				"y": -2.3300680892,
				"z": -1.3805527106,
				"element": "H" 
			},
			{
				"x": -0.8126335652,
				"y": -3.3506905206,
				"z": -0.4455179809,
				"element": "H" 
			},
			{
				"x": 1.8228032624,
				"y": -3.8589869267,
				"z": -0.4279417762,
				"element": "H" 
			},
			{
				"x": 0.8721423588,
				"y": -4.0823208612,
				"z": 1.0324748292,
				"element": "H" 
			},
			{
				"x": 2.452649697,
				"y": -1.5644025053,
				"z": 0.3444750807,
				"element": "H" 
			},
			{
				"x": 2.983494571,
				"y": -2.8112310013,
				"z": 1.4759050099,
				"element": "H" 
			},
			{
				"x": 1.7092364032,
				"y": -0.8116490506,
				"z": 2.4025415114,
				"element": "H" 
			},
			{
				"x": -0.6360343534,
				"y": -2.513835095,
				"z": 2.2689244447,
				"element": "H" 
			},
			{
				"x": -0.5058288789,
				"y": -0.7895242546,
				"z": 2.5484081645,
				"element": "H" 
			},
			{
				"x": -1.7182819126,
				"y": 1.8328670144,
				"z": -4.1823550625,
				"element": "H" 
			},
			{
				"x": -0.1278509474,
				"y": 3.5514423313,
				"z": -3.2873497964,
				"element": "H" 
			},
			{
				"x": 0.2965435551,
				"y": 3.6000747892,
				"z": -0.8204605869,
				"element": "H" 
			}
		],
		 "valence_orbital": [ 
			{
				"type": "occ",
				"energy": -0.28055,
				"method": "rhf"
			},
			{
				"type": "occ",
				"energy": -0.27123,
				"method": "rhf"
			},
			{
				"type": "occ",
				"energy": -0.25555,
				"method": "rhf"
			},
			{
				"type": "occ",
				"energy": -0.24114,
				"method": "rhf"
			},
			{
				"type": "occ",
				"energy": -0.20917,
				"method": "rhf"
			},
			{
				"type": "unocc",
				"energy": -0.03592,
				"method": "rhf"
			},
			{
				"type": "unocc",
				"energy": -0.02088,
				"method": "rhf"
			},
			{
				"type": "unocc",
				"energy": 0.02132,
				"method": "rhf"
			},
			{
				"type": "unocc",
				"energy": 0.0579,
				"method": "rhf"
			},
			{
				"type": "unocc",
				"energy": 0.09127,
				"method": "rhf"
			}
		],
		"cosmo_sigma_profile": { 
			"-0.025": 0.0,
			"-0.024": 0.0,
			"-0.023": 0.0,
			"-0.022": 0.0,
			"-0.021": 0.0,
			"-0.02": 0.0,
			"-0.019": 0.0,
			"-0.018": 0.0,
			"-0.017": 0.0,
			"-0.016": 0.0,
			"-0.015": 0.0,
			"-0.014": 0.124312972767,
			"-0.013": 0.73461033168,
			"-0.012": 0.53341433828,
			"-0.011": 0.750359746804,
			"-0.01": 1.31095419888,
			"-0.009": 2.31562353341,
			"-0.008": 2.12913945515,
			"-0.007": 6.04771231195,
			"-0.006": 12.0555173475,
			"-0.005": 14.2522208461,
			"-0.004": 18.6132094942,
			"-0.003": 25.7858003535,
			"-0.002": 33.4694974885,
			"-0.001": 32.0375268407,
			"0.0": 28.4167273887,
			"0.001": 17.3474609526,
			"0.002": 14.6117757873,
			"0.003": 11.5031117507,
			"0.004": 6.00479425192,
			"0.005": 4.14909036542,
			"0.006": 3.61426302646,
			"0.007": 3.3299761969,
			"0.008": 2.68218071655,
			"0.009": 2.5314596857,
			"0.01": 2.99862082213,
			"0.011": 3.45231575641,
			"0.012": 3.60059291072,
			"0.013": 5.97757208961,
			"0.014": 4.00837515975,
			"0.015": 1.3887216501,
			"0.016": 0.700841833408,
			"0.017": 0.476747018465,
			"0.018": 0.425612287767,
			"0.019": 0.161425762829,
			"0.02": 0.0,
			"0.021": 0.0,
			"0.022": 0.0,
			"0.023": 0.0,
			"0.024": 0.0,
			"0.025": 0.0
		}
	}
}
