{
	 "smiles": "COC1=CC=C(Br)C(C)=C1C(O)=O", 
	 "Tm": 436.15, 
	 "num_atms": 22, 
	 "gaussian": { 
		 "optdone": 1, 
		 "sigma_profile": "yes", 
		 "theory": "DFT", 
		 "functional": "B3LYP", 
		 "basiset": "6-31G**", 
		 "properties": { 
			 "R2extent": 4070.2152, 
			 "electric_dipole_moment_norm": 3.15347700959, 
			 "electric_quadrupole_moment_norm": 11.3946527349, 
			 "total_energy": -3145.45594067, 
			 "HOMO_LUMO_gap": 0.19684, 
			 "cosmo_polarized_energy": -10.66, 
			 "cosmo_cavitation_energy": 28.13, 
			 "cosmo_dispersion_energy": -20.74, 
			 "cosmo_repulsion_energy": 1.65, 
			 "cosmo_total_nonelectrostatic_energy": 9.04, 
			 "SMD_solvation_energy": 5.63 
		},
		"coords": [
			{
				"x": 0.9179127382,
				"y": -2.3875464642,
				"z": 2.4135454877,
				"element": "C" 
			},
			{
				"x": 1.4636046901,
				"y": -1.9257146711,
				"z": 1.1765090056,
				"element": "O" 
			},
			{
				"x": 0.5559748733,
				"y": -1.5056105944,
				"z": 0.2364119954,
				"element": "C" 
			},
			{
				"x": -0.2878349742,
				"y": -2.4174214125,
				"z": -0.3981042545,
				"element": "C" 
			},
			{
				"x": -1.128647836,
				"y": -1.9799267779,
				"z": -1.4149622532,
				"element": "C" 
			},
			{
				"x": -1.1066179658,
				"y": -0.6419811848,
				"z": -1.8024520055,
				"element": "C" 
			},
			{
				"x": -2.2878281563,
				"y": -0.1182336559,
				"z": -3.2185193593,
				"element": "Br" 
			},
			{
				"x": -0.2611374083,
				"y": 0.3045076206,
				"z": -1.2034436455,
				"element": "C" 
			},
			{
				"x": -0.2732956681,
				"y": 1.7436207327,
				"z": -1.6562237877,
				"element": "C" 
			},
			{
				"x": 0.5603137033,
				"y": -0.1533307218,
				"z": -0.148515607,
				"element": "C" 
			},
			{
				"x": 1.4879899482,
				"y": 0.7866932661,
				"z": 0.5627600785,
				"element": "C" 
			},
			{
				"x": 1.2924268814,
				"y": 0.7854580799,
				"z": 1.903242218,
				"element": "O" 
			},
			{
				"x": 2.3109883091,
				"y": 1.5023185244,
				"z": 0.0326476733,
				"element": "O" 
			},
			{
				"x": 0.4316395849,
				"y": -1.5651960486,
				"z": 2.9497267218,
				"element": "H" 
			},
			{
				"x": 0.1998542315,
				"y": -3.2027199993,
				"z": 2.2628848065,
				"element": "H" 
			},
			{
				"x": 1.7607075189,
				"y": -2.7586598856,
				"z": 2.9994740802,
				"element": "H" 
			},
			{
				"x": -0.2626737459,
				"y": -3.4641170556,
				"z": -0.1139287307,
				"element": "H" 
			},
			{
				"x": -1.7888787207,
				"y": -2.6754935027,
				"z": -1.9202160472,
				"element": "H" 
			},
			{
				"x": -0.0240738375,
				"y": 1.8066236053,
				"z": -2.7203238066,
				"element": "H" 
			},
			{
				"x": -1.2748456305,
				"y": 2.1714242632,
				"z": -1.5423642751,
				"element": "H" 
			},
			{
				"x": 0.4432449478,
				"y": 2.3512830019,
				"z": -1.1084408243,
				"element": "H" 
			},
			{
				"x": 1.9585765165,
				"y": 1.3937228802,
				"z": 2.2670925295,
				"element": "H" 
			}
		],
		 "valence_orbital": [ 
			{
				"type": "occ",
				"energy": -0.29159,
				"method": "rhf"
			},
			{
				"type": "occ",
				"energy": -0.28745,
				"method": "rhf"
			},
			{
				"type": "occ",
				"energy": -0.27981,
				"method": "rhf"
			},
			{
				"type": "occ",
				"energy": -0.2605,
				"method": "rhf"
			},
			{
				"type": "occ",
				"energy": -0.23518,
				"method": "rhf"
			},
			{
				"type": "unocc",
				"energy": -0.03834,
				"method": "rhf"
			},
			{
				"type": "unocc",
				"energy": -0.01688,
				"method": "rhf"
			},
			{
				"type": "unocc",
				"energy": 0.00354,
				"method": "rhf"
			},
			{
				"type": "unocc",
				"energy": 0.02462,
				"method": "rhf"
			},
			{
				"type": "unocc",
				"energy": 0.07693,
				"method": "rhf"
			}
		],
		"cosmo_sigma_profile": { 
			"-0.025": 0.0,
			"-0.024": 0.0,
			"-0.023": 0.0,
			"-0.022": 0.0,
			"-0.021": 0.0,
			"-0.02": 0.0,
			"-0.019": 0.106929026348,
			"-0.018": 0.774693713612,
			"-0.017": 0.89431776755,
			"-0.016": 1.00858111785,
			"-0.015": 1.07504996484,
			"-0.014": 0.558326507806,
			"-0.013": 0.0381681389627,
			"-0.012": 0.68658799227,
			"-0.011": 0.850682173026,
			"-0.01": 1.12693585926,
			"-0.009": 0.375035568764,
			"-0.008": 1.50339548637,
			"-0.007": 5.28302000889,
			"-0.006": 8.19862482034,
			"-0.005": 10.658118006,
			"-0.004": 15.8048684852,
			"-0.003": 20.884442958,
			"-0.002": 17.8394875854,
			"-0.001": 17.0694763405,
			"0.0": 15.7461924171,
			"0.001": 19.2433472142,
			"0.002": 23.2539425013,
			"0.003": 16.9548897982,
			"0.004": 13.7054924552,
			"0.005": 8.20702278997,
			"0.006": 3.9181907943,
			"0.007": 4.3569254962,
			"0.008": 3.45508584863,
			"0.009": 2.63602638173,
			"0.01": 3.75231944527,
			"0.011": 5.14798462404,
			"0.012": 1.77078309635,
			"0.013": 0.0327437105514,
			"0.014": 0.0,
			"0.015": 0.0,
			"0.016": 0.0,
			"0.017": 0.0,
			"0.018": 0.0,
			"0.019": 0.0,
			"0.02": 0.0,
			"0.021": 0.0,
			"0.022": 0.0,
			"0.023": 0.0,
			"0.024": 0.0,
			"0.025": 0.0
		}
	}
}
