{
	 "smiles": "CSC1=C(C#N)C(=C(S1)C(O)=O)C1=CC(Cl)=CC=C1", 
	 "Tm": 483.15, 
	 "num_atms": 27, 
	 "gaussian": { 
		 "optdone": 1, 
		 "sigma_profile": "yes", 
		 "theory": "DFT", 
		 "functional": "B3LYP", 
		 "basiset": "6-31G**", 
		 "properties": { 
			 "R2extent": 8254.2106, 
			 "electric_dipole_moment_norm": 4.06304932163, 
			 "electric_quadrupole_moment_norm": 23.6346651057, 
			 "total_energy": -1961.94347913, 
			 "HOMO_LUMO_gap": 0.158, 
			 "cosmo_polarized_energy": -19.65, 
			 "cosmo_cavitation_energy": 38.18, 
			 "cosmo_dispersion_energy": -26.82, 
			 "cosmo_repulsion_energy": 2.01, 
			 "cosmo_total_nonelectrostatic_energy": 13.37, 
			 "SMD_solvation_energy": 7.82 
		},
		"coords": [
			{
				"x": -3.347831713,
				"y": 1.6520420944,
				"z": 0.7776048312,
				"element": "C" 
			},
			{
				"x": -2.2571627859,
				"y": 2.2271679613,
				"z": -0.5838320624,
				"element": "S" 
			},
			{
				"x": -0.6608425593,
				"y": 1.7293136802,
				"z": -0.0329242658,
				"element": "C" 
			},
			{
				"x": -0.1811301449,
				"y": 0.4750311049,
				"z": 0.3254120257,
				"element": "C" 
			},
			{
				"x": -1.0104939109,
				"y": -0.6848367359,
				"z": 0.2988175601,
				"element": "C" 
			},
			{
				"x": -1.7181503556,
				"y": -1.6085456115,
				"z": 0.2758123292,
				"element": "N" 
			},
			{
				"x": 1.2214771321,
				"y": 0.4532653292,
				"z": 0.6632674686,
				"element": "C" 
			},
			{
				"x": 1.7911386552,
				"y": 1.7048381068,
				"z": 0.5250298832,
				"element": "C" 
			},
			{
				"x": 0.6083873793,
				"y": 2.9056394562,
				"z": 0.0488527112,
				"element": "S" 
			},
			{
				"x": 3.1888879934,
				"y": 2.1124638548,
				"z": 0.8415502425,
				"element": "C" 
			},
			{
				"x": 3.6489007691,
				"y": 3.2130829784,
				"z": 0.1849340751,
				"element": "O" 
			},
			{
				"x": 3.8843534673,
				"y": 1.548377513,
				"z": 1.6483843867,
				"element": "O" 
			},
			{
				"x": 1.9338481239,
				"y": -0.7926754248,
				"z": 1.0399107615,
				"element": "C" 
			},
			{
				"x": 3.07963182,
				"y": -1.1926576318,
				"z": 0.337545467,
				"element": "C" 
			},
			{
				"x": 3.7186858824,
				"y": -2.3777655571,
				"z": 0.6873014597,
				"element": "C" 
			},
			{
				"x": 5.1469711634,
				"y": -2.8748079911,
				"z": -0.205850431,
				"element": "Cl" 
			},
			{
				"x": 3.2455384988,
				"y": -3.1810484346,
				"z": 1.7250567644,
				"element": "C" 
			},
			{
				"x": 2.1044850196,
				"y": -2.7791395773,
				"z": 2.4181396469,
				"element": "C" 
			},
			{
				"x": 1.4467113443,
				"y": -1.5977002866,
				"z": 2.0795203186,
				"element": "C" 
			},
			{
				"x": -4.3465461614,
				"y": 1.9994830771,
				"z": 0.5040268265,
				"element": "H" 
			},
			{
				"x": -3.3494028998,
				"y": 0.5647265749,
				"z": 0.850106317,
				"element": "H" 
			},
			{
				"x": -3.0504599107,
				"y": 2.1090775342,
				"z": 1.722432155,
				"element": "H" 
			},
			{
				"x": 3.0785178922,
				"y": 3.4397436317,
				"z": -0.564324113,
				"element": "H" 
			},
			{
				"x": 3.4649172368,
				"y": -0.5927482832,
				"z": -0.4782127876,
				"element": "H" 
			},
			{
				"x": 3.7603469851,
				"y": -4.1007403391,
				"z": 1.9790246305,
				"element": "H" 
			},
			{
				"x": 1.7255390774,
				"y": -3.3941014235,
				"z": 3.2283699844,
				"element": "H" 
			},
			{
				"x": 0.5633820011,
				"y": -1.2942856007,
				"z": 2.6312438147,
				"element": "H" 
			}
		],
		 "valence_orbital": [ 
			{
				"type": "occ",
				"energy": -0.29357,
				"method": "rhf"
			},
			{
				"type": "occ",
				"energy": -0.2854,
				"method": "rhf"
			},
			{
				"type": "occ",
				"energy": -0.26527,
				"method": "rhf"
			},
			{
				"type": "occ",
				"energy": -0.25516,
				"method": "rhf"
			},
			{
				"type": "occ",
				"energy": -0.24819,
				"method": "rhf"
			},
			{
				"type": "unocc",
				"energy": -0.09019,
				"method": "rhf"
			},
			{
				"type": "unocc",
				"energy": -0.05607,
				"method": "rhf"
			},
			{
				"type": "unocc",
				"energy": -0.03087,
				"method": "rhf"
			},
			{
				"type": "unocc",
				"energy": -0.01971,
				"method": "rhf"
			},
			{
				"type": "unocc",
				"energy": -0.01499,
				"method": "rhf"
			}
		],
		"cosmo_sigma_profile": { 
			"-0.025": 0.0,
			"-0.024": 0.0,
			"-0.023": 0.0,
			"-0.022": 0.0,
			"-0.021": 0.0,
			"-0.02": 0.0,
			"-0.019": 0.509482740073,
			"-0.018": 0.777663751736,
			"-0.017": 0.963813434905,
			"-0.016": 0.972730915913,
			"-0.015": 1.3450637128,
			"-0.014": 0.994553824755,
			"-0.013": 0.57460298553,
			"-0.012": 0.660517053173,
			"-0.011": 1.0888238125,
			"-0.01": 0.432954561378,
			"-0.009": 1.56467902002,
			"-0.008": 6.41232530197,
			"-0.007": 13.785693907,
			"-0.006": 15.907357423,
			"-0.005": 14.4906154257,
			"-0.004": 18.1508672339,
			"-0.003": 27.5573694203,
			"-0.002": 26.8056471029,
			"-0.001": 22.5281456633,
			"0.0": 18.6097776582,
			"0.001": 20.0734317952,
			"0.002": 21.4688176486,
			"0.003": 21.3437918098,
			"0.004": 20.0818359775,
			"0.005": 11.5926490086,
			"0.006": 7.01976789671,
			"0.007": 4.86469113218,
			"0.008": 6.50701117622,
			"0.009": 7.22807676366,
			"0.01": 7.95167739399,
			"0.011": 7.81574559799,
			"0.012": 3.75890434489,
			"0.013": 0.432780049479,
			"0.014": 0.0,
			"0.015": 0.0,
			"0.016": 0.0,
			"0.017": 0.0,
			"0.018": 0.0,
			"0.019": 0.0,
			"0.02": 0.0,
			"0.021": 0.0,
			"0.022": 0.0,
			"0.023": 0.0,
			"0.024": 0.0,
			"0.025": 0.0
		}
	}
}
