{
	 "smiles": "O=C1NN=CC2=CNN=C12", 
	 "Tm": 540.15, 
	 "num_atms": 14, 
	 "gaussian": { 
		 "optdone": 1, 
		 "sigma_profile": "yes", 
		 "theory": "DFT", 
		 "functional": "B3LYP", 
		 "basiset": "6-31G**", 
		 "properties": { 
			 "R2extent": 1511.6203, 
			 "electric_dipole_moment_norm": 5.66412526256, 
			 "electric_quadrupole_moment_norm": 18.6273724481, 
			 "total_energy": -487.128230214, 
			 "HOMO_LUMO_gap": 0.18662, 
			 "cosmo_polarized_energy": -20.71, 
			 "cosmo_cavitation_energy": 19.02, 
			 "cosmo_dispersion_energy": -14.72, 
			 "cosmo_repulsion_energy": 1.19, 
			 "cosmo_total_nonelectrostatic_energy": 5.49, 
			 "SMD_solvation_energy": 2.76 
		},
		"coords": [
			{
				"x": -0.3703553711,
				"y": 1.7617743971,
				"z": -1.2525933349,
				"element": "O" 
			},
			{
				"x": -0.7032996473,
				"y": 0.9140544735,
				"z": -0.4403319278,
				"element": "C" 
			},
			{
				"x": -0.8365589991,
				"y": 1.2251328872,
				"z": 0.9222682481,
				"element": "N" 
			},
			{
				"x": -1.1908927414,
				"y": 0.4435817428,
				"z": 1.9779968335,
				"element": "N" 
			},
			{
				"x": -1.4605938179,
				"y": -0.8048299149,
				"z": 1.7373325918,
				"element": "C" 
			},
			{
				"x": -1.3892308557,
				"y": -1.3442299758,
				"z": 0.4105922598,
				"element": "C" 
			},
			{
				"x": -1.6028246789,
				"y": -2.5836301185,
				"z": -0.1815421115,
				"element": "C" 
			},
			{
				"x": -1.35371099,
				"y": -2.395843184,
				"z": -1.5032669866,
				"element": "N" 
			},
			{
				"x": -0.9942438838,
				"y": -1.1441152882,
				"z": -1.8397552322,
				"element": "N" 
			},
			{
				"x": -1.0148401938,
				"y": -0.4981567163,
				"z": -0.6721563881,
				"element": "C" 
			},
			{
				"x": -0.6377710549,
				"y": 2.187221515,
				"z": 1.1663214394,
				"element": "H" 
			},
			{
				"x": -1.7402695675,
				"y": -1.4048292184,
				"z": 2.5977903656,
				"element": "H" 
			},
			{
				"x": -1.8996388901,
				"y": -3.5424217776,
				"z": 0.216470566,
				"element": "H" 
			},
			{
				"x": -1.4118693084,
				"y": -3.0895088219,
				"z": -2.2350263229,
				"element": "H" 
			}
		],
		 "valence_orbital": [ 
			{
				"type": "occ",
				"energy": -0.30557,
				"method": "rhf"
			},
			{
				"type": "occ",
				"energy": -0.30471,
				"method": "rhf"
			},
			{
				"type": "occ",
				"energy": -0.2783,
				"method": "rhf"
			},
			{
				"type": "occ",
				"energy": -0.25146,
				"method": "rhf"
			},
			{
				"type": "occ",
				"energy": -0.23109,
				"method": "rhf"
			},
			{
				"type": "unocc",
				"energy": -0.04447,
				"method": "rhf"
			},
			{
				"type": "unocc",
				"energy": -0.02329,
				"method": "rhf"
			},
			{
				"type": "unocc",
				"energy": 0.04045,
				"method": "rhf"
			},
			{
				"type": "unocc",
				"energy": 0.05875,
				"method": "rhf"
			},
			{
				"type": "unocc",
				"energy": 0.09869,
				"method": "rhf"
			}
		],
		"cosmo_sigma_profile": { 
			"-0.025": 0.0,
			"-0.024": 0.0,
			"-0.023": 0.0,
			"-0.022": 0.0,
			"-0.021": 0.0,
			"-0.02": 0.0,
			"-0.019": 0.0,
			"-0.018": 1.54047436928,
			"-0.017": 1.89974706398,
			"-0.016": 1.94212008147,
			"-0.015": 2.00076867424,
			"-0.014": 1.80802328608,
			"-0.013": 1.77719921171,
			"-0.012": 2.18152540379,
			"-0.011": 3.35711872239,
			"-0.01": 3.94810983152,
			"-0.009": 3.8323379769,
			"-0.008": 5.96352013297,
			"-0.007": 4.10478462901,
			"-0.006": 4.53852940582,
			"-0.005": 4.56507390963,
			"-0.004": 4.01361334924,
			"-0.003": 6.30668065747,
			"-0.002": 7.41153830399,
			"-0.001": 10.0501514009,
			"0.0": 14.5241298499,
			"0.001": 10.6251190156,
			"0.002": 5.56700182542,
			"0.003": 4.34933830821,
			"0.004": 3.56245526903,
			"0.005": 4.09494018576,
			"0.006": 3.25177569035,
			"0.007": 2.83839579244,
			"0.008": 3.04337286611,
			"0.009": 3.65675536751,
			"0.01": 3.63180265588,
			"0.011": 4.28471373357,
			"0.012": 6.16713445877,
			"0.013": 8.41932907392,
			"0.014": 3.92045107728,
			"0.015": 0.179009383945,
			"0.016": 0.0,
			"0.017": 0.0,
			"0.018": 0.0,
			"0.019": 0.0,
			"0.02": 0.0,
			"0.021": 0.0,
			"0.022": 0.0,
			"0.023": 0.0,
			"0.024": 0.0,
			"0.025": 0.0
		}
	}
}
