{
	 "smiles": "CN1C(C(=O)NC2=CC=CC=N2)=C(O)C2=CC=CC=C2S1(=O)=O", 
	 "Tm": 471.15, 
	 "num_atms": 36, 
	 "gaussian": { 
		 "optdone": 1, 
		 "sigma_profile": "yes", 
		 "theory": "DFT", 
		 "functional": "B3LYP", 
		 "basiset": "6-31G**", 
		 "properties": { 
			 "R2extent": 8841.5306, 
			 "electric_dipole_moment_norm": 2.74527980541, 
			 "electric_quadrupole_moment_norm": 24.1644736676, 
			 "total_energy": -1442.70428481, 
			 "HOMO_LUMO_gap": 0.15142, 
			 "cosmo_polarized_energy": -16.22, 
			 "cosmo_cavitation_energy": 40.13, 
			 "cosmo_dispersion_energy": -28.7, 
			 "cosmo_repulsion_energy": 2.08, 
			 "cosmo_total_nonelectrostatic_energy": 13.51, 
			 "SMD_solvation_energy": 5.93 
		},
		"coords": [
			{
				"x": -0.7622131612,
				"y": 1.0302909385,
				"z": -2.0820417595,
				"element": "C" 
			},
			{
				"x": -0.0060887669,
				"y": 1.4623017154,
				"z": -0.8894168769,
				"element": "N" 
			},
			{
				"x": 1.1339579915,
				"y": 0.67351078,
				"z": -0.5326683349,
				"element": "C" 
			},
			{
				"x": 0.9638611483,
				"y": -0.6352780179,
				"z": 0.1022935973,
				"element": "C" 
			},
			{
				"x": 1.9336710949,
				"y": -1.4327892636,
				"z": 0.1599786468,
				"element": "O" 
			},
			{
				"x": -0.2491774589,
				"y": -1.0929990362,
				"z": 0.555249334,
				"element": "N" 
			},
			{
				"x": -1.4015525085,
				"y": -0.4787061959,
				"z": 1.0988889128,
				"element": "C" 
			},
			{
				"x": -1.3961209422,
				"y": 0.7940637309,
				"z": 1.68442976,
				"element": "C" 
			},
			{
				"x": -2.5926789969,
				"y": 1.2621011888,
				"z": 2.2172553265,
				"element": "C" 
			},
			{
				"x": -3.7289757446,
				"y": 0.4508638779,
				"z": 2.1829209454,
				"element": "C" 
			},
			{
				"x": -3.6070715669,
				"y": -0.8155694544,
				"z": 1.6160400582,
				"element": "C" 
			},
			{
				"x": -2.4728438193,
				"y": -1.2792435578,
				"z": 1.0777137469,
				"element": "N" 
			},
			{
				"x": 2.413023787,
				"y": 1.0715887278,
				"z": -0.8870150027,
				"element": "C" 
			},
			{
				"x": 3.4820263793,
				"y": 0.3192931144,
				"z": -0.6636575087,
				"element": "O" 
			},
			{
				"x": 2.6861240705,
				"y": 2.3603639671,
				"z": -1.5452696836,
				"element": "C" 
			},
			{
				"x": 3.9142395626,
				"y": 2.5869824414,
				"z": -2.1854640532,
				"element": "C" 
			},
			{
				"x": 4.1510540482,
				"y": 3.7912138911,
				"z": -2.8444150883,
				"element": "C" 
			},
			{
				"x": 3.1686588174,
				"y": 4.7852812605,
				"z": -2.8856220339,
				"element": "C" 
			},
			{
				"x": 1.9435395228,
				"y": 4.5837100617,
				"z": -2.248712545,
				"element": "C" 
			},
			{
				"x": 1.7211334044,
				"y": 3.3845802444,
				"z": -1.5783728179,
				"element": "C" 
			},
			{
				"x": 0.2062975442,
				"y": 3.1236810375,
				"z": -0.6703791566,
				"element": "S" 
			},
			{
				"x": 0.4753842734,
				"y": 3.3501351073,
				"z": 0.7507334668,
				"element": "O" 
			},
			{
				"x": -0.8889954771,
				"y": 3.8211076176,
				"z": -1.3457530127,
				"element": "O" 
			},
			{
				"x": -1.1053986477,
				"y": 0.0086383293,
				"z": -1.905756093,
				"element": "H" 
			},
			{
				"x": -1.6277654657,
				"y": 1.679523531,
				"z": -2.2062852981,
				"element": "H" 
			},
			{
				"x": -0.1464296397,
				"y": 1.0518146056,
				"z": -2.9903023822,
				"element": "H" 
			},
			{
				"x": -0.2442236498,
				"y": -2.0987226919,
				"z": 0.6871680385,
				"element": "H" 
			},
			{
				"x": -0.4990919407,
				"y": 1.397171165,
				"z": 1.7243544131,
				"element": "H" 
			},
			{
				"x": -2.6267960199,
				"y": 2.2493948106,
				"z": 2.6677949821,
				"element": "H" 
			},
			{
				"x": -4.6756625083,
				"y": 0.7824890823,
				"z": 2.595881646,
				"element": "H" 
			},
			{
				"x": -4.4562749917,
				"y": -1.4956967865,
				"z": 1.5876679804,
				"element": "H" 
			},
			{
				"x": 3.1105387238,
				"y": -0.5598400419,
				"z": -0.3127712862,
				"element": "H" 
			},
			{
				"x": 4.6661672626,
				"y": 1.8069975073,
				"z": -2.1594536869,
				"element": "H" 
			},
			{
				"x": 5.1051499343,
				"y": 3.9534274487,
				"z": -3.3364228482,
				"element": "H" 
			},
			{
				"x": 3.3564554041,
				"y": 5.7167178223,
				"z": -3.4106182698,
				"element": "H" 
			},
			{
				"x": 1.1652783365,
				"y": 5.3391010415,
				"z": -2.2680731167,
				"element": "H" 
			}
		],
		 "valence_orbital": [ 
			{
				"type": "occ",
				"energy": -0.28059,
				"method": "rhf"
			},
			{
				"type": "occ",
				"energy": -0.27118,
				"method": "rhf"
			},
			{
				"type": "occ",
				"energy": -0.26599,
				"method": "rhf"
			},
			{
				"type": "occ",
				"energy": -0.23825,
				"method": "rhf"
			},
			{
				"type": "occ",
				"energy": -0.23441,
				"method": "rhf"
			},
			{
				"type": "unocc",
				"energy": -0.08299,
				"method": "rhf"
			},
			{
				"type": "unocc",
				"energy": -0.04194,
				"method": "rhf"
			},
			{
				"type": "unocc",
				"energy": -0.0265,
				"method": "rhf"
			},
			{
				"type": "unocc",
				"energy": -0.01796,
				"method": "rhf"
			},
			{
				"type": "unocc",
				"energy": 0.01138,
				"method": "rhf"
			}
		],
		"cosmo_sigma_profile": { 
			"-0.025": 0.0,
			"-0.024": 0.0,
			"-0.023": 0.0,
			"-0.022": 0.0,
			"-0.021": 0.0,
			"-0.02": 0.0,
			"-0.019": 0.0,
			"-0.018": 0.0,
			"-0.017": 0.0,
			"-0.016": 0.0,
			"-0.015": 0.0,
			"-0.014": 0.645779614588,
			"-0.013": 0.539345161458,
			"-0.012": 0.566853152801,
			"-0.011": 1.16254454985,
			"-0.01": 0.688811418566,
			"-0.009": 0.196875555211,
			"-0.008": 3.93771407683,
			"-0.007": 12.9107124748,
			"-0.006": 19.9664843259,
			"-0.005": 25.920658168,
			"-0.004": 21.7426289139,
			"-0.003": 26.1580735463,
			"-0.002": 24.2297761176,
			"-0.001": 21.9906349086,
			"0.0": 22.9810204218,
			"0.001": 29.8479758578,
			"0.002": 27.9598863835,
			"0.003": 15.8679467466,
			"0.004": 8.20377219507,
			"0.005": 6.7734844758,
			"0.006": 6.70840224916,
			"0.007": 6.70442051325,
			"0.008": 7.24545207292,
			"0.009": 8.15297716914,
			"0.01": 11.0881882321,
			"0.011": 6.3825554483,
			"0.012": 2.04382960477,
			"0.013": 0.943330406712,
			"0.014": 0.617349083507,
			"0.015": 0.282470509177,
			"0.016": 0.0,
			"0.017": 0.0,
			"0.018": 0.0,
			"0.019": 0.0,
			"0.02": 0.0,
			"0.021": 0.0,
			"0.022": 0.0,
			"0.023": 0.0,
			"0.024": 0.0,
			"0.025": 0.0
		}
	}
}
