{
	 "smiles": "CCCCCCOC(=O)C(C)=C", 
	 "Tm": 216.15, 
	 "num_atms": 30, 
	 "gaussian": { 
		 "optdone": 1, 
		 "sigma_profile": "yes", 
		 "theory": "DFT", 
		 "functional": "B3LYP", 
		 "basiset": "6-31G**", 
		 "properties": { 
			 "R2extent": 3681.3131, 
			 "electric_dipole_moment_norm": 1.94271362017, 
			 "electric_quadrupole_moment_norm": 13.322013582, 
			 "total_energy": -542.367970167, 
			 "HOMO_LUMO_gap": 0.22808, 
			 "cosmo_polarized_energy": -6.25, 
			 "cosmo_cavitation_energy": 32.16, 
			 "cosmo_dispersion_energy": -21.59, 
			 "cosmo_repulsion_energy": 1.74, 
			 "cosmo_total_nonelectrostatic_energy": 12.31, 
			 "SMD_solvation_energy": 6.78 
		},
		"coords": [
			{
				"x": 2.1194013748,
				"y": -2.4504875927,
				"z": -0.145813726,
				"element": "C" 
			},
			{
				"x": 1.0649094283,
				"y": -2.6699773477,
				"z": 0.9457426771,
				"element": "C" 
			},
			{
				"x": -0.3827467155,
				"y": -2.3048773084,
				"z": 0.5696148599,
				"element": "C" 
			},
			{
				"x": -1.0177337541,
				"y": -3.1533507447,
				"z": -0.5551886503,
				"element": "C" 
			},
			{
				"x": -0.8261553269,
				"y": -2.6664051759,
				"z": -2.0060370289,
				"element": "C" 
			},
			{
				"x": -1.6714199528,
				"y": -1.4694368132,
				"z": -2.4239678449,
				"element": "C" 
			},
			{
				"x": -1.1352040318,
				"y": -0.2615168005,
				"z": -1.8326364618,
				"element": "O" 
			},
			{
				"x": -1.7848274426,
				"y": 0.8820162592,
				"z": -2.1579510157,
				"element": "C" 
			},
			{
				"x": -2.7643916015,
				"y": 0.9044813994,
				"z": -2.8776041932,
				"element": "O" 
			},
			{
				"x": -1.143850084,
				"y": 2.084574273,
				"z": -1.5320567494,
				"element": "C" 
			},
			{
				"x": 0.0790791644,
				"y": 1.9045493839,
				"z": -0.6710757248,
				"element": "C" 
			},
			{
				"x": -1.7078202,
				"y": 3.2717484748,
				"z": -1.7857151,
				"element": "C" 
			},
			{
				"x": 1.9732380156,
				"y": -3.122002295,
				"z": -0.9979451271,
				"element": "H" 
			},
			{
				"x": 2.0929823275,
				"y": -1.4220705503,
				"z": -0.5240111651,
				"element": "H" 
			},
			{
				"x": 3.1266170204,
				"y": -2.636052337,
				"z": 0.242609435,
				"element": "H" 
			},
			{
				"x": 1.3450079186,
				"y": -2.0793977998,
				"z": 1.8279811078,
				"element": "H" 
			},
			{
				"x": 1.0940313014,
				"y": -3.7205150582,
				"z": 1.2675701462,
				"element": "H" 
			},
			{
				"x": -0.4390128607,
				"y": -1.2436162548,
				"z": 0.3053453524,
				"element": "H" 
			},
			{
				"x": -0.9935908729,
				"y": -2.426124645,
				"z": 1.4733059066,
				"element": "H" 
			},
			{
				"x": -0.634422452,
				"y": -4.1801705445,
				"z": -0.480088833,
				"element": "H" 
			},
			{
				"x": -2.0985544992,
				"y": -3.2311984784,
				"z": -0.375313329,
				"element": "H" 
			},
			{
				"x": -1.109887834,
				"y": -3.4844099674,
				"z": -2.6815311926,
				"element": "H" 
			},
			{
				"x": 0.225028578,
				"y": -2.4464695244,
				"z": -2.2187843602,
				"element": "H" 
			},
			{
				"x": -2.7160618285,
				"y": -1.5796040201,
				"z": -2.1123090492,
				"element": "H" 
			},
			{
				"x": -1.6688984886,
				"y": -1.3441990257,
				"z": -3.5115447622,
				"element": "H" 
			},
			{
				"x": 0.4487521048,
				"y": 2.8713979652,
				"z": -0.3199510626,
				"element": "H" 
			},
			{
				"x": 0.8818377371,
				"y": 1.403471092,
				"z": -1.2218546394,
				"element": "H" 
			},
			{
				"x": -0.137845574,
				"y": 1.2804738982,
				"z": 0.2025767738,
				"element": "H" 
			},
			{
				"x": -2.5890847866,
				"y": 3.3369221052,
				"z": -2.4145451082,
				"element": "H" 
			},
			{
				"x": -1.3026766654,
				"y": 4.1909474327,
				"z": -1.3737211354,
				"element": "H" 
			}
		],
		 "valence_orbital": [ 
			{
				"type": "occ",
				"energy": -0.31442,
				"method": "rhf"
			},
			{
				"type": "occ",
				"energy": -0.30956,
				"method": "rhf"
			},
			{
				"type": "occ",
				"energy": -0.29359,
				"method": "rhf"
			},
			{
				"type": "occ",
				"energy": -0.26723,
				"method": "rhf"
			},
			{
				"type": "occ",
				"energy": -0.26433,
				"method": "rhf"
			},
			{
				"type": "unocc",
				"energy": -0.03625,
				"method": "rhf"
			},
			{
				"type": "unocc",
				"energy": 0.07812,
				"method": "rhf"
			},
			{
				"type": "unocc",
				"energy": 0.08248,
				"method": "rhf"
			},
			{
				"type": "unocc",
				"energy": 0.09484,
				"method": "rhf"
			},
			{
				"type": "unocc",
				"energy": 0.10826,
				"method": "rhf"
			}
		],
		"cosmo_sigma_profile": { 
			"-0.025": 0.0,
			"-0.024": 0.0,
			"-0.023": 0.0,
			"-0.022": 0.0,
			"-0.021": 0.0,
			"-0.02": 0.0,
			"-0.019": 0.0,
			"-0.018": 0.0,
			"-0.017": 0.0,
			"-0.016": 0.0,
			"-0.015": 0.0,
			"-0.014": 0.0,
			"-0.013": 0.0,
			"-0.012": 0.0,
			"-0.011": 0.0,
			"-0.01": 0.0,
			"-0.009": 0.0,
			"-0.008": 0.0,
			"-0.007": 0.516029914254,
			"-0.006": 2.05766819176,
			"-0.005": 7.09874464495,
			"-0.004": 16.4031442454,
			"-0.003": 22.2070782629,
			"-0.002": 37.0866487962,
			"-0.001": 39.5534647263,
			"0.0": 40.9957341377,
			"0.001": 33.0437536092,
			"0.002": 16.5181559315,
			"0.003": 9.09838485123,
			"0.004": 5.34644443212,
			"0.005": 3.65496564362,
			"0.006": 2.40378999452,
			"0.007": 0.885422362206,
			"0.008": 1.71628733467,
			"0.009": 1.50542724965,
			"0.01": 1.87880246906,
			"0.011": 2.18039052254,
			"0.012": 4.70065033312,
			"0.013": 1.27290441016,
			"0.014": 0.0,
			"0.015": 0.0,
			"0.016": 0.0,
			"0.017": 0.0,
			"0.018": 0.0,
			"0.019": 0.0,
			"0.02": 0.0,
			"0.021": 0.0,
			"0.022": 0.0,
			"0.023": 0.0,
			"0.024": 0.0,
			"0.025": 0.0
		}
	}
}
