{
	 "smiles": "CN1C=CC(=N1)C1=CC=C(C=C1)C(=O)OC1=C(F)C(F)=C(F)C(F)=C1F", 
	 "Tm": 396.15, 
	 "num_atms": 35, 
	 "gaussian": { 
		 "optdone": 1, 
		 "sigma_profile": "yes", 
		 "theory": "DFT", 
		 "functional": "B3LYP", 
		 "basiset": "6-31G**", 
		 "properties": { 
			 "R2extent": 16696.9945, 
			 "electric_dipole_moment_norm": 7.25674695232, 
			 "electric_quadrupole_moment_norm": 22.7619193762, 
			 "total_energy": -1412.307362, 
			 "HOMO_LUMO_gap": 0.16633, 
			 "cosmo_polarized_energy": -12.27, 
			 "cosmo_cavitation_energy": 44.86, 
			 "cosmo_dispersion_energy": -30.98, 
			 "cosmo_repulsion_energy": 2.2, 
			 "cosmo_total_nonelectrostatic_energy": 16.08, 
			 "SMD_solvation_energy": 10.47 
		},
		"coords": [
			{
				"x": -2.6141513148,
				"y": 2.8484097478,
				"z": 6.1278285098,
				"element": "C" 
			},
			{
				"x": -2.9576951832,
				"y": 1.953388512,
				"z": 5.0383035138,
				"element": "N" 
			},
			{
				"x": -4.0398032213,
				"y": 1.1336383196,
				"z": 4.9345680234,
				"element": "C" 
			},
			{
				"x": -3.9280310177,
				"y": 0.4768844094,
				"z": 3.7276507076,
				"element": "C" 
			},
			{
				"x": -2.724841992,
				"y": 0.9700017434,
				"z": 3.1568206245,
				"element": "C" 
			},
			{
				"x": -2.1478908484,
				"y": 1.8684971313,
				"z": 3.9708207827,
				"element": "N" 
			},
			{
				"x": -2.1024387116,
				"y": 0.623855875,
				"z": 1.8719830315,
				"element": "C" 
			},
			{
				"x": -0.8953444531,
				"y": 1.2322985564,
				"z": 1.4802154745,
				"element": "C" 
			},
			{
				"x": -0.2977960952,
				"y": 0.9133211259,
				"z": 0.2685561058,
				"element": "C" 
			},
			{
				"x": -0.8948464699,
				"y": -0.027012525,
				"z": -0.5868754405,
				"element": "C" 
			},
			{
				"x": -2.0983636401,
				"y": -0.6380456731,
				"z": -0.2042549889,
				"element": "C" 
			},
			{
				"x": -2.692486771,
				"y": -0.3162796123,
				"z": 1.0083885679,
				"element": "C" 
			},
			{
				"x": -0.3150763431,
				"y": -0.4124219302,
				"z": -1.8888961284,
				"element": "C" 
			},
			{
				"x": -0.7745147682,
				"y": -1.2074204028,
				"z": -2.6729627722,
				"element": "O" 
			},
			{
				"x": 0.8729392034,
				"y": 0.2707171689,
				"z": -2.1416768786,
				"element": "O" 
			},
			{
				"x": 1.5210287588,
				"y": -0.0271561697,
				"z": -3.3171525596,
				"element": "C" 
			},
			{
				"x": 1.567014621,
				"y": 0.9240057644,
				"z": -4.3362016962,
				"element": "C" 
			},
			{
				"x": 0.9266560217,
				"y": 2.088127588,
				"z": -4.1928628557,
				"element": "F" 
			},
			{
				"x": 2.2800302642,
				"y": 0.6739137683,
				"z": -5.5070236643,
				"element": "C" 
			},
			{
				"x": 2.3268310193,
				"y": 1.5946688801,
				"z": -6.4758274982,
				"element": "F" 
			},
			{
				"x": 2.9403519858,
				"y": -0.5418250949,
				"z": -5.6699671198,
				"element": "C" 
			},
			{
				"x": 3.6232637077,
				"y": -0.7861040418,
				"z": -6.792059356,
				"element": "F" 
			},
			{
				"x": 2.8919181047,
				"y": -1.5027710663,
				"z": -4.6612646143,
				"element": "C" 
			},
			{
				"x": 3.5282895216,
				"y": -2.6680188509,
				"z": -4.8193898269,
				"element": "F" 
			},
			{
				"x": 2.1860163983,
				"y": -1.2419037936,
				"z": -3.4900874941,
				"element": "C" 
			},
			{
				"x": 2.1497583255,
				"y": -2.1621302079,
				"z": -2.5226639567,
				"element": "F" 
			},
			{
				"x": -2.5320768829,
				"y": 3.8734841264,
				"z": 5.7579274537,
				"element": "H" 
			},
			{
				"x": -3.3968254435,
				"y": 2.798522184,
				"z": 6.8863003952,
				"element": "H" 
			},
			{
				"x": -1.659674045,
				"y": 2.5532215135,
				"z": 6.5714932884,
				"element": "H" 
			},
			{
				"x": -4.7884925567,
				"y": 1.0839714855,
				"z": 5.7117021556,
				"element": "H" 
			},
			{
				"x": -4.6164908569,
				"y": -0.2489300015,
				"z": 3.3232494974,
				"element": "H" 
			},
			{
				"x": -0.4384603417,
				"y": 1.957672251,
				"z": 2.1437917954,
				"element": "H" 
			},
			{
				"x": 0.6313236879,
				"y": 1.3898549185,
				"z": -0.0216758073,
				"element": "H" 
			},
			{
				"x": -2.5509000141,
				"y": -1.3630555527,
				"z": -0.8721797105,
				"element": "H" 
			},
			{
				"x": -3.6231206495,
				"y": -0.799480147,
				"z": 1.2878224411,
				"element": "H" 
			}
		],
		 "valence_orbital": [ 
			{
				"type": "occ",
				"energy": -0.2632,
				"method": "rhf"
			},
			{
				"type": "occ",
				"energy": -0.25799,
				"method": "rhf"
			},
			{
				"type": "occ",
				"energy": -0.2558,
				"method": "rhf"
			},
			{
				"type": "occ",
				"energy": -0.25521,
				"method": "rhf"
			},
			{
				"type": "occ",
				"energy": -0.22908,
				"method": "rhf"
			},
			{
				"type": "unocc",
				"energy": -0.06275,
				"method": "rhf"
			},
			{
				"type": "unocc",
				"energy": -0.0215,
				"method": "rhf"
			},
			{
				"type": "unocc",
				"energy": -0.01484,
				"method": "rhf"
			},
			{
				"type": "unocc",
				"energy": -0.01067,
				"method": "rhf"
			},
			{
				"type": "unocc",
				"energy": 0.00485,
				"method": "rhf"
			}
		],
		"cosmo_sigma_profile": { 
			"-0.025": 0.0,
			"-0.024": 0.0,
			"-0.023": 0.0,
			"-0.022": 0.0,
			"-0.021": 0.0,
			"-0.02": 0.0,
			"-0.019": 0.0,
			"-0.018": 0.0,
			"-0.017": 0.0,
			"-0.016": 0.0,
			"-0.015": 0.0,
			"-0.014": 0.0,
			"-0.013": 0.0,
			"-0.012": 0.0,
			"-0.011": 0.0,
			"-0.01": 0.218756123454,
			"-0.009": 3.42108298321,
			"-0.008": 5.35788076837,
			"-0.007": 7.42162875297,
			"-0.006": 14.1724102785,
			"-0.005": 17.5857224377,
			"-0.004": 31.5016243466,
			"-0.003": 32.8714820819,
			"-0.002": 21.7839043593,
			"-0.001": 20.9488891536,
			"0.0": 23.1574468871,
			"0.001": 29.6564764596,
			"0.002": 65.0874811358,
			"0.003": 47.2116682188,
			"0.004": 12.1193991216,
			"0.005": 7.55228310622,
			"0.006": 4.32647152365,
			"0.007": 2.81219908702,
			"0.008": 3.92497024649,
			"0.009": 2.93941723902,
			"0.01": 5.00610583036,
			"0.011": 2.73234577133,
			"0.012": 1.1451978172,
			"0.013": 0.345703117284,
			"0.014": 0.0,
			"0.015": 0.0,
			"0.016": 0.0,
			"0.017": 0.0,
			"0.018": 0.0,
			"0.019": 0.0,
			"0.02": 0.0,
			"0.021": 0.0,
			"0.022": 0.0,
			"0.023": 0.0,
			"0.024": 0.0,
			"0.025": 0.0
		}
	}
}
