{
	 "smiles": "CC1CCCCC1NC(=O)NC1=CC=CC=C1", 
	 "Tm": 409.15, 
	 "num_atms": 37, 
	 "gaussian": { 
		 "optdone": 1, 
		 "sigma_profile": "yes", 
		 "theory": "DFT", 
		 "functional": "B3LYP", 
		 "basiset": "6-31G**", 
		 "properties": { 
			 "R2extent": 6548.9453, 
			 "electric_dipole_moment_norm": 3.03142145206, 
			 "electric_quadrupole_moment_norm": 14.0820150217, 
			 "total_energy": -730.310953444, 
			 "HOMO_LUMO_gap": 0.20776, 
			 "cosmo_polarized_energy": -12.3, 
			 "cosmo_cavitation_energy": 37.52, 
			 "cosmo_dispersion_energy": -26.37, 
			 "cosmo_repulsion_energy": 2.06, 
			 "cosmo_total_nonelectrostatic_energy": 13.21, 
			 "SMD_solvation_energy": 6.04 
		},
		"coords": [
			{
				"x": 1.288813696,
				"y": -0.8616905742,
				"z": 0.1587998707,
				"element": "C" 
			},
			{
				"x": 0.543330064,
				"y": 0.1142336221,
				"z": 1.0833984851,
				"element": "C" 
			},
			{
				"x": 1.0448012596,
				"y": 0.0288443887,
				"z": 2.5595236946,
				"element": "C" 
			},
			{
				"x": 0.0634903542,
				"y": -0.6896207065,
				"z": 3.5112891801,
				"element": "C" 
			},
			{
				"x": -0.6040053731,
				"y": -1.8887758646,
				"z": 2.8255363538,
				"element": "C" 
			},
			{
				"x": -1.437127517,
				"y": -1.4464462321,
				"z": 1.5960375245,
				"element": "C" 
			},
			{
				"x": -0.9942218671,
				"y": -0.0732917452,
				"z": 1.0510589591,
				"element": "C" 
			},
			{
				"x": -1.5861329583,
				"y": 0.1392148286,
				"z": -0.2690238621,
				"element": "N" 
			},
			{
				"x": -1.7916109806,
				"y": 1.4112287155,
				"z": -0.7408946864,
				"element": "C" 
			},
			{
				"x": -1.6034185394,
				"y": 2.4228809397,
				"z": -0.0719304359,
				"element": "O" 
			},
			{
				"x": -2.2432304202,
				"y": 1.5282711364,
				"z": -2.058293884,
				"element": "N" 
			},
			{
				"x": -2.5984421951,
				"y": 0.5577299822,
				"z": -3.0137852228,
				"element": "C" 
			},
			{
				"x": -2.2910334987,
				"y": 0.798358211,
				"z": -4.3638641266,
				"element": "C" 
			},
			{
				"x": -2.662262634,
				"y": -0.1142333607,
				"z": -5.3477632275,
				"element": "C" 
			},
			{
				"x": -3.3301525921,
				"y": -1.2927646111,
				"z": -5.0060631277,
				"element": "C" 
			},
			{
				"x": -3.6418349895,
				"y": -1.5334117713,
				"z": -3.6677874609,
				"element": "C" 
			},
			{
				"x": -3.2962736082,
				"y": -0.6145656706,
				"z": -2.675845543,
				"element": "C" 
			},
			{
				"x": 1.1701857132,
				"y": -1.9052073651,
				"z": 0.4716276787,
				"element": "H" 
			},
			{
				"x": 2.3618144829,
				"y": -0.6427097583,
				"z": 0.1610995379,
				"element": "H" 
			},
			{
				"x": 0.9443415251,
				"y": -0.7792860918,
				"z": -0.878063143,
				"element": "H" 
			},
			{
				"x": 0.7299072562,
				"y": 1.127527025,
				"z": 0.7118598547,
				"element": "H" 
			},
			{
				"x": 1.24366102,
				"y": 1.0356121066,
				"z": 2.9433110196,
				"element": "H" 
			},
			{
				"x": 2.0069210913,
				"y": -0.4980762993,
				"z": 2.5757538325,
				"element": "H" 
			},
			{
				"x": -0.7122171771,
				"y": 0.009188449,
				"z": 3.8502128173,
				"element": "H" 
			},
			{
				"x": 0.5938892554,
				"y": -1.0132343254,
				"z": 4.4141182864,
				"element": "H" 
			},
			{
				"x": -1.2397584491,
				"y": -2.432569908,
				"z": 3.5327899336,
				"element": "H" 
			},
			{
				"x": 0.1769316586,
				"y": -2.5941781723,
				"z": 2.5146791672,
				"element": "H" 
			},
			{
				"x": -2.5013957847,
				"y": -1.3865904385,
				"z": 1.8497563328,
				"element": "H" 
			},
			{
				"x": -1.3559321694,
				"y": -2.2029606284,
				"z": 0.8044182718,
				"element": "H" 
			},
			{
				"x": -1.4179454431,
				"y": 0.7143940303,
				"z": 1.679820841,
				"element": "H" 
			},
			{
				"x": -1.5154073432,
				"y": -0.611604282,
				"z": -0.9412652207,
				"element": "H" 
			},
			{
				"x": -2.1886423683,
				"y": 2.4872879133,
				"z": -2.3709359889,
				"element": "H" 
			},
			{
				"x": -1.7526628709,
				"y": 1.7036264035,
				"z": -4.6321284037,
				"element": "H" 
			},
			{
				"x": -2.4169460271,
				"y": 0.0922846674,
				"z": -6.3856762086,
				"element": "H" 
			},
			{
				"x": -3.6096724981,
				"y": -2.0081406334,
				"z": -5.7731399947,
				"element": "H" 
			},
			{
				"x": -4.1799209295,
				"y": -2.434882161,
				"z": -3.3882350737,
				"element": "H" 
			},
			{
				"x": -3.5929391425,
				"y": -0.7868418194,
				"z": -1.647296031,
				"element": "H" 
			}
		],
		 "valence_orbital": [ 
			{
				"type": "occ",
				"energy": -0.29358,
				"method": "rhf"
			},
			{
				"type": "occ",
				"energy": -0.25864,
				"method": "rhf"
			},
			{
				"type": "occ",
				"energy": -0.2569,
				"method": "rhf"
			},
			{
				"type": "occ",
				"energy": -0.24015,
				"method": "rhf"
			},
			{
				"type": "occ",
				"energy": -0.21876,
				"method": "rhf"
			},
			{
				"type": "unocc",
				"energy": -0.011,
				"method": "rhf"
			},
			{
				"type": "unocc",
				"energy": -0.00754,
				"method": "rhf"
			},
			{
				"type": "unocc",
				"energy": 0.06673,
				"method": "rhf"
			},
			{
				"type": "unocc",
				"energy": 0.07553,
				"method": "rhf"
			},
			{
				"type": "unocc",
				"energy": 0.08662,
				"method": "rhf"
			}
		],
		"cosmo_sigma_profile": { 
			"-0.025": 0.0,
			"-0.024": 0.0,
			"-0.023": 0.0,
			"-0.022": 0.0,
			"-0.021": 0.0,
			"-0.02": 0.0,
			"-0.019": 0.0,
			"-0.018": 0.0,
			"-0.017": 0.0,
			"-0.016": 0.0,
			"-0.015": 0.0,
			"-0.014": 0.417990696031,
			"-0.013": 0.841082303959,
			"-0.012": 1.25600020531,
			"-0.011": 0.813896837081,
			"-0.01": 1.59759501486,
			"-0.009": 2.52314023174,
			"-0.008": 2.48317930358,
			"-0.007": 3.53732094797,
			"-0.006": 8.46287868551,
			"-0.005": 12.5561303543,
			"-0.004": 14.2955555017,
			"-0.003": 22.675801767,
			"-0.002": 35.4409304453,
			"-0.001": 36.6563985185,
			"0.0": 37.6208090447,
			"0.001": 35.1765157509,
			"0.002": 16.7039275524,
			"0.003": 11.9073316936,
			"0.004": 11.7449943529,
			"0.005": 11.1286756703,
			"0.006": 6.22662224577,
			"0.007": 2.31245667014,
			"0.008": 1.30637667279,
			"0.009": 1.18516887755,
			"0.01": 1.48223721569,
			"0.011": 1.46554477989,
			"0.012": 1.34660377759,
			"0.013": 1.89258699015,
			"0.014": 5.09032176861,
			"0.015": 2.92790182417,
			"0.016": 0.0,
			"0.017": 0.0,
			"0.018": 0.0,
			"0.019": 0.0,
			"0.02": 0.0,
			"0.021": 0.0,
			"0.022": 0.0,
			"0.023": 0.0,
			"0.024": 0.0,
			"0.025": 0.0
		}
	}
}
