{
	 "smiles": "FC(F)OC1=C(C=O)C=C(Cl)C=C1Cl", 
	 "Tm": 325.15, 
	 "num_atms": 18, 
	 "gaussian": { 
		 "optdone": 1, 
		 "sigma_profile": "yes", 
		 "theory": "DFT", 
		 "functional": "B3LYP", 
		 "basiset": "6-31G**", 
		 "properties": { 
			 "R2extent": 3774.5641, 
			 "electric_dipole_moment_norm": 2.25414094058, 
			 "electric_quadrupole_moment_norm": 1.92288174103, 
			 "total_energy": -1577.74411852, 
			 "HOMO_LUMO_gap": 0.17216, 
			 "cosmo_polarized_energy": -8.38, 
			 "cosmo_cavitation_energy": 28.15, 
			 "cosmo_dispersion_energy": -19.82, 
			 "cosmo_repulsion_energy": 1.52, 
			 "cosmo_total_nonelectrostatic_energy": 9.85, 
			 "SMD_solvation_energy": 6.28 
		},
		"coords": [
			{
				"x": -2.8693844048,
				"y": 2.1242319708,
				"z": 0.2101345171,
				"element": "F" 
			},
			{
				"x": -1.8565152505,
				"y": 1.477644863,
				"z": 0.8244159819,
				"element": "C" 
			},
			{
				"x": -2.2043781038,
				"y": 0.1761114102,
				"z": 0.9424084996,
				"element": "F" 
			},
			{
				"x": -0.721266765,
				"y": 1.6157259382,
				"z": 0.0239205838,
				"element": "O" 
			},
			{
				"x": -0.0594738781,
				"y": 0.5257117093,
				"z": -0.4667125739,
				"element": "C" 
			},
			{
				"x": 0.7160212545,
				"y": -0.3245345759,
				"z": 0.3496216327,
				"element": "C" 
			},
			{
				"x": 0.8409707525,
				"y": -0.1606767281,
				"z": 1.8199767792,
				"element": "C" 
			},
			{
				"x": 0.2653454494,
				"y": 0.658517336,
				"z": 2.5077498807,
				"element": "O" 
			},
			{
				"x": 1.4495899498,
				"y": -1.3685516831,
				"z": -0.2295487648,
				"element": "C" 
			},
			{
				"x": 1.4225041046,
				"y": -1.5642457138,
				"z": -1.604882297,
				"element": "C" 
			},
			{
				"x": 2.3415115899,
				"y": -2.8719277328,
				"z": -2.3204256442,
				"element": "Cl" 
			},
			{
				"x": 0.6741743726,
				"y": -0.7237381138,
				"z": -2.4267553742,
				"element": "C" 
			},
			{
				"x": -0.0626419611,
				"y": 0.3137113195,
				"z": -1.8530694687,
				"element": "C" 
			},
			{
				"x": -1.0015792716,
				"y": 1.3542865246,
				"z": -2.8875158176,
				"element": "Cl" 
			},
			{
				"x": -1.6757634722,
				"y": 1.9081557492,
				"z": 1.8083398392,
				"element": "H" 
			},
			{
				"x": 1.5535244331,
				"y": -0.880071631,
				"z": 2.2779637894,
				"element": "H" 
			},
			{
				"x": 2.0447252441,
				"y": -2.0196225946,
				"z": 0.4029922325,
				"element": "H" 
			},
			{
				"x": 0.6540359565,
				"y": -0.8717280477,
				"z": -3.4996137958,
				"element": "H" 
			}
		],
		 "valence_orbital": [ 
			{
				"type": "occ",
				"energy": -0.33213,
				"method": "rhf"
			},
			{
				"type": "occ",
				"energy": -0.32672,
				"method": "rhf"
			},
			{
				"type": "occ",
				"energy": -0.28492,
				"method": "rhf"
			},
			{
				"type": "occ",
				"energy": -0.27976,
				"method": "rhf"
			},
			{
				"type": "occ",
				"energy": -0.2632,
				"method": "rhf"
			},
			{
				"type": "unocc",
				"energy": -0.09104,
				"method": "rhf"
			},
			{
				"type": "unocc",
				"energy": -0.04272,
				"method": "rhf"
			},
			{
				"type": "unocc",
				"energy": -0.0076,
				"method": "rhf"
			},
			{
				"type": "unocc",
				"energy": 0.00898,
				"method": "rhf"
			},
			{
				"type": "unocc",
				"energy": 0.03193,
				"method": "rhf"
			}
		],
		"cosmo_sigma_profile": { 
			"-0.025": 0.0,
			"-0.024": 0.0,
			"-0.023": 0.0,
			"-0.022": 0.0,
			"-0.021": 0.0,
			"-0.02": 0.0,
			"-0.019": 0.0,
			"-0.018": 0.0,
			"-0.017": 0.0,
			"-0.016": 0.0,
			"-0.015": 0.0,
			"-0.014": 0.0,
			"-0.013": 0.0,
			"-0.012": 0.0,
			"-0.011": 0.258609077336,
			"-0.01": 3.6191182846,
			"-0.009": 6.32005375638,
			"-0.008": 6.0050424759,
			"-0.007": 6.1778855612,
			"-0.006": 6.72268831911,
			"-0.005": 7.79755479254,
			"-0.004": 6.42455792221,
			"-0.003": 11.2336890728,
			"-0.002": 19.2706634822,
			"-0.001": 25.8156290985,
			"0.0": 18.4435066822,
			"0.001": 15.1017902796,
			"0.002": 19.8244793232,
			"0.003": 40.4341201104,
			"0.004": 19.9492586441,
			"0.005": 4.54162423988,
			"0.006": 4.24230594704,
			"0.007": 2.61705516579,
			"0.008": 1.80440116203,
			"0.009": 1.31293210631,
			"0.01": 1.7976604875,
			"0.011": 1.51236374,
			"0.012": 0.573244737092,
			"0.013": 0.0,
			"0.014": 0.0,
			"0.015": 0.0,
			"0.016": 0.0,
			"0.017": 0.0,
			"0.018": 0.0,
			"0.019": 0.0,
			"0.02": 0.0,
			"0.021": 0.0,
			"0.022": 0.0,
			"0.023": 0.0,
			"0.024": 0.0,
			"0.025": 0.0
		}
	}
}
