{
	 "smiles": "N(C(NC1=CC=CC=C1)=NC1=CC=CC=C1)C1=CC=CC=C1", 
	 "Tm": 418.15, 
	 "num_atms": 39, 
	 "gaussian": { 
		 "optdone": 1, 
		 "sigma_profile": "yes", 
		 "theory": "DFT", 
		 "functional": "B3LYP", 
		 "basiset": "6-31G**", 
		 "properties": { 
			 "R2extent": 8472.4436, 
			 "electric_dipole_moment_norm": 3.2451035022, 
			 "electric_quadrupole_moment_norm": 9.42819767294, 
			 "total_energy": -898.529347419, 
			 "HOMO_LUMO_gap": 0.17627, 
			 "cosmo_polarized_energy": -12.81, 
			 "cosmo_cavitation_energy": 43.1, 
			 "cosmo_dispersion_energy": -30.08, 
			 "cosmo_repulsion_energy": 2.31, 
			 "cosmo_total_nonelectrostatic_energy": 15.33, 
			 "SMD_solvation_energy": 6.46 
		},
		"coords": [
			{
				"x": 0.5764452863,
				"y": -1.2413204535,
				"z": 0.3038574686,
				"element": "N" 
			},
			{
				"x": 0.5920222414,
				"y": 0.1349337221,
				"z": 0.0684326878,
				"element": "C" 
			},
			{
				"x": 1.8329480695,
				"y": 0.6360474411,
				"z": -0.2625395328,
				"element": "N" 
			},
			{
				"x": 2.2600490594,
				"y": 1.9632988354,
				"z": -0.4560367753,
				"element": "C" 
			},
			{
				"x": 1.4358427692,
				"y": 3.0898578654,
				"z": -0.3071038865,
				"element": "C" 
			},
			{
				"x": 1.9736774899,
				"y": 4.3625729988,
				"z": -0.5039761714,
				"element": "C" 
			},
			{
				"x": 3.3127066409,
				"y": 4.5419650372,
				"z": -0.8515187983,
				"element": "C" 
			},
			{
				"x": 4.1283741487,
				"y": 3.4186095373,
				"z": -1.0039429437,
				"element": "C" 
			},
			{
				"x": 3.6102486994,
				"y": 2.1425231269,
				"z": -0.8074565492,
				"element": "C" 
			},
			{
				"x": -0.4657379083,
				"y": 0.8720402119,
				"z": 0.0723117049,
				"element": "N" 
			},
			{
				"x": -1.7038718581,
				"y": 0.3867098831,
				"z": 0.5189466116,
				"element": "C" 
			},
			{
				"x": -2.8226277067,
				"y": 0.5167138579,
				"z": -0.3255882664,
				"element": "C" 
			},
			{
				"x": -4.0866521479,
				"y": 0.11316938,
				"z": 0.0988005746,
				"element": "C" 
			},
			{
				"x": -4.2702759415,
				"y": -0.4185615239,
				"z": 1.3781601306,
				"element": "C" 
			},
			{
				"x": -3.1708575967,
				"y": -0.53898014,
				"z": 2.23029824,
				"element": "C" 
			},
			{
				"x": -1.9005085767,
				"y": -0.1434428664,
				"z": 1.8108708992,
				"element": "C" 
			},
			{
				"x": 1.6219154881,
				"y": -2.1199075257,
				"z": 0.6477828331,
				"element": "C" 
			},
			{
				"x": 1.5291326907,
				"y": -3.4593081662,
				"z": 0.2319499706,
				"element": "C" 
			},
			{
				"x": 2.5136466799,
				"y": -4.3782224926,
				"z": 0.5851473342,
				"element": "C" 
			},
			{
				"x": 3.6198039749,
				"y": -3.9781318836,
				"z": 1.3389084297,
				"element": "C" 
			},
			{
				"x": 3.715575103,
				"y": -2.6494267463,
				"z": 1.7534021869,
				"element": "C" 
			},
			{
				"x": 2.7229954253,
				"y": -1.7241761262,
				"z": 1.4278293206,
				"element": "C" 
			},
			{
				"x": -0.3509141396,
				"y": -1.6412522506,
				"z": 0.2660409914,
				"element": "H" 
			},
			{
				"x": 2.5398704976,
				"y": -0.0625365733,
				"z": -0.4385769067,
				"element": "H" 
			},
			{
				"x": 0.3941726213,
				"y": 2.9523370287,
				"z": -0.0553844103,
				"element": "H" 
			},
			{
				"x": 1.3249345006,
				"y": 5.2262365263,
				"z": -0.3858328537,
				"element": "H" 
			},
			{
				"x": 3.7147169241,
				"y": 5.538794197,
				"z": -1.0045334666,
				"element": "H" 
			},
			{
				"x": 5.1738794293,
				"y": 3.5324986152,
				"z": -1.2762605425,
				"element": "H" 
			},
			{
				"x": 4.2540420134,
				"y": 1.2731724059,
				"z": -0.9259244263,
				"element": "H" 
			},
			{
				"x": -2.6751114041,
				"y": 0.9422062008,
				"z": -1.3134618655,
				"element": "H" 
			},
			{
				"x": -4.9348976234,
				"y": 0.2196546469,
				"z": -0.5722057751,
				"element": "H" 
			},
			{
				"x": -5.2577617266,
				"y": -0.7261518994,
				"z": 1.7090183997,
				"element": "H" 
			},
			{
				"x": -3.3008268713,
				"y": -0.9378843584,
				"z": 3.2329565707,
				"element": "H" 
			},
			{
				"x": -1.0539056282,
				"y": -0.2198955218,
				"z": 2.4868598938,
				"element": "H" 
			},
			{
				"x": 0.6822761002,
				"y": -3.7689231137,
				"z": -0.3746370959,
				"element": "H" 
			},
			{
				"x": 2.4209988862,
				"y": -5.4097409337,
				"z": 0.257625771,
				"element": "H" 
			},
			{
				"x": 4.3919950533,
				"y": -4.6934897192,
				"z": 1.6037077063,
				"element": "H" 
			},
			{
				"x": 4.5599496044,
				"y": -2.3268260043,
				"z": 2.3559289611,
				"element": "H" 
			},
			{
				"x": 2.7878297322,
				"y": -0.7068632191,
				"z": 1.7977435796,
				"element": "H" 
			}
		],
		 "valence_orbital": [ 
			{
				"type": "occ",
				"energy": -0.24421,
				"method": "rhf"
			},
			{
				"type": "occ",
				"energy": -0.24302,
				"method": "rhf"
			},
			{
				"type": "occ",
				"energy": -0.22824,
				"method": "rhf"
			},
			{
				"type": "occ",
				"energy": -0.211,
				"method": "rhf"
			},
			{
				"type": "occ",
				"energy": -0.19751,
				"method": "rhf"
			},
			{
				"type": "unocc",
				"energy": -0.02124,
				"method": "rhf"
			},
			{
				"type": "unocc",
				"energy": -0.01499,
				"method": "rhf"
			},
			{
				"type": "unocc",
				"energy": 0.00431,
				"method": "rhf"
			},
			{
				"type": "unocc",
				"energy": 0.00572,
				"method": "rhf"
			},
			{
				"type": "unocc",
				"energy": 0.00985,
				"method": "rhf"
			}
		],
		"cosmo_sigma_profile": { 
			"-0.025": 0.0,
			"-0.024": 0.0,
			"-0.023": 0.0,
			"-0.022": 0.0,
			"-0.021": 0.0,
			"-0.02": 0.0,
			"-0.019": 0.0,
			"-0.018": 0.0,
			"-0.017": 0.0,
			"-0.016": 0.0,
			"-0.015": 0.0,
			"-0.014": 0.0,
			"-0.013": 0.89550341225,
			"-0.012": 1.49984765637,
			"-0.011": 1.96808872798,
			"-0.01": 2.20872795183,
			"-0.009": 2.78887696346,
			"-0.008": 2.71387337764,
			"-0.007": 2.84460359532,
			"-0.006": 13.264206247,
			"-0.005": 26.6932758902,
			"-0.004": 30.7776689606,
			"-0.003": 31.5340446956,
			"-0.002": 25.5473084359,
			"-0.001": 20.4750178901,
			"0.0": 21.2208226966,
			"0.001": 21.810492532,
			"0.002": 22.9830796524,
			"0.003": 23.5048771407,
			"0.004": 26.2754174788,
			"0.005": 27.7806557684,
			"0.006": 25.3084424947,
			"0.007": 8.5529712077,
			"0.008": 2.30450670724,
			"0.009": 1.14198786886,
			"0.01": 0.773442215753,
			"0.011": 0.744438408184,
			"0.012": 0.144783311565,
			"0.013": 0.0,
			"0.014": 0.0,
			"0.015": 0.0,
			"0.016": 0.0,
			"0.017": 0.0,
			"0.018": 0.0,
			"0.019": 0.0,
			"0.02": 0.0,
			"0.021": 0.0,
			"0.022": 0.0,
			"0.023": 0.0,
			"0.024": 0.0,
			"0.025": 0.0
		}
	}
}
