{
	 "smiles": "CN1C=C(C(O)=O)C(=N1)C(F)(F)F", 
	 "Tm": 484.15, 
	 "num_atms": 18, 
	 "gaussian": { 
		 "optdone": 1, 
		 "sigma_profile": "yes", 
		 "theory": "DFT", 
		 "functional": "B3LYP", 
		 "basiset": "6-31G**", 
		 "properties": { 
			 "R2extent": 3912.5561, 
			 "electric_dipole_moment_norm": 8.35652600367, 
			 "electric_quadrupole_moment_norm": 13.2637826637, 
			 "total_energy": -791.104918868, 
			 "HOMO_LUMO_gap": 0.23781, 
			 "cosmo_polarized_energy": -22.98, 
			 "cosmo_cavitation_energy": 24.56, 
			 "cosmo_dispersion_energy": -17.58, 
			 "cosmo_repulsion_energy": 1.35, 
			 "cosmo_total_nonelectrostatic_energy": 8.32, 
			 "SMD_solvation_energy": 6.05 
		},
		"coords": [
			{
				"x": 2.3679218636,
				"y": 0.1128455161,
				"z": -0.2820526217,
				"element": "C" 
			},
			{
				"x": 1.1833935608,
				"y": -0.1904401239,
				"z": 0.5058803955,
				"element": "N" 
			},
			{
				"x": -0.0885893589,
				"y": -0.3561999273,
				"z": 0.0785980405,
				"element": "C" 
			},
			{
				"x": -0.8664598392,
				"y": -0.6310413607,
				"z": 1.1977997967,
				"element": "C" 
			},
			{
				"x": -2.3204881094,
				"y": -0.8940390781,
				"z": 1.2943449891,
				"element": "C" 
			},
			{
				"x": -3.027539654,
				"y": -0.8685812331,
				"z": 0.1281325411,
				"element": "O" 
			},
			{
				"x": -2.8895730596,
				"y": -1.1209625634,
				"z": 2.3332538297,
				"element": "O" 
			},
			{
				"x": 0.0726325966,
				"y": -0.6032020462,
				"z": 2.2682636294,
				"element": "C" 
			},
			{
				"x": 1.3004093094,
				"y": -0.3377149071,
				"z": 1.8401509048,
				"element": "N" 
			},
			{
				"x": -0.1583427155,
				"y": -0.8279312566,
				"z": 3.7410570976,
				"element": "C" 
			},
			{
				"x": -0.6533372558,
				"y": -2.0565060367,
				"z": 3.9763271436,
				"element": "F" 
			},
			{
				"x": 0.9961116956,
				"y": -0.714698987,
				"z": 4.4241871808,
				"element": "F" 
			},
			{
				"x": -1.0206182819,
				"y": 0.0740113395,
				"z": 4.2437935793,
				"element": "F" 
			},
			{
				"x": 3.1040261928,
				"y": -0.6852522723,
				"z": -0.1638672234,
				"element": "H" 
			},
			{
				"x": 2.0831554336,
				"y": 0.1957030848,
				"z": -1.3316737997,
				"element": "H" 
			},
			{
				"x": 2.8037991161,
				"y": 1.0558028998,
				"z": 0.0550168022,
				"element": "H" 
			},
			{
				"x": -0.3336432249,
				"y": -0.2666766716,
				"z": -0.9711009915,
				"element": "H" 
			},
			{
				"x": -2.4581582696,
				"y": -0.6759163764,
				"z": -0.627811294,
				"element": "H" 
			}
		],
		 "valence_orbital": [ 
			{
				"type": "occ",
				"energy": -0.32325,
				"method": "rhf"
			},
			{
				"type": "occ",
				"energy": -0.32155,
				"method": "rhf"
			},
			{
				"type": "occ",
				"energy": -0.29295,
				"method": "rhf"
			},
			{
				"type": "occ",
				"energy": -0.28093,
				"method": "rhf"
			},
			{
				"type": "occ",
				"energy": -0.27896,
				"method": "rhf"
			},
			{
				"type": "unocc",
				"energy": -0.04115,
				"method": "rhf"
			},
			{
				"type": "unocc",
				"energy": -0.01817,
				"method": "rhf"
			},
			{
				"type": "unocc",
				"energy": 0.03692,
				"method": "rhf"
			},
			{
				"type": "unocc",
				"energy": 0.06361,
				"method": "rhf"
			},
			{
				"type": "unocc",
				"energy": 0.09344,
				"method": "rhf"
			}
		],
		"cosmo_sigma_profile": { 
			"-0.025": 0.0,
			"-0.024": 0.0,
			"-0.023": 0.0,
			"-0.022": 0.0,
			"-0.021": 0.128146171767,
			"-0.02": 0.870221745223,
			"-0.019": 1.06425718641,
			"-0.018": 0.921469558849,
			"-0.017": 1.14676295385,
			"-0.016": 0.838405369334,
			"-0.015": 0.953630871826,
			"-0.014": 1.12301905363,
			"-0.013": 1.50047631711,
			"-0.012": 3.28601539213,
			"-0.011": 2.49611192267,
			"-0.01": 2.15873035048,
			"-0.009": 2.63774820871,
			"-0.008": 4.30517416847,
			"-0.007": 6.81394388649,
			"-0.006": 8.92389228936,
			"-0.005": 8.86300446409,
			"-0.004": 12.6767983874,
			"-0.003": 6.15495664929,
			"-0.002": 7.11736860258,
			"-0.001": 10.8696049916,
			"0.0": 11.8867641401,
			"0.001": 8.26427249868,
			"0.002": 19.2124177408,
			"0.003": 23.0964086038,
			"0.004": 6.61066342309,
			"0.005": 4.88815863245,
			"0.006": 4.57534403992,
			"0.007": 4.14646004299,
			"0.008": 5.03945113585,
			"0.009": 5.07262891895,
			"0.01": 6.78788089757,
			"0.011": 6.47467487505,
			"0.012": 3.95809133978,
			"0.013": 2.02202961982,
			"0.014": 0.0246440378116,
			"0.015": 0.0,
			"0.016": 0.0,
			"0.017": 0.0,
			"0.018": 0.0,
			"0.019": 0.0,
			"0.02": 0.0,
			"0.021": 0.0,
			"0.022": 0.0,
			"0.023": 0.0,
			"0.024": 0.0,
			"0.025": 0.0
		}
	}
}
