{
	 "smiles": "CCOC(=O)C1=C(NC(=O)CCl)SC(C)=C1", 
	 "Tm": 378.15, 
	 "num_atms": 28, 
	 "gaussian": { 
		 "optdone": 1, 
		 "sigma_profile": "yes", 
		 "theory": "DFT", 
		 "functional": "B3LYP", 
		 "basiset": "6-31G**", 
		 "properties": { 
			 "R2extent": 6283.8052, 
			 "electric_dipole_moment_norm": 5.81417502059, 
			 "electric_quadrupole_moment_norm": 18.0062128628, 
			 "total_energy": -1527.11567815, 
			 "HOMO_LUMO_gap": 0.17974, 
			 "cosmo_polarized_energy": -14.09, 
			 "cosmo_cavitation_energy": 35.78, 
			 "cosmo_dispersion_energy": -25.33, 
			 "cosmo_repulsion_energy": 2.01, 
			 "cosmo_total_nonelectrostatic_energy": 12.46, 
			 "SMD_solvation_energy": 7.25 
		},
		"coords": [
			{
				"x": 1.6140037513,
				"y": 3.0928430795,
				"z": 0.7847490639,
				"element": "C" 
			},
			{
				"x": 0.4372960507,
				"y": 2.3445664277,
				"z": 0.1886320463,
				"element": "C" 
			},
			{
				"x": 0.7570617224,
				"y": 0.9333415613,
				"z": 0.2250488166,
				"element": "O" 
			},
			{
				"x": -0.1945863992,
				"y": 0.1022731823,
				"z": -0.2531484087,
				"element": "C" 
			},
			{
				"x": -1.2580030095,
				"y": 0.4963114532,
				"z": -0.7008499764,
				"element": "O" 
			},
			{
				"x": 0.2265732949,
				"y": -1.3127847826,
				"z": -0.155964078,
				"element": "C" 
			},
			{
				"x": -0.390006548,
				"y": -2.3478775153,
				"z": -0.8367154129,
				"element": "C" 
			},
			{
				"x": -1.4667560088,
				"y": -2.3304562074,
				"z": -1.7289281057,
				"element": "N" 
			},
			{
				"x": -2.7980367732,
				"y": -2.0125276377,
				"z": -1.5104678814,
				"element": "C" 
			},
			{
				"x": -3.5754912589,
				"y": -1.9500671547,
				"z": -2.4448682975,
				"element": "O" 
			},
			{
				"x": -3.258828792,
				"y": -1.7821352591,
				"z": -0.0774085983,
				"element": "C" 
			},
			{
				"x": -3.2701344079,
				"y": -3.3281882402,
				"z": 0.876262,
				"element": "Cl" 
			},
			{
				"x": 0.4341334912,
				"y": -3.8626442868,
				"z": -0.5346628659,
				"element": "S" 
			},
			{
				"x": 1.6173565554,
				"y": -3.0934890115,
				"z": 0.4972956755,
				"element": "C" 
			},
			{
				"x": 2.7202621774,
				"y": -3.881563471,
				"z": 1.1376830419,
				"element": "C" 
			},
			{
				"x": 1.3606782465,
				"y": -1.7571054039,
				"z": 0.6020121746,
				"element": "C" 
			},
			{
				"x": 1.7893877191,
				"y": 2.7871104653,
				"z": 1.8202494743,
				"element": "H" 
			},
			{
				"x": 2.5266543323,
				"y": 2.9088882964,
				"z": 0.2107412795,
				"element": "H" 
			},
			{
				"x": 1.4117909879,
				"y": 4.1682735176,
				"z": 0.7737741879,
				"element": "H" 
			},
			{
				"x": 0.246560655,
				"y": 2.6345731052,
				"z": -0.8491556719,
				"element": "H" 
			},
			{
				"x": -0.4867761698,
				"y": 2.5109024593,
				"z": 0.7511359881,
				"element": "H" 
			},
			{
				"x": -1.281816387,
				"y": -2.5468870382,
				"z": -2.7020309306,
				"element": "H" 
			},
			{
				"x": -4.2847825408,
				"y": -1.4247237011,
				"z": -0.1240010836,
				"element": "H" 
			},
			{
				"x": -2.6270522107,
				"y": -1.0713348499,
				"z": 0.4482969095,
				"element": "H" 
			},
			{
				"x": 3.3565713253,
				"y": -3.2127786091,
				"z": 1.7235104172,
				"element": "H" 
			},
			{
				"x": 3.3500855662,
				"y": -4.3800319626,
				"z": 0.3924437205,
				"element": "H" 
			},
			{
				"x": 2.3327484638,
				"y": -4.6538832205,
				"z": 1.8113323205,
				"element": "H" 
			},
			{
				"x": 1.9654061665,
				"y": -1.081405196,
				"z": 1.1937341946,
				"element": "H" 
			}
		],
		 "valence_orbital": [ 
			{
				"type": "occ",
				"energy": -0.28705,
				"method": "rhf"
			},
			{
				"type": "occ",
				"energy": -0.27957,
				"method": "rhf"
			},
			{
				"type": "occ",
				"energy": -0.26767,
				"method": "rhf"
			},
			{
				"type": "occ",
				"energy": -0.25925,
				"method": "rhf"
			},
			{
				"type": "occ",
				"energy": -0.23585,
				"method": "rhf"
			},
			{
				"type": "unocc",
				"energy": -0.05611,
				"method": "rhf"
			},
			{
				"type": "unocc",
				"energy": -0.01556,
				"method": "rhf"
			},
			{
				"type": "unocc",
				"energy": -0.00038,
				"method": "rhf"
			},
			{
				"type": "unocc",
				"energy": 0.0089,
				"method": "rhf"
			},
			{
				"type": "unocc",
				"energy": 0.06024,
				"method": "rhf"
			}
		],
		"cosmo_sigma_profile": { 
			"-0.025": 0.0,
			"-0.024": 0.0,
			"-0.023": 0.0,
			"-0.022": 0.0,
			"-0.021": 0.0,
			"-0.02": 0.0,
			"-0.019": 0.0,
			"-0.018": 0.0,
			"-0.017": 0.0,
			"-0.016": 0.143328503926,
			"-0.015": 1.26769227633,
			"-0.014": 0.848843422195,
			"-0.013": 1.05943794078,
			"-0.012": 1.14483250833,
			"-0.011": 1.02308896481,
			"-0.01": 0.863405897864,
			"-0.009": 1.21658433837,
			"-0.008": 2.66504289975,
			"-0.007": 4.04087489288,
			"-0.006": 9.0656129987,
			"-0.005": 18.8002932014,
			"-0.004": 27.4308871296,
			"-0.003": 24.802969205,
			"-0.002": 25.3597612872,
			"-0.001": 25.169802076,
			"0.0": 23.943325933,
			"0.001": 19.7760658383,
			"0.002": 18.6908902046,
			"0.003": 18.1543974038,
			"0.004": 14.3189421966,
			"0.005": 14.8633765588,
			"0.006": 7.15087998813,
			"0.007": 3.55506365896,
			"0.008": 2.90489723817,
			"0.009": 3.13279129711,
			"0.01": 3.48604680863,
			"0.011": 5.00111317117,
			"0.012": 6.25421831614,
			"0.013": 1.70504536578,
			"0.014": 0.000957854805567,
			"0.015": 0.0,
			"0.016": 0.0,
			"0.017": 0.0,
			"0.018": 0.0,
			"0.019": 0.0,
			"0.02": 0.0,
			"0.021": 0.0,
			"0.022": 0.0,
			"0.023": 0.0,
			"0.024": 0.0,
			"0.025": 0.0
		}
	}
}
