{
	 "smiles": "CC1(C)NC(=O)N(CCC(=O)NN)C1=O", 
	 "Tm": 450.15, 
	 "num_atms": 29, 
	 "gaussian": { 
		 "optdone": 1, 
		 "sigma_profile": "yes", 
		 "theory": "DFT", 
		 "functional": "B3LYP", 
		 "basiset": "6-31G**", 
		 "properties": { 
			 "R2extent": 3098.1745, 
			 "electric_dipole_moment_norm": 0.664091755709, 
			 "electric_quadrupole_moment_norm": 16.9793989888, 
			 "total_energy": -758.00747889, 
			 "HOMO_LUMO_gap": 0.24631, 
			 "cosmo_polarized_energy": -20.78, 
			 "cosmo_cavitation_energy": 31.83, 
			 "cosmo_dispersion_energy": -21.79, 
			 "cosmo_repulsion_energy": 1.7, 
			 "cosmo_total_nonelectrostatic_energy": 11.74, 
			 "SMD_solvation_energy": 6.48 
		},
		"coords": [
			{
				"x": -1.5178028305,
				"y": -0.3741757665,
				"z": 2.4404011572,
				"element": "C" 
			},
			{
				"x": -0.467465477,
				"y": 0.7398184042,
				"z": 2.2758064864,
				"element": "C" 
			},
			{
				"x": -0.1039344491,
				"y": 1.393356378,
				"z": 3.6141295941,
				"element": "C" 
			},
			{
				"x": -0.874164696,
				"y": 1.7261630515,
				"z": 1.2664253055,
				"element": "N" 
			},
			{
				"x": -0.1915454799,
				"y": 1.5881602766,
				"z": 0.0872987196,
				"element": "C" 
			},
			{
				"x": -0.4092048711,
				"y": 2.1241122908,
				"z": -0.9855022568,
				"element": "O" 
			},
			{
				"x": 0.8752646555,
				"y": 0.6986390174,
				"z": 0.348001728,
				"element": "N" 
			},
			{
				"x": 1.7718131798,
				"y": 0.2249019726,
				"z": -0.691993116,
				"element": "C" 
			},
			{
				"x": 1.2678941283,
				"y": -1.082508808,
				"z": -1.3489235328,
				"element": "C" 
			},
			{
				"x": -0.1722293225,
				"y": -0.9264232713,
				"z": -1.8172186238,
				"element": "C" 
			},
			{
				"x": -1.1311278827,
				"y": -1.1141916379,
				"z": -1.0725225274,
				"element": "O" 
			},
			{
				"x": -0.3301369905,
				"y": -0.5083249799,
				"z": -3.1065963609,
				"element": "N" 
			},
			{
				"x": -1.5621603654,
				"y": -0.0082457296,
				"z": -3.5733720947,
				"element": "N" 
			},
			{
				"x": 0.7805576351,
				"y": 0.1367310558,
				"z": 1.604576648,
				"element": "C" 
			},
			{
				"x": 1.5315284264,
				"y": -0.694597193,
				"z": 2.0772708851,
				"element": "O" 
			},
			{
				"x": -2.4411521022,
				"y": 0.0370941174,
				"z": 2.8630084562,
				"element": "H" 
			},
			{
				"x": -1.1382012855,
				"y": -1.1413810943,
				"z": 3.1205132188,
				"element": "H" 
			},
			{
				"x": -1.7376347848,
				"y": -0.8367937332,
				"z": 1.4743500915,
				"element": "H" 
			},
			{
				"x": 0.6031721132,
				"y": 2.2142085509,
				"z": 3.4670556617,
				"element": "H" 
			},
			{
				"x": -0.9995009604,
				"y": 1.7913675987,
				"z": 4.1019857287,
				"element": "H" 
			},
			{
				"x": 0.3525487878,
				"y": 0.6506990111,
				"z": 4.2736383944,
				"element": "H" 
			},
			{
				"x": -1.8109719067,
				"y": 2.1009072095,
				"z": 1.2281972323,
				"element": "H" 
			},
			{
				"x": 2.7521465494,
				"y": 0.0542414721,
				"z": -0.240794198,
				"element": "H" 
			},
			{
				"x": 1.8502768905,
				"y": 1.0263615718,
				"z": -1.4300288302,
				"element": "H" 
			},
			{
				"x": 1.940357509,
				"y": -1.3426721927,
				"z": -2.174542735,
				"element": "H" 
			},
			{
				"x": 1.2949698329,
				"y": -1.8898267843,
				"z": -0.6139289719,
				"element": "H" 
			},
			{
				"x": 0.4680862851,
				"y": -0.2377346866,
				"z": -3.6617219414,
				"element": "H" 
			},
			{
				"x": -2.2428138812,
				"y": -0.7595602196,
				"z": -3.4769706786,
				"element": "H" 
			},
			{
				"x": -1.8516687077,
				"y": 0.7222741184,
				"z": -2.91964344,
				"element": "H" 
			}
		],
		 "valence_orbital": [ 
			{
				"type": "occ",
				"energy": -0.27351,
				"method": "rhf"
			},
			{
				"type": "occ",
				"energy": -0.26673,
				"method": "rhf"
			},
			{
				"type": "occ",
				"energy": -0.26198,
				"method": "rhf"
			},
			{
				"type": "occ",
				"energy": -0.25777,
				"method": "rhf"
			},
			{
				"type": "occ",
				"energy": -0.25219,
				"method": "rhf"
			},
			{
				"type": "unocc",
				"energy": -0.00588,
				"method": "rhf"
			},
			{
				"type": "unocc",
				"energy": 0.01672,
				"method": "rhf"
			},
			{
				"type": "unocc",
				"energy": 0.05088,
				"method": "rhf"
			},
			{
				"type": "unocc",
				"energy": 0.07351,
				"method": "rhf"
			},
			{
				"type": "unocc",
				"energy": 0.08073,
				"method": "rhf"
			}
		],
		"cosmo_sigma_profile": { 
			"-0.025": 0.0,
			"-0.024": 0.0,
			"-0.023": 0.0,
			"-0.022": 0.0,
			"-0.021": 0.0,
			"-0.02": 0.0,
			"-0.019": 0.0,
			"-0.018": 0.0,
			"-0.017": 0.0,
			"-0.016": 0.0247419960579,
			"-0.015": 0.934686581598,
			"-0.014": 2.50483615757,
			"-0.013": 2.6778813789,
			"-0.012": 2.54191020994,
			"-0.011": 3.48345013841,
			"-0.01": 3.39687065059,
			"-0.009": 4.15757540284,
			"-0.008": 5.74633446457,
			"-0.007": 6.92300431453,
			"-0.006": 9.0978483397,
			"-0.005": 15.9239308939,
			"-0.004": 18.7747883109,
			"-0.003": 19.6098386303,
			"-0.002": 18.8379202981,
			"-0.001": 19.606219169,
			"0.0": 17.8214955056,
			"0.001": 9.49558075016,
			"0.002": 9.39820746565,
			"0.003": 9.64533616676,
			"0.004": 9.12965333071,
			"0.005": 8.02980333034,
			"0.006": 5.44902301547,
			"0.007": 6.07854545774,
			"0.008": 4.94012328588,
			"0.009": 4.35065051322,
			"0.01": 5.26449387532,
			"0.011": 6.1767744334,
			"0.012": 9.56539612146,
			"0.013": 5.82700977428,
			"0.014": 1.37861207817,
			"0.015": 0.714403684913,
			"0.016": 0.672340996226,
			"0.017": 0.125454762684,
			"0.018": 0.0,
			"0.019": 0.0,
			"0.02": 0.0,
			"0.021": 0.0,
			"0.022": 0.0,
			"0.023": 0.0,
			"0.024": 0.0,
			"0.025": 0.0
		}
	}
}
