{
	 "smiles": "CC1=CC=CC=C1NN=C1C(=O)CC(C)(C)CC1=O", 
	 "Tm": 382.15, 
	 "num_atms": 37, 
	 "gaussian": { 
		 "optdone": 1, 
		 "sigma_profile": "yes", 
		 "theory": "DFT", 
		 "functional": "B3LYP", 
		 "basiset": "6-31G**", 
		 "properties": { 
			 "R2extent": 6691.9318, 
			 "electric_dipole_moment_norm": 1.9636295119, 
			 "electric_quadrupole_moment_norm": 21.4258013696, 
			 "total_energy": -842.3853118, 
			 "HOMO_LUMO_gap": 0.13571, 
			 "cosmo_polarized_energy": -13.97, 
			 "cosmo_cavitation_energy": 39.04, 
			 "cosmo_dispersion_energy": -27.52, 
			 "cosmo_repulsion_energy": 2.09, 
			 "cosmo_total_nonelectrostatic_energy": 13.61, 
			 "SMD_solvation_energy": 7.0 
		},
		"coords": [
			{
				"x": -2.4270479243,
				"y": -0.0658462918,
				"z": -2.2000894538,
				"element": "C" 
			},
			{
				"x": -3.19874787,
				"y": 0.4299034065,
				"z": -1.000963882,
				"element": "C" 
			},
			{
				"x": -4.5936858968,
				"y": 0.5388870118,
				"z": -1.0872142232,
				"element": "C" 
			},
			{
				"x": -5.38688563,
				"y": 0.9869219767,
				"z": -0.0315786848,
				"element": "C" 
			},
			{
				"x": -4.7864283415,
				"y": 1.348422008,
				"z": 1.1743326271,
				"element": "C" 
			},
			{
				"x": -3.4063431446,
				"y": 1.2551775016,
				"z": 1.3010636477,
				"element": "C" 
			},
			{
				"x": -2.6131275228,
				"y": 0.8029395188,
				"z": 0.2332257717,
				"element": "C" 
			},
			{
				"x": -1.2322235105,
				"y": 0.7602080778,
				"z": 0.5093473386,
				"element": "N" 
			},
			{
				"x": -0.3402040042,
				"y": 0.375821885,
				"z": -0.3493598049,
				"element": "N" 
			},
			{
				"x": 0.9505390021,
				"y": 0.366247773,
				"z": -0.0209622968,
				"element": "C" 
			},
			{
				"x": 1.458303086,
				"y": 0.764690239,
				"z": 1.290910788,
				"element": "C" 
			},
			{
				"x": 0.6981076177,
				"y": 1.1386983682,
				"z": 2.202206812,
				"element": "O" 
			},
			{
				"x": 2.9589678977,
				"y": 0.7465812634,
				"z": 1.5261550922,
				"element": "C" 
			},
			{
				"x": 3.7385905401,
				"y": -0.2802561335,
				"z": 0.6770164863,
				"element": "C" 
			},
			{
				"x": 5.2485410761,
				"y": -0.0511563889,
				"z": 0.8607609188,
				"element": "C" 
			},
			{
				"x": 3.3888217629,
				"y": -1.7171073481,
				"z": 1.1154602873,
				"element": "C" 
			},
			{
				"x": 3.3575049908,
				"y": -0.0609741807,
				"z": -0.8025132613,
				"element": "C" 
			},
			{
				"x": 1.8611822921,
				"y": -0.1119806458,
				"z": -1.0987201105,
				"element": "C" 
			},
			{
				"x": 1.4492473549,
				"y": -0.5029982716,
				"z": -2.1801927574,
				"element": "O" 
			},
			{
				"x": -3.1207614023,
				"y": -0.2896617137,
				"z": -3.0153969678,
				"element": "H" 
			},
			{
				"x": -1.8445724363,
				"y": -0.963270439,
				"z": -1.9756114913,
				"element": "H" 
			},
			{
				"x": -1.6954939284,
				"y": 0.6668898546,
				"z": -2.5514691304,
				"element": "H" 
			},
			{
				"x": -5.0666642999,
				"y": 0.2582821119,
				"z": -2.0244526031,
				"element": "H" 
			},
			{
				"x": -6.4638963347,
				"y": 1.0520841489,
				"z": -0.1521163449,
				"element": "H" 
			},
			{
				"x": -5.3837670021,
				"y": 1.699899397,
				"z": 2.0097745443,
				"element": "H" 
			},
			{
				"x": -2.923908666,
				"y": 1.5333788332,
				"z": 2.2346306114,
				"element": "H" 
			},
			{
				"x": -0.8843556817,
				"y": 1.0445313677,
				"z": 1.4398603971,
				"element": "H" 
			},
			{
				"x": 3.1206329338,
				"y": 0.5978469161,
				"z": 2.5988890991,
				"element": "H" 
			},
			{
				"x": 3.3241880243,
				"y": 1.7588889433,
				"z": 1.2948241535,
				"element": "H" 
			},
			{
				"x": 5.8269564698,
				"y": -0.7616811924,
				"z": 0.2602506415,
				"element": "H" 
			},
			{
				"x": 5.538880061,
				"y": 0.9604681467,
				"z": 0.5554979938,
				"element": "H" 
			},
			{
				"x": 5.5413617371,
				"y": -0.1832532977,
				"z": 1.9084375503,
				"element": "H" 
			},
			{
				"x": 2.3210751314,
				"y": -1.933919881,
				"z": 1.006756475,
				"element": "H" 
			},
			{
				"x": 3.6563032009,
				"y": -1.8787731114,
				"z": 2.165426309,
				"element": "H" 
			},
			{
				"x": 3.9371256295,
				"y": -2.4486936699,
				"z": 0.5125050247,
				"element": "H" 
			},
			{
				"x": 3.8445076532,
				"y": -0.7889582277,
				"z": -1.4585879857,
				"element": "H" 
			},
			{
				"x": 3.7096771348,
				"y": 0.9325620441,
				"z": -1.1201035711,
				"element": "H" 
			}
		],
		 "valence_orbital": [ 
			{
				"type": "occ",
				"energy": -0.2849,
				"method": "rhf"
			},
			{
				"type": "occ",
				"energy": -0.25282,
				"method": "rhf"
			},
			{
				"type": "occ",
				"energy": -0.24874,
				"method": "rhf"
			},
			{
				"type": "occ",
				"energy": -0.23282,
				"method": "rhf"
			},
			{
				"type": "occ",
				"energy": -0.21818,
				"method": "rhf"
			},
			{
				"type": "unocc",
				"energy": -0.08247,
				"method": "rhf"
			},
			{
				"type": "unocc",
				"energy": -0.01687,
				"method": "rhf"
			},
			{
				"type": "unocc",
				"energy": -0.00764,
				"method": "rhf"
			},
			{
				"type": "unocc",
				"energy": 0.00792,
				"method": "rhf"
			},
			{
				"type": "unocc",
				"energy": 0.06667,
				"method": "rhf"
			}
		],
		"cosmo_sigma_profile": { 
			"-0.025": 0.0,
			"-0.024": 0.0,
			"-0.023": 0.0,
			"-0.022": 0.0,
			"-0.021": 0.0,
			"-0.02": 0.0,
			"-0.019": 0.0,
			"-0.018": 0.0,
			"-0.017": 0.0,
			"-0.016": 0.0,
			"-0.015": 0.0,
			"-0.014": 0.0,
			"-0.013": 0.0,
			"-0.012": 0.0,
			"-0.011": 0.0413903716371,
			"-0.01": 1.13605082118,
			"-0.009": 1.47603450097,
			"-0.008": 2.01677879066,
			"-0.007": 3.0381855642,
			"-0.006": 13.8181959499,
			"-0.005": 17.1133381463,
			"-0.004": 26.0451398443,
			"-0.003": 38.6135424247,
			"-0.002": 31.77712236,
			"-0.001": 32.2933198194,
			"0.0": 30.9894566661,
			"0.001": 26.3904632098,
			"0.002": 12.7135161072,
			"0.003": 12.3901264395,
			"0.004": 13.0897239463,
			"0.005": 9.06672503319,
			"0.006": 3.59624730673,
			"0.007": 3.58414769908,
			"0.008": 2.38795582155,
			"0.009": 3.40002659109,
			"0.01": 5.42522023291,
			"0.011": 5.65185757462,
			"0.012": 6.07117401326,
			"0.013": 4.13122686674,
			"0.014": 1.34412386017,
			"0.015": 0.0444047045396,
			"0.016": 0.0,
			"0.017": 0.0,
			"0.018": 0.0,
			"0.019": 0.0,
			"0.02": 0.0,
			"0.021": 0.0,
			"0.022": 0.0,
			"0.023": 0.0,
			"0.024": 0.0,
			"0.025": 0.0
		}
	}
}
