{
	 "smiles": "OC(=O)CCS(=O)(=O)C1=C(Cl)C=CC=C1", 
	 "Tm": 406.15, 
	 "num_atms": 24, 
	 "gaussian": { 
		 "optdone": 1, 
		 "sigma_profile": "yes", 
		 "theory": "DFT", 
		 "functional": "B3LYP", 
		 "basiset": "6-31G**", 
		 "properties": { 
			 "R2extent": 4968.2195, 
			 "electric_dipole_moment_norm": 7.3909118612, 
			 "electric_quadrupole_moment_norm": 34.9426367266, 
			 "total_energy": -1507.59830992, 
			 "HOMO_LUMO_gap": 0.19364, 
			 "cosmo_polarized_energy": -20.64, 
			 "cosmo_cavitation_energy": 30.66, 
			 "cosmo_dispersion_energy": -22.64, 
			 "cosmo_repulsion_energy": 1.72, 
			 "cosmo_total_nonelectrostatic_energy": 9.74, 
			 "SMD_solvation_energy": 5.49 
		},
		"coords": [
			{
				"x": 1.3482795498,
				"y": 4.6711091992,
				"z": -0.5597885251,
				"element": "O" 
			},
			{
				"x": 0.0220149424,
				"y": 4.8551520549,
				"z": -0.6294674562,
				"element": "C" 
			},
			{
				"x": -0.461835524,
				"y": 5.9615301035,
				"z": -0.6776601786,
				"element": "O" 
			},
			{
				"x": -0.8632501314,
				"y": 3.5989750509,
				"z": -0.6373613676,
				"element": "C" 
			},
			{
				"x": -0.5059684296,
				"y": 2.5329078391,
				"z": -1.6878761829,
				"element": "C" 
			},
			{
				"x": 0.6591716526,
				"y": 1.2572605959,
				"z": -1.1136594554,
				"element": "S" 
			},
			{
				"x": 1.7240005675,
				"y": 1.9707773864,
				"z": -0.3593012202,
				"element": "O" 
			},
			{
				"x": 1.0250956979,
				"y": 0.4007190765,
				"z": -2.2437054409,
				"element": "O" 
			},
			{
				"x": -0.2425099999,
				"y": 0.2938288463,
				"z": 0.1300813283,
				"element": "C" 
			},
			{
				"x": -1.3327858766,
				"y": -0.540736795,
				"z": -0.1637335075,
				"element": "C" 
			},
			{
				"x": -2.0021609568,
				"y": -0.683257891,
				"z": -1.7758900855,
				"element": "Cl" 
			},
			{
				"x": -1.929840015,
				"y": -1.287599989,
				"z": 0.8524434481,
				"element": "C" 
			},
			{
				"x": -1.4375202317,
				"y": -1.2121962566,
				"z": 2.1551607573,
				"element": "C" 
			},
			{
				"x": -0.3506593972,
				"y": -0.3905069496,
				"z": 2.4523838182,
				"element": "C" 
			},
			{
				"x": 0.2439291504,
				"y": 0.3605158965,
				"z": 1.4406919658,
				"element": "C" 
			},
			{
				"x": 1.5865094811,
				"y": 3.7222073252,
				"z": -0.4637337888,
				"element": "H" 
			},
			{
				"x": -0.8681752187,
				"y": 3.1603181261,
				"z": 0.3685905111,
				"element": "H" 
			},
			{
				"x": -1.8773037341,
				"y": 3.9536488972,
				"z": -0.8286336806,
				"element": "H" 
			},
			{
				"x": -1.3874999002,
				"y": 1.9915260738,
				"z": -2.0362933163,
				"element": "H" 
			},
			{
				"x": -0.0056855672,
				"y": 2.9517652542,
				"z": -2.5672161121,
				"element": "H" 
			},
			{
				"x": -2.7733227023,
				"y": -1.9253653631,
				"z": 0.6129742056,
				"element": "H" 
			},
			{
				"x": -1.9089399423,
				"y": -1.8011142406,
				"z": 2.9358604836,
				"element": "H" 
			},
			{
				"x": 0.0355598845,
				"y": -0.3327430501,
				"z": 3.4646148729,
				"element": "H" 
			},
			{
				"x": 1.0957967005,
				"y": 0.9998788094,
				"z": 1.6424189269,
				"element": "H" 
			}
		],
		 "valence_orbital": [ 
			{
				"type": "occ",
				"energy": -0.31674,
				"method": "rhf"
			},
			{
				"type": "occ",
				"energy": -0.30381,
				"method": "rhf"
			},
			{
				"type": "occ",
				"energy": -0.30186,
				"method": "rhf"
			},
			{
				"type": "occ",
				"energy": -0.2837,
				"method": "rhf"
			},
			{
				"type": "occ",
				"energy": -0.26304,
				"method": "rhf"
			},
			{
				"type": "unocc",
				"energy": -0.0694,
				"method": "rhf"
			},
			{
				"type": "unocc",
				"energy": -0.04979,
				"method": "rhf"
			},
			{
				"type": "unocc",
				"energy": -0.01119,
				"method": "rhf"
			},
			{
				"type": "unocc",
				"energy": 0.01268,
				"method": "rhf"
			},
			{
				"type": "unocc",
				"energy": 0.04358,
				"method": "rhf"
			}
		],
		"cosmo_sigma_profile": { 
			"-0.025": 0.0,
			"-0.024": 0.0,
			"-0.023": 0.0,
			"-0.022": 0.0,
			"-0.021": 0.0,
			"-0.02": 0.0,
			"-0.019": 0.0,
			"-0.018": 0.0,
			"-0.017": 0.0,
			"-0.016": 0.0,
			"-0.015": 0.0,
			"-0.014": 0.0,
			"-0.013": 0.0,
			"-0.012": 0.0137534185306,
			"-0.011": 0.810581144147,
			"-0.01": 3.12055596041,
			"-0.009": 4.12244692675,
			"-0.008": 12.6644358783,
			"-0.007": 20.0669654137,
			"-0.006": 17.7906667843,
			"-0.005": 13.015035303,
			"-0.004": 12.9673844155,
			"-0.003": 14.0791989603,
			"-0.002": 11.6784454606,
			"-0.001": 17.1280333822,
			"0.0": 17.5117247733,
			"0.001": 17.7433209784,
			"0.002": 12.6619698142,
			"0.003": 8.87725567469,
			"0.004": 5.68086892029,
			"0.005": 4.94583625409,
			"0.006": 3.8221060633,
			"0.007": 5.18386190507,
			"0.008": 6.89070694211,
			"0.009": 6.90509048163,
			"0.01": 11.2617610732,
			"0.011": 9.11104497419,
			"0.012": 6.16231139076,
			"0.013": 3.02347471475,
			"0.014": 0.346883976156,
			"0.015": 0.0,
			"0.016": 0.0,
			"0.017": 0.0,
			"0.018": 0.0,
			"0.019": 0.0,
			"0.02": 0.0,
			"0.021": 0.0,
			"0.022": 0.0,
			"0.023": 0.0,
			"0.024": 0.0,
			"0.0": 0.0
		}
	}
}
