{
	 "smiles": "O=C1OC(=O)C2=C1CC1=C(CC=CC1)C2", 
	 "Tm": 477.15, 
	 "num_atms": 25, 
	 "gaussian": { 
		 "optdone": 1, 
		 "sigma_profile": "yes", 
		 "theory": "DFT", 
		 "functional": "B3LYP", 
		 "basiset": "6-31G**", 
		 "properties": { 
			 "R2extent": 3953.0287, 
			 "electric_dipole_moment_norm": 5.35175169547, 
			 "electric_quadrupole_moment_norm": 14.6712352466, 
			 "total_energy": -688.960651432, 
			 "HOMO_LUMO_gap": 0.14491, 
			 "cosmo_polarized_energy": -11.09, 
			 "cosmo_cavitation_energy": 28.6, 
			 "cosmo_dispersion_energy": -21.25, 
			 "cosmo_repulsion_energy": 1.66, 
			 "cosmo_total_nonelectrostatic_energy": 9.0, 
			 "SMD_solvation_energy": 5.9 
		},
		"coords": [
			{
				"x": -2.4385811133,
				"y": 1.193880965,
				"z": 2.4295319951,
				"element": "O" 
			},
			{
				"x": -2.4143487788,
				"y": 0.1853371775,
				"z": 1.7795421899,
				"element": "C" 
			},
			{
				"x": -3.389142791,
				"y": -0.8077702885,
				"z": 1.9002342657,
				"element": "O" 
			},
			{
				"x": -3.0773572062,
				"y": -1.8423664102,
				"z": 1.0150942657,
				"element": "C" 
			},
			{
				"x": -3.7537253274,
				"y": -2.8284599815,
				"z": 0.9131936725,
				"element": "O" 
			},
			{
				"x": -1.829107161,
				"y": -1.4634295016,
				"z": 0.302572623,
				"element": "C" 
			},
			{
				"x": -1.4376220402,
				"y": -0.2658354811,
				"z": 0.7539248189,
				"element": "C" 
			},
			{
				"x": -0.2268175813,
				"y": 0.4586293374,
				"z": 0.2859629925,
				"element": "C" 
			},
			{
				"x": 0.5235923572,
				"y": -0.3267982292,
				"z": -0.7760502594,
				"element": "C" 
			},
			{
				"x": 0.1303345613,
				"y": -1.5300537171,
				"z": -1.2294462368,
				"element": "C" 
			},
			{
				"x": 0.8971325608,
				"y": -2.2899354364,
				"z": -2.2878404428,
				"element": "C" 
			},
			{
				"x": 2.1287420702,
				"y": -1.5896104845,
				"z": -2.7867423153,
				"element": "C" 
			},
			{
				"x": 2.5184406529,
				"y": -0.3972222559,
				"z": -2.3374797572,
				"element": "C" 
			},
			{
				"x": 1.7657447855,
				"y": 0.3676138289,
				"z": -1.2864388165,
				"element": "C" 
			},
			{
				"x": -1.1124040803,
				"y": -2.2505337433,
				"z": -0.7350525812,
				"element": "C" 
			},
			{
				"x": 0.4339189237,
				"y": 0.675584883,
				"z": 1.1395135989,
				"element": "H" 
			},
			{
				"x": -0.5087035081,
				"y": 1.4506075348,
				"z": -0.0996651676,
				"element": "H" 
			},
			{
				"x": 1.1670635658,
				"y": -3.2847332779,
				"z": -1.8949631142,
				"element": "H" 
			},
			{
				"x": 0.2245728199,
				"y": -2.5099171113,
				"z": -3.1340766022,
				"element": "H" 
			},
			{
				"x": 2.7100293268,
				"y": -2.1026840594,
				"z": -3.5498558038,
				"element": "H" 
			},
			{
				"x": 3.419353812,
				"y": 0.0676722538,
				"z": -2.7320777743,
				"element": "H" 
			},
			{
				"x": 2.4327695398,
				"y": 0.5875330963,
				"z": -0.4358125447,
				"element": "H" 
			},
			{
				"x": 1.4903576112,
				"y": 1.3627045183,
				"z": -1.6747640549,
				"element": "H" 
			},
			{
				"x": -0.8468091528,
				"y": -3.242103486,
				"z": -0.3370005611,
				"element": "H" 
			},
			{
				"x": -1.7892338468,
				"y": -2.4667101313,
				"z": -1.5761043903,
				"element": "H" 
			}
		],
		 "valence_orbital": [ 
			{
				"type": "occ",
				"energy": -0.31174,
				"method": "rhf"
			},
			{
				"type": "occ",
				"energy": -0.29828,
				"method": "rhf"
			},
			{
				"type": "occ",
				"energy": -0.28644,
				"method": "rhf"
			},
			{
				"type": "occ",
				"energy": -0.26246,
				"method": "rhf"
			},
			{
				"type": "occ",
				"energy": -0.24316,
				"method": "rhf"
			},
			{
				"type": "unocc",
				"energy": -0.09825,
				"method": "rhf"
			},
			{
				"type": "unocc",
				"energy": 0.00417,
				"method": "rhf"
			},
			{
				"type": "unocc",
				"energy": 0.01765,
				"method": "rhf"
			},
			{
				"type": "unocc",
				"energy": 0.03074,
				"method": "rhf"
			},
			{
				"type": "unocc",
				"energy": 0.06549,
				"method": "rhf"
			}
		],
		"cosmo_sigma_profile": { 
			"-0.025": 0.0,
			"-0.024": 0.0,
			"-0.023": 0.0,
			"-0.022": 0.0,
			"-0.021": 0.0,
			"-0.02": 0.0,
			"-0.019": 0.0,
			"-0.018": 0.0,
			"-0.017": 0.0,
			"-0.016": 0.0,
			"-0.015": 0.0,
			"-0.014": 0.0,
			"-0.013": 0.0,
			"-0.012": 0.0,
			"-0.011": 0.0,
			"-0.01": 0.0,
			"-0.009": 0.0931492969644,
			"-0.008": 1.42703871767,
			"-0.007": 3.49769746675,
			"-0.006": 15.573577029,
			"-0.005": 20.6900847468,
			"-0.004": 27.2750674399,
			"-0.003": 22.4567593931,
			"-0.002": 23.769273228,
			"-0.001": 17.290394515,
			"0.0": 8.92227595398,
			"0.001": 8.81983805848,
			"0.002": 8.73075287217,
			"0.003": 8.70123633158,
			"0.004": 10.1094951056,
			"0.005": 7.30038128937,
			"0.006": 9.13366548907,
			"0.007": 7.79613795408,
			"0.008": 6.9118553176,
			"0.009": 8.98505338146,
			"0.01": 8.76523021405,
			"0.011": 1.05669680041,
			"0.012": 0.0,
			"0.013": 0.0,
			"0.014": 0.0,
			"0.015": 0.0,
			"0.016": 0.0,
			"0.017": 0.0,
			"0.018": 0.0,
			"0.019": 0.0,
			"0.02": 0.0,
			"0.021": 0.0,
			"0.022": 0.0,
			"0.023": 0.0,
			"0.024": 0.0,
			"0.025": 0.0
		}
	}
}
