{
	 "smiles": "CC(O)C1CCC2C3CCC4CC(O)CCC4(C)C3CCC12C", 
	 "Tm": 518.15, 
	 "num_atms": 59, 
	 "gaussian": { 
		 "optdone": 1, 
		 "sigma_profile": "yes", 
		 "theory": "DFT", 
		 "functional": "B3LYP", 
		 "basiset": "6-31G**", 
		 "properties": { 
			 "R2extent": 8929.5621, 
			 "electric_dipole_moment_norm": 2.81502323436, 
			 "electric_quadrupole_moment_norm": 5.37764016647, 
			 "total_energy": -972.399217454, 
			 "HOMO_LUMO_gap": 0.32373, 
			 "cosmo_polarized_energy": -11.29, 
			 "cosmo_cavitation_energy": 48.5, 
			 "cosmo_dispersion_energy": -33.93, 
			 "cosmo_repulsion_energy": 2.49, 
			 "cosmo_total_nonelectrostatic_energy": 17.06, 
			 "SMD_solvation_energy": 6.36 
		},
		"coords": [
			{
				"x": 5.4215266815,
				"y": 0.4239821967,
				"z": 0.0334888656,
				"element": "C" 
			},
			{
				"x": 4.4205475503,
				"y": 0.5616562077,
				"z": -1.1183548136,
				"element": "C" 
			},
			{
				"x": 5.1056192816,
				"y": 1.1130841308,
				"z": -2.2507627489,
				"element": "O" 
			},
			{
				"x": 3.1520480313,
				"y": 1.3861070863,
				"z": -0.7409125609,
				"element": "C" 
			},
			{
				"x": 2.4565545645,
				"y": 1.9615197826,
				"z": -1.991705368,
				"element": "C" 
			},
			{
				"x": 1.591912357,
				"y": 0.8002431803,
				"z": -2.49487202,
				"element": "C" 
			},
			{
				"x": 1.0307883474,
				"y": 0.132587907,
				"z": -1.21010008,
				"element": "C" 
			},
			{
				"x": -0.4744843896,
				"y": 0.4579851226,
				"z": -0.9967572777,
				"element": "C" 
			},
			{
				"x": -1.3229403966,
				"y": -0.3591977979,
				"z": -1.9918071436,
				"element": "C" 
			},
			{
				"x": -2.8324374746,
				"y": -0.1690342103,
				"z": -1.8035926294,
				"element": "C" 
			},
			{
				"x": -3.2811489368,
				"y": -0.4503534185,
				"z": -0.357071239,
				"element": "C" 
			},
			{
				"x": -3.243242166,
				"y": -1.9614438791,
				"z": -0.0423528614,
				"element": "C" 
			},
			{
				"x": -3.6936976865,
				"y": -2.2780572468,
				"z": 1.3800307429,
				"element": "C" 
			},
			{
				"x": -3.5762677253,
				"y": -3.6890244565,
				"z": 1.553808857,
				"element": "O" 
			},
			{
				"x": -2.8521479094,
				"y": -1.4955058904,
				"z": 2.3909754604,
				"element": "C" 
			},
			{
				"x": -2.9119200006,
				"y": 0.0105893234,
				"z": 2.1034380455,
				"element": "C" 
			},
			{
				"x": -2.4768767085,
				"y": 0.416252997,
				"z": 0.6676766825,
				"element": "C" 
			},
			{
				"x": -2.8694571712,
				"y": 1.9010386688,
				"z": 0.4833667462,
				"element": "C" 
			},
			{
				"x": -0.9344269961,
				"y": 0.1995959536,
				"z": 0.4614865138,
				"element": "C" 
			},
			{
				"x": -0.0677450213,
				"y": 0.9893482916,
				"z": 1.486330597,
				"element": "C" 
			},
			{
				"x": 1.2226914641,
				"y": 1.5727224093,
				"z": 0.8884836639,
				"element": "C" 
			},
			{
				"x": 1.9836900748,
				"y": 0.5916702636,
				"z": -0.0326681707,
				"element": "C" 
			},
			{
				"x": 2.4255666047,
				"y": -0.6244335789,
				"z": 0.803821351,
				"element": "C" 
			},
			{
				"x": 5.0026982805,
				"y": -0.0805926054,
				"z": 0.9057500644,
				"element": "H" 
			},
			{
				"x": 6.2987823252,
				"y": -0.1355017503,
				"z": -0.303824886,
				"element": "H" 
			},
			{
				"x": 5.7571869402,
				"y": 1.4179921013,
				"z": 0.3583008209,
				"element": "H" 
			},
			{
				"x": 4.122537583,
				"y": -0.4347490798,
				"z": -1.4627944345,
				"element": "H" 
			},
			{
				"x": 5.4457642726,
				"y": 1.9798624593,
				"z": -1.9879214383,
				"element": "H" 
			},
			{
				"x": 3.4873314025,
				"y": 2.1993244985,
				"z": -0.0798805257,
				"element": "H" 
			},
			{
				"x": 1.8233272945,
				"y": 2.8099318375,
				"z": -1.7066448696,
				"element": "H" 
			},
			{
				"x": 3.1664732434,
				"y": 2.3156560702,
				"z": -2.7407562823,
				"element": "H" 
			},
			{
				"x": 2.2165430385,
				"y": 0.0962641576,
				"z": -3.0561660131,
				"element": "H" 
			},
			{
				"x": 0.8022162536,
				"y": 1.1311266825,
				"z": -3.1773288982,
				"element": "H" 
			},
			{
				"x": 1.1041542979,
				"y": -0.9591586152,
				"z": -1.3022739161,
				"element": "H" 
			},
			{
				"x": -0.619442305,
				"y": 1.5248645884,
				"z": -1.2239731501,
				"element": "H" 
			},
			{
				"x": -1.045719739,
				"y": -0.1022760737,
				"z": -3.0207779378,
				"element": "H" 
			},
			{
				"x": -1.069547252,
				"y": -1.4212530376,
				"z": -1.8706324796,
				"element": "H" 
			},
			{
				"x": -3.3784585368,
				"y": -0.8278084905,
				"z": -2.4908804163,
				"element": "H" 
			},
			{
				"x": -3.1089871478,
				"y": 0.8548100316,
				"z": -2.0827741407,
				"element": "H" 
			},
			{
				"x": -4.3336132148,
				"y": -0.1402921018,
				"z": -0.2681636932,
				"element": "H" 
			},
			{
				"x": -3.8871582095,
				"y": -2.4968413426,
				"z": -0.7502734207,
				"element": "H" 
			},
			{
				"x": -2.2364118171,
				"y": -2.3753623962,
				"z": -0.1688649813,
				"element": "H" 
			},
			{
				"x": -4.7494889792,
				"y": -1.9706057505,
				"z": 1.4926975801,
				"element": "H" 
			},
			{
				"x": -3.8435552661,
				"y": -3.8973251851,
				"z": 2.4585769801,
				"element": "H" 
			},
			{
				"x": -1.8222527348,
				"y": -1.870852766,
				"z": 2.3454315526,
				"element": "H" 
			},
			{
				"x": -3.211502726,
				"y": -1.6907556501,
				"z": 3.4112855829,
				"element": "H" 
			},
			{
				"x": -3.9488059359,
				"y": 0.3479139138,
				"z": 2.2455130558,
				"element": "H" 
			},
			{
				"x": -2.3183819604,
				"y": 0.5578519802,
				"z": 2.844030697,
				"element": "H" 
			},
			{
				"x": -2.5330027015,
				"y": 2.3184503984,
				"z": -0.4686567114,
				"element": "H" 
			},
			{
				"x": -3.9594804563,
				"y": 2.0075521015,
				"z": 0.5214746192,
				"element": "H" 
			},
			{
				"x": -2.4596262521,
				"y": 2.5308553575,
				"z": 1.2789136747,
				"element": "H" 
			},
			{
				"x": -0.7452628329,
				"y": -0.8677831862,
				"z": 0.6375100285,
				"element": "H" 
			},
			{
				"x": -0.6367435431,
				"y": 1.8179123707,
				"z": 1.9190121822,
				"element": "H" 
			},
			{
				"x": 0.1805424023,
				"y": 0.3355059363,
				"z": 2.3298280377,
				"element": "H" 
			},
			{
				"x": 1.8853346079,
				"y": 1.8965379325,
				"z": 1.7016228522,
				"element": "H" 
			},
			{
				"x": 0.9769481932,
				"y": 2.4787163529,
				"z": 0.3222945461,
				"element": "H" 
			},
			{
				"x": 3.0161644039,
				"y": -0.3266837315,
				"z": 1.6771253218,
				"element": "H" 
			},
			{
				"x": 3.0148471974,
				"y": -1.3376049765,
				"z": 0.2199127134,
				"element": "H" 
			},
			{
				"x": 1.5541374989,
				"y": -1.1706150749,
				"z": 1.1768572729,
				"element": "H" 
			}
		],
		 "valence_orbital": [ 
			{
				"type": "occ",
				"energy": -0.28392,
				"method": "rhf"
			},
			{
				"type": "occ",
				"energy": -0.27333,
				"method": "rhf"
			},
			{
				"type": "occ",
				"energy": -0.26615,
				"method": "rhf"
			},
			{
				"type": "occ",
				"energy": -0.25723,
				"method": "rhf"
			},
			{
				"type": "occ",
				"energy": -0.25444,
				"method": "rhf"
			},
			{
				"type": "unocc",
				"energy": 0.06929,
				"method": "rhf"
			},
			{
				"type": "unocc",
				"energy": 0.07321,
				"method": "rhf"
			},
			{
				"type": "unocc",
				"energy": 0.07831,
				"method": "rhf"
			},
			{
				"type": "unocc",
				"energy": 0.08191,
				"method": "rhf"
			},
			{
				"type": "unocc",
				"energy": 0.09477,
				"method": "rhf"
			}
		],
		"cosmo_sigma_profile": { 
			"-0.025": 0.0,
			"-0.024": 0.0,
			"-0.023": 0.0,
			"-0.022": 0.0,
			"-0.021": 0.0,
			"-0.02": 0.0,
			"-0.019": 0.0,
			"-0.018": 0.0,
			"-0.017": 0.0,
			"-0.016": 0.0,
			"-0.015": 0.434672356158,
			"-0.014": 1.78125502986,
			"-0.013": 1.43658161224,
			"-0.012": 1.82987011144,
			"-0.011": 1.74980065337,
			"-0.01": 2.18573546342,
			"-0.009": 1.49904037858,
			"-0.008": 2.04816604895,
			"-0.007": 1.93958315373,
			"-0.006": 2.36566001462,
			"-0.005": 2.47864355856,
			"-0.004": 4.99090645749,
			"-0.003": 18.1555642107,
			"-0.002": 60.1575099568,
			"-0.001": 75.3157676475,
			"0.0": 65.1580318872,
			"0.001": 54.4417144814,
			"0.002": 31.8553439068,
			"0.003": 5.65550029922,
			"0.004": 2.87754275954,
			"0.005": 2.93221135041,
			"0.006": 2.88188419898,
			"0.007": 1.78500327676,
			"0.008": 3.47145676244,
			"0.009": 1.89316199475,
			"0.01": 2.07498292278,
			"0.011": 3.03222955679,
			"0.012": 2.62457848611,
			"0.013": 2.33554129275,
			"0.014": 3.52802417354,
			"0.015": 3.35681842491,
			"0.016": 0.0289297841706,
			"0.017": 0.0,
			"0.018": 0.0,
			"0.019": 0.0,
			"0.02": 0.0,
			"0.021": 0.0,
			"0.022": 0.0,
			"0.023": 0.0,
			"0.024": 0.0,
			"0.025": 0.0
		}
	}
}
