{
	 "smiles": "CC(C)(C)SSSSC(C)(C)C", 
	 "Tm": 275.45, 
	 "num_atms": 30, 
	 "gaussian": { 
		 "optdone": 1, 
		 "sigma_profile": "yes", 
		 "theory": "DFT", 
		 "functional": "B3LYP", 
		 "basiset": "6-31G**", 
		 "properties": { 
			 "R2extent": 5232.3039, 
			 "electric_dipole_moment_norm": 3.11051077799, 
			 "electric_quadrupole_moment_norm": 15.4809320404, 
			 "total_energy": -1908.49426828, 
			 "HOMO_LUMO_gap": 0.16871, 
			 "cosmo_polarized_energy": -5.87, 
			 "cosmo_cavitation_energy": 36.53, 
			 "cosmo_dispersion_energy": -26.0, 
			 "cosmo_repulsion_energy": 1.91, 
			 "cosmo_total_nonelectrostatic_energy": 12.44, 
			 "SMD_solvation_energy": 4.26 
		},
		"coords": [
			{
				"x": 0.2784109869,
				"y": 3.0802742699,
				"z": -2.2225902507,
				"element": "C" 
			},
			{
				"x": 0.7898013029,
				"y": 3.6251803376,
				"z": -0.8855112017,
				"element": "C" 
			},
			{
				"x": -0.2210620034,
				"y": 3.379770871,
				"z": 0.2383481379,
				"element": "C" 
			},
			{
				"x": 1.1298375477,
				"y": 5.1217204927,
				"z": -0.9976353742,
				"element": "C" 
			},
			{
				"x": 2.4600831377,
				"y": 2.8575497445,
				"z": -0.4577473149,
				"element": "S" 
			},
			{
				"x": 2.2171801063,
				"y": 0.7979297783,
				"z": -0.4742414159,
				"element": "S" 
			},
			{
				"x": 1.9057021323,
				"y": 0.0929657238,
				"z": 1.5223906789,
				"element": "S" 
			},
			{
				"x": -0.1200542834,
				"y": -0.1665949732,
				"z": 1.8970729108,
				"element": "S" 
			},
			{
				"x": -0.5381915496,
				"y": -1.9240730374,
				"z": 1.346251505,
				"element": "C" 
			},
			{
				"x": 0.3040865686,
				"y": -2.9366866089,
				"z": 2.1289862327,
				"element": "C" 
			},
			{
				"x": -0.3309879371,
				"y": -2.0801900215,
				"z": -0.1631963385,
				"element": "C" 
			},
			{
				"x": -2.027127499,
				"y": -2.0503619257,
				"z": 1.7100728581,
				"element": "C" 
			},
			{
				"x": 0.9896535161,
				"y": 3.2745634987,
				"z": -3.0304565368,
				"element": "H" 
			},
			{
				"x": 0.1017441697,
				"y": 2.0022521826,
				"z": -2.169431795,
				"element": "H" 
			},
			{
				"x": -0.6725706849,
				"y": 3.5639947017,
				"z": -2.4769223436,
				"element": "H" 
			},
			{
				"x": 0.149629755,
				"y": 3.7536376654,
				"z": 1.1970749488,
				"element": "H" 
			},
			{
				"x": -0.44726751,
				"y": 2.3160611194,
				"z": 0.350023418,
				"element": "H" 
			},
			{
				"x": -1.1592452458,
				"y": 3.8996687328,
				"z": 0.0071706247,
				"element": "H" 
			},
			{
				"x": 0.2177324163,
				"y": 5.6771531257,
				"z": -1.2443311616,
				"element": "H" 
			},
			{
				"x": 1.8640084526,
				"y": 5.312521952,
				"z": -1.7863234956,
				"element": "H" 
			},
			{
				"x": 1.5196762316,
				"y": 5.5192069422,
				"z": -0.0553353913,
				"element": "H" 
			},
			{
				"x": 0.0299814264,
				"y": -3.9549348748,
				"z": 1.8272264769,
				"element": "H" 
			},
			{
				"x": 0.1404951981,
				"y": -2.8417578709,
				"z": 3.2061566008,
				"element": "H" 
			},
			{
				"x": 1.3708492163,
				"y": -2.8031953791,
				"z": 1.9285763523,
				"element": "H" 
			},
			{
				"x": -0.6385304175,
				"y": -3.08644828,
				"z": -0.4731460712,
				"element": "H" 
			},
			{
				"x": 0.7205427196,
				"y": -1.956528863,
				"z": -0.4369875034,
				"element": "H" 
			},
			{
				"x": -0.9209388661,
				"y": -1.3518215382,
				"z": -0.7264768798,
				"element": "H" 
			},
			{
				"x": -2.1936149122,
				"y": -1.9140150301,
				"z": 2.7831203355,
				"element": "H" 
			},
			{
				"x": -2.6387419974,
				"y": -1.3225723943,
				"z": 1.1678693158,
				"element": "H" 
			},
			{
				"x": -2.3781819777,
				"y": -3.0529703409,
				"z": 1.4402926781,
				"element": "H" 
			}
		],
		 "valence_orbital": [ 
			{
				"type": "occ",
				"energy": -0.32135,
				"method": "rhf"
			},
			{
				"type": "occ",
				"energy": -0.26426,
				"method": "rhf"
			},
			{
				"type": "occ",
				"energy": -0.25356,
				"method": "rhf"
			},
			{
				"type": "occ",
				"energy": -0.24733,
				"method": "rhf"
			},
			{
				"type": "occ",
				"energy": -0.23104,
				"method": "rhf"
			},
			{
				"type": "unocc",
				"energy": -0.06233,
				"method": "rhf"
			},
			{
				"type": "unocc",
				"energy": -0.02355,
				"method": "rhf"
			},
			{
				"type": "unocc",
				"energy": -0.01282,
				"method": "rhf"
			},
			{
				"type": "unocc",
				"energy": 0.03092,
				"method": "rhf"
			},
			{
				"type": "unocc",
				"energy": 0.04123,
				"method": "rhf"
			}
		],
		"cosmo_sigma_profile": { 
			"-0.025": 0.0,
			"-0.024": 0.0,
			"-0.023": 0.0,
			"-0.022": 0.0,
			"-0.021": 0.0,
			"-0.02": 0.0,
			"-0.019": 0.0,
			"-0.018": 0.0,
			"-0.017": 0.0,
			"-0.016": 0.0,
			"-0.015": 0.0,
			"-0.014": 0.0,
			"-0.013": 0.0,
			"-0.012": 0.0,
			"-0.011": 0.0,
			"-0.01": 0.0,
			"-0.009": 0.0,
			"-0.008": 0.0,
			"-0.007": 0.0,
			"-0.006": 0.0,
			"-0.005": 3.46533283807,
			"-0.004": 25.9752947039,
			"-0.003": 32.6998646455,
			"-0.002": 33.3288683571,
			"-0.001": 39.3676165109,
			"0.0": 50.2671539159,
			"0.001": 28.5983796048,
			"0.002": 18.9301713766,
			"0.003": 19.7473005785,
			"0.004": 15.3301820931,
			"0.005": 9.78743560734,
			"0.006": 7.30845364538,
			"0.007": 4.67774084755,
			"0.008": 1.8373877614,
			"0.009": 0.0393746031461,
			"0.01": 0.0,
			"0.011": 0.0,
			"0.012": 0.0,
			"0.013": 0.0,
			"0.014": 0.0,
			"0.015": 0.0,
			"0.016": 0.0,
			"0.017": 0.0,
			"0.018": 0.0,
			"0.019": 0.0,
			"0.02": 0.0,
			"0.021": 0.0,
			"0.022": 0.0,
			"0.023": 0.0,
			"0.024": 0.0,
			"0.025": 0.0
		}
	}
}
