{
	 "smiles": "COC1=C(OCC2=CC=CC=C2)C(Br)=CC(C=O)=C1", 
	 "Tm": 322.15, 
	 "num_atms": 32, 
	 "gaussian": { 
		 "optdone": 1, 
		 "sigma_profile": "yes", 
		 "theory": "DFT", 
		 "functional": "B3LYP", 
		 "basiset": "6-31G**", 
		 "properties": { 
			 "R2extent": 8518.1122, 
			 "electric_dipole_moment_norm": 2.42567333332, 
			 "electric_quadrupole_moment_norm": 12.3600535715, 
			 "total_energy": -3376.47039147, 
			 "HOMO_LUMO_gap": 0.17045, 
			 "cosmo_polarized_energy": -12.36, 
			 "cosmo_cavitation_energy": 39.14, 
			 "cosmo_dispersion_energy": -27.52, 
			 "cosmo_repulsion_energy": 2.11, 
			 "cosmo_total_nonelectrostatic_energy": 13.73, 
			 "SMD_solvation_energy": 7.51 
		},
		"coords": [
			{
				"x": 0.5479460724,
				"y": -0.1171853786,
				"z": -3.3074321512,
				"element": "C" 
			},
			{
				"x": 0.483883763,
				"y": -0.0639013918,
				"z": -1.8863506037,
				"element": "O" 
			},
			{
				"x": 0.8551858709,
				"y": 1.0925833587,
				"z": -1.2739917944,
				"element": "C" 
			},
			{
				"x": 0.7175748849,
				"y": 1.0975052193,
				"z": 0.1425789598,
				"element": "C" 
			},
			{
				"x": 0.2008149871,
				"y": 0.0281485419,
				"z": 0.800336281,
				"element": "O" 
			},
			{
				"x": 1.0024465658,
				"y": -1.1776584693,
				"z": 0.8303344917,
				"element": "C" 
			},
			{
				"x": 0.3515218093,
				"y": -2.1663026606,
				"z": 1.7632069596,
				"element": "C" 
			},
			{
				"x": 0.2480116675,
				"y": -3.5123219564,
				"z": 1.3976235305,
				"element": "C" 
			},
			{
				"x": -0.306719694,
				"y": -4.4462525715,
				"z": 2.2752840369,
				"element": "C" 
			},
			{
				"x": -0.7761955937,
				"y": -4.0366955381,
				"z": 3.5234132426,
				"element": "C" 
			},
			{
				"x": -0.6854247335,
				"y": -2.6911928622,
				"z": 3.8904251725,
				"element": "C" 
			},
			{
				"x": -0.1213495918,
				"y": -1.7612407596,
				"z": 3.018533868,
				"element": "C" 
			},
			{
				"x": 1.0554678158,
				"y": 2.2607512588,
				"z": 0.8435758653,
				"element": "C" 
			},
			{
				"x": 0.8747502033,
				"y": 2.2944870481,
				"z": 2.7413303635,
				"element": "Br" 
			},
			{
				"x": 1.5178036906,
				"y": 3.3997066363,
				"z": 0.1866709929,
				"element": "C" 
			},
			{
				"x": 1.6579874787,
				"y": 3.3734158956,
				"z": -1.2007483594,
				"element": "C" 
			},
			{
				"x": 2.1551582058,
				"y": 4.57235775,
				"z": -1.9095998634,
				"element": "C" 
			},
			{
				"x": 2.311350571,
				"y": 4.6435203228,
				"z": -3.1143961725,
				"element": "O" 
			},
			{
				"x": 1.3276760924,
				"y": 2.2215505089,
				"z": -1.9324097791,
				"element": "C" 
			},
			{
				"x": 1.5752683939,
				"y": 0.0122803538,
				"z": -3.6688827201,
				"element": "H" 
			},
			{
				"x": -0.0946899695,
				"y": 0.6448072704,
				"z": -3.7639123223,
				"element": "H" 
			},
			{
				"x": 0.1877473712,
				"y": -1.108513469,
				"z": -3.5841594964,
				"element": "H" 
			},
			{
				"x": 2.0077646475,
				"y": -0.9099249447,
				"z": 1.1845401916,
				"element": "H" 
			},
			{
				"x": 1.08972319,
				"y": -1.5907569956,
				"z": -0.1781153581,
				"element": "H" 
			},
			{
				"x": 0.6012734384,
				"y": -3.8325066796,
				"z": 0.4203268938,
				"element": "H" 
			},
			{
				"x": -0.3804098363,
				"y": -5.4888240804,
				"z": 1.9791359791,
				"element": "H" 
			},
			{
				"x": -1.2143372875,
				"y": -4.7597572612,
				"z": 4.2055303204,
				"element": "H" 
			},
			{
				"x": -1.054171512,
				"y": -2.3665182622,
				"z": 4.8594039713,
				"element": "H" 
			},
			{
				"x": -0.0536523527,
				"y": -0.7144474406,
				"z": 3.296894982,
				"element": "H" 
			},
			{
				"x": 1.7722600763,
				"y": 4.2898897357,
				"z": 0.7522182997,
				"element": "H" 
			},
			{
				"x": 2.3863413782,
				"y": 5.4373212545,
				"z": -1.2499644499,
				"element": "H" 
			},
			{
				"x": 1.445092397,
				"y": 2.2560755667,
				"z": -3.0085013319,
				"element": "H" 
			}
		],
		 "valence_orbital": [ 
			{
				"type": "occ",
				"energy": -0.26007,
				"method": "rhf"
			},
			{
				"type": "occ",
				"energy": -0.25076,
				"method": "rhf"
			},
			{
				"type": "occ",
				"energy": -0.2481,
				"method": "rhf"
			},
			{
				"type": "occ",
				"energy": -0.24462,
				"method": "rhf"
			},
			{
				"type": "occ",
				"energy": -0.238,
				"method": "rhf"
			},
			{
				"type": "unocc",
				"energy": -0.06755,
				"method": "rhf"
			},
			{
				"type": "unocc",
				"energy": -0.01485,
				"method": "rhf"
			},
			{
				"type": "unocc",
				"energy": -0.00784,
				"method": "rhf"
			},
			{
				"type": "unocc",
				"energy": -0.00111,
				"method": "rhf"
			},
			{
				"type": "unocc",
				"energy": 0.00185,
				"method": "rhf"
			}
		],
		"cosmo_sigma_profile": { 
			"-0.025": 0.0,
			"-0.024": 0.0,
			"-0.023": 0.0,
			"-0.022": 0.0,
			"-0.021": 0.0,
			"-0.02": 0.0,
			"-0.019": 0.0,
			"-0.018": 0.0,
			"-0.017": 0.0,
			"-0.016": 0.0,
			"-0.015": 0.0,
			"-0.014": 0.0,
			"-0.013": 0.0,
			"-0.012": 0.0,
			"-0.011": 0.0,
			"-0.01": 0.0,
			"-0.009": 0.785317649565,
			"-0.008": 3.14408673365,
			"-0.007": 6.75903990868,
			"-0.006": 20.0044272729,
			"-0.005": 26.7727782064,
			"-0.004": 27.2303748858,
			"-0.003": 26.7659298914,
			"-0.002": 19.406098346,
			"-0.001": 20.4047942815,
			"0.0": 23.7911333814,
			"0.001": 29.8329555223,
			"0.002": 24.4093298593,
			"0.003": 16.5168510531,
			"0.004": 19.862507885,
			"0.005": 15.4265850657,
			"0.006": 10.8950537632,
			"0.007": 4.13754629701,
			"0.008": 4.70276660585,
			"0.009": 4.65995886219,
			"0.01": 3.8557027714,
			"0.011": 4.15405344751,
			"0.012": 2.51841142986,
			"0.013": 0.46729952724,
			"0.014": 0.0,
			"0.015": 0.0,
			"0.016": 0.0,
			"0.017": 0.0,
			"0.018": 0.0,
			"0.019": 0.0,
			"0.02": 0.0,
			"0.021": 0.0,
			"0.022": 0.0,
			"0.023": 0.0,
			"0.024": 0.0,
			"0.025": 0.0
		}
	}
}
