{
	 "smiles": "CCOC(=O)C(=NNC1=CC=CC=C1)C#N", 
	 "Tm": 553.15, 
	 "num_atms": 27, 
	 "gaussian": { 
		 "optdone": 1, 
		 "sigma_profile": "yes", 
		 "theory": "DFT", 
		 "functional": "B3LYP", 
		 "basiset": "6-31G**", 
		 "properties": { 
			 "R2extent": 6085.7482, 
			 "electric_dipole_moment_norm": 5.24943093487, 
			 "electric_quadrupole_moment_norm": 25.8744823705, 
			 "total_energy": -740.459943706, 
			 "HOMO_LUMO_gap": 0.14458, 
			 "cosmo_polarized_energy": -15.32, 
			 "cosmo_cavitation_energy": 33.89, 
			 "cosmo_dispersion_energy": -23.48, 
			 "cosmo_repulsion_energy": 1.88, 
			 "cosmo_total_nonelectrostatic_energy": 12.28, 
			 "SMD_solvation_energy": 7.84 
		},
		"coords": [
			{
				"x": 2.7621016485,
				"y": 2.4696600139,
				"z": 1.8589813306,
				"element": "C" 
			},
			{
				"x": 2.6913059152,
				"y": 1.292322595,
				"z": 2.8119703718,
				"element": "C" 
			},
			{
				"x": 1.9017213371,
				"y": 0.2629846904,
				"z": 2.1685077617,
				"element": "O" 
			},
			{
				"x": 1.737138165,
				"y": -0.8630762286,
				"z": 2.8801882436,
				"element": "C" 
			},
			{
				"x": 2.194127749,
				"y": -1.0603850676,
				"z": 3.9893655476,
				"element": "O" 
			},
			{
				"x": 0.9213126366,
				"y": -1.879815944,
				"z": 2.1703671653,
				"element": "C" 
			},
			{
				"x": 0.4407521417,
				"y": -1.6437268438,
				"z": 0.9758577448,
				"element": "N" 
			},
			{
				"x": -0.2768961571,
				"y": -2.5511221388,
				"z": 0.3629388217,
				"element": "N" 
			},
			{
				"x": -0.8107330637,
				"y": -2.3351032745,
				"z": -0.9219411999,
				"element": "C" 
			},
			{
				"x": -0.5985516643,
				"y": -1.1331569596,
				"z": -1.6088299974,
				"element": "C" 
			},
			{
				"x": -1.1496953697,
				"y": -0.9728982006,
				"z": -2.8775146105,
				"element": "C" 
			},
			{
				"x": -1.9055322373,
				"y": -1.9911110093,
				"z": -3.4658815543,
				"element": "C" 
			},
			{
				"x": -2.1100947879,
				"y": -3.1844628504,
				"z": -2.7713334012,
				"element": "C" 
			},
			{
				"x": -1.5660565951,
				"y": -3.3622171817,
				"z": -1.5007995617,
				"element": "C" 
			},
			{
				"x": 0.6774905559,
				"y": -3.127025489,
				"z": 2.8348413716,
				"element": "C" 
			},
			{
				"x": 0.3857626159,
				"y": -4.1850984964,
				"z": 3.2261263144,
				"element": "N" 
			},
			{
				"x": 3.2344052065,
				"y": 2.1813882,
				"z": 0.9155950539,
				"element": "H" 
			},
			{
				"x": 3.3527593737,
				"y": 3.2737982342,
				"z": 2.3086494573,
				"element": "H" 
			},
			{
				"x": 1.7628011424,
				"y": 2.8568402621,
				"z": 1.6407190751,
				"element": "H" 
			},
			{
				"x": 2.2170446182,
				"y": 1.5575338425,
				"z": 3.7620289967,
				"element": "H" 
			},
			{
				"x": 3.6812808065,
				"y": 0.8854161849,
				"z": 3.0405289338,
				"element": "H" 
			},
			{
				"x": -0.4619426932,
				"y": -3.4462536374,
				"z": 0.8193113685,
				"element": "H" 
			},
			{
				"x": -0.0112984809,
				"y": -0.3505194966,
				"z": -1.1438292929,
				"element": "H" 
			},
			{
				"x": -0.9859294908,
				"y": -0.041397052,
				"z": -3.4112935141,
				"element": "H" 
			},
			{
				"x": -2.3302288534,
				"y": -1.8549684888,
				"z": -4.4554032716,
				"element": "H" 
			},
			{
				"x": -2.6951417026,
				"y": -3.9834510095,
				"z": -3.2165289979,
				"element": "H" 
			},
			{
				"x": -1.7256028162,
				"y": -4.2918546541,
				"z": -0.9601221569,
				"element": "H" 
			}
		],
		 "valence_orbital": [ 
			{
				"type": "occ",
				"energy": -0.30451,
				"method": "rhf"
			},
			{
				"type": "occ",
				"energy": -0.29736,
				"method": "rhf"
			},
			{
				"type": "occ",
				"energy": -0.28138,
				"method": "rhf"
			},
			{
				"type": "occ",
				"energy": -0.26881,
				"method": "rhf"
			},
			{
				"type": "occ",
				"energy": -0.2288,
				"method": "rhf"
			},
			{
				"type": "unocc",
				"energy": -0.08422,
				"method": "rhf"
			},
			{
				"type": "unocc",
				"energy": -0.01855,
				"method": "rhf"
			},
			{
				"type": "unocc",
				"energy": 0.00219,
				"method": "rhf"
			},
			{
				"type": "unocc",
				"energy": 0.01439,
				"method": "rhf"
			},
			{
				"type": "unocc",
				"energy": 0.0174,
				"method": "rhf"
			}
		],
		"cosmo_sigma_profile": { 
			"-0.025": 0.0,
			"-0.024": 0.0,
			"-0.023": 0.0,
			"-0.022": 0.0,
			"-0.021": 0.0,
			"-0.02": 0.0,
			"-0.019": 0.0,
			"-0.018": 0.0,
			"-0.017": 0.0,
			"-0.016": 0.0127396889279,
			"-0.015": 0.791252251845,
			"-0.014": 1.5213814804,
			"-0.013": 1.11004404361,
			"-0.012": 0.957932136496,
			"-0.011": 1.81805447458,
			"-0.01": 1.67415680003,
			"-0.009": 2.00695779913,
			"-0.008": 2.16514623941,
			"-0.007": 3.86614912239,
			"-0.006": 12.1700522989,
			"-0.005": 18.5532415525,
			"-0.004": 28.659605697,
			"-0.003": 24.2413336796,
			"-0.002": 21.3943175019,
			"-0.001": 18.7133986952,
			"0.0": 20.5725546787,
			"0.001": 15.5051785648,
			"0.002": 13.7344534448,
			"0.003": 13.7757339398,
			"0.004": 16.4425525089,
			"0.005": 11.1910227252,
			"0.006": 5.65285991813,
			"0.007": 6.24247909814,
			"0.008": 5.9216940543,
			"0.009": 5.61155319345,
			"0.01": 5.8531739958,
			"0.011": 7.28393113038,
			"0.012": 4.27469774227,
			"0.013": 0.0574980343626,
			"0.014": 0.0,
			"0.015": 0.0,
			"0.016": 0.0,
			"0.017": 0.0,
			"0.018": 0.0,
			"0.019": 0.0,
			"0.02": 0.0,
			"0.021": 0.0,
			"0.022": 0.0,
			"0.023": 0.0,
			"0.024": 0.0,
			"0.025": 0.0
		}
	}
}
