{
	 "smiles": "CC(=O)O[C@@H]1CO[C@@H]([C@@H](OC(C)=O)[C@@H]1OC(C)=O)S(=O)(=O)C1=CC=CC=C1", 
	 "Tm": 419.15, 
	 "num_atms": 47, 
	 "gaussian": { 
		 "optdone": 1, 
		 "sigma_profile": "yes", 
		 "theory": "DFT", 
		 "functional": "B3LYP", 
		 "basiset": "6-31G**", 
		 "properties": { 
			 "R2extent": 10850.6736, 
			 "electric_dipole_moment_norm": 2.39025761373, 
			 "electric_quadrupole_moment_norm": 27.704237079, 
			 "total_energy": -1735.02455763, 
			 "HOMO_LUMO_gap": 0.21795, 
			 "cosmo_polarized_energy": -22.37, 
			 "cosmo_cavitation_energy": 51.95, 
			 "cosmo_dispersion_energy": -34.02, 
			 "cosmo_repulsion_energy": 2.6, 
			 "cosmo_total_nonelectrostatic_energy": 20.52, 
			 "SMD_solvation_energy": 11.37 
		},
		"coords": [
			{
				"x": 4.2021092826,
				"y": -0.3504445704,
				"z": -3.4588889832,
				"element": "C" 
			},
			{
				"x": 2.7874597863,
				"y": 0.098219575,
				"z": -3.1889297313,
				"element": "C" 
			},
			{
				"x": 2.1390324439,
				"y": 0.8529785167,
				"z": -3.8781823383,
				"element": "O" 
			},
			{
				"x": 2.318719697,
				"y": -0.4673994606,
				"z": -2.0429626651,
				"element": "O" 
			},
			{
				"x": 0.9663388408,
				"y": -0.1467635606,
				"z": -1.6747098806,
				"element": "C" 
			},
			{
				"x": 0.9327482686,
				"y": 1.1387458293,
				"z": -0.8462893952,
				"element": "C" 
			},
			{
				"x": -0.4213220735,
				"y": 1.4282948861,
				"z": -0.443713061,
				"element": "O" 
			},
			{
				"x": -1.0993839669,
				"y": 0.4255518095,
				"z": 0.2364829693,
				"element": "C" 
			},
			{
				"x": -1.0106707616,
				"y": -0.9782664247,
				"z": -0.3907739272,
				"element": "C" 
			},
			{
				"x": -1.8392076128,
				"y": -1.0157958469,
				"z": -1.5754059399,
				"element": "O" 
			},
			{
				"x": -3.1775878451,
				"y": -1.1656174836,
				"z": -1.3770858037,
				"element": "C" 
			},
			{
				"x": -3.9015963043,
				"y": -1.2904580551,
				"z": -2.6930299235,
				"element": "C" 
			},
			{
				"x": -3.6867296559,
				"y": -1.1894026045,
				"z": -0.2783637693,
				"element": "O" 
			},
			{
				"x": 0.4062590021,
				"y": -1.3166220388,
				"z": -0.8762614185,
				"element": "C" 
			},
			{
				"x": 1.2427121748,
				"y": -1.5116389679,
				"z": 0.2721017688,
				"element": "O" 
			},
			{
				"x": 1.2458653812,
				"y": -2.7669876353,
				"z": 0.8176753236,
				"element": "C" 
			},
			{
				"x": 2.0691671152,
				"y": -2.7956523276,
				"z": 2.0748339289,
				"element": "C" 
			},
			{
				"x": 0.6363236396,
				"y": -3.6935460514,
				"z": 0.3349181049,
				"element": "O" 
			},
			{
				"x": -0.6232199844,
				"y": 0.3940393284,
				"z": 2.0829279904,
				"element": "S" 
			},
			{
				"x": 0.6773154184,
				"y": 1.0660629021,
				"z": 2.2558266971,
				"element": "O" 
			},
			{
				"x": -0.8416308046,
				"y": -0.9810033501,
				"z": 2.5822830153,
				"element": "O" 
			},
			{
				"x": -1.8859598751,
				"y": 1.4438879175,
				"z": 2.823610189,
				"element": "C" 
			},
			{
				"x": -3.1469736197,
				"y": 0.90334989,
				"z": 3.0885795275,
				"element": "C" 
			},
			{
				"x": -4.1217349543,
				"y": 1.7246415821,
				"z": 3.6544999156,
				"element": "C" 
			},
			{
				"x": -3.8288887478,
				"y": 3.0589278471,
				"z": 3.9510333601,
				"element": "C" 
			},
			{
				"x": -2.5614291664,
				"y": 3.5815340866,
				"z": 3.6842730808,
				"element": "C" 
			},
			{
				"x": -1.5772366691,
				"y": 2.7731521653,
				"z": 3.1131858499,
				"element": "C" 
			},
			{
				"x": 4.2372589314,
				"y": -1.439541724,
				"z": -3.5555182689,
				"element": "H" 
			},
			{
				"x": 4.5621969049,
				"y": 0.1176053141,
				"z": -4.3742743764,
				"element": "H" 
			},
			{
				"x": 4.8475608539,
				"y": -0.077663277,
				"z": -2.618913777,
				"element": "H" 
			},
			{
				"x": 0.3650780551,
				"y": -0.0116309808,
				"z": -2.5770701585,
				"element": "H" 
			},
			{
				"x": 1.5824573766,
				"y": 1.0543681131,
				"z": 0.0276302066,
				"element": "H" 
			},
			{
				"x": 1.2357500524,
				"y": 1.9893623191,
				"z": -1.4579316994,
				"element": "H" 
			},
			{
				"x": -2.1498798464,
				"y": 0.7188398434,
				"z": 0.2763105407,
				"element": "H" 
			},
			{
				"x": -1.3608513968,
				"y": -1.7262732379,
				"z": 0.3209205954,
				"element": "H" 
			},
			{
				"x": -3.5718230806,
				"y": -2.1952556156,
				"z": -3.2125358298,
				"element": "H" 
			},
			{
				"x": -3.6637555964,
				"y": -0.4388901545,
				"z": -3.3366291356,
				"element": "H" 
			},
			{
				"x": -4.9747423752,
				"y": -1.3384371985,
				"z": -2.5122571947,
				"element": "H" 
			},
			{
				"x": 0.3753788126,
				"y": -2.2332925585,
				"z": -1.4686161079,
				"element": "H" 
			},
			{
				"x": 1.4795855051,
				"y": -2.3289640149,
				"z": 2.8705605764,
				"element": "H" 
			},
			{
				"x": 2.2910003579,
				"y": -3.8290047908,
				"z": 2.3408101037,
				"element": "H" 
			},
			{
				"x": 2.9877496646,
				"y": -2.2173174665,
				"z": 1.9549205999,
				"element": "H" 
			},
			{
				"x": -3.3526443747,
				"y": -0.1372912988,
				"z": 2.8603728226,
				"element": "H" 
			},
			{
				"x": -5.1067740505,
				"y": 1.3214974473,
				"z": 3.8687647266,
				"element": "H" 
			},
			{
				"x": -4.5915259253,
				"y": 3.6925359998,
				"z": 4.3944267973,
				"element": "H" 
			},
			{
				"x": -2.3372088065,
				"y": 4.6169510915,
				"z": 3.9221269866,
				"element": "H" 
			},
			{
				"x": -0.5820900709,
				"y": 3.1504142314,
				"z": 2.9049677085,
				"element": "H" 
			}
		],
		 "valence_orbital": [ 
			{
				"type": "occ",
				"energy": -0.2816,
				"method": "rhf"
			},
			{
				"type": "occ",
				"energy": -0.27401,
				"method": "rhf"
			},
			{
				"type": "occ",
				"energy": -0.27318,
				"method": "rhf"
			},
			{
				"type": "occ",
				"energy": -0.26987,
				"method": "rhf"
			},
			{
				"type": "occ",
				"energy": -0.25805,
				"method": "rhf"
			},
			{
				"type": "unocc",
				"energy": -0.0401,
				"method": "rhf"
			},
			{
				"type": "unocc",
				"energy": -0.02115,
				"method": "rhf"
			},
			{
				"type": "unocc",
				"energy": -0.00534,
				"method": "rhf"
			},
			{
				"type": "unocc",
				"energy": 0.00216,
				"method": "rhf"
			},
			{
				"type": "unocc",
				"energy": 0.01126,
				"method": "rhf"
			}
		],
		"cosmo_sigma_profile": { 
			"-0.025": 0.0,
			"-0.024": 0.0,
			"-0.023": 0.0,
			"-0.022": 0.0,
			"-0.021": 0.0,
			"-0.02": 0.0,
			"-0.019": 0.0,
			"-0.018": 0.0,
			"-0.017": 0.0,
			"-0.016": 0.0,
			"-0.015": 0.0,
			"-0.014": 0.0,
			"-0.013": 0.0,
			"-0.012": 0.0,
			"-0.011": 0.0,
			"-0.01": 0.0,
			"-0.009": 0.419081956963,
			"-0.008": 1.97383999097,
			"-0.007": 17.6153446623,
			"-0.006": 32.2152959606,
			"-0.005": 34.6267142679,
			"-0.004": 36.5128521228,
			"-0.003": 38.400306087,
			"-0.002": 38.1959651205,
			"-0.001": 24.3109332566,
			"0.0": 22.5912121545,
			"0.001": 22.9803072255,
			"0.002": 25.051434944,
			"0.003": 22.1310740969,
			"0.004": 12.618052489,
			"0.005": 11.994899057,
			"0.006": 11.1070004415,
			"0.007": 9.47285093783,
			"0.008": 9.08928395394,
			"0.009": 9.66469569027,
			"0.01": 11.8722541201,
			"0.011": 13.078054337,
			"0.012": 5.60773084346,
			"0.013": 0.421139259322,
			"0.014": 0.0,
			"0.015": 0.0,
			"0.016": 0.0,
			"0.017": 0.0,
			"0.018": 0.0,
			"0.019": 0.0,
			"0.02": 0.0,
			"0.021": 0.0,
			"0.022": 0.0,
			"0.023": 0.0,
			"0.024": 0.0,
			"0.025": 0.0
		}
	}
}
