{
	 "smiles": "CC(C)C1=CC=C(C=C1)S(=O)(=O)CC1=C(OC=C1)C(O)=O", 
	 "Tm": 430.15, 
	 "num_atms": 37, 
	 "gaussian": { 
		 "optdone": 1, 
		 "sigma_profile": "yes", 
		 "theory": "DFT", 
		 "functional": "B3LYP", 
		 "basiset": "6-31G**", 
		 "properties": { 
			 "R2extent": 10074.372, 
			 "electric_dipole_moment_norm": 6.33848403721, 
			 "electric_quadrupole_moment_norm": 16.7536586506, 
			 "total_energy": -1355.48393121, 
			 "HOMO_LUMO_gap": 0.1914, 
			 "cosmo_polarized_energy": -22.14, 
			 "cosmo_cavitation_energy": 43.05, 
			 "cosmo_dispersion_energy": -29.78, 
			 "cosmo_repulsion_energy": 2.26, 
			 "cosmo_total_nonelectrostatic_energy": 15.53, 
			 "SMD_solvation_energy": 8.95 
		},
		"coords": [
			{
				"x": -4.368279284,
				"y": 1.2109020758,
				"z": 1.5223091876,
				"element": "C" 
			},
			{
				"x": -4.3622449394,
				"y": 0.6966194945,
				"z": 0.0700580065,
				"element": "C" 
			},
			{
				"x": -5.3395344804,
				"y": -0.4812378753,
				"z": -0.1069603675,
				"element": "C" 
			},
			{
				"x": -2.9579005299,
				"y": 0.3377013031,
				"z": -0.3952934962,
				"element": "C" 
			},
			{
				"x": -2.369955992,
				"y": 1.0158013868,
				"z": -1.4722043837,
				"element": "C" 
			},
			{
				"x": -1.0858919436,
				"y": 0.6991173214,
				"z": -1.9150040822,
				"element": "C" 
			},
			{
				"x": -0.3779080743,
				"y": -0.312297849,
				"z": -1.2661205291,
				"element": "C" 
			},
			{
				"x": -0.9394876899,
				"y": -1.0132847112,
				"z": -0.1960047761,
				"element": "C" 
			},
			{
				"x": -2.2226688492,
				"y": -0.6823443107,
				"z": 0.2313489914,
				"element": "C" 
			},
			{
				"x": 1.2806693603,
				"y": -0.7265849565,
				"z": -1.8177959134,
				"element": "S" 
			},
			{
				"x": 1.5564137948,
				"y": -2.1208073419,
				"z": -1.4402195721,
				"element": "O" 
			},
			{
				"x": 1.4228874812,
				"y": -0.2720171287,
				"z": -3.2130183644,
				"element": "O" 
			},
			{
				"x": 2.3380048097,
				"y": 0.3685908463,
				"z": -0.7785595312,
				"element": "C" 
			},
			{
				"x": 3.7834774042,
				"y": 0.1325508923,
				"z": -1.0582150092,
				"element": "C" 
			},
			{
				"x": 4.7330698856,
				"y": -0.4249317855,
				"z": -0.2260222409,
				"element": "C" 
			},
			{
				"x": 5.9377931339,
				"y": -0.4770855834,
				"z": -0.8661510776,
				"element": "O" 
			},
			{
				"x": 5.7543170651,
				"y": 0.0346036993,
				"z": -2.1039239504,
				"element": "C" 
			},
			{
				"x": 4.4609088633,
				"y": 0.4257908838,
				"z": -2.2836742105,
				"element": "C" 
			},
			{
				"x": 4.7378666817,
				"y": -0.9445953338,
				"z": 1.1438253414,
				"element": "C" 
			},
			{
				"x": 3.5210385469,
				"y": -0.8233600486,
				"z": 1.7432114068,
				"element": "O" 
			},
			{
				"x": 5.6984560067,
				"y": -1.4255935068,
				"z": 1.7049194137,
				"element": "O" 
			},
			{
				"x": -3.7001350648,
				"y": 2.0691081976,
				"z": 1.6437327473,
				"element": "H" 
			},
			{
				"x": -5.3772335586,
				"y": 1.5204946272,
				"z": 1.8144606574,
				"element": "H" 
			},
			{
				"x": -4.0446777196,
				"y": 0.4329264649,
				"z": 2.2223484381,
				"element": "H" 
			},
			{
				"x": -4.7129034029,
				"y": 1.5153957595,
				"z": -0.5713235273,
				"element": "H" 
			},
			{
				"x": -6.3545625833,
				"y": -0.1817915566,
				"z": 0.1746610133,
				"element": "H" 
			},
			{
				"x": -5.0575093584,
				"y": -1.3316776543,
				"z": 0.5232032113,
				"element": "H" 
			},
			{
				"x": -5.3614554261,
				"y": -0.8273459308,
				"z": -1.1447436731,
				"element": "H" 
			},
			{
				"x": -2.9290617843,
				"y": 1.7990459071,
				"z": -1.9774425311,
				"element": "H" 
			},
			{
				"x": -0.6430399064,
				"y": 1.2094170702,
				"z": -2.7638502042,
				"element": "H" 
			},
			{
				"x": -0.3818521749,
				"y": -1.8167912029,
				"z": 0.2738031553,
				"element": "H" 
			},
			{
				"x": -2.6598315257,
				"y": -1.2327096107,
				"z": 1.0595332654,
				"element": "H" 
			},
			{
				"x": 2.0846550736,
				"y": 0.1587638268,
				"z": 0.2599945081,
				"element": "H" 
			},
			{
				"x": 2.033901032,
				"y": 1.3866475519,
				"z": -1.0386690932,
				"element": "H" 
			},
			{
				"x": 6.6266778232,
				"y": 0.0526963938,
				"z": -2.7390908115,
				"element": "H" 
			},
			{
				"x": 4.0195368368,
				"y": 0.8432863442,
				"z": -3.1761276552,
				"element": "H" 
			},
			{
				"x": 3.6298604888,
				"y": -1.2086036601,
				"z": 2.6283056565,
				"element": "H" 
			}
		],
		 "valence_orbital": [ 
			{
				"type": "occ",
				"energy": -0.2833,
				"method": "rhf"
			},
			{
				"type": "occ",
				"energy": -0.2781,
				"method": "rhf"
			},
			{
				"type": "occ",
				"energy": -0.27237,
				"method": "rhf"
			},
			{
				"type": "occ",
				"energy": -0.26676,
				"method": "rhf"
			},
			{
				"type": "occ",
				"energy": -0.24602,
				"method": "rhf"
			},
			{
				"type": "unocc",
				"energy": -0.05462,
				"method": "rhf"
			},
			{
				"type": "unocc",
				"energy": -0.03634,
				"method": "rhf"
			},
			{
				"type": "unocc",
				"energy": -0.02384,
				"method": "rhf"
			},
			{
				"type": "unocc",
				"energy": 0.02842,
				"method": "rhf"
			},
			{
				"type": "unocc",
				"energy": 0.06151,
				"method": "rhf"
			}
		],
		"cosmo_sigma_profile": { 
			"-0.025": 0.0,
			"-0.024": 0.0,
			"-0.023": 0.0,
			"-0.022": 0.0,
			"-0.021": 0.0,
			"-0.02": 0.0,
			"-0.019": 0.350300664358,
			"-0.018": 0.910218350977,
			"-0.017": 0.701400580256,
			"-0.016": 1.46061827267,
			"-0.015": 0.20583266679,
			"-0.014": 0.306070834851,
			"-0.013": 0.682920429032,
			"-0.012": 0.840161622577,
			"-0.011": 0.706962712802,
			"-0.01": 2.96306280963,
			"-0.009": 4.35581013666,
			"-0.008": 5.16862086278,
			"-0.007": 8.96683320169,
			"-0.006": 18.2989759005,
			"-0.005": 18.5261847305,
			"-0.004": 17.9564479238,
			"-0.003": 26.5962741095,
			"-0.002": 29.8115080293,
			"-0.001": 30.1708426721,
			"0.0": 30.7819666529,
			"0.001": 31.711084189,
			"0.002": 22.339467735,
			"0.003": 20.5962993194,
			"0.004": 8.43366739332,
			"0.005": 6.86675852531,
			"0.006": 4.84663972112,
			"0.007": 4.6511654973,
			"0.008": 6.01214579568,
			"0.009": 5.61500108192,
			"0.01": 8.54257803467,
			"0.011": 13.1202781593,
			"0.012": 8.81275657979,
			"0.013": 0.635207682598,
			"0.014": 0.0,
			"0.015": 0.0,
			"0.016": 0.0,
			"0.017": 0.0,
			"0.018": 0.0,
			"0.019": 0.0,
			"0.02": 0.0,
			"0.021": 0.0,
			"0.022": 0.0,
			"0.023": 0.0,
			"0.024": 0.0,
			"0.025": 0.0
		}
	}
}
