{
	 "smiles": "CC1=C(O)C(=CC=C1)C1=NC2=C(N1)C=CC(Cl)=C2", 
	 "Tm": 523.15, 
	 "num_atms": 29, 
	 "gaussian": { 
		 "optdone": 1, 
		 "sigma_profile": "yes", 
		 "theory": "DFT", 
		 "functional": "B3LYP", 
		 "basiset": "6-31G**", 
		 "properties": { 
			 "R2extent": 8846.3215, 
			 "electric_dipole_moment_norm": 7.47343811977, 
			 "electric_quadrupole_moment_norm": 20.9841411108, 
			 "total_energy": -1185.06978972, 
			 "HOMO_LUMO_gap": 0.16398, 
			 "cosmo_polarized_energy": -15.46, 
			 "cosmo_cavitation_energy": 34.6, 
			 "cosmo_dispersion_energy": -26.21, 
			 "cosmo_repulsion_energy": 1.99, 
			 "cosmo_total_nonelectrostatic_energy": 10.38, 
			 "SMD_solvation_energy": 3.51 
		},
		"coords": [
			{
				"x": -3.5486782899,
				"y": -0.4722139232,
				"z": -0.548060171,
				"element": "C" 
			},
			{
				"x": -2.3759047341,
				"y": 0.4812964573,
				"z": -0.5423604885,
				"element": "C" 
			},
			{
				"x": -1.0636210553,
				"y": -0.0135854787,
				"z": -0.4456971515,
				"element": "C" 
			},
			{
				"x": -0.8363656585,
				"y": -1.3698587363,
				"z": -0.3555226256,
				"element": "O" 
			},
			{
				"x": 0.0509466571,
				"y": 0.8478320758,
				"z": -0.4376436436,
				"element": "C" 
			},
			{
				"x": -0.1812335347,
				"y": 2.2316213916,
				"z": -0.5295601526,
				"element": "C" 
			},
			{
				"x": -1.4700537326,
				"y": 2.7374293502,
				"z": -0.6256339316,
				"element": "C" 
			},
			{
				"x": -2.5588861392,
				"y": 1.8629223171,
				"z": -0.6316519424,
				"element": "C" 
			},
			{
				"x": 1.4407215934,
				"y": 0.3878033021,
				"z": -0.3391539457,
				"element": "C" 
			},
			{
				"x": 2.4838606919,
				"y": 1.2013010694,
				"z": -0.3323444872,
				"element": "N" 
			},
			{
				"x": 3.5852870715,
				"y": 0.3790743337,
				"z": -0.2280014711,
				"element": "C" 
			},
			{
				"x": 3.1847608737,
				"y": -0.9806271782,
				"z": -0.1700950745,
				"element": "C" 
			},
			{
				"x": 1.8092872325,
				"y": -0.9392689109,
				"z": -0.2434116627,
				"element": "N" 
			},
			{
				"x": 4.1042778032,
				"y": -2.0252290547,
				"z": -0.0624038945,
				"element": "C" 
			},
			{
				"x": 5.4529633639,
				"y": -1.6844612193,
				"z": -0.0125772256,
				"element": "C" 
			},
			{
				"x": 5.8508092258,
				"y": -0.3342092389,
				"z": -0.0700232112,
				"element": "C" 
			},
			{
				"x": 7.5763726504,
				"y": 0.028582559,
				"z": -0.0019754595,
				"element": "Cl" 
			},
			{
				"x": 4.9465240892,
				"y": 0.7131727665,
				"z": -0.1771201167,
				"element": "C" 
			},
			{
				"x": -3.513792888,
				"y": -1.1705071265,
				"z": -1.3960245437,
				"element": "H" 
			},
			{
				"x": -4.4901345898,
				"y": 0.075439875,
				"z": -0.6285207505,
				"element": "H" 
			},
			{
				"x": -3.6055288441,
				"y": -1.0681960216,
				"z": 0.3735915192,
				"element": "H" 
			},
			{
				"x": -1.6784871404,
				"y": -1.840630877,
				"z": -0.3720792886,
				"element": "H" 
			},
			{
				"x": 0.6841898179,
				"y": 2.8843997506,
				"z": -0.5223338646,
				"element": "H" 
			},
			{
				"x": -1.6306370286,
				"y": 3.8084733256,
				"z": -0.6957761747,
				"element": "H" 
			},
			{
				"x": -3.5704289087,
				"y": 2.2532399174,
				"z": -0.7066361181,
				"element": "H" 
			},
			{
				"x": 1.1511545886,
				"y": -1.7038745492,
				"z": -0.2331005977,
				"element": "H" 
			},
			{
				"x": 3.7941948302,
				"y": -3.0646415105,
				"z": -0.0184158449,
				"element": "H" 
			},
			{
				"x": 6.2091740203,
				"y": -2.456487668,
				"z": 0.0709328107,
				"element": "H" 
			},
			{
				"x": 5.2715280341,
				"y": 1.7458030018,
				"z": -0.2200004917,
				"element": "H" 
			}
		],
		 "valence_orbital": [ 
			{
				"type": "occ",
				"energy": -0.26971,
				"method": "rhf"
			},
			{
				"type": "occ",
				"energy": -0.26756,
				"method": "rhf"
			},
			{
				"type": "occ",
				"energy": -0.23935,
				"method": "rhf"
			},
			{
				"type": "occ",
				"energy": -0.22176,
				"method": "rhf"
			},
			{
				"type": "occ",
				"energy": -0.20877,
				"method": "rhf"
			},
			{
				"type": "unocc",
				"energy": -0.04479,
				"method": "rhf"
			},
			{
				"type": "unocc",
				"energy": -0.00372,
				"method": "rhf"
			},
			{
				"type": "unocc",
				"energy": 0.00887,
				"method": "rhf"
			},
			{
				"type": "unocc",
				"energy": 0.02199,
				"method": "rhf"
			},
			{
				"type": "unocc",
				"energy": 0.04166,
				"method": "rhf"
			}
		],
		"cosmo_sigma_profile": { 
			"-0.025": 0.0,
			"-0.024": 0.0,
			"-0.023": 0.0,
			"-0.022": 0.0,
			"-0.021": 0.0,
			"-0.02": 0.0,
			"-0.019": 0.0,
			"-0.018": 0.0,
			"-0.017": 0.334793402342,
			"-0.016": 0.611059437654,
			"-0.015": 0.958791209401,
			"-0.014": 1.30307937311,
			"-0.013": 1.45041501611,
			"-0.012": 1.86056935536,
			"-0.011": 2.20288207663,
			"-0.01": 2.19834605073,
			"-0.009": 1.54825697728,
			"-0.008": 3.42602354502,
			"-0.007": 6.98018312104,
			"-0.006": 11.8432683171,
			"-0.005": 16.0217909944,
			"-0.004": 16.1276100617,
			"-0.003": 15.358308951,
			"-0.002": 15.437035421,
			"-0.001": 18.389916236,
			"0.0": 20.1503375807,
			"0.001": 21.0696225677,
			"0.002": 25.1516870244,
			"0.003": 30.012219175,
			"0.004": 30.6955148075,
			"0.005": 20.7454282963,
			"0.006": 4.95549513947,
			"0.007": 2.20321201199,
			"0.008": 1.40229739409,
			"0.009": 1.11981570159,
			"0.01": 1.68679941628,
			"0.011": 1.32891547078,
			"0.012": 0.923466383409,
			"0.013": 0.78402729691,
			"0.014": 1.05756878069,
			"0.015": 0.67216871023,
			"0.016": 0.0,
			"0.017": 0.0,
			"0.018": 0.0,
			"0.019": 0.0,
			"0.02": 0.0,
			"0.021": 0.0,
			"0.022": 0.0,
			"0.023": 0.0,
			"0.024": 0.0,
			"0.025": 0.0
		}
	}
}
