{
	 "smiles": "CC12CCCC1C1CC=C3CC(O)CCC3(C)C1CC2", 
	 "Tm": 409.15, 
	 "num_atms": 50, 
	 "gaussian": { 
		 "optdone": 1, 
		 "sigma_profile": "yes", 
		 "theory": "DFT", 
		 "functional": "B3LYP", 
		 "basiset": "6-31G**", 
		 "properties": { 
			 "R2extent": 6613.1244, 
			 "electric_dipole_moment_norm": 1.9196890243, 
			 "electric_quadrupole_moment_norm": 12.754887112, 
			 "total_energy": -817.319631838, 
			 "HOMO_LUMO_gap": 0.24939, 
			 "cosmo_polarized_energy": -6.19, 
			 "cosmo_cavitation_energy": 42.39, 
			 "cosmo_dispersion_energy": -29.95, 
			 "cosmo_repulsion_energy": 2.22, 
			 "cosmo_total_nonelectrostatic_energy": 14.67, 
			 "SMD_solvation_energy": 5.31 
		},
		"coords": [
			{
				"x": -0.7750843312,
				"y": 2.6724745447,
				"z": -0.8593411553,
				"element": "C" 
			},
			{
				"x": -1.0817481604,
				"y": 1.240780612,
				"z": -1.3507692129,
				"element": "C" 
			},
			{
				"x": -2.2282910329,
				"y": 1.3162094209,
				"z": -2.3880272815,
				"element": "C" 
			},
			{
				"x": -3.5357217696,
				"y": 1.3922085328,
				"z": -1.5417311091,
				"element": "C" 
			},
			{
				"x": -3.1569100431,
				"y": 0.891975901,
				"z": -0.1130739066,
				"element": "C" 
			},
			{
				"x": -1.7405163938,
				"y": 0.3192448698,
				"z": -0.2930771778,
				"element": "C" 
			},
			{
				"x": -0.9019923368,
				"y": -0.0761450245,
				"z": 0.9355176499,
				"element": "C" 
			},
			{
				"x": -0.7902452264,
				"y": 0.9128036623,
				"z": 2.1158781157,
				"element": "C" 
			},
			{
				"x": -0.1794981861,
				"y": 0.1527835515,
				"z": 3.2674782978,
				"element": "C" 
			},
			{
				"x": 0.8008604182,
				"y": -0.7381462208,
				"z": 3.0640089446,
				"element": "C" 
			},
			{
				"x": 1.3026238404,
				"y": -1.6811652426,
				"z": 4.1244080493,
				"element": "C" 
			},
			{
				"x": 0.9387061936,
				"y": -3.1363917087,
				"z": 3.7314992554,
				"element": "C" 
			},
			{
				"x": -0.3873841399,
				"y": -3.4611716932,
				"z": 4.1383743041,
				"element": "O" 
			},
			{
				"x": 1.1339249853,
				"y": -3.3614221096,
				"z": 2.2068542943,
				"element": "C" 
			},
			{
				"x": 2.0721262825,
				"y": -2.3210318829,
				"z": 1.5804612735,
				"element": "C" 
			},
			{
				"x": 1.4934118531,
				"y": -0.8766918408,
				"z": 1.7013829501,
				"element": "C" 
			},
			{
				"x": 2.6862423913,
				"y": 0.1161030846,
				"z": 1.7431316924,
				"element": "C" 
			},
			{
				"x": 0.4968948552,
				"y": -0.6046184577,
				"z": 0.4863484627,
				"element": "C" 
			},
			{
				"x": 1.1405413347,
				"y": 0.2408121546,
				"z": -0.6434229389,
				"element": "C" 
			},
			{
				"x": 0.2011159744,
				"y": 0.5419220746,
				"z": -1.826944141,
				"element": "C" 
			},
			{
				"x": -1.6692959193,
				"y": 3.1759939409,
				"z": -0.4796175167,
				"element": "H" 
			},
			{
				"x": -0.0240269451,
				"y": 2.7037178475,
				"z": -0.0673084189,
				"element": "H" 
			},
			{
				"x": -0.3942998111,
				"y": 3.2723331182,
				"z": -1.694301503,
				"element": "H" 
			},
			{
				"x": -2.2278037091,
				"y": 0.4053927297,
				"z": -2.9992717682,
				"element": "H" 
			},
			{
				"x": -2.123461687,
				"y": 2.1624415976,
				"z": -3.0755281299,
				"element": "H" 
			},
			{
				"x": -4.323948996,
				"y": 0.7764272117,
				"z": -1.9854746405,
				"element": "H" 
			},
			{
				"x": -3.9255887809,
				"y": 2.4142328564,
				"z": -1.506613004,
				"element": "H" 
			},
			{
				"x": -3.8596817681,
				"y": 0.1444024914,
				"z": 0.2696155934,
				"element": "H" 
			},
			{
				"x": -3.1625441651,
				"y": 1.7227013405,
				"z": 0.6008257234,
				"element": "H" 
			},
			{
				"x": -1.8786611369,
				"y": -0.632708561,
				"z": -0.8330547375,
				"element": "H" 
			},
			{
				"x": -1.4224694726,
				"y": -0.9408472665,
				"z": 1.3715008174,
				"element": "H" 
			},
			{
				"x": -0.1916220025,
				"y": 1.7950717478,
				"z": 1.8535672827,
				"element": "H" 
			},
			{
				"x": -1.779149844,
				"y": 1.2904040004,
				"z": 2.3969559677,
				"element": "H" 
			},
			{
				"x": -0.5984012673,
				"y": 0.2799199377,
				"z": 4.264792944,
				"element": "H" 
			},
			{
				"x": 0.8659014322,
				"y": -1.4639101033,
				"z": 5.1040225831,
				"element": "H" 
			},
			{
				"x": 2.3931424732,
				"y": -1.6012232212,
				"z": 4.2292997227,
				"element": "H" 
			},
			{
				"x": 1.5762989385,
				"y": -3.8244589707,
				"z": 4.2972894989,
				"element": "H" 
			},
			{
				"x": -0.9655782881,
				"y": -2.7835880625,
				"z": 3.7578152981,
				"element": "H" 
			},
			{
				"x": 1.4887959225,
				"y": -4.3797928361,
				"z": 2.0164202228,
				"element": "H" 
			},
			{
				"x": 0.1464417396,
				"y": -3.2925807906,
				"z": 1.7319494335,
				"element": "H" 
			},
			{
				"x": 2.2591924658,
				"y": -2.5522316884,
				"z": 0.5252112831,
				"element": "H" 
			},
			{
				"x": 3.0504067582,
				"y": -2.3734752431,
				"z": 2.0754706542,
				"element": "H" 
			},
			{
				"x": 3.2966694127,
				"y": -0.0803074157,
				"z": 2.6306353171,
				"element": "H" 
			},
			{
				"x": 2.3537587684,
				"y": 1.1559362157,
				"z": 1.803123022,
				"element": "H" 
			},
			{
				"x": 3.3379048103,
				"y": 0.0106545788,
				"z": 0.870349878,
				"element": "H" 
			},
			{
				"x": 0.2932387879,
				"y": -1.5861519535,
				"z": 0.0358165405,
				"element": "H" 
			},
			{
				"x": 1.5089589717,
				"y": 1.1904678408,
				"z": -0.2446127988,
				"element": "H" 
			},
			{
				"x": 2.0263456126,
				"y": -0.2865513791,
				"z": -1.017927361,
				"element": "H" 
			},
			{
				"x": 0.7341878722,
				"y": 1.1511021229,
				"z": -2.5689262583,
				"element": "H" 
			},
			{
				"x": -0.0719666809,
				"y": -0.3964063142,
				"z": -2.3303820129,
				"element": "H" 
			}
		],
		 "valence_orbital": [ 
			{
				"type": "occ",
				"energy": -0.29051,
				"method": "rhf"
			},
			{
				"type": "occ",
				"energy": -0.27851,
				"method": "rhf"
			},
			{
				"type": "occ",
				"energy": -0.26995,
				"method": "rhf"
			},
			{
				"type": "occ",
				"energy": -0.2581,
				"method": "rhf"
			},
			{
				"type": "occ",
				"energy": -0.22825,
				"method": "rhf"
			},
			{
				"type": "unocc",
				"energy": 0.02114,
				"method": "rhf"
			},
			{
				"type": "unocc",
				"energy": 0.06068,
				"method": "rhf"
			},
			{
				"type": "unocc",
				"energy": 0.07715,
				"method": "rhf"
			},
			{
				"type": "unocc",
				"energy": 0.08407,
				"method": "rhf"
			},
			{
				"type": "unocc",
				"energy": 0.09473,
				"method": "rhf"
			}
		],
		"cosmo_sigma_profile": { 
			"-0.025": 0.0,
			"-0.024": 0.0,
			"-0.023": 0.0,
			"-0.022": 0.0,
			"-0.021": 0.0,
			"-0.02": 0.0,
			"-0.019": 0.0,
			"-0.018": 0.0,
			"-0.017": 0.0,
			"-0.016": 0.0,
			"-0.015": 0.0,
			"-0.014": 0.0,
			"-0.013": 0.0,
			"-0.012": 0.0812392606448,
			"-0.011": 0.707796376628,
			"-0.01": 0.189114268818,
			"-0.009": 0.537526582936,
			"-0.008": 0.956955871339,
			"-0.007": 0.900783837251,
			"-0.006": 1.57511528132,
			"-0.005": 1.50070777072,
			"-0.004": 6.45821879868,
			"-0.003": 24.8743651959,
			"-0.002": 54.0223500474,
			"-0.001": 66.525244669,
			"0.0": 59.043601193,
			"0.001": 48.417542899,
			"0.002": 28.5551166699,
			"0.003": 6.52657373682,
			"0.004": 3.94913602754,
			"0.005": 2.56094201856,
			"0.006": 2.81027442386,
			"0.007": 1.69478218052,
			"0.008": 0.92190621113,
			"0.009": 1.29139685507,
			"0.01": 1.06449823975,
			"0.011": 1.25944486395,
			"0.012": 1.47346472341,
			"0.013": 1.38542053564,
			"0.014": 1.97314941752,
			"0.015": 2.11507020405,
			"0.016": 0.0202097846436,
			"0.017": 0.0,
			"0.018": 0.0,
			"0.019": 0.0,
			"0.02": 0.0,
			"0.021": 0.0,
			"0.022": 0.0,
			"0.023": 0.0,
			"0.024": 0.0,
			"0.025": 0.0
		}
	}
}
