{
	 "smiles": "ClC1=CC=C(C=C2N=C(OC2=O)C2=CC=CC=C2)C(Cl)=C1", 
	 "Tm": 453.15, 
	 "num_atms": 30, 
	 "gaussian": { 
		 "optdone": 1, 
		 "sigma_profile": "yes", 
		 "theory": "DFT", 
		 "functional": "B3LYP", 
		 "basiset": "6-31G**", 
		 "properties": { 
			 "R2extent": 13894.4368, 
			 "electric_dipole_moment_norm": 2.72645633378, 
			 "electric_quadrupole_moment_norm": 9.92596410229, 
			 "total_energy": -1740.71218841, 
			 "HOMO_LUMO_gap": 0.12139, 
			 "cosmo_polarized_energy": -8.49, 
			 "cosmo_cavitation_energy": 39.56, 
			 "cosmo_dispersion_energy": -29.3, 
			 "cosmo_repulsion_energy": 2.2, 
			 "cosmo_total_nonelectrostatic_energy": 12.46, 
			 "SMD_solvation_energy": 5.63 
		},
		"coords": [
			{
				"x": -0.131660563,
				"y": 7.743275103,
				"z": 3.5242261599,
				"element": "Cl" 
			},
			{
				"x": -0.082427624,
				"y": 6.1136145117,
				"z": 2.8892025569,
				"element": "C" 
			},
			{
				"x": -0.3418402967,
				"y": 5.8847950924,
				"z": 1.5378628043,
				"element": "C" 
			},
			{
				"x": -0.2992870639,
				"y": 4.5869461526,
				"z": 1.0481023107,
				"element": "C" 
			},
			{
				"x": -0.0003137928,
				"y": 3.4771617413,
				"z": 1.8737961245,
				"element": "C" 
			},
			{
				"x": 0.0548125955,
				"y": 2.1069975511,
				"z": 1.4031531237,
				"element": "C" 
			},
			{
				"x": -0.1353915402,
				"y": 1.5193376291,
				"z": 0.1854504318,
				"element": "C" 
			},
			{
				"x": -0.0062165732,
				"y": 0.1308247439,
				"z": 0.0533115759,
				"element": "N" 
			},
			{
				"x": -0.236953053,
				"y": -0.1402734462,
				"z": -1.1876009282,
				"element": "C" 
			},
			{
				"x": -0.5283130514,
				"y": 0.9494490949,
				"z": -1.9859893467,
				"element": "O" 
			},
			{
				"x": -0.4798831702,
				"y": 2.0669579293,
				"z": -1.1555181785,
				"element": "C" 
			},
			{
				"x": -0.696460203,
				"y": 3.1725409769,
				"z": -1.5891503714,
				"element": "O" 
			},
			{
				"x": -0.22303544,
				"y": -1.4497276381,
				"z": -1.8257135029,
				"element": "C" 
			},
			{
				"x": -0.4961098677,
				"y": -1.5880328347,
				"z": -3.1964228267,
				"element": "C" 
			},
			{
				"x": -0.4762727663,
				"y": -2.8518121963,
				"z": -3.7824469489,
				"element": "C" 
			},
			{
				"x": -0.1858665189,
				"y": -3.9791481766,
				"z": -3.0108190326,
				"element": "C" 
			},
			{
				"x": 0.0863869971,
				"y": -3.8431835539,
				"z": -1.6451611696,
				"element": "C" 
			},
			{
				"x": 0.0690067214,
				"y": -2.5863112029,
				"z": -1.0510907844,
				"element": "C" 
			},
			{
				"x": 0.2558445977,
				"y": 3.764831617,
				"z": 3.2416073414,
				"element": "C" 
			},
			{
				"x": 0.6418636615,
				"y": 2.4926439914,
				"z": 4.3931677681,
				"element": "Cl" 
			},
			{
				"x": 0.2175993675,
				"y": 5.0591052838,
				"z": 3.7496438726,
				"element": "C" 
			},
			{
				"x": -0.5742074086,
				"y": 6.7130563745,
				"z": 0.8784215664,
				"element": "H" 
			},
			{
				"x": -0.5010824917,
				"y": 4.4116807224,
				"z": -0.0012166373,
				"element": "H" 
			},
			{
				"x": 0.298215613,
				"y": 1.3744918113,
				"z": 2.1658143318,
				"element": "H" 
			},
			{
				"x": -0.7207201843,
				"y": -0.7081890891,
				"z": -3.7890141995,
				"element": "H" 
			},
			{
				"x": -0.6876360899,
				"y": -2.9568967009,
				"z": -4.8422459405,
				"element": "H" 
			},
			{
				"x": -0.1713402389,
				"y": -4.9626828313,
				"z": -3.4713569051,
				"element": "H" 
			},
			{
				"x": 0.3120880961,
				"y": -4.7199399445,
				"z": -1.0456779017,
				"element": "H" 
			},
			{
				"x": 0.2774384682,
				"y": -2.460789324,
				"z": 0.0059293618,
				"element": "H" 
			},
			{
				"x": 0.4183618197,
				"y": 5.2405766121,
				"z": 4.7979353444,
				"element": "H" 
			}
		],
		 "valence_orbital": [ 
			{
				"type": "occ",
				"energy": -0.28081,
				"method": "rhf"
			},
			{
				"type": "occ",
				"energy": -0.27468,
				"method": "rhf"
			},
			{
				"type": "occ",
				"energy": -0.26806,
				"method": "rhf"
			},
			{
				"type": "occ",
				"energy": -0.26723,
				"method": "rhf"
			},
			{
				"type": "occ",
				"energy": -0.22532,
				"method": "rhf"
			},
			{
				"type": "unocc",
				"energy": -0.10393,
				"method": "rhf"
			},
			{
				"type": "unocc",
				"energy": -0.04303,
				"method": "rhf"
			},
			{
				"type": "unocc",
				"energy": -0.02954,
				"method": "rhf"
			},
			{
				"type": "unocc",
				"energy": -0.01659,
				"method": "rhf"
			},
			{
				"type": "unocc",
				"energy": -0.00736,
				"method": "rhf"
			}
		],
		"cosmo_sigma_profile": { 
			"-0.025": 0.0,
			"-0.024": 0.0,
			"-0.023": 0.0,
			"-0.022": 0.0,
			"-0.021": 0.0,
			"-0.02": 0.0,
			"-0.019": 0.0,
			"-0.018": 0.0,
			"-0.017": 0.0,
			"-0.016": 0.0,
			"-0.015": 0.0,
			"-0.014": 0.0,
			"-0.013": 0.0,
			"-0.012": 0.0,
			"-0.011": 0.0,
			"-0.01": 0.0,
			"-0.009": 0.689636344909,
			"-0.008": 3.19245219158,
			"-0.007": 7.08895924606,
			"-0.006": 15.2521017117,
			"-0.005": 16.9471827525,
			"-0.004": 19.0062592172,
			"-0.003": 20.9194241991,
			"-0.002": 24.3608048099,
			"-0.001": 31.0007300368,
			"0.0": 43.6403191569,
			"0.001": 36.3504556535,
			"0.002": 26.8429831247,
			"0.003": 32.2016877153,
			"0.004": 22.860754041,
			"0.005": 4.24518374373,
			"0.006": 3.95652337451,
			"0.007": 3.87125436892,
			"0.008": 3.49536285427,
			"0.009": 3.23272065966,
			"0.01": 3.65603447611,
			"0.011": 2.24668399891,
			"0.012": 0.355334257648,
			"0.013": 0.0,
			"0.014": 0.0,
			"0.015": 0.0,
			"0.016": 0.0,
			"0.017": 0.0,
			"0.018": 0.0,
			"0.019": 0.0,
			"0.02": 0.0,
			"0.021": 0.0,
			"0.022": 0.0,
			"0.023": 0.0,
			"0.024": 0.0,
			"0.025": 0.0
		}
	}
}
