{
	 "smiles": "COC1=C(OC)C=C2C(C)=NCCC2=C1", 
	 "Tm": 377.15, 
	 "num_atms": 30, 
	 "gaussian": { 
		 "optdone": 1, 
		 "sigma_profile": "yes", 
		 "theory": "DFT", 
		 "functional": "B3LYP", 
		 "basiset": "6-31G**", 
		 "properties": { 
			 "R2extent": 3639.5772, 
			 "electric_dipole_moment_norm": 2.38817341498, 
			 "electric_quadrupole_moment_norm": 6.27905236799, 
			 "total_energy": -671.485867691, 
			 "HOMO_LUMO_gap": 0.1853, 
			 "cosmo_polarized_energy": -8.74, 
			 "cosmo_cavitation_energy": 32.03, 
			 "cosmo_dispersion_energy": -23.23, 
			 "cosmo_repulsion_energy": 1.83, 
			 "cosmo_total_nonelectrostatic_energy": 10.64, 
			 "SMD_solvation_energy": 3.55 
		},
		"coords": [
			{
				"x": 2.1983412167,
				"y": 3.1762275695,
				"z": -0.5895671526,
				"element": "C" 
			},
			{
				"x": 1.9417959022,
				"y": 2.1480290373,
				"z": 0.3763210939,
				"element": "O" 
			},
			{
				"x": 0.9508543019,
				"y": 1.2581510556,
				"z": 0.0349556446,
				"element": "C" 
			},
			{
				"x": 1.099409313,
				"y": 0.3554526711,
				"z": -1.0352367673,
				"element": "C" 
			},
			{
				"x": 2.2276179943,
				"y": 0.3572461354,
				"z": -1.8281997712,
				"element": "O" 
			},
			{
				"x": 3.4092803108,
				"y": -0.1332303436,
				"z": -1.1834251396,
				"element": "C" 
			},
			{
				"x": 0.0697895757,
				"y": -0.5361884844,
				"z": -1.3280445104,
				"element": "C" 
			},
			{
				"x": -1.1032444968,
				"y": -0.567238392,
				"z": -0.560806379,
				"element": "C" 
			},
			{
				"x": -2.2167486298,
				"y": -1.5155090607,
				"z": -0.8379415218,
				"element": "C" 
			},
			{
				"x": -2.266359507,
				"y": -2.2125634935,
				"z": -2.1774777506,
				"element": "C" 
			},
			{
				"x": -3.1395916973,
				"y": -1.7929082769,
				"z": 0.0108882666,
				"element": "N" 
			},
			{
				"x": -3.073786469,
				"y": -1.1565635884,
				"z": 1.328219566,
				"element": "C" 
			},
			{
				"x": -2.5300138824,
				"y": 0.2747684863,
				"z": 1.30344561,
				"element": "C" 
			},
			{
				"x": -1.2361414147,
				"y": 0.3188456707,
				"z": 0.5272977587,
				"element": "C" 
			},
			{
				"x": -0.2134413078,
				"y": 1.2233607675,
				"z": 0.80616029,
				"element": "C" 
			},
			{
				"x": 1.309471971,
				"y": 3.8039294806,
				"z": -0.7295561412,
				"element": "H" 
			},
			{
				"x": 3.0070163241,
				"y": 3.7838091692,
				"z": -0.1786708838,
				"element": "H" 
			},
			{
				"x": 2.5018731287,
				"y": 2.7541387322,
				"z": -1.5519300797,
				"element": "H" 
			},
			{
				"x": 3.2792224519,
				"y": -1.1792043511,
				"z": -0.8783786881,
				"element": "H" 
			},
			{
				"x": 3.6662328035,
				"y": 0.4711512873,
				"z": -0.3076220192,
				"element": "H" 
			},
			{
				"x": 4.2102830169,
				"y": -0.070487731,
				"z": -1.9228975312,
				"element": "H" 
			},
			{
				"x": 0.2148499987,
				"y": -1.2099851259,
				"z": -2.1655326362,
				"element": "H" 
			},
			{
				"x": -3.1783958889,
				"y": -2.8077875128,
				"z": -2.2331645045,
				"element": "H" 
			},
			{
				"x": -2.2473883653,
				"y": -1.4935279066,
				"z": -3.0042514321,
				"element": "H" 
			},
			{
				"x": -1.4058026577,
				"y": -2.8795604738,
				"z": -2.3098371323,
				"element": "H" 
			},
			{
				"x": -4.0781092551,
				"y": -1.17529382,
				"z": 1.7638026234,
				"element": "H" 
			},
			{
				"x": -2.4416671246,
				"y": -1.7859634443,
				"z": 1.9741781507,
				"element": "H" 
			},
			{
				"x": -2.3929373969,
				"y": 0.655876433,
				"z": 2.3212160822,
				"element": "H" 
			},
			{
				"x": -3.2683721403,
				"y": 0.9296990506,
				"z": 0.8168132723,
				"element": "H" 
			},
			{
				"x": -0.2994380758,
				"y": 1.9250264583,
				"z": 1.6311416825,
				"element": "H" 
			}
		],
		 "valence_orbital": [ 
			{
				"type": "occ",
				"energy": -0.28015,
				"method": "rhf"
			},
			{
				"type": "occ",
				"energy": -0.26698,
				"method": "rhf"
			},
			{
				"type": "occ",
				"energy": -0.24532,
				"method": "rhf"
			},
			{
				"type": "occ",
				"energy": -0.23223,
				"method": "rhf"
			},
			{
				"type": "occ",
				"energy": -0.22038,
				"method": "rhf"
			},
			{
				"type": "unocc",
				"energy": -0.03508,
				"method": "rhf"
			},
			{
				"type": "unocc",
				"energy": -0.00303,
				"method": "rhf"
			},
			{
				"type": "unocc",
				"energy": 0.04986,
				"method": "rhf"
			},
			{
				"type": "unocc",
				"energy": 0.08471,
				"method": "rhf"
			},
			{
				"type": "unocc",
				"energy": 0.10826,
				"method": "rhf"
			}
		],
		"cosmo_sigma_profile": { 
			"-0.025": 0.0,
			"-0.024": 0.0,
			"-0.023": 0.0,
			"-0.022": 0.0,
			"-0.021": 0.0,
			"-0.02": 0.0,
			"-0.019": 0.0,
			"-0.018": 0.0,
			"-0.017": 0.0,
			"-0.016": 0.0,
			"-0.015": 0.0,
			"-0.014": 0.0,
			"-0.013": 0.0,
			"-0.012": 0.0,
			"-0.011": 0.0,
			"-0.01": 0.0,
			"-0.009": 0.0,
			"-0.008": 0.0,
			"-0.007": 0.201860712628,
			"-0.006": 5.46510704134,
			"-0.005": 14.3095642762,
			"-0.004": 25.8812486482,
			"-0.003": 36.6722060991,
			"-0.002": 33.7262677206,
			"-0.001": 27.3282711798,
			"0.0": 23.4518887808,
			"0.001": 14.51516249,
			"0.002": 12.6865019259,
			"0.003": 15.6429158844,
			"0.004": 11.9015129906,
			"0.005": 4.56277273121,
			"0.006": 3.92160409961,
			"0.007": 3.59169413418,
			"0.008": 2.96554152657,
			"0.009": 2.77003671206,
			"0.01": 3.4612877816,
			"0.011": 3.32721332438,
			"0.012": 2.00341991765,
			"0.013": 0.561208043569,
			"0.014": 1.01756791358,
			"0.015": 0.744092940958,
			"0.016": 0.939065649119,
			"0.017": 0.63026481298,
			"0.018": 0.266926138891,
			"0.019": 0.0,
			"0.02": 0.0,
			"0.021": 0.0,
			"0.022": 0.0,
			"0.023": 0.0,
			"0.024": 0.0,
			"0.025": 0.0
		}
	}
}
