{
	 "smiles": "[O-][N+](=O)C1=CC=C(OC(=O)OC2=CC=C(C=C2)[N+]([O-])=O)C=C1", 
	 "Tm": 410.65, 
	 "num_atms": 30, 
	 "gaussian": { 
		 "optdone": 1, 
		 "sigma_profile": "yes", 
		 "theory": "DFT", 
		 "functional": "B3LYP", 
		 "basiset": "6-31G**", 
		 "properties": { 
			 "R2extent": 10476.7068, 
			 "electric_dipole_moment_norm": 2.52042804698, 
			 "electric_quadrupole_moment_norm": 36.8558194908, 
			 "total_energy": -1136.06929412, 
			 "HOMO_LUMO_gap": 0.17944, 
			 "cosmo_polarized_energy": -17.96, 
			 "cosmo_cavitation_energy": 38.68, 
			 "cosmo_dispersion_energy": -27.12, 
			 "cosmo_repulsion_energy": 2.06, 
			 "cosmo_total_nonelectrostatic_energy": 13.61, 
			 "SMD_solvation_energy": 12.96 
		},
		"coords": [
			{
				"x": -1.319398943,
				"y": -6.59866862,
				"z": 2.1279962614,
				"element": "O" 
			},
			{
				"x": -1.2387940624,
				"y": -5.9742889799,
				"z": 1.0712177995,
				"element": "N" 
			},
			{
				"x": -1.2030774672,
				"y": -6.4851084229,
				"z": -0.0475591309,
				"element": "O" 
			},
			{
				"x": -1.1795268074,
				"y": -4.5069747169,
				"z": 1.1501297397,
				"element": "C" 
			},
			{
				"x": -1.2149799866,
				"y": -3.8947750159,
				"z": 2.4008742305,
				"element": "C" 
			},
			{
				"x": -1.1575011296,
				"y": -2.5060673695,
				"z": 2.4862703698,
				"element": "C" 
			},
			{
				"x": -1.0715689867,
				"y": -1.766498344,
				"z": 1.3041781618,
				"element": "C" 
			},
			{
				"x": -0.9399159429,
				"y": -0.3798641877,
				"z": 1.2656863275,
				"element": "O" 
			},
			{
				"x": -1.5323442577,
				"y": 0.4214156859,
				"z": 2.190407682,
				"element": "C" 
			},
			{
				"x": -2.2295455727,
				"y": 0.0865940976,
				"z": 3.1052028444,
				"element": "O" 
			},
			{
				"x": -1.2470549215,
				"y": 1.7214713978,
				"z": 1.9451407751,
				"element": "O" 
			},
			{
				"x": -0.4002839621,
				"y": 2.1242626095,
				"z": 0.9121250675,
				"element": "C" 
			},
			{
				"x": 0.9811221773,
				"y": 1.9743346621,
				"z": 1.0384460355,
				"element": "C" 
			},
			{
				"x": 1.8095826106,
				"y": 2.4664767969,
				"z": 0.0354711044,
				"element": "C" 
			},
			{
				"x": 1.2320330304,
				"y": 3.102591958,
				"z": -1.0628976738,
				"element": "C" 
			},
			{
				"x": -0.1463052883,
				"y": 3.265550157,
				"z": -1.1869795692,
				"element": "C" 
			},
			{
				"x": -0.9728530163,
				"y": 2.7693735669,
				"z": -0.1827276572,
				"element": "C" 
			},
			{
				"x": 2.1086209682,
				"y": 3.6239100308,
				"z": -2.1243961354,
				"element": "N" 
			},
			{
				"x": 1.5729992042,
				"y": 4.1820621162,
				"z": -3.0805423697,
				"element": "O" 
			},
			{
				"x": 3.3208615625,
				"y": 3.4668680433,
				"z": -1.9882821242,
				"element": "O" 
			},
			{
				"x": -1.032215986,
				"y": -2.3843874116,
				"z": 0.0521393882,
				"element": "C" 
			},
			{
				"x": -1.0867758501,
				"y": -3.7704699984,
				"z": -0.0297640004,
				"element": "C" 
			},
			{
				"x": -1.2846889017,
				"y": -4.5077933279,
				"z": 3.2905489035,
				"element": "H" 
			},
			{
				"x": -1.196605279,
				"y": -2.0119053571,
				"z": 3.4464795732,
				"element": "H" 
			},
			{
				"x": 1.3957603485,
				"y": 1.4841407899,
				"z": 1.912177134,
				"element": "H" 
			},
			{
				"x": 2.8866360627,
				"y": 2.3717557551,
				"z": 0.0903491328,
				"element": "H" 
			},
			{
				"x": -0.5474164435,
				"y": 3.772395273,
				"z": -2.0554590813,
				"element": "H" 
			},
			{
				"x": -2.0501143436,
				"y": 2.8812080928,
				"z": -0.2344523629,
				"element": "H" 
			},
			{
				"x": -0.9571137882,
				"y": -1.7711417498,
				"z": -0.8387873252,
				"element": "H" 
			},
			{
				"x": -1.0602350278,
				"y": -4.2853675311,
				"z": -0.9815931006,
				"element": "H" 
			}
		],
		 "valence_orbital": [ 
			{
				"type": "occ",
				"energy": -0.30088,
				"method": "rhf"
			},
			{
				"type": "occ",
				"energy": -0.29945,
				"method": "rhf"
			},
			{
				"type": "occ",
				"energy": -0.29539,
				"method": "rhf"
			},
			{
				"type": "occ",
				"energy": -0.29343,
				"method": "rhf"
			},
			{
				"type": "occ",
				"energy": -0.28333,
				"method": "rhf"
			},
			{
				"type": "unocc",
				"energy": -0.10389,
				"method": "rhf"
			},
			{
				"type": "unocc",
				"energy": -0.09836,
				"method": "rhf"
			},
			{
				"type": "unocc",
				"energy": -0.04997,
				"method": "rhf"
			},
			{
				"type": "unocc",
				"energy": -0.044,
				"method": "rhf"
			},
			{
				"type": "unocc",
				"energy": -0.0233,
				"method": "rhf"
			}
		],
		"cosmo_sigma_profile": { 
			"-0.025": 0.0,
			"-0.024": 0.0,
			"-0.023": 0.0,
			"-0.022": 0.0,
			"-0.021": 0.0,
			"-0.02": 0.0,
			"-0.019": 0.0,
			"-0.018": 0.0,
			"-0.017": 0.0,
			"-0.016": 0.0,
			"-0.015": 0.0,
			"-0.014": 0.0,
			"-0.013": 0.0,
			"-0.012": 0.0,
			"-0.011": 0.0,
			"-0.01": 0.446063177497,
			"-0.009": 5.00287918233,
			"-0.008": 14.1552657235,
			"-0.007": 18.1412569911,
			"-0.006": 18.1578132222,
			"-0.005": 14.4692836423,
			"-0.004": 16.4864966199,
			"-0.003": 17.8567690328,
			"-0.002": 22.9006445883,
			"-0.001": 30.8717379415,
			"0.0": 32.507228663,
			"0.001": 19.5570722125,
			"0.002": 9.75868338931,
			"0.003": 8.29932088778,
			"0.004": 8.67690731668,
			"0.005": 7.79291805585,
			"0.006": 10.9991869723,
			"0.007": 20.3481680651,
			"0.008": 15.7639522993,
			"0.009": 11.9380588329,
			"0.01": 7.70507126536,
			"0.011": 0.975487310468,
			"0.012": 0.0,
			"0.013": 0.0,
			"0.014": 0.0,
			"0.015": 0.0,
			"0.016": 0.0,
			"0.017": 0.0,
			"0.018": 0.0,
			"0.019": 0.0,
			"0.02": 0.0,
			"0.021": 0.0,
			"0.022": 0.0,
			"0.023": 0.0,
			"0.024": 0.0,
			"0.025": 0.0
		}
	}
}
