{
	 "smiles": "COC(=O)C1(CCC1)S(=O)(=O)C1=CC=CC=C1", 
	 "Tm": 381.15, 
	 "num_atms": 31, 
	 "gaussian": { 
		 "optdone": 1, 
		 "sigma_profile": "yes", 
		 "theory": "DFT", 
		 "functional": "B3LYP", 
		 "basiset": "6-31G**", 
		 "properties": { 
			 "R2extent": 4116.1322, 
			 "electric_dipole_moment_norm": 5.98141603385, 
			 "electric_quadrupole_moment_norm": 13.5357445373, 
			 "total_energy": -1164.70936669, 
			 "HOMO_LUMO_gap": 0.22694, 
			 "cosmo_polarized_energy": -16.18, 
			 "cosmo_cavitation_energy": 34.93, 
			 "cosmo_dispersion_energy": -24.15, 
			 "cosmo_repulsion_energy": 1.83, 
			 "cosmo_total_nonelectrostatic_energy": 12.61, 
			 "SMD_solvation_energy": 6.3 
		},
		"coords": [
			{
				"x": -0.5587241483,
				"y": -1.8476326039,
				"z": -2.6294713967,
				"element": "C" 
			},
			{
				"x": -0.4656712097,
				"y": -0.8545063287,
				"z": -1.5916082277,
				"element": "O" 
			},
			{
				"x": -0.7180193994,
				"y": 0.4116355423,
				"z": -1.9806384238,
				"element": "C" 
			},
			{
				"x": -1.0497571059,
				"y": 0.7167633282,
				"z": -3.1033386815,
				"element": "O" 
			},
			{
				"x": -0.5832101488,
				"y": 1.3844002354,
				"z": -0.8159508179,
				"element": "C" 
			},
			{
				"x": -1.1822109271,
				"y": 2.7808451176,
				"z": -1.1373567476,
				"element": "C" 
			},
			{
				"x": -2.4714434444,
				"y": 2.3517467137,
				"z": -0.3868405066,
				"element": "C" 
			},
			{
				"x": -1.6715693585,
				"y": 1.2029307113,
				"z": 0.2837786679,
				"element": "C" 
			},
			{
				"x": 1.1789584881,
				"y": 1.4686310806,
				"z": -0.2303002605,
				"element": "S" 
			},
			{
				"x": 1.2400007055,
				"y": 2.6338865303,
				"z": 0.6714418272,
				"element": "O" 
			},
			{
				"x": 2.0384951455,
				"y": 1.3814645727,
				"z": -1.4235616175,
				"element": "O" 
			},
			{
				"x": 1.4901125577,
				"y": 0.0155178661,
				"z": 0.7895186108,
				"element": "C" 
			},
			{
				"x": 2.0662713952,
				"y": -1.1154650518,
				"z": 0.2078417732,
				"element": "C" 
			},
			{
				"x": 2.3497279744,
				"y": -2.2183436507,
				"z": 1.0125564797,
				"element": "C" 
			},
			{
				"x": 2.0585832738,
				"y": -2.1834732042,
				"z": 2.3788947608,
				"element": "C" 
			},
			{
				"x": 1.4980119455,
				"y": -1.0396645978,
				"z": 2.9514869329,
				"element": "C" 
			},
			{
				"x": 1.2167252204,
				"y": 0.0733042273,
				"z": 2.1581109845,
				"element": "C" 
			},
			{
				"x": -1.5730207948,
				"y": -1.8821451171,
				"z": -3.0340667689,
				"element": "H" 
			},
			{
				"x": 0.1387755177,
				"y": -1.6196127815,
				"z": -3.43866277,
				"element": "H" 
			},
			{
				"x": -0.3028305852,
				"y": -2.7933327331,
				"z": -2.1525715876,
				"element": "H" 
			},
			{
				"x": -1.2570781706,
				"y": 3.010503292,
				"z": -2.1999497294,
				"element": "H" 
			},
			{
				"x": -0.6395786044,
				"y": 3.5674571873,
				"z": -0.6108294064,
				"element": "H" 
			},
			{
				"x": -2.9246777863,
				"y": 3.0875588928,
				"z": 0.2814512211,
				"element": "H" 
			},
			{
				"x": -3.236166494,
				"y": 1.9753791897,
				"z": -1.0713453923,
				"element": "H" 
			},
			{
				"x": -2.1260046824,
				"y": 0.2129295819,
				"z": 0.3592452139,
				"element": "H" 
			},
			{
				"x": -1.2884121812,
				"y": 1.4999615307,
				"z": 1.2627344228,
				"element": "H" 
			},
			{
				"x": 2.3020051388,
				"y": -1.1127083287,
				"z": -0.8497715794,
				"element": "H" 
			},
			{
				"x": 2.8052178882,
				"y": -3.1017548072,
				"z": 0.5752091117,
				"element": "H" 
			},
			{
				"x": 2.2818683986,
				"y": -3.0452430753,
				"z": 3.0011432981,
				"element": "H" 
			},
			{
				"x": 1.29233208,
				"y": -1.0073747156,
				"z": 4.0171188421,
				"element": "H" 
			},
			{
				"x": 0.8230893117,
				"y": 0.9855413958,
				"z": 2.5921317672,
				"element": "H" 
			}
		],
		 "valence_orbital": [ 
			{
				"type": "occ",
				"energy": -0.29948,
				"method": "rhf"
			},
			{
				"type": "occ",
				"energy": -0.28585,
				"method": "rhf"
			},
			{
				"type": "occ",
				"energy": -0.27708,
				"method": "rhf"
			},
			{
				"type": "occ",
				"energy": -0.27171,
				"method": "rhf"
			},
			{
				"type": "occ",
				"energy": -0.27025,
				"method": "rhf"
			},
			{
				"type": "unocc",
				"energy": -0.04331,
				"method": "rhf"
			},
			{
				"type": "unocc",
				"energy": -0.0218,
				"method": "rhf"
			},
			{
				"type": "unocc",
				"energy": -0.01509,
				"method": "rhf"
			},
			{
				"type": "unocc",
				"energy": 0.05656,
				"method": "rhf"
			},
			{
				"type": "unocc",
				"energy": 0.06679,
				"method": "rhf"
			}
		],
		"cosmo_sigma_profile": { 
			"-0.025": 0.0,
			"-0.024": 0.0,
			"-0.023": 0.0,
			"-0.022": 0.0,
			"-0.021": 0.0,
			"-0.02": 0.0,
			"-0.019": 0.0,
			"-0.018": 0.0,
			"-0.017": 0.0,
			"-0.016": 0.0,
			"-0.015": 0.0,
			"-0.014": 0.0,
			"-0.013": 0.0,
			"-0.012": 0.0,
			"-0.011": 0.0,
			"-0.01": 0.0,
			"-0.009": 0.0,
			"-0.008": 0.0960580242592,
			"-0.007": 9.61126875485,
			"-0.006": 17.8644993438,
			"-0.005": 25.180605115,
			"-0.004": 27.6698878291,
			"-0.003": 27.30552264,
			"-0.002": 24.5336188318,
			"-0.001": 22.0832475438,
			"0.0": 18.0199411176,
			"0.001": 15.0066478551,
			"0.002": 15.657288909,
			"0.003": 15.2930540337,
			"0.004": 8.20340442447,
			"0.005": 6.20625072792,
			"0.006": 4.49716515613,
			"0.007": 4.87791850112,
			"0.008": 5.24277334092,
			"0.009": 4.76129969429,
			"0.01": 9.74670492182,
			"0.011": 11.1940027166,
			"0.012": 3.87709059375,
			"0.013": 0.0,
			"0.014": 0.0,
			"0.015": 0.0,
			"0.016": 0.0,
			"0.017": 0.0,
			"0.018": 0.0,
			"0.019": 0.0,
			"0.02": 0.0,
			"0.021": 0.0,
			"0.022": 0.0,
			"0.023": 0.0,
			"0.024": 0.0,
			"0.025": 0.0
		}
	}
}
