{
	 "smiles": "CCCCOC1=CC=C(C=C1)C1=NN(CCC#N)C(=S)N1", 
	 "Tm": 387.7, 
	 "num_atms": 39, 
	 "gaussian": { 
		 "optdone": 1, 
		 "sigma_profile": "yes", 
		 "theory": "DFT", 
		 "functional": "B3LYP", 
		 "basiset": "6-31G**", 
		 "properties": { 
			 "R2extent": 13389.2826, 
			 "electric_dipole_moment_norm": 5.25923570208, 
			 "electric_quadrupole_moment_norm": 18.0835541905, 
			 "total_energy": -1274.85998681, 
			 "HOMO_LUMO_gap": 0.16136, 
			 "cosmo_polarized_energy": -23.21, 
			 "cosmo_cavitation_energy": 45.93, 
			 "cosmo_dispersion_energy": -32.02, 
			 "cosmo_repulsion_energy": 2.45, 
			 "cosmo_total_nonelectrostatic_energy": 16.36, 
			 "SMD_solvation_energy": 7.06 
		},
		"coords": [
			{
				"x": 0.148001865,
				"y": 0.4909008432,
				"z": 7.2908282316,
				"element": "C" 
			},
			{
				"x": 0.4751188688,
				"y": 0.5827310798,
				"z": 5.797502365,
				"element": "C" 
			},
			{
				"x": -0.346444654,
				"y": 1.6575946598,
				"z": 5.0743051535,
				"element": "C" 
			},
			{
				"x": -0.0451979152,
				"y": 1.7676406737,
				"z": 3.5860996252,
				"element": "C" 
			},
			{
				"x": -0.4287735539,
				"y": 0.5351266792,
				"z": 2.9653421881,
				"element": "O" 
			},
			{
				"x": -0.2386802233,
				"y": 0.3783897912,
				"z": 1.6312377136,
				"element": "C" 
			},
			{
				"x": -0.6318441318,
				"y": -0.8611111042,
				"z": 1.0997950258,
				"element": "C" 
			},
			{
				"x": -0.4818296761,
				"y": -1.1199919807,
				"z": -0.2537282155,
				"element": "C" 
			},
			{
				"x": 0.0598828958,
				"y": -0.1497573615,
				"z": -1.1157762677,
				"element": "C" 
			},
			{
				"x": 0.4505668184,
				"y": 1.0842325885,
				"z": -0.5769991176,
				"element": "C" 
			},
			{
				"x": 0.3079814911,
				"y": 1.3523456729,
				"z": 0.7810137866,
				"element": "C" 
			},
			{
				"x": 0.2250249867,
				"y": -0.3970353498,
				"z": -2.5459426388,
				"element": "C" 
			},
			{
				"x": 0.9757466538,
				"y": 0.3125933484,
				"z": -3.3520401721,
				"element": "N" 
			},
			{
				"x": 0.8134039634,
				"y": -0.2694230265,
				"z": -4.5881815468,
				"element": "N" 
			},
			{
				"x": 1.4784561192,
				"y": 0.2760862895,
				"z": -5.7542064083,
				"element": "C" 
			},
			{
				"x": 0.5509775987,
				"y": 1.1621806771,
				"z": -6.6126574492,
				"element": "C" 
			},
			{
				"x": 0.0963057198,
				"y": 2.3715409413,
				"z": -5.9232007389,
				"element": "C" 
			},
			{
				"x": -0.2608199491,
				"y": 3.3319264883,
				"z": -5.3782751223,
				"element": "N" 
			},
			{
				"x": -0.0336723059,
				"y": -1.3410120474,
				"z": -4.5774280605,
				"element": "C" 
			},
			{
				"x": -0.521378071,
				"y": -2.3201455685,
				"z": -5.8446573698,
				"element": "S" 
			},
			{
				"x": -0.393429581,
				"y": -1.4117291025,
				"z": -3.2493337028,
				"element": "N" 
			},
			{
				"x": -0.9074419588,
				"y": 0.2430172413,
				"z": 7.4507531962,
				"element": "H" 
			},
			{
				"x": 0.7481360257,
				"y": -0.2813447213,
				"z": 7.7823191828,
				"element": "H" 
			},
			{
				"x": 0.3451211922,
				"y": 1.4404283151,
				"z": 7.8017615318,
				"element": "H" 
			},
			{
				"x": 1.5443873629,
				"y": 0.7992005986,
				"z": 5.6670399814,
				"element": "H" 
			},
			{
				"x": 0.2962773625,
				"y": -0.3852809677,
				"z": 5.3165114638,
				"element": "H" 
			},
			{
				"x": -0.1551268008,
				"y": 2.6407225022,
				"z": 5.5246790043,
				"element": "H" 
			},
			{
				"x": -1.4182248315,
				"y": 1.4587573319,
				"z": 5.200399641,
				"element": "H" 
			},
			{
				"x": 1.0262291498,
				"y": 1.9478234802,
				"z": 3.4174494365,
				"element": "H" 
			},
			{
				"x": -0.6063706288,
				"y": 2.5970649731,
				"z": 3.1346632766,
				"element": "H" 
			},
			{
				"x": -1.0452698835,
				"y": -1.6051029491,
				"z": 1.7720976937,
				"element": "H" 
			},
			{
				"x": -0.7716065132,
				"y": -2.0966464514,
				"z": -0.6319410505,
				"element": "H" 
			},
			{
				"x": 0.8612701789,
				"y": 1.8401118119,
				"z": -1.2378747393,
				"element": "H" 
			},
			{
				"x": 0.6138680084,
				"y": 2.3179546642,
				"z": 1.1641210481,
				"element": "H" 
			},
			{
				"x": 2.341116771,
				"y": 0.8376094656,
				"z": -5.3933168256,
				"element": "H" 
			},
			{
				"x": 1.8141103986,
				"y": -0.5633377799,
				"z": -6.3681933054,
				"element": "H" 
			},
			{
				"x": -0.3170356458,
				"y": 0.5699738664,
				"z": -6.9228711705,
				"element": "H" 
			},
			{
				"x": 1.0868350741,
				"y": 1.4563843274,
				"z": -7.5224270305,
				"element": "H" 
			},
			{
				"x": -1.068672181,
				"y": -2.0789199004,
				"z": -2.9099686133,
				"element": "H" 
			}
		],
		 "valence_orbital": [ 
			{
				"type": "occ",
				"energy": -0.30557,
				"method": "rhf"
			},
			{
				"type": "occ",
				"energy": -0.27206,
				"method": "rhf"
			},
			{
				"type": "occ",
				"energy": -0.23874,
				"method": "rhf"
			},
			{
				"type": "occ",
				"energy": -0.21646,
				"method": "rhf"
			},
			{
				"type": "occ",
				"energy": -0.20423,
				"method": "rhf"
			},
			{
				"type": "unocc",
				"energy": -0.04287,
				"method": "rhf"
			},
			{
				"type": "unocc",
				"energy": -0.02157,
				"method": "rhf"
			},
			{
				"type": "unocc",
				"energy": -0.00419,
				"method": "rhf"
			},
			{
				"type": "unocc",
				"energy": 0.03112,
				"method": "rhf"
			},
			{
				"type": "unocc",
				"energy": 0.04021,
				"method": "rhf"
			}
		],
		"cosmo_sigma_profile": { 
			"-0.025": 0.0,
			"-0.024": 0.0,
			"-0.023": 0.0,
			"-0.022": 0.0,
			"-0.021": 0.0,
			"-0.02": 0.0,
			"-0.019": 0.0,
			"-0.018": 0.214942148826,
			"-0.017": 1.2767515297,
			"-0.016": 1.20817079469,
			"-0.015": 0.863343034813,
			"-0.014": 1.11344249806,
			"-0.013": 1.44194995443,
			"-0.012": 0.90477006332,
			"-0.011": 1.15254774695,
			"-0.01": 2.06468049669,
			"-0.009": 6.27966105338,
			"-0.008": 9.39190871595,
			"-0.007": 11.255961225,
			"-0.006": 16.148481064,
			"-0.005": 21.6976958646,
			"-0.004": 20.7136883116,
			"-0.003": 27.1291412265,
			"-0.002": 32.8480254178,
			"-0.001": 25.3495989182,
			"0.0": 28.2324108334,
			"0.001": 28.1104368157,
			"0.002": 19.0444308254,
			"0.003": 20.9948810019,
			"0.004": 17.3004458706,
			"0.005": 9.52879075415,
			"0.006": 9.552860605,
			"0.007": 8.77318910947,
			"0.008": 10.4432837904,
			"0.009": 9.61094505052,
			"0.01": 10.1144901009,
			"0.011": 8.46972397477,
			"0.012": 4.15209557661,
			"0.013": 1.81371862123,
			"0.014": 0.184032468335,
			"0.015": 0.0,
			"0.016": 0.0,
			"0.017": 0.0,
			"0.018": 0.0,
			"0.019": 0.0,
			"0.02": 0.0,
			"0.021": 0.0,
			"0.022": 0.0,
			"0.023": 0.0,
			"0.024": 0.0,
			"0.025": 0.0
		}
	}
}
