{
	 "smiles": "CS(=O)(=O)C1=CC(O)=CC=C1", 
	 "Tm": 343.15, 
	 "num_atms": 19, 
	 "gaussian": { 
		 "optdone": 1, 
		 "sigma_profile": "yes", 
		 "theory": "DFT", 
		 "functional": "B3LYP", 
		 "basiset": "6-31G**", 
		 "properties": { 
			 "R2extent": 3252.9998, 
			 "electric_dipole_moment_norm": 4.37768010366, 
			 "electric_quadrupole_moment_norm": 19.0190719279, 
			 "total_energy": -895.356501722, 
			 "HOMO_LUMO_gap": 0.20338, 
			 "cosmo_polarized_energy": -17.96, 
			 "cosmo_cavitation_energy": 24.53, 
			 "cosmo_dispersion_energy": -18.45, 
			 "cosmo_repulsion_energy": 1.43, 
			 "cosmo_total_nonelectrostatic_energy": 7.52, 
			 "SMD_solvation_energy": 4.4 
		},
		"coords": [
			{
				"x": 3.8603395269,
				"y": -1.9982636172,
				"z": -0.0363271728,
				"element": "C" 
			},
			{
				"x": 3.2401193141,
				"y": -0.6180472457,
				"z": -1.028469115,
				"element": "S" 
			},
			{
				"x": 4.2117768011,
				"y": 0.4815288762,
				"z": -0.9090471089,
				"element": "O" 
			},
			{
				"x": 2.8571961094,
				"y": -1.157273348,
				"z": -2.3419658657,
				"element": "O" 
			},
			{
				"x": 1.7381967551,
				"y": -0.1221021855,
				"z": -0.1653713454,
				"element": "C" 
			},
			{
				"x": 1.819672868,
				"y": 0.9207024028,
				"z": 0.7578040404,
				"element": "C" 
			},
			{
				"x": 0.6619337219,
				"y": 1.3070646678,
				"z": 1.4398062116,
				"element": "C" 
			},
			{
				"x": 0.648030195,
				"y": 2.3186601795,
				"z": 2.3520026149,
				"element": "O" 
			},
			{
				"x": -0.5490626232,
				"y": 0.6456166282,
				"z": 1.1935557621,
				"element": "C" 
			},
			{
				"x": -0.6032865208,
				"y": -0.3866550553,
				"z": 0.2606570866,
				"element": "C" 
			},
			{
				"x": 0.5415081122,
				"y": -0.7836057373,
				"z": -0.4361537879,
				"element": "C" 
			},
			{
				"x": 4.0714566447,
				"y": -1.6473124079,
				"z": 0.9746472318,
				"element": "H" 
			},
			{
				"x": 4.778406827,
				"y": -2.3345729471,
				"z": -0.5225956315,
				"element": "H" 
			},
			{
				"x": 3.1183894768,
				"y": -2.7976783156,
				"z": -0.0296268824,
				"element": "H" 
			},
			{
				"x": 2.7675295312,
				"y": 1.4291422923,
				"z": 0.9114941732,
				"element": "H" 
			},
			{
				"x": 1.5283736787,
				"y": 2.7127483636,
				"z": 2.4106936718,
				"element": "H" 
			},
			{
				"x": -1.4338572022,
				"y": 0.9637333467,
				"z": 1.7348007515,
				"element": "H" 
			},
			{
				"x": -1.5502078976,
				"y": -0.8815655098,
				"z": 0.0673478343,
				"element": "H" 
			},
			{
				"x": 0.5062846816,
				"y": -1.5651203878,
				"z": -1.1866524686,
				"element": "H" 
			}
		],
		 "valence_orbital": [ 
			{
				"type": "occ",
				"energy": -0.31141,
				"method": "rhf"
			},
			{
				"type": "occ",
				"energy": -0.29554,
				"method": "rhf"
			},
			{
				"type": "occ",
				"energy": -0.28861,
				"method": "rhf"
			},
			{
				"type": "occ",
				"energy": -0.27643,
				"method": "rhf"
			},
			{
				"type": "occ",
				"energy": -0.24402,
				"method": "rhf"
			},
			{
				"type": "unocc",
				"energy": -0.04064,
				"method": "rhf"
			},
			{
				"type": "unocc",
				"energy": -0.01233,
				"method": "rhf"
			},
			{
				"type": "unocc",
				"energy": 0.05667,
				"method": "rhf"
			},
			{
				"type": "unocc",
				"energy": 0.06472,
				"method": "rhf"
			},
			{
				"type": "unocc",
				"energy": 0.08046,
				"method": "rhf"
			}
		],
		"cosmo_sigma_profile": { 
			"-0.025": 0.0,
			"-0.024": 0.0,
			"-0.023": 0.0,
			"-0.022": 0.0,
			"-0.021": 0.0,
			"-0.02": 0.0,
			"-0.019": 0.301598780986,
			"-0.018": 0.9366491566,
			"-0.017": 1.44637900615,
			"-0.016": 1.11163284545,
			"-0.015": 0.661305526882,
			"-0.014": 1.50795973321,
			"-0.013": 0.766010308039,
			"-0.012": 0.668921459482,
			"-0.011": 0.90995386215,
			"-0.01": 1.49026074794,
			"-0.009": 3.14602818018,
			"-0.008": 6.74018756479,
			"-0.007": 10.0519749342,
			"-0.006": 13.8125114979,
			"-0.005": 13.6215318638,
			"-0.004": 13.5296182262,
			"-0.003": 10.2848763805,
			"-0.002": 6.68065409768,
			"-0.001": 7.85060731311,
			"0.0": 7.98694980467,
			"0.001": 9.32521922738,
			"0.002": 16.360936755,
			"0.003": 13.3503652007,
			"0.004": 7.11155170936,
			"0.005": 3.57832389895,
			"0.006": 2.72756697994,
			"0.007": 3.70309850764,
			"0.008": 4.94654409887,
			"0.009": 4.65437468856,
			"0.01": 5.85753709418,
			"0.011": 10.4533086694,
			"0.012": 8.85320317136,
			"0.013": 1.09840804982,
			"0.014": 0.0,
			"0.015": 0.0,
			"0.016": 0.0,
			"0.017": 0.0,
			"0.018": 0.0,
			"0.019": 0.0,
			"0.02": 0.0,
			"0.021": 0.0,
			"0.022": 0.0,
			"0.023": 0.0,
			"0.024": 0.0,
			"0.025": 0.0
		}
	}
}
