{
	 "smiles": "NC1=NC(CC#N)=NC(N)=N1", 
	 "Tm": 554.15, 
	 "num_atms": 17, 
	 "gaussian": { 
		 "optdone": 1, 
		 "sigma_profile": "yes", 
		 "theory": "DFT", 
		 "functional": "B3LYP", 
		 "basiset": "6-31G**", 
		 "properties": { 
			 "R2extent": 2252.4833, 
			 "electric_dipole_moment_norm": 4.95221154132, 
			 "electric_quadrupole_moment_norm": 19.8533499397, 
			 "total_energy": -522.680064028, 
			 "HOMO_LUMO_gap": 0.22157, 
			 "cosmo_polarized_energy": -18.27, 
			 "cosmo_cavitation_energy": 23.29, 
			 "cosmo_dispersion_energy": -16.89, 
			 "cosmo_repulsion_energy": 1.42, 
			 "cosmo_total_nonelectrostatic_energy": 7.83, 
			 "SMD_solvation_energy": 1.15 
		},
		"coords": [
			{
				"x": 1.5829181597,
				"y": 2.8847133978,
				"z": 0.5842260268,
				"element": "N" 
			},
			{
				"x": 0.9062226727,
				"y": 1.7192406043,
				"z": 0.70109898,
				"element": "C" 
			},
			{
				"x": 1.1904830529,
				"y": 0.958354215,
				"z": 1.7851601191,
				"element": "N" 
			},
			{
				"x": 0.4803655735,
				"y": -0.1654852365,
				"z": 1.8471000469,
				"element": "C" 
			},
			{
				"x": 0.7667866072,
				"y": -1.0834283608,
				"z": 3.0284697571,
				"element": "C" 
			},
			{
				"x": 1.8261564455,
				"y": -2.0491180595,
				"z": 2.71937622,
				"element": "C" 
			},
			{
				"x": 2.6643967917,
				"y": -2.8138142589,
				"z": 2.4761803669,
				"element": "N" 
			},
			{
				"x": -0.4463977004,
				"y": -0.5800800758,
				"z": 0.9866730804,
				"element": "N" 
			},
			{
				"x": -0.6383665676,
				"y": 0.2676416819,
				"z": -0.0522974175,
				"element": "C" 
			},
			{
				"x": -1.5786901693,
				"y": -0.0866102959,
				"z": -0.9579492516,
				"element": "N" 
			},
			{
				"x": 0.0089828632,
				"y": 1.4250154592,
				"z": -0.2509776951,
				"element": "N" 
			},
			{
				"x": 2.3454571481,
				"y": 3.0627963618,
				"z": 1.2166359469,
				"element": "H" 
			},
			{
				"x": 1.4859944579,
				"y": 3.4205590214,
				"z": -0.2621960231,
				"element": "H" 
			},
			{
				"x": 1.0814259751,
				"y": -0.4799905255,
				"z": 3.8848330624,
				"element": "H" 
			},
			{
				"x": -0.1435348716,
				"y": -1.6322776967,
				"z": 3.2864682722,
				"element": "H" 
			},
			{
				"x": -1.9837035883,
				"y": -1.0059275098,
				"z": -0.8951614898,
				"element": "H" 
			},
			{
				"x": -1.6696968501,
				"y": 0.4547112781,
				"z": -1.8015400014,
				"element": "H" 
			}
		],
		 "valence_orbital": [ 
			{
				"type": "occ",
				"energy": -0.31734,
				"method": "rhf"
			},
			{
				"type": "occ",
				"energy": -0.27088,
				"method": "rhf"
			},
			{
				"type": "occ",
				"energy": -0.2669,
				"method": "rhf"
			},
			{
				"type": "occ",
				"energy": -0.26202,
				"method": "rhf"
			},
			{
				"type": "occ",
				"energy": -0.24972,
				"method": "rhf"
			},
			{
				"type": "unocc",
				"energy": -0.02815,
				"method": "rhf"
			},
			{
				"type": "unocc",
				"energy": -0.00161,
				"method": "rhf"
			},
			{
				"type": "unocc",
				"energy": 0.04812,
				"method": "rhf"
			},
			{
				"type": "unocc",
				"energy": 0.0493,
				"method": "rhf"
			},
			{
				"type": "unocc",
				"energy": 0.08171,
				"method": "rhf"
			}
		],
		"cosmo_sigma_profile": { 
			"-0.025": 0.0,
			"-0.024": 0.0,
			"-0.023": 0.0,
			"-0.022": 0.0,
			"-0.021": 0.0,
			"-0.02": 0.0,
			"-0.019": 0.0,
			"-0.018": 0.0,
			"-0.017": 0.0,
			"-0.016": 0.0,
			"-0.015": 0.705639533712,
			"-0.014": 4.43413720482,
			"-0.013": 3.65248567248,
			"-0.012": 3.45839928081,
			"-0.011": 4.16631068068,
			"-0.01": 5.19245593198,
			"-0.009": 6.96395101819,
			"-0.008": 7.0129190072,
			"-0.007": 5.7749917282,
			"-0.006": 7.07029555083,
			"-0.005": 6.3826691358,
			"-0.004": 5.40482187857,
			"-0.003": 6.01738541002,
			"-0.002": 8.65344650521,
			"-0.001": 8.08056189075,
			"0.0": 10.0338790826,
			"0.001": 9.60779214833,
			"0.002": 11.8424318695,
			"0.003": 9.63592699249,
			"0.004": 9.42262508405,
			"0.005": 7.49575826662,
			"0.006": 6.31539205105,
			"0.007": 6.70390717897,
			"0.008": 6.61933258748,
			"0.009": 6.37449845032,
			"0.01": 6.38951688563,
			"0.011": 4.42412087269,
			"0.012": 4.36069418271,
			"0.013": 3.87614467115,
			"0.014": 0.389893974185,
			"0.015": 0.0,
			"0.016": 0.0,
			"0.017": 0.0,
			"0.018": 0.0,
			"0.019": 0.0,
			"0.02": 0.0,
			"0.021": 0.0,
			"0.022": 0.0,
			"0.023": 0.0,
			"0.024": 0.0,
			"0.025": 0.0
		}
	}
}
