{
	 "smiles": "CC1=NN(C(=O)C1)C1=CC=C(C=C1)S(O)(=O)=O", 
	 "Tm": 573.15, 
	 "num_atms": 27, 
	 "gaussian": { 
		 "optdone": 1, 
		 "sigma_profile": "yes", 
		 "theory": "DFT", 
		 "functional": "B3LYP", 
		 "basiset": "6-31G**", 
		 "properties": { 
			 "R2extent": 7091.3658, 
			 "electric_dipole_moment_norm": 7.53866427094, 
			 "electric_quadrupole_moment_norm": 23.5968693387, 
			 "total_energy": -1195.59626001, 
			 "HOMO_LUMO_gap": 0.1841, 
			 "cosmo_polarized_energy": -20.0, 
			 "cosmo_cavitation_energy": 33.27, 
			 "cosmo_dispersion_energy": -25.19, 
			 "cosmo_repulsion_energy": 1.9, 
			 "cosmo_total_nonelectrostatic_energy": 9.99, 
			 "SMD_solvation_energy": 4.84 
		},
		"coords": [
			{
				"x": -3.4023632089,
				"y": 2.5647198828,
				"z": 0.5887818027,
				"element": "C" 
			},
			{
				"x": -2.3057953208,
				"y": 1.7267360495,
				"z": 1.156362114,
				"element": "C" 
			},
			{
				"x": -1.584066882,
				"y": 0.9637496034,
				"z": 0.4118678009,
				"element": "N" 
			},
			{
				"x": -0.6444867105,
				"y": 0.306260558,
				"z": 1.2209222457,
				"element": "N" 
			},
			{
				"x": -0.7585920061,
				"y": 0.6612849475,
				"z": 2.5700796517,
				"element": "C" 
			},
			{
				"x": -0.0854961134,
				"y": 0.2592408344,
				"z": 3.4990795954,
				"element": "O" 
			},
			{
				"x": -1.9115126703,
				"y": 1.6600934998,
				"z": 2.6029116566,
				"element": "C" 
			},
			{
				"x": 0.2612862941,
				"y": -0.5889831296,
				"z": 0.6150393691,
				"element": "C" 
			},
			{
				"x": 0.1966547198,
				"y": -0.7914815834,
				"z": -0.77470781,
				"element": "C" 
			},
			{
				"x": 1.0793186823,
				"y": -1.6701734405,
				"z": -1.3900061992,
				"element": "C" 
			},
			{
				"x": 2.0286153188,
				"y": -2.3442406683,
				"z": -0.6192934582,
				"element": "C" 
			},
			{
				"x": 2.0960228896,
				"y": -2.1555730448,
				"z": 0.7618990576,
				"element": "C" 
			},
			{
				"x": 1.214248945,
				"y": -1.2795552858,
				"z": 1.3857970063,
				"element": "C" 
			},
			{
				"x": 3.1638949364,
				"y": -3.4601676445,
				"z": -1.4095402135,
				"element": "S" 
			},
			{
				"x": 4.402614112,
				"y": -2.4401565316,
				"z": -1.7938495824,
				"element": "O" 
			},
			{
				"x": 2.5760566804,
				"y": -3.9206706326,
				"z": -2.6602469816,
				"element": "O" 
			},
			{
				"x": 3.7061939581,
				"y": -4.3981767834,
				"z": -0.4241428752,
				"element": "O" 
			},
			{
				"x": -4.3663057987,
				"y": 2.3055918598,
				"z": 1.0424109104,
				"element": "H" 
			},
			{
				"x": -3.4674942491,
				"y": 2.4170714002,
				"z": -0.490827268,
				"element": "H" 
			},
			{
				"x": -3.227102517,
				"y": 3.6275917758,
				"z": 0.7930169664,
				"element": "H" 
			},
			{
				"x": -1.5771549225,
				"y": 2.6224488754,
				"z": 3.0069149364,
				"element": "H" 
			},
			{
				"x": -2.7149705122,
				"y": 1.300229095,
				"z": 3.2557293645,
				"element": "H" 
			},
			{
				"x": -0.5473006637,
				"y": -0.2619570283,
				"z": -1.3542306255,
				"element": "H" 
			},
			{
				"x": 1.0270014212,
				"y": -1.8438236535,
				"z": -2.4589632057,
				"element": "H" 
			},
			{
				"x": 2.8241082457,
				"y": -2.7047793036,
				"z": 1.3486256817,
				"element": "H" 
			},
			{
				"x": 1.2523425426,
				"y": -1.1285916887,
				"z": 2.4551107738,
				"element": "H" 
			},
			{
				"x": 5.2028828293,
				"y": -2.8372879629,
				"z": -1.4106407139,
				"element": "H" 
			}
		],
		 "valence_orbital": [ 
			{
				"type": "occ",
				"energy": -0.30124,
				"method": "rhf"
			},
			{
				"type": "occ",
				"energy": -0.29693,
				"method": "rhf"
			},
			{
				"type": "occ",
				"energy": -0.27398,
				"method": "rhf"
			},
			{
				"type": "occ",
				"energy": -0.2717,
				"method": "rhf"
			},
			{
				"type": "occ",
				"energy": -0.23459,
				"method": "rhf"
			},
			{
				"type": "unocc",
				"energy": -0.05049,
				"method": "rhf"
			},
			{
				"type": "unocc",
				"energy": -0.04255,
				"method": "rhf"
			},
			{
				"type": "unocc",
				"energy": -0.01896,
				"method": "rhf"
			},
			{
				"type": "unocc",
				"energy": 0.02487,
				"method": "rhf"
			},
			{
				"type": "unocc",
				"energy": 0.04893,
				"method": "rhf"
			}
		],
		"cosmo_sigma_profile": { 
			"-0.025": 0.0,
			"-0.024": 0.0,
			"-0.023": 0.0,
			"-0.022": 0.0,
			"-0.021": 0.0,
			"-0.02": 0.355593171723,
			"-0.019": 0.874076233591,
			"-0.018": 0.656339728436,
			"-0.017": 0.933400254947,
			"-0.016": 0.750266695344,
			"-0.015": 0.794819303959,
			"-0.014": 0.515031552848,
			"-0.013": 1.00875067902,
			"-0.012": 0.834323046481,
			"-0.011": 0.384647332741,
			"-0.01": 0.617295567164,
			"-0.009": 5.00642452202,
			"-0.008": 8.94439387774,
			"-0.007": 10.9573814357,
			"-0.006": 16.2653622633,
			"-0.005": 16.6182412378,
			"-0.004": 16.382669637,
			"-0.003": 14.7018921609,
			"-0.002": 18.9707225142,
			"-0.001": 15.8289036147,
			"0.0": 13.9731562657,
			"0.001": 20.6818039358,
			"0.002": 20.2541438024,
			"0.003": 9.61162636968,
			"0.004": 6.98722765057,
			"0.005": 6.41490740076,
			"0.006": 7.46049686713,
			"0.007": 8.68824779844,
			"0.008": 7.19086507335,
			"0.009": 11.1109606786,
			"0.01": 12.5936609647,
			"0.011": 7.2764988413,
			"0.012": 2.36441033517,
			"0.013": 0.456263845873,
			"0.014": 0.0,
			"0.015": 0.0,
			"0.016": 0.0,
			"0.017": 0.0,
			"0.018": 0.0,
			"0.019": 0.0,
			"0.02": 0.0,
			"0.021": 0.0,
			"0.022": 0.0,
			"0.023": 0.0,
			"0.024": 0.0,
			"0.025": 0.0
		}
	}
}
