{
	 "smiles": "CN1N=C(C)C2=C1N=CC(C=O)=C2", 
	 "Tm": 381.15, 
	 "num_atms": 22, 
	 "gaussian": { 
		 "optdone": 1, 
		 "sigma_profile": "yes", 
		 "theory": "DFT", 
		 "functional": "B3LYP", 
		 "basiset": "6-31G**", 
		 "properties": { 
			 "R2extent": 2752.7365, 
			 "electric_dipole_moment_norm": 3.24738776557, 
			 "electric_quadrupole_moment_norm": 15.8690042189, 
			 "total_energy": -587.847860016, 
			 "HOMO_LUMO_gap": 0.17348, 
			 "cosmo_polarized_energy": -11.27, 
			 "cosmo_cavitation_energy": 26.77, 
			 "cosmo_dispersion_energy": -19.49, 
			 "cosmo_repulsion_energy": 1.53, 
			 "cosmo_total_nonelectrostatic_energy": 8.81, 
			 "SMD_solvation_energy": 3.52 
		},
		"coords": [
			{
				"x": -1.4962992126,
				"y": -3.2281145751,
				"z": 1.3219218947,
				"element": "C" 
			},
			{
				"x": -0.4678309183,
				"y": -2.3166977222,
				"z": 0.8628916078,
				"element": "N" 
			},
			{
				"x": 0.6943634612,
				"y": -2.7892790108,
				"z": 0.3206387246,
				"element": "N" 
			},
			{
				"x": 1.4357456731,
				"y": -1.7416147704,
				"z": -0.0041375386,
				"element": "C" 
			},
			{
				"x": 2.7844616392,
				"y": -1.9134643109,
				"z": -0.6274926768,
				"element": "C" 
			},
			{
				"x": 0.7493191027,
				"y": -0.5279861922,
				"z": 0.3307717926,
				"element": "C" 
			},
			{
				"x": -0.4845369707,
				"y": -0.9588582318,
				"z": 0.8918223536,
				"element": "C" 
			},
			{
				"x": -1.4758187651,
				"y": -0.1826703599,
				"z": 1.3601359339,
				"element": "N" 
			},
			{
				"x": -1.2346142945,
				"y": 1.1182123349,
				"z": 1.2695325739,
				"element": "C" 
			},
			{
				"x": -0.0451305128,
				"y": 1.6855242671,
				"z": 0.7310819769,
				"element": "C" 
			},
			{
				"x": 0.1126496559,
				"y": 3.150231387,
				"z": 0.6814873552,
				"element": "C" 
			},
			{
				"x": -0.71327485,
				"y": 3.9537578487,
				"z": 1.0741640196,
				"element": "O" 
			},
			{
				"x": 0.9651520816,
				"y": 0.848819688,
				"z": 0.2530818597,
				"element": "C" 
			},
			{
				"x": -1.8484254535,
				"y": -3.848773952,
				"z": 0.4935762141,
				"element": "H" 
			},
			{
				"x": -1.1035020297,
				"y": -3.8745156494,
				"z": 2.1113768527,
				"element": "H" 
			},
			{
				"x": -2.3197134814,
				"y": -2.628125073,
				"z": 1.7106202698,
				"element": "H" 
			},
			{
				"x": 3.0029223631,
				"y": -2.9767567971,
				"z": -0.7447165543,
				"element": "H" 
			},
			{
				"x": 3.5701014188,
				"y": -1.46364724,
				"z": -0.0097427535,
				"element": "H" 
			},
			{
				"x": 2.8318389734,
				"y": -1.438465663,
				"z": -1.614059978,
				"element": "H" 
			},
			{
				"x": -2.0034940053,
				"y": 1.7949624222,
				"z": 1.6339644974,
				"element": "H" 
			},
			{
				"x": 1.0779924752,
				"y": 3.4919477367,
				"z": 0.2427601145,
				"element": "H" 
			},
			{
				"x": 1.8793936497,
				"y": 1.2693138632,
				"z": -0.1609785397,
				"element": "H" 
			}
		],
		 "valence_orbital": [ 
			{
				"type": "occ",
				"energy": -0.30655,
				"method": "rhf"
			},
			{
				"type": "occ",
				"energy": -0.2809,
				"method": "rhf"
			},
			{
				"type": "occ",
				"energy": -0.25987,
				"method": "rhf"
			},
			{
				"type": "occ",
				"energy": -0.25395,
				"method": "rhf"
			},
			{
				"type": "occ",
				"energy": -0.23901,
				"method": "rhf"
			},
			{
				"type": "unocc",
				"energy": -0.06553,
				"method": "rhf"
			},
			{
				"type": "unocc",
				"energy": -0.04701,
				"method": "rhf"
			},
			{
				"type": "unocc",
				"energy": 0.02971,
				"method": "rhf"
			},
			{
				"type": "unocc",
				"energy": 0.05304,
				"method": "rhf"
			},
			{
				"type": "unocc",
				"energy": 0.09396,
				"method": "rhf"
			}
		],
		"cosmo_sigma_profile": { 
			"-0.025": 0.0,
			"-0.024": 0.0,
			"-0.023": 0.0,
			"-0.022": 0.0,
			"-0.021": 0.0,
			"-0.02": 0.0,
			"-0.019": 0.0,
			"-0.018": 0.0,
			"-0.017": 0.0,
			"-0.016": 0.0,
			"-0.015": 0.0,
			"-0.014": 0.0,
			"-0.013": 0.0,
			"-0.012": 0.0,
			"-0.011": 0.0,
			"-0.01": 0.0,
			"-0.009": 1.30404512865,
			"-0.008": 3.97818499086,
			"-0.007": 4.43432159919,
			"-0.006": 11.8836665301,
			"-0.005": 16.5068735076,
			"-0.004": 18.8194402041,
			"-0.003": 20.8173182904,
			"-0.002": 16.6577883514,
			"-0.001": 24.7752853222,
			"0.0": 24.9920674723,
			"0.001": 13.0092592557,
			"0.002": 5.89580039154,
			"0.003": 6.4228538492,
			"0.004": 5.378489797,
			"0.005": 4.53594866929,
			"0.006": 3.76056911542,
			"0.007": 4.27794147595,
			"0.008": 4.66393210073,
			"0.009": 3.99613615436,
			"0.01": 4.19677136433,
			"0.011": 5.44655580432,
			"0.012": 5.09228281688,
			"0.013": 2.27221996393,
			"0.014": 0.943157423917,
			"0.015": 0.249232224554,
			"0.016": 0.0,
			"0.017": 0.0,
			"0.018": 0.0,
			"0.019": 0.0,
			"0.02": 0.0,
			"0.021": 0.0,
			"0.022": 0.0,
			"0.023": 0.0,
			"0.024": 0.0,
			"0.025": 0.0
		}
	}
}
