{
	 "smiles": "OC(=O)C1=NC2=C(C=CC(Cl)=C2)C=C1", 
	 "Tm": 453.15, 
	 "num_atms": 20, 
	 "gaussian": { 
		 "optdone": 1, 
		 "sigma_profile": "yes", 
		 "theory": "DFT", 
		 "functional": "B3LYP", 
		 "basiset": "6-31G**", 
		 "properties": { 
			 "R2extent": 4410.1679, 
			 "electric_dipole_moment_norm": 5.13462397163, 
			 "electric_quadrupole_moment_norm": 15.4915718263, 
			 "total_energy": -1050.0978905, 
			 "HOMO_LUMO_gap": 0.16727, 
			 "cosmo_polarized_energy": -11.76, 
			 "cosmo_cavitation_energy": 27.0, 
			 "cosmo_dispersion_energy": -20.3, 
			 "cosmo_repulsion_energy": 1.57, 
			 "cosmo_total_nonelectrostatic_energy": 8.27, 
			 "SMD_solvation_energy": 4.55 
		},
		"coords": [
			{
				"x": 0.585748461,
				"y": -0.4194389761,
				"z": -4.2472848353,
				"element": "O" 
			},
			{
				"x": -0.2604988476,
				"y": -1.0211668747,
				"z": -3.4002961279,
				"element": "C" 
			},
			{
				"x": -0.9725030597,
				"y": -1.9483765882,
				"z": -3.713484969,
				"element": "O" 
			},
			{
				"x": -0.2463381802,
				"y": -0.4335511179,
				"z": -2.0070888026,
				"element": "C" 
			},
			{
				"x": 0.5853290858,
				"y": 0.5767079587,
				"z": -1.8178819499,
				"element": "N" 
			},
			{
				"x": 0.6431278245,
				"y": 1.1482481812,
				"z": -0.5830045579,
				"element": "C" 
			},
			{
				"x": -0.1702688453,
				"y": 0.6801665967,
				"z": 0.4989538028,
				"element": "C" 
			},
			{
				"x": -0.0620053845,
				"y": 1.3195936914,
				"z": 1.7613784926,
				"element": "C" 
			},
			{
				"x": 0.8061806991,
				"y": 2.3697942958,
				"z": 1.9484863409,
				"element": "C" 
			},
			{
				"x": 1.6032284397,
				"y": 2.8191822359,
				"z": 0.8657233534,
				"element": "C" 
			},
			{
				"x": 2.6990564216,
				"y": 4.1597126415,
				"z": 1.1384436969,
				"element": "Cl" 
			},
			{
				"x": 1.5346704972,
				"y": 2.2328442545,
				"z": -0.3759362872,
				"element": "C" 
			},
			{
				"x": -1.0467648641,
				"y": -0.406242612,
				"z": 0.2466687607,
				"element": "C" 
			},
			{
				"x": -1.0904423389,
				"y": -0.9695100162,
				"z": -1.006425649,
				"element": "C" 
			},
			{
				"x": 1.0279306802,
				"y": 0.287926806,
				"z": -3.7320704549,
				"element": "H" 
			},
			{
				"x": -0.6765000361,
				"y": 0.9688470603,
				"z": 2.58573821,
				"element": "H" 
			},
			{
				"x": 0.8913427629,
				"y": 2.8603853707,
				"z": 2.9114583808,
				"element": "H" 
			},
			{
				"x": 2.1431661933,
				"y": 2.5751399215,
				"z": -1.2044421239,
				"element": "H" 
			},
			{
				"x": -1.675110999,
				"y": -0.781083124,
				"z": 1.0502815137,
				"element": "H" 
			},
			{
				"x": -1.7384485099,
				"y": -1.7999797052,
				"z": -1.2592167944,
				"element": "H" 
			}
		],
		 "valence_orbital": [ 
			{
				"type": "occ",
				"energy": -0.31182,
				"method": "rhf"
			},
			{
				"type": "occ",
				"energy": -0.30916,
				"method": "rhf"
			},
			{
				"type": "occ",
				"energy": -0.27437,
				"method": "rhf"
			},
			{
				"type": "occ",
				"energy": -0.27093,
				"method": "rhf"
			},
			{
				"type": "occ",
				"energy": -0.2584,
				"method": "rhf"
			},
			{
				"type": "unocc",
				"energy": -0.09113,
				"method": "rhf"
			},
			{
				"type": "unocc",
				"energy": -0.05569,
				"method": "rhf"
			},
			{
				"type": "unocc",
				"energy": -0.01435,
				"method": "rhf"
			},
			{
				"type": "unocc",
				"energy": 0.01334,
				"method": "rhf"
			},
			{
				"type": "unocc",
				"energy": 0.02194,
				"method": "rhf"
			}
		],
		"cosmo_sigma_profile": { 
			"-0.025": 0.0,
			"-0.024": 0.0,
			"-0.023": 0.0,
			"-0.022": 0.0,
			"-0.021": 0.0,
			"-0.02": 0.0,
			"-0.019": 0.0,
			"-0.018": 0.0,
			"-0.017": 0.0,
			"-0.016": 0.0,
			"-0.015": 0.0,
			"-0.014": 0.0,
			"-0.013": 0.366917245873,
			"-0.012": 0.316608502655,
			"-0.011": 0.62945178341,
			"-0.01": 1.01186669937,
			"-0.009": 1.68457117588,
			"-0.008": 8.31703865608,
			"-0.007": 10.0073479585,
			"-0.006": 10.2516969605,
			"-0.005": 9.62198378817,
			"-0.004": 10.5610389743,
			"-0.003": 9.30447310798,
			"-0.002": 16.1159968605,
			"-0.001": 20.8201757017,
			"0.0": 26.5790376775,
			"0.001": 26.5262041202,
			"0.002": 14.3497365802,
			"0.003": 11.0173696393,
			"0.004": 13.4691566296,
			"0.005": 2.52445022051,
			"0.006": 2.65018891846,
			"0.007": 2.61268869743,
			"0.008": 3.20143544668,
			"0.009": 4.00254708072,
			"0.01": 5.05752779548,
			"0.011": 5.27814011961,
			"0.012": 3.18495731123,
			"0.013": 0.954309994101,
			"0.014": 0.0,
			"0.015": 0.0,
			"0.016": 0.0,
			"0.017": 0.0,
			"0.018": 0.0,
			"0.019": 0.0,
			"0.02": 0.0,
			"0.021": 0.0,
			"0.022": 0.0,
			"0.023": 0.0,
			"0.024": 0.0,
			"0.025": 0.0
		}
	}
}
