{
	 "smiles": "OC(=O)C1=NOC(=N1)C1=CC=CC=C1", 
	 "Tm": 385.15, 
	 "num_atms": 20, 
	 "gaussian": { 
		 "optdone": 1, 
		 "sigma_profile": "yes", 
		 "theory": "DFT", 
		 "functional": "B3LYP", 
		 "basiset": "6-31G**", 
		 "properties": { 
			 "R2extent": 3571.1161, 
			 "electric_dipole_moment_norm": 5.82366276067, 
			 "electric_quadrupole_moment_norm": 8.02960490373, 
			 "total_energy": -681.713726137, 
			 "HOMO_LUMO_gap": 0.18481, 
			 "cosmo_polarized_energy": -13.11, 
			 "cosmo_cavitation_energy": 26.23, 
			 "cosmo_dispersion_energy": -19.6, 
			 "cosmo_repulsion_energy": 1.53, 
			 "cosmo_total_nonelectrostatic_energy": 8.16, 
			 "SMD_solvation_energy": 4.34 
		},
		"coords": [
			{
				"x": -1.0553882476,
				"y": 4.3950935569,
				"z": -0.5453357577,
				"element": "O" 
			},
			{
				"x": -0.3136468154,
				"y": 3.3347047961,
				"z": -0.9257400944,
				"element": "C" 
			},
			{
				"x": 0.4944314879,
				"y": 3.3881321856,
				"z": -1.8142629643,
				"element": "O" 
			},
			{
				"x": -0.5901729629,
				"y": 2.0849391935,
				"z": -0.1373775936,
				"element": "C" 
			},
			{
				"x": -1.4875252972,
				"y": 2.0966634641,
				"z": 0.8211802344,
				"element": "N" 
			},
			{
				"x": -1.4616561761,
				"y": 0.7952516223,
				"z": 1.3053266953,
				"element": "O" 
			},
			{
				"x": -0.5335436246,
				"y": 0.1285240228,
				"z": 0.5710130862,
				"element": "C" 
			},
			{
				"x": 0.0317249692,
				"y": 0.8856259048,
				"z": -0.3335239993,
				"element": "N" 
			},
			{
				"x": -0.2849052369,
				"y": -1.2789599198,
				"z": 0.8575203404,
				"element": "C" 
			},
			{
				"x": 0.6762925018,
				"y": -1.9634740828,
				"z": 0.0955966257,
				"element": "C" 
			},
			{
				"x": 0.9296589927,
				"y": -3.3074649907,
				"z": 0.3521012066,
				"element": "C" 
			},
			{
				"x": 0.2307809786,
				"y": -3.9731222023,
				"z": 1.3633110816,
				"element": "C" 
			},
			{
				"x": -0.7255215236,
				"y": -3.2924067625,
				"z": 2.1214243471,
				"element": "C" 
			},
			{
				"x": -0.9869978159,
				"y": -1.9475233602,
				"z": 1.8733004938,
				"element": "C" 
			},
			{
				"x": -1.6434105889,
				"y": 4.1399904914,
				"z": 0.1865472856,
				"element": "H" 
			},
			{
				"x": 1.2084387372,
				"y": -1.4302849656,
				"z": -0.6848001398,
				"element": "H" 
			},
			{
				"x": 1.6724033362,
				"y": -3.837051702,
				"z": -0.2364357171,
				"element": "H" 
			},
			{
				"x": 0.4312822092,
				"y": -5.0220528317,
				"z": 1.5605255467,
				"element": "H" 
			},
			{
				"x": -1.2678472618,
				"y": -3.8100482559,
				"z": 2.9065659735,
				"element": "H" 
			},
			{
				"x": -1.7282976618,
				"y": -1.414236164,
				"z": 2.4587633491,
				"element": "H" 
			}
		],
		 "valence_orbital": [ 
			{
				"type": "occ",
				"energy": -0.32343,
				"method": "rhf"
			},
			{
				"type": "occ",
				"energy": -0.32063,
				"method": "rhf"
			},
			{
				"type": "occ",
				"energy": -0.28878,
				"method": "rhf"
			},
			{
				"type": "occ",
				"energy": -0.27778,
				"method": "rhf"
			},
			{
				"type": "occ",
				"energy": -0.2668,
				"method": "rhf"
			},
			{
				"type": "unocc",
				"energy": -0.08199,
				"method": "rhf"
			},
			{
				"type": "unocc",
				"energy": -0.05227,
				"method": "rhf"
			},
			{
				"type": "unocc",
				"energy": -0.026,
				"method": "rhf"
			},
			{
				"type": "unocc",
				"energy": 0.03039,
				"method": "rhf"
			},
			{
				"type": "unocc",
				"energy": 0.05127,
				"method": "rhf"
			}
		],
		"cosmo_sigma_profile": { 
			"-0.025": 0.0,
			"-0.024": 0.0,
			"-0.023": 0.0,
			"-0.022": 0.0,
			"-0.021": 0.0,
			"-0.02": 0.0,
			"-0.019": 0.0,
			"-0.018": 0.0,
			"-0.017": 0.126285243045,
			"-0.016": 0.855981653852,
			"-0.015": 0.611947708492,
			"-0.014": 0.796929455358,
			"-0.013": 0.512635491681,
			"-0.012": 0.609344442895,
			"-0.011": 0.831129963368,
			"-0.01": 1.08480295039,
			"-0.009": 1.72619336276,
			"-0.008": 1.77655480004,
			"-0.007": 9.95222201128,
			"-0.006": 15.5819453057,
			"-0.005": 17.0363687779,
			"-0.004": 13.6946925806,
			"-0.003": 13.0556968456,
			"-0.002": 11.676425333,
			"-0.001": 12.9409741905,
			"0.0": 13.1203401366,
			"0.001": 12.7859975857,
			"0.002": 15.5332720696,
			"0.003": 17.8762070281,
			"0.004": 9.79252734106,
			"0.005": 4.61433145512,
			"0.006": 3.9988544588,
			"0.007": 5.83805596661,
			"0.008": 5.81273788286,
			"0.009": 5.72927844509,
			"0.01": 6.71483437488,
			"0.011": 5.08170757095,
			"0.012": 2.35871246133,
			"0.013": 0.159475242728,
			"0.014": 0.0,
			"0.015": 0.0,
			"0.016": 0.0,
			"0.017": 0.0,
			"0.018": 0.0,
			"0.019": 0.0,
			"0.02": 0.0,
			"0.021": 0.0,
			"0.022": 0.0,
			"0.023": 0.0,
			"0.024": 0.0,
			"0.025": 0.0
		}
	}
}
