{
	 "smiles": "ClC1=C(N=CC=C1)C#N", 
	 "Tm": 357.15, 
	 "num_atms": 12, 
	 "gaussian": { 
		 "optdone": 1, 
		 "sigma_profile": "yes", 
		 "theory": "DFT", 
		 "functional": "B3LYP", 
		 "basiset": "6-31G**", 
		 "properties": { 
			 "R2extent": 1941.7142, 
			 "electric_dipole_moment_norm": 5.891050094, 
			 "electric_quadrupole_moment_norm": 12.4241440156, 
			 "total_energy": -800.107233142, 
			 "HOMO_LUMO_gap": 0.20103, 
			 "cosmo_polarized_energy": -10.49, 
			 "cosmo_cavitation_energy": 19.66, 
			 "cosmo_dispersion_energy": -14.22, 
			 "cosmo_repulsion_energy": 1.17, 
			 "cosmo_total_nonelectrostatic_energy": 6.61, 
			 "SMD_solvation_energy": 3.21 
		},
		"coords": [
			{
				"x": 2.66106935,
				"y": 0.4410878294,
				"z": -2.3697318684,
				"element": "Cl" 
			},
			{
				"x": 1.480088944,
				"y": -0.2385202694,
				"z": -1.2855797339,
				"element": "C" 
			},
			{
				"x": 0.1029150332,
				"y": -0.1516850428,
				"z": -1.5615893844,
				"element": "C" 
			},
			{
				"x": -0.8302801735,
				"y": -0.6661305625,
				"z": -0.744384604,
				"element": "N" 
			},
			{
				"x": -0.4253600266,
				"y": -1.2797655896,
				"z": 0.3669134631,
				"element": "C" 
			},
			{
				"x": 0.9201212847,
				"y": -1.4138908806,
				"z": 0.722835505,
				"element": "C" 
			},
			{
				"x": 1.8916590114,
				"y": -0.8830093919,
				"z": -0.1196900532,
				"element": "C" 
			},
			{
				"x": -0.3785545464,
				"y": 0.5032556501,
				"z": -2.7522920967,
				"element": "C" 
			},
			{
				"x": -0.7741640192,
				"y": 1.0293222684,
				"z": -3.7095483464,
				"element": "N" 
			},
			{
				"x": -1.2101192878,
				"y": -1.6828635599,
				"z": 1.0024586037,
				"element": "H" 
			},
			{
				"x": 1.1997077445,
				"y": -1.9228383746,
				"z": 1.6394783832,
				"element": "H" 
			},
			{
				"x": 2.9483166857,
				"y": -0.9606620767,
				"z": 0.1113301322,
				"element": "H" 
			}
		],
		 "valence_orbital": [ 
			{
				"type": "occ",
				"energy": -0.35147,
				"method": "rhf"
			},
			{
				"type": "occ",
				"energy": -0.33584,
				"method": "rhf"
			},
			{
				"type": "occ",
				"energy": -0.3119,
				"method": "rhf"
			},
			{
				"type": "occ",
				"energy": -0.29382,
				"method": "rhf"
			},
			{
				"type": "occ",
				"energy": -0.27925,
				"method": "rhf"
			},
			{
				"type": "unocc",
				"energy": -0.07822,
				"method": "rhf"
			},
			{
				"type": "unocc",
				"energy": -0.05587,
				"method": "rhf"
			},
			{
				"type": "unocc",
				"energy": 0.00629,
				"method": "rhf"
			},
			{
				"type": "unocc",
				"energy": 0.02477,
				"method": "rhf"
			},
			{
				"type": "unocc",
				"energy": 0.05766,
				"method": "rhf"
			}
		],
		"cosmo_sigma_profile": { 
			"-0.025": 0.0,
			"-0.024": 0.0,
			"-0.023": 0.0,
			"-0.022": 0.0,
			"-0.021": 0.0,
			"-0.02": 0.0,
			"-0.019": 0.0,
			"-0.018": 0.0,
			"-0.017": 0.0,
			"-0.016": 0.0,
			"-0.015": 0.0,
			"-0.014": 0.0,
			"-0.013": 0.0,
			"-0.012": 0.0,
			"-0.011": 0.0,
			"-0.01": 0.774523140211,
			"-0.009": 4.16269778255,
			"-0.008": 8.62767689622,
			"-0.007": 6.39179909536,
			"-0.006": 5.14299647168,
			"-0.005": 5.47510965331,
			"-0.004": 8.91025515176,
			"-0.003": 13.2364277155,
			"-0.002": 15.6082796682,
			"-0.001": 15.406888784,
			"0.0": 11.65768438,
			"0.001": 8.1206385378,
			"0.002": 11.574441959,
			"0.003": 12.179007316,
			"0.004": 4.56257343042,
			"0.005": 5.05166312587,
			"0.006": 3.51186501161,
			"0.007": 5.02855386234,
			"0.008": 4.03194030639,
			"0.009": 3.54325111166,
			"0.01": 3.60010548434,
			"0.011": 3.22245541097,
			"0.012": 2.26514886078,
			"0.013": 0.551670250353,
			"0.014": 0.0215660097297,
			"0.015": 0.0,
			"0.016": 0.0,
			"0.017": 0.0,
			"0.018": 0.0,
			"0.019": 0.0,
			"0.02": 0.0,
			"0.021": 0.0,
			"0.022": 0.0,
			"0.023": 0.0,
			"0.024": 0.0,
			"0.025": 0.0
		}
	}
}
