{
	 "smiles": "NC1=C(OC(F)F)C(Br)=CC(Cl)=C1", 
	 "Tm": 360.15, 
	 "num_atms": 18, 
	 "gaussian": { 
		 "optdone": 1, 
		 "sigma_profile": "yes", 
		 "theory": "DFT", 
		 "functional": "B3LYP", 
		 "basiset": "6-31G**", 
		 "properties": { 
			 "R2extent": 4566.5873, 
			 "electric_dipole_moment_norm": 1.86576353003, 
			 "electric_quadrupole_moment_norm": 12.7130851975, 
			 "total_energy": -3631.00212803, 
			 "HOMO_LUMO_gap": 0.19679, 
			 "cosmo_polarized_energy": -8.91, 
			 "cosmo_cavitation_energy": 27.37, 
			 "cosmo_dispersion_energy": -20.23, 
			 "cosmo_repulsion_energy": 1.57, 
			 "cosmo_total_nonelectrostatic_energy": 8.72, 
			 "SMD_solvation_energy": 4.42 
		},
		"coords": [
			{
				"x": -0.1098945164,
				"y": -0.6801794939,
				"z": -2.3319733768,
				"element": "N" 
			},
			{
				"x": 0.3467351782,
				"y": -1.1164246395,
				"z": -1.1089469927,
				"element": "C" 
			},
			{
				"x": -0.2025671168,
				"y": -0.5902792439,
				"z": 0.0819271999,
				"element": "C" 
			},
			{
				"x": -1.0933893043,
				"y": 0.4732367974,
				"z": -0.0230932871,
				"element": "O" 
			},
			{
				"x": -2.439744477,
				"y": 0.1647104583,
				"z": 0.0306327368,
				"element": "C" 
			},
			{
				"x": -3.0856173672,
				"y": 1.2964662223,
				"z": 0.3535523678,
				"element": "F" 
			},
			{
				"x": -2.8744552759,
				"y": -0.2177324772,
				"z": -1.2056354827,
				"element": "F" 
			},
			{
				"x": 0.2332472305,
				"y": -1.0576962839,
				"z": 1.321813485,
				"element": "C" 
			},
			{
				"x": -0.496579189,
				"y": -0.3150029406,
				"z": 2.9175455201,
				"element": "Br" 
			},
			{
				"x": 1.2035319752,
				"y": -2.0526666285,
				"z": 1.4274523523,
				"element": "C" 
			},
			{
				"x": 1.7396553395,
				"y": -2.5587899207,
				"z": 0.2440271751,
				"element": "C" 
			},
			{
				"x": 2.9718665454,
				"y": -3.8062054585,
				"z": 0.3408733048,
				"element": "Cl" 
			},
			{
				"x": 1.334508546,
				"y": -2.1121886113,
				"z": -1.0074549961,
				"element": "C" 
			},
			{
				"x": 0.5115054796,
				"y": -0.7742069642,
				"z": -3.1200616301,
				"element": "H" 
			},
			{
				"x": -0.6861277486,
				"y": 0.1478552333,
				"z": -2.3278071404,
				"element": "H" 
			},
			{
				"x": -2.6699858627,
				"y": -0.6312981773,
				"z": 0.7448051404,
				"element": "H" 
			},
			{
				"x": 1.5315889302,
				"y": -2.4115566953,
				"z": 2.393301171,
				"element": "H" 
			},
			{
				"x": 1.7691216333,
				"y": -2.5362411766,
				"z": -1.9057575475,
				"element": "H" 
			}
		],
		 "valence_orbital": [ 
			{
				"type": "occ",
				"energy": -0.32177,
				"method": "rhf"
			},
			{
				"type": "occ",
				"energy": -0.29884,
				"method": "rhf"
			},
			{
				"type": "occ",
				"energy": -0.29316,
				"method": "rhf"
			},
			{
				"type": "occ",
				"energy": -0.25212,
				"method": "rhf"
			},
			{
				"type": "occ",
				"energy": -0.22549,
				"method": "rhf"
			},
			{
				"type": "unocc",
				"energy": -0.0287,
				"method": "rhf"
			},
			{
				"type": "unocc",
				"energy": -0.01554,
				"method": "rhf"
			},
			{
				"type": "unocc",
				"energy": -0.01233,
				"method": "rhf"
			},
			{
				"type": "unocc",
				"energy": 0.03517,
				"method": "rhf"
			},
			{
				"type": "unocc",
				"energy": 0.07624,
				"method": "rhf"
			}
		],
		"cosmo_sigma_profile": { 
			"-0.025": 0.0,
			"-0.024": 0.0,
			"-0.023": 0.0,
			"-0.022": 0.0,
			"-0.021": 0.0,
			"-0.02": 0.0,
			"-0.019": 0.0,
			"-0.018": 0.0,
			"-0.017": 0.0,
			"-0.016": 0.0,
			"-0.015": 0.0,
			"-0.014": 0.950030108336,
			"-0.013": 1.62242881192,
			"-0.012": 2.39792547194,
			"-0.011": 2.41091390434,
			"-0.01": 4.24503867253,
			"-0.009": 4.16577444109,
			"-0.008": 5.40763535539,
			"-0.007": 5.87608419985,
			"-0.006": 5.59917177221,
			"-0.005": 6.66413904065,
			"-0.004": 7.19531349308,
			"-0.003": 8.15742735088,
			"-0.002": 10.3399261649,
			"-0.001": 11.1121606482,
			"0.0": 16.9192787803,
			"0.001": 25.1022035369,
			"0.002": 27.867122943,
			"0.003": 32.2451574966,
			"0.004": 29.9899834151,
			"0.005": 7.49983651307,
			"0.006": 3.13164324612,
			"0.007": 2.61744167628,
			"0.008": 1.5318201826,
			"0.009": 0.619459646939,
			"0.01": 0.733867964765,
			"0.011": 0.414319701096,
			"0.012": 0.0,
			"0.013": 0.0,
			"0.014": 0.0,
			"0.015": 0.0,
			"0.016": 0.0,
			"0.017": 0.0,
			"0.018": 0.0,
			"0.019": 0.0,
			"0.02": 0.0,
			"0.021": 0.0,
			"0.022": 0.0,
			"0.023": 0.0,
			"0.024": 0.0,
			"0.025": 0.0
		}
	}
}
