{
	 "smiles": "OC(=O)CC(=O)C1=CC=C(O)C=C1", 
	 "Tm": 363.15, 
	 "num_atms": 21, 
	 "gaussian": { 
		 "optdone": 1, 
		 "sigma_profile": "yes", 
		 "theory": "DFT", 
		 "functional": "B3LYP", 
		 "basiset": "6-31G**", 
		 "properties": { 
			 "R2extent": 3937.4286, 
			 "electric_dipole_moment_norm": 4.96555062506, 
			 "electric_quadrupole_moment_norm": 8.92974865492, 
			 "total_energy": -648.683549049, 
			 "HOMO_LUMO_gap": 0.18523, 
			 "cosmo_polarized_energy": -20.24, 
			 "cosmo_cavitation_energy": 26.63, 
			 "cosmo_dispersion_energy": -19.29, 
			 "cosmo_repulsion_energy": 1.53, 
			 "cosmo_total_nonelectrostatic_energy": 8.88, 
			 "SMD_solvation_energy": 6.66 
		},
		"coords": [
			{
				"x": -1.0715360866,
				"y": -4.7714557318,
				"z": -0.2925529786,
				"element": "O" 
			},
			{
				"x": -1.5790858082,
				"y": -3.6606067919,
				"z": 0.2862863624,
				"element": "C" 
			},
			{
				"x": -2.2518099797,
				"y": -3.683259145,
				"z": 1.2905824863,
				"element": "O" 
			},
			{
				"x": -1.2064025817,
				"y": -2.4147524214,
				"z": -0.487546732,
				"element": "C" 
			},
			{
				"x": 0.2130034241,
				"y": -1.9431266117,
				"z": -0.1311389129,
				"element": "C" 
			},
			{
				"x": 0.8762051826,
				"y": -2.5549279593,
				"z": 0.6915005634,
				"element": "O" 
			},
			{
				"x": 0.7369154004,
				"y": -0.7273637011,
				"z": -0.8100395897,
				"element": "C" 
			},
			{
				"x": 2.0355661159,
				"y": -0.2925890056,
				"z": -0.4825792202,
				"element": "C" 
			},
			{
				"x": 2.5861914321,
				"y": 0.8312421237,
				"z": -1.0754043689,
				"element": "C" 
			},
			{
				"x": 1.8397277941,
				"y": 1.5536977879,
				"z": -2.019256138,
				"element": "C" 
			},
			{
				"x": 2.4260185511,
				"y": 2.6484250321,
				"z": -2.5709094091,
				"element": "O" 
			},
			{
				"x": 0.5455597359,
				"y": 1.1373526642,
				"z": -2.3573508433,
				"element": "C" 
			},
			{
				"x": 0.0036407175,
				"y": 0.0059086662,
				"z": -1.7551019646,
				"element": "C" 
			},
			{
				"x": -1.3091754269,
				"y": -5.5128595996,
				"z": 0.289236066,
				"element": "H" 
			},
			{
				"x": -1.927693517,
				"y": -1.6308750584,
				"z": -0.2393186206,
				"element": "H" 
			},
			{
				"x": -1.2652930305,
				"y": -2.6110668158,
				"z": -1.5634655394,
				"element": "H" 
			},
			{
				"x": 2.5948895089,
				"y": -0.8646885077,
				"z": 0.249932109,
				"element": "H" 
			},
			{
				"x": 3.5860546675,
				"y": 1.1718681252,
				"z": -0.8282734726,
				"element": "H" 
			},
			{
				"x": 1.8179316575,
				"y": 3.0597492032,
				"z": -3.199471247,
				"element": "H" 
			},
			{
				"x": -0.0328717003,
				"y": 1.697934527,
				"z": -3.0883433867,
				"element": "H" 
			},
			{
				"x": -1.0008360567,
				"y": -0.2977067802,
				"z": -2.0315851635,
				"element": "H" 
			}
		],
		 "valence_orbital": [ 
			{
				"type": "occ",
				"energy": -0.31405,
				"method": "rhf"
			},
			{
				"type": "occ",
				"energy": -0.27319,
				"method": "rhf"
			},
			{
				"type": "occ",
				"energy": -0.27051,
				"method": "rhf"
			},
			{
				"type": "occ",
				"energy": -0.25638,
				"method": "rhf"
			},
			{
				"type": "occ",
				"energy": -0.24105,
				"method": "rhf"
			},
			{
				"type": "unocc",
				"energy": -0.05582,
				"method": "rhf"
			},
			{
				"type": "unocc",
				"energy": -0.01874,
				"method": "rhf"
			},
			{
				"type": "unocc",
				"energy": 0.01005,
				"method": "rhf"
			},
			{
				"type": "unocc",
				"energy": 0.04145,
				"method": "rhf"
			},
			{
				"type": "unocc",
				"energy": 0.05472,
				"method": "rhf"
			}
		],
		"cosmo_sigma_profile": { 
			"-0.025": 0.0,
			"-0.024": 0.0,
			"-0.023": 0.0,
			"-0.022": 0.0,
			"-0.021": 0.0,
			"-0.02": 0.0,
			"-0.019": 0.283321199242,
			"-0.018": 1.9457212605,
			"-0.017": 1.94769520167,
			"-0.016": 2.24142628273,
			"-0.015": 1.87035447166,
			"-0.014": 1.95610460639,
			"-0.013": 0.985862697459,
			"-0.012": 1.63608180041,
			"-0.011": 1.38318661878,
			"-0.01": 2.82695610459,
			"-0.009": 1.51723059323,
			"-0.008": 7.50398517085,
			"-0.007": 11.4608949159,
			"-0.006": 11.732972032,
			"-0.005": 10.8948340756,
			"-0.004": 10.1360882353,
			"-0.003": 7.58572254983,
			"-0.002": 8.96219020626,
			"-0.001": 7.42523322138,
			"0.0": 9.76621182263,
			"0.001": 11.3684155353,
			"0.002": 15.3227105137,
			"0.003": 17.9625314097,
			"0.004": 10.0264906811,
			"0.005": 4.29492694399,
			"0.006": 6.04937318799,
			"0.007": 6.46816400639,
			"0.008": 6.60839567834,
			"0.009": 7.49838371815,
			"0.01": 6.84887080164,
			"0.011": 9.295410521,
			"0.012": 5.86356203595,
			"0.013": 0.37883718829,
			"0.014": 0.0,
			"0.015": 0.0,
			"0.016": 0.0,
			"0.017": 0.0,
			"0.018": 0.0,
			"0.019": 0.0,
			"0.02": 0.0,
			"0.021": 0.0,
			"0.022": 0.0,
			"0.023": 0.0,
			"0.024": 0.0,
			"0.025": 0.0
		}
	}
}
