{
	 "smiles": "CC(C)(C)OC(=O)N1CCCCCC1C(N)=NO", 
	 "Tm": 424.15, 
	 "num_atms": 41, 
	 "gaussian": { 
		 "optdone": 1, 
		 "sigma_profile": "yes", 
		 "theory": "DFT", 
		 "functional": "B3LYP", 
		 "basiset": "6-31G**", 
		 "properties": { 
			 "R2extent": 5829.9629, 
			 "electric_dipole_moment_norm": 2.58176963535, 
			 "electric_quadrupole_moment_norm": 6.66159525564, 
			 "total_energy": -861.050576946, 
			 "HOMO_LUMO_gap": 0.24127, 
			 "cosmo_polarized_energy": -14.96, 
			 "cosmo_cavitation_energy": 39.61, 
			 "cosmo_dispersion_energy": -27.47, 
			 "cosmo_repulsion_energy": 2.16, 
			 "cosmo_total_nonelectrostatic_energy": 14.3, 
			 "SMD_solvation_energy": 6.74 
		},
		"coords": [
			{
				"x": 1.9292591097,
				"y": -2.0395191223,
				"z": 2.6167391209,
				"element": "C" 
			},
			{
				"x": 1.400980315,
				"y": -0.6028309771,
				"z": 2.687252457,
				"element": "C" 
			},
			{
				"x": 0.3899970869,
				"y": -0.409222074,
				"z": 3.8225259223,
				"element": "C" 
			},
			{
				"x": 2.5568657431,
				"y": 0.3932760616,
				"z": 2.8157842758,
				"element": "C" 
			},
			{
				"x": 0.7976410005,
				"y": -0.2226429262,
				"z": 1.3986502467,
				"element": "O" 
			},
			{
				"x": -0.2902777764,
				"y": -0.8759612715,
				"z": 0.921637405,
				"element": "C" 
			},
			{
				"x": -0.8379139421,
				"y": -1.820628703,
				"z": 1.4750085315,
				"element": "O" 
			},
			{
				"x": -0.7432963672,
				"y": -0.3452988647,
				"z": -0.2695931389,
				"element": "N" 
			},
			{
				"x": -0.0149735567,
				"y": 0.7287151643,
				"z": -0.966408843,
				"element": "C" 
			},
			{
				"x": -0.8945916571,
				"y": 1.8529904026,
				"z": -1.5396922665,
				"element": "C" 
			},
			{
				"x": -1.4862383959,
				"y": 1.5620396425,
				"z": -2.9236242273,
				"element": "C" 
			},
			{
				"x": -2.4705995435,
				"y": 0.3881419075,
				"z": -2.9631137212,
				"element": "C" 
			},
			{
				"x": -1.900222662,
				"y": -0.9477261391,
				"z": -2.4587252729,
				"element": "C" 
			},
			{
				"x": -1.7972334421,
				"y": -1.1491893131,
				"z": -0.9301176506,
				"element": "C" 
			},
			{
				"x": -3.1590388183,
				"y": -0.9654444627,
				"z": -0.2624451418,
				"element": "C" 
			},
			{
				"x": -3.4099857126,
				"y": 0.2414743063,
				"z": 0.3845328873,
				"element": "N" 
			},
			{
				"x": -4.121587987,
				"y": -1.816487482,
				"z": -0.318862066,
				"element": "N" 
			},
			{
				"x": -3.7674022522,
				"y": -2.9429099067,
				"z": -1.1189835114,
				"element": "O" 
			},
			{
				"x": 2.6155851751,
				"y": -2.1496115975,
				"z": 1.771064797,
				"element": "H" 
			},
			{
				"x": 1.111473768,
				"y": -2.7511314112,
				"z": 2.5044710952,
				"element": "H" 
			},
			{
				"x": 2.4806855802,
				"y": -2.2725881265,
				"z": 3.5335333405,
				"element": "H" 
			},
			{
				"x": 0.0044414512,
				"y": 0.6156973436,
				"z": 3.8170468458,
				"element": "H" 
			},
			{
				"x": -0.4439067236,
				"y": -1.1044710975,
				"z": 3.7261428071,
				"element": "H" 
			},
			{
				"x": 0.8831749122,
				"y": -0.5785873961,
				"z": 4.7852211926,
				"element": "H" 
			},
			{
				"x": 2.1832476378,
				"y": 1.4215477138,
				"z": 2.825755079,
				"element": "H" 
			},
			{
				"x": 3.2533585855,
				"y": 0.2867881184,
				"z": 1.9790198009,
				"element": "H" 
			},
			{
				"x": 3.1040558471,
				"y": 0.2153777089,
				"z": 3.7462709782,
				"element": "H" 
			},
			{
				"x": 0.6687008022,
				"y": 1.1490541765,
				"z": -0.2331465785,
				"element": "H" 
			},
			{
				"x": 0.6065871563,
				"y": 0.3047744426,
				"z": -1.7686569226,
				"element": "H" 
			},
			{
				"x": -1.6931549399,
				"y": 2.0886791246,
				"z": -0.8268003522,
				"element": "H" 
			},
			{
				"x": -0.2636935171,
				"y": 2.7479128764,
				"z": -1.6138970898,
				"element": "H" 
			},
			{
				"x": -0.6593525769,
				"y": 1.361944378,
				"z": -3.6210293189,
				"element": "H" 
			},
			{
				"x": -1.9869608152,
				"y": 2.4644836088,
				"z": -3.2961712506,
				"element": "H" 
			},
			{
				"x": -2.8011517934,
				"y": 0.246760492,
				"z": -3.9996732498,
				"element": "H" 
			},
			{
				"x": -3.3684279244,
				"y": 0.6391587798,
				"z": -2.386501868,
				"element": "H" 
			},
			{
				"x": -2.5530975842,
				"y": -1.7572847141,
				"z": -2.7948494489,
				"element": "H" 
			},
			{
				"x": -0.9164168874,
				"y": -1.1372807924,
				"z": -2.9074601784,
				"element": "H" 
			},
			{
				"x": -1.5475356561,
				"y": -2.2005060427,
				"z": -0.7681847086,
				"element": "H" 
			},
			{
				"x": -4.2673635727,
				"y": 0.2102927471,
				"z": 0.9246594554,
				"element": "H" 
			},
			{
				"x": -2.6227505035,
				"y": 0.5689912648,
				"z": 0.929708168,
				"element": "H" 
			},
			{
				"x": -4.5257795632,
				"y": -3.5218778397,
				"z": -0.9762876003,
				"element": "H" 
			}
		],
		 "valence_orbital": [ 
			{
				"type": "occ",
				"energy": -0.28732,
				"method": "rhf"
			},
			{
				"type": "occ",
				"energy": -0.26732,
				"method": "rhf"
			},
			{
				"type": "occ",
				"energy": -0.25809,
				"method": "rhf"
			},
			{
				"type": "occ",
				"energy": -0.23298,
				"method": "rhf"
			},
			{
				"type": "occ",
				"energy": -0.20287,
				"method": "rhf"
			},
			{
				"type": "unocc",
				"energy": 0.0384,
				"method": "rhf"
			},
			{
				"type": "unocc",
				"energy": 0.05058,
				"method": "rhf"
			},
			{
				"type": "unocc",
				"energy": 0.07419,
				"method": "rhf"
			},
			{
				"type": "unocc",
				"energy": 0.08149,
				"method": "rhf"
			},
			{
				"type": "unocc",
				"energy": 0.09428,
				"method": "rhf"
			}
		],
		"cosmo_sigma_profile": { 
			"-0.025": 0.0,
			"-0.024": 0.0,
			"-0.023": 0.0,
			"-0.022": 0.0,
			"-0.021": 0.0,
			"-0.02": 0.0,
			"-0.019": 0.0,
			"-0.018": 0.0,
			"-0.017": 0.166261405314,
			"-0.016": 1.04210359568,
			"-0.015": 0.692772464239,
			"-0.014": 0.761263283209,
			"-0.013": 1.04114691673,
			"-0.012": 2.02388901173,
			"-0.011": 2.46670919658,
			"-0.01": 2.33963733895,
			"-0.009": 2.32184843963,
			"-0.008": 2.88214263627,
			"-0.007": 2.84087223981,
			"-0.006": 2.43847841113,
			"-0.005": 3.52402728008,
			"-0.004": 19.7456437335,
			"-0.003": 33.5534869299,
			"-0.002": 37.8209616272,
			"-0.001": 41.1031126935,
			"0.0": 44.2348097833,
			"0.001": 29.4605100035,
			"0.002": 9.84670763013,
			"0.003": 8.52797581073,
			"0.004": 8.19179332952,
			"0.005": 7.29959314784,
			"0.006": 6.97543034207,
			"0.007": 5.83404991439,
			"0.008": 7.22625717841,
			"0.009": 5.6533579022,
			"0.01": 3.60770752881,
			"0.011": 4.51818714696,
			"0.012": 2.65483658662,
			"0.013": 3.36209132484,
			"0.014": 1.73019423701,
			"0.015": 0.127797476207,
			"0.016": 0.0,
			"0.017": 0.0,
			"0.018": 0.0,
			"0.019": 0.0,
			"0.02": 0.0,
			"0.021": 0.0,
			"0.022": 0.0,
			"0.023": 0.0,
			"0.024": 0.0,
			"0.025": 0.0
		}
	}
}
