{
	 "smiles": "COC1=C(NS(=O)(=O)C2=CC(N)=CC=C2)C=CC=C1", 
	 "Tm": 309.15, 
	 "num_atms": 33, 
	 "gaussian": { 
		 "optdone": 1, 
		 "sigma_profile": "yes", 
		 "theory": "DFT", 
		 "functional": "B3LYP", 
		 "basiset": "6-31G**", 
		 "properties": { 
			 "R2extent": 5834.0587, 
			 "electric_dipole_moment_norm": 5.80380021107, 
			 "electric_quadrupole_moment_norm": 34.1214180917, 
			 "total_energy": -1237.09731532, 
			 "HOMO_LUMO_gap": 0.18536, 
			 "cosmo_polarized_energy": -24.96, 
			 "cosmo_cavitation_energy": 38.29, 
			 "cosmo_dispersion_energy": -26.85, 
			 "cosmo_repulsion_energy": 2.05, 
			 "cosmo_total_nonelectrostatic_energy": 13.49, 
			 "SMD_solvation_energy": 6.46 
		},
		"coords": [
			{
				"x": 1.2763171419,
				"y": 4.4188959207,
				"z": 1.7474497286,
				"element": "C" 
			},
			{
				"x": 1.1967916911,
				"y": 3.0031050493,
				"z": 1.7146904106,
				"element": "O" 
			},
			{
				"x": -0.0237300552,
				"y": 2.4211442733,
				"z": 1.6960990137,
				"element": "C" 
			},
			{
				"x": -0.0518725533,
				"y": 1.0142289665,
				"z": 1.5364173412,
				"element": "C" 
			},
			{
				"x": 1.1819351861,
				"y": 0.3082904993,
				"z": 1.4075014268,
				"element": "N" 
			},
			{
				"x": 1.9392034366,
				"y": 0.1239128668,
				"z": -0.1053270292,
				"element": "S" 
			},
			{
				"x": 3.1973378614,
				"y": -0.5613249191,
				"z": 0.1978120008,
				"element": "O" 
			},
			{
				"x": 1.8817719217,
				"y": 1.4196399996,
				"z": -0.7761855728,
				"element": "O" 
			},
			{
				"x": 0.9142549337,
				"y": -1.0191002475,
				"z": -1.046589902,
				"element": "C" 
			},
			{
				"x": 1.2267715756,
				"y": -2.3767078785,
				"z": -1.0069946659,
				"element": "C" 
			},
			{
				"x": 0.4231667157,
				"y": -3.2945164317,
				"z": -1.7046468096,
				"element": "C" 
			},
			{
				"x": 0.7560433315,
				"y": -4.6445029532,
				"z": -1.7388790301,
				"element": "N" 
			},
			{
				"x": -0.688374465,
				"y": -2.8075470706,
				"z": -2.4184835145,
				"element": "C" 
			},
			{
				"x": -0.9764598915,
				"y": -1.4456570892,
				"z": -2.4463420455,
				"element": "C" 
			},
			{
				"x": -0.1793080737,
				"y": -0.5262885295,
				"z": -1.761560092,
				"element": "C" 
			},
			{
				"x": -1.2750118566,
				"y": 0.3417399581,
				"z": 1.5622733351,
				"element": "C" 
			},
			{
				"x": -2.4755020776,
				"y": 1.0325419314,
				"z": 1.7387268022,
				"element": "C" 
			},
			{
				"x": -2.4458730789,
				"y": 2.4189061198,
				"z": 1.8680770441,
				"element": "C" 
			},
			{
				"x": -1.2334124454,
				"y": 3.1123523924,
				"z": 1.8450574944,
				"element": "C" 
			},
			{
				"x": 0.8569334562,
				"y": 4.8289769425,
				"z": 2.6757174909,
				"element": "H" 
			},
			{
				"x": 2.3393407102,
				"y": 4.6569021376,
				"z": 1.6976622621,
				"element": "H" 
			},
			{
				"x": 0.7641682623,
				"y": 4.8698949852,
				"z": 0.8885863808,
				"element": "H" 
			},
			{
				"x": 1.2400021095,
				"y": -0.5622261934,
				"z": 1.9264842679,
				"element": "H" 
			},
			{
				"x": 2.1081100774,
				"y": -2.7083373977,
				"z": -0.4668830038,
				"element": "H" 
			},
			{
				"x": 1.3501869791,
				"y": -4.9748126644,
				"z": -0.992161471,
				"element": "H" 
			},
			{
				"x": 0.0030896423,
				"y": -5.282655184,
				"z": -1.9520828765,
				"element": "H" 
			},
			{
				"x": -1.3162901113,
				"y": -3.5060012629,
				"z": -2.9660492921,
				"element": "H" 
			},
			{
				"x": -1.8334018414,
				"y": -1.095291544,
				"z": -3.0143364448,
				"element": "H" 
			},
			{
				"x": -0.3806227349,
				"y": 0.5372042794,
				"z": -1.7934856439,
				"element": "H" 
			},
			{
				"x": -1.2763143737,
				"y": -0.7377281629,
				"z": 1.4386627232,
				"element": "H" 
			},
			{
				"x": -3.4170649454,
				"y": 0.4934872644,
				"z": 1.7621365367,
				"element": "H" 
			},
			{
				"x": -3.3703828172,
				"y": 2.9751830375,
				"z": 1.9940039229,
				"element": "H" 
			},
			{
				"x": -1.2333037111,
				"y": 4.1892909047,
				"z": 1.9621492117,
				"element": "H" 
			}
		],
		 "valence_orbital": [ 
			{
				"type": "occ",
				"energy": -0.28973,
				"method": "rhf"
			},
			{
				"type": "occ",
				"energy": -0.26008,
				"method": "rhf"
			},
			{
				"type": "occ",
				"energy": -0.24599,
				"method": "rhf"
			},
			{
				"type": "occ",
				"energy": -0.2171,
				"method": "rhf"
			},
			{
				"type": "occ",
				"energy": -0.21553,
				"method": "rhf"
			},
			{
				"type": "unocc",
				"energy": -0.03017,
				"method": "rhf"
			},
			{
				"type": "unocc",
				"energy": -0.00956,
				"method": "rhf"
			},
			{
				"type": "unocc",
				"energy": -0.00092,
				"method": "rhf"
			},
			{
				"type": "unocc",
				"energy": 0.00989,
				"method": "rhf"
			},
			{
				"type": "unocc",
				"energy": 0.06831,
				"method": "rhf"
			}
		],
		"cosmo_sigma_profile": { 
			"-0.025": 0.0,
			"-0.024": 0.0,
			"-0.023": 0.0,
			"-0.022": 0.0,
			"-0.021": 0.0,
			"-0.02": 0.0,
			"-0.019": 0.0,
			"-0.018": 0.0,
			"-0.017": 0.0,
			"-0.016": 0.076928686802,
			"-0.015": 0.828174289392,
			"-0.014": 0.897109045682,
			"-0.013": 2.92867863681,
			"-0.012": 4.25359794917,
			"-0.011": 4.26428034939,
			"-0.01": 4.31467040971,
			"-0.009": 5.11198369369,
			"-0.008": 4.28691577508,
			"-0.007": 6.65738663925,
			"-0.006": 18.9370395097,
			"-0.005": 25.7756314143,
			"-0.004": 24.236737809,
			"-0.003": 19.161663796,
			"-0.002": 14.4960288573,
			"-0.001": 14.3035225516,
			"0.0": 12.4158109755,
			"0.001": 12.8863448159,
			"0.002": 17.7554171499,
			"0.003": 21.7079744001,
			"0.004": 22.7861710786,
			"0.005": 14.6563645815,
			"0.006": 6.1726568249,
			"0.007": 5.01622684854,
			"0.008": 5.31211029506,
			"0.009": 6.09310869034,
			"0.01": 9.29303076084,
			"0.011": 11.2369548892,
			"0.012": 6.65819440725,
			"0.013": 1.7353156456,
			"0.014": 0.434136521891,
			"0.015": 0.0,
			"0.016": 0.0,
			"0.017": 0.0,
			"0.018": 0.0,
			"0.019": 0.0,
			"0.02": 0.0,
			"0.021": 0.0,
			"0.022": 0.0,
			"0.023": 0.0,
			"0.024": 0.0,
			"0.025": 0.0
		}
	}
}
