{
	 "smiles": "ClC1=CC=C(NC2=NC=NC3=C2C=NN3C2=CC=CC=C2)C=C1", 
	 "Tm": 492.15, 
	 "num_atms": 35, 
	 "gaussian": { 
		 "optdone": 1, 
		 "sigma_profile": "yes", 
		 "theory": "DFT", 
		 "functional": "B3LYP", 
		 "basiset": "6-31G**", 
		 "properties": { 
			 "R2extent": 11589.1212, 
			 "electric_dipole_moment_norm": 1.68487652367, 
			 "electric_quadrupole_moment_norm": 14.9322110476, 
			 "total_energy": -1388.98918918, 
			 "HOMO_LUMO_gap": 0.16408, 
			 "cosmo_polarized_energy": -12.41, 
			 "cosmo_cavitation_energy": 41.45, 
			 "cosmo_dispersion_energy": -30.59, 
			 "cosmo_repulsion_energy": 2.27, 
			 "cosmo_total_nonelectrostatic_energy": 13.13, 
			 "SMD_solvation_energy": 3.6 
		},
		"coords": [
			{
				"x": -3.3379221174,
				"y": 3.5916274977,
				"z": -5.2220428342,
				"element": "Cl" 
			},
			{
				"x": -2.4748716089,
				"y": 2.2045958559,
				"z": -4.57926079,
				"element": "C" 
			},
			{
				"x": -2.7591463725,
				"y": 0.9289994361,
				"z": -5.0665142796,
				"element": "C" 
			},
			{
				"x": -2.081464354,
				"y": -0.1690043645,
				"z": -4.5426852061,
				"element": "C" 
			},
			{
				"x": -1.1082759054,
				"y": -0.0013598577,
				"z": -3.5472026235,
				"element": "C" 
			},
			{
				"x": -0.4043534114,
				"y": -1.1368998299,
				"z": -3.0922626994,
				"element": "N" 
			},
			{
				"x": 0.0662975825,
				"y": -1.4421657229,
				"z": -1.842378293,
				"element": "C" 
			},
			{
				"x": 0.9634326704,
				"y": -2.4430745728,
				"z": -1.8188763255,
				"element": "N" 
			},
			{
				"x": 1.4570646852,
				"y": -2.8286156837,
				"z": -0.6334719024,
				"element": "C" 
			},
			{
				"x": 1.1791028181,
				"y": -2.3468231902,
				"z": 0.5754861313,
				"element": "N" 
			},
			{
				"x": 0.2648530849,
				"y": -1.3633448326,
				"z": 0.5416903803,
				"element": "C" 
			},
			{
				"x": -0.3485302752,
				"y": -0.8457453898,
				"z": -0.6258845546,
				"element": "C" 
			},
			{
				"x": -1.270644792,
				"y": 0.1262620362,
				"z": -0.1380775267,
				"element": "C" 
			},
			{
				"x": -1.2231506271,
				"y": 0.2105237753,
				"z": 1.1740171107,
				"element": "N" 
			},
			{
				"x": -0.2850924583,
				"y": -0.6919827432,
				"z": 1.6074452041,
				"element": "N" 
			},
			{
				"x": -0.0357832909,
				"y": -0.8118679974,
				"z": 3.007418328,
				"element": "C" 
			},
			{
				"x": 0.9661606613,
				"y": -1.6619717862,
				"z": 3.4935930192,
				"element": "C" 
			},
			{
				"x": 1.1781597554,
				"y": -1.7469286616,
				"z": 4.8699894739,
				"element": "C" 
			},
			{
				"x": 0.4111241061,
				"y": -0.9983778213,
				"z": 5.7624837081,
				"element": "C" 
			},
			{
				"x": -0.5835934883,
				"y": -0.1539574029,
				"z": 5.2652721418,
				"element": "C" 
			},
			{
				"x": -0.8132594765,
				"y": -0.0556522133,
				"z": 3.8952513665,
				"element": "C" 
			},
			{
				"x": -0.8148742887,
				"y": 1.2911751274,
				"z": -3.0893226275,
				"element": "C" 
			},
			{
				"x": -1.5078073518,
				"y": 2.3910845744,
				"z": -3.591617636,
				"element": "C" 
			},
			{
				"x": -3.5108147373,
				"y": 0.7950593621,
				"z": -5.836325625,
				"element": "H" 
			},
			{
				"x": -2.3128465678,
				"y": -1.167858523,
				"z": -4.9008538411,
				"element": "H" 
			},
			{
				"x": -0.0789843332,
				"y": -1.7941767847,
				"z": -3.7905026079,
				"element": "H" 
			},
			{
				"x": 2.1813140627,
				"y": -3.6399120024,
				"z": -0.6708750309,
				"element": "H" 
			},
			{
				"x": -1.9572000821,
				"y": 0.7543253246,
				"z": -0.6863246162,
				"element": "H" 
			},
			{
				"x": 1.5580644764,
				"y": -2.2465201448,
				"z": 2.8025222726,
				"element": "H" 
			},
			{
				"x": 1.9555965617,
				"y": -2.4083863027,
				"z": 5.2414080652,
				"element": "H" 
			},
			{
				"x": 0.5850279726,
				"y": -1.071531476,
				"z": 6.8318345306,
				"element": "H" 
			},
			{
				"x": -1.1903300236,
				"y": 0.4354279558,
				"z": 5.9467014785,
				"element": "H" 
			},
			{
				"x": -1.5819386137,
				"y": 0.5967262545,
				"z": 3.5023056019,
				"element": "H" 
			},
			{
				"x": -0.035788388,
				"y": 1.4402914159,
				"z": -2.3502946465,
				"element": "H" 
			},
			{
				"x": -1.2815258733,
				"y": 3.3895586878,
				"z": -3.234345147,
				"element": "H" 
			}
		],
		 "valence_orbital": [ 
			{
				"type": "occ",
				"energy": -0.26618,
				"method": "rhf"
			},
			{
				"type": "occ",
				"energy": -0.26577,
				"method": "rhf"
			},
			{
				"type": "occ",
				"energy": -0.24898,
				"method": "rhf"
			},
			{
				"type": "occ",
				"energy": -0.23018,
				"method": "rhf"
			},
			{
				"type": "occ",
				"energy": -0.21818,
				"method": "rhf"
			},
			{
				"type": "unocc",
				"energy": -0.0541,
				"method": "rhf"
			},
			{
				"type": "unocc",
				"energy": -0.0314,
				"method": "rhf"
			},
			{
				"type": "unocc",
				"energy": -0.02736,
				"method": "rhf"
			},
			{
				"type": "unocc",
				"energy": -0.00931,
				"method": "rhf"
			},
			{
				"type": "unocc",
				"energy": -0.00058,
				"method": "rhf"
			}
		],
		"cosmo_sigma_profile": { 
			"-0.025": 0.0,
			"-0.024": 0.0,
			"-0.023": 0.0,
			"-0.022": 0.0,
			"-0.021": 0.0,
			"-0.02": 0.0,
			"-0.019": 0.0,
			"-0.018": 0.0,
			"-0.017": 0.0,
			"-0.016": 0.0,
			"-0.015": 0.348623879578,
			"-0.014": 0.958954652929,
			"-0.013": 0.884038995587,
			"-0.012": 1.20532060729,
			"-0.011": 0.971313818645,
			"-0.01": 0.92181033032,
			"-0.009": 1.36562119443,
			"-0.008": 3.94349556458,
			"-0.007": 11.5537235039,
			"-0.006": 16.032447402,
			"-0.005": 18.7611377295,
			"-0.004": 20.2344881085,
			"-0.003": 20.2265109018,
			"-0.002": 20.028649288,
			"-0.001": 28.0172991285,
			"0.0": 30.0869061002,
			"0.001": 29.3483561357,
			"0.002": 31.5303574684,
			"0.003": 31.5780010457,
			"0.004": 24.5360765118,
			"0.005": 20.3809052992,
			"0.006": 7.13784294981,
			"0.007": 3.94388512875,
			"0.008": 3.39071950467,
			"0.009": 3.94680469981,
			"0.01": 2.58479407785,
			"0.011": 1.53411926067,
			"0.012": 0.577963551841,
			"0.013": 0.841545892577,
			"0.014": 0.438434370075,
			"0.015": 0.010588518353,
			"0.016": 0.0,
			"0.017": 0.0,
			"0.018": 0.0,
			"0.019": 0.0,
			"0.02": 0.0,
			"0.021": 0.0,
			"0.022": 0.0,
			"0.023": 0.0,
			"0.024": 0.0,
			"0.025": 0.0
		}
	}
}
