{
	 "smiles": "CCCOC1=C(C=O)C=C2OC(C)CC2=C1", 
	 "Tm": 319.15, 
	 "num_atms": 32, 
	 "gaussian": { 
		 "optdone": 1, 
		 "sigma_profile": "yes", 
		 "theory": "DFT", 
		 "functional": "B3LYP", 
		 "basiset": "6-31G**", 
		 "properties": { 
			 "R2extent": 5183.8178, 
			 "electric_dipole_moment_norm": 4.43609530105, 
			 "electric_quadrupole_moment_norm": 6.5056346831, 
			 "total_energy": -730.684701404, 
			 "HOMO_LUMO_gap": 0.15631, 
			 "cosmo_polarized_energy": -11.12, 
			 "cosmo_cavitation_energy": 34.89, 
			 "cosmo_dispersion_energy": -25.06, 
			 "cosmo_repulsion_energy": 1.98, 
			 "cosmo_total_nonelectrostatic_energy": 11.81, 
			 "SMD_solvation_energy": 6.77 
		},
		"coords": [
			{
				"x": -3.8865737515,
				"y": -0.1213256767,
				"z": -3.2369769968,
				"element": "C" 
			},
			{
				"x": -2.3612218291,
				"y": -0.1611943234,
				"z": -3.1035195978,
				"element": "C" 
			},
			{
				"x": -1.9047325785,
				"y": 0.037474066,
				"z": -1.6674647045,
				"element": "C" 
			},
			{
				"x": -0.4650652297,
				"y": 0.0339604366,
				"z": -1.6612269652,
				"element": "O" 
			},
			{
				"x": 0.1461574697,
				"y": -0.0252321908,
				"z": -0.4399365904,
				"element": "C" 
			},
			{
				"x": 0.2802575962,
				"y": -1.2345123362,
				"z": 0.2878916698,
				"element": "C" 
			},
			{
				"x": -0.2355217938,
				"y": -2.5415538925,
				"z": -0.1732471277,
				"element": "C" 
			},
			{
				"x": -0.947197704,
				"y": -2.7573092398,
				"z": -1.1373236936,
				"element": "O" 
			},
			{
				"x": 0.998496835,
				"y": -1.2452298169,
				"z": 1.5024921069,
				"element": "C" 
			},
			{
				"x": 1.550835049,
				"y": -0.0645680513,
				"z": 1.9672447849,
				"element": "C" 
			},
			{
				"x": 2.2562350537,
				"y": 0.0708311853,
				"z": 3.1279101725,
				"element": "O" 
			},
			{
				"x": 2.8678259913,
				"y": 1.3971172773,
				"z": 3.1238005424,
				"element": "C" 
			},
			{
				"x": 2.8221757548,
				"y": 1.9594240135,
				"z": 4.5323453581,
				"element": "C" 
			},
			{
				"x": 2.1046401598,
				"y": 2.2163132794,
				"z": 2.0484357561,
				"element": "C" 
			},
			{
				"x": 1.426833945,
				"y": 1.1299068861,
				"z": 1.2497086625,
				"element": "C" 
			},
			{
				"x": 0.727012785,
				"y": 1.1537319561,
				"z": 0.051733559,
				"element": "C" 
			},
			{
				"x": -4.2952958762,
				"y": 0.8411325722,
				"z": -2.9077264377,
				"element": "H" 
			},
			{
				"x": -4.1919275982,
				"y": -0.2713128761,
				"z": -4.2769115654,
				"element": "H" 
			},
			{
				"x": -4.3597896142,
				"y": -0.9066661392,
				"z": -2.637132501,
				"element": "H" 
			},
			{
				"x": -1.9033317034,
				"y": 0.613666269,
				"z": -3.7302089539,
				"element": "H" 
			},
			{
				"x": -1.971355454,
				"y": -1.1250480428,
				"z": -3.4469004511,
				"element": "H" 
			},
			{
				"x": -2.2832334087,
				"y": -0.7704710013,
				"z": -1.0338124588,
				"element": "H" 
			},
			{
				"x": -2.2604113002,
				"y": 0.9984091067,
				"z": -1.2648015837,
				"element": "H" 
			},
			{
				"x": 0.0964148579,
				"y": -3.3862386114,
				"z": 0.4729218416,
				"element": "H" 
			},
			{
				"x": 1.1198191934,
				"y": -2.1711161494,
				"z": 2.0570042011,
				"element": "H" 
			},
			{
				"x": 3.9102410213,
				"y": 1.256298911,
				"z": 2.8067755973,
				"element": "H" 
			},
			{
				"x": 3.3252585625,
				"y": 1.2880133854,
				"z": 5.2335434124,
				"element": "H" 
			},
			{
				"x": 3.323689371,
				"y": 2.9321018506,
				"z": 4.5679210743,
				"element": "H" 
			},
			{
				"x": 1.7861075453,
				"y": 2.0895037943,
				"z": 4.8601155822,
				"element": "H" 
			},
			{
				"x": 2.7804220843,
				"y": 2.8400778876,
				"z": 1.4556917916,
				"element": "H" 
			},
			{
				"x": 1.3630574249,
				"y": 2.8829706367,
				"z": 2.5096755563,
				"element": "H" 
			},
			{
				"x": 0.6201771414,
				"y": 2.0616448341,
				"z": -0.5338220414,
				"element": "H" 
			}
		],
		 "valence_orbital": [ 
			{
				"type": "occ",
				"energy": -0.30275,
				"method": "rhf"
			},
			{
				"type": "occ",
				"energy": -0.2686,
				"method": "rhf"
			},
			{
				"type": "occ",
				"energy": -0.26069,
				"method": "rhf"
			},
			{
				"type": "occ",
				"energy": -0.2443,
				"method": "rhf"
			},
			{
				"type": "occ",
				"energy": -0.2138,
				"method": "rhf"
			},
			{
				"type": "unocc",
				"energy": -0.05749,
				"method": "rhf"
			},
			{
				"type": "unocc",
				"energy": -0.00079,
				"method": "rhf"
			},
			{
				"type": "unocc",
				"energy": 0.04741,
				"method": "rhf"
			},
			{
				"type": "unocc",
				"energy": 0.08388,
				"method": "rhf"
			},
			{
				"type": "unocc",
				"energy": 0.09902,
				"method": "rhf"
			}
		],
		"cosmo_sigma_profile": { 
			"-0.025": 0.0,
			"-0.024": 0.0,
			"-0.023": 0.0,
			"-0.022": 0.0,
			"-0.021": 0.0,
			"-0.02": 0.0,
			"-0.019": 0.0,
			"-0.018": 0.0,
			"-0.017": 0.0,
			"-0.016": 0.0,
			"-0.015": 0.0,
			"-0.014": 0.0,
			"-0.013": 0.0,
			"-0.012": 0.0,
			"-0.011": 0.0,
			"-0.01": 0.0,
			"-0.009": 0.0,
			"-0.008": 1.04135174269,
			"-0.007": 3.86025640772,
			"-0.006": 7.22290759798,
			"-0.005": 17.1219508835,
			"-0.004": 23.5735273649,
			"-0.003": 32.0708310545,
			"-0.002": 35.1862452095,
			"-0.001": 29.4492963436,
			"0.0": 28.4495384151,
			"0.001": 21.05562338,
			"0.002": 16.7867335588,
			"0.003": 14.475948899,
			"0.004": 5.63892469487,
			"0.005": 5.00321990437,
			"0.006": 3.81617349024,
			"0.007": 4.83440633992,
			"0.008": 5.27855254469,
			"0.009": 4.28939573871,
			"0.01": 4.94439253108,
			"0.011": 5.6430086209,
			"0.012": 3.42578842384,
			"0.013": 1.25334906317,
			"0.014": 0.0867006459406,
			"0.015": 0.0,
			"0.016": 0.0,
			"0.017": 0.0,
			"0.018": 0.0,
			"0.019": 0.0,
			"0.02": 0.0,
			"0.021": 0.0,
			"0.022": 0.0,
			"0.023": 0.0,
			"0.024": 0.0,
			"0.025": 0.0
		}
	}
}
