{
	 "smiles": "ClCC(=O)C1=CC(=CC=C1)C(=O)CCl", 
	 "Tm": 363.15, 
	 "num_atms": 22, 
	 "gaussian": { 
		 "optdone": 1, 
		 "sigma_profile": "yes", 
		 "theory": "DFT", 
		 "functional": "B3LYP", 
		 "basiset": "6-31G**", 
		 "properties": { 
			 "R2extent": 6253.7084, 
			 "electric_dipole_moment_norm": 4.19853403106, 
			 "electric_quadrupole_moment_norm": 14.4623265096, 
			 "total_energy": -1456.71107348, 
			 "HOMO_LUMO_gap": 0.18077, 
			 "cosmo_polarized_energy": -15.53, 
			 "cosmo_cavitation_energy": 30.58, 
			 "cosmo_dispersion_energy": -22.16, 
			 "cosmo_repulsion_energy": 1.76, 
			 "cosmo_total_nonelectrostatic_energy": 10.18, 
			 "SMD_solvation_energy": 5.68 
		},
		"coords": [
			{
				"x": 3.5271887364,
				"y": -2.520206572,
				"z": 0.3209241424,
				"element": "Cl" 
			},
			{
				"x": 2.2284796504,
				"y": -2.3122827307,
				"z": 1.5707866559,
				"element": "C" 
			},
			{
				"x": 0.8308265621,
				"y": -2.3841290287,
				"z": 0.9512770552,
				"element": "C" 
			},
			{
				"x": 0.1202593958,
				"y": -3.3360965503,
				"z": 1.2286575488,
				"element": "O" 
			},
			{
				"x": 0.3491690867,
				"y": -1.2854785441,
				"z": 0.0598515823,
				"element": "C" 
			},
			{
				"x": -0.9352567682,
				"y": -1.4196885255,
				"z": -0.489193626,
				"element": "C" 
			},
			{
				"x": -1.4690327123,
				"y": -0.4245793215,
				"z": -1.3108717634,
				"element": "C" 
			},
			{
				"x": -0.7028726015,
				"y": 0.7229459756,
				"z": -1.5830018474,
				"element": "C" 
			},
			{
				"x": 0.5709420711,
				"y": 0.8640584379,
				"z": -1.0431314547,
				"element": "C" 
			},
			{
				"x": 1.1003385553,
				"y": -0.1357979547,
				"z": -0.2245218193,
				"element": "C" 
			},
			{
				"x": -2.8360583817,
				"y": -0.5091463198,
				"z": -1.9292116999,
				"element": "C" 
			},
			{
				"x": -3.2640899048,
				"y": 0.3851972414,
				"z": -2.6303756218,
				"element": "O" 
			},
			{
				"x": -3.6488272019,
				"y": -1.7727425674,
				"z": -1.6300002568,
				"element": "C" 
			},
			{
				"x": -5.2578435828,
				"y": -1.7736481638,
				"z": -2.4098954786,
				"element": "Cl" 
			},
			{
				"x": 2.3245329653,
				"y": -3.1334084009,
				"z": 2.2784345259,
				"element": "H" 
			},
			{
				"x": 2.4111457508,
				"y": -1.3580963094,
				"z": 2.0690634092,
				"element": "H" 
			},
			{
				"x": -1.484184404,
				"y": -2.3217931977,
				"z": -0.242620442,
				"element": "H" 
			},
			{
				"x": -1.1332102204,
				"y": 1.4862542915,
				"z": -2.2225358428,
				"element": "H" 
			},
			{
				"x": 1.1579010717,
				"y": 1.7510120422,
				"z": -1.2599956807,
				"element": "H" 
			},
			{
				"x": 2.1013844188,
				"y": -0.0189868353,
				"z": 0.1758765617,
				"element": "H" 
			},
			{
				"x": -3.1067975858,
				"y": -2.655859608,
				"z": -1.9784263926,
				"element": "H" 
			},
			{
				"x": -3.7992949012,
				"y": -1.8738273586,
				"z": -0.5519895551,
				"element": "H" 
			}
		],
		 "valence_orbital": [ 
			{
				"type": "occ",
				"energy": -0.30307,
				"method": "rhf"
			},
			{
				"type": "occ",
				"energy": -0.28579,
				"method": "rhf"
			},
			{
				"type": "occ",
				"energy": -0.28413,
				"method": "rhf"
			},
			{
				"type": "occ",
				"energy": -0.27958,
				"method": "rhf"
			},
			{
				"type": "occ",
				"energy": -0.2719,
				"method": "rhf"
			},
			{
				"type": "unocc",
				"energy": -0.09113,
				"method": "rhf"
			},
			{
				"type": "unocc",
				"energy": -0.07515,
				"method": "rhf"
			},
			{
				"type": "unocc",
				"energy": -0.01656,
				"method": "rhf"
			},
			{
				"type": "unocc",
				"energy": 0.0099,
				"method": "rhf"
			},
			{
				"type": "unocc",
				"energy": 0.02003,
				"method": "rhf"
			}
		],
		"cosmo_sigma_profile": { 
			"-0.025": 0.0,
			"-0.024": 0.0,
			"-0.023": 0.0,
			"-0.022": 0.0,
			"-0.021": 0.0,
			"-0.02": 0.0,
			"-0.019": 0.0,
			"-0.018": 0.0,
			"-0.017": 0.0,
			"-0.016": 0.0,
			"-0.015": 0.0,
			"-0.014": 0.0,
			"-0.013": 0.0,
			"-0.012": 0.0,
			"-0.011": 0.0493001363625,
			"-0.01": 5.8191402936,
			"-0.009": 11.9903685401,
			"-0.008": 9.33401894886,
			"-0.007": 12.3696236218,
			"-0.006": 13.3523222836,
			"-0.005": 11.4472620287,
			"-0.004": 8.93725994721,
			"-0.003": 8.35992286961,
			"-0.002": 12.3128316306,
			"-0.001": 15.9327240853,
			"0.0": 18.4240573032,
			"0.001": 23.7084965208,
			"0.002": 15.6596529017,
			"0.003": 12.2639245757,
			"0.004": 13.6028100173,
			"0.005": 16.6772906742,
			"0.006": 10.9738621924,
			"0.007": 3.15326678711,
			"0.008": 4.72107491563,
			"0.009": 5.29888036747,
			"0.01": 6.58557127609,
			"0.011": 5.76937350063,
			"0.012": 2.14279068246,
			"0.013": 0.530159508578,
			"0.014": 0.0,
			"0.015": 0.0,
			"0.016": 0.0,
			"0.017": 0.0,
			"0.018": 0.0,
			"0.019": 0.0,
			"0.02": 0.0,
			"0.021": 0.0,
			"0.022": 0.0,
			"0.023": 0.0,
			"0.024": 0.0,
			"0.025": 0.0
		}
	}
}
