{
	 "smiles": "COC(C)C1=NC=C(S1)C(O)=O", 
	 "Tm": 405.15, 
	 "num_atms": 21, 
	 "gaussian": { 
		 "optdone": 1, 
		 "sigma_profile": "yes", 
		 "theory": "DFT", 
		 "functional": "B3LYP", 
		 "basiset": "6-31G**", 
		 "properties": { 
			 "R2extent": 2820.3346, 
			 "electric_dipole_moment_norm": 4.29258315004, 
			 "electric_quadrupole_moment_norm": 16.9392609313, 
			 "total_energy": -950.760267975, 
			 "HOMO_LUMO_gap": 0.19614, 
			 "cosmo_polarized_energy": -16.22, 
			 "cosmo_cavitation_energy": 26.63, 
			 "cosmo_dispersion_energy": -19.82, 
			 "cosmo_repulsion_energy": 1.55, 
			 "cosmo_total_nonelectrostatic_energy": 8.35, 
			 "SMD_solvation_energy": 4.67 
		},
		"coords": [
			{
				"x": -0.3990791648,
				"y": 2.7448388149,
				"z": 1.0128956103,
				"element": "C" 
			},
			{
				"x": -0.8485213826,
				"y": 1.6221476828,
				"z": 1.7630219455,
				"element": "O" 
			},
			{
				"x": 0.1230246029,
				"y": 0.6170552398,
				"z": 2.034269764,
				"element": "C" 
			},
			{
				"x": 1.4392182655,
				"y": 1.1232740347,
				"z": 2.6272590268,
				"element": "C" 
			},
			{
				"x": 0.3418083121,
				"y": -0.2519063875,
				"z": 0.8087242485,
				"element": "C" 
			},
			{
				"x": 1.422668433,
				"y": -0.9530643428,
				"z": 0.5761997899,
				"element": "N" 
			},
			{
				"x": 1.2791202476,
				"y": -1.6925351027,
				"z": -0.5651336827,
				"element": "C" 
			},
			{
				"x": 0.0783785737,
				"y": -1.5706988803,
				"z": -1.2239122582,
				"element": "C" 
			},
			{
				"x": -0.9360671742,
				"y": -0.4418510136,
				"z": -0.3712354072,
				"element": "S" 
			},
			{
				"x": -0.3859756647,
				"y": -2.172122693,
				"z": -2.4938954961,
				"element": "C" 
			},
			{
				"x": 0.3547888958,
				"y": -3.2061666662,
				"z": -2.9742198652,
				"element": "O" 
			},
			{
				"x": -1.3598136271,
				"y": -1.7843747978,
				"z": -3.0952485622,
				"element": "O" 
			},
			{
				"x": -1.2916855578,
				"y": 3.32710297,
				"z": 0.7756610479,
				"element": "H" 
			},
			{
				"x": 0.088388974,
				"y": 2.4522893669,
				"z": 0.0730624878,
				"element": "H" 
			},
			{
				"x": 0.2899500794,
				"y": 3.3740490365,
				"z": 1.589634708,
				"element": "H" 
			},
			{
				"x": -0.3689360186,
				"y": -0.0143885286,
				"z": 2.7862484468,
				"element": "H" 
			},
			{
				"x": 2.013125077,
				"y": 1.7131676692,
				"z": 1.9083913342,
				"element": "H" 
			},
			{
				"x": 2.0572524604,
				"y": 0.2724106427,
				"z": 2.920709944,
				"element": "H" 
			},
			{
				"x": 1.2310939997,
				"y": 1.7354842339,
				"z": 3.5090994068,
				"element": "H" 
			},
			{
				"x": 2.1191750668,
				"y": -2.2968432959,
				"z": -0.8959836601,
				"element": "H" 
			},
			{
				"x": 1.0096856018,
				"y": -3.4927679829,
				"z": -2.3226488287,
				"element": "H" 
			}
		],
		 "valence_orbital": [ 
			{
				"type": "occ",
				"energy": -0.30631,
				"method": "rhf"
			},
			{
				"type": "occ",
				"energy": -0.29755,
				"method": "rhf"
			},
			{
				"type": "occ",
				"energy": -0.2814,
				"method": "rhf"
			},
			{
				"type": "occ",
				"energy": -0.2713,
				"method": "rhf"
			},
			{
				"type": "occ",
				"energy": -0.26583,
				"method": "rhf"
			},
			{
				"type": "unocc",
				"energy": -0.06969,
				"method": "rhf"
			},
			{
				"type": "unocc",
				"energy": -0.00027,
				"method": "rhf"
			},
			{
				"type": "unocc",
				"energy": 0.01532,
				"method": "rhf"
			},
			{
				"type": "unocc",
				"energy": 0.05044,
				"method": "rhf"
			},
			{
				"type": "unocc",
				"energy": 0.07321,
				"method": "rhf"
			}
		],
		"cosmo_sigma_profile": { 
			"-0.025": 0.0,
			"-0.024": 0.0,
			"-0.023": 0.0,
			"-0.022": 0.0,
			"-0.021": 0.0,
			"-0.02": 0.00622143712072,
			"-0.019": 1.02025433619,
			"-0.018": 1.11646315285,
			"-0.017": 1.29463552779,
			"-0.016": 1.03637342502,
			"-0.015": 1.20802973346,
			"-0.014": 0.688955936496,
			"-0.013": 1.23623293252,
			"-0.012": 1.55214951655,
			"-0.011": 1.15925070681,
			"-0.01": 1.49500853976,
			"-0.009": 1.76654979178,
			"-0.008": 1.40127921482,
			"-0.007": 4.00661116819,
			"-0.006": 5.13216167648,
			"-0.005": 9.25088654578,
			"-0.004": 20.7510858307,
			"-0.003": 19.6781551662,
			"-0.002": 20.06150464,
			"-0.001": 16.054407062,
			"0.0": 18.4166631308,
			"0.001": 15.9623786323,
			"0.002": 10.1416237716,
			"0.003": 5.43554214319,
			"0.004": 5.47653463358,
			"0.005": 5.44673625571,
			"0.006": 4.8381667796,
			"0.007": 4.86217371583,
			"0.008": 5.37374302835,
			"0.009": 5.83570608689,
			"0.01": 7.06320864729,
			"0.011": 7.95847404655,
			"0.012": 5.11340842373,
			"0.013": 1.25671078618,
			"0.014": 0.0,
			"0.015": 0.0,
			"0.016": 0.0,
			"0.017": 0.0,
			"0.018": 0.0,
			"0.019": 0.0,
			"0.02": 0.0,
			"0.021": 0.0,
			"0.022": 0.0,
			"0.023": 0.0,
			"0.024": 0.0,
			"0.025": 0.0
		}
	}
}
