{
	 "smiles": "FC1=CC=C(C=C1)C1=NNC(=O)CC1", 
	 "Tm": 467.15, 
	 "num_atms": 23, 
	 "gaussian": { 
		 "optdone": 1, 
		 "sigma_profile": "yes", 
		 "theory": "DFT", 
		 "functional": "B3LYP", 
		 "basiset": "6-31G**", 
		 "properties": { 
			 "R2extent": 3947.3364, 
			 "electric_dipole_moment_norm": 2.1468223797, 
			 "electric_quadrupole_moment_norm": 19.0793903239, 
			 "total_energy": -671.037114791, 
			 "HOMO_LUMO_gap": 0.169, 
			 "cosmo_polarized_energy": -12.38, 
			 "cosmo_cavitation_energy": 27.46, 
			 "cosmo_dispersion_energy": -20.43, 
			 "cosmo_repulsion_energy": 1.58, 
			 "cosmo_total_nonelectrostatic_energy": 8.61, 
			 "SMD_solvation_energy": 5.04 
		},
		"coords": [
			{
				"x": 3.5212201591,
				"y": 0.5776270192,
				"z": 3.5249006685,
				"element": "F" 
			},
			{
				"x": 2.4518933926,
				"y": 0.5660623285,
				"z": 2.7044501002,
				"element": "C" 
			},
			{
				"x": 2.6428180686,
				"y": 0.3499117017,
				"z": 1.3464201639,
				"element": "C" 
			},
			{
				"x": 1.5292796899,
				"y": 0.3321637728,
				"z": 0.5066593799,
				"element": "C" 
			},
			{
				"x": 0.2330726917,
				"y": 0.5328389369,
				"z": 1.0105975282,
				"element": "C" 
			},
			{
				"x": 0.0837011587,
				"y": 0.7514678438,
				"z": 2.3946781449,
				"element": "C" 
			},
			{
				"x": 1.1832850006,
				"y": 0.7685253863,
				"z": 3.2431236752,
				"element": "C" 
			},
			{
				"x": -0.9511245395,
				"y": 0.5392555509,
				"z": 0.122471145,
				"element": "C" 
			},
			{
				"x": -2.0580068732,
				"y": 0.989245914,
				"z": 0.6155340241,
				"element": "N" 
			},
			{
				"x": -3.1624735326,
				"y": 1.01794606,
				"z": -0.2050678031,
				"element": "N" 
			},
			{
				"x": -3.38259808,
				"y": 0.2709003491,
				"z": -1.3473622278,
				"element": "C" 
			},
			{
				"x": -4.4610852804,
				"y": 0.281035091,
				"z": -1.9172421916,
				"element": "O" 
			},
			{
				"x": -2.1861896768,
				"y": -0.5646994693,
				"z": -1.7566897093,
				"element": "C" 
			},
			{
				"x": -0.8647563373,
				"y": 0.0802215943,
				"z": -1.3192315036,
				"element": "C" 
			},
			{
				"x": 3.645707234,
				"y": 0.2006063407,
				"z": 0.9617439409,
				"element": "H" 
			},
			{
				"x": 1.6885186688,
				"y": 0.1749405616,
				"z": -0.5546140015,
				"element": "H" 
			},
			{
				"x": -0.9129813406,
				"y": 0.9061031263,
				"z": 2.7914255856,
				"element": "H" 
			},
			{
				"x": 1.0748266664,
				"y": 0.9304384112,
				"z": 4.3101837937,
				"element": "H" 
			},
			{
				"x": -3.9716225261,
				"y": 1.4650614044,
				"z": 0.2050706057,
				"element": "H" 
			},
			{
				"x": -2.3042512712,
				"y": -1.5465642914,
				"z": -1.2786203474,
				"element": "H" 
			},
			{
				"x": -2.2311682779,
				"y": -0.7250130416,
				"z": -2.835709786,
				"element": "H" 
			},
			{
				"x": -0.041374996,
				"y": -0.6217471646,
				"z": -1.4655415658,
				"element": "H" 
			},
			{
				"x": -0.650689999,
				"y": 0.9558725742,
				"z": -1.9496796197,
				"element": "H" 
			}
		],
		 "valence_orbital": [ 
			{
				"type": "occ",
				"energy": -0.30391,
				"method": "rhf"
			},
			{
				"type": "occ",
				"energy": -0.27561,
				"method": "rhf"
			},
			{
				"type": "occ",
				"energy": -0.26828,
				"method": "rhf"
			},
			{
				"type": "occ",
				"energy": -0.2513,
				"method": "rhf"
			},
			{
				"type": "occ",
				"energy": -0.22173,
				"method": "rhf"
			},
			{
				"type": "unocc",
				"energy": -0.05273,
				"method": "rhf"
			},
			{
				"type": "unocc",
				"energy": -0.01783,
				"method": "rhf"
			},
			{
				"type": "unocc",
				"energy": 0.01353,
				"method": "rhf"
			},
			{
				"type": "unocc",
				"energy": 0.04818,
				"method": "rhf"
			},
			{
				"type": "unocc",
				"energy": 0.08013,
				"method": "rhf"
			}
		],
		"cosmo_sigma_profile": { 
			"-0.025": 0.0,
			"-0.024": 0.0,
			"-0.023": 0.0,
			"-0.022": 0.0,
			"-0.021": 0.0,
			"-0.02": 0.0,
			"-0.019": 0.0,
			"-0.018": 0.0,
			"-0.017": 0.0,
			"-0.016": 0.0,
			"-0.015": 0.845419118444,
			"-0.014": 0.855676512537,
			"-0.013": 1.23157446959,
			"-0.012": 0.803654669053,
			"-0.011": 0.183559303622,
			"-0.01": 0.565493947585,
			"-0.009": 0.499010305028,
			"-0.008": 3.05765136117,
			"-0.007": 8.42899285664,
			"-0.006": 15.9171557436,
			"-0.005": 19.9453701931,
			"-0.004": 16.7937426972,
			"-0.003": 13.7895622024,
			"-0.002": 11.3670263562,
			"-0.001": 10.3661237771,
			"0.0": 13.15113322,
			"0.001": 14.426541988,
			"0.002": 15.67068127,
			"0.003": 19.2701021283,
			"0.004": 20.5704667733,
			"0.005": 5.61072971312,
			"0.006": 2.74440724746,
			"0.007": 2.96262262831,
			"0.008": 2.13166467036,
			"0.009": 2.72612607523,
			"0.01": 2.31027789152,
			"0.011": 1.98252030875,
			"0.012": 3.5284054169,
			"0.013": 5.47986432662,
			"0.014": 2.11047804046,
			"0.015": 0.0334889533657,
			"0.016": 0.0,
			"0.017": 0.0,
			"0.018": 0.0,
			"0.019": 0.0,
			"0.02": 0.0,
			"0.021": 0.0,
			"0.022": 0.0,
			"0.023": 0.0,
			"0.024": 0.0,
			"0.025": 0.0
		}
	}
}
