{
	 "smiles": "COC1=CC=C(C=C1)C1C(CCC(=O)N1C1=CC=C(C)C=C1)C(O)=O", 
	 "Tm": 475.15, 
	 "num_atms": 46, 
	 "gaussian": { 
		 "optdone": 1, 
		 "sigma_profile": "yes", 
		 "theory": "DFT", 
		 "functional": "B3LYP", 
		 "basiset": "6-31G**", 
		 "properties": { 
			 "R2extent": 9632.8926, 
			 "electric_dipole_moment_norm": 5.04093191087, 
			 "electric_quadrupole_moment_norm": 17.0369021941, 
			 "total_energy": -1130.45795512, 
			 "HOMO_LUMO_gap": 0.20197, 
			 "cosmo_polarized_energy": -21.17, 
			 "cosmo_cavitation_energy": 47.92, 
			 "cosmo_dispersion_energy": -32.51, 
			 "cosmo_repulsion_energy": 2.49, 
			 "cosmo_total_nonelectrostatic_energy": 17.91, 
			 "SMD_solvation_energy": 10.15 
		},
		"coords": [
			{
				"x": 0.139299438,
				"y": -2.1694281762,
				"z": -6.1251188191,
				"element": "C" 
			},
			{
				"x": 1.1532367782,
				"y": -2.0472436478,
				"z": -5.1405711548,
				"element": "O" 
			},
			{
				"x": 0.902132721,
				"y": -1.2700596116,
				"z": -4.0476788066,
				"element": "C" 
			},
			{
				"x": 1.9319041469,
				"y": -1.1992158311,
				"z": -3.0986467776,
				"element": "C" 
			},
			{
				"x": 1.7741584288,
				"y": -0.4349662413,
				"z": -1.9486165163,
				"element": "C" 
			},
			{
				"x": 0.5921587521,
				"y": 0.2815835949,
				"z": -1.7094893209,
				"element": "C" 
			},
			{
				"x": -0.4289380429,
				"y": 0.1912806724,
				"z": -2.6593991979,
				"element": "C" 
			},
			{
				"x": -0.2886343047,
				"y": -0.5689465311,
				"z": -3.822800688,
				"element": "C" 
			},
			{
				"x": 0.3903117155,
				"y": 1.1673261129,
				"z": -0.4805946744,
				"element": "C" 
			},
			{
				"x": 0.7520273118,
				"y": 2.6403588101,
				"z": -0.7640728482,
				"element": "C" 
			},
			{
				"x": 2.273574595,
				"y": 2.8243563673,
				"z": -0.8096565883,
				"element": "C" 
			},
			{
				"x": 2.892598579,
				"y": 2.3977780759,
				"z": 0.5221408509,
				"element": "C" 
			},
			{
				"x": 2.3310108297,
				"y": 1.1280246182,
				"z": 1.1615483237,
				"element": "C" 
			},
			{
				"x": 2.9324517605,
				"y": 0.5938917366,
				"z": 2.0834435393,
				"element": "O" 
			},
			{
				"x": 1.102425943,
				"y": 0.6683247137,
				"z": 0.7143257711,
				"element": "N" 
			},
			{
				"x": 0.4749945589,
				"y": -0.4250019595,
				"z": 1.411454069,
				"element": "C" 
			},
			{
				"x": 1.0853274225,
				"y": -1.6787293924,
				"z": 1.5023608813,
				"element": "C" 
			},
			{
				"x": 0.4425272079,
				"y": -2.7173711341,
				"z": 2.1717340906,
				"element": "C" 
			},
			{
				"x": -0.8196567639,
				"y": -2.539246467,
				"z": 2.7552342299,
				"element": "C" 
			},
			{
				"x": -1.5225626492,
				"y": -3.6832193033,
				"z": 3.4477590572,
				"element": "C" 
			},
			{
				"x": -1.413794816,
				"y": -1.2750018076,
				"z": 2.6606971272,
				"element": "C" 
			},
			{
				"x": -0.7750394227,
				"y": -0.2240004522,
				"z": 2.0029953598,
				"element": "C" 
			},
			{
				"x": 0.0410176668,
				"y": 3.5609140589,
				"z": 0.2256095118,
				"element": "C" 
			},
			{
				"x": 0.5978355197,
				"y": 4.7938072461,
				"z": 0.2716468052,
				"element": "O" 
			},
			{
				"x": -0.9428323859,
				"y": 3.2756569829,
				"z": 0.8748564831,
				"element": "O" 
			},
			{
				"x": -0.1093291558,
				"y": -1.1991028145,
				"z": -6.574435523,
				"element": "H" 
			},
			{
				"x": -0.774179948,
				"y": -2.6175464318,
				"z": -5.7131781729,
				"element": "H" 
			},
			{
				"x": 0.5446617511,
				"y": -2.8270316905,
				"z": -6.8956134775,
				"element": "H" 
			},
			{
				"x": 2.8439075058,
				"y": -1.7579685037,
				"z": -3.2818456331,
				"element": "H" 
			},
			{
				"x": 2.577666352,
				"y": -0.4099957733,
				"z": -1.2190677747,
				"element": "H" 
			},
			{
				"x": -1.3648075165,
				"y": 0.7203976319,
				"z": -2.4914690639,
				"element": "H" 
			},
			{
				"x": -1.1080988961,
				"y": -0.6155310589,
				"z": -4.5301719133,
				"element": "H" 
			},
			{
				"x": -0.6735400767,
				"y": 1.1512864191,
				"z": -0.2342085286,
				"element": "H" 
			},
			{
				"x": 0.3311999976,
				"y": 2.8979548872,
				"z": -1.7452253197,
				"element": "H" 
			},
			{
				"x": 2.5319691831,
				"y": 3.8609820823,
				"z": -1.0388226936,
				"element": "H" 
			},
			{
				"x": 2.6607798649,
				"y": 2.2062482256,
				"z": -1.6261066271,
				"element": "H" 
			},
			{
				"x": 2.7485418578,
				"y": 3.1867252334,
				"z": 1.2715575277,
				"element": "H" 
			},
			{
				"x": 3.9736538784,
				"y": 2.2558548111,
				"z": 0.4419096902,
				"element": "H" 
			},
			{
				"x": 2.0651297952,
				"y": -1.8316534345,
				"z": 1.0657711714,
				"element": "H" 
			},
			{
				"x": 0.9314359403,
				"y": -3.6860966876,
				"z": 2.2411975618,
				"element": "H" 
			},
			{
				"x": -0.8157789982,
				"y": -4.3154230453,
				"z": 3.9946014866,
				"element": "H" 
			},
			{
				"x": -2.271562319,
				"y": -3.3211616566,
				"z": 4.1582339977,
				"element": "H" 
			},
			{
				"x": -2.0410550394,
				"y": -4.3275613111,
				"z": 2.7263131553,
				"element": "H" 
			},
			{
				"x": -2.3847554666,
				"y": -1.1036588199,
				"z": 3.1190108053,
				"element": "H" 
			},
			{
				"x": -1.2335861498,
				"y": 0.7597186735,
				"z": 1.9585975702,
				"element": "H" 
			},
			{
				"x": 0.0572124496,
				"y": 5.3111908294,
				"z": 0.8927910531,
				"element": "H" 
			}
		],
		 "valence_orbital": [ 
			{
				"type": "occ",
				"energy": -0.25293,
				"method": "rhf"
			},
			{
				"type": "occ",
				"energy": -0.24333,
				"method": "rhf"
			},
			{
				"type": "occ",
				"energy": -0.2328,
				"method": "rhf"
			},
			{
				"type": "occ",
				"energy": -0.22149,
				"method": "rhf"
			},
			{
				"type": "occ",
				"energy": -0.21522,
				"method": "rhf"
			},
			{
				"type": "unocc",
				"energy": -0.01325,
				"method": "rhf"
			},
			{
				"type": "unocc",
				"energy": -0.00404,
				"method": "rhf"
			},
			{
				"type": "unocc",
				"energy": 0.00243,
				"method": "rhf"
			},
			{
				"type": "unocc",
				"energy": 0.00712,
				"method": "rhf"
			},
			{
				"type": "unocc",
				"energy": 0.00967,
				"method": "rhf"
			}
		],
		"cosmo_sigma_profile": { 
			"-0.025": 0.0,
			"-0.024": 0.0,
			"-0.023": 0.0,
			"-0.022": 0.0,
			"-0.021": 0.0,
			"-0.02": 0.0,
			"-0.019": 0.0858643035752,
			"-0.018": 0.944357521836,
			"-0.017": 0.883766507516,
			"-0.016": 1.04520086928,
			"-0.015": 0.971237910625,
			"-0.014": 0.158685766804,
			"-0.013": 0.428506994783,
			"-0.012": 1.01988671021,
			"-0.011": 1.11004389281,
			"-0.01": 0.381601185033,
			"-0.009": 0.497277425263,
			"-0.008": 1.80363740111,
			"-0.007": 5.34594663717,
			"-0.006": 16.780263842,
			"-0.005": 31.6108789481,
			"-0.004": 40.3221624962,
			"-0.003": 40.2610936752,
			"-0.002": 33.6720149007,
			"-0.001": 26.2796812082,
			"0.0": 22.9619284196,
			"0.001": 20.5863813036,
			"0.002": 16.6293084136,
			"0.003": 19.6152326389,
			"0.004": 22.6948822906,
			"0.005": 21.9118898935,
			"0.006": 11.2118448192,
			"0.007": 6.52069224435,
			"0.008": 5.46729846803,
			"0.009": 4.67364818699,
			"0.01": 5.31080398842,
			"0.011": 4.33481056601,
			"0.012": 2.99513571083,
			"0.013": 3.30766324693,
			"0.014": 5.13343374056,
			"0.015": 1.75221736398,
			"0.016": 0.0200111455958,
			"0.017": 0.0,
			"0.018": 0.0,
			"0.019": 0.0,
			"0.02": 0.0,
			"0.021": 0.0,
			"0.022": 0.0,
			"0.023": 0.0,
			"0.024": 0.0,
			"0.025": 0.0
		}
	}
}
