{
	 "smiles": "OC(=O)C=CCCl", 
	 "Tm": 356.15, 
	 "num_atms": 12, 
	 "gaussian": { 
		 "optdone": 1, 
		 "sigma_profile": "yes", 
		 "theory": "DFT", 
		 "functional": "B3LYP", 
		 "basiset": "6-31G**", 
		 "properties": { 
			 "R2extent": 1598.0388, 
			 "electric_dipole_moment_norm": 2.88159379164, 
			 "electric_quadrupole_moment_norm": 18.8527288852, 
			 "total_energy": -766.065979374, 
			 "HOMO_LUMO_gap": 0.22169, 
			 "cosmo_polarized_energy": -14.95, 
			 "cosmo_cavitation_energy": 18.5, 
			 "cosmo_dispersion_energy": -13.82, 
			 "cosmo_repulsion_energy": 1.2, 
			 "cosmo_total_nonelectrostatic_energy": 5.89, 
			 "SMD_solvation_energy": 4.5 
		},
		"coords": [
			{
				"x": 1.4826779976,
				"y": -0.8269381353,
				"z": -2.4346543454,
				"element": "O" 
			},
			{
				"x": 0.2345268232,
				"y": -0.4682942596,
				"z": -2.0318482674,
				"element": "C" 
			},
			{
				"x": -0.4699515677,
				"y": 0.1928582004,
				"z": -2.7589193232,
				"element": "O" 
			},
			{
				"x": -0.1634284481,
				"y": -0.9404057702,
				"z": -0.6740621338,
				"element": "C" 
			},
			{
				"x": -1.371937506,
				"y": -0.6318193473,
				"z": -0.1988360892,
				"element": "C" 
			},
			{
				"x": -1.9600404163,
				"y": -1.0023384764,
				"z": 1.1223405747,
				"element": "C" 
			},
			{
				"x": -0.8862595538,
				"y": -1.9899293915,
				"z": 2.1920572108,
				"element": "Cl" 
			},
			{
				"x": 1.9229853975,
				"y": -1.3492265515,
				"z": -1.7496655754,
				"element": "H" 
			},
			{
				"x": 0.5299363074,
				"y": -1.5311351696,
				"z": -0.080627855,
				"element": "H" 
			},
			{
				"x": -2.0267868588,
				"y": -0.0370392556,
				"z": -0.836420167,
				"element": "H" 
			},
			{
				"x": -2.2212172504,
				"y": -0.1032874716,
				"z": 1.688470906,
				"element": "H" 
			},
			{
				"x": -2.8772049246,
				"y": -1.5820443717,
				"z": 0.981765065,
				"element": "H" 
			}
		],
		 "valence_orbital": [ 
			{
				"type": "occ",
				"energy": -0.32369,
				"method": "rhf"
			},
			{
				"type": "occ",
				"energy": -0.31896,
				"method": "rhf"
			},
			{
				"type": "occ",
				"energy": -0.31555,
				"method": "rhf"
			},
			{
				"type": "occ",
				"energy": -0.28805,
				"method": "rhf"
			},
			{
				"type": "occ",
				"energy": -0.27746,
				"method": "rhf"
			},
			{
				"type": "unocc",
				"energy": -0.05577,
				"method": "rhf"
			},
			{
				"type": "unocc",
				"energy": 0.00779,
				"method": "rhf"
			},
			{
				"type": "unocc",
				"energy": 0.0562,
				"method": "rhf"
			},
			{
				"type": "unocc",
				"energy": 0.07822,
				"method": "rhf"
			},
			{
				"type": "unocc",
				"energy": 0.08716,
				"method": "rhf"
			}
		],
		"cosmo_sigma_profile": { 
			"-0.025": 0.0,
			"-0.024": 0.0,
			"-0.023": 0.0,
			"-0.022": 0.0,
			"-0.021": 0.0,
			"-0.02": 0.0195479985096,
			"-0.019": 1.05431230658,
			"-0.018": 1.32325609409,
			"-0.017": 1.16096915192,
			"-0.016": 1.08599998982,
			"-0.015": 0.696347513448,
			"-0.014": 1.20622827573,
			"-0.013": 1.23310409606,
			"-0.012": 0.652352049944,
			"-0.011": 1.21233501222,
			"-0.01": 0.977383892931,
			"-0.009": 3.6991833144,
			"-0.008": 9.08824368494,
			"-0.007": 8.39956467173,
			"-0.006": 6.49008157058,
			"-0.005": 5.10270708204,
			"-0.004": 4.45417726766,
			"-0.003": 3.93283261291,
			"-0.002": 6.30662101302,
			"-0.001": 7.5558040021,
			"0.0": 9.1031780816,
			"0.001": 10.0962413933,
			"0.002": 7.73850638065,
			"0.003": 7.22454339683,
			"0.004": 7.06618387752,
			"0.005": 8.33286666995,
			"0.006": 8.61992190273,
			"0.007": 2.60547338193,
			"0.008": 2.33578939116,
			"0.009": 3.29966001456,
			"0.01": 4.57118563965,
			"0.011": 4.98575647094,
			"0.012": 5.43196403046,
			"0.013": 2.08977920215,
			"0.014": 0.244104198909,
			"0.015": 0.0,
			"0.016": 0.0,
			"0.017": 0.0,
			"0.018": 0.0,
			"0.019": 0.0,
			"0.02": 0.0,
			"0.021": 0.0,
			"0.022": 0.0,
			"0.023": 0.0,
			"0.024": 0.0,
			"0.025": 0.0
		}
	}
}
