{
	 "smiles": "NNC(=O)CSC1=NNC(=O)NC1=O", 
	 "Tm": 499.15, 
	 "num_atms": 21, 
	 "gaussian": { 
		 "optdone": 1, 
		 "sigma_profile": "yes", 
		 "theory": "DFT", 
		 "functional": "B3LYP", 
		 "basiset": "6-31G**", 
		 "properties": { 
			 "R2extent": 4204.9857, 
			 "electric_dipole_moment_norm": 3.00400460719, 
			 "electric_quadrupole_moment_norm": 10.0411119434, 
			 "total_energy": -1092.3434516, 
			 "HOMO_LUMO_gap": 0.14983, 
			 "cosmo_polarized_energy": -22.53, 
			 "cosmo_cavitation_energy": 28.03, 
			 "cosmo_dispersion_energy": -21.23, 
			 "cosmo_repulsion_energy": 1.65, 
			 "cosmo_total_nonelectrostatic_energy": 8.44, 
			 "SMD_solvation_energy": 6.2 
		},
		"coords": [
			{
				"x": 3.7350188688,
				"y": -0.8379030595,
				"z": -0.0868242674,
				"element": "N" 
			},
			{
				"x": 2.5029442372,
				"y": -0.3097723936,
				"z": 0.3546677017,
				"element": "N" 
			},
			{
				"x": 1.9844028794,
				"y": 0.8122595235,
				"z": -0.2141441209,
				"element": "C" 
			},
			{
				"x": 2.5951389241,
				"y": 1.5081230325,
				"z": -1.0174874343,
				"element": "O" 
			},
			{
				"x": 0.5572486225,
				"y": 1.144841043,
				"z": 0.2195278535,
				"element": "C" 
			},
			{
				"x": -0.676321903,
				"y": 0.2699575176,
				"z": -0.858362309,
				"element": "S" 
			},
			{
				"x": -1.6893308308,
				"y": -0.6091538765,
				"z": 0.299514156,
				"element": "C" 
			},
			{
				"x": -2.9692879837,
				"y": -0.5551160767,
				"z": 0.0934126391,
				"element": "N" 
			},
			{
				"x": -3.7828997715,
				"y": -1.3374399811,
				"z": 0.8314502351,
				"element": "N" 
			},
			{
				"x": -3.4202404728,
				"y": -2.1994403335,
				"z": 1.8558180374,
				"element": "C" 
			},
			{
				"x": -4.2090456804,
				"y": -2.8629833284,
				"z": 2.4952445963,
				"element": "O" 
			},
			{
				"x": -2.0410856903,
				"y": -2.205099818,
				"z": 2.0592892835,
				"element": "N" 
			},
			{
				"x": -1.0915179372,
				"y": -1.4849132818,
				"z": 1.3490527345,
				"element": "C" 
			},
			{
				"x": 0.0991723343,
				"y": -1.5908730617,
				"z": 1.6032572172,
				"element": "O" 
			},
			{
				"x": 3.7998492008,
				"y": -0.6384812277,
				"z": -1.0860826471,
				"element": "H" 
			},
			{
				"x": 4.4759659221,
				"y": -0.2843957848,
				"z": 0.342937537,
				"element": "H" 
			},
			{
				"x": 1.8850047812,
				"y": -0.9616675652,
				"z": 0.825403969,
				"element": "H" 
			},
			{
				"x": 0.4034932288,
				"y": 2.2148133983,
				"z": 0.0786221663,
				"element": "H" 
			},
			{
				"x": 0.3708750053,
				"y": 0.8729887353,
				"z": 1.2579649497,
				"element": "H" 
			},
			{
				"x": -4.7690320409,
				"y": -1.2632514347,
				"z": 0.6209144852,
				"element": "H" 
			},
			{
				"x": -1.6992516938,
				"y": -2.8278920271,
				"z": 2.7835232175,
				"element": "H" 
			}
		],
		 "valence_orbital": [ 
			{
				"type": "occ",
				"energy": -0.30369,
				"method": "rhf"
			},
			{
				"type": "occ",
				"energy": -0.28263,
				"method": "rhf"
			},
			{
				"type": "occ",
				"energy": -0.26132,
				"method": "rhf"
			},
			{
				"type": "occ",
				"energy": -0.25186,
				"method": "rhf"
			},
			{
				"type": "occ",
				"energy": -0.24156,
				"method": "rhf"
			},
			{
				"type": "unocc",
				"energy": -0.09173,
				"method": "rhf"
			},
			{
				"type": "unocc",
				"energy": -0.02857,
				"method": "rhf"
			},
			{
				"type": "unocc",
				"energy": -0.00238,
				"method": "rhf"
			},
			{
				"type": "unocc",
				"energy": 0.01791,
				"method": "rhf"
			},
			{
				"type": "unocc",
				"energy": 0.05681,
				"method": "rhf"
			}
		],
		"cosmo_sigma_profile": { 
			"-0.025": 0.0,
			"-0.024": 0.0,
			"-0.023": 0.0,
			"-0.022": 0.0,
			"-0.021": 0.0,
			"-0.02": 0.0,
			"-0.019": 0.0167202395042,
			"-0.018": 0.888022480222,
			"-0.017": 2.12308008227,
			"-0.016": 2.43471770618,
			"-0.015": 2.40454436378,
			"-0.014": 0.508613601064,
			"-0.013": 1.11870908592,
			"-0.012": 2.84721765859,
			"-0.011": 2.72607628207,
			"-0.01": 4.57962824983,
			"-0.009": 6.9680492781,
			"-0.008": 7.89202261887,
			"-0.007": 8.36242198172,
			"-0.006": 9.80167760673,
			"-0.005": 11.9444673406,
			"-0.004": 14.9311474197,
			"-0.003": 12.3621244112,
			"-0.002": 9.7545391746,
			"-0.001": 9.70320449554,
			"0.0": 10.0213466415,
			"0.001": 12.8419083916,
			"0.002": 9.53711532338,
			"0.003": 10.6736816095,
			"0.004": 8.5904688121,
			"0.005": 6.49839024355,
			"0.006": 6.31126441599,
			"0.007": 6.75356356863,
			"0.008": 6.52212852491,
			"0.009": 5.56352329897,
			"0.01": 5.84237844407,
			"0.011": 8.02029315718,
			"0.012": 6.20602609754,
			"0.013": 5.7148092401,
			"0.014": 3.15865536164,
			"0.015": 0.731881678395,
			"0.016": 0.542788029596,
			"0.017": 0.272254871738,
			"0.018": 0.0,
			"0.019": 0.0,
			"0.02": 0.0,
			"0.021": 0.0,
			"0.022": 0.0,
			"0.023": 0.0,
			"0.024": 0.0,
			"0.025": 0.0
		}
	}
}
