{
	 "smiles": "CC1=C(C)C=C2C(=O)C(=COC2=C1)C#N", 
	 "Tm": 481.15, 
	 "num_atms": 24, 
	 "gaussian": { 
		 "optdone": 1, 
		 "sigma_profile": "yes", 
		 "theory": "DFT", 
		 "functional": "B3LYP", 
		 "basiset": "6-31G**", 
		 "properties": { 
			 "R2extent": 4052.678, 
			 "electric_dipole_moment_norm": 8.10955758164, 
			 "electric_quadrupole_moment_norm": 33.3521229111, 
			 "total_energy": -667.88456934, 
			 "HOMO_LUMO_gap": 0.17933, 
			 "cosmo_polarized_energy": -16.1, 
			 "cosmo_cavitation_energy": 29.47, 
			 "cosmo_dispersion_energy": -20.97, 
			 "cosmo_repulsion_energy": 1.61, 
			 "cosmo_total_nonelectrostatic_energy": 10.11, 
			 "SMD_solvation_energy": 7.75 
		},
		"coords": [
			{
				"x": -2.9764513878,
				"y": -0.2589827029,
				"z": -0.4296923972,
				"element": "C" 
			},
			{
				"x": -1.4958018349,
				"y": 0.0183805529,
				"z": -0.3552070837,
				"element": "C" 
			},
			{
				"x": -1.0139067421,
				"y": 1.3517189064,
				"z": -0.233086147,
				"element": "C" 
			},
			{
				"x": -1.9744869327,
				"y": 2.5145641236,
				"z": -0.1758599765,
				"element": "C" 
			},
			{
				"x": 0.3567858177,
				"y": 1.5694076856,
				"z": -0.1671240329,
				"element": "C" 
			},
			{
				"x": 1.2803392239,
				"y": 0.5128797166,
				"z": -0.2174835533,
				"element": "C" 
			},
			{
				"x": 2.7350172438,
				"y": 0.7633373049,
				"z": -0.1461180115,
				"element": "C" 
			},
			{
				"x": 3.2276254046,
				"y": 1.8788242349,
				"z": -0.0406300977,
				"element": "O" 
			},
			{
				"x": 3.5416871146,
				"y": -0.4791739296,
				"z": -0.2154918832,
				"element": "C" 
			},
			{
				"x": 2.9406225506,
				"y": -1.6940154351,
				"z": -0.3325508768,
				"element": "C" 
			},
			{
				"x": 1.6169455591,
				"y": -1.8833218355,
				"z": -0.3943966836,
				"element": "O" 
			},
			{
				"x": 0.7799545136,
				"y": -0.7862083589,
				"z": -0.3376422,
				"element": "C" 
			},
			{
				"x": -0.5898191726,
				"y": -1.0383778623,
				"z": -0.4062037276,
				"element": "C" 
			},
			{
				"x": 4.9666042476,
				"y": -0.4084899052,
				"z": -0.1594671517,
				"element": "C" 
			},
			{
				"x": 6.1279157651,
				"y": -0.3673167183,
				"z": -0.1151260381,
				"element": "N" 
			},
			{
				"x": -3.1768374617,
				"y": -1.3289444136,
				"z": -0.5211841511,
				"element": "H" 
			},
			{
				"x": -3.4963076148,
				"y": 0.1070035974,
				"z": 0.4634318331,
				"element": "H" 
			},
			{
				"x": -3.4340581496,
				"y": 0.2451794335,
				"z": -1.2889245098,
				"element": "H" 
			},
			{
				"x": -2.5964610742,
				"y": 2.5698474663,
				"z": -1.0772200341,
				"element": "H" 
			},
			{
				"x": -1.4370844718,
				"y": 3.4608796477,
				"z": -0.0821376144,
				"element": "H" 
			},
			{
				"x": -2.6592445471,
				"y": 2.4317561825,
				"z": 0.6765555847,
				"element": "H" 
			},
			{
				"x": 0.7592264479,
				"y": 2.5734418769,
				"z": -0.073774482,
				"element": "H" 
			},
			{
				"x": 3.4846658304,
				"y": -2.6301898218,
				"z": -0.3870410838,
				"element": "H" 
			},
			{
				"x": -0.9310303296,
				"y": -2.0643997459,
				"z": -0.4991256819,
				"element": "H" 
			}
		],
		 "valence_orbital": [ 
			{
				"type": "occ",
				"energy": -0.33126,
				"method": "rhf"
			},
			{
				"type": "occ",
				"energy": -0.28372,
				"method": "rhf"
			},
			{
				"type": "occ",
				"energy": -0.26986,
				"method": "rhf"
			},
			{
				"type": "occ",
				"energy": -0.26108,
				"method": "rhf"
			},
			{
				"type": "occ",
				"energy": -0.25093,
				"method": "rhf"
			},
			{
				"type": "unocc",
				"energy": -0.0716,
				"method": "rhf"
			},
			{
				"type": "unocc",
				"energy": -0.05225,
				"method": "rhf"
			},
			{
				"type": "unocc",
				"energy": -0.01427,
				"method": "rhf"
			},
			{
				"type": "unocc",
				"energy": 0.02754,
				"method": "rhf"
			},
			{
				"type": "unocc",
				"energy": 0.03438,
				"method": "rhf"
			}
		],
		"cosmo_sigma_profile": { 
			"-0.025": 0.0,
			"-0.024": 0.0,
			"-0.023": 0.0,
			"-0.022": 0.0,
			"-0.021": 0.0,
			"-0.02": 0.0,
			"-0.019": 0.0,
			"-0.018": 0.0,
			"-0.017": 0.0,
			"-0.016": 0.0,
			"-0.015": 0.0,
			"-0.014": 0.0,
			"-0.013": 0.106381854934,
			"-0.012": 2.53519883237,
			"-0.011": 2.01560516366,
			"-0.01": 1.89928368599,
			"-0.009": 1.38240747046,
			"-0.008": 1.97536762615,
			"-0.007": 4.46135077585,
			"-0.006": 7.37706649241,
			"-0.005": 19.019347014,
			"-0.004": 21.6744518846,
			"-0.003": 21.4096805019,
			"-0.002": 20.6352289777,
			"-0.001": 23.6367876954,
			"0.0": 22.1749607891,
			"0.001": 15.278985153,
			"0.002": 15.23139849,
			"0.003": 6.92797562902,
			"0.004": 4.57484533855,
			"0.005": 3.9684792032,
			"0.006": 4.81324247153,
			"0.007": 6.47688138388,
			"0.008": 4.37057752945,
			"0.009": 5.65904954272,
			"0.01": 4.45787713224,
			"0.011": 5.85976960774,
			"0.012": 7.31418459479,
			"0.013": 1.80661953742,
			"0.014": 0.0,
			"0.015": 0.0,
			"0.016": 0.0,
			"0.017": 0.0,
			"0.018": 0.0,
			"0.019": 0.0,
			"0.02": 0.0,
			"0.021": 0.0,
			"0.022": 0.0,
			"0.023": 0.0,
			"0.024": 0.0,
			"0.025": 0.0
		}
	}
}
