{
	 "smiles": "COC1=CC(O)=CC(OC)=C1OC", 
	 "Tm": 421.15, 
	 "num_atms": 25, 
	 "gaussian": { 
		 "optdone": 1, 
		 "sigma_profile": "yes", 
		 "theory": "DFT", 
		 "functional": "B3LYP", 
		 "basiset": "6-31G**", 
		 "properties": { 
			 "R2extent": 2810.8919, 
			 "electric_dipole_moment_norm": 1.68810225401, 
			 "electric_quadrupole_moment_norm": 10.7162484023, 
			 "total_energy": -651.026231086, 
			 "HOMO_LUMO_gap": 0.21637, 
			 "cosmo_polarized_energy": -10.91, 
			 "cosmo_cavitation_energy": 28.58, 
			 "cosmo_dispersion_energy": -20.22, 
			 "cosmo_repulsion_energy": 1.63, 
			 "cosmo_total_nonelectrostatic_energy": 10.0, 
			 "SMD_solvation_energy": 7.63 
		},
		"coords": [
			{
				"x": -0.4481662598,
				"y": 1.4978686821,
				"z": 1.6594865501,
				"element": "C" 
			},
			{
				"x": -1.1266718837,
				"y": 1.3399272836,
				"z": 0.408632911,
				"element": "O" 
			},
			{
				"x": -0.7798125029,
				"y": 0.2330704059,
				"z": -0.3268227768,
				"element": "C" 
			},
			{
				"x": -1.7765377421,
				"y": -0.7082939356,
				"z": -0.5995235147,
				"element": "C" 
			},
			{
				"x": -1.49255521,
				"y": -1.8071387539,
				"z": -1.4142040301,
				"element": "C" 
			},
			{
				"x": -2.4310565084,
				"y": -2.7524312274,
				"z": -1.7221774805,
				"element": "O" 
			},
			{
				"x": -0.2076919238,
				"y": -1.9874073066,
				"z": -1.9342176733,
				"element": "C" 
			},
			{
				"x": 0.7845563806,
				"y": -1.0489145377,
				"z": -1.6568096463,
				"element": "C" 
			},
			{
				"x": 2.0169897468,
				"y": -1.2097825822,
				"z": -2.2447830646,
				"element": "O" 
			},
			{
				"x": 3.1000498948,
				"y": -1.4645407691,
				"z": -1.343722282,
				"element": "C" 
			},
			{
				"x": 0.5106533125,
				"y": 0.0750937992,
				"z": -0.8556721869,
				"element": "C" 
			},
			{
				"x": 1.4918610195,
				"y": 1.0149135162,
				"z": -0.6023882913,
				"element": "O" 
			},
			{
				"x": 1.6079234496,
				"y": 2.0086256216,
				"z": -1.6284742127,
				"element": "C" 
			},
			{
				"x": -0.8548930548,
				"y": 2.4053893749,
				"z": 2.110737082,
				"element": "H" 
			},
			{
				"x": -0.6505813429,
				"y": 0.6454730852,
				"z": 2.320914003,
				"element": "H" 
			},
			{
				"x": 0.6304213311,
				"y": 1.6047268665,
				"z": 1.5183873301,
				"element": "H" 
			},
			{
				"x": -2.7658560493,
				"y": -0.5501249207,
				"z": -0.179378576,
				"element": "H" 
			},
			{
				"x": -3.2691031985,
				"y": -2.5092554053,
				"z": -1.3083976766,
				"element": "H" 
			},
			{
				"x": 0.0171342009,
				"y": -2.8412695023,
				"z": -2.5622326994,
				"element": "H" 
			},
			{
				"x": 3.2379341098,
				"y": -0.6377212829,
				"z": -0.6412676842,
				"element": "H" 
			},
			{
				"x": 3.9915681442,
				"y": -1.574474734,
				"z": -1.9647732993,
				"element": "H" 
			},
			{
				"x": 2.9312989732,
				"y": -2.3959906749,
				"z": -0.7882554989,
				"element": "H" 
			},
			{
				"x": 2.4060903469,
				"y": 2.6856821393,
				"z": -1.3154479687,
				"element": "H" 
			},
			{
				"x": 0.6727115734,
				"y": 2.5706768279,
				"z": -1.7335212063,
				"element": "H" 
			},
			{
				"x": 1.8723331931,
				"y": 1.5490980302,
				"z": -2.5871881074,
				"element": "H" 
			}
		],
		 "valence_orbital": [ 
			{
				"type": "occ",
				"energy": -0.29314,
				"method": "rhf"
			},
			{
				"type": "occ",
				"energy": -0.27351,
				"method": "rhf"
			},
			{
				"type": "occ",
				"energy": -0.25746,
				"method": "rhf"
			},
			{
				"type": "occ",
				"energy": -0.22775,
				"method": "rhf"
			},
			{
				"type": "occ",
				"energy": -0.20975,
				"method": "rhf"
			},
			{
				"type": "unocc",
				"energy": 0.00662,
				"method": "rhf"
			},
			{
				"type": "unocc",
				"energy": 0.01655,
				"method": "rhf"
			},
			{
				"type": "unocc",
				"energy": 0.07105,
				"method": "rhf"
			},
			{
				"type": "unocc",
				"energy": 0.07961,
				"method": "rhf"
			},
			{
				"type": "unocc",
				"energy": 0.11794,
				"method": "rhf"
			}
		],
		"cosmo_sigma_profile": { 
			"-0.025": 0.0,
			"-0.024": 0.0,
			"-0.023": 0.0,
			"-0.022": 0.0,
			"-0.021": 0.0,
			"-0.02": 0.0,
			"-0.019": 0.0,
			"-0.018": 0.446637165314,
			"-0.017": 1.21887327028,
			"-0.016": 1.0274329483,
			"-0.015": 0.822283085944,
			"-0.014": 1.36527918453,
			"-0.013": 0.806142220618,
			"-0.012": 0.387303229502,
			"-0.011": 0.907845674001,
			"-0.01": 1.62766648247,
			"-0.009": 1.28839856693,
			"-0.008": 0.896485842843,
			"-0.007": 1.46471761503,
			"-0.006": 4.4014521022,
			"-0.005": 13.0654676487,
			"-0.004": 17.4693144961,
			"-0.003": 26.0120380113,
			"-0.002": 25.5648907422,
			"-0.001": 14.4253397086,
			"0.0": 14.3589554888,
			"0.001": 13.0082263171,
			"0.002": 13.6863002167,
			"0.003": 16.4749864237,
			"0.004": 18.889907458,
			"0.005": 7.49144029667,
			"0.006": 4.69658811135,
			"0.007": 4.75378202926,
			"0.008": 5.0998929926,
			"0.009": 3.57988202044,
			"0.01": 3.83052303411,
			"0.011": 4.53182327081,
			"0.012": 2.15193849012,
			"0.013": 0.0212556154607,
			"0.014": 0.0,
			"0.015": 0.0,
			"0.016": 0.0,
			"0.017": 0.0,
			"0.018": 0.0,
			"0.019": 0.0,
			"0.02": 0.0,
			"0.021": 0.0,
			"0.022": 0.0,
			"0.023": 0.0,
			"0.024": 0.0,
			"0.025": 0.0
		}
	}
}
