{
	 "smiles": "CC(=O)N1CCN(CC1)C1=CC=C(OCC2COC(CN3C=CN=C3)(O2)C2=CC=C(Cl)C=C2Cl)C=C1", 
	 "Tm": 419.15, 
	 "num_atms": 64, 
	 "gaussian": { 
		 "optdone": 1, 
		 "sigma_profile": "yes", 
		 "theory": "DFT", 
		 "functional": "B3LYP", 
		 "basiset": "6-31G**", 
		 "properties": { 
			 "R2extent": 28583.5436, 
			 "electric_dipole_moment_norm": 5.79215852856, 
			 "electric_quadrupole_moment_norm": 34.8432309287, 
			 "total_energy": -2447.88935055, 
			 "HOMO_LUMO_gap": 0.1371, 
			 "cosmo_polarized_energy": -28.65, 
			 "cosmo_cavitation_energy": 68.17, 
			 "cosmo_dispersion_energy": -45.49, 
			 "cosmo_repulsion_energy": 3.36, 
			 "cosmo_total_nonelectrostatic_energy": 26.04, 
			 "SMD_solvation_energy": 8.17 
		},
		"coords": [
			{
				"x": 1.562292286,
				"y": -6.8760349632,
				"z": 4.363434842,
				"element": "C" 
			},
			{
				"x": 0.6464761332,
				"y": -5.846588989,
				"z": 5.0101494556,
				"element": "C" 
			},
			{
				"x": 0.0815937966,
				"y": -6.0712722891,
				"z": 6.0763429979,
				"element": "O" 
			},
			{
				"x": 0.4792903294,
				"y": -4.6586646593,
				"z": 4.3368749461,
				"element": "N" 
			},
			{
				"x": -0.3391568107,
				"y": -3.6112696204,
				"z": 4.9485283742,
				"element": "C" 
			},
			{
				"x": 0.2872779126,
				"y": -2.2335601578,
				"z": 4.7383803129,
				"element": "C" 
			},
			{
				"x": 0.5081963886,
				"y": -1.9654576935,
				"z": 3.3170649107,
				"element": "N" 
			},
			{
				"x": 0.5075714896,
				"y": -3.1084181439,
				"z": 2.4219589336,
				"element": "C" 
			},
			{
				"x": 1.16100952,
				"y": -4.3226441486,
				"z": 3.0858906212,
				"element": "C" 
			},
			{
				"x": 0.4086710141,
				"y": -0.6647970716,
				"z": 2.8168529683,
				"element": "C" 
			},
			{
				"x": 0.619083455,
				"y": 0.4489575285,
				"z": 3.6596518839,
				"element": "C" 
			},
			{
				"x": 0.5224316216,
				"y": 1.746964336,
				"z": 3.1728621213,
				"element": "C" 
			},
			{
				"x": 0.2368087981,
				"y": 1.9849951436,
				"z": 1.8251694903,
				"element": "C" 
			},
			{
				"x": 0.1950959963,
				"y": 3.3094097036,
				"z": 1.4373460973,
				"element": "O" 
			},
			{
				"x": -0.6271215715,
				"y": 3.7009829841,
				"z": 0.3508762137,
				"element": "C" 
			},
			{
				"x": 0.1533908095,
				"y": 3.9891379282,
				"z": -0.927057785,
				"element": "C" 
			},
			{
				"x": -0.6323255678,
				"y": 4.8172652003,
				"z": -1.9430287808,
				"element": "C" 
			},
			{
				"x": -0.0769966032,
				"y": 4.412961565,
				"z": -3.1931574823,
				"element": "O" 
			},
			{
				"x": 0.389021251,
				"y": 3.0764135324,
				"z": -3.0612945081,
				"element": "C" 
			},
			{
				"x": 1.8102113873,
				"y": 3.0332918438,
				"z": -3.6757174898,
				"element": "C" 
			},
			{
				"x": 2.742069282,
				"y": 3.90118163,
				"z": -2.9869535518,
				"element": "N" 
			},
			{
				"x": 2.9288247341,
				"y": 5.256669725,
				"z": -3.1962080381,
				"element": "C" 
			},
			{
				"x": 3.8374331754,
				"y": 5.6533739865,
				"z": -2.248289085,
				"element": "C" 
			},
			{
				"x": 4.2121918836,
				"y": 4.5889431129,
				"z": -1.4554689915,
				"element": "N" 
			},
			{
				"x": 3.5377108631,
				"y": 3.5612958705,
				"z": -1.9219745279,
				"element": "C" 
			},
			{
				"x": 0.417341676,
				"y": 2.784431599,
				"z": -1.6710054174,
				"element": "O" 
			},
			{
				"x": -0.5532689074,
				"y": 2.099629729,
				"z": -3.7848338639,
				"element": "C" 
			},
			{
				"x": -1.5498485649,
				"y": 2.6243924596,
				"z": -4.6191000506,
				"element": "C" 
			},
			{
				"x": -2.4399470704,
				"y": 1.814617316,
				"z": -5.3198865048,
				"element": "C" 
			},
			{
				"x": -2.3313512828,
				"y": 0.4324820352,
				"z": -5.192394939,
				"element": "C" 
			},
			{
				"x": -3.4367404714,
				"y": -0.6160080775,
				"z": -6.0588752252,
				"element": "Cl" 
			},
			{
				"x": -1.348889824,
				"y": -0.1352032468,
				"z": -4.3852171604,
				"element": "C" 
			},
			{
				"x": -0.4690545103,
				"y": 0.7000048366,
				"z": -3.6951662204,
				"element": "C" 
			},
			{
				"x": 0.7490323471,
				"y": -0.1075529921,
				"z": -2.7129837132,
				"element": "Cl" 
			},
			{
				"x": 0.0459045106,
				"y": 0.8998376627,
				"z": 0.9697924496,
				"element": "C" 
			},
			{
				"x": 0.116613756,
				"y": -0.404455416,
				"z": 1.4642876709,
				"element": "C" 
			},
			{
				"x": 1.1409310969,
				"y": -7.2478464917,
				"z": 3.4226375081,
				"element": "H" 
			},
			{
				"x": 2.5535724525,
				"y": -6.4670383713,
				"z": 4.1422292305,
				"element": "H" 
			},
			{
				"x": 1.6619747294,
				"y": -7.7101612645,
				"z": 5.0571465463,
				"element": "H" 
			},
			{
				"x": -1.3554555351,
				"y": -3.6246182258,
				"z": 4.5308354888,
				"element": "H" 
			},
			{
				"x": -0.4212278135,
				"y": -3.840199489,
				"z": 6.0120317567,
				"element": "H" 
			},
			{
				"x": -0.3965063349,
				"y": -1.4819351038,
				"z": 5.1498359986,
				"element": "H" 
			},
			{
				"x": 1.2251774405,
				"y": -2.167172856,
				"z": 5.3121970169,
				"element": "H" 
			},
			{
				"x": 1.0956401896,
				"y": -2.8642941181,
				"z": 1.5316037067,
				"element": "H" 
			},
			{
				"x": -0.5047931076,
				"y": -3.3792256295,
				"z": 2.0731196554,
				"element": "H" 
			},
			{
				"x": 2.2234454066,
				"y": -4.0992971292,
				"z": 3.2627570019,
				"element": "H" 
			},
			{
				"x": 1.1126372923,
				"y": -5.1651246329,
				"z": 2.388390858,
				"element": "H" 
			},
			{
				"x": 0.8769214066,
				"y": 0.3018233219,
				"z": 4.7025300238,
				"element": "H" 
			},
			{
				"x": 0.6812867431,
				"y": 2.5955754426,
				"z": 3.8306232266,
				"element": "H" 
			},
			{
				"x": -1.4144965411,
				"y": 2.964431162,
				"z": 0.1505870008,
				"element": "H" 
			},
			{
				"x": -1.1072498511,
				"y": 4.6385503599,
				"z": 0.6624136904,
				"element": "H" 
			},
			{
				"x": 1.1020429683,
				"y": 4.4747464803,
				"z": -0.6687242912,
				"element": "H" 
			},
			{
				"x": -0.4841558321,
				"y": 5.8937601405,
				"z": -1.8364581795,
				"element": "H" 
			},
			{
				"x": -1.7081297566,
				"y": 4.5894117307,
				"z": -1.9033435926,
				"element": "H" 
			},
			{
				"x": 1.7402818024,
				"y": 3.3336417715,
				"z": -4.7248158719,
				"element": "H" 
			},
			{
				"x": 2.1879924434,
				"y": 2.0108549336,
				"z": -3.6376429912,
				"element": "H" 
			},
			{
				"x": 2.4058773355,
				"y": 5.7839575214,
				"z": -3.9783993669,
				"element": "H" 
			},
			{
				"x": 4.2496373814,
				"y": 6.6415211685,
				"z": -2.0959044562,
				"element": "H" 
			},
			{
				"x": 3.5702647112,
				"y": 2.550211796,
				"z": -1.539354904,
				"element": "H" 
			},
			{
				"x": -1.6185144444,
				"y": 3.7019084978,
				"z": -4.7096970708,
				"element": "H" 
			},
			{
				"x": -3.2035868553,
				"y": 2.2490942726,
				"z": -5.9546923083,
				"element": "H" 
			},
			{
				"x": -1.2635803895,
				"y": -1.2106610557,
				"z": -4.2916833571,
				"element": "H" 
			},
			{
				"x": -0.1401106307,
				"y": 1.0563942207,
				"z": -0.0856730371,
				"element": "H" 
			},
			{
				"x": -0.0694195401,
				"y": -1.2198207122,
				"z": 0.7745997627,
				"element": "H" 
			}
		],
		 "valence_orbital": [ 
			{
				"type": "occ",
				"energy": -0.24345,
				"method": "rhf"
			},
			{
				"type": "occ",
				"energy": -0.24241,
				"method": "rhf"
			},
			{
				"type": "occ",
				"energy": -0.23526,
				"method": "rhf"
			},
			{
				"type": "occ",
				"energy": -0.22233,
				"method": "rhf"
			},
			{
				"type": "occ",
				"energy": -0.17881,
				"method": "rhf"
			},
			{
				"type": "unocc",
				"energy": -0.04171,
				"method": "rhf"
			},
			{
				"type": "unocc",
				"energy": -0.03787,
				"method": "rhf"
			},
			{
				"type": "unocc",
				"energy": -0.00486,
				"method": "rhf"
			},
			{
				"type": "unocc",
				"energy": 0.00307,
				"method": "rhf"
			},
			{
				"type": "unocc",
				"energy": 0.02794,
				"method": "rhf"
			}
		],
		"cosmo_sigma_profile": { 
			"-0.025": 0.0,
			"-0.024": 0.0,
			"-0.023": 0.0,
			"-0.022": 0.0,
			"-0.021": 0.0,
			"-0.02": 0.0,
			"-0.019": 0.0,
			"-0.018": 0.0,
			"-0.017": 0.0,
			"-0.016": 0.0,
			"-0.015": 0.0,
			"-0.014": 0.0,
			"-0.013": 0.0,
			"-0.012": 0.0,
			"-0.011": 0.0,
			"-0.01": 0.0,
			"-0.009": 0.282837528123,
			"-0.008": 6.18533646305,
			"-0.007": 19.3586065457,
			"-0.006": 30.9153592063,
			"-0.005": 42.9853378917,
			"-0.004": 53.4392959951,
			"-0.003": 50.5578601321,
			"-0.002": 39.8590364996,
			"-0.001": 36.6965105118,
			"0.0": 39.6998379643,
			"0.001": 42.6490000977,
			"0.002": 33.5486769905,
			"0.003": 29.8156827247,
			"0.004": 30.1171047157,
			"0.005": 20.9229816352,
			"0.006": 18.3577907873,
			"0.007": 11.6073763171,
			"0.008": 4.96548583613,
			"0.009": 4.71412289439,
			"0.01": 4.75751377074,
			"0.011": 2.86484241909,
			"0.012": 2.98689365336,
			"0.013": 4.21359904838,
			"0.014": 6.41817132165,
			"0.015": 3.65288560182,
			"0.016": 0.960778831336,
			"0.017": 1.25479241061,
			"0.018": 0.928759924036,
			"0.019": 0.0742665954772,
			"0.02": 0.0,
			"0.021": 0.0,
			"0.022": 0.0,
			"0.023": 0.0,
			"0.024": 0.0,
			"0.025": 0.0
		}
	}
}
