{
	 "smiles": "CCOC(=O)C1=C(N)CCCC1", 
	 "Tm": 345.15, 
	 "num_atms": 27, 
	 "gaussian": { 
		 "optdone": 1, 
		 "sigma_profile": "yes", 
		 "theory": "DFT", 
		 "functional": "B3LYP", 
		 "basiset": "6-31G**", 
		 "properties": { 
			 "R2extent": 2921.2775, 
			 "electric_dipole_moment_norm": 1.86653032657, 
			 "electric_quadrupole_moment_norm": 8.89288280031, 
			 "total_energy": -557.230255266, 
			 "HOMO_LUMO_gap": 0.1891, 
			 "cosmo_polarized_energy": -8.62, 
			 "cosmo_cavitation_energy": 28.19, 
			 "cosmo_dispersion_energy": -21.15, 
			 "cosmo_repulsion_energy": 1.73, 
			 "cosmo_total_nonelectrostatic_energy": 8.77, 
			 "SMD_solvation_energy": 5.03 
		},
		"coords": [
			{
				"x": -2.6944836363,
				"y": -2.5004512647,
				"z": 0.6076418362,
				"element": "C" 
			},
			{
				"x": -2.1533808061,
				"y": -2.4912125187,
				"z": -0.8155560057,
				"element": "C" 
			},
			{
				"x": -0.7902492697,
				"y": -2.0256901636,
				"z": -0.8614706937,
				"element": "O" 
			},
			{
				"x": -0.6052688694,
				"y": -0.6760085338,
				"z": -0.9085338029,
				"element": "C" 
			},
			{
				"x": -1.5680764858,
				"y": 0.0995185636,
				"z": -0.9236295226,
				"element": "O" 
			},
			{
				"x": 0.8027967766,
				"y": -0.3108451876,
				"z": -0.9501928555,
				"element": "C" 
			},
			{
				"x": 1.1479431754,
				"y": 1.0197422079,
				"z": -1.0640847127,
				"element": "C" 
			},
			{
				"x": 0.2442329194,
				"y": 2.0328513862,
				"z": -1.0541806274,
				"element": "N" 
			},
			{
				"x": 2.5938053629,
				"y": 1.4663654369,
				"z": -1.1578235148,
				"element": "C" 
			},
			{
				"x": 3.5653437397,
				"y": 0.3329078786,
				"z": -1.4990510373,
				"element": "C" 
			},
			{
				"x": 3.2630914594,
				"y": -0.8902600239,
				"z": -0.630732041,
				"element": "C" 
			},
			{
				"x": 1.8490928279,
				"y": -1.4132031579,
				"z": -0.9093709598,
				"element": "C" 
			},
			{
				"x": -2.7504651291,
				"y": -1.4822282606,
				"z": 0.9996449642,
				"element": "H" 
			},
			{
				"x": -3.7012217456,
				"y": -2.9321983996,
				"z": 0.6231263217,
				"element": "H" 
			},
			{
				"x": -2.0542293958,
				"y": -3.0983402022,
				"z": 1.263429901,
				"element": "H" 
			},
			{
				"x": -2.7692353648,
				"y": -1.8610184667,
				"z": -1.4618181999,
				"element": "H" 
			},
			{
				"x": -2.1107705199,
				"y": -3.5022842184,
				"z": -1.2298174492,
				"element": "H" 
			},
			{
				"x": -0.73824946,
				"y": 1.7735208346,
				"z": -1.0494326447,
				"element": "H" 
			},
			{
				"x": 0.533162234,
				"y": 2.9617665982,
				"z": -1.3116370652,
				"element": "H" 
			},
			{
				"x": 2.869780232,
				"y": 1.9167914382,
				"z": -0.1934663622,
				"element": "H" 
			},
			{
				"x": 2.6650409621,
				"y": 2.2733489417,
				"z": -1.8996476677,
				"element": "H" 
			},
			{
				"x": 3.4614815943,
				"y": 0.0637855213,
				"z": -2.5583336409,
				"element": "H" 
			},
			{
				"x": 4.5962651976,
				"y": 0.6767312095,
				"z": -1.3584295335,
				"element": "H" 
			},
			{
				"x": 3.9963969213,
				"y": -1.6845658798,
				"z": -0.8105876103,
				"element": "H" 
			},
			{
				"x": 3.3530753669,
				"y": -0.6096891581,
				"z": 0.4277243845,
				"element": "H" 
			},
			{
				"x": 1.5705064908,
				"y": -2.1510160338,
				"z": -0.1499149,
				"element": "H" 
			},
			{
				"x": 1.8487154221,
				"y": -1.9650185473,
				"z": -1.8614565607,
				"element": "H" 
			}
		],
		 "valence_orbital": [ 
			{
				"type": "occ",
				"energy": -0.31823,
				"method": "rhf"
			},
			{
				"type": "occ",
				"energy": -0.31192,
				"method": "rhf"
			},
			{
				"type": "occ",
				"energy": -0.27702,
				"method": "rhf"
			},
			{
				"type": "occ",
				"energy": -0.25126,
				"method": "rhf"
			},
			{
				"type": "occ",
				"energy": -0.1958,
				"method": "rhf"
			},
			{
				"type": "unocc",
				"energy": -0.0067,
				"method": "rhf"
			},
			{
				"type": "unocc",
				"energy": 0.08624,
				"method": "rhf"
			},
			{
				"type": "unocc",
				"energy": 0.09421,
				"method": "rhf"
			},
			{
				"type": "unocc",
				"energy": 0.11156,
				"method": "rhf"
			},
			{
				"type": "unocc",
				"energy": 0.11965,
				"method": "rhf"
			}
		],
		"cosmo_sigma_profile": { 
			"-0.025": 0.0,
			"-0.024": 0.0,
			"-0.023": 0.0,
			"-0.022": 0.0,
			"-0.021": 0.0,
			"-0.02": 0.0,
			"-0.019": 0.0,
			"-0.018": 0.0,
			"-0.017": 0.0,
			"-0.016": 0.0,
			"-0.015": 0.0,
			"-0.014": 0.145361118408,
			"-0.013": 1.14443117489,
			"-0.012": 1.02786557959,
			"-0.011": 1.17589183214,
			"-0.01": 1.5196910498,
			"-0.009": 1.17545360543,
			"-0.008": 1.95362822309,
			"-0.007": 2.2344290028,
			"-0.006": 2.86909490898,
			"-0.005": 5.01574841614,
			"-0.004": 11.6563941194,
			"-0.003": 21.328297886,
			"-0.002": 30.6455480559,
			"-0.001": 29.543502161,
			"0.0": 27.192462771,
			"0.001": 20.6632280044,
			"0.002": 10.8183294172,
			"0.003": 8.61719814519,
			"0.004": 8.76833935627,
			"0.005": 8.61109187889,
			"0.006": 5.51908522314,
			"0.007": 3.82737486988,
			"0.008": 4.41057460891,
			"0.009": 2.71208791065,
			"0.01": 1.29156368479,
			"0.011": 2.03612762781,
			"0.012": 1.68225269922,
			"0.013": 1.50701456794,
			"0.014": 0.202592560315,
			"0.015": 0.0,
			"0.016": 0.0,
			"0.017": 0.0,
			"0.018": 0.0,
			"0.019": 0.0,
			"0.02": 0.0,
			"0.021": 0.0,
			"0.022": 0.0,
			"0.023": 0.0,
			"0.024": 0.0,
			"0.025": 0.0
		}
	}
}
