{
	 "smiles": "NC1=NC2=C(S1)C=C(OC1=CC=CC=C1)C=C2", 
	 "Tm": 433.15, 
	 "num_atms": 27, 
	 "gaussian": { 
		 "optdone": 1, 
		 "sigma_profile": "yes", 
		 "theory": "DFT", 
		 "functional": "B3LYP", 
		 "basiset": "6-31G**", 
		 "properties": { 
			 "R2extent": 6581.0468, 
			 "electric_dipole_moment_norm": 2.90093241217, 
			 "electric_quadrupole_moment_norm": 21.9286216532, 
			 "total_energy": -1084.3267222, 
			 "HOMO_LUMO_gap": 0.1871, 
			 "cosmo_polarized_energy": -12.95, 
			 "cosmo_cavitation_energy": 33.42, 
			 "cosmo_dispersion_energy": -25.0, 
			 "cosmo_repulsion_energy": 1.89, 
			 "cosmo_total_nonelectrostatic_energy": 10.32, 
			 "SMD_solvation_energy": 3.58 
		},
		"coords": [
			{
				"x": 6.6282075756,
				"y": -0.8071189699,
				"z": 0.0417800353,
				"element": "N" 
			},
			{
				"x": 5.3159811635,
				"y": -0.4222702181,
				"z": 0.1470921576,
				"element": "C" 
			},
			{
				"x": 4.8939652669,
				"y": 0.787096803,
				"z": -0.0346397728,
				"element": "N" 
			},
			{
				"x": 3.5323854176,
				"y": 0.8769222133,
				"z": 0.2185167065,
				"element": "C" 
			},
			{
				"x": 2.8925893812,
				"y": -0.3300279887,
				"z": 0.596450006,
				"element": "C" 
			},
			{
				"x": 4.0873875756,
				"y": -1.6244689851,
				"z": 0.6553767283,
				"element": "S" 
			},
			{
				"x": 1.5300048628,
				"y": -0.3951206233,
				"z": 0.8727110419,
				"element": "C" 
			},
			{
				"x": 0.7907331969,
				"y": 0.7851127957,
				"z": 0.7542091641,
				"element": "C" 
			},
			{
				"x": -0.5517219327,
				"y": 0.8342128645,
				"z": 1.0873421079,
				"element": "O" 
			},
			{
				"x": -1.4362668229,
				"y": -0.0999395429,
				"z": 0.5866290925,
				"element": "C" 
			},
			{
				"x": -2.5582315053,
				"y": -0.3711231402,
				"z": 1.3749746546,
				"element": "C" 
			},
			{
				"x": -3.5302771626,
				"y": -1.2543814546,
				"z": 0.908389263,
				"element": "C" 
			},
			{
				"x": -3.3866486163,
				"y": -1.8732003774,
				"z": -0.3359741497,
				"element": "C" 
			},
			{
				"x": -2.262528767,
				"y": -1.5933916953,
				"z": -1.1149823118,
				"element": "C" 
			},
			{
				"x": -1.2838111434,
				"y": -0.7057750119,
				"z": -0.6645531582,
				"element": "C" 
			},
			{
				"x": 1.3986435501,
				"y": 1.9918157674,
				"z": 0.3832037323,
				"element": "C" 
			},
			{
				"x": 2.7642294279,
				"y": 2.0431907915,
				"z": 0.1201438016,
				"element": "C" 
			},
			{
				"x": 7.2143614129,
				"y": -0.1215005144,
				"z": -0.4158409283,
				"element": "H" 
			},
			{
				"x": 6.814542501,
				"y": -1.7637389888,
				"z": -0.22130879,
				"element": "H" 
			},
			{
				"x": 1.0463579285,
				"y": -1.3176941383,
				"z": 1.1731177437,
				"element": "H" 
			},
			{
				"x": -2.6499766776,
				"y": 0.1183598693,
				"z": 2.3389806309,
				"element": "H" 
			},
			{
				"x": -4.4009281089,
				"y": -1.4625953201,
				"z": 1.5237433335,
				"element": "H" 
			},
			{
				"x": -4.1431350974,
				"y": -2.5642250634,
				"z": -0.6948701892,
				"element": "H" 
			},
			{
				"x": -2.1441437332,
				"y": -2.0626940444,
				"z": -2.0876443943,
				"element": "H" 
			},
			{
				"x": -0.4161241574,
				"y": -0.48187195,
				"z": -1.2750419433,
				"element": "H" 
			},
			{
				"x": 0.7808299368,
				"y": 2.8805631621,
				"z": 0.3134826092,
				"element": "H" 
			},
			{
				"x": 3.2446745271,
				"y": 2.9727637598,
				"z": -0.1659871713,
				"element": "H" 
			}
		],
		 "valence_orbital": [ 
			{
				"type": "occ",
				"energy": -0.27677,
				"method": "rhf"
			},
			{
				"type": "occ",
				"energy": -0.25129,
				"method": "rhf"
			},
			{
				"type": "occ",
				"energy": -0.23681,
				"method": "rhf"
			},
			{
				"type": "occ",
				"energy": -0.22888,
				"method": "rhf"
			},
			{
				"type": "occ",
				"energy": -0.20252,
				"method": "rhf"
			},
			{
				"type": "unocc",
				"energy": -0.01542,
				"method": "rhf"
			},
			{
				"type": "unocc",
				"energy": -0.00877,
				"method": "rhf"
			},
			{
				"type": "unocc",
				"energy": -0.00037,
				"method": "rhf"
			},
			{
				"type": "unocc",
				"energy": 0.00294,
				"method": "rhf"
			},
			{
				"type": "unocc",
				"energy": 0.01076,
				"method": "rhf"
			}
		],
		"cosmo_sigma_profile": { 
			"-0.025": 0.0,
			"-0.024": 0.0,
			"-0.023": 0.0,
			"-0.022": 0.0,
			"-0.021": 0.0,
			"-0.02": 0.0,
			"-0.019": 0.0,
			"-0.018": 0.0,
			"-0.017": 0.0,
			"-0.016": 0.0151558284932,
			"-0.015": 0.934639288909,
			"-0.014": 2.36721224961,
			"-0.013": 2.68310477363,
			"-0.012": 3.11980919276,
			"-0.011": 2.46960351155,
			"-0.01": 1.69413520548,
			"-0.009": 1.7703317483,
			"-0.008": 2.84878232007,
			"-0.007": 4.96881247757,
			"-0.006": 12.9026793067,
			"-0.005": 14.4848586502,
			"-0.004": 18.2359686454,
			"-0.003": 17.671066972,
			"-0.002": 13.1933312646,
			"-0.001": 14.4666533563,
			"0.0": 17.8013199322,
			"0.001": 19.7294506956,
			"0.002": 21.6448125448,
			"0.003": 28.9029851753,
			"0.004": 26.4768490393,
			"0.005": 17.8768319451,
			"0.006": 8.36308279908,
			"0.007": 3.34873960319,
			"0.008": 2.92314004155,
			"0.009": 3.26404063286,
			"0.01": 2.03372338789,
			"0.011": 1.33084822039,
			"0.012": 0.694258047697,
			"0.013": 0.884852436886,
			"0.014": 1.07034552246,
			"0.015": 0.468572421804,
			"0.016": 0.0843134374861,
			"0.017": 0.0,
			"0.018": 0.0,
			"0.019": 0.0,
			"0.02": 0.0,
			"0.021": 0.0,
			"0.022": 0.0,
			"0.023": 0.0,
			"0.024": 0.0,
			"0.025": 0.0
		}
	}
}
