{
	 "smiles": "CC1=C2C=NNC2=CC(N)=C1", 
	 "Tm": 453.15, 
	 "num_atms": 20, 
	 "gaussian": { 
		 "optdone": 1, 
		 "sigma_profile": "yes", 
		 "theory": "DFT", 
		 "functional": "B3LYP", 
		 "basiset": "6-31G**", 
		 "properties": { 
			 "R2extent": 2678.4255, 
			 "electric_dipole_moment_norm": 3.23316557726, 
			 "electric_quadrupole_moment_norm": 14.3453731656, 
			 "total_energy": -474.524533986, 
			 "HOMO_LUMO_gap": 0.17992, 
			 "cosmo_polarized_energy": -13.69, 
			 "cosmo_cavitation_energy": 23.55, 
			 "cosmo_dispersion_energy": -17.7, 
			 "cosmo_repulsion_energy": 1.42, 
			 "cosmo_total_nonelectrostatic_energy": 7.27, 
			 "SMD_solvation_energy": 3.0 
		},
		"coords": [
			{
				"x": 1.0527496375,
				"y": 2.0342087432,
				"z": 0.5482515281,
				"element": "C" 
			},
			{
				"x": 0.3369707525,
				"y": 0.8072455408,
				"z": 1.05230215,
				"element": "C" 
			},
			{
				"x": -0.5616907711,
				"y": 0.8870904032,
				"z": 2.1423810883,
				"element": "C" 
			},
			{
				"x": -1.0434659032,
				"y": 1.9198210571,
				"z": 3.0039061552,
				"element": "C" 
			},
			{
				"x": -1.9033630167,
				"y": 1.4577506699,
				"z": 3.8944332493,
				"element": "N" 
			},
			{
				"x": -2.0050329999,
				"y": 0.1201080754,
				"z": 3.6366953638,
				"element": "N" 
			},
			{
				"x": -1.2195361506,
				"y": -0.2833069017,
				"z": 2.5939753219,
				"element": "C" 
			},
			{
				"x": -1.028881113,
				"y": -1.5421010905,
				"z": 2.0045887694,
				"element": "C" 
			},
			{
				"x": -0.1401097806,
				"y": -1.6096658541,
				"z": 0.9335380108,
				"element": "C" 
			},
			{
				"x": 0.1587012521,
				"y": -2.8319453956,
				"z": 0.3251295067,
				"element": "N" 
			},
			{
				"x": 0.5278891347,
				"y": -0.4361260024,
				"z": 0.4746752866,
				"element": "C" 
			},
			{
				"x": 1.6683724069,
				"y": 2.4842550922,
				"z": 1.3360109492,
				"element": "H" 
			},
			{
				"x": 1.7056313116,
				"y": 1.7979306744,
				"z": -0.2961130605,
				"element": "H" 
			},
			{
				"x": 0.3412651047,
				"y": 2.8019711241,
				"z": 0.2217639033,
				"element": "H" 
			},
			{
				"x": -0.7928602087,
				"y": 2.9724791312,
				"z": 3.0027434205,
				"element": "H" 
			},
			{
				"x": -2.6120675868,
				"y": -0.4391155113,
				"z": 4.2129865371,
				"element": "H" 
			},
			{
				"x": -1.5418101282,
				"y": -2.4291840628,
				"z": 2.3650235783,
				"element": "H" 
			},
			{
				"x": 0.4712031724,
				"y": -2.7653135203,
				"z": -0.6337713569,
				"element": "H" 
			},
			{
				"x": -0.5423944412,
				"y": -3.5509123584,
				"z": 0.4404482671,
				"element": "H" 
			},
			{
				"x": 1.2199293277,
				"y": -0.5338898145,
				"z": -0.3589686684,
				"element": "H" 
			}
		],
		 "valence_orbital": [ 
			{
				"type": "occ",
				"energy": -0.288,
				"method": "rhf"
			},
			{
				"type": "occ",
				"energy": -0.27868,
				"method": "rhf"
			},
			{
				"type": "occ",
				"energy": -0.27133,
				"method": "rhf"
			},
			{
				"type": "occ",
				"energy": -0.21517,
				"method": "rhf"
			},
			{
				"type": "occ",
				"energy": -0.1921,
				"method": "rhf"
			},
			{
				"type": "unocc",
				"energy": -0.01218,
				"method": "rhf"
			},
			{
				"type": "unocc",
				"energy": 0.03362,
				"method": "rhf"
			},
			{
				"type": "unocc",
				"energy": 0.07071,
				"method": "rhf"
			},
			{
				"type": "unocc",
				"energy": 0.08386,
				"method": "rhf"
			},
			{
				"type": "unocc",
				"energy": 0.09167,
				"method": "rhf"
			}
		],
		"cosmo_sigma_profile": { 
			"-0.025": 0.0,
			"-0.024": 0.0,
			"-0.023": 0.0,
			"-0.022": 0.0,
			"-0.021": 0.0,
			"-0.02": 0.0,
			"-0.019": 0.0,
			"-0.018": 0.0,
			"-0.017": 0.0,
			"-0.016": 0.397317989103,
			"-0.015": 1.46471869459,
			"-0.014": 1.37395285141,
			"-0.013": 1.47663965464,
			"-0.012": 3.23564621181,
			"-0.011": 3.19010700599,
			"-0.01": 4.00131388067,
			"-0.009": 4.6422451051,
			"-0.008": 4.06606461819,
			"-0.007": 4.14927582941,
			"-0.006": 7.08487214411,
			"-0.005": 7.41919460394,
			"-0.004": 12.5398838065,
			"-0.003": 11.6662544818,
			"-0.002": 12.0163182667,
			"-0.001": 11.0558142457,
			"0.0": 11.6741755837,
			"0.001": 8.50989225329,
			"0.002": 6.62023891093,
			"0.003": 7.85197262208,
			"0.004": 12.0242718486,
			"0.005": 14.8086330394,
			"0.006": 14.1040733379,
			"0.007": 3.92513011773,
			"0.008": 2.7605969503,
			"0.009": 2.40070387605,
			"0.01": 2.05429717088,
			"0.011": 2.09600022234,
			"0.012": 1.56568874383,
			"0.013": 2.15339915926,
			"0.014": 1.96028574978,
			"0.015": 1.36240474356,
			"0.016": 0.945007681563,
			"0.017": 0.172884639063,
			"0.018": 0.0,
			"0.019": 0.0,
			"0.02": 0.0,
			"0.021": 0.0,
			"0.022": 0.0,
			"0.023": 0.0,
			"0.024": 0.0,
			"0.025": 0.0
		}
	}
}
