{
	 "smiles": "ClC1=NC=C(S1)C1=CC=CC=C1", 
	 "Tm": 314.15, 
	 "num_atms": 18, 
	 "gaussian": { 
		 "optdone": 1, 
		 "sigma_profile": "yes", 
		 "theory": "DFT", 
		 "functional": "B3LYP", 
		 "basiset": "6-31G**", 
		 "properties": { 
			 "R2extent": 4426.983, 
			 "electric_dipole_moment_norm": 3.1784054713, 
			 "electric_quadrupole_moment_norm": 8.33507072975, 
			 "total_energy": -1259.69194445, 
			 "HOMO_LUMO_gap": 0.17372, 
			 "cosmo_polarized_energy": -6.03, 
			 "cosmo_cavitation_energy": 25.99, 
			 "cosmo_dispersion_energy": -19.97, 
			 "cosmo_repulsion_energy": 1.53, 
			 "cosmo_total_nonelectrostatic_energy": 7.55, 
			 "SMD_solvation_energy": 2.17 
		},
		"coords": [
			{
				"x": 4.3360957929,
				"y": 3.1061973804,
				"z": 1.5614462298,
				"element": "Cl" 
			},
			{
				"x": 3.2507791559,
				"y": 2.0245233288,
				"z": 0.7554273023,
				"element": "C" 
			},
			{
				"x": 3.5526491606,
				"y": 0.8107513359,
				"z": 0.4342229504,
				"element": "N" 
			},
			{
				"x": 2.4835322261,
				"y": 0.2073524151,
				"z": -0.1858416696,
				"element": "C" 
			},
			{
				"x": 1.3456332822,
				"y": 0.9588986845,
				"z": -0.3487513591,
				"element": "C" 
			},
			{
				"x": 1.6368545769,
				"y": 2.5535982088,
				"z": 0.3282574383,
				"element": "S" 
			},
			{
				"x": 0.0719339353,
				"y": 0.5798988044,
				"z": -0.9711676934,
				"element": "C" 
			},
			{
				"x": 0.0495295964,
				"y": -0.3863758253,
				"z": -1.9937883151,
				"element": "C" 
			},
			{
				"x": -1.1542015,
				"y": -0.7749762735,
				"z": -2.5767551974,
				"element": "C" 
			},
			{
				"x": -2.3568660337,
				"y": -0.1968071242,
				"z": -2.1641636448,
				"element": "C" 
			},
			{
				"x": -2.3459932719,
				"y": 0.7720437068,
				"z": -1.1590379909,
				"element": "C" 
			},
			{
				"x": -1.1451759953,
				"y": 1.1544792573,
				"z": -0.5646916048,
				"element": "C" 
			},
			{
				"x": 2.5783237634,
				"y": -0.8281591414,
				"z": -0.4900887051,
				"element": "H" 
			},
			{
				"x": 0.9827174315,
				"y": -0.8158482654,
				"z": -2.3446304497,
				"element": "H" 
			},
			{
				"x": -1.150926212,
				"y": -1.521756008,
				"z": -3.3653810486,
				"element": "H" 
			},
			{
				"x": -3.2934772016,
				"y": -0.4956829703,
				"z": -2.6251868359,
				"element": "H" 
			},
			{
				"x": -3.275663893,
				"y": 1.2267267273,
				"z": -0.8297380512,
				"element": "H" 
			},
			{
				"x": -1.1526448138,
				"y": 1.8906357589,
				"z": 0.2342686449,
				"element": "H" 
			}
		],
		 "valence_orbital": [ 
			{
				"type": "occ",
				"energy": -0.30239,
				"method": "rhf"
			},
			{
				"type": "occ",
				"energy": -0.29238,
				"method": "rhf"
			},
			{
				"type": "occ",
				"energy": -0.27786,
				"method": "rhf"
			},
			{
				"type": "occ",
				"energy": -0.26401,
				"method": "rhf"
			},
			{
				"type": "occ",
				"energy": -0.22913,
				"method": "rhf"
			},
			{
				"type": "unocc",
				"energy": -0.05541,
				"method": "rhf"
			},
			{
				"type": "unocc",
				"energy": -0.01788,
				"method": "rhf"
			},
			{
				"type": "unocc",
				"energy": -0.00601,
				"method": "rhf"
			},
			{
				"type": "unocc",
				"energy": -0.00033,
				"method": "rhf"
			},
			{
				"type": "unocc",
				"energy": 0.02776,
				"method": "rhf"
			}
		],
		"cosmo_sigma_profile": { 
			"-0.025": 0.0,
			"-0.024": 0.0,
			"-0.023": 0.0,
			"-0.022": 0.0,
			"-0.021": 0.0,
			"-0.02": 0.0,
			"-0.019": 0.0,
			"-0.018": 0.0,
			"-0.017": 0.0,
			"-0.016": 0.0,
			"-0.015": 0.0,
			"-0.014": 0.0,
			"-0.013": 0.0,
			"-0.012": 0.0,
			"-0.011": 0.0,
			"-0.01": 0.0,
			"-0.009": 0.181674779591,
			"-0.008": 1.66816487289,
			"-0.007": 4.28747238123,
			"-0.006": 11.0090708162,
			"-0.005": 13.193856064,
			"-0.004": 14.4489348717,
			"-0.003": 13.6951596591,
			"-0.002": 17.1068747129,
			"-0.001": 18.5132115512,
			"0.0": 21.3002392885,
			"0.001": 22.1642296974,
			"0.002": 24.4462181542,
			"0.003": 18.780564397,
			"0.004": 13.7896954028,
			"0.005": 10.0574513206,
			"0.006": 1.79311760268,
			"0.007": 1.29337387538,
			"0.008": 1.15180656282,
			"0.009": 1.24105845532,
			"0.01": 0.690034635761,
			"0.011": 1.32449815156,
			"0.012": 1.10977369684,
			"0.013": 0.793444453729,
			"0.014": 0.459289172667,
			"0.015": 0.0,
			"0.016": 0.0,
			"0.017": 0.0,
			"0.018": 0.0,
			"0.019": 0.0,
			"0.02": 0.0,
			"0.021": 0.0,
			"0.022": 0.0,
			"0.023": 0.0,
			"0.024": 0.0,
			"0.025": 0.0
		}
	}
}
