{
	 "smiles": "OC(=O)C1=CC(=O)C(OCC2=CC=CC=C2)=CO1", 
	 "Tm": 453.15, 
	 "num_atms": 28, 
	 "gaussian": { 
		 "optdone": 1, 
		 "sigma_profile": "yes", 
		 "theory": "DFT", 
		 "functional": "B3LYP", 
		 "basiset": "6-31G**", 
		 "properties": { 
			 "R2extent": 6138.0882, 
			 "electric_dipole_moment_norm": 4.85735986931, 
			 "electric_quadrupole_moment_norm": 23.5300116887, 
			 "total_energy": -877.488612807, 
			 "HOMO_LUMO_gap": 0.16032, 
			 "cosmo_polarized_energy": -17.32, 
			 "cosmo_cavitation_energy": 33.62, 
			 "cosmo_dispersion_energy": -23.76, 
			 "cosmo_repulsion_energy": 1.84, 
			 "cosmo_total_nonelectrostatic_energy": 11.7, 
			 "SMD_solvation_energy": 8.65 
		},
		"coords": [
			{
				"x": -4.0935913215,
				"y": -2.4787225656,
				"z": -3.1582173674,
				"element": "O" 
			},
			{
				"x": -3.9904035742,
				"y": -1.6454184337,
				"z": -2.1042814463,
				"element": "C" 
			},
			{
				"x": -4.8363379762,
				"y": -0.826654182,
				"z": -1.8425944149,
				"element": "O" 
			},
			{
				"x": -2.7490782566,
				"y": -1.8019300185,
				"z": -1.2747576117,
				"element": "C" 
			},
			{
				"x": -2.4711552808,
				"y": -1.0551004596,
				"z": -0.1852046253,
				"element": "C" 
			},
			{
				"x": -1.2583228629,
				"y": -1.2621869167,
				"z": 0.607029718,
				"element": "C" 
			},
			{
				"x": -1.0075636845,
				"y": -0.6169337407,
				"z": 1.626944635,
				"element": "O" 
			},
			{
				"x": -0.3816622206,
				"y": -2.3248207072,
				"z": 0.0646953026,
				"element": "C" 
			},
			{
				"x": 0.7496169247,
				"y": -2.7419146612,
				"z": 0.6803514971,
				"element": "O" 
			},
			{
				"x": 1.6708793512,
				"y": -1.7450603925,
				"z": 1.2242939403,
				"element": "C" 
			},
			{
				"x": 2.2572956428,
				"y": -0.8586022049,
				"z": 0.1548287418,
				"element": "C" 
			},
			{
				"x": 1.8573159919,
				"y": 0.4786303415,
				"z": 0.0418686928,
				"element": "C" 
			},
			{
				"x": 2.3928026739,
				"y": 1.2955745482,
				"z": -0.9566677706,
				"element": "C" 
			},
			{
				"x": 3.3270428352,
				"y": 0.7798960002,
				"z": -1.8556814359,
				"element": "C" 
			},
			{
				"x": 3.7275500679,
				"y": -0.5556731994,
				"z": -1.7539844208,
				"element": "C" 
			},
			{
				"x": 3.1956864157,
				"y": -1.3681531064,
				"z": -0.754145086,
				"element": "C" 
			},
			{
				"x": -0.7463202173,
				"y": -2.9963573476,
				"z": -1.057685922,
				"element": "C" 
			},
			{
				"x": -1.9145273681,
				"y": -2.7764742403,
				"z": -1.7249905465,
				"element": "O" 
			},
			{
				"x": -3.3158007611,
				"y": -3.0580297086,
				"z": -3.1973817885,
				"element": "H" 
			},
			{
				"x": -3.1810478704,
				"y": -0.2994117909,
				"z": 0.128072438,
				"element": "H" 
			},
			{
				"x": 1.1548619693,
				"y": -1.1637329696,
				"z": 1.9868544919,
				"element": "H" 
			},
			{
				"x": 2.4408315095,
				"y": -2.3655059237,
				"z": 1.6884932766,
				"element": "H" 
			},
			{
				"x": 1.1222196564,
				"y": 0.8732611828,
				"z": 0.7377699757,
				"element": "H" 
			},
			{
				"x": 2.0793805658,
				"y": 2.3329197768,
				"z": -1.0317473001,
				"element": "H" 
			},
			{
				"x": 3.744866611,
				"y": 1.4150627876,
				"z": -2.6316189518,
				"element": "H" 
			},
			{
				"x": 4.4578658091,
				"y": -0.9591398829,
				"z": -2.4497445651,
				"element": "H" 
			},
			{
				"x": 3.5104878168,
				"y": -2.4057113368,
				"z": -0.6717725609,
				"element": "H" 
			},
			{
				"x": -0.1551924472,
				"y": -3.7860108484,
				"z": -1.5013268961,
				"element": "H" 
			}
		],
		 "valence_orbital": [ 
			{
				"type": "occ",
				"energy": -0.29271,
				"method": "rhf"
			},
			{
				"type": "occ",
				"energy": -0.26099,
				"method": "rhf"
			},
			{
				"type": "occ",
				"energy": -0.25798,
				"method": "rhf"
			},
			{
				"type": "occ",
				"energy": -0.25577,
				"method": "rhf"
			},
			{
				"type": "occ",
				"energy": -0.24516,
				"method": "rhf"
			},
			{
				"type": "unocc",
				"energy": -0.08484,
				"method": "rhf"
			},
			{
				"type": "unocc",
				"energy": -0.04228,
				"method": "rhf"
			},
			{
				"type": "unocc",
				"energy": -0.0186,
				"method": "rhf"
			},
			{
				"type": "unocc",
				"energy": -0.00774,
				"method": "rhf"
			},
			{
				"type": "unocc",
				"energy": 0.04557,
				"method": "rhf"
			}
		],
		"cosmo_sigma_profile": { 
			"-0.025": 0.0,
			"-0.024": 0.0,
			"-0.023": 0.0,
			"-0.022": 0.0,
			"-0.021": 0.0,
			"-0.02": 0.0,
			"-0.019": 0.0,
			"-0.018": 0.121277511258,
			"-0.017": 0.835031360274,
			"-0.016": 0.613877862773,
			"-0.015": 0.42610087631,
			"-0.014": 0.575182346992,
			"-0.013": 1.09075629414,
			"-0.012": 1.50783872332,
			"-0.011": 2.02064691703,
			"-0.01": 2.69225227357,
			"-0.009": 3.60302000087,
			"-0.008": 4.99354572046,
			"-0.007": 4.35240809084,
			"-0.006": 12.6696543732,
			"-0.005": 20.8318558994,
			"-0.004": 21.0230719537,
			"-0.003": 25.1746313517,
			"-0.002": 19.947074562,
			"-0.001": 17.596518962,
			"0.0": 14.8697886943,
			"0.001": 13.4392836213,
			"0.002": 13.5341057879,
			"0.003": 14.4008286045,
			"0.004": 13.2137813175,
			"0.005": 14.1176472166,
			"0.006": 8.50193253844,
			"0.007": 5.48874316479,
			"0.008": 5.92066256332,
			"0.009": 7.56422564254,
			"0.01": 7.27021345991,
			"0.011": 5.45874592175,
			"0.012": 3.83790108045,
			"0.013": 1.78386249781,
			"0.014": 0.595138762967,
			"0.015": 0.0,
			"0.016": 0.0,
			"0.017": 0.0,
			"0.018": 0.0,
			"0.019": 0.0,
			"0.02": 0.0,
			"0.021": 0.0,
			"0.022": 0.0,
			"0.023": 0.0,
			"0.024": 0.0,
			"0.025": 0.0
		}
	}
}
