{
	 "smiles": "CCCCCCCCCCCCSC1=NC2=C(C(=CS2)C2=CC=CC=C2)C(=O)N1CC=C", 
	 "Tm": 358.15, 
	 "num_atms": 68, 
	 "gaussian": { 
		 "optdone": 1, 
		 "sigma_profile": "yes", 
		 "theory": "DFT", 
		 "functional": "B3LYP", 
		 "basiset": "6-31G**", 
		 "properties": { 
			 "R2extent": 22996.4914, 
			 "electric_dipole_moment_norm": 2.41763381222, 
			 "electric_quadrupole_moment_norm": 13.8751551581, 
			 "total_energy": -2031.70181518, 
			 "HOMO_LUMO_gap": 0.16594, 
			 "cosmo_polarized_energy": -11.8, 
			 "cosmo_cavitation_energy": 71.62, 
			 "cosmo_dispersion_energy": -47.06, 
			 "cosmo_repulsion_energy": 3.63, 
			 "cosmo_total_nonelectrostatic_energy": 28.18, 
			 "SMD_solvation_energy": 9.88 
		},
		"coords": [
			{
				"x": -0.2348396607,
				"y": 1.7978240014,
				"z": 6.2488530992,
				"element": "C" 
			},
			{
				"x": 0.9804537123,
				"y": 1.43310905,
				"z": 5.3897761933,
				"element": "C" 
			},
			{
				"x": 0.952037867,
				"y": 2.0926060942,
				"z": 4.0034665018,
				"element": "C" 
			},
			{
				"x": 2.1140946421,
				"y": 1.6983624151,
				"z": 3.0758607844,
				"element": "C" 
			},
			{
				"x": 3.4932990339,
				"y": 2.1769144941,
				"z": 3.5546106492,
				"element": "C" 
			},
			{
				"x": 4.655787247,
				"y": 1.9850495806,
				"z": 2.5630132918,
				"element": "C" 
			},
			{
				"x": 5.0331050513,
				"y": 0.5247093434,
				"z": 2.2282984553,
				"element": "C" 
			},
			{
				"x": 4.3160319695,
				"y": -0.077950408,
				"z": 1.0096536638,
				"element": "C" 
			},
			{
				"x": 4.7477192049,
				"y": -1.522941262,
				"z": 0.7218429284,
				"element": "C" 
			},
			{
				"x": 4.1424924243,
				"y": -2.1358255294,
				"z": -0.5522788685,
				"element": "C" 
			},
			{
				"x": 2.617900444,
				"y": -2.3234349294,
				"z": -0.4999085739,
				"element": "C" 
			},
			{
				"x": 2.0955970621,
				"y": -3.0181269483,
				"z": -1.7585837834,
				"element": "C" 
			},
			{
				"x": 0.2853107815,
				"y": -3.3344108082,
				"z": -1.7535342623,
				"element": "S" 
			},
			{
				"x": -0.3422958062,
				"y": -1.7550773483,
				"z": -2.2897143524,
				"element": "C" 
			},
			{
				"x": 0.4987025152,
				"y": -0.7876661315,
				"z": -2.5373497087,
				"element": "N" 
			},
			{
				"x": -0.0436991816,
				"y": 0.382165272,
				"z": -2.9511913108,
				"element": "C" 
			},
			{
				"x": -1.3964760522,
				"y": 0.6561174772,
				"z": -3.1387031004,
				"element": "C" 
			},
			{
				"x": -1.6449873944,
				"y": 2.022903779,
				"z": -3.5530222148,
				"element": "C" 
			},
			{
				"x": -0.4661068407,
				"y": 2.7142338998,
				"z": -3.6652096721,
				"element": "C" 
			},
			{
				"x": 0.9519542054,
				"y": 1.7769863199,
				"z": -3.2822549557,
				"element": "S" 
			},
			{
				"x": -2.9480044835,
				"y": 2.6688147827,
				"z": -3.8461922554,
				"element": "C" 
			},
			{
				"x": -3.9314000022,
				"y": 2.0399643609,
				"z": -4.6268401022,
				"element": "C" 
			},
			{
				"x": -5.1148777555,
				"y": 2.7035712066,
				"z": -4.9437781877,
				"element": "C" 
			},
			{
				"x": -5.342244675,
				"y": 4.0039501798,
				"z": -4.4876748053,
				"element": "C" 
			},
			{
				"x": -4.3754726701,
				"y": 4.6373919296,
				"z": -3.705960864,
				"element": "C" 
			},
			{
				"x": -3.190364675,
				"y": 3.9749126422,
				"z": -3.3877645244,
				"element": "C" 
			},
			{
				"x": -2.3345019525,
				"y": -0.4048438799,
				"z": -2.8326438356,
				"element": "C" 
			},
			{
				"x": -3.5582342433,
				"y": -0.3585774613,
				"z": -2.8855240604,
				"element": "O" 
			},
			{
				"x": -1.7055079279,
				"y": -1.6324290059,
				"z": -2.4277972701,
				"element": "N" 
			},
			{
				"x": -2.6398699512,
				"y": -2.7459015323,
				"z": -2.1351958395,
				"element": "C" 
			},
			{
				"x": -3.1560957369,
				"y": -2.711758347,
				"z": -0.7212073998,
				"element": "C" 
			},
			{
				"x": -3.0319695812,
				"y": -3.7183268219,
				"z": 0.1424746761,
				"element": "C" 
			},
			{
				"x": -1.168961599,
				"y": 1.4897672051,
				"z": 5.7651098789,
				"element": "H" 
			},
			{
				"x": -0.2921726582,
				"y": 2.8798619969,
				"z": 6.4144866067,
				"element": "H" 
			},
			{
				"x": -0.1930593927,
				"y": 1.313846172,
				"z": 7.2302770115,
				"element": "H" 
			},
			{
				"x": 1.8964689719,
				"y": 1.7194727414,
				"z": 5.9214485968,
				"element": "H" 
			},
			{
				"x": 1.0283173945,
				"y": 0.3419195532,
				"z": 5.2673876099,
				"element": "H" 
			},
			{
				"x": 0.9395083256,
				"y": 3.1857643263,
				"z": 4.1237480265,
				"element": "H" 
			},
			{
				"x": 0.0046689146,
				"y": 1.8326873349,
				"z": 3.5115513932,
				"element": "H" 
			},
			{
				"x": 2.1165540378,
				"y": 0.6066379753,
				"z": 2.9579616429,
				"element": "H" 
			},
			{
				"x": 1.9225434978,
				"y": 2.1128679419,
				"z": 2.0766893627,
				"element": "H" 
			},
			{
				"x": 3.4231133145,
				"y": 3.2476035697,
				"z": 3.7942796539,
				"element": "H" 
			},
			{
				"x": 3.7528911203,
				"y": 1.6751444272,
				"z": 4.4964125397,
				"element": "H" 
			},
			{
				"x": 5.5349379183,
				"y": 2.4811437107,
				"z": 2.9931178379,
				"element": "H" 
			},
			{
				"x": 4.4353951673,
				"y": 2.5261162098,
				"z": 1.6316925657,
				"element": "H" 
			},
			{
				"x": 4.8560169061,
				"y": -0.1086600741,
				"z": 3.1097033471,
				"element": "H" 
			},
			{
				"x": 6.1139197389,
				"y": 0.4724123877,
				"z": 2.0400706353,
				"element": "H" 
			},
			{
				"x": 3.2311855158,
				"y": -0.0344080329,
				"z": 1.1535886003,
				"element": "H" 
			},
			{
				"x": 4.5295202192,
				"y": 0.5438280423,
				"z": 0.1281888959,
				"element": "H" 
			},
			{
				"x": 5.8425040588,
				"y": -1.5542115037,
				"z": 0.6365751583,
				"element": "H" 
			},
			{
				"x": 4.4945451094,
				"y": -2.1572745209,
				"z": 1.5835599048,
				"element": "H" 
			},
			{
				"x": 4.4001457173,
				"y": -1.5065732037,
				"z": -1.4156441199,
				"element": "H" 
			},
			{
				"x": 4.616032475,
				"y": -3.1108123667,
				"z": -0.7331332519,
				"element": "H" 
			},
			{
				"x": 2.1177863465,
				"y": -1.3556007102,
				"z": -0.4046090393,
				"element": "H" 
			},
			{
				"x": 2.348040288,
				"y": -2.9161727276,
				"z": 0.3833628536,
				"element": "H" 
			},
			{
				"x": 2.5268819944,
				"y": -4.0185967368,
				"z": -1.8709866873,
				"element": "H" 
			},
			{
				"x": 2.3208023041,
				"y": -2.4401189392,
				"z": -2.6568322458,
				"element": "H" 
			},
			{
				"x": -0.3511218641,
				"y": 3.7375640783,
				"z": -3.9938484726,
				"element": "H" 
			},
			{
				"x": -3.7703172368,
				"y": 1.0282089078,
				"z": -4.9778797086,
				"element": "H" 
			},
			{
				"x": -5.8632606928,
				"y": 2.2013933235,
				"z": -5.550253378,
				"element": "H" 
			},
			{
				"x": -6.2681055133,
				"y": 4.5158866989,
				"z": -4.7341789512,
				"element": "H" 
			},
			{
				"x": -4.5456265353,
				"y": 5.644342219,
				"z": -3.3352480528,
				"element": "H" 
			},
			{
				"x": -2.4503652305,
				"y": 4.4626668753,
				"z": -2.7598565428,
				"element": "H" 
			},
			{
				"x": -2.1381083963,
				"y": -3.6899572102,
				"z": -2.3558312554,
				"element": "H" 
			},
			{
				"x": -3.4696450689,
				"y": -2.6174401856,
				"z": -2.8339866376,
				"element": "H" 
			},
			{
				"x": -3.6812890688,
				"y": -1.8007842379,
				"z": -0.4425817467,
				"element": "H" 
			},
			{
				"x": -3.4501251072,
				"y": -3.6622176114,
				"z": 1.1430352415,
				"element": "H" 
			},
			{
				"x": -2.5128585426,
				"y": -4.6372240516,
				"z": -0.1187975687,
				"element": "H" 
			}
		],
		 "valence_orbital": [ 
			{
				"type": "occ",
				"energy": -0.26379,
				"method": "rhf"
			},
			{
				"type": "occ",
				"energy": -0.25853,
				"method": "rhf"
			},
			{
				"type": "occ",
				"energy": -0.24137,
				"method": "rhf"
			},
			{
				"type": "occ",
				"energy": -0.23373,
				"method": "rhf"
			},
			{
				"type": "occ",
				"energy": -0.20753,
				"method": "rhf"
			},
			{
				"type": "unocc",
				"energy": -0.04159,
				"method": "rhf"
			},
			{
				"type": "unocc",
				"energy": -0.02057,
				"method": "rhf"
			},
			{
				"type": "unocc",
				"energy": -0.00077,
				"method": "rhf"
			},
			{
				"type": "unocc",
				"energy": 0.00689,
				"method": "rhf"
			},
			{
				"type": "unocc",
				"energy": 0.0077,
				"method": "rhf"
			}
		],
		"cosmo_sigma_profile": { 
			"-0.025": 0.0,
			"-0.024": 0.0,
			"-0.023": 0.0,
			"-0.022": 0.0,
			"-0.021": 0.0,
			"-0.02": 0.0,
			"-0.019": 0.0,
			"-0.018": 0.0,
			"-0.017": 0.0,
			"-0.016": 0.0,
			"-0.015": 0.0,
			"-0.014": 0.0,
			"-0.013": 0.0,
			"-0.012": 0.0,
			"-0.011": 0.0,
			"-0.01": 0.0,
			"-0.009": 0.766528998141,
			"-0.008": 2.03996548144,
			"-0.007": 2.97206856612,
			"-0.006": 11.1177786932,
			"-0.005": 22.4631795323,
			"-0.004": 29.1040115808,
			"-0.003": 38.1731546409,
			"-0.002": 60.2618534795,
			"-0.001": 84.0529642775,
			"0.0": 91.6029458244,
			"0.001": 79.4752947754,
			"0.002": 50.5670825524,
			"0.003": 27.1958710642,
			"0.004": 19.5821422423,
			"0.005": 16.0368968441,
			"0.006": 13.7227945106,
			"0.007": 3.70327771444,
			"0.008": 2.31629412101,
			"0.009": 1.84351076821,
			"0.01": 1.94677824885,
			"0.011": 1.69982696549,
			"0.012": 2.97666693478,
			"0.013": 1.84201585712,
			"0.014": 0.0,
			"0.015": 0.0,
			"0.016": 0.0,
			"0.017": 0.0,
			"0.018": 0.0,
			"0.019": 0.0,
			"0.02": 0.0,
			"0.021": 0.0,
			"0.022": 0.0,
			"0.023": 0.0,
			"0.024": 0.0,
			"0.025": 0.0
		}
	}
}
