{
	 "smiles": "CC1=NC2=NC(CCCO)=NN2C(C)=C1", 
	 "Tm": 363.15, 
	 "num_atms": 29, 
	 "gaussian": { 
		 "optdone": 1, 
		 "sigma_profile": "yes", 
		 "theory": "DFT", 
		 "functional": "B3LYP", 
		 "basiset": "6-31G**", 
		 "properties": { 
			 "R2extent": 5011.6662, 
			 "electric_dipole_moment_norm": 4.64049793233, 
			 "electric_quadrupole_moment_norm": 17.735018543, 
			 "total_energy": -683.733534631, 
			 "HOMO_LUMO_gap": 0.1899, 
			 "cosmo_polarized_energy": -17.87, 
			 "cosmo_cavitation_energy": 32.76, 
			 "cosmo_dispersion_energy": -23.89, 
			 "cosmo_repulsion_energy": 1.91, 
			 "cosmo_total_nonelectrostatic_energy": 10.77, 
			 "SMD_solvation_energy": 1.3 
		},
		"coords": [
			{
				"x": -2.928576591,
				"y": -1.9841757066,
				"z": 4.2112298174,
				"element": "C" 
			},
			{
				"x": -1.9667874328,
				"y": -1.242290309,
				"z": 3.3177668131,
				"element": "C" 
			},
			{
				"x": -2.4931456416,
				"y": -0.5842984894,
				"z": 2.2925136952,
				"element": "N" 
			},
			{
				"x": -1.6434373321,
				"y": 0.0779314464,
				"z": 1.4931872751,
				"element": "C" 
			},
			{
				"x": -1.8888942985,
				"y": 0.8125240046,
				"z": 0.4100652828,
				"element": "N" 
			},
			{
				"x": -0.657213349,
				"y": 1.2314715214,
				"z": 0.0233215167,
				"element": "C" 
			},
			{
				"x": -0.4417309512,
				"y": 2.0959907898,
				"z": -1.1783309569,
				"element": "C" 
			},
			{
				"x": -0.9377975149,
				"y": 1.4396603914,
				"z": -2.4785948382,
				"element": "C" 
			},
			{
				"x": -0.723286353,
				"y": 2.3272238495,
				"z": -3.7051577629,
				"element": "C" 
			},
			{
				"x": 0.6389801484,
				"y": 2.6904786958,
				"z": -3.905521632,
				"element": "O" 
			},
			{
				"x": 0.3721916487,
				"y": 0.8182327303,
				"z": 0.7771907408,
				"element": "N" 
			},
			{
				"x": -0.2597772906,
				"y": 0.0773849048,
				"z": 1.7250845949,
				"element": "N" 
			},
			{
				"x": 0.3094593693,
				"y": -0.5865792149,
				"z": 2.7679605553,
				"element": "C" 
			},
			{
				"x": 1.7938867397,
				"y": -0.516436154,
				"z": 2.9206321468,
				"element": "C" 
			},
			{
				"x": -0.5686863572,
				"y": -1.2645958642,
				"z": 3.5855877194,
				"element": "C" 
			},
			{
				"x": -3.6631042036,
				"y": -1.2895577241,
				"z": 4.6304887262,
				"element": "H" 
			},
			{
				"x": -2.4164883503,
				"y": -2.4927276406,
				"z": 5.0314277955,
				"element": "H" 
			},
			{
				"x": -3.4854642923,
				"y": -2.7255893113,
				"z": 3.6297046923,
				"element": "H" 
			},
			{
				"x": -0.9816657547,
				"y": 3.0402758854,
				"z": -1.0302908919,
				"element": "H" 
			},
			{
				"x": 0.6202330099,
				"y": 2.3381652321,
				"z": -1.2610739241,
				"element": "H" 
			},
			{
				"x": -2.0032132051,
				"y": 1.1998829424,
				"z": -2.3845139101,
				"element": "H" 
			},
			{
				"x": -0.4175281744,
				"y": 0.4821649045,
				"z": -2.626893283,
				"element": "H" 
			},
			{
				"x": -1.1382421841,
				"y": 1.8321071286,
				"z": -4.59751813,
				"element": "H" 
			},
			{
				"x": -1.2611136115,
				"y": 3.2742065959,
				"z": -3.5825501888,
				"element": "H" 
			},
			{
				"x": 1.1384024523,
				"y": 1.8771805653,
				"z": -4.05666445,
				"element": "H" 
			},
			{
				"x": 2.2886703747,
				"y": -0.9072037491,
				"z": 2.0255786528,
				"element": "H" 
			},
			{
				"x": 2.1165567913,
				"y": -1.0879001652,
				"z": 3.7924727054,
				"element": "H" 
			},
			{
				"x": 2.1175801955,
				"y": 0.5240336053,
				"z": 3.0266507196,
				"element": "H" 
			},
			{
				"x": -0.1829078421,
				"y": -1.8147608652,
				"z": 4.4355465186,
				"element": "H" 
			}
		],
		 "valence_orbital": [ 
			{
				"type": "occ",
				"energy": -0.27188,
				"method": "rhf"
			},
			{
				"type": "occ",
				"energy": -0.2675,
				"method": "rhf"
			},
			{
				"type": "occ",
				"energy": -0.26529,
				"method": "rhf"
			},
			{
				"type": "occ",
				"energy": -0.25298,
				"method": "rhf"
			},
			{
				"type": "occ",
				"energy": -0.24154,
				"method": "rhf"
			},
			{
				"type": "unocc",
				"energy": -0.05164,
				"method": "rhf"
			},
			{
				"type": "unocc",
				"energy": -0.00929,
				"method": "rhf"
			},
			{
				"type": "unocc",
				"energy": 0.05574,
				"method": "rhf"
			},
			{
				"type": "unocc",
				"energy": 0.07872,
				"method": "rhf"
			},
			{
				"type": "unocc",
				"energy": 0.09004,
				"method": "rhf"
			}
		],
		"cosmo_sigma_profile": { 
			"-0.025": 0.0,
			"-0.024": 0.0,
			"-0.023": 0.0,
			"-0.022": 0.0,
			"-0.021": 0.0,
			"-0.02": 0.0,
			"-0.019": 0.0,
			"-0.018": 0.0,
			"-0.017": 0.0,
			"-0.016": 0.0190410957258,
			"-0.015": 0.819618472313,
			"-0.014": 1.28197323751,
			"-0.013": 0.562779946861,
			"-0.012": 0.936928386169,
			"-0.011": 1.14879571181,
			"-0.01": 0.901845888335,
			"-0.009": 0.753164494847,
			"-0.008": 2.82237991385,
			"-0.007": 6.52012264389,
			"-0.006": 9.8893172256,
			"-0.005": 14.8154864798,
			"-0.004": 25.0549237477,
			"-0.003": 32.4358757022,
			"-0.002": 32.264789623,
			"-0.001": 29.5201441659,
			"0.0": 18.5541978385,
			"0.001": 10.4024000734,
			"0.002": 6.83798759505,
			"0.003": 6.04408868292,
			"0.004": 5.29000994496,
			"0.005": 5.22292423468,
			"0.006": 5.15359390428,
			"0.007": 5.0723765319,
			"0.008": 4.85839502181,
			"0.009": 4.14498883106,
			"0.01": 3.82666031209,
			"0.011": 4.27355263506,
			"0.012": 4.99564031438,
			"0.013": 4.63971377044,
			"0.014": 4.75048552663,
			"0.015": 3.03163216085,
			"0.016": 1.01380434411,
			"0.017": 0.233791706403,
			"0.018": 0.0,
			"0.019": 0.0,
			"0.02": 0.0,
			"0.021": 0.0,
			"0.022": 0.0,
			"0.023": 0.0,
			"0.024": 0.0,
			"0.025": 0.0
		}
	}
}
