{
	 "smiles": "FC1=CC(CC(=O)C2=CC(F)=CC=C2)=CC=C1", 
	 "Tm": 323.15, 
	 "num_atms": 27, 
	 "gaussian": { 
		 "optdone": 1, 
		 "sigma_profile": "yes", 
		 "theory": "DFT", 
		 "functional": "B3LYP", 
		 "basiset": "6-31G**", 
		 "properties": { 
			 "R2extent": 5971.3907, 
			 "electric_dipole_moment_norm": 2.31964822117, 
			 "electric_quadrupole_moment_norm": 12.1501588759, 
			 "total_energy": -814.410782994, 
			 "HOMO_LUMO_gap": 0.17309, 
			 "cosmo_polarized_energy": -10.85, 
			 "cosmo_cavitation_energy": 33.09, 
			 "cosmo_dispersion_energy": -23.35, 
			 "cosmo_repulsion_energy": 1.74, 
			 "cosmo_total_nonelectrostatic_energy": 11.48, 
			 "SMD_solvation_energy": 6.91 
		},
		"coords": [
			{
				"x": -2.1949563884,
				"y": 3.9274644878,
				"z": -2.6803040571,
				"element": "F" 
			},
			{
				"x": -2.3395913678,
				"y": 2.7471261461,
				"z": -2.0393999965,
				"element": "C" 
			},
			{
				"x": -1.3471267637,
				"y": 2.3449336312,
				"z": -1.1523645929,
				"element": "C" 
			},
			{
				"x": -1.4821632503,
				"y": 1.1279333708,
				"z": -0.4766870083,
				"element": "C" 
			},
			{
				"x": -0.4178531351,
				"y": 0.6791195498,
				"z": 0.4953333926,
				"element": "C" 
			},
			{
				"x": 0.4173943229,
				"y": -0.5166718779,
				"z": 0.0148142376,
				"element": "C" 
			},
			{
				"x": 0.1471089972,
				"y": -1.1125375315,
				"z": -1.013024223,
				"element": "O" 
			},
			{
				"x": 1.5818850394,
				"y": -0.9500436773,
				"z": 0.8621048045,
				"element": "C" 
			},
			{
				"x": 1.9037805108,
				"y": -0.334199517,
				"z": 2.0809080493,
				"element": "C" 
			},
			{
				"x": 2.9936061264,
				"y": -0.8024865619,
				"z": 2.8035375819,
				"element": "C" 
			},
			{
				"x": 3.2974953269,
				"y": -0.2084401527,
				"z": 3.9760684864,
				"element": "F" 
			},
			{
				"x": 3.7797834096,
				"y": -1.8597161345,
				"z": 2.3596568928,
				"element": "C" 
			},
			{
				"x": 3.4535894272,
				"y": -2.4679562232,
				"z": 1.1448239759,
				"element": "C" 
			},
			{
				"x": 2.3644632704,
				"y": -2.0206829317,
				"z": 0.4016671564,
				"element": "C" 
			},
			{
				"x": -2.6179846445,
				"y": 0.3413797852,
				"z": -0.7130965431,
				"element": "C" 
			},
			{
				"x": -3.5999682944,
				"y": 0.7652946633,
				"z": -1.6071689738,
				"element": "C" 
			},
			{
				"x": -3.4713086022,
				"y": 1.9805864507,
				"z": -2.2832208581,
				"element": "C" 
			},
			{
				"x": -0.4839780657,
				"y": 2.9854086112,
				"z": -1.0002852204,
				"element": "H" 
			},
			{
				"x": 0.2612381416,
				"y": 1.5080051468,
				"z": 0.7255563978,
				"element": "H" 
			},
			{
				"x": -0.8714439687,
				"y": 0.3916066411,
				"z": 1.4545266353,
				"element": "H" 
			},
			{
				"x": 1.3319721813,
				"y": 0.4930157396,
				"z": 2.4844872783,
				"element": "H" 
			},
			{
				"x": 4.6220478513,
				"y": -2.1883109533,
				"z": 2.9589194434,
				"element": "H" 
			},
			{
				"x": 4.056213568,
				"y": -3.2950663985,
				"z": 0.7821467719,
				"element": "H" 
			},
			{
				"x": 2.0958068273,
				"y": -2.4825915565,
				"z": -0.5415669201,
				"element": "H" 
			},
			{
				"x": -2.728546596,
				"y": -0.6091513745,
				"z": -0.2004568368,
				"element": "H" 
			},
			{
				"x": -4.4749425026,
				"y": 0.1464392085,
				"z": -1.7822141749,
				"element": "H" 
			},
			{
				"x": -4.2217214207,
				"y": 2.3338414583,
				"z": -2.9818616993,
				"element": "H" 
			}
		],
		 "valence_orbital": [ 
			{
				"type": "occ",
				"energy": -0.27548,
				"method": "rhf"
			},
			{
				"type": "occ",
				"energy": -0.26433,
				"method": "rhf"
			},
			{
				"type": "occ",
				"energy": -0.25751,
				"method": "rhf"
			},
			{
				"type": "occ",
				"energy": -0.24988,
				"method": "rhf"
			},
			{
				"type": "occ",
				"energy": -0.2396,
				"method": "rhf"
			},
			{
				"type": "unocc",
				"energy": -0.06651,
				"method": "rhf"
			},
			{
				"type": "unocc",
				"energy": -0.01482,
				"method": "rhf"
			},
			{
				"type": "unocc",
				"energy": -0.00852,
				"method": "rhf"
			},
			{
				"type": "unocc",
				"energy": 0.0023,
				"method": "rhf"
			},
			{
				"type": "unocc",
				"energy": 0.03201,
				"method": "rhf"
			}
		],
		"cosmo_sigma_profile": { 
			"-0.025": 0.0,
			"-0.024": 0.0,
			"-0.023": 0.0,
			"-0.022": 0.0,
			"-0.021": 0.0,
			"-0.02": 0.0,
			"-0.019": 0.0,
			"-0.018": 0.0,
			"-0.017": 0.0,
			"-0.016": 0.0,
			"-0.015": 0.0,
			"-0.014": 0.0,
			"-0.013": 0.0,
			"-0.012": 0.0,
			"-0.011": 0.0,
			"-0.01": 0.0,
			"-0.009": 0.212878542094,
			"-0.008": 4.57550862704,
			"-0.007": 15.9347049422,
			"-0.006": 18.424304972,
			"-0.005": 18.3553664484,
			"-0.004": 15.7550603725,
			"-0.003": 13.6182874224,
			"-0.002": 13.2301395258,
			"-0.001": 13.0990918483,
			"0.0": 19.4008626378,
			"0.001": 25.1035109834,
			"0.002": 25.6474560723,
			"0.003": 23.2154487425,
			"0.004": 27.5880445334,
			"0.005": 13.2868733604,
			"0.006": 2.43665190454,
			"0.007": 2.45446577285,
			"0.008": 1.85622960986,
			"0.009": 1.93361716503,
			"0.01": 2.46975580781,
			"0.011": 3.97215696158,
			"0.012": 2.98851612546,
			"0.013": 0.320357471451,
			"0.014": 0.0,
			"0.015": 0.0,
			"0.016": 0.0,
			"0.017": 0.0,
			"0.018": 0.0,
			"0.019": 0.0,
			"0.02": 0.0,
			"0.021": 0.0,
			"0.022": 0.0,
			"0.023": 0.0,
			"0.024": 0.0,
			"0.025": 0.0
		}
	}
}
