{
	 "smiles": "CC(C)N(C(=O)CCl)C1=CC=CC=C1", 
	 "Tm": 350.15, 
	 "num_atms": 28, 
	 "gaussian": { 
		 "optdone": 1, 
		 "sigma_profile": "yes", 
		 "theory": "DFT", 
		 "functional": "B3LYP", 
		 "basiset": "6-31G**", 
		 "properties": { 
			 "R2extent": 3336.7475, 
			 "electric_dipole_moment_norm": 4.33180624798, 
			 "electric_quadrupole_moment_norm": 10.9412624171, 
			 "total_energy": -1017.79235662, 
			 "HOMO_LUMO_gap": 0.22272, 
			 "cosmo_polarized_energy": -10.32, 
			 "cosmo_cavitation_energy": 32.04, 
			 "cosmo_dispersion_energy": -21.79, 
			 "cosmo_repulsion_energy": 1.74, 
			 "cosmo_total_nonelectrostatic_energy": 11.98, 
			 "SMD_solvation_energy": 5.99 
		},
		"coords": [
			{
				"x": 1.4891410127,
				"y": 1.4805544636,
				"z": 1.7347606005,
				"element": "C" 
			},
			{
				"x": -0.0168979387,
				"y": 1.2588257467,
				"z": 1.5547066043,
				"element": "C" 
			},
			{
				"x": -0.6594718774,
				"y": 2.3454579746,
				"z": 0.6853538891,
				"element": "C" 
			},
			{
				"x": -0.3194885701,
				"y": -0.1055488169,
				"z": 1.0397435567,
				"element": "N" 
			},
			{
				"x": -1.0390397381,
				"y": -0.9557893922,
				"z": 1.8520056672,
				"element": "C" 
			},
			{
				"x": -1.4024387989,
				"y": -0.6597479904,
				"z": 2.9834989997,
				"element": "O" 
			},
			{
				"x": -1.3904862832,
				"y": -2.3347722814,
				"z": 1.2894621569,
				"element": "C" 
			},
			{
				"x": -2.9883762359,
				"y": -2.2866600058,
				"z": 0.4252954302,
				"element": "Cl" 
			},
			{
				"x": 0.1453250549,
				"y": -0.480548768,
				"z": -0.2684699464,
				"element": "C" 
			},
			{
				"x": -0.6578581367,
				"y": -0.2677033062,
				"z": -1.3956233501,
				"element": "C" 
			},
			{
				"x": -0.1908053407,
				"y": -0.61604163,
				"z": -2.6640104009,
				"element": "C" 
			},
			{
				"x": 1.0779002946,
				"y": -1.1777564872,
				"z": -2.8165073424,
				"element": "C" 
			},
			{
				"x": 1.8809100082,
				"y": -1.3945166716,
				"z": -1.6948168583,
				"element": "C" 
			},
			{
				"x": 1.4183855193,
				"y": -1.0462653921,
				"z": -0.4251845719,
				"element": "C" 
			},
			{
				"x": 1.663690471,
				"y": 2.4576078003,
				"z": 2.1967586868,
				"element": "H" 
			},
			{
				"x": 2.0215221164,
				"y": 1.4645073526,
				"z": 0.7783266787,
				"element": "H" 
			},
			{
				"x": 1.9229923674,
				"y": 0.7171560116,
				"z": 2.3877766859,
				"element": "H" 
			},
			{
				"x": -0.4904791233,
				"y": 1.2695539949,
				"z": 2.5379334855,
				"element": "H" 
			},
			{
				"x": -0.4930865549,
				"y": 3.3266315696,
				"z": 1.1416033934,
				"element": "H" 
			},
			{
				"x": -1.7392387624,
				"y": 2.1915078214,
				"z": 0.5997732441,
				"element": "H" 
			},
			{
				"x": -0.230797166,
				"y": 2.3685448375,
				"z": -0.3217149451,
				"element": "H" 
			},
			{
				"x": -1.5162905813,
				"y": -3.0092521569,
				"z": 2.1339074666,
				"element": "H" 
			},
			{
				"x": -0.6628268963,
				"y": -2.7259873418,
				"z": 0.581136653,
				"element": "H" 
			},
			{
				"x": -1.6480896333,
				"y": 0.1550213747,
				"z": -1.2679800566,
				"element": "H" 
			},
			{
				"x": -0.8226104754,
				"y": -0.4523433818,
				"z": -3.5319071162,
				"element": "H" 
			},
			{
				"x": 1.4380303253,
				"y": -1.4495147033,
				"z": -3.8043436144,
				"element": "H" 
			},
			{
				"x": 2.8669542496,
				"y": -1.8359047206,
				"z": -1.8061374816,
				"element": "H" 
			},
			{
				"x": 2.0342306931,
				"y": -1.2159159015,
				"z": 0.452352485,
				"element": "H" 
			}
		],
		 "valence_orbital": [ 
			{
				"type": "occ",
				"energy": -0.29904,
				"method": "rhf"
			},
			{
				"type": "occ",
				"energy": -0.27172,
				"method": "rhf"
			},
			{
				"type": "occ",
				"energy": -0.26512,
				"method": "rhf"
			},
			{
				"type": "occ",
				"energy": -0.24978,
				"method": "rhf"
			},
			{
				"type": "occ",
				"energy": -0.24677,
				"method": "rhf"
			},
			{
				"type": "unocc",
				"energy": -0.02405,
				"method": "rhf"
			},
			{
				"type": "unocc",
				"energy": -0.01998,
				"method": "rhf"
			},
			{
				"type": "unocc",
				"energy": -0.01264,
				"method": "rhf"
			},
			{
				"type": "unocc",
				"energy": 0.06425,
				"method": "rhf"
			},
			{
				"type": "unocc",
				"energy": 0.07572,
				"method": "rhf"
			}
		],
		"cosmo_sigma_profile": { 
			"-0.025": 0.0,
			"-0.024": 0.0,
			"-0.023": 0.0,
			"-0.022": 0.0,
			"-0.021": 0.0,
			"-0.02": 0.0,
			"-0.019": 0.0,
			"-0.018": 0.0,
			"-0.017": 0.0,
			"-0.016": 0.0,
			"-0.015": 0.0,
			"-0.014": 0.0,
			"-0.013": 0.0,
			"-0.012": 0.0,
			"-0.011": 0.0,
			"-0.01": 0.0,
			"-0.009": 0.0628129797233,
			"-0.008": 1.56095986126,
			"-0.007": 3.44710091268,
			"-0.006": 13.6329622604,
			"-0.005": 16.1098713399,
			"-0.004": 20.9176143917,
			"-0.003": 26.1220173503,
			"-0.002": 23.8391696327,
			"-0.001": 26.8514015581,
			"0.0": 25.7860906643,
			"0.001": 19.8814752411,
			"0.002": 11.8972178233,
			"0.003": 12.3399154747,
			"0.004": 15.2894617863,
			"0.005": 13.2877983127,
			"0.006": 7.40545079383,
			"0.007": 2.06874633316,
			"0.008": 0.77889830562,
			"0.009": 0.963560700029,
			"0.01": 1.75998241312,
			"0.011": 1.9921810512,
			"0.012": 2.4589273268,
			"0.013": 5.20935134312,
			"0.014": 1.20353823904,
			"0.015": 0.012746882807,
			"0.016": 0.0,
			"0.017": 0.0,
			"0.018": 0.0,
			"0.019": 0.0,
			"0.02": 0.0,
			"0.021": 0.0,
			"0.022": 0.0,
			"0.023": 0.0,
			"0.024": 0.0,
			"0.025": 0.0
		}
	}
}
