{
	 "smiles": "CC(=O)C1=C(C)C=C(C)C(C)=C1", 
	 "Tm": 283.35, 
	 "num_atms": 26, 
	 "gaussian": { 
		 "optdone": 1, 
		 "sigma_profile": "yes", 
		 "theory": "DFT", 
		 "functional": "B3LYP", 
		 "basiset": "6-31G**", 
		 "properties": { 
			 "R2extent": 2604.8345, 
			 "electric_dipole_moment_norm": 3.41780038475, 
			 "electric_quadrupole_moment_norm": 5.47324873909, 
			 "total_energy": -502.856675781, 
			 "HOMO_LUMO_gap": 0.18751, 
			 "cosmo_polarized_energy": -7.57, 
			 "cosmo_cavitation_energy": 28.41, 
			 "cosmo_dispersion_energy": -20.4, 
			 "cosmo_repulsion_energy": 1.61, 
			 "cosmo_total_nonelectrostatic_energy": 9.62, 
			 "SMD_solvation_energy": 5.51 
		},
		"coords": [
			{
				"x": -1.5526495039,
				"y": 1.2050736117,
				"z": 1.6446199303,
				"element": "C" 
			},
			{
				"x": -0.5744751099,
				"y": 0.0468472881,
				"z": 1.4716251862,
				"element": "C" 
			},
			{
				"x": -0.495218446,
				"y": -0.7972382856,
				"z": 2.3554197669,
				"element": "O" 
			},
			{
				"x": 0.2563567586,
				"y": -0.0223557646,
				"z": 0.2302480371,
				"element": "C" 
			},
			{
				"x": 1.1830278781,
				"y": -1.0724393041,
				"z": 0.0085897969,
				"element": "C" 
			},
			{
				"x": 1.4257161915,
				"y": -2.205240647,
				"z": 0.9765902085,
				"element": "C" 
			},
			{
				"x": 1.9138646062,
				"y": -1.0489763816,
				"z": -1.1848738721,
				"element": "C" 
			},
			{
				"x": 1.777479308,
				"y": -0.054150621,
				"z": -2.1568972647,
				"element": "C" 
			},
			{
				"x": 2.6053911822,
				"y": -0.1040860822,
				"z": -3.4170239647,
				"element": "C" 
			},
			{
				"x": 0.8557676794,
				"y": 0.9893390576,
				"z": -1.9348163977,
				"element": "C" 
			},
			{
				"x": 0.6629622994,
				"y": 2.0930386097,
				"z": -2.9470832214,
				"element": "C" 
			},
			{
				"x": 0.1218838825,
				"y": 0.9773061176,
				"z": -0.7504863276,
				"element": "C" 
			},
			{
				"x": -2.2985649783,
				"y": 1.2235591995,
				"z": 0.8428157113,
				"element": "H" 
			},
			{
				"x": -2.0577265688,
				"y": 1.0768671984,
				"z": 2.6023107116,
				"element": "H" 
			},
			{
				"x": -1.0362158676,
				"y": 2.1709413215,
				"z": 1.6355815966,
				"element": "H" 
			},
			{
				"x": 0.5115676518,
				"y": -2.7720775341,
				"z": 1.171797659,
				"element": "H" 
			},
			{
				"x": 2.1852891678,
				"y": -2.883351964,
				"z": 0.5759830291,
				"element": "H" 
			},
			{
				"x": 1.7564532931,
				"y": -1.8386061167,
				"z": 1.9519264829,
				"element": "H" 
			},
			{
				"x": 2.6273074381,
				"y": -1.8503121258,
				"z": -1.36424746,
				"element": "H" 
			},
			{
				"x": 3.2636228219,
				"y": -0.9763917652,
				"z": -3.4249009178,
				"element": "H" 
			},
			{
				"x": 3.2312305957,
				"y": 0.7904491761,
				"z": -3.5229258939,
				"element": "H" 
			},
			{
				"x": 1.9732728791,
				"y": -0.1516055559,
				"z": -4.3121364287,
				"element": "H" 
			},
			{
				"x": -0.086590055,
				"y": 2.8128783381,
				"z": -2.6077196646,
				"element": "H" 
			},
			{
				"x": 1.5938882361,
				"y": 2.6433560134,
				"z": -3.1305365348,
				"element": "H" 
			},
			{
				"x": 0.3331449835,
				"y": 1.7015459912,
				"z": -3.9172062318,
				"element": "H" 
			},
			{
				"x": -0.5851863235,
				"y": 1.7840302247,
				"z": -0.5877539366,
				"element": "H" 
			}
		],
		 "valence_orbital": [ 
			{
				"type": "occ",
				"energy": -0.33443,
				"method": "rhf"
			},
			{
				"type": "occ",
				"energy": -0.33354,
				"method": "rhf"
			},
			{
				"type": "occ",
				"energy": -0.2479,
				"method": "rhf"
			},
			{
				"type": "occ",
				"energy": -0.23604,
				"method": "rhf"
			},
			{
				"type": "occ",
				"energy": -0.23409,
				"method": "rhf"
			},
			{
				"type": "unocc",
				"energy": -0.04658,
				"method": "rhf"
			},
			{
				"type": "unocc",
				"energy": 0.00201,
				"method": "rhf"
			},
			{
				"type": "unocc",
				"energy": 0.0445,
				"method": "rhf"
			},
			{
				"type": "unocc",
				"energy": 0.08775,
				"method": "rhf"
			},
			{
				"type": "unocc",
				"energy": 0.10271,
				"method": "rhf"
			}
		],
		"cosmo_sigma_profile": { 
			"-0.025": 0.0,
			"-0.024": 0.0,
			"-0.023": 0.0,
			"-0.022": 0.0,
			"-0.021": 0.0,
			"-0.02": 0.0,
			"-0.019": 0.0,
			"-0.018": 0.0,
			"-0.017": 0.0,
			"-0.016": 0.0,
			"-0.015": 0.0,
			"-0.014": 0.0,
			"-0.013": 0.0,
			"-0.012": 0.0,
			"-0.011": 0.0,
			"-0.01": 0.0,
			"-0.009": 0.0,
			"-0.008": 0.0,
			"-0.007": 0.0,
			"-0.006": 3.31540489605,
			"-0.005": 13.3502455973,
			"-0.004": 24.1506409491,
			"-0.003": 25.0043969206,
			"-0.002": 22.7572508021,
			"-0.001": 26.2175907366,
			"0.0": 29.7194961719,
			"0.001": 21.3209420873,
			"0.002": 11.3668164942,
			"0.003": 9.12204564062,
			"0.004": 10.4751667419,
			"0.005": 9.84203162495,
			"0.006": 1.96925787779,
			"0.007": 2.09937927945,
			"0.008": 1.60048633322,
			"0.009": 1.19170827453,
			"0.01": 2.04727160823,
			"0.011": 1.67426745203,
			"0.012": 2.6666351923,
			"0.013": 2.43199539707,
			"0.014": 0.872422365526,
			"0.015": 0.0106253031955,
			"0.016": 0.0,
			"0.017": 0.0,
			"0.018": 0.0,
			"0.019": 0.0,
			"0.02": 0.0,
			"0.021": 0.0,
			"0.022": 0.0,
			"0.023": 0.0,
			"0.024": 0.0,
			"0.025": 0.0
		}
	}
}
