{
	 "smiles": "OC(=O)C(CC1=CC=CC=C1)NC(=O)C1=CN=CC=C1", 
	 "Tm": 480.15, 
	 "num_atms": 34, 
	 "gaussian": { 
		 "optdone": 1, 
		 "sigma_profile": "yes", 
		 "theory": "DFT", 
		 "functional": "B3LYP", 
		 "basiset": "6-31G**", 
		 "properties": { 
			 "R2extent": 7789.1812, 
			 "electric_dipole_moment_norm": 3.7417764511, 
			 "electric_quadrupole_moment_norm": 26.2879619227, 
			 "total_energy": -915.222020429, 
			 "HOMO_LUMO_gap": 0.17836, 
			 "cosmo_polarized_energy": -25.19, 
			 "cosmo_cavitation_energy": 39.22, 
			 "cosmo_dispersion_energy": -26.95, 
			 "cosmo_repulsion_energy": 2.05, 
			 "cosmo_total_nonelectrostatic_energy": 14.31, 
			 "SMD_solvation_energy": 6.19 
		},
		"coords": [
			{
				"x": 2.2974464912,
				"y": -1.0379149905,
				"z": 0.9481629015,
				"element": "O" 
			},
			{
				"x": 1.1398928548,
				"y": -0.6118307705,
				"z": 1.53173703,
				"element": "C" 
			},
			{
				"x": 0.9614811426,
				"y": -0.7431842444,
				"z": 2.7128671965,
				"element": "O" 
			},
			{
				"x": 0.1320338157,
				"y": 0.015165272,
				"z": 0.5646692397,
				"element": "C" 
			},
			{
				"x": -0.5141646527,
				"y": -1.070651859,
				"z": -0.3423987431,
				"element": "C" 
			},
			{
				"x": -1.3496874937,
				"y": -2.0689608181,
				"z": 0.4286913455,
				"element": "C" 
			},
			{
				"x": -2.6934377285,
				"y": -1.7892075894,
				"z": 0.7133335155,
				"element": "C" 
			},
			{
				"x": -3.4706083586,
				"y": -2.6926602399,
				"z": 1.4381719319,
				"element": "C" 
			},
			{
				"x": -2.9143361814,
				"y": -3.8922213862,
				"z": 1.8872360818,
				"element": "C" 
			},
			{
				"x": -1.5779419008,
				"y": -4.1816510494,
				"z": 1.6080177626,
				"element": "C" 
			},
			{
				"x": -0.8023018053,
				"y": -3.2751208701,
				"z": 0.8841628539,
				"element": "C" 
			},
			{
				"x": 0.8404391014,
				"y": 1.0257659659,
				"z": -0.2419350118,
				"element": "N" 
			},
			{
				"x": 0.1176604084,
				"y": 1.9324487815,
				"z": -1.0021174119,
				"element": "C" 
			},
			{
				"x": -1.0918320913,
				"y": 1.8325333395,
				"z": -1.165773685,
				"element": "O" 
			},
			{
				"x": 0.9116928676,
				"y": 3.0422138717,
				"z": -1.6230231838,
				"element": "C" 
			},
			{
				"x": 0.2171233663,
				"y": 4.185237407,
				"z": -2.0490991168,
				"element": "C" 
			},
			{
				"x": 0.8017242915,
				"y": 5.243670875,
				"z": -2.6154746403,
				"element": "N" 
			},
			{
				"x": 2.1291890848,
				"y": 5.1925423924,
				"z": -2.7911256076,
				"element": "C" 
			},
			{
				"x": 2.9174556277,
				"y": 4.1018209126,
				"z": -2.4196260614,
				"element": "C" 
			},
			{
				"x": 2.2963330877,
				"y": 3.0063316982,
				"z": -1.8254907525,
				"element": "C" 
			},
			{
				"x": 2.2570125363,
				"y": -0.8792050561,
				"z": -0.0081101161,
				"element": "H" 
			},
			{
				"x": -0.6500574996,
				"y": 0.482596037,
				"z": 1.1699092163,
				"element": "H" 
			},
			{
				"x": 0.2783453125,
				"y": -1.5849522332,
				"z": -0.8999751687,
				"element": "H" 
			},
			{
				"x": -1.1323960573,
				"y": -0.5420024539,
				"z": -1.0698636004,
				"element": "H" 
			},
			{
				"x": -3.1309370111,
				"y": -0.8589908889,
				"z": 0.3587207064,
				"element": "H" 
			},
			{
				"x": -4.5112764024,
				"y": -2.4622554636,
				"z": 1.6479436558,
				"element": "H" 
			},
			{
				"x": -3.5194931983,
				"y": -4.5978003812,
				"z": 2.4491174554,
				"element": "H" 
			},
			{
				"x": -1.1378749691,
				"y": -5.1129717874,
				"z": 1.9526986919,
				"element": "H" 
			},
			{
				"x": 0.2387120467,
				"y": -3.5068796493,
				"z": 0.6716780624,
				"element": "H" 
			},
			{
				"x": 1.6843626932,
				"y": 1.4019504939,
				"z": 0.1722618648,
				"element": "H" 
			},
			{
				"x": -0.8606004198,
				"y": 4.2245072234,
				"z": -1.9146482047,
				"element": "H" 
			},
			{
				"x": 2.5841137994,
				"y": 6.0642600938,
				"z": -3.2579193045,
				"element": "H" 
			},
			{
				"x": 3.9873356701,
				"y": 4.109601093,
				"z": -2.6009178851,
				"element": "H" 
			},
			{
				"x": 2.8791915721,
				"y": 2.130616274,
				"z": -1.5539810186,
				"element": "H" 
			}
		],
		 "valence_orbital": [ 
			{
				"type": "occ",
				"energy": -0.28081,
				"method": "rhf"
			},
			{
				"type": "occ",
				"energy": -0.27786,
				"method": "rhf"
			},
			{
				"type": "occ",
				"energy": -0.26422,
				"method": "rhf"
			},
			{
				"type": "occ",
				"energy": -0.24959,
				"method": "rhf"
			},
			{
				"type": "occ",
				"energy": -0.24404,
				"method": "rhf"
			},
			{
				"type": "unocc",
				"energy": -0.06568,
				"method": "rhf"
			},
			{
				"type": "unocc",
				"energy": -0.04024,
				"method": "rhf"
			},
			{
				"type": "unocc",
				"energy": -0.0114,
				"method": "rhf"
			},
			{
				"type": "unocc",
				"energy": -0.00441,
				"method": "rhf"
			},
			{
				"type": "unocc",
				"energy": 0.00015,
				"method": "rhf"
			}
		],
		"cosmo_sigma_profile": { 
			"-0.025": 0.0,
			"-0.024": 0.0,
			"-0.023": 0.0,
			"-0.022": 0.0,
			"-0.021": 0.0,
			"-0.02": 0.0,
			"-0.019": 0.0,
			"-0.018": 0.210081724483,
			"-0.017": 0.599085280287,
			"-0.016": 1.11142999017,
			"-0.015": 1.84884572399,
			"-0.014": 2.91715512641,
			"-0.013": 2.86440301323,
			"-0.012": 2.95223159374,
			"-0.011": 2.59820131993,
			"-0.01": 2.81942536975,
			"-0.009": 2.1614289754,
			"-0.008": 4.07396346757,
			"-0.007": 9.42250513962,
			"-0.006": 16.2664009607,
			"-0.005": 20.748340083,
			"-0.004": 19.8220992492,
			"-0.003": 23.9698635533,
			"-0.002": 21.1194412275,
			"-0.001": 17.8977642465,
			"0.0": 22.6428952581,
			"0.001": 22.9509276208,
			"0.002": 15.1391658793,
			"0.003": 12.7762470828,
			"0.004": 13.8876436853,
			"0.005": 12.1296817657,
			"0.006": 13.8480448646,
			"0.007": 6.51101688344,
			"0.008": 5.77453876349,
			"0.009": 5.95058267187,
			"0.01": 8.15573768603,
			"0.011": 8.3644748815,
			"0.012": 6.97641597042,
			"0.013": 1.90133296145,
			"0.014": 1.30792704143,
			"0.015": 0.665347010902,
			"0.016": 0.617548668828,
			"0.017": 0.0892092504068,
			"0.018": 0.0,
			"0.019": 0.0,
			"0.02": 0.0,
			"0.021": 0.0,
			"0.022": 0.0,
			"0.023": 0.0,
			"0.024": 0.0,
			"0.025": 0.0
		}
	}
}
