{
	 "smiles": "BrC1=CC2=C(N3CN(C2)C2=C(C3)C=C(Br)C=C2Br)C(Br)=C1", 
	 "Tm": 498.33, 
	 "num_atms": 31, 
	 "gaussian": { 
		 "optdone": 1, 
		 "sigma_profile": "yes", 
		 "theory": "DFT", 
		 "functional": "B3LYP", 
		 "basiset": "6-31G**", 
		 "properties": { 
			 "R2extent": 16051.5909, 
			 "electric_dipole_moment_norm": 1.16073450453, 
			 "electric_quadrupole_moment_norm": 10.9190731195, 
			 "total_energy": -10972.7258349, 
			 "HOMO_LUMO_gap": 0.18525, 
			 "cosmo_polarized_energy": -9.36, 
			 "cosmo_cavitation_energy": 41.92, 
			 "cosmo_dispersion_energy": -31.69, 
			 "cosmo_repulsion_energy": 2.41, 
			 "cosmo_total_nonelectrostatic_energy": 12.64, 
			 "SMD_solvation_energy": -1.39 
		},
		"coords": [
			{
				"x": -4.5223028658,
				"y": -1.6838582338,
				"z": -3.4385233157,
				"element": "Br" 
			},
			{
				"x": -3.347502464,
				"y": -0.7945898612,
				"z": -2.2240444429,
				"element": "C" 
			},
			{
				"x": -2.0342647114,
				"y": -0.5368197723,
				"z": -2.597248998,
				"element": "C" 
			},
			{
				"x": -1.1692475005,
				"y": 0.1064009887,
				"z": -1.7078892652,
				"element": "C" 
			},
			{
				"x": -1.6276361233,
				"y": 0.5204618971,
				"z": -0.4398163147,
				"element": "C" 
			},
			{
				"x": -0.7706576983,
				"y": 1.2322614756,
				"z": 0.4522829392,
				"element": "N" 
			},
			{
				"x": 0.3493705587,
				"y": 1.8423101486,
				"z": -0.2648604532,
				"element": "C" 
			},
			{
				"x": 1.1130702339,
				"y": 0.8383277038,
				"z": -1.0062086779,
				"element": "N" 
			},
			{
				"x": 0.2758690292,
				"y": 0.3660735394,
				"z": -2.1223307237,
				"element": "C" 
			},
			{
				"x": 1.5853116113,
				"y": -0.1931900109,
				"z": -0.1403177625,
				"element": "C" 
			},
			{
				"x": 0.9872230691,
				"y": -0.412035295,
				"z": 1.118236671,
				"element": "C" 
			},
			{
				"x": -0.2170132264,
				"y": 0.4196785863,
				"z": 1.5490576091,
				"element": "C" 
			},
			{
				"x": 1.4957248355,
				"y": -1.384536639,
				"z": 1.9834543669,
				"element": "C" 
			},
			{
				"x": 2.5810630535,
				"y": -2.1600320934,
				"z": 1.5948894164,
				"element": "C" 
			},
			{
				"x": 3.2653551618,
				"y": -3.4947463588,
				"z": 2.776384484,
				"element": "Br" 
			},
			{
				"x": 3.1827870186,
				"y": -1.9799579884,
				"z": 0.3506948528,
				"element": "C" 
			},
			{
				"x": 2.684463828,
				"y": -0.9958644898,
				"z": -0.4966813928,
				"element": "C" 
			},
			{
				"x": 3.5645794801,
				"y": -0.7363634332,
				"z": -2.1718860462,
				"element": "Br" 
			},
			{
				"x": -2.9646725327,
				"y": 0.2448841124,
				"z": -0.0995372033,
				"element": "C" 
			},
			{
				"x": -3.6644552958,
				"y": 0.8024852188,
				"z": 1.587969323,
				"element": "Br" 
			},
			{
				"x": -3.825419193,
				"y": -0.4136574047,
				"z": -0.9714539748,
				"element": "C" 
			},
			{
				"x": -1.6755822085,
				"y": -0.8502892168,
				"z": -3.5725331498,
				"element": "H" 
			},
			{
				"x": 0.9982158996,
				"y": 2.3401049526,
				"z": 0.460159798,
				"element": "H" 
			},
			{
				"x": -0.0251251032,
				"y": 2.587445265,
				"z": -0.9712462478,
				"element": "H" 
			},
			{
				"x": 0.3035479702,
				"y": 1.12675426,
				"z": -2.9137079216,
				"element": "H" 
			},
			{
				"x": 0.71589517,
				"y": -0.5395601795,
				"z": -2.5450628211,
				"element": "H" 
			},
			{
				"x": -0.9999719334,
				"y": -0.2284163021,
				"z": 1.9483610331,
				"element": "H" 
			},
			{
				"x": 0.07298082,
				"y": 1.0982685757,
				"z": 2.3621277957,
				"element": "H" 
			},
			{
				"x": 1.0323063488,
				"y": -1.5456385584,
				"z": 2.9516413192,
				"element": "H" 
			},
			{
				"x": 4.0316983651,
				"y": -2.5807199783,
				"z": 0.0516591013,
				"element": "H" 
			},
			{
				"x": -4.8501115971,
				"y": -0.6098809085,
				"z": -0.6842699984,
				"element": "H" 
			}
		],
		 "valence_orbital": [ 
			{
				"type": "occ",
				"energy": -0.26529,
				"method": "rhf"
			},
			{
				"type": "occ",
				"energy": -0.25715,
				"method": "rhf"
			},
			{
				"type": "occ",
				"energy": -0.25607,
				"method": "rhf"
			},
			{
				"type": "occ",
				"energy": -0.23526,
				"method": "rhf"
			},
			{
				"type": "occ",
				"energy": -0.22237,
				"method": "rhf"
			},
			{
				"type": "unocc",
				"energy": -0.03712,
				"method": "rhf"
			},
			{
				"type": "unocc",
				"energy": -0.02765,
				"method": "rhf"
			},
			{
				"type": "unocc",
				"energy": -0.02538,
				"method": "rhf"
			},
			{
				"type": "unocc",
				"energy": -0.02423,
				"method": "rhf"
			},
			{
				"type": "unocc",
				"energy": -0.01761,
				"method": "rhf"
			}
		],
		"cosmo_sigma_profile": { 
			"-0.025": 0.0,
			"-0.024": 0.0,
			"-0.023": 0.0,
			"-0.022": 0.0,
			"-0.021": 0.0,
			"-0.02": 0.0,
			"-0.019": 0.0,
			"-0.018": 0.0,
			"-0.017": 0.0,
			"-0.016": 0.0,
			"-0.015": 0.0,
			"-0.014": 0.0,
			"-0.013": 0.0,
			"-0.012": 0.0,
			"-0.011": 0.0,
			"-0.01": 0.0,
			"-0.009": 0.0,
			"-0.008": 3.09925748223,
			"-0.007": 14.8559479234,
			"-0.006": 18.8249117609,
			"-0.005": 19.8114725273,
			"-0.004": 21.7846566996,
			"-0.003": 20.6484955298,
			"-0.002": 19.2134060824,
			"-0.001": 22.1487936173,
			"0.0": 25.5785725524,
			"0.001": 39.4463938609,
			"0.002": 51.5329854101,
			"0.003": 28.0569438187,
			"0.004": 38.7215334169,
			"0.005": 12.9958940398,
			"0.006": 2.54419096986,
			"0.007": 1.89878008609,
			"0.008": 2.01581783604,
			"0.009": 1.61674559093,
			"0.01": 1.63499726388,
			"0.011": 1.22686148966,
			"0.012": 0.918553306273,
			"0.013": 0.0697068927559,
			"0.014": 0.0,
			"0.015": 0.0,
			"0.016": 0.0,
			"0.017": 0.0,
			"0.018": 0.0,
			"0.019": 0.0,
			"0.02": 0.0,
			"0.021": 0.0,
			"0.022": 0.0,
			"0.023": 0.0,
			"0.024": 0.0,
			"0.025": 0.0
		}
	}
}
