{
	 "smiles": "CC(=O)OC1=CC=CC(C(O)=O)=C1OC(C)=O", 
	 "Tm": 422.15, 
	 "num_atms": 27, 
	 "gaussian": { 
		 "optdone": 1, 
		 "sigma_profile": "yes", 
		 "theory": "DFT", 
		 "functional": "B3LYP", 
		 "basiset": "6-31G**", 
		 "properties": { 
			 "R2extent": 4501.8619, 
			 "electric_dipole_moment_norm": 5.92246654106, 
			 "electric_quadrupole_moment_norm": 28.2238059159, 
			 "total_energy": -876.564334068, 
			 "HOMO_LUMO_gap": 0.21261, 
			 "cosmo_polarized_energy": -17.07, 
			 "cosmo_cavitation_energy": 32.94, 
			 "cosmo_dispersion_energy": -22.59, 
			 "cosmo_repulsion_energy": 1.78, 
			 "cosmo_total_nonelectrostatic_energy": 12.12, 
			 "SMD_solvation_energy": 9.16 
		},
		"coords": [
			{
				"x": -2.1992204244,
				"y": -2.4601099919,
				"z": 3.1781471163,
				"element": "C" 
			},
			{
				"x": -1.2087516922,
				"y": -1.4405114401,
				"z": 2.6786215955,
				"element": "C" 
			},
			{
				"x": -0.6700765656,
				"y": -0.5849765798,
				"z": 3.3310926303,
				"element": "O" 
			},
			{
				"x": -1.000688839,
				"y": -1.6262316394,
				"z": 1.3267780491,
				"element": "O" 
			},
			{
				"x": -0.1370533998,
				"y": -0.7933558462,
				"z": 0.628774433,
				"element": "C" 
			},
			{
				"x": 1.1574892649,
				"y": -0.5064210051,
				"z": 1.0552609063,
				"element": "C" 
			},
			{
				"x": 1.9708868164,
				"y": 0.3031011522,
				"z": 0.2622730042,
				"element": "C" 
			},
			{
				"x": 1.5014320172,
				"y": 0.8051890037,
				"z": -0.9474422094,
				"element": "C" 
			},
			{
				"x": 0.2151248634,
				"y": 0.4893989315,
				"z": -1.4054900315,
				"element": "C" 
			},
			{
				"x": -0.1960507427,
				"y": 1.0601968104,
				"z": -2.7406965936,
				"element": "C" 
			},
			{
				"x": -0.7938058873,
				"y": 0.2166435225,
				"z": -3.6023412494,
				"element": "O" 
			},
			{
				"x": 0.039164855,
				"y": 2.2062685281,
				"z": -3.0440746531,
				"element": "O" 
			},
			{
				"x": -0.6094064228,
				"y": -0.2942706536,
				"z": -0.5907016019,
				"element": "C" 
			},
			{
				"x": -1.9634010674,
				"y": -0.5122295072,
				"z": -0.8721912817,
				"element": "O" 
			},
			{
				"x": -2.3211132034,
				"y": -1.5570804113,
				"z": -1.6686483285,
				"element": "C" 
			},
			{
				"x": -3.799688765,
				"y": -1.8092182964,
				"z": -1.5915396103,
				"element": "C" 
			},
			{
				"x": -1.5272346098,
				"y": -2.1629563997,
				"z": -2.3584080508,
				"element": "O" 
			},
			{
				"x": -3.1688953886,
				"y": -2.3027753164,
				"z": 2.6959928273,
				"element": "H" 
			},
			{
				"x": -1.8651198447,
				"y": -3.4692317072,
				"z": 2.9215102656,
				"element": "H" 
			},
			{
				"x": -2.305103744,
				"y": -2.3602554222,
				"z": 4.25761242,
				"element": "H" 
			},
			{
				"x": 1.5097004112,
				"y": -0.8973842133,
				"z": 2.0008844756,
				"element": "H" 
			},
			{
				"x": 2.974902057,
				"y": 0.5433236529,
				"z": 0.5966372821,
				"element": "H" 
			},
			{
				"x": 2.1207976252,
				"y": 1.4460350962,
				"z": -1.565116254,
				"element": "H" 
			},
			{
				"x": -0.7910476957,
				"y": -0.7001638314,
				"z": -3.2613240705,
				"element": "H" 
			},
			{
				"x": -4.0741283739,
				"y": -2.085207252,
				"z": -0.5693633638,
				"element": "H" 
			},
			{
				"x": -4.3424931084,
				"y": -0.8928863191,
				"z": -1.8408282245,
				"element": "H" 
			},
			{
				"x": -4.0698181354,
				"y": -2.6063908652,
				"z": -2.2825194823,
				"element": "H" 
			}
		],
		 "valence_orbital": [ 
			{
				"type": "occ",
				"energy": -0.3092,
				"method": "rhf"
			},
			{
				"type": "occ",
				"energy": -0.2982,
				"method": "rhf"
			},
			{
				"type": "occ",
				"energy": -0.27936,
				"method": "rhf"
			},
			{
				"type": "occ",
				"energy": -0.26548,
				"method": "rhf"
			},
			{
				"type": "occ",
				"energy": -0.25825,
				"method": "rhf"
			},
			{
				"type": "unocc",
				"energy": -0.04564,
				"method": "rhf"
			},
			{
				"type": "unocc",
				"energy": -0.033,
				"method": "rhf"
			},
			{
				"type": "unocc",
				"energy": -0.0262,
				"method": "rhf"
			},
			{
				"type": "unocc",
				"energy": -0.00452,
				"method": "rhf"
			},
			{
				"type": "unocc",
				"energy": 0.03535,
				"method": "rhf"
			}
		],
		"cosmo_sigma_profile": { 
			"-0.025": 0.0,
			"-0.024": 0.0,
			"-0.023": 0.0,
			"-0.022": 0.0,
			"-0.021": 0.0,
			"-0.02": 0.0,
			"-0.019": 0.0,
			"-0.018": 0.0,
			"-0.017": 0.0,
			"-0.016": 0.0,
			"-0.015": 0.0,
			"-0.014": 0.0,
			"-0.013": 0.0,
			"-0.012": 0.0,
			"-0.011": 0.0,
			"-0.01": 0.392486521271,
			"-0.009": 0.604500153259,
			"-0.008": 4.44480274982,
			"-0.007": 16.0698146873,
			"-0.006": 21.9239695978,
			"-0.005": 21.3945400758,
			"-0.004": 19.0865317434,
			"-0.003": 24.9933016937,
			"-0.002": 20.2080941748,
			"-0.001": 16.0930390846,
			"0.0": 14.9868247509,
			"0.001": 15.6617791091,
			"0.002": 13.6014718721,
			"0.003": 10.1165547393,
			"0.004": 6.54201941079,
			"0.005": 5.74844435643,
			"0.006": 6.83930754008,
			"0.007": 6.03333224908,
			"0.008": 5.71462770762,
			"0.009": 7.47800522485,
			"0.01": 10.7166480452,
			"0.011": 9.42226681849,
			"0.012": 4.58093116087,
			"0.013": 0.847905371407,
			"0.014": 0.0,
			"0.015": 0.0,
			"0.016": 0.0,
			"0.017": 0.0,
			"0.018": 0.0,
			"0.019": 0.0,
			"0.02": 0.0,
			"0.021": 0.0,
			"0.022": 0.0,
			"0.023": 0.0,
			"0.024": 0.0,
			"0.025": 0.0
		}
	}
}
