{
	 "smiles": "CC1=C(Br)C=CC(NC(N)=O)=C1", 
	 "Tm": 459.15, 
	 "num_atms": 21, 
	 "gaussian": { 
		 "optdone": 1, 
		 "sigma_profile": "yes", 
		 "theory": "DFT", 
		 "functional": "B3LYP", 
		 "basiset": "6-31G**", 
		 "properties": { 
			 "R2extent": 5020.3876, 
			 "electric_dipole_moment_norm": 5.03388058261, 
			 "electric_quadrupole_moment_norm": 14.9602040955, 
			 "total_energy": -3066.44281313, 
			 "HOMO_LUMO_gap": 0.20532, 
			 "cosmo_polarized_energy": -25.63, 
			 "cosmo_cavitation_energy": 27.41, 
			 "cosmo_dispersion_energy": -20.68, 
			 "cosmo_repulsion_energy": 1.65, 
			 "cosmo_total_nonelectrostatic_energy": 8.37, 
			 "SMD_solvation_energy": 4.4 
		},
		"coords": [
			{
				"x": 1.6767938057,
				"y": -1.1186862649,
				"z": -0.9202806224,
				"element": "C" 
			},
			{
				"x": 0.4914646828,
				"y": -0.1973314659,
				"z": -1.0502680069,
				"element": "C" 
			},
			{
				"x": 0.3590941509,
				"y": 0.7191447549,
				"z": -2.1031118335,
				"element": "C" 
			},
			{
				"x": 1.7158925642,
				"y": 0.838689608,
				"z": -3.4534932702,
				"element": "Br" 
			},
			{
				"x": -0.7456971117,
				"y": 1.5604335255,
				"z": -2.1989760016,
				"element": "C" 
			},
			{
				"x": -1.7608393951,
				"y": 1.5175893523,
				"z": -1.2459766678,
				"element": "C" 
			},
			{
				"x": -1.658486826,
				"y": 0.6105004184,
				"z": -0.1820259383,
				"element": "C" 
			},
			{
				"x": -2.6341442597,
				"y": 0.4762988649,
				"z": 0.8240001324,
				"element": "N" 
			},
			{
				"x": -3.7864583348,
				"y": 1.2277824281,
				"z": 1.0002047338,
				"element": "C" 
			},
			{
				"x": -4.5244453538,
				"y": 0.8273336532,
				"z": 2.1106479696,
				"element": "N" 
			},
			{
				"x": -4.1219242451,
				"y": 2.1694412644,
				"z": 0.2976459539,
				"element": "O" 
			},
			{
				"x": -0.5367173691,
				"y": -0.2287971118,
				"z": -0.1041678787,
				"element": "C" 
			},
			{
				"x": 2.6112803937,
				"y": -0.5528338385,
				"z": -0.8437675138,
				"element": "H" 
			},
			{
				"x": 1.772788741,
				"y": -1.7667558806,
				"z": -1.7978298512,
				"element": "H" 
			},
			{
				"x": 1.5843561691,
				"y": -1.751301697,
				"z": -0.0337590715,
				"element": "H" 
			},
			{
				"x": -0.8163603564,
				"y": 2.2599991215,
				"z": -3.0243175148,
				"element": "H" 
			},
			{
				"x": -2.6146222738,
				"y": 2.1763045579,
				"z": -1.3116107915,
				"element": "H" 
			},
			{
				"x": -2.3913864163,
				"y": -0.1574923366,
				"z": 1.5715623165,
				"element": "H" 
			},
			{
				"x": -4.5375596496,
				"y": -0.1546660808,
				"z": 2.3504736306,
				"element": "H" 
			},
			{
				"x": -5.432651403,
				"y": 1.2689873872,
				"z": 2.1399116128,
				"element": "H" 
			},
			{
				"x": -0.4569775128,
				"y": -0.9349402602,
				"z": 0.7203386124,
				"element": "H" 
			}
		],
		 "valence_orbital": [ 
			{
				"type": "occ",
				"energy": -0.28191,
				"method": "rhf"
			},
			{
				"type": "occ",
				"energy": -0.27989,
				"method": "rhf"
			},
			{
				"type": "occ",
				"energy": -0.26459,
				"method": "rhf"
			},
			{
				"type": "occ",
				"energy": -0.25116,
				"method": "rhf"
			},
			{
				"type": "occ",
				"energy": -0.21371,
				"method": "rhf"
			},
			{
				"type": "unocc",
				"energy": -0.00839,
				"method": "rhf"
			},
			{
				"type": "unocc",
				"energy": -0.0055,
				"method": "rhf"
			},
			{
				"type": "unocc",
				"energy": 0.01543,
				"method": "rhf"
			},
			{
				"type": "unocc",
				"energy": 0.04776,
				"method": "rhf"
			},
			{
				"type": "unocc",
				"energy": 0.05848,
				"method": "rhf"
			}
		],
		"cosmo_sigma_profile": { 
			"-0.025": -21.8546633498,
			"-0.024": 0.0175787069295,
			"-0.023": 0.00622794396902,
			"-0.022": 0.143220153658,
			"-0.021": 0.270333831497,
			"-0.02": 0.136437769299,
			"-0.019": 0.079602260001,
			"-0.018": 6.6481564173,
			"-0.017": -3.33661236954,
			"-0.016": -1.65674133946,
			"-0.015": 36.4616486491,
			"-0.014": -30.9005363029,
			"-0.013": 4.17174836669,
			"-0.012": 2.58509144563,
			"-0.011": 4.35320461457,
			"-0.01": 5.45132045011,
			"-0.009": 2.94380077785,
			"-0.008": 3.01671246007,
			"-0.007": 2.69899859366,
			"-0.006": 3.82045805093,
			"-0.005": 4.51853759875,
			"-0.004": 3.64232713495,
			"-0.003": 8.28649808321,
			"-0.002": 10.7865947305,
			"-0.001": 10.6608029208,
			"0.0": 11.3483226803,
			"0.001": 20.0741181527,
			"0.002": 14.5420245804,
			"0.003": 39.8943796179,
			"0.004": 2.49567317328,
			"0.005": 27.1159251608,
			"0.006": 11.6056279928,
			"0.007": -0.603915013145,
			"0.008": 9.01315868334,
			"0.009": 8.32016689805,
			"0.01": -10.6968882806,
			"0.011": 2.23638219193,
			"0.012": 3.03583461021,
			"0.013": 2.70468137797,
			"0.014": 2.76847628061,
			"0.015": 0.255070954865,
			"0.016": 11.6158972268,
			"0.017": 7.40847290826,
			"0.018": -11.2169673119,
			"0.019": -6.74922824997,
			"0.02": -0.334792979154,
			"0.021": 8.85935258386,
			"0.022": 14.2178476178,
			"0.023": -17.1715214895,
			"0.024": -4.53092932096,
			"0.025": 0.0236668576507
		}
	}
}
