{
	 "smiles": "ClS(=O)(=O)C1=CC2=C(NC(=O)C=C2)C=C1", 
	 "Tm": 552.15, 
	 "num_atms": 21, 
	 "gaussian": { 
		 "optdone": 1, 
		 "sigma_profile": "yes", 
		 "theory": "DFT", 
		 "functional": "B3LYP", 
		 "basiset": "6-31G**", 
		 "properties": { 
			 "R2extent": 7842.6247, 
			 "electric_dipole_moment_norm": 2.59412918144, 
			 "electric_quadrupole_moment_norm": 35.8407251733, 
			 "total_energy": -1485.33043244, 
			 "HOMO_LUMO_gap": 0.15952, 
			 "cosmo_polarized_energy": -18.15, 
			 "cosmo_cavitation_energy": 29.55, 
			 "cosmo_dispersion_energy": -22.27, 
			 "cosmo_repulsion_energy": 1.68, 
			 "cosmo_total_nonelectrostatic_energy": 8.96, 
			 "SMD_solvation_energy": 4.24 
		},
		"coords": [
			{
				"x": 3.89191995,
				"y": -1.6986189792,
				"z": 3.288099439,
				"element": "Cl" 
			},
			{
				"x": 4.2627111694,
				"y": 0.3188317812,
				"z": 2.6882455619,
				"element": "S" 
			},
			{
				"x": 4.3617142309,
				"y": 1.0917682043,
				"z": 3.9201671763,
				"element": "O" 
			},
			{
				"x": 5.3460149704,
				"y": 0.2532218042,
				"z": 1.7152135401,
				"element": "O" 
			},
			{
				"x": 2.7479559139,
				"y": 0.7304584939,
				"z": 1.853804045,
				"element": "C" 
			},
			{
				"x": 1.7250390592,
				"y": 1.331292103,
				"z": 2.5750570724,
				"element": "C" 
			},
			{
				"x": 0.5296884585,
				"y": 1.6697831436,
				"z": 1.926058831,
				"element": "C" 
			},
			{
				"x": 0.3945449982,
				"y": 1.3837037064,
				"z": 0.5405955589,
				"element": "C" 
			},
			{
				"x": -0.7815817506,
				"y": 1.7202989836,
				"z": -0.081432378,
				"element": "N" 
			},
			{
				"x": -1.8949465422,
				"y": 2.3345068833,
				"z": 0.5202661078,
				"element": "C" 
			},
			{
				"x": -2.8916830553,
				"y": 2.585890167,
				"z": -0.1406119782,
				"element": "O" 
			},
			{
				"x": -1.7201925132,
				"y": 2.6174004647,
				"z": 1.9464723916,
				"element": "C" 
			},
			{
				"x": -0.578128369,
				"y": 2.3033925831,
				"z": 2.6011514413,
				"element": "C" 
			},
			{
				"x": 1.4486294547,
				"y": 0.7735410886,
				"z": -0.1679978488,
				"element": "C" 
			},
			{
				"x": 2.6234327539,
				"y": 0.4451847263,
				"z": 0.4842604277,
				"element": "C" 
			},
			{
				"x": 1.8527234105,
				"y": 1.5464421847,
				"z": 3.6307374445,
				"element": "H" 
			},
			{
				"x": -0.900704047,
				"y": 1.5257290619,
				"z": -1.0687788154,
				"element": "H" 
			},
			{
				"x": -2.5594940311,
				"y": 3.0918509975,
				"z": 2.4410791248,
				"element": "H" 
			},
			{
				"x": -0.4730192187,
				"y": 2.524094757,
				"z": 3.6602394288,
				"element": "H" 
			},
			{
				"x": 1.3359681942,
				"y": 0.5672550057,
				"z": -1.2281426867,
				"element": "H" 
			},
			{
				"x": 3.4460069635,
				"y": -0.0158271608,
				"z": -0.0505838841,
				"element": "H" 
			}
		],
		 "valence_orbital": [ 
			{
				"type": "occ",
				"energy": -0.32739,
				"method": "rhf"
			},
			{
				"type": "occ",
				"energy": -0.31631,
				"method": "rhf"
			},
			{
				"type": "occ",
				"energy": -0.2826,
				"method": "rhf"
			},
			{
				"type": "occ",
				"energy": -0.27757,
				"method": "rhf"
			},
			{
				"type": "occ",
				"energy": -0.2533,
				"method": "rhf"
			},
			{
				"type": "unocc",
				"energy": -0.09378,
				"method": "rhf"
			},
			{
				"type": "unocc",
				"energy": -0.08441,
				"method": "rhf"
			},
			{
				"type": "unocc",
				"energy": -0.04746,
				"method": "rhf"
			},
			{
				"type": "unocc",
				"energy": -0.0191,
				"method": "rhf"
			},
			{
				"type": "unocc",
				"energy": 0.03927,
				"method": "rhf"
			}
		],
		"cosmo_sigma_profile": { 
			"-0.025": 0.0,
			"-0.024": 0.0,
			"-0.023": 0.0,
			"-0.022": 0.0,
			"-0.021": 0.0,
			"-0.02": 0.0,
			"-0.019": 0.0,
			"-0.018": 0.0,
			"-0.017": 0.163157324935,
			"-0.016": 0.993185041577,
			"-0.015": 1.53977178722,
			"-0.014": 1.4475851471,
			"-0.013": 1.21082326863,
			"-0.012": 1.27047690472,
			"-0.011": 1.18814735772,
			"-0.01": 2.36066671963,
			"-0.009": 6.17434013075,
			"-0.008": 8.82157220478,
			"-0.007": 8.83944394811,
			"-0.006": 9.47849939621,
			"-0.005": 7.8116819168,
			"-0.004": 10.6620016839,
			"-0.003": 11.4950185337,
			"-0.002": 17.7245202172,
			"-0.001": 24.7009823483,
			"0.0": 24.1858431314,
			"0.001": 15.5312589354,
			"0.002": 10.7095124299,
			"0.003": 14.8490127834,
			"0.004": 13.0596748159,
			"0.005": 4.42709757775,
			"0.006": 4.16151832724,
			"0.007": 6.07844198995,
			"0.008": 10.9620677301,
			"0.009": 6.86727132942,
			"0.01": 1.41246057138,
			"0.011": 1.38543900344,
			"0.012": 3.1997970435,
			"0.013": 5.77725259483,
			"0.014": 2.22763283869,
			"0.015": 0.0433414323234,
			"0.016": 0.0,
			"0.017": 0.0,
			"0.018": 0.0,
			"0.019": 0.0,
			"0.02": 0.0,
			"0.021": 0.0,
			"0.022": 0.0,
			"0.023": 0.0,
			"0.024": 0.0,
			"0.025": 0.0
		}
	}
}
