{
	 "smiles": "NC1=CC=C(C=C1)N1CCSCC1", 
	 "Tm": 383.15, 
	 "num_atms": 27, 
	 "gaussian": { 
		 "optdone": 1, 
		 "sigma_profile": "yes", 
		 "theory": "DFT", 
		 "functional": "B3LYP", 
		 "basiset": "6-31G**", 
		 "properties": { 
			 "R2extent": 3777.6068, 
			 "electric_dipole_moment_norm": 1.93813448966, 
			 "electric_quadrupole_moment_norm": 15.2564313999, 
			 "total_energy": -897.185853232, 
			 "HOMO_LUMO_gap": 0.17354, 
			 "cosmo_polarized_energy": -11.83, 
			 "cosmo_cavitation_energy": 29.46, 
			 "cosmo_dispersion_energy": -22.49, 
			 "cosmo_repulsion_energy": 1.72, 
			 "cosmo_total_nonelectrostatic_energy": 8.68, 
			 "SMD_solvation_energy": 2.8 
		},
		"coords": [
			{
				"x": -0.9274932253,
				"y": -2.4263889216,
				"z": 5.1718208382,
				"element": "N" 
			},
			{
				"x": -0.8074251418,
				"y": -1.6593725325,
				"z": 4.0004057554,
				"element": "C" 
			},
			{
				"x": -1.2434059548,
				"y": -2.1440309505,
				"z": 2.7619968308,
				"element": "C" 
			},
			{
				"x": -1.1677877571,
				"y": -1.3623540908,
				"z": 1.6086998977,
				"element": "C" 
			},
			{
				"x": -0.6708209829,
				"y": -0.0468925156,
				"z": 1.6404816407,
				"element": "C" 
			},
			{
				"x": -0.2518831238,
				"y": 0.4384493327,
				"z": 2.8957902287,
				"element": "C" 
			},
			{
				"x": -0.3078437601,
				"y": -0.3476992817,
				"z": 4.0403713791,
				"element": "C" 
			},
			{
				"x": -0.6462079836,
				"y": 0.7980446915,
				"z": 0.5029156198,
				"element": "N" 
			},
			{
				"x": -1.3160270714,
				"y": 0.3795651016,
				"z": -0.7227037201,
				"element": "C" 
			},
			{
				"x": -0.4655033636,
				"y": -0.499125285,
				"z": -1.6554923149,
				"element": "C" 
			},
			{
				"x": 1.0680224696,
				"y": 0.3613955871,
				"z": -2.1925400358,
				"element": "S" 
			},
			{
				"x": 1.637452947,
				"y": 0.8998778435,
				"z": -0.5307762765,
				"element": "C" 
			},
			{
				"x": 0.5333287484,
				"y": 1.626512778,
				"z": 0.2520272361,
				"element": "C" 
			},
			{
				"x": -0.2576957879,
				"y": -2.1863312919,
				"z": 5.8911985737,
				"element": "H" 
			},
			{
				"x": -0.9324309047,
				"y": -3.4252773248,
				"z": 5.010280163,
				"element": "H" 
			},
			{
				"x": -1.6406359134,
				"y": -3.1541112988,
				"z": 2.6902917488,
				"element": "H" 
			},
			{
				"x": -1.4990118535,
				"y": -1.8036793935,
				"z": 0.6759854325,
				"element": "H" 
			},
			{
				"x": 0.1016800872,
				"y": 1.4598977063,
				"z": 2.99055449,
				"element": "H" 
			},
			{
				"x": 0.0198217919,
				"y": 0.0719981784,
				"z": 4.9888545694,
				"element": "H" 
			},
			{
				"x": -1.6018945027,
				"y": 1.2864115376,
				"z": -1.2711834086,
				"element": "H" 
			},
			{
				"x": -2.2417661282,
				"y": -0.1408575432,
				"z": -0.4573769033,
				"element": "H" 
			},
			{
				"x": -1.0160675957,
				"y": -0.7288392159,
				"z": -2.5728290177,
				"element": "H" 
			},
			{
				"x": -0.1951564247,
				"y": -1.4437504954,
				"z": -1.174435836,
				"element": "H" 
			},
			{
				"x": 2.4871967149,
				"y": 1.5660625227,
				"z": -0.7084792466,
				"element": "H" 
			},
			{
				"x": 1.9948815087,
				"y": 0.0322645138,
				"z": 0.0340827527,
				"element": "H" 
			},
			{
				"x": 0.2176847826,
				"y": 2.5136987025,
				"z": -0.3110658678,
				"element": "H" 
			},
			{
				"x": 0.9435884248,
				"y": 1.9748316454,
				"z": 1.2022254706,
				"element": "H" 
			}
		],
		 "valence_orbital": [ 
			{
				"type": "occ",
				"energy": -0.30029,
				"method": "rhf"
			},
			{
				"type": "occ",
				"energy": -0.24482,
				"method": "rhf"
			},
			{
				"type": "occ",
				"energy": -0.2416,
				"method": "rhf"
			},
			{
				"type": "occ",
				"energy": -0.21757,
				"method": "rhf"
			},
			{
				"type": "occ",
				"energy": -0.16934,
				"method": "rhf"
			},
			{
				"type": "unocc",
				"energy": 0.0042,
				"method": "rhf"
			},
			{
				"type": "unocc",
				"energy": 0.02921,
				"method": "rhf"
			},
			{
				"type": "unocc",
				"energy": 0.04034,
				"method": "rhf"
			},
			{
				"type": "unocc",
				"energy": 0.07716,
				"method": "rhf"
			},
			{
				"type": "unocc",
				"energy": 0.08591,
				"method": "rhf"
			}
		],
		"cosmo_sigma_profile": { 
			"-0.025": 0.0,
			"-0.024": 0.0,
			"-0.023": 0.0,
			"-0.022": 0.0,
			"-0.021": 0.0,
			"-0.02": 0.0,
			"-0.019": 0.0,
			"-0.018": 0.0,
			"-0.017": 0.0,
			"-0.016": 0.0,
			"-0.015": 0.0,
			"-0.014": 0.0,
			"-0.013": 0.0,
			"-0.012": 0.820569864375,
			"-0.011": 2.82728712721,
			"-0.01": 2.56925849522,
			"-0.009": 2.68143123533,
			"-0.008": 2.91299208693,
			"-0.007": 4.02471870375,
			"-0.006": 10.3767208229,
			"-0.005": 17.8720352554,
			"-0.004": 22.9897156794,
			"-0.003": 24.9856361988,
			"-0.002": 21.9847399055,
			"-0.001": 16.0116264997,
			"0.0": 11.8842106216,
			"0.001": 9.02011838139,
			"0.002": 8.13282402825,
			"0.003": 9.4325662326,
			"0.004": 8.86498469188,
			"0.005": 9.48922891767,
			"0.006": 11.0023581977,
			"0.007": 13.3966369342,
			"0.008": 8.22166867736,
			"0.009": 3.9379685557,
			"0.01": 3.10893542902,
			"0.011": 3.00601825694,
			"0.012": 1.38404735417,
			"0.013": 0.717490480449,
			"0.014": 0.778077752051,
			"0.015": 0.545745443901,
			"0.016": 0.476356688121,
			"0.017": 0.0163836413513,
			"0.018": 0.0,
			"0.019": 0.0,
			"0.02": 0.0,
			"0.021": 0.0,
			"0.022": 0.0,
			"0.023": 0.0,
			"0.024": 0.0,
			"0.025": 0.0
		}
	}
}
