{
	 "smiles": "CN1CCN(CC(N)C2=CC=CC=C2)CC1", 
	 "Tm": 332.15, 
	 "num_atms": 37, 
	 "gaussian": { 
		 "optdone": 1, 
		 "sigma_profile": "yes", 
		 "theory": "DFT", 
		 "functional": "B3LYP", 
		 "basiset": "6-31G**", 
		 "properties": { 
			 "R2extent": 4645.9661, 
			 "electric_dipole_moment_norm": 1.74029557834, 
			 "electric_quadrupole_moment_norm": 9.66625155632, 
			 "total_energy": -672.265170064, 
			 "HOMO_LUMO_gap": 0.18496, 
			 "cosmo_polarized_energy": -9.77, 
			 "cosmo_cavitation_energy": 36.06, 
			 "cosmo_dispersion_energy": -25.31, 
			 "cosmo_repulsion_energy": 1.96, 
			 "cosmo_total_nonelectrostatic_energy": 12.72, 
			 "SMD_solvation_energy": 1.48 
		},
		"coords": [
			{
				"x": 1.1040163522,
				"y": 2.6790261501,
				"z": 3.4008410866,
				"element": "C" 
			},
			{
				"x": 1.8278542921,
				"y": 2.0366456033,
				"z": 2.3099090953,
				"element": "N" 
			},
			{
				"x": 1.2955185112,
				"y": 2.3458297415,
				"z": 0.9759269642,
				"element": "C" 
			},
			{
				"x": 0.0226310158,
				"y": 1.5546799275,
				"z": 0.6177580755,
				"element": "C" 
			},
			{
				"x": 0.1961616233,
				"y": 0.0972438995,
				"z": 0.774704232,
				"element": "N" 
			},
			{
				"x": 0.9040711704,
				"y": -0.5650172424,
				"z": -0.3266480282,
				"element": "C" 
			},
			{
				"x": -0.0764705811,
				"y": -1.1034357905,
				"z": -1.4179882098,
				"element": "C" 
			},
			{
				"x": -1.1683946977,
				"y": -1.88182803,
				"z": -0.8276999498,
				"element": "N" 
			},
			{
				"x": -0.6030672399,
				"y": -0.0030014253,
				"z": -2.3404149497,
				"element": "C" 
			},
			{
				"x": -1.9703034075,
				"y": 0.27428735,
				"z": -2.4490960356,
				"element": "C" 
			},
			{
				"x": -2.4282154309,
				"y": 1.2891367132,
				"z": -3.2934134995,
				"element": "C" 
			},
			{
				"x": -1.5279199371,
				"y": 2.0360494477,
				"z": -4.0532363264,
				"element": "C" 
			},
			{
				"x": -0.1618309458,
				"y": 1.755462868,
				"z": -3.9679353645,
				"element": "C" 
			},
			{
				"x": 0.2927191917,
				"y": 0.745868114,
				"z": -3.1203078036,
				"element": "C" 
			},
			{
				"x": 0.7102484032,
				"y": -0.2046806892,
				"z": 2.1201280076,
				"element": "C" 
			},
			{
				"x": 1.9848259952,
				"y": 0.5863343827,
				"z": 2.4701671411,
				"element": "C" 
			},
			{
				"x": 1.6184685404,
				"y": 2.4697294451,
				"z": 4.3451529576,
				"element": "H" 
			},
			{
				"x": 1.1164025868,
				"y": 3.7637690452,
				"z": 3.2486474936,
				"element": "H" 
			},
			{
				"x": 0.0491804661,
				"y": 2.3745825773,
				"z": 3.5235288125,
				"element": "H" 
			},
			{
				"x": 2.0824287595,
				"y": 2.1208109526,
				"z": 0.2426183529,
				"element": "H" 
			},
			{
				"x": 1.1030423511,
				"y": 3.4233606906,
				"z": 0.9125616678,
				"element": "H" 
			},
			{
				"x": -0.287909732,
				"y": 1.7705230146,
				"z": -0.4068702902,
				"element": "H" 
			},
			{
				"x": -0.803015731,
				"y": 1.8639822833,
				"z": 1.2724485198,
				"element": "H" 
			},
			{
				"x": 1.6743874058,
				"y": 0.068930524,
				"z": -0.7920711726,
				"element": "H" 
			},
			{
				"x": 1.4294802401,
				"y": -1.4348684489,
				"z": 0.0848647767,
				"element": "H" 
			},
			{
				"x": 0.5146802146,
				"y": -1.7832047749,
				"z": -2.0472061994,
				"element": "H" 
			},
			{
				"x": -1.4412172095,
				"y": -1.3956660871,
				"z": 0.0282401476,
				"element": "H" 
			},
			{
				"x": -0.8127271571,
				"y": -2.7884861602,
				"z": -0.5346405742,
				"element": "H" 
			},
			{
				"x": -2.6692846867,
				"y": -0.3287940154,
				"z": -1.8807673558,
				"element": "H" 
			},
			{
				"x": -3.4941325838,
				"y": 1.4902577336,
				"z": -3.3613546796,
				"element": "H" 
			},
			{
				"x": -1.8850046021,
				"y": 2.8223360517,
				"z": -4.7123910751,
				"element": "H" 
			},
			{
				"x": 0.549331659,
				"y": 2.3193415548,
				"z": -4.5656564897,
				"element": "H" 
			},
			{
				"x": 1.3584617755,
				"y": 0.5324651959,
				"z": -3.0723852158,
				"element": "H" 
			},
			{
				"x": -0.0819809019,
				"y": 0.037574404,
				"z": 2.8418173165,
				"element": "H" 
			},
			{
				"x": 0.8911516463,
				"y": -1.2826493404,
				"z": 2.2002654408,
				"element": "H" 
			},
			{
				"x": 2.2984063491,
				"y": 0.3750669022,
				"z": 3.4997924037,
				"element": "H" 
			},
			{
				"x": 2.8027062948,
				"y": 0.2606374319,
				"z": 1.8114107276,
				"element": "H" 
			}
		],
		 "valence_orbital": [ 
			{
				"type": "occ",
				"energy": -0.24194,
				"method": "rhf"
			},
			{
				"type": "occ",
				"energy": -0.23938,
				"method": "rhf"
			},
			{
				"type": "occ",
				"energy": -0.23354,
				"method": "rhf"
			},
			{
				"type": "occ",
				"energy": -0.22887,
				"method": "rhf"
			},
			{
				"type": "occ",
				"energy": -0.18046,
				"method": "rhf"
			},
			{
				"type": "unocc",
				"energy": 0.0045,
				"method": "rhf"
			},
			{
				"type": "unocc",
				"energy": 0.01041,
				"method": "rhf"
			},
			{
				"type": "unocc",
				"energy": 0.06968,
				"method": "rhf"
			},
			{
				"type": "unocc",
				"energy": 0.09203,
				"method": "rhf"
			},
			{
				"type": "unocc",
				"energy": 0.09911,
				"method": "rhf"
			}
		],
		"cosmo_sigma_profile": { 
			"-0.025": 0.0,
			"-0.024": 0.0,
			"-0.023": 0.0,
			"-0.022": 0.0,
			"-0.021": 0.0,
			"-0.02": 0.0,
			"-0.019": 0.0,
			"-0.018": 0.0,
			"-0.017": 0.0,
			"-0.016": 0.0,
			"-0.015": 0.0,
			"-0.014": 0.0,
			"-0.013": 0.0,
			"-0.012": 0.0,
			"-0.011": 0.0,
			"-0.01": 0.246120624703,
			"-0.009": 1.45087908716,
			"-0.008": 1.34916558086,
			"-0.007": 0.92727841246,
			"-0.006": 2.56321447275,
			"-0.005": 11.0782707632,
			"-0.004": 24.981395605,
			"-0.003": 42.3396901322,
			"-0.002": 40.7697369305,
			"-0.001": 34.2551377675,
			"0.0": 28.2114485671,
			"0.001": 15.1525392711,
			"0.002": 12.0948143658,
			"0.003": 12.2008850627,
			"0.004": 12.9739172573,
			"0.005": 10.9372058483,
			"0.006": 9.24792597598,
			"0.007": 5.12987369397,
			"0.008": 2.3268989236,
			"0.009": 1.81700939094,
			"0.01": 1.6543481959,
			"0.011": 1.39097358256,
			"0.012": 1.51062354852,
			"0.013": 1.21597850007,
			"0.014": 0.645035938167,
			"0.015": 1.3688102011,
			"0.016": 1.34759051315,
			"0.017": 0.962751558101,
			"0.018": 0.308207309334,
			"0.019": 0.0,
			"0.02": 0.0,
			"0.021": 0.0,
			"0.022": 0.0,
			"0.023": 0.0,
			"0.024": 0.0,
			"0.025": 0.0
		}
	}
}
