{
	 "smiles": "COCCOC1=CC(CNC(=O)CCl)=CC=C1", 
	 "Tm": 364.15, 
	 "num_atms": 33, 
	 "gaussian": { 
		 "optdone": 1, 
		 "sigma_profile": "yes", 
		 "theory": "DFT", 
		 "functional": "B3LYP", 
		 "basiset": "6-31G**", 
		 "properties": { 
			 "R2extent": 5704.1062, 
			 "electric_dipole_moment_norm": 3.27848166382, 
			 "electric_quadrupole_moment_norm": 17.6627061041, 
			 "total_energy": -1207.52342614, 
			 "HOMO_LUMO_gap": 0.22815, 
			 "cosmo_polarized_energy": -14.71, 
			 "cosmo_cavitation_energy": 37.77, 
			 "cosmo_dispersion_energy": -25.07, 
			 "cosmo_repulsion_energy": 1.95, 
			 "cosmo_total_nonelectrostatic_energy": 14.65, 
			 "SMD_solvation_energy": 6.6 
		},
		"coords": [
			{
				"x": -2.8283725091,
				"y": -2.9265547045,
				"z": 1.6270805646,
				"element": "C" 
			},
			{
				"x": -2.1981080564,
				"y": -1.9211663127,
				"z": 0.8511935371,
				"element": "O" 
			},
			{
				"x": -1.9774692751,
				"y": -0.6967435446,
				"z": 1.528847951,
				"element": "C" 
			},
			{
				"x": -1.0621129247,
				"y": -0.7754357102,
				"z": 2.756930933,
				"element": "C" 
			},
			{
				"x": 0.1695467821,
				"y": -1.465681977,
				"z": 2.5445713594,
				"element": "O" 
			},
			{
				"x": 1.0182965518,
				"y": -0.9212814026,
				"z": 1.5971663131,
				"element": "C" 
			},
			{
				"x": 0.9678489985,
				"y": -1.3996364955,
				"z": 0.290329525,
				"element": "C" 
			},
			{
				"x": 1.8243095309,
				"y": -0.8780525397,
				"z": -0.6871013645,
				"element": "C" 
			},
			{
				"x": 1.6870208776,
				"y": -1.3640707106,
				"z": -2.1204443541,
				"element": "C" 
			},
			{
				"x": 0.3190158577,
				"y": -1.2160500034,
				"z": -2.6130830762,
				"element": "N" 
			},
			{
				"x": -0.5606790345,
				"y": -2.2483753697,
				"z": -2.5820962488,
				"element": "C" 
			},
			{
				"x": -0.2613853532,
				"y": -3.4153106181,
				"z": -2.3560869872,
				"element": "O" 
			},
			{
				"x": -2.0442028513,
				"y": -1.9300625915,
				"z": -2.7663765288,
				"element": "C" 
			},
			{
				"x": -2.4481013316,
				"y": -0.285657587,
				"z": -3.4342186916,
				"element": "Cl" 
			},
			{
				"x": 2.7511049859,
				"y": 0.1050597257,
				"z": -0.3269460586,
				"element": "C" 
			},
			{
				"x": 2.8176293524,
				"y": 0.5619797443,
				"z": 0.9932164002,
				"element": "C" 
			},
			{
				"x": 1.9477310822,
				"y": 0.059442734,
				"z": 1.9605538401,
				"element": "C" 
			},
			{
				"x": -3.0546897755,
				"y": -3.7517996006,
				"z": 0.9486009395,
				"element": "H" 
			},
			{
				"x": -2.1755249514,
				"y": -3.30108638,
				"z": 2.4257788254,
				"element": "H" 
			},
			{
				"x": -3.7677875839,
				"y": -2.564170598,
				"z": 2.072972334,
				"element": "H" 
			},
			{
				"x": -2.9326340623,
				"y": -0.2513113266,
				"z": 1.8589751059,
				"element": "H" 
			},
			{
				"x": -1.5408383965,
				"y": -0.0306245759,
				"z": 0.7798074538,
				"element": "H" 
			},
			{
				"x": -0.8826588506,
				"y": 0.2541778548,
				"z": 3.1047736103,
				"element": "H" 
			},
			{
				"x": -1.5453379668,
				"y": -1.3192696844,
				"z": 3.5733361434,
				"element": "H" 
			},
			{
				"x": 0.2399592769,
				"y": -2.1660377189,
				"z": 0.0488806687,
				"element": "H" 
			},
			{
				"x": 1.9216343028,
				"y": -2.4294150535,
				"z": -2.1958039686,
				"element": "H" 
			},
			{
				"x": 2.3690880162,
				"y": -0.8175368885,
				"z": -2.7793575133,
				"element": "H" 
			},
			{
				"x": -0.055703999,
				"y": -0.2826935312,
				"z": -2.7153470529,
				"element": "H" 
			},
			{
				"x": -2.5122013253,
				"y": -1.9917823621,
				"z": -1.7810022877,
				"element": "H" 
			},
			{
				"x": -2.4821393765,
				"y": -2.6704733446,
				"z": -3.433529913,
				"element": "H" 
			},
			{
				"x": 3.4206001983,
				"y": 0.5182184001,
				"z": -1.0772680862,
				"element": "H" 
			},
			{
				"x": 3.5455510889,
				"y": 1.3209104777,
				"z": 1.2657189095,
				"element": "H" 
			},
			{
				"x": 1.986410721,
				"y": 0.4055916947,
				"z": 2.9888277175,
				"element": "H" 
			}
		],
		 "valence_orbital": [ 
			{
				"type": "occ",
				"energy": -0.26791,
				"method": "rhf"
			},
			{
				"type": "occ",
				"energy": -0.25958,
				"method": "rhf"
			},
			{
				"type": "occ",
				"energy": -0.25345,
				"method": "rhf"
			},
			{
				"type": "occ",
				"energy": -0.24376,
				"method": "rhf"
			},
			{
				"type": "occ",
				"energy": -0.23942,
				"method": "rhf"
			},
			{
				"type": "unocc",
				"energy": -0.01127,
				"method": "rhf"
			},
			{
				"type": "unocc",
				"energy": -0.0002,
				"method": "rhf"
			},
			{
				"type": "unocc",
				"energy": 0.01304,
				"method": "rhf"
			},
			{
				"type": "unocc",
				"energy": 0.0314,
				"method": "rhf"
			},
			{
				"type": "unocc",
				"energy": 0.07428,
				"method": "rhf"
			}
		],
		"cosmo_sigma_profile": { 
			"-0.025": 0.0,
			"-0.024": 0.0,
			"-0.023": 0.0,
			"-0.022": 0.0,
			"-0.021": 0.0,
			"-0.02": 0.0,
			"-0.019": 0.0,
			"-0.018": 0.0,
			"-0.017": 0.0,
			"-0.016": 0.0,
			"-0.015": 0.0,
			"-0.014": 0.0,
			"-0.013": 0.462015302727,
			"-0.012": 0.517053782705,
			"-0.011": 0.767832978299,
			"-0.01": 1.01061579112,
			"-0.009": 1.41762179788,
			"-0.008": 2.66609710325,
			"-0.007": 3.52241331866,
			"-0.006": 12.1883930159,
			"-0.005": 28.6867205296,
			"-0.004": 32.6408589264,
			"-0.003": 28.7721997501,
			"-0.002": 24.7878575136,
			"-0.001": 19.5531451321,
			"0.0": 15.9553787563,
			"0.001": 19.4464724095,
			"0.002": 17.0536384505,
			"0.003": 17.8722441689,
			"0.004": 20.0076553245,
			"0.005": 19.7565110444,
			"0.006": 9.27445101497,
			"0.007": 4.14113378413,
			"0.008": 2.53682857278,
			"0.009": 2.19701188173,
			"0.01": 2.20447625711,
			"0.011": 3.61518565094,
			"0.012": 2.98905513672,
			"0.013": 4.98674072524,
			"0.014": 1.34512060589,
			"0.015": 0.0,
			"0.016": 0.0,
			"0.017": 0.0,
			"0.018": 0.0,
			"0.019": 0.0,
			"0.02": 0.0,
			"0.021": 0.0,
			"0.022": 0.0,
			"0.023": 0.0,
			"0.024": 0.0,
			"0.025": 0.0
		}
	}
}
