{
	 "smiles": "COC1=CC=C2C=C(C=CC2=C1)C(O)C(C)O", 
	 "Tm": 388.15, 
	 "num_atms": 33, 
	 "gaussian": { 
		 "optdone": 1, 
		 "sigma_profile": "yes", 
		 "theory": "DFT", 
		 "functional": "B3LYP", 
		 "basiset": "6-31G**", 
		 "properties": { 
			 "R2extent": 5820.1424, 
			 "electric_dipole_moment_norm": 2.97519076699, 
			 "electric_quadrupole_moment_norm": 21.9123744371, 
			 "total_energy": -768.796378265, 
			 "HOMO_LUMO_gap": 0.17292, 
			 "cosmo_polarized_energy": -14.47, 
			 "cosmo_cavitation_energy": 35.44, 
			 "cosmo_dispersion_energy": -25.5, 
			 "cosmo_repulsion_energy": 1.97, 
			 "cosmo_total_nonelectrostatic_energy": 11.92, 
			 "SMD_solvation_energy": 6.41 
		},
		"coords": [
			{
				"x": 5.9266034273,
				"y": 0.2745199293,
				"z": 0.6203640768,
				"element": "C" 
			},
			{
				"x": 5.0739696423,
				"y": 0.0639353911,
				"z": 1.7336000526,
				"element": "O" 
			},
			{
				"x": 3.7305330869,
				"y": 0.220820099,
				"z": 1.5497065346,
				"element": "C" 
			},
			{
				"x": 2.9456770499,
				"y": -0.0040940189,
				"z": 2.7147243249,
				"element": "C" 
			},
			{
				"x": 1.5809620682,
				"y": 0.1213885785,
				"z": 2.6645580414,
				"element": "C" 
			},
			{
				"x": 0.9177542906,
				"y": 0.4747790977,
				"z": 1.4560618849,
				"element": "C" 
			},
			{
				"x": -0.4918539286,
				"y": 0.6140660194,
				"z": 1.372785442,
				"element": "C" 
			},
			{
				"x": -1.123490013,
				"y": 0.9570924403,
				"z": 0.1938897793,
				"element": "C" 
			},
			{
				"x": -0.3264385953,
				"y": 1.1870379176,
				"z": -0.9614627906,
				"element": "C" 
			},
			{
				"x": 1.0426937526,
				"y": 1.0606280591,
				"z": -0.9151006844,
				"element": "C" 
			},
			{
				"x": 1.7099962202,
				"y": 0.7015929954,
				"z": 0.2875350134,
				"element": "C" 
			},
			{
				"x": 3.1243098616,
				"y": 0.5677499977,
				"z": 0.3581793358,
				"element": "C" 
			},
			{
				"x": -2.6383260053,
				"y": 1.104152491,
				"z": 0.1479020014,
				"element": "C" 
			},
			{
				"x": -3.0441034007,
				"y": 2.3682899291,
				"z": -0.3626200228,
				"element": "O" 
			},
			{
				"x": -3.3686749717,
				"y": -0.0013543596,
				"z": -0.647233191,
				"element": "C" 
			},
			{
				"x": -2.9764854624,
				"y": -1.4247699225,
				"z": -0.2690330745,
				"element": "C" 
			},
			{
				"x": -3.0911783,
				"y": 0.2748526985,
				"z": -2.0296363689,
				"element": "O" 
			},
			{
				"x": 5.8467734254,
				"y": 1.3009133796,
				"z": 0.2391769581,
				"element": "H" 
			},
			{
				"x": 6.9424636675,
				"y": 0.1016042218,
				"z": 0.9791667522,
				"element": "H" 
			},
			{
				"x": 5.7062960723,
				"y": -0.4264955385,
				"z": -0.1953155488,
				"element": "H" 
			},
			{
				"x": 3.4605164671,
				"y": -0.2737943795,
				"z": 3.6310845722,
				"element": "H" 
			},
			{
				"x": 0.9872286649,
				"y": -0.0504286195,
				"z": 3.5588203234,
				"element": "H" 
			},
			{
				"x": -1.0803020889,
				"y": 0.4499194717,
				"z": 2.2738920794,
				"element": "H" 
			},
			{
				"x": -0.8117542377,
				"y": 1.4559574758,
				"z": -1.8930010685,
				"element": "H" 
			},
			{
				"x": 1.6357861569,
				"y": 1.2387956081,
				"z": -1.8089390771,
				"element": "H" 
			},
			{
				"x": 3.7050648076,
				"y": 0.7451192388,
				"z": -0.539963432,
				"element": "H" 
			},
			{
				"x": -3.0098520191,
				"y": 1.0507894118,
				"z": 1.1787260009,
				"element": "H" 
			},
			{
				"x": -3.0960467329,
				"y": 2.2513704998,
				"z": -1.3235148566,
				"element": "H" 
			},
			{
				"x": -4.443275265,
				"y": 0.1499011566,
				"z": -0.46011534,
				"element": "H" 
			},
			{
				"x": -3.1593545924,
				"y": -1.6105472371,
				"z": 0.794916468,
				"element": "H" 
			},
			{
				"x": -3.5687861388,
				"y": -2.1510395068,
				"z": -0.8375165253,
				"element": "H" 
			},
			{
				"x": -1.9181923738,
				"y": -1.6015125031,
				"z": -0.475139496,
				"element": "H" 
			},
			{
				"x": -3.6726145358,
				"y": -0.2698400221,
				"z": -2.573798165,
				"element": "H" 
			}
		],
		 "valence_orbital": [ 
			{
				"type": "occ",
				"energy": -0.28266,
				"method": "rhf"
			},
			{
				"type": "occ",
				"energy": -0.2714,
				"method": "rhf"
			},
			{
				"type": "occ",
				"energy": -0.25782,
				"method": "rhf"
			},
			{
				"type": "occ",
				"energy": -0.22171,
				"method": "rhf"
			},
			{
				"type": "occ",
				"energy": -0.20055,
				"method": "rhf"
			},
			{
				"type": "unocc",
				"energy": -0.02763,
				"method": "rhf"
			},
			{
				"type": "unocc",
				"energy": 0.00132,
				"method": "rhf"
			},
			{
				"type": "unocc",
				"energy": 0.04026,
				"method": "rhf"
			},
			{
				"type": "unocc",
				"energy": 0.05826,
				"method": "rhf"
			},
			{
				"type": "unocc",
				"energy": 0.09816,
				"method": "rhf"
			}
		],
		"cosmo_sigma_profile": { 
			"-0.025": 0.0,
			"-0.024": 0.0,
			"-0.023": 0.0,
			"-0.022": 0.0,
			"-0.021": 0.0,
			"-0.02": 0.0,
			"-0.019": 0.0,
			"-0.018": 0.0,
			"-0.017": 0.0,
			"-0.016": 0.60168857906,
			"-0.015": 1.08049398537,
			"-0.014": 0.958402120922,
			"-0.013": 1.10300523677,
			"-0.012": 1.20111195675,
			"-0.011": 0.709942674457,
			"-0.01": 1.21594921013,
			"-0.009": 0.999144291225,
			"-0.008": 1.81778599249,
			"-0.007": 2.84023071878,
			"-0.006": 13.0907917985,
			"-0.005": 24.853528416,
			"-0.004": 28.5375194572,
			"-0.003": 27.0710347764,
			"-0.002": 18.3067415786,
			"-0.001": 16.4567756817,
			"0.0": 15.9790306086,
			"0.001": 16.1131963116,
			"0.002": 12.4953941825,
			"0.003": 16.8153518197,
			"0.004": 22.7240403112,
			"0.005": 22.1816328113,
			"0.006": 8.17738997791,
			"0.007": 3.87053359875,
			"0.008": 4.59268321829,
			"0.009": 3.50855308636,
			"0.01": 3.5261889433,
			"0.011": 1.99913480236,
			"0.012": 1.10416503019,
			"0.013": 1.81702154562,
			"0.014": 2.44202567669,
			"0.015": 0.96840874929,
			"0.016": 0.0,
			"0.017": 0.0,
			"0.018": 0.0,
			"0.019": 0.0,
			"0.02": 0.0,
			"0.021": 0.0,
			"0.022": 0.0,
			"0.023": 0.0,
			"0.024": 0.0,
			"0.025": 0.0
		}
	}
}
