{
	 "smiles": "CC1=CC=CC(I)=C1", 
	 "Tm": 246.05, 
	 "num_atms": 15, 
	 "gaussian": { 
		 "optdone": 1, 
		 "sigma_profile": "no", 
		 "theory": "DFT", 
		 "functional": "B3LYP", 
		 "basiset": "6-31G**", 
		 "properties": { 
			 "R2extent": 1387.661, 
			 "electric_dipole_moment_norm": 2.1644491447, 
			 "electric_quadrupole_moment_norm": 5.43109958572, 
			 "total_energy": -282.356304064, 
			 "HOMO_LUMO_gap": 0.20023, 
			 "cosmo_polarized_energy": -99541.68, 
			 "cosmo_cavitation_energy": 21.68, 
			 "cosmo_dispersion_energy": -17.51, 
			 "cosmo_repulsion_energy": 1.41, 
			 "cosmo_total_nonelectrostatic_energy": 5.58, 
			 "SMD_solvation_energy": 2.92 
		},
		"coords": [
			{
				"x": 1.2455555861,
				"y": -0.2907228672,
				"z": -1.2241887135,
				"element": "C" 
			},
			{
				"x": 0.6906220079,
				"y": -0.0090553978,
				"z": 0.1528311602,
				"element": "C" 
			},
			{
				"x": 0.4279696926,
				"y": -1.0519205689,
				"z": 1.0510272892,
				"element": "C" 
			},
			{
				"x": -0.1105660424,
				"y": -0.7914574859,
				"z": 2.3100593183,
				"element": "C" 
			},
			{
				"x": -0.3983191539,
				"y": 0.5169325208,
				"z": 2.7052115377,
				"element": "C" 
			},
			{
				"x": -0.1332435979,
				"y": 1.5539693875,
				"z": 1.8112686019,
				"element": "C" 
			},
			{
				"x": -0.551334569,
				"y": 3.5574759238,
				"z": 2.3843104863,
				"element": "I" 
			},
			{
				"x": 0.40595393,
				"y": 1.3051155953,
				"z": 0.5486851713,
				"element": "C" 
			},
			{
				"x": 1.7602017642,
				"y": 0.5820392124,
				"z": -1.635746204,
				"element": "H" 
			},
			{
				"x": 1.9536560299,
				"y": -1.1248180552,
				"z": -1.2050589774,
				"element": "H" 
			},
			{
				"x": 0.4448065353,
				"y": -0.5597265163,
				"z": -1.9241042955,
				"element": "H" 
			},
			{
				"x": 0.6493472885,
				"y": -2.0757129615,
				"z": 0.7608067841,
				"element": "H" 
			},
			{
				"x": -0.3070285687,
				"y": -1.6101312685,
				"z": 2.9966116439,
				"element": "H" 
			},
			{
				"x": -0.8142812736,
				"y": 0.719432944,
				"z": 3.6854322029,
				"element": "H" 
			},
			{
				"x": 0.608060371,
				"y": 2.1266795376,
				"z": -0.1306460056,
				"element": "H" 
			}
		],
		 "valence_orbital": [ 
			{
				"type": "occ",
				"energy": -0.33425,
				"method": "rhf"
			},
			{
				"type": "occ",
				"energy": -0.29118,
				"method": "rhf"
			},
			{
				"type": "occ",
				"energy": -0.26518,
				"method": "rhf"
			},
			{
				"type": "occ",
				"energy": -0.25422,
				"method": "rhf"
			},
			{
				"type": "occ",
				"energy": -0.23596,
				"method": "rhf"
			},
			{
				"type": "unocc",
				"energy": -0.03573,
				"method": "rhf"
			},
			{
				"type": "unocc",
				"energy": -0.01542,
				"method": "rhf"
			},
			{
				"type": "unocc",
				"energy": -0.01054,
				"method": "rhf"
			},
			{
				"type": "unocc",
				"energy": 0.04477,
				"method": "rhf"
			},
			{
				"type": "unocc",
				"energy": 0.05238,
				"method": "rhf"
			}
		],
		"cosmo_sigma_profile": { 
			"0.0": 0.0,
			"0.0": 0.0,
			"0.0": 0.0,
			"0.0": 0.0,
			"0.0": 0.0,
			"0.0": 0.0,
			"0.0": 0.0,
			"0.0": 0.0,
			"0.0": 0.0,
			"0.0": 0.0,
			"0.0": 0.0,
			"0.0": 0.0,
			"0.0": 0.0,
			"0.0": 0.0,
			"0.0": 0.0,
			"0.0": 0.0,
			"0.0": 0.0,
			"0.0": 0.0,
			"0.0": 0.0,
			"0.0": 0.0,
			"0.0": 0.0,
			"0.0": 0.0,
			"0.0": 0.0,
			"0.0": 0.0,
			"0.0": 0.0,
			"0.0": 0.0,
			"0.0": 0.0,
			"0.0": 0.0,
			"0.0": 0.0,
			"0.0": 0.0,
			"0.0": 0.0,
			"0.0": 0.0,
			"0.0": 0.0,
			"0.0": 0.0,
			"0.0": 0.0,
			"0.0": 0.0,
			"0.0": 0.0,
			"0.0": 0.0,
			"0.0": 0.0,
			"0.0": 0.0,
			"0.0": 0.0,
			"0.0": 0.0,
			"0.0": 0.0,
			"0.0": 0.0,
			"0.0": 0.0,
			"0.0": 0.0,
			"0.0": 0.0,
			"0.0": 0.0,
			"0.0": 0.0,
			"0.0": 0.0,
			"0.0": 0.0
		}
	}
}
