{
	 "smiles": "COC1=CC=CC(F)=C1C#N", 
	 "Tm": 376.15, 
	 "num_atms": 17, 
	 "gaussian": { 
		 "optdone": 1, 
		 "sigma_profile": "yes", 
		 "theory": "DFT", 
		 "functional": "B3LYP", 
		 "basiset": "6-31G**", 
		 "properties": { 
			 "R2extent": 2376.2814, 
			 "electric_dipole_moment_norm": 6.40340129853, 
			 "electric_quadrupole_moment_norm": 22.1295813695, 
			 "total_energy": -538.24420194, 
			 "HOMO_LUMO_gap": 0.19548, 
			 "cosmo_polarized_energy": -11.72, 
			 "cosmo_cavitation_energy": 22.88, 
			 "cosmo_dispersion_energy": -16.18, 
			 "cosmo_repulsion_energy": 1.28, 
			 "cosmo_total_nonelectrostatic_energy": 7.99, 
			 "SMD_solvation_energy": 6.62 
		},
		"coords": [
			{
				"x": -2.3671746747,
				"y": 1.9429522582,
				"z": 1.6284104357,
				"element": "C" 
			},
			{
				"x": -2.5426509974,
				"y": 0.7246640011,
				"z": 0.9132569787,
				"element": "O" 
			},
			{
				"x": -1.5256519298,
				"y": 0.2632162763,
				"z": 0.1538365261,
				"element": "C" 
			},
			{
				"x": -0.2845941071,
				"y": 0.8924770574,
				"z": 0.0050812064,
				"element": "C" 
			},
			{
				"x": 0.6914535742,
				"y": 0.31596087,
				"z": -0.8110615438,
				"element": "C" 
			},
			{
				"x": 0.4644427218,
				"y": -0.8800176222,
				"z": -1.4892391163,
				"element": "C" 
			},
			{
				"x": -0.7711024836,
				"y": -1.4928183882,
				"z": -1.3322254219,
				"element": "C" 
			},
			{
				"x": -1.0192407769,
				"y": -2.6443864375,
				"z": -1.9718842707,
				"element": "F" 
			},
			{
				"x": -1.781224943,
				"y": -0.9547375228,
				"z": -0.5257540811,
				"element": "C" 
			},
			{
				"x": -3.0357177824,
				"y": -1.6227144477,
				"z": -0.3961986431,
				"element": "C" 
			},
			{
				"x": -4.054608082,
				"y": -2.1745106914,
				"z": -0.297023117,
				"element": "N" 
			},
			{
				"x": -2.1790713066,
				"y": 2.7819838054,
				"z": 0.9480423605,
				"element": "H" 
			},
			{
				"x": -3.3044441142,
				"y": 2.1095474274,
				"z": 2.1592200836,
				"element": "H" 
			},
			{
				"x": -1.5467251484,
				"y": 1.8669518485,
				"z": 2.3518377244,
				"element": "H" 
			},
			{
				"x": -0.0744006624,
				"y": 1.8225256972,
				"z": 0.5172033495,
				"element": "H" 
			},
			{
				"x": 1.6501152183,
				"y": 0.8142129652,
				"z": -0.9180237221,
				"element": "H" 
			},
			{
				"x": 1.2124954942,
				"y": -1.3378070968,
				"z": -2.125178749,
				"element": "H" 
			}
		],
		 "valence_orbital": [ 
			{
				"type": "occ",
				"energy": -0.34847,
				"method": "rhf"
			},
			{
				"type": "occ",
				"energy": -0.3411,
				"method": "rhf"
			},
			{
				"type": "occ",
				"energy": -0.32465,
				"method": "rhf"
			},
			{
				"type": "occ",
				"energy": -0.26306,
				"method": "rhf"
			},
			{
				"type": "occ",
				"energy": -0.24624,
				"method": "rhf"
			},
			{
				"type": "unocc",
				"energy": -0.05076,
				"method": "rhf"
			},
			{
				"type": "unocc",
				"energy": -0.01029,
				"method": "rhf"
			},
			{
				"type": "unocc",
				"energy": 0.03701,
				"method": "rhf"
			},
			{
				"type": "unocc",
				"energy": 0.06865,
				"method": "rhf"
			},
			{
				"type": "unocc",
				"energy": 0.07617,
				"method": "rhf"
			}
		],
		"cosmo_sigma_profile": { 
			"-0.025": 0.0,
			"-0.024": 0.0,
			"-0.023": 0.0,
			"-0.022": 0.0,
			"-0.021": 0.0,
			"-0.02": 0.0,
			"-0.019": 0.0,
			"-0.018": 0.0,
			"-0.017": 0.0,
			"-0.016": 0.0,
			"-0.015": 0.0,
			"-0.014": 0.0,
			"-0.013": 0.0,
			"-0.012": 0.0,
			"-0.011": 0.0,
			"-0.01": 0.0,
			"-0.009": 0.0521472644653,
			"-0.008": 4.04689317177,
			"-0.007": 10.3165998006,
			"-0.006": 14.9599766337,
			"-0.005": 13.3139812104,
			"-0.004": 11.9020680824,
			"-0.003": 9.57726197519,
			"-0.002": 10.244632908,
			"-0.001": 16.1208848034,
			"0.0": 16.2999033919,
			"0.001": 11.2344009485,
			"0.002": 13.4749228238,
			"0.003": 16.0219324107,
			"0.004": 5.26510654635,
			"0.005": 3.49424098934,
			"0.006": 4.88014306477,
			"0.007": 5.2050467894,
			"0.008": 5.16086813121,
			"0.009": 3.52590084028,
			"0.01": 3.20378274269,
			"0.011": 2.72692593166,
			"0.012": 2.41703799486,
			"0.013": 1.40655231862,
			"0.014": 0.0228355930583,
			"0.015": 0.0,
			"0.016": 0.0,
			"0.017": 0.0,
			"0.018": 0.0,
			"0.019": 0.0,
			"0.02": 0.0,
			"0.021": 0.0,
			"0.022": 0.0,
			"0.023": 0.0,
			"0.024": 0.0,
			"0.025": 0.0
		}
	}
}
