{
	 "smiles": "CCOC1=CC(=C(N)C=C1)C(F)(F)F", 
	 "Tm": 343.15, 
	 "num_atms": 24, 
	 "gaussian": { 
		 "optdone": 1, 
		 "sigma_profile": "yes", 
		 "theory": "DFT", 
		 "functional": "B3LYP", 
		 "basiset": "6-31G**", 
		 "properties": { 
			 "R2extent": 5078.9454, 
			 "electric_dipole_moment_norm": 3.62674256186, 
			 "electric_quadrupole_moment_norm": 15.2640475356, 
			 "total_energy": -778.484440062, 
			 "HOMO_LUMO_gap": 0.17538, 
			 "cosmo_polarized_energy": -9.09, 
			 "cosmo_cavitation_energy": 28.42, 
			 "cosmo_dispersion_energy": -20.64, 
			 "cosmo_repulsion_energy": 1.58, 
			 "cosmo_total_nonelectrostatic_energy": 9.36, 
			 "SMD_solvation_energy": 6.2 
		},
		"coords": [
			{
				"x": 2.0845466473,
				"y": 0.3287234256,
				"z": 3.2247192847,
				"element": "C" 
			},
			{
				"x": 0.6846546548,
				"y": -0.2331796784,
				"z": 2.9936450861,
				"element": "C" 
			},
			{
				"x": 0.6810817148,
				"y": -1.3721616442,
				"z": 2.1332902709,
				"element": "O" 
			},
			{
				"x": 0.7743992861,
				"y": -1.1975138358,
				"z": 0.7774237916,
				"element": "C" 
			},
			{
				"x": 0.8351456938,
				"y": -2.3709243969,
				"z": 0.0208295764,
				"element": "C" 
			},
			{
				"x": 0.9067390878,
				"y": -2.3306588832,
				"z": -1.3702112273,
				"element": "C" 
			},
			{
				"x": 0.9175031303,
				"y": -1.0944964459,
				"z": -2.0595629027,
				"element": "C" 
			},
			{
				"x": 1.0463439261,
				"y": -1.0170302406,
				"z": -3.4471459278,
				"element": "N" 
			},
			{
				"x": 0.8585146349,
				"y": 0.0709814716,
				"z": -1.2832286966,
				"element": "C" 
			},
			{
				"x": 0.7915299209,
				"y": 0.0314575133,
				"z": 0.1089085371,
				"element": "C" 
			},
			{
				"x": 1.0078882305,
				"y": -3.6188876513,
				"z": -2.1347837162,
				"element": "C" 
			},
			{
				"x": 2.1972349755,
				"y": -3.7496997649,
				"z": -2.765547745,
				"element": "F" 
			},
			{
				"x": 0.8484431253,
				"y": -4.7046200397,
				"z": -1.3538313493,
				"element": "F" 
			},
			{
				"x": 0.0563637666,
				"y": -3.7000209618,
				"z": -3.1156506088,
				"element": "F" 
			},
			{
				"x": 2.0434883166,
				"y": 1.1566748356,
				"z": 3.9405966487,
				"element": "H" 
			},
			{
				"x": 2.5318473842,
				"y": 0.7000672265,
				"z": 2.2986887782,
				"element": "H" 
			},
			{
				"x": 2.7399383325,
				"y": -0.4466748862,
				"z": 3.6313257178,
				"element": "H" 
			},
			{
				"x": 0.2665974956,
				"y": -0.6021100123,
				"z": 3.9346619528,
				"element": "H" 
			},
			{
				"x": -0.00059321,
				"y": 0.5363931848,
				"z": 2.6136977052,
				"element": "H" 
			},
			{
				"x": 0.8205687261,
				"y": -3.3227554506,
				"z": 0.5374513078,
				"element": "H" 
			},
			{
				"x": 0.7509783554,
				"y": -0.1353826593,
				"z": -3.8426382651,
				"element": "H" 
			},
			{
				"x": 0.6782534725,
				"y": -1.8047869096,
				"z": -3.9613011098,
				"element": "H" 
			},
			{
				"x": 0.8710986166,
				"y": 1.0359852974,
				"z": -1.7837202311,
				"element": "H" 
			},
			{
				"x": 0.749933716,
				"y": 0.9674205059,
				"z": 0.6533831224,
				"element": "H" 
			}
		],
		 "valence_orbital": [ 
			{
				"type": "occ",
				"energy": -0.34274,
				"method": "rhf"
			},
			{
				"type": "occ",
				"energy": -0.32117,
				"method": "rhf"
			},
			{
				"type": "occ",
				"energy": -0.2814,
				"method": "rhf"
			},
			{
				"type": "occ",
				"energy": -0.2608,
				"method": "rhf"
			},
			{
				"type": "occ",
				"energy": -0.19331,
				"method": "rhf"
			},
			{
				"type": "unocc",
				"energy": -0.01793,
				"method": "rhf"
			},
			{
				"type": "unocc",
				"energy": 0.01694,
				"method": "rhf"
			},
			{
				"type": "unocc",
				"energy": 0.0834,
				"method": "rhf"
			},
			{
				"type": "unocc",
				"energy": 0.09111,
				"method": "rhf"
			},
			{
				"type": "unocc",
				"energy": 0.11076,
				"method": "rhf"
			}
		],
		"cosmo_sigma_profile": { 
			"-0.025": 0.0,
			"-0.024": 0.0,
			"-0.023": 0.0,
			"-0.022": 0.0,
			"-0.021": 0.0,
			"-0.02": 0.0,
			"-0.019": 0.0,
			"-0.018": 0.0,
			"-0.017": 0.0,
			"-0.016": 0.0,
			"-0.015": 0.0,
			"-0.014": 0.0,
			"-0.013": 0.661373741325,
			"-0.012": 1.39600994433,
			"-0.011": 1.93428357113,
			"-0.01": 2.93325334549,
			"-0.009": 2.29744843352,
			"-0.008": 2.30983933601,
			"-0.007": 4.15406578707,
			"-0.006": 7.39275829258,
			"-0.005": 11.2118700459,
			"-0.004": 14.8653501245,
			"-0.003": 17.5741818822,
			"-0.002": 14.7766841484,
			"-0.001": 14.6477464803,
			"0.0": 18.374691555,
			"0.001": 15.8768007731,
			"0.002": 22.5458192018,
			"0.003": 32.7130800265,
			"0.004": 15.9664381138,
			"0.005": 8.85918079023,
			"0.006": 3.36469106608,
			"0.007": 1.92930362275,
			"0.008": 2.10999380899,
			"0.009": 2.29598685296,
			"0.01": 2.54737292573,
			"0.011": 1.33534130344,
			"0.012": 0.403703910024,
			"0.013": 0.876037376103,
			"0.014": 0.160962589677,
			"0.015": 0.0,
			"0.016": 0.0,
			"0.017": 0.0,
			"0.018": 0.0,
			"0.019": 0.0,
			"0.02": 0.0,
			"0.021": 0.0,
			"0.022": 0.0,
			"0.023": 0.0,
			"0.024": 0.0,
			"0.025": 0.0
		}
	}
}
