{
	 "smiles": "COC(=O)C1=CC2=C(O1)C(OC)=CC=C2C=O", 
	 "Tm": 445.15, 
	 "num_atms": 27, 
	 "gaussian": { 
		 "optdone": 1, 
		 "sigma_profile": "yes", 
		 "theory": "DFT", 
		 "functional": "B3LYP", 
		 "basiset": "6-31G**", 
		 "properties": { 
			 "R2extent": 5357.4594, 
			 "electric_dipole_moment_norm": 6.22262119287, 
			 "electric_quadrupole_moment_norm": 21.036994904, 
			 "total_energy": -839.396755814, 
			 "HOMO_LUMO_gap": 0.15842, 
			 "cosmo_polarized_energy": -15.74, 
			 "cosmo_cavitation_energy": 32.99, 
			 "cosmo_dispersion_energy": -23.83, 
			 "cosmo_repulsion_energy": 1.84, 
			 "cosmo_total_nonelectrostatic_energy": 11.0, 
			 "SMD_solvation_energy": 9.47 
		},
		"coords": [
			{
				"x": 2.9452307392,
				"y": -0.4604275772,
				"z": 3.9087448906,
				"element": "C" 
			},
			{
				"x": 2.2496368794,
				"y": -0.1968606275,
				"z": 2.6792891054,
				"element": "O" 
			},
			{
				"x": 2.7606252679,
				"y": -0.8121678976,
				"z": 1.5962492558,
				"element": "C" 
			},
			{
				"x": 3.7322068481,
				"y": -1.5418327496,
				"z": 1.6089886487,
				"element": "O" 
			},
			{
				"x": 2.0078749301,
				"y": -0.5047851689,
				"z": 0.3683721576,
				"element": "C" 
			},
			{
				"x": 2.2333840865,
				"y": -0.9447557299,
				"z": -0.9049995777,
				"element": "C" 
			},
			{
				"x": 1.213094371,
				"y": -0.3470258352,
				"z": -1.7146601945,
				"element": "C" 
			},
			{
				"x": 0.4429773441,
				"y": 0.4209098304,
				"z": -0.831472884,
				"element": "C" 
			},
			{
				"x": 0.918259093,
				"y": 0.3318658406,
				"z": 0.4391230912,
				"element": "O" 
			},
			{
				"x": -0.6734143889,
				"y": 1.178288327,
				"z": -1.2301941753,
				"element": "C" 
			},
			{
				"x": -1.3231829438,
				"y": 1.8715672069,
				"z": -0.2714955956,
				"element": "O" 
			},
			{
				"x": -2.4562575684,
				"y": 2.6455910685,
				"z": -0.6521957424,
				"element": "C" 
			},
			{
				"x": -0.9996332173,
				"y": 1.1358630968,
				"z": -2.5908612147,
				"element": "C" 
			},
			{
				"x": -0.2374698224,
				"y": 0.3705834268,
				"z": -3.4895648313,
				"element": "C" 
			},
			{
				"x": 0.8690492416,
				"y": -0.3794159737,
				"z": -3.0912937134,
				"element": "C" 
			},
			{
				"x": 1.6286752258,
				"y": -1.1606397652,
				"z": -4.0742958853,
				"element": "C" 
			},
			{
				"x": 2.6066986282,
				"y": -1.844482023,
				"z": -3.8214287048,
				"element": "O" 
			},
			{
				"x": 2.9295169271,
				"y": -1.5289369172,
				"z": 4.1379852142,
				"element": "H" 
			},
			{
				"x": 2.4117143248,
				"y": 0.104351438,
				"z": 4.6726286379,
				"element": "H" 
			},
			{
				"x": 3.9848346341,
				"y": -0.1301009766,
				"z": 3.8408090311,
				"element": "H" 
			},
			{
				"x": 3.0204883038,
				"y": -1.6067357608,
				"z": -1.2277083553,
				"element": "H" 
			},
			{
				"x": -2.8175290487,
				"y": 3.1124088242,
				"z": 0.2642689553,
				"element": "H" 
			},
			{
				"x": -2.1830799082,
				"y": 3.4234390042,
				"z": -1.3751657763,
				"element": "H" 
			},
			{
				"x": -3.2460959615,
				"y": 2.0142943855,
				"z": -1.0764303961,
				"element": "H" 
			},
			{
				"x": -1.8480854569,
				"y": 1.6968647462,
				"z": -2.96284617,
				"element": "H" 
			},
			{
				"x": -0.5241584952,
				"y": 0.3644196699,
				"z": -4.5384474541,
				"element": "H" 
			},
			{
				"x": 1.2397399664,
				"y": -1.0878798627,
				"z": -5.1148983172,
				"element": "H" 
			}
		],
		 "valence_orbital": [ 
			{
				"type": "occ",
				"energy": -0.29066,
				"method": "rhf"
			},
			{
				"type": "occ",
				"energy": -0.2809,
				"method": "rhf"
			},
			{
				"type": "occ",
				"energy": -0.25056,
				"method": "rhf"
			},
			{
				"type": "occ",
				"energy": -0.24804,
				"method": "rhf"
			},
			{
				"type": "occ",
				"energy": -0.23161,
				"method": "rhf"
			},
			{
				"type": "unocc",
				"energy": -0.07319,
				"method": "rhf"
			},
			{
				"type": "unocc",
				"energy": -0.03313,
				"method": "rhf"
			},
			{
				"type": "unocc",
				"energy": 0.00871,
				"method": "rhf"
			},
			{
				"type": "unocc",
				"energy": 0.04921,
				"method": "rhf"
			},
			{
				"type": "unocc",
				"energy": 0.07498,
				"method": "rhf"
			}
		],
		"cosmo_sigma_profile": { 
			"-0.025": 0.0,
			"-0.024": 0.0,
			"-0.023": 0.0,
			"-0.022": 0.0,
			"-0.021": 0.0,
			"-0.02": 0.0,
			"-0.019": 0.0,
			"-0.018": 0.0,
			"-0.017": 0.0,
			"-0.016": 0.0,
			"-0.015": 0.0,
			"-0.014": 0.0,
			"-0.013": 0.0,
			"-0.012": 0.0,
			"-0.011": 0.0,
			"-0.01": 0.0,
			"-0.009": 0.0219027846398,
			"-0.008": 3.21025962031,
			"-0.007": 11.8645389369,
			"-0.006": 22.6310873662,
			"-0.005": 20.6904820432,
			"-0.004": 25.3807029156,
			"-0.003": 19.8338269859,
			"-0.002": 14.5875766537,
			"-0.001": 19.0530411006,
			"0.0": 21.2431397859,
			"0.001": 22.3363800028,
			"0.002": 14.4178383316,
			"0.003": 9.73497456726,
			"0.004": 7.07929675073,
			"0.005": 6.14970965215,
			"0.006": 6.28000309842,
			"0.007": 6.24393271194,
			"0.008": 7.16540763947,
			"0.009": 7.36432214638,
			"0.01": 5.36516532267,
			"0.011": 7.360121855,
			"0.012": 4.86532975462,
			"0.013": 1.39481360604,
			"0.014": 0.166190457949,
			"0.015": 0.0,
			"0.016": 0.0,
			"0.017": 0.0,
			"0.018": 0.0,
			"0.019": 0.0,
			"0.02": 0.0,
			"0.021": 0.0,
			"0.022": 0.0,
			"0.023": 0.0,
			"0.024": 0.0,
			"0.025": 0.0
		}
	}
}
