{
	 "smiles": "CC1=CC(Cl)=C(NC(=O)CO)C=C1", 
	 "Tm": 364.15, 
	 "num_atms": 23, 
	 "gaussian": { 
		 "optdone": 1, 
		 "sigma_profile": "yes", 
		 "theory": "DFT", 
		 "functional": "B3LYP", 
		 "basiset": "6-31G**", 
		 "properties": { 
			 "R2extent": 4289.6576, 
			 "electric_dipole_moment_norm": 3.19340676551, 
			 "electric_quadrupole_moment_norm": 7.5798476891, 
			 "total_energy": -1014.38237374, 
			 "HOMO_LUMO_gap": 0.20332, 
			 "cosmo_polarized_energy": -11.27, 
			 "cosmo_cavitation_energy": 28.62, 
			 "cosmo_dispersion_energy": -20.88, 
			 "cosmo_repulsion_energy": 1.68, 
			 "cosmo_total_nonelectrostatic_energy": 9.41, 
			 "SMD_solvation_energy": 5.5 
		},
		"coords": [
			{
				"x": 0.8680741373,
				"y": -0.7446908215,
				"z": -2.728375541,
				"element": "C" 
			},
			{
				"x": 0.9608363668,
				"y": -0.3224859666,
				"z": -1.2814653753,
				"element": "C" 
			},
			{
				"x": 0.3854787348,
				"y": 0.8763827391,
				"z": -0.8464080811,
				"element": "C" 
			},
			{
				"x": 0.4356487422,
				"y": 1.2436161374,
				"z": 0.4955191726,
				"element": "C" 
			},
			{
				"x": -0.3045422396,
				"y": 2.7627795536,
				"z": 0.9876449145,
				"element": "Cl" 
			},
			{
				"x": 1.0742851373,
				"y": 0.439002792,
				"z": 1.4543635068,
				"element": "C" 
			},
			{
				"x": 1.1412890129,
				"y": 0.8552162401,
				"z": 2.7979950095,
				"element": "N" 
			},
			{
				"x": 1.1613665585,
				"y": 0.1108889711,
				"z": 3.9565685373,
				"element": "C" 
			},
			{
				"x": 1.4722015489,
				"y": 0.6251693552,
				"z": 5.0244152015,
				"element": "O" 
			},
			{
				"x": 0.7960160266,
				"y": -1.372778894,
				"z": 3.9118167805,
				"element": "C" 
			},
			{
				"x": 1.9780639628,
				"y": -2.1629881536,
				"z": 3.9775977992,
				"element": "O" 
			},
			{
				"x": 1.6859789332,
				"y": -0.7429021927,
				"z": 1.0064738926,
				"element": "C" 
			},
			{
				"x": 1.6106995584,
				"y": -1.1203119258,
				"z": -0.330892448,
				"element": "C" 
			},
			{
				"x": 0.0034358167,
				"y": -1.3991488368,
				"z": -2.8948607607,
				"element": "H" 
			},
			{
				"x": 1.7589344568,
				"y": -1.2991677356,
				"z": -3.0383459221,
				"element": "H" 
			},
			{
				"x": 0.7574662091,
				"y": 0.1175524393,
				"z": -3.3920569165,
				"element": "H" 
			},
			{
				"x": -0.1145280811,
				"y": 1.5326364064,
				"z": -1.5513691721,
				"element": "H" 
			},
			{
				"x": 1.2698764166,
				"y": 1.8469425101,
				"z": 2.9669501447,
				"element": "H" 
			},
			{
				"x": 0.1393166046,
				"y": -1.552748867,
				"z": 4.7730506276,
				"element": "H" 
			},
			{
				"x": 0.2713736719,
				"y": -1.6618653609,
				"z": 3.0004099578,
				"element": "H" 
			},
			{
				"x": 2.4631892946,
				"y": -1.8658273222,
				"z": 4.761247609,
				"element": "H" 
			},
			{
				"x": 2.2323096471,
				"y": -1.3540384512,
				"z": 1.7180070418,
				"element": "H" 
			},
			{
				"x": 2.0898294833,
				"y": -2.0440326164,
				"z": -0.6437859785,
				"element": "H" 
			}
		],
		 "valence_orbital": [ 
			{
				"type": "occ",
				"energy": -0.3043,
				"method": "rhf"
			},
			{
				"type": "occ",
				"energy": -0.29423,
				"method": "rhf"
			},
			{
				"type": "occ",
				"energy": -0.25876,
				"method": "rhf"
			},
			{
				"type": "occ",
				"energy": -0.25611,
				"method": "rhf"
			},
			{
				"type": "occ",
				"energy": -0.23119,
				"method": "rhf"
			},
			{
				"type": "unocc",
				"energy": -0.02787,
				"method": "rhf"
			},
			{
				"type": "unocc",
				"energy": -0.02111,
				"method": "rhf"
			},
			{
				"type": "unocc",
				"energy": 0.0139,
				"method": "rhf"
			},
			{
				"type": "unocc",
				"energy": 0.02224,
				"method": "rhf"
			},
			{
				"type": "unocc",
				"energy": 0.08973,
				"method": "rhf"
			}
		],
		"cosmo_sigma_profile": { 
			"-0.025": 0.0,
			"-0.024": 0.0,
			"-0.023": 0.0,
			"-0.022": 0.0,
			"-0.021": 0.0,
			"-0.02": 0.0,
			"-0.019": 0.0,
			"-0.018": 0.0,
			"-0.017": 0.0,
			"-0.016": 0.0799033793556,
			"-0.015": 0.905556793309,
			"-0.014": 0.648837665583,
			"-0.013": 1.02115357904,
			"-0.012": 1.80413370851,
			"-0.011": 1.0992689754,
			"-0.01": 1.65364804296,
			"-0.009": 2.32986010954,
			"-0.008": 1.64299633918,
			"-0.007": 3.06845169952,
			"-0.006": 9.45677136211,
			"-0.005": 16.0142738573,
			"-0.004": 17.4866191087,
			"-0.003": 16.5130397143,
			"-0.002": 18.6668913387,
			"-0.001": 19.9342808211,
			"0.0": 19.6840049363,
			"0.001": 17.4231672184,
			"0.002": 17.1220806628,
			"0.003": 18.2975234433,
			"0.004": 14.1526133175,
			"0.005": 4.43623715542,
			"0.006": 2.51519191511,
			"0.007": 2.43623015605,
			"0.008": 2.31972474303,
			"0.009": 1.67181381016,
			"0.01": 2.66237199383,
			"0.011": 2.34165917785,
			"0.012": 4.97375467914,
			"0.013": 5.80435281615,
			"0.014": 1.06034598337,
			"0.015": 0.0,
			"0.016": 0.0,
			"0.017": 0.0,
			"0.018": 0.0,
			"0.019": 0.0,
			"0.02": 0.0,
			"0.021": 0.0,
			"0.022": 0.0,
			"0.023": 0.0,
			"0.024": 0.0,
			"0.025": 0.0
		}
	}
}
