{
	 "smiles": "NCC1=CC(CS(N)(=O)=O)=CC=C1", 
	 "Tm": 416.15, 
	 "num_atms": 25, 
	 "gaussian": { 
		 "optdone": 1, 
		 "sigma_profile": "yes", 
		 "theory": "DFT", 
		 "functional": "B3LYP", 
		 "basiset": "6-31G**", 
		 "properties": { 
			 "R2extent": 3350.4643, 
			 "electric_dipole_moment_norm": 2.47294590923, 
			 "electric_quadrupole_moment_norm": 18.0985785367, 
			 "total_energy": -970.158544455, 
			 "HOMO_LUMO_gap": 0.21161, 
			 "cosmo_polarized_energy": -19.74, 
			 "cosmo_cavitation_energy": 30.14, 
			 "cosmo_dispersion_energy": -21.59, 
			 "cosmo_repulsion_energy": 1.7, 
			 "cosmo_total_nonelectrostatic_energy": 10.25, 
			 "SMD_solvation_energy": 3.07 
		},
		"coords": [
			{
				"x": -1.1992811014,
				"y": -3.1709463237,
				"z": 2.0253077485,
				"element": "N" 
			},
			{
				"x": -1.0400062453,
				"y": -1.9686146802,
				"z": 2.8597439372,
				"element": "C" 
			},
			{
				"x": -1.1499875483,
				"y": -0.6435280771,
				"z": 2.1237281878,
				"element": "C" 
			},
			{
				"x": -0.0218375937,
				"y": -0.0582032808,
				"z": 1.5360610409,
				"element": "C" 
			},
			{
				"x": -0.1116262119,
				"y": 1.1349262252,
				"z": 0.8093113586,
				"element": "C" 
			},
			{
				"x": 1.119820267,
				"y": 1.7433246595,
				"z": 0.1971674573,
				"element": "C" 
			},
			{
				"x": 1.299177144,
				"y": 1.4386107478,
				"z": -1.5935662261,
				"element": "S" 
			},
			{
				"x": 1.3764147013,
				"y": -0.2555039926,
				"z": -1.6708841427,
				"element": "N" 
			},
			{
				"x": 2.6191405674,
				"y": 1.9382736832,
				"z": -1.9917630694,
				"element": "O" 
			},
			{
				"x": 0.0733897362,
				"y": 1.8875495636,
				"z": -2.2623783484,
				"element": "O" 
			},
			{
				"x": -1.3615745496,
				"y": 1.7517899025,
				"z": 0.6615185527,
				"element": "C" 
			},
			{
				"x": -2.4929709189,
				"y": 1.1818770035,
				"z": 1.2432412779,
				"element": "C" 
			},
			{
				"x": -2.3873520978,
				"y": -0.0042683808,
				"z": 1.9710500703,
				"element": "C" 
			},
			{
				"x": -0.5036447767,
				"y": -3.1568014326,
				"z": 1.2816636493,
				"element": "H" 
			},
			{
				"x": -2.102334987,
				"y": -3.1360337534,
				"z": 1.5558452996,
				"element": "H" 
			},
			{
				"x": -1.7959421236,
				"y": -2.012791942,
				"z": 3.6519145124,
				"element": "H" 
			},
			{
				"x": -0.0638029237,
				"y": -2.0360958135,
				"z": 3.3532905894,
				"element": "H" 
			},
			{
				"x": 0.9482533676,
				"y": -0.5375731055,
				"z": 1.6507278255,
				"element": "H" 
			},
			{
				"x": 2.0419426754,
				"y": 1.3651957269,
				"z": 0.6431593328,
				"element": "H" 
			},
			{
				"x": 1.1229078367,
				"y": 2.8356520646,
				"z": 0.261900684,
				"element": "H" 
			},
			{
				"x": 0.5252580478,
				"y": -0.6188315508,
				"z": -2.0918167756,
				"element": "H" 
			},
			{
				"x": 2.1937864544,
				"y": -0.5101463927,
				"z": -2.2198746943,
				"element": "H" 
			},
			{
				"x": -1.4440562767,
				"y": 2.6699887204,
				"z": 0.0884072159,
				"element": "H" 
			},
			{
				"x": -3.4580216202,
				"y": 1.6684645794,
				"z": 1.135099191,
				"element": "H" 
			},
			{
				"x": -3.2729518229,
				"y": -0.4356141508,
				"z": 2.4327453253,
				"element": "H" 
			}
		],
		 "valence_orbital": [ 
			{
				"type": "occ",
				"energy": -0.30335,
				"method": "rhf"
			},
			{
				"type": "occ",
				"energy": -0.296,
				"method": "rhf"
			},
			{
				"type": "occ",
				"energy": -0.26301,
				"method": "rhf"
			},
			{
				"type": "occ",
				"energy": -0.2555,
				"method": "rhf"
			},
			{
				"type": "occ",
				"energy": -0.23557,
				"method": "rhf"
			},
			{
				"type": "unocc",
				"energy": -0.02396,
				"method": "rhf"
			},
			{
				"type": "unocc",
				"energy": -0.01322,
				"method": "rhf"
			},
			{
				"type": "unocc",
				"energy": 0.05222,
				"method": "rhf"
			},
			{
				"type": "unocc",
				"energy": 0.07539,
				"method": "rhf"
			},
			{
				"type": "unocc",
				"energy": 0.08399,
				"method": "rhf"
			}
		],
		"cosmo_sigma_profile": { 
			"-0.025": 0.0,
			"-0.024": 0.0,
			"-0.023": 0.0,
			"-0.022": 0.0,
			"-0.021": 0.0,
			"-0.02": 0.0,
			"-0.019": 0.0,
			"-0.018": 0.0,
			"-0.017": 0.0,
			"-0.016": 0.0,
			"-0.015": 0.838887242584,
			"-0.014": 2.7685145829,
			"-0.013": 1.78387062325,
			"-0.012": 2.90722013914,
			"-0.011": 1.97054384662,
			"-0.01": 2.13835974436,
			"-0.009": 5.0665882014,
			"-0.008": 7.48519795429,
			"-0.007": 9.5520084095,
			"-0.006": 14.6465315409,
			"-0.005": 18.4576519876,
			"-0.004": 18.7318352814,
			"-0.003": 14.7242008234,
			"-0.002": 13.0141745375,
			"-0.001": 11.6837942101,
			"0.0": 10.3683811216,
			"0.001": 9.31764105007,
			"0.002": 9.44424691395,
			"0.003": 10.6909988754,
			"0.004": 10.3741259416,
			"0.005": 10.8906970078,
			"0.006": 5.00538150508,
			"0.007": 6.29369675116,
			"0.008": 4.56441358104,
			"0.009": 4.22890092917,
			"0.01": 6.8217690628,
			"0.011": 11.3372811706,
			"0.012": 6.86572183876,
			"0.013": 1.04866939048,
			"0.014": 0.495674507017,
			"0.015": 0.723010052842,
			"0.016": 0.71161831603,
			"0.017": 0.565779041963,
			"0.018": 0.645231427395,
			"0.019": 0.679372638101,
			"0.02": 0.24498074717,
			"0.021": 0.0,
			"0.022": 0.0,
			"0.023": 0.0,
			"0.024": 0.0,
			"0.025": 0.0
		}
	}
}
