{
	 "smiles": "CN1C2=C(CCCC2)C2=CC=CC=C12", 
	 "Tm": 325.15, 
	 "num_atms": 29, 
	 "gaussian": { 
		 "optdone": 1, 
		 "sigma_profile": "yes", 
		 "theory": "DFT", 
		 "functional": "B3LYP", 
		 "basiset": "6-31G**", 
		 "properties": { 
			 "R2extent": 2894.6636, 
			 "electric_dipole_moment_norm": 2.54722886486, 
			 "electric_quadrupole_moment_norm": 7.18903913538, 
			 "total_energy": -559.199098249, 
			 "HOMO_LUMO_gap": 0.18579, 
			 "cosmo_polarized_energy": -6.24, 
			 "cosmo_cavitation_energy": 29.78, 
			 "cosmo_dispersion_energy": -22.16, 
			 "cosmo_repulsion_energy": 1.72, 
			 "cosmo_total_nonelectrostatic_energy": 9.34, 
			 "SMD_solvation_energy": 3.86 
		},
		"coords": [
			{
				"x": -1.0234600782,
				"y": -0.0609866668,
				"z": 2.2595510708,
				"element": "C" 
			},
			{
				"x": -0.3859961621,
				"y": 0.0144525042,
				"z": 0.9622916781,
				"element": "N" 
			},
			{
				"x": 0.934678882,
				"y": 0.3673924877,
				"z": 0.6917199776,
				"element": "C" 
			},
			{
				"x": 1.182354347,
				"y": 0.2575824763,
				"z": -0.655830134,
				"element": "C" 
			},
			{
				"x": 2.5183791668,
				"y": 0.5628754422,
				"z": -1.2727410316,
				"element": "C" 
			},
			{
				"x": 3.6126809308,
				"y": 0.6090577039,
				"z": -0.1893788525,
				"element": "C" 
			},
			{
				"x": 3.1609509542,
				"y": 1.4228468384,
				"z": 1.0338684442,
				"element": "C" 
			},
			{
				"x": 1.933132882,
				"y": 0.7937060493,
				"z": 1.7252349258,
				"element": "C" 
			},
			{
				"x": -0.0384717165,
				"y": -0.1832585641,
				"z": -1.2741419629,
				"element": "C" 
			},
			{
				"x": -0.4222477388,
				"y": -0.4720328952,
				"z": -2.5938372808,
				"element": "C" 
			},
			{
				"x": -1.7228578919,
				"y": -0.8975139689,
				"z": -2.8437640361,
				"element": "C" 
			},
			{
				"x": -2.6538259041,
				"y": -1.0408344799,
				"z": -1.7965492443,
				"element": "C" 
			},
			{
				"x": -2.3041185612,
				"y": -0.7614582035,
				"z": -0.4777692808,
				"element": "C" 
			},
			{
				"x": -0.9964817524,
				"y": -0.3309864334,
				"z": -0.231161662,
				"element": "C" 
			},
			{
				"x": -1.9601765779,
				"y": 0.5075016493,
				"z": 2.2639072859,
				"element": "H" 
			},
			{
				"x": -0.3643835622,
				"y": 0.3631444363,
				"z": 3.0177218475,
				"element": "H" 
			},
			{
				"x": -1.2475311243,
				"y": -1.0982781951,
				"z": 2.5385238404,
				"element": "H" 
			},
			{
				"x": 2.7745155788,
				"y": -0.1888641602,
				"z": -2.0306209822,
				"element": "H" 
			},
			{
				"x": 2.4868909642,
				"y": 1.5259620188,
				"z": -1.8049678405,
				"element": "H" 
			},
			{
				"x": 3.8508743613,
				"y": -0.4147732844,
				"z": 0.1288384495,
				"element": "H" 
			},
			{
				"x": 4.5344161467,
				"y": 1.0340422798,
				"z": -0.6027853767,
				"element": "H" 
			},
			{
				"x": 3.979224419,
				"y": 1.514779363,
				"z": 1.7567471768,
				"element": "H" 
			},
			{
				"x": 2.9066976978,
				"y": 2.4412218408,
				"z": 0.7122104648,
				"element": "H" 
			},
			{
				"x": 1.4971517072,
				"y": 1.5165322777,
				"z": 2.4276951892,
				"element": "H" 
			},
			{
				"x": 2.2486041,
				"y": -0.0683648424,
				"z": 2.3329535121,
				"element": "H" 
			},
			{
				"x": 0.2880384131,
				"y": -0.3652728795,
				"z": -3.4094764559,
				"element": "H" 
			},
			{
				"x": -2.0285263159,
				"y": -1.1241004176,
				"z": -3.8612760145,
				"element": "H" 
			},
			{
				"x": -3.6622584951,
				"y": -1.3769900016,
				"z": -2.0202378617,
				"element": "H" 
			},
			{
				"x": -3.0252546703,
				"y": -0.8772823753,
				"z": 0.3260741537,
				"element": "H" 
			}
		],
		 "valence_orbital": [ 
			{
				"type": "occ",
				"energy": -0.30912,
				"method": "rhf"
			},
			{
				"type": "occ",
				"energy": -0.30827,
				"method": "rhf"
			},
			{
				"type": "occ",
				"energy": -0.25511,
				"method": "rhf"
			},
			{
				"type": "occ",
				"energy": -0.20546,
				"method": "rhf"
			},
			{
				"type": "occ",
				"energy": -0.18383,
				"method": "rhf"
			},
			{
				"type": "unocc",
				"energy": 0.00196,
				"method": "rhf"
			},
			{
				"type": "unocc",
				"energy": 0.03511,
				"method": "rhf"
			},
			{
				"type": "unocc",
				"energy": 0.07628,
				"method": "rhf"
			},
			{
				"type": "unocc",
				"energy": 0.08497,
				"method": "rhf"
			},
			{
				"type": "unocc",
				"energy": 0.103,
				"method": "rhf"
			}
		],
		"cosmo_sigma_profile": { 
			"-0.025": 0.0,
			"-0.024": 0.0,
			"-0.023": 0.0,
			"-0.022": 0.0,
			"-0.021": 0.0,
			"-0.02": 0.0,
			"-0.019": 0.0,
			"-0.018": 0.0,
			"-0.017": 0.0,
			"-0.016": 0.0,
			"-0.015": 0.0,
			"-0.014": 0.0,
			"-0.013": 0.0,
			"-0.012": 0.0,
			"-0.011": 0.0,
			"-0.01": 0.0,
			"-0.009": 0.0,
			"-0.008": 0.0,
			"-0.007": 0.0129930116616,
			"-0.006": 2.5799156284,
			"-0.005": 12.0945159218,
			"-0.004": 18.6565245354,
			"-0.003": 26.4857050406,
			"-0.002": 36.8602634394,
			"-0.001": 30.5792648307,
			"0.0": 26.219698064,
			"0.001": 17.7227149664,
			"0.002": 8.73676437618,
			"0.003": 7.74309433188,
			"0.004": 8.83785738046,
			"0.005": 9.43036883137,
			"0.006": 11.3704139486,
			"0.007": 11.0834123487,
			"0.008": 5.6689557808,
			"0.009": 0.158515138523,
			"0.01": 0.0,
			"0.011": 0.0,
			"0.012": 0.0,
			"0.013": 0.0,
			"0.014": 0.0,
			"0.015": 0.0,
			"0.016": 0.0,
			"0.017": 0.0,
			"0.018": 0.0,
			"0.019": 0.0,
			"0.02": 0.0,
			"0.021": 0.0,
			"0.022": 0.0,
			"0.023": 0.0,
			"0.024": 0.0,
			"0.025": 0.0
		}
	}
}
