{
	 "smiles": "NC(CN1CCCCCC1)=NO", 
	 "Tm": 398.15, 
	 "num_atms": 29, 
	 "gaussian": { 
		 "optdone": 1, 
		 "sigma_profile": "yes", 
		 "theory": "DFT", 
		 "functional": "B3LYP", 
		 "basiset": "6-31G**", 
		 "properties": { 
			 "R2extent": 2666.7812, 
			 "electric_dipole_moment_norm": 1.90442737063, 
			 "electric_quadrupole_moment_norm": 5.67686997121, 
			 "total_energy": -554.510649168, 
			 "HOMO_LUMO_gap": 0.23234, 
			 "cosmo_polarized_energy": -9.85, 
			 "cosmo_cavitation_energy": 28.9, 
			 "cosmo_dispersion_energy": -21.09, 
			 "cosmo_repulsion_energy": 1.71, 
			 "cosmo_total_nonelectrostatic_energy": 9.51, 
			 "SMD_solvation_energy": 3.62 
		},
		"coords": [
			{
				"x": -1.1391820791,
				"y": -1.9207719703,
				"z": -1.5111270981,
				"element": "N" 
			},
			{
				"x": -1.589514816,
				"y": -0.6171995475,
				"z": -1.3715426488,
				"element": "C" 
			},
			{
				"x": -0.5211400313,
				"y": 0.438984988,
				"z": -1.5738943008,
				"element": "C" 
			},
			{
				"x": 0.6875912978,
				"y": 0.1232589383,
				"z": -0.7995361365,
				"element": "N" 
			},
			{
				"x": 1.8577038257,
				"y": 0.7989012815,
				"z": -1.3754650542,
				"element": "C" 
			},
			{
				"x": 3.1292670955,
				"y": 0.6620347145,
				"z": -0.5326866852,
				"element": "C" 
			},
			{
				"x": 3.4563955886,
				"y": -0.7584508108,
				"z": -0.046718221,
				"element": "C" 
			},
			{
				"x": 2.3627845035,
				"y": -1.406854008,
				"z": 0.8403671293,
				"element": "C" 
			},
			{
				"x": 1.4651118544,
				"y": -0.3943158308,
				"z": 1.5676038888,
				"element": "C" 
			},
			{
				"x": 0.4893707129,
				"y": 0.386650525,
				"z": 0.6341907119,
				"element": "C" 
			},
			{
				"x": -2.8417680109,
				"y": -0.4154287621,
				"z": -1.1518545495,
				"element": "N" 
			},
			{
				"x": -3.1560448708,
				"y": 0.9756376546,
				"z": -1.1544515311,
				"element": "O" 
			},
			{
				"x": -0.1844537664,
				"y": -2.0316925203,
				"z": -1.1907143112,
				"element": "H" 
			},
			{
				"x": -1.7846596582,
				"y": -2.6234595168,
				"z": -1.174975013,
				"element": "H" 
			},
			{
				"x": -0.2516647356,
				"y": 0.4369825005,
				"z": -2.6368399008,
				"element": "H" 
			},
			{
				"x": -0.9334568462,
				"y": 1.4290087698,
				"z": -1.3404356378,
				"element": "H" 
			},
			{
				"x": 2.0246613952,
				"y": 0.366426777,
				"z": -2.3707463917,
				"element": "H" 
			},
			{
				"x": 1.6619243357,
				"y": 1.8785236314,
				"z": -1.5281024938,
				"element": "H" 
			},
			{
				"x": 3.0623814145,
				"y": 1.3312494353,
				"z": 0.3332871501,
				"element": "H" 
			},
			{
				"x": 3.9657120771,
				"y": 1.0434665513,
				"z": -1.1311925116,
				"element": "H" 
			},
			{
				"x": 4.394479538,
				"y": -0.7019165531,
				"z": 0.5197415365,
				"element": "H" 
			},
			{
				"x": 3.6621334384,
				"y": -1.4068483862,
				"z": -0.9074204193,
				"element": "H" 
			},
			{
				"x": 1.730711148,
				"y": -2.0592833452,
				"z": 0.2305703591,
				"element": "H" 
			},
			{
				"x": 2.8410669076,
				"y": -2.0532216973,
				"z": 1.5860914358,
				"element": "H" 
			},
			{
				"x": 0.8739480113,
				"y": -0.9281432065,
				"z": 2.3205352123,
				"element": "H" 
			},
			{
				"x": 2.090392786,
				"y": 0.3103616649,
				"z": 2.1285569887,
				"element": "H" 
			},
			{
				"x": -0.5365895012,
				"y": 0.0837301231,
				"z": 0.8639832801,
				"element": "H" 
			},
			{
				"x": 0.5387731274,
				"y": 1.4694374012,
				"z": 0.8499885693,
				"element": "H" 
			},
			{
				"x": -4.0960347418,
				"y": 0.9529311988,
				"z": -0.9383133577,
				"element": "H" 
			}
		],
		 "valence_orbital": [ 
			{
				"type": "occ",
				"energy": -0.31156,
				"method": "rhf"
			},
			{
				"type": "occ",
				"energy": -0.30504,
				"method": "rhf"
			},
			{
				"type": "occ",
				"energy": -0.25891,
				"method": "rhf"
			},
			{
				"type": "occ",
				"energy": -0.21743,
				"method": "rhf"
			},
			{
				"type": "occ",
				"energy": -0.19872,
				"method": "rhf"
			},
			{
				"type": "unocc",
				"energy": 0.03362,
				"method": "rhf"
			},
			{
				"type": "unocc",
				"energy": 0.06878,
				"method": "rhf"
			},
			{
				"type": "unocc",
				"energy": 0.08459,
				"method": "rhf"
			},
			{
				"type": "unocc",
				"energy": 0.09587,
				"method": "rhf"
			},
			{
				"type": "unocc",
				"energy": 0.11092,
				"method": "rhf"
			}
		],
		"cosmo_sigma_profile": { 
			"-0.025": 0.0,
			"-0.024": 0.0,
			"-0.023": 0.0,
			"-0.022": 0.0,
			"-0.021": 0.0,
			"-0.02": 0.0,
			"-0.019": 0.0,
			"-0.018": 0.0,
			"-0.017": 0.00929748703347,
			"-0.016": 0.820133646263,
			"-0.015": 0.567397338108,
			"-0.014": 1.30578383004,
			"-0.013": 0.488709892548,
			"-0.012": 1.62661999571,
			"-0.011": 1.41373879001,
			"-0.01": 2.13225637199,
			"-0.009": 1.67934244076,
			"-0.008": 2.7147833839,
			"-0.007": 2.56580227083,
			"-0.006": 3.26070116281,
			"-0.005": 4.68923664567,
			"-0.004": 6.02313930523,
			"-0.003": 13.4440140305,
			"-0.002": 35.9151981826,
			"-0.001": 40.0285116581,
			"0.0": 32.5541591274,
			"0.001": 20.0475187788,
			"0.002": 8.45176839875,
			"0.003": 4.28770472808,
			"0.004": 4.01528120703,
			"0.005": 3.63619042069,
			"0.006": 3.6536022505,
			"0.007": 4.55232220597,
			"0.008": 4.22104940762,
			"0.009": 4.76660233272,
			"0.01": 4.54984015702,
			"0.011": 3.03842268096,
			"0.012": 2.02220556755,
			"0.013": 2.02702175656,
			"0.014": 1.10921611472,
			"0.015": 0.757019479382,
			"0.016": 0.0198307811434,
			"0.017": 0.0,
			"0.018": 0.0,
			"0.019": 0.0,
			"0.02": 0.0,
			"0.021": 0.0,
			"0.022": 0.0,
			"0.023": 0.0,
			"0.024": 0.0,
			"0.025": 0.0
		}
	}
}
