{
	 "smiles": "COC1CC(N(C1)C(=O)OC(C)(C)C)C(O)=O", 
	 "Tm": 353.15, 
	 "num_atms": 36, 
	 "gaussian": { 
		 "optdone": 1, 
		 "sigma_profile": "yes", 
		 "theory": "DFT", 
		 "functional": "B3LYP", 
		 "basiset": "6-31G**", 
		 "properties": { 
			 "R2extent": 4603.7664, 
			 "electric_dipole_moment_norm": 2.47207357091, 
			 "electric_quadrupole_moment_norm": 24.9353611602, 
			 "total_energy": -861.518230711, 
			 "HOMO_LUMO_gap": 0.26043, 
			 "cosmo_polarized_energy": -17.65, 
			 "cosmo_cavitation_energy": 36.96, 
			 "cosmo_dispersion_energy": -24.43, 
			 "cosmo_repulsion_energy": 1.9, 
			 "cosmo_total_nonelectrostatic_energy": 14.42, 
			 "SMD_solvation_energy": 8.63 
		},
		"coords": [
			{
				"x": 3.2337164889,
				"y": 0.0965449495,
				"z": 0.021522022,
				"element": "C" 
			},
			{
				"x": 3.572079873,
				"y": 0.587471229,
				"z": 1.3071643199,
				"element": "O" 
			},
			{
				"x": 2.5460208513,
				"y": 1.1986162908,
				"z": 2.0738486641,
				"element": "C" 
			},
			{
				"x": 1.9427319675,
				"y": 2.4815807498,
				"z": 1.4576025475,
				"element": "C" 
			},
			{
				"x": 0.6599370409,
				"y": 2.0409508194,
				"z": 0.708423709,
				"element": "C" 
			},
			{
				"x": 0.3077027273,
				"y": 0.7512269957,
				"z": 1.3364411391,
				"element": "N" 
			},
			{
				"x": 1.3135395325,
				"y": 0.3092303308,
				"z": 2.3229862129,
				"element": "C" 
			},
			{
				"x": -0.4356650569,
				"y": -0.2105949875,
				"z": 0.6652462332,
				"element": "C" 
			},
			{
				"x": -0.466045181,
				"y": -1.383873233,
				"z": 0.9954920548,
				"element": "O" 
			},
			{
				"x": -1.1105943739,
				"y": 0.3622223319,
				"z": -0.3506307067,
				"element": "O" 
			},
			{
				"x": -2.0524111052,
				"y": -0.4158136362,
				"z": -1.1862496938,
				"element": "C" 
			},
			{
				"x": -1.2961826798,
				"y": -1.5230629609,
				"z": -1.9257020011,
				"element": "C" 
			},
			{
				"x": -3.1834567074,
				"y": -0.9629541172,
				"z": -0.3109780001,
				"element": "C" 
			},
			{
				"x": -2.5747183724,
				"y": 0.6407745279,
				"z": -2.1614447217,
				"element": "C" 
			},
			{
				"x": -0.4420979627,
				"y": 3.1024601229,
				"z": 0.8239246521,
				"element": "C" 
			},
			{
				"x": -1.4017992491,
				"y": 2.8480316352,
				"z": 1.7352984755,
				"element": "O" 
			},
			{
				"x": -0.4149737531,
				"y": 4.1222608177,
				"z": 0.1800801941,
				"element": "O" 
			},
			{
				"x": 2.9121336258,
				"y": 0.8942194979,
				"z": -0.6630658162,
				"element": "H" 
			},
			{
				"x": 2.4554610154,
				"y": -0.678560448,
				"z": 0.0557954952,
				"element": "H" 
			},
			{
				"x": 4.1443207095,
				"y": -0.3512806095,
				"z": -0.3828897038,
				"element": "H" 
			},
			{
				"x": 3.0442634651,
				"y": 1.4302733635,
				"z": 3.0190503627,
				"element": "H" 
			},
			{
				"x": 1.6853947273,
				"y": 3.1746046814,
				"z": 2.2653981324,
				"element": "H" 
			},
			{
				"x": 2.6473867442,
				"y": 2.993853796,
				"z": 0.8003791899,
				"element": "H" 
			},
			{
				"x": 0.846772721,
				"y": 1.9126615009,
				"z": -0.3601031639,
				"element": "H" 
			},
			{
				"x": 1.5216856921,
				"y": -0.7543903322,
				"z": 2.1965723982,
				"element": "H" 
			},
			{
				"x": 0.9365287972,
				"y": 0.456105034,
				"z": 3.3419755523,
				"element": "H" 
			},
			{
				"x": -0.4661662905,
				"y": -1.0992966397,
				"z": -2.4999262765,
				"element": "H" 
			},
			{
				"x": -0.9053544534,
				"y": -2.2657930795,
				"z": -1.229724945,
				"element": "H" 
			},
			{
				"x": -1.9732510858,
				"y": -2.0196905589,
				"z": -2.627978667,
				"element": "H" 
			},
			{
				"x": -3.6707336725,
				"y": -0.1481605442,
				"z": 0.2336836984,
				"element": "H" 
			},
			{
				"x": -2.8089277218,
				"y": -1.6968173179,
				"z": 0.4034633864,
				"element": "H" 
			},
			{
				"x": -3.9354339156,
				"y": -1.442560008,
				"z": -0.9454496324,
				"element": "H" 
			},
			{
				"x": -3.301140155,
				"y": 0.1906004958,
				"z": -2.844315644,
				"element": "H" 
			},
			{
				"x": -1.7566644265,
				"y": 1.0603980228,
				"z": -2.7538769207,
				"element": "H" 
			},
			{
				"x": -3.0628185578,
				"y": 1.4574992179,
				"z": -1.6225936631,
				"element": "H" 
			},
			{
				"x": -1.2405412584,
				"y": 1.9496620619,
				"z": 2.0768811163,
				"element": "H" 
			}
		],
		 "valence_orbital": [ 
			{
				"type": "occ",
				"energy": -0.30434,
				"method": "rhf"
			},
			{
				"type": "occ",
				"energy": -0.2868,
				"method": "rhf"
			},
			{
				"type": "occ",
				"energy": -0.28061,
				"method": "rhf"
			},
			{
				"type": "occ",
				"energy": -0.27165,
				"method": "rhf"
			},
			{
				"type": "occ",
				"energy": -0.2497,
				"method": "rhf"
			},
			{
				"type": "unocc",
				"energy": 0.01073,
				"method": "rhf"
			},
			{
				"type": "unocc",
				"energy": 0.02687,
				"method": "rhf"
			},
			{
				"type": "unocc",
				"energy": 0.05086,
				"method": "rhf"
			},
			{
				"type": "unocc",
				"energy": 0.07418,
				"method": "rhf"
			},
			{
				"type": "unocc",
				"energy": 0.0866,
				"method": "rhf"
			}
		],
		"cosmo_sigma_profile": { 
			"-0.025": 0.0,
			"-0.024": 0.0,
			"-0.023": 0.0,
			"-0.022": 0.0,
			"-0.021": 0.0,
			"-0.02": 0.0,
			"-0.019": 0.0,
			"-0.018": 0.0,
			"-0.017": 0.0,
			"-0.016": 0.0,
			"-0.015": 0.47186893923,
			"-0.014": 0.590343423069,
			"-0.013": 0.416935683993,
			"-0.012": 1.09116149692,
			"-0.011": 1.9828607227,
			"-0.01": 1.56113586199,
			"-0.009": 1.06157399229,
			"-0.008": 2.36776082252,
			"-0.007": 6.23065777005,
			"-0.006": 16.4445986601,
			"-0.005": 16.353076511,
			"-0.004": 26.2484775989,
			"-0.003": 33.2167219353,
			"-0.002": 29.8675735296,
			"-0.001": 25.1134119854,
			"0.0": 28.1186682252,
			"0.001": 17.0443210139,
			"0.002": 9.44826536068,
			"0.003": 8.11861458861,
			"0.004": 5.72826724134,
			"0.005": 4.89195659868,
			"0.006": 5.08475410847,
			"0.007": 5.49581964773,
			"0.008": 5.37864225044,
			"0.009": 4.92999101418,
			"0.01": 8.12624081199,
			"0.011": 7.42489620475,
			"0.012": 9.78538980131,
			"0.013": 5.03514048129,
			"0.014": 0.103365483344,
			"0.015": 0.0,
			"0.016": 0.0,
			"0.017": 0.0,
			"0.018": 0.0,
			"0.019": 0.0,
			"0.02": 0.0,
			"0.021": 0.0,
			"0.022": 0.0,
			"0.023": 0.0,
			"0.024": 0.0,
			"0.025": 0.0
		}
	}
}
