{
	 "smiles": "NC1=CC(N)=C(N)C=C1", 
	 "Tm": 370.45, 
	 "num_atms": 18, 
	 "gaussian": { 
		 "optdone": 1, 
		 "sigma_profile": "yes", 
		 "theory": "DFT", 
		 "functional": "B3LYP", 
		 "basiset": "6-31G**", 
		 "properties": { 
			 "R2extent": 1488.2404, 
			 "electric_dipole_moment_norm": 1.17024777291, 
			 "electric_quadrupole_moment_norm": 12.7808236311, 
			 "total_energy": -398.322066739, 
			 "HOMO_LUMO_gap": 0.19071, 
			 "cosmo_polarized_energy": -13.82, 
			 "cosmo_cavitation_energy": 21.18, 
			 "cosmo_dispersion_energy": -16.13, 
			 "cosmo_repulsion_energy": 1.34, 
			 "cosmo_total_nonelectrostatic_energy": 6.38, 
			 "SMD_solvation_energy": 3.52 
		},
		"coords": [
			{
				"x": 1.6870616391,
				"y": 2.0641688971,
				"z": 1.4164087027,
				"element": "N" 
			},
			{
				"x": 1.1025868898,
				"y": 0.8632582071,
				"z": 0.9742284321,
				"element": "C" 
			},
			{
				"x": 1.8671073236,
				"y": -0.0730539694,
				"z": 0.2604180497,
				"element": "C" 
			},
			{
				"x": 1.3280528227,
				"y": -1.3005179884,
				"z": -0.1315071616,
				"element": "C" 
			},
			{
				"x": 2.0637953518,
				"y": -2.2416860114,
				"z": -0.8680315228,
				"element": "N" 
			},
			{
				"x": -0.0186676407,
				"y": -1.604598595,
				"z": 0.1719680219,
				"element": "C" 
			},
			{
				"x": -0.5132689128,
				"y": -2.8782411973,
				"z": -0.2282253976,
				"element": "N" 
			},
			{
				"x": -0.7683546801,
				"y": -0.6726212353,
				"z": 0.8857633529,
				"element": "C" 
			},
			{
				"x": -0.2229192288,
				"y": 0.5458400481,
				"z": 1.2971001724,
				"element": "C" 
			},
			{
				"x": 1.0160641822,
				"y": 2.8020924731,
				"z": 1.5873206921,
				"element": "H" 
			},
			{
				"x": 2.4349821451,
				"y": 2.3984057947,
				"z": 0.8222821518,
				"element": "H" 
			},
			{
				"x": 2.9059548818,
				"y": 0.1503349289,
				"z": 0.0241482703,
				"element": "H" 
			},
			{
				"x": 3.0658229968,
				"y": -2.1107805113,
				"z": -0.809436258,
				"element": "H" 
			},
			{
				"x": 1.8040334683,
				"y": -3.1928934767,
				"z": -0.6249100113,
				"element": "H" 
			},
			{
				"x": -1.4802003412,
				"y": -3.0092630272,
				"z": 0.047418694,
				"element": "H" 
			},
			{
				"x": -0.4448753025,
				"y": -3.004238619,
				"z": -1.2359675632,
				"element": "H" 
			},
			{
				"x": -1.8054995514,
				"y": -0.8999371577,
				"z": 1.1244191993,
				"element": "H" 
			},
			{
				"x": -0.8295760436,
				"y": 1.2509314398,
				"z": 1.8590021754,
				"element": "H" 
			}
		],
		 "valence_orbital": [ 
			{
				"type": "occ",
				"energy": -0.32327,
				"method": "rhf"
			},
			{
				"type": "occ",
				"energy": -0.29587,
				"method": "rhf"
			},
			{
				"type": "occ",
				"energy": -0.25147,
				"method": "rhf"
			},
			{
				"type": "occ",
				"energy": -0.20314,
				"method": "rhf"
			},
			{
				"type": "occ",
				"energy": -0.16668,
				"method": "rhf"
			},
			{
				"type": "unocc",
				"energy": 0.02403,
				"method": "rhf"
			},
			{
				"type": "unocc",
				"energy": 0.04419,
				"method": "rhf"
			},
			{
				"type": "unocc",
				"energy": 0.08283,
				"method": "rhf"
			},
			{
				"type": "unocc",
				"energy": 0.0947,
				"method": "rhf"
			},
			{
				"type": "unocc",
				"energy": 0.11126,
				"method": "rhf"
			}
		],
		"cosmo_sigma_profile": { 
			"-0.025": 0.0,
			"-0.024": 0.0,
			"-0.023": 0.0,
			"-0.022": 0.0,
			"-0.021": 0.0,
			"-0.02": 0.0,
			"-0.019": 0.0,
			"-0.018": 0.0,
			"-0.017": 0.0,
			"-0.016": 0.0,
			"-0.015": 0.0,
			"-0.014": 0.0,
			"-0.013": 0.0,
			"-0.012": 0.907171856211,
			"-0.011": 5.18467252153,
			"-0.01": 6.26191520796,
			"-0.009": 7.53339863168,
			"-0.008": 9.39326075345,
			"-0.007": 7.6251520272,
			"-0.006": 8.24373887874,
			"-0.005": 8.6065507319,
			"-0.004": 9.17747459284,
			"-0.003": 8.17767330726,
			"-0.002": 7.73277574769,
			"-0.001": 5.61855504576,
			"0.0": 6.01562151515,
			"0.001": 6.38966724042,
			"0.002": 4.49766226265,
			"0.003": 5.93618860109,
			"0.004": 5.58421696135,
			"0.005": 7.64715126576,
			"0.006": 7.32047621655,
			"0.007": 10.1340409474,
			"0.008": 10.1126004049,
			"0.009": 5.2933240104,
			"0.01": 2.34447051872,
			"0.011": 1.91853767782,
			"0.012": 1.80487224113,
			"0.013": 1.8591442492,
			"0.014": 2.34039094506,
			"0.015": 1.49888359275,
			"0.016": 0.827830449391,
			"0.017": 0.0828685069939,
			"0.018": 0.0,
			"0.019": 0.0,
			"0.02": 0.0,
			"0.021": 0.0,
			"0.022": 0.0,
			"0.023": 0.0,
			"0.024": 0.0,
			"0.025": 0.0
		}
	}
}
