{
	 "smiles": "CC1=CC(=C(O)C(=C1)[N+]([O-])=O)[N+]([O-])=O", 
	 "Tm": 351.15, 
	 "num_atms": 20, 
	 "gaussian": { 
		 "optdone": 1, 
		 "sigma_profile": "yes", 
		 "theory": "DFT", 
		 "functional": "B3LYP", 
		 "basiset": "6-31G**", 
		 "properties": { 
			 "R2extent": 3468.7384, 
			 "electric_dipole_moment_norm": 4.60676974571, 
			 "electric_quadrupole_moment_norm": 12.6899151648, 
			 "total_energy": -755.780017653, 
			 "HOMO_LUMO_gap": 0.1459, 
			 "cosmo_polarized_energy": -13.08, 
			 "cosmo_cavitation_energy": 25.72, 
			 "cosmo_dispersion_energy": -19.14, 
			 "cosmo_repulsion_energy": 1.5, 
			 "cosmo_total_nonelectrostatic_energy": 8.08, 
			 "SMD_solvation_energy": 9.25 
		},
		"coords": [
			{
				"x": -1.8517502771,
				"y": 1.2586481669,
				"z": 0.9972797444,
				"element": "C" 
			},
			{
				"x": -0.5535992604,
				"y": 0.5324013207,
				"z": 0.7410367601,
				"element": "C" 
			},
			{
				"x": -0.0894908902,
				"y": -0.4628747656,
				"z": 1.5911818556,
				"element": "C" 
			},
			{
				"x": 1.1178204938,
				"y": -1.1256249102,
				"z": 1.3391478593,
				"element": "C" 
			},
			{
				"x": 1.9416877878,
				"y": -0.8152605274,
				"z": 0.2225506662,
				"element": "C" 
			},
			{
				"x": 3.0724381357,
				"y": -1.445780004,
				"z": -0.0488881401,
				"element": "O" 
			},
			{
				"x": 1.4450770336,
				"y": 0.2086214301,
				"z": -0.6235189318,
				"element": "C" 
			},
			{
				"x": 0.2362378098,
				"y": 0.8436899765,
				"z": -0.3762225823,
				"element": "C" 
			},
			{
				"x": 2.1981759627,
				"y": 0.6493285376,
				"z": -1.8096867797,
				"element": "N" 
			},
			{
				"x": 1.5459756148,
				"y": 1.173676397,
				"z": -2.7150608109,
				"element": "O" 
			},
			{
				"x": 3.4135529953,
				"y": 0.4947489266,
				"z": -1.8140875884,
				"element": "O" 
			},
			{
				"x": 1.5139504801,
				"y": -2.167447074,
				"z": 2.2683321555,
				"element": "N" 
			},
			{
				"x": 0.8024884469,
				"y": -2.4072791663,
				"z": 3.2343644914,
				"element": "O" 
			},
			{
				"x": 2.5793321966,
				"y": -2.7885200952,
				"z": 2.0436791255,
				"element": "O" 
			},
			{
				"x": -2.3731000484,
				"y": 0.8428214144,
				"z": 1.8627575123,
				"element": "H" 
			},
			{
				"x": -1.6792097286,
				"y": 2.3234023603,
				"z": 1.1896301058,
				"element": "H" 
			},
			{
				"x": -2.5218886261,
				"y": 1.1888262476,
				"z": 0.1339796797,
				"element": "H" 
			},
			{
				"x": -0.6510509189,
				"y": -0.7586261396,
				"z": 2.4693187871,
				"element": "H" 
			},
			{
				"x": 3.1834047188,
				"y": -2.1267931584,
				"z": 0.6641262106,
				"element": "H" 
			},
			{
				"x": -0.0808519263,
				"y": 1.5984410629,
				"z": -1.0874201203,
				"element": "H" 
			}
		],
		 "valence_orbital": [ 
			{
				"type": "occ",
				"energy": -0.31769,
				"method": "rhf"
			},
			{
				"type": "occ",
				"energy": -0.31473,
				"method": "rhf"
			},
			{
				"type": "occ",
				"energy": -0.30901,
				"method": "rhf"
			},
			{
				"type": "occ",
				"energy": -0.29242,
				"method": "rhf"
			},
			{
				"type": "occ",
				"energy": -0.26643,
				"method": "rhf"
			},
			{
				"type": "unocc",
				"energy": -0.12053,
				"method": "rhf"
			},
			{
				"type": "unocc",
				"energy": -0.09052,
				"method": "rhf"
			},
			{
				"type": "unocc",
				"energy": -0.02758,
				"method": "rhf"
			},
			{
				"type": "unocc",
				"energy": -0.01364,
				"method": "rhf"
			},
			{
				"type": "unocc",
				"energy": 0.0549,
				"method": "rhf"
			}
		],
		"cosmo_sigma_profile": { 
			"-0.025": 0.0,
			"-0.024": 0.0,
			"-0.023": 0.0,
			"-0.022": 0.0,
			"-0.021": 0.0,
			"-0.02": 0.0,
			"-0.019": 0.0,
			"-0.018": 0.0,
			"-0.017": 0.0,
			"-0.016": 0.0,
			"-0.015": 0.0,
			"-0.014": 0.0,
			"-0.013": 0.0,
			"-0.012": 0.0,
			"-0.011": 0.379318191409,
			"-0.01": 0.59274628277,
			"-0.009": 2.90838048191,
			"-0.008": 7.15307321879,
			"-0.007": 8.64672773135,
			"-0.006": 10.7098600996,
			"-0.005": 15.4175358334,
			"-0.004": 16.6144790604,
			"-0.003": 18.9551546235,
			"-0.002": 17.9422132501,
			"-0.001": 20.141302495,
			"0.0": 9.50472092202,
			"0.001": 5.11312741896,
			"0.002": 4.38482763587,
			"0.003": 5.86076207734,
			"0.004": 4.77191529686,
			"0.005": 7.39605577988,
			"0.006": 9.85853586272,
			"0.007": 14.3462818271,
			"0.008": 12.6317086796,
			"0.009": 7.90270315192,
			"0.01": 3.36456793556,
			"0.011": 1.31968326271,
			"0.012": 0.51624739423,
			"0.013": 0.0,
			"0.014": 0.0,
			"0.015": 0.0,
			"0.016": 0.0,
			"0.017": 0.0,
			"0.018": 0.0,
			"0.019": 0.0,
			"0.02": 0.0,
			"0.021": 0.0,
			"0.022": 0.0,
			"0.023": 0.0,
			"0.024": 0.0,
			"0.025": 0.0
		}
	}
}
