{
	 "smiles": "COC1=CC2=C(C=C1)C(=CC(NN)=N2)C1=CC=CC=C1", 
	 "Tm": 393.15, 
	 "num_atms": 35, 
	 "gaussian": { 
		 "optdone": 1, 
		 "sigma_profile": "yes", 
		 "theory": "DFT", 
		 "functional": "B3LYP", 
		 "basiset": "6-31G**", 
		 "properties": { 
			 "R2extent": 6780.8041, 
			 "electric_dipole_moment_norm": 0.750203105832, 
			 "electric_quadrupole_moment_norm": 15.2645602066, 
			 "total_energy": -858.201103141, 
			 "HOMO_LUMO_gap": 0.16163, 
			 "cosmo_polarized_energy": -13.08, 
			 "cosmo_cavitation_energy": 38.68, 
			 "cosmo_dispersion_energy": -28.02, 
			 "cosmo_repulsion_energy": 2.15, 
			 "cosmo_total_nonelectrostatic_energy": 12.82, 
			 "SMD_solvation_energy": 6.2 
		},
		"coords": [
			{
				"x": 2.7635777848,
				"y": -1.5270585781,
				"z": 4.0478196346,
				"element": "C" 
			},
			{
				"x": 3.0164774069,
				"y": -0.4180207935,
				"z": 3.198867897,
				"element": "O" 
			},
			{
				"x": 2.1702547468,
				"y": -0.2069283216,
				"z": 2.1519434939,
				"element": "C" 
			},
			{
				"x": 1.0730751247,
				"y": -0.9928747042,
				"z": 1.8493703575,
				"element": "C" 
			},
			{
				"x": 0.2537223456,
				"y": -0.6822646627,
				"z": 0.7338290137,
				"element": "C" 
			},
			{
				"x": 0.5815176525,
				"y": 0.4384994681,
				"z": -0.0942209869,
				"element": "C" 
			},
			{
				"x": 1.7019576021,
				"y": 1.2340282995,
				"z": 0.2645986821,
				"element": "C" 
			},
			{
				"x": 2.4801658947,
				"y": 0.9245294054,
				"z": 1.354147599,
				"element": "C" 
			},
			{
				"x": -0.273463869,
				"y": 0.7036986919,
				"z": -1.218361555,
				"element": "C" 
			},
			{
				"x": -1.371211075,
				"y": -0.1043722079,
				"z": -1.4075695963,
				"element": "C" 
			},
			{
				"x": -1.6146141176,
				"y": -1.1877556212,
				"z": -0.5112393009,
				"element": "C" 
			},
			{
				"x": -2.7384541656,
				"y": -1.9727821963,
				"z": -0.7109455834,
				"element": "N" 
			},
			{
				"x": -2.8852221868,
				"y": -3.2008952347,
				"z": -0.0265539023,
				"element": "N" 
			},
			{
				"x": -0.8292548213,
				"y": -1.4839945041,
				"z": 0.5085587949,
				"element": "N" 
			},
			{
				"x": -0.0122086993,
				"y": 1.8117123541,
				"z": -2.178930962,
				"element": "C" 
			},
			{
				"x": 1.2151473397,
				"y": 1.9179785633,
				"z": -2.8545216666,
				"element": "C" 
			},
			{
				"x": 1.4286673823,
				"y": 2.9335936547,
				"z": -3.7862914194,
				"element": "C" 
			},
			{
				"x": 0.4225514166,
				"y": 3.8633907835,
				"z": -4.0567638559,
				"element": "C" 
			},
			{
				"x": -0.8013995385,
				"y": 3.7678370912,
				"z": -3.3925460498,
				"element": "C" 
			},
			{
				"x": -1.0177332899,
				"y": 2.7492004277,
				"z": -2.4643274304,
				"element": "C" 
			},
			{
				"x": 2.8076284185,
				"y": -2.4747629324,
				"z": 3.4962964648,
				"element": "H" 
			},
			{
				"x": 1.784887902,
				"y": -1.4447259687,
				"z": 4.5373224297,
				"element": "H" 
			},
			{
				"x": 3.5487037103,
				"y": -1.512923201,
				"z": 4.8053538214,
				"element": "H" 
			},
			{
				"x": 0.7901760592,
				"y": -1.8533671565,
				"z": 2.4420223214,
				"element": "H" 
			},
			{
				"x": 1.9406260013,
				"y": 2.1105035773,
				"z": -0.327451167,
				"element": "H" 
			},
			{
				"x": 3.3343538676,
				"y": 1.5322442146,
				"z": 1.6330664783,
				"element": "H" 
			},
			{
				"x": -2.0363255421,
				"y": 0.0603473242,
				"z": -2.2502175486,
				"element": "H" 
			},
			{
				"x": -3.0882107392,
				"y": -2.0156373078,
				"z": -1.6580714678,
				"element": "H" 
			},
			{
				"x": -3.2838635417,
				"y": -2.9848464167,
				"z": 0.8863367637,
				"element": "H" 
			},
			{
				"x": -1.9459122874,
				"y": -3.548908079,
				"z": 0.1773005432,
				"element": "H" 
			},
			{
				"x": 1.995611084,
				"y": 1.1886829625,
				"z": -2.6601818798,
				"element": "H" 
			},
			{
				"x": 2.3809083318,
				"y": 2.9949109479,
				"z": -4.3055311333,
				"element": "H" 
			},
			{
				"x": 0.5914128225,
				"y": 4.6558469362,
				"z": -4.78012903,
				"element": "H" 
			},
			{
				"x": -1.5886626533,
				"y": 4.4888555954,
				"z": -3.5937721357,
				"element": "H" 
			},
			{
				"x": -1.9669863673,
				"y": 2.6829575886,
				"z": -1.9407076241,
				"element": "H" 
			}
		],
		 "valence_orbital": [ 
			{
				"type": "occ",
				"energy": -0.25471,
				"method": "rhf"
			},
			{
				"type": "occ",
				"energy": -0.25159,
				"method": "rhf"
			},
			{
				"type": "occ",
				"energy": -0.24389,
				"method": "rhf"
			},
			{
				"type": "occ",
				"energy": -0.2128,
				"method": "rhf"
			},
			{
				"type": "occ",
				"energy": -0.20192,
				"method": "rhf"
			},
			{
				"type": "unocc",
				"energy": -0.04029,
				"method": "rhf"
			},
			{
				"type": "unocc",
				"energy": -0.00772,
				"method": "rhf"
			},
			{
				"type": "unocc",
				"energy": -0.00293,
				"method": "rhf"
			},
			{
				"type": "unocc",
				"energy": 0.00289,
				"method": "rhf"
			},
			{
				"type": "unocc",
				"energy": 0.03989,
				"method": "rhf"
			}
		],
		"cosmo_sigma_profile": { 
			"-0.025": 0.0,
			"-0.024": 0.0,
			"-0.023": 0.0,
			"-0.022": 0.0,
			"-0.021": 0.0,
			"-0.02": 0.0,
			"-0.019": 0.0,
			"-0.018": 0.0,
			"-0.017": 0.0,
			"-0.016": 0.0,
			"-0.015": 0.0,
			"-0.014": 0.256901589956,
			"-0.013": 1.07748833624,
			"-0.012": 1.41852990034,
			"-0.011": 2.10072067741,
			"-0.01": 2.09983162623,
			"-0.009": 2.55601002683,
			"-0.008": 3.93971101755,
			"-0.007": 4.01880790448,
			"-0.006": 12.941563235,
			"-0.005": 25.8654733132,
			"-0.004": 27.9151016325,
			"-0.003": 27.8269068462,
			"-0.002": 19.1531104842,
			"-0.001": 15.8764000618,
			"0.0": 17.4221509466,
			"0.001": 16.9882196468,
			"0.002": 21.7996531876,
			"0.003": 29.0774893879,
			"0.004": 24.9328607874,
			"0.005": 21.3959311969,
			"0.006": 7.25262149948,
			"0.007": 4.40627653428,
			"0.008": 5.02358853478,
			"0.009": 4.13657612663,
			"0.01": 2.69879153874,
			"0.011": 1.78252090472,
			"0.012": 1.12023630085,
			"0.013": 0.668913110536,
			"0.014": 0.868927004605,
			"0.015": 0.364354427296,
			"0.016": 0.894428847611,
			"0.017": 0.433455693198,
			"0.018": 0.0638287000509,
			"0.019": 0.0,
			"0.02": 0.0,
			"0.021": 0.0,
			"0.022": 0.0,
			"0.023": 0.0,
			"0.024": 0.0,
			"0.025": 0.0
		}
	}
}
