{
	 "smiles": "ClC1=CC=CC=C1C1=CC=CC=C1", 
	 "Tm": 307.15, 
	 "num_atms": 22, 
	 "gaussian": { 
		 "optdone": 1, 
		 "sigma_profile": "yes", 
		 "theory": "DFT", 
		 "functional": "B3LYP", 
		 "basiset": "6-31G**", 
		 "properties": { 
			 "R2extent": 3108.0467, 
			 "electric_dipole_moment_norm": 1.66702464889, 
			 "electric_quadrupole_moment_norm": 9.71469961399, 
			 "total_energy": -922.898237348, 
			 "HOMO_LUMO_gap": 0.20424, 
			 "cosmo_polarized_energy": -5.47, 
			 "cosmo_cavitation_energy": 27.47, 
			 "cosmo_dispersion_energy": -20.12, 
			 "cosmo_repulsion_energy": 1.59, 
			 "cosmo_total_nonelectrostatic_energy": 8.94, 
			 "SMD_solvation_energy": 4.25 
		},
		"coords": [
			{
				"x": 0.1471310523,
				"y": -0.5076562976,
				"z": 3.1718292871,
				"element": "Cl" 
			},
			{
				"x": 1.0449941397,
				"y": -1.1413990032,
				"z": 1.7928578668,
				"element": "C" 
			},
			{
				"x": 2.2744004197,
				"y": -1.74565372,
				"z": 2.0604074378,
				"element": "C" 
			},
			{
				"x": 3.0545499963,
				"y": -2.2274154611,
				"z": 1.0111532134,
				"element": "C" 
			},
			{
				"x": 2.6035953091,
				"y": -2.0965842089,
				"z": -0.3024222191,
				"element": "C" 
			},
			{
				"x": 1.3744026395,
				"y": -1.4926803805,
				"z": -0.553704607,
				"element": "C" 
			},
			{
				"x": 0.5564536604,
				"y": -1.0019121622,
				"z": 0.4810606012,
				"element": "C" 
			},
			{
				"x": -0.7459612974,
				"y": -0.3701711788,
				"z": 0.1300955641,
				"element": "C" 
			},
			{
				"x": -0.7834495284,
				"y": 0.6659830436,
				"z": -0.8163341619,
				"element": "C" 
			},
			{
				"x": -1.9957351015,
				"y": 1.2411506522,
				"z": -1.1980632695,
				"element": "C" 
			},
			{
				"x": -3.1923192285,
				"y": 0.7843513081,
				"z": -0.6442121369,
				"element": "C" 
			},
			{
				"x": -3.1678627272,
				"y": -0.2502893308,
				"z": 0.2934810996,
				"element": "C" 
			},
			{
				"x": -1.9563915428,
				"y": -0.8223195548,
				"z": 0.6788287494,
				"element": "C" 
			},
			{
				"x": 2.6141062053,
				"y": -1.8249414685,
				"z": 3.0871547964,
				"element": "H" 
			},
			{
				"x": 4.0095386712,
				"y": -2.698303245,
				"z": 1.2239081099,
				"element": "H" 
			},
			{
				"x": 3.2022398404,
				"y": -2.4686068126,
				"z": -1.1283504534,
				"element": "H" 
			},
			{
				"x": 1.013001211,
				"y": -1.4059835631,
				"z": -1.5739549551,
				"element": "H" 
			},
			{
				"x": 0.1472020936,
				"y": 1.0311685046,
				"z": -1.2412822379,
				"element": "H" 
			},
			{
				"x": -2.0035126934,
				"y": 2.0479982854,
				"z": -1.9254087255,
				"element": "H" 
			},
			{
				"x": -4.1372673982,
				"y": 1.2304589265,
				"z": -0.9407114929,
				"element": "H" 
			},
			{
				"x": -4.0953159412,
				"y": -0.6169049203,
				"z": 0.7241218186,
				"element": "H" 
			},
			{
				"x": -1.9474997796,
				"y": -1.6323894129,
				"z": 1.4005457148,
				"element": "H" 
			}
		],
		 "valence_orbital": [ 
			{
				"type": "occ",
				"energy": -0.30724,
				"method": "rhf"
			},
			{
				"type": "occ",
				"energy": -0.27185,
				"method": "rhf"
			},
			{
				"type": "occ",
				"energy": -0.2502,
				"method": "rhf"
			},
			{
				"type": "occ",
				"energy": -0.24908,
				"method": "rhf"
			},
			{
				"type": "occ",
				"energy": -0.23236,
				"method": "rhf"
			},
			{
				"type": "unocc",
				"energy": -0.02812,
				"method": "rhf"
			},
			{
				"type": "unocc",
				"energy": -0.01286,
				"method": "rhf"
			},
			{
				"type": "unocc",
				"energy": -0.00083,
				"method": "rhf"
			},
			{
				"type": "unocc",
				"energy": 0.01431,
				"method": "rhf"
			},
			{
				"type": "unocc",
				"energy": 0.03421,
				"method": "rhf"
			}
		],
		"cosmo_sigma_profile": { 
			"-0.025": 0.0,
			"-0.024": 0.0,
			"-0.023": 0.0,
			"-0.022": 0.0,
			"-0.021": 0.0,
			"-0.02": 0.0,
			"-0.019": 0.0,
			"-0.018": 0.0,
			"-0.017": 0.0,
			"-0.016": 0.0,
			"-0.015": 0.0,
			"-0.014": 0.0,
			"-0.013": 0.0,
			"-0.012": 0.0,
			"-0.011": 0.0,
			"-0.01": 0.0,
			"-0.009": 0.0,
			"-0.008": 0.0157458565224,
			"-0.007": 2.30275897793,
			"-0.006": 12.4292793955,
			"-0.005": 17.4820378906,
			"-0.004": 21.3796671818,
			"-0.003": 17.0179624806,
			"-0.002": 15.0698779975,
			"-0.001": 12.8988078996,
			"0.0": 13.717926426,
			"0.001": 18.3421725624,
			"0.002": 19.9941140524,
			"0.003": 22.4563620654,
			"0.004": 24.771552727,
			"0.005": 17.5151744796,
			"0.006": 7.25863036699,
			"0.007": 0.189830088186,
			"0.008": 0.0,
			"0.009": 0.0,
			"0.01": 0.0,
			"0.011": 0.0,
			"0.012": 0.0,
			"0.013": 0.0,
			"0.014": 0.0,
			"0.015": 0.0,
			"0.016": 0.0,
			"0.017": 0.0,
			"0.018": 0.0,
			"0.019": 0.0,
			"0.02": 0.0,
			"0.021": 0.0,
			"0.022": 0.0,
			"0.023": 0.0,
			"0.024": 0.0,
			"0.025": 0.0
		}
	}
}
