{
	 "smiles": "NC1=CC=C(CN2C(=O)CC3=C2C=C(Cl)C=C3)C=C1", 
	 "Tm": 403.15, 
	 "num_atms": 32, 
	 "gaussian": { 
		 "optdone": 1, 
		 "sigma_profile": "yes", 
		 "theory": "DFT", 
		 "functional": "B3LYP", 
		 "basiset": "6-31G**", 
		 "properties": { 
			 "R2extent": 6855.6474, 
			 "electric_dipole_moment_norm": 2.44999848571, 
			 "electric_quadrupole_moment_norm": 22.1445488471, 
			 "total_energy": -1224.3817368, 
			 "HOMO_LUMO_gap": 0.18318, 
			 "cosmo_polarized_energy": -15.71, 
			 "cosmo_cavitation_energy": 37.76, 
			 "cosmo_dispersion_energy": -26.66, 
			 "cosmo_repulsion_energy": 2.07, 
			 "cosmo_total_nonelectrostatic_energy": 13.17, 
			 "SMD_solvation_energy": 6.01 
		},
		"coords": [
			{
				"x": 0.4069898279,
				"y": 4.7096398222,
				"z": 1.1238998104,
				"element": "N" 
			},
			{
				"x": -0.1174702597,
				"y": 3.6118441241,
				"z": 0.4421423053,
				"element": "C" 
			},
			{
				"x": 0.6645642947,
				"y": 2.9050546383,
				"z": -0.4911663418,
				"element": "C" 
			},
			{
				"x": 0.1250575306,
				"y": 1.8461888674,
				"z": -1.2110898881,
				"element": "C" 
			},
			{
				"x": -1.2067743683,
				"y": 1.447143237,
				"z": -1.0262989153,
				"element": "C" 
			},
			{
				"x": -1.7830199953,
				"y": 0.2952539643,
				"z": -1.8244680277,
				"element": "C" 
			},
			{
				"x": -1.1369486747,
				"y": -0.9926295569,
				"z": -1.5719124737,
				"element": "N" 
			},
			{
				"x": -0.244654945,
				"y": -1.5685146126,
				"z": -2.4708837895,
				"element": "C" 
			},
			{
				"x": 0.1071041551,
				"y": -1.069367644,
				"z": -3.5246484795,
				"element": "O" 
			},
			{
				"x": 0.1909569852,
				"y": -2.9155863577,
				"z": -1.8775013291,
				"element": "C" 
			},
			{
				"x": -0.5486308742,
				"y": -2.9762244005,
				"z": -0.5681863863,
				"element": "C" 
			},
			{
				"x": -1.3135862267,
				"y": -1.8011796778,
				"z": -0.440856415,
				"element": "C" 
			},
			{
				"x": -2.109611322,
				"y": -1.5581664628,
				"z": 0.674111278,
				"element": "C" 
			},
			{
				"x": -2.1235155691,
				"y": -2.5442740175,
				"z": 1.6670024363,
				"element": "C" 
			},
			{
				"x": -3.1181814787,
				"y": -2.2776562717,
				"z": 3.0950226384,
				"element": "Cl" 
			},
			{
				"x": -1.3817911053,
				"y": -3.7193284898,
				"z": 1.5689279677,
				"element": "C" 
			},
			{
				"x": -0.5842888085,
				"y": -3.9312881708,
				"z": 0.4341732145,
				"element": "C" 
			},
			{
				"x": -1.9820124834,
				"y": 2.1555160134,
				"z": -0.1033289126,
				"element": "C" 
			},
			{
				"x": -1.4541240731,
				"y": 3.2213282394,
				"z": 0.6224913442,
				"element": "C" 
			},
			{
				"x": -0.0590224199,
				"y": 4.944735369,
				"z": 1.9892068232,
				"element": "H" 
			},
			{
				"x": 1.4128178475,
				"y": 4.7183276986,
				"z": 1.220757881,
				"element": "H" 
			},
			{
				"x": 1.6980449917,
				"y": 3.2009691474,
				"z": -0.6548641117,
				"element": "H" 
			},
			{
				"x": 0.7433961826,
				"y": 1.3202202864,
				"z": -1.9339898691,
				"element": "H" 
			},
			{
				"x": -2.8549871533,
				"y": 0.1909153346,
				"z": -1.6221961727,
				"element": "H" 
			},
			{
				"x": -1.657751748,
				"y": 0.4659954501,
				"z": -2.8977255335,
				"element": "H" 
			},
			{
				"x": 1.2815779275,
				"y": -2.9293212109,
				"z": -1.7722227212,
				"element": "H" 
			},
			{
				"x": -0.073335001,
				"y": -3.7192084573,
				"z": -2.5742698919,
				"element": "H" 
			},
			{
				"x": -2.6820510884,
				"y": -0.6471391971,
				"z": 0.789712103,
				"element": "H" 
			},
			{
				"x": -1.4232712739,
				"y": -4.4545988249,
				"z": 2.3637819596,
				"element": "H" 
			},
			{
				"x": -0.0016200806,
				"y": -4.8444636603,
				"z": 0.3507951783,
				"element": "H" 
			},
			{
				"x": -3.0224065504,
				"y": 1.8771414383,
				"z": 0.052279541,
				"element": "H" 
			},
			{
				"x": -2.0793542431,
				"y": 3.7571733823,
				"z": 1.3324047779,
				"element": "H" 
			}
		],
		 "valence_orbital": [ 
			{
				"type": "occ",
				"energy": -0.26123,
				"method": "rhf"
			},
			{
				"type": "occ",
				"energy": -0.25244,
				"method": "rhf"
			},
			{
				"type": "occ",
				"energy": -0.24938,
				"method": "rhf"
			},
			{
				"type": "occ",
				"energy": -0.21831,
				"method": "rhf"
			},
			{
				"type": "occ",
				"energy": -0.20368,
				"method": "rhf"
			},
			{
				"type": "unocc",
				"energy": -0.0205,
				"method": "rhf"
			},
			{
				"type": "unocc",
				"energy": -0.01138,
				"method": "rhf"
			},
			{
				"type": "unocc",
				"energy": -0.00242,
				"method": "rhf"
			},
			{
				"type": "unocc",
				"energy": 0.00923,
				"method": "rhf"
			},
			{
				"type": "unocc",
				"energy": 0.02781,
				"method": "rhf"
			}
		],
		"cosmo_sigma_profile": { 
			"-0.025": 0.0,
			"-0.024": 0.0,
			"-0.023": 0.0,
			"-0.022": 0.0,
			"-0.021": 0.0,
			"-0.02": 0.0,
			"-0.019": 0.0,
			"-0.018": 0.0,
			"-0.017": 0.0,
			"-0.016": 0.0,
			"-0.015": 0.0,
			"-0.014": 0.0,
			"-0.013": 0.287808110753,
			"-0.012": 2.43149872311,
			"-0.011": 2.78486251151,
			"-0.01": 2.19723338733,
			"-0.009": 4.09029744038,
			"-0.008": 4.86568021482,
			"-0.007": 12.1870291368,
			"-0.006": 17.7977578277,
			"-0.005": 20.1797696202,
			"-0.004": 21.5323981018,
			"-0.003": 20.0258150726,
			"-0.002": 18.1149946674,
			"-0.001": 17.947858359,
			"0.0": 15.903493391,
			"0.001": 16.6408235659,
			"0.002": 21.9953284929,
			"0.003": 27.7238562372,
			"0.004": 22.5998366369,
			"0.005": 17.0668676728,
			"0.006": 12.3326130241,
			"0.007": 5.5212797147,
			"0.008": 1.67322718589,
			"0.009": 1.75884133351,
			"0.01": 2.77213507422,
			"0.011": 2.73248161493,
			"0.012": 3.83298487148,
			"0.013": 4.87837021634,
			"0.014": 1.34362619488,
			"0.015": 0.215739132813,
			"0.016": 0.0,
			"0.017": 0.0,
			"0.018": 0.0,
			"0.019": 0.0,
			"0.02": 0.0,
			"0.021": 0.0,
			"0.022": 0.0,
			"0.023": 0.0,
			"0.024": 0.0,
			"0.025": 0.0
		}
	}
}
