{
	 "smiles": "COC(=O)C1=CC(=CN1C)S(Cl)(=O)=O", 
	 "Tm": 352.15, 
	 "num_atms": 22, 
	 "gaussian": { 
		 "optdone": 1, 
		 "sigma_profile": "yes", 
		 "theory": "DFT", 
		 "functional": "B3LYP", 
		 "basiset": "6-31G**", 
		 "properties": { 
			 "R2extent": 4770.0519, 
			 "electric_dipole_moment_norm": 5.91718198554, 
			 "electric_quadrupole_moment_norm": 22.2346916073, 
			 "total_energy": -1485.52572425, 
			 "HOMO_LUMO_gap": 0.18312, 
			 "cosmo_polarized_energy": -13.91, 
			 "cosmo_cavitation_energy": 30.64, 
			 "cosmo_dispersion_energy": -22.48, 
			 "cosmo_repulsion_energy": 1.74, 
			 "cosmo_total_nonelectrostatic_energy": 9.91, 
			 "SMD_solvation_energy": 5.83 
		},
		"coords": [
			{
				"x": 1.4852413935,
				"y": 0.8504803129,
				"z": 3.6649089266,
				"element": "C" 
			},
			{
				"x": 1.1021526166,
				"y": 0.8441687042,
				"z": 2.2790856555,
				"element": "O" 
			},
			{
				"x": 0.0830629381,
				"y": 0.0185962587,
				"z": 1.966749337,
				"element": "C" 
			},
			{
				"x": -0.4941257789,
				"y": -0.6858935513,
				"z": 2.7770387115,
				"element": "O" 
			},
			{
				"x": -0.2289611144,
				"y": 0.0882114494,
				"z": 0.5349689194,
				"element": "C" 
			},
			{
				"x": 0.3681113156,
				"y": 0.849064391,
				"z": -0.4552554095,
				"element": "C" 
			},
			{
				"x": -0.302908541,
				"y": 0.5267387582,
				"z": -1.6545276872,
				"element": "C" 
			},
			{
				"x": -1.2922558104,
				"y": -0.4085065501,
				"z": -1.369640952,
				"element": "C" 
			},
			{
				"x": -1.2430168328,
				"y": -0.6744201552,
				"z": -0.0443444495,
				"element": "N" 
			},
			{
				"x": -2.1207234793,
				"y": -1.6304786087,
				"z": 0.6342168536,
				"element": "C" 
			},
			{
				"x": 0.0151302749,
				"y": 1.164826419,
				"z": -3.246256345,
				"element": "S" 
			},
			{
				"x": -1.1294142719,
				"y": 2.975373177,
				"z": -3.2470461641,
				"element": "Cl" 
			},
			{
				"x": 1.4074757624,
				"y": 1.5834698169,
				"z": -3.3353077041,
				"element": "O" 
			},
			{
				"x": -0.6139198419,
				"y": 0.3003431008,
				"z": -4.2383025622,
				"element": "O" 
			},
			{
				"x": 1.8083269318,
				"y": -0.1450127901,
				"z": 3.9788005855,
				"element": "H" 
			},
			{
				"x": 2.308228485,
				"y": 1.5608038981,
				"z": 3.7355032635,
				"element": "H" 
			},
			{
				"x": 0.6491182556,
				"y": 1.1667457081,
				"z": 4.2932327765,
				"element": "H" 
			},
			{
				"x": 1.1881299216,
				"y": 1.5375114715,
				"z": -0.3246306893,
				"element": "H" 
			},
			{
				"x": -1.9990402098,
				"y": -0.8883157986,
				"z": -2.0293151237,
				"element": "H" 
			},
			{
				"x": -1.5330655413,
				"y": -2.4253212365,
				"z": 1.0942173047,
				"element": "H" 
			},
			{
				"x": -2.7981740506,
				"y": -2.050573495,
				"z": -0.1103310905,
				"element": "H" 
			},
			{
				"x": -2.6908724227,
				"y": -1.1306112804,
				"z": 1.4174358435,
				"element": "H" 
			}
		],
		 "valence_orbital": [ 
			{
				"type": "occ",
				"energy": -0.31947,
				"method": "rhf"
			},
			{
				"type": "occ",
				"energy": -0.30611,
				"method": "rhf"
			},
			{
				"type": "occ",
				"energy": -0.29544,
				"method": "rhf"
			},
			{
				"type": "occ",
				"energy": -0.28529,
				"method": "rhf"
			},
			{
				"type": "occ",
				"energy": -0.26271,
				"method": "rhf"
			},
			{
				"type": "unocc",
				"energy": -0.07959,
				"method": "rhf"
			},
			{
				"type": "unocc",
				"energy": -0.05316,
				"method": "rhf"
			},
			{
				"type": "unocc",
				"energy": -0.00301,
				"method": "rhf"
			},
			{
				"type": "unocc",
				"energy": 0.06865,
				"method": "rhf"
			},
			{
				"type": "unocc",
				"energy": 0.07511,
				"method": "rhf"
			}
		],
		"cosmo_sigma_profile": { 
			"-0.025": 0.0,
			"-0.024": 0.0,
			"-0.023": 0.0,
			"-0.022": 0.0,
			"-0.021": 0.0,
			"-0.02": 0.0,
			"-0.019": 0.0,
			"-0.018": 0.0,
			"-0.017": 0.0,
			"-0.016": 0.0,
			"-0.015": 0.0,
			"-0.014": 0.0,
			"-0.013": 0.0,
			"-0.012": 0.386584825189,
			"-0.011": 2.40776449567,
			"-0.01": 1.89658534188,
			"-0.009": 2.7256695507,
			"-0.008": 3.50882032002,
			"-0.007": 5.38974729528,
			"-0.006": 14.392225471,
			"-0.005": 18.8626309892,
			"-0.004": 22.0680061422,
			"-0.003": 21.2137152942,
			"-0.002": 14.8091385488,
			"-0.001": 15.0079728558,
			"0.0": 15.8560485285,
			"0.001": 17.021860782,
			"0.002": 13.7172074204,
			"0.003": 14.2516760514,
			"0.004": 17.0533378424,
			"0.005": 7.41111081377,
			"0.006": 6.1376360038,
			"0.007": 6.36404217801,
			"0.008": 12.0093317643,
			"0.009": 8.40133004371,
			"0.01": 2.34351796661,
			"0.011": 2.42142122494,
			"0.012": 1.83081098524,
			"0.013": 0.0,
			"0.014": 0.0,
			"0.015": 0.0,
			"0.016": 0.0,
			"0.017": 0.0,
			"0.018": 0.0,
			"0.019": 0.0,
			"0.02": 0.0,
			"0.021": 0.0,
			"0.022": 0.0,
			"0.023": 0.0,
			"0.024": 0.0,
			"0.025": 0.0
		}
	}
}
