{
	 "smiles": "CCOC(=O)C1=CNN=C1N", 
	 "Tm": 377.15, 
	 "num_atms": 20, 
	 "gaussian": { 
		 "optdone": 1, 
		 "sigma_profile": "yes", 
		 "theory": "DFT", 
		 "functional": "B3LYP", 
		 "basiset": "6-31G**", 
		 "properties": { 
			 "R2extent": 2214.6438, 
			 "electric_dipole_moment_norm": 1.29524338253, 
			 "electric_quadrupole_moment_norm": 14.8407300626, 
			 "total_energy": -548.765533928, 
			 "HOMO_LUMO_gap": 0.19423, 
			 "cosmo_polarized_energy": -15.21, 
			 "cosmo_cavitation_energy": 24.29, 
			 "cosmo_dispersion_energy": -17.97, 
			 "cosmo_repulsion_energy": 1.48, 
			 "cosmo_total_nonelectrostatic_energy": 7.8, 
			 "SMD_solvation_energy": 4.58 
		},
		"coords": [
			{
				"x": -1.4628863468,
				"y": 2.300468249,
				"z": 0.9335249282,
				"element": "C" 
			},
			{
				"x": -1.2869658889,
				"y": 0.8297127613,
				"z": 1.2815965603,
				"element": "C" 
			},
			{
				"x": -0.0363315187,
				"y": 0.3114399845,
				"z": 0.7723070773,
				"element": "O" 
			},
			{
				"x": -0.0481538754,
				"y": -0.136444995,
				"z": -0.5197301466,
				"element": "C" 
			},
			{
				"x": -1.040405759,
				"y": -0.1040540729,
				"z": -1.2258875419,
				"element": "O" 
			},
			{
				"x": 1.2567988387,
				"y": -0.6375655365,
				"z": -0.9290476662,
				"element": "C" 
			},
			{
				"x": 1.5588164465,
				"y": -1.0880803677,
				"z": -2.2100804695,
				"element": "C" 
			},
			{
				"x": 2.8553304344,
				"y": -1.4286088365,
				"z": -2.1977004643,
				"element": "N" 
			},
			{
				"x": 3.4627104236,
				"y": -1.2411420493,
				"z": -0.9860151583,
				"element": "N" 
			},
			{
				"x": 2.4913095481,
				"y": -0.7647029724,
				"z": -0.2079255963,
				"element": "C" 
			},
			{
				"x": 2.7071253234,
				"y": -0.5063307271,
				"z": 1.1272834709,
				"element": "N" 
			},
			{
				"x": -0.6203942826,
				"y": 2.8937638057,
				"z": 1.3020181202,
				"element": "H" 
			},
			{
				"x": -2.3798713206,
				"y": 2.6850171694,
				"z": 1.3926812049,
				"element": "H" 
			},
			{
				"x": -1.5403737487,
				"y": 2.4291852547,
				"z": -0.1486271225,
				"element": "H" 
			},
			{
				"x": -2.1049604292,
				"y": 0.2302958523,
				"z": 0.8760386287,
				"element": "H" 
			},
			{
				"x": -1.2266322279,
				"y": 0.6772518965,
				"z": 2.362268586,
				"element": "H" 
			},
			{
				"x": 0.9297111771,
				"y": -1.1678906974,
				"z": -3.0839306,
				"element": "H" 
			},
			{
				"x": 3.4047403477,
				"y": -1.7957902886,
				"z": -2.9579993464,
				"element": "H" 
			},
			{
				"x": 3.6744870601,
				"y": -0.3555381445,
				"z": 1.375020945,
				"element": "H" 
			},
			{
				"x": 2.0457457984,
				"y": 0.1339137147,
				"z": 1.5414045907,
				"element": "H" 
			}
		],
		 "valence_orbital": [ 
			{
				"type": "occ",
				"energy": -0.29848,
				"method": "rhf"
			},
			{
				"type": "occ",
				"energy": -0.29227,
				"method": "rhf"
			},
			{
				"type": "occ",
				"energy": -0.26254,
				"method": "rhf"
			},
			{
				"type": "occ",
				"energy": -0.24891,
				"method": "rhf"
			},
			{
				"type": "occ",
				"energy": -0.2089,
				"method": "rhf"
			},
			{
				"type": "unocc",
				"energy": -0.01467,
				"method": "rhf"
			},
			{
				"type": "unocc",
				"energy": 0.03854,
				"method": "rhf"
			},
			{
				"type": "unocc",
				"energy": 0.07636,
				"method": "rhf"
			},
			{
				"type": "unocc",
				"energy": 0.09615,
				"method": "rhf"
			},
			{
				"type": "unocc",
				"energy": 0.1123,
				"method": "rhf"
			}
		],
		"cosmo_sigma_profile": { 
			"-0.025": 0.0,
			"-0.024": 0.0,
			"-0.023": 0.0,
			"-0.022": 0.0,
			"-0.021": 0.0,
			"-0.02": 0.0,
			"-0.019": 0.0,
			"-0.018": 0.0,
			"-0.017": 1.19295090814,
			"-0.016": 1.45751599468,
			"-0.015": 1.52163489281,
			"-0.014": 1.35297826581,
			"-0.013": 1.22807542049,
			"-0.012": 2.04850911,
			"-0.011": 2.29102924676,
			"-0.01": 3.68427353949,
			"-0.009": 4.66495388762,
			"-0.008": 4.27387769035,
			"-0.007": 3.76477307587,
			"-0.006": 3.47255704589,
			"-0.005": 6.94666146585,
			"-0.004": 12.7701021456,
			"-0.003": 14.139984714,
			"-0.002": 14.6269656635,
			"-0.001": 13.7480202262,
			"0.0": 17.0307822027,
			"0.001": 12.1765529461,
			"0.002": 11.99508633,
			"0.003": 10.2304374848,
			"0.004": 5.96511875098,
			"0.005": 5.25990276648,
			"0.006": 3.80387168878,
			"0.007": 5.1259325875,
			"0.008": 4.03622534037,
			"0.009": 3.15224197895,
			"0.01": 3.04329078877,
			"0.011": 4.00375736889,
			"0.012": 5.79789674484,
			"0.013": 4.09529815404,
			"0.014": 1.72778325388,
			"0.015": 0.761370952104,
			"0.016": 0.791077986078,
			"0.017": 0.0229825866675,
			"0.018": 0.0,
			"0.019": 0.0,
			"0.02": 0.0,
			"0.021": 0.0,
			"0.022": 0.0,
			"0.023": 0.0,
			"0.024": 0.0,
			"0.025": 0.0
		}
	}
}
