{
	 "smiles": "OC1=C(C=C(OC(F)(F)F)C=C1)C#N", 
	 "Tm": 358.65, 
	 "num_atms": 18, 
	 "gaussian": { 
		 "optdone": 1, 
		 "sigma_profile": "yes", 
		 "theory": "DFT", 
		 "functional": "B3LYP", 
		 "basiset": "6-31G**", 
		 "properties": { 
			 "R2extent": 4047.9787, 
			 "electric_dipole_moment_norm": 2.67107588249, 
			 "electric_quadrupole_moment_norm": 8.40020089522, 
			 "total_energy": -811.961210001, 
			 "HOMO_LUMO_gap": 0.18063, 
			 "cosmo_polarized_energy": -9.06, 
			 "cosmo_cavitation_energy": 25.63, 
			 "cosmo_dispersion_energy": -18.0, 
			 "cosmo_repulsion_energy": 1.35, 
			 "cosmo_total_nonelectrostatic_energy": 8.98, 
			 "SMD_solvation_energy": 7.59 
		},
		"coords": [
			{
				"x": 2.8064258704,
				"y": 0.8663822718,
				"z": -0.2775215215,
				"element": "O" 
			},
			{
				"x": 1.6200779894,
				"y": 0.2248369218,
				"z": -0.3753727171,
				"element": "C" 
			},
			{
				"x": 1.5096125386,
				"y": -1.1469336868,
				"z": -0.6846539986,
				"element": "C" 
			},
			{
				"x": 0.249902518,
				"y": -1.7707153133,
				"z": -0.7754090081,
				"element": "C" 
			},
			{
				"x": -0.8884227145,
				"y": -1.0108413814,
				"z": -0.5546124094,
				"element": "C" 
			},
			{
				"x": -2.1974544654,
				"y": -1.48989375,
				"z": -0.6100940656,
				"element": "O" 
			},
			{
				"x": -2.4568271111,
				"y": -2.790774771,
				"z": -0.8972303879,
				"element": "C" 
			},
			{
				"x": -3.7774353849,
				"y": -2.9459934182,
				"z": -0.8779078795,
				"element": "F" 
			},
			{
				"x": -1.9973629368,
				"y": -3.1500358209,
				"z": -2.1118572216,
				"element": "F" 
			},
			{
				"x": -1.9095902967,
				"y": -3.6337566353,
				"z": 0.0002328956,
				"element": "F" 
			},
			{
				"x": -0.789077698,
				"y": 0.3516280438,
				"z": -0.2470202648,
				"element": "C" 
			},
			{
				"x": 0.4511275308,
				"y": 0.9648634949,
				"z": -0.1578692591,
				"element": "C" 
			},
			{
				"x": 2.7158430846,
				"y": -1.8810982341,
				"z": -0.9023272005,
				"element": "C" 
			},
			{
				"x": 3.7455117956,
				"y": -2.401532176,
				"z": -1.0638088684,
				"element": "N" 
			},
			{
				"x": 3.5358309942,
				"y": 0.2500204082,
				"z": -0.4486378858,
				"element": "H" 
			},
			{
				"x": 0.2018498338,
				"y": -2.823886048,
				"z": -1.0143240654,
				"element": "H" 
			},
			{
				"x": -1.7008307199,
				"y": 0.9149895532,
				"z": -0.0805315727,
				"element": "H" 
			},
			{
				"x": 0.539119172,
				"y": 2.0189405412,
				"z": 0.0796454304,
				"element": "H" 
			}
		],
		 "valence_orbital": [ 
			{
				"type": "occ",
				"energy": -0.37212,
				"method": "rhf"
			},
			{
				"type": "occ",
				"energy": -0.3543,
				"method": "rhf"
			},
			{
				"type": "occ",
				"energy": -0.34153,
				"method": "rhf"
			},
			{
				"type": "occ",
				"energy": -0.28583,
				"method": "rhf"
			},
			{
				"type": "occ",
				"energy": -0.24587,
				"method": "rhf"
			},
			{
				"type": "unocc",
				"energy": -0.06524,
				"method": "rhf"
			},
			{
				"type": "unocc",
				"energy": -0.02073,
				"method": "rhf"
			},
			{
				"type": "unocc",
				"energy": 0.00827,
				"method": "rhf"
			},
			{
				"type": "unocc",
				"energy": 0.06295,
				"method": "rhf"
			},
			{
				"type": "unocc",
				"energy": 0.06674,
				"method": "rhf"
			}
		],
		"cosmo_sigma_profile": { 
			"-0.025": 0.0,
			"-0.024": 0.0,
			"-0.023": 0.0,
			"-0.022": 0.0,
			"-0.021": 0.0,
			"-0.02": 0.0,
			"-0.019": 0.0,
			"-0.018": 0.0,
			"-0.017": 0.0131290161539,
			"-0.016": 0.691971783642,
			"-0.015": 0.590077142173,
			"-0.014": 0.539420405495,
			"-0.013": 1.27469481265,
			"-0.012": 0.738489474734,
			"-0.011": 1.44684775861,
			"-0.01": 1.29294835614,
			"-0.009": 3.07570156643,
			"-0.008": 4.94252504362,
			"-0.007": 6.41034065243,
			"-0.006": 7.22393731741,
			"-0.005": 5.99159207318,
			"-0.004": 6.64269259599,
			"-0.003": 8.73384728002,
			"-0.002": 11.7322989352,
			"-0.001": 20.5882704988,
			"0.0": 27.6367813781,
			"0.001": 31.9177126512,
			"0.002": 26.9993327077,
			"0.003": 5.79080039455,
			"0.004": 3.84670307204,
			"0.005": 4.83248791366,
			"0.006": 3.4348473299,
			"0.007": 4.58984559766,
			"0.008": 3.9999515227,
			"0.009": 4.7251762209,
			"0.01": 3.35165660313,
			"0.011": 2.42670682888,
			"0.012": 2.03517126054,
			"0.013": 0.273742739412,
			"0.014": 0.0,
			"0.015": 0.0,
			"0.016": 0.0,
			"0.017": 0.0,
			"0.018": 0.0,
			"0.019": 0.0,
			"0.02": 0.0,
			"0.021": 0.0,
			"0.022": 0.0,
			"0.023": 0.0,
			"0.024": 0.0,
			"0.025": 0.0
		}
	}
}
