{
	 "smiles": "CCCC(=O)OC1(C(C)CC2C3CCC4=CC(=O)C=CC4(C)C3(F)C(=O)CC12C)C(=O)CCl", 
	 "Tm": 368.15, 
	 "num_atms": 65, 
	 "gaussian": { 
		 "optdone": 1, 
		 "sigma_profile": "yes", 
		 "theory": "DFT", 
		 "functional": "B3LYP", 
		 "basiset": "6-31G**", 
		 "properties": { 
			 "R2extent": 17546.686, 
			 "electric_dipole_moment_norm": 9.17248889779, 
			 "electric_quadrupole_moment_norm": 33.8181374495, 
			 "total_energy": -1946.17370014, 
			 "HOMO_LUMO_gap": 0.16364, 
			 "cosmo_polarized_energy": -23.77, 
			 "cosmo_cavitation_energy": 59.72, 
			 "cosmo_dispersion_energy": -40.0, 
			 "cosmo_repulsion_energy": 2.91, 
			 "cosmo_total_nonelectrostatic_energy": 22.63, 
			 "SMD_solvation_energy": 11.51 
		},
		"coords": [
			{
				"x": -0.5731226762,
				"y": 4.0130425719,
				"z": -6.6149555652,
				"element": "C" 
			},
			{
				"x": -1.4284001337,
				"y": 3.2452073138,
				"z": -5.6033304792,
				"element": "C" 
			},
			{
				"x": -0.5807479169,
				"y": 2.5636588696,
				"z": -4.5265620582,
				"element": "C" 
			},
			{
				"x": -1.399977825,
				"y": 1.7904706487,
				"z": -3.5164415275,
				"element": "C" 
			},
			{
				"x": -2.6120299553,
				"y": 1.6791878751,
				"z": -3.529391226,
				"element": "O" 
			},
			{
				"x": -0.6143696225,
				"y": 1.214547085,
				"z": -2.5851524377,
				"element": "O" 
			},
			{
				"x": -1.2552069714,
				"y": 0.4546134779,
				"z": -1.4965304911,
				"element": "C" 
			},
			{
				"x": -1.7007879663,
				"y": 1.5315229416,
				"z": -0.4662109741,
				"element": "C" 
			},
			{
				"x": -2.6862629405,
				"y": 1.1428242456,
				"z": 0.6529600675,
				"element": "C" 
			},
			{
				"x": -0.3327450896,
				"y": 1.972191977,
				"z": 0.1032787817,
				"element": "C" 
			},
			{
				"x": 0.5396118884,
				"y": 0.6911335103,
				"z": 0.2385683128,
				"element": "C" 
			},
			{
				"x": 0.5677895412,
				"y": 0.1562975006,
				"z": 1.6994719242,
				"element": "C" 
			},
			{
				"x": 1.2301450189,
				"y": 1.1238906774,
				"z": 2.69977182,
				"element": "C" 
			},
			{
				"x": 2.7639379256,
				"y": 1.0430934839,
				"z": 2.6672257261,
				"element": "C" 
			},
			{
				"x": 3.1775396484,
				"y": -0.355747143,
				"z": 3.0302258164,
				"element": "C" 
			},
			{
				"x": 3.9358444974,
				"y": -0.6066087986,
				"z": 4.1121172248,
				"element": "C" 
			},
			{
				"x": 4.2817210186,
				"y": -1.9667417131,
				"z": 4.5663963794,
				"element": "C" 
			},
			{
				"x": 5.0051566726,
				"y": -2.1617330254,
				"z": 5.5405283917,
				"element": "O" 
			},
			{
				"x": 3.685950173,
				"y": -3.0672594564,
				"z": 3.7871967211,
				"element": "C" 
			},
			{
				"x": 2.9260406065,
				"y": -2.8449118014,
				"z": 2.7065718718,
				"element": "C" 
			},
			{
				"x": 2.6656995415,
				"y": -1.468403769,
				"z": 2.1209925696,
				"element": "C" 
			},
			{
				"x": 3.4791571465,
				"y": -1.404454702,
				"z": 0.7908224681,
				"element": "C" 
			},
			{
				"x": 1.115180776,
				"y": -1.2885481513,
				"z": 1.8734826583,
				"element": "C" 
			},
			{
				"x": 0.4939434871,
				"y": -1.7569143163,
				"z": 3.0559512381,
				"element": "F" 
			},
			{
				"x": 0.5284795539,
				"y": -2.2181318809,
				"z": 0.765934045,
				"element": "C" 
			},
			{
				"x": 0.8809550599,
				"y": -3.3740653958,
				"z": 0.6453758482,
				"element": "O" 
			},
			{
				"x": -0.5511925852,
				"y": -1.6220896413,
				"z": -0.1172445921,
				"element": "C" 
			},
			{
				"x": -0.0522574373,
				"y": -0.3294297027,
				"z": -0.819286612,
				"element": "C" 
			},
			{
				"x": 1.0063705888,
				"y": -0.7431411037,
				"z": -1.8636731133,
				"element": "C" 
			},
			{
				"x": -2.2772045426,
				"y": -0.4895965054,
				"z": -2.2060156831,
				"element": "C" 
			},
			{
				"x": -1.8486234485,
				"y": -1.327155052,
				"z": -2.9738550453,
				"element": "O" 
			},
			{
				"x": -3.7876170439,
				"y": -0.3955354589,
				"z": -1.9961246029,
				"element": "C" 
			},
			{
				"x": -4.3292565603,
				"y": -1.629377788,
				"z": -0.7744610792,
				"element": "Cl" 
			},
			{
				"x": -1.1994380799,
				"y": 4.4908796745,
				"z": -7.3741934222,
				"element": "H" 
			},
			{
				"x": 0.0155395719,
				"y": 4.7987828969,
				"z": -6.1277161453,
				"element": "H" 
			},
			{
				"x": 0.1272359822,
				"y": 3.3481107858,
				"z": -7.1329473161,
				"element": "H" 
			},
			{
				"x": -2.0308484088,
				"y": 2.4874660916,
				"z": -6.1157045052,
				"element": "H" 
			},
			{
				"x": -2.1431418928,
				"y": 3.9222029366,
				"z": -5.1224165052,
				"element": "H" 
			},
			{
				"x": 0.1361866916,
				"y": 1.8611128929,
				"z": -4.9711496428,
				"element": "H" 
			},
			{
				"x": 0.0287824201,
				"y": 3.2932583033,
				"z": -3.9776723443,
				"element": "H" 
			},
			{
				"x": -2.1628520969,
				"y": 2.355103125,
				"z": -1.0192232349,
				"element": "H" 
			},
			{
				"x": -3.6946239013,
				"y": 0.9453930575,
				"z": 0.2897932188,
				"element": "H" 
			},
			{
				"x": -2.7575575133,
				"y": 1.9829198879,
				"z": 1.3513395549,
				"element": "H" 
			},
			{
				"x": -2.3785156075,
				"y": 0.2705416137,
				"z": 1.2313114516,
				"element": "H" 
			},
			{
				"x": 0.1468889305,
				"y": 2.6618595259,
				"z": -0.5959566088,
				"element": "H" 
			},
			{
				"x": -0.4535061209,
				"y": 2.510477431,
				"z": 1.0465276696,
				"element": "H" 
			},
			{
				"x": 1.5640817862,
				"y": 0.933393401,
				"z": -0.0609707452,
				"element": "H" 
			},
			{
				"x": -0.4745038171,
				"y": 0.0500231331,
				"z": 2.0166048075,
				"element": "H" 
			},
			{
				"x": 0.8936399418,
				"y": 0.8608358125,
				"z": 3.7082548918,
				"element": "H" 
			},
			{
				"x": 0.9007663942,
				"y": 2.1505189233,
				"z": 2.5158087996,
				"element": "H" 
			},
			{
				"x": 3.1331568669,
				"y": 1.3181181675,
				"z": 1.6696357461,
				"element": "H" 
			},
			{
				"x": 3.1986656362,
				"y": 1.7573217327,
				"z": 3.3727870084,
				"element": "H" 
			},
			{
				"x": 4.3201814062,
				"y": 0.2056639671,
				"z": 4.724529979,
				"element": "H" 
			},
			{
				"x": 3.8907231032,
				"y": -4.0744151443,
				"z": 4.1389041656,
				"element": "H" 
			},
			{
				"x": 2.49824079,
				"y": -3.6716572379,
				"z": 2.1520058965,
				"element": "H" 
			},
			{
				"x": 4.5435962743,
				"y": -1.4776507564,
				"z": 1.0257221415,
				"element": "H" 
			},
			{
				"x": 3.3168972469,
				"y": -0.4701749701,
				"z": 0.2480379302,
				"element": "H" 
			},
			{
				"x": 3.2183932797,
				"y": -2.2394199581,
				"z": 0.1374335436,
				"element": "H" 
			},
			{
				"x": -0.8319334595,
				"y": -2.3824342349,
				"z": -0.84695354,
				"element": "H" 
			},
			{
				"x": -1.4285554041,
				"y": -1.4309849113,
				"z": 0.5114023102,
				"element": "H" 
			},
			{
				"x": 0.5405208778,
				"y": -1.3098022018,
				"z": -2.6713604145,
				"element": "H" 
			},
			{
				"x": 1.5047416315,
				"y": 0.1276376692,
				"z": -2.2924810275,
				"element": "H" 
			},
			{
				"x": 1.7678295843,
				"y": -1.3752373087,
				"z": -1.4016750168,
				"element": "H" 
			},
			{
				"x": -4.2634752331,
				"y": -0.6595480392,
				"z": -2.9385274531,
				"element": "H" 
			},
			{
				"x": -4.1242373094,
				"y": 0.5805669602,
				"z": -1.6622875706,
				"element": "H" 
			}
		],
		 "valence_orbital": [ 
			{
				"type": "occ",
				"energy": -0.26867,
				"method": "rhf"
			},
			{
				"type": "occ",
				"energy": -0.26422,
				"method": "rhf"
			},
			{
				"type": "occ",
				"energy": -0.26129,
				"method": "rhf"
			},
			{
				"type": "occ",
				"energy": -0.25613,
				"method": "rhf"
			},
			{
				"type": "occ",
				"energy": -0.23022,
				"method": "rhf"
			},
			{
				"type": "unocc",
				"energy": -0.06658,
				"method": "rhf"
			},
			{
				"type": "unocc",
				"energy": -0.05775,
				"method": "rhf"
			},
			{
				"type": "unocc",
				"energy": -0.04795,
				"method": "rhf"
			},
			{
				"type": "unocc",
				"energy": -0.01527,
				"method": "rhf"
			},
			{
				"type": "unocc",
				"energy": 0.00318,
				"method": "rhf"
			}
		],
		"cosmo_sigma_profile": { 
			"-0.025": 0.0,
			"-0.024": 0.0,
			"-0.023": 0.0,
			"-0.022": 0.0,
			"-0.021": 0.0,
			"-0.02": 0.0,
			"-0.019": 0.0,
			"-0.018": 0.0,
			"-0.017": 0.00339967114208,
			"-0.016": 0.0182194652716,
			"-0.015": 0.00759900458629,
			"-0.014": 0.0543545077725,
			"-0.013": 0.111121572199,
			"-0.012": 0.0836971816419,
			"-0.011": 0.199063509177,
			"-0.01": 0.754585360331,
			"-0.009": 1.63806062068,
			"-0.008": 5.15846642109,
			"-0.007": 5.4510222047,
			"-0.006": 14.8145787285,
			"-0.005": 27.832443962,
			"-0.004": 39.0328291486,
			"-0.003": 56.7128884615,
			"-0.002": 53.6863211473,
			"-0.001": 49.7928738255,
			"0.0": 40.3337247049,
			"0.001": 35.0863157987,
			"0.002": 25.8929428766,
			"0.003": 20.5672507872,
			"0.004": 16.2375090807,
			"0.005": 20.6458962978,
			"0.006": 9.57306147525,
			"0.007": 6.69472495339,
			"0.008": 6.1242502383,
			"0.009": 5.88221623294,
			"0.01": 7.43409713245,
			"0.011": 6.19625144304,
			"0.012": 3.85787088495,
			"0.013": 4.62928984514,
			"0.014": 3.45704982803,
			"0.015": 0.619009032458,
			"0.016": 0.0,
			"0.017": 0.0,
			"0.018": 0.0,
			"0.019": 0.0,
			"0.02": 0.0,
			"0.021": 0.0,
			"0.022": 0.0,
			"0.023": 0.0,
			"0.024": 0.0,
			"0.025": 0.0
		}
	}
}
