{
	 "smiles": "COC1=CC=C(C=C1)C1(NC(=O)NC1=O)C1=CC=C(OC)C=C1", 
	 "Tm": 511.15, 
	 "num_atms": 39, 
	 "gaussian": { 
		 "optdone": 1, 
		 "sigma_profile": "yes", 
		 "theory": "DFT", 
		 "functional": "B3LYP", 
		 "basiset": "6-31G**", 
		 "properties": { 
			 "R2extent": 9138.3474, 
			 "electric_dipole_moment_norm": 4.32676511611, 
			 "electric_quadrupole_moment_norm": 24.3038489217, 
			 "total_energy": -1067.86337513, 
			 "HOMO_LUMO_gap": 0.19964, 
			 "cosmo_polarized_energy": -21.08, 
			 "cosmo_cavitation_energy": 43.22, 
			 "cosmo_dispersion_energy": -30.11, 
			 "cosmo_repulsion_energy": 2.31, 
			 "cosmo_total_nonelectrostatic_energy": 15.42, 
			 "SMD_solvation_energy": 10.35 
		},
		"coords": [
			{
				"x": 1.5733740909,
				"y": -0.2975457647,
				"z": -6.3208214361,
				"element": "C" 
			},
			{
				"x": 1.1673180041,
				"y": -1.0678720124,
				"z": -5.2008862375,
				"element": "O" 
			},
			{
				"x": 1.3220927239,
				"y": -0.5294549767,
				"z": -3.9572873656,
				"element": "C" 
			},
			{
				"x": 1.8419445289,
				"y": 0.7416145967,
				"z": -3.6965134392,
				"element": "C" 
			},
			{
				"x": 1.9525995064,
				"y": 1.186665943,
				"z": -2.3742254146,
				"element": "C" 
			},
			{
				"x": 1.5421825294,
				"y": 0.3911713472,
				"z": -1.3056479112,
				"element": "C" 
			},
			{
				"x": 1.0256513457,
				"y": -0.8874948938,
				"z": -1.5816843591,
				"element": "C" 
			},
			{
				"x": 0.9177517074,
				"y": -1.34345245,
				"z": -2.886187192,
				"element": "C" 
			},
			{
				"x": 1.6743776823,
				"y": 0.8525223386,
				"z": 0.151678769,
				"element": "C" 
			},
			{
				"x": 2.2142595848,
				"y": 2.2183020707,
				"z": 0.2596304047,
				"element": "N" 
			},
			{
				"x": 3.3906742621,
				"y": 2.293870073,
				"z": 0.9667602744,
				"element": "C" 
			},
			{
				"x": 3.9976893339,
				"y": 3.2823711379,
				"z": 1.3212999501,
				"element": "O" 
			},
			{
				"x": 3.7719084333,
				"y": 0.9580771676,
				"z": 1.203624328,
				"element": "N" 
			},
			{
				"x": 2.8240727719,
				"y": 0.0369606431,
				"z": 0.8178846004,
				"element": "C" 
			},
			{
				"x": 2.876671995,
				"y": -1.1650011348,
				"z": 0.964211136,
				"element": "O" 
			},
			{
				"x": 0.3563193367,
				"y": 0.7336318851,
				"z": 0.9276349498,
				"element": "C" 
			},
			{
				"x": 0.2945763335,
				"y": 0.2544647863,
				"z": 2.2457470747,
				"element": "C" 
			},
			{
				"x": -0.9035601629,
				"y": 0.2465293359,
				"z": 2.9483862436,
				"element": "C" 
			},
			{
				"x": -2.0785024845,
				"y": 0.7268468517,
				"z": 2.3524748566,
				"element": "C" 
			},
			{
				"x": -3.19955946,
				"y": 0.6778932033,
				"z": 3.1252983131,
				"element": "O" 
			},
			{
				"x": -4.4208026918,
				"y": 1.1425112156,
				"z": 2.5708376197,
				"element": "C" 
			},
			{
				"x": -2.0350535414,
				"y": 1.2069146974,
				"z": 1.0377947594,
				"element": "C" 
			},
			{
				"x": -0.8249456095,
				"y": 1.200264144,
				"z": 0.3416712427,
				"element": "C" 
			},
			{
				"x": 2.6452665635,
				"y": -0.0639802614,
				"z": -6.2848060864,
				"element": "H" 
			},
			{
				"x": 1.3695739427,
				"y": -0.9115569131,
				"z": -7.1994007652,
				"element": "H" 
			},
			{
				"x": 1.0057094294,
				"y": 0.6390701192,
				"z": -6.396274504,
				"element": "H" 
			},
			{
				"x": 2.1662444678,
				"y": 1.3905497665,
				"z": -4.5013175024,
				"element": "H" 
			},
			{
				"x": 2.3706597335,
				"y": 2.1686451533,
				"z": -2.1803836103,
				"element": "H" 
			},
			{
				"x": 0.7195213713,
				"y": -1.5291255089,
				"z": -0.7626300537,
				"element": "H" 
			},
			{
				"x": 0.523202029,
				"y": -2.3300743618,
				"z": -3.1058156187,
				"element": "H" 
			},
			{
				"x": 1.6078243901,
				"y": 3.0253047832,
				"z": 0.2539917371,
				"element": "H" 
			},
			{
				"x": 4.6355422695,
				"y": 0.7184519634,
				"z": 1.6692656061,
				"element": "H" 
			},
			{
				"x": 1.1828576492,
				"y": -0.1387182127,
				"z": 2.7284844155,
				"element": "H" 
			},
			{
				"x": -0.9551720638,
				"y": -0.132890163,
				"z": 3.9635349889,
				"element": "H" 
			},
			{
				"x": -4.3640083916,
				"y": 2.2042797783,
				"z": 2.2985435846,
				"element": "H" 
			},
			{
				"x": -5.1736770768,
				"y": 1.0121981565,
				"z": 3.3495060713,
				"element": "H" 
			},
			{
				"x": -4.7115779913,
				"y": 0.5603878589,
				"z": 1.6870126139,
				"element": "H" 
			},
			{
				"x": -2.9274403999,
				"y": 1.5755709168,
				"z": 0.5462153564,
				"element": "H" 
			},
			{
				"x": -0.8091661428,
				"y": 1.5565967202,
				"z": -0.6844073995,
				"element": "H" 
			}
		],
		 "valence_orbital": [ 
			{
				"type": "occ",
				"energy": -0.26053,
				"method": "rhf"
			},
			{
				"type": "occ",
				"energy": -0.25847,
				"method": "rhf"
			},
			{
				"type": "occ",
				"energy": -0.25178,
				"method": "rhf"
			},
			{
				"type": "occ",
				"energy": -0.22728,
				"method": "rhf"
			},
			{
				"type": "occ",
				"energy": -0.21698,
				"method": "rhf"
			},
			{
				"type": "unocc",
				"energy": -0.01734,
				"method": "rhf"
			},
			{
				"type": "unocc",
				"energy": -0.01278,
				"method": "rhf"
			},
			{
				"type": "unocc",
				"energy": -0.00438,
				"method": "rhf"
			},
			{
				"type": "unocc",
				"energy": 0.00168,
				"method": "rhf"
			},
			{
				"type": "unocc",
				"energy": 0.01527,
				"method": "rhf"
			}
		],
		"cosmo_sigma_profile": { 
			"-0.025": 0.0,
			"-0.024": 0.0,
			"-0.023": 0.0,
			"-0.022": 0.0,
			"-0.021": 0.0,
			"-0.02": 0.0,
			"-0.019": 0.0,
			"-0.018": 0.0,
			"-0.017": 0.461761527886,
			"-0.016": 1.57316105858,
			"-0.015": 1.33744705562,
			"-0.014": 1.7214449082,
			"-0.013": 1.92069195329,
			"-0.012": 1.96150454725,
			"-0.011": 1.76300743097,
			"-0.01": 1.35424062535,
			"-0.009": 2.3396689985,
			"-0.008": 2.12747394132,
			"-0.007": 3.50711797149,
			"-0.006": 19.5905528143,
			"-0.005": 34.495711492,
			"-0.004": 31.8524731131,
			"-0.003": 32.4080921703,
			"-0.002": 22.7794922085,
			"-0.001": 18.2804512677,
			"0.0": 15.2134479667,
			"0.001": 15.1160221156,
			"0.002": 16.0629622634,
			"0.003": 23.6170762862,
			"0.004": 24.9974758449,
			"0.005": 19.1323346632,
			"0.006": 7.34043072523,
			"0.007": 5.11008463058,
			"0.008": 4.93348880901,
			"0.009": 5.96500905708,
			"0.01": 6.85263643866,
			"0.011": 6.29394476521,
			"0.012": 8.49790793214,
			"0.013": 5.00990891332,
			"0.014": 0.384944714386,
			"0.015": 0.0,
			"0.016": 0.0,
			"0.017": 0.0,
			"0.018": 0.0,
			"0.019": 0.0,
			"0.02": 0.0,
			"0.021": 0.0,
			"0.022": 0.0,
			"0.023": 0.0,
			"0.024": 0.0,
			"0.025": 0.0
		}
	}
}
