{
	 "smiles": "CC1(C)NC(=O)C2=C(O1)C=CC=C2", 
	 "Tm": 405.15, 
	 "num_atms": 24, 
	 "gaussian": { 
		 "optdone": 1, 
		 "sigma_profile": "yes", 
		 "theory": "DFT", 
		 "functional": "B3LYP", 
		 "basiset": "6-31G**", 
		 "properties": { 
			 "R2extent": 2547.1633, 
			 "electric_dipole_moment_norm": 3.35749571258, 
			 "electric_quadrupole_moment_norm": 11.6312268987, 
			 "total_energy": -592.919938821, 
			 "HOMO_LUMO_gap": 0.19237, 
			 "cosmo_polarized_energy": -11.99, 
			 "cosmo_cavitation_energy": 26.85, 
			 "cosmo_dispersion_energy": -19.58, 
			 "cosmo_repulsion_energy": 1.54, 
			 "cosmo_total_nonelectrostatic_energy": 8.81, 
			 "SMD_solvation_energy": 5.0 
		},
		"coords": [
			{
				"x": 1.7340361871,
				"y": 2.6562577292,
				"z": 1.5276140997,
				"element": "C" 
			},
			{
				"x": 1.2058214776,
				"y": 1.3452046153,
				"z": 0.9548910977,
				"element": "C" 
			},
			{
				"x": 1.3328588422,
				"y": 0.1868332279,
				"z": 1.9564523798,
				"element": "C" 
			},
			{
				"x": -0.1748317784,
				"y": 1.5323124061,
				"z": 0.5085695875,
				"element": "N" 
			},
			{
				"x": -0.7913665123,
				"y": 0.6965898301,
				"z": -0.397302725,
				"element": "C" 
			},
			{
				"x": -2.0078896752,
				"y": 0.6629389848,
				"z": -0.5404521834,
				"element": "O" 
			},
			{
				"x": 0.1679253612,
				"y": -0.0851366105,
				"z": -1.2182179153,
				"element": "C" 
			},
			{
				"x": 1.5452356585,
				"y": 0.1572651855,
				"z": -1.0930184725,
				"element": "C" 
			},
			{
				"x": 2.031623973,
				"y": 1.0629236654,
				"z": -0.1914300194,
				"element": "O" 
			},
			{
				"x": 2.4576150107,
				"y": -0.4984970198,
				"z": -1.9240538927,
				"element": "C" 
			},
			{
				"x": 1.985588578,
				"y": -1.4068351482,
				"z": -2.8689840123,
				"element": "C" 
			},
			{
				"x": 0.6148256356,
				"y": -1.6689887329,
				"z": -2.9936919442,
				"element": "C" 
			},
			{
				"x": -0.2876976664,
				"y": -1.0023558515,
				"z": -2.1720024244,
				"element": "C" 
			},
			{
				"x": 1.1661904234,
				"y": 2.9418157933,
				"z": 2.4185805163,
				"element": "H" 
			},
			{
				"x": 2.7831197015,
				"y": 2.5414273093,
				"z": 1.8099003387,
				"element": "H" 
			},
			{
				"x": 1.6508736971,
				"y": 3.4480205957,
				"z": 0.7800335371,
				"element": "H" 
			},
			{
				"x": 0.725437498,
				"y": 0.3875554558,
				"z": 2.8441586116,
				"element": "H" 
			},
			{
				"x": 0.9855921014,
				"y": -0.7484392568,
				"z": 1.5099278283,
				"element": "H" 
			},
			{
				"x": 2.3750008439,
				"y": 0.0635205289,
				"z": 2.2641282939,
				"element": "H" 
			},
			{
				"x": -0.803489457,
				"y": 2.0495009555,
				"z": 1.1094783241,
				"element": "H" 
			},
			{
				"x": 3.5162867497,
				"y": -0.2891339398,
				"z": -1.8132030245,
				"element": "H" 
			},
			{
				"x": 2.6952704857,
				"y": -1.9202825627,
				"z": -3.5116118731,
				"element": "H" 
			},
			{
				"x": 0.2605946705,
				"y": -2.3809281871,
				"z": -3.7323231513,
				"element": "H" 
			},
			{
				"x": -1.3587218057,
				"y": -1.1583689735,
				"z": -2.2513429766,
				"element": "H" 
			}
		],
		 "valence_orbital": [ 
			{
				"type": "occ",
				"energy": -0.32324,
				"method": "rhf"
			},
			{
				"type": "occ",
				"energy": -0.26072,
				"method": "rhf"
			},
			{
				"type": "occ",
				"energy": -0.25663,
				"method": "rhf"
			},
			{
				"type": "occ",
				"energy": -0.2485,
				"method": "rhf"
			},
			{
				"type": "occ",
				"energy": -0.2294,
				"method": "rhf"
			},
			{
				"type": "unocc",
				"energy": -0.03703,
				"method": "rhf"
			},
			{
				"type": "unocc",
				"energy": 0.00169,
				"method": "rhf"
			},
			{
				"type": "unocc",
				"energy": 0.06373,
				"method": "rhf"
			},
			{
				"type": "unocc",
				"energy": 0.0715,
				"method": "rhf"
			},
			{
				"type": "unocc",
				"energy": 0.09285,
				"method": "rhf"
			}
		],
		"cosmo_sigma_profile": { 
			"-0.025": 0.0,
			"-0.024": 0.0,
			"-0.023": 0.0,
			"-0.022": 0.0,
			"-0.021": 0.0,
			"-0.02": 0.0,
			"-0.019": 0.0,
			"-0.018": 0.0,
			"-0.017": 0.0,
			"-0.016": 0.0,
			"-0.015": 0.0,
			"-0.014": 0.795012916977,
			"-0.013": 1.11930388362,
			"-0.012": 1.25414644019,
			"-0.011": 1.39646299189,
			"-0.01": 1.19079807773,
			"-0.009": 1.29195787422,
			"-0.008": 1.01203143744,
			"-0.007": 3.03459436877,
			"-0.006": 9.07661756233,
			"-0.005": 14.7496340737,
			"-0.004": 20.0114476939,
			"-0.003": 17.5002636028,
			"-0.002": 18.7328982225,
			"-0.001": 19.7583301478,
			"0.0": 15.5706270688,
			"0.001": 12.4955105279,
			"0.002": 14.2988768835,
			"0.003": 14.4093097804,
			"0.004": 14.401641432,
			"0.005": 6.02825319847,
			"0.006": 2.79254910613,
			"0.007": 2.87690641902,
			"0.008": 2.26786636135,
			"0.009": 2.09778404752,
			"0.01": 1.54197197361,
			"0.011": 2.0903106266,
			"0.012": 1.93034405537,
			"0.013": 4.88955456892,
			"0.014": 3.62253055806,
			"0.015": 0.294182794571,
			"0.016": 0.0,
			"0.017": 0.0,
			"0.018": 0.0,
			"0.019": 0.0,
			"0.02": 0.0,
			"0.021": 0.0,
			"0.022": 0.0,
			"0.023": 0.0,
			"0.024": 0.0,
			"0.025": 0.0
		}
	}
}
