{
	 "smiles": "CC(C)C1=NNC(C(O)=O)=C1Br", 
	 "Tm": 469.15, 
	 "num_atms": 21, 
	 "gaussian": { 
		 "optdone": 1, 
		 "sigma_profile": "yes", 
		 "theory": "DFT", 
		 "functional": "B3LYP", 
		 "basiset": "6-31G**", 
		 "properties": { 
			 "R2extent": 4127.7107, 
			 "electric_dipole_moment_norm": 0.760973764331, 
			 "electric_quadrupole_moment_norm": 6.83352203991, 
			 "total_energy": -3103.52640889, 
			 "HOMO_LUMO_gap": 0.19444, 
			 "cosmo_polarized_energy": -10.84, 
			 "cosmo_cavitation_energy": 27.05, 
			 "cosmo_dispersion_energy": -19.95, 
			 "cosmo_repulsion_energy": 1.61, 
			 "cosmo_total_nonelectrostatic_energy": 8.71, 
			 "SMD_solvation_energy": 4.2 
		},
		"coords": [
			{
				"x": -0.5664328493,
				"y": 1.5589669425,
				"z": 0.4105455126,
				"element": "C" 
			},
			{
				"x": -1.0588642353,
				"y": 0.1793512079,
				"z": -0.067100351,
				"element": "C" 
			},
			{
				"x": -0.9336951481,
				"y": 0.0278200748,
				"z": -1.5952931221,
				"element": "C" 
			},
			{
				"x": -0.3889095546,
				"y": -0.9524824518,
				"z": 0.6738992866,
				"element": "C" 
			},
			{
				"x": -1.1342100643,
				"y": -1.7699781862,
				"z": 1.4339896564,
				"element": "N" 
			},
			{
				"x": -0.2863120353,
				"y": -2.6585838364,
				"z": 1.9562060833,
				"element": "N" 
			},
			{
				"x": 1.0044876806,
				"y": -2.4665880967,
				"z": 1.573270694,
				"element": "C" 
			},
			{
				"x": 2.0164469511,
				"y": -3.3922267132,
				"z": 2.0934509171,
				"element": "C" 
			},
			{
				"x": 3.2655907499,
				"y": -3.1339020677,
				"z": 1.6673463663,
				"element": "O" 
			},
			{
				"x": 1.7359444207,
				"y": -4.3100137941,
				"z": 2.8444578321,
				"element": "O" 
			},
			{
				"x": 0.9697254716,
				"y": -1.3559530641,
				"z": 0.7327064544,
				"element": "C" 
			},
			{
				"x": 2.4374796511,
				"y": -0.5648700375,
				"z": -0.1396832841,
				"element": "Br" 
			},
			{
				"x": 0.4946367221,
				"y": 1.7033034751,
				"z": 0.1874725157,
				"element": "H" 
			},
			{
				"x": -0.7060163871,
				"y": 1.67575739,
				"z": 1.4896582193,
				"element": "H" 
			},
			{
				"x": -1.1277760089,
				"y": 2.3534162981,
				"z": -0.0923469047,
				"element": "H" 
			},
			{
				"x": -2.1197082209,
				"y": 0.0910165945,
				"z": 0.1946223901,
				"element": "H" 
			},
			{
				"x": -1.4935133304,
				"y": 0.8227003086,
				"z": -2.0991992134,
				"element": "H" 
			},
			{
				"x": 0.1091801862,
				"y": 0.0931716317,
				"z": -1.9187460949,
				"element": "H" 
			},
			{
				"x": -1.3339623406,
				"y": -0.9339891379,
				"z": -1.9304233098,
				"element": "H" 
			},
			{
				"x": -0.6033508249,
				"y": -3.3928025912,
				"z": 2.5741016845,
				"element": "H" 
			},
			{
				"x": 3.8354591664,
				"y": -3.8072139466,
				"z": 2.0760646676,
				"element": "H" 
			}
		],
		 "valence_orbital": [ 
			{
				"type": "occ",
				"energy": -0.31292,
				"method": "rhf"
			},
			{
				"type": "occ",
				"energy": -0.2974,
				"method": "rhf"
			},
			{
				"type": "occ",
				"energy": -0.28385,
				"method": "rhf"
			},
			{
				"type": "occ",
				"energy": -0.26623,
				"method": "rhf"
			},
			{
				"type": "occ",
				"energy": -0.24852,
				"method": "rhf"
			},
			{
				"type": "unocc",
				"energy": -0.05408,
				"method": "rhf"
			},
			{
				"type": "unocc",
				"energy": 0.00835,
				"method": "rhf"
			},
			{
				"type": "unocc",
				"energy": 0.03164,
				"method": "rhf"
			},
			{
				"type": "unocc",
				"energy": 0.06844,
				"method": "rhf"
			},
			{
				"type": "unocc",
				"energy": 0.09415,
				"method": "rhf"
			}
		],
		"cosmo_sigma_profile": { 
			"-0.025": 0.0,
			"-0.024": 0.0,
			"-0.023": 0.0,
			"-0.022": 0.0,
			"-0.021": 0.0,
			"-0.02": 0.0242640016481,
			"-0.019": 0.739718572003,
			"-0.018": 1.21313095529,
			"-0.017": 1.19363077839,
			"-0.016": 1.32186301184,
			"-0.015": 1.82340764444,
			"-0.014": 1.41121426314,
			"-0.013": 1.15460305502,
			"-0.012": 1.97407080196,
			"-0.011": 1.53702161299,
			"-0.01": 0.597108359245,
			"-0.009": 1.16781406828,
			"-0.008": 2.4095513043,
			"-0.007": 1.711962061,
			"-0.006": 1.62854507725,
			"-0.005": 2.56375385143,
			"-0.004": 8.02601443984,
			"-0.003": 18.9574861915,
			"-0.002": 19.9042698616,
			"-0.001": 23.3706019257,
			"0.0": 28.261740827,
			"0.001": 32.1606603839,
			"0.002": 12.9979283935,
			"0.003": 8.11414940808,
			"0.004": 8.57010346733,
			"0.005": 4.99156169277,
			"0.006": 4.76177558776,
			"0.007": 3.91473250805,
			"0.008": 5.2641320506,
			"0.009": 2.52891022001,
			"0.01": 4.11714572398,
			"0.011": 5.2862794383,
			"0.012": 1.34375647553,
			"0.013": 1.04562972588,
			"0.014": 0.800326603686,
			"0.015": 0.041324627824,
			"0.016": 0.0,
			"0.017": 0.0,
			"0.018": 0.0,
			"0.019": 0.0,
			"0.02": 0.0,
			"0.021": 0.0,
			"0.022": 0.0,
			"0.023": 0.0,
			"0.024": 0.0,
			"0.025": 0.0
		}
	}
}
