{
	 "smiles": "COC1=CC=C(C=C1)C(=O)C1=C(OC)C=C(OC)C=C1", 
	 "Tm": 344.15, 
	 "num_atms": 36, 
	 "gaussian": { 
		 "optdone": 1, 
		 "sigma_profile": "yes", 
		 "theory": "DFT", 
		 "functional": "B3LYP", 
		 "basiset": "6-31G**", 
		 "properties": { 
			 "R2extent": 7407.2497, 
			 "electric_dipole_moment_norm": 4.8730546416, 
			 "electric_quadrupole_moment_norm": 14.0023639511, 
			 "total_energy": -920.20196957, 
			 "HOMO_LUMO_gap": 0.17063, 
			 "cosmo_polarized_energy": -14.2, 
			 "cosmo_cavitation_energy": 39.75, 
			 "cosmo_dispersion_energy": -27.94, 
			 "cosmo_repulsion_energy": 2.15, 
			 "cosmo_total_nonelectrostatic_energy": 13.97, 
			 "SMD_solvation_energy": 9.46 
		},
		"coords": [
			{
				"x": 3.4267578274,
				"y": -0.1049255423,
				"z": 4.8659499281,
				"element": "C" 
			},
			{
				"x": 2.4299667665,
				"y": 0.9036527135,
				"z": 4.7843905217,
				"element": "O" 
			},
			{
				"x": 1.7877797288,
				"y": 1.0879984631,
				"z": 3.599749664,
				"element": "C" 
			},
			{
				"x": 0.8161187304,
				"y": 2.1048911346,
				"z": 3.5869939514,
				"element": "C" 
			},
			{
				"x": 0.1120990741,
				"y": 2.3721221741,
				"z": 2.4265281257,
				"element": "C" 
			},
			{
				"x": 0.3342267444,
				"y": 1.6245722979,
				"z": 1.2529844471,
				"element": "C" 
			},
			{
				"x": 1.3080556618,
				"y": 0.6187122482,
				"z": 1.2784587296,
				"element": "C" 
			},
			{
				"x": 2.0377485296,
				"y": 0.3486234773,
				"z": 2.4357197795,
				"element": "C" 
			},
			{
				"x": -0.4191866638,
				"y": 2.0088736642,
				"z": 0.024695519,
				"element": "C" 
			},
			{
				"x": -0.9739871011,
				"y": 3.1044553457,
				"z": -0.0383377774,
				"element": "O" 
			},
			{
				"x": -0.4575423312,
				"y": 1.110564104,
				"z": -1.180496463,
				"element": "C" 
			},
			{
				"x": -0.6683415641,
				"y": -0.2799135729,
				"z": -1.1723869458,
				"element": "C" 
			},
			{
				"x": -0.8449260649,
				"y": -1.0011735465,
				"z": -0.0104919585,
				"element": "O" 
			},
			{
				"x": -2.0892399962,
				"y": -0.7962149654,
				"z": 0.6606516397,
				"element": "C" 
			},
			{
				"x": -0.6990002971,
				"y": -1.0140545207,
				"z": -2.3637881012,
				"element": "C" 
			},
			{
				"x": -0.5199534738,
				"y": -0.3677844599,
				"z": -3.5903386624,
				"element": "C" 
			},
			{
				"x": -0.5165789489,
				"y": -0.9958863347,
				"z": -4.7970229881,
				"element": "O" 
			},
			{
				"x": -0.6880937067,
				"y": -2.4053835776,
				"z": -4.8257594163,
				"element": "C" 
			},
			{
				"x": -0.345405486,
				"y": 1.025728384,
				"z": -3.6218470157,
				"element": "C" 
			},
			{
				"x": -0.3324810776,
				"y": 1.7383680576,
				"z": -2.4358023476,
				"element": "C" 
			},
			{
				"x": 3.0126173692,
				"y": -1.0995912773,
				"z": 4.6584993046,
				"element": "H" 
			},
			{
				"x": 3.7989945645,
				"y": -0.0769196827,
				"z": 5.8909944376,
				"element": "H" 
			},
			{
				"x": 4.2562588788,
				"y": 0.0903823425,
				"z": 4.1748412287,
				"element": "H" 
			},
			{
				"x": 0.6447725261,
				"y": 2.6675121255,
				"z": 4.4988777454,
				"element": "H" 
			},
			{
				"x": -0.6250697935,
				"y": 3.1674951812,
				"z": 2.3956079756,
				"element": "H" 
			},
			{
				"x": 1.5146381021,
				"y": 0.044127524,
				"z": 0.3831983524,
				"element": "H" 
			},
			{
				"x": 2.7909798249,
				"y": -0.4298005608,
				"z": 2.419685833,
				"element": "H" 
			},
			{
				"x": -2.2012166886,
				"y": 0.2354567099,
				"z": 1.0120762978,
				"element": "H" 
			},
			{
				"x": -2.932998707,
				"y": -1.0464903516,
				"z": 0.0050043577,
				"element": "H" 
			},
			{
				"x": -2.0859931179,
				"y": -1.4667355266,
				"z": 1.5221436848,
				"element": "H" 
			},
			{
				"x": -0.8713906274,
				"y": -2.0802998867,
				"z": -2.2900842348,
				"element": "H" 
			},
			{
				"x": -1.6618422054,
				"y": -2.7020467293,
				"z": -4.4159754042,
				"element": "H" 
			},
			{
				"x": 0.1065807246,
				"y": -2.9199627553,
				"z": -4.2711545919,
				"element": "H" 
			},
			{
				"x": -0.638169881,
				"y": -2.6928438582,
				"z": -5.8769000244,
				"element": "H" 
			},
			{
				"x": -0.2237189577,
				"y": 1.5161512889,
				"z": -4.5815195663,
				"element": "H" 
			},
			{
				"x": -0.2125583632,
				"y": 2.8166399124,
				"z": -2.4493460257,
				"element": "H" 
			}
		],
		 "valence_orbital": [ 
			{
				"type": "occ",
				"energy": -0.2537,
				"method": "rhf"
			},
			{
				"type": "occ",
				"energy": -0.2459,
				"method": "rhf"
			},
			{
				"type": "occ",
				"energy": -0.2403,
				"method": "rhf"
			},
			{
				"type": "occ",
				"energy": -0.22265,
				"method": "rhf"
			},
			{
				"type": "occ",
				"energy": -0.21944,
				"method": "rhf"
			},
			{
				"type": "unocc",
				"energy": -0.04881,
				"method": "rhf"
			},
			{
				"type": "unocc",
				"energy": -0.00181,
				"method": "rhf"
			},
			{
				"type": "unocc",
				"energy": -0.00047,
				"method": "rhf"
			},
			{
				"type": "unocc",
				"energy": 0.00637,
				"method": "rhf"
			},
			{
				"type": "unocc",
				"energy": 0.06719,
				"method": "rhf"
			}
		],
		"cosmo_sigma_profile": { 
			"-0.025": 0.0,
			"-0.024": 0.0,
			"-0.023": 0.0,
			"-0.022": 0.0,
			"-0.021": 0.0,
			"-0.02": 0.0,
			"-0.019": 0.0,
			"-0.018": 0.0,
			"-0.017": 0.0,
			"-0.016": 0.0,
			"-0.015": 0.0,
			"-0.014": 0.0,
			"-0.013": 0.0,
			"-0.012": 0.0,
			"-0.011": 0.0,
			"-0.01": 0.0,
			"-0.009": 0.0,
			"-0.008": 0.0,
			"-0.007": 3.23251076862,
			"-0.006": 22.1279051516,
			"-0.005": 31.9713678872,
			"-0.004": 34.346808993,
			"-0.003": 34.2867330048,
			"-0.002": 22.6734624858,
			"-0.001": 18.0180408673,
			"0.0": 15.9484018907,
			"0.001": 16.4243457769,
			"0.002": 20.3047503543,
			"0.003": 27.0077041213,
			"0.004": 21.8862678706,
			"0.005": 10.3257893826,
			"0.006": 6.6786800224,
			"0.007": 5.86052306748,
			"0.008": 5.44890904193,
			"0.009": 5.12511655486,
			"0.01": 4.6473535384,
			"0.011": 3.07204973463,
			"0.012": 3.8887529894,
			"0.013": 2.92664159197,
			"0.014": 0.258291959195,
			"0.015": 0.0,
			"0.016": 0.0,
			"0.017": 0.0,
			"0.018": 0.0,
			"0.019": 0.0,
			"0.02": 0.0,
			"0.021": 0.0,
			"0.022": 0.0,
			"0.023": 0.0,
			"0.024": 0.0,
			"0.025": 0.0
		}
	}
}
