{
	 "smiles": "BrCCOC1=CC=CC=C1", 
	 "Tm": 312.15, 
	 "num_atms": 19, 
	 "gaussian": { 
		 "optdone": 1, 
		 "sigma_profile": "yes", 
		 "theory": "DFT", 
		 "functional": "B3LYP", 
		 "basiset": "6-31G**", 
		 "properties": { 
			 "R2extent": 5027.3263, 
			 "electric_dipole_moment_norm": 1.08060993888, 
			 "electric_quadrupole_moment_norm": 6.0238038655, 
			 "total_energy": -2956.89565946, 
			 "HOMO_LUMO_gap": 0.21479, 
			 "cosmo_polarized_energy": -6.4, 
			 "cosmo_cavitation_energy": 24.75, 
			 "cosmo_dispersion_energy": -18.72, 
			 "cosmo_repulsion_energy": 1.53, 
			 "cosmo_total_nonelectrostatic_energy": 7.56, 
			 "SMD_solvation_energy": 3.2 
		},
		"coords": [
			{
				"x": -4.4184984151,
				"y": -2.7464435887,
				"z": 1.0384440059,
				"element": "Br" 
			},
			{
				"x": -2.5187864217,
				"y": -2.5047507295,
				"z": 0.5582431673,
				"element": "C" 
			},
			{
				"x": -2.3469666369,
				"y": -1.2117980628,
				"z": -0.2328066429,
				"element": "C" 
			},
			{
				"x": -0.9852142259,
				"y": -1.0388669693,
				"z": -0.6091203237,
				"element": "O" 
			},
			{
				"x": -0.0916400648,
				"y": -0.4974323205,
				"z": 0.2827390653,
				"element": "C" 
			},
			{
				"x": -0.4037308998,
				"y": -0.0760831053,
				"z": 1.5805389989,
				"element": "C" 
			},
			{
				"x": 0.6007504973,
				"y": 0.4737972921,
				"z": 2.384090527,
				"element": "C" 
			},
			{
				"x": 1.9052072704,
				"y": 0.6040050878,
				"z": 1.9133841996,
				"element": "C" 
			},
			{
				"x": 2.2076643256,
				"y": 0.1767464289,
				"z": 0.6161165532,
				"element": "C" 
			},
			{
				"x": 1.2200487199,
				"y": -0.3704212549,
				"z": -0.1959381925,
				"element": "C" 
			},
			{
				"x": -1.9644161562,
				"y": -2.4978119616,
				"z": 1.4952727295,
				"element": "H" 
			},
			{
				"x": -2.2342867195,
				"y": -3.3734567239,
				"z": -0.0336537214,
				"element": "H" 
			},
			{
				"x": -2.9062821798,
				"y": -1.2717321003,
				"z": -1.1692515559,
				"element": "H" 
			},
			{
				"x": -2.7228751295,
				"y": -0.3506676579,
				"z": 0.3298691332,
				"element": "H" 
			},
			{
				"x": -1.4084279251,
				"y": -0.1659702192,
				"z": 1.9773828588,
				"element": "H" 
			},
			{
				"x": 0.3497054636,
				"y": 0.7985827909,
				"z": 3.3899191371,
				"element": "H" 
			},
			{
				"x": 2.6774984445,
				"y": 1.030067553,
				"z": 2.5460002096,
				"element": "H" 
			},
			{
				"x": 3.2198089183,
				"y": 0.2714373666,
				"z": 0.2331079097,
				"element": "H" 
			},
			{
				"x": 1.4358411348,
				"y": -0.7039018254,
				"z": -1.2057380588,
				"element": "H" 
			}
		],
		 "valence_orbital": [ 
			{
				"type": "occ",
				"energy": -0.32696,
				"method": "rhf"
			},
			{
				"type": "occ",
				"energy": -0.28242,
				"method": "rhf"
			},
			{
				"type": "occ",
				"energy": -0.28051,
				"method": "rhf"
			},
			{
				"type": "occ",
				"energy": -0.25442,
				"method": "rhf"
			},
			{
				"type": "occ",
				"energy": -0.22461,
				"method": "rhf"
			},
			{
				"type": "unocc",
				"energy": -0.00982,
				"method": "rhf"
			},
			{
				"type": "unocc",
				"energy": -0.00303,
				"method": "rhf"
			},
			{
				"type": "unocc",
				"energy": 0.00991,
				"method": "rhf"
			},
			{
				"type": "unocc",
				"energy": 0.08011,
				"method": "rhf"
			},
			{
				"type": "unocc",
				"energy": 0.10685,
				"method": "rhf"
			}
		],
		"cosmo_sigma_profile": { 
			"-0.025": 0.0,
			"-0.024": 0.0,
			"-0.023": 0.0,
			"-0.022": 0.0,
			"-0.021": 0.0,
			"-0.02": 0.0,
			"-0.019": 0.0,
			"-0.018": 0.0,
			"-0.017": 0.0,
			"-0.016": 0.0,
			"-0.015": 0.0,
			"-0.014": 0.0,
			"-0.013": 0.0,
			"-0.012": 0.0,
			"-0.011": 0.0,
			"-0.01": 0.0,
			"-0.009": 0.0305970017963,
			"-0.008": 1.95278569436,
			"-0.007": 6.81165449542,
			"-0.006": 13.1745130818,
			"-0.005": 16.9241430789,
			"-0.004": 16.7595996776,
			"-0.003": 17.3769468629,
			"-0.002": 12.1614220233,
			"-0.001": 11.0141611903,
			"0.0": 10.7787167565,
			"0.001": 10.3990992517,
			"0.002": 11.0656151363,
			"0.003": 15.265757256,
			"0.004": 15.6013416699,
			"0.005": 18.4103128037,
			"0.006": 17.0877936296,
			"0.007": 2.11962690583,
			"0.008": 1.41096381254,
			"0.009": 1.0265698655,
			"0.01": 0.890951932269,
			"0.011": 0.0,
			"0.012": 0.0,
			"0.013": 0.0,
			"0.014": 0.0,
			"0.015": 0.0,
			"0.016": 0.0,
			"0.017": 0.0,
			"0.018": 0.0,
			"0.019": 0.0,
			"0.02": 0.0,
			"0.021": 0.0,
			"0.022": 0.0,
			"0.023": 0.0,
			"0.024": 0.0,
			"0.025": 0.0
		}
	}
}
