{
	 "smiles": "OC(=O)C1CC1C1CCCCC1", 
	 "Tm": 326.15, 
	 "num_atms": 28, 
	 "gaussian": { 
		 "optdone": 1, 
		 "sigma_profile": "yes", 
		 "theory": "DFT", 
		 "functional": "B3LYP", 
		 "basiset": "6-31G**", 
		 "properties": { 
			 "R2extent": 3107.9688, 
			 "electric_dipole_moment_norm": 4.0517673292, 
			 "electric_quadrupole_moment_norm": 17.6391850758, 
			 "total_energy": -541.140047086, 
			 "HOMO_LUMO_gap": 0.27224, 
			 "cosmo_polarized_energy": -12.76, 
			 "cosmo_cavitation_energy": 28.14, 
			 "cosmo_dispersion_energy": -20.65, 
			 "cosmo_repulsion_energy": 1.66, 
			 "cosmo_total_nonelectrostatic_energy": 9.16, 
			 "SMD_solvation_energy": 4.6 
		},
		"coords": [
			{
				"x": -0.2072088884,
				"y": -1.3241184874,
				"z": 4.8146635001,
				"element": "O" 
			},
			{
				"x": -0.4104191819,
				"y": -0.491492951,
				"z": 3.7551830146,
				"element": "C" 
			},
			{
				"x": -1.5013084418,
				"y": 0.0045933096,
				"z": 3.5928566979,
				"element": "O" 
			},
			{
				"x": 0.7775570421,
				"y": -0.2818739753,
				"z": 2.8735745676,
				"element": "C" 
			},
			{
				"x": 0.776449001,
				"y": 0.8826070302,
				"z": 1.9034082887,
				"element": "C" 
			},
			{
				"x": 0.6890551325,
				"y": -0.5062791227,
				"z": 1.3535481401,
				"element": "C" 
			},
			{
				"x": -0.5077220439,
				"y": -1.1177970539,
				"z": 0.6050284098,
				"element": "C" 
			},
			{
				"x": -1.7568369419,
				"y": -0.2075781294,
				"z": 0.4386598948,
				"element": "C" 
			},
			{
				"x": -1.7235752427,
				"y": 0.5739275376,
				"z": -0.8811829357,
				"element": "C" 
			},
			{
				"x": -1.8029543575,
				"y": -0.3819713439,
				"z": -2.0955749634,
				"element": "C" 
			},
			{
				"x": -1.151801974,
				"y": -1.7523863583,
				"z": -1.7900439165,
				"element": "C" 
			},
			{
				"x": -0.0032569002,
				"y": -1.5968310889,
				"z": -0.7871594029,
				"element": "C" 
			},
			{
				"x": 0.6974210964,
				"y": -1.6655749317,
				"z": 4.8012297966,
				"element": "H" 
			},
			{
				"x": 1.7350091884,
				"y": -0.546188143,
				"z": 3.3189969724,
				"element": "H" 
			},
			{
				"x": -0.1249930949,
				"y": 1.4856385205,
				"z": 1.9175346453,
				"element": "H" 
			},
			{
				"x": 1.7002911941,
				"y": 1.4411310474,
				"z": 1.7877116301,
				"element": "H" 
			},
			{
				"x": 1.6370103304,
				"y": -0.886823505,
				"z": 0.9752199063,
				"element": "H" 
			},
			{
				"x": -0.8228460854,
				"y": -2.0090461584,
				"z": 1.163779574,
				"element": "H" 
			},
			{
				"x": -2.6495633674,
				"y": -0.8454215709,
				"z": 0.4460795323,
				"element": "H" 
			},
			{
				"x": -1.8716678546,
				"y": 0.4528538517,
				"z": 1.2984117224,
				"element": "H" 
			},
			{
				"x": -2.5445974256,
				"y": 1.2986644817,
				"z": -0.9159601317,
				"element": "H" 
			},
			{
				"x": -0.7982199199,
				"y": 1.1628056318,
				"z": -0.9280486147,
				"element": "H" 
			},
			{
				"x": -1.3098928913,
				"y": 0.0798949559,
				"z": -2.959568983,
				"element": "H" 
			},
			{
				"x": -2.8497330905,
				"y": -0.5335252078,
				"z": -2.3846276127,
				"element": "H" 
			},
			{
				"x": -0.7927984582,
				"y": -2.2181903113,
				"z": -2.7146807554,
				"element": "H" 
			},
			{
				"x": -1.8988282414,
				"y": -2.4402149361,
				"z": -1.3732179306,
				"element": "H" 
			},
			{
				"x": 0.7133231788,
				"y": -0.8649203956,
				"z": -1.1856493472,
				"element": "H" 
			},
			{
				"x": 0.5521082379,
				"y": -2.5358826956,
				"z": -0.6742716992,
				"element": "H" 
			}
		],
		 "valence_orbital": [ 
			{
				"type": "occ",
				"energy": -0.30962,
				"method": "rhf"
			},
			{
				"type": "occ",
				"energy": -0.29434,
				"method": "rhf"
			},
			{
				"type": "occ",
				"energy": -0.28791,
				"method": "rhf"
			},
			{
				"type": "occ",
				"energy": -0.27869,
				"method": "rhf"
			},
			{
				"type": "occ",
				"energy": -0.26582,
				"method": "rhf"
			},
			{
				"type": "unocc",
				"energy": 0.00642,
				"method": "rhf"
			},
			{
				"type": "unocc",
				"energy": 0.0532,
				"method": "rhf"
			},
			{
				"type": "unocc",
				"energy": 0.08145,
				"method": "rhf"
			},
			{
				"type": "unocc",
				"energy": 0.0874,
				"method": "rhf"
			},
			{
				"type": "unocc",
				"energy": 0.11074,
				"method": "rhf"
			}
		],
		"cosmo_sigma_profile": { 
			"-0.025": 0.0,
			"-0.024": 0.0,
			"-0.023": 0.0,
			"-0.022": 0.0,
			"-0.021": 0.0,
			"-0.02": 0.0,
			"-0.019": 0.314350487125,
			"-0.018": 1.19699763933,
			"-0.017": 0.854776456927,
			"-0.016": 1.34313293857,
			"-0.015": 0.706706696151,
			"-0.014": 1.28907304954,
			"-0.013": 0.956471206852,
			"-0.012": 1.03722853036,
			"-0.011": 0.929402915635,
			"-0.01": 1.07525225582,
			"-0.009": 0.922152594761,
			"-0.008": 1.03907407179,
			"-0.007": 1.87583839454,
			"-0.006": 2.56809231287,
			"-0.005": 7.21728963304,
			"-0.004": 6.86640243931,
			"-0.003": 9.59948125305,
			"-0.002": 26.9704042099,
			"-0.001": 36.5314768317,
			"0.0": 35.1895946659,
			"0.001": 28.0321394603,
			"0.002": 14.8609715253,
			"0.003": 3.38384237889,
			"0.004": 2.45364612136,
			"0.005": 2.90845526236,
			"0.006": 2.84893265847,
			"0.007": 2.50730308829,
			"0.008": 3.01863262877,
			"0.009": 2.33120580251,
			"0.01": 4.28184937266,
			"0.011": 5.12679799549,
			"0.012": 3.70017569881,
			"0.013": 3.00628822878,
			"0.014": 0.751708722718,
			"0.015": 0.0,
			"0.016": 0.0,
			"0.017": 0.0,
			"0.018": 0.0,
			"0.019": 0.0,
			"0.02": 0.0,
			"0.021": 0.0,
			"0.022": 0.0,
			"0.023": 0.0,
			"0.024": 0.0,
			"0.025": 0.0
		}
	}
}
