{
	 "smiles": "SC1=NN=C(O1)C1=CC=CO1", 
	 "Tm": 447.15, 
	 "num_atms": 15, 
	 "gaussian": { 
		 "optdone": 1, 
		 "sigma_profile": "yes", 
		 "theory": "DFT", 
		 "functional": "B3LYP", 
		 "basiset": "6-31G**", 
		 "properties": { 
			 "R2extent": 4737.9146, 
			 "electric_dipole_moment_norm": 2.44158755526, 
			 "electric_quadrupole_moment_norm": 15.0291060499, 
			 "total_energy": -889.113150571, 
			 "HOMO_LUMO_gap": 0.17447, 
			 "cosmo_polarized_energy": -10.75, 
			 "cosmo_cavitation_energy": 22.84, 
			 "cosmo_dispersion_energy": -17.63, 
			 "cosmo_repulsion_energy": 1.36, 
			 "cosmo_total_nonelectrostatic_energy": 6.57, 
			 "SMD_solvation_energy": 3.07 
		},
		"coords": [
			{
				"x": -4.1954647176,
				"y": -1.662095753,
				"z": 2.7363889751,
				"element": "S" 
			},
			{
				"x": -3.3347466325,
				"y": -0.1417810308,
				"z": 2.5820254478,
				"element": "C" 
			},
			{
				"x": -3.170545521,
				"y": 0.8096062895,
				"z": 3.4481758802,
				"element": "N" 
			},
			{
				"x": -2.4064709553,
				"y": 1.7836797002,
				"z": 2.8027001101,
				"element": "N" 
			},
			{
				"x": -2.1748883172,
				"y": 1.337403899,
				"z": 1.6033305221,
				"element": "C" 
			},
			{
				"x": -2.7384561619,
				"y": 0.1056692886,
				"z": 1.3845362622,
				"element": "O" 
			},
			{
				"x": -1.4305131231,
				"y": 1.9703593235,
				"z": 0.5469939749,
				"element": "C" 
			},
			{
				"x": -0.7747608799,
				"y": 3.1722684996,
				"z": 0.489031619,
				"element": "C" 
			},
			{
				"x": -0.220596789,
				"y": 3.2548600771,
				"z": -0.8233407388,
				"element": "C" 
			},
			{
				"x": -0.5783717572,
				"y": 2.1037315081,
				"z": -1.4627146706,
				"element": "C" 
			},
			{
				"x": -1.3165687189,
				"y": 1.308013057,
				"z": -0.6426320899,
				"element": "O" 
			},
			{
				"x": -4.5557607114,
				"y": -1.4072038024,
				"z": 4.0088174516,
				"element": "H" 
			},
			{
				"x": -0.7061623333,
				"y": 3.8936111441,
				"z": 1.2894669678,
				"element": "H" 
			},
			{
				"x": 0.365542606,
				"y": 4.0634070183,
				"z": -1.234971686,
				"element": "H" 
			},
			{
				"x": -0.3982359876,
				"y": 1.7146707813,
				"z": -2.4526080255,
				"element": "H" 
			}
		],
		 "valence_orbital": [ 
			{
				"type": "occ",
				"energy": -0.32708,
				"method": "rhf"
			},
			{
				"type": "occ",
				"energy": -0.29742,
				"method": "rhf"
			},
			{
				"type": "occ",
				"energy": -0.28539,
				"method": "rhf"
			},
			{
				"type": "occ",
				"energy": -0.27496,
				"method": "rhf"
			},
			{
				"type": "occ",
				"energy": -0.2239,
				"method": "rhf"
			},
			{
				"type": "unocc",
				"energy": -0.04943,
				"method": "rhf"
			},
			{
				"type": "unocc",
				"energy": -0.00388,
				"method": "rhf"
			},
			{
				"type": "unocc",
				"energy": 0.0116,
				"method": "rhf"
			},
			{
				"type": "unocc",
				"energy": 0.03553,
				"method": "rhf"
			},
			{
				"type": "unocc",
				"energy": 0.04856,
				"method": "rhf"
			}
		],
		"cosmo_sigma_profile": { 
			"-0.025": 0.0,
			"-0.024": 0.0,
			"-0.023": 0.0,
			"-0.022": 0.0,
			"-0.021": 0.0,
			"-0.02": 0.0,
			"-0.019": 0.0,
			"-0.018": 0.0,
			"-0.017": 0.0,
			"-0.016": 0.0,
			"-0.015": 0.0,
			"-0.014": 0.175180088795,
			"-0.013": 1.65485885381,
			"-0.012": 1.59394782912,
			"-0.011": 1.51930016856,
			"-0.01": 2.85308001614,
			"-0.009": 2.75545538571,
			"-0.008": 6.10255234567,
			"-0.007": 6.15915856801,
			"-0.006": 6.00938104628,
			"-0.005": 9.27629878425,
			"-0.004": 9.90890026256,
			"-0.003": 11.2444863476,
			"-0.002": 13.4098332204,
			"-0.001": 13.9705117433,
			"0.0": 15.842521284,
			"0.001": 17.8379319237,
			"0.002": 14.4168101238,
			"0.003": 12.5166331991,
			"0.004": 8.81460701434,
			"0.005": 6.30620351407,
			"0.006": 3.95299994476,
			"0.007": 3.71429478739,
			"0.008": 2.45192585728,
			"0.009": 2.51721371821,
			"0.01": 1.95603646898,
			"0.011": 3.9849646614,
			"0.012": 2.60821469619,
			"0.013": 2.36817083128,
			"0.014": 1.81243456578,
			"0.015": 0.28023242663,
			"0.016": 0.0,
			"0.017": 0.0,
			"0.018": 0.0,
			"0.019": 0.0,
			"0.02": 0.0,
			"0.021": 0.0,
			"0.022": 0.0,
			"0.023": 0.0,
			"0.024": 0.0,
			"0.025": 0.0
		}
	}
}
