{
	 "smiles": "NC1=NC=C(Br)C(=C1)C(O)=O", 
	 "Tm": 550.15, 
	 "num_atms": 16, 
	 "gaussian": { 
		 "optdone": 1, 
		 "sigma_profile": "yes", 
		 "theory": "DFT", 
		 "functional": "B3LYP", 
		 "basiset": "6-31G**", 
		 "properties": { 
			 "R2extent": 3199.3441, 
			 "electric_dipole_moment_norm": 3.49400536205, 
			 "electric_quadrupole_moment_norm": 19.4011070578, 
			 "total_energy": -3063.01509198, 
			 "HOMO_LUMO_gap": 0.16161, 
			 "cosmo_polarized_energy": -13.76, 
			 "cosmo_cavitation_energy": 22.92, 
			 "cosmo_dispersion_energy": -17.83, 
			 "cosmo_repulsion_energy": 1.42, 
			 "cosmo_total_nonelectrostatic_energy": 6.51, 
			 "SMD_solvation_energy": 2.76 
		},
		"coords": [
			{
				"x": 2.1742726367,
				"y": 1.6183322874,
				"z": -0.3734929987,
				"element": "N" 
			},
			{
				"x": 0.9572735516,
				"y": 1.0066258051,
				"z": -0.5353702941,
				"element": "C" 
			},
			{
				"x": 0.0240581009,
				"y": 1.6977566906,
				"z": -1.2125064089,
				"element": "N" 
			},
			{
				"x": -1.1811859662,
				"y": 1.1486978595,
				"z": -1.3443388677,
				"element": "C" 
			},
			{
				"x": -1.5270611187,
				"y": -0.09941345,
				"z": -0.8280588385,
				"element": "C" 
			},
			{
				"x": -3.3340681457,
				"y": -0.6682768117,
				"z": -1.1674562205,
				"element": "Br" 
			},
			{
				"x": -0.5620275113,
				"y": -0.8457823156,
				"z": -0.1227147486,
				"element": "C" 
			},
			{
				"x": 0.6948442745,
				"y": -0.2619500215,
				"z": 0.0153041657,
				"element": "C" 
			},
			{
				"x": -0.6819075252,
				"y": -2.2212980101,
				"z": 0.5246086036,
				"element": "C" 
			},
			{
				"x": -1.8630734894,
				"y": -2.8535183752,
				"z": 0.5148544976,
				"element": "O" 
			},
			{
				"x": 0.2793012778,
				"y": -2.7373393755,
				"z": 1.0488213127,
				"element": "O" 
			},
			{
				"x": 2.9753070304,
				"y": 1.0532054144,
				"z": -0.1409051651,
				"element": "H" 
			},
			{
				"x": 2.342480953,
				"y": 2.4220052508,
				"z": -0.9600318722,
				"element": "H" 
			},
			{
				"x": -1.9202467811,
				"y": 1.7255495318,
				"z": -1.8949724516,
				"element": "H" 
			},
			{
				"x": 1.4529252695,
				"y": -0.8157410177,
				"z": 0.5571287276,
				"element": "H" 
			},
			{
				"x": -2.5516925568,
				"y": -2.3376534622,
				"z": 0.0571305586,
				"element": "H" 
			}
		],
		 "valence_orbital": [ 
			{
				"type": "occ",
				"energy": -0.31451,
				"method": "rhf"
			},
			{
				"type": "occ",
				"energy": -0.29712,
				"method": "rhf"
			},
			{
				"type": "occ",
				"energy": -0.28267,
				"method": "rhf"
			},
			{
				"type": "occ",
				"energy": -0.28203,
				"method": "rhf"
			},
			{
				"type": "occ",
				"energy": -0.23177,
				"method": "rhf"
			},
			{
				"type": "unocc",
				"energy": -0.07016,
				"method": "rhf"
			},
			{
				"type": "unocc",
				"energy": -0.02209,
				"method": "rhf"
			},
			{
				"type": "unocc",
				"energy": -0.02179,
				"method": "rhf"
			},
			{
				"type": "unocc",
				"energy": 0.04518,
				"method": "rhf"
			},
			{
				"type": "unocc",
				"energy": 0.07449,
				"method": "rhf"
			}
		],
		"cosmo_sigma_profile": { 
			"-0.025": 0.0,
			"-0.024": 0.0,
			"-0.023": 0.0,
			"-0.022": 0.0,
			"-0.021": 0.0,
			"-0.02": 0.0,
			"-0.019": 0.0,
			"-0.018": 0.0,
			"-0.017": 0.0,
			"-0.016": 0.0,
			"-0.015": 0.0945388706436,
			"-0.014": 1.56056526509,
			"-0.013": 2.79433112919,
			"-0.012": 2.29602379547,
			"-0.011": 2.62522051356,
			"-0.01": 3.81512584136,
			"-0.009": 4.20757244385,
			"-0.008": 5.28491076689,
			"-0.007": 5.99031594495,
			"-0.006": 7.03373836374,
			"-0.005": 8.01136650112,
			"-0.004": 8.4966328766,
			"-0.003": 9.90818741747,
			"-0.002": 9.23740612627,
			"-0.001": 12.5738658484,
			"0.0": 21.7167653955,
			"0.001": 14.5175077047,
			"0.002": 12.1644804484,
			"0.003": 8.81515538411,
			"0.004": 5.24440813099,
			"0.005": 3.94747417342,
			"0.006": 4.35073507978,
			"0.007": 4.54145645492,
			"0.008": 5.09096683766,
			"0.009": 5.1708444002,
			"0.01": 6.36012649447,
			"0.011": 5.56761615785,
			"0.012": 3.62918844991,
			"0.013": 1.68330649283,
			"0.014": 0.474971761083,
			"0.015": 0.0323679466075,
			"0.016": 0.0,
			"0.017": 0.0,
			"0.018": 0.0,
			"0.019": 0.0,
			"0.02": 0.0,
			"0.021": 0.0,
			"0.022": 0.0,
			"0.023": 0.0,
			"0.024": 0.0,
			"0.025": 0.0
		}
	}
}
