{
	 "smiles": "OC(=O)CCC1=NC2=C(C=CC=C2)C(=O)N1", 
	 "Tm": 513.15, 
	 "num_atms": 26, 
	 "gaussian": { 
		 "optdone": 1, 
		 "sigma_profile": "yes", 
		 "theory": "DFT", 
		 "functional": "B3LYP", 
		 "basiset": "6-31G**", 
		 "properties": { 
			 "R2extent": 4449.755, 
			 "electric_dipole_moment_norm": 2.61941299722, 
			 "electric_quadrupole_moment_norm": 18.7068863104, 
			 "total_energy": -760.427323078, 
			 "HOMO_LUMO_gap": 0.18909, 
			 "cosmo_polarized_energy": -18.17, 
			 "cosmo_cavitation_energy": 30.62, 
			 "cosmo_dispersion_energy": -22.28, 
			 "cosmo_repulsion_energy": 1.74, 
			 "cosmo_total_nonelectrostatic_energy": 10.08, 
			 "SMD_solvation_energy": 5.14 
		},
		"coords": [
			{
				"x": -2.1355119455,
				"y": 3.6529219135,
				"z": -0.0546050794,
				"element": "O" 
			},
			{
				"x": -2.3749781423,
				"y": 2.9893183751,
				"z": -1.2248922503,
				"element": "C" 
			},
			{
				"x": -2.3685465944,
				"y": 3.5543058754,
				"z": -2.29169144,
				"element": "O" 
			},
			{
				"x": -2.6943602694,
				"y": 1.5206336602,
				"z": -1.0229468831,
				"element": "C" 
			},
			{
				"x": -2.183534148,
				"y": 0.8453539445,
				"z": 0.2659784676,
				"element": "C" 
			},
			{
				"x": -0.685470569,
				"y": 0.6533686195,
				"z": 0.3148850538,
				"element": "C" 
			},
			{
				"x": -0.1787485103,
				"y": -0.5127530905,
				"z": 0.065654542,
				"element": "N" 
			},
			{
				"x": 1.2068170846,
				"y": -0.6316195817,
				"z": 0.1108271499,
				"element": "C" 
			},
			{
				"x": 2.0609951212,
				"y": 0.4568299148,
				"z": 0.4134667445,
				"element": "C" 
			},
			{
				"x": 3.453227502,
				"y": 0.2834929146,
				"z": 0.4471481904,
				"element": "C" 
			},
			{
				"x": 4.0021449739,
				"y": -0.9620257785,
				"z": 0.1827677827,
				"element": "C" 
			},
			{
				"x": 3.1604706692,
				"y": -2.048021026,
				"z": -0.1186933582,
				"element": "C" 
			},
			{
				"x": 1.7832927454,
				"y": -1.889213326,
				"z": -0.154867672,
				"element": "C" 
			},
			{
				"x": 1.4737843498,
				"y": 1.7725128468,
				"z": 0.6899156641,
				"element": "C" 
			},
			{
				"x": 2.0778740742,
				"y": 2.8022836169,
				"z": 0.9586691501,
				"element": "O" 
			},
			{
				"x": 0.0739081529,
				"y": 1.7607839906,
				"z": 0.619374299,
				"element": "N" 
			},
			{
				"x": -1.9827935371,
				"y": 4.5819389718,
				"z": -0.3002724599,
				"element": "H" 
			},
			{
				"x": -3.7897383032,
				"y": 1.4510783618,
				"z": -1.0440111057,
				"element": "H" 
			},
			{
				"x": -2.3371192947,
				"y": 0.9934217661,
				"z": -1.9114584111,
				"element": "H" 
			},
			{
				"x": -2.62142882,
				"y": -0.1526181457,
				"z": 0.3266532132,
				"element": "H" 
			},
			{
				"x": -2.517902532,
				"y": 1.4163283543,
				"z": 1.1385411236,
				"element": "H" 
			},
			{
				"x": 4.0716965124,
				"y": 1.1433795628,
				"z": 0.6828935125,
				"element": "H" 
			},
			{
				"x": 5.0786555672,
				"y": -1.1008778095,
				"z": 0.2075282545,
				"element": "H" 
			},
			{
				"x": 3.5940048041,
				"y": -3.0224757093,
				"z": -0.3255473198,
				"element": "H" 
			},
			{
				"x": 1.1202758776,
				"y": -2.7165733512,
				"z": -0.3853547887,
				"element": "H" 
			},
			{
				"x": -0.3889147686,
				"y": 2.6495251297,
				"z": 0.7802376205,
				"element": "H" 
			}
		],
		 "valence_orbital": [ 
			{
				"type": "occ",
				"energy": -0.29257,
				"method": "rhf"
			},
			{
				"type": "occ",
				"energy": -0.27554,
				"method": "rhf"
			},
			{
				"type": "occ",
				"energy": -0.26056,
				"method": "rhf"
			},
			{
				"type": "occ",
				"energy": -0.25912,
				"method": "rhf"
			},
			{
				"type": "occ",
				"energy": -0.22882,
				"method": "rhf"
			},
			{
				"type": "unocc",
				"energy": -0.03973,
				"method": "rhf"
			},
			{
				"type": "unocc",
				"energy": -0.03589,
				"method": "rhf"
			},
			{
				"type": "unocc",
				"energy": -0.01183,
				"method": "rhf"
			},
			{
				"type": "unocc",
				"energy": 0.02809,
				"method": "rhf"
			},
			{
				"type": "unocc",
				"energy": 0.05269,
				"method": "rhf"
			}
		],
		"cosmo_sigma_profile": { 
			"-0.025": 0.0,
			"-0.024": 0.0,
			"-0.023": 0.0,
			"-0.022": 0.0,
			"-0.021": 0.0,
			"-0.02": 0.0,
			"-0.019": 0.275155606686,
			"-0.018": 0.731900392296,
			"-0.017": 1.35215665576,
			"-0.016": 0.411885561871,
			"-0.015": 1.05062859003,
			"-0.014": 0.520348034143,
			"-0.013": 0.709753110959,
			"-0.012": 0.93021425562,
			"-0.011": 1.43100781361,
			"-0.01": 1.12250418806,
			"-0.009": 2.22838176825,
			"-0.008": 5.06130412854,
			"-0.007": 8.0236364623,
			"-0.006": 18.2977629836,
			"-0.005": 19.4648075413,
			"-0.004": 21.2337195422,
			"-0.003": 17.0025223381,
			"-0.002": 13.9045681672,
			"-0.001": 12.7792194623,
			"0.0": 11.6834645741,
			"0.001": 12.6441115679,
			"0.002": 13.7386044982,
			"0.003": 17.9698746634,
			"0.004": 12.2645840957,
			"0.005": 5.31380874824,
			"0.006": 4.42511148824,
			"0.007": 4.07577210371,
			"0.008": 3.74366214143,
			"0.009": 4.5069373907,
			"0.01": 4.93023300447,
			"0.011": 7.34990704323,
			"0.012": 6.6846335847,
			"0.013": 6.64583408541,
			"0.014": 1.44359669848,
			"0.015": 0.327491332328,
			"0.016": 0.0,
			"0.017": 0.0,
			"0.018": 0.0,
			"0.019": 0.0,
			"0.02": 0.0,
			"0.021": 0.0,
			"0.022": 0.0,
			"0.023": 0.0,
			"0.024": 0.0,
			"0.025": 0.0
		}
	}
}
