{
	 "smiles": "CC1(C)CNC2=C(S1)C=CC=C2", 
	 "Tm": 315.15, 
	 "num_atms": 25, 
	 "gaussian": { 
		 "optdone": 1, 
		 "sigma_profile": "yes", 
		 "theory": "DFT", 
		 "functional": "B3LYP", 
		 "basiset": "6-31G**", 
		 "properties": { 
			 "R2extent": 2559.7097, 
			 "electric_dipole_moment_norm": 2.69147466085, 
			 "electric_quadrupole_moment_norm": 7.20600396267, 
			 "total_energy": -841.848705269, 
			 "HOMO_LUMO_gap": 0.18985, 
			 "cosmo_polarized_energy": -8.53, 
			 "cosmo_cavitation_energy": 27.55, 
			 "cosmo_dispersion_energy": -20.79, 
			 "cosmo_repulsion_energy": 1.58, 
			 "cosmo_total_nonelectrostatic_energy": 8.34, 
			 "SMD_solvation_energy": 3.51 
		},
		"coords": [
			{
				"x": 2.7839419376,
				"y": -1.2269942506,
				"z": -1.3846844608,
				"element": "C" 
			},
			{
				"x": 1.6906989796,
				"y": -0.4871418486,
				"z": -0.6026814727,
				"element": "C" 
			},
			{
				"x": 2.131156223,
				"y": 0.9431244137,
				"z": -0.2634632832,
				"element": "C" 
			},
			{
				"x": 0.3793033871,
				"y": -0.4976415875,
				"z": -1.4092528928,
				"element": "C" 
			},
			{
				"x": -0.6968509466,
				"y": 0.1745604236,
				"z": -0.7000671691,
				"element": "N" 
			},
			{
				"x": -1.0904939405,
				"y": -0.2356197249,
				"z": 0.5750183194,
				"element": "C" 
			},
			{
				"x": -0.2194540241,
				"y": -0.9367441319,
				"z": 1.4379162276,
				"element": "C" 
			},
			{
				"x": 1.412086257,
				"y": -1.4774653191,
				"z": 0.9466823,
				"element": "S" 
			},
			{
				"x": -0.6455748385,
				"y": -1.2655688828,
				"z": 2.7307742012,
				"element": "C" 
			},
			{
				"x": -1.9182186494,
				"y": -0.9255865588,
				"z": 3.1834399991,
				"element": "C" 
			},
			{
				"x": -2.7811322232,
				"y": -0.2294433094,
				"z": 2.3340633835,
				"element": "C" 
			},
			{
				"x": -2.3684162746,
				"y": 0.110285192,
				"z": 1.0503426178,
				"element": "C" 
			},
			{
				"x": 3.0266690287,
				"y": -0.6723915947,
				"z": -2.2985932424,
				"element": "H" 
			},
			{
				"x": 3.7011011439,
				"y": -1.3107662876,
				"z": -0.7933141983,
				"element": "H" 
			},
			{
				"x": 2.46527687,
				"y": -2.2352239723,
				"z": -1.6648481025,
				"element": "H" 
			},
			{
				"x": 1.3711567224,
				"y": 1.4651841497,
				"z": 0.3204476611,
				"element": "H" 
			},
			{
				"x": 3.0628206709,
				"y": 0.9331650378,
				"z": 0.3085609193,
				"element": "H" 
			},
			{
				"x": 2.299833198,
				"y": 1.5120828314,
				"z": -1.1870678457,
				"element": "H" 
			},
			{
				"x": 0.1340060958,
				"y": -1.5388766785,
				"z": -1.671373952,
				"element": "H" 
			},
			{
				"x": 0.54333555,
				"y": 0.0486392088,
				"z": -2.3464476043,
				"element": "H" 
			},
			{
				"x": -1.4649809748,
				"y": 0.464323668,
				"z": -1.2884994865,
				"element": "H" 
			},
			{
				"x": 0.0384536311,
				"y": -1.7975351941,
				"z": 3.3867110401,
				"element": "H" 
			},
			{
				"x": -2.2271735975,
				"y": -1.1951175156,
				"z": 4.1884404979,
				"element": "H" 
			},
			{
				"x": -3.7760669337,
				"y": 0.0497417529,
				"z": 2.668344905,
				"element": "H" 
			},
			{
				"x": -3.0388772921,
				"y": 0.6562101784,
				"z": 0.3895516386,
				"element": "H" 
			}
		],
		 "valence_orbital": [ 
			{
				"type": "occ",
				"energy": -0.30132,
				"method": "rhf"
			},
			{
				"type": "occ",
				"energy": -0.29114,
				"method": "rhf"
			},
			{
				"type": "occ",
				"energy": -0.27413,
				"method": "rhf"
			},
			{
				"type": "occ",
				"energy": -0.21489,
				"method": "rhf"
			},
			{
				"type": "occ",
				"energy": -0.18408,
				"method": "rhf"
			},
			{
				"type": "unocc",
				"energy": 0.00577,
				"method": "rhf"
			},
			{
				"type": "unocc",
				"energy": 0.01571,
				"method": "rhf"
			},
			{
				"type": "unocc",
				"energy": 0.0397,
				"method": "rhf"
			},
			{
				"type": "unocc",
				"energy": 0.07166,
				"method": "rhf"
			},
			{
				"type": "unocc",
				"energy": 0.08209,
				"method": "rhf"
			}
		],
		"cosmo_sigma_profile": { 
			"-0.025": 0.0,
			"-0.024": 0.0,
			"-0.023": 0.0,
			"-0.022": 0.0,
			"-0.021": 0.0,
			"-0.02": 0.0,
			"-0.019": 0.0,
			"-0.018": 0.0,
			"-0.017": 0.0,
			"-0.016": 0.0,
			"-0.015": 0.0,
			"-0.014": 0.0,
			"-0.013": 0.535778409633,
			"-0.012": 1.71694188002,
			"-0.011": 1.12452869716,
			"-0.01": 1.11250517136,
			"-0.009": 1.71385248252,
			"-0.008": 1.98174386056,
			"-0.007": 1.27378360999,
			"-0.006": 4.13992299725,
			"-0.005": 12.1986701025,
			"-0.004": 19.1712233076,
			"-0.003": 24.6685020071,
			"-0.002": 21.4388774195,
			"-0.001": 18.5373042049,
			"0.0": 19.4378850721,
			"0.001": 15.1444805549,
			"0.002": 10.7938803651,
			"0.003": 8.79094963218,
			"0.004": 10.0135399528,
			"0.005": 12.1736951417,
			"0.006": 14.3092375594,
			"0.007": 10.538449991,
			"0.008": 3.7312202894,
			"0.009": 2.60275348575,
			"0.01": 0.960042888439,
			"0.011": 0.0,
			"0.012": 0.0,
			"0.013": 0.0,
			"0.014": 0.0,
			"0.015": 0.0,
			"0.016": 0.0,
			"0.017": 0.0,
			"0.018": 0.0,
			"0.019": 0.0,
			"0.02": 0.0,
			"0.021": 0.0,
			"0.022": 0.0,
			"0.023": 0.0,
			"0.024": 0.0,
			"0.025": 0.0
		}
	}
}
