{
	 "smiles": "[O-][N+](=O)C1=C(C=CC=C1)S(=O)(=O)N1CCNCC1", 
	 "Tm": 421.15, 
	 "num_atms": 31, 
	 "gaussian": { 
		 "optdone": 1, 
		 "sigma_profile": "yes", 
		 "theory": "DFT", 
		 "functional": "B3LYP", 
		 "basiset": "6-31G**", 
		 "properties": { 
			 "R2extent": 5057.7152, 
			 "electric_dipole_moment_norm": 6.12137615655, 
			 "electric_quadrupole_moment_norm": 23.1870521533, 
			 "total_energy": -1252.03944165, 
			 "HOMO_LUMO_gap": 0.13594, 
			 "cosmo_polarized_energy": -17.8, 
			 "cosmo_cavitation_energy": 34.52, 
			 "cosmo_dispersion_energy": -25.11, 
			 "cosmo_repulsion_energy": 1.88, 
			 "cosmo_total_nonelectrostatic_energy": 11.29, 
			 "SMD_solvation_energy": 4.03 
		},
		"coords": [
			{
				"x": 2.9461520128,
				"y": -0.0017402092,
				"z": 0.9165981936,
				"element": "O" 
			},
			{
				"x": 3.2442973868,
				"y": -0.5038563005,
				"z": -0.162429835,
				"element": "N" 
			},
			{
				"x": 4.3812584516,
				"y": -0.8095757175,
				"z": -0.5120104566,
				"element": "O" 
			},
			{
				"x": 2.1671370942,
				"y": -0.6965217641,
				"z": -1.1524522455,
				"element": "C" 
			},
			{
				"x": 0.8605655952,
				"y": -1.0857392468,
				"z": -0.8122759391,
				"element": "C" 
			},
			{
				"x": -0.0783882244,
				"y": -1.2050297112,
				"z": -1.840351011,
				"element": "C" 
			},
			{
				"x": 0.2598283737,
				"y": -0.909708813,
				"z": -3.1621958917,
				"element": "C" 
			},
			{
				"x": 1.5606994159,
				"y": -0.5269423221,
				"z": -3.4816375576,
				"element": "C" 
			},
			{
				"x": 2.5197284398,
				"y": -0.4358143599,
				"z": -2.4751587427,
				"element": "C" 
			},
			{
				"x": 0.3054891916,
				"y": -1.6378241519,
				"z": 0.8364486686,
				"element": "S" 
			},
			{
				"x": -0.996432244,
				"y": -2.2713670243,
				"z": 0.5910767457,
				"element": "O" 
			},
			{
				"x": 1.4004497715,
				"y": -2.3871845968,
				"z": 1.4494707038,
				"element": "O" 
			},
			{
				"x": 0.0693936149,
				"y": -0.21734588,
				"z": 1.6914344468,
				"element": "N" 
			},
			{
				"x": 0.7199790051,
				"y": -0.0921179665,
				"z": 3.0123881231,
				"element": "C" 
			},
			{
				"x": 0.7889861487,
				"y": 1.3908631387,
				"z": 3.37036463,
				"element": "C" 
			},
			{
				"x": -0.5628308358,
				"y": 1.9539156184,
				"z": 3.356314482,
				"element": "N" 
			},
			{
				"x": -1.1587795162,
				"y": 1.8605474105,
				"z": 2.0260005223,
				"element": "C" 
			},
			{
				"x": -1.273878272,
				"y": 0.3883146081,
				"z": 1.6255278793,
				"element": "C" 
			},
			{
				"x": -1.0701177198,
				"y": -1.5614858928,
				"z": -1.5884232456,
				"element": "H" 
			},
			{
				"x": -0.4921609937,
				"y": -1.0000414634,
				"z": -3.9397323738,
				"element": "H" 
			},
			{
				"x": 1.8365729709,
				"y": -0.3092033396,
				"z": -4.5083505079,
				"element": "H" 
			},
			{
				"x": 3.544947909,
				"y": -0.1617322859,
				"z": -2.6923622774,
				"element": "H" 
			},
			{
				"x": 1.717242059,
				"y": -0.5238423298,
				"z": 2.9535378293,
				"element": "H" 
			},
			{
				"x": 0.1396531142,
				"y": -0.628602486,
				"z": 3.7761384921,
				"element": "H" 
			},
			{
				"x": 1.2066353212,
				"y": 1.4923024,
				"z": 4.3776769061,
				"element": "H" 
			},
			{
				"x": 1.4744111687,
				"y": 1.8873865699,
				"z": 2.6612429611,
				"element": "H" 
			},
			{
				"x": -0.5422425577,
				"y": 2.9223259264,
				"z": 3.6618150798,
				"element": "H" 
			},
			{
				"x": -2.1622207563,
				"y": 2.2994964721,
				"z": 2.0501058662,
				"element": "H" 
			},
			{
				"x": -0.5733795164,
				"y": 2.3870865503,
				"z": 1.2492239367,
				"element": "H" 
			},
			{
				"x": -1.9694926203,
				"y": -0.1314051267,
				"z": 2.2975113987,
				"element": "H" 
			},
			{
				"x": -1.6573037885,
				"y": 0.3071422937,
				"z": 0.6062032186,
				"element": "H" 
			}
		],
		 "valence_orbital": [ 
			{
				"type": "occ",
				"energy": -0.30158,
				"method": "rhf"
			},
			{
				"type": "occ",
				"energy": -0.29296,
				"method": "rhf"
			},
			{
				"type": "occ",
				"energy": -0.28369,
				"method": "rhf"
			},
			{
				"type": "occ",
				"energy": -0.25205,
				"method": "rhf"
			},
			{
				"type": "occ",
				"energy": -0.23134,
				"method": "rhf"
			},
			{
				"type": "unocc",
				"energy": -0.0954,
				"method": "rhf"
			},
			{
				"type": "unocc",
				"energy": -0.04894,
				"method": "rhf"
			},
			{
				"type": "unocc",
				"energy": -0.0252,
				"method": "rhf"
			},
			{
				"type": "unocc",
				"energy": 0.03636,
				"method": "rhf"
			},
			{
				"type": "unocc",
				"energy": 0.07106,
				"method": "rhf"
			}
		],
		"cosmo_sigma_profile": { 
			"-0.025": 0.0,
			"-0.024": 0.0,
			"-0.023": 0.0,
			"-0.022": 0.0,
			"-0.021": 0.0,
			"-0.02": 0.0,
			"-0.019": 0.0,
			"-0.018": 0.0,
			"-0.017": 0.0,
			"-0.016": 0.0,
			"-0.015": 0.0,
			"-0.014": 0.0,
			"-0.013": 0.0,
			"-0.012": 0.0,
			"-0.011": 0.618218448385,
			"-0.01": 1.46238798748,
			"-0.009": 2.30925212626,
			"-0.008": 8.78402177113,
			"-0.007": 11.8442748002,
			"-0.006": 11.8293563427,
			"-0.005": 17.2943413282,
			"-0.004": 25.2649718096,
			"-0.003": 23.7339738121,
			"-0.002": 26.6581656934,
			"-0.001": 22.7500854325,
			"0.0": 19.7047226626,
			"0.001": 15.9025423536,
			"0.002": 7.38982634474,
			"0.003": 7.27362060562,
			"0.004": 7.18007166573,
			"0.005": 8.030834134,
			"0.006": 9.22764012028,
			"0.007": 10.879651902,
			"0.008": 9.00198846935,
			"0.009": 8.2076055798,
			"0.01": 7.85098342271,
			"0.011": 6.717403791,
			"0.012": 1.18096579075,
			"0.013": 0.416782481382,
			"0.014": 0.350245642568,
			"0.015": 0.335634856857,
			"0.016": 0.695817809287,
			"0.017": 0.457230445567,
			"0.018": 0.00804309403331,
			"0.019": 0.0,
			"0.02": 0.0,
			"0.021": 0.0,
			"0.022": 0.0,
			"0.023": 0.0,
			"0.024": 0.0,
			"0.025": 0.0
		}
	}
}
