{
	 "smiles": "CS(=O)(=O)C1=C(F)C=C(N)C=C1F", 
	 "Tm": 443.15, 
	 "num_atms": 20, 
	 "gaussian": { 
		 "optdone": 1, 
		 "sigma_profile": "yes", 
		 "theory": "DFT", 
		 "functional": "B3LYP", 
		 "basiset": "6-31G**", 
		 "properties": { 
			 "R2extent": 2991.4559, 
			 "electric_dipole_moment_norm": 7.31745862646, 
			 "electric_quadrupole_moment_norm": 22.0181807623, 
			 "total_energy": -1073.94756333, 
			 "HOMO_LUMO_gap": 0.20916, 
			 "cosmo_polarized_energy": -21.36, 
			 "cosmo_cavitation_energy": 26.22, 
			 "cosmo_dispersion_energy": -19.65, 
			 "cosmo_repulsion_energy": 1.47, 
			 "cosmo_total_nonelectrostatic_energy": 8.03, 
			 "SMD_solvation_energy": 5.15 
		},
		"coords": [
			{
				"x": -1.7544309743,
				"y": 2.124351817,
				"z": 1.7401143099,
				"element": "C" 
			},
			{
				"x": -1.2749391446,
				"y": 2.4424771382,
				"z": 0.0275489865,
				"element": "S" 
			},
			{
				"x": -0.4795842372,
				"y": 3.6739678913,
				"z": 0.0121759478,
				"element": "O" 
			},
			{
				"x": -2.4760282235,
				"y": 2.3224152774,
				"z": -0.8075004689,
				"element": "O" 
			},
			{
				"x": -0.1949935062,
				"y": 1.0497574494,
				"z": -0.3556019433,
				"element": "C" 
			},
			{
				"x": 1.1514237413,
				"y": 1.1763388729,
				"z": -0.7352300873,
				"element": "C" 
			},
			{
				"x": 1.7354982134,
				"y": 2.3769426239,
				"z": -0.7686023088,
				"element": "F" 
			},
			{
				"x": 1.9320075927,
				"y": 0.0885201738,
				"z": -1.0950973668,
				"element": "C" 
			},
			{
				"x": 1.3835092141,
				"y": -1.2057420387,
				"z": -1.0870353341,
				"element": "C" 
			},
			{
				"x": 2.1605215665,
				"y": -2.2997772731,
				"z": -1.3991239029,
				"element": "N" 
			},
			{
				"x": 0.0384007481,
				"y": -1.3712099252,
				"z": -0.7034917357,
				"element": "C" 
			},
			{
				"x": -0.7030617839,
				"y": -0.2582119758,
				"z": -0.3593389545,
				"element": "C" 
			},
			{
				"x": -1.9812521953,
				"y": -0.4542901221,
				"z": 0.0175056981,
				"element": "F" 
			},
			{
				"x": -0.8641232585,
				"y": 2.1602525413,
				"z": 2.3693582033,
				"element": "H" 
			},
			{
				"x": -2.2510720905,
				"y": 1.1563733451,
				"z": 1.797706456,
				"element": "H" 
			},
			{
				"x": -2.4443127239,
				"y": 2.9263923508,
				"z": 2.0108994524,
				"element": "H" 
			},
			{
				"x": 2.9639355592,
				"y": 0.2643724074,
				"z": -1.3785293201,
				"element": "H" 
			},
			{
				"x": 3.012604723,
				"y": -2.1331938002,
				"z": -1.912580049,
				"element": "H" 
			},
			{
				"x": 1.6840635499,
				"y": -3.1519411924,
				"z": -1.6524888526,
				"element": "H" 
			},
			{
				"x": -0.4294667704,
				"y": -2.3487955611,
				"z": -0.66898873,
				"element": "H" 
			}
		],
		 "valence_orbital": [ 
			{
				"type": "occ",
				"energy": -0.30285,
				"method": "rhf"
			},
			{
				"type": "occ",
				"energy": -0.28735,
				"method": "rhf"
			},
			{
				"type": "occ",
				"energy": -0.28353,
				"method": "rhf"
			},
			{
				"type": "occ",
				"energy": -0.26333,
				"method": "rhf"
			},
			{
				"type": "occ",
				"energy": -0.23729,
				"method": "rhf"
			},
			{
				"type": "unocc",
				"energy": -0.02813,
				"method": "rhf"
			},
			{
				"type": "unocc",
				"energy": -0.01624,
				"method": "rhf"
			},
			{
				"type": "unocc",
				"energy": 0.03819,
				"method": "rhf"
			},
			{
				"type": "unocc",
				"energy": 0.05928,
				"method": "rhf"
			},
			{
				"type": "unocc",
				"energy": 0.07953,
				"method": "rhf"
			}
		],
		"cosmo_sigma_profile": { 
			"-0.025": 0.0,
			"-0.024": 0.0,
			"-0.023": 0.0,
			"-0.022": 0.0,
			"-0.021": 0.0,
			"-0.02": 0.0,
			"-0.019": 0.0,
			"-0.018": 0.0,
			"-0.017": 0.0,
			"-0.016": 0.0,
			"-0.015": 0.0439493001583,
			"-0.014": 2.18833968956,
			"-0.013": 3.45011089434,
			"-0.012": 3.1462575741,
			"-0.011": 3.34364287997,
			"-0.01": 3.67515520702,
			"-0.009": 4.90923050248,
			"-0.008": 8.93461683354,
			"-0.007": 9.19369536301,
			"-0.006": 8.46962835367,
			"-0.005": 10.5003455207,
			"-0.004": 10.7785733093,
			"-0.003": 8.64956629355,
			"-0.002": 8.326664493,
			"-0.001": 9.72199517738,
			"0.0": 15.9746404385,
			"0.001": 15.4684898299,
			"0.002": 12.7275919263,
			"0.003": 14.0333887069,
			"0.004": 7.58651285079,
			"0.005": 4.49271309032,
			"0.006": 4.22698476806,
			"0.007": 3.89220094875,
			"0.008": 3.79886586203,
			"0.009": 4.7674110249,
			"0.01": 6.53575879562,
			"0.011": 12.0468945484,
			"0.012": 8.25156276696,
			"0.013": 0.385703857585,
			"0.014": 0.0,
			"0.015": 0.0,
			"0.016": 0.0,
			"0.017": 0.0,
			"0.018": 0.0,
			"0.019": 0.0,
			"0.02": 0.0,
			"0.021": 0.0,
			"0.022": 0.0,
			"0.023": 0.0,
			"0.024": 0.0,
			"0.025": 0.0
		}
	}
}
