{
	 "smiles": "CSC1=NC(Cl)=CC(Cl)=N1", 
	 "Tm": 313.15, 
	 "num_atms": 14, 
	 "gaussian": { 
		 "optdone": 1, 
		 "sigma_profile": "yes", 
		 "theory": "DFT", 
		 "functional": "B3LYP", 
		 "basiset": "6-31G**", 
		 "properties": { 
			 "R2extent": 2701.0345, 
			 "electric_dipole_moment_norm": 1.63420590502, 
			 "electric_quadrupole_moment_norm": 9.48204789695, 
			 "total_energy": -1621.01599135, 
			 "HOMO_LUMO_gap": 0.18542, 
			 "cosmo_polarized_energy": -6.32, 
			 "cosmo_cavitation_energy": 24.19, 
			 "cosmo_dispersion_energy": -18.68, 
			 "cosmo_repulsion_energy": 1.5, 
			 "cosmo_total_nonelectrostatic_energy": 7.01, 
			 "SMD_solvation_energy": 1.34 
		},
		"coords": [
			{
				"x": 1.1898806498,
				"y": -2.449442387,
				"z": 2.7604730805,
				"element": "C" 
			},
			{
				"x": 1.3978071812,
				"y": -2.7350293454,
				"z": 0.970733117,
				"element": "S" 
			},
			{
				"x": 0.7625942717,
				"y": -1.2335932212,
				"z": 0.300537171,
				"element": "C" 
			},
			{
				"x": 0.3033439939,
				"y": -0.282418905,
				"z": 1.1248529225,
				"element": "N" 
			},
			{
				"x": -0.1553470515,
				"y": 0.8129407635,
				"z": 0.539017981,
				"element": "C" 
			},
			{
				"x": -0.7629137428,
				"y": 2.0750761983,
				"z": 1.5891214656,
				"element": "Cl" 
			},
			{
				"x": -0.1803109313,
				"y": 1.011592969,
				"z": -0.8386074231,
				"element": "C" 
			},
			{
				"x": 0.3289610613,
				"y": -0.0610406244,
				"z": -1.5764365885,
				"element": "C" 
			},
			{
				"x": 0.3566617554,
				"y": 0.0567221336,
				"z": -3.3218962582,
				"element": "Cl" 
			},
			{
				"x": 0.7967582457,
				"y": -1.1716836022,
				"z": -1.0418156308,
				"element": "N" 
			},
			{
				"x": 0.1385617157,
				"y": -2.3048722758,
				"z": 3.0101226065,
				"element": "H" 
			},
			{
				"x": 1.7667363145,
				"y": -1.5828420845,
				"z": 3.0840984604,
				"element": "H" 
			},
			{
				"x": 1.5679649277,
				"y": -3.3517486186,
				"z": 3.2457297201,
				"element": "H" 
			},
			{
				"x": -0.5590983912,
				"y": 1.9135389998,
				"z": -1.297230624,
				"element": "H" 
			}
		],
		 "valence_orbital": [ 
			{
				"type": "occ",
				"energy": -0.33059,
				"method": "rhf"
			},
			{
				"type": "occ",
				"energy": -0.30994,
				"method": "rhf"
			},
			{
				"type": "occ",
				"energy": -0.30337,
				"method": "rhf"
			},
			{
				"type": "occ",
				"energy": -0.28891,
				"method": "rhf"
			},
			{
				"type": "occ",
				"energy": -0.24677,
				"method": "rhf"
			},
			{
				"type": "unocc",
				"energy": -0.06135,
				"method": "rhf"
			},
			{
				"type": "unocc",
				"energy": -0.05167,
				"method": "rhf"
			},
			{
				"type": "unocc",
				"energy": -0.00504,
				"method": "rhf"
			},
			{
				"type": "unocc",
				"energy": 0.02586,
				"method": "rhf"
			},
			{
				"type": "unocc",
				"energy": 0.041,
				"method": "rhf"
			}
		],
		"cosmo_sigma_profile": { 
			"-0.025": 0.0,
			"-0.024": 0.0,
			"-0.023": 0.0,
			"-0.022": 0.0,
			"-0.021": 0.0,
			"-0.02": 0.0,
			"-0.019": 0.0,
			"-0.018": 0.0,
			"-0.017": 0.0,
			"-0.016": 0.0,
			"-0.015": 0.0,
			"-0.014": 0.0,
			"-0.013": 0.0,
			"-0.012": 0.0,
			"-0.011": 0.0453943788164,
			"-0.01": 1.52083047823,
			"-0.009": 0.894711511583,
			"-0.008": 2.46994009839,
			"-0.007": 4.4795381652,
			"-0.006": 6.61623069205,
			"-0.005": 9.06838130039,
			"-0.004": 11.6978636959,
			"-0.003": 22.5836818423,
			"-0.002": 21.1171768458,
			"-0.001": 15.1230464082,
			"0.0": 12.7514237077,
			"0.001": 13.6792339449,
			"0.002": 18.1176275376,
			"0.003": 25.1804163744,
			"0.004": 12.9032081906,
			"0.005": 7.62712294681,
			"0.006": 6.22600595749,
			"0.007": 4.00855157101,
			"0.008": 2.19499405111,
			"0.009": 1.0319047058,
			"0.01": 1.02301238074,
			"0.011": 0.849032253427,
			"0.012": 0.304297649541,
			"0.013": 0.0,
			"0.014": 0.0,
			"0.015": 0.0,
			"0.016": 0.0,
			"0.017": 0.0,
			"0.018": 0.0,
			"0.019": 0.0,
			"0.02": 0.0,
			"0.021": 0.0,
			"0.022": 0.0,
			"0.023": 0.0,
			"0.024": 0.0,
			"0.025": 0.0
		}
	}
}
