{
	 "smiles": "BrC1=CC=C(C=C2N=C(OC2=O)C2=CC=CC=C2)C=C1", 
	 "Tm": 465.15, 
	 "num_atms": 30, 
	 "gaussian": { 
		 "optdone": 1, 
		 "sigma_profile": "yes", 
		 "theory": "DFT", 
		 "functional": "B3LYP", 
		 "basiset": "6-31G**", 
		 "properties": { 
			 "R2extent": 16090.5511, 
			 "electric_dipole_moment_norm": 3.31711664401, 
			 "electric_quadrupole_moment_norm": 10.3804943095, 
			 "total_energy": -3392.3368949, 
			 "HOMO_LUMO_gap": 0.12255, 
			 "cosmo_polarized_energy": -9.74, 
			 "cosmo_cavitation_energy": 38.25, 
			 "cosmo_dispersion_energy": -28.58, 
			 "cosmo_repulsion_energy": 2.14, 
			 "cosmo_total_nonelectrostatic_energy": 11.81, 
			 "SMD_solvation_energy": 4.76 
		},
		"coords": [
			{
				"x": 4.4875560302,
				"y": 5.4943682981,
				"z": 4.1894308042,
				"element": "Br" 
			},
			{
				"x": 3.1586173897,
				"y": 4.4901890258,
				"z": 3.2618948899,
				"element": "C" 
			},
			{
				"x": 3.4267977303,
				"y": 3.1720104133,
				"z": 2.8889453069,
				"element": "C" 
			},
			{
				"x": 2.461574135,
				"y": 2.4346264133,
				"z": 2.2119097688,
				"element": "C" 
			},
			{
				"x": 1.2080451305,
				"y": 3.0051670717,
				"z": 1.8955670169,
				"element": "C" 
			},
			{
				"x": 0.128354981,
				"y": 2.3348796589,
				"z": 1.1947524566,
				"element": "C" 
			},
			{
				"x": -0.0307219995,
				"y": 1.0863370082,
				"z": 0.6675562838,
				"element": "C" 
			},
			{
				"x": -1.22785384,
				"y": 0.7302255716,
				"z": 0.0327025606,
				"element": "N" 
			},
			{
				"x": -1.0806451219,
				"y": -0.4920328932,
				"z": -0.3567695602,
				"element": "C" 
			},
			{
				"x": 0.1388610169,
				"y": -1.0662755217,
				"z": -0.0562866315,
				"element": "O" 
			},
			{
				"x": 0.8767729758,
				"y": -0.0894118855,
				"z": 0.6148538375,
				"element": "C" 
			},
			{
				"x": 1.9970745985,
				"y": -0.3134711859,
				"z": 1.0032202791,
				"element": "O" 
			},
			{
				"x": -2.0488122156,
				"y": -1.3166387791,
				"z": -1.0685399353,
				"element": "C" 
			},
			{
				"x": -3.3034830767,
				"y": -0.7734327553,
				"z": -1.3964772805,
				"element": "C" 
			},
			{
				"x": -4.23769049,
				"y": -1.5477061315,
				"z": -2.0753445639,
				"element": "C" 
			},
			{
				"x": -3.932336699,
				"y": -2.8654992881,
				"z": -2.4327318512,
				"element": "C" 
			},
			{
				"x": -2.6868514383,
				"y": -3.4075992126,
				"z": -2.1082602426,
				"element": "C" 
			},
			{
				"x": -1.74408511,
				"y": -2.6395692587,
				"z": -1.4281347991,
				"element": "C" 
			},
			{
				"x": 0.9723684169,
				"y": 4.3425077695,
				"z": 2.2894482183,
				"element": "C" 
			},
			{
				"x": 1.9316148605,
				"y": 5.0850801028,
				"z": 2.9658762856,
				"element": "C" 
			},
			{
				"x": 4.3854259873,
				"y": 2.7253588154,
				"z": 3.1270158575,
				"element": "H" 
			},
			{
				"x": 2.6743076072,
				"y": 1.4126037481,
				"z": 1.9246146425,
				"element": "H" 
			},
			{
				"x": -0.7574914945,
				"y": 2.9507649055,
				"z": 1.0494878621,
				"element": "H" 
			},
			{
				"x": -3.5218644331,
				"y": 0.249958427,
				"z": -1.1109928771,
				"element": "H" 
			},
			{
				"x": -5.2061612932,
				"y": -1.1263650777,
				"z": -2.3277325907,
				"element": "H" 
			},
			{
				"x": -4.6646781297,
				"y": -3.4673103881,
				"z": -2.9629980213,
				"element": "H" 
			},
			{
				"x": -2.4490969088,
				"y": -4.4302023549,
				"z": -2.3852722195,
				"element": "H" 
			},
			{
				"x": -0.7749490695,
				"y": -3.0534412907,
				"z": -1.1727355623,
				"element": "H" 
			},
			{
				"x": 0.0159434828,
				"y": 4.8029943179,
				"z": 2.0575066492,
				"element": "H" 
			},
			{
				"x": 1.7341069774,
				"y": 6.109284476,
				"z": 3.2602934157,
				"element": "H" 
			}
		],
		 "valence_orbital": [ 
			{
				"type": "occ",
				"energy": -0.27724,
				"method": "rhf"
			},
			{
				"type": "occ",
				"energy": -0.27168,
				"method": "rhf"
			},
			{
				"type": "occ",
				"energy": -0.26662,
				"method": "rhf"
			},
			{
				"type": "occ",
				"energy": -0.26478,
				"method": "rhf"
			},
			{
				"type": "occ",
				"energy": -0.2204,
				"method": "rhf"
			},
			{
				"type": "unocc",
				"energy": -0.09785,
				"method": "rhf"
			},
			{
				"type": "unocc",
				"energy": -0.03974,
				"method": "rhf"
			},
			{
				"type": "unocc",
				"energy": -0.01976,
				"method": "rhf"
			},
			{
				"type": "unocc",
				"energy": -0.01468,
				"method": "rhf"
			},
			{
				"type": "unocc",
				"energy": -0.00039,
				"method": "rhf"
			}
		],
		"cosmo_sigma_profile": { 
			"-0.025": 0.0,
			"-0.024": 0.0,
			"-0.023": 0.0,
			"-0.022": 0.0,
			"-0.021": 0.0,
			"-0.02": 0.0,
			"-0.019": 0.0,
			"-0.018": 0.0,
			"-0.017": 0.0,
			"-0.016": 0.0,
			"-0.015": 0.0,
			"-0.014": 0.0,
			"-0.013": 0.0,
			"-0.012": 0.0,
			"-0.011": 0.0,
			"-0.01": 0.0374510333773,
			"-0.009": 1.38092401154,
			"-0.008": 3.64948142741,
			"-0.007": 10.2401745402,
			"-0.006": 17.2431691955,
			"-0.005": 20.2757009232,
			"-0.004": 19.1746739706,
			"-0.003": 18.2569871454,
			"-0.002": 19.4952798634,
			"-0.001": 22.4777506938,
			"0.0": 27.413609697,
			"0.001": 36.2395358314,
			"0.002": 36.3582565714,
			"0.003": 28.1233810861,
			"0.004": 23.8687257027,
			"0.005": 6.45452070333,
			"0.006": 4.36232718983,
			"0.007": 4.01105900584,
			"0.008": 2.97221262359,
			"0.009": 3.79041384547,
			"0.01": 3.74834916643,
			"0.011": 2.72723743518,
			"0.012": 0.775975855388,
			"0.013": 0.0,
			"0.014": 0.0,
			"0.015": 0.0,
			"0.016": 0.0,
			"0.017": 0.0,
			"0.018": 0.0,
			"0.019": 0.0,
			"0.02": 0.0,
			"0.021": 0.0,
			"0.022": 0.0,
			"0.023": 0.0,
			"0.024": 0.0,
			"0.025": 0.0
		}
	}
}
