{
	 "smiles": "CC1=CC(OC2=NC=CC=C2[N+]([O-])=O)=CC(C)=C1Cl", 
	 "Tm": 354.15, 
	 "num_atms": 30, 
	 "gaussian": { 
		 "optdone": 1, 
		 "sigma_profile": "yes", 
		 "theory": "DFT", 
		 "functional": "B3LYP", 
		 "basiset": "6-31G**", 
		 "properties": { 
			 "R2extent": 7159.1937, 
			 "electric_dipole_moment_norm": 4.13639453752, 
			 "electric_quadrupole_moment_norm": 21.6389773712, 
			 "total_energy": -1297.27523505, 
			 "HOMO_LUMO_gap": 0.14834, 
			 "cosmo_polarized_energy": -12.75, 
			 "cosmo_cavitation_energy": 37.29, 
			 "cosmo_dispersion_energy": -26.37, 
			 "cosmo_repulsion_energy": 2.05, 
			 "cosmo_total_nonelectrostatic_energy": 12.96, 
			 "SMD_solvation_energy": 7.77 
		},
		"coords": [
			{
				"x": -1.2922792204,
				"y": -2.67395418,
				"z": 3.349530093,
				"element": "C" 
			},
			{
				"x": -1.3396060843,
				"y": -1.482062071,
				"z": 2.4279834872,
				"element": "C" 
			},
			{
				"x": -0.1566496641,
				"y": -0.8486173219,
				"z": 2.029244674,
				"element": "C" 
			},
			{
				"x": -0.2049158137,
				"y": 0.2490647388,
				"z": 1.1820485815,
				"element": "C" 
			},
			{
				"x": 0.9893063239,
				"y": 0.9207111756,
				"z": 0.8894335692,
				"element": "O" 
			},
			{
				"x": 1.6131700643,
				"y": 0.6840925273,
				"z": -0.2794636193,
				"element": "C" 
			},
			{
				"x": 1.1000532945,
				"y": -0.2137629131,
				"z": -1.1143269071,
				"element": "N" 
			},
			{
				"x": 1.7018898629,
				"y": -0.4306299762,
				"z": -2.2873135236,
				"element": "C" 
			},
			{
				"x": 2.8446673014,
				"y": 0.2481089553,
				"z": -2.7071369981,
				"element": "C" 
			},
			{
				"x": 3.3864939226,
				"y": 1.1922552689,
				"z": -1.8414110604,
				"element": "C" 
			},
			{
				"x": 2.7829953084,
				"y": 1.4132245302,
				"z": -0.6067181935,
				"element": "C" 
			},
			{
				"x": 3.4062996665,
				"y": 2.3952610702,
				"z": 0.2890307037,
				"element": "N" 
			},
			{
				"x": 3.1188893937,
				"y": 2.3651049377,
				"z": 1.4809649808,
				"element": "O" 
			},
			{
				"x": 4.2040802878,
				"y": 3.1845057821,
				"z": -0.2242256013,
				"element": "O" 
			},
			{
				"x": -1.4106009614,
				"y": 0.7553320771,
				"z": 0.7155750511,
				"element": "C" 
			},
			{
				"x": -2.6167052937,
				"y": 0.1518843021,
				"z": 1.0877699382,
				"element": "C" 
			},
			{
				"x": -3.9287372161,
				"y": 0.696841742,
				"z": 0.5838687824,
				"element": "C" 
			},
			{
				"x": -2.5485439176,
				"y": -0.9622377446,
				"z": 1.9398929006,
				"element": "C" 
			},
			{
				"x": -4.0566629613,
				"y": -1.7418360671,
				"z": 2.4263127423,
				"element": "Cl" 
			},
			{
				"x": -1.8487947862,
				"y": -2.4844502793,
				"z": 4.2734077125,
				"element": "H" 
			},
			{
				"x": -0.2604207651,
				"y": -2.9166975446,
				"z": 3.613688262,
				"element": "H" 
			},
			{
				"x": -1.7450479878,
				"y": -3.5551752161,
				"z": 2.8829788652,
				"element": "H" 
			},
			{
				"x": 0.8033057831,
				"y": -1.2063025003,
				"z": 2.3861432859,
				"element": "H" 
			},
			{
				"x": 1.2410218657,
				"y": -1.1860789093,
				"z": -2.9205478597,
				"element": "H" 
			},
			{
				"x": 3.2942266929,
				"y": 0.0433783666,
				"z": -3.6718845967,
				"element": "H" 
			},
			{
				"x": 4.269794791,
				"y": 1.7678909845,
				"z": -2.089922524,
				"element": "H" 
			},
			{
				"x": -1.4142399876,
				"y": 1.6233232321,
				"z": 0.0648105093,
				"element": "H" 
			},
			{
				"x": -4.47905599,
				"y": -0.0578731413,
				"z": 0.0122333374,
				"element": "H" 
			},
			{
				"x": -3.7646903321,
				"y": 1.5636740573,
				"z": -0.0605246772,
				"element": "H" 
			},
			{
				"x": -4.5774435774,
				"y": 1.001124117,
				"z": 1.4119580844,
				"element": "H" 
			}
		],
		 "valence_orbital": [ 
			{
				"type": "occ",
				"energy": -0.29091,
				"method": "rhf"
			},
			{
				"type": "occ",
				"energy": -0.28604,
				"method": "rhf"
			},
			{
				"type": "occ",
				"energy": -0.26667,
				"method": "rhf"
			},
			{
				"type": "occ",
				"energy": -0.25369,
				"method": "rhf"
			},
			{
				"type": "occ",
				"energy": -0.23972,
				"method": "rhf"
			},
			{
				"type": "unocc",
				"energy": -0.09138,
				"method": "rhf"
			},
			{
				"type": "unocc",
				"energy": -0.03753,
				"method": "rhf"
			},
			{
				"type": "unocc",
				"energy": -0.01615,
				"method": "rhf"
			},
			{
				"type": "unocc",
				"energy": -0.01386,
				"method": "rhf"
			},
			{
				"type": "unocc",
				"energy": -0.00724,
				"method": "rhf"
			}
		],
		"cosmo_sigma_profile": { 
			"-0.025": 0.0,
			"-0.024": 0.0,
			"-0.023": 0.0,
			"-0.022": 0.0,
			"-0.021": 0.0,
			"-0.02": 0.0,
			"-0.019": 0.0,
			"-0.018": 0.0,
			"-0.017": 0.0,
			"-0.016": 0.0,
			"-0.015": 0.0,
			"-0.014": 0.0,
			"-0.013": 0.0,
			"-0.012": 0.0,
			"-0.011": 0.0,
			"-0.01": 0.0,
			"-0.009": 0.857374298276,
			"-0.008": 6.25486361776,
			"-0.007": 12.3278190751,
			"-0.006": 13.6404762266,
			"-0.005": 14.7302678,
			"-0.004": 22.611847619,
			"-0.003": 22.1651906563,
			"-0.002": 25.2760921942,
			"-0.001": 32.7448178656,
			"0.0": 29.5500000062,
			"0.001": 18.705933431,
			"0.002": 19.816482356,
			"0.003": 19.335168316,
			"0.004": 13.5264307221,
			"0.005": 9.35041863633,
			"0.006": 4.94147346916,
			"0.007": 9.28070006471,
			"0.008": 10.1311179088,
			"0.009": 7.03063450798,
			"0.01": 5.31293375577,
			"0.011": 1.93014683147,
			"0.012": 0.826819805438,
			"0.013": 0.1942615935,
			"0.014": 0.0,
			"0.015": 0.0,
			"0.016": 0.0,
			"0.017": 0.0,
			"0.018": 0.0,
			"0.019": 0.0,
			"0.02": 0.0,
			"0.021": 0.0,
			"0.022": 0.0,
			"0.023": 0.0,
			"0.024": 0.0,
			"0.025": 0.0
		}
	}
}
