{
	 "smiles": "COC1=CC=C(C=C1OC)C(=O)C1=CC(Br)=CC=C1", 
	 "Tm": 370.15, 
	 "num_atms": 32, 
	 "gaussian": { 
		 "optdone": 1, 
		 "sigma_profile": "yes", 
		 "theory": "DFT", 
		 "functional": "B3LYP", 
		 "basiset": "6-31G**", 
		 "properties": { 
			 "R2extent": 11457.4542, 
			 "electric_dipole_moment_norm": 2.95863086917, 
			 "electric_quadrupole_moment_norm": 19.8729451944, 
			 "total_energy": -3376.47845387, 
			 "HOMO_LUMO_gap": 0.15808, 
			 "cosmo_polarized_energy": -11.54, 
			 "cosmo_cavitation_energy": 38.82, 
			 "cosmo_dispersion_energy": -28.13, 
			 "cosmo_repulsion_energy": 2.17, 
			 "cosmo_total_nonelectrostatic_energy": 12.86, 
			 "SMD_solvation_energy": 7.43 
		},
		"coords": [
			{
				"x": 2.0200522071,
				"y": -4.3987635165,
				"z": 2.1155186255,
				"element": "C" 
			},
			{
				"x": 1.7815382612,
				"y": -3.7821135519,
				"z": 0.8444212187,
				"element": "O" 
			},
			{
				"x": 1.1843893963,
				"y": -2.5536082137,
				"z": 0.8427034868,
				"element": "C" 
			},
			{
				"x": -0.0183376291,
				"y": -2.4118712275,
				"z": 0.1534168148,
				"element": "C" 
			},
			{
				"x": -0.6473817498,
				"y": -1.1715764637,
				"z": 0.0447459531,
				"element": "C" 
			},
			{
				"x": -0.0762250535,
				"y": -0.0476321616,
				"z": 0.6536403133,
				"element": "C" 
			},
			{
				"x": 1.1285298317,
				"y": -0.1870854058,
				"z": 1.3676145422,
				"element": "C" 
			},
			{
				"x": 1.7754479894,
				"y": -1.4154686485,
				"z": 1.4510201047,
				"element": "C" 
			},
			{
				"x": 2.9716753043,
				"y": -1.6182255435,
				"z": 2.0749512206,
				"element": "O" 
			},
			{
				"x": 3.6085334634,
				"y": -0.4991991426,
				"z": 2.6783246929,
				"element": "C" 
			},
			{
				"x": -0.7151914628,
				"y": 1.3029399697,
				"z": 0.6637654065,
				"element": "C" 
			},
			{
				"x": -0.4444110204,
				"y": 2.1096297909,
				"z": 1.5482982461,
				"element": "O" 
			},
			{
				"x": -1.6969548611,
				"y": 1.6949055414,
				"z": -0.4076947652,
				"element": "C" 
			},
			{
				"x": -2.6876821509,
				"y": 2.6256538628,
				"z": -0.0574633239,
				"element": "C" 
			},
			{
				"x": -3.5882950393,
				"y": 3.0625813724,
				"z": -1.0200706601,
				"element": "C" 
			},
			{
				"x": -4.9567716789,
				"y": 4.3067879658,
				"z": -0.5334237241,
				"element": "Br" 
			},
			{
				"x": -3.5121620464,
				"y": 2.6175291262,
				"z": -2.3413901216,
				"element": "C" 
			},
			{
				"x": -2.5081013828,
				"y": 1.7155243847,
				"z": -2.6924043451,
				"element": "C" 
			},
			{
				"x": -1.6070771085,
				"y": 1.2488259388,
				"z": -1.7341815637,
				"element": "C" 
			},
			{
				"x": 2.4111790232,
				"y": -5.3933198982,
				"z": 1.89352225,
				"element": "H" 
			},
			{
				"x": 1.0837192006,
				"y": -4.4972716025,
				"z": 2.6790172891,
				"element": "H" 
			},
			{
				"x": 2.7470328923,
				"y": -3.8378630051,
				"z": 2.7067173992,
				"element": "H" 
			},
			{
				"x": -0.4477437867,
				"y": -3.3013448492,
				"z": -0.2958655022,
				"element": "H" 
			},
			{
				"x": -1.5948027801,
				"y": -1.0956152721,
				"z": -0.4759562877,
				"element": "H" 
			},
			{
				"x": 1.5321483048,
				"y": 0.6979946775,
				"z": 1.8429022568,
				"element": "H" 
			},
			{
				"x": 2.9964243023,
				"y": -0.0702702411,
				"z": 3.4811490982,
				"element": "H" 
			},
			{
				"x": 3.8305492092,
				"y": 0.2809529548,
				"z": 1.9401216982,
				"element": "H" 
			},
			{
				"x": 4.542225006,
				"y": -0.8769484499,
				"z": 3.0970169035,
				"element": "H" 
			},
			{
				"x": -2.7295248157,
				"y": 2.9928436416,
				"z": 0.960857812,
				"element": "H" 
			},
			{
				"x": -4.22095483,
				"y": 2.9762221322,
				"z": -3.0790870318,
				"element": "H" 
			},
			{
				"x": -2.428706565,
				"y": 1.3781631046,
				"z": -3.7215268933,
				"element": "H" 
			},
			{
				"x": -0.8208204308,
				"y": 0.5602227301,
				"z": -2.0223611135,
				"element": "H" 
			}
		],
		 "valence_orbital": [ 
			{
				"type": "occ",
				"energy": -0.27011,
				"method": "rhf"
			},
			{
				"type": "occ",
				"energy": -0.25507,
				"method": "rhf"
			},
			{
				"type": "occ",
				"energy": -0.24781,
				"method": "rhf"
			},
			{
				"type": "occ",
				"energy": -0.24504,
				"method": "rhf"
			},
			{
				"type": "occ",
				"energy": -0.22535,
				"method": "rhf"
			},
			{
				"type": "unocc",
				"energy": -0.06727,
				"method": "rhf"
			},
			{
				"type": "unocc",
				"energy": -0.02044,
				"method": "rhf"
			},
			{
				"type": "unocc",
				"energy": -0.01605,
				"method": "rhf"
			},
			{
				"type": "unocc",
				"energy": -0.00093,
				"method": "rhf"
			},
			{
				"type": "unocc",
				"energy": 0.00625,
				"method": "rhf"
			}
		],
		"cosmo_sigma_profile": { 
			"-0.025": 0.0,
			"-0.024": 0.0,
			"-0.023": 0.0,
			"-0.022": 0.0,
			"-0.021": 0.0,
			"-0.02": 0.0,
			"-0.019": 0.0,
			"-0.018": 0.0,
			"-0.017": 0.0,
			"-0.016": 0.0,
			"-0.015": 0.0,
			"-0.014": 0.0,
			"-0.013": 0.0,
			"-0.012": 0.0,
			"-0.011": 0.0,
			"-0.01": 0.0,
			"-0.009": 0.0,
			"-0.008": 0.694845694759,
			"-0.007": 6.13735469852,
			"-0.006": 16.9511409914,
			"-0.005": 26.3075975729,
			"-0.004": 28.4107681418,
			"-0.003": 30.6030843594,
			"-0.002": 22.2367045533,
			"-0.001": 19.2372231505,
			"0.0": 21.0249939405,
			"0.001": 27.1191497653,
			"0.002": 32.0069339067,
			"0.003": 27.2829165343,
			"0.004": 18.7088206032,
			"0.005": 8.81620609853,
			"0.006": 4.41363816884,
			"0.007": 4.04201076502,
			"0.008": 3.20051254895,
			"0.009": 4.52379025464,
			"0.01": 3.87296280978,
			"0.011": 4.17800217687,
			"0.012": 3.9705718454,
			"0.013": 0.370813056345,
			"0.014": 0.0,
			"0.015": 0.0,
			"0.016": 0.0,
			"0.017": 0.0,
			"0.018": 0.0,
			"0.019": 0.0,
			"0.02": 0.0,
			"0.021": 0.0,
			"0.022": 0.0,
			"0.023": 0.0,
			"0.024": 0.0,
			"0.025": 0.0
		}
	}
}
