{
	 "smiles": "CCOC(=O)C(NS(=O)(=O)CC)C(=O)OCC", 
	 "Tm": 325.15, 
	 "num_atms": 34, 
	 "gaussian": { 
		 "optdone": 1, 
		 "sigma_profile": "yes", 
		 "theory": "DFT", 
		 "functional": "B3LYP", 
		 "basiset": "6-31G**", 
		 "properties": { 
			 "R2extent": 4851.336, 
			 "electric_dipole_moment_norm": 4.22987650056, 
			 "electric_quadrupole_moment_norm": 20.4154325967, 
			 "total_energy": -1257.44182377, 
			 "HOMO_LUMO_gap": 0.25819, 
			 "cosmo_polarized_energy": -20.88, 
			 "cosmo_cavitation_energy": 38.77, 
			 "cosmo_dispersion_energy": -25.57, 
			 "cosmo_repulsion_energy": 2.01, 
			 "cosmo_total_nonelectrostatic_energy": 15.21, 
			 "SMD_solvation_energy": 7.69 
		},
		"coords": [
			{
				"x": 1.5296534762,
				"y": -4.2990176028,
				"z": -0.1040173742,
				"element": "C" 
			},
			{
				"x": 1.0279468488,
				"y": -3.4316012277,
				"z": -1.2410380146,
				"element": "C" 
			},
			{
				"x": 1.0008953045,
				"y": -2.0607487266,
				"z": -0.7616156619,
				"element": "O" 
			},
			{
				"x": 0.5715214347,
				"y": -1.1490403856,
				"z": -1.6341724246,
				"element": "C" 
			},
			{
				"x": 0.2692346434,
				"y": -1.3582001356,
				"z": -2.7868151283,
				"element": "O" 
			},
			{
				"x": 0.5404800264,
				"y": 0.2846552756,
				"z": -1.0479923468,
				"element": "C" 
			},
			{
				"x": -0.700942669,
				"y": 1.0005807861,
				"z": -1.3696674651,
				"element": "N" 
			},
			{
				"x": -2.2239354042,
				"y": 0.2547961333,
				"z": -1.0813170459,
				"element": "S" 
			},
			{
				"x": -2.9979578213,
				"y": 0.4675474551,
				"z": -2.3095355548,
				"element": "O" 
			},
			{
				"x": -2.0094820964,
				"y": -1.0857494603,
				"z": -0.5246872072,
				"element": "O" 
			},
			{
				"x": -2.9430726065,
				"y": 1.290594521,
				"z": 0.2182433374,
				"element": "C" 
			},
			{
				"x": -3.2087239941,
				"y": 2.7219985926,
				"z": -0.2333462797,
				"element": "C" 
			},
			{
				"x": 1.0059396701,
				"y": 0.3565185756,
				"z": 0.4061129514,
				"element": "C" 
			},
			{
				"x": 2.1821601425,
				"y": 0.3520733513,
				"z": 0.6932793681,
				"element": "O" 
			},
			{
				"x": 0.0089096755,
				"y": 0.4076442195,
				"z": 1.3023253109,
				"element": "O" 
			},
			{
				"x": 0.4285007057,
				"y": 0.3810415554,
				"z": 2.6927411918,
				"element": "C" 
			},
			{
				"x": -0.8171349517,
				"y": 0.3432262938,
				"z": 3.5558224613,
				"element": "C" 
			},
			{
				"x": 2.5347077429,
				"y": -3.9979179714,
				"z": 0.2047481851,
				"element": "H" 
			},
			{
				"x": 1.5661279283,
				"y": -5.3439966251,
				"z": -0.4271385599,
				"element": "H" 
			},
			{
				"x": 0.8647535154,
				"y": -4.2296412547,
				"z": 0.7613807609,
				"element": "H" 
			},
			{
				"x": 1.6787200553,
				"y": -3.4793408464,
				"z": -2.119164271,
				"element": "H" 
			},
			{
				"x": 0.0152704314,
				"y": -3.6993202248,
				"z": -1.5551147401,
				"element": "H" 
			},
			{
				"x": 1.3241314537,
				"y": 0.8173819454,
				"z": -1.596024181,
				"element": "H" 
			},
			{
				"x": -0.7166247106,
				"y": 1.2397302634,
				"z": -2.3591112653,
				"element": "H" 
			},
			{
				"x": -2.2463867833,
				"y": 1.2273636961,
				"z": 1.0538915262,
				"element": "H" 
			},
			{
				"x": -3.8639285813,
				"y": 0.7617979047,
				"z": 0.4838191795,
				"element": "H" 
			},
			{
				"x": -3.8765607831,
				"y": 2.7419232294,
				"z": -1.0973677733,
				"element": "H" 
			},
			{
				"x": -2.2759133245,
				"y": 3.2263157753,
				"z": -0.4981694528,
				"element": "H" 
			},
			{
				"x": -3.6795375945,
				"y": 3.2789159059,
				"z": 0.5825046811,
				"element": "H" 
			},
			{
				"x": 1.0584114534,
				"y": -0.5001926945,
				"z": 2.8418052759,
				"element": "H" 
			},
			{
				"x": 1.043058147,
				"y": 1.2650231936,
				"z": 2.8880179116,
				"element": "H" 
			},
			{
				"x": -1.434050888,
				"y": -0.5259987846,
				"z": 3.3117374611,
				"element": "H" 
			},
			{
				"x": -1.4198117535,
				"y": 1.2475506445,
				"z": 3.4277105594,
				"element": "H" 
			},
			{
				"x": -0.5296586934,
				"y": 0.2772866224,
				"z": 4.6097545849,
				"element": "H" 
			}
		],
		 "valence_orbital": [ 
			{
				"type": "occ",
				"energy": -0.3024,
				"method": "rhf"
			},
			{
				"type": "occ",
				"energy": -0.29738,
				"method": "rhf"
			},
			{
				"type": "occ",
				"energy": -0.29406,
				"method": "rhf"
			},
			{
				"type": "occ",
				"energy": -0.29153,
				"method": "rhf"
			},
			{
				"type": "occ",
				"energy": -0.26394,
				"method": "rhf"
			},
			{
				"type": "unocc",
				"energy": -0.00575,
				"method": "rhf"
			},
			{
				"type": "unocc",
				"energy": 0.00413,
				"method": "rhf"
			},
			{
				"type": "unocc",
				"energy": 0.06151,
				"method": "rhf"
			},
			{
				"type": "unocc",
				"energy": 0.06569,
				"method": "rhf"
			},
			{
				"type": "unocc",
				"energy": 0.07148,
				"method": "rhf"
			}
		],
		"cosmo_sigma_profile": { 
			"-0.025": 0.0,
			"-0.024": 0.0,
			"-0.023": 0.0,
			"-0.022": 0.0,
			"-0.021": 0.0,
			"-0.02": 0.0,
			"-0.019": 0.0,
			"-0.018": 0.0,
			"-0.017": 0.0,
			"-0.016": 0.0125859361075,
			"-0.015": 0.778953032839,
			"-0.014": 0.855213051498,
			"-0.013": 1.17050295685,
			"-0.012": 1.52531389214,
			"-0.011": 1.80893978083,
			"-0.01": 2.54583126695,
			"-0.009": 2.06067150993,
			"-0.008": 4.20727434215,
			"-0.007": 3.83156270672,
			"-0.006": 9.90324031028,
			"-0.005": 24.5988512273,
			"-0.004": 38.6951279439,
			"-0.003": 33.078580319,
			"-0.002": 27.1616979345,
			"-0.001": 27.3740597265,
			"0.0": 20.1480408233,
			"0.001": 8.89880863039,
			"0.002": 8.49540258511,
			"0.003": 7.74510944581,
			"0.004": 7.70287415129,
			"0.005": 7.18393173489,
			"0.006": 7.39300807904,
			"0.007": 7.87066819706,
			"0.008": 8.02451437078,
			"0.009": 8.52784699894,
			"0.01": 10.7385059073,
			"0.011": 17.3815816622,
			"0.012": 4.00757099951,
			"0.013": 0.0,
			"0.014": 0.0,
			"0.015": 0.0,
			"0.016": 0.0,
			"0.017": 0.0,
			"0.018": 0.0,
			"0.019": 0.0,
			"0.02": 0.0,
			"0.021": 0.0,
			"0.022": 0.0,
			"0.023": 0.0,
			"0.024": 0.0,
			"0.025": 0.0
		}
	}
}
