{
	 "smiles": "COC(=O)C1=CC=C(C=CC(=O)C2=CC=CC=C2)C=C1", 
	 "Tm": 393.15, 
	 "num_atms": 34, 
	 "gaussian": { 
		 "optdone": 1, 
		 "sigma_profile": "yes", 
		 "theory": "DFT", 
		 "functional": "B3LYP", 
		 "basiset": "6-31G**", 
		 "properties": { 
			 "R2extent": 10153.9577, 
			 "electric_dipole_moment_norm": 4.62840379505, 
			 "electric_quadrupole_moment_norm": 7.31979136588, 
			 "total_energy": -881.917488395, 
			 "HOMO_LUMO_gap": 0.15506, 
			 "cosmo_polarized_energy": -14.43, 
			 "cosmo_cavitation_energy": 39.8, 
			 "cosmo_dispersion_energy": -28.36, 
			 "cosmo_repulsion_energy": 2.16, 
			 "cosmo_total_nonelectrostatic_energy": 13.59, 
			 "SMD_solvation_energy": 8.81 
		},
		"coords": [
			{
				"x": 2.2358081373,
				"y": -6.0225679588,
				"z": -1.3575802946,
				"element": "C" 
			},
			{
				"x": 1.6367660714,
				"y": -4.7620398828,
				"z": -1.0190522964,
				"element": "O" 
			},
			{
				"x": 2.2535928676,
				"y": -3.6748476053,
				"z": -1.535739156,
				"element": "C" 
			},
			{
				"x": 3.2445936412,
				"y": -3.7430897271,
				"z": -2.2368721312,
				"element": "O" 
			},
			{
				"x": 1.5829787545,
				"y": -2.4019396448,
				"z": -1.1483746547,
				"element": "C" 
			},
			{
				"x": 0.4430701312,
				"y": -2.3657195288,
				"z": -0.3354564122,
				"element": "C" 
			},
			{
				"x": -0.1357076139,
				"y": -1.1439232258,
				"z": -0.0087838214,
				"element": "C" 
			},
			{
				"x": 0.399775276,
				"y": 0.0690113647,
				"z": -0.4815682404,
				"element": "C" 
			},
			{
				"x": -0.2571665292,
				"y": 1.3220080203,
				"z": -0.0965380224,
				"element": "C" 
			},
			{
				"x": 0.0724042059,
				"y": 2.566609104,
				"z": -0.4971281992,
				"element": "C" 
			},
			{
				"x": -0.6890177355,
				"y": 3.8040253109,
				"z": -0.190581043,
				"element": "C" 
			},
			{
				"x": -0.631160868,
				"y": 4.7391457229,
				"z": -0.9848930509,
				"element": "O" 
			},
			{
				"x": -1.5330586761,
				"y": 3.917745579,
				"z": 1.0455382435,
				"element": "C" 
			},
			{
				"x": -2.6404556929,
				"y": 4.7799257295,
				"z": 1.0009146035,
				"element": "C" 
			},
			{
				"x": -3.4408679853,
				"y": 4.9598018734,
				"z": 2.1249961805,
				"element": "C" 
			},
			{
				"x": -3.1297309734,
				"y": 4.3003907762,
				"z": 3.3184357823,
				"element": "C" 
			},
			{
				"x": -2.0147253451,
				"y": 3.4634197555,
				"z": 3.3814307909,
				"element": "C" 
			},
			{
				"x": -1.221320045,
				"y": 3.2678384284,
				"z": 2.2498374722,
				"element": "C" 
			},
			{
				"x": 1.5477877571,
				"y": 0.015893319,
				"z": -1.2980625092,
				"element": "C" 
			},
			{
				"x": 2.1289859425,
				"y": -1.2000607435,
				"z": -1.6255132325,
				"element": "C" 
			},
			{
				"x": 3.2661274821,
				"y": -6.068318634,
				"z": -0.9960239176,
				"element": "H" 
			},
			{
				"x": 2.2367435816,
				"y": -6.1694914313,
				"z": -2.4405167706,
				"element": "H" 
			},
			{
				"x": 1.6235934539,
				"y": -6.7799695824,
				"z": -0.8682890763,
				"element": "H" 
			},
			{
				"x": 0.0185229696,
				"y": -3.2915325563,
				"z": 0.0348789392,
				"element": "H" 
			},
			{
				"x": -1.0203637296,
				"y": -1.1211631902,
				"z": 0.6220889245,
				"element": "H" 
			},
			{
				"x": -1.1124017087,
				"y": 1.2034475621,
				"z": 0.5652076934,
				"element": "H" 
			},
			{
				"x": 0.8736717697,
				"y": 2.7349821797,
				"z": -1.2120764512,
				"element": "H" 
			},
			{
				"x": -2.8515212322,
				"y": 5.2997163723,
				"z": 0.0722570421,
				"element": "H" 
			},
			{
				"x": -4.3034128335,
				"y": 5.6181577286,
				"z": 2.0764448115,
				"element": "H" 
			},
			{
				"x": -3.7502986811,
				"y": 4.4460341404,
				"z": 4.1981027056,
				"element": "H" 
			},
			{
				"x": -1.7581025815,
				"y": 2.9667150228,
				"z": 4.3126659856,
				"element": "H" 
			},
			{
				"x": -0.3421404737,
				"y": 2.6353225617,
				"z": 2.3113731509,
				"element": "H" 
			},
			{
				"x": 1.9879801607,
				"y": 0.9326297651,
				"z": -1.6763214335,
				"element": "H" 
			},
			{
				"x": 3.0125505025,
				"y": -1.2470566056,
				"z": -2.2529016126,
				"element": "H" 
			}
		],
		 "valence_orbital": [ 
			{
				"type": "occ",
				"energy": -0.26884,
				"method": "rhf"
			},
			{
				"type": "occ",
				"energy": -0.26204,
				"method": "rhf"
			},
			{
				"type": "occ",
				"energy": -0.26078,
				"method": "rhf"
			},
			{
				"type": "occ",
				"energy": -0.24891,
				"method": "rhf"
			},
			{
				"type": "occ",
				"energy": -0.24094,
				"method": "rhf"
			},
			{
				"type": "unocc",
				"energy": -0.08588,
				"method": "rhf"
			},
			{
				"type": "unocc",
				"energy": -0.04163,
				"method": "rhf"
			},
			{
				"type": "unocc",
				"energy": -0.01735,
				"method": "rhf"
			},
			{
				"type": "unocc",
				"energy": -0.01135,
				"method": "rhf"
			},
			{
				"type": "unocc",
				"energy": -0.00279,
				"method": "rhf"
			}
		],
		"cosmo_sigma_profile": { 
			"-0.025": 0.0,
			"-0.024": 0.0,
			"-0.023": 0.0,
			"-0.022": 0.0,
			"-0.021": 0.0,
			"-0.02": 0.0,
			"-0.019": 0.0,
			"-0.018": 0.0,
			"-0.017": 0.0,
			"-0.016": 0.0,
			"-0.015": 0.0,
			"-0.014": 0.0,
			"-0.013": 0.0,
			"-0.012": 0.0,
			"-0.011": 0.0,
			"-0.01": 0.0,
			"-0.009": 0.507035764545,
			"-0.008": 3.50489274609,
			"-0.007": 7.33772103787,
			"-0.006": 21.9144663813,
			"-0.005": 26.9366627873,
			"-0.004": 26.564713916,
			"-0.003": 27.1822477153,
			"-0.002": 23.4391613011,
			"-0.001": 20.4736915881,
			"0.0": 23.0011682138,
			"0.001": 25.926816014,
			"0.002": 28.360741655,
			"0.003": 25.3732091508,
			"0.004": 16.1177467352,
			"0.005": 8.0919105941,
			"0.006": 4.33286656778,
			"0.007": 3.32048863328,
			"0.008": 3.34345531752,
			"0.009": 2.90113499887,
			"0.01": 3.82967016905,
			"0.011": 5.89151652035,
			"0.012": 7.95871440668,
			"0.013": 2.84416496049,
			"0.014": 0.241473666541,
			"0.015": 0.0,
			"0.016": 0.0,
			"0.017": 0.0,
			"0.018": 0.0,
			"0.019": 0.0,
			"0.02": 0.0,
			"0.021": 0.0,
			"0.022": 0.0,
			"0.023": 0.0,
			"0.024": 0.0,
			"0.025": 0.0
		}
	}
}
