{
	 "smiles": "NNC1=NC2=C(N1)C=C(F)C(F)=C2", 
	 "Tm": 495.15, 
	 "num_atms": 19, 
	 "gaussian": { 
		 "optdone": 1, 
		 "sigma_profile": "yes", 
		 "theory": "DFT", 
		 "functional": "B3LYP", 
		 "basiset": "6-31G**", 
		 "properties": { 
			 "R2extent": 3774.9531, 
			 "electric_dipole_moment_norm": 4.28860044537, 
			 "electric_quadrupole_moment_norm": 17.0990767379, 
			 "total_energy": -689.00386973, 
			 "HOMO_LUMO_gap": 0.19286, 
			 "cosmo_polarized_energy": -16.37, 
			 "cosmo_cavitation_energy": 24.78, 
			 "cosmo_dispersion_energy": -18.47, 
			 "cosmo_repulsion_energy": 1.42, 
			 "cosmo_total_nonelectrostatic_energy": 7.73, 
			 "SMD_solvation_energy": 3.7 
		},
		"coords": [
			{
				"x": -2.8862155036,
				"y": -1.2122346379,
				"z": -1.0321748755,
				"element": "N" 
			},
			{
				"x": -2.4181552512,
				"y": 0.0281055332,
				"z": -0.5253065019,
				"element": "N" 
			},
			{
				"x": -1.3114224693,
				"y": -0.0007573582,
				"z": 0.3010646164,
				"element": "C" 
			},
			{
				"x": -0.7647129952,
				"y": -1.0879347494,
				"z": 0.7901920144,
				"element": "N" 
			},
			{
				"x": 0.2711292791,
				"y": -0.625669676,
				"z": 1.5957906326,
				"element": "C" 
			},
			{
				"x": 0.3341892642,
				"y": 0.7881154666,
				"z": 1.5658760748,
				"element": "C" 
			},
			{
				"x": -0.6930853292,
				"y": 1.1678960345,
				"z": 0.7054254882,
				"element": "N" 
			},
			{
				"x": 1.280096597,
				"y": 1.5183853505,
				"z": 2.2800026508,
				"element": "C" 
			},
			{
				"x": 2.1774799163,
				"y": 0.778925924,
				"z": 3.0418363977,
				"element": "C" 
			},
			{
				"x": 3.1209751062,
				"y": 1.4133544814,
				"z": 3.7651370922,
				"element": "F" 
			},
			{
				"x": 2.1336270572,
				"y": -0.6224320375,
				"z": 3.0813301555,
				"element": "C" 
			},
			{
				"x": 3.0427476364,
				"y": -1.2636256127,
				"z": 3.8428166641,
				"element": "F" 
			},
			{
				"x": 1.1901498485,
				"y": -1.3454756345,
				"z": 2.3659550255,
				"element": "C" 
			},
			{
				"x": -2.0915134789,
				"y": -1.8529599618,
				"z": -1.0806098615,
				"element": "H" 
			},
			{
				"x": -3.509056055,
				"y": -1.6005849848,
				"z": -0.3266888682,
				"element": "H" 
			},
			{
				"x": -2.3890198568,
				"y": 0.7311700011,
				"z": -1.2540467009,
				"element": "H" 
			},
			{
				"x": -1.0460306486,
				"y": 2.1021750827,
				"z": 0.5695712111,
				"element": "H" 
			},
			{
				"x": 1.3442614738,
				"y": 2.6005692203,
				"z": 2.2687713264,
				"element": "H" 
			},
			{
				"x": 1.177155409,
				"y": -2.4279224417,
				"z": 2.4140574582,
				"element": "H" 
			}
		],
		 "valence_orbital": [ 
			{
				"type": "occ",
				"energy": -0.29386,
				"method": "rhf"
			},
			{
				"type": "occ",
				"energy": -0.28386,
				"method": "rhf"
			},
			{
				"type": "occ",
				"energy": -0.27201,
				"method": "rhf"
			},
			{
				"type": "occ",
				"energy": -0.23406,
				"method": "rhf"
			},
			{
				"type": "occ",
				"energy": -0.20672,
				"method": "rhf"
			},
			{
				"type": "unocc",
				"energy": -0.01386,
				"method": "rhf"
			},
			{
				"type": "unocc",
				"energy": 0.02067,
				"method": "rhf"
			},
			{
				"type": "unocc",
				"energy": 0.05679,
				"method": "rhf"
			},
			{
				"type": "unocc",
				"energy": 0.05882,
				"method": "rhf"
			},
			{
				"type": "unocc",
				"energy": 0.07758,
				"method": "rhf"
			}
		],
		"cosmo_sigma_profile": { 
			"-0.025": 0.0,
			"-0.024": 0.0,
			"-0.023": 0.0,
			"-0.022": 0.0,
			"-0.021": 0.0,
			"-0.02": 0.0,
			"-0.019": 0.0,
			"-0.018": 0.0,
			"-0.017": 1.00150238714,
			"-0.016": 2.39287091027,
			"-0.015": 2.27449495881,
			"-0.014": 3.08847529417,
			"-0.013": 1.81936415013,
			"-0.012": 2.21113957291,
			"-0.011": 3.47207035638,
			"-0.01": 3.56444965474,
			"-0.009": 4.01931706795,
			"-0.008": 5.70483098228,
			"-0.007": 6.40431960312,
			"-0.006": 4.3329729375,
			"-0.005": 5.87467728337,
			"-0.004": 6.79642041055,
			"-0.003": 6.15009648037,
			"-0.002": 4.54349501658,
			"-0.001": 6.09056919243,
			"0.0": 12.6562236331,
			"0.001": 17.1876691434,
			"0.002": 19.6712241068,
			"0.003": 19.6237100733,
			"0.004": 26.4164812555,
			"0.005": 11.1527518125,
			"0.006": 3.11765408693,
			"0.007": 2.46261459367,
			"0.008": 3.0495841703,
			"0.009": 2.69768583636,
			"0.01": 1.68871731725,
			"0.011": 1.5633546114,
			"0.012": 2.14020642505,
			"0.013": 1.32410992126,
			"0.014": 0.858067168138,
			"0.015": 1.89739864087,
			"0.016": 0.843656576093,
			"0.017": 0.220739800366,
			"0.018": 0.0,
			"0.019": 0.0,
			"0.02": 0.0,
			"0.021": 0.0,
			"0.022": 0.0,
			"0.023": 0.0,
			"0.024": 0.0,
			"0.025": 0.0
		}
	}
}
