{
	 "smiles": "CC(C)N1C(=O)C2=CC=CC=C2NS1(=O)=O", 
	 "Tm": 413.15, 
	 "num_atms": 28, 
	 "gaussian": { 
		 "optdone": 1, 
		 "sigma_profile": "yes", 
		 "theory": "DFT", 
		 "functional": "B3LYP", 
		 "basiset": "6-31G**", 
		 "properties": { 
			 "R2extent": 4176.3099, 
			 "electric_dipole_moment_norm": 3.25422068858, 
			 "electric_quadrupole_moment_norm": 18.4839768251, 
			 "total_energy": -1121.6041345, 
			 "HOMO_LUMO_gap": 0.1857, 
			 "cosmo_polarized_energy": -15.17, 
			 "cosmo_cavitation_energy": 31.85, 
			 "cosmo_dispersion_energy": -23.45, 
			 "cosmo_repulsion_energy": 1.75, 
			 "cosmo_total_nonelectrostatic_energy": 10.15, 
			 "SMD_solvation_energy": 4.8 
		},
		"coords": [
			{
				"x": -0.6509475126,
				"y": -2.0005503054,
				"z": 1.5723239291,
				"element": "C" 
			},
			{
				"x": 0.4928216471,
				"y": -1.3688805113,
				"z": 0.7707045473,
				"element": "C" 
			},
			{
				"x": 1.3899893474,
				"y": -2.3916078409,
				"z": 0.066187187,
				"element": "C" 
			},
			{
				"x": -0.0086018752,
				"y": -0.344762932,
				"z": -0.209572133,
				"element": "N" 
			},
			{
				"x": -0.8469920637,
				"y": -0.7063615357,
				"z": -1.2810654184,
				"element": "C" 
			},
			{
				"x": -1.160204331,
				"y": -1.8751178583,
				"z": -1.457095629,
				"element": "O" 
			},
			{
				"x": -1.2689268256,
				"y": 0.3718978723,
				"z": -2.2183085685,
				"element": "C" 
			},
			{
				"x": -2.1899696028,
				"y": 0.0431898821,
				"z": -3.2229973421,
				"element": "C" 
			},
			{
				"x": -2.5810369913,
				"y": 0.983783456,
				"z": -4.1675433098,
				"element": "C" 
			},
			{
				"x": -2.045216428,
				"y": 2.2756478669,
				"z": -4.1166552322,
				"element": "C" 
			},
			{
				"x": -1.1364651211,
				"y": 2.6270610456,
				"z": -3.1231986461,
				"element": "C" 
			},
			{
				"x": -0.7476619977,
				"y": 1.6784540674,
				"z": -2.1707630852,
				"element": "C" 
			},
			{
				"x": 0.2115971755,
				"y": 1.9947490291,
				"z": -1.1913003702,
				"element": "N" 
			},
			{
				"x": 0.03880448,
				"y": 1.2730124048,
				"z": 0.3285459235,
				"element": "S" 
			},
			{
				"x": -1.2376482096,
				"y": 1.6291264543,
				"z": 0.9427662894,
				"element": "O" 
			},
			{
				"x": 1.2816018061,
				"y": 1.5082726683,
				"z": 1.0505531049,
				"element": "O" 
			},
			{
				"x": -0.2324484958,
				"y": -2.6554295374,
				"z": 2.3435269468,
				"element": "H" 
			},
			{
				"x": -1.2999147294,
				"y": -2.5930029717,
				"z": 0.925521919,
				"element": "H" 
			},
			{
				"x": -1.2504427998,
				"y": -1.2313423547,
				"z": 2.0677149298,
				"element": "H" 
			},
			{
				"x": 1.1237162865,
				"y": -0.7927801656,
				"z": 1.4518141406,
				"element": "H" 
			},
			{
				"x": 0.8190335523,
				"y": -3.0116876715,
				"z": -0.6255001827,
				"element": "H" 
			},
			{
				"x": 2.192045256,
				"y": -1.8893536169,
				"z": -0.4819993863,
				"element": "H" 
			},
			{
				"x": 1.8476275842,
				"y": -3.0383240544,
				"z": 0.8217443304,
				"element": "H" 
			},
			{
				"x": -2.5729139297,
				"y": -0.9711759525,
				"z": -3.2396435058,
				"element": "H" 
			},
			{
				"x": -3.294693245,
				"y": 0.7178136379,
				"z": -4.9402750271,
				"element": "H" 
			},
			{
				"x": -2.3427983263,
				"y": 3.0185193603,
				"z": -4.850739758,
				"element": "H" 
			},
			{
				"x": -0.727423332,
				"y": 3.6326740177,
				"z": -3.0796341437,
				"element": "H" 
			},
			{
				"x": 0.4775686813,
				"y": 2.9709755454,
				"z": -1.10211151,
				"element": "H" 
			}
		],
		 "valence_orbital": [ 
			{
				"type": "occ",
				"energy": -0.31426,
				"method": "rhf"
			},
			{
				"type": "occ",
				"energy": -0.2795,
				"method": "rhf"
			},
			{
				"type": "occ",
				"energy": -0.27501,
				"method": "rhf"
			},
			{
				"type": "occ",
				"energy": -0.27088,
				"method": "rhf"
			},
			{
				"type": "occ",
				"energy": -0.24652,
				"method": "rhf"
			},
			{
				"type": "unocc",
				"energy": -0.06082,
				"method": "rhf"
			},
			{
				"type": "unocc",
				"energy": -0.02044,
				"method": "rhf"
			},
			{
				"type": "unocc",
				"energy": 0.0229,
				"method": "rhf"
			},
			{
				"type": "unocc",
				"energy": 0.03936,
				"method": "rhf"
			},
			{
				"type": "unocc",
				"energy": 0.05457,
				"method": "rhf"
			}
		],
		"cosmo_sigma_profile": { 
			"-0.025": 0.0,
			"-0.024": 0.0,
			"-0.023": 0.0,
			"-0.022": 0.0,
			"-0.021": 0.0,
			"-0.02": 0.0,
			"-0.019": 0.0396682410922,
			"-0.018": 0.893109123202,
			"-0.017": 1.38521203579,
			"-0.016": 1.76808819643,
			"-0.015": 0.908560623087,
			"-0.014": 1.54052298101,
			"-0.013": 0.715895126129,
			"-0.012": 1.21530503387,
			"-0.011": 1.38430885043,
			"-0.01": 1.06233741673,
			"-0.009": 1.39611192359,
			"-0.008": 1.95170452566,
			"-0.007": 5.15958196962,
			"-0.006": 9.53806764632,
			"-0.005": 12.675266007,
			"-0.004": 17.6781090127,
			"-0.003": 15.7744309797,
			"-0.002": 19.0374660296,
			"-0.001": 22.2337927312,
			"0.0": 27.8871215748,
			"0.001": 21.4931180138,
			"0.002": 17.7130464124,
			"0.003": 15.6645218455,
			"0.004": 6.61700312004,
			"0.005": 5.9463674457,
			"0.006": 6.38366643149,
			"0.007": 4.2805706946,
			"0.008": 6.63269493843,
			"0.009": 13.3121499436,
			"0.01": 7.01738010379,
			"0.011": 2.64063603913,
			"0.012": 1.22112833472,
			"0.013": 0.0,
			"0.014": 0.0,
			"0.015": 0.0,
			"0.016": 0.0,
			"0.017": 0.0,
			"0.018": 0.0,
			"0.019": 0.0,
			"0.02": 0.0,
			"0.021": 0.0,
			"0.022": 0.0,
			"0.023": 0.0,
			"0.024": 0.0,
			"0.025": 0.0
		}
	}
}
