{
	 "smiles": "CCOC(=O)CN1C=C(Cl)C(=O)C(Cl)=C1", 
	 "Tm": 483.15, 
	 "num_atms": 24, 
	 "gaussian": { 
		 "optdone": 1, 
		 "sigma_profile": "yes", 
		 "theory": "DFT", 
		 "functional": "B3LYP", 
		 "basiset": "6-31G**", 
		 "properties": { 
			 "R2extent": 5643.6611, 
			 "electric_dipole_moment_norm": 6.61228298623, 
			 "electric_quadrupole_moment_norm": 38.9983685351, 
			 "total_energy": -1549.17778849, 
			 "HOMO_LUMO_gap": 0.18909, 
			 "cosmo_polarized_energy": -24.52, 
			 "cosmo_cavitation_energy": 32.96, 
			 "cosmo_dispersion_energy": -22.91, 
			 "cosmo_repulsion_energy": 1.86, 
			 "cosmo_total_nonelectrostatic_energy": 11.91, 
			 "SMD_solvation_energy": 7.28 
		},
		"coords": [
			{
				"x": -1.4763666292,
				"y": 0.4199021555,
				"z": 2.9786463861,
				"element": "C" 
			},
			{
				"x": -1.553545917,
				"y": -0.5823938266,
				"z": 1.8392402203,
				"element": "C" 
			},
			{
				"x": -0.7430722874,
				"y": -0.1493731197,
				"z": 0.7082169294,
				"element": "O" 
			},
			{
				"x": -1.3269304966,
				"y": 0.668676714,
				"z": -0.172600198,
				"element": "C" 
			},
			{
				"x": -2.4653959017,
				"y": 1.0772586913,
				"z": -0.1259493301,
				"element": "O" 
			},
			{
				"x": -0.3894983081,
				"y": 1.0637624868,
				"z": -1.3206222563,
				"element": "C" 
			},
			{
				"x": 0.9672198746,
				"y": 0.5371153396,
				"z": -1.2579074361,
				"element": "N" 
			},
			{
				"x": 1.9358088053,
				"y": 1.210644718,
				"z": -0.5555736293,
				"element": "C" 
			},
			{
				"x": 3.1815054403,
				"y": 0.6923764089,
				"z": -0.3842837115,
				"element": "C" 
			},
			{
				"x": 4.3707469231,
				"y": 1.608767325,
				"z": 0.4949156197,
				"element": "Cl" 
			},
			{
				"x": 3.5886276252,
				"y": -0.6220986434,
				"z": -0.911405066,
				"element": "C" 
			},
			{
				"x": 4.7014520659,
				"y": -1.1116239969,
				"z": -0.7681450784,
				"element": "O" 
			},
			{
				"x": 2.4806491561,
				"y": -1.2671586321,
				"z": -1.6378406912,
				"element": "C" 
			},
			{
				"x": 2.7839480863,
				"y": -2.8282384567,
				"z": -2.3433584673,
				"element": "Cl" 
			},
			{
				"x": 1.2518763362,
				"y": -0.7012919737,
				"z": -1.7779800129,
				"element": "C" 
			},
			{
				"x": -1.9224496245,
				"y": 1.3740771619,
				"z": 2.6869819589,
				"element": "H" 
			},
			{
				"x": -0.4391838936,
				"y": 0.5871231416,
				"z": 3.2824474868,
				"element": "H" 
			},
			{
				"x": -2.0286379619,
				"y": 0.0353062633,
				"z": 3.8420716984,
				"element": "H" 
			},
			{
				"x": -1.1247150109,
				"y": -1.5469892896,
				"z": 2.1168342334,
				"element": "H" 
			},
			{
				"x": -2.5806721276,
				"y": -0.7207032165,
				"z": 1.4948347755,
				"element": "H" 
			},
			{
				"x": -0.8617039635,
				"y": 0.7410793319,
				"z": -2.2525181302,
				"element": "H" 
			},
			{
				"x": -0.3543777038,
				"y": 2.1559226363,
				"z": -1.3519434182,
				"element": "H" 
			},
			{
				"x": 1.6546649701,
				"y": 2.1765499415,
				"z": -0.1542025359,
				"element": "H" 
			},
			{
				"x": 0.4480505427,
				"y": -1.1960911605,
				"z": -2.3090593469,
				"element": "H" 
			}
		],
		 "valence_orbital": [ 
			{
				"type": "occ",
				"energy": -0.31113,
				"method": "rhf"
			},
			{
				"type": "occ",
				"energy": -0.30533,
				"method": "rhf"
			},
			{
				"type": "occ",
				"energy": -0.27272,
				"method": "rhf"
			},
			{
				"type": "occ",
				"energy": -0.24653,
				"method": "rhf"
			},
			{
				"type": "occ",
				"energy": -0.22852,
				"method": "rhf"
			},
			{
				"type": "unocc",
				"energy": -0.03943,
				"method": "rhf"
			},
			{
				"type": "unocc",
				"energy": -0.03738,
				"method": "rhf"
			},
			{
				"type": "unocc",
				"energy": -0.01646,
				"method": "rhf"
			},
			{
				"type": "unocc",
				"energy": 0.00753,
				"method": "rhf"
			},
			{
				"type": "unocc",
				"energy": 0.04523,
				"method": "rhf"
			}
		],
		"cosmo_sigma_profile": { 
			"-0.025": 0.0,
			"-0.024": 0.0,
			"-0.023": 0.0,
			"-0.022": 0.0,
			"-0.021": 0.0,
			"-0.02": 0.0,
			"-0.019": 0.0,
			"-0.018": 0.0,
			"-0.017": 0.0,
			"-0.016": 0.0,
			"-0.015": 0.0,
			"-0.014": 0.325143717339,
			"-0.013": 2.55612038799,
			"-0.012": 4.61847185535,
			"-0.011": 5.77858487678,
			"-0.01": 6.21259396993,
			"-0.009": 5.61111189773,
			"-0.008": 4.43366687376,
			"-0.007": 5.54209505621,
			"-0.006": 9.25697023112,
			"-0.005": 11.0321054412,
			"-0.004": 16.0638921311,
			"-0.003": 19.0505189075,
			"-0.002": 19.2573494316,
			"-0.001": 21.6499843481,
			"0.0": 23.3942385671,
			"0.001": 13.8089472717,
			"0.002": 13.0295052981,
			"0.003": 16.6170313708,
			"0.004": 17.8101882157,
			"0.005": 11.020423629,
			"0.006": 3.22759543314,
			"0.007": 3.45339480965,
			"0.008": 3.20179946442,
			"0.009": 3.66547002748,
			"0.01": 4.56175716428,
			"0.011": 6.91838292619,
			"0.012": 4.32027653747,
			"0.013": 5.44255046807,
			"0.014": 4.60054372623,
			"0.015": 0.704871126895,
			"0.016": 0.0,
			"0.017": 0.0,
			"0.018": 0.0,
			"0.019": 0.0,
			"0.02": 0.0,
			"0.021": 0.0,
			"0.022": 0.0,
			"0.023": 0.0,
			"0.024": 0.0,
			"0.025": 0.0
		}
	}
}
