{
	 "smiles": "CCC(C)C(NC(=O)C1=CN(CC)C2=C(C=CC(C)=N2)C1=O)C(=O)OC", 
	 "Tm": 415.15, 
	 "num_atms": 51, 
	 "gaussian": { 
		 "optdone": 1, 
		 "sigma_profile": "yes", 
		 "theory": "DFT", 
		 "functional": "B3LYP", 
		 "basiset": "6-31G**", 
		 "properties": { 
			 "R2extent": 10861.1984, 
			 "electric_dipole_moment_norm": 5.32261162401, 
			 "electric_quadrupole_moment_norm": 20.5288259664, 
			 "total_energy": -1204.30358726, 
			 "HOMO_LUMO_gap": 0.16218, 
			 "cosmo_polarized_energy": -21.08, 
			 "cosmo_cavitation_energy": 52.42, 
			 "cosmo_dispersion_energy": -34.49, 
			 "cosmo_repulsion_energy": 2.67, 
			 "cosmo_total_nonelectrostatic_energy": 20.6, 
			 "SMD_solvation_energy": 10.24 
		},
		"coords": [
			{
				"x": -0.281451852,
				"y": 0.1582026261,
				"z": 4.2304118396,
				"element": "C" 
			},
			{
				"x": -1.4954019349,
				"y": 1.0801712209,
				"z": 4.075852352,
				"element": "C" 
			},
			{
				"x": -2.4858264894,
				"y": 0.6734817558,
				"z": 2.9664498494,
				"element": "C" 
			},
			{
				"x": -3.7600653098,
				"y": 1.5346839388,
				"z": 3.0279535652,
				"element": "C" 
			},
			{
				"x": -1.8301084647,
				"y": 0.6769654316,
				"z": 1.553868071,
				"element": "C" 
			},
			{
				"x": -1.3439536819,
				"y": 2.0018009401,
				"z": 1.2124033887,
				"element": "N" 
			},
			{
				"x": -0.6468285134,
				"y": 2.3936359745,
				"z": 0.0967667245,
				"element": "C" 
			},
			{
				"x": -0.6874288739,
				"y": 3.5700831376,
				"z": -0.2659498636,
				"element": "O" 
			},
			{
				"x": 0.1655517751,
				"y": 1.4055242752,
				"z": -0.6968911133,
				"element": "C" 
			},
			{
				"x": 0.243232539,
				"y": 1.718870814,
				"z": -2.0327145365,
				"element": "C" 
			},
			{
				"x": 0.948314027,
				"y": 1.0317292168,
				"z": -2.9661986831,
				"element": "N" 
			},
			{
				"x": 0.9506661039,
				"y": 1.4833139855,
				"z": -4.3725166655,
				"element": "C" 
			},
			{
				"x": 2.1344681679,
				"y": 2.3938544465,
				"z": -4.6974923735,
				"element": "C" 
			},
			{
				"x": 1.7151012,
				"y": -0.0619292274,
				"z": -2.5714879672,
				"element": "C" 
			},
			{
				"x": 1.7278278462,
				"y": -0.4289118846,
				"z": -1.2120076052,
				"element": "C" 
			},
			{
				"x": 2.519923259,
				"y": -1.53496,
				"z": -0.8672612889,
				"element": "C" 
			},
			{
				"x": 3.2317197296,
				"y": -2.2029017318,
				"z": -1.8458283553,
				"element": "C" 
			},
			{
				"x": 3.1478053563,
				"y": -1.7535568491,
				"z": -3.1809416969,
				"element": "C" 
			},
			{
				"x": 3.9052824588,
				"y": -2.4530743282,
				"z": -4.2808982002,
				"element": "C" 
			},
			{
				"x": 2.4043705426,
				"y": -0.701784494,
				"z": -3.5299970063,
				"element": "N" 
			},
			{
				"x": 0.9541337354,
				"y": 0.2954741623,
				"z": -0.1774149443,
				"element": "C" 
			},
			{
				"x": 1.0248596337,
				"y": -0.0508240604,
				"z": 1.0117328234,
				"element": "O" 
			},
			{
				"x": -2.80363599,
				"y": 0.1461337073,
				"z": 0.4942476728,
				"element": "C" 
			},
			{
				"x": -3.2028027136,
				"y": 0.7516158028,
				"z": -0.4760903057,
				"element": "O" 
			},
			{
				"x": -3.1569862544,
				"y": -1.1298669629,
				"z": 0.7729126523,
				"element": "O" 
			},
			{
				"x": -4.0585660962,
				"y": -1.7386312615,
				"z": -0.1651508743,
				"element": "C" 
			},
			{
				"x": -0.5928184455,
				"y": -0.88004895,
				"z": 4.3982367168,
				"element": "H" 
			},
			{
				"x": 0.3225372388,
				"y": 0.4631223617,
				"z": 5.0916186946,
				"element": "H" 
			},
			{
				"x": 0.3609845638,
				"y": 0.1805449319,
				"z": 3.3465222681,
				"element": "H" 
			},
			{
				"x": -2.0556896676,
				"y": 1.106570565,
				"z": 5.0199436231,
				"element": "H" 
			},
			{
				"x": -1.1537215074,
				"y": 2.1072992627,
				"z": 3.8963399833,
				"element": "H" 
			},
			{
				"x": -2.7799656295,
				"y": -0.3681500108,
				"z": 3.1406673341,
				"element": "H" 
			},
			{
				"x": -4.2568636047,
				"y": 1.4030655938,
				"z": 3.9942775674,
				"element": "H" 
			},
			{
				"x": -3.5436470198,
				"y": 2.6053582558,
				"z": 2.9290125318,
				"element": "H" 
			},
			{
				"x": -4.4782021799,
				"y": 1.2688169053,
				"z": 2.2455283052,
				"element": "H" 
			},
			{
				"x": -0.978420971,
				"y": -0.0074885481,
				"z": 1.5745109014,
				"element": "H" 
			},
			{
				"x": -1.9103869356,
				"y": 2.7761743159,
				"z": 1.5370106049,
				"element": "H" 
			},
			{
				"x": -0.2938846019,
				"y": 2.5897290195,
				"z": -2.3910750409,
				"element": "H" 
			},
			{
				"x": 0.0021248954,
				"y": 2.0006192426,
				"z": -4.5367687894,
				"element": "H" 
			},
			{
				"x": 0.9703419191,
				"y": 0.5921748669,
				"z": -5.0001724558,
				"element": "H" 
			},
			{
				"x": 3.0777590468,
				"y": 1.8606656057,
				"z": -4.557699293,
				"element": "H" 
			},
			{
				"x": 2.0748719754,
				"y": 2.7186027649,
				"z": -5.7412166103,
				"element": "H" 
			},
			{
				"x": 2.1351797064,
				"y": 3.2846306157,
				"z": -4.0619402608,
				"element": "H" 
			},
			{
				"x": 2.5447696773,
				"y": -1.830646231,
				"z": 0.1766622017,
				"element": "H" 
			},
			{
				"x": 3.8504787818,
				"y": -3.0609048293,
				"z": -1.602330835,
				"element": "H" 
			},
			{
				"x": 4.9811749744,
				"y": -2.4603788878,
				"z": -4.0732546171,
				"element": "H" 
			},
			{
				"x": 3.7325909516,
				"y": -1.9497746668,
				"z": -5.233125273,
				"element": "H" 
			},
			{
				"x": 3.5879045063,
				"y": -3.4982105087,
				"z": -4.3712109239,
				"element": "H" 
			},
			{
				"x": -3.6144700854,
				"y": -1.7659367183,
				"z": -1.1634600413,
				"element": "H" 
			},
			{
				"x": -4.9983522384,
				"y": -1.1826999433,
				"z": -0.2147257014,
				"element": "H" 
			},
			{
				"x": -4.2312955508,
				"y": -2.7494356493,
				"z": 0.2043916505,
				"element": "H" 
			}
		],
		 "valence_orbital": [ 
			{
				"type": "occ",
				"energy": -0.26831,
				"method": "rhf"
			},
			{
				"type": "occ",
				"energy": -0.24938,
				"method": "rhf"
			},
			{
				"type": "occ",
				"energy": -0.23999,
				"method": "rhf"
			},
			{
				"type": "occ",
				"energy": -0.23314,
				"method": "rhf"
			},
			{
				"type": "occ",
				"energy": -0.2201,
				"method": "rhf"
			},
			{
				"type": "unocc",
				"energy": -0.05792,
				"method": "rhf"
			},
			{
				"type": "unocc",
				"energy": -0.03674,
				"method": "rhf"
			},
			{
				"type": "unocc",
				"energy": -0.00258,
				"method": "rhf"
			},
			{
				"type": "unocc",
				"energy": 0.01652,
				"method": "rhf"
			},
			{
				"type": "unocc",
				"energy": 0.03272,
				"method": "rhf"
			}
		],
		"cosmo_sigma_profile": { 
			"-0.025": 0.0,
			"-0.024": 0.0,
			"-0.023": 0.0,
			"-0.022": 0.0,
			"-0.021": 0.0,
			"-0.02": 0.0,
			"-0.019": 0.0,
			"-0.018": 0.0,
			"-0.017": 0.0,
			"-0.016": 0.0,
			"-0.015": 0.0,
			"-0.014": 0.0,
			"-0.013": 0.0,
			"-0.012": 0.0723663320261,
			"-0.011": 0.965716315773,
			"-0.01": 1.81364477568,
			"-0.009": 3.33293552466,
			"-0.008": 3.36072039703,
			"-0.007": 6.08196817363,
			"-0.006": 13.5233935936,
			"-0.005": 23.9907449816,
			"-0.004": 32.1041124115,
			"-0.003": 47.2103585293,
			"-0.002": 45.3377368242,
			"-0.001": 46.6452430093,
			"0.0": 45.6433267025,
			"0.001": 32.7532353218,
			"0.002": 20.818966235,
			"0.003": 13.2684784134,
			"0.004": 9.29472279148,
			"0.005": 9.4228202633,
			"0.006": 9.03916845535,
			"0.007": 6.84263179454,
			"0.008": 7.8461485606,
			"0.009": 5.56813993615,
			"0.01": 6.28071320791,
			"0.011": 6.59178372427,
			"0.012": 6.24719573658,
			"0.013": 4.28872183446,
			"0.014": 4.0826213182,
			"0.015": 0.278254259183,
			"0.016": 0.0,
			"0.017": 0.0,
			"0.018": 0.0,
			"0.019": 0.0,
			"0.02": 0.0,
			"0.021": 0.0,
			"0.022": 0.0,
			"0.023": 0.0,
			"0.024": 0.0,
			"0.025": 0.0
		}
	}
}
