{
	 "smiles": "NC1=NC(SCCO)=NN1", 
	 "Tm": 400.15, 
	 "num_atms": 18, 
	 "gaussian": { 
		 "optdone": 1, 
		 "sigma_profile": "yes", 
		 "theory": "DFT", 
		 "functional": "B3LYP", 
		 "basiset": "6-31G**", 
		 "properties": { 
			 "R2extent": 2660.0391, 
			 "electric_dipole_moment_norm": 5.53485811291, 
			 "electric_quadrupole_moment_norm": 13.936919819, 
			 "total_energy": -849.640600743, 
			 "HOMO_LUMO_gap": 0.22973, 
			 "cosmo_polarized_energy": -20.19, 
			 "cosmo_cavitation_energy": 23.62, 
			 "cosmo_dispersion_energy": -18.18, 
			 "cosmo_repulsion_energy": 1.48, 
			 "cosmo_total_nonelectrostatic_energy": 6.92, 
			 "SMD_solvation_energy": 1.54 
		},
		"coords": [
			{
				"x": -3.6382239509,
				"y": 1.1415366095,
				"z": 0.1900727289,
				"element": "N" 
			},
			{
				"x": -2.2611774449,
				"y": 1.1329401365,
				"z": 0.2789795372,
				"element": "C" 
			},
			{
				"x": -1.4239009708,
				"y": 1.5970184286,
				"z": -0.6376240645,
				"element": "N" 
			},
			{
				"x": -0.2034046125,
				"y": 1.4230125601,
				"z": -0.0399782589,
				"element": "C" 
			},
			{
				"x": 1.3318296344,
				"y": 1.9257649833,
				"z": -0.7674630325,
				"element": "S" 
			},
			{
				"x": 0.8114085432,
				"y": 2.1625622754,
				"z": -2.5168441137,
				"element": "C" 
			},
			{
				"x": 0.645918045,
				"y": 0.844715959,
				"z": -3.2757692353,
				"element": "C" 
			},
			{
				"x": 1.835208099,
				"y": 0.0805959252,
				"z": -3.3198683176,
				"element": "O" 
			},
			{
				"x": -0.2208342916,
				"y": 0.8757940432,
				"z": 1.1626883194,
				"element": "N" 
			},
			{
				"x": -1.5726277125,
				"y": 0.7027059535,
				"z": 1.3603347244,
				"element": "N" 
			},
			{
				"x": -4.1069494946,
				"y": 0.3267403629,
				"z": 0.5641793757,
				"element": "H" 
			},
			{
				"x": -3.9499583934,
				"y": 1.3669036825,
				"z": -0.7454940298,
				"element": "H" 
			},
			{
				"x": -0.1108145689,
				"y": 2.7470109102,
				"z": -2.5254198795,
				"element": "H" 
			},
			{
				"x": 1.620049746,
				"y": 2.7535758317,
				"z": -2.9561655542,
				"element": "H" 
			},
			{
				"x": -0.1926806184,
				"y": 0.2806163219,
				"z": -2.8417533587,
				"element": "H" 
			},
			{
				"x": 0.3875732911,
				"y": 1.0718592788,
				"z": -4.3169303422,
				"element": "H" 
			},
			{
				"x": 2.0894063781,
				"y": -0.0917936589,
				"z": -2.4010777597,
				"element": "H" 
			},
			{
				"x": -1.9107216783,
				"y": 0.3596403965,
				"z": 2.245733261,
				"element": "H" 
			}
		],
		 "valence_orbital": [ 
			{
				"type": "occ",
				"energy": -0.30936,
				"method": "rhf"
			},
			{
				"type": "occ",
				"energy": -0.28183,
				"method": "rhf"
			},
			{
				"type": "occ",
				"energy": -0.2643,
				"method": "rhf"
			},
			{
				"type": "occ",
				"energy": -0.25165,
				"method": "rhf"
			},
			{
				"type": "occ",
				"energy": -0.21336,
				"method": "rhf"
			},
			{
				"type": "unocc",
				"energy": 0.01637,
				"method": "rhf"
			},
			{
				"type": "unocc",
				"energy": 0.0379,
				"method": "rhf"
			},
			{
				"type": "unocc",
				"energy": 0.04972,
				"method": "rhf"
			},
			{
				"type": "unocc",
				"energy": 0.06164,
				"method": "rhf"
			},
			{
				"type": "unocc",
				"energy": 0.08301,
				"method": "rhf"
			}
		],
		"cosmo_sigma_profile": { 
			"-0.025": 0.0,
			"-0.024": 0.0,
			"-0.023": 0.0,
			"-0.022": 0.0,
			"-0.021": 0.0,
			"-0.02": 0.0,
			"-0.019": 0.0,
			"-0.018": 0.00492227334941,
			"-0.017": 1.7552844651,
			"-0.016": 2.02263968175,
			"-0.015": 2.72479745553,
			"-0.014": 3.67437484818,
			"-0.013": 2.83930816222,
			"-0.012": 3.98835727936,
			"-0.011": 4.36220236102,
			"-0.01": 3.58659526648,
			"-0.009": 2.52522011903,
			"-0.008": 2.41225772594,
			"-0.007": 3.71342363171,
			"-0.006": 6.29052261784,
			"-0.005": 8.750000885,
			"-0.004": 9.82666877759,
			"-0.003": 10.4500962355,
			"-0.002": 10.6329375406,
			"-0.001": 8.89826058503,
			"0.0": 7.68264296788,
			"0.001": 8.50933015049,
			"0.002": 8.2005573484,
			"0.003": 9.44025916288,
			"0.004": 11.5884515421,
			"0.005": 10.2202172452,
			"0.006": 7.36128003245,
			"0.007": 6.32206404409,
			"0.008": 5.74231529627,
			"0.009": 3.76717387502,
			"0.01": 4.52616037718,
			"0.011": 4.50673992422,
			"0.012": 3.45782273702,
			"0.013": 3.12116483719,
			"0.014": 3.51536445208,
			"0.015": 1.54101023584,
			"0.016": 0.139170433468,
			"0.017": 0.0,
			"0.018": 0.0,
			"0.019": 0.0,
			"0.02": 0.0,
			"0.021": 0.0,
			"0.022": 0.0,
			"0.023": 0.0,
			"0.024": 0.0,
			"0.025": 0.0
		}
	}
}
