{
	 "smiles": "OC(=O)C1=CC(=CC=C1)N1C=CC=N1", 
	 "Tm": 428.15, 
	 "num_atms": 22, 
	 "gaussian": { 
		 "optdone": 1, 
		 "sigma_profile": "yes", 
		 "theory": "DFT", 
		 "functional": "B3LYP", 
		 "basiset": "6-31G**", 
		 "properties": { 
			 "R2extent": 3257.3307, 
			 "electric_dipole_moment_norm": 6.08066589363, 
			 "electric_quadrupole_moment_norm": 15.9628064372, 
			 "total_energy": -645.817435896, 
			 "HOMO_LUMO_gap": 0.18281, 
			 "cosmo_polarized_energy": -18.58, 
			 "cosmo_cavitation_energy": 27.1, 
			 "cosmo_dispersion_energy": -20.02, 
			 "cosmo_repulsion_energy": 1.54, 
			 "cosmo_total_nonelectrostatic_energy": 8.62, 
			 "SMD_solvation_energy": 5.67 
		},
		"coords": [
			{
				"x": 3.8420761687,
				"y": -1.9803639977,
				"z": -0.1118368846,
				"element": "O" 
			},
			{
				"x": 2.5688937723,
				"y": -1.8191586152,
				"z": -0.5641595326,
				"element": "C" 
			},
			{
				"x": 2.1652321402,
				"y": -2.4833025528,
				"z": -1.4878952009,
				"element": "O" 
			},
			{
				"x": 1.7324021876,
				"y": -0.7937065316,
				"z": 0.1469654119,
				"element": "C" 
			},
			{
				"x": 0.6385862103,
				"y": -0.2677207757,
				"z": -0.5454312413,
				"element": "C" 
			},
			{
				"x": -0.1784610891,
				"y": 0.6858292827,
				"z": 0.0662581688,
				"element": "C" 
			},
			{
				"x": 0.090490494,
				"y": 1.1049028386,
				"z": 1.3762354234,
				"element": "C" 
			},
			{
				"x": 1.1613807197,
				"y": 0.5500592586,
				"z": 2.0736812613,
				"element": "C" 
			},
			{
				"x": 1.9874571034,
				"y": -0.3948320064,
				"z": 1.4672675714,
				"element": "C" 
			},
			{
				"x": -1.2762240598,
				"y": 1.2216230278,
				"z": -0.6492007128,
				"element": "N" 
			},
			{
				"x": -2.3915344986,
				"y": 1.8439035652,
				"z": -0.1528760886,
				"element": "C" 
			},
			{
				"x": -3.1783778125,
				"y": 2.1748220976,
				"z": -1.2324043205,
				"element": "C" 
			},
			{
				"x": -2.454097842,
				"y": 1.7065984232,
				"z": -2.3553451132,
				"element": "C" 
			},
			{
				"x": -1.3105496662,
				"y": 1.131207837,
				"z": -2.005578523,
				"element": "N" 
			},
			{
				"x": 4.0678817064,
				"y": -1.2704932854,
				"z": 0.5051405257,
				"element": "H" 
			},
			{
				"x": 0.4295335425,
				"y": -0.5957628244,
				"z": -1.5553705539,
				"element": "H" 
			},
			{
				"x": -0.5203809252,
				"y": 1.8674992336,
				"z": 1.8463959396,
				"element": "H" 
			},
			{
				"x": 1.3536504932,
				"y": 0.864049865,
				"z": 3.0948420831,
				"element": "H" 
			},
			{
				"x": 2.7961682186,
				"y": -0.8404211789,
				"z": 2.0402265406,
				"element": "H" 
			},
			{
				"x": -2.5501885739,
				"y": 1.9735080751,
				"z": 0.9061754771,
				"element": "H" 
			},
			{
				"x": -4.1366660322,
				"y": 2.6715711786,
				"z": -1.2135143372,
				"element": "H" 
			},
			{
				"x": -2.7198722573,
				"y": 1.7687870851,
				"z": -3.4021758941,
				"element": "H" 
			}
		],
		 "valence_orbital": [ 
			{
				"type": "occ",
				"energy": -0.29707,
				"method": "rhf"
			},
			{
				"type": "occ",
				"energy": -0.2814,
				"method": "rhf"
			},
			{
				"type": "occ",
				"energy": -0.2689,
				"method": "rhf"
			},
			{
				"type": "occ",
				"energy": -0.25868,
				"method": "rhf"
			},
			{
				"type": "occ",
				"energy": -0.23942,
				"method": "rhf"
			},
			{
				"type": "unocc",
				"energy": -0.05661,
				"method": "rhf"
			},
			{
				"type": "unocc",
				"energy": -0.0367,
				"method": "rhf"
			},
			{
				"type": "unocc",
				"energy": 0.01377,
				"method": "rhf"
			},
			{
				"type": "unocc",
				"energy": 0.05207,
				"method": "rhf"
			},
			{
				"type": "unocc",
				"energy": 0.05978,
				"method": "rhf"
			}
		],
		"cosmo_sigma_profile": { 
			"-0.025": 0.0,
			"-0.024": 0.0,
			"-0.023": 0.0,
			"-0.022": 0.0,
			"-0.021": 0.0,
			"-0.02": 0.0,
			"-0.019": 0.197849926283,
			"-0.018": 1.02288709638,
			"-0.017": 0.788550026943,
			"-0.016": 1.14808203785,
			"-0.015": 0.737986866755,
			"-0.014": 0.83020495427,
			"-0.013": 1.56852052367,
			"-0.012": 0.692399411686,
			"-0.011": 1.91281690196,
			"-0.01": 2.89252739175,
			"-0.009": 4.25741504783,
			"-0.008": 5.29535528061,
			"-0.007": 10.8454304973,
			"-0.006": 12.1264564504,
			"-0.005": 9.32310488689,
			"-0.004": 10.2116003467,
			"-0.003": 10.301287876,
			"-0.002": 12.6698136479,
			"-0.001": 11.923307493,
			"0.0": 14.2114170672,
			"0.001": 15.8315709452,
			"0.002": 20.5307805141,
			"0.003": 13.3528562271,
			"0.004": 10.4522869954,
			"0.005": 7.47921137987,
			"0.006": 4.15884132993,
			"0.007": 3.90148978897,
			"0.008": 4.41689657664,
			"0.009": 5.5836139548,
			"0.01": 5.69640578643,
			"0.011": 7.02492682019,
			"0.012": 5.04450554962,
			"0.013": 1.92903235068,
			"0.014": 0.162224167633,
			"0.015": 0.0,
			"0.016": 0.0,
			"0.017": 0.0,
			"0.018": 0.0,
			"0.019": 0.0,
			"0.02": 0.0,
			"0.021": 0.0,
			"0.022": 0.0,
			"0.023": 0.0,
			"0.024": 0.0,
			"0.025": 0.0
		}
	}
}
