{
	 "smiles": "CCCCS(=O)(=O)CCCC", 
	 "Tm": 317.65, 
	 "num_atms": 29, 
	 "gaussian": { 
		 "optdone": 1, 
		 "sigma_profile": "yes", 
		 "theory": "DFT", 
		 "functional": "B3LYP", 
		 "basiset": "6-31G**", 
		 "properties": { 
			 "R2extent": 3256.0523, 
			 "electric_dipole_moment_norm": 4.30527012974, 
			 "electric_quadrupole_moment_norm": 11.9423183495, 
			 "total_energy": -864.298071065, 
			 "HOMO_LUMO_gap": 0.32553, 
			 "cosmo_polarized_energy": -14.44, 
			 "cosmo_cavitation_energy": 31.08, 
			 "cosmo_dispersion_energy": -22.31, 
			 "cosmo_repulsion_energy": 1.78, 
			 "cosmo_total_nonelectrostatic_energy": 10.56, 
			 "SMD_solvation_energy": 4.25 
		},
		"coords": [
			{
				"x": 2.8703893238,
				"y": -0.793583808,
				"z": -1.3735934425,
				"element": "C" 
			},
			{
				"x": 1.434956595,
				"y": -1.2574365837,
				"z": -1.1042287389,
				"element": "C" 
			},
			{
				"x": 0.3541510304,
				"y": -0.3810846567,
				"z": -1.7625790449,
				"element": "C" 
			},
			{
				"x": 0.3275450611,
				"y": 1.1023736517,
				"z": -1.3672679844,
				"element": "C" 
			},
			{
				"x": -0.1253750717,
				"y": 1.5005843777,
				"z": 0.3541702693,
				"element": "S" 
			},
			{
				"x": 0.7596095816,
				"y": 0.7469129237,
				"z": 1.2650561842,
				"element": "O" 
			},
			{
				"x": -0.1844631239,
				"y": 2.9714170193,
				"z": 0.4427099589,
				"element": "O" 
			},
			{
				"x": -1.8322680589,
				"y": 0.8712656633,
				"z": 0.5302298211,
				"element": "C" 
			},
			{
				"x": -2.5026343557,
				"y": 1.3829280458,
				"z": 1.8124792815,
				"element": "C" 
			},
			{
				"x": -1.9929071954,
				"y": 0.7414683149,
				"z": 3.1110788935,
				"element": "C" 
			},
			{
				"x": -2.7379879742,
				"y": 1.2635376395,
				"z": 4.3431419652,
				"element": "C" 
			},
			{
				"x": 3.0818534079,
				"y": 0.1652214926,
				"z": -0.8901664494,
				"element": "H" 
			},
			{
				"x": 3.5897156622,
				"y": -1.5169861433,
				"z": -0.9773912414,
				"element": "H" 
			},
			{
				"x": 3.0658083109,
				"y": -0.6857501633,
				"z": -2.4474870496,
				"element": "H" 
			},
			{
				"x": 1.305145209,
				"y": -2.2766632836,
				"z": -1.4893736797,
				"element": "H" 
			},
			{
				"x": 1.2673462262,
				"y": -1.3012274732,
				"z": -0.0244332192,
				"element": "H" 
			},
			{
				"x": -0.6343784764,
				"y": -0.8242790268,
				"z": -1.5888569525,
				"element": "H" 
			},
			{
				"x": 0.4965401658,
				"y": -0.3995028173,
				"z": -2.8516924081,
				"element": "H" 
			},
			{
				"x": -0.376483316,
				"y": 1.6693919082,
				"z": -1.9836445906,
				"element": "H" 
			},
			{
				"x": 1.3085264797,
				"y": 1.5755709071,
				"z": -1.4726954223,
				"element": "H" 
			},
			{
				"x": -1.7762875661,
				"y": -0.2208748657,
				"z": 0.5030003992,
				"element": "H" 
			},
			{
				"x": -2.3672045024,
				"y": 1.2240686364,
				"z": -0.3572870906,
				"element": "H" 
			},
			{
				"x": -2.3860585124,
				"y": 2.4720021988,
				"z": 1.855675266,
				"element": "H" 
			},
			{
				"x": -3.5784182894,
				"y": 1.1893542082,
				"z": 1.7087095878,
				"element": "H" 
			},
			{
				"x": -2.1100714202,
				"y": -0.3487781476,
				"z": 3.0431236257,
				"element": "H" 
			},
			{
				"x": -0.9192325226,
				"y": 0.9251678981,
				"z": 3.2169745257,
				"element": "H" 
			},
			{
				"x": -3.8138429902,
				"y": 1.0627020059,
				"z": 4.2763048155,
				"element": "H" 
			},
			{
				"x": -2.3678860622,
				"y": 0.7908229229,
				"z": 5.2582424914,
				"element": "H" 
			},
			{
				"x": -2.6094876156,
				"y": 2.3460771554,
				"z": 4.4538002291,
				"element": "H" 
			}
		],
		 "valence_orbital": [ 
			{
				"type": "occ",
				"energy": -0.33191,
				"method": "rhf"
			},
			{
				"type": "occ",
				"energy": -0.31101,
				"method": "rhf"
			},
			{
				"type": "occ",
				"energy": -0.30153,
				"method": "rhf"
			},
			{
				"type": "occ",
				"energy": -0.28639,
				"method": "rhf"
			},
			{
				"type": "occ",
				"energy": -0.27255,
				"method": "rhf"
			},
			{
				"type": "unocc",
				"energy": 0.05298,
				"method": "rhf"
			},
			{
				"type": "unocc",
				"energy": 0.06404,
				"method": "rhf"
			},
			{
				"type": "unocc",
				"energy": 0.07553,
				"method": "rhf"
			},
			{
				"type": "unocc",
				"energy": 0.09307,
				"method": "rhf"
			},
			{
				"type": "unocc",
				"energy": 0.09806,
				"method": "rhf"
			}
		],
		"cosmo_sigma_profile": { 
			"-0.025": 0.0,
			"-0.024": 0.0,
			"-0.023": 0.0,
			"-0.022": 0.0,
			"-0.021": 0.0,
			"-0.02": 0.0,
			"-0.019": 0.0,
			"-0.018": 0.0,
			"-0.017": 0.0,
			"-0.016": 0.0,
			"-0.015": 0.0,
			"-0.014": 0.0,
			"-0.013": 0.0,
			"-0.012": 0.0,
			"-0.011": 0.0534767724505,
			"-0.01": 0.684492670771,
			"-0.009": 1.66301600615,
			"-0.008": 2.96852257612,
			"-0.007": 8.52145253327,
			"-0.006": 8.70940751825,
			"-0.005": 10.3737050648,
			"-0.004": 16.497833176,
			"-0.003": 25.3947443142,
			"-0.002": 29.1716542093,
			"-0.001": 29.7250912249,
			"0.0": 27.6000462981,
			"0.001": 23.8998415314,
			"0.002": 10.0244045807,
			"0.003": 4.23070690283,
			"0.004": 2.94848738059,
			"0.005": 3.06353653361,
			"0.006": 3.08789036139,
			"0.007": 2.93265153483,
			"0.008": 2.82413715972,
			"0.009": 2.5259027155,
			"0.01": 4.02872612529,
			"0.011": 5.80525816888,
			"0.012": 8.29799546519,
			"0.013": 5.02500587637,
			"0.014": 0.265828049443,
			"0.015": 0.0,
			"0.016": 0.0,
			"0.017": 0.0,
			"0.018": 0.0,
			"0.019": 0.0,
			"0.02": 0.0,
			"0.021": 0.0,
			"0.022": 0.0,
			"0.023": 0.0,
			"0.024": 0.0,
			"0.025": 0.0
		}
	}
}
