{
	 "smiles": "C=CCN1C(=O)OC(=O)C2=C1C=CC=C2", 
	 "Tm": 385.15, 
	 "num_atms": 24, 
	 "gaussian": { 
		 "optdone": 1, 
		 "sigma_profile": "yes", 
		 "theory": "DFT", 
		 "functional": "B3LYP", 
		 "basiset": "6-31G**", 
		 "properties": { 
			 "R2extent": 3050.9605, 
			 "electric_dipole_moment_norm": 6.58586421056, 
			 "electric_quadrupole_moment_norm": 4.52978890789, 
			 "total_energy": -705.023409232, 
			 "HOMO_LUMO_gap": 0.17893, 
			 "cosmo_polarized_energy": -14.66, 
			 "cosmo_cavitation_energy": 28.3, 
			 "cosmo_dispersion_energy": -20.35, 
			 "cosmo_repulsion_energy": 1.57, 
			 "cosmo_total_nonelectrostatic_energy": 9.51, 
			 "SMD_solvation_energy": 7.53 
		},
		"coords": [
			{
				"x": 0.0524110986,
				"y": 3.8217160617,
				"z": 0.7985569157,
				"element": "C" 
			},
			{
				"x": -0.5861707596,
				"y": 3.3640439472,
				"z": 1.8731568205,
				"element": "C" 
			},
			{
				"x": -0.7601488109,
				"y": 1.9187212472,
				"z": 2.2678146035,
				"element": "C" 
			},
			{
				"x": -0.2723671864,
				"y": 0.937873404,
				"z": 1.2898300984,
				"element": "N" 
			},
			{
				"x": 0.9463040325,
				"y": 0.3353225643,
				"z": 1.5804895755,
				"element": "C" 
			},
			{
				"x": 1.6173517813,
				"y": 0.6040069851,
				"z": 2.5470935064,
				"element": "O" 
			},
			{
				"x": 1.3885562577,
				"y": -0.6235918855,
				"z": 0.7046310706,
				"element": "O" 
			},
			{
				"x": 0.710781328,
				"y": -1.0764863879,
				"z": -0.4256304093,
				"element": "C" 
			},
			{
				"x": 1.2236783912,
				"y": -1.947958519,
				"z": -1.0792974369,
				"element": "O" 
			},
			{
				"x": -0.5697035975,
				"y": -0.420110796,
				"z": -0.6936190453,
				"element": "C" 
			},
			{
				"x": -1.0338697602,
				"y": 0.5940806847,
				"z": 0.1652764616,
				"element": "C" 
			},
			{
				"x": -2.2527437658,
				"y": 1.2268230183,
				"z": -0.1334811355,
				"element": "C" 
			},
			{
				"x": -2.9831709676,
				"y": 0.8295653366,
				"z": -1.2491443419,
				"element": "C" 
			},
			{
				"x": -2.5276206295,
				"y": -0.189265748,
				"z": -2.0952663436,
				"element": "C" 
			},
			{
				"x": -1.3171795131,
				"y": -0.8057721818,
				"z": -1.8147840333,
				"element": "C" 
			},
			{
				"x": 0.5113750597,
				"y": 3.1566965561,
				"z": 0.0731151911,
				"element": "H" 
			},
			{
				"x": 0.1439828423,
				"y": 4.8866150531,
				"z": 0.6117012464,
				"element": "H" 
			},
			{
				"x": -1.0259295945,
				"y": 4.0661395763,
				"z": 2.5812091061,
				"element": "H" 
			},
			{
				"x": -0.2112970362,
				"y": 1.7265929171,
				"z": 3.1927476961,
				"element": "H" 
			},
			{
				"x": -1.8159496718,
				"y": 1.7032087218,
				"z": 2.4714722986,
				"element": "H" 
			},
			{
				"x": -2.6157760047,
				"y": 2.0402452745,
				"z": 0.4804508024,
				"element": "H" 
			},
			{
				"x": -3.922402657,
				"y": 1.3307597359,
				"z": -1.4642062136,
				"element": "H" 
			},
			{
				"x": -3.1094203966,
				"y": -0.4855537409,
				"z": -2.9615731702,
				"element": "H" 
			},
			{
				"x": -0.9155904402,
				"y": -1.5930718248,
				"z": -2.4435432632,
				"element": "H" 
			}
		],
		 "valence_orbital": [ 
			{
				"type": "occ",
				"energy": -0.31069,
				"method": "rhf"
			},
			{
				"type": "occ",
				"energy": -0.28438,
				"method": "rhf"
			},
			{
				"type": "occ",
				"energy": -0.28239,
				"method": "rhf"
			},
			{
				"type": "occ",
				"energy": -0.27273,
				"method": "rhf"
			},
			{
				"type": "occ",
				"energy": -0.24471,
				"method": "rhf"
			},
			{
				"type": "unocc",
				"energy": -0.06578,
				"method": "rhf"
			},
			{
				"type": "unocc",
				"energy": -0.02864,
				"method": "rhf"
			},
			{
				"type": "unocc",
				"energy": 0.00204,
				"method": "rhf"
			},
			{
				"type": "unocc",
				"energy": 0.01566,
				"method": "rhf"
			},
			{
				"type": "unocc",
				"energy": 0.05429,
				"method": "rhf"
			}
		],
		"cosmo_sigma_profile": { 
			"-0.025": 0.0,
			"-0.024": 0.0,
			"-0.023": 0.0,
			"-0.022": 0.0,
			"-0.021": 0.0,
			"-0.02": 0.0,
			"-0.019": 0.0,
			"-0.018": 0.0,
			"-0.017": 0.0,
			"-0.016": 0.0,
			"-0.015": 0.0,
			"-0.014": 0.0,
			"-0.013": 0.0,
			"-0.012": 0.0,
			"-0.011": 0.0,
			"-0.01": 0.06128305205,
			"-0.009": 1.50876419168,
			"-0.008": 4.37594732993,
			"-0.007": 11.6302800846,
			"-0.006": 20.07375913,
			"-0.005": 20.4867409066,
			"-0.004": 17.8859782449,
			"-0.003": 13.5219988073,
			"-0.002": 14.1029666794,
			"-0.001": 13.5992778252,
			"0.0": 13.9206417782,
			"0.001": 14.596894714,
			"0.002": 16.3729979683,
			"0.003": 14.0827865646,
			"0.004": 6.15524195176,
			"0.005": 5.77903125711,
			"0.006": 4.35634634217,
			"0.007": 3.5928046337,
			"0.008": 6.10091022596,
			"0.009": 5.22104776597,
			"0.01": 7.59730326805,
			"0.011": 9.33076340176,
			"0.012": 3.00171840115,
			"0.013": 0.15216973469,
			"0.014": 0.0,
			"0.015": 0.0,
			"0.016": 0.0,
			"0.017": 0.0,
			"0.018": 0.0,
			"0.019": 0.0,
			"0.02": 0.0,
			"0.021": 0.0,
			"0.022": 0.0,
			"0.023": 0.0,
			"0.024": 0.0,
			"0.025": 0.0
		}
	}
}
