{
	 "smiles": "NC(=O)C1CCN(CC1)S(N)(=O)=O", 
	 "Tm": 502.15, 
	 "num_atms": 26, 
	 "gaussian": { 
		 "optdone": 1, 
		 "sigma_profile": "yes", 
		 "theory": "DFT", 
		 "functional": "B3LYP", 
		 "basiset": "6-31G**", 
		 "properties": { 
			 "R2extent": 3069.065, 
			 "electric_dipole_moment_norm": 5.08296391095, 
			 "electric_quadrupole_moment_norm": 15.1212048257, 
			 "total_energy": -1024.53242337, 
			 "HOMO_LUMO_gap": 0.26561, 
			 "cosmo_polarized_energy": -21.68, 
			 "cosmo_cavitation_energy": 28.61, 
			 "cosmo_dispersion_energy": -21.29, 
			 "cosmo_repulsion_energy": 1.65, 
			 "cosmo_total_nonelectrostatic_energy": 8.96, 
			 "SMD_solvation_energy": 4.73 
		},
		"coords": [
			{
				"x": 1.4904774426,
				"y": 0.6559191811,
				"z": -0.5054709875,
				"element": "N" 
			},
			{
				"x": 1.5211992716,
				"y": -0.5207653912,
				"z": -1.1989330241,
				"element": "C" 
			},
			{
				"x": 2.1385622785,
				"y": -0.6550230119,
				"z": -2.2477555274,
				"element": "O" 
			},
			{
				"x": 0.725520382,
				"y": -1.6979587311,
				"z": -0.6037036484,
				"element": "C" 
			},
			{
				"x": -0.738021479,
				"y": -1.6639822145,
				"z": -1.096904844,
				"element": "C" 
			},
			{
				"x": -1.5482289237,
				"y": -0.49683874,
				"z": -0.5022262845,
				"element": "C" 
			},
			{
				"x": -1.0800234614,
				"y": -0.2024307279,
				"z": 0.8797886496,
				"element": "N" 
			},
			{
				"x": -0.5609666895,
				"y": -1.3776372503,
				"z": 1.6089455783,
				"element": "C" 
			},
			{
				"x": 0.7566821962,
				"y": -1.82089639,
				"z": 0.9468018773,
				"element": "C" 
			},
			{
				"x": -2.0526414046,
				"y": 0.86379153,
				"z": 1.7344096654,
				"element": "S" 
			},
			{
				"x": -3.5296674835,
				"y": 0.0504550285,
				"z": 1.9555624588,
				"element": "N" 
			},
			{
				"x": -2.3244418338,
				"y": 1.9783130171,
				"z": 0.832110813,
				"element": "O" 
			},
			{
				"x": -1.4402564324,
				"y": 1.034194445,
				"z": 3.0494351134,
				"element": "O" 
			},
			{
				"x": 1.911818266,
				"y": 1.4567937892,
				"z": -0.9530579118,
				"element": "H" 
			},
			{
				"x": 0.8000848662,
				"y": 0.8070014889,
				"z": 0.2193542442,
				"element": "H" 
			},
			{
				"x": 1.2049920704,
				"y": -2.5726177086,
				"z": -1.04948324,
				"element": "H" 
			},
			{
				"x": -0.7665045517,
				"y": -1.5947640486,
				"z": -2.1883447136,
				"element": "H" 
			},
			{
				"x": -1.2108864859,
				"y": -2.6155703564,
				"z": -0.8292910122,
				"element": "H" 
			},
			{
				"x": -2.6162471463,
				"y": -0.7542764072,
				"z": -0.4996238884,
				"element": "H" 
			},
			{
				"x": -1.4185181063,
				"y": 0.4129521056,
				"z": -1.0907125231,
				"element": "H" 
			},
			{
				"x": -0.3888064309,
				"y": -1.0872878417,
				"z": 2.6456269137,
				"element": "H" 
			},
			{
				"x": -1.3041820374,
				"y": -2.1881944983,
				"z": 1.6019861234,
				"element": "H" 
			},
			{
				"x": 0.9455591689,
				"y": -2.8621825422,
				"z": 1.2288879558,
				"element": "H" 
			},
			{
				"x": 1.5835198623,
				"y": -1.2295979548,
				"z": 1.3504525214,
				"element": "H" 
			},
			{
				"x": -4.2833747785,
				"y": 0.6199007103,
				"z": 1.5808005472,
				"element": "H" 
			},
			{
				"x": -3.6699485597,
				"y": -0.1327974808,
				"z": 2.9453451435,
				"element": "H" 
			}
		],
		 "valence_orbital": [ 
			{
				"type": "occ",
				"energy": -0.31675,
				"method": "rhf"
			},
			{
				"type": "occ",
				"energy": -0.30491,
				"method": "rhf"
			},
			{
				"type": "occ",
				"energy": -0.27226,
				"method": "rhf"
			},
			{
				"type": "occ",
				"energy": -0.26021,
				"method": "rhf"
			},
			{
				"type": "occ",
				"energy": -0.23639,
				"method": "rhf"
			},
			{
				"type": "unocc",
				"energy": 0.02922,
				"method": "rhf"
			},
			{
				"type": "unocc",
				"energy": 0.03566,
				"method": "rhf"
			},
			{
				"type": "unocc",
				"energy": 0.07269,
				"method": "rhf"
			},
			{
				"type": "unocc",
				"energy": 0.07624,
				"method": "rhf"
			},
			{
				"type": "unocc",
				"energy": 0.08084,
				"method": "rhf"
			}
		],
		"cosmo_sigma_profile": { 
			"-0.025": 0.0,
			"-0.024": 0.0,
			"-0.023": 0.0,
			"-0.022": 0.0,
			"-0.021": 0.0,
			"-0.02": 0.0,
			"-0.019": 0.0,
			"-0.018": 0.0,
			"-0.017": 0.0,
			"-0.016": 0.0,
			"-0.015": 1.03834889359,
			"-0.014": 2.56690300229,
			"-0.013": 4.01991601361,
			"-0.012": 2.90342210511,
			"-0.011": 3.23444853237,
			"-0.01": 3.68412783844,
			"-0.009": 3.20654571814,
			"-0.008": 3.50693395323,
			"-0.007": 3.54868361843,
			"-0.006": 3.68770880368,
			"-0.005": 17.1936015201,
			"-0.004": 29.236384244,
			"-0.003": 26.1264604195,
			"-0.002": 18.2201297705,
			"-0.001": 11.1348897581,
			"0.0": 7.02727373773,
			"0.001": 5.39498845014,
			"0.002": 5.85884648174,
			"0.003": 5.59386274239,
			"0.004": 5.14172513882,
			"0.005": 5.78750697288,
			"0.006": 4.91615116589,
			"0.007": 5.4578433097,
			"0.008": 3.62773428887,
			"0.009": 5.39998878405,
			"0.01": 10.9100215189,
			"0.011": 9.87603828087,
			"0.012": 2.78601668773,
			"0.013": 3.02592852211,
			"0.014": 5.46488411161,
			"0.015": 3.08483015754,
			"0.016": 0.119692702875,
			"0.017": 0.0,
			"0.018": 0.0,
			"0.019": 0.0,
			"0.02": 0.0,
			"0.021": 0.0,
			"0.022": 0.0,
			"0.023": 0.0,
			"0.024": 0.0,
			"0.025": 0.0
		}
	}
}
