{
	 "smiles": "OC(=O)CCCCOC1=CC=C(OC2=CC=CC=C2)C=C1", 
	 "Tm": 327.15, 
	 "num_atms": 39, 
	 "gaussian": { 
		 "optdone": 1, 
		 "sigma_profile": "yes", 
		 "theory": "DFT", 
		 "functional": "B3LYP", 
		 "basiset": "6-31G**", 
		 "properties": { 
			 "R2extent": 13894.4116, 
			 "electric_dipole_moment_norm": 3.19995477624, 
			 "electric_quadrupole_moment_norm": 27.2827035046, 
			 "total_energy": -959.548166568, 
			 "HOMO_LUMO_gap": 0.19665, 
			 "cosmo_polarized_energy": -20.9, 
			 "cosmo_cavitation_energy": 43.9, 
			 "cosmo_dispersion_energy": -31.26, 
			 "cosmo_repulsion_energy": 2.43, 
			 "cosmo_total_nonelectrostatic_energy": 15.08, 
			 "SMD_solvation_energy": 8.53 
		},
		"coords": [
			{
				"x": -3.2902268282,
				"y": 0.9091944438,
				"z": 6.2751259578,
				"element": "O" 
			},
			{
				"x": -3.4774377876,
				"y": -0.2507715079,
				"z": 5.5868271339,
				"element": "C" 
			},
			{
				"x": -3.9507737615,
				"y": -1.210273061,
				"z": 6.140557902,
				"element": "O" 
			},
			{
				"x": -3.0519124174,
				"y": -0.2153823058,
				"z": 4.1229792686,
				"element": "C" 
			},
			{
				"x": -3.275640259,
				"y": -1.5540751905,
				"z": 3.4115720273,
				"element": "C" 
			},
			{
				"x": -2.9601026759,
				"y": -1.5303058663,
				"z": 1.9091521171,
				"element": "C" 
			},
			{
				"x": -1.4778775631,
				"y": -1.3677809544,
				"z": 1.5900875041,
				"element": "C" 
			},
			{
				"x": -1.3409771318,
				"y": -1.4119646113,
				"z": 0.1736558687,
				"element": "O" 
			},
			{
				"x": -0.0929939449,
				"y": -1.2868183685,
				"z": -0.3700744841,
				"element": "C" 
			},
			{
				"x": 1.0867044689,
				"y": -1.1297710623,
				"z": 0.365589561,
				"element": "C" 
			},
			{
				"x": 2.3099575374,
				"y": -1.0056618258,
				"z": -0.3015460751,
				"element": "C" 
			},
			{
				"x": 2.3603454462,
				"y": -1.0482192678,
				"z": -1.6905723976,
				"element": "C" 
			},
			{
				"x": 3.6040445062,
				"y": -1.0190568769,
				"z": -2.3017136607,
				"element": "O" 
			},
			{
				"x": 3.8878252472,
				"y": -0.0646828001,
				"z": -3.2564926437,
				"element": "C" 
			},
			{
				"x": 3.2160878431,
				"y": 1.1578700337,
				"z": -3.3522226136,
				"element": "C" 
			},
			{
				"x": 3.6108386839,
				"y": 2.0777904859,
				"z": -4.3260408934,
				"element": "C" 
			},
			{
				"x": 4.6655897682,
				"y": 1.7929229018,
				"z": -5.1939599512,
				"element": "C" 
			},
			{
				"x": 5.3328648062,
				"y": 0.569899437,
				"z": -5.0824202668,
				"element": "C" 
			},
			{
				"x": 4.9475714449,
				"y": -0.3607009889,
				"z": -4.120080826,
				"element": "C" 
			},
			{
				"x": 1.1830769378,
				"y": -1.2156824587,
				"z": -2.4304652721,
				"element": "C" 
			},
			{
				"x": -0.0344735517,
				"y": -1.3278137593,
				"z": -1.7722961524,
				"element": "C" 
			},
			{
				"x": -2.9077481647,
				"y": 1.5847635726,
				"z": 5.6972374277,
				"element": "H" 
			},
			{
				"x": -1.9974383471,
				"y": 0.0908636759,
				"z": 4.0849874505,
				"element": "H" 
			},
			{
				"x": -3.6164036702,
				"y": 0.5841569738,
				"z": 3.6210967377,
				"element": "H" 
			},
			{
				"x": -4.3201615527,
				"y": -1.8458495531,
				"z": 3.5554621563,
				"element": "H" 
			},
			{
				"x": -2.683023134,
				"y": -2.3280018273,
				"z": 3.913037484,
				"element": "H" 
			},
			{
				"x": -3.5170761345,
				"y": -0.7249564663,
				"z": 1.4139682898,
				"element": "H" 
			},
			{
				"x": -3.2996755022,
				"y": -2.4675495046,
				"z": 1.4548278133,
				"element": "H" 
			},
			{
				"x": -0.8946877593,
				"y": -2.1772546505,
				"z": 2.0544897176,
				"element": "H" 
			},
			{
				"x": -1.0850331714,
				"y": -0.4135004563,
				"z": 1.9710024501,
				"element": "H" 
			},
			{
				"x": 1.071898784,
				"y": -1.1018100414,
				"z": 1.4484351559,
				"element": "H" 
			},
			{
				"x": 3.2333431691,
				"y": -0.8853790792,
				"z": 0.2554370573,
				"element": "H" 
			},
			{
				"x": 2.4013034224,
				"y": 1.3863191528,
				"z": -2.6745913878,
				"element": "H" 
			},
			{
				"x": 3.0880400192,
				"y": 3.0274756684,
				"z": -4.3986791152,
				"element": "H" 
			},
			{
				"x": 4.9653523052,
				"y": 2.5144075416,
				"z": -5.9477108633,
				"element": "H" 
			},
			{
				"x": 6.1562573181,
				"y": 0.3351126421,
				"z": -5.7510408663,
				"element": "H" 
			},
			{
				"x": 5.4514692403,
				"y": -1.3163623223,
				"z": -4.0190391285,
				"element": "H" 
			},
			{
				"x": 1.2290819132,
				"y": -1.2595279471,
				"z": -3.5136750294,
				"element": "H" 
			},
			{
				"x": -0.9588895043,
				"y": -1.4593237761,
				"z": -2.3250074535,
				"element": "H" 
			}
		],
		 "valence_orbital": [ 
			{
				"type": "occ",
				"energy": -0.27697,
				"method": "rhf"
			},
			{
				"type": "occ",
				"energy": -0.26031,
				"method": "rhf"
			},
			{
				"type": "occ",
				"energy": -0.25,
				"method": "rhf"
			},
			{
				"type": "occ",
				"energy": -0.23227,
				"method": "rhf"
			},
			{
				"type": "occ",
				"energy": -0.20944,
				"method": "rhf"
			},
			{
				"type": "unocc",
				"energy": -0.01279,
				"method": "rhf"
			},
			{
				"type": "unocc",
				"energy": 0.00119,
				"method": "rhf"
			},
			{
				"type": "unocc",
				"energy": 0.00415,
				"method": "rhf"
			},
			{
				"type": "unocc",
				"energy": 0.00525,
				"method": "rhf"
			},
			{
				"type": "unocc",
				"energy": 0.01764,
				"method": "rhf"
			}
		],
		"cosmo_sigma_profile": { 
			"-0.025": 0.0,
			"-0.024": 0.0,
			"-0.023": 0.0,
			"-0.022": 0.0,
			"-0.021": 0.0,
			"-0.02": 0.0,
			"-0.019": 0.316465326119,
			"-0.018": 1.08169842067,
			"-0.017": 1.36252149663,
			"-0.016": 0.836057423885,
			"-0.015": 1.2382137981,
			"-0.014": 0.856939197902,
			"-0.013": 0.928747578938,
			"-0.012": 1.28870945865,
			"-0.011": 1.22131269401,
			"-0.01": 1.39663601726,
			"-0.009": 1.29436535522,
			"-0.008": 1.94610978167,
			"-0.007": 5.74959883152,
			"-0.006": 18.9741478514,
			"-0.005": 27.2873068091,
			"-0.004": 33.5877184599,
			"-0.003": 30.2330625351,
			"-0.002": 22.9786433469,
			"-0.001": 22.1388719295,
			"0.0": 20.1341574444,
			"0.001": 16.9319287945,
			"0.002": 18.0601600645,
			"0.003": 23.1259741637,
			"0.004": 26.3096571765,
			"0.005": 21.0497310416,
			"0.006": 11.0099540684,
			"0.007": 4.35281081979,
			"0.008": 6.34829958031,
			"0.009": 6.11618817204,
			"0.01": 5.62101204225,
			"0.011": 5.81025431239,
			"0.012": 5.62001718649,
			"0.013": 2.41142685113,
			"0.014": 0.145137256578,
			"0.015": 0.0,
			"0.016": 0.0,
			"0.017": 0.0,
			"0.018": 0.0,
			"0.019": 0.0,
			"0.02": 0.0,
			"0.021": 0.0,
			"0.022": 0.0,
			"0.023": 0.0,
			"0.024": 0.0,
			"0.025": 0.0
		}
	}
}
