{
	 "smiles": "O=C1OC2(CC3=CC=CC=C23)CC2=CC=CC=C12", 
	 "Tm": 361.15, 
	 "num_atms": 30, 
	 "gaussian": { 
		 "optdone": 1, 
		 "sigma_profile": "yes", 
		 "theory": "DFT", 
		 "functional": "B3LYP", 
		 "basiset": "6-31G**", 
		 "properties": { 
			 "R2extent": 5259.2626, 
			 "electric_dipole_moment_norm": 4.69861931848, 
			 "electric_quadrupole_moment_norm": 22.8333267263, 
			 "total_energy": -767.363448564, 
			 "HOMO_LUMO_gap": 0.19662, 
			 "cosmo_polarized_energy": -12.55, 
			 "cosmo_cavitation_energy": 33.6, 
			 "cosmo_dispersion_energy": -24.1, 
			 "cosmo_repulsion_energy": 1.84, 
			 "cosmo_total_nonelectrostatic_energy": 11.34, 
			 "SMD_solvation_energy": 5.9 
		},
		"coords": [
			{
				"x": 1.1897697622,
				"y": -3.2696564796,
				"z": -2.4710493199,
				"element": "O" 
			},
			{
				"x": 1.0128024399,
				"y": -2.3765220227,
				"z": -1.6726329286,
				"element": "C" 
			},
			{
				"x": -0.1707051855,
				"y": -2.318766873,
				"z": -0.9948769671,
				"element": "O" 
			},
			{
				"x": -0.5217548431,
				"y": -1.1319988773,
				"z": -0.2514500893,
				"element": "C" 
			},
			{
				"x": -1.1996679473,
				"y": 0.0004638703,
				"z": -1.1368302336,
				"element": "C" 
			},
			{
				"x": -2.4477747293,
				"y": -0.2461319782,
				"z": -0.3020780287,
				"element": "C" 
			},
			{
				"x": -3.7547570905,
				"y": 0.1684839522,
				"z": -0.0837510828,
				"element": "C" 
			},
			{
				"x": -4.4624066756,
				"y": -0.5322008644,
				"z": 0.9054924716,
				"element": "C" 
			},
			{
				"x": -3.8812736211,
				"y": -1.5846063672,
				"z": 1.6305642632,
				"element": "C" 
			},
			{
				"x": -2.5558527189,
				"y": -1.9871861352,
				"z": 1.4089501598,
				"element": "C" 
			},
			{
				"x": -1.8714614604,
				"y": -1.2811750316,
				"z": 0.4294862001,
				"element": "C" 
			},
			{
				"x": 0.6514579959,
				"y": -0.6892770411,
				"z": 0.6178113229,
				"element": "C" 
			},
			{
				"x": 1.8816188048,
				"y": -0.5040768892,
				"z": -0.2348099741,
				"element": "C" 
			},
			{
				"x": 2.8725019399,
				"y": 0.4400587729,
				"z": 0.0473657332,
				"element": "C" 
			},
			{
				"x": 3.9956097387,
				"y": 0.5502727102,
				"z": -0.7735823869,
				"element": "C" 
			},
			{
				"x": 4.1433601841,
				"y": -0.2842704696,
				"z": -1.886413255,
				"element": "C" 
			},
			{
				"x": 3.1636913889,
				"y": -1.2294430402,
				"z": -2.1751664102,
				"element": "C" 
			},
			{
				"x": 2.0328276557,
				"y": -1.3361534505,
				"z": -1.3560053317,
				"element": "C" 
			},
			{
				"x": -1.2826983646,
				"y": -0.2825322901,
				"z": -2.1903369772,
				"element": "H" 
			},
			{
				"x": -0.7390310459,
				"y": 0.9918218371,
				"z": -1.0657601766,
				"element": "H" 
			},
			{
				"x": -4.2233720101,
				"y": 0.9759452754,
				"z": -0.639113038,
				"element": "H" 
			},
			{
				"x": -5.4925928985,
				"y": -0.2582382906,
				"z": 1.1164346552,
				"element": "H" 
			},
			{
				"x": -4.4769610335,
				"y": -2.0973512656,
				"z": 2.3805448435,
				"element": "H" 
			},
			{
				"x": -2.1151358467,
				"y": -2.8045324934,
				"z": 1.9720208173,
				"element": "H" 
			},
			{
				"x": 0.3924012049,
				"y": 0.2316801392,
				"z": 1.1491946135,
				"element": "H" 
			},
			{
				"x": 0.8307978548,
				"y": -1.4591065653,
				"z": 1.3814662717,
				"element": "H" 
			},
			{
				"x": 2.7635342375,
				"y": 1.0908025764,
				"z": 0.9111822611,
				"element": "H" 
			},
			{
				"x": 4.7571904109,
				"y": 1.2909209631,
				"z": -0.5463084064,
				"element": "H" 
			},
			{
				"x": 5.0195602708,
				"y": -0.1959403109,
				"z": -2.5215181201,
				"element": "H" 
			},
			{
				"x": 3.250621582,
				"y": -1.8977833611,
				"z": -3.0252308866,
				"element": "H" 
			}
		],
		 "valence_orbital": [ 
			{
				"type": "occ",
				"energy": -0.26842,
				"method": "rhf"
			},
			{
				"type": "occ",
				"energy": -0.26167,
				"method": "rhf"
			},
			{
				"type": "occ",
				"energy": -0.25773,
				"method": "rhf"
			},
			{
				"type": "occ",
				"energy": -0.25567,
				"method": "rhf"
			},
			{
				"type": "occ",
				"energy": -0.2457,
				"method": "rhf"
			},
			{
				"type": "unocc",
				"energy": -0.04908,
				"method": "rhf"
			},
			{
				"type": "unocc",
				"energy": -0.01911,
				"method": "rhf"
			},
			{
				"type": "unocc",
				"energy": -0.01048,
				"method": "rhf"
			},
			{
				"type": "unocc",
				"energy": -0.00388,
				"method": "rhf"
			},
			{
				"type": "unocc",
				"energy": 0.05505,
				"method": "rhf"
			}
		],
		"cosmo_sigma_profile": { 
			"-0.025": 0.0,
			"-0.024": 0.0,
			"-0.023": 0.0,
			"-0.022": 0.0,
			"-0.021": 0.0,
			"-0.02": 0.0,
			"-0.019": 0.0,
			"-0.018": 0.0,
			"-0.017": 0.0,
			"-0.016": 0.0,
			"-0.015": 0.0,
			"-0.014": 0.0,
			"-0.013": 0.0,
			"-0.012": 0.0,
			"-0.011": 0.0,
			"-0.01": 0.0,
			"-0.009": 0.0,
			"-0.008": 0.0,
			"-0.007": 2.13886796279,
			"-0.006": 19.4411350769,
			"-0.005": 29.4556083813,
			"-0.004": 27.2119626907,
			"-0.003": 22.7143661697,
			"-0.002": 20.5811700347,
			"-0.001": 20.4543022875,
			"0.0": 15.3639298785,
			"0.001": 15.8676802461,
			"0.002": 17.741213467,
			"0.003": 18.8607267003,
			"0.004": 18.8328040145,
			"0.005": 12.1418641929,
			"0.006": 4.26826150118,
			"0.007": 3.16867334803,
			"0.008": 2.08750725765,
			"0.009": 2.50012828537,
			"0.01": 3.56549665854,
			"0.011": 4.21165800205,
			"0.012": 5.83181441722,
			"0.013": 2.21184360318,
			"0.014": 0.374027716861,
			"0.015": 0.0,
			"0.016": 0.0,
			"0.017": 0.0,
			"0.018": 0.0,
			"0.019": 0.0,
			"0.02": 0.0,
			"0.021": 0.0,
			"0.022": 0.0,
			"0.023": 0.0,
			"0.024": 0.0,
			"0.025": 0.0
		}
	}
}
