{
	 "smiles": "CN1N=C(Cl)C=C1C", 
	 "Tm": 320.65, 
	 "num_atms": 15, 
	 "gaussian": { 
		 "optdone": 1, 
		 "sigma_profile": "yes", 
		 "theory": "DFT", 
		 "functional": "B3LYP", 
		 "basiset": "6-31G**", 
		 "properties": { 
			 "R2extent": 1961.6947, 
			 "electric_dipole_moment_norm": 4.51566681012, 
			 "electric_quadrupole_moment_norm": 6.21070559518, 
			 "total_energy": -764.428047879, 
			 "HOMO_LUMO_gap": 0.2497, 
			 "cosmo_polarized_energy": -8.48, 
			 "cosmo_cavitation_energy": 20.53, 
			 "cosmo_dispersion_energy": -15.36, 
			 "cosmo_repulsion_energy": 1.29, 
			 "cosmo_total_nonelectrostatic_energy": 6.45, 
			 "SMD_solvation_energy": 2.59 
		},
		"coords": [
			{
				"x": -0.7832836672,
				"y": 1.1416086161,
				"z": -0.2109827565,
				"element": "C" 
			},
			{
				"x": -0.8028105705,
				"y": -0.2969703854,
				"z": -0.0227733328,
				"element": "N" 
			},
			{
				"x": -0.4777872756,
				"y": -0.8100303511,
				"z": 1.1912606048,
				"element": "N" 
			},
			{
				"x": -0.5943025188,
				"y": -2.1184511188,
				"z": 1.0212806475,
				"element": "C" 
			},
			{
				"x": -0.2696255272,
				"y": -3.2054619824,
				"z": 2.3359409864,
				"element": "Cl" 
			},
			{
				"x": -0.9901914758,
				"y": -2.4736907668,
				"z": -0.2831759503,
				"element": "C" 
			},
			{
				"x": -1.1174878158,
				"y": -1.2594521069,
				"z": -0.9387378607,
				"element": "C" 
			},
			{
				"x": -1.5086103948,
				"y": -0.9417001331,
				"z": -2.3466227696,
				"element": "C" 
			},
			{
				"x": -1.7738404898,
				"y": 1.5155367956,
				"z": -0.489877262,
				"element": "H" 
			},
			{
				"x": -0.4854943725,
				"y": 1.5845045893,
				"z": 0.7382562193,
				"element": "H" 
			},
			{
				"x": -0.0638584631,
				"y": 1.4274841181,
				"z": -0.9852639322,
				"element": "H" 
			},
			{
				"x": -1.1568324667,
				"y": -3.4616012226,
				"z": -0.6833025121,
				"element": "H" 
			},
			{
				"x": -0.7144677168,
				"y": -0.406547037,
				"z": -2.8807729897,
				"element": "H" 
			},
			{
				"x": -2.4105094481,
				"y": -0.3195571622,
				"z": -2.3900138012,
				"element": "H" 
			},
			{
				"x": -1.7138977972,
				"y": -1.8647718529,
				"z": -2.8924152908,
				"element": "H" 
			}
		],
		 "valence_orbital": [ 
			{
				"type": "occ",
				"energy": -0.33312,
				"method": "rhf"
			},
			{
				"type": "occ",
				"energy": -0.30737,
				"method": "rhf"
			},
			{
				"type": "occ",
				"energy": -0.29419,
				"method": "rhf"
			},
			{
				"type": "occ",
				"energy": -0.24527,
				"method": "rhf"
			},
			{
				"type": "occ",
				"energy": -0.23506,
				"method": "rhf"
			},
			{
				"type": "unocc",
				"energy": 0.01464,
				"method": "rhf"
			},
			{
				"type": "unocc",
				"energy": 0.04974,
				"method": "rhf"
			},
			{
				"type": "unocc",
				"energy": 0.06789,
				"method": "rhf"
			},
			{
				"type": "unocc",
				"energy": 0.07734,
				"method": "rhf"
			},
			{
				"type": "unocc",
				"energy": 0.11779,
				"method": "rhf"
			}
		],
		"cosmo_sigma_profile": { 
			"-0.025": 0.0,
			"-0.024": 0.0,
			"-0.023": 0.0,
			"-0.022": 0.0,
			"-0.021": 0.0,
			"-0.02": 0.0,
			"-0.019": 0.0,
			"-0.018": 0.0,
			"-0.017": 0.0,
			"-0.016": 0.0,
			"-0.015": 0.0,
			"-0.014": 0.0,
			"-0.013": 0.0,
			"-0.012": 0.0,
			"-0.011": 0.0,
			"-0.01": 0.0,
			"-0.009": 0.0,
			"-0.008": 0.261582975962,
			"-0.007": 2.70236939318,
			"-0.006": 13.2138846343,
			"-0.005": 15.8715250274,
			"-0.004": 14.9408311191,
			"-0.003": 15.6529739722,
			"-0.002": 12.7998947381,
			"-0.001": 11.0947932903,
			"0.0": 7.37435810817,
			"0.001": 6.59519237945,
			"0.002": 10.6504986125,
			"0.003": 11.833633579,
			"0.004": 15.7639721184,
			"0.005": 12.5739555011,
			"0.006": 2.74265528517,
			"0.007": 2.54708457768,
			"0.008": 1.58102559323,
			"0.009": 1.43201449622,
			"0.01": 1.14484129848,
			"0.011": 0.839815305098,
			"0.012": 1.2334223944,
			"0.013": 1.30757036612,
			"0.014": 0.676092449395,
			"0.015": 0.647408361992,
			"0.016": 0.0,
			"0.017": 0.0,
			"0.018": 0.0,
			"0.019": 0.0,
			"0.02": 0.0,
			"0.021": 0.0,
			"0.022": 0.0,
			"0.023": 0.0,
			"0.024": 0.0,
			"0.025": 0.0
		}
	}
}
