{
	 "smiles": "OCC1=C(Cl)C2=C(S1)C=CC=C2", 
	 "Tm": 364.15, 
	 "num_atms": 19, 
	 "gaussian": { 
		 "optdone": 1, 
		 "sigma_profile": "yes", 
		 "theory": "DFT", 
		 "functional": "B3LYP", 
		 "basiset": "6-31G**", 
		 "properties": { 
			 "R2extent": 2972.4604, 
			 "electric_dipole_moment_norm": 1.48964141994, 
			 "electric_quadrupole_moment_norm": 6.72832060027, 
			 "total_energy": -1280.77040528, 
			 "HOMO_LUMO_gap": 0.18428, 
			 "cosmo_polarized_energy": -7.91, 
			 "cosmo_cavitation_energy": 26.08, 
			 "cosmo_dispersion_energy": -19.99, 
			 "cosmo_repulsion_energy": 1.54, 
			 "cosmo_total_nonelectrostatic_energy": 7.63, 
			 "SMD_solvation_energy": 3.66 
		},
		"coords": [
			{
				"x": -2.5745007456,
				"y": 2.1543453912,
				"z": 1.4726074867,
				"element": "O" 
			},
			{
				"x": -2.0531685068,
				"y": 1.0191629902,
				"z": 2.1467740235,
				"element": "C" 
			},
			{
				"x": -1.1605254703,
				"y": 0.1823558623,
				"z": 1.2722589644,
				"element": "C" 
			},
			{
				"x": -0.0877599349,
				"y": -0.5848200077,
				"z": 1.6093295978,
				"element": "C" 
			},
			{
				"x": 0.5154254866,
				"y": -0.7251084745,
				"z": 3.2460406644,
				"element": "Cl" 
			},
			{
				"x": 0.5249210028,
				"y": -1.2925652823,
				"z": 0.512468604,
				"element": "C" 
			},
			{
				"x": -0.1483087596,
				"y": -1.0111247939,
				"z": -0.6995516671,
				"element": "C" 
			},
			{
				"x": -1.4931325284,
				"y": 0.0937880877,
				"z": -0.4558188098,
				"element": "S" 
			},
			{
				"x": 0.2704478778,
				"y": -1.5732316787,
				"z": -1.9097730997,
				"element": "C" 
			},
			{
				"x": 1.367511623,
				"y": -2.4279266501,
				"z": -1.897727321,
				"element": "C" 
			},
			{
				"x": 2.0429932766,
				"y": -2.7177248924,
				"z": -0.6981385999,
				"element": "C" 
			},
			{
				"x": 1.6319340346,
				"y": -2.1577279863,
				"z": 0.5036786502,
				"element": "C" 
			},
			{
				"x": -1.8296117837,
				"y": 2.715176755,
				"z": 1.216902692,
				"element": "H" 
			},
			{
				"x": -2.9295703802,
				"y": 0.4371552484,
				"z": 2.4549474494,
				"element": "H" 
			},
			{
				"x": -1.5053251604,
				"y": 1.2890463747,
				"z": 3.0604321332,
				"element": "H" 
			},
			{
				"x": -0.2508851841,
				"y": -1.3500932522,
				"z": -2.8356241462,
				"element": "H" 
			},
			{
				"x": 1.705187568,
				"y": -2.8771346797,
				"z": -2.8268494242,
				"element": "H" 
			},
			{
				"x": 2.8966694657,
				"y": -3.3884775844,
				"z": -0.7137276222,
				"element": "H" 
			},
			{
				"x": 2.1507981188,
				"y": -2.3790954271,
				"z": 1.4307704245,
				"element": "H" 
			}
		],
		 "valence_orbital": [ 
			{
				"type": "occ",
				"energy": -0.32135,
				"method": "rhf"
			},
			{
				"type": "occ",
				"energy": -0.28869,
				"method": "rhf"
			},
			{
				"type": "occ",
				"energy": -0.27989,
				"method": "rhf"
			},
			{
				"type": "occ",
				"energy": -0.24121,
				"method": "rhf"
			},
			{
				"type": "occ",
				"energy": -0.22156,
				"method": "rhf"
			},
			{
				"type": "unocc",
				"energy": -0.03728,
				"method": "rhf"
			},
			{
				"type": "unocc",
				"energy": -0.00878,
				"method": "rhf"
			},
			{
				"type": "unocc",
				"energy": 0.0038,
				"method": "rhf"
			},
			{
				"type": "unocc",
				"energy": 0.03549,
				"method": "rhf"
			},
			{
				"type": "unocc",
				"energy": 0.04419,
				"method": "rhf"
			}
		],
		"cosmo_sigma_profile": { 
			"-0.025": 0.0,
			"-0.024": 0.0,
			"-0.023": 0.0,
			"-0.022": 0.0,
			"-0.021": 0.0,
			"-0.02": 0.0,
			"-0.019": 0.0,
			"-0.018": 0.0,
			"-0.017": 0.0,
			"-0.016": 0.714777202193,
			"-0.015": 1.02189326307,
			"-0.014": 0.90883271657,
			"-0.013": 0.976181782503,
			"-0.012": 1.01539393279,
			"-0.011": 0.661366005818,
			"-0.01": 1.01587113911,
			"-0.009": 1.16354382079,
			"-0.008": 0.903823683109,
			"-0.007": 4.34270628635,
			"-0.006": 11.0871770911,
			"-0.005": 13.0286373445,
			"-0.004": 14.59957562,
			"-0.003": 12.528831978,
			"-0.002": 11.9964674207,
			"-0.001": 11.0537029244,
			"0.0": 13.1375897017,
			"0.001": 21.3914243608,
			"0.002": 25.4866442718,
			"0.003": 22.7483230271,
			"0.004": 21.3046338257,
			"0.005": 11.0763073472,
			"0.006": 1.07459437351,
			"0.007": 0.921013601069,
			"0.008": 1.21072609301,
			"0.009": 1.70981016229,
			"0.01": 1.15059977152,
			"0.011": 0.939481507577,
			"0.012": 1.54625324722,
			"0.013": 2.00952250999,
			"0.014": 0.306106224483,
			"0.015": 0.0,
			"0.016": 0.0,
			"0.017": 0.0,
			"0.018": 0.0,
			"0.019": 0.0,
			"0.02": 0.0,
			"0.021": 0.0,
			"0.022": 0.0,
			"0.023": 0.0,
			"0.024": 0.0,
			"0.025": 0.0
		}
	}
}
