{
	 "smiles": "CC1=CC=C(C)N1C1=C(C(O)=O)C(C)=C(C)S1", 
	 "Tm": 445.15, 
	 "num_atms": 32, 
	 "gaussian": { 
		 "optdone": 1, 
		 "sigma_profile": "yes", 
		 "theory": "DFT", 
		 "functional": "B3LYP", 
		 "basiset": "6-31G**", 
		 "properties": { 
			 "R2extent": 4250.6831, 
			 "electric_dipole_moment_norm": 1.65285416477, 
			 "electric_quadrupole_moment_norm": 13.018442542, 
			 "total_energy": -1107.8204416, 
			 "HOMO_LUMO_gap": 0.14, 
			 "cosmo_polarized_energy": -10.67, 
			 "cosmo_cavitation_energy": 36.62, 
			 "cosmo_dispersion_energy": -24.94, 
			 "cosmo_repulsion_energy": 1.92, 
			 "cosmo_total_nonelectrostatic_energy": 13.59, 
			 "SMD_solvation_energy": 7.35 
		},
		"coords": [
			{
				"x": -0.3273066982,
				"y": -2.1890483189,
				"z": 1.7706778329,
				"element": "C" 
			},
			{
				"x": -1.3690121102,
				"y": -2.0263530465,
				"z": 0.7128872668,
				"element": "C" 
			},
			{
				"x": -2.6050730662,
				"y": -2.6079883664,
				"z": 0.5727185162,
				"element": "C" 
			},
			{
				"x": -3.2135390772,
				"y": -2.0834707663,
				"z": -0.6073913019,
				"element": "C" 
			},
			{
				"x": -2.3432411221,
				"y": -1.1865066069,
				"z": -1.1764226132,
				"element": "C" 
			},
			{
				"x": -2.4770793593,
				"y": -0.3349516887,
				"z": -2.3959644802,
				"element": "C" 
			},
			{
				"x": -1.2037827164,
				"y": -1.1516421052,
				"z": -0.3660874658,
				"element": "N" 
			},
			{
				"x": -0.0626054849,
				"y": -0.371390595,
				"z": -0.6073822889,
				"element": "C" 
			},
			{
				"x": 0.2443727993,
				"y": 0.9150087185,
				"z": -0.1982955501,
				"element": "C" 
			},
			{
				"x": -0.6312812628,
				"y": 1.7768359915,
				"z": 0.6299049554,
				"element": "C" 
			},
			{
				"x": -1.8142173522,
				"y": 1.20594842,
				"z": 0.9542758006,
				"element": "O" 
			},
			{
				"x": -0.3440861988,
				"y": 2.900623583,
				"z": 1.001443961,
				"element": "O" 
			},
			{
				"x": 1.540612776,
				"y": 1.3623412144,
				"z": -0.6628187187,
				"element": "C" 
			},
			{
				"x": 2.1387279574,
				"y": 2.7139835071,
				"z": -0.3736483909,
				"element": "C" 
			},
			{
				"x": 2.1854108948,
				"y": 0.4082715599,
				"z": -1.4117748113,
				"element": "C" 
			},
			{
				"x": 3.5377915928,
				"y": 0.4878426908,
				"z": -2.0668508749,
				"element": "C" 
			},
			{
				"x": 1.2314757953,
				"y": -1.0414000288,
				"z": -1.5619690838,
				"element": "S" 
			},
			{
				"x": -0.1378770482,
				"y": -1.2520995935,
				"z": 2.3088075179,
				"element": "H" 
			},
			{
				"x": -0.6653957188,
				"y": -2.9299063766,
				"z": 2.4992800309,
				"element": "H" 
			},
			{
				"x": 0.6334076611,
				"y": -2.531291123,
				"z": 1.3668072943,
				"element": "H" 
			},
			{
				"x": -3.0286450753,
				"y": -3.3352020519,
				"z": 1.2522242392,
				"element": "H" 
			},
			{
				"x": -4.1899259448,
				"y": -2.3340302479,
				"z": -0.9996499903,
				"element": "H" 
			},
			{
				"x": -1.6859497396,
				"y": -0.5252015344,
				"z": -3.1315723729,
				"element": "H" 
			},
			{
				"x": -3.4361629826,
				"y": -0.5415322036,
				"z": -2.8771380031,
				"element": "H" 
			},
			{
				"x": -2.4464161591,
				"y": 0.7347169964,
				"z": -2.1548808054,
				"element": "H" 
			},
			{
				"x": -2.2824566454,
				"y": 1.8671706185,
				"z": 1.4908830922,
				"element": "H" 
			},
			{
				"x": 3.1205278313,
				"y": 2.8104167803,
				"z": -0.8430910787,
				"element": "H" 
			},
			{
				"x": 2.2483838935,
				"y": 2.8786792058,
				"z": 0.7017267909,
				"element": "H" 
			},
			{
				"x": 1.4965187771,
				"y": 3.5198840443,
				"z": -0.7391853975,
				"element": "H" 
			},
			{
				"x": 4.3296453399,
				"y": 0.6554543914,
				"z": -1.3285119499,
				"element": "H" 
			},
			{
				"x": 3.7771346717,
				"y": -0.4356278207,
				"z": -2.6004598574,
				"element": "H" 
			},
			{
				"x": 3.5819437718,
				"y": 1.3074647524,
				"z": -2.7924422634,
				"element": "H" 
			}
		],
		 "valence_orbital": [ 
			{
				"type": "occ",
				"energy": -0.27622,
				"method": "rhf"
			},
			{
				"type": "occ",
				"energy": -0.25986,
				"method": "rhf"
			},
			{
				"type": "occ",
				"energy": -0.23315,
				"method": "rhf"
			},
			{
				"type": "occ",
				"energy": -0.22942,
				"method": "rhf"
			},
			{
				"type": "occ",
				"energy": -0.18886,
				"method": "rhf"
			},
			{
				"type": "unocc",
				"energy": -0.04886,
				"method": "rhf"
			},
			{
				"type": "unocc",
				"energy": 0.00783,
				"method": "rhf"
			},
			{
				"type": "unocc",
				"energy": 0.01105,
				"method": "rhf"
			},
			{
				"type": "unocc",
				"energy": 0.0397,
				"method": "rhf"
			},
			{
				"type": "unocc",
				"energy": 0.08105,
				"method": "rhf"
			}
		],
		"cosmo_sigma_profile": { 
			"-0.025": 0.0,
			"-0.024": 0.0,
			"-0.023": 0.0,
			"-0.022": 0.0,
			"-0.021": 0.0,
			"-0.02": 0.0,
			"-0.019": 0.0,
			"-0.018": 0.475518799141,
			"-0.017": 0.94611672759,
			"-0.016": 0.946534687492,
			"-0.015": 0.779226457646,
			"-0.014": 1.2732644048,
			"-0.013": 0.190009059326,
			"-0.012": 0.0823231283641,
			"-0.011": 0.699441265133,
			"-0.01": 1.17298255381,
			"-0.009": 0.833492946773,
			"-0.008": 0.377087149067,
			"-0.007": 0.541402201734,
			"-0.006": 2.81986955204,
			"-0.005": 10.490743487,
			"-0.004": 21.5601731525,
			"-0.003": 27.7346265949,
			"-0.002": 36.2203222343,
			"-0.001": 41.6377376562,
			"0.0": 37.4667486896,
			"0.001": 24.9132395473,
			"0.002": 18.8103749912,
			"0.003": 13.5871506694,
			"0.004": 6.78103354483,
			"0.005": 6.60312235149,
			"0.006": 6.5887248063,
			"0.007": 5.5942202657,
			"0.008": 5.81532386804,
			"0.009": 5.47848894501,
			"0.01": 3.78504257543,
			"0.011": 3.58281254574,
			"0.012": 3.45350293573,
			"0.013": 0.172427747569,
			"0.014": 0.0,
			"0.015": 0.0,
			"0.016": 0.0,
			"0.017": 0.0,
			"0.018": 0.0,
			"0.019": 0.0,
			"0.02": 0.0,
			"0.021": 0.0,
			"0.022": 0.0,
			"0.023": 0.0,
			"0.024": 0.0,
			"0.025": 0.0
		}
	}
}
