{
	 "smiles": "CCOC(=O)N1CCC(CC1)NC(N)=S", 
	 "Tm": 434.15, 
	 "num_atms": 32, 
	 "gaussian": { 
		 "optdone": 1, 
		 "sigma_profile": "yes", 
		 "theory": "DFT", 
		 "functional": "B3LYP", 
		 "basiset": "6-31G**", 
		 "properties": { 
			 "R2extent": 5805.6453, 
			 "electric_dipole_moment_norm": 4.88072139545, 
			 "electric_quadrupole_moment_norm": 35.213597445, 
			 "total_energy": -1066.13662145, 
			 "HOMO_LUMO_gap": 0.204, 
			 "cosmo_polarized_energy": -25.71, 
			 "cosmo_cavitation_energy": 35.68, 
			 "cosmo_dispersion_energy": -25.88, 
			 "cosmo_repulsion_energy": 2.05, 
			 "cosmo_total_nonelectrostatic_energy": 11.85, 
			 "SMD_solvation_energy": 5.1 
		},
		"coords": [
			{
				"x": -3.2300620671,
				"y": -1.0514159261,
				"z": -3.1595100494,
				"element": "C" 
			},
			{
				"x": -3.2538096264,
				"y": 0.0286813446,
				"z": -2.0941155964,
				"element": "C" 
			},
			{
				"x": -1.9449452908,
				"y": 0.0643849519,
				"z": -1.4894873831,
				"element": "O" 
			},
			{
				"x": -1.7875618543,
				"y": 0.9954757831,
				"z": -0.5110250633,
				"element": "C" 
			},
			{
				"x": -2.664283315,
				"y": 1.7741576609,
				"z": -0.1669871093,
				"element": "O" 
			},
			{
				"x": -0.5297251088,
				"y": 0.9328052354,
				"z": 0.0235459084,
				"element": "N" 
			},
			{
				"x": -0.1427598185,
				"y": 1.8997483365,
				"z": 1.043377827,
				"element": "C" 
			},
			{
				"x": 0.3715611821,
				"y": 1.1939057528,
				"z": 2.3143247418,
				"element": "C" 
			},
			{
				"x": 1.1320403207,
				"y": -0.1093804355,
				"z": 1.9699367982,
				"element": "C" 
			},
			{
				"x": 1.6681602807,
				"y": -0.0634638648,
				"z": 0.5298293609,
				"element": "C" 
			},
			{
				"x": 0.4944670857,
				"y": -0.0054516723,
				"z": -0.4592857542,
				"element": "C" 
			},
			{
				"x": 2.1828492272,
				"y": -0.3544242867,
				"z": 2.9555120869,
				"element": "N" 
			},
			{
				"x": 2.6281091893,
				"y": -1.5787602136,
				"z": 3.3360462064,
				"element": "C" 
			},
			{
				"x": 3.6066428185,
				"y": -1.557076657,
				"z": 4.2941569095,
				"element": "N" 
			},
			{
				"x": 2.0292312467,
				"y": -3.0370899011,
				"z": 2.7429554244,
				"element": "S" 
			},
			{
				"x": -3.0005700182,
				"y": -2.02759834,
				"z": -2.7224417639,
				"element": "H" 
			},
			{
				"x": -2.4784635402,
				"y": -0.8313250004,
				"z": -3.9233317429,
				"element": "H" 
			},
			{
				"x": -4.2081001287,
				"y": -1.1137937517,
				"z": -3.6468455924,
				"element": "H" 
			},
			{
				"x": -4.0002104159,
				"y": -0.1770217052,
				"z": -1.320242011,
				"element": "H" 
			},
			{
				"x": -3.4805380476,
				"y": 1.013769924,
				"z": -2.5137946835,
				"element": "H" 
			},
			{
				"x": 0.6364738896,
				"y": 2.5628958807,
				"z": 0.6419389589,
				"element": "H" 
			},
			{
				"x": -1.0167555364,
				"y": 2.5143622615,
				"z": 1.2564257755,
				"element": "H" 
			},
			{
				"x": -0.4577188534,
				"y": 0.9656256357,
				"z": 2.9907976702,
				"element": "H" 
			},
			{
				"x": 1.0310781436,
				"y": 1.8932345782,
				"z": 2.8470852064,
				"element": "H" 
			},
			{
				"x": 0.4499937245,
				"y": -0.961989966,
				"z": 2.0383604049,
				"element": "H" 
			},
			{
				"x": 2.333651949,
				"y": 0.8002805354,
				"z": 0.4055078926,
				"element": "H" 
			},
			{
				"x": 2.2569289244,
				"y": -0.9627408322,
				"z": 0.3309481525,
				"element": "H" 
			},
			{
				"x": 0.0422704543,
				"y": -0.9967057163,
				"z": -0.5509666298,
				"element": "H" 
			},
			{
				"x": 0.848041845,
				"y": 0.2815923386,
				"z": -1.4587501366,
				"element": "H" 
			},
			{
				"x": 2.5750153184,
				"y": 0.4585021735,
				"z": 3.4119490944,
				"element": "H" 
			},
			{
				"x": 4.1774556399,
				"y": -0.7332631807,
				"z": 4.42776443,
				"element": "H" 
			},
			{
				"x": 4.0460323815,
				"y": -2.4449209431,
				"z": 4.4815206672,
				"element": "H" 
			}
		],
		 "valence_orbital": [ 
			{
				"type": "occ",
				"energy": -0.26948,
				"method": "rhf"
			},
			{
				"type": "occ",
				"energy": -0.26167,
				"method": "rhf"
			},
			{
				"type": "occ",
				"energy": -0.23322,
				"method": "rhf"
			},
			{
				"type": "occ",
				"energy": -0.21457,
				"method": "rhf"
			},
			{
				"type": "occ",
				"energy": -0.2038,
				"method": "rhf"
			},
			{
				"type": "unocc",
				"energy": 0.0002,
				"method": "rhf"
			},
			{
				"type": "unocc",
				"energy": 0.0468,
				"method": "rhf"
			},
			{
				"type": "unocc",
				"energy": 0.05564,
				"method": "rhf"
			},
			{
				"type": "unocc",
				"energy": 0.07718,
				"method": "rhf"
			},
			{
				"type": "unocc",
				"energy": 0.0879,
				"method": "rhf"
			}
		],
		"cosmo_sigma_profile": { 
			"-0.025": 0.0,
			"-0.024": 0.0,
			"-0.023": 0.0,
			"-0.022": 0.0,
			"-0.021": 0.0,
			"-0.02": 0.0,
			"-0.019": 0.0,
			"-0.018": 0.296379370557,
			"-0.017": 1.05216926802,
			"-0.016": 1.58483492553,
			"-0.015": 2.17295744693,
			"-0.014": 2.98217938655,
			"-0.013": 3.32447567184,
			"-0.012": 2.42419513344,
			"-0.011": 3.40299085596,
			"-0.01": 2.41271843899,
			"-0.009": 2.90932268848,
			"-0.008": 2.6042158457,
			"-0.007": 2.32207377438,
			"-0.006": 2.60439935407,
			"-0.005": 10.4720337505,
			"-0.004": 28.0826573989,
			"-0.003": 34.7407450405,
			"-0.002": 28.1573741699,
			"-0.001": 24.5287691487,
			"0.0": 21.5672438726,
			"0.001": 13.1398837385,
			"0.002": 8.71616498866,
			"0.003": 6.76090551388,
			"0.004": 8.30262239733,
			"0.005": 8.01308395891,
			"0.006": 7.94154281452,
			"0.007": 7.38130029057,
			"0.008": 6.33333921317,
			"0.009": 6.13687695487,
			"0.01": 6.72127938848,
			"0.011": 7.30570051844,
			"0.012": 7.51660836255,
			"0.013": 5.13522115611,
			"0.014": 3.66098255375,
			"0.015": 0.0146960166821,
			"0.016": 0.0,
			"0.017": 0.0,
			"0.018": 0.0,
			"0.019": 0.0,
			"0.02": 0.0,
			"0.021": 0.0,
			"0.022": 0.0,
			"0.023": 0.0,
			"0.024": 0.0,
			"0.025": 0.0
		}
	}
}
