{
	 "smiles": "COC1=CC2=C(C=C1)C=C(C=C2)C(=O)CBr", 
	 "Tm": 382.15, 
	 "num_atms": 27, 
	 "gaussian": { 
		 "optdone": 1, 
		 "sigma_profile": "yes", 
		 "theory": "DFT", 
		 "functional": "B3LYP", 
		 "basiset": "6-31G**", 
		 "properties": { 
			 "R2extent": 9430.9779, 
			 "electric_dipole_moment_norm": 5.95110393625, 
			 "electric_quadrupole_moment_norm": 19.8234038217, 
			 "total_energy": -3223.86355741, 
			 "HOMO_LUMO_gap": 0.1568, 
			 "cosmo_polarized_energy": -14.51, 
			 "cosmo_cavitation_energy": 33.56, 
			 "cosmo_dispersion_energy": -25.01, 
			 "cosmo_repulsion_energy": 1.92, 
			 "cosmo_total_nonelectrostatic_energy": 10.48, 
			 "SMD_solvation_energy": 5.48 
		},
		"coords": [
			{
				"x": -4.7856297474,
				"y": -0.6499435301,
				"z": 1.8044576183,
				"element": "C" 
			},
			{
				"x": -4.1539789074,
				"y": -1.3189497412,
				"z": 0.7215625741,
				"element": "O" 
			},
			{
				"x": -2.9888884813,
				"y": -0.8094214932,
				"z": 0.2418306427,
				"element": "C" 
			},
			{
				"x": -2.3548806406,
				"y": 0.3216170723,
				"z": 0.7231960191,
				"element": "C" 
			},
			{
				"x": -1.1371815498,
				"y": 0.7599283981,
				"z": 0.1402437188,
				"element": "C" 
			},
			{
				"x": -0.5691790893,
				"y": 0.0239795688,
				"z": -0.9491327666,
				"element": "C" 
			},
			{
				"x": -1.2524755399,
				"y": -1.1354185928,
				"z": -1.4163294661,
				"element": "C" 
			},
			{
				"x": -2.426851651,
				"y": -1.5434673239,
				"z": -0.8414435808,
				"element": "C" 
			},
			{
				"x": 0.6446778283,
				"y": 0.4660557511,
				"z": -1.5254811907,
				"element": "C" 
			},
			{
				"x": 1.2954065699,
				"y": 1.5978007236,
				"z": -1.0566129535,
				"element": "C" 
			},
			{
				"x": 0.7248553266,
				"y": 2.3246058968,
				"z": 0.0266266543,
				"element": "C" 
			},
			{
				"x": -0.451515345,
				"y": 1.9180043156,
				"z": 0.6042151737,
				"element": "C" 
			},
			{
				"x": 2.5783134967,
				"y": 2.1081547951,
				"z": -1.6283847554,
				"element": "C" 
			},
			{
				"x": 3.1169522187,
				"y": 3.106442826,
				"z": -1.1879588515,
				"element": "O" 
			},
			{
				"x": 3.1756376717,
				"y": 1.3102499861,
				"z": -2.793236356,
				"element": "C" 
			},
			{
				"x": 4.8488672309,
				"y": 2.05685251,
				"z": -3.4656492798,
				"element": "Br" 
			},
			{
				"x": -4.1426779487,
				"y": -0.6299297788,
				"z": 2.6932509292,
				"element": "H" 
			},
			{
				"x": -5.6890489614,
				"y": -1.2199426908,
				"z": 2.0245905495,
				"element": "H" 
			},
			{
				"x": -5.0605015762,
				"y": 0.3776072887,
				"z": 1.5355266209,
				"element": "H" 
			},
			{
				"x": -2.7684491795,
				"y": 0.8921197094,
				"z": 1.5466775737,
				"element": "H" 
			},
			{
				"x": -0.8276617,
				"y": -1.6991191547,
				"z": -2.2427927063,
				"element": "H" 
			},
			{
				"x": -2.9567614228,
				"y": -2.4244266727,
				"z": -1.187921049,
				"element": "H" 
			},
			{
				"x": 1.0514722664,
				"y": -0.1122486211,
				"z": -2.3502118295,
				"element": "H" 
			},
			{
				"x": 1.250761403,
				"y": 3.2060193567,
				"z": 0.3764399754,
				"element": "H" 
			},
			{
				"x": -0.8768977111,
				"y": 2.4813837685,
				"z": 1.430683961,
				"element": "H" 
			},
			{
				"x": 2.4823508132,
				"y": 1.2826553586,
				"z": -3.6356907389,
				"element": "H" 
			},
			{
				"x": 3.3891846259,
				"y": 0.2846902736,
				"z": -2.4870564865,
				"element": "H" 
			}
		],
		 "valence_orbital": [ 
			{
				"type": "occ",
				"energy": -0.27017,
				"method": "rhf"
			},
			{
				"type": "occ",
				"energy": -0.2697,
				"method": "rhf"
			},
			{
				"type": "occ",
				"energy": -0.25893,
				"method": "rhf"
			},
			{
				"type": "occ",
				"energy": -0.24324,
				"method": "rhf"
			},
			{
				"type": "occ",
				"energy": -0.22326,
				"method": "rhf"
			},
			{
				"type": "unocc",
				"energy": -0.06646,
				"method": "rhf"
			},
			{
				"type": "unocc",
				"energy": -0.03858,
				"method": "rhf"
			},
			{
				"type": "unocc",
				"energy": 0.00474,
				"method": "rhf"
			},
			{
				"type": "unocc",
				"energy": 0.01355,
				"method": "rhf"
			},
			{
				"type": "unocc",
				"energy": 0.02735,
				"method": "rhf"
			}
		],
		"cosmo_sigma_profile": { 
			"-0.025": 0.0,
			"-0.024": 0.0,
			"-0.023": 0.0,
			"-0.022": 0.0,
			"-0.021": 0.0,
			"-0.02": 0.0,
			"-0.019": 0.0,
			"-0.018": 0.0,
			"-0.017": 0.0,
			"-0.016": 0.0,
			"-0.015": 0.0,
			"-0.014": 0.0,
			"-0.013": 0.0,
			"-0.012": 0.0,
			"-0.011": 0.0,
			"-0.01": 0.166618594498,
			"-0.009": 7.03031044644,
			"-0.008": 7.42657606944,
			"-0.007": 9.71897572744,
			"-0.006": 18.2280658279,
			"-0.005": 20.075168772,
			"-0.004": 19.2244968775,
			"-0.003": 17.9963216165,
			"-0.002": 13.276710265,
			"-0.001": 11.895514861,
			"0.0": 13.2283348412,
			"0.001": 15.769799261,
			"0.002": 21.8824654194,
			"0.003": 33.3790849909,
			"0.004": 17.8392033613,
			"0.005": 11.7443485704,
			"0.006": 9.94139203422,
			"0.007": 3.46007796956,
			"0.008": 3.82527813041,
			"0.009": 3.64490871459,
			"0.01": 3.77067969422,
			"0.011": 3.96759821317,
			"0.012": 2.86459820224,
			"0.013": 1.24090531297,
			"0.014": 0.037520240676,
			"0.015": 0.0,
			"0.016": 0.0,
			"0.017": 0.0,
			"0.018": 0.0,
			"0.019": 0.0,
			"0.02": 0.0,
			"0.021": 0.0,
			"0.022": 0.0,
			"0.023": 0.0,
			"0.024": 0.0,
			"0.025": 0.0
		}
	}
}
