{
	 "smiles": "NNC1=NC=C(C=C1)S(=O)(=O)NC1CC1", 
	 "Tm": 469.15, 
	 "num_atms": 27, 
	 "gaussian": { 
		 "optdone": 1, 
		 "sigma_profile": "yes", 
		 "theory": "DFT", 
		 "functional": "B3LYP", 
		 "basiset": "6-31G**", 
		 "properties": { 
			 "R2extent": 5745.7892, 
			 "electric_dipole_moment_norm": 4.18731332241, 
			 "electric_quadrupole_moment_norm": 18.2132751261, 
			 "total_energy": -1079.58518515, 
			 "HOMO_LUMO_gap": 0.19336, 
			 "cosmo_polarized_energy": -20.87, 
			 "cosmo_cavitation_energy": 32.65, 
			 "cosmo_dispersion_energy": -23.89, 
			 "cosmo_repulsion_energy": 1.84, 
			 "cosmo_total_nonelectrostatic_energy": 10.6, 
			 "SMD_solvation_energy": 3.36 
		},
		"coords": [
			{
				"x": 5.8103938429,
				"y": -2.3656297276,
				"z": 1.2407445978,
				"element": "N" 
			},
			{
				"x": 4.7644051941,
				"y": -2.1029667588,
				"z": 2.1435166581,
				"element": "N" 
			},
			{
				"x": 3.715412614,
				"y": -1.27178544,
				"z": 1.8496781327,
				"element": "C" 
			},
			{
				"x": 3.8118409974,
				"y": -0.5537194875,
				"z": 0.7145494108,
				"element": "N" 
			},
			{
				"x": 2.81447109,
				"y": 0.2825151549,
				"z": 0.4200053967,
				"element": "C" 
			},
			{
				"x": 1.6816193887,
				"y": 0.4341002207,
				"z": 1.2190305391,
				"element": "C" 
			},
			{
				"x": 1.5813242033,
				"y": -0.3158697055,
				"z": 2.4013502862,
				"element": "C" 
			},
			{
				"x": 2.6047731405,
				"y": -1.1833022623,
				"z": 2.7251240356,
				"element": "C" 
			},
			{
				"x": 0.4142716964,
				"y": 1.6068992288,
				"z": 0.7910334674,
				"element": "S" 
			},
			{
				"x": -0.6255370466,
				"y": 1.5135408989,
				"z": 1.8293503941,
				"element": "O" 
			},
			{
				"x": 1.0102993577,
				"y": 2.9017600524,
				"z": 0.4534545407,
				"element": "O" 
			},
			{
				"x": -0.1283259971,
				"y": 0.9588748657,
				"z": -0.6909106219,
				"element": "N" 
			},
			{
				"x": -0.8478881557,
				"y": 1.8873646307,
				"z": -1.548932972,
				"element": "C" 
			},
			{
				"x": -2.0588887475,
				"y": 1.3805599997,
				"z": -2.282552368,
				"element": "C" 
			},
			{
				"x": -2.2176027108,
				"y": 2.4168179659,
				"z": -1.1936656583,
				"element": "C" 
			},
			{
				"x": 6.4063476547,
				"y": -1.5392673804,
				"z": 1.2117350508,
				"element": "H" 
			},
			{
				"x": 5.408870135,
				"y": -2.4391971627,
				"z": 0.3052938847,
				"element": "H" 
			},
			{
				"x": 4.637258487,
				"y": -2.8138608083,
				"z": 2.8474756064,
				"element": "H" 
			},
			{
				"x": 2.9178321793,
				"y": 0.854856188,
				"z": -0.4986397346,
				"element": "H" 
			},
			{
				"x": 0.7099648218,
				"y": -0.2010317786,
				"z": 3.0371765694,
				"element": "H" 
			},
			{
				"x": 2.5694253485,
				"y": -1.7799640447,
				"z": 3.6316195184,
				"element": "H" 
			},
			{
				"x": -0.652487475,
				"y": 0.1066074857,
				"z": -0.5027068906,
				"element": "H" 
			},
			{
				"x": -0.1755142647,
				"y": 2.5529383109,
				"z": -2.0791826675,
				"element": "H" 
			},
			{
				"x": -2.3960814781,
				"y": 0.3685587476,
				"z": -2.0717643765,
				"element": "H" 
			},
			{
				"x": -2.1838521982,
				"y": 1.6766201047,
				"z": -3.3193071733,
				"element": "H" 
			},
			{
				"x": -2.6448788615,
				"y": 2.0999190801,
				"z": -0.2479320065,
				"element": "H" 
			},
			{
				"x": -2.4519532161,
				"y": 3.4384616216,
				"z": -1.4755436195,
				"element": "H" 
			}
		],
		 "valence_orbital": [ 
			{
				"type": "occ",
				"energy": -0.2946,
				"method": "rhf"
			},
			{
				"type": "occ",
				"energy": -0.28539,
				"method": "rhf"
			},
			{
				"type": "occ",
				"energy": -0.27069,
				"method": "rhf"
			},
			{
				"type": "occ",
				"energy": -0.2517,
				"method": "rhf"
			},
			{
				"type": "occ",
				"energy": -0.22765,
				"method": "rhf"
			},
			{
				"type": "unocc",
				"energy": -0.03429,
				"method": "rhf"
			},
			{
				"type": "unocc",
				"energy": -0.02875,
				"method": "rhf"
			},
			{
				"type": "unocc",
				"energy": 0.06526,
				"method": "rhf"
			},
			{
				"type": "unocc",
				"energy": 0.07219,
				"method": "rhf"
			},
			{
				"type": "unocc",
				"energy": 0.0811,
				"method": "rhf"
			}
		],
		"cosmo_sigma_profile": { 
			"-0.025": 0.0,
			"-0.024": 0.0,
			"-0.023": 0.0,
			"-0.022": 0.0,
			"-0.021": 0.0,
			"-0.02": 0.0,
			"-0.019": 0.0,
			"-0.018": 0.0,
			"-0.017": 0.0,
			"-0.016": 0.0,
			"-0.015": 0.580603537096,
			"-0.014": 2.86113096521,
			"-0.013": 2.55472429967,
			"-0.012": 2.32394020902,
			"-0.011": 4.65811782119,
			"-0.01": 4.10751923108,
			"-0.009": 5.37655627433,
			"-0.008": 5.74194385131,
			"-0.007": 9.17412146629,
			"-0.006": 9.7192546458,
			"-0.005": 16.2728353479,
			"-0.004": 15.6351921977,
			"-0.003": 13.0095629109,
			"-0.002": 14.4873886436,
			"-0.001": 16.4020225245,
			"0.0": 18.3178580774,
			"0.001": 20.6385062245,
			"0.002": 16.7123381372,
			"0.003": 12.9779859848,
			"0.004": 8.89742071126,
			"0.005": 7.23067416007,
			"0.006": 7.34440637351,
			"0.007": 4.8426876828,
			"0.008": 5.29993846332,
			"0.009": 5.66720487895,
			"0.01": 7.86844096967,
			"0.011": 11.2016728088,
			"0.012": 5.36415869484,
			"0.013": 1.01505043367,
			"0.014": 0.841698003239,
			"0.015": 0.67213894151,
			"0.016": 0.397702552723,
			"0.017": 0.232866651277,
			"0.018": 0.0,
			"0.019": 0.0,
			"0.02": 0.0,
			"0.021": 0.0,
			"0.022": 0.0,
			"0.023": 0.0,
			"0.024": 0.0,
			"0.025": 0.0
		}
	}
}
