{
	 "smiles": "CC1=CC(Cl)=CC=C1N=C=S", 
	 "Tm": 307.15, 
	 "num_atms": 17, 
	 "gaussian": { 
		 "optdone": 1, 
		 "sigma_profile": "yes", 
		 "theory": "DFT", 
		 "functional": "B3LYP", 
		 "basiset": "6-31G**", 
		 "properties": { 
			 "R2extent": 3758.505, 
			 "electric_dipole_moment_norm": 1.76945315281, 
			 "electric_quadrupole_moment_norm": 14.6078099871, 
			 "total_energy": -1221.60217591, 
			 "HOMO_LUMO_gap": 0.17632, 
			 "cosmo_polarized_energy": -5.72, 
			 "cosmo_cavitation_energy": 26.26, 
			 "cosmo_dispersion_energy": -19.36, 
			 "cosmo_repulsion_energy": 1.53, 
			 "cosmo_total_nonelectrostatic_energy": 8.43, 
			 "SMD_solvation_energy": 4.81 
		},
		"coords": [
			{
				"x": 1.2298405462,
				"y": -0.4703687294,
				"z": 0.2630020149,
				"element": "C" 
			},
			{
				"x": -0.1666942155,
				"y": 0.0807223289,
				"z": 0.1420385817,
				"element": "C" 
			},
			{
				"x": -1.0237124366,
				"y": 0.1410860428,
				"z": 1.2427220676,
				"element": "C" 
			},
			{
				"x": -2.3149723678,
				"y": 0.654025957,
				"z": 1.1158825074,
				"element": "C" 
			},
			{
				"x": -3.3580551054,
				"y": 0.7106428273,
				"z": 2.5256349437,
				"element": "Cl" 
			},
			{
				"x": -2.7896115985,
				"y": 1.1212171068,
				"z": -0.1089736834,
				"element": "C" 
			},
			{
				"x": -1.951554378,
				"y": 1.0698141176,
				"z": -1.2174555704,
				"element": "C" 
			},
			{
				"x": -0.6513932216,
				"y": 0.5552995057,
				"z": -1.0982339752,
				"element": "C" 
			},
			{
				"x": 0.1610566633,
				"y": 0.5125138427,
				"z": -2.2042157606,
				"element": "N" 
			},
			{
				"x": 0.8637428717,
				"y": 0.4755084795,
				"z": -3.1607773727,
				"element": "C" 
			},
			{
				"x": 1.8060579514,
				"y": 0.4247530867,
				"z": -4.4450821308,
				"element": "S" 
			},
			{
				"x": 1.9779785808,
				"y": 0.2787720658,
				"z": -0.019014446,
				"element": "H" 
			},
			{
				"x": 1.4367355215,
				"y": -0.7899614118,
				"z": 1.2866755287,
				"element": "H" 
			},
			{
				"x": 1.375894614,
				"y": -1.3304974911,
				"z": -0.3998009392,
				"element": "H" 
			},
			{
				"x": -0.6815016452,
				"y": -0.2152719898,
				"z": 2.2084308886,
				"element": "H" 
			},
			{
				"x": -3.7949251245,
				"y": 1.5172909063,
				"z": -0.1936800926,
				"element": "H" 
			},
			{
				"x": -2.2924866556,
				"y": 1.4257533549,
				"z": -2.1835525616,
				"element": "H" 
			}
		],
		 "valence_orbital": [ 
			{
				"type": "occ",
				"energy": -0.32338,
				"method": "rhf"
			},
			{
				"type": "occ",
				"energy": -0.28648,
				"method": "rhf"
			},
			{
				"type": "occ",
				"energy": -0.27505,
				"method": "rhf"
			},
			{
				"type": "occ",
				"energy": -0.25647,
				"method": "rhf"
			},
			{
				"type": "occ",
				"energy": -0.23152,
				"method": "rhf"
			},
			{
				"type": "unocc",
				"energy": -0.0552,
				"method": "rhf"
			},
			{
				"type": "unocc",
				"energy": -0.02797,
				"method": "rhf"
			},
			{
				"type": "unocc",
				"energy": -0.00048,
				"method": "rhf"
			},
			{
				"type": "unocc",
				"energy": 0.01859,
				"method": "rhf"
			},
			{
				"type": "unocc",
				"energy": 0.03748,
				"method": "rhf"
			}
		],
		"cosmo_sigma_profile": { 
			"-0.025": 0.0,
			"-0.024": 0.0,
			"-0.023": 0.0,
			"-0.022": 0.0,
			"-0.021": 0.0,
			"-0.02": 0.0,
			"-0.019": 0.0,
			"-0.018": 0.0,
			"-0.017": 0.0,
			"-0.016": 0.0,
			"-0.015": 0.0,
			"-0.014": 0.0,
			"-0.013": 0.0,
			"-0.012": 0.0,
			"-0.011": 0.0,
			"-0.01": 0.0,
			"-0.009": 0.0161463708484,
			"-0.008": 3.20553024096,
			"-0.007": 6.58853965185,
			"-0.006": 7.49345178065,
			"-0.005": 10.8204593683,
			"-0.004": 11.1137142333,
			"-0.003": 14.4954469492,
			"-0.002": 17.5706697934,
			"-0.001": 26.4729225436,
			"0.0": 19.0923825906,
			"0.001": 22.2857775622,
			"0.002": 22.053367449,
			"0.003": 13.9952309197,
			"0.004": 15.8429555115,
			"0.005": 11.4386966221,
			"0.006": 13.1921869736,
			"0.007": 1.3823027082,
			"0.008": 0.0,
			"0.009": 0.0,
			"0.01": 0.0,
			"0.011": 0.0,
			"0.012": 0.0,
			"0.013": 0.0,
			"0.014": 0.0,
			"0.015": 0.0,
			"0.016": 0.0,
			"0.017": 0.0,
			"0.018": 0.0,
			"0.019": 0.0,
			"0.02": 0.0,
			"0.021": 0.0,
			"0.022": 0.0,
			"0.023": 0.0,
			"0.024": 0.0,
			"0.025": 0.0
		}
	}
}
