{
	 "smiles": "CCC1=C(O)C=C2OC(=O)C=C(C)C2=C1", 
	 "Tm": 490.15, 
	 "num_atms": 27, 
	 "gaussian": { 
		 "optdone": 1, 
		 "sigma_profile": "yes", 
		 "theory": "DFT", 
		 "functional": "B3LYP", 
		 "basiset": "6-31G**", 
		 "properties": { 
			 "R2extent": 5554.1496, 
			 "electric_dipole_moment_norm": 4.84433528567, 
			 "electric_quadrupole_moment_norm": 23.4895599241, 
			 "total_energy": -690.201108261, 
			 "HOMO_LUMO_gap": 0.16277, 
			 "cosmo_polarized_energy": -15.36, 
			 "cosmo_cavitation_energy": 30.47, 
			 "cosmo_dispersion_energy": -22.25, 
			 "cosmo_repulsion_energy": 1.73, 
			 "cosmo_total_nonelectrostatic_energy": 9.95, 
			 "SMD_solvation_energy": 6.56 
		},
		"coords": [
			{
				"x": 1.3689715709,
				"y": 4.7170345667,
				"z": -0.0474293674,
				"element": "C" 
			},
			{
				"x": 1.789978288,
				"y": 3.3186440453,
				"z": -0.5028029006,
				"element": "C" 
			},
			{
				"x": 1.3824248178,
				"y": 2.1764806118,
				"z": 0.4066161805,
				"element": "C" 
			},
			{
				"x": 1.7420199795,
				"y": 0.8548008065,
				"z": 0.0425345796,
				"element": "C" 
			},
			{
				"x": 2.4398087401,
				"y": 0.7138893453,
				"z": -1.1200487258,
				"element": "O" 
			},
			{
				"x": 1.3994621611,
				"y": -0.2382295836,
				"z": 0.8319560242,
				"element": "C" 
			},
			{
				"x": 0.6842347531,
				"y": -0.0323280961,
				"z": 2.0120058181,
				"element": "C" 
			},
			{
				"x": 0.378362291,
				"y": -1.1402178549,
				"z": 2.7416299222,
				"element": "O" 
			},
			{
				"x": -0.3355396063,
				"y": -1.0659803994,
				"z": 3.9435342176,
				"element": "C" 
			},
			{
				"x": -0.5607055783,
				"y": -2.1024678282,
				"z": 4.5246175901,
				"element": "O" 
			},
			{
				"x": -0.7298624509,
				"y": 0.267067525,
				"z": 4.3658914954,
				"element": "C" 
			},
			{
				"x": -0.4380314016,
				"y": 1.3901223486,
				"z": 3.6573506484,
				"element": "C" 
			},
			{
				"x": -0.8719770394,
				"y": 2.7472848133,
				"z": 4.1422792601,
				"element": "C" 
			},
			{
				"x": 0.3039264649,
				"y": 1.2596199577,
				"z": 2.4170207846,
				"element": "C" 
			},
			{
				"x": 0.6717225397,
				"y": 2.3409182475,
				"z": 1.5868004647,
				"element": "C" 
			},
			{
				"x": 0.2803753688,
				"y": 4.8080475921,
				"z": 0.0329555021,
				"element": "H" 
			},
			{
				"x": 1.8018448855,
				"y": 4.975579023,
				"z": 0.9249718993,
				"element": "H" 
			},
			{
				"x": 1.7094057606,
				"y": 5.4656786704,
				"z": -0.7687013392,
				"element": "H" 
			},
			{
				"x": 2.8799679973,
				"y": 3.2879462433,
				"z": -0.6305971164,
				"element": "H" 
			},
			{
				"x": 1.3878954095,
				"y": 3.1236298285,
				"z": -1.5056287441,
				"element": "H" 
			},
			{
				"x": 2.6305563688,
				"y": -0.2216083547,
				"z": -1.2690930509,
				"element": "H" 
			},
			{
				"x": 1.6745168654,
				"y": -1.2515435481,
				"z": 0.5539254007,
				"element": "H" 
			},
			{
				"x": -1.2811622119,
				"y": 0.3085125696,
				"z": 5.2982984079,
				"element": "H" 
			},
			{
				"x": -1.5225824846,
				"y": 3.237946514,
				"z": 3.409319289,
				"element": "H" 
			},
			{
				"x": -0.0087953778,
				"y": 3.4046878099,
				"z": 4.2972286485,
				"element": "H" 
			},
			{
				"x": -1.4167358587,
				"y": 2.6704660028,
				"z": 5.0854144159,
				"element": "H" 
			},
			{
				"x": 0.3847177475,
				"y": 3.3416191437,
				"z": 1.8876506954,
				"element": "H" 
			}
		],
		 "valence_orbital": [ 
			{
				"type": "occ",
				"energy": -0.33003,
				"method": "rhf"
			},
			{
				"type": "occ",
				"energy": -0.28378,
				"method": "rhf"
			},
			{
				"type": "occ",
				"energy": -0.26416,
				"method": "rhf"
			},
			{
				"type": "occ",
				"energy": -0.24748,
				"method": "rhf"
			},
			{
				"type": "occ",
				"energy": -0.21718,
				"method": "rhf"
			},
			{
				"type": "unocc",
				"energy": -0.05441,
				"method": "rhf"
			},
			{
				"type": "unocc",
				"energy": -0.00605,
				"method": "rhf"
			},
			{
				"type": "unocc",
				"energy": 0.01284,
				"method": "rhf"
			},
			{
				"type": "unocc",
				"energy": 0.05742,
				"method": "rhf"
			},
			{
				"type": "unocc",
				"energy": 0.08499,
				"method": "rhf"
			}
		],
		"cosmo_sigma_profile": { 
			"-0.025": 0.0,
			"-0.024": 0.0,
			"-0.023": 0.0,
			"-0.022": 0.0,
			"-0.021": 0.0,
			"-0.02": 0.0,
			"-0.019": 0.253819318965,
			"-0.018": 0.885707920538,
			"-0.017": 1.18375208795,
			"-0.016": 1.13700244427,
			"-0.015": 1.08502425348,
			"-0.014": 1.48051798216,
			"-0.013": 0.418148255122,
			"-0.012": 0.345395153496,
			"-0.011": 1.64219058422,
			"-0.01": 1.3247708419,
			"-0.009": 1.03154567826,
			"-0.008": 1.58763773845,
			"-0.007": 2.31277668513,
			"-0.006": 7.05433866993,
			"-0.005": 13.4520269842,
			"-0.004": 13.8727680365,
			"-0.003": 20.9251189886,
			"-0.002": 22.1346556776,
			"-0.001": 27.1363278959,
			"0.0": 24.0688038764,
			"0.001": 21.3027678869,
			"0.002": 19.8942708455,
			"0.003": 14.4023026063,
			"0.004": 6.10795128415,
			"0.005": 3.14545172187,
			"0.006": 3.82960785854,
			"0.007": 4.59116341539,
			"0.008": 2.85981101324,
			"0.009": 4.27168172669,
			"0.01": 2.95396748078,
			"0.011": 3.22536872585,
			"0.012": 5.0702353131,
			"0.013": 5.39527257871,
			"0.014": 1.02584710089,
			"0.015": 0.0,
			"0.016": 0.0,
			"0.017": 0.0,
			"0.018": 0.0,
			"0.019": 0.0,
			"0.02": 0.0,
			"0.021": 0.0,
			"0.022": 0.0,
			"0.023": 0.0,
			"0.024": 0.0,
			"0.025": 0.0
		}
	}
}
