{
	 "smiles": "CC1=C(CN)SC(=N1)C1=CC=CC=C1", 
	 "Tm": 503.15, 
	 "num_atms": 26, 
	 "gaussian": { 
		 "optdone": 1, 
		 "sigma_profile": "yes", 
		 "theory": "DFT", 
		 "functional": "B3LYP", 
		 "basiset": "6-31G**", 
		 "properties": { 
			 "R2extent": 4027.2633, 
			 "electric_dipole_moment_norm": 2.09729218994, 
			 "electric_quadrupole_moment_norm": 16.8722693367, 
			 "total_energy": -934.096217195, 
			 "HOMO_LUMO_gap": 0.16448, 
			 "cosmo_polarized_energy": -10.44, 
			 "cosmo_cavitation_energy": 30.85, 
			 "cosmo_dispersion_energy": -23.26, 
			 "cosmo_repulsion_energy": 1.81, 
			 "cosmo_total_nonelectrostatic_energy": 9.4, 
			 "SMD_solvation_energy": 2.8 
		},
		"coords": [
			{
				"x": 2.5763896222,
				"y": -1.6775772882,
				"z": 1.0981837797,
				"element": "C" 
			},
			{
				"x": 1.3078090256,
				"y": -1.0044764869,
				"z": 0.654893696,
				"element": "C" 
			},
			{
				"x": 0.1518561658,
				"y": -1.6188100694,
				"z": 0.2361600359,
				"element": "C" 
			},
			{
				"x": -0.1667671469,
				"y": -3.0770491354,
				"z": 0.0721605273,
				"element": "C" 
			},
			{
				"x": -1.5681926601,
				"y": -3.3484006836,
				"z": 0.4075545957,
				"element": "N" 
			},
			{
				"x": -1.0358956755,
				"y": -0.4088482118,
				"z": -0.1855255466,
				"element": "S" 
			},
			{
				"x": 0.1341289902,
				"y": 0.8419520309,
				"z": 0.2280040266,
				"element": "C" 
			},
			{
				"x": 1.281693756,
				"y": 0.3725445988,
				"z": 0.644848477,
				"element": "N" 
			},
			{
				"x": -0.170904826,
				"y": 2.2771796025,
				"z": 0.1320193973,
				"element": "C" 
			},
			{
				"x": -1.4016565383,
				"y": 2.7492878008,
				"z": -0.3526275948,
				"element": "C" 
			},
			{
				"x": -1.6553708642,
				"y": 4.1172515345,
				"z": -0.4292118471,
				"element": "C" 
			},
			{
				"x": -0.6846173937,
				"y": 5.0361925339,
				"z": -0.0256286388,
				"element": "C" 
			},
			{
				"x": 0.5439321786,
				"y": 4.5754847317,
				"z": 0.4560659615,
				"element": "C" 
			},
			{
				"x": 0.8013185696,
				"y": 3.2100715215,
				"z": 0.5356608751,
				"element": "C" 
			},
			{
				"x": 3.3703177104,
				"y": -1.5383585863,
				"z": 0.3552825617,
				"element": "H" 
			},
			{
				"x": 2.4434248457,
				"y": -2.7512489106,
				"z": 1.2498723423,
				"element": "H" 
			},
			{
				"x": 2.9293591239,
				"y": -1.2333453632,
				"z": 2.0339314209,
				"element": "H" 
			},
			{
				"x": -0.024142842,
				"y": -3.3711158539,
				"z": -0.9770157685,
				"element": "H" 
			},
			{
				"x": 0.5650443997,
				"y": -3.659298169,
				"z": 0.6566140252,
				"element": "H" 
			},
			{
				"x": -1.7981163927,
				"y": -4.3167209146,
				"z": 0.2016270363,
				"element": "H" 
			},
			{
				"x": -1.7237439696,
				"y": -3.2065667191,
				"z": 1.4025941116,
				"element": "H" 
			},
			{
				"x": -2.1658101651,
				"y": 2.0469414499,
				"z": -0.6741383389,
				"element": "H" 
			},
			{
				"x": -2.6126299651,
				"y": 4.4653302085,
				"z": -0.8063798396,
				"element": "H" 
			},
			{
				"x": -0.8834051836,
				"y": 6.1022718587,
				"z": -0.0865479119,
				"element": "H" 
			},
			{
				"x": 1.3044145287,
				"y": 5.2842149778,
				"z": 0.7716911733,
				"element": "H" 
			},
			{
				"x": 1.7497647065,
				"y": 2.8391935425,
				"z": 0.9079114429,
				"element": "H" 
			}
		],
		 "valence_orbital": [ 
			{
				"type": "occ",
				"energy": -0.26375,
				"method": "rhf"
			},
			{
				"type": "occ",
				"energy": -0.26227,
				"method": "rhf"
			},
			{
				"type": "occ",
				"energy": -0.2485,
				"method": "rhf"
			},
			{
				"type": "occ",
				"energy": -0.24267,
				"method": "rhf"
			},
			{
				"type": "occ",
				"energy": -0.20799,
				"method": "rhf"
			},
			{
				"type": "unocc",
				"energy": -0.04351,
				"method": "rhf"
			},
			{
				"type": "unocc",
				"energy": 0.00112,
				"method": "rhf"
			},
			{
				"type": "unocc",
				"energy": 0.02807,
				"method": "rhf"
			},
			{
				"type": "unocc",
				"energy": 0.03587,
				"method": "rhf"
			},
			{
				"type": "unocc",
				"energy": 0.06586,
				"method": "rhf"
			}
		],
		"cosmo_sigma_profile": { 
			"-0.025": 0.0,
			"-0.024": 0.0,
			"-0.023": 0.0,
			"-0.022": 0.0,
			"-0.021": 0.0,
			"-0.02": 0.0,
			"-0.019": 0.0,
			"-0.018": 0.0,
			"-0.017": 0.0,
			"-0.016": 0.0,
			"-0.015": 0.0,
			"-0.014": 0.0,
			"-0.013": 0.0,
			"-0.012": 0.0,
			"-0.011": 0.525632533797,
			"-0.01": 2.23739954353,
			"-0.009": 2.98070440009,
			"-0.008": 2.37821709119,
			"-0.007": 3.69671720529,
			"-0.006": 10.7815604084,
			"-0.005": 17.2979548262,
			"-0.004": 22.9992850589,
			"-0.003": 20.6939776811,
			"-0.002": 18.1404796082,
			"-0.001": 17.4057676822,
			"0.0": 17.7908466739,
			"0.001": 15.4623185296,
			"0.002": 19.1073077165,
			"0.003": 22.2783105302,
			"0.004": 18.0033175324,
			"0.005": 15.1487292756,
			"0.006": 3.58247242405,
			"0.007": 3.00779411629,
			"0.008": 2.93720170702,
			"0.009": 1.63851435721,
			"0.01": 2.25956979071,
			"0.011": 2.59024666108,
			"0.012": 1.44588838611,
			"0.013": 0.535863260283,
			"0.014": 0.705033887889,
			"0.015": 0.99884650528,
			"0.016": 0.384399225323,
			"0.017": 0.194146095758,
			"0.018": 0.0,
			"0.019": 0.0,
			"0.02": 0.0,
			"0.021": 0.0,
			"0.022": 0.0,
			"0.023": 0.0,
			"0.024": 0.0,
			"0.025": 0.0
		}
	}
}
