{
	 "smiles": "ClCC(=O)NC1=C(C=CC=C1)C(=O)NC1=CC2=C(OCO2)C=C1", 
	 "Tm": 443.15, 
	 "num_atms": 36, 
	 "gaussian": { 
		 "optdone": 1, 
		 "sigma_profile": "yes", 
		 "theory": "DFT", 
		 "functional": "B3LYP", 
		 "basiset": "6-31G**", 
		 "properties": { 
			 "R2extent": 10966.8618, 
			 "electric_dipole_moment_norm": 4.88107064178, 
			 "electric_quadrupole_moment_norm": 25.9031379468, 
			 "total_energy": -1488.12973411, 
			 "HOMO_LUMO_gap": 0.14715, 
			 "cosmo_polarized_energy": -21.21, 
			 "cosmo_cavitation_energy": 42.44, 
			 "cosmo_dispersion_energy": -30.7, 
			 "cosmo_repulsion_energy": 2.33, 
			 "cosmo_total_nonelectrostatic_energy": 14.07, 
			 "SMD_solvation_energy": 8.39 
		},
		"coords": [
			{
				"x": 4.0477491553,
				"y": -1.9115182708,
				"z": -1.9516191653,
				"element": "Cl" 
			},
			{
				"x": 3.1086930058,
				"y": -2.958013198,
				"z": -3.0968642618,
				"element": "C" 
			},
			{
				"x": 1.6041573153,
				"y": -2.9760373247,
				"z": -2.8160281404,
				"element": "C" 
			},
			{
				"x": 1.0685488153,
				"y": -4.0490762823,
				"z": -2.5837560144,
				"element": "O" 
			},
			{
				"x": 0.8708299684,
				"y": -1.8104378526,
				"z": -2.7969183723,
				"element": "N" 
			},
			{
				"x": 1.1989376342,
				"y": -0.4798943998,
				"z": -3.1055852222,
				"element": "C" 
			},
			{
				"x": 0.6390679215,
				"y": 0.5696683238,
				"z": -2.3308969624,
				"element": "C" 
			},
			{
				"x": 0.9179824318,
				"y": 1.898788475,
				"z": -2.6823587656,
				"element": "C" 
			},
			{
				"x": 1.7521312156,
				"y": 2.2106679682,
				"z": -3.7520874184,
				"element": "C" 
			},
			{
				"x": 2.3015720606,
				"y": 1.1747079071,
				"z": -4.5073798946,
				"element": "C" 
			},
			{
				"x": 2.0126842703,
				"y": -0.1512439164,
				"z": -4.1989928643,
				"element": "C" 
			},
			{
				"x": -0.2888218482,
				"y": 0.2577445067,
				"z": -1.1922550757,
				"element": "C" 
			},
			{
				"x": -1.0545221583,
				"y": -0.7109045536,
				"z": -1.220746922,
				"element": "O" 
			},
			{
				"x": -0.2149638571,
				"y": 1.1296626622,
				"z": -0.1374055547,
				"element": "N" 
			},
			{
				"x": -0.9671940156,
				"y": 1.1516450673,
				"z": 1.0606749795,
				"element": "C" 
			},
			{
				"x": -2.025418332,
				"y": 0.2471451474,
				"z": 1.3058317318,
				"element": "C" 
			},
			{
				"x": -2.6756286789,
				"y": 0.3879748726,
				"z": 2.5145432522,
				"element": "C" 
			},
			{
				"x": -2.3324590038,
				"y": 1.3550182145,
				"z": 3.4562568023,
				"element": "C" 
			},
			{
				"x": -3.1683004258,
				"y": 1.2646647368,
				"z": 4.5440483953,
				"element": "O" 
			},
			{
				"x": -3.956431208,
				"y": 0.0883529471,
				"z": 4.3248465708,
				"element": "C" 
			},
			{
				"x": -3.739115885,
				"y": -0.3463497916,
				"z": 2.9776374829,
				"element": "O" 
			},
			{
				"x": -1.3025654402,
				"y": 2.2445100219,
				"z": 3.2271664306,
				"element": "C" 
			},
			{
				"x": -0.6201103902,
				"y": 2.127351749,
				"z": 2.0060900183,
				"element": "C" 
			},
			{
				"x": 3.3538669427,
				"y": -2.6281296742,
				"z": -4.1062787881,
				"element": "H" 
			},
			{
				"x": 3.4524489484,
				"y": -3.9796825428,
				"z": -2.953291606,
				"element": "H" 
			},
			{
				"x": -0.0396823924,
				"y": -1.916174997,
				"z": -2.3492776672,
				"element": "H" 
			},
			{
				"x": 0.4438520473,
				"y": 2.7042143477,
				"z": -2.1285146132,
				"element": "H" 
			},
			{
				"x": 1.9499394538,
				"y": 3.2466960011,
				"z": -4.006971589,
				"element": "H" 
			},
			{
				"x": 2.9344223306,
				"y": 1.3963809017,
				"z": -5.3614435886,
				"element": "H" 
			},
			{
				"x": 2.3929510319,
				"y": -0.9396322269,
				"z": -4.8369836344,
				"element": "H" 
			},
			{
				"x": 0.5349449233,
				"y": 1.8039345645,
				"z": -0.1791568833,
				"element": "H" 
			},
			{
				"x": -2.2937140029,
				"y": -0.5106567084,
				"z": 0.5857169574,
				"element": "H" 
			},
			{
				"x": -5.0151577157,
				"y": 0.327677927,
				"z": 4.4641001715,
				"element": "H" 
			},
			{
				"x": -3.6393018815,
				"y": -0.7016209808,
				"z": 5.0206964717,
				"element": "H" 
			},
			{
				"x": -1.0325772922,
				"y": 3.0009225455,
				"z": 3.9548537614,
				"element": "H" 
			},
			{
				"x": 0.1984850557,
				"y": 2.8100438328,
				"z": 1.7940499785,
				"element": "H" 
			}
		],
		 "valence_orbital": [ 
			{
				"type": "occ",
				"energy": -0.26817,
				"method": "rhf"
			},
			{
				"type": "occ",
				"energy": -0.25951,
				"method": "rhf"
			},
			{
				"type": "occ",
				"energy": -0.24603,
				"method": "rhf"
			},
			{
				"type": "occ",
				"energy": -0.23488,
				"method": "rhf"
			},
			{
				"type": "occ",
				"energy": -0.20169,
				"method": "rhf"
			},
			{
				"type": "unocc",
				"energy": -0.05454,
				"method": "rhf"
			},
			{
				"type": "unocc",
				"energy": -0.03403,
				"method": "rhf"
			},
			{
				"type": "unocc",
				"energy": -0.00588,
				"method": "rhf"
			},
			{
				"type": "unocc",
				"energy": -0.00359,
				"method": "rhf"
			},
			{
				"type": "unocc",
				"energy": 0.0059,
				"method": "rhf"
			}
		],
		"cosmo_sigma_profile": { 
			"-0.025": 0.0,
			"-0.024": 0.0,
			"-0.023": 0.0,
			"-0.022": 0.0,
			"-0.021": 0.0,
			"-0.02": 0.0,
			"-0.019": 0.0,
			"-0.018": 0.0,
			"-0.017": 0.0,
			"-0.016": 0.0536681692783,
			"-0.015": 0.643267916161,
			"-0.014": 1.34655902227,
			"-0.013": 1.53528902857,
			"-0.012": 1.47579647265,
			"-0.011": 3.15485245912,
			"-0.01": 4.11928222325,
			"-0.009": 3.87471547122,
			"-0.008": 8.91159278367,
			"-0.007": 17.7172932549,
			"-0.006": 20.5251736073,
			"-0.005": 21.5072289387,
			"-0.004": 15.0598038447,
			"-0.003": 14.5843951765,
			"-0.002": 17.940426338,
			"-0.001": 19.2199822659,
			"0.0": 20.9922565648,
			"0.001": 23.6530585321,
			"0.002": 27.413332551,
			"0.003": 31.8649145497,
			"0.004": 25.7974398774,
			"0.005": 17.9984890331,
			"0.006": 9.20731897041,
			"0.007": 4.84400797107,
			"0.008": 5.65663266467,
			"0.009": 7.10208124759,
			"0.01": 4.621082306,
			"0.011": 3.60763954393,
			"0.012": 5.45115392391,
			"0.013": 2.96813077135,
			"0.014": 0.065860505844,
			"0.015": 0.0,
			"0.016": 0.0,
			"0.017": 0.0,
			"0.018": 0.0,
			"0.019": 0.0,
			"0.02": 0.0,
			"0.021": 0.0,
			"0.022": 0.0,
			"0.023": 0.0,
			"0.024": 0.0,
			"0.025": 0.0
		}
	}
}
