{
	 "smiles": "[O-][N+](=O)C1=CC(Cl)=C(Cl)C=C1NC1=NC=CC=C1", 
	 "Tm": 429.15, 
	 "num_atms": 25, 
	 "gaussian": { 
		 "optdone": 1, 
		 "sigma_profile": "yes", 
		 "theory": "DFT", 
		 "functional": "B3LYP", 
		 "basiset": "6-31G**", 
		 "properties": { 
			 "R2extent": 7474.42, 
			 "electric_dipole_moment_norm": 4.56416229554, 
			 "electric_quadrupole_moment_norm": 10.5469551791, 
			 "total_energy": -1658.38073864, 
			 "HOMO_LUMO_gap": 0.12196, 
			 "cosmo_polarized_energy": -9.15, 
			 "cosmo_cavitation_energy": 33.92, 
			 "cosmo_dispersion_energy": -25.17, 
			 "cosmo_repulsion_energy": 1.92, 
			 "cosmo_total_nonelectrostatic_energy": 10.67, 
			 "SMD_solvation_energy": 6.47 
		},
		"coords": [
			{
				"x": 3.6377589846,
				"y": 3.3530880652,
				"z": -1.228572344,
				"element": "O" 
			},
			{
				"x": 2.5707870626,
				"y": 2.8119334282,
				"z": -0.9484116208,
				"element": "N" 
			},
			{
				"x": 1.5027740858,
				"y": 3.4522351995,
				"z": -0.8553378806,
				"element": "O" 
			},
			{
				"x": 2.5565084221,
				"y": 1.3764435525,
				"z": -0.7182442646,
				"element": "C" 
			},
			{
				"x": 3.7950556667,
				"y": 0.7349444135,
				"z": -0.8416918173,
				"element": "C" 
			},
			{
				"x": 3.9181283129,
				"y": -0.626930608,
				"z": -0.6480445387,
				"element": "C" 
			},
			{
				"x": 5.482266021,
				"y": -1.3789331808,
				"z": -0.8129807544,
				"element": "Cl" 
			},
			{
				"x": 2.7620489291,
				"y": -1.3648800918,
				"z": -0.3208634614,
				"element": "C" 
			},
			{
				"x": 2.8479926414,
				"y": -3.0850987759,
				"z": -0.0637476192,
				"element": "Cl" 
			},
			{
				"x": 1.5291701802,
				"y": -0.7462780037,
				"z": -0.1948564736,
				"element": "C" 
			},
			{
				"x": 1.3733430317,
				"y": 0.64522168,
				"z": -0.387171227,
				"element": "C" 
			},
			{
				"x": 0.1618067264,
				"y": 1.2826371545,
				"z": -0.2679311548,
				"element": "N" 
			},
			{
				"x": -1.113471834,
				"y": 0.8086049443,
				"z": 0.0392894832,
				"element": "C" 
			},
			{
				"x": -1.3135840191,
				"y": -0.4903328876,
				"z": 0.2804609336,
				"element": "N" 
			},
			{
				"x": -2.5600164618,
				"y": -0.8913469566,
				"z": 0.5707188333,
				"element": "C" 
			},
			{
				"x": -3.6544736369,
				"y": -0.0376253153,
				"z": 0.6355313651,
				"element": "C" 
			},
			{
				"x": -3.4358670092,
				"y": 1.3217285418,
				"z": 0.3814463875,
				"element": "C" 
			},
			{
				"x": -2.1567573824,
				"y": 1.7591562775,
				"z": 0.0794779227,
				"element": "C" 
			},
			{
				"x": 4.6583631954,
				"y": 1.3354430515,
				"z": -1.0938605329,
				"element": "H" 
			},
			{
				"x": 0.6516513184,
				"y": -1.3237183874,
				"z": 0.0561550199,
				"element": "H" 
			},
			{
				"x": 0.2405234445,
				"y": 2.2828988367,
				"z": -0.4405186531,
				"element": "H" 
			},
			{
				"x": -2.6770547263,
				"y": -1.9564002253,
				"z": 0.7599185292,
				"element": "H" 
			},
			{
				"x": -4.6405625769,
				"y": -0.4195036277,
				"z": 0.8753689502,
				"element": "H" 
			},
			{
				"x": -4.256688119,
				"y": 2.0317424368,
				"z": 0.4190850007,
				"element": "H" 
			},
			{
				"x": -1.9537022571,
				"y": 2.8064704784,
				"z": -0.1226200829,
				"element": "H" 
			}
		],
		 "valence_orbital": [ 
			{
				"type": "occ",
				"energy": -0.30289,
				"method": "rhf"
			},
			{
				"type": "occ",
				"energy": -0.2808,
				"method": "rhf"
			},
			{
				"type": "occ",
				"energy": -0.27811,
				"method": "rhf"
			},
			{
				"type": "occ",
				"energy": -0.27343,
				"method": "rhf"
			},
			{
				"type": "occ",
				"energy": -0.22456,
				"method": "rhf"
			},
			{
				"type": "unocc",
				"energy": -0.1026,
				"method": "rhf"
			},
			{
				"type": "unocc",
				"energy": -0.04308,
				"method": "rhf"
			},
			{
				"type": "unocc",
				"energy": -0.03585,
				"method": "rhf"
			},
			{
				"type": "unocc",
				"energy": -0.0125,
				"method": "rhf"
			},
			{
				"type": "unocc",
				"energy": -0.00442,
				"method": "rhf"
			}
		],
		"cosmo_sigma_profile": { 
			"-0.025": 0.0,
			"-0.024": 0.0,
			"-0.023": 0.0,
			"-0.022": 0.0,
			"-0.021": 0.0,
			"-0.02": 0.0,
			"-0.019": 0.0,
			"-0.018": 0.0,
			"-0.017": 0.0,
			"-0.016": 0.0,
			"-0.015": 0.0,
			"-0.014": 0.0,
			"-0.013": 0.0,
			"-0.012": 0.00770425211484,
			"-0.011": 0.627546039956,
			"-0.01": 0.802930969794,
			"-0.009": 1.8138380138,
			"-0.008": 3.34018608088,
			"-0.007": 9.01920012884,
			"-0.006": 13.8213707426,
			"-0.005": 12.9046170613,
			"-0.004": 13.1690296326,
			"-0.003": 16.2719610959,
			"-0.002": 21.1110272204,
			"-0.001": 31.3649653645,
			"0.0": 30.6101732911,
			"0.001": 23.3458867584,
			"0.002": 25.2127757604,
			"0.003": 29.6009247977,
			"0.004": 15.9314142237,
			"0.005": 6.6230111444,
			"0.006": 4.99082853799,
			"0.007": 6.63225903198,
			"0.008": 4.99193336484,
			"0.009": 4.20141537195,
			"0.01": 2.55227866083,
			"0.011": 0.0545007561029,
			"0.012": 0.0,
			"0.013": 0.0,
			"0.014": 0.0,
			"0.015": 0.0,
			"0.016": 0.0,
			"0.017": 0.0,
			"0.018": 0.0,
			"0.019": 0.0,
			"0.02": 0.0,
			"0.021": 0.0,
			"0.022": 0.0,
			"0.023": 0.0,
			"0.024": 0.0,
			"0.025": 0.0
		}
	}
}
