{
	 "smiles": "CC(C)CC(CC1=CC(Br)=CC=C1)C(O)=O", 
	 "Tm": 340.15, 
	 "num_atms": 33, 
	 "gaussian": { 
		 "optdone": 1, 
		 "sigma_profile": "yes", 
		 "theory": "DFT", 
		 "functional": "B3LYP", 
		 "basiset": "6-31G**", 
		 "properties": { 
			 "R2extent": 7594.457, 
			 "electric_dipole_moment_norm": 2.96153362466, 
			 "electric_quadrupole_moment_norm": 5.93130188997, 
			 "total_energy": -3227.51340145, 
			 "HOMO_LUMO_gap": 0.22345, 
			 "cosmo_polarized_energy": -10.85, 
			 "cosmo_cavitation_energy": 37.25, 
			 "cosmo_dispersion_energy": -25.46, 
			 "cosmo_repulsion_energy": 2.01, 
			 "cosmo_total_nonelectrostatic_energy": 13.8, 
			 "SMD_solvation_energy": 5.7 
		},
		"coords": [
			{
				"x": 3.0887285502,
				"y": -0.525212119,
				"z": -2.2592509181,
				"element": "C" 
			},
			{
				"x": 1.9270546789,
				"y": -1.4878153005,
				"z": -1.9623872383,
				"element": "C" 
			},
			{
				"x": 2.3414586261,
				"y": -2.5414452865,
				"z": -0.9236250028,
				"element": "C" 
			},
			{
				"x": 0.6201471927,
				"y": -0.7366126475,
				"z": -1.6049989658,
				"element": "C" 
			},
			{
				"x": 0.6207171544,
				"y": 0.040036486,
				"z": -0.2732869747,
				"element": "C" 
			},
			{
				"x": -0.3834755483,
				"y": 1.2406691108,
				"z": -0.2576423222,
				"element": "C" 
			},
			{
				"x": -1.8494178832,
				"y": 0.8788435242,
				"z": -0.3784681035,
				"element": "C" 
			},
			{
				"x": -2.5941440699,
				"y": 0.5749394411,
				"z": 0.7709186669,
				"element": "C" 
			},
			{
				"x": -3.9386241306,
				"y": 0.2321772231,
				"z": 0.6576172774,
				"element": "C" 
			},
			{
				"x": -4.9330777952,
				"y": -0.1796623071,
				"z": 2.2410576302,
				"element": "Br" 
			},
			{
				"x": -4.5790512374,
				"y": 0.1874320531,
				"z": -0.5791538891,
				"element": "C" 
			},
			{
				"x": -3.8409365507,
				"y": 0.4993408823,
				"z": -1.7212474991,
				"element": "C" 
			},
			{
				"x": -2.4923562402,
				"y": 0.843165799,
				"z": -1.6229574979,
				"element": "C" 
			},
			{
				"x": 0.3704910878,
				"y": -0.791724941,
				"z": 0.977392766,
				"element": "C" 
			},
			{
				"x": -0.3557317313,
				"y": -1.9127834126,
				"z": 0.7581823605,
				"element": "O" 
			},
			{
				"x": 0.7273706454,
				"y": -0.4644752046,
				"z": 2.0904288968,
				"element": "O" 
			},
			{
				"x": 3.9664936516,
				"y": -1.0748950103,
				"z": -2.6155044034,
				"element": "H" 
			},
			{
				"x": 3.3988756573,
				"y": 0.0299670678,
				"z": -1.3663143045,
				"element": "H" 
			},
			{
				"x": 2.8175283186,
				"y": 0.2054166369,
				"z": -3.0296655699,
				"element": "H" 
			},
			{
				"x": 1.7078897597,
				"y": -2.0231641085,
				"z": -2.8973178407,
				"element": "H" 
			},
			{
				"x": 1.5292118298,
				"y": -3.2436568826,
				"z": -0.7159522523,
				"element": "H" 
			},
			{
				"x": 2.6355240034,
				"y": -2.0790039876,
				"z": 0.0262242944,
				"element": "H" 
			},
			{
				"x": 3.2041471323,
				"y": -3.1133864951,
				"z": -1.282111632,
				"element": "H" 
			},
			{
				"x": 0.4267369667,
				"y": -0.0178250461,
				"z": -2.4117338237,
				"element": "H" 
			},
			{
				"x": -0.2191284752,
				"y": -1.4380198461,
				"z": -1.6123257928,
				"element": "H" 
			},
			{
				"x": 1.6039130773,
				"y": 0.4926144145,
				"z": -0.1068377822,
				"element": "H" 
			},
			{
				"x": -0.1021966132,
				"y": 1.9063716685,
				"z": -1.0807696107,
				"element": "H" 
			},
			{
				"x": -0.2192719881,
				"y": 1.7929911626,
				"z": 0.6731918273,
				"element": "H" 
			},
			{
				"x": -2.1259221466,
				"y": 0.6114961832,
				"z": 1.7490407708,
				"element": "H" 
			},
			{
				"x": -5.6280581787,
				"y": -0.0769828294,
				"z": -0.6451531566,
				"element": "H" 
			},
			{
				"x": -4.3263544154,
				"y": 0.478401913,
				"z": -2.6926755129,
				"element": "H" 
			},
			{
				"x": -1.9349099813,
				"y": 1.0943260619,
				"z": -2.5209083024,
				"element": "H" 
			},
			{
				"x": -0.493331347,
				"y": -2.3169242034,
				"z": 1.6319339052,
				"element": "H" 
			}
		],
		 "valence_orbital": [ 
			{
				"type": "occ",
				"energy": -0.30752,
				"method": "rhf"
			},
			{
				"type": "occ",
				"energy": -0.28549,
				"method": "rhf"
			},
			{
				"type": "occ",
				"energy": -0.27155,
				"method": "rhf"
			},
			{
				"type": "occ",
				"energy": -0.25641,
				"method": "rhf"
			},
			{
				"type": "occ",
				"energy": -0.2414,
				"method": "rhf"
			},
			{
				"type": "unocc",
				"energy": -0.01795,
				"method": "rhf"
			},
			{
				"type": "unocc",
				"energy": -0.01478,
				"method": "rhf"
			},
			{
				"type": "unocc",
				"energy": 0.007,
				"method": "rhf"
			},
			{
				"type": "unocc",
				"energy": 0.00938,
				"method": "rhf"
			},
			{
				"type": "unocc",
				"energy": 0.06553,
				"method": "rhf"
			}
		],
		"cosmo_sigma_profile": { 
			"-0.025": 0.0,
			"-0.024": 0.0,
			"-0.023": 0.0,
			"-0.022": 0.0,
			"-0.021": 0.0,
			"-0.02": 0.0,
			"-0.019": 0.0,
			"-0.018": 0.493000985723,
			"-0.017": 1.17920230503,
			"-0.016": 0.819298776746,
			"-0.015": 0.488200087006,
			"-0.014": 0.806648105695,
			"-0.013": 0.586915911352,
			"-0.012": 0.507702737452,
			"-0.011": 0.719334166356,
			"-0.01": 0.730741830012,
			"-0.009": 0.279634666528,
			"-0.008": 0.815928811926,
			"-0.007": 2.34048482931,
			"-0.006": 7.99031734025,
			"-0.005": 16.037841307,
			"-0.004": 19.3501464208,
			"-0.003": 22.6572108313,
			"-0.002": 31.3183211615,
			"-0.001": 31.0409729767,
			"0.0": 28.9494470301,
			"0.001": 29.3789273585,
			"0.002": 24.2803593996,
			"0.003": 17.9834041388,
			"0.004": 22.1429902113,
			"0.005": 13.8834273461,
			"0.006": 2.36385428997,
			"0.007": 3.87515782979,
			"0.008": 1.93343681622,
			"0.009": 0.80884346643,
			"0.01": 1.61100852409,
			"0.011": 2.68903276733,
			"0.012": 4.95487595657,
			"0.013": 1.75078024428,
			"0.014": 0.0905745840934,
			"0.015": 0.0,
			"0.016": 0.0,
			"0.017": 0.0,
			"0.018": 0.0,
			"0.019": 0.0,
			"0.02": 0.0,
			"0.021": 0.0,
			"0.022": 0.0,
			"0.023": 0.0,
			"0.024": 0.0,
			"0.025": 0.0
		}
	}
}
