{
	 "smiles": "OC1=C(O)C(O)=C(C=O)C=C1", 
	 "Tm": 435.82, 
	 "num_atms": 17, 
	 "gaussian": { 
		 "optdone": 1, 
		 "sigma_profile": "yes", 
		 "theory": "DFT", 
		 "functional": "B3LYP", 
		 "basiset": "6-31G**", 
		 "properties": { 
			 "R2extent": 2427.7996, 
			 "electric_dipole_moment_norm": 5.66268475372, 
			 "electric_quadrupole_moment_norm": 10.9218539379, 
			 "total_energy": -571.244184895, 
			 "HOMO_LUMO_gap": 0.15453, 
			 "cosmo_polarized_energy": -16.48, 
			 "cosmo_cavitation_energy": 21.47, 
			 "cosmo_dispersion_energy": -16.51, 
			 "cosmo_repulsion_energy": 1.31, 
			 "cosmo_total_nonelectrostatic_energy": 6.27, 
			 "SMD_solvation_energy": 5.63 
		},
		"coords": [
			{
				"x": -2.1638807653,
				"y": 2.6033253725,
				"z": 1.4019335429,
				"element": "O" 
			},
			{
				"x": -1.4507504205,
				"y": 1.7437698633,
				"z": 0.6095197818,
				"element": "C" 
			},
			{
				"x": -1.8602527887,
				"y": 1.7145532097,
				"z": -0.7274199858,
				"element": "C" 
			},
			{
				"x": -2.8857751343,
				"y": 2.4877857072,
				"z": -1.174593242,
				"element": "O" 
			},
			{
				"x": -1.1939484468,
				"y": 0.864994496,
				"z": -1.6270498308,
				"element": "C" 
			},
			{
				"x": -1.5930555998,
				"y": 0.8443838284,
				"z": -2.9032826514,
				"element": "O" 
			},
			{
				"x": -0.1215352558,
				"y": 0.0580669837,
				"z": -1.1541163737,
				"element": "C" 
			},
			{
				"x": 0.5682982951,
				"y": -0.819044251,
				"z": -2.0777993227,
				"element": "C" 
			},
			{
				"x": 0.2945821063,
				"y": -0.9280699182,
				"z": -3.2785185011,
				"element": "O" 
			},
			{
				"x": 0.2633603222,
				"y": 0.1140469484,
				"z": 0.2001549702,
				"element": "C" 
			},
			{
				"x": -0.3928193374,
				"y": 0.950128401,
				"z": 1.0842220223,
				"element": "C" 
			},
			{
				"x": -1.8305267485,
				"y": 2.5736008214,
				"z": 2.3072279839,
				"element": "H" 
			},
			{
				"x": -3.2148944023,
				"y": 2.9983540008,
				"z": -0.4202692162,
				"element": "H" 
			},
			{
				"x": -1.0089626363,
				"y": 0.1941157594,
				"z": -3.3688836489,
				"element": "H" 
			},
			{
				"x": 1.3937793796,
				"y": -1.4213361688,
				"z": -1.649697118,
				"element": "H" 
			},
			{
				"x": 1.08465685,
				"y": -0.5099775573,
				"z": 0.5413506638,
				"element": "H" 
			},
			{
				"x": -0.1048754175,
				"y": 1.0018025035,
				"z": 2.1308209255,
				"element": "H" 
			}
		],
		 "valence_orbital": [ 
			{
				"type": "occ",
				"energy": -0.35617,
				"method": "rhf"
			},
			{
				"type": "occ",
				"energy": -0.32765,
				"method": "rhf"
			},
			{
				"type": "occ",
				"energy": -0.26572,
				"method": "rhf"
			},
			{
				"type": "occ",
				"energy": -0.23828,
				"method": "rhf"
			},
			{
				"type": "occ",
				"energy": -0.21432,
				"method": "rhf"
			},
			{
				"type": "unocc",
				"energy": -0.05979,
				"method": "rhf"
			},
			{
				"type": "unocc",
				"energy": 0.00355,
				"method": "rhf"
			},
			{
				"type": "unocc",
				"energy": 0.04038,
				"method": "rhf"
			},
			{
				"type": "unocc",
				"energy": 0.04772,
				"method": "rhf"
			},
			{
				"type": "unocc",
				"energy": 0.08131,
				"method": "rhf"
			}
		],
		"cosmo_sigma_profile": { 
			"-0.025": 0.0,
			"-0.024": 0.0,
			"-0.023": 0.0,
			"-0.022": 0.0,
			"-0.021": 0.0,
			"-0.02": 0.0139427091853,
			"-0.019": 0.759654831416,
			"-0.018": 1.06724916519,
			"-0.017": 1.24337879808,
			"-0.016": 1.20673385303,
			"-0.015": 0.984113660689,
			"-0.014": 1.30630973531,
			"-0.013": 1.62879781372,
			"-0.012": 2.33480367218,
			"-0.011": 1.32046080031,
			"-0.01": 1.82942815755,
			"-0.009": 1.17975720519,
			"-0.008": 4.09453034171,
			"-0.007": 9.14393841189,
			"-0.006": 7.45232626311,
			"-0.005": 7.37313287489,
			"-0.004": 7.1739445193,
			"-0.003": 8.10208581674,
			"-0.002": 8.21306254907,
			"-0.001": 8.91861644895,
			"0.0": 9.30214525083,
			"0.001": 15.43880696,
			"0.002": 13.8753194307,
			"0.003": 9.87351386709,
			"0.004": 9.09717283035,
			"0.005": 4.23561508775,
			"0.006": 5.53139667197,
			"0.007": 4.05253586973,
			"0.008": 3.83925491558,
			"0.009": 4.13114968757,
			"0.01": 3.89019971971,
			"0.011": 5.41981113709,
			"0.012": 4.75757970866,
			"0.013": 2.83740685301,
			"0.014": 0.02839338641,
			"0.015": 0.0,
			"0.016": 0.0,
			"0.017": 0.0,
			"0.018": 0.0,
			"0.019": 0.0,
			"0.02": 0.0,
			"0.021": 0.0,
			"0.022": 0.0,
			"0.023": 0.0,
			"0.024": 0.0,
			"0.025": 0.0
		}
	}
}
