{
	 "smiles": "SC1=NN=C(N1CC1=CC=CC=C1)C1=CC=NC=C1", 
	 "Tm": 469.15, 
	 "num_atms": 31, 
	 "gaussian": { 
		 "optdone": 1, 
		 "sigma_profile": "yes", 
		 "theory": "DFT", 
		 "functional": "B3LYP", 
		 "basiset": "6-31G**", 
		 "properties": { 
			 "R2extent": 6643.0101, 
			 "electric_dipole_moment_norm": 4.88376169976, 
			 "electric_quadrupole_moment_norm": 13.0179699685, 
			 "total_energy": -1157.8840049, 
			 "HOMO_LUMO_gap": 0.18047, 
			 "cosmo_polarized_energy": -17.75, 
			 "cosmo_cavitation_energy": 36.81, 
			 "cosmo_dispersion_energy": -26.18, 
			 "cosmo_repulsion_energy": 1.96, 
			 "cosmo_total_nonelectrostatic_energy": 12.6, 
			 "SMD_solvation_energy": 2.4 
		},
		"coords": [
			{
				"x": 1.9337154101,
				"y": -1.357797422,
				"z": 3.5777989808,
				"element": "S" 
			},
			{
				"x": 0.2860354939,
				"y": -0.7933900928,
				"z": 3.2861103427,
				"element": "C" 
			},
			{
				"x": -0.4585371833,
				"y": -0.1192320875,
				"z": 4.1343109862,
				"element": "N" 
			},
			{
				"x": -1.6671050886,
				"y": 0.0968754557,
				"z": 3.5188864843,
				"element": "N" 
			},
			{
				"x": -1.6223886319,
				"y": -0.4367169337,
				"z": 2.3146995244,
				"element": "C" 
			},
			{
				"x": -0.3836464774,
				"y": -1.0293511182,
				"z": 2.110837704,
				"element": "N" 
			},
			{
				"x": 0.0691138022,
				"y": -1.8861958299,
				"z": 1.0178589459,
				"element": "C" 
			},
			{
				"x": 0.9916610059,
				"y": -1.2155383313,
				"z": 0.0101460346,
				"element": "C" 
			},
			{
				"x": 1.6492938145,
				"y": -2.0226899095,
				"z": -0.9287427819,
				"element": "C" 
			},
			{
				"x": 2.4832096388,
				"y": -1.4555054497,
				"z": -1.8899111305,
				"element": "C" 
			},
			{
				"x": 2.6751884336,
				"y": -0.0714555147,
				"z": -1.9225989074,
				"element": "C" 
			},
			{
				"x": 2.0281617846,
				"y": 0.7361832571,
				"z": -0.9888700988,
				"element": "C" 
			},
			{
				"x": 1.1887908691,
				"y": 0.1681111788,
				"z": -0.0261040314,
				"element": "C" 
			},
			{
				"x": -2.7440630297,
				"y": -0.3968819406,
				"z": 1.368551148,
				"element": "C" 
			},
			{
				"x": -2.5935390068,
				"y": -0.3567716251,
				"z": -0.0257263453,
				"element": "C" 
			},
			{
				"x": -3.7376726175,
				"y": -0.3023539413,
				"z": -0.823352476,
				"element": "C" 
			},
			{
				"x": -4.9860767332,
				"y": -0.2747882944,
				"z": -0.3447739775,
				"element": "N" 
			},
			{
				"x": -5.1198668241,
				"y": -0.2923243885,
				"z": 0.9898097301,
				"element": "C" 
			},
			{
				"x": -4.0513350095,
				"y": -0.3549520187,
				"z": 1.8790762594,
				"element": "C" 
			},
			{
				"x": 1.8445882433,
				"y": -1.134551479,
				"z": 4.9026028917,
				"element": "H" 
			},
			{
				"x": 0.5740747753,
				"y": -2.7492740639,
				"z": 1.4655728694,
				"element": "H" 
			},
			{
				"x": -0.8253982495,
				"y": -2.2706029011,
				"z": 0.5193925772,
				"element": "H" 
			},
			{
				"x": 1.5088855507,
				"y": -3.1011206242,
				"z": -0.9053255004,
				"element": "H" 
			},
			{
				"x": 2.9871711579,
				"y": -2.0932245701,
				"z": -2.6102797703,
				"element": "H" 
			},
			{
				"x": 3.3279874787,
				"y": 0.3710620508,
				"z": -2.6690530178,
				"element": "H" 
			},
			{
				"x": 2.1750382192,
				"y": 1.8120854356,
				"z": -1.0027317707,
				"element": "H" 
			},
			{
				"x": 0.6958509775,
				"y": 0.8055957795,
				"z": 0.7011730328,
				"element": "H" 
			},
			{
				"x": -1.6150798455,
				"y": -0.3305021935,
				"z": -0.4926946684,
				"element": "H" 
			},
			{
				"x": -3.6378824685,
				"y": -0.2718313147,
				"z": -1.9070656097,
				"element": "H" 
			},
			{
				"x": -6.1397164062,
				"y": -0.2602825431,
				"z": 1.3686753027,
				"element": "H" 
			},
			{
				"x": -4.2120590838,
				"y": -0.3687785703,
				"z": 2.9509272721,
				"element": "H" 
			}
		],
		 "valence_orbital": [ 
			{
				"type": "occ",
				"energy": -0.2677,
				"method": "rhf"
			},
			{
				"type": "occ",
				"energy": -0.26336,
				"method": "rhf"
			},
			{
				"type": "occ",
				"energy": -0.2618,
				"method": "rhf"
			},
			{
				"type": "occ",
				"energy": -0.25728,
				"method": "rhf"
			},
			{
				"type": "occ",
				"energy": -0.23219,
				"method": "rhf"
			},
			{
				"type": "unocc",
				"energy": -0.05172,
				"method": "rhf"
			},
			{
				"type": "unocc",
				"energy": -0.0251,
				"method": "rhf"
			},
			{
				"type": "unocc",
				"energy": -0.01753,
				"method": "rhf"
			},
			{
				"type": "unocc",
				"energy": -0.01726,
				"method": "rhf"
			},
			{
				"type": "unocc",
				"energy": 0.00205,
				"method": "rhf"
			}
		],
		"cosmo_sigma_profile": { 
			"-0.025": 0.0,
			"-0.024": 0.0,
			"-0.023": 0.0,
			"-0.022": 0.0,
			"-0.021": 0.0,
			"-0.02": 0.0,
			"-0.019": 0.0,
			"-0.018": 0.0,
			"-0.017": 0.0,
			"-0.016": 0.0,
			"-0.015": 0.0,
			"-0.014": 0.0,
			"-0.013": 0.390242272874,
			"-0.012": 1.55513673376,
			"-0.011": 1.55236676911,
			"-0.01": 1.05694269698,
			"-0.009": 1.0343231725,
			"-0.008": 3.71903675046,
			"-0.007": 13.0142281462,
			"-0.006": 24.3869634914,
			"-0.005": 24.4968534002,
			"-0.004": 22.4839343338,
			"-0.003": 20.0840598685,
			"-0.002": 16.9353612857,
			"-0.001": 17.3940461669,
			"0.0": 19.293184913,
			"0.001": 25.4215900391,
			"0.002": 22.8586404003,
			"0.003": 14.871461763,
			"0.004": 15.9561386348,
			"0.005": 13.3799286413,
			"0.006": 6.3516058081,
			"0.007": 4.05517017762,
			"0.008": 3.42618129703,
			"0.009": 2.50353574413,
			"0.01": 3.09319374024,
			"0.011": 3.47685157281,
			"0.012": 3.48380488672,
			"0.013": 5.06746646046,
			"0.014": 2.9833752281,
			"0.015": 2.65471693547,
			"0.016": 1.68572349377,
			"0.017": 0.0438445358775,
			"0.018": 0.0,
			"0.019": 0.0,
			"0.02": 0.0,
			"0.021": 0.0,
			"0.022": 0.0,
			"0.023": 0.0,
			"0.024": 0.0,
			"0.025": 0.0
		}
	}
}
