{
	 "smiles": "OC(=O)C1=C(I)C=CC(Br)=C1", 
	 "Tm": 394.15, 
	 "num_atms": 15, 
	 "gaussian": { 
		 "optdone": 1, 
		 "sigma_profile": "yes", 
		 "theory": "DFT", 
		 "functional": "B3LYP", 
		 "basiset": "6-31G**", 
		 "properties": { 
			 "R2extent": 3376.2324, 
			 "electric_dipole_moment_norm": 4.51286490935, 
			 "electric_quadrupole_moment_norm": 6.99506426204, 
			 "total_energy": -3002.39089771, 
			 "HOMO_LUMO_gap": 0.18876, 
			 "cosmo_polarized_energy": -11.06, 
			 "cosmo_cavitation_energy": 25.16, 
			 "cosmo_dispersion_energy": -20.42, 
			 "cosmo_repulsion_energy": 1.6, 
			 "cosmo_total_nonelectrostatic_energy": 6.33, 
			 "SMD_solvation_energy": 3.51 
		},
		"coords": [
			{
				"x": -0.1290471715,
				"y": -0.6496157894,
				"z": 3.0270257708,
				"element": "O" 
			},
			{
				"x": 0.6860869888,
				"y": -0.2854320311,
				"z": 2.0197143486,
				"element": "C" 
			},
			{
				"x": 1.8414783891,
				"y": -0.0124107528,
				"z": 2.2458158019,
				"element": "O" 
			},
			{
				"x": 0.1529803235,
				"y": -0.293331979,
				"z": 0.5980831907,
				"element": "C" 
			},
			{
				"x": -1.1575962388,
				"y": -0.063440886,
				"z": 0.1424539795,
				"element": "C" 
			},
			{
				"x": -2.7999901912,
				"y": 0.4407867968,
				"z": 1.408258083,
				"element": "I" 
			},
			{
				"x": -1.4550809356,
				"y": -0.1037098063,
				"z": -1.2238105574,
				"element": "C" 
			},
			{
				"x": -0.4610349105,
				"y": -0.3812381768,
				"z": -2.1582781505,
				"element": "C" 
			},
			{
				"x": 0.842146521,
				"y": -0.6003706616,
				"z": -1.7156444603,
				"element": "C" 
			},
			{
				"x": 2.2175307513,
				"y": -0.9686981562,
				"z": -2.9804541127,
				"element": "Br" 
			},
			{
				"x": 1.1479334571,
				"y": -0.5473139936,
				"z": -0.3634614424,
				"element": "C" 
			},
			{
				"x": -1.0311137425,
				"y": -0.8349839924,
				"z": 2.7199281108,
				"element": "H" 
			},
			{
				"x": -2.4661574355,
				"y": 0.0858527232,
				"z": -1.5651526714,
				"element": "H" 
			},
			{
				"x": -0.7003420546,
				"y": -0.4181628641,
				"z": -3.2148402566,
				"element": "H" 
			},
			{
				"x": 2.1618062495,
				"y": -0.6931304307,
				"z": -0.012037634,
				"element": "H" 
			}
		],
		 "valence_orbital": [ 
			{
				"type": "occ",
				"energy": -0.30287,
				"method": "rhf"
			},
			{
				"type": "occ",
				"energy": -0.29758,
				"method": "rhf"
			},
			{
				"type": "occ",
				"energy": -0.29647,
				"method": "rhf"
			},
			{
				"type": "occ",
				"energy": -0.27968,
				"method": "rhf"
			},
			{
				"type": "occ",
				"energy": -0.25913,
				"method": "rhf"
			},
			{
				"type": "unocc",
				"energy": -0.07037,
				"method": "rhf"
			},
			{
				"type": "unocc",
				"energy": -0.06903,
				"method": "rhf"
			},
			{
				"type": "unocc",
				"energy": -0.04563,
				"method": "rhf"
			},
			{
				"type": "unocc",
				"energy": -0.00977,
				"method": "rhf"
			},
			{
				"type": "unocc",
				"energy": 0.02726,
				"method": "rhf"
			}
		],
		"cosmo_sigma_profile": { 
			"-0.025": 0.0,
			"-0.024": 0.0,
			"-0.023": 0.0,
			"-0.022": 0.0,
			"-0.021": 0.0,
			"-0.02": 0.0,
			"-0.019": 0.0,
			"-0.018": 0.0,
			"-0.017": 0.0,
			"-0.016": 0.0,
			"-0.015": 0.237130409109,
			"-0.014": 0.929742636712,
			"-0.013": 1.01354558815,
			"-0.012": 0.751440959598,
			"-0.011": 1.0091762034,
			"-0.01": 0.902109536538,
			"-0.009": 1.63359757204,
			"-0.008": 6.4807179951,
			"-0.007": 7.25368332235,
			"-0.006": 7.80560686218,
			"-0.005": 9.06313746623,
			"-0.004": 12.9567571648,
			"-0.003": 10.9602417489,
			"-0.002": 13.201517197,
			"-0.001": 18.575927705,
			"0.0": 26.5472796309,
			"0.001": 20.6437242171,
			"0.002": 16.2959228546,
			"0.003": 15.7857370191,
			"0.004": 11.8769802301,
			"0.005": 2.55126500046,
			"0.006": 2.13840192467,
			"0.007": 2.46729641826,
			"0.008": 3.03929850971,
			"0.009": 3.99297835025,
			"0.01": 4.73951457,
			"0.011": 5.21054655301,
			"0.012": 2.59637324835,
			"0.013": 0.48421948845,
			"0.014": 0.0,
			"0.015": 0.0,
			"0.016": 0.0,
			"0.017": 0.0,
			"0.018": 0.0,
			"0.019": 0.0,
			"0.02": 0.0,
			"0.021": 0.0,
			"0.022": 0.0,
			"0.023": 0.0,
			"0.024": 0.0,
			"0.025": 0.0
		}
	}
}
