{
	 "smiles": "OC(=O)C1(CC1)C1=CC=CC=C1", 
	 "Tm": 360.15, 
	 "num_atms": 22, 
	 "gaussian": { 
		 "optdone": 1, 
		 "sigma_profile": "yes", 
		 "theory": "DFT", 
		 "functional": "B3LYP", 
		 "basiset": "6-31G**", 
		 "properties": { 
			 "R2extent": 2453.2954, 
			 "electric_dipole_moment_norm": 4.8472826893, 
			 "electric_quadrupole_moment_norm": 16.1382320692, 
			 "total_energy": -537.523402241, 
			 "HOMO_LUMO_gap": 0.22642, 
			 "cosmo_polarized_energy": -11.48, 
			 "cosmo_cavitation_energy": 25.63, 
			 "cosmo_dispersion_energy": -18.19, 
			 "cosmo_repulsion_energy": 1.44, 
			 "cosmo_total_nonelectrostatic_energy": 8.88, 
			 "SMD_solvation_energy": 5.36 
		},
		"coords": [
			{
				"x": -2.9015479244,
				"y": -1.2113812909,
				"z": 1.4285026609,
				"element": "O" 
			},
			{
				"x": -1.8438930718,
				"y": -2.0063547139,
				"z": 1.1462061653,
				"element": "C" 
			},
			{
				"x": -1.806764518,
				"y": -3.1449599473,
				"z": 1.5537624389,
				"element": "O" 
			},
			{
				"x": -0.7407901618,
				"y": -1.3919660186,
				"z": 0.3089993025,
				"element": "C" 
			},
			{
				"x": -0.0324826978,
				"y": -2.388937304,
				"z": -0.6025428274,
				"element": "C" 
			},
			{
				"x": 0.6505782042,
				"y": -1.9223837113,
				"z": 0.6399318674,
				"element": "C" 
			},
			{
				"x": -0.9096864241,
				"y": 0.0366233963,
				"z": -0.1346075913,
				"element": "C" 
			},
			{
				"x": -1.5620742495,
				"y": 0.3413482124,
				"z": -1.3406484708,
				"element": "C" 
			},
			{
				"x": -1.752354788,
				"y": 1.6666335905,
				"z": -1.734498003,
				"element": "C" 
			},
			{
				"x": -1.2962330244,
				"y": 2.7099411617,
				"z": -0.9260906692,
				"element": "C" 
			},
			{
				"x": -0.6514457524,
				"y": 2.4218651956,
				"z": 0.2785984139,
				"element": "C" 
			},
			{
				"x": -0.4616914969,
				"y": 1.0961651896,
				"z": 0.6714221568,
				"element": "C" 
			},
			{
				"x": -2.7664247591,
				"y": -0.3382466538,
				"z": 1.0266588565,
				"element": "H" 
			},
			{
				"x": 0.3174552374,
				"y": -2.0098024611,
				"z": -1.5574231588,
				"element": "H" 
			},
			{
				"x": -0.432786429,
				"y": -3.3967756606,
				"z": -0.6092320639,
				"element": "H" 
			},
			{
				"x": 0.7112624773,
				"y": -2.6153313857,
				"z": 1.4719076162,
				"element": "H" 
			},
			{
				"x": 1.4729261739,
				"y": -1.2205083505,
				"z": 0.5445346124,
				"element": "H" 
			},
			{
				"x": -1.9136851036,
				"y": -0.4697296233,
				"z": -1.9726525157,
				"element": "H" 
			},
			{
				"x": -2.2542655936,
				"y": 1.8838304193,
				"z": -2.6729378824,
				"element": "H" 
			},
			{
				"x": -1.4419814837,
				"y": 3.7413820734,
				"z": -1.2333154354,
				"element": "H" 
			},
			{
				"x": -0.2937911237,
				"y": 3.2286415312,
				"z": 0.9118061831,
				"element": "H" 
			},
			{
				"x": 0.0441765087,
				"y": 0.8732463511,
				"z": 1.6070183439,
				"element": "H" 
			}
		],
		 "valence_orbital": [ 
			{
				"type": "occ",
				"energy": -0.31307,
				"method": "rhf"
			},
			{
				"type": "occ",
				"energy": -0.29146,
				"method": "rhf"
			},
			{
				"type": "occ",
				"energy": -0.28091,
				"method": "rhf"
			},
			{
				"type": "occ",
				"energy": -0.26849,
				"method": "rhf"
			},
			{
				"type": "occ",
				"energy": -0.25163,
				"method": "rhf"
			},
			{
				"type": "unocc",
				"energy": -0.02521,
				"method": "rhf"
			},
			{
				"type": "unocc",
				"energy": -0.02117,
				"method": "rhf"
			},
			{
				"type": "unocc",
				"energy": 0.01554,
				"method": "rhf"
			},
			{
				"type": "unocc",
				"energy": 0.08211,
				"method": "rhf"
			},
			{
				"type": "unocc",
				"energy": 0.09414,
				"method": "rhf"
			}
		],
		"cosmo_sigma_profile": { 
			"-0.025": 0.0,
			"-0.024": 0.0,
			"-0.023": 0.0,
			"-0.022": 0.0,
			"-0.021": 0.0,
			"-0.02": 0.0,
			"-0.019": 0.0,
			"-0.018": 0.0,
			"-0.017": 0.0,
			"-0.016": 0.0,
			"-0.015": 0.0,
			"-0.014": 0.456918486182,
			"-0.013": 0.257261255093,
			"-0.012": 0.47422126789,
			"-0.011": 0.864406227451,
			"-0.01": 0.807432339319,
			"-0.009": 0.823509159499,
			"-0.008": 1.06326758794,
			"-0.007": 1.54050747491,
			"-0.006": 11.2242120606,
			"-0.005": 17.9379466517,
			"-0.004": 21.7202589077,
			"-0.003": 20.6763550656,
			"-0.002": 18.0359187997,
			"-0.001": 16.3945989369,
			"0.0": 14.6785339331,
			"0.001": 10.143771767,
			"0.002": 11.065381551,
			"0.003": 10.7444062105,
			"0.004": 10.4126549996,
			"0.005": 6.99291557324,
			"0.006": 3.13018836867,
			"0.007": 1.83220394814,
			"0.008": 2.73173875868,
			"0.009": 2.99469095456,
			"0.01": 4.18513031702,
			"0.011": 4.23788228886,
			"0.012": 5.24728347181,
			"0.013": 2.70554240198,
			"0.014": 0.503654324461,
			"0.015": 0.0,
			"0.016": 0.0,
			"0.017": 0.0,
			"0.018": 0.0,
			"0.019": 0.0,
			"0.02": 0.0,
			"0.021": 0.0,
			"0.022": 0.0,
			"0.023": 0.0,
			"0.024": 0.0,
			"0.025": 0.0
		}
	}
}
