{
	 "smiles": "OC(=O)C1=CSC(Br)=C1", 
	 "Tm": 411.15, 
	 "num_atms": 12, 
	 "gaussian": { 
		 "optdone": 1, 
		 "sigma_profile": "yes", 
		 "theory": "DFT", 
		 "functional": "B3LYP", 
		 "basiset": "6-31G**", 
		 "properties": { 
			 "R2extent": 4880.2695, 
			 "electric_dipole_moment_norm": 1.98770242743, 
			 "electric_quadrupole_moment_norm": 10.0870174179, 
			 "total_energy": -3312.37247378, 
			 "HOMO_LUMO_gap": 0.19014, 
			 "cosmo_polarized_energy": -8.39, 
			 "cosmo_cavitation_energy": 21.28, 
			 "cosmo_dispersion_energy": -16.76, 
			 "cosmo_repulsion_energy": 1.33, 
			 "cosmo_total_nonelectrostatic_energy": 5.85, 
			 "SMD_solvation_energy": 3.78 
		},
		"coords": [
			{
				"x": -1.6226583429,
				"y": 2.8062168501,
				"z": -1.1643877881,
				"element": "O" 
			},
			{
				"x": -1.8282695044,
				"y": 1.8696923062,
				"z": -2.1236900065,
				"element": "C" 
			},
			{
				"x": -2.7065292267,
				"y": 1.9646905097,
				"z": -2.9569276192,
				"element": "O" 
			},
			{
				"x": -0.8760124294,
				"y": 0.7441009268,
				"z": -2.0348773055,
				"element": "C" 
			},
			{
				"x": 0.1211392607,
				"y": 0.6254498582,
				"z": -1.097271532,
				"element": "C" 
			},
			{
				"x": 1.0300464802,
				"y": -0.8261179685,
				"z": -1.3131583506,
				"element": "S" 
			},
			{
				"x": 0.0478284598,
				"y": -1.2743960698,
				"z": -2.6871071892,
				"element": "C" 
			},
			{
				"x": 0.3848042509,
				"y": -2.8778689553,
				"z": -3.6160449153,
				"element": "Br" 
			},
			{
				"x": -0.9198052371,
				"y": -0.3536303441,
				"z": -2.9549053116,
				"element": "C" 
			},
			{
				"x": -2.2944402557,
				"y": 3.4918685323,
				"z": -1.3132568918,
				"element": "H" 
			},
			{
				"x": 0.3609300471,
				"y": 1.3143346275,
				"z": -0.3001664786,
				"element": "H" 
			},
			{
				"x": -1.6391335025,
				"y": -0.4287402731,
				"z": -3.7593066114,
				"element": "H" 
			}
		],
		 "valence_orbital": [ 
			{
				"type": "occ",
				"energy": -0.32425,
				"method": "rhf"
			},
			{
				"type": "occ",
				"energy": -0.30424,
				"method": "rhf"
			},
			{
				"type": "occ",
				"energy": -0.2846,
				"method": "rhf"
			},
			{
				"type": "occ",
				"energy": -0.27556,
				"method": "rhf"
			},
			{
				"type": "occ",
				"energy": -0.24479,
				"method": "rhf"
			},
			{
				"type": "unocc",
				"energy": -0.05465,
				"method": "rhf"
			},
			{
				"type": "unocc",
				"energy": -0.01246,
				"method": "rhf"
			},
			{
				"type": "unocc",
				"energy": -0.0077,
				"method": "rhf"
			},
			{
				"type": "unocc",
				"energy": 0.00935,
				"method": "rhf"
			},
			{
				"type": "unocc",
				"energy": 0.07584,
				"method": "rhf"
			}
		],
		"cosmo_sigma_profile": { 
			"-0.025": 0.0,
			"-0.024": 0.0,
			"-0.023": 0.0,
			"-0.022": 0.0,
			"-0.021": 0.0,
			"-0.02": 0.0,
			"-0.019": 0.101512616847,
			"-0.018": 0.86990883793,
			"-0.017": 0.904820564583,
			"-0.016": 0.718973669852,
			"-0.015": 1.15342526769,
			"-0.014": 0.734843827661,
			"-0.013": 0.334088558568,
			"-0.012": 0.485559326738,
			"-0.011": 0.887407307046,
			"-0.01": 2.45377442469,
			"-0.009": 2.31300545726,
			"-0.008": 2.8415792914,
			"-0.007": 3.91778575666,
			"-0.006": 4.73116151527,
			"-0.005": 5.00218875968,
			"-0.004": 5.24178441864,
			"-0.003": 7.00925163943,
			"-0.002": 13.4904643143,
			"-0.001": 14.5334302981,
			"0.0": 20.2696487381,
			"0.001": 26.9683949435,
			"0.002": 19.9131854452,
			"0.003": 14.3107679549,
			"0.004": 6.21777820473,
			"0.005": 2.64419104143,
			"0.006": 2.2406768421,
			"0.007": 3.66574354305,
			"0.008": 1.45842618142,
			"0.009": 1.87201656166,
			"0.01": 2.06448078444,
			"0.011": 4.29704861232,
			"0.012": 3.15673688776,
			"0.013": 0.0393712121828,
			"0.014": 0.0,
			"0.015": 0.0,
			"0.016": 0.0,
			"0.017": 0.0,
			"0.018": 0.0,
			"0.019": 0.0,
			"0.02": 0.0,
			"0.021": 0.0,
			"0.022": 0.0,
			"0.023": 0.0,
			"0.024": 0.0,
			"0.025": 0.0
		}
	}
}
