{
	 "smiles": "COC(=O)C=CC1=CC=CC=C1", 
	 "Tm": 309.15, 
	 "num_atms": 22, 
	 "gaussian": { 
		 "optdone": 1, 
		 "sigma_profile": "yes", 
		 "theory": "DFT", 
		 "functional": "B3LYP", 
		 "basiset": "6-31G**", 
		 "properties": { 
			 "R2extent": 3005.5306, 
			 "electric_dipole_moment_norm": 0.916358374218, 
			 "electric_quadrupole_moment_norm": 10.94734717, 
			 "total_energy": -537.528819006, 
			 "HOMO_LUMO_gap": 0.16856, 
			 "cosmo_polarized_energy": -7.43, 
			 "cosmo_cavitation_energy": 26.32, 
			 "cosmo_dispersion_energy": -19.46, 
			 "cosmo_repulsion_energy": 1.54, 
			 "cosmo_total_nonelectrostatic_energy": 8.4, 
			 "SMD_solvation_energy": 6.14 
		},
		"coords": [
			{
				"x": -1.5592131304,
				"y": 3.5627013653,
				"z": -2.1776298492,
				"element": "C" 
			},
			{
				"x": -0.9172578467,
				"y": 2.3534538724,
				"z": -2.6011343565,
				"element": "O" 
			},
			{
				"x": -0.8197511098,
				"y": 1.385169788,
				"z": -1.6511271785,
				"element": "C" 
			},
			{
				"x": -1.2522823981,
				"y": 1.5474222961,
				"z": -0.5222381166,
				"element": "O" 
			},
			{
				"x": -0.142228635,
				"y": 0.2120167079,
				"z": -2.231412318,
				"element": "C" 
			},
			{
				"x": 0.1862040164,
				"y": -0.9869495441,
				"z": -1.692024409,
				"element": "C" 
			},
			{
				"x": 0.0377194516,
				"y": -1.6353396169,
				"z": -0.3862448337,
				"element": "C" 
			},
			{
				"x": 0.5540584751,
				"y": -2.9456320034,
				"z": -0.2811898782,
				"element": "C" 
			},
			{
				"x": 0.4733151622,
				"y": -3.6644648856,
				"z": 0.9070333346,
				"element": "C" 
			},
			{
				"x": -0.1296428689,
				"y": -3.0871418907,
				"z": 2.0265097705,
				"element": "C" 
			},
			{
				"x": -0.6462382986,
				"y": -1.7918569247,
				"z": 1.9413221638,
				"element": "C" 
			},
			{
				"x": -0.5679944047,
				"y": -1.0676792037,
				"z": 0.754053784,
				"element": "C" 
			},
			{
				"x": -2.5842371349,
				"y": 3.3646216591,
				"z": -1.8528439803,
				"element": "H" 
			},
			{
				"x": -1.0138359674,
				"y": 4.0215628769,
				"z": -1.348498315,
				"element": "H" 
			},
			{
				"x": -1.5544272739,
				"y": 4.2194855417,
				"z": -3.0477653851,
				"element": "H" 
			},
			{
				"x": 0.1296252961,
				"y": 0.3626187317,
				"z": -3.2715806099,
				"element": "H" 
			},
			{
				"x": 0.689416795,
				"y": -1.6408182611,
				"z": -2.4047907631,
				"element": "H" 
			},
			{
				"x": 1.0244864326,
				"y": -3.3997357995,
				"z": -1.1498861237,
				"element": "H" 
			},
			{
				"x": 0.878766943,
				"y": -4.6706726871,
				"z": 0.9601882137,
				"element": "H" 
			},
			{
				"x": -0.1963136503,
				"y": -3.6424832736,
				"z": 2.9578628948,
				"element": "H" 
			},
			{
				"x": -1.1162561807,
				"y": -1.3387099929,
				"z": 2.8096198385,
				"element": "H" 
			},
			{
				"x": -0.9696136725,
				"y": -0.0649687559,
				"z": 0.6934761169,
				"element": "H" 
			}
		],
		 "valence_orbital": [ 
			{
				"type": "occ",
				"energy": -0.30333,
				"method": "rhf"
			},
			{
				"type": "occ",
				"energy": -0.29742,
				"method": "rhf"
			},
			{
				"type": "occ",
				"energy": -0.26714,
				"method": "rhf"
			},
			{
				"type": "occ",
				"energy": -0.2514,
				"method": "rhf"
			},
			{
				"type": "occ",
				"energy": -0.23247,
				"method": "rhf"
			},
			{
				"type": "unocc",
				"energy": -0.06391,
				"method": "rhf"
			},
			{
				"type": "unocc",
				"energy": -0.00037,
				"method": "rhf"
			},
			{
				"type": "unocc",
				"energy": 0.02,
				"method": "rhf"
			},
			{
				"type": "unocc",
				"energy": 0.08705,
				"method": "rhf"
			},
			{
				"type": "unocc",
				"energy": 0.09975,
				"method": "rhf"
			}
		],
		"cosmo_sigma_profile": { 
			"-0.025": 0.0,
			"-0.024": 0.0,
			"-0.023": 0.0,
			"-0.022": 0.0,
			"-0.021": 0.0,
			"-0.02": 0.0,
			"-0.019": 0.0,
			"-0.018": 0.0,
			"-0.017": 0.0,
			"-0.016": 0.0,
			"-0.015": 0.0,
			"-0.014": 0.0,
			"-0.013": 0.0,
			"-0.012": 0.0,
			"-0.011": 0.0,
			"-0.01": 0.0,
			"-0.009": 0.0,
			"-0.008": 0.435637533172,
			"-0.007": 4.2279971336,
			"-0.006": 14.4346290931,
			"-0.005": 18.1239791209,
			"-0.004": 18.4636004772,
			"-0.003": 18.3214971726,
			"-0.002": 14.7305397175,
			"-0.001": 12.2007232387,
			"0.0": 12.3267347168,
			"0.001": 15.131507819,
			"0.002": 16.9628558954,
			"0.003": 19.5831019228,
			"0.004": 16.3278530311,
			"0.005": 12.4075739929,
			"0.006": 3.40191163606,
			"0.007": 2.62278389401,
			"0.008": 3.31042922262,
			"0.009": 1.97717757673,
			"0.01": 1.95742261242,
			"0.011": 2.13866054156,
			"0.012": 1.41932413886,
			"0.013": 0.154324346891,
			"0.014": 0.0,
			"0.015": 0.0,
			"0.016": 0.0,
			"0.017": 0.0,
			"0.018": 0.0,
			"0.019": 0.0,
			"0.02": 0.0,
			"0.021": 0.0,
			"0.022": 0.0,
			"0.023": 0.0,
			"0.024": 0.0,
			"0.025": 0.0
		}
	}
}
