{
	 "smiles": "OS(=O)(=O)CCNC1CCCCC1", 
	 "Tm": 593.15, 
	 "num_atms": 30, 
	 "gaussian": { 
		 "optdone": 1, 
		 "sigma_profile": "yes", 
		 "theory": "DFT", 
		 "functional": "B3LYP", 
		 "basiset": "6-31G**", 
		 "properties": { 
			 "R2extent": 4612.9289, 
			 "electric_dipole_moment_norm": 4.24238737034, 
			 "electric_quadrupole_moment_norm": 24.1484662463, 
			 "total_energy": -993.652014008, 
			 "HOMO_LUMO_gap": 0.26369, 
			 "cosmo_polarized_energy": -14.94, 
			 "cosmo_cavitation_energy": 31.92, 
			 "cosmo_dispersion_energy": -23.71, 
			 "cosmo_repulsion_energy": 1.87, 
			 "cosmo_total_nonelectrostatic_energy": 10.08, 
			 "SMD_solvation_energy": 1.73 
		},
		"coords": [
			{
				"x": 1.0696980423,
				"y": -3.0217853945,
				"z": 1.3584867262,
				"element": "O" 
			},
			{
				"x": 0.8213610791,
				"y": -3.9069796644,
				"z": -0.0157803461,
				"element": "S" 
			},
			{
				"x": 2.1264385072,
				"y": -4.4479841254,
				"z": -0.4005373821,
				"element": "O" 
			},
			{
				"x": -0.3192484617,
				"y": -4.788732321,
				"z": 0.2053266167,
				"element": "O" 
			},
			{
				"x": 0.3372551968,
				"y": -2.5788349622,
				"z": -1.1326508505,
				"element": "C" 
			},
			{
				"x": -0.973954234,
				"y": -1.8845328532,
				"z": -0.7231066366,
				"element": "C" 
			},
			{
				"x": -1.3152687111,
				"y": -0.8588212217,
				"z": -1.7098990919,
				"element": "N" 
			},
			{
				"x": -1.1957608179,
				"y": 0.5544229093,
				"z": -1.3155324381,
				"element": "C" 
			},
			{
				"x": -2.1514169693,
				"y": 0.9968837063,
				"z": -0.1848869688,
				"element": "C" 
			},
			{
				"x": -2.0069036265,
				"y": 2.4947347486,
				"z": 0.1314281731,
				"element": "C" 
			},
			{
				"x": -0.552863034,
				"y": 2.858993229,
				"z": 0.4651863247,
				"element": "C" 
			},
			{
				"x": 0.3999461695,
				"y": 2.4239664878,
				"z": -0.6582211134,
				"element": "C" 
			},
			{
				"x": 0.2572721818,
				"y": 0.9264613483,
				"z": -0.9764396789,
				"element": "C" 
			},
			{
				"x": 1.9277341873,
				"y": -3.3125802951,
				"z": 1.7111262574,
				"element": "H" 
			},
			{
				"x": 1.1792342627,
				"y": -1.8854671003,
				"z": -1.1707463536,
				"element": "H" 
			},
			{
				"x": 0.2350775217,
				"y": -3.0566300256,
				"z": -2.1109096321,
				"element": "H" 
			},
			{
				"x": -0.8658067422,
				"y": -1.4789774527,
				"z": 0.2896078912,
				"element": "H" 
			},
			{
				"x": -1.7603018978,
				"y": -2.6431388764,
				"z": -0.6725209326,
				"element": "H" 
			},
			{
				"x": -2.2474959956,
				"y": -1.026072837,
				"z": -2.0715753395,
				"element": "H" 
			},
			{
				"x": -1.4709364028,
				"y": 1.124528388,
				"z": -2.2153593469,
				"element": "H" 
			},
			{
				"x": -1.9404341619,
				"y": 0.4154232671,
				"z": 0.7232790489,
				"element": "H" 
			},
			{
				"x": -3.1859254036,
				"y": 0.7661535828,
				"z": -0.4713413526,
				"element": "H" 
			},
			{
				"x": -2.334239462,
				"y": 3.0811256548,
				"z": -0.7391077009,
				"element": "H" 
			},
			{
				"x": -2.6714579451,
				"y": 2.7714353695,
				"z": 0.9583136953,
				"element": "H" 
			},
			{
				"x": -0.2605204542,
				"y": 2.3619747365,
				"z": 1.4012137176,
				"element": "H" 
			},
			{
				"x": -0.4620079592,
				"y": 3.9370197741,
				"z": 0.6433219217,
				"element": "H" 
			},
			{
				"x": 0.1805229911,
				"y": 3.0070061033,
				"z": -1.5638406447,
				"element": "H" 
			},
			{
				"x": 1.4380875568,
				"y": 2.6504092948,
				"z": -0.3883153284,
				"element": "H" 
			},
			{
				"x": 0.9044194167,
				"y": 0.6461530431,
				"z": -1.8156375207,
				"element": "H" 
			},
			{
				"x": 0.5913951662,
				"y": 0.3462454861,
				"z": -0.1043817145,
				"element": "H" 
			}
		],
		 "valence_orbital": [ 
			{
				"type": "occ",
				"energy": -0.31725,
				"method": "rhf"
			},
			{
				"type": "occ",
				"energy": -0.31426,
				"method": "rhf"
			},
			{
				"type": "occ",
				"energy": -0.30704,
				"method": "rhf"
			},
			{
				"type": "occ",
				"energy": -0.3009,
				"method": "rhf"
			},
			{
				"type": "occ",
				"energy": -0.22813,
				"method": "rhf"
			},
			{
				"type": "unocc",
				"energy": 0.03556,
				"method": "rhf"
			},
			{
				"type": "unocc",
				"energy": 0.06029,
				"method": "rhf"
			},
			{
				"type": "unocc",
				"energy": 0.07581,
				"method": "rhf"
			},
			{
				"type": "unocc",
				"energy": 0.07816,
				"method": "rhf"
			},
			{
				"type": "unocc",
				"energy": 0.09267,
				"method": "rhf"
			}
		],
		"cosmo_sigma_profile": { 
			"-0.025": 0.0,
			"-0.024": 0.0,
			"-0.023": 0.0,
			"-0.022": 0.0,
			"-0.021": 0.0,
			"-0.02": 0.300925571004,
			"-0.019": 0.824429784267,
			"-0.018": 1.06679425176,
			"-0.017": 0.746032371093,
			"-0.016": 0.663786774845,
			"-0.015": 0.773687921617,
			"-0.014": 0.568138653952,
			"-0.013": 0.403529412883,
			"-0.012": 1.07962386787,
			"-0.011": 1.21210771138,
			"-0.01": 2.06005163276,
			"-0.009": 3.19427616372,
			"-0.008": 4.75473770923,
			"-0.007": 5.36254682489,
			"-0.006": 5.94629234572,
			"-0.005": 7.51017798138,
			"-0.004": 11.2006448487,
			"-0.003": 14.539623646,
			"-0.002": 32.5515875993,
			"-0.001": 31.368441975,
			"0.0": 31.041285138,
			"0.001": 25.7530755849,
			"0.002": 7.41505611248,
			"0.003": 4.16315538187,
			"0.004": 3.87327585801,
			"0.005": 4.10716193394,
			"0.006": 4.21557479183,
			"0.007": 5.17529106367,
			"0.008": 5.27898735778,
			"0.009": 6.40854955842,
			"0.01": 12.1344029772,
			"0.011": 8.5146598077,
			"0.012": 0.683335963732,
			"0.013": 0.782881106446,
			"0.014": 0.514949909577,
			"0.015": 0.247882924254,
			"0.016": 0.136889367746,
			"0.017": 0.0,
			"0.018": 0.0,
			"0.019": 0.0,
			"0.02": 0.0,
			"0.021": 0.0,
			"0.022": 0.0,
			"0.023": 0.0,
			"0.024": 0.0,
			"0.025": 0.0
		}
	}
}
