{
	 "smiles": "CNC(=NC1=CC(C)=NN1C1=CC=CC=C1)C1=CC=C(F)C=C1", 
	 "Tm": 501.15, 
	 "num_atms": 40, 
	 "gaussian": { 
		 "optdone": 1, 
		 "sigma_profile": "yes", 
		 "theory": "DFT", 
		 "functional": "B3LYP", 
		 "basiset": "6-31G**", 
		 "properties": { 
			 "R2extent": 6864.0053, 
			 "electric_dipole_moment_norm": 4.65579660316, 
			 "electric_quadrupole_moment_norm": 15.6851754255, 
			 "total_energy": -1014.98143805, 
			 "HOMO_LUMO_gap": 0.16914, 
			 "cosmo_polarized_energy": -14.45, 
			 "cosmo_cavitation_energy": 44.34, 
			 "cosmo_dispersion_energy": -28.78, 
			 "cosmo_repulsion_energy": 2.24, 
			 "cosmo_total_nonelectrostatic_energy": 17.8, 
			 "SMD_solvation_energy": 5.57 
		},
		"coords": [
			{
				"x": -2.657677253,
				"y": 2.869636845,
				"z": 1.0838438569,
				"element": "C" 
			},
			{
				"x": -1.2678553982,
				"y": 2.8775636141,
				"z": 0.643164695,
				"element": "N" 
			},
			{
				"x": -0.6879563277,
				"y": 1.9147882482,
				"z": -0.1488887577,
				"element": "C" 
			},
			{
				"x": 0.2517764686,
				"y": 2.3019139047,
				"z": -0.9516363641,
				"element": "N" 
			},
			{
				"x": 1.0453110142,
				"y": 1.4019915794,
				"z": -1.6529778923,
				"element": "C" 
			},
			{
				"x": 1.0954386393,
				"y": 1.1655717742,
				"z": -3.0155564393,
				"element": "C" 
			},
			{
				"x": 2.1149646024,
				"y": 0.1975650694,
				"z": -3.1954163767,
				"element": "C" 
			},
			{
				"x": 2.5866720092,
				"y": -0.4298130193,
				"z": -4.4718944139,
				"element": "C" 
			},
			{
				"x": 2.6784019149,
				"y": -0.1361129074,
				"z": -2.0402036902,
				"element": "N" 
			},
			{
				"x": 2.0303980868,
				"y": 0.6111077318,
				"z": -1.0901586422,
				"element": "N" 
			},
			{
				"x": 2.4454995931,
				"y": 0.5048145554,
				"z": 0.2617413131,
				"element": "C" 
			},
			{
				"x": 2.4031350214,
				"y": 1.6087750992,
				"z": 1.1232823267,
				"element": "C" 
			},
			{
				"x": 2.8237731759,
				"y": 1.4675129986,
				"z": 2.4463471374,
				"element": "C" 
			},
			{
				"x": 3.3053649383,
				"y": 0.2435651756,
				"z": 2.9134294479,
				"element": "C" 
			},
			{
				"x": 3.3668045018,
				"y": -0.8463439526,
				"z": 2.041405118,
				"element": "C" 
			},
			{
				"x": 2.9361859266,
				"y": -0.7241171167,
				"z": 0.7224293336,
				"element": "C" 
			},
			{
				"x": -1.1528508132,
				"y": 0.5055641795,
				"z": 0.0443176623,
				"element": "C" 
			},
			{
				"x": -1.6041858987,
				"y": -0.2503769829,
				"z": -1.0469112375,
				"element": "C" 
			},
			{
				"x": -2.0255063589,
				"y": -1.567104443,
				"z": -0.8716680539,
				"element": "C" 
			},
			{
				"x": -1.9786797363,
				"y": -2.1198452349,
				"z": 0.403485467,
				"element": "C" 
			},
			{
				"x": -2.3829283854,
				"y": -3.3932570245,
				"z": 0.5779072535,
				"element": "F" 
			},
			{
				"x": -1.5264181301,
				"y": -1.40061107,
				"z": 1.5048939464,
				"element": "C" 
			},
			{
				"x": -1.1169872582,
				"y": -0.0820550847,
				"z": 1.3183829387,
				"element": "C" 
			},
			{
				"x": -2.7683864071,
				"y": 3.565240759,
				"z": 1.9198380351,
				"element": "H" 
			},
			{
				"x": -3.3572837996,
				"y": 3.1667574029,
				"z": 0.2896849129,
				"element": "H" 
			},
			{
				"x": -2.9371666655,
				"y": 1.875153094,
				"z": 1.4313796446,
				"element": "H" 
			},
			{
				"x": -0.8856774445,
				"y": 3.7929204991,
				"z": 0.4323043955,
				"element": "H" 
			},
			{
				"x": 0.4705706273,
				"y": 1.6307862297,
				"z": -3.7636711138,
				"element": "H" 
			},
			{
				"x": 2.9575068663,
				"y": 0.3248809163,
				"z": -5.1747159236,
				"element": "H" 
			},
			{
				"x": 1.7779614069,
				"y": -0.9725359681,
				"z": -4.9749911754,
				"element": "H" 
			},
			{
				"x": 3.3956698194,
				"y": -1.1330205098,
				"z": -4.2616962017,
				"element": "H" 
			},
			{
				"x": 2.0540785045,
				"y": 2.5656223377,
				"z": 0.7545390419,
				"element": "H" 
			},
			{
				"x": 2.7898817855,
				"y": 2.3283265174,
				"z": 3.1083963841,
				"element": "H" 
			},
			{
				"x": 3.6376463684,
				"y": 0.1420821326,
				"z": 3.9423796619,
				"element": "H" 
			},
			{
				"x": 3.7482849408,
				"y": -1.801909374,
				"z": 2.3901278208,
				"element": "H" 
			},
			{
				"x": 2.9834277551,
				"y": -1.5578069228,
				"z": 0.0325482834,
				"element": "H" 
			},
			{
				"x": -1.6208965345,
				"y": 0.192077348,
				"z": -2.0365477893,
				"element": "H" 
			},
			{
				"x": -2.3818598399,
				"y": -2.1655134094,
				"z": -1.7028127372,
				"element": "H" 
			},
			{
				"x": -1.4936556289,
				"y": -1.8750527667,
				"z": 2.4794850378,
				"element": "H" 
			},
			{
				"x": -0.7443820871,
				"y": 0.4922577751,
				"z": 2.1605330945,
				"element": "H" 
			}
		],
		 "valence_orbital": [ 
			{
				"type": "occ",
				"energy": -0.25289,
				"method": "rhf"
			},
			{
				"type": "occ",
				"energy": -0.24534,
				"method": "rhf"
			},
			{
				"type": "occ",
				"energy": -0.23584,
				"method": "rhf"
			},
			{
				"type": "occ",
				"energy": -0.20881,
				"method": "rhf"
			},
			{
				"type": "occ",
				"energy": -0.20007,
				"method": "rhf"
			},
			{
				"type": "unocc",
				"energy": -0.03093,
				"method": "rhf"
			},
			{
				"type": "unocc",
				"energy": -0.02145,
				"method": "rhf"
			},
			{
				"type": "unocc",
				"energy": -0.00528,
				"method": "rhf"
			},
			{
				"type": "unocc",
				"energy": 0.00435,
				"method": "rhf"
			},
			{
				"type": "unocc",
				"energy": 0.0224,
				"method": "rhf"
			}
		],
		"cosmo_sigma_profile": { 
			"-0.025": 0.0,
			"-0.024": 0.0,
			"-0.023": 0.0,
			"-0.022": 0.0,
			"-0.021": 0.0,
			"-0.02": 0.0,
			"-0.019": 0.0,
			"-0.018": 0.0,
			"-0.017": 0.0,
			"-0.016": 0.0,
			"-0.015": 0.0,
			"-0.014": 0.0,
			"-0.013": 0.425518072659,
			"-0.012": 1.46482242493,
			"-0.011": 0.385376276235,
			"-0.01": 1.02795306223,
			"-0.009": 1.33511972687,
			"-0.008": 1.93843476696,
			"-0.007": 5.76386696368,
			"-0.006": 13.6064977834,
			"-0.005": 21.9594833777,
			"-0.004": 31.7801602276,
			"-0.003": 31.3628312426,
			"-0.002": 32.0562825574,
			"-0.001": 27.8529693232,
			"0.0": 30.4131728927,
			"0.001": 24.6236804148,
			"0.002": 25.8138417228,
			"0.003": 26.0481357116,
			"0.004": 30.805345431,
			"0.005": 17.8569276252,
			"0.006": 7.38704282789,
			"0.007": 4.0575139987,
			"0.008": 2.97533469458,
			"0.009": 2.76198569019,
			"0.01": 2.35642137283,
			"0.011": 1.96912571583,
			"0.012": 2.20205630269,
			"0.013": 1.4780458202,
			"0.014": 1.52238358103,
			"0.015": 0.677436058662,
			"0.016": 0.0955027598005,
			"0.017": 0.0,
			"0.018": 0.0,
			"0.019": 0.0,
			"0.02": 0.0,
			"0.021": 0.0,
			"0.022": 0.0,
			"0.023": 0.0,
			"0.024": 0.0,
			"0.025": 0.0
		}
	}
}
