{
	 "smiles": "BrC1=CC=C(C=C1)C(=O)NC1CC1", 
	 "Tm": 425.15, 
	 "num_atms": 23, 
	 "gaussian": { 
		 "optdone": 1, 
		 "sigma_profile": "yes", 
		 "theory": "DFT", 
		 "functional": "B3LYP", 
		 "basiset": "6-31G**", 
		 "properties": { 
			 "R2extent": 5076.2392, 
			 "electric_dipole_moment_norm": 3.7077052809, 
			 "electric_quadrupole_moment_norm": 12.9345919151, 
			 "total_energy": -3088.44931476, 
			 "HOMO_LUMO_gap": 0.19994, 
			 "cosmo_polarized_energy": -11.32, 
			 "cosmo_cavitation_energy": 29.19, 
			 "cosmo_dispersion_energy": -21.26, 
			 "cosmo_repulsion_energy": 1.7, 
			 "cosmo_total_nonelectrostatic_energy": 9.64, 
			 "SMD_solvation_energy": 3.57 
		},
		"coords": [
			{
				"x": -3.4276427343,
				"y": 2.9655890945,
				"z": 0.2542874587,
				"element": "Br" 
			},
			{
				"x": -1.993026496,
				"y": 1.7587115227,
				"z": -0.112732696,
				"element": "C" 
			},
			{
				"x": -1.7291186596,
				"y": 0.719926627,
				"z": 0.7779238337,
				"element": "C" 
			},
			{
				"x": -0.6897221969,
				"y": -0.1674913897,
				"z": 0.4987935221,
				"element": "C" 
			},
			{
				"x": 0.0904275309,
				"y": -0.0165418084,
				"z": -0.654832162,
				"element": "C" 
			},
			{
				"x": -0.176361227,
				"y": 1.0563855144,
				"z": -1.5172975698,
				"element": "C" 
			},
			{
				"x": -1.2228334939,
				"y": 1.9378810632,
				"z": -1.2621578766,
				"element": "C" 
			},
			{
				"x": 1.2780765192,
				"y": -0.8742669842,
				"z": -0.9907868827,
				"element": "C" 
			},
			{
				"x": 2.2406566102,
				"y": -0.395833755,
				"z": -1.5847932994,
				"element": "O" 
			},
			{
				"x": 1.2881563912,
				"y": -2.2003344615,
				"z": -0.6192451002,
				"element": "N" 
			},
			{
				"x": 0.2160602943,
				"y": -3.0583581173,
				"z": -0.1978813131,
				"element": "C" 
			},
			{
				"x": -0.0497257421,
				"y": -4.3061657161,
				"z": -1.0077837192,
				"element": "C" 
			},
			{
				"x": -1.0387336698,
				"y": -3.1712315107,
				"z": -1.0291277134,
				"element": "C" 
			},
			{
				"x": -2.3235993118,
				"y": 0.6083736881,
				"z": 1.6774499215,
				"element": "H" 
			},
			{
				"x": -0.4798032707,
				"y": -0.9631315221,
				"z": 1.2040866755,
				"element": "H" 
			},
			{
				"x": 0.4582368524,
				"y": 1.1912159428,
				"z": -2.3865436317,
				"element": "H" 
			},
			{
				"x": -1.4342176755,
				"y": 2.7580420549,
				"z": -1.9386557403,
				"element": "H" 
			},
			{
				"x": 2.1667568973,
				"y": -2.6433833178,
				"z": -0.8593943999,
				"element": "H" 
			},
			{
				"x": 0.0964732781,
				"y": -3.1617395528,
				"z": 0.8803705454,
				"element": "H" 
			},
			{
				"x": -0.3020161293,
				"y": -5.2143353271,
				"z": -0.46959719,
				"element": "H" 
			},
			{
				"x": 0.5567598156,
				"y": -4.4586319688,
				"z": -1.8956505357,
				"element": "H" 
			},
			{
				"x": -1.9820414674,
				"y": -3.2862890766,
				"z": -0.5048295509,
				"element": "H" 
			},
			{
				"x": -1.0937621147,
				"y": -2.5657909996,
				"z": -1.927302576,
				"element": "H" 
			}
		],
		 "valence_orbital": [ 
			{
				"type": "occ",
				"energy": -0.29076,
				"method": "rhf"
			},
			{
				"type": "occ",
				"energy": -0.26851,
				"method": "rhf"
			},
			{
				"type": "occ",
				"energy": -0.25697,
				"method": "rhf"
			},
			{
				"type": "occ",
				"energy": -0.25322,
				"method": "rhf"
			},
			{
				"type": "occ",
				"energy": -0.24181,
				"method": "rhf"
			},
			{
				"type": "unocc",
				"energy": -0.04187,
				"method": "rhf"
			},
			{
				"type": "unocc",
				"energy": -0.01791,
				"method": "rhf"
			},
			{
				"type": "unocc",
				"energy": 0.00395,
				"method": "rhf"
			},
			{
				"type": "unocc",
				"energy": 0.04792,
				"method": "rhf"
			},
			{
				"type": "unocc",
				"energy": 0.0794,
				"method": "rhf"
			}
		],
		"cosmo_sigma_profile": { 
			"-0.025": 0.0,
			"-0.024": 0.0,
			"-0.023": 0.0,
			"-0.022": 0.0,
			"-0.021": 0.0,
			"-0.02": 0.0,
			"-0.019": 0.0,
			"-0.018": 0.0,
			"-0.017": 0.0,
			"-0.016": 0.0,
			"-0.015": 0.0,
			"-0.014": 0.0058094444645,
			"-0.013": 0.636415951228,
			"-0.012": 0.872482270491,
			"-0.011": 0.812253645265,
			"-0.01": 0.958973654786,
			"-0.009": 1.09008296629,
			"-0.008": 1.47684029978,
			"-0.007": 7.0028683117,
			"-0.006": 11.0843491086,
			"-0.005": 18.6310566713,
			"-0.004": 18.0205921213,
			"-0.003": 16.9859202707,
			"-0.002": 16.4458932306,
			"-0.001": 17.8828209895,
			"0.0": 17.5777461179,
			"0.001": 20.4907573473,
			"0.002": 23.1366652954,
			"0.003": 22.1416279679,
			"0.004": 15.5812406099,
			"0.005": 5.84476507508,
			"0.006": 1.08788929381,
			"0.007": 1.38005519949,
			"0.008": 1.54581972683,
			"0.009": 0.721625036833,
			"0.01": 1.79501873006,
			"0.011": 1.826303175,
			"0.012": 1.90917857782,
			"0.013": 3.68363109498,
			"0.014": 4.65811607826,
			"0.015": 0.388100425277,
			"0.016": 0.0,
			"0.017": 0.0,
			"0.018": 0.0,
			"0.019": 0.0,
			"0.02": 0.0,
			"0.021": 0.0,
			"0.022": 0.0,
			"0.023": 0.0,
			"0.024": 0.0,
			"0.025": 0.0
		}
	}
}
