{
	 "smiles": "OC(=O)C=CC1=NC2=C(O1)C=CC=C2", 
	 "Tm": 497.15, 
	 "num_atms": 21, 
	 "gaussian": { 
		 "optdone": 1, 
		 "sigma_profile": "yes", 
		 "theory": "DFT", 
		 "functional": "B3LYP", 
		 "basiset": "6-31G**", 
		 "properties": { 
			 "R2extent": 4638.5568, 
			 "electric_dipole_moment_norm": 4.7046504461, 
			 "electric_quadrupole_moment_norm": 21.0012451455, 
			 "total_energy": -665.69575008, 
			 "HOMO_LUMO_gap": 0.14789, 
			 "cosmo_polarized_energy": -15.84, 
			 "cosmo_cavitation_energy": 27.26, 
			 "cosmo_dispersion_energy": -20.22, 
			 "cosmo_repulsion_energy": 1.58, 
			 "cosmo_total_nonelectrostatic_energy": 8.62, 
			 "SMD_solvation_energy": 4.62 
		},
		"coords": [
			{
				"x": -3.8343309689,
				"y": 1.2309047806,
				"z": -3.3845235079,
				"element": "O" 
			},
			{
				"x": -3.3507837239,
				"y": 0.0546421102,
				"z": -2.902967068,
				"element": "C" 
			},
			{
				"x": -3.5946515086,
				"y": -0.9825446171,
				"z": -3.4757189709,
				"element": "O" 
			},
			{
				"x": -2.5321944393,
				"y": 0.1536315162,
				"z": -1.6647787896,
				"element": "C" 
			},
			{
				"x": -2.0120246994,
				"y": -0.9568073508,
				"z": -1.1155555243,
				"element": "C" 
			},
			{
				"x": -1.2067992079,
				"y": -0.9473983994,
				"z": 0.0845374042,
				"element": "C" 
			},
			{
				"x": -0.8515834118,
				"y": 0.0690225619,
				"z": 0.8189576575,
				"element": "N" 
			},
			{
				"x": -0.0911464761,
				"y": -0.4872405138,
				"z": 1.837642687,
				"element": "C" 
			},
			{
				"x": -0.029107574,
				"y": -1.8784783895,
				"z": 1.6480674301,
				"element": "C" 
			},
			{
				"x": -0.7467150897,
				"y": -2.1728344684,
				"z": 0.5207845978,
				"element": "O" 
			},
			{
				"x": 0.6550147965,
				"y": -2.7439404236,
				"z": 2.4902991309,
				"element": "C" 
			},
			{
				"x": 1.3011146599,
				"y": -2.1448453858,
				"z": 3.5726579147,
				"element": "C" 
			},
			{
				"x": 1.2553878684,
				"y": -0.7518170347,
				"z": 3.7868690142,
				"element": "C" 
			},
			{
				"x": 0.562835789,
				"y": 0.0979239785,
				"z": 2.9289621224,
				"element": "C" 
			},
			{
				"x": -3.5570767159,
				"y": 1.9681286436,
				"z": -2.8228854056,
				"element": "H" 
			},
			{
				"x": -2.3515772824,
				"y": 1.120386017,
				"z": -1.200247396,
				"element": "H" 
			},
			{
				"x": -2.1972164781,
				"y": -1.9182462427,
				"z": -1.5858428358,
				"element": "H" 
			},
			{
				"x": 0.6839088263,
				"y": -3.8135903843,
				"z": 2.3165395739,
				"element": "H" 
			},
			{
				"x": 1.8538454093,
				"y": -2.7684897389,
				"z": 4.2684293521,
				"element": "H" 
			},
			{
				"x": 1.7752722504,
				"y": -0.3358947988,
				"z": 4.6443941337,
				"element": "H" 
			},
			{
				"x": 0.5248279761,
				"y": 1.1698881399,
				"z": 3.0895784797,
				"element": "H" 
			}
		],
		 "valence_orbital": [ 
			{
				"type": "occ",
				"energy": -0.30637,
				"method": "rhf"
			},
			{
				"type": "occ",
				"energy": -0.30323,
				"method": "rhf"
			},
			{
				"type": "occ",
				"energy": -0.27849,
				"method": "rhf"
			},
			{
				"type": "occ",
				"energy": -0.25824,
				"method": "rhf"
			},
			{
				"type": "occ",
				"energy": -0.24045,
				"method": "rhf"
			},
			{
				"type": "unocc",
				"energy": -0.09256,
				"method": "rhf"
			},
			{
				"type": "unocc",
				"energy": -0.01444,
				"method": "rhf"
			},
			{
				"type": "unocc",
				"energy": -0.00206,
				"method": "rhf"
			},
			{
				"type": "unocc",
				"energy": 0.04059,
				"method": "rhf"
			},
			{
				"type": "unocc",
				"energy": 0.05542,
				"method": "rhf"
			}
		],
		"cosmo_sigma_profile": { 
			"-0.025": 0.0,
			"-0.024": 0.0,
			"-0.023": 0.0,
			"-0.022": 0.0,
			"-0.021": 0.0,
			"-0.02": 0.308442572248,
			"-0.019": 1.57454600293,
			"-0.018": 1.00955332749,
			"-0.017": 1.10903582366,
			"-0.016": 1.20439051224,
			"-0.015": 1.20860980457,
			"-0.014": 1.28337273761,
			"-0.013": 0.786549063469,
			"-0.012": 0.612399893381,
			"-0.011": 1.16776562913,
			"-0.01": 1.14348645573,
			"-0.009": 1.08116331099,
			"-0.008": 3.40138824033,
			"-0.007": 7.14696165234,
			"-0.006": 10.8053101676,
			"-0.005": 11.8089622826,
			"-0.004": 12.5177341077,
			"-0.003": 16.0442828629,
			"-0.002": 13.9265698607,
			"-0.001": 13.0645224675,
			"0.0": 18.6133704282,
			"0.001": 14.946563825,
			"0.002": 15.1214096959,
			"0.003": 14.6738008458,
			"0.004": 12.857925373,
			"0.005": 5.64081915764,
			"0.006": 4.64254178239,
			"0.007": 4.2555238472,
			"0.008": 3.45375865094,
			"0.009": 4.8013024034,
			"0.01": 5.92418527358,
			"0.011": 6.38118062039,
			"0.012": 4.88877437566,
			"0.013": 2.30226384675,
			"0.014": 0.108255739906,
			"0.015": 0.0,
			"0.016": 0.0,
			"0.017": 0.0,
			"0.018": 0.0,
			"0.019": 0.0,
			"0.02": 0.0,
			"0.021": 0.0,
			"0.022": 0.0,
			"0.023": 0.0,
			"0.024": 0.0,
			"0.025": 0.0
		}
	}
}
