{
	 "smiles": "NC1=NN=C(S1)C1=CC=C(O1)N(=O)=O", 
	 "Tm": 553.15, 
	 "num_atms": 18, 
	 "gaussian": { 
		 "optdone": 1, 
		 "sigma_profile": "yes", 
		 "theory": "DFT", 
		 "functional": "B3LYP", 
		 "basiset": "6-31G**", 
		 "properties": { 
			 "R2extent": 3893.8409, 
			 "electric_dipole_moment_norm": 5.04427860154, 
			 "electric_quadrupole_moment_norm": 24.5592777318, 
			 "total_energy": -1073.75036792, 
			 "HOMO_LUMO_gap": 0.13158, 
			 "cosmo_polarized_energy": -18.96, 
			 "cosmo_cavitation_energy": 26.86, 
			 "cosmo_dispersion_energy": -20.19, 
			 "cosmo_repulsion_energy": 1.55, 
			 "cosmo_total_nonelectrostatic_energy": 8.23, 
			 "SMD_solvation_energy": 5.58 
		},
		"coords": [
			{
				"x": 1.2392919907,
				"y": -4.093310673,
				"z": 1.4412922683,
				"element": "N" 
			},
			{
				"x": 0.5351162455,
				"y": -2.9969904592,
				"z": 1.035745145,
				"element": "C" 
			},
			{
				"x": -0.7309449714,
				"y": -3.0514022057,
				"z": 0.6858477173,
				"element": "N" 
			},
			{
				"x": -1.2430008493,
				"y": -1.8312481114,
				"z": 0.3911344814,
				"element": "N" 
			},
			{
				"x": -0.3827482988,
				"y": -0.855366371,
				"z": 0.5009240737,
				"element": "C" 
			},
			{
				"x": 1.2244977173,
				"y": -1.37726069,
				"z": 1.0253545894,
				"element": "S" 
			},
			{
				"x": -0.7114207034,
				"y": 0.5185160485,
				"z": 0.216745065,
				"element": "C" 
			},
			{
				"x": -1.8788324552,
				"y": 1.1250976135,
				"z": -0.1976532352,
				"element": "C" 
			},
			{
				"x": -1.5911382669,
				"y": 2.5081879163,
				"z": -0.3080262803,
				"element": "C" 
			},
			{
				"x": -0.2745792767,
				"y": 2.6390820297,
				"z": 0.0457942106,
				"element": "C" 
			},
			{
				"x": 0.2775769388,
				"y": 1.4434076225,
				"z": 0.3681738142,
				"element": "O" 
			},
			{
				"x": 0.5594891195,
				"y": 3.7917557423,
				"z": 0.1201416154,
				"element": "N" 
			},
			{
				"x": 1.7296931348,
				"y": 3.6379344959,
				"z": 0.4699563332,
				"element": "O" 
			},
			{
				"x": 0.0215146945,
				"y": 4.8631863983,
				"z": -0.179814247,
				"element": "O" 
			},
			{
				"x": 0.773952044,
				"y": -4.9724591589,
				"z": 1.2583118952,
				"element": "H" 
			},
			{
				"x": 2.2401915176,
				"y": -4.0980304583,
				"z": 1.3173863854,
				"element": "H" 
			},
			{
				"x": -2.8122301164,
				"y": 0.619138313,
				"z": -0.3913673753,
				"element": "H" 
			},
			{
				"x": -2.2467284646,
				"y": 3.3117619473,
				"z": -0.6050464564,
				"element": "H" 
			}
		],
		 "valence_orbital": [ 
			{
				"type": "occ",
				"energy": -0.30677,
				"method": "rhf"
			},
			{
				"type": "occ",
				"energy": -0.29323,
				"method": "rhf"
			},
			{
				"type": "occ",
				"energy": -0.28608,
				"method": "rhf"
			},
			{
				"type": "occ",
				"energy": -0.27769,
				"method": "rhf"
			},
			{
				"type": "occ",
				"energy": -0.23232,
				"method": "rhf"
			},
			{
				"type": "unocc",
				"energy": -0.10074,
				"method": "rhf"
			},
			{
				"type": "unocc",
				"energy": -0.05113,
				"method": "rhf"
			},
			{
				"type": "unocc",
				"energy": -0.01946,
				"method": "rhf"
			},
			{
				"type": "unocc",
				"energy": 0.00886,
				"method": "rhf"
			},
			{
				"type": "unocc",
				"energy": 0.04169,
				"method": "rhf"
			}
		],
		"cosmo_sigma_profile": { 
			"-0.025": 0.0,
			"-0.024": 0.0,
			"-0.023": 0.0,
			"-0.022": 0.0,
			"-0.021": 0.0,
			"-0.02": 0.0,
			"-0.019": 0.0,
			"-0.018": 0.0,
			"-0.017": 0.0,
			"-0.016": 0.983737267905,
			"-0.015": 2.43997926691,
			"-0.014": 3.14572491248,
			"-0.013": 2.52073088939,
			"-0.012": 3.16908334141,
			"-0.011": 3.08440295829,
			"-0.01": 2.88728386329,
			"-0.009": 4.58897069051,
			"-0.008": 4.56720908366,
			"-0.007": 5.81240588226,
			"-0.006": 6.88999134323,
			"-0.005": 6.63219081746,
			"-0.004": 12.287838293,
			"-0.003": 13.4847621996,
			"-0.002": 17.5102209781,
			"-0.001": 19.6280683354,
			"0.0": 18.7968601349,
			"0.001": 11.7622202764,
			"0.002": 7.983572495,
			"0.003": 5.84487702808,
			"0.004": 5.40201608779,
			"0.005": 6.51406358784,
			"0.006": 5.4161597684,
			"0.007": 10.0131663175,
			"0.008": 14.0074906828,
			"0.009": 8.59613720907,
			"0.01": 5.98482931505,
			"0.011": 3.58250332423,
			"0.012": 2.42819550028,
			"0.013": 2.09669671005,
			"0.014": 0.824985285725,
			"0.015": 0.28093856221,
			"0.016": 0.0,
			"0.017": 0.0,
			"0.018": 0.0,
			"0.019": 0.0,
			"0.02": 0.0,
			"0.021": 0.0,
			"0.022": 0.0,
			"0.023": 0.0,
			"0.024": 0.0,
			"0.025": 0.0
		}
	}
}
