{
	 "smiles": "CC1=C(C)N=C(O1)C1=CC=C(N)C=C1", 
	 "Tm": 424.15, 
	 "num_atms": 26, 
	 "gaussian": { 
		 "optdone": 1, 
		 "sigma_profile": "yes", 
		 "theory": "DFT", 
		 "functional": "B3LYP", 
		 "basiset": "6-31G**", 
		 "properties": { 
			 "R2extent": 3952.0427, 
			 "electric_dipole_moment_norm": 2.05887862925, 
			 "electric_quadrupole_moment_norm": 21.1321937167, 
			 "total_energy": -611.144593693, 
			 "HOMO_LUMO_gap": 0.1651, 
			 "cosmo_polarized_energy": -12.41, 
			 "cosmo_cavitation_energy": 30.21, 
			 "cosmo_dispersion_energy": -22.22, 
			 "cosmo_repulsion_energy": 1.77, 
			 "cosmo_total_nonelectrostatic_energy": 9.76, 
			 "SMD_solvation_energy": 4.14 
		},
		"coords": [
			{
				"x": -3.1165555379,
				"y": 1.7942213618,
				"z": -2.164781988,
				"element": "C" 
			},
			{
				"x": -1.7802194186,
				"y": 1.4351390472,
				"z": -1.6242057572,
				"element": "C" 
			},
			{
				"x": -0.5948252286,
				"y": 2.0909669513,
				"z": -1.4680335139,
				"element": "C" 
			},
			{
				"x": -0.2290231499,
				"y": 3.5015858394,
				"z": -1.8212121331,
				"element": "C" 
			},
			{
				"x": 0.3283968156,
				"y": 1.2266881044,
				"z": -0.8894015273,
				"element": "N" 
			},
			{
				"x": -0.3125981984,
				"y": 0.1031614709,
				"z": -0.7178611409,
				"element": "C" 
			},
			{
				"x": -1.6088723828,
				"y": 0.1536816236,
				"z": -1.144179019,
				"element": "O" 
			},
			{
				"x": 0.1829088797,
				"y": -1.1412373916,
				"z": -0.1473288883,
				"element": "C" 
			},
			{
				"x": -0.6309466381,
				"y": -2.2797290692,
				"z": -0.0308905471,
				"element": "C" 
			},
			{
				"x": -0.1348875263,
				"y": -3.4572573312,
				"z": 0.5137165325,
				"element": "C" 
			},
			{
				"x": 1.1959059911,
				"y": -3.5366305697,
				"z": 0.9626675116,
				"element": "C" 
			},
			{
				"x": 1.6796587633,
				"y": -4.6980704669,
				"z": 1.5588535415,
				"element": "N" 
			},
			{
				"x": 2.0111278902,
				"y": -2.3941225904,
				"z": 0.8464641581,
				"element": "C" 
			},
			{
				"x": 1.5125944717,
				"y": -1.2202454216,
				"z": 0.3018821085,
				"element": "C" 
			},
			{
				"x": -3.3955352398,
				"y": 1.1577319632,
				"z": -3.0131763844,
				"element": "H" 
			},
			{
				"x": -3.1099761407,
				"y": 2.8317127326,
				"z": -2.5078218764,
				"element": "H" 
			},
			{
				"x": -3.9018329753,
				"y": 1.6923452919,
				"z": -1.4060570802,
				"element": "H" 
			},
			{
				"x": -0.3392410858,
				"y": 3.6993586138,
				"z": -2.8934377738,
				"element": "H" 
			},
			{
				"x": 0.8140712405,
				"y": 3.6776881621,
				"z": -1.5509493918,
				"element": "H" 
			},
			{
				"x": -0.8455672505,
				"y": 4.2328809328,
				"z": -1.2864344226,
				"element": "H" 
			},
			{
				"x": -1.6594823381,
				"y": -2.2381382484,
				"z": -0.3737851312,
				"element": "H" 
			},
			{
				"x": -0.7809214874,
				"y": -4.327621546,
				"z": 0.598995736,
				"element": "H" 
			},
			{
				"x": 1.1940483746,
				"y": -5.5499936693,
				"z": 1.3156135894,
				"element": "H" 
			},
			{
				"x": 2.6836301982,
				"y": -4.8105577457,
				"z": 1.545902911,
				"element": "H" 
			},
			{
				"x": 3.0412169222,
				"y": -2.4356209007,
				"z": 1.1921186637,
				"element": "H" 
			},
			{
				"x": 2.145725051,
				"y": -0.3437371445,
				"z": 0.212441823,
				"element": "H" 
			}
		],
		 "valence_orbital": [ 
			{
				"type": "occ",
				"energy": -0.2914,
				"method": "rhf"
			},
			{
				"type": "occ",
				"energy": -0.26796,
				"method": "rhf"
			},
			{
				"type": "occ",
				"energy": -0.24715,
				"method": "rhf"
			},
			{
				"type": "occ",
				"energy": -0.23367,
				"method": "rhf"
			},
			{
				"type": "occ",
				"energy": -0.18409,
				"method": "rhf"
			},
			{
				"type": "unocc",
				"energy": -0.01899,
				"method": "rhf"
			},
			{
				"type": "unocc",
				"energy": 0.00412,
				"method": "rhf"
			},
			{
				"type": "unocc",
				"energy": 0.04804,
				"method": "rhf"
			},
			{
				"type": "unocc",
				"energy": 0.07695,
				"method": "rhf"
			},
			{
				"type": "unocc",
				"energy": 0.09555,
				"method": "rhf"
			}
		],
		"cosmo_sigma_profile": { 
			"-0.025": 0.0,
			"-0.024": 0.0,
			"-0.023": 0.0,
			"-0.022": 0.0,
			"-0.021": 0.0,
			"-0.02": 0.0,
			"-0.019": 0.0,
			"-0.018": 0.0,
			"-0.017": 0.0,
			"-0.016": 0.0,
			"-0.015": 0.0,
			"-0.014": 0.0,
			"-0.013": 0.901635117271,
			"-0.012": 3.07720572718,
			"-0.011": 2.34659451394,
			"-0.01": 3.61846065999,
			"-0.009": 3.06335777417,
			"-0.008": 3.17281135983,
			"-0.007": 3.4140748115,
			"-0.006": 4.69926956123,
			"-0.005": 12.2298627361,
			"-0.004": 19.8558912585,
			"-0.003": 19.5638813339,
			"-0.002": 18.7563004449,
			"-0.001": 20.6878962492,
			"0.0": 17.285640366,
			"0.001": 16.6865199021,
			"0.002": 16.3276360393,
			"0.003": 15.97237526,
			"0.004": 14.7803790351,
			"0.005": 16.2535838886,
			"0.006": 10.0389278699,
			"0.007": 3.84569869552,
			"0.008": 2.48661226444,
			"0.009": 1.60266705619,
			"0.01": 1.94749410291,
			"0.011": 1.86803510939,
			"0.012": 1.6057492033,
			"0.013": 1.72760450491,
			"0.014": 1.42038817044,
			"0.015": 0.67218310615,
			"0.016": 0.0,
			"0.017": 0.0,
			"0.018": 0.0,
			"0.019": 0.0,
			"0.02": 0.0,
			"0.021": 0.0,
			"0.022": 0.0,
			"0.023": 0.0,
			"0.024": 0.0,
			"0.025": 0.0
		}
	}
}
