{
	 "smiles": "CC(=N/NC1=NC(C)=CC(C)=N1)C1=CC=CC=C1C", 
	 "Tm": 449.15, 
	 "num_atms": 37, 
	 "gaussian": { 
		 "optdone": 1, 
		 "sigma_profile": "yes", 
		 "theory": "DFT", 
		 "functional": "B3LYP", 
		 "basiset": "6-31G**", 
		 "properties": { 
			 "R2extent": 7236.7931, 
			 "electric_dipole_moment_norm": 1.86738609291, 
			 "electric_quadrupole_moment_norm": 9.11276457888, 
			 "total_energy": -801.446856676, 
			 "HOMO_LUMO_gap": 0.17192, 
			 "cosmo_polarized_energy": -10.37, 
			 "cosmo_cavitation_energy": 39.96, 
			 "cosmo_dispersion_energy": -28.03, 
			 "cosmo_repulsion_energy": 2.18, 
			 "cosmo_total_nonelectrostatic_energy": 14.1, 
			 "SMD_solvation_energy": 4.66 
		},
		"coords": [
			{
				"x": 0.4851091356,
				"y": -2.1640838664,
				"z": 0.4282685517,
				"element": "C" 
			},
			{
				"x": 0.9588816876,
				"y": -1.3827228814,
				"z": -0.7725682211,
				"element": "C" 
			},
			{
				"x": 0.4388504374,
				"y": -0.2742164155,
				"z": -1.1788900225,
				"element": "N" 
			},
			{
				"x": -0.6039559478,
				"y": 0.2699949975,
				"z": -0.408017505,
				"element": "N" 
			},
			{
				"x": -0.3843807537,
				"y": 0.9375089409,
				"z": 0.7894418818,
				"element": "C" 
			},
			{
				"x": -1.3390844314,
				"y": 1.8408870949,
				"z": 1.0882813562,
				"element": "N" 
			},
			{
				"x": -1.1952122593,
				"y": 2.4951701182,
				"z": 2.2435968917,
				"element": "C" 
			},
			{
				"x": -2.2647076405,
				"y": 3.4982655537,
				"z": 2.5890410173,
				"element": "C" 
			},
			{
				"x": -0.098520807,
				"y": 2.2596342237,
				"z": 3.083599322,
				"element": "C" 
			},
			{
				"x": 0.8385057208,
				"y": 1.3114988279,
				"z": 2.6711506795,
				"element": "C" 
			},
			{
				"x": 2.0588985005,
				"y": 0.9847209083,
				"z": 3.4907764001,
				"element": "C" 
			},
			{
				"x": 0.6978583252,
				"y": 0.6376655832,
				"z": 1.5182900688,
				"element": "N" 
			},
			{
				"x": 2.0908115248,
				"y": -1.9319490802,
				"z": -1.5746933783,
				"element": "C" 
			},
			{
				"x": 3.068232619,
				"y": -2.6743878057,
				"z": -0.8874773014,
				"element": "C" 
			},
			{
				"x": 4.175139405,
				"y": -3.2137472323,
				"z": -1.5370189995,
				"element": "C" 
			},
			{
				"x": 4.3137103314,
				"y": -3.0318756698,
				"z": -2.9110911953,
				"element": "C" 
			},
			{
				"x": 3.3449732452,
				"y": -2.311146957,
				"z": -3.6081039038,
				"element": "C" 
			},
			{
				"x": 2.2306941782,
				"y": -1.7442894669,
				"z": -2.9750541439,
				"element": "C" 
			},
			{
				"x": 1.2362186753,
				"y": -0.9886829146,
				"z": -3.8249626369,
				"element": "C" 
			},
			{
				"x": 1.0365019893,
				"y": -1.8725180426,
				"z": 1.326378309,
				"element": "H" 
			},
			{
				"x": -0.5681015411,
				"y": -1.9365796178,
				"z": 0.6115667707,
				"element": "H" 
			},
			{
				"x": 0.6056526974,
				"y": -3.237207207,
				"z": 0.2628405296,
				"element": "H" 
			},
			{
				"x": -1.2221735497,
				"y": 0.8170451531,
				"z": -0.9955988151,
				"element": "H" 
			},
			{
				"x": -2.3660879222,
				"y": 4.232999931,
				"z": 1.7842173462,
				"element": "H" 
			},
			{
				"x": -2.0444084042,
				"y": 4.0216459676,
				"z": 3.5224457158,
				"element": "H" 
			},
			{
				"x": -3.2332671309,
				"y": 2.9966840009,
				"z": 2.6866012913,
				"element": "H" 
			},
			{
				"x": 0.0211608986,
				"y": 2.8002966096,
				"z": 4.0155582827,
				"element": "H" 
			},
			{
				"x": 2.0283341856,
				"y": -0.0620884266,
				"z": 3.8124404518,
				"element": "H" 
			},
			{
				"x": 2.1357232091,
				"y": 1.6198500251,
				"z": 4.3764631723,
				"element": "H" 
			},
			{
				"x": 2.961910782,
				"y": 1.1063878526,
				"z": 2.8845490666,
				"element": "H" 
			},
			{
				"x": 2.9675493677,
				"y": -2.8156246103,
				"z": 0.1835987042,
				"element": "H" 
			},
			{
				"x": 4.9174796199,
				"y": -3.7715585615,
				"z": -0.9737185205,
				"element": "H" 
			},
			{
				"x": 5.1646497476,
				"y": -3.4510166023,
				"z": -3.4406950433,
				"element": "H" 
			},
			{
				"x": 3.4490680284,
				"y": -2.1824074388,
				"z": -4.6825342061,
				"element": "H" 
			},
			{
				"x": 1.4361474468,
				"y": -1.1672473361,
				"z": -4.8857550336,
				"element": "H" 
			},
			{
				"x": 1.284891438,
				"y": 0.0863621001,
				"z": -3.6329717544,
				"element": "H" 
			},
			{
				"x": 0.2066471911,
				"y": -1.2876677556,
				"z": -3.6093551286,
				"element": "H" 
			}
		],
		 "valence_orbital": [ 
			{
				"type": "occ",
				"energy": -0.27067,
				"method": "rhf"
			},
			{
				"type": "occ",
				"energy": -0.24346,
				"method": "rhf"
			},
			{
				"type": "occ",
				"energy": -0.24113,
				"method": "rhf"
			},
			{
				"type": "occ",
				"energy": -0.23477,
				"method": "rhf"
			},
			{
				"type": "occ",
				"energy": -0.20229,
				"method": "rhf"
			},
			{
				"type": "unocc",
				"energy": -0.03037,
				"method": "rhf"
			},
			{
				"type": "unocc",
				"energy": -0.02671,
				"method": "rhf"
			},
			{
				"type": "unocc",
				"energy": 0.00545,
				"method": "rhf"
			},
			{
				"type": "unocc",
				"energy": 0.00789,
				"method": "rhf"
			},
			{
				"type": "unocc",
				"energy": 0.043,
				"method": "rhf"
			}
		],
		"cosmo_sigma_profile": { 
			"-0.025": 0.0,
			"-0.024": 0.0,
			"-0.023": 0.0,
			"-0.022": 0.0,
			"-0.021": 0.0,
			"-0.02": 0.0,
			"-0.019": 0.0,
			"-0.018": 0.0,
			"-0.017": 0.0,
			"-0.016": 0.0,
			"-0.015": 0.0,
			"-0.014": 0.0,
			"-0.013": 0.4298929499,
			"-0.012": 0.937243827356,
			"-0.011": 0.747140839109,
			"-0.01": 0.51482124988,
			"-0.009": 0.945270392659,
			"-0.008": 0.333689032462,
			"-0.007": 0.824763003872,
			"-0.006": 7.17568440762,
			"-0.005": 21.2107969328,
			"-0.004": 27.8956672856,
			"-0.003": 29.1500008778,
			"-0.002": 27.253325041,
			"-0.001": 36.8311933702,
			"0.0": 38.6516639934,
			"0.001": 27.7644527409,
			"0.002": 20.8148923111,
			"0.003": 17.6702645154,
			"0.004": 14.2308441696,
			"0.005": 14.9548263046,
			"0.006": 8.95574933532,
			"0.007": 4.13718935482,
			"0.008": 3.28811839017,
			"0.009": 3.31511748696,
			"0.01": 3.39692824767,
			"0.011": 2.44318549133,
			"0.012": 1.22868375522,
			"0.013": 0.7697440694,
			"0.014": 0.36907703138,
			"0.015": 0.237980997439,
			"0.016": 0.0,
			"0.017": 0.0,
			"0.018": 0.0,
			"0.019": 0.0,
			"0.02": 0.0,
			"0.021": 0.0,
			"0.022": 0.0,
			"0.023": 0.0,
			"0.024": 0.0,
			"0.025": 0.0
		}
	}
}
