{
	 "smiles": "COC1=CC2=C(CC3=CC(OC)=C(OC)C=C3CC3=CC(OC)=C(OC)C=C3C2)C=C1OC", 
	 "Tm": 498.15, 
	 "num_atms": 63, 
	 "gaussian": { 
		 "optdone": 1, 
		 "sigma_profile": "yes", 
		 "theory": "DFT", 
		 "functional": "B3LYP", 
		 "basiset": "6-31G**", 
		 "properties": { 
			 "R2extent": 18305.7253, 
			 "electric_dipole_moment_norm": 0.0859822074618, 
			 "electric_quadrupole_moment_norm": 10.1531795941, 
			 "total_energy": -1498.20489599, 
			 "HOMO_LUMO_gap": 0.2085, 
			 "cosmo_polarized_energy": -15.05, 
			 "cosmo_cavitation_energy": 62.83, 
			 "cosmo_dispersion_energy": -41.88, 
			 "cosmo_repulsion_energy": 3.19, 
			 "cosmo_total_nonelectrostatic_energy": 24.15, 
			 "SMD_solvation_energy": 13.98 
		},
		"coords": [
			{
				"x": 1.5822327255,
				"y": -4.7364388191,
				"z": -3.8258020134,
				"element": "C" 
			},
			{
				"x": 1.3511492977,
				"y": -4.2660847745,
				"z": -2.4931372563,
				"element": "O" 
			},
			{
				"x": 0.7373698427,
				"y": -3.0342000692,
				"z": -2.4160345348,
				"element": "C" 
			},
			{
				"x": 1.4456387817,
				"y": -1.9536593122,
				"z": -1.9022992706,
				"element": "C" 
			},
			{
				"x": 0.8847094866,
				"y": -0.6737851251,
				"z": -1.7763279324,
				"element": "C" 
			},
			{
				"x": -0.4474983735,
				"y": -0.4723621762,
				"z": -2.1867199897,
				"element": "C" 
			},
			{
				"x": -1.1816104441,
				"y": 0.8676263981,
				"z": -2.2316530551,
				"element": "C" 
			},
			{
				"x": -0.9972176799,
				"y": 1.98147994,
				"z": -1.2010182739,
				"element": "C" 
			},
			{
				"x": -1.126024056,
				"y": 3.2927760198,
				"z": -1.690986408,
				"element": "C" 
			},
			{
				"x": -1.0820510693,
				"y": 4.4115569928,
				"z": -0.8655104935,
				"element": "C" 
			},
			{
				"x": -1.2461709287,
				"y": 5.6613457698,
				"z": -1.4234839964,
				"element": "O" 
			},
			{
				"x": -0.0825718095,
				"y": 6.4952574934,
				"z": -1.3756787099,
				"element": "C" 
			},
			{
				"x": -0.9106395978,
				"y": 4.2302540366,
				"z": 0.5180817532,
				"element": "C" 
			},
			{
				"x": -0.8452114298,
				"y": 5.2950405513,
				"z": 1.3911461739,
				"element": "O" 
			},
			{
				"x": -2.0766015642,
				"y": 6.0064261626,
				"z": 1.5591533606,
				"element": "C" 
			},
			{
				"x": -0.7554293991,
				"y": 2.9387889344,
				"z": 1.0090201689,
				"element": "C" 
			},
			{
				"x": -0.7930652182,
				"y": 1.8062926181,
				"z": 0.1814927114,
				"element": "C" 
			},
			{
				"x": -0.565481665,
				"y": 0.4544685059,
				"z": 0.8440434252,
				"element": "C" 
			},
			{
				"x": 0.883158853,
				"y": 0.2332716936,
				"z": 1.2643571401,
				"element": "C" 
			},
			{
				"x": 1.1655591455,
				"y": 0.0540693335,
				"z": 2.6231366155,
				"element": "C" 
			},
			{
				"x": 2.4633452435,
				"y": -0.1378627145,
				"z": 3.0977177311,
				"element": "C" 
			},
			{
				"x": 2.6582110301,
				"y": -0.3333333987,
				"z": 4.4488565016,
				"element": "O" 
			},
			{
				"x": 3.3561961554,
				"y": 0.7276711939,
				"z": 5.1106316641,
				"element": "C" 
			},
			{
				"x": 3.524904364,
				"y": -0.1649846062,
				"z": 2.1817408201,
				"element": "C" 
			},
			{
				"x": 4.8331853692,
				"y": -0.3346640852,
				"z": 2.5834440561,
				"element": "O" 
			},
			{
				"x": 5.1373103669,
				"y": -1.6388047369,
				"z": 3.0909903043,
				"element": "C" 
			},
			{
				"x": 3.2535411911,
				"y": 0.0244975637,
				"z": 0.8264480719,
				"element": "C" 
			},
			{
				"x": 1.9563808604,
				"y": 0.2295270661,
				"z": 0.3432342528,
				"element": "C" 
			},
			{
				"x": 1.7574993082,
				"y": 0.4094493998,
				"z": -1.1575121727,
				"element": "C" 
			},
			{
				"x": -1.1633900661,
				"y": -1.5771409641,
				"z": -2.6796826706,
				"element": "C" 
			},
			{
				"x": -0.6027432936,
				"y": -2.8448662145,
				"z": -2.7965713708,
				"element": "C" 
			},
			{
				"x": -1.3656287752,
				"y": -3.8681592807,
				"z": -3.3173692825,
				"element": "O" 
			},
			{
				"x": -1.6919634171,
				"y": -4.9052304634,
				"z": -2.3848067157,
				"element": "C" 
			},
			{
				"x": 2.2543707443,
				"y": -4.0574662778,
				"z": -4.3658912649,
				"element": "H" 
			},
			{
				"x": 2.0609023712,
				"y": -5.7131071553,
				"z": -3.7274008098,
				"element": "H" 
			},
			{
				"x": 0.6452710055,
				"y": -4.8377972219,
				"z": -4.3824474763,
				"element": "H" 
			},
			{
				"x": 2.4711370443,
				"y": -2.1276825153,
				"z": -1.5883865715,
				"element": "H" 
			},
			{
				"x": -2.2542399791,
				"y": 0.6332795594,
				"z": -2.2618193147,
				"element": "H" 
			},
			{
				"x": -0.9727799716,
				"y": 1.3148329251,
				"z": -3.2128710413,
				"element": "H" 
			},
			{
				"x": -1.2701255523,
				"y": 3.4663456008,
				"z": -2.7539500115,
				"element": "H" 
			},
			{
				"x": 0.2413436884,
				"y": 6.6710173768,
				"z": -0.3451693647,
				"element": "H" 
			},
			{
				"x": 0.7410040002,
				"y": 6.0444046861,
				"z": -1.9438651202,
				"element": "H" 
			},
			{
				"x": -0.3648693959,
				"y": 7.441932868,
				"z": -1.8412579338,
				"element": "H" 
			},
			{
				"x": -2.8498203379,
				"y": 5.3500846938,
				"z": 1.9784557487,
				"element": "H" 
			},
			{
				"x": -1.8699939703,
				"y": 6.81455668,
				"z": 2.2640821169,
				"element": "H" 
			},
			{
				"x": -2.4302427541,
				"y": 6.423621519,
				"z": 0.6110322978,
				"element": "H" 
			},
			{
				"x": -0.596405463,
				"y": 2.8223279925,
				"z": 2.0774782835,
				"element": "H" 
			},
			{
				"x": -1.1900043112,
				"y": 0.3981775826,
				"z": 1.7420995922,
				"element": "H" 
			},
			{
				"x": -0.8971887128,
				"y": -0.3547616696,
				"z": 0.1908058935,
				"element": "H" 
			},
			{
				"x": 0.3621714743,
				"y": 0.0608155261,
				"z": 3.3546176013,
				"element": "H" 
			},
			{
				"x": 4.3555491908,
				"y": 0.8729838463,
				"z": 4.6885522744,
				"element": "H" 
			},
			{
				"x": 3.4370791514,
				"y": 0.4339963438,
				"z": 6.1594617195,
				"element": "H" 
			},
			{
				"x": 2.7922514702,
				"y": 1.6665209846,
				"z": 5.040440856,
				"element": "H" 
			},
			{
				"x": 4.5284169289,
				"y": -1.8782988273,
				"z": 3.9684033202,
				"element": "H" 
			},
			{
				"x": 4.9783643571,
				"y": -2.4026047265,
				"z": 2.3191489871,
				"element": "H" 
			},
			{
				"x": 6.193663666,
				"y": -1.6212703102,
				"z": 3.3678264105,
				"element": "H" 
			},
			{
				"x": 4.0965943171,
				"y": 0.0081131818,
				"z": 0.1412266627,
				"element": "H" 
			},
			{
				"x": 2.7426965469,
				"y": 0.3770303013,
				"z": -1.6350476694,
				"element": "H" 
			},
			{
				"x": 1.3487729355,
				"y": 1.3994395571,
				"z": -1.3684985593,
				"element": "H" 
			},
			{
				"x": -2.1977766726,
				"y": -1.4618428871,
				"z": -2.9919641327,
				"element": "H" 
			},
			{
				"x": -2.2923311404,
				"y": -4.5071751284,
				"z": -1.5568648726,
				"element": "H" 
			},
			{
				"x": -0.7912773252,
				"y": -5.380420861,
				"z": -1.9839168215,
				"element": "H" 
			},
			{
				"x": -2.2827265398,
				"y": -5.6390765779,
				"z": -2.9371814042,
				"element": "H" 
			}
		],
		 "valence_orbital": [ 
			{
				"type": "occ",
				"energy": -0.23591,
				"method": "rhf"
			},
			{
				"type": "occ",
				"energy": -0.23494,
				"method": "rhf"
			},
			{
				"type": "occ",
				"energy": -0.22118,
				"method": "rhf"
			},
			{
				"type": "occ",
				"energy": -0.21478,
				"method": "rhf"
			},
			{
				"type": "occ",
				"energy": -0.21204,
				"method": "rhf"
			},
			{
				"type": "unocc",
				"energy": -0.00354,
				"method": "rhf"
			},
			{
				"type": "unocc",
				"energy": -0.00305,
				"method": "rhf"
			},
			{
				"type": "unocc",
				"energy": 0.00116,
				"method": "rhf"
			},
			{
				"type": "unocc",
				"energy": 0.0038,
				"method": "rhf"
			},
			{
				"type": "unocc",
				"energy": 0.01,
				"method": "rhf"
			}
		],
		"cosmo_sigma_profile": { 
			"-0.025": 0.0,
			"-0.024": 0.0,
			"-0.023": 0.0,
			"-0.022": 0.0,
			"-0.021": 0.0,
			"-0.02": 0.0,
			"-0.019": 0.0,
			"-0.018": 0.0,
			"-0.017": 0.0,
			"-0.016": 0.0,
			"-0.015": 0.0,
			"-0.014": 0.0,
			"-0.013": 0.0,
			"-0.012": 0.0,
			"-0.011": 0.0,
			"-0.01": 0.0,
			"-0.009": 0.0,
			"-0.008": 0.0,
			"-0.007": 0.351726820463,
			"-0.006": 10.5778729035,
			"-0.005": 34.4660042446,
			"-0.004": 48.2187421949,
			"-0.003": 62.0091843553,
			"-0.002": 68.1578427821,
			"-0.001": 46.1534533991,
			"0.0": 40.6941105751,
			"0.001": 30.3503772938,
			"0.002": 27.7745189973,
			"0.003": 28.4700855202,
			"0.004": 32.2208834689,
			"0.005": 22.8950177604,
			"0.006": 7.98437490761,
			"0.007": 7.05239296285,
			"0.008": 5.75953784727,
			"0.009": 5.44289827518,
			"0.01": 5.64358276528,
			"0.011": 6.61289772852,
			"0.012": 4.95879917565,
			"0.013": 0.235937349919,
			"0.014": 0.0,
			"0.015": 0.0,
			"0.016": 0.0,
			"0.017": 0.0,
			"0.018": 0.0,
			"0.019": 0.0,
			"0.02": 0.0,
			"0.021": 0.0,
			"0.022": 0.0,
			"0.023": 0.0,
			"0.024": 0.0,
			"0.025": 0.0
		}
	}
}
