{
	 "smiles": "BrCC1=CC(=CC=C1)C#N", 
	 "Tm": 367.15, 
	 "num_atms": 16, 
	 "gaussian": { 
		 "optdone": 1, 
		 "sigma_profile": "yes", 
		 "theory": "DFT", 
		 "functional": "B3LYP", 
		 "basiset": "6-31G**", 
		 "properties": { 
			 "R2extent": 2841.8183, 
			 "electric_dipole_moment_norm": 4.26683660104, 
			 "electric_quadrupole_moment_norm": 17.1075468753, 
			 "total_energy": -2934.61110729, 
			 "HOMO_LUMO_gap": 0.20459, 
			 "cosmo_polarized_energy": -11.34, 
			 "cosmo_cavitation_energy": 23.91, 
			 "cosmo_dispersion_energy": -17.08, 
			 "cosmo_repulsion_energy": 1.4, 
			 "cosmo_total_nonelectrostatic_energy": 8.23, 
			 "SMD_solvation_energy": 4.28 
		},
		"coords": [
			{
				"x": 1.8053006018,
				"y": -0.8917204372,
				"z": 1.8786110695,
				"element": "Br" 
			},
			{
				"x": 0.6440206084,
				"y": -1.590878683,
				"z": 0.4074418781,
				"element": "C" 
			},
			{
				"x": 0.5923854676,
				"y": -0.6544289095,
				"z": -0.758014159,
				"element": "C" 
			},
			{
				"x": -0.4355580121,
				"y": 0.286545822,
				"z": -0.862064877,
				"element": "C" 
			},
			{
				"x": -0.4918045342,
				"y": 1.1552779921,
				"z": -1.9628341665,
				"element": "C" 
			},
			{
				"x": 0.488189007,
				"y": 1.0862299541,
				"z": -2.9667838961,
				"element": "C" 
			},
			{
				"x": 1.5133865112,
				"y": 0.149297509,
				"z": -2.8598449099,
				"element": "C" 
			},
			{
				"x": 1.5660809112,
				"y": -0.7134039813,
				"z": -1.7658531952,
				"element": "C" 
			},
			{
				"x": -1.5568056124,
				"y": 2.1115544081,
				"z": -2.0640166497,
				"element": "C" 
			},
			{
				"x": -2.4210039916,
				"y": 2.8853885575,
				"z": -2.1484167485,
				"element": "N" 
			},
			{
				"x": -0.3297783634,
				"y": -1.7365758027,
				"z": 0.8710126551,
				"element": "H" 
			},
			{
				"x": 1.081670864,
				"y": -2.5539180522,
				"z": 0.1507643577,
				"element": "H" 
			},
			{
				"x": -1.1966948135,
				"y": 0.3524975159,
				"z": -0.0909331582,
				"element": "H" 
			},
			{
				"x": 0.4367916245,
				"y": 1.7604248008,
				"z": -3.8148427725,
				"element": "H" 
			},
			{
				"x": 2.2725241209,
				"y": 0.0906230119,
				"z": -3.6333695514,
				"element": "H" 
			},
			{
				"x": 2.3714956106,
				"y": -1.4384137055,
				"z": -1.6871558766,
				"element": "H" 
			}
		],
		 "valence_orbital": [ 
			{
				"type": "occ",
				"energy": -0.33612,
				"method": "rhf"
			},
			{
				"type": "occ",
				"energy": -0.28897,
				"method": "rhf"
			},
			{
				"type": "occ",
				"energy": -0.28371,
				"method": "rhf"
			},
			{
				"type": "occ",
				"energy": -0.27665,
				"method": "rhf"
			},
			{
				"type": "occ",
				"energy": -0.26932,
				"method": "rhf"
			},
			{
				"type": "unocc",
				"energy": -0.06473,
				"method": "rhf"
			},
			{
				"type": "unocc",
				"energy": -0.04988,
				"method": "rhf"
			},
			{
				"type": "unocc",
				"energy": 0.00544,
				"method": "rhf"
			},
			{
				"type": "unocc",
				"energy": 0.03122,
				"method": "rhf"
			},
			{
				"type": "unocc",
				"energy": 0.065,
				"method": "rhf"
			}
		],
		"cosmo_sigma_profile": { 
			"-0.025": 0.0,
			"-0.024": 0.0,
			"-0.023": 0.0,
			"-0.022": 0.0,
			"-0.021": 0.0,
			"-0.02": 0.0,
			"-0.019": 0.0,
			"-0.018": 0.0,
			"-0.017": 0.0,
			"-0.016": 0.0,
			"-0.015": 0.0,
			"-0.014": 0.0,
			"-0.013": 0.0,
			"-0.012": 0.0,
			"-0.011": 0.0,
			"-0.01": 0.0160122191771,
			"-0.009": 2.226907402,
			"-0.008": 11.1088905184,
			"-0.007": 13.5051447434,
			"-0.006": 12.7039761447,
			"-0.005": 11.0867840607,
			"-0.004": 9.00930041033,
			"-0.003": 8.50589406286,
			"-0.002": 11.8187689774,
			"-0.001": 12.7940310456,
			"0.0": 11.4864130237,
			"0.001": 15.7745338795,
			"0.002": 15.4540315686,
			"0.003": 9.51247543964,
			"0.004": 6.97058304485,
			"0.005": 10.1742898665,
			"0.006": 13.0787205476,
			"0.007": 4.48695186843,
			"0.008": 3.31366664759,
			"0.009": 3.40256635027,
			"0.01": 3.14828020218,
			"0.011": 2.84058345832,
			"0.012": 2.29103109,
			"0.013": 1.42596153672,
			"0.014": 0.0302295586603,
			"0.015": 0.0,
			"0.016": 0.0,
			"0.017": 0.0,
			"0.018": 0.0,
			"0.019": 0.0,
			"0.02": 0.0,
			"0.021": 0.0,
			"0.022": 0.0,
			"0.023": 0.0,
			"0.024": 0.0,
			"0.025": 0.0
		}
	}
}
