{
	 "smiles": "COC(=O)NC1=NC2=C(N1)C=CC(SC1=CC=CC=C1)=C2", 
	 "Tm": 506.15, 
	 "num_atms": 34, 
	 "gaussian": { 
		 "optdone": 1, 
		 "sigma_profile": "yes", 
		 "theory": "DFT", 
		 "functional": "B3LYP", 
		 "basiset": "6-31G**", 
		 "properties": { 
			 "R2extent": 10859.2935, 
			 "electric_dipole_moment_norm": 3.70060413581, 
			 "electric_quadrupole_moment_norm": 14.7513175788, 
			 "total_energy": -1292.34201837, 
			 "HOMO_LUMO_gap": 0.17752, 
			 "cosmo_polarized_energy": -23.37, 
			 "cosmo_cavitation_energy": 41.44, 
			 "cosmo_dispersion_energy": -30.06, 
			 "cosmo_repulsion_energy": 2.28, 
			 "cosmo_total_nonelectrostatic_energy": 13.65, 
			 "SMD_solvation_energy": 6.31 
		},
		"coords": [
			{
				"x": -4.0541386479,
				"y": -4.2517556343,
				"z": -1.4085675178,
				"element": "C" 
			},
			{
				"x": -3.0341783105,
				"y": -3.2495972363,
				"z": -1.5483143966,
				"element": "O" 
			},
			{
				"x": -3.2552031507,
				"y": -2.3579161596,
				"z": -2.5210185836,
				"element": "C" 
			},
			{
				"x": -4.1936147951,
				"y": -2.3620944151,
				"z": -3.2923943069,
				"element": "O" 
			},
			{
				"x": -2.2410574949,
				"y": -1.4095210232,
				"z": -2.6067487342,
				"element": "N" 
			},
			{
				"x": -1.2640099356,
				"y": -1.1025337544,
				"z": -1.6626936966,
				"element": "C" 
			},
			{
				"x": -1.3535716594,
				"y": -1.1894200601,
				"z": -0.3629042205,
				"element": "N" 
			},
			{
				"x": -0.1179603358,
				"y": -0.7553742872,
				"z": 0.1010598572,
				"element": "C" 
			},
			{
				"x": 0.7166182882,
				"y": -0.3719049312,
				"z": -0.9759140489,
				"element": "C" 
			},
			{
				"x": -0.0516475951,
				"y": -0.6010417488,
				"z": -2.1069712983,
				"element": "N" 
			},
			{
				"x": 2.0084590221,
				"y": 0.1190003283,
				"z": -0.7868432416,
				"element": "C" 
			},
			{
				"x": 2.4624559375,
				"y": 0.2095100998,
				"z": 0.5258583736,
				"element": "C" 
			},
			{
				"x": 1.6404299914,
				"y": -0.154125665,
				"z": 1.6175760369,
				"element": "C" 
			},
			{
				"x": 2.292673304,
				"y": -0.0894244516,
				"z": 3.2872157463,
				"element": "S" 
			},
			{
				"x": 2.4104794695,
				"y": 1.66866275,
				"z": 3.6301835584,
				"element": "C" 
			},
			{
				"x": 1.6049757288,
				"y": 2.6299306885,
				"z": 3.0071698071,
				"element": "C" 
			},
			{
				"x": 1.726790877,
				"y": 3.9741908264,
				"z": 3.3613546279,
				"element": "C" 
			},
			{
				"x": 2.633995035,
				"y": 4.3713957891,
				"z": 4.3454045198,
				"element": "C" 
			},
			{
				"x": 3.4295750268,
				"y": 3.4103739889,
				"z": 4.9723580493,
				"element": "C" 
			},
			{
				"x": 3.3274123878,
				"y": 2.0665540764,
				"z": 4.6135580934,
				"element": "C" 
			},
			{
				"x": 0.3450212894,
				"y": -0.6367798319,
				"z": 1.4160335535,
				"element": "C" 
			},
			{
				"x": -5.0208197216,
				"y": -3.7888719725,
				"z": -1.1974240297,
				"element": "H" 
			},
			{
				"x": -4.1357696607,
				"y": -4.8487659271,
				"z": -2.3201740816,
				"element": "H" 
			},
			{
				"x": -3.7351968876,
				"y": -4.870676327,
				"z": -0.5706748383,
				"element": "H" 
			},
			{
				"x": -2.4059963029,
				"y": -0.7447335057,
				"z": -3.3501891486,
				"element": "H" 
			},
			{
				"x": 0.2648233424,
				"y": -0.5905491486,
				"z": -3.0643924973,
				"element": "H" 
			},
			{
				"x": 2.6442389055,
				"y": 0.4061465265,
				"z": -1.6188102298,
				"element": "H" 
			},
			{
				"x": 3.4673511393,
				"y": 0.5670762653,
				"z": 0.7227043359,
				"element": "H" 
			},
			{
				"x": 0.888733855,
				"y": 2.32902976,
				"z": 2.2501420421,
				"element": "H" 
			},
			{
				"x": 1.1000435936,
				"y": 4.7128213484,
				"z": 2.8689437368,
				"element": "H" 
			},
			{
				"x": 2.7212983865,
				"y": 5.4184902888,
				"z": 4.6195957795,
				"element": "H" 
			},
			{
				"x": 4.143370259,
				"y": 3.706464011,
				"z": 5.7361153364,
				"element": "H" 
			},
			{
				"x": 3.9627522372,
				"y": 1.3255829695,
				"z": 5.0905329701,
				"element": "H" 
			},
			{
				"x": -0.287433578,
				"y": -0.9141436373,
				"z": 2.2517284463,
				"element": "H" 
			}
		],
		 "valence_orbital": [ 
			{
				"type": "occ",
				"energy": -0.27885,
				"method": "rhf"
			},
			{
				"type": "occ",
				"energy": -0.24791,
				"method": "rhf"
			},
			{
				"type": "occ",
				"energy": -0.24002,
				"method": "rhf"
			},
			{
				"type": "occ",
				"energy": -0.22685,
				"method": "rhf"
			},
			{
				"type": "occ",
				"energy": -0.20426,
				"method": "rhf"
			},
			{
				"type": "unocc",
				"energy": -0.02674,
				"method": "rhf"
			},
			{
				"type": "unocc",
				"energy": -0.00601,
				"method": "rhf"
			},
			{
				"type": "unocc",
				"energy": -0.00018,
				"method": "rhf"
			},
			{
				"type": "unocc",
				"energy": 0.00242,
				"method": "rhf"
			},
			{
				"type": "unocc",
				"energy": 0.02632,
				"method": "rhf"
			}
		],
		"cosmo_sigma_profile": { 
			"-0.025": 0.0,
			"-0.024": 0.0,
			"-0.023": 0.0,
			"-0.022": 0.0,
			"-0.021": 0.0,
			"-0.02": 0.0,
			"-0.019": 0.0,
			"-0.018": 0.119495603139,
			"-0.017": 1.87746767143,
			"-0.016": 4.00123115666,
			"-0.015": 2.29310596603,
			"-0.014": 1.98209826685,
			"-0.013": 2.02717392909,
			"-0.012": 2.44612460531,
			"-0.011": 1.68302867355,
			"-0.01": 1.61864771707,
			"-0.009": 1.67465496872,
			"-0.008": 2.49105728851,
			"-0.007": 5.40338936496,
			"-0.006": 16.6581302553,
			"-0.005": 22.6522601443,
			"-0.004": 26.1577817461,
			"-0.003": 22.7962352943,
			"-0.002": 18.5866665495,
			"-0.001": 20.2584304396,
			"0.0": 20.1436005076,
			"0.001": 22.9583594639,
			"0.002": 21.5180491717,
			"0.003": 26.4461483695,
			"0.004": 21.7755897771,
			"0.005": 19.3293476584,
			"0.006": 12.1531500953,
			"0.007": 6.12055427403,
			"0.008": 5.2431205506,
			"0.009": 3.1165385147,
			"0.01": 2.71514237042,
			"0.011": 3.80351817352,
			"0.012": 7.19381265229,
			"0.013": 2.59906183329,
			"0.014": 1.21657768216,
			"0.015": 1.41282726127,
			"0.016": 0.888734045461,
			"0.017": 0.554975948321,
			"0.018": 0.0,
			"0.019": 0.0,
			"0.02": 0.0,
			"0.021": 0.0,
			"0.022": 0.0,
			"0.023": 0.0,
			"0.024": 0.0,
			"0.025": 0.0
		}
	}
}
