{
	 "smiles": "NC1=CC=C(C=C1)S(=O)(=O)NC1=CC=C(F)C=C1", 
	 "Tm": 436.15, 
	 "num_atms": 29, 
	 "gaussian": { 
		 "optdone": 1, 
		 "sigma_profile": "yes", 
		 "theory": "DFT", 
		 "functional": "B3LYP", 
		 "basiset": "6-31G**", 
		 "properties": { 
			 "R2extent": 7004.4579, 
			 "electric_dipole_moment_norm": 7.83403786626, 
			 "electric_quadrupole_moment_norm": 20.2698921021, 
			 "total_energy": -1221.81112996, 
			 "HOMO_LUMO_gap": 0.19488, 
			 "cosmo_polarized_energy": -21.8, 
			 "cosmo_cavitation_energy": 35.75, 
			 "cosmo_dispersion_energy": -25.88, 
			 "cosmo_repulsion_energy": 1.92, 
			 "cosmo_total_nonelectrostatic_energy": 11.79, 
			 "SMD_solvation_energy": 5.76 
		},
		"coords": [
			{
				"x": 5.1015934396,
				"y": -0.4050596406,
				"z": -2.1999401291,
				"element": "N" 
			},
			{
				"x": 3.8835065757,
				"y": -0.0734084129,
				"z": -1.639679191,
				"element": "C" 
			},
			{
				"x": 3.6052893174,
				"y": -0.3902681328,
				"z": -0.2924258561,
				"element": "C" 
			},
			{
				"x": 2.403744419,
				"y": -0.0145108301,
				"z": 0.2874807576,
				"element": "C" 
			},
			{
				"x": 1.4527339113,
				"y": 0.6780380167,
				"z": -0.4715497803,
				"element": "C" 
			},
			{
				"x": 1.7127945139,
				"y": 1.0071761651,
				"z": -1.8046668656,
				"element": "C" 
			},
			{
				"x": 2.9176986119,
				"y": 0.6321003598,
				"z": -2.3847455028,
				"element": "C" 
			},
			{
				"x": -0.0775200038,
				"y": 1.1854925876,
				"z": 0.2759721248,
				"element": "S" 
			},
			{
				"x": -0.8147766447,
				"y": 1.9995135911,
				"z": -0.7003538625,
				"element": "O" 
			},
			{
				"x": 0.1585890827,
				"y": 1.6912973651,
				"z": 1.6304863362,
				"element": "O" 
			},
			{
				"x": -0.8261371323,
				"y": -0.3616066135,
				"z": 0.4745680535,
				"element": "N" 
			},
			{
				"x": -2.0461266363,
				"y": -0.4251789512,
				"z": 1.2221003239,
				"element": "C" 
			},
			{
				"x": -2.0319062376,
				"y": -0.2012603552,
				"z": 2.6060725253,
				"element": "C" 
			},
			{
				"x": -3.2084818574,
				"y": -0.3116077554,
				"z": 3.3430545058,
				"element": "C" 
			},
			{
				"x": -4.3848180151,
				"y": -0.6707643202,
				"z": 2.6936608178,
				"element": "C" 
			},
			{
				"x": -5.5208688925,
				"y": -0.7947699532,
				"z": 3.4127338614,
				"element": "F" 
			},
			{
				"x": -4.4223395503,
				"y": -0.909081426,
				"z": 1.3254935644,
				"element": "C" 
			},
			{
				"x": -3.246984409,
				"y": -0.7685797343,
				"z": 0.5886708183,
				"element": "C" 
			},
			{
				"x": 5.1618431963,
				"y": -0.4144311422,
				"z": -3.2069234097,
				"element": "H" 
			},
			{
				"x": 5.6373755688,
				"y": -1.1313334128,
				"z": -1.749190392,
				"element": "H" 
			},
			{
				"x": 4.3466875917,
				"y": -0.9248478745,
				"z": 0.2953080916,
				"element": "H" 
			},
			{
				"x": 2.1987159202,
				"y": -0.2534406606,
				"z": 1.3254401325,
				"element": "H" 
			},
			{
				"x": 0.9712491244,
				"y": 1.5589455339,
				"z": -2.3720760668,
				"element": "H" 
			},
			{
				"x": 3.1242744127,
				"y": 0.8923973682,
				"z": -3.4193612919,
				"element": "H" 
			},
			{
				"x": -0.9381213219,
				"y": -0.7601132291,
				"z": -0.4558601882,
				"element": "H" 
			},
			{
				"x": -1.1017224175,
				"y": 0.0669598116,
				"z": 3.0909088385,
				"element": "H" 
			},
			{
				"x": -3.2203464724,
				"y": -0.1362563764,
				"z": 4.4132303804,
				"element": "H" 
			},
			{
				"x": -5.3584648744,
				"y": -1.1832351962,
				"z": 0.851730289,
				"element": "H" 
			},
			{
				"x": -3.2651812205,
				"y": -0.927366782,
				"z": -0.4862388851,
				"element": "H" 
			}
		],
		 "valence_orbital": [ 
			{
				"type": "occ",
				"energy": -0.28451,
				"method": "rhf"
			},
			{
				"type": "occ",
				"energy": -0.27122,
				"method": "rhf"
			},
			{
				"type": "occ",
				"energy": -0.25899,
				"method": "rhf"
			},
			{
				"type": "occ",
				"energy": -0.2277,
				"method": "rhf"
			},
			{
				"type": "occ",
				"energy": -0.22254,
				"method": "rhf"
			},
			{
				"type": "unocc",
				"energy": -0.02766,
				"method": "rhf"
			},
			{
				"type": "unocc",
				"energy": -0.0192,
				"method": "rhf"
			},
			{
				"type": "unocc",
				"energy": -0.00982,
				"method": "rhf"
			},
			{
				"type": "unocc",
				"energy": 0.00039,
				"method": "rhf"
			},
			{
				"type": "unocc",
				"energy": 0.0583,
				"method": "rhf"
			}
		],
		"cosmo_sigma_profile": { 
			"-0.025": 0.0,
			"-0.024": 0.0,
			"-0.023": 0.0,
			"-0.022": 0.0,
			"-0.021": 0.0,
			"-0.02": 0.0,
			"-0.019": 0.0,
			"-0.018": 0.0,
			"-0.017": 0.0,
			"-0.016": 0.0864212682638,
			"-0.015": 0.879187937302,
			"-0.014": 1.85158356219,
			"-0.013": 4.02270754824,
			"-0.012": 4.26030978752,
			"-0.011": 4.24025822494,
			"-0.01": 4.53688125975,
			"-0.009": 5.25844915513,
			"-0.008": 5.57385592863,
			"-0.007": 12.0725695426,
			"-0.006": 13.5992321125,
			"-0.005": 15.8963451625,
			"-0.004": 12.1195364997,
			"-0.003": 10.6678797724,
			"-0.002": 11.5558634152,
			"-0.001": 11.4008172066,
			"0.0": 15.9617377835,
			"0.001": 19.7978432326,
			"0.002": 22.9081167962,
			"0.003": 31.5007435128,
			"0.004": 29.7898570484,
			"0.005": 9.57765636644,
			"0.006": 3.94668063725,
			"0.007": 4.53287231167,
			"0.008": 4.59397445478,
			"0.009": 5.75176227907,
			"0.01": 6.80437257113,
			"0.011": 8.8034605435,
			"0.012": 4.10914365103,
			"0.013": 0.0,
			"0.014": 0.0,
			"0.015": 0.0,
			"0.016": 0.0,
			"0.017": 0.0,
			"0.018": 0.0,
			"0.019": 0.0,
			"0.02": 0.0,
			"0.021": 0.0,
			"0.022": 0.0,
			"0.023": 0.0,
			"0.024": 0.0,
			"0.025": 0.0
		}
	}
}
