{
	 "smiles": "CCS(=O)(=O)NCCC1=CC=C(S1)S(N)(=O)=O", 
	 "Tm": 395.15, 
	 "num_atms": 31, 
	 "gaussian": { 
		 "optdone": 1, 
		 "sigma_profile": "yes", 
		 "theory": "DFT", 
		 "functional": "B3LYP", 
		 "basiset": "6-31G**", 
		 "properties": { 
			 "R2extent": 9655.248, 
			 "electric_dipole_moment_norm": 7.00692626263, 
			 "electric_quadrupole_moment_norm": 28.4333820356, 
			 "total_energy": -1918.10472777, 
			 "HOMO_LUMO_gap": 0.20043, 
			 "cosmo_polarized_energy": -29.42, 
			 "cosmo_cavitation_energy": 39.39, 
			 "cosmo_dispersion_energy": -28.38, 
			 "cosmo_repulsion_energy": 2.13, 
			 "cosmo_total_nonelectrostatic_energy": 13.14, 
			 "SMD_solvation_energy": 4.39 
		},
		"coords": [
			{
				"x": -0.6823513047,
				"y": 3.0364425186,
				"z": -2.7883339721,
				"element": "C" 
			},
			{
				"x": -1.9656933355,
				"y": 2.2395981328,
				"z": -2.5850713947,
				"element": "C" 
			},
			{
				"x": -1.6847016795,
				"y": 0.4642358939,
				"z": -2.3566868851,
				"element": "S" 
			},
			{
				"x": -2.986761694,
				"y": -0.1544688245,
				"z": -2.0790600519,
				"element": "O" 
			},
			{
				"x": -0.8261840614,
				"y": -0.0076148375,
				"z": -3.4498033306,
				"element": "O" 
			},
			{
				"x": -0.799772844,
				"y": 0.4034891713,
				"z": -0.9047773151,
				"element": "N" 
			},
			{
				"x": 0.5761074308,
				"y": -0.1186587278,
				"z": -0.9636069571,
				"element": "C" 
			},
			{
				"x": 1.1608982193,
				"y": -0.1661431727,
				"z": 0.4600223455,
				"element": "C" 
			},
			{
				"x": 0.4160818576,
				"y": -1.089324632,
				"z": 1.3860502184,
				"element": "C" 
			},
			{
				"x": -0.4738258058,
				"y": -0.7540071352,
				"z": 2.3793666701,
				"element": "C" 
			},
			{
				"x": -1.0323210315,
				"y": -1.8802890004,
				"z": 3.0492463873,
				"element": "C" 
			},
			{
				"x": -0.5597656161,
				"y": -3.0653524814,
				"z": 2.5502268151,
				"element": "C" 
			},
			{
				"x": 0.5939380452,
				"y": -2.8237598231,
				"z": 1.267052167,
				"element": "S" 
			},
			{
				"x": -1.0347158204,
				"y": -4.689181275,
				"z": 3.1003097419,
				"element": "S" 
			},
			{
				"x": -2.220472895,
				"y": -5.2400087673,
				"z": 2.0535192874,
				"element": "N" 
			},
			{
				"x": 0.1128577034,
				"y": -5.5668497909,
				"z": 2.8907919376,
				"element": "O" 
			},
			{
				"x": -1.6918480003,
				"y": -4.5054857137,
				"z": 4.3905035844,
				"element": "O" 
			},
			{
				"x": -0.0465736377,
				"y": 2.9876527086,
				"z": -1.900079115,
				"element": "H" 
			},
			{
				"x": -0.928601599,
				"y": 4.0866779064,
				"z": -2.9704196626,
				"element": "H" 
			},
			{
				"x": -0.1219630122,
				"y": 2.6596064081,
				"z": -3.6471438762,
				"element": "H" 
			},
			{
				"x": -2.6239295496,
				"y": 2.2894227157,
				"z": -3.4579878734,
				"element": "H" 
			},
			{
				"x": -2.5312624687,
				"y": 2.563194052,
				"z": -1.7077607056,
				"element": "H" 
			},
			{
				"x": -1.3730037756,
				"y": -0.1069891874,
				"z": -0.2344154121,
				"element": "H" 
			},
			{
				"x": 0.6246761451,
				"y": -1.1129406925,
				"z": -1.424617731,
				"element": "H" 
			},
			{
				"x": 1.1766858296,
				"y": 0.5540900609,
				"z": -1.5801307592,
				"element": "H" 
			},
			{
				"x": 1.1419005738,
				"y": 0.8405727229,
				"z": 0.890409119,
				"element": "H" 
			},
			{
				"x": 2.2122367765,
				"y": -0.4661535022,
				"z": 0.3841456519,
				"element": "H" 
			},
			{
				"x": -0.7066693436,
				"y": 0.274531685,
				"z": 2.6335869357,
				"element": "H" 
			},
			{
				"x": -1.7368951856,
				"y": -1.8305014478,
				"z": 3.8704972688,
				"element": "H" 
			},
			{
				"x": -3.0683805336,
				"y": -4.6828403932,
				"z": 2.076868614,
				"element": "H" 
			},
			{
				"x": -1.8767893877,
				"y": -5.4170445716,
				"z": 1.1150982975,
				"element": "H" 
			}
		],
		 "valence_orbital": [ 
			{
				"type": "occ",
				"energy": -0.30823,
				"method": "rhf"
			},
			{
				"type": "occ",
				"energy": -0.30669,
				"method": "rhf"
			},
			{
				"type": "occ",
				"energy": -0.28326,
				"method": "rhf"
			},
			{
				"type": "occ",
				"energy": -0.28087,
				"method": "rhf"
			},
			{
				"type": "occ",
				"energy": -0.25812,
				"method": "rhf"
			},
			{
				"type": "unocc",
				"energy": -0.05769,
				"method": "rhf"
			},
			{
				"type": "unocc",
				"energy": -0.00137,
				"method": "rhf"
			},
			{
				"type": "unocc",
				"energy": 0.02525,
				"method": "rhf"
			},
			{
				"type": "unocc",
				"energy": 0.04463,
				"method": "rhf"
			},
			{
				"type": "unocc",
				"energy": 0.04877,
				"method": "rhf"
			}
		],
		"cosmo_sigma_profile": { 
			"-0.025": 0.0,
			"-0.024": 0.0,
			"-0.023": 0.0,
			"-0.022": 0.0,
			"-0.021": 0.0,
			"-0.02": 0.0,
			"-0.019": 0.0,
			"-0.018": 0.0,
			"-0.017": 0.0,
			"-0.016": 0.431047954659,
			"-0.015": 2.45664101827,
			"-0.014": 2.60979292263,
			"-0.013": 2.48381979315,
			"-0.012": 3.50661086423,
			"-0.011": 2.0285426824,
			"-0.01": 2.1252034814,
			"-0.009": 3.27900403281,
			"-0.008": 8.0454231526,
			"-0.007": 15.032609142,
			"-0.006": 18.1200676222,
			"-0.005": 23.3686631767,
			"-0.004": 28.5380973052,
			"-0.003": 21.0828928549,
			"-0.002": 17.2062207414,
			"-0.001": 17.6701324812,
			"0.0": 15.8243250127,
			"0.001": 15.6312864754,
			"0.002": 15.2732618836,
			"0.003": 11.1949583924,
			"0.004": 5.96039443577,
			"0.005": 7.10402577674,
			"0.006": 6.41557792271,
			"0.007": 7.68798061889,
			"0.008": 7.44494064405,
			"0.009": 7.78335232089,
			"0.01": 14.0551987467,
			"0.011": 21.1206441897,
			"0.012": 9.30357402545,
			"0.013": 0.258027471208,
			"0.014": 0.0,
			"0.015": 0.0,
			"0.016": 0.0,
			"0.017": 0.0,
			"0.018": 0.0,
			"0.019": 0.0,
			"0.02": 0.0,
			"0.021": 0.0,
			"0.022": 0.0,
			"0.023": 0.0,
			"0.024": 0.0,
			"0.025": 0.0
		}
	}
}
