{
	 "smiles": "CC(C)C1CCC(C)CC1OC(=O)C(C(C)C(C(C)=O)C(=O)OC1CC(C)CCC1C(C)C)C(C)=O", 
	 "Tm": 473.15, 
	 "num_atms": 86, 
	 "gaussian": { 
		 "optdone": 1, 
		 "sigma_profile": "yes", 
		 "theory": "DFT", 
		 "functional": "B3LYP", 
		 "basiset": "6-31G**", 
		 "properties": { 
			 "R2extent": 22426.1913, 
			 "electric_dipole_moment_norm": 4.36909169164, 
			 "electric_quadrupole_moment_norm": 16.7206955062, 
			 "total_energy": -1624.7276956, 
			 "HOMO_LUMO_gap": 0.21718, 
			 "cosmo_polarized_energy": -17.19, 
			 "cosmo_cavitation_energy": 76.5, 
			 "cosmo_dispersion_energy": -45.78, 
			 "cosmo_repulsion_energy": 3.41, 
			 "cosmo_total_nonelectrostatic_energy": 34.12, 
			 "SMD_solvation_energy": 13.43 
		},
		"coords": [
			{
				"x": -1.2442005674,
				"y": 0.9608831981,
				"z": -3.1656913382,
				"element": "C" 
			},
			{
				"x": -2.6095072195,
				"y": 0.364424113,
				"z": -3.5395630896,
				"element": "C" 
			},
			{
				"x": -3.03895139,
				"y": 0.8765143128,
				"z": -4.9258600153,
				"element": "C" 
			},
			{
				"x": -2.6802225815,
				"y": -1.1903414943,
				"z": -3.488925035,
				"element": "C" 
			},
			{
				"x": -1.4801853956,
				"y": -1.9342261539,
				"z": -4.1040353979,
				"element": "C" 
			},
			{
				"x": -1.7804691608,
				"y": -3.4353540402,
				"z": -4.2526758783,
				"element": "C" 
			},
			{
				"x": -2.1690403092,
				"y": -4.1102298868,
				"z": -2.9185088456,
				"element": "C" 
			},
			{
				"x": -0.949355412,
				"y": -4.3769536922,
				"z": -2.0205819384,
				"element": "C" 
			},
			{
				"x": -3.2881624837,
				"y": -3.3036121423,
				"z": -2.218527839,
				"element": "C" 
			},
			{
				"x": -3.0471559683,
				"y": -1.7906018023,
				"z": -2.1195833586,
				"element": "C" 
			},
			{
				"x": -2.000714535,
				"y": -1.5979054429,
				"z": -1.1001142487,
				"element": "O" 
			},
			{
				"x": -2.2330088029,
				"y": -0.7241571805,
				"z": -0.1011130746,
				"element": "C" 
			},
			{
				"x": -3.1097064433,
				"y": 0.1185591302,
				"z": -0.1232224051,
				"element": "O" 
			},
			{
				"x": -1.3354658545,
				"y": -1.0056345196,
				"z": 1.1073927016,
				"element": "C" 
			},
			{
				"x": -1.5608446598,
				"y": 0.0396624182,
				"z": 2.2445940761,
				"element": "C" 
			},
			{
				"x": -1.1490269708,
				"y": -0.5170365505,
				"z": 3.6169029401,
				"element": "C" 
			},
			{
				"x": -1.0460159607,
				"y": 1.474395614,
				"z": 1.9007465162,
				"element": "C" 
			},
			{
				"x": -1.8236190405,
				"y": 2.4807658591,
				"z": 2.7798407544,
				"element": "C" 
			},
			{
				"x": -3.0574856603,
				"y": 3.0891487637,
				"z": 2.1503467906,
				"element": "C" 
			},
			{
				"x": -1.4673602394,
				"y": 2.7466794834,
				"z": 3.9116362107,
				"element": "O" 
			},
			{
				"x": 0.4418639255,
				"y": 1.8318564438,
				"z": 1.9748460561,
				"element": "C" 
			},
			{
				"x": 0.8641997852,
				"y": 2.8154935287,
				"z": 1.3989237411,
				"element": "O" 
			},
			{
				"x": 1.1587369397,
				"y": 0.9753872156,
				"z": 2.7064506152,
				"element": "O" 
			},
			{
				"x": 2.6035816682,
				"y": 1.0728712873,
				"z": 2.942118959,
				"element": "C" 
			},
			{
				"x": 3.4572546776,
				"y": 1.7056838948,
				"z": 1.8399847242,
				"element": "C" 
			},
			{
				"x": 4.9277562746,
				"y": 1.2448099237,
				"z": 2.0315703751,
				"element": "C" 
			},
			{
				"x": 5.8839883234,
				"y": 2.2072183088,
				"z": 1.3152386628,
				"element": "C" 
			},
			{
				"x": 5.277228398,
				"y": 1.0909594091,
				"z": 3.5404423707,
				"element": "C" 
			},
			{
				"x": 4.4173523283,
				"y": 2.0060286593,
				"z": 4.4238056564,
				"element": "C" 
			},
			{
				"x": 2.9105882653,
				"y": 1.6393495704,
				"z": 4.3630521103,
				"element": "C" 
			},
			{
				"x": 1.9735270156,
				"y": 2.7648039147,
				"z": 4.8887232198,
				"element": "C" 
			},
			{
				"x": 2.1448805049,
				"y": 2.9259418481,
				"z": 6.4104087918,
				"element": "C" 
			},
			{
				"x": 2.1119533757,
				"y": 4.1334636757,
				"z": 4.1988528569,
				"element": "C" 
			},
			{
				"x": 0.1490534133,
				"y": -1.3096567717,
				"z": 0.8061593077,
				"element": "C" 
			},
			{
				"x": 0.8664945359,
				"y": -0.5701073812,
				"z": -0.3047096679,
				"element": "C" 
			},
			{
				"x": 0.7219927389,
				"y": -2.1469672063,
				"z": 1.4764341237,
				"element": "O" 
			},
			{
				"x": -0.9188597851,
				"y": 0.6549221222,
				"z": -2.1707813394,
				"element": "H" 
			},
			{
				"x": -0.4659885921,
				"y": 0.6669279094,
				"z": -3.878756411,
				"element": "H" 
			},
			{
				"x": -1.2958062207,
				"y": 2.0546925588,
				"z": -3.1732040126,
				"element": "H" 
			},
			{
				"x": -3.3396257665,
				"y": 0.7364594233,
				"z": -2.8090341769,
				"element": "H" 
			},
			{
				"x": -4.0529400749,
				"y": 0.5482209382,
				"z": -5.1795987444,
				"element": "H" 
			},
			{
				"x": -2.3653022725,
				"y": 0.5182542806,
				"z": -5.7134217279,
				"element": "H" 
			},
			{
				"x": -3.0248947484,
				"y": 1.9710689413,
				"z": -4.9586499942,
				"element": "H" 
			},
			{
				"x": -3.5556560152,
				"y": -1.4591993775,
				"z": -4.1016479195,
				"element": "H" 
			},
			{
				"x": -1.2410668534,
				"y": -1.5106552204,
				"z": -5.0862039678,
				"element": "H" 
			},
			{
				"x": -0.5899660725,
				"y": -1.787770888,
				"z": -3.4812624268,
				"element": "H" 
			},
			{
				"x": -0.9178434014,
				"y": -3.9527786503,
				"z": -4.6898465103,
				"element": "H" 
			},
			{
				"x": -2.6071353905,
				"y": -3.5544568632,
				"z": -4.9671071018,
				"element": "H" 
			},
			{
				"x": -2.5996988399,
				"y": -5.0915091875,
				"z": -3.1605009426,
				"element": "H" 
			},
			{
				"x": -0.4153113279,
				"y": -3.4616028282,
				"z": -1.756992913,
				"element": "H" 
			},
			{
				"x": -1.2502305095,
				"y": -4.8575293366,
				"z": -1.0834169707,
				"element": "H" 
			},
			{
				"x": -0.2443810257,
				"y": -5.0462744324,
				"z": -2.5258905277,
				"element": "H" 
			},
			{
				"x": -4.2201668836,
				"y": -3.430576823,
				"z": -2.7852476857,
				"element": "H" 
			},
			{
				"x": -3.4783333381,
				"y": -3.7032383527,
				"z": -1.2155994807,
				"element": "H" 
			},
			{
				"x": -3.9411237552,
				"y": -1.2922576656,
				"z": -1.7366335228,
				"element": "H" 
			},
			{
				"x": -1.7090740819,
				"y": -1.9603278206,
				"z": 1.5003371049,
				"element": "H" 
			},
			{
				"x": -2.651257365,
				"y": 0.1523085317,
				"z": 2.2610050899,
				"element": "H" 
			},
			{
				"x": -1.2433757595,
				"y": 0.2525284768,
				"z": 4.3862310131,
				"element": "H" 
			},
			{
				"x": -1.8105052897,
				"y": -1.3488849911,
				"z": 3.8828744733,
				"element": "H" 
			},
			{
				"x": -0.124032854,
				"y": -0.8842902738,
				"z": 3.6224227354,
				"element": "H" 
			},
			{
				"x": -1.3308814975,
				"y": 1.6861359208,
				"z": 0.8664327545,
				"element": "H" 
			},
			{
				"x": -2.7316550265,
				"y": 3.845508376,
				"z": 1.4246707876,
				"element": "H" 
			},
			{
				"x": -3.629613382,
				"y": 2.3417539117,
				"z": 1.5918512815,
				"element": "H" 
			},
			{
				"x": -3.6732396481,
				"y": 3.5681878369,
				"z": 2.9129130699,
				"element": "H" 
			},
			{
				"x": 2.8591423778,
				"y": 0.008661375,
				"z": 2.9613512845,
				"element": "H" 
			},
			{
				"x": 3.1018342102,
				"y": 1.4030920358,
				"z": 0.8512941671,
				"element": "H" 
			},
			{
				"x": 3.3914325162,
				"y": 2.7947743782,
				"z": 1.8710839916,
				"element": "H" 
			},
			{
				"x": 5.0325152727,
				"y": 0.2569383673,
				"z": 1.5624662293,
				"element": "H" 
			},
			{
				"x": 5.8696731589,
				"y": 3.1979870616,
				"z": 1.7850568202,
				"element": "H" 
			},
			{
				"x": 6.9146991362,
				"y": 1.8375993884,
				"z": 1.345904341,
				"element": "H" 
			},
			{
				"x": 5.6044076967,
				"y": 2.337999079,
				"z": 0.2638136335,
				"element": "H" 
			},
			{
				"x": 5.1329079695,
				"y": 0.0492382721,
				"z": 3.8550602234,
				"element": "H" 
			},
			{
				"x": 6.340586278,
				"y": 1.3070299187,
				"z": 3.6970875517,
				"element": "H" 
			},
			{
				"x": 4.5610117636,
				"y": 3.0429248124,
				"z": 4.0992859666,
				"element": "H" 
			},
			{
				"x": 4.7621187912,
				"y": 1.9615385061,
				"z": 5.4619607736,
				"element": "H" 
			},
			{
				"x": 2.7539128552,
				"y": 0.7942051924,
				"z": 5.0476347016,
				"element": "H" 
			},
			{
				"x": 0.946255666,
				"y": 2.4240169717,
				"z": 4.7210085126,
				"element": "H" 
			},
			{
				"x": 3.1375560689,
				"y": 3.3116805476,
				"z": 6.6707075248,
				"element": "H" 
			},
			{
				"x": 2.0071263991,
				"y": 1.9739069543,
				"z": 6.9357238691,
				"element": "H" 
			},
			{
				"x": 1.4068749363,
				"y": 3.6323493464,
				"z": 6.8045335834,
				"element": "H" 
			},
			{
				"x": 3.0878085924,
				"y": 4.5945515138,
				"z": 4.3900153892,
				"element": "H" 
			},
			{
				"x": 1.3525662176,
				"y": 4.8166798097,
				"z": 4.5943665474,
				"element": "H" 
			},
			{
				"x": 1.9606936765,
				"y": 4.0716910901,
				"z": 3.1192733814,
				"element": "H" 
			},
			{
				"x": 0.6352123851,
				"y": 0.4985489249,
				"z": -0.3226012905,
				"element": "H" 
			},
			{
				"x": 0.5502234377,
				"y": -0.9842667604,
				"z": -1.2671687151,
				"element": "H" 
			},
			{
				"x": 1.9412528564,
				"y": -0.7181796097,
				"z": -0.192159849,
				"element": "H" 
			}
		],
		 "valence_orbital": [ 
			{
				"type": "occ",
				"energy": -0.28666,
				"method": "rhf"
			},
			{
				"type": "occ",
				"energy": -0.27749,
				"method": "rhf"
			},
			{
				"type": "occ",
				"energy": -0.26376,
				"method": "rhf"
			},
			{
				"type": "occ",
				"energy": -0.2522,
				"method": "rhf"
			},
			{
				"type": "occ",
				"energy": -0.24795,
				"method": "rhf"
			},
			{
				"type": "unocc",
				"energy": -0.03077,
				"method": "rhf"
			},
			{
				"type": "unocc",
				"energy": -0.02019,
				"method": "rhf"
			},
			{
				"type": "unocc",
				"energy": -0.00808,
				"method": "rhf"
			},
			{
				"type": "unocc",
				"energy": 0.01106,
				"method": "rhf"
			},
			{
				"type": "unocc",
				"energy": 0.0541,
				"method": "rhf"
			}
		],
		"cosmo_sigma_profile": { 
			"-0.025": 0.0,
			"-0.024": 0.0,
			"-0.023": 0.0,
			"-0.022": 0.0,
			"-0.021": 0.0,
			"-0.02": 0.0,
			"-0.019": 0.0,
			"-0.018": 0.0,
			"-0.017": 0.0,
			"-0.016": 0.0,
			"-0.015": 0.0,
			"-0.014": 0.0,
			"-0.013": 0.0315890476582,
			"-0.012": 0.115003460656,
			"-0.011": 0.333209987222,
			"-0.01": 0.493181050937,
			"-0.009": 0.466743840875,
			"-0.008": 1.71932361269,
			"-0.007": 4.90472229404,
			"-0.006": 8.0862007866,
			"-0.005": 12.9071940413,
			"-0.004": 27.7816039142,
			"-0.003": 55.7178269018,
			"-0.002": 100.29618398,
			"-0.001": 96.224038223,
			"0.0": 81.1857671578,
			"0.001": 69.15516605,
			"0.002": 42.9803060887,
			"0.003": 13.5508077544,
			"0.004": 12.6492627069,
			"0.005": 11.0871829255,
			"0.006": 7.97475289882,
			"0.007": 5.94997972704,
			"0.008": 6.74797846054,
			"0.009": 5.70049241203,
			"0.01": 6.49370722809,
			"0.011": 7.39395550367,
			"0.012": 7.23499215267,
			"0.013": 1.46918742598,
			"0.014": 0.0,
			"0.015": 0.0,
			"0.016": 0.0,
			"0.017": 0.0,
			"0.018": 0.0,
			"0.019": 0.0,
			"0.02": 0.0,
			"0.021": 0.0,
			"0.022": 0.0,
			"0.023": 0.0,
			"0.024": 0.0,
			"0.025": 0.0
		}
	}
}
