{
	 "smiles": "CCCC(C)(NC(=O)OCC1=CC=CC=C1)C(O)=O", 
	 "Tm": 377.15, 
	 "num_atms": 38, 
	 "gaussian": { 
		 "optdone": 1, 
		 "sigma_profile": "yes", 
		 "theory": "DFT", 
		 "functional": "B3LYP", 
		 "basiset": "6-31G**", 
		 "properties": { 
			 "R2extent": 5822.6389, 
			 "electric_dipole_moment_norm": 3.1888401371, 
			 "electric_quadrupole_moment_norm": 17.8579736628, 
			 "total_energy": -900.627740539, 
			 "HOMO_LUMO_gap": 0.23396, 
			 "cosmo_polarized_energy": -15.7, 
			 "cosmo_cavitation_energy": 39.74, 
			 "cosmo_dispersion_energy": -26.8, 
			 "cosmo_repulsion_energy": 2.07, 
			 "cosmo_total_nonelectrostatic_energy": 15.02, 
			 "SMD_solvation_energy": 8.16 
		},
		"coords": [
			{
				"x": 2.2662463403,
				"y": -1.0851395418,
				"z": -2.5880064795,
				"element": "C" 
			},
			{
				"x": 3.0155817442,
				"y": -0.09945214,
				"z": -1.6838783036,
				"element": "C" 
			},
			{
				"x": 2.202233881,
				"y": 0.6640246336,
				"z": -0.6185068338,
				"element": "C" 
			},
			{
				"x": 1.599584157,
				"y": -0.1217456107,
				"z": 0.583886245,
				"element": "C" 
			},
			{
				"x": 2.5286768505,
				"y": -1.2504342561,
				"z": 1.0710236997,
				"element": "C" 
			},
			{
				"x": 1.4389146465,
				"y": 0.7888702857,
				"z": 1.7351846809,
				"element": "N" 
			},
			{
				"x": 0.4478388933,
				"y": 1.7106995547,
				"z": 1.9343521783,
				"element": "C" 
			},
			{
				"x": 0.2704617791,
				"y": 2.3083501898,
				"z": 2.9795152966,
				"element": "O" 
			},
			{
				"x": -0.2974428565,
				"y": 1.8720168925,
				"z": 0.8060546595,
				"element": "O" 
			},
			{
				"x": -1.4327578514,
				"y": 2.760606053,
				"z": 0.8994940158,
				"element": "C" 
			},
			{
				"x": -2.6011369045,
				"y": 2.1580660227,
				"z": 0.1590624422,
				"element": "C" 
			},
			{
				"x": -3.2590166111,
				"y": 2.8846190849,
				"z": -0.8376655272,
				"element": "C" 
			},
			{
				"x": -4.3635838434,
				"y": 2.3455465048,
				"z": -1.5026158351,
				"element": "C" 
			},
			{
				"x": -4.8145744674,
				"y": 1.0657861824,
				"z": -1.1818158104,
				"element": "C" 
			},
			{
				"x": -4.1589144923,
				"y": 0.3293300144,
				"z": -0.1898498189,
				"element": "C" 
			},
			{
				"x": -3.062644535,
				"y": 0.8719668212,
				"z": 0.4797383261,
				"element": "C" 
			},
			{
				"x": 0.2131825784,
				"y": -0.7638359564,
				"z": 0.3232445478,
				"element": "C" 
			},
			{
				"x": -0.2312401842,
				"y": -0.6323839076,
				"z": -0.9391001244,
				"element": "O" 
			},
			{
				"x": -0.4165546144,
				"y": -1.3451060584,
				"z": 1.1816457988,
				"element": "O" 
			},
			{
				"x": 1.847582359,
				"y": -1.9290097348,
				"z": -2.031619849,
				"element": "H" 
			},
			{
				"x": 2.9456650087,
				"y": -1.4925061496,
				"z": -3.3445630014,
				"element": "H" 
			},
			{
				"x": 1.4346677673,
				"y": -0.5974906387,
				"z": -3.1045081485,
				"element": "H" 
			},
			{
				"x": 3.8571039001,
				"y": -0.6142290254,
				"z": -1.2033427353,
				"element": "H" 
			},
			{
				"x": 3.4750347065,
				"y": 0.667020555,
				"z": -2.3211319305,
				"element": "H" 
			},
			{
				"x": 1.4019187644,
				"y": 1.2354997018,
				"z": -1.0953258148,
				"element": "H" 
			},
			{
				"x": 2.8776422378,
				"y": 1.3972106491,
				"z": -0.1641923365,
				"element": "H" 
			},
			{
				"x": 2.6824331578,
				"y": -2.0008321905,
				"z": 0.2933746282,
				"element": "H" 
			},
			{
				"x": 3.5055909124,
				"y": -0.8398897717,
				"z": 1.345999088,
				"element": "H" 
			},
			{
				"x": 2.082963858,
				"y": -1.744137412,
				"z": 1.9380810686,
				"element": "H" 
			},
			{
				"x": 1.9098624386,
				"y": 0.5398255384,
				"z": 2.5925784722,
				"element": "H" 
			},
			{
				"x": -1.6511315881,
				"y": 2.9187302093,
				"z": 1.9590956246,
				"element": "H" 
			},
			{
				"x": -1.1484020754,
				"y": 3.7232182056,
				"z": 0.4620942936,
				"element": "H" 
			},
			{
				"x": -2.9047927458,
				"y": 3.8790430234,
				"z": -1.0982210768,
				"element": "H" 
			},
			{
				"x": -4.8642636036,
				"y": 2.9235554362,
				"z": -2.2741261849,
				"element": "H" 
			},
			{
				"x": -5.6711226451,
				"y": 0.642864949,
				"z": -1.6989650213,
				"element": "H" 
			},
			{
				"x": -4.5093359122,
				"y": -0.6660054397,
				"z": 0.0697318322,
				"element": "H" 
			},
			{
				"x": -2.5544815297,
				"y": 0.2917914573,
				"z": 1.2446809711,
				"element": "H" 
			},
			{
				"x": -1.1247895208,
				"y": -1.0162441312,
				"z": -0.9563030375,
				"element": "H" 
			}
		],
		 "valence_orbital": [ 
			{
				"type": "occ",
				"energy": -0.27753,
				"method": "rhf"
			},
			{
				"type": "occ",
				"energy": -0.27485,
				"method": "rhf"
			},
			{
				"type": "occ",
				"energy": -0.25578,
				"method": "rhf"
			},
			{
				"type": "occ",
				"energy": -0.25393,
				"method": "rhf"
			},
			{
				"type": "occ",
				"energy": -0.24659,
				"method": "rhf"
			},
			{
				"type": "unocc",
				"energy": -0.01263,
				"method": "rhf"
			},
			{
				"type": "unocc",
				"energy": -0.0052,
				"method": "rhf"
			},
			{
				"type": "unocc",
				"energy": 0.00113,
				"method": "rhf"
			},
			{
				"type": "unocc",
				"energy": 0.05478,
				"method": "rhf"
			},
			{
				"type": "unocc",
				"energy": 0.06873,
				"method": "rhf"
			}
		],
		"cosmo_sigma_profile": { 
			"-0.025": 0.0,
			"-0.024": 0.0,
			"-0.023": 0.0,
			"-0.022": 0.0,
			"-0.021": 0.0,
			"-0.02": 0.0,
			"-0.019": 0.0,
			"-0.018": 0.0,
			"-0.017": 0.0924599635724,
			"-0.016": 0.532648070609,
			"-0.015": 0.466429676776,
			"-0.014": 1.09160314733,
			"-0.013": 1.46035556596,
			"-0.012": 1.80662135979,
			"-0.011": 1.38775547863,
			"-0.01": 1.56398113066,
			"-0.009": 1.25403356033,
			"-0.008": 1.49627555963,
			"-0.007": 4.58987991478,
			"-0.006": 12.1899284965,
			"-0.005": 19.5976375555,
			"-0.004": 22.815471348,
			"-0.003": 28.5676695188,
			"-0.002": 30.4083194747,
			"-0.001": 30.612540853,
			"0.0": 27.9859067076,
			"0.001": 23.7448268296,
			"0.002": 16.6810511812,
			"0.003": 15.5419296715,
			"0.004": 16.0287524321,
			"0.005": 13.7434171638,
			"0.006": 7.6450369925,
			"0.007": 4.82626480661,
			"0.008": 3.11663584097,
			"0.009": 3.11018891548,
			"0.01": 2.74669100173,
			"0.011": 3.88343152562,
			"0.012": 6.83599034767,
			"0.013": 5.27195623651,
			"0.014": 0.586221017512,
			"0.015": 0.0,
			"0.016": 0.0,
			"0.017": 0.0,
			"0.018": 0.0,
			"0.019": 0.0,
			"0.02": 0.0,
			"0.021": 0.0,
			"0.022": 0.0,
			"0.023": 0.0,
			"0.024": 0.0,
			"0.025": 0.0
		}
	}
}
