{
	 "smiles": "OC1=C(F)C=CC=C1Cl", 
	 "Tm": 336.15, 
	 "num_atms": 13, 
	 "gaussian": { 
		 "optdone": 1, 
		 "sigma_profile": "yes", 
		 "theory": "DFT", 
		 "functional": "B3LYP", 
		 "basiset": "6-31G**", 
		 "properties": { 
			 "R2extent": 1945.8579, 
			 "electric_dipole_moment_norm": 1.6984558487, 
			 "electric_quadrupole_moment_norm": 8.85812375563, 
			 "total_energy": -866.289963189, 
			 "HOMO_LUMO_gap": 0.21877, 
			 "cosmo_polarized_energy": -5.96, 
			 "cosmo_cavitation_energy": 19.42, 
			 "cosmo_dispersion_energy": -14.78, 
			 "cosmo_repulsion_energy": 1.19, 
			 "cosmo_total_nonelectrostatic_energy": 5.83, 
			 "SMD_solvation_energy": 4.01 
		},
		"coords": [
			{
				"x": 0.4326866954,
				"y": -1.0551581652,
				"z": -0.9625063207,
				"element": "O" 
			},
			{
				"x": 0.8529246825,
				"y": -0.6511241303,
				"z": 0.2574648992,
				"element": "C" 
			},
			{
				"x": 0.0138349503,
				"y": -0.8756478798,
				"z": 1.3600283667,
				"element": "C" 
			},
			{
				"x": -1.1647750774,
				"y": -1.4827234819,
				"z": 1.1351750785,
				"element": "F" 
			},
			{
				"x": 0.3656075157,
				"y": -0.4942694375,
				"z": 2.644230463,
				"element": "C" 
			},
			{
				"x": 1.5942783014,
				"y": 0.1359161881,
				"z": 2.8621092564,
				"element": "C" 
			},
			{
				"x": 2.4555569943,
				"y": 0.3769761232,
				"z": 1.7943523553,
				"element": "C" 
			},
			{
				"x": 2.0767847091,
				"y": -0.0172614677,
				"z": 0.5113953618,
				"element": "C" 
			},
			{
				"x": 3.1451981677,
				"y": 0.2741464243,
				"z": -0.8601736043,
				"element": "Cl" 
			},
			{
				"x": 1.1161193605,
				"y": -0.8315152342,
				"z": -1.6128296831,
				"element": "H" 
			},
			{
				"x": -0.3264414792,
				"y": -0.6957920533,
				"z": 3.4543997135,
				"element": "H" 
			},
			{
				"x": 1.8783221302,
				"y": 0.438138181,
				"z": 3.864319545,
				"element": "H" 
			},
			{
				"x": 3.4124030495,
				"y": 0.8642149332,
				"z": 1.9423345688,
				"element": "H" 
			}
		],
		 "valence_orbital": [ 
			{
				"type": "occ",
				"energy": -0.36681,
				"method": "rhf"
			},
			{
				"type": "occ",
				"energy": -0.3382,
				"method": "rhf"
			},
			{
				"type": "occ",
				"energy": -0.3374,
				"method": "rhf"
			},
			{
				"type": "occ",
				"energy": -0.25438,
				"method": "rhf"
			},
			{
				"type": "occ",
				"energy": -0.23487,
				"method": "rhf"
			},
			{
				"type": "unocc",
				"energy": -0.0161,
				"method": "rhf"
			},
			{
				"type": "unocc",
				"energy": -0.00498,
				"method": "rhf"
			},
			{
				"type": "unocc",
				"energy": 0.01008,
				"method": "rhf"
			},
			{
				"type": "unocc",
				"energy": 0.07657,
				"method": "rhf"
			},
			{
				"type": "unocc",
				"energy": 0.10499,
				"method": "rhf"
			}
		],
		"cosmo_sigma_profile": { 
			"-0.025": 0.0,
			"-0.024": 0.0,
			"-0.023": 0.0,
			"-0.022": 0.0,
			"-0.021": 0.0,
			"-0.02": 0.0,
			"-0.019": 0.0,
			"-0.018": 0.0,
			"-0.017": 0.0,
			"-0.016": 0.131259387956,
			"-0.015": 0.647109687276,
			"-0.014": 0.727971881869,
			"-0.013": 0.780838007187,
			"-0.012": 0.507458937772,
			"-0.011": 1.03732976815,
			"-0.01": 0.785199527076,
			"-0.009": 1.01283347616,
			"-0.008": 2.61990170029,
			"-0.007": 5.75002243768,
			"-0.006": 6.45795296126,
			"-0.005": 8.6915840379,
			"-0.004": 6.73340517979,
			"-0.003": 6.51357033785,
			"-0.002": 6.52389588428,
			"-0.001": 9.93090398512,
			"0.0": 15.8823992995,
			"0.001": 17.7963395072,
			"0.002": 15.3875454129,
			"0.003": 17.9570935222,
			"0.004": 18.7091344376,
			"0.005": 4.29489088291,
			"0.006": 1.86035929886,
			"0.007": 1.78965820065,
			"0.008": 2.05361457359,
			"0.009": 1.98971744753,
			"0.01": 1.9103474283,
			"0.011": 0.0689008221832,
			"0.012": 0.0,
			"0.013": 0.0,
			"0.014": 0.0,
			"0.015": 0.0,
			"0.016": 0.0,
			"0.017": 0.0,
			"0.018": 0.0,
			"0.019": 0.0,
			"0.02": 0.0,
			"0.021": 0.0,
			"0.022": 0.0,
			"0.023": 0.0,
			"0.024": 0.0,
			"0.025": 0.0
		}
	}
}
