{
	 "smiles": "NS(=O)(=O)N1CCC(CC1)C(O)=O", 
	 "Tm": 451.15, 
	 "num_atms": 25, 
	 "gaussian": { 
		 "optdone": 1, 
		 "sigma_profile": "yes", 
		 "theory": "DFT", 
		 "functional": "B3LYP", 
		 "basiset": "6-31G**", 
		 "properties": { 
			 "R2extent": 3653.5276, 
			 "electric_dipole_moment_norm": 3.86179001242, 
			 "electric_quadrupole_moment_norm": 16.193172552, 
			 "total_energy": -1044.4035562, 
			 "HOMO_LUMO_gap": 0.2411, 
			 "cosmo_polarized_energy": -21.15, 
			 "cosmo_cavitation_energy": 27.94, 
			 "cosmo_dispersion_energy": -21.11, 
			 "cosmo_repulsion_energy": 1.61, 
			 "cosmo_total_nonelectrostatic_energy": 8.44, 
			 "SMD_solvation_energy": 3.79 
		},
		"coords": [
			{
				"x": -0.4810685657,
				"y": 2.6523413549,
				"z": -1.8980415901,
				"element": "N" 
			},
			{
				"x": -0.9400494386,
				"y": 1.8560269143,
				"z": -0.4991586559,
				"element": "S" 
			},
			{
				"x": 0.3054881416,
				"y": 1.6667052471,
				"z": 0.2491883431,
				"element": "O" 
			},
			{
				"x": -2.0716599289,
				"y": 2.5751178615,
				"z": 0.0739781006,
				"element": "O" 
			},
			{
				"x": -1.5720332056,
				"y": 0.3850598089,
				"z": -1.0697709999,
				"element": "N" 
			},
			{
				"x": -2.673028049,
				"y": -0.2007276836,
				"z": -0.2749355411,
				"element": "C" 
			},
			{
				"x": -2.1782475807,
				"y": -1.0101768746,
				"z": 0.9305877256,
				"element": "C" 
			},
			{
				"x": -1.1527128076,
				"y": -2.0951929543,
				"z": 0.5103628158,
				"element": "C" 
			},
			{
				"x": -0.0295350882,
				"y": -1.4789322406,
				"z": -0.3436286979,
				"element": "C" 
			},
			{
				"x": -0.5768544623,
				"y": -0.6236895116,
				"z": -1.4968724196,
				"element": "C" 
			},
			{
				"x": -1.844577328,
				"y": -3.2457615088,
				"z": -0.2049306774,
				"element": "C" 
			},
			{
				"x": -2.6602013696,
				"y": -3.9338130661,
				"z": 0.6309589922,
				"element": "O" 
			},
			{
				"x": -1.7188746516,
				"y": -3.549316254,
				"z": -1.3735415359,
				"element": "O" 
			},
			{
				"x": 0.4333015218,
				"y": 2.3631699355,
				"z": -2.226664358,
				"element": "H" 
			},
			{
				"x": -1.1962245055,
				"y": 2.6253320497,
				"z": -2.6172605459,
				"element": "H" 
			},
			{
				"x": -3.3353201551,
				"y": 0.606409025,
				"z": 0.037656908,
				"element": "H" 
			},
			{
				"x": -3.2336550957,
				"y": -0.8433167813,
				"z": -0.9657968379,
				"element": "H" 
			},
			{
				"x": -1.693990077,
				"y": -0.3339471583,
				"z": 1.6435840122,
				"element": "H" 
			},
			{
				"x": -3.0278108714,
				"y": -1.4710678132,
				"z": 1.4441451627,
				"element": "H" 
			},
			{
				"x": -0.7257091637,
				"y": -2.524903672,
				"z": 1.4245951837,
				"element": "H" 
			},
			{
				"x": 0.6039752676,
				"y": -2.2687536111,
				"z": -0.7598450177,
				"element": "H" 
			},
			{
				"x": 0.591503494,
				"y": -0.8501801558,
				"z": 0.3003033126,
				"element": "H" 
			},
			{
				"x": -1.0787650019,
				"y": -1.2651701352,
				"z": -2.2270724959,
				"element": "H" 
			},
			{
				"x": 0.2398067458,
				"y": -0.1154258131,
				"z": -2.0173683001,
				"element": "H" 
			},
			{
				"x": -3.0656578248,
				"y": -4.6376869635,
				"z": 0.0968271166,
				"element": "H" 
			}
		],
		 "valence_orbital": [ 
			{
				"type": "occ",
				"energy": -0.32052,
				"method": "rhf"
			},
			{
				"type": "occ",
				"energy": -0.30805,
				"method": "rhf"
			},
			{
				"type": "occ",
				"energy": -0.30177,
				"method": "rhf"
			},
			{
				"type": "occ",
				"energy": -0.28292,
				"method": "rhf"
			},
			{
				"type": "occ",
				"energy": -0.24569,
				"method": "rhf"
			},
			{
				"type": "unocc",
				"energy": -0.00459,
				"method": "rhf"
			},
			{
				"type": "unocc",
				"energy": 0.04256,
				"method": "rhf"
			},
			{
				"type": "unocc",
				"energy": 0.06571,
				"method": "rhf"
			},
			{
				"type": "unocc",
				"energy": 0.0788,
				"method": "rhf"
			},
			{
				"type": "unocc",
				"energy": 0.08754,
				"method": "rhf"
			}
		],
		"cosmo_sigma_profile": { 
			"-0.025": 0.0,
			"-0.024": 0.0,
			"-0.023": 0.0,
			"-0.022": 0.0,
			"-0.021": 0.0,
			"-0.02": 0.0,
			"-0.019": 0.0,
			"-0.018": 0.597242224439,
			"-0.017": 1.02324433562,
			"-0.016": 1.40257600938,
			"-0.015": 2.17455822947,
			"-0.014": 2.784256114,
			"-0.013": 2.68641409081,
			"-0.012": 4.18287169456,
			"-0.011": 3.36792560027,
			"-0.01": 2.89056770508,
			"-0.009": 3.10262228432,
			"-0.008": 2.07636044876,
			"-0.007": 3.11612625507,
			"-0.006": 6.44329639617,
			"-0.005": 10.4369054548,
			"-0.004": 20.1479847909,
			"-0.003": 21.5779528485,
			"-0.002": 18.3312664193,
			"-0.001": 13.9227324332,
			"0.0": 8.68169361057,
			"0.001": 6.18085079624,
			"0.002": 5.92597823649,
			"0.003": 7.24421563975,
			"0.004": 7.77636140844,
			"0.005": 5.4138929345,
			"0.006": 5.5693443742,
			"0.007": 7.16061373079,
			"0.008": 6.96374031756,
			"0.009": 7.39990763104,
			"0.01": 9.25194617472,
			"0.011": 13.4632522393,
			"0.012": 6.4871167511,
			"0.013": 0.197675828788,
			"0.014": 0.0,
			"0.015": 0.0,
			"0.016": 0.0,
			"0.017": 0.0,
			"0.018": 0.0,
			"0.019": 0.0,
			"0.02": 0.0,
			"0.021": 0.0,
			"0.022": 0.0,
			"0.023": 0.0,
			"0.024": 0.0,
			"0.025": 0.0
		}
	}
}
