{
	 "smiles": "CC(=O)C1=C(NS(=O)(=O)C2=CC=C(C)C=C2)C=CC=C1", 
	 "Tm": 422.15, 
	 "num_atms": 35, 
	 "gaussian": { 
		 "optdone": 1, 
		 "sigma_profile": "yes", 
		 "theory": "DFT", 
		 "functional": "B3LYP", 
		 "basiset": "6-31G**", 
		 "properties": { 
			 "R2extent": 6549.6484, 
			 "electric_dipole_moment_norm": 3.63454404018, 
			 "electric_quadrupole_moment_norm": 26.9903244871, 
			 "total_energy": -1259.1819523, 
			 "HOMO_LUMO_gap": 0.17607, 
			 "cosmo_polarized_energy": -17.77, 
			 "cosmo_cavitation_energy": 39.86, 
			 "cosmo_dispersion_energy": -27.24, 
			 "cosmo_repulsion_energy": 2.05, 
			 "cosmo_total_nonelectrostatic_energy": 14.67, 
			 "SMD_solvation_energy": 6.39 
		},
		"coords": [
			{
				"x": 0.9969027661,
				"y": 1.8526006889,
				"z": -0.7562583861,
				"element": "C" 
			},
			{
				"x": 0.222615055,
				"y": 1.4101040122,
				"z": -1.9896423064,
				"element": "C" 
			},
			{
				"x": 0.8521224355,
				"y": 1.1806020414,
				"z": -3.0123453297,
				"element": "O" 
			},
			{
				"x": -1.2805757271,
				"y": 1.2716090896,
				"z": -1.9995777891,
				"element": "C" 
			},
			{
				"x": -2.1663591357,
				"y": 1.2924141671,
				"z": -0.889516821,
				"element": "C" 
			},
			{
				"x": -1.7442884345,
				"y": 1.4853707686,
				"z": 0.4528717913,
				"element": "N" 
			},
			{
				"x": -2.0308779211,
				"y": 0.3680836414,
				"z": 1.7100973742,
				"element": "S" 
			},
			{
				"x": -1.3268160066,
				"y": 0.9602869554,
				"z": 2.8482277691,
				"element": "O" 
			},
			{
				"x": -3.4640353012,
				"y": 0.0823433867,
				"z": 1.7331206605,
				"element": "O" 
			},
			{
				"x": -1.1807114345,
				"y": -1.1385729678,
				"z": 1.2453085432,
				"element": "C" 
			},
			{
				"x": 0.1205413355,
				"y": -1.3565438467,
				"z": 1.7050688211,
				"element": "C" 
			},
			{
				"x": 0.7903537989,
				"y": -2.5156605147,
				"z": 1.3185362132,
				"element": "C" 
			},
			{
				"x": 0.1829727801,
				"y": -3.4587571726,
				"z": 0.4765005235,
				"element": "C" 
			},
			{
				"x": 0.9284183922,
				"y": -4.6947130404,
				"z": 0.0354743941,
				"element": "C" 
			},
			{
				"x": -1.1286416609,
				"y": -3.2186243567,
				"z": 0.0409902675,
				"element": "C" 
			},
			{
				"x": -1.8170541359,
				"y": -2.0678924322,
				"z": 0.4187048607,
				"element": "C" 
			},
			{
				"x": -3.5476228612,
				"y": 1.1391353424,
				"z": -1.1020131908,
				"element": "C" 
			},
			{
				"x": -4.0575744027,
				"y": 0.9455145811,
				"z": -2.380030595,
				"element": "C" 
			},
			{
				"x": -3.199036108,
				"y": 0.9272599865,
				"z": -3.4824439862,
				"element": "C" 
			},
			{
				"x": -1.8371530648,
				"y": 1.0948346745,
				"z": -3.2821541866,
				"element": "C" 
			},
			{
				"x": 2.0369455996,
				"y": 1.9938734798,
				"z": -1.0526776146,
				"element": "H" 
			},
			{
				"x": 0.6192928144,
				"y": 2.7989325226,
				"z": -0.3499503808,
				"element": "H" 
			},
			{
				"x": 0.963234391,
				"y": 1.0892045358,
				"z": 0.0288733924,
				"element": "H" 
			},
			{
				"x": -0.8396775044,
				"y": 1.90996915,
				"z": 0.6010274771,
				"element": "H" 
			},
			{
				"x": 0.5820014184,
				"y": -0.6405421433,
				"z": 2.37688173,
				"element": "H" 
			},
			{
				"x": 1.7977660013,
				"y": -2.6953780093,
				"z": 1.6842206924,
				"element": "H" 
			},
			{
				"x": 1.6771918537,
				"y": -4.99588087,
				"z": 0.7734737847,
				"element": "H" 
			},
			{
				"x": 0.2485417811,
				"y": -5.5362453265,
				"z": -0.1254508561,
				"element": "H" 
			},
			{
				"x": 1.454663445,
				"y": -4.5151559649,
				"z": -0.9102389455,
				"element": "H" 
			},
			{
				"x": -1.6214732696,
				"y": -3.9468226104,
				"z": -0.5974912624,
				"element": "H" 
			},
			{
				"x": -2.8380945125,
				"y": -1.8990235064,
				"z": 0.0959368785,
				"element": "H" 
			},
			{
				"x": -4.2057585752,
				"y": 1.1792915403,
				"z": -0.2433068069,
				"element": "H" 
			},
			{
				"x": -5.1292844254,
				"y": 0.8310523929,
				"z": -2.5146366209,
				"element": "H" 
			},
			{
				"x": -3.5905814556,
				"y": 0.7930082282,
				"z": -4.4860233923,
				"element": "H" 
			},
			{
				"x": -1.1458479308,
				"y": 1.0847215765,
				"z": -4.1171567029,
				"element": "H" 
			}
		],
		 "valence_orbital": [ 
			{
				"type": "occ",
				"energy": -0.27512,
				"method": "rhf"
			},
			{
				"type": "occ",
				"energy": -0.26841,
				"method": "rhf"
			},
			{
				"type": "occ",
				"energy": -0.26501,
				"method": "rhf"
			},
			{
				"type": "occ",
				"energy": -0.25767,
				"method": "rhf"
			},
			{
				"type": "occ",
				"energy": -0.2409,
				"method": "rhf"
			},
			{
				"type": "unocc",
				"energy": -0.06483,
				"method": "rhf"
			},
			{
				"type": "unocc",
				"energy": -0.04196,
				"method": "rhf"
			},
			{
				"type": "unocc",
				"energy": -0.02729,
				"method": "rhf"
			},
			{
				"type": "unocc",
				"energy": -0.01503,
				"method": "rhf"
			},
			{
				"type": "unocc",
				"energy": 0.0273,
				"method": "rhf"
			}
		],
		"cosmo_sigma_profile": { 
			"-0.025": 0.0,
			"-0.024": 0.0,
			"-0.023": 0.0,
			"-0.022": 0.0,
			"-0.021": 0.0,
			"-0.02": 0.0,
			"-0.019": 0.0,
			"-0.018": 0.0,
			"-0.017": 0.0,
			"-0.016": 0.0,
			"-0.015": 0.0,
			"-0.014": 0.132477604515,
			"-0.013": 1.25761669713,
			"-0.012": 1.7257479294,
			"-0.011": 2.01089481061,
			"-0.01": 2.06627004548,
			"-0.009": 1.93238002425,
			"-0.008": 1.96858201429,
			"-0.007": 7.63805503509,
			"-0.006": 15.7995398689,
			"-0.005": 26.3906709856,
			"-0.004": 24.898470511,
			"-0.003": 25.1987000665,
			"-0.002": 25.9965601972,
			"-0.001": 25.5939660719,
			"0.0": 20.6591430207,
			"0.001": 21.2793973326,
			"0.002": 24.7396092439,
			"0.003": 26.5156594294,
			"0.004": 11.5796053732,
			"0.005": 5.92818371711,
			"0.006": 4.54118794695,
			"0.007": 5.31850877093,
			"0.008": 5.46521677673,
			"0.009": 6.20407012438,
			"0.01": 9.38183513111,
			"0.011": 9.82000044312,
			"0.012": 3.74608065916,
			"0.013": 0.793662050804,
			"0.014": 0.0,
			"0.015": 0.0,
			"0.016": 0.0,
			"0.017": 0.0,
			"0.018": 0.0,
			"0.019": 0.0,
			"0.02": 0.0,
			"0.021": 0.0,
			"0.022": 0.0,
			"0.023": 0.0,
			"0.024": 0.0,
			"0.025": 0.0
		}
	}
}
