{
	 "smiles": "OC(=O)C1=C(Cl)C2=C(S1)C=C(Cl)C=C2Cl", 
	 "Tm": 522.15, 
	 "num_atms": 18, 
	 "gaussian": { 
		 "optdone": 1, 
		 "sigma_profile": "yes", 
		 "theory": "DFT", 
		 "functional": "B3LYP", 
		 "basiset": "6-31G**", 
		 "properties": { 
			 "R2extent": 5435.7406, 
			 "electric_dipole_moment_norm": 4.54763137138, 
			 "electric_quadrupole_moment_norm": 21.1064997629, 
			 "total_energy": -2273.96527838, 
			 "HOMO_LUMO_gap": 0.15646, 
			 "cosmo_polarized_energy": -14.29, 
			 "cosmo_cavitation_energy": 29.83, 
			 "cosmo_dispersion_energy": -23.12, 
			 "cosmo_repulsion_energy": 1.74, 
			 "cosmo_total_nonelectrostatic_energy": 8.44, 
			 "SMD_solvation_energy": 4.97 
		},
		"coords": [
			{
				"x": 0.4757773999,
				"y": -3.0059402132,
				"z": 2.9858035319,
				"element": "O" 
			},
			{
				"x": 0.0944934739,
				"y": -3.1241433916,
				"z": 1.685069805,
				"element": "C" 
			},
			{
				"x": -0.1189085938,
				"y": -4.2191745323,
				"z": 1.2273477586,
				"element": "O" 
			},
			{
				"x": -0.0336809461,
				"y": -1.8621535381,
				"z": 0.9024666986,
				"element": "C" 
			},
			{
				"x": -0.4009090773,
				"y": -1.7226521069,
				"z": -0.416083534,
				"element": "C" 
			},
			{
				"x": -0.7911721985,
				"y": -3.0711233994,
				"z": -1.4192842935,
				"element": "Cl" 
			},
			{
				"x": -0.4287005507,
				"y": -0.3470647182,
				"z": -0.8787969044,
				"element": "C" 
			},
			{
				"x": -0.0612365806,
				"y": 0.5436305779,
				"z": 0.1662280307,
				"element": "C" 
			},
			{
				"x": 0.2989766681,
				"y": -0.3022719604,
				"z": 1.6478492486,
				"element": "S" 
			},
			{
				"x": 0.0037297771,
				"y": 1.931065575,
				"z": 0.0233449839,
				"element": "C" 
			},
			{
				"x": -0.3125689413,
				"y": 2.4536047413,
				"z": -1.2195756509,
				"element": "C" 
			},
			{
				"x": -0.2522785761,
				"y": 4.1831607545,
				"z": -1.4703660788,
				"element": "Cl" 
			},
			{
				"x": -0.6826211673,
				"y": 1.6271092815,
				"z": -2.2903673224,
				"element": "C" 
			},
			{
				"x": -0.7412125198,
				"y": 0.2497497411,
				"z": -2.1278244889,
				"element": "C" 
			},
			{
				"x": -1.2152436838,
				"y": -0.6703574284,
				"z": -3.5359057892,
				"element": "Cl" 
			},
			{
				"x": 0.623826132,
				"y": -2.09074966,
				"z": 3.2627409531,
				"element": "H" 
			},
			{
				"x": 0.288954935,
				"y": 2.5744675751,
				"z": 0.8470878463,
				"element": "H" 
			},
			{
				"x": -0.9249255507,
				"y": 2.0622427023,
				"z": -3.2515347944,
				"element": "H" 
			}
		],
		 "valence_orbital": [ 
			{
				"type": "occ",
				"energy": -0.31474,
				"method": "rhf"
			},
			{
				"type": "occ",
				"energy": -0.29689,
				"method": "rhf"
			},
			{
				"type": "occ",
				"energy": -0.28056,
				"method": "rhf"
			},
			{
				"type": "occ",
				"energy": -0.27536,
				"method": "rhf"
			},
			{
				"type": "occ",
				"energy": -0.24683,
				"method": "rhf"
			},
			{
				"type": "unocc",
				"energy": -0.09037,
				"method": "rhf"
			},
			{
				"type": "unocc",
				"energy": -0.04772,
				"method": "rhf"
			},
			{
				"type": "unocc",
				"energy": -0.0415,
				"method": "rhf"
			},
			{
				"type": "unocc",
				"energy": -0.01692,
				"method": "rhf"
			},
			{
				"type": "unocc",
				"energy": -0.00479,
				"method": "rhf"
			}
		],
		"cosmo_sigma_profile": { 
			"-0.025": 0.0,
			"-0.024": 0.0,
			"-0.023": 0.0,
			"-0.022": 0.0,
			"-0.021": 0.0,
			"-0.02": 0.0,
			"-0.019": 0.182851896064,
			"-0.018": 0.83401229099,
			"-0.017": 0.679509158965,
			"-0.016": 0.77833809989,
			"-0.015": 0.854208709843,
			"-0.014": 0.690162051241,
			"-0.013": 1.31513412879,
			"-0.012": 1.01360684826,
			"-0.011": 1.50064369299,
			"-0.01": 3.06954121373,
			"-0.009": 3.67450441696,
			"-0.008": 4.20917490653,
			"-0.007": 4.14770966226,
			"-0.006": 5.82783635317,
			"-0.005": 5.93230959062,
			"-0.004": 7.93790934861,
			"-0.003": 15.0373045906,
			"-0.002": 24.1567339397,
			"-0.001": 32.5419786222,
			"0.0": 29.0845634773,
			"0.001": 17.4446198995,
			"0.002": 19.263501729,
			"0.003": 24.1175441652,
			"0.004": 15.6099132889,
			"0.005": 2.59396523204,
			"0.006": 2.87417711831,
			"0.007": 2.99321848099,
			"0.008": 3.3210280467,
			"0.009": 4.54953432236,
			"0.01": 5.64148825317,
			"0.011": 5.66162282421,
			"0.012": 2.24543157024,
			"0.013": 0.123099423726,
			"0.014": 0.0,
			"0.015": 0.0,
			"0.016": 0.0,
			"0.017": 0.0,
			"0.018": 0.0,
			"0.019": 0.0,
			"0.02": 0.0,
			"0.021": 0.0,
			"0.022": 0.0,
			"0.023": 0.0,
			"0.024": 0.0,
			"0.0": 0.0
		}
	}
}
