{
	 "smiles": "CCCOC1=C(C=CC=C1)C(N)=S", 
	 "Tm": 374.15, 
	 "num_atms": 26, 
	 "gaussian": { 
		 "optdone": 1, 
		 "sigma_profile": "yes", 
		 "theory": "DFT", 
		 "functional": "B3LYP", 
		 "basiset": "6-31G**", 
		 "properties": { 
			 "R2extent": 3549.766, 
			 "electric_dipole_moment_norm": 6.64706738795, 
			 "electric_quadrupole_moment_norm": 11.5844546885, 
			 "total_energy": -917.072974423, 
			 "HOMO_LUMO_gap": 0.14338, 
			 "cosmo_polarized_energy": -15.09, 
			 "cosmo_cavitation_energy": 30.47, 
			 "cosmo_dispersion_energy": -22.32, 
			 "cosmo_repulsion_energy": 1.73, 
			 "cosmo_total_nonelectrostatic_energy": 9.89, 
			 "SMD_solvation_energy": 4.34 
		},
		"coords": [
			{
				"x": -1.7888556642,
				"y": 1.3990123546,
				"z": -2.6110431054,
				"element": "C" 
			},
			{
				"x": -0.3507444632,
				"y": 1.2894668303,
				"z": -3.1279085839,
				"element": "C" 
			},
			{
				"x": 0.3190147735,
				"y": -0.0383483174,
				"z": -2.7981427191,
				"element": "C" 
			},
			{
				"x": 0.4191716991,
				"y": -0.1424912194,
				"z": -1.3721861206,
				"element": "O" 
			},
			{
				"x": 0.875797691,
				"y": -1.300573704,
				"z": -0.7958829567,
				"element": "C" 
			},
			{
				"x": 0.8222619665,
				"y": -1.4125400388,
				"z": 0.6218352018,
				"element": "C" 
			},
			{
				"x": 1.294559402,
				"y": -2.6092921087,
				"z": 1.1873317156,
				"element": "C" 
			},
			{
				"x": 1.7991130485,
				"y": -3.651860355,
				"z": 0.4194344573,
				"element": "C" 
			},
			{
				"x": 1.8385887644,
				"y": -3.5207955484,
				"z": -0.967061141,
				"element": "C" 
			},
			{
				"x": 1.3778399007,
				"y": -2.3531349161,
				"z": -1.5716280229,
				"element": "C" 
			},
			{
				"x": 0.3020588165,
				"y": -0.3581227775,
				"z": 1.5510407106,
				"element": "C" 
			},
			{
				"x": 0.1515092529,
				"y": 0.8833632124,
				"z": 1.0530016015,
				"element": "N" 
			},
			{
				"x": -0.0709052716,
				"y": -0.6579648479,
				"z": 3.1621972189,
				"element": "S" 
			},
			{
				"x": -1.8289609193,
				"y": 1.2879358152,
				"z": -1.5238668211,
				"element": "H" 
			},
			{
				"x": -2.4243576117,
				"y": 0.6203829893,
				"z": -3.0473262185,
				"element": "H" 
			},
			{
				"x": -2.2240771855,
				"y": 2.368810472,
				"z": -2.869804676,
				"element": "H" 
			},
			{
				"x": -0.3321115582,
				"y": 1.4010415929,
				"z": -4.2191202761,
				"element": "H" 
			},
			{
				"x": 0.2646247389,
				"y": 2.1034977056,
				"z": -2.724631778,
				"element": "H" 
			},
			{
				"x": 1.3215791358,
				"y": -0.0903735822,
				"z": -3.2427321316,
				"element": "H" 
			},
			{
				"x": -0.274291398,
				"y": -0.878650354,
				"z": -3.182611071,
				"element": "H" 
			},
			{
				"x": 1.2446770201,
				"y": -2.6919822938,
				"z": 2.2672895237,
				"element": "H" 
			},
			{
				"x": 2.1569517,
				"y": -4.5563138523,
				"z": 0.9005310619,
				"element": "H" 
			},
			{
				"x": 2.2281328073,
				"y": -4.3225770316,
				"z": -1.587865706,
				"element": "H" 
			},
			{
				"x": 1.4166750508,
				"y": -2.2643462602,
				"z": -2.6497054036,
				"element": "H" 
			},
			{
				"x": -0.2043517806,
				"y": 1.5935728668,
				"z": 1.6749248587,
				"element": "H" 
			},
			{
				"x": 0.3111000843,
				"y": 1.0769833684,
				"z": 0.0748303814,
				"element": "H" 
			}
		],
		 "valence_orbital": [ 
			{
				"type": "occ",
				"energy": -0.3261,
				"method": "rhf"
			},
			{
				"type": "occ",
				"energy": -0.26206,
				"method": "rhf"
			},
			{
				"type": "occ",
				"energy": -0.23746,
				"method": "rhf"
			},
			{
				"type": "occ",
				"energy": -0.21108,
				"method": "rhf"
			},
			{
				"type": "occ",
				"energy": -0.19688,
				"method": "rhf"
			},
			{
				"type": "unocc",
				"energy": -0.0535,
				"method": "rhf"
			},
			{
				"type": "unocc",
				"energy": 0.00076,
				"method": "rhf"
			},
			{
				"type": "unocc",
				"energy": 0.03277,
				"method": "rhf"
			},
			{
				"type": "unocc",
				"energy": 0.07072,
				"method": "rhf"
			},
			{
				"type": "unocc",
				"energy": 0.08152,
				"method": "rhf"
			}
		],
		"cosmo_sigma_profile": { 
			"-0.025": 0.0,
			"-0.024": 0.0,
			"-0.023": 0.0,
			"-0.022": 0.0,
			"-0.021": 0.0,
			"-0.02": 0.0,
			"-0.019": 0.0,
			"-0.018": 0.0,
			"-0.017": 0.0,
			"-0.016": 0.0,
			"-0.015": 0.0984635511195,
			"-0.014": 1.01615362923,
			"-0.013": 0.887890378053,
			"-0.012": 0.900952478563,
			"-0.011": 1.22088004555,
			"-0.01": 1.6275849196,
			"-0.009": 1.99280483451,
			"-0.008": 1.70643555253,
			"-0.007": 4.3757879001,
			"-0.006": 11.1753493618,
			"-0.005": 15.4278430348,
			"-0.004": 21.7034837885,
			"-0.003": 22.2042621775,
			"-0.002": 17.9076491167,
			"-0.001": 18.6462602656,
			"0.0": 19.4421656364,
			"0.001": 20.0572468172,
			"0.002": 15.8084008023,
			"0.003": 13.7781429573,
			"0.004": 14.700137735,
			"0.005": 6.12017822248,
			"0.006": 4.29387091369,
			"0.007": 3.84897165162,
			"0.008": 4.39883281349,
			"0.009": 6.37170240269,
			"0.01": 6.87648788311,
			"0.011": 4.86810481808,
			"0.012": 2.23377829235,
			"0.013": 0.236766717015,
			"0.014": 0.0,
			"0.015": 0.0,
			"0.016": 0.0,
			"0.017": 0.0,
			"0.018": 0.0,
			"0.019": 0.0,
			"0.02": 0.0,
			"0.021": 0.0,
			"0.022": 0.0,
			"0.023": 0.0,
			"0.024": 0.0,
			"0.025": 0.0
		}
	}
}
