{
	 "smiles": "OC1=C(C=CC=C1)C1=NN=C2CCCCCN12", 
	 "Tm": 545.15, 
	 "num_atms": 32, 
	 "gaussian": { 
		 "optdone": 1, 
		 "sigma_profile": "yes", 
		 "theory": "DFT", 
		 "functional": "B3LYP", 
		 "basiset": "6-31G**", 
		 "properties": { 
			 "R2extent": 4491.8968, 
			 "electric_dipole_moment_norm": 6.61952888505, 
			 "electric_quadrupole_moment_norm": 19.1345246831, 
			 "total_energy": -743.890950133, 
			 "HOMO_LUMO_gap": 0.19687, 
			 "cosmo_polarized_energy": -21.72, 
			 "cosmo_cavitation_energy": 33.38, 
			 "cosmo_dispersion_energy": -24.48, 
			 "cosmo_repulsion_energy": 1.89, 
			 "cosmo_total_nonelectrostatic_energy": 10.79, 
			 "SMD_solvation_energy": 2.75 
		},
		"coords": [
			{
				"x": -2.2042891604,
				"y": -1.8746013732,
				"z": 0.9245081734,
				"element": "O" 
			},
			{
				"x": -1.1484851517,
				"y": -2.7452636753,
				"z": 0.9825418122,
				"element": "C" 
			},
			{
				"x": 0.0202557583,
				"y": -2.4155876507,
				"z": 0.2682906869,
				"element": "C" 
			},
			{
				"x": 1.0785745543,
				"y": -3.337475409,
				"z": 0.2705422638,
				"element": "C" 
			},
			{
				"x": 1.0039681391,
				"y": -4.5330313162,
				"z": 0.981866944,
				"element": "C" 
			},
			{
				"x": -0.1503640001,
				"y": -4.8282536475,
				"z": 1.7083309371,
				"element": "C" 
			},
			{
				"x": -1.2230076841,
				"y": -3.9381054361,
				"z": 1.7079271193,
				"element": "C" 
			},
			{
				"x": 0.1484032014,
				"y": -1.1994053529,
				"z": -0.5543477458,
				"element": "C" 
			},
			{
				"x": 0.5481427197,
				"y": -1.2107757773,
				"z": -1.810687256,
				"element": "N" 
			},
			{
				"x": 0.6108934484,
				"y": 0.0930986624,
				"z": -2.2391569047,
				"element": "N" 
			},
			{
				"x": 0.2535830918,
				"y": 0.8649064198,
				"z": -1.2352020051,
				"element": "C" 
			},
			{
				"x": 0.2035689794,
				"y": 2.3572374303,
				"z": -1.2871949404,
				"element": "C" 
			},
			{
				"x": 1.240423796,
				"y": 3.0528879441,
				"z": -0.377036256,
				"element": "C" 
			},
			{
				"x": 1.3288878835,
				"y": 2.4553281193,
				"z": 1.0444260706,
				"element": "C" 
			},
			{
				"x": -0.0291260616,
				"y": 1.9769047004,
				"z": 1.5895372727,
				"element": "C" 
			},
			{
				"x": -0.3819678894,
				"y": 0.5204040301,
				"z": 1.2396014119,
				"element": "C" 
			},
			{
				"x": -0.0509450082,
				"y": 0.1007724147,
				"z": -0.1307498517,
				"element": "N" 
			},
			{
				"x": -2.9553817236,
				"y": -2.2605101162,
				"z": 1.3935770752,
				"element": "H" 
			},
			{
				"x": 1.9621305432,
				"y": -3.0932708145,
				"z": -0.3095317621,
				"element": "H" 
			},
			{
				"x": 1.8385930664,
				"y": -5.2264990183,
				"z": 0.9697042076,
				"element": "H" 
			},
			{
				"x": -0.2238526679,
				"y": -5.7532287339,
				"z": 2.2727319628,
				"element": "H" 
			},
			{
				"x": -2.1318623802,
				"y": -4.1735770708,
				"z": 2.2584171033,
				"element": "H" 
			},
			{
				"x": 0.370439567,
				"y": 2.6383481169,
				"z": -2.3299436837,
				"element": "H" 
			},
			{
				"x": -0.8058187034,
				"y": 2.6994059751,
				"z": -1.0277543261,
				"element": "H" 
			},
			{
				"x": 2.227373374,
				"y": 3.0059081438,
				"z": -0.8497163869,
				"element": "H" 
			},
			{
				"x": 0.9741938673,
				"y": 4.1150629208,
				"z": -0.3142958601,
				"element": "H" 
			},
			{
				"x": 1.7538430605,
				"y": 3.2065974254,
				"z": 1.718914888,
				"element": "H" 
			},
			{
				"x": 2.0316356195,
				"y": 1.6129758318,
				"z": 1.0502965722,
				"element": "H" 
			},
			{
				"x": -0.0359529268,
				"y": 2.0295053007,
				"z": 2.6840934234,
				"element": "H" 
			},
			{
				"x": -0.8252151874,
				"y": 2.6525858777,
				"z": 1.2565940944,
				"element": "H" 
			},
			{
				"x": 0.1765283924,
				"y": -0.1494389034,
				"z": 1.9019948146,
				"element": "H" 
			},
			{
				"x": -1.4431705172,
				"y": 0.330394982,
				"z": 1.4184201449,
				"element": "H" 
			}
		],
		 "valence_orbital": [ 
			{
				"type": "occ",
				"energy": -0.26833,
				"method": "rhf"
			},
			{
				"type": "occ",
				"energy": -0.26574,
				"method": "rhf"
			},
			{
				"type": "occ",
				"energy": -0.2389,
				"method": "rhf"
			},
			{
				"type": "occ",
				"energy": -0.23114,
				"method": "rhf"
			},
			{
				"type": "occ",
				"energy": -0.21768,
				"method": "rhf"
			},
			{
				"type": "unocc",
				"energy": -0.02081,
				"method": "rhf"
			},
			{
				"type": "unocc",
				"energy": 0.00391,
				"method": "rhf"
			},
			{
				"type": "unocc",
				"energy": 0.03908,
				"method": "rhf"
			},
			{
				"type": "unocc",
				"energy": 0.05466,
				"method": "rhf"
			},
			{
				"type": "unocc",
				"energy": 0.06762,
				"method": "rhf"
			}
		],
		"cosmo_sigma_profile": { 
			"-0.025": 0.0,
			"-0.024": 0.0,
			"-0.023": 0.0,
			"-0.022": 0.0,
			"-0.021": 0.0,
			"-0.02": 0.0,
			"-0.019": 0.0,
			"-0.018": 0.986356295982,
			"-0.017": 1.04448961089,
			"-0.016": 0.78247252276,
			"-0.015": 1.42316669275,
			"-0.014": 0.978729334918,
			"-0.013": 0.968834501928,
			"-0.012": 0.697935660693,
			"-0.011": 1.13504750494,
			"-0.01": 1.12875022803,
			"-0.009": 1.23126149372,
			"-0.008": 0.79933010976,
			"-0.007": 2.4711892155,
			"-0.006": 7.63755705247,
			"-0.005": 17.9243098303,
			"-0.004": 25.1847007581,
			"-0.003": 31.1730127089,
			"-0.002": 30.4231738203,
			"-0.001": 24.2268567941,
			"0.0": 19.6159650662,
			"0.001": 12.5480806705,
			"0.002": 10.6762197804,
			"0.003": 10.6010732791,
			"0.004": 12.8215068604,
			"0.005": 11.5736166679,
			"0.006": 4.46854266504,
			"0.007": 3.30629356033,
			"0.008": 2.63679013528,
			"0.009": 2.92123241771,
			"0.01": 2.23841154394,
			"0.011": 2.12885572362,
			"0.012": 2.47828937738,
			"0.013": 2.59373818133,
			"0.014": 3.18853946217,
			"0.015": 3.26298701004,
			"0.016": 2.84975154559,
			"0.017": 2.25891198829,
			"0.018": 0.956808385864,
			"0.019": 0.0,
			"0.02": 0.0,
			"0.021": 0.0,
			"0.022": 0.0,
			"0.023": 0.0,
			"0.024": 0.0,
			"0.025": 0.0
		}
	}
}
