{
	 "smiles": "OC(=O)C1=CN(C(=O)C=C1)C1=C(F)C=CC=C1", 
	 "Tm": 523.15, 
	 "num_atms": 25, 
	 "gaussian": { 
		 "optdone": 1, 
		 "sigma_profile": "yes", 
		 "theory": "DFT", 
		 "functional": "B3LYP", 
		 "basiset": "6-31G**", 
		 "properties": { 
			 "R2extent": 4459.596, 
			 "electric_dipole_moment_norm": 2.1737788549, 
			 "electric_quadrupole_moment_norm": 22.901914044, 
			 "total_energy": -842.371402195, 
			 "HOMO_LUMO_gap": 0.17224, 
			 "cosmo_polarized_energy": -16.5, 
			 "cosmo_cavitation_energy": 31.12, 
			 "cosmo_dispersion_energy": -22.09, 
			 "cosmo_repulsion_energy": 1.69, 
			 "cosmo_total_nonelectrostatic_energy": 10.72, 
			 "SMD_solvation_energy": 8.01 
		},
		"coords": [
			{
				"x": 2.3685944892,
				"y": -3.1135045149,
				"z": -3.3600903074,
				"element": "O" 
			},
			{
				"x": 2.0266474953,
				"y": -2.8163128716,
				"z": -2.0803290024,
				"element": "C" 
			},
			{
				"x": 2.1455637594,
				"y": -3.6205995819,
				"z": -1.1738175328,
				"element": "O" 
			},
			{
				"x": 1.5134096985,
				"y": -1.4426842383,
				"z": -1.9362741927,
				"element": "C" 
			},
			{
				"x": 1.1251875242,
				"y": -1.0392359182,
				"z": -0.6830748786,
				"element": "C" 
			},
			{
				"x": 0.636272309,
				"y": 0.2058884665,
				"z": -0.4464903208,
				"element": "N" 
			},
			{
				"x": 0.4948496861,
				"y": 1.2034053139,
				"z": -1.4835444359,
				"element": "C" 
			},
			{
				"x": 0.0789150617,
				"y": 2.3161408446,
				"z": -1.2034293866,
				"element": "O" 
			},
			{
				"x": 0.8995681008,
				"y": 0.7395166933,
				"z": -2.7977239948,
				"element": "C" 
			},
			{
				"x": 1.3865297559,
				"y": -0.5121506973,
				"z": -3.0163520146,
				"element": "C" 
			},
			{
				"x": 0.2795750021,
				"y": 0.5809032451,
				"z": 0.8919733276,
				"element": "C" 
			},
			{
				"x": -1.0445708988,
				"y": 0.9061257508,
				"z": 1.1974367754,
				"element": "C" 
			},
			{
				"x": -1.9723453148,
				"y": 0.8452774159,
				"z": 0.2311948638,
				"element": "F" 
			},
			{
				"x": -1.4205697996,
				"y": 1.2646025134,
				"z": 2.4849067551,
				"element": "C" 
			},
			{
				"x": -0.455521638,
				"y": 1.288149786,
				"z": 3.4931991088,
				"element": "C" 
			},
			{
				"x": 0.8704246676,
				"y": 0.9579763842,
				"z": 3.2084366881,
				"element": "C" 
			},
			{
				"x": 1.2367779933,
				"y": 0.6126231012,
				"z": 1.9070761464,
				"element": "C" 
			},
			{
				"x": 2.6895811115,
				"y": -4.029885004,
				"z": -3.3413421081,
				"element": "H" 
			},
			{
				"x": 1.1882973363,
				"y": -1.7130437818,
				"z": 0.1635982832,
				"element": "H" 
			},
			{
				"x": 0.7982061743,
				"y": 1.4646656834,
				"z": -3.5966417843,
				"element": "H" 
			},
			{
				"x": 1.6852536515,
				"y": -0.8223772087,
				"z": -4.0119660123,
				"element": "H" 
			},
			{
				"x": -2.4588451257,
				"y": 1.5109757937,
				"z": 2.6777698885,
				"element": "H" 
			},
			{
				"x": -0.7441621527,
				"y": 1.5650289532,
				"z": 4.5023377818,
				"element": "H" 
			},
			{
				"x": 1.6210001277,
				"y": 0.978915764,
				"z": 3.9915949771,
				"element": "H" 
			},
			{
				"x": 2.2680609851,
				"y": 0.3756981075,
				"z": 1.6642513756,
				"element": "H" 
			}
		],
		 "valence_orbital": [ 
			{
				"type": "occ",
				"energy": -0.28374,
				"method": "rhf"
			},
			{
				"type": "occ",
				"energy": -0.27385,
				"method": "rhf"
			},
			{
				"type": "occ",
				"energy": -0.26347,
				"method": "rhf"
			},
			{
				"type": "occ",
				"energy": -0.2562,
				"method": "rhf"
			},
			{
				"type": "occ",
				"energy": -0.22876,
				"method": "rhf"
			},
			{
				"type": "unocc",
				"energy": -0.05652,
				"method": "rhf"
			},
			{
				"type": "unocc",
				"energy": -0.03759,
				"method": "rhf"
			},
			{
				"type": "unocc",
				"energy": -0.02383,
				"method": "rhf"
			},
			{
				"type": "unocc",
				"energy": -0.01168,
				"method": "rhf"
			},
			{
				"type": "unocc",
				"energy": 0.05896,
				"method": "rhf"
			}
		],
		"cosmo_sigma_profile": { 
			"-0.025": 0.0,
			"-0.024": 0.0,
			"-0.023": 0.0,
			"-0.022": 0.0,
			"-0.021": 0.0,
			"-0.02": 0.0,
			"-0.019": 0.147312301304,
			"-0.018": 0.788566582394,
			"-0.017": 0.955553105335,
			"-0.016": 0.909789883902,
			"-0.015": 0.546965305226,
			"-0.014": 0.443614040769,
			"-0.013": 0.71903977136,
			"-0.012": 1.07498135306,
			"-0.011": 0.457823209577,
			"-0.01": 0.865630018627,
			"-0.009": 1.31293435713,
			"-0.008": 5.81946751556,
			"-0.007": 14.0256567406,
			"-0.006": 15.0862278515,
			"-0.005": 15.3433426386,
			"-0.004": 11.8602715243,
			"-0.003": 13.9951890684,
			"-0.002": 18.8456624115,
			"-0.001": 18.6310838519,
			"0.0": 20.7437364302,
			"0.001": 16.4161654851,
			"0.002": 16.190245366,
			"0.003": 19.3226225531,
			"0.004": 11.8792476129,
			"0.005": 5.19446057505,
			"0.006": 4.23817059333,
			"0.007": 5.08091631612,
			"0.008": 3.21473668541,
			"0.009": 3.61589444892,
			"0.01": 3.59789655607,
			"0.011": 5.56447253982,
			"0.012": 7.60934836509,
			"0.013": 4.62835058571,
			"0.014": 1.34848580996,
			"0.015": 0.0,
			"0.016": 0.0,
			"0.017": 0.0,
			"0.018": 0.0,
			"0.019": 0.0,
			"0.02": 0.0,
			"0.021": 0.0,
			"0.022": 0.0,
			"0.023": 0.0,
			"0.024": 0.0,
			"0.025": 0.0
		}
	}
}
