{
	 "smiles": "CC1=C(C=CC=C1C(O)=O)C1=NC=CC=C1", 
	 "Tm": 485.15, 
	 "num_atms": 27, 
	 "gaussian": { 
		 "optdone": 1, 
		 "sigma_profile": "yes", 
		 "theory": "DFT", 
		 "functional": "B3LYP", 
		 "basiset": "6-31G**", 
		 "properties": { 
			 "R2extent": 4290.0228, 
			 "electric_dipole_moment_norm": 6.17880399268, 
			 "electric_quadrupole_moment_norm": 17.3138966758, 
			 "total_energy": -707.222189137, 
			 "HOMO_LUMO_gap": 0.19643, 
			 "cosmo_polarized_energy": -14.99, 
			 "cosmo_cavitation_energy": 30.89, 
			 "cosmo_dispersion_energy": -22.38, 
			 "cosmo_repulsion_energy": 1.72, 
			 "cosmo_total_nonelectrostatic_energy": 10.22, 
			 "SMD_solvation_energy": 5.36 
		},
		"coords": [
			{
				"x": -0.2088619225,
				"y": -0.83837461,
				"z": -1.3352158716,
				"element": "C" 
			},
			{
				"x": -1.1523968412,
				"y": -0.0072025906,
				"z": -0.4849965041,
				"element": "C" 
			},
			{
				"x": -0.6531401836,
				"y": 1.0546958017,
				"z": 0.3093199505,
				"element": "C" 
			},
			{
				"x": -1.5416166309,
				"y": 1.8858843619,
				"z": 1.0060479397,
				"element": "C" 
			},
			{
				"x": -2.9199574375,
				"y": 1.6997967969,
				"z": 0.9308042682,
				"element": "C" 
			},
			{
				"x": -3.4206916033,
				"y": 0.6580736355,
				"z": 0.1628829173,
				"element": "C" 
			},
			{
				"x": -2.550671434,
				"y": -0.2063960336,
				"z": -0.5188295868,
				"element": "C" 
			},
			{
				"x": -3.23862021,
				"y": -1.3100163537,
				"z": -1.2796703778,
				"element": "C" 
			},
			{
				"x": -2.6377786583,
				"y": -2.5308433301,
				"z": -1.2872323825,
				"element": "O" 
			},
			{
				"x": -4.3052617585,
				"y": -1.1682219465,
				"z": -1.8295278242,
				"element": "O" 
			},
			{
				"x": 0.8081206304,
				"y": 1.3272411955,
				"z": 0.4482090697,
				"element": "C" 
			},
			{
				"x": 1.616003124,
				"y": 0.2775107363,
				"z": 0.6905666512,
				"element": "N" 
			},
			{
				"x": 2.9201083468,
				"y": 0.510929615,
				"z": 0.8682733095,
				"element": "C" 
			},
			{
				"x": 3.4966614144,
				"y": 1.7807520383,
				"z": 0.8162443108,
				"element": "C" 
			},
			{
				"x": 2.6638338899,
				"y": 2.8668534712,
				"z": 0.5520170766,
				"element": "C" 
			},
			{
				"x": 1.3028453183,
				"y": 2.639649479,
				"z": 0.3636612727,
				"element": "C" 
			},
			{
				"x": -0.719242645,
				"y": -1.2854762315,
				"z": -2.1895855508,
				"element": "H" 
			},
			{
				"x": 0.6052211101,
				"y": -0.2195133709,
				"z": -1.7171334344,
				"element": "H" 
			},
			{
				"x": 0.2761886046,
				"y": -1.6310301772,
				"z": -0.7539667128,
				"element": "H" 
			},
			{
				"x": -1.1389466571,
				"y": 2.6806098393,
				"z": 1.6271347154,
				"element": "H" 
			},
			{
				"x": -3.5926098228,
				"y": 2.3573464778,
				"z": 1.4727222326,
				"element": "H" 
			},
			{
				"x": -4.487946443,
				"y": 0.486805761,
				"z": 0.0740946508,
				"element": "H" 
			},
			{
				"x": -1.8518738545,
				"y": -2.5181018211,
				"z": -0.7234920828,
				"element": "H" 
			},
			{
				"x": 3.5373090654,
				"y": -0.3643013002,
				"z": 1.0650756584,
				"element": "H" 
			},
			{
				"x": 4.5632976306,
				"y": 1.9079515527,
				"z": 0.9706293209,
				"element": "H" 
			},
			{
				"x": 3.0667670369,
				"y": 3.8735031008,
				"z": 0.4865537191,
				"element": "H" 
			},
			{
				"x": 0.6293599308,
				"y": 3.4597739025,
				"z": 0.1380132645,
				"element": "H" 
			}
		],
		 "valence_orbital": [ 
			{
				"type": "occ",
				"energy": -0.28694,
				"method": "rhf"
			},
			{
				"type": "occ",
				"energy": -0.27068,
				"method": "rhf"
			},
			{
				"type": "occ",
				"energy": -0.26392,
				"method": "rhf"
			},
			{
				"type": "occ",
				"energy": -0.25531,
				"method": "rhf"
			},
			{
				"type": "occ",
				"energy": -0.24496,
				"method": "rhf"
			},
			{
				"type": "unocc",
				"energy": -0.04853,
				"method": "rhf"
			},
			{
				"type": "unocc",
				"energy": -0.03892,
				"method": "rhf"
			},
			{
				"type": "unocc",
				"energy": -0.03052,
				"method": "rhf"
			},
			{
				"type": "unocc",
				"energy": 0.00518,
				"method": "rhf"
			},
			{
				"type": "unocc",
				"energy": 0.04435,
				"method": "rhf"
			}
		],
		"cosmo_sigma_profile": { 
			"-0.025": 0.0,
			"-0.024": 0.0,
			"-0.023": 0.0,
			"-0.022": 0.0,
			"-0.021": 0.0,
			"-0.02": 0.0,
			"-0.019": 0.0,
			"-0.018": 0.046147741025,
			"-0.017": 0.654838787254,
			"-0.016": 0.934959610981,
			"-0.015": 0.815537479664,
			"-0.014": 0.953466539487,
			"-0.013": 0.692632536911,
			"-0.012": 1.05950448831,
			"-0.011": 0.960454307969,
			"-0.01": 1.02111280531,
			"-0.009": 0.922163012975,
			"-0.008": 1.03894095468,
			"-0.007": 6.5582079774,
			"-0.006": 17.2382206061,
			"-0.005": 19.9801664086,
			"-0.004": 18.0504900181,
			"-0.003": 17.1257317002,
			"-0.002": 16.5375898551,
			"-0.001": 16.765958705,
			"0.0": 17.6725146877,
			"0.001": 15.837156425,
			"0.002": 20.40339209,
			"0.003": 21.3882719364,
			"0.004": 10.0510309301,
			"0.005": 3.84402778392,
			"0.006": 4.34800307072,
			"0.007": 3.90270701141,
			"0.008": 4.46948920363,
			"0.009": 4.50380903864,
			"0.01": 5.32125904659,
			"0.011": 5.83531218619,
			"0.012": 5.90289173609,
			"0.013": 1.9883357704,
			"0.014": 0.60035629299,
			"0.015": 0.0,
			"0.016": 0.0,
			"0.017": 0.0,
			"0.018": 0.0,
			"0.019": 0.0,
			"0.02": 0.0,
			"0.021": 0.0,
			"0.022": 0.0,
			"0.023": 0.0,
			"0.024": 0.0,
			"0.025": 0.0
		}
	}
}
