{
	 "smiles": "CNCC1=NC2=C(S1)C=CC=C2", 
	 "Tm": 305.15, 
	 "num_atms": 22, 
	 "gaussian": { 
		 "optdone": 1, 
		 "sigma_profile": "yes", 
		 "theory": "DFT", 
		 "functional": "B3LYP", 
		 "basiset": "6-31G**", 
		 "properties": { 
			 "R2extent": 3234.1417, 
			 "electric_dipole_moment_norm": 1.18976321174, 
			 "electric_quadrupole_moment_norm": 4.78556037993, 
			 "total_energy": -856.675161128, 
			 "HOMO_LUMO_gap": 0.19249, 
			 "cosmo_polarized_energy": -7.27, 
			 "cosmo_cavitation_energy": 26.96, 
			 "cosmo_dispersion_energy": -20.36, 
			 "cosmo_repulsion_energy": 1.58, 
			 "cosmo_total_nonelectrostatic_energy": 8.18, 
			 "SMD_solvation_energy": 0.37 
		},
		"coords": [
			{
				"x": 1.3295245127,
				"y": -1.0801595922,
				"z": -2.1244603846,
				"element": "C" 
			},
			{
				"x": 2.0765395463,
				"y": 0.169044399,
				"z": -1.9775515507,
				"element": "N" 
			},
			{
				"x": 2.3232469975,
				"y": 0.5513055887,
				"z": -0.5997041111,
				"element": "C" 
			},
			{
				"x": 1.095130405,
				"y": 0.9877983943,
				"z": 0.1815811202,
				"element": "C" 
			},
			{
				"x": 0.0188852627,
				"y": 1.4394112204,
				"z": -0.3727474826,
				"element": "N" 
			},
			{
				"x": -0.9249911479,
				"y": 1.8163093715,
				"z": 0.5736675501,
				"element": "C" 
			},
			{
				"x": -0.5320856279,
				"y": 1.6411771874,
				"z": 1.9229240432,
				"element": "C" 
			},
			{
				"x": 1.0865393531,
				"y": 0.9665812839,
				"z": 1.9664545439,
				"element": "S" 
			},
			{
				"x": -1.3818249064,
				"y": 1.9800917123,
				"z": 2.9785726886,
				"element": "C" 
			},
			{
				"x": -2.6366450922,
				"y": 2.5000921591,
				"z": 2.6694592671,
				"element": "C" 
			},
			{
				"x": -3.0380168875,
				"y": 2.6788867807,
				"z": 1.3344553714,
				"element": "C" 
			},
			{
				"x": -2.1925192252,
				"y": 2.3407186192,
				"z": 0.2841623242,
				"element": "C" 
			},
			{
				"x": 1.179812466,
				"y": -1.2808435161,
				"z": -3.1894125708,
				"element": "H" 
			},
			{
				"x": 0.3449413876,
				"y": -1.0852405228,
				"z": -1.6316414056,
				"element": "H" 
			},
			{
				"x": 1.9224741978,
				"y": -1.9054027135,
				"z": -1.7136510673,
				"element": "H" 
			},
			{
				"x": 1.5594576091,
				"y": 0.9195852534,
				"z": -2.4287009729,
				"element": "H" 
			},
			{
				"x": 2.810447564,
				"y": -0.2815270645,
				"z": -0.0781127748,
				"element": "H" 
			},
			{
				"x": 3.040580288,
				"y": 1.3840000886,
				"z": -0.584681642,
				"element": "H" 
			},
			{
				"x": -1.0766459931,
				"y": 1.8435923046,
				"z": 4.0110668427,
				"element": "H" 
			},
			{
				"x": -3.3135183797,
				"y": 2.7706702512,
				"z": 3.474365394,
				"element": "H" 
			},
			{
				"x": -4.0217690218,
				"y": 3.0867054179,
				"z": 1.1225025482,
				"element": "H" 
			},
			{
				"x": -2.4879633082,
				"y": 2.473303377,
				"z": -0.7514477312,
				"element": "H" 
			}
		],
		 "valence_orbital": [ 
			{
				"type": "occ",
				"energy": -0.30249,
				"method": "rhf"
			},
			{
				"type": "occ",
				"energy": -0.27828,
				"method": "rhf"
			},
			{
				"type": "occ",
				"energy": -0.23793,
				"method": "rhf"
			},
			{
				"type": "occ",
				"energy": -0.23556,
				"method": "rhf"
			},
			{
				"type": "occ",
				"energy": -0.22581,
				"method": "rhf"
			},
			{
				"type": "unocc",
				"energy": -0.03332,
				"method": "rhf"
			},
			{
				"type": "unocc",
				"energy": -0.0066,
				"method": "rhf"
			},
			{
				"type": "unocc",
				"energy": 0.00927,
				"method": "rhf"
			},
			{
				"type": "unocc",
				"energy": 0.03349,
				"method": "rhf"
			},
			{
				"type": "unocc",
				"energy": 0.08851,
				"method": "rhf"
			}
		],
		"cosmo_sigma_profile": { 
			"-0.025": 0.0,
			"-0.024": 0.0,
			"-0.023": 0.0,
			"-0.022": 0.0,
			"-0.021": 0.0,
			"-0.02": 0.0,
			"-0.019": 0.0,
			"-0.018": 0.0,
			"-0.017": 0.0,
			"-0.016": 0.0,
			"-0.015": 0.0,
			"-0.014": 0.0,
			"-0.013": 0.0,
			"-0.012": 0.0,
			"-0.011": 0.0,
			"-0.01": 0.0382547064519,
			"-0.009": 0.566723862865,
			"-0.008": 1.25363159894,
			"-0.007": 3.75643589442,
			"-0.006": 13.6277407037,
			"-0.005": 16.4902231142,
			"-0.004": 19.6350179708,
			"-0.003": 15.5859749328,
			"-0.002": 15.087538668,
			"-0.001": 16.7317377969,
			"0.0": 20.4471568084,
			"0.001": 15.7248784793,
			"0.002": 16.0959597592,
			"0.003": 17.9712156098,
			"0.004": 17.485804079,
			"0.005": 11.1679381424,
			"0.006": 2.34538286772,
			"0.007": 1.78997137313,
			"0.008": 2.20406281391,
			"0.009": 1.86919982879,
			"0.01": 1.30478940335,
			"0.011": 1.13040980624,
			"0.012": 1.2501084697,
			"0.013": 0.867540496519,
			"0.014": 0.725326580667,
			"0.015": 0.147944685578,
			"0.016": 0.714718244243,
			"0.017": 0.615290708408,
			"0.018": 0.107456926568,
			"0.019": 0.0,
			"0.02": 0.0,
			"0.021": 0.0,
			"0.022": 0.0,
			"0.023": 0.0,
			"0.024": 0.0,
			"0.025": 0.0
		}
	}
}
