{
	 "smiles": "CS(=O)(=O)CCC1NC(=O)NC1=O", 
	 "Tm": 434.15, 
	 "num_atms": 23, 
	 "gaussian": { 
		 "optdone": 1, 
		 "sigma_profile": "yes", 
		 "theory": "DFT", 
		 "functional": "B3LYP", 
		 "basiset": "6-31G**", 
		 "properties": { 
			 "R2extent": 3489.0915, 
			 "electric_dipole_moment_norm": 2.36854420478, 
			 "electric_quadrupole_moment_norm": 23.8092993528, 
			 "total_energy": -1043.23333377, 
			 "HOMO_LUMO_gap": 0.24909, 
			 "cosmo_polarized_energy": -24.17, 
			 "cosmo_cavitation_energy": 27.56, 
			 "cosmo_dispersion_energy": -20.77, 
			 "cosmo_repulsion_energy": 1.61, 
			 "cosmo_total_nonelectrostatic_energy": 8.39, 
			 "SMD_solvation_energy": 5.18 
		},
		"coords": [
			{
				"x": -1.3710440253,
				"y": 2.4264405465,
				"z": -2.4182878301,
				"element": "C" 
			},
			{
				"x": -1.6530111967,
				"y": 2.6082234168,
				"z": -0.6439697614,
				"element": "S" 
			},
			{
				"x": -2.8006850069,
				"y": 1.7500213146,
				"z": -0.2825238174,
				"element": "O" 
			},
			{
				"x": -1.6791108673,
				"y": 4.0442583337,
				"z": -0.3260831225,
				"element": "O" 
			},
			{
				"x": -0.1356597752,
				"y": 1.8930087009,
				"z": 0.1158947197,
				"element": "C" 
			},
			{
				"x": -0.3795772659,
				"y": 0.6118119511,
				"z": 0.9192509956,
				"element": "C" 
			},
			{
				"x": -0.8488079097,
				"y": -0.6220240049,
				"z": 0.1187335285,
				"element": "C" 
			},
			{
				"x": -0.898936569,
				"y": -1.8240204511,
				"z": 0.9412468117,
				"element": "N" 
			},
			{
				"x": -0.1841748804,
				"y": -2.8737166289,
				"z": 0.4212446698,
				"element": "C" 
			},
			{
				"x": -0.0978662391,
				"y": -4.0132516943,
				"z": 0.8219123323,
				"element": "O" 
			},
			{
				"x": 0.4672259434,
				"y": -2.3451970649,
				"z": -0.7222386607,
				"element": "N" 
			},
			{
				"x": 0.1224034001,
				"y": -1.0453875419,
				"z": -0.9920976542,
				"element": "C" 
			},
			{
				"x": 0.5075412588,
				"y": -0.3622189474,
				"z": -1.9264157877,
				"element": "O" 
			},
			{
				"x": -2.3123687454,
				"y": 2.6867899179,
				"z": -2.9053876568,
				"element": "H" 
			},
			{
				"x": -1.0830374461,
				"y": 1.3957100588,
				"z": -2.6313969565,
				"element": "H" 
			},
			{
				"x": -0.5821925716,
				"y": 3.1173761388,
				"z": -2.7198559792,
				"element": "H" 
			},
			{
				"x": 0.5858728733,
				"y": 1.7371181238,
				"z": -0.6888937645,
				"element": "H" 
			},
			{
				"x": 0.2241543577,
				"y": 2.689173168,
				"z": 0.7718293565,
				"element": "H" 
			},
			{
				"x": 0.555367381,
				"y": 0.3561927207,
				"z": 1.4312670891,
				"element": "H" 
			},
			{
				"x": -1.1276811192,
				"y": 0.805856746,
				"z": 1.6940179474,
				"element": "H" 
			},
			{
				"x": -1.8220881096,
				"y": -0.3993829938,
				"z": -0.3341449474,
				"element": "H" 
			},
			{
				"x": -1.6030208778,
				"y": -1.9981233766,
				"z": 1.6418890476,
				"element": "H" 
			},
			{
				"x": 1.084997391,
				"y": -2.9030584337,
				"z": -1.2946905598,
				"element": "H" 
			}
		],
		 "valence_orbital": [ 
			{
				"type": "occ",
				"energy": -0.30357,
				"method": "rhf"
			},
			{
				"type": "occ",
				"energy": -0.30024,
				"method": "rhf"
			},
			{
				"type": "occ",
				"energy": -0.28891,
				"method": "rhf"
			},
			{
				"type": "occ",
				"energy": -0.28034,
				"method": "rhf"
			},
			{
				"type": "occ",
				"energy": -0.27646,
				"method": "rhf"
			},
			{
				"type": "unocc",
				"energy": -0.02737,
				"method": "rhf"
			},
			{
				"type": "unocc",
				"energy": 0.04353,
				"method": "rhf"
			},
			{
				"type": "unocc",
				"energy": 0.04992,
				"method": "rhf"
			},
			{
				"type": "unocc",
				"energy": 0.0657,
				"method": "rhf"
			},
			{
				"type": "unocc",
				"energy": 0.0681,
				"method": "rhf"
			}
		],
		"cosmo_sigma_profile": { 
			"-0.025": 0.0,
			"-0.024": 0.0,
			"-0.023": 0.0,
			"-0.022": 0.0,
			"-0.021": 0.0,
			"-0.02": 0.0,
			"-0.019": 0.0,
			"-0.018": 0.0,
			"-0.017": 0.45923261056,
			"-0.016": 1.46675159003,
			"-0.015": 2.85000057049,
			"-0.014": 2.50331901175,
			"-0.013": 2.14420787733,
			"-0.012": 0.997550421771,
			"-0.011": 2.28072577594,
			"-0.01": 2.320790203,
			"-0.009": 3.92081406297,
			"-0.008": 9.0193686309,
			"-0.007": 12.6890614823,
			"-0.006": 17.8605041312,
			"-0.005": 17.0914638312,
			"-0.004": 16.1700109256,
			"-0.003": 12.2221373188,
			"-0.002": 11.864640533,
			"-0.001": 8.25674106495,
			"0.0": 5.991102967,
			"0.001": 4.96197809727,
			"0.002": 6.18092627028,
			"0.003": 5.65386922114,
			"0.004": 5.2101563959,
			"0.005": 3.92927177203,
			"0.006": 4.02562907681,
			"0.007": 3.75606874495,
			"0.008": 4.76468057757,
			"0.009": 6.0669307443,
			"0.01": 6.34745476036,
			"0.011": 10.623529815,
			"0.012": 17.2972862646,
			"0.013": 8.42520743892,
			"0.014": 0.329200471991,
			"0.015": 0.0,
			"0.016": 0.0,
			"0.017": 0.0,
			"0.018": 0.0,
			"0.019": 0.0,
			"0.02": 0.0,
			"0.021": 0.0,
			"0.022": 0.0,
			"0.023": 0.0,
			"0.024": 0.0,
			"0.025": 0.0
		}
	}
}
