{
	 "smiles": "CC(CCCC(C)(C)O)C1CCC2C(CCCC12C)=CC=C1CC(O)CC(O)C1=C", 
	 "Tm": 388.15, 
	 "num_atms": 74, 
	 "gaussian": { 
		 "optdone": 1, 
		 "sigma_profile": "yes", 
		 "theory": "DFT", 
		 "functional": "B3LYP", 
		 "basiset": "6-31G**", 
		 "properties": { 
			 "R2extent": 26721.931, 
			 "electric_dipole_moment_norm": 2.88412436278, 
			 "electric_quadrupole_moment_norm": 24.0209449552, 
			 "total_energy": -1281.03135259, 
			 "HOMO_LUMO_gap": 0.15931, 
			 "cosmo_polarized_energy": -17.09, 
			 "cosmo_cavitation_energy": 66.84, 
			 "cosmo_dispersion_energy": -44.75, 
			 "cosmo_repulsion_energy": 3.36, 
			 "cosmo_total_nonelectrostatic_energy": 25.44, 
			 "SMD_solvation_energy": 9.7 
		},
		"coords": [
			{
				"x": 0.9985498843,
				"y": -0.6424348418,
				"z": -4.1113257866,
				"element": "C" 
			},
			{
				"x": 0.0427520872,
				"y": -1.1734704768,
				"z": -3.0297848601,
				"element": "C" 
			},
			{
				"x": -0.4631317223,
				"y": -2.5894184953,
				"z": -3.3968586148,
				"element": "C" 
			},
			{
				"x": -1.2774372446,
				"y": -2.6826750015,
				"z": -4.6976421741,
				"element": "C" 
			},
			{
				"x": -1.8597258924,
				"y": -4.0875039372,
				"z": -4.9133244884,
				"element": "C" 
			},
			{
				"x": -2.6865673336,
				"y": -4.3214583449,
				"z": -6.19852268,
				"element": "C" 
			},
			{
				"x": -1.8437344174,
				"y": -4.1376098351,
				"z": -7.4703061965,
				"element": "C" 
			},
			{
				"x": -3.9392738143,
				"y": -3.4420639294,
				"z": -6.2436156103,
				"element": "C" 
			},
			{
				"x": -3.1954982137,
				"y": -5.6666497085,
				"z": -6.1630362732,
				"element": "O" 
			},
			{
				"x": 0.6715337294,
				"y": -1.1785703345,
				"z": -1.6137078482,
				"element": "C" 
			},
			{
				"x": -0.3186123375,
				"y": -1.6753415613,
				"z": -0.5111115819,
				"element": "C" 
			},
			{
				"x": 0.0491910398,
				"y": -0.9380957211,
				"z": 0.805064518,
				"element": "C" 
			},
			{
				"x": 1.3589414911,
				"y": -0.2121536144,
				"z": 0.4769983646,
				"element": "C" 
			},
			{
				"x": 1.8182904908,
				"y": 0.9432689375,
				"z": 1.3303334476,
				"element": "C" 
			},
			{
				"x": 2.9897529978,
				"y": 1.7101772528,
				"z": 0.7274417406,
				"element": "C" 
			},
			{
				"x": 3.6421177998,
				"y": 0.9513508586,
				"z": -0.4393798008,
				"element": "C" 
			},
			{
				"x": 2.6448815694,
				"y": 0.5873832883,
				"z": -1.5646578334,
				"element": "C" 
			},
			{
				"x": 1.2389733725,
				"y": 0.1633881237,
				"z": -1.0366690875,
				"element": "C" 
			},
			{
				"x": 0.2328944162,
				"y": 1.3191119836,
				"z": -1.2293030847,
				"element": "C" 
			},
			{
				"x": 1.2365547712,
				"y": 1.266517962,
				"z": 2.508173388,
				"element": "C" 
			},
			{
				"x": 1.6789760524,
				"y": 2.323893323,
				"z": 3.397630325,
				"element": "C" 
			},
			{
				"x": 1.0604925052,
				"y": 2.8013992959,
				"z": 4.5118142177,
				"element": "C" 
			},
			{
				"x": 1.7887759348,
				"y": 3.7388141675,
				"z": 5.4497043602,
				"element": "C" 
			},
			{
				"x": 2.1380870834,
				"y": 2.9908262667,
				"z": 6.7622839992,
				"element": "C" 
			},
			{
				"x": 3.333782474,
				"y": 2.2331880429,
				"z": 6.614011827,
				"element": "O" 
			},
			{
				"x": 0.9545958967,
				"y": 2.096294159,
				"z": 7.2217615394,
				"element": "C" 
			},
			{
				"x": -0.3826770503,
				"y": 2.4731309728,
				"z": 6.562355332,
				"element": "C" 
			},
			{
				"x": -1.462266918,
				"y": 1.7045067804,
				"z": 7.0731436324,
				"element": "O" 
			},
			{
				"x": -0.2651642714,
				"y": 2.3996408408,
				"z": 5.0327802672,
				"element": "C" 
			},
			{
				"x": -1.3298873224,
				"y": 2.0537223122,
				"z": 4.290928325,
				"element": "C" 
			},
			{
				"x": 0.5183878863,
				"y": -0.6311404504,
				"z": -5.0940190147,
				"element": "H" 
			},
			{
				"x": 1.3301445465,
				"y": 0.3774543812,
				"z": -3.9054331082,
				"element": "H" 
			},
			{
				"x": 1.8928501763,
				"y": -1.273207841,
				"z": -4.1890135389,
				"element": "H" 
			},
			{
				"x": -0.8366203431,
				"y": -0.5122834699,
				"z": -3.000589189,
				"element": "H" 
			},
			{
				"x": 0.4003172269,
				"y": -3.2689584002,
				"z": -3.4599364624,
				"element": "H" 
			},
			{
				"x": -1.0882921022,
				"y": -2.97166386,
				"z": -2.5819687778,
				"element": "H" 
			},
			{
				"x": -0.6509381231,
				"y": -2.4102186288,
				"z": -5.5541683804,
				"element": "H" 
			},
			{
				"x": -2.0910600917,
				"y": -1.9460397751,
				"z": -4.6617796554,
				"element": "H" 
			},
			{
				"x": -2.5016275804,
				"y": -4.3542731669,
				"z": -4.0641085508,
				"element": "H" 
			},
			{
				"x": -1.0323030347,
				"y": -4.8144689892,
				"z": -4.9114128363,
				"element": "H" 
			},
			{
				"x": -1.5013747592,
				"y": -3.1053913345,
				"z": -7.5937108929,
				"element": "H" 
			},
			{
				"x": -2.4358026387,
				"y": -4.4103095898,
				"z": -8.3487609536,
				"element": "H" 
			},
			{
				"x": -0.9558364246,
				"y": -4.7818662614,
				"z": -7.4452587298,
				"element": "H" 
			},
			{
				"x": -4.5539853902,
				"y": -3.7195585624,
				"z": -7.1047706908,
				"element": "H" 
			},
			{
				"x": -4.5383001098,
				"y": -3.5860167326,
				"z": -5.3392728102,
				"element": "H" 
			},
			{
				"x": -3.6828161473,
				"y": -2.3825984577,
				"z": -6.3295538845,
				"element": "H" 
			},
			{
				"x": -2.4359243345,
				"y": -6.2633711176,
				"z": -6.119055811,
				"element": "H" 
			},
			{
				"x": 1.5212374561,
				"y": -1.8785232076,
				"z": -1.6422718916,
				"element": "H" 
			},
			{
				"x": -1.3531959993,
				"y": -1.4546200302,
				"z": -0.7977634176,
				"element": "H" 
			},
			{
				"x": -0.2586507565,
				"y": -2.760836313,
				"z": -0.3911467855,
				"element": "H" 
			},
			{
				"x": 0.1564745677,
				"y": -1.6215924077,
				"z": 1.6529947915,
				"element": "H" 
			},
			{
				"x": -0.7313014928,
				"y": -0.2198184746,
				"z": 1.0769173078,
				"element": "H" 
			},
			{
				"x": 2.1574264863,
				"y": -0.9725512092,
				"z": 0.5189670717,
				"element": "H" 
			},
			{
				"x": 3.7463970437,
				"y": 1.9242431765,
				"z": 1.4924167845,
				"element": "H" 
			},
			{
				"x": 2.6433382564,
				"y": 2.6920753532,
				"z": 0.3730593695,
				"element": "H" 
			},
			{
				"x": 4.1075197527,
				"y": 0.0381151925,
				"z": -0.0486054916,
				"element": "H" 
			},
			{
				"x": 4.4609949373,
				"y": 1.5487838129,
				"z": -0.8554822451,
				"element": "H" 
			},
			{
				"x": 3.0840628777,
				"y": -0.2133244709,
				"z": -2.1694649288,
				"element": "H" 
			},
			{
				"x": 2.5382702961,
				"y": 1.4483570278,
				"z": -2.2350894718,
				"element": "H" 
			},
			{
				"x": 0.1496753931,
				"y": 1.5914763324,
				"z": -2.2858931062,
				"element": "H" 
			},
			{
				"x": 0.5474547388,
				"y": 2.2144989969,
				"z": -0.6850588867,
				"element": "H" 
			},
			{
				"x": -0.7709613526,
				"y": 1.0612734666,
				"z": -0.8778688343,
				"element": "H" 
			},
			{
				"x": 0.3904614007,
				"y": 0.673945667,
				"z": 2.8433141082,
				"element": "H" 
			},
			{
				"x": 2.6460295026,
				"y": 2.76980299,
				"z": 3.1677486456,
				"element": "H" 
			},
			{
				"x": 1.1601445588,
				"y": 4.6077674299,
				"z": 5.6872586511,
				"element": "H" 
			},
			{
				"x": 2.7165309894,
				"y": 4.1159066146,
				"z": 5.0102869875,
				"element": "H" 
			},
			{
				"x": 2.3724483431,
				"y": 3.7288517367,
				"z": 7.5363325933,
				"element": "H" 
			},
			{
				"x": 3.1999489504,
				"y": 1.6488644194,
				"z": 5.8529061872,
				"element": "H" 
			},
			{
				"x": 1.191682408,
				"y": 1.0590764716,
				"z": 6.9476092657,
				"element": "H" 
			},
			{
				"x": 0.8424522788,
				"y": 2.1157172836,
				"z": 8.3094628244,
				"element": "H" 
			},
			{
				"x": -0.6345588041,
				"y": 3.5052410808,
				"z": 6.8427533483,
				"element": "H" 
			},
			{
				"x": -1.3153614756,
				"y": 0.7887438996,
				"z": 6.7965490603,
				"element": "H" 
			},
			{
				"x": -1.3020394569,
				"y": 2.0584357104,
				"z": 3.2077412304,
				"element": "H" 
			},
			{
				"x": -2.2693667147,
				"y": 1.8012329416,
				"z": 4.7712607559,
				"element": "H" 
			}
		],
		 "valence_orbital": [ 
			{
				"type": "occ",
				"energy": -0.27774,
				"method": "rhf"
			},
			{
				"type": "occ",
				"energy": -0.26642,
				"method": "rhf"
			},
			{
				"type": "occ",
				"energy": -0.25695,
				"method": "rhf"
			},
			{
				"type": "occ",
				"energy": -0.2518,
				"method": "rhf"
			},
			{
				"type": "occ",
				"energy": -0.19969,
				"method": "rhf"
			},
			{
				"type": "unocc",
				"energy": -0.04038,
				"method": "rhf"
			},
			{
				"type": "unocc",
				"energy": 0.02541,
				"method": "rhf"
			},
			{
				"type": "unocc",
				"energy": 0.06676,
				"method": "rhf"
			},
			{
				"type": "unocc",
				"energy": 0.07089,
				"method": "rhf"
			},
			{
				"type": "unocc",
				"energy": 0.0769,
				"method": "rhf"
			}
		],
		"cosmo_sigma_profile": { 
			"-0.025": 0.0,
			"-0.024": 0.0,
			"-0.023": 0.0,
			"-0.022": 0.0,
			"-0.021": 0.0,
			"-0.02": 0.0,
			"-0.019": 0.0,
			"-0.018": 0.0,
			"-0.017": 0.0,
			"-0.016": 0.0,
			"-0.015": 0.321524005218,
			"-0.014": 1.65282374335,
			"-0.013": 1.46773541275,
			"-0.012": 1.75322126215,
			"-0.011": 2.73687368621,
			"-0.01": 2.91577652939,
			"-0.009": 2.58859267985,
			"-0.008": 2.83309450319,
			"-0.007": 3.35714383966,
			"-0.006": 4.55684315574,
			"-0.005": 9.96171329112,
			"-0.004": 22.1804276182,
			"-0.003": 40.6575404242,
			"-0.002": 70.53547037,
			"-0.001": 95.1815063318,
			"0.0": 78.7624585681,
			"0.001": 55.9987931253,
			"0.002": 33.7038056133,
			"0.003": 14.9785537593,
			"0.004": 12.031838037,
			"0.005": 10.1390608255,
			"0.006": 8.17631070399,
			"0.007": 4.21200214555,
			"0.008": 4.55698521877,
			"0.009": 3.51032252731,
			"0.01": 2.97850781309,
			"0.011": 3.65470169577,
			"0.012": 3.88193909481,
			"0.013": 4.39795805919,
			"0.014": 6.0740106493,
			"0.015": 2.93129116307,
			"0.016": 0.0437727388081,
			"0.017": 0.0,
			"0.018": 0.0,
			"0.019": 0.0,
			"0.02": 0.0,
			"0.021": 0.0,
			"0.022": 0.0,
			"0.023": 0.0,
			"0.024": 0.0,
			"0.025": 0.0
		}
	}
}
