{
	 "smiles": "COC(=O)C1=C(C=CC=C1)C(O)=O", 
	 "Tm": 356.15, 
	 "num_atms": 21, 
	 "gaussian": { 
		 "optdone": 1, 
		 "sigma_profile": "yes", 
		 "theory": "DFT", 
		 "functional": "B3LYP", 
		 "basiset": "6-31G**", 
		 "properties": { 
			 "R2extent": 3155.6594, 
			 "electric_dipole_moment_norm": 4.3523863397, 
			 "electric_quadrupole_moment_norm": 24.434650126, 
			 "total_energy": -648.686705613, 
			 "HOMO_LUMO_gap": 0.19313, 
			 "cosmo_polarized_energy": -14.25, 
			 "cosmo_cavitation_energy": 25.7, 
			 "cosmo_dispersion_energy": -18.79, 
			 "cosmo_repulsion_energy": 1.47, 
			 "cosmo_total_nonelectrostatic_energy": 8.37, 
			 "SMD_solvation_energy": 7.07 
		},
		"coords": [
			{
				"x": 1.4060258042,
				"y": 2.3793488052,
				"z": -0.0905440312,
				"element": "C" 
			},
			{
				"x": 0.3896941291,
				"y": 1.4056439966,
				"z": 0.2429114094,
				"element": "O" 
			},
			{
				"x": 0.7936354815,
				"y": 0.3826491099,
				"z": 1.0539104012,
				"element": "C" 
			},
			{
				"x": 1.9457263817,
				"y": 0.2683580097,
				"z": 1.4042685177,
				"element": "O" 
			},
			{
				"x": -0.2847495454,
				"y": -0.6152325053,
				"z": 1.3573496808,
				"element": "C" 
			},
			{
				"x": -1.646035677,
				"y": -0.3766835282,
				"z": 1.6826117995,
				"element": "C" 
			},
			{
				"x": -2.4637597292,
				"y": -1.4884397209,
				"z": 1.9420252062,
				"element": "C" 
			},
			{
				"x": -1.9875945479,
				"y": -2.7927475835,
				"z": 1.8641270688,
				"element": "C" 
			},
			{
				"x": -0.6449021507,
				"y": -3.0205225677,
				"z": 1.5658313802,
				"element": "C" 
			},
			{
				"x": 0.1946967592,
				"y": -1.9370617177,
				"z": 1.3353798639,
				"element": "C" 
			},
			{
				"x": -2.3629391393,
				"y": 0.9489989678,
				"z": 1.9195629764,
				"element": "C" 
			},
			{
				"x": -1.9081697389,
				"y": 2.0640116537,
				"z": 1.3359978998,
				"element": "O" 
			},
			{
				"x": -3.3506870402,
				"y": 0.9878199881,
				"z": 2.6212090102,
				"element": "O" 
			},
			{
				"x": 0.9054788738,
				"y": 3.1175736628,
				"z": -0.7155820163,
				"element": "H" 
			},
			{
				"x": 1.8031083375,
				"y": 2.8390885485,
				"z": 0.8163227174,
				"element": "H" 
			},
			{
				"x": 2.2166324888,
				"y": 1.8931317079,
				"z": -0.6353283432,
				"element": "H" 
			},
			{
				"x": -3.4897266285,
				"y": -1.2910331693,
				"z": 2.2290181984,
				"element": "H" 
			},
			{
				"x": -2.6588826603,
				"y": -3.62464132,
				"z": 2.0547003853,
				"element": "H" 
			},
			{
				"x": -0.2496018781,
				"y": -4.030698543,
				"z": 1.5219502296,
				"element": "H" 
			},
			{
				"x": 1.2477319422,
				"y": -2.0936830224,
				"z": 1.1302659332,
				"element": "H" 
			},
			{
				"x": -1.1393814626,
				"y": 1.8774192277,
				"z": 0.7616117129,
				"element": "H" 
			}
		],
		 "valence_orbital": [ 
			{
				"type": "occ",
				"energy": -0.30671,
				"method": "rhf"
			},
			{
				"type": "occ",
				"energy": -0.30607,
				"method": "rhf"
			},
			{
				"type": "occ",
				"energy": -0.27818,
				"method": "rhf"
			},
			{
				"type": "occ",
				"energy": -0.27489,
				"method": "rhf"
			},
			{
				"type": "occ",
				"energy": -0.26207,
				"method": "rhf"
			},
			{
				"type": "unocc",
				"energy": -0.06894,
				"method": "rhf"
			},
			{
				"type": "unocc",
				"energy": -0.03675,
				"method": "rhf"
			},
			{
				"type": "unocc",
				"energy": 0.01413,
				"method": "rhf"
			},
			{
				"type": "unocc",
				"energy": 0.0482,
				"method": "rhf"
			},
			{
				"type": "unocc",
				"energy": 0.07749,
				"method": "rhf"
			}
		],
		"cosmo_sigma_profile": { 
			"-0.025": 0.0,
			"-0.024": 0.0,
			"-0.023": 0.0,
			"-0.022": 0.0,
			"-0.021": 0.0,
			"-0.02": 0.0,
			"-0.019": 0.0,
			"-0.018": 0.0,
			"-0.017": 0.0,
			"-0.016": 0.0,
			"-0.015": 0.0,
			"-0.014": 0.0,
			"-0.013": 0.0,
			"-0.012": 0.0,
			"-0.011": 0.0,
			"-0.01": 0.0966098593377,
			"-0.009": 1.21944113843,
			"-0.008": 4.16687198179,
			"-0.007": 15.1469401372,
			"-0.006": 18.269341171,
			"-0.005": 18.1512349942,
			"-0.004": 18.5091336897,
			"-0.003": 11.794884578,
			"-0.002": 11.4122541704,
			"-0.001": 10.0989501645,
			"0.0": 11.8176214975,
			"0.001": 13.3587744734,
			"0.002": 16.3510832188,
			"0.003": 7.93867255176,
			"0.004": 4.4527520644,
			"0.005": 3.95362942443,
			"0.006": 3.50447370396,
			"0.007": 3.43934559913,
			"0.008": 3.69640990369,
			"0.009": 5.43824998866,
			"0.01": 7.38400019593,
			"0.011": 8.13840408241,
			"0.012": 5.71653206147,
			"0.013": 1.91221675347,
			"0.014": 0.306226032341,
			"0.015": 0.0,
			"0.016": 0.0,
			"0.017": 0.0,
			"0.018": 0.0,
			"0.019": 0.0,
			"0.02": 0.0,
			"0.021": 0.0,
			"0.022": 0.0,
			"0.023": 0.0,
			"0.024": 0.0,
			"0.025": 0.0
		}
	}
}
