{
	 "smiles": "NCCC1=NC2=C(N1)C=CC=C2", 
	 "Tm": 495.15, 
	 "num_atms": 23, 
	 "gaussian": { 
		 "optdone": 1, 
		 "sigma_profile": "yes", 
		 "theory": "DFT", 
		 "functional": "B3LYP", 
		 "basiset": "6-31G**", 
		 "properties": { 
			 "R2extent": 2534.7018, 
			 "electric_dipole_moment_norm": 5.30423895672, 
			 "electric_quadrupole_moment_norm": 8.99639615402, 
			 "total_energy": -513.862442866, 
			 "HOMO_LUMO_gap": 0.20629, 
			 "cosmo_polarized_energy": -13.26, 
			 "cosmo_cavitation_energy": 25.87, 
			 "cosmo_dispersion_energy": -19.68, 
			 "cosmo_repulsion_energy": 1.59, 
			 "cosmo_total_nonelectrostatic_energy": 7.78, 
			 "SMD_solvation_energy": 1.44 
		},
		"coords": [
			{
				"x": -1.0291536487,
				"y": -0.1635474977,
				"z": 2.6320405113,
				"element": "N" 
			},
			{
				"x": 0.1233657968,
				"y": -1.076442501,
				"z": 2.5007904651,
				"element": "C" 
			},
			{
				"x": 0.0938715592,
				"y": -1.8114844925,
				"z": 1.1515363052,
				"element": "C" 
			},
			{
				"x": 0.2477234645,
				"y": -0.9151185043,
				"z": -0.0416787199,
				"element": "C" 
			},
			{
				"x": 0.9403059992,
				"y": -1.2000550027,
				"z": -1.1220383472,
				"element": "N" 
			},
			{
				"x": 0.7755568067,
				"y": -0.095275379,
				"z": -1.9477419653,
				"element": "C" 
			},
			{
				"x": -0.0449042988,
				"y": 0.8757067153,
				"z": -1.3169827597,
				"element": "C" 
			},
			{
				"x": -0.3732798863,
				"y": 0.3124346709,
				"z": -0.0989934226,
				"element": "N" 
			},
			{
				"x": -0.3657772849,
				"y": 2.0925184453,
				"z": -1.9228090727,
				"element": "C" 
			},
			{
				"x": 0.1570205351,
				"y": 2.3198866775,
				"z": -3.194091876,
				"element": "C" 
			},
			{
				"x": 0.971754606,
				"y": 1.3657561469,
				"z": -3.8364029927,
				"element": "C" 
			},
			{
				"x": 1.2895111931,
				"y": 0.1557629927,
				"z": -3.226370397,
				"element": "C" 
			},
			{
				"x": -1.8855531006,
				"y": -0.7041333238,
				"z": 2.7384093854,
				"element": "H" 
			},
			{
				"x": -0.9370730111,
				"y": 0.396513001,
				"z": 3.4757565405,
				"element": "H" 
			},
			{
				"x": 1.0346112619,
				"y": -0.4717160852,
				"z": 2.5646884524,
				"element": "H" 
			},
			{
				"x": 0.1754744589,
				"y": -1.8228903254,
				"z": 3.3086558075,
				"element": "H" 
			},
			{
				"x": 0.897214017,
				"y": -2.5517978951,
				"z": 1.1115941245,
				"element": "H" 
			},
			{
				"x": -0.8495654664,
				"y": -2.3733273559,
				"z": 1.0746994459,
				"element": "H" 
			},
			{
				"x": -0.8852954856,
				"y": 0.6861313542,
				"z": 0.696501894,
				"element": "H" 
			},
			{
				"x": -0.9940134439,
				"y": 2.8293871687,
				"z": -1.4309273782,
				"element": "H" 
			},
			{
				"x": -0.0690886267,
				"y": 3.2532357895,
				"z": -3.7017349776,
				"element": "H" 
			},
			{
				"x": 1.3577609279,
				"y": 1.5834905927,
				"z": -4.8281345411,
				"element": "H" 
			},
			{
				"x": 1.9177336267,
				"y": -0.5815351922,
				"z": -3.7162664817,
				"element": "H" 
			}
		],
		 "valence_orbital": [ 
			{
				"type": "occ",
				"energy": -0.28663,
				"method": "rhf"
			},
			{
				"type": "occ",
				"energy": -0.26854,
				"method": "rhf"
			},
			{
				"type": "occ",
				"energy": -0.25414,
				"method": "rhf"
			},
			{
				"type": "occ",
				"energy": -0.21116,
				"method": "rhf"
			},
			{
				"type": "occ",
				"energy": -0.20635,
				"method": "rhf"
			},
			{
				"type": "unocc",
				"energy": -6e-05,
				"method": "rhf"
			},
			{
				"type": "unocc",
				"energy": 0.03737,
				"method": "rhf"
			},
			{
				"type": "unocc",
				"energy": 0.05813,
				"method": "rhf"
			},
			{
				"type": "unocc",
				"energy": 0.07164,
				"method": "rhf"
			},
			{
				"type": "unocc",
				"energy": 0.11313,
				"method": "rhf"
			}
		],
		"cosmo_sigma_profile": { 
			"-0.025": 0.0,
			"-0.024": 0.0,
			"-0.023": 0.0,
			"-0.022": 0.0,
			"-0.021": 0.0,
			"-0.02": 0.0,
			"-0.019": 0.0,
			"-0.018": 0.0,
			"-0.017": 0.0,
			"-0.016": 0.0,
			"-0.015": 0.0,
			"-0.014": 0.0,
			"-0.013": 0.0,
			"-0.012": 0.0,
			"-0.011": 0.756797698894,
			"-0.01": 3.78116966305,
			"-0.009": 3.28228444079,
			"-0.008": 4.31618374286,
			"-0.007": 4.75211525626,
			"-0.006": 7.67501683039,
			"-0.005": 13.5699029034,
			"-0.004": 16.7687290233,
			"-0.003": 23.7352118413,
			"-0.002": 17.8973466856,
			"-0.001": 13.4506481222,
			"0.0": 10.0840363492,
			"0.001": 9.54552475969,
			"0.002": 9.89378992263,
			"0.003": 11.4244743029,
			"0.004": 10.2067797117,
			"0.005": 12.0127538252,
			"0.006": 11.4634866176,
			"0.007": 7.12229513018,
			"0.008": 2.09858472858,
			"0.009": 1.35314688149,
			"0.01": 0.87363677344,
			"0.011": 1.4642292145,
			"0.012": 1.09915940739,
			"0.013": 0.608411545412,
			"0.014": 1.5806519018,
			"0.015": 0.930295767407,
			"0.016": 0.829470136749,
			"0.017": 1.08416339533,
			"0.018": 0.677604333007,
			"0.019": 0.32730465254,
			"0.02": 0.0,
			"0.021": 0.0,
			"0.022": 0.0,
			"0.023": 0.0,
			"0.024": 0.0,
			"0.025": 0.0
		}
	}
}
