{
	 "smiles": "CCOC(=O)COC1=C(C=C(C=C1)S(C)(=O)=O)[N+]([O-])=O", 
	 "Tm": 405.15, 
	 "num_atms": 33, 
	 "gaussian": { 
		 "optdone": 1, 
		 "sigma_profile": "yes", 
		 "theory": "DFT", 
		 "functional": "B3LYP", 
		 "basiset": "6-31G**", 
		 "properties": { 
			 "R2extent": 9189.1913, 
			 "electric_dipole_moment_norm": 4.26053465659, 
			 "electric_quadrupole_moment_norm": 42.3199801314, 
			 "total_energy": -1406.32873572, 
			 "HOMO_LUMO_gap": 0.1813, 
			 "cosmo_polarized_energy": -24.89, 
			 "cosmo_cavitation_energy": 40.73, 
			 "cosmo_dispersion_energy": -28.65, 
			 "cosmo_repulsion_energy": 2.22, 
			 "cosmo_total_nonelectrostatic_energy": 14.3, 
			 "SMD_solvation_energy": 10.32 
		},
		"coords": [
			{
				"x": -4.2354205676,
				"y": 3.7260817116,
				"z": -0.2706145741,
				"element": "C" 
			},
			{
				"x": -2.9664157938,
				"y": 4.2798905058,
				"z": 0.3464013668,
				"element": "C" 
			},
			{
				"x": -2.0162782328,
				"y": 3.1863809115,
				"z": 0.4377988233,
				"element": "O" 
			},
			{
				"x": -0.8244552823,
				"y": 3.4963618843,
				"z": 0.9514601908,
				"element": "C" 
			},
			{
				"x": -0.4895738375,
				"y": 4.5933405541,
				"z": 1.3446888768,
				"element": "O" 
			},
			{
				"x": 0.1453006805,
				"y": 2.3267870796,
				"z": 0.9907823443,
				"element": "C" 
			},
			{
				"x": -0.500262066,
				"y": 1.0970824863,
				"z": 0.6475905588,
				"element": "O" 
			},
			{
				"x": 0.2556411821,
				"y": -0.0278337609,
				"z": 0.7607745114,
				"element": "C" 
			},
			{
				"x": 0.8759745662,
				"y": -0.6315512172,
				"z": -0.351201634,
				"element": "C" 
			},
			{
				"x": 1.5274105874,
				"y": -1.8585828481,
				"z": -0.2406309391,
				"element": "C" 
			},
			{
				"x": 1.6109920713,
				"y": -2.464025582,
				"z": 1.0082116893,
				"element": "C" 
			},
			{
				"x": 1.0065418128,
				"y": -1.8905347467,
				"z": 2.1305316913,
				"element": "C" 
			},
			{
				"x": 0.3274261767,
				"y": -0.6839958831,
				"z": 1.9971812251,
				"element": "C" 
			},
			{
				"x": 2.4695973942,
				"y": -4.0429389931,
				"z": 1.1695805508,
				"element": "S" 
			},
			{
				"x": 4.1844587144,
				"y": -3.5647221721,
				"z": 1.4863381002,
				"element": "C" 
			},
			{
				"x": 1.956603455,
				"y": -4.6939132629,
				"z": 2.3837608777,
				"element": "O" 
			},
			{
				"x": 2.4274349519,
				"y": -4.7077940095,
				"z": -0.1396334781,
				"element": "O" 
			},
			{
				"x": 0.8492937811,
				"y": -0.0056366134,
				"z": -1.6818433594,
				"element": "N" 
			},
			{
				"x": 0.8319042543,
				"y": 1.222470152,
				"z": -1.7398028227,
				"element": "O" 
			},
			{
				"x": 0.8772926195,
				"y": -0.7575277007,
				"z": -2.6530750029,
				"element": "O" 
			},
			{
				"x": -4.9804746513,
				"y": 4.5228700873,
				"z": -0.3585652281,
				"element": "H" 
			},
			{
				"x": -4.6555130279,
				"y": 2.9278121836,
				"z": 0.347617473,
				"element": "H" 
			},
			{
				"x": -4.0409729653,
				"y": 3.3235729282,
				"z": -1.2684950632,
				"element": "H" 
			},
			{
				"x": -2.5228696965,
				"y": 5.0756922362,
				"z": -0.259398515,
				"element": "H" 
			},
			{
				"x": -3.133082686,
				"y": 4.6815677446,
				"z": 1.3506155849,
				"element": "H" 
			},
			{
				"x": 0.9525876133,
				"y": 2.5369597785,
				"z": 0.2812372403,
				"element": "H" 
			},
			{
				"x": 0.5674023867,
				"y": 2.2814180605,
				"z": 2.0020831468,
				"element": "H" 
			},
			{
				"x": 1.9423632305,
				"y": -2.3282717739,
				"z": -1.1249630632,
				"element": "H" 
			},
			{
				"x": 1.0444258197,
				"y": -2.4083113312,
				"z": 3.0831714938,
				"element": "H" 
			},
			{
				"x": -0.1893621765,
				"y": -0.2385276644,
				"z": 2.8408319793,
				"element": "H" 
			},
			{
				"x": 4.7423673632,
				"y": -4.4970688489,
				"z": 1.5962453031,
				"element": "H" 
			},
			{
				"x": 4.5629425979,
				"y": -2.9951779401,
				"z": 0.6364706472,
				"element": "H" 
			},
			{
				"x": 4.2328197248,
				"y": -2.983273956,
				"z": 2.4080500046,
				"element": "H" 
			}
		],
		 "valence_orbital": [ 
			{
				"type": "occ",
				"energy": -0.30314,
				"method": "rhf"
			},
			{
				"type": "occ",
				"energy": -0.30283,
				"method": "rhf"
			},
			{
				"type": "occ",
				"energy": -0.29554,
				"method": "rhf"
			},
			{
				"type": "occ",
				"energy": -0.28895,
				"method": "rhf"
			},
			{
				"type": "occ",
				"energy": -0.28382,
				"method": "rhf"
			},
			{
				"type": "unocc",
				"energy": -0.10252,
				"method": "rhf"
			},
			{
				"type": "unocc",
				"energy": -0.06217,
				"method": "rhf"
			},
			{
				"type": "unocc",
				"energy": -0.03275,
				"method": "rhf"
			},
			{
				"type": "unocc",
				"energy": 0.00112,
				"method": "rhf"
			},
			{
				"type": "unocc",
				"energy": 0.04392,
				"method": "rhf"
			}
		],
		"cosmo_sigma_profile": { 
			"-0.025": 0.0,
			"-0.024": 0.0,
			"-0.023": 0.0,
			"-0.022": 0.0,
			"-0.021": 0.0,
			"-0.02": 0.0,
			"-0.019": 0.0,
			"-0.018": 0.0,
			"-0.017": 0.0,
			"-0.016": 0.0,
			"-0.015": 0.0,
			"-0.014": 0.0,
			"-0.013": 0.0,
			"-0.012": 0.0,
			"-0.011": 0.0,
			"-0.01": 0.37025657181,
			"-0.009": 7.31552036564,
			"-0.008": 16.7153484552,
			"-0.007": 16.2687883402,
			"-0.006": 20.1011006338,
			"-0.005": 24.0614602828,
			"-0.004": 30.5363304397,
			"-0.003": 25.282020579,
			"-0.002": 22.7004618114,
			"-0.001": 22.40979863,
			"0.0": 18.0596466894,
			"0.001": 10.9945071429,
			"0.002": 7.50742246395,
			"0.003": 7.95282094467,
			"0.004": 7.82836518505,
			"0.005": 8.20017944293,
			"0.006": 10.5509759805,
			"0.007": 12.3700965952,
			"0.008": 10.2304271732,
			"0.009": 10.06230935,
			"0.01": 10.0720795409,
			"0.011": 15.1275264773,
			"0.012": 9.13582257519,
			"0.013": 0.219354659364,
			"0.014": 0.0,
			"0.015": 0.0,
			"0.016": 0.0,
			"0.017": 0.0,
			"0.018": 0.0,
			"0.019": 0.0,
			"0.02": 0.0,
			"0.021": 0.0,
			"0.022": 0.0,
			"0.023": 0.0,
			"0.024": 0.0,
			"0.025": 0.0
		}
	}
}
