{
	 "smiles": "N#CCC#N", 
	 "Tm": 306.15, 
	 "num_atms": 7, 
	 "gaussian": { 
		 "optdone": 1, 
		 "sigma_profile": "yes", 
		 "theory": "DFT", 
		 "functional": "B3LYP", 
		 "basiset": "6-31G**", 
		 "properties": { 
			 "R2extent": 1138.8934, 
			 "electric_dipole_moment_norm": 3.7150684987, 
			 "electric_quadrupole_moment_norm": 12.4228560223, 
			 "total_energy": -224.973800486, 
			 "HOMO_LUMO_gap": 0.33313, 
			 "cosmo_polarized_energy": -13.77, 
			 "cosmo_cavitation_energy": 13.35, 
			 "cosmo_dispersion_energy": -8.7, 
			 "cosmo_repulsion_energy": 0.81, 
			 "cosmo_total_nonelectrostatic_energy": 5.46, 
			 "SMD_solvation_energy": 5.71 
		},
		"coords": [
			{
				"x": 3.5228526234,
				"y": -1.0881373935,
				"z": 0.1967191876,
				"element": "N" 
			},
			{
				"x": 2.3858149142,
				"y": -1.2955749456,
				"z": 0.2819758929,
				"element": "C" 
			},
			{
				"x": 0.9414966074,
				"y": -1.5526104948,
				"z": 0.3607948643,
				"element": "C" 
			},
			{
				"x": 0.4989494668,
				"y": -1.915713019,
				"z": 1.7137610214,
				"element": "C" 
			},
			{
				"x": 0.1295958391,
				"y": -2.2039735251,
				"z": 2.7737736697,
				"element": "N" 
			},
			{
				"x": 0.3981066083,
				"y": -0.658347439,
				"z": 0.0321429537,
				"element": "H" 
			},
			{
				"x": 0.6813839408,
				"y": -2.3618431831,
				"z": -0.3323675897,
				"element": "H" 
			}
		],
		 "valence_orbital": [ 
			{
				"type": "occ",
				"energy": -0.3872,
				"method": "rhf"
			},
			{
				"type": "occ",
				"energy": -0.3688,
				"method": "rhf"
			},
			{
				"type": "occ",
				"energy": -0.36552,
				"method": "rhf"
			},
			{
				"type": "occ",
				"energy": -0.3561,
				"method": "rhf"
			},
			{
				"type": "occ",
				"energy": -0.34902,
				"method": "rhf"
			},
			{
				"type": "unocc",
				"energy": -0.01589,
				"method": "rhf"
			},
			{
				"type": "unocc",
				"energy": -0.00451,
				"method": "rhf"
			},
			{
				"type": "unocc",
				"energy": 0.02138,
				"method": "rhf"
			},
			{
				"type": "unocc",
				"energy": 0.0266,
				"method": "rhf"
			},
			{
				"type": "unocc",
				"energy": 0.05906,
				"method": "rhf"
			}
		],
		"cosmo_sigma_profile": { 
			"-0.025": 0.0,
			"-0.024": 0.0,
			"-0.023": 0.0,
			"-0.022": 0.0,
			"-0.021": 0.0,
			"-0.02": 0.0,
			"-0.019": 0.0,
			"-0.018": 0.0,
			"-0.017": 0.0,
			"-0.016": 0.0,
			"-0.015": 0.0,
			"-0.014": 0.0640147086,
			"-0.013": 5.05447261908,
			"-0.012": 6.63398574532,
			"-0.011": 4.89260326839,
			"-0.01": 4.94986983372,
			"-0.009": 3.87913625099,
			"-0.008": 2.68223718739,
			"-0.007": 2.37626407025,
			"-0.006": 2.84568949253,
			"-0.005": 2.89736400429,
			"-0.004": 2.91460991715,
			"-0.003": 3.14359035141,
			"-0.002": 2.69735637761,
			"-0.001": 3.68639111035,
			"0.0": 3.02734516873,
			"0.001": 3.21287772256,
			"0.002": 4.60052485838,
			"0.003": 2.7771065958,
			"0.004": 5.9477115715,
			"0.005": 4.59745526005,
			"0.006": 5.67401194234,
			"0.007": 6.55433054105,
			"0.008": 6.12620657965,
			"0.009": 6.0612534183,
			"0.01": 4.95650132534,
			"0.011": 4.76307557992,
			"0.012": 2.42562214629,
			"0.013": 0.0,
			"0.014": 0.0,
			"0.015": 0.0,
			"0.016": 0.0,
			"0.017": 0.0,
			"0.018": 0.0,
			"0.019": 0.0,
			"0.02": 0.0,
			"0.021": 0.0,
			"0.022": 0.0,
			"0.023": 0.0,
			"0.024": 0.0,
			"0.025": 0.0
		}
	}
}
