{
	 "smiles": "ClC1=CC=CC=C1", 
	 "Tm": 227.65, 
	 "num_atms": 12, 
	 "gaussian": { 
		 "optdone": 1, 
		 "sigma_profile": "yes", 
		 "theory": "DFT", 
		 "functional": "B3LYP", 
		 "basiset": "6-31G**", 
		 "properties": { 
			 "R2extent": 1417.8839, 
			 "electric_dipole_moment_norm": 1.91190230399, 
			 "electric_quadrupole_moment_norm": 6.26980406392, 
			 "total_energy": -691.844484097, 
			 "HOMO_LUMO_gap": 0.23318, 
			 "cosmo_polarized_energy": -3.58, 
			 "cosmo_cavitation_energy": 17.54, 
			 "cosmo_dispersion_energy": -13.41, 
			 "cosmo_repulsion_energy": 1.13, 
			 "cosmo_total_nonelectrostatic_energy": 5.26, 
			 "SMD_solvation_energy": 2.82 
		},
		"coords": [
			{
				"x": -2.8918626522,
				"y": -0.0552166172,
				"z": 2.0910929137,
				"element": "Cl" 
			},
			{
				"x": -1.4007542744,
				"y": 0.4522480341,
				"z": 1.3054929116,
				"element": "C" 
			},
			{
				"x": -1.3779994145,
				"y": 1.6516113986,
				"z": 0.5939648678,
				"element": "C" 
			},
			{
				"x": -0.1914262055,
				"y": 2.0468966935,
				"z": -0.0261137437,
				"element": "C" 
			},
			{
				"x": 0.9537278538,
				"y": 1.2535874124,
				"z": 0.0651135283,
				"element": "C" 
			},
			{
				"x": 0.9116913851,
				"y": 0.0562172612,
				"z": 0.7817547884,
				"element": "C" 
			},
			{
				"x": -0.2668987643,
				"y": -0.3534698932,
				"z": 1.4076814623,
				"element": "C" 
			},
			{
				"x": -2.2727069103,
				"y": 2.2608837407,
				"z": 0.5288737992,
				"element": "H" 
			},
			{
				"x": -0.1671126921,
				"y": 2.9798055002,
				"z": -0.5817177482,
				"element": "H" 
			},
			{
				"x": 1.8734516942,
				"y": 1.5666230705,
				"z": -0.4193849506,
				"element": "H" 
			},
			{
				"x": 1.7981569781,
				"y": -0.5667106861,
				"z": 0.8575559328,
				"element": "H" 
			},
			{
				"x": -0.309566998,
				"y": -1.2817759146,
				"z": 1.9665862381,
				"element": "H" 
			}
		],
		 "valence_orbital": [ 
			{
				"type": "occ",
				"energy": -0.36199,
				"method": "rhf"
			},
			{
				"type": "occ",
				"energy": -0.33205,
				"method": "rhf"
			},
			{
				"type": "occ",
				"energy": -0.31114,
				"method": "rhf"
			},
			{
				"type": "occ",
				"energy": -0.26316,
				"method": "rhf"
			},
			{
				"type": "occ",
				"energy": -0.24657,
				"method": "rhf"
			},
			{
				"type": "unocc",
				"energy": -0.01339,
				"method": "rhf"
			},
			{
				"type": "unocc",
				"energy": -0.01237,
				"method": "rhf"
			},
			{
				"type": "unocc",
				"energy": 0.02986,
				"method": "rhf"
			},
			{
				"type": "unocc",
				"energy": 0.10478,
				"method": "rhf"
			},
			{
				"type": "unocc",
				"energy": 0.13518,
				"method": "rhf"
			}
		],
		"cosmo_sigma_profile": { 
			"-0.025": 0.0,
			"-0.024": 0.0,
			"-0.023": 0.0,
			"-0.022": 0.0,
			"-0.021": 0.0,
			"-0.02": 0.0,
			"-0.019": 0.0,
			"-0.018": 0.0,
			"-0.017": 0.0,
			"-0.016": 0.0,
			"-0.015": 0.0,
			"-0.014": 0.0,
			"-0.013": 0.0,
			"-0.012": 0.0,
			"-0.011": 0.0,
			"-0.01": 0.0,
			"-0.009": 0.0,
			"-0.008": 0.0389032223094,
			"-0.007": 3.60248211538,
			"-0.006": 10.8261645164,
			"-0.005": 10.8215893079,
			"-0.004": 10.793054141,
			"-0.003": 7.10661463412,
			"-0.002": 7.83662446394,
			"-0.001": 8.34509480737,
			"0.0": 9.78462696887,
			"0.001": 10.2704109652,
			"0.002": 15.9936241868,
			"0.003": 14.6469363425,
			"0.004": 20.5854956486,
			"0.005": 12.2592875593,
			"0.006": 0.364916589353,
			"0.007": 0.0,
			"0.008": 0.0,
			"0.009": 0.0,
			"0.01": 0.0,
			"0.011": 0.0,
			"0.012": 0.0,
			"0.013": 0.0,
			"0.014": 0.0,
			"0.015": 0.0,
			"0.016": 0.0,
			"0.017": 0.0,
			"0.018": 0.0,
			"0.019": 0.0,
			"0.02": 0.0,
			"0.021": 0.0,
			"0.022": 0.0,
			"0.023": 0.0,
			"0.024": 0.0,
			"0.025": 0.0
		}
	}
}
