{
	 "smiles": "FC1=C(C=CC=C1)C1=NC2=C(S1)C(=O)CCC2", 
	 "Tm": 427.15, 
	 "num_atms": 27, 
	 "gaussian": { 
		 "optdone": 1, 
		 "sigma_profile": "yes", 
		 "theory": "DFT", 
		 "functional": "B3LYP", 
		 "basiset": "6-31G**", 
		 "properties": { 
			 "R2extent": 5733.0161, 
			 "electric_dipole_moment_norm": 2.66166581298, 
			 "electric_quadrupole_moment_norm": 21.8110424155, 
			 "total_energy": -1129.41784905, 
			 "HOMO_LUMO_gap": 0.15553, 
			 "cosmo_polarized_energy": -11.51, 
			 "cosmo_cavitation_energy": 32.67, 
			 "cosmo_dispersion_energy": -24.54, 
			 "cosmo_repulsion_energy": 1.83, 
			 "cosmo_total_nonelectrostatic_energy": 9.97, 
			 "SMD_solvation_energy": 4.28 
		},
		"coords": [
			{
				"x": 0.9590401144,
				"y": -2.8698318624,
				"z": 2.1120238665,
				"element": "F" 
			},
			{
				"x": 0.5672002962,
				"y": -1.8442340146,
				"z": 2.8818520083,
				"element": "C" 
			},
			{
				"x": -0.1986592731,
				"y": -0.799985173,
				"z": 2.3323284754,
				"element": "C" 
			},
			{
				"x": -0.5481250017,
				"y": 0.2567696271,
				"z": 3.1952220216,
				"element": "C" 
			},
			{
				"x": -0.1558355091,
				"y": 0.2694479894,
				"z": 4.5295237646,
				"element": "C" 
			},
			{
				"x": 0.6024382615,
				"y": -0.7865325817,
				"z": 5.0417180275,
				"element": "C" 
			},
			{
				"x": 0.9659449787,
				"y": -1.8468141955,
				"z": 4.2136286198,
				"element": "C" 
			},
			{
				"x": -0.6107664207,
				"y": -0.7989567927,
				"z": 0.9238644599,
				"element": "C" 
			},
			{
				"x": -0.7695488096,
				"y": -1.8775562281,
				"z": 0.1887151735,
				"element": "N" 
			},
			{
				"x": -1.1764226186,
				"y": -1.5579773187,
				"z": -1.0743074566,
				"element": "C" 
			},
			{
				"x": -1.3308242865,
				"y": -0.2101906453,
				"z": -1.3343248566,
				"element": "C" 
			},
			{
				"x": -0.9427323683,
				"y": 0.7181791499,
				"z": 0.0827392429,
				"element": "S" 
			},
			{
				"x": -1.7303132993,
				"y": 0.359337212,
				"z": -2.6225211268,
				"element": "C" 
			},
			{
				"x": -1.8706451278,
				"y": 1.5596344377,
				"z": -2.8101986873,
				"element": "O" 
			},
			{
				"x": -1.9153641506,
				"y": -0.6793106903,
				"z": -3.7303521821,
				"element": "C" 
			},
			{
				"x": -2.3763189638,
				"y": -2.0520114775,
				"z": -3.2105643826,
				"element": "C" 
			},
			{
				"x": -1.4409864771,
				"y": -2.603571009,
				"z": -2.120371386,
				"element": "C" 
			},
			{
				"x": -1.1576358777,
				"y": 1.0680546013,
				"z": 2.8089947248,
				"element": "H" 
			},
			{
				"x": -0.4482510444,
				"y": 1.0954059508,
				"z": 5.1696066545,
				"element": "H" 
			},
			{
				"x": 0.9099107584,
				"y": -0.7874304908,
				"z": 6.0828797632,
				"element": "H" 
			},
			{
				"x": 1.559725578,
				"y": -2.6795267267,
				"z": 4.5745610835,
				"element": "H" 
			},
			{
				"x": -2.6124470584,
				"y": -0.2626592748,
				"z": -4.4625944343,
				"element": "H" 
			},
			{
				"x": -0.9440621228,
				"y": -0.7787430189,
				"z": -4.2375052841,
				"element": "H" 
			},
			{
				"x": -2.4417381451,
				"y": -2.7613372353,
				"z": -4.0419489939,
				"element": "H" 
			},
			{
				"x": -3.3875420123,
				"y": -1.9563508761,
				"z": -2.7960140328,
				"element": "H" 
			},
			{
				"x": -0.4838167896,
				"y": -2.9160898227,
				"z": -2.5630449266,
				"element": "H" 
			},
			{
				"x": -1.8638246305,
				"y": -3.4937195338,
				"z": -1.6441101365,
				"element": "H" 
			}
		],
		 "valence_orbital": [ 
			{
				"type": "occ",
				"energy": -0.28325,
				"method": "rhf"
			},
			{
				"type": "occ",
				"energy": -0.28141,
				"method": "rhf"
			},
			{
				"type": "occ",
				"energy": -0.26013,
				"method": "rhf"
			},
			{
				"type": "occ",
				"energy": -0.24465,
				"method": "rhf"
			},
			{
				"type": "occ",
				"energy": -0.23337,
				"method": "rhf"
			},
			{
				"type": "unocc",
				"energy": -0.07784,
				"method": "rhf"
			},
			{
				"type": "unocc",
				"energy": -0.02372,
				"method": "rhf"
			},
			{
				"type": "unocc",
				"energy": -0.01438,
				"method": "rhf"
			},
			{
				"type": "unocc",
				"energy": 0.01999,
				"method": "rhf"
			},
			{
				"type": "unocc",
				"energy": 0.02891,
				"method": "rhf"
			}
		],
		"cosmo_sigma_profile": { 
			"-0.025": 0.0,
			"-0.024": 0.0,
			"-0.023": 0.0,
			"-0.022": 0.0,
			"-0.021": 0.0,
			"-0.02": 0.0,
			"-0.019": 0.0,
			"-0.018": 0.0,
			"-0.017": 0.0,
			"-0.016": 0.0,
			"-0.015": 0.0,
			"-0.014": 0.0,
			"-0.013": 0.0,
			"-0.012": 0.0,
			"-0.011": 0.0,
			"-0.01": 0.0,
			"-0.009": 0.0,
			"-0.008": 1.10528177403,
			"-0.007": 6.93048133701,
			"-0.006": 12.0422663587,
			"-0.005": 20.7175699471,
			"-0.004": 22.2611445638,
			"-0.003": 24.2176332617,
			"-0.002": 24.463258119,
			"-0.001": 23.172212666,
			"0.0": 23.994625029,
			"0.001": 22.6692469428,
			"0.002": 20.6436045383,
			"0.003": 15.7525971179,
			"0.004": 11.3413159818,
			"0.005": 5.21961220817,
			"0.006": 3.1253286737,
			"0.007": 3.23186494378,
			"0.008": 2.87872910135,
			"0.009": 3.26100515958,
			"0.01": 3.43627589122,
			"0.011": 3.90512859239,
			"0.012": 5.60050582566,
			"0.013": 3.23737691718,
			"0.014": 0.317054403046,
			"0.015": 0.0,
			"0.016": 0.0,
			"0.017": 0.0,
			"0.018": 0.0,
			"0.019": 0.0,
			"0.02": 0.0,
			"0.021": 0.0,
			"0.022": 0.0,
			"0.023": 0.0,
			"0.024": 0.0,
			"0.025": 0.0
		}
	}
}
