{
	 "smiles": "CC(C)NC(=S)N(C)C", 
	 "Tm": 347.15, 
	 "num_atms": 23, 
	 "gaussian": { 
		 "optdone": 1, 
		 "sigma_profile": "yes", 
		 "theory": "DFT", 
		 "functional": "B3LYP", 
		 "basiset": "6-31G**", 
		 "properties": { 
			 "R2extent": 2095.3781, 
			 "electric_dipole_moment_norm": 4.99251257184, 
			 "electric_quadrupole_moment_norm": 14.996835934, 
			 "total_energy": -744.779821749, 
			 "HOMO_LUMO_gap": 0.18392, 
			 "cosmo_polarized_energy": -12.78, 
			 "cosmo_cavitation_energy": 26.23, 
			 "cosmo_dispersion_energy": -18.7, 
			 "cosmo_repulsion_energy": 1.49, 
			 "cosmo_total_nonelectrostatic_energy": 9.02, 
			 "SMD_solvation_energy": 3.18 
		},
		"coords": [
			{
				"x": 0.9458927,
				"y": 1.533970849,
				"z": -1.5140403713,
				"element": "C" 
			},
			{
				"x": 1.4728899555,
				"y": 0.6499144759,
				"z": -0.3743644638,
				"element": "C" 
			},
			{
				"x": 2.8829996276,
				"y": 1.0543865412,
				"z": 0.0628642228,
				"element": "C" 
			},
			{
				"x": 1.4889453622,
				"y": -0.7814924865,
				"z": -0.7614405843,
				"element": "N" 
			},
			{
				"x": 0.3265669406,
				"y": -1.5227275668,
				"z": -0.9236361984,
				"element": "C" 
			},
			{
				"x": 0.0459389945,
				"y": -2.3720559976,
				"z": -2.3519040299,
				"element": "S" 
			},
			{
				"x": -0.5233218799,
				"y": -1.5376464955,
				"z": 0.1452646384,
				"element": "N" 
			},
			{
				"x": -1.8444839266,
				"y": -2.1443152684,
				"z": 0.028735015,
				"element": "C" 
			},
			{
				"x": -0.0519464258,
				"y": -1.3692235289,
				"z": 1.5195808733,
				"element": "C" 
			},
			{
				"x": 0.9011184718,
				"y": 2.5825765648,
				"z": -1.2005124495,
				"element": "H" 
			},
			{
				"x": 1.6004859496,
				"y": 1.4712072503,
				"z": -2.390763599,
				"element": "H" 
			},
			{
				"x": -0.0564714618,
				"y": 1.2226039795,
				"z": -1.8211702241,
				"element": "H" 
			},
			{
				"x": 0.8007297118,
				"y": 0.7538839194,
				"z": 0.4807818404,
				"element": "H" 
			},
			{
				"x": 3.2304356777,
				"y": 0.4369572663,
				"z": 0.8962245847,
				"element": "H" 
			},
			{
				"x": 2.9045816143,
				"y": 2.1037176883,
				"z": 0.3725917207,
				"element": "H" 
			},
			{
				"x": 3.5945861614,
				"y": 0.9380104175,
				"z": -0.7632484493,
				"element": "H" 
			},
			{
				"x": 2.0849835481,
				"y": -0.9383018736,
				"z": -1.5675821955,
				"element": "H" 
			},
			{
				"x": -2.4993874226,
				"y": -1.6971604266,
				"z": 0.7832455341,
				"element": "H" 
			},
			{
				"x": -1.8045553412,
				"y": -3.2299090569,
				"z": 0.1870316791,
				"element": "H" 
			},
			{
				"x": -2.2489643907,
				"y": -1.9620606391,
				"z": -0.9658397826,
				"element": "H" 
			},
			{
				"x": -0.3421644206,
				"y": -2.2475022515,
				"z": 2.108747625,
				"element": "H" 
			},
			{
				"x": 1.0343468941,
				"y": -1.2905075503,
				"z": 1.5327190925,
				"element": "H" 
			},
			{
				"x": -0.48860634,
				"y": -0.4827258105,
				"z": 1.9964155216,
				"element": "H" 
			}
		],
		 "valence_orbital": [ 
			{
				"type": "occ",
				"energy": -0.34713,
				"method": "rhf"
			},
			{
				"type": "occ",
				"energy": -0.33569,
				"method": "rhf"
			},
			{
				"type": "occ",
				"energy": -0.24587,
				"method": "rhf"
			},
			{
				"type": "occ",
				"energy": -0.21292,
				"method": "rhf"
			},
			{
				"type": "occ",
				"energy": -0.19277,
				"method": "rhf"
			},
			{
				"type": "unocc",
				"energy": -0.00885,
				"method": "rhf"
			},
			{
				"type": "unocc",
				"energy": 0.06817,
				"method": "rhf"
			},
			{
				"type": "unocc",
				"energy": 0.09109,
				"method": "rhf"
			},
			{
				"type": "unocc",
				"energy": 0.10042,
				"method": "rhf"
			},
			{
				"type": "unocc",
				"energy": 0.11918,
				"method": "rhf"
			}
		],
		"cosmo_sigma_profile": { 
			"-0.025": 0.0,
			"-0.024": 0.0,
			"-0.023": 0.0,
			"-0.022": 0.0,
			"-0.021": 0.0,
			"-0.02": 0.0,
			"-0.019": 0.0,
			"-0.018": 0.0,
			"-0.017": 0.0,
			"-0.016": 0.0,
			"-0.015": 0.0,
			"-0.014": 0.0,
			"-0.013": 0.0,
			"-0.012": 0.0266945135049,
			"-0.011": 0.733378135613,
			"-0.01": 0.76708613769,
			"-0.009": 1.23443521609,
			"-0.008": 1.47052316593,
			"-0.007": 0.88855834319,
			"-0.006": 4.52953762526,
			"-0.005": 14.9768447302,
			"-0.004": 24.1729401994,
			"-0.003": 29.9072539388,
			"-0.002": 25.5344977009,
			"-0.001": 18.0764669236,
			"0.0": 18.2393207786,
			"0.001": 14.0007061081,
			"0.002": 5.20609457944,
			"0.003": 3.663233213,
			"0.004": 4.38119106552,
			"0.005": 4.09537667326,
			"0.006": 3.68326854143,
			"0.007": 4.29255923644,
			"0.008": 4.66518364291,
			"0.009": 4.34209567445,
			"0.01": 6.22560825579,
			"0.011": 5.38191934625,
			"0.012": 4.33247909427,
			"0.013": 1.94487483644,
			"0.014": 0.046918100934,
			"0.015": 0.0,
			"0.016": 0.0,
			"0.017": 0.0,
			"0.018": 0.0,
			"0.019": 0.0,
			"0.02": 0.0,
			"0.021": 0.0,
			"0.022": 0.0,
			"0.023": 0.0,
			"0.024": 0.0,
			"0.025": 0.0
		}
	}
}
