{
	 "smiles": "CCOC(=O)C1=C(C)OC(N)=C(C1C1=CC=C(C=C1)N(C)C)C1=NC2=C(S1)C=CC=C2", 
	 "Tm": 488.15, 
	 "num_atms": 56, 
	 "gaussian": { 
		 "optdone": 1, 
		 "sigma_profile": "yes", 
		 "theory": "DFT", 
		 "functional": "B3LYP", 
		 "basiset": "6-31G**", 
		 "properties": { 
			 "R2extent": 17199.0933, 
			 "electric_dipole_moment_norm": 3.51568567565, 
			 "electric_quadrupole_moment_norm": 19.8997332186, 
			 "total_energy": -1717.73519172, 
			 "HOMO_LUMO_gap": 0.12988, 
			 "cosmo_polarized_energy": -21.97, 
			 "cosmo_cavitation_energy": 59.48, 
			 "cosmo_dispersion_energy": -41.08, 
			 "cosmo_repulsion_energy": 3.1, 
			 "cosmo_total_nonelectrostatic_energy": 21.5, 
			 "SMD_solvation_energy": 9.13 
		},
		"coords": [
			{
				"x": 1.2164698862,
				"y": 6.4787238756,
				"z": 2.8490022086,
				"element": "C" 
			},
			{
				"x": 0.6847405846,
				"y": 5.0602208789,
				"z": 2.933582203,
				"element": "C" 
			},
			{
				"x": 1.4130444228,
				"y": 4.2634372533,
				"z": 1.9726860855,
				"element": "O" 
			},
			{
				"x": 1.0602837234,
				"y": 2.9535527695,
				"z": 1.9188443851,
				"element": "C" 
			},
			{
				"x": 0.1980442184,
				"y": 2.4895501528,
				"z": 2.6435434274,
				"element": "O" 
			},
			{
				"x": 1.8157253743,
				"y": 2.1314061316,
				"z": 0.9423601718,
				"element": "C" 
			},
			{
				"x": 2.7998961764,
				"y": 2.5785859301,
				"z": 0.1329682039,
				"element": "C" 
			},
			{
				"x": 3.3470192782,
				"y": 3.9534482175,
				"z": -0.1026585123,
				"element": "C" 
			},
			{
				"x": 3.4899403148,
				"y": 1.6907915626,
				"z": -0.6748862669,
				"element": "O" 
			},
			{
				"x": 3.4694539636,
				"y": 0.3458953658,
				"z": -0.4045003825,
				"element": "C" 
			},
			{
				"x": 4.4272208049,
				"y": -0.2717564414,
				"z": -1.1610516435,
				"element": "N" 
			},
			{
				"x": 2.5611410711,
				"y": -0.1958753795,
				"z": 0.4529942864,
				"element": "C" 
			},
			{
				"x": 1.3862702366,
				"y": 0.6689504457,
				"z": 0.8962811731,
				"element": "C" 
			},
			{
				"x": 0.1320477863,
				"y": 0.4752678481,
				"z": 0.039716405,
				"element": "C" 
			},
			{
				"x": 0.1392083107,
				"y": 0.6832813123,
				"z": -1.3442840835,
				"element": "C" 
			},
			{
				"x": -1.0055726507,
				"y": 0.5180563145,
				"z": -2.1180463622,
				"element": "C" 
			},
			{
				"x": -2.2285625809,
				"y": 0.1216688095,
				"z": -1.5317322687,
				"element": "C" 
			},
			{
				"x": -2.2379254644,
				"y": -0.0702065983,
				"z": -0.1328936943,
				"element": "C" 
			},
			{
				"x": -1.0816652845,
				"y": 0.1000871473,
				"z": 0.6230112263,
				"element": "C" 
			},
			{
				"x": -3.3729723872,
				"y": -0.0840327033,
				"z": -2.304022313,
				"element": "N" 
			},
			{
				"x": -4.654107972,
				"y": -0.2303587443,
				"z": -1.6353218643,
				"element": "C" 
			},
			{
				"x": -3.3850268553,
				"y": 0.3797838491,
				"z": -3.6800468151,
				"element": "C" 
			},
			{
				"x": 2.5960813767,
				"y": -1.5527196133,
				"z": 0.9526603919,
				"element": "C" 
			},
			{
				"x": 1.6202261256,
				"y": -2.0811803231,
				"z": 1.6351689404,
				"element": "N" 
			},
			{
				"x": 1.9010661367,
				"y": -3.364077319,
				"z": 2.0582174474,
				"element": "C" 
			},
			{
				"x": 3.1688883968,
				"y": -3.8739386925,
				"z": 1.6846818206,
				"element": "C" 
			},
			{
				"x": 4.0352267264,
				"y": -2.645243272,
				"z": 0.7838840984,
				"element": "S" 
			},
			{
				"x": 3.575656084,
				"y": -5.1604989122,
				"z": 2.038646742,
				"element": "C" 
			},
			{
				"x": 2.6952043951,
				"y": -5.9474678621,
				"z": 2.7804396916,
				"element": "C" 
			},
			{
				"x": 1.4354927372,
				"y": -5.4558107988,
				"z": 3.160198801,
				"element": "C" 
			},
			{
				"x": 1.0320158425,
				"y": -4.1729263525,
				"z": 2.8065573439,
				"element": "C" 
			},
			{
				"x": 1.0614843638,
				"y": 6.898727952,
				"z": 1.8506153425,
				"element": "H" 
			},
			{
				"x": 2.2862890553,
				"y": 6.5111436774,
				"z": 3.0753414874,
				"element": "H" 
			},
			{
				"x": 0.6938698471,
				"y": 7.1135985605,
				"z": 3.5713542623,
				"element": "H" 
			},
			{
				"x": -0.3836564831,
				"y": 5.0068828468,
				"z": 2.7023310642,
				"element": "H" 
			},
			{
				"x": 0.8246742412,
				"y": 4.62819245,
				"z": 3.9293199613,
				"element": "H" 
			},
			{
				"x": 3.6090868749,
				"y": 4.0488997746,
				"z": -1.1604958608,
				"element": "H" 
			},
			{
				"x": 2.6335760167,
				"y": 4.7225081844,
				"z": 0.1759840212,
				"element": "H" 
			},
			{
				"x": 4.2651662441,
				"y": 4.1063753707,
				"z": 0.4779830411,
				"element": "H" 
			},
			{
				"x": 4.4815300993,
				"y": -1.277787263,
				"z": -1.1577577602,
				"element": "H" 
			},
			{
				"x": 5.2820413435,
				"y": 0.2348111092,
				"z": -1.3367956782,
				"element": "H" 
			},
			{
				"x": 1.1221759851,
				"y": 0.3723235835,
				"z": 1.9123118308,
				"element": "H" 
			},
			{
				"x": 1.0570595266,
				"y": 0.9858753457,
				"z": -1.8423545971,
				"element": "H" 
			},
			{
				"x": -0.9405000126,
				"y": 0.6988324746,
				"z": -3.1841221981,
				"element": "H" 
			},
			{
				"x": -3.1504177484,
				"y": -0.3555578011,
				"z": 0.3762150441,
				"element": "H" 
			},
			{
				"x": -1.1254206712,
				"y": -0.0547588091,
				"z": 1.6966304832,
				"element": "H" 
			},
			{
				"x": -4.9383292957,
				"y": 0.654027862,
				"z": -1.0417969466,
				"element": "H" 
			},
			{
				"x": -5.4299519781,
				"y": -0.4031870906,
				"z": -2.3837081332,
				"element": "H" 
			},
			{
				"x": -4.6486521823,
				"y": -1.0965117315,
				"z": -0.9647186927,
				"element": "H" 
			},
			{
				"x": -3.2420597295,
				"y": 1.4690212734,
				"z": -3.773673238,
				"element": "H" 
			},
			{
				"x": -2.6015553999,
				"y": -0.1127554765,
				"z": -4.2665036195,
				"element": "H" 
			},
			{
				"x": -4.3427687745,
				"y": 0.1213558892,
				"z": -4.1358921237,
				"element": "H" 
			},
			{
				"x": 4.5491223921,
				"y": -5.5419834988,
				"z": 1.7471088837,
				"element": "H" 
			},
			{
				"x": 2.9899102918,
				"y": -6.9529194685,
				"z": 3.0658536589,
				"element": "H" 
			},
			{
				"x": 0.767653318,
				"y": -6.0877124319,
				"z": 3.7382677626,
				"element": "H" 
			},
			{
				"x": 0.0619418978,
				"y": -3.7804176352,
				"z": 3.0929011579,
				"element": "H" 
			}
		],
		 "valence_orbital": [ 
			{
				"type": "occ",
				"energy": -0.23762,
				"method": "rhf"
			},
			{
				"type": "occ",
				"energy": -0.22578,
				"method": "rhf"
			},
			{
				"type": "occ",
				"energy": -0.22471,
				"method": "rhf"
			},
			{
				"type": "occ",
				"energy": -0.19156,
				"method": "rhf"
			},
			{
				"type": "occ",
				"energy": -0.17378,
				"method": "rhf"
			},
			{
				"type": "unocc",
				"energy": -0.0439,
				"method": "rhf"
			},
			{
				"type": "unocc",
				"energy": -0.01879,
				"method": "rhf"
			},
			{
				"type": "unocc",
				"energy": 0.00312,
				"method": "rhf"
			},
			{
				"type": "unocc",
				"energy": 0.01599,
				"method": "rhf"
			},
			{
				"type": "unocc",
				"energy": 0.02207,
				"method": "rhf"
			}
		],
		"cosmo_sigma_profile": { 
			"-0.025": 0.0,
			"-0.024": 0.0,
			"-0.023": 0.0,
			"-0.022": 0.0,
			"-0.021": 0.0,
			"-0.02": 0.0,
			"-0.019": 0.0,
			"-0.018": 0.0,
			"-0.017": 0.0,
			"-0.016": 0.0,
			"-0.015": 0.591957103383,
			"-0.014": 1.32815087671,
			"-0.013": 0.847503231346,
			"-0.012": 2.23655606066,
			"-0.011": 2.30951684895,
			"-0.01": 1.40062359563,
			"-0.009": 2.31791883567,
			"-0.008": 1.91092384772,
			"-0.007": 3.94451484542,
			"-0.006": 12.3611776873,
			"-0.005": 28.0832251707,
			"-0.004": 39.2323108634,
			"-0.003": 46.0214161291,
			"-0.002": 49.1893147205,
			"-0.001": 51.6601056475,
			"0.0": 39.2303081959,
			"0.001": 30.9595099215,
			"0.002": 29.0119461373,
			"0.003": 27.6231533262,
			"0.004": 25.8003735765,
			"0.005": 23.16312407,
			"0.006": 15.5166352084,
			"0.007": 13.4009578997,
			"0.008": 8.64229181069,
			"0.009": 5.26507600271,
			"0.01": 4.65154128014,
			"0.011": 3.46409058803,
			"0.012": 3.09721936378,
			"0.013": 0.960116257207,
			"0.014": 0.0,
			"0.015": 0.0,
			"0.016": 0.0,
			"0.017": 0.0,
			"0.018": 0.0,
			"0.019": 0.0,
			"0.02": 0.0,
			"0.021": 0.0,
			"0.022": 0.0,
			"0.023": 0.0,
			"0.024": 0.0,
			"0.025": 0.0
		}
	}
}
