{
	 "smiles": "OC(=O)C1=CC(COC2=CC=C(C=C2)C#N)=CC=C1", 
	 "Tm": 495.15, 
	 "num_atms": 30, 
	 "gaussian": { 
		 "optdone": 1, 
		 "sigma_profile": "yes", 
		 "theory": "DFT", 
		 "functional": "B3LYP", 
		 "basiset": "6-31G**", 
		 "properties": { 
			 "R2extent": 6481.2358, 
			 "electric_dipole_moment_norm": 6.02192476373, 
			 "electric_quadrupole_moment_norm": 34.4085155415, 
			 "total_energy": -858.633049822, 
			 "HOMO_LUMO_gap": 0.18534, 
			 "cosmo_polarized_energy": -22.9, 
			 "cosmo_cavitation_energy": 36.62, 
			 "cosmo_dispersion_energy": -25.01, 
			 "cosmo_repulsion_energy": 1.94, 
			 "cosmo_total_nonelectrostatic_energy": 13.55, 
			 "SMD_solvation_energy": 8.91 
		},
		"coords": [
			{
				"x": 0.0528490824,
				"y": 1.4952362213,
				"z": -3.6315745092,
				"element": "O" 
			},
			{
				"x": 1.3555461142,
				"y": 1.5279791822,
				"z": -3.2468146373,
				"element": "C" 
			},
			{
				"x": 2.1696363289,
				"y": 2.1238432773,
				"z": -3.9114646968,
				"element": "O" 
			},
			{
				"x": 1.7069724106,
				"y": 0.7976797844,
				"z": -1.9824288561,
				"element": "C" 
			},
			{
				"x": 0.9199446885,
				"y": -0.2370647535,
				"z": -1.4620986417,
				"element": "C" 
			},
			{
				"x": 1.2934743568,
				"y": -0.8945145871,
				"z": -0.2862768167,
				"element": "C" 
			},
			{
				"x": 0.4780706047,
				"y": -2.059684602,
				"z": 0.2412250949,
				"element": "C" 
			},
			{
				"x": -0.9078361076,
				"y": -1.9971955481,
				"z": -0.0981761163,
				"element": "O" 
			},
			{
				"x": -1.7401834757,
				"y": -1.1833458864,
				"z": 0.6133408392,
				"element": "C" 
			},
			{
				"x": -1.3248354147,
				"y": -0.2784560177,
				"z": 1.5999232778,
				"element": "C" 
			},
			{
				"x": -2.2728073738,
				"y": 0.4933513452,
				"z": 2.2676148507,
				"element": "C" 
			},
			{
				"x": -3.6366067901,
				"y": 0.3790801797,
				"z": 1.9601092208,
				"element": "C" 
			},
			{
				"x": -4.0426605655,
				"y": -0.5275888723,
				"z": 0.9617204168,
				"element": "C" 
			},
			{
				"x": -3.1036665527,
				"y": -1.2993623202,
				"z": 0.2967136344,
				"element": "C" 
			},
			{
				"x": -4.6040318929,
				"y": 1.1769389477,
				"z": 2.6514463002,
				"element": "C" 
			},
			{
				"x": -5.3907724365,
				"y": 1.8247918175,
				"z": 3.2132466706,
				"element": "N" 
			},
			{
				"x": 2.4674926126,
				"y": -0.5044171765,
				"z": 0.366999517,
				"element": "C" 
			},
			{
				"x": 3.2680357724,
				"y": 0.512781863,
				"z": -0.1583736398,
				"element": "C" 
			},
			{
				"x": 2.8956451763,
				"y": 1.1582110011,
				"z": -1.3338467687,
				"element": "C" 
			},
			{
				"x": -0.4980636767,
				"y": 1.1300962016,
				"z": -2.925302311,
				"element": "H" 
			},
			{
				"x": 0.021448929,
				"y": -0.57194297,
				"z": -1.973551198,
				"element": "H" 
			},
			{
				"x": 0.6029590102,
				"y": -2.1617924453,
				"z": 1.326549599,
				"element": "H" 
			},
			{
				"x": 0.8190331931,
				"y": -2.993850905,
				"z": -0.2171274448,
				"element": "H" 
			},
			{
				"x": -0.2764200972,
				"y": -0.1538496467,
				"z": 1.8393734734,
				"element": "H" 
			},
			{
				"x": -1.9536959478,
				"y": 1.19561265,
				"z": 3.0304903105,
				"element": "H" 
			},
			{
				"x": -5.0957422809,
				"y": -0.6214976702,
				"z": 0.7188608771,
				"element": "H" 
			},
			{
				"x": -3.3999850441,
				"y": -2.0085027851,
				"z": -0.4687374742,
				"element": "H" 
			},
			{
				"x": 2.7630499929,
				"y": -1.0024382226,
				"z": 1.287634206,
				"element": "H" 
			},
			{
				"x": 4.1801112798,
				"y": 0.8021757295,
				"z": 0.3546372595,
				"element": "H" 
			},
			{
				"x": 3.5035381037,
				"y": 1.9456262083,
				"z": -1.7656124375,
				"element": "H" 
			}
		],
		 "valence_orbital": [ 
			{
				"type": "occ",
				"energy": -0.28698,
				"method": "rhf"
			},
			{
				"type": "occ",
				"energy": -0.28582,
				"method": "rhf"
			},
			{
				"type": "occ",
				"energy": -0.27955,
				"method": "rhf"
			},
			{
				"type": "occ",
				"energy": -0.27273,
				"method": "rhf"
			},
			{
				"type": "occ",
				"energy": -0.24832,
				"method": "rhf"
			},
			{
				"type": "unocc",
				"energy": -0.06298,
				"method": "rhf"
			},
			{
				"type": "unocc",
				"energy": -0.04719,
				"method": "rhf"
			},
			{
				"type": "unocc",
				"energy": -0.03834,
				"method": "rhf"
			},
			{
				"type": "unocc",
				"energy": -0.03106,
				"method": "rhf"
			},
			{
				"type": "unocc",
				"energy": 0.03444,
				"method": "rhf"
			}
		],
		"cosmo_sigma_profile": { 
			"-0.025": 0.0,
			"-0.024": 0.0,
			"-0.023": 0.0,
			"-0.022": 0.0,
			"-0.021": 0.0,
			"-0.02": 0.0,
			"-0.019": 0.0725862036278,
			"-0.018": 0.630207617548,
			"-0.017": 0.965753272142,
			"-0.016": 0.938592523492,
			"-0.015": 0.888451658312,
			"-0.014": 1.14986062464,
			"-0.013": 0.912171718843,
			"-0.012": 1.14180795534,
			"-0.011": 1.16019473404,
			"-0.01": 0.878273728216,
			"-0.009": 1.14312260223,
			"-0.008": 8.47409389687,
			"-0.007": 17.3181596297,
			"-0.006": 20.4227064449,
			"-0.005": 19.3795673057,
			"-0.004": 16.2255283587,
			"-0.003": 15.8302541517,
			"-0.002": 16.2774445994,
			"-0.001": 16.5731667976,
			"0.0": 20.7769087122,
			"0.001": 22.3726886925,
			"0.002": 25.7493151541,
			"0.003": 19.6168259458,
			"0.004": 7.13684563768,
			"0.005": 5.10888575035,
			"0.006": 6.29139473032,
			"0.007": 5.22998330768,
			"0.008": 7.25720973333,
			"0.009": 7.80737759078,
			"0.01": 7.7668490822,
			"0.011": 8.41062923677,
			"0.012": 7.15080468501,
			"0.013": 3.6126904282,
			"0.014": 0.381520595217,
			"0.015": 0.0,
			"0.016": 0.0,
			"0.017": 0.0,
			"0.018": 0.0,
			"0.019": 0.0,
			"0.02": 0.0,
			"0.021": 0.0,
			"0.022": 0.0,
			"0.023": 0.0,
			"0.024": 0.0,
			"0.025": 0.0
		}
	}
}
