{
	 "smiles": "OCCS(=O)(=O)C1=CC2=C(NC(=O)O2)C=C1", 
	 "Tm": 482.15, 
	 "num_atms": 25, 
	 "gaussian": { 
		 "optdone": 1, 
		 "sigma_profile": "yes", 
		 "theory": "DFT", 
		 "functional": "B3LYP", 
		 "basiset": "6-31G**", 
		 "properties": { 
			 "R2extent": 5128.9026, 
			 "electric_dipole_moment_norm": 6.22058055329, 
			 "electric_quadrupole_moment_norm": 21.9100857666, 
			 "total_energy": -1177.384717, 
			 "HOMO_LUMO_gap": 0.20095, 
			 "cosmo_polarized_energy": -24.97, 
			 "cosmo_cavitation_energy": 30.7, 
			 "cosmo_dispersion_energy": -23.17, 
			 "cosmo_repulsion_energy": 1.76, 
			 "cosmo_total_nonelectrostatic_energy": 9.29, 
			 "SMD_solvation_energy": 5.69 
		},
		"coords": [
			{
				"x": 1.6083270492,
				"y": -0.978671163,
				"z": 3.5394616852,
				"element": "O" 
			},
			{
				"x": 1.7923158644,
				"y": -1.3102281333,
				"z": 2.1857309377,
				"element": "C" 
			},
			{
				"x": 1.0301000698,
				"y": -2.5761746049,
				"z": 1.7716934782,
				"element": "C" 
			},
			{
				"x": -0.7779971189,
				"y": -2.3458616155,
				"z": 1.7424829786,
				"element": "S" 
			},
			{
				"x": -1.3983088411,
				"y": -3.6708941668,
				"z": 1.6015879111,
				"element": "O" 
			},
			{
				"x": -1.1168267775,
				"y": -1.4603269518,
				"z": 2.8812056442,
				"element": "O" 
			},
			{
				"x": -1.1088653521,
				"y": -1.4184894195,
				"z": 0.2374408446,
				"element": "C" 
			},
			{
				"x": -1.2030751259,
				"y": -0.0190262173,
				"z": 0.3130364602,
				"element": "C" 
			},
			{
				"x": -1.461894995,
				"y": 0.6274977864,
				"z": -0.877228652,
				"element": "C" 
			},
			{
				"x": -1.6303832944,
				"y": -0.0583398346,
				"z": -2.0897012309,
				"element": "C" 
			},
			{
				"x": -1.8766947175,
				"y": 0.9276927626,
				"z": -3.0307525761,
				"element": "N" 
			},
			{
				"x": -1.8694697437,
				"y": 2.1851478388,
				"z": -2.4391170344,
				"element": "C" 
			},
			{
				"x": -2.0450418288,
				"y": 3.2611882579,
				"z": -2.9394479782,
				"element": "O" 
			},
			{
				"x": -1.6058202414,
				"y": 1.9776380395,
				"z": -1.0855475659,
				"element": "O" 
			},
			{
				"x": -1.5480780098,
				"y": -1.4445732983,
				"z": -2.1530898566,
				"element": "C" 
			},
			{
				"x": -1.2838565262,
				"y": -2.1231440234,
				"z": -0.9582966907,
				"element": "C" 
			},
			{
				"x": 0.6515585354,
				"y": -0.8860371751,
				"z": 3.6813592628,
				"element": "H" 
			},
			{
				"x": 1.5300538761,
				"y": -0.4812399086,
				"z": 1.5071921157,
				"element": "H" 
			},
			{
				"x": 2.8611751397,
				"y": -1.5051074196,
				"z": 2.0464437381,
				"element": "H" 
			},
			{
				"x": 1.3149826023,
				"y": -2.9408982964,
				"z": 0.7805778688,
				"element": "H" 
			},
			{
				"x": 1.1840322858,
				"y": -3.3735101909,
				"z": 2.50519449,
				"element": "H" 
			},
			{
				"x": -1.1049329448,
				"y": 0.5081009241,
				"z": 1.2541153073,
				"element": "H" 
			},
			{
				"x": -2.0602569166,
				"y": 0.8105134461,
				"z": -4.014815049,
				"element": "H" 
			},
			{
				"x": -1.6939180533,
				"y": -1.9839798727,
				"z": -3.0825628667,
				"element": "H" 
			},
			{
				"x": -1.2401249357,
				"y": -3.2066767637,
				"z": -0.9460632217,
				"element": "H" 
			}
		],
		 "valence_orbital": [ 
			{
				"type": "occ",
				"energy": -0.31321,
				"method": "rhf"
			},
			{
				"type": "occ",
				"energy": -0.29499,
				"method": "rhf"
			},
			{
				"type": "occ",
				"energy": -0.28595,
				"method": "rhf"
			},
			{
				"type": "occ",
				"energy": -0.27481,
				"method": "rhf"
			},
			{
				"type": "occ",
				"energy": -0.25535,
				"method": "rhf"
			},
			{
				"type": "unocc",
				"energy": -0.0544,
				"method": "rhf"
			},
			{
				"type": "unocc",
				"energy": -0.03987,
				"method": "rhf"
			},
			{
				"type": "unocc",
				"energy": 0.02456,
				"method": "rhf"
			},
			{
				"type": "unocc",
				"energy": 0.04417,
				"method": "rhf"
			},
			{
				"type": "unocc",
				"energy": 0.05417,
				"method": "rhf"
			}
		],
		"cosmo_sigma_profile": { 
			"-0.025": 0.0,
			"-0.024": 0.0,
			"-0.023": 0.0,
			"-0.022": 0.0,
			"-0.021": 0.0,
			"-0.02": 0.0,
			"-0.019": 0.0,
			"-0.018": 0.994555628907,
			"-0.017": 1.77665201395,
			"-0.016": 1.08594875421,
			"-0.015": 1.27292187196,
			"-0.014": 1.35235889765,
			"-0.013": 0.993810852375,
			"-0.012": 1.19916932817,
			"-0.011": 1.02197448083,
			"-0.01": 1.55149393059,
			"-0.009": 4.86659335475,
			"-0.008": 9.92982424343,
			"-0.007": 13.4624216395,
			"-0.006": 15.8072711609,
			"-0.005": 16.8892906182,
			"-0.004": 15.9008895832,
			"-0.003": 13.8697280605,
			"-0.002": 14.0859625548,
			"-0.001": 14.3235738738,
			"0.0": 14.3434603669,
			"0.001": 11.759145714,
			"0.002": 10.0249306969,
			"0.003": 5.68961058624,
			"0.004": 5.39630382568,
			"0.005": 6.29203837073,
			"0.006": 5.4712072446,
			"0.007": 7.72861329881,
			"0.008": 5.96718471894,
			"0.009": 5.44263746652,
			"0.01": 10.2080941491,
			"0.011": 15.0307850144,
			"0.012": 7.41221456571,
			"0.013": 1.61382893866,
			"0.014": 2.3698556935,
			"0.015": 0.223097455511,
			"0.016": 0.0,
			"0.017": 0.0,
			"0.018": 0.0,
			"0.019": 0.0,
			"0.02": 0.0,
			"0.021": 0.0,
			"0.022": 0.0,
			"0.023": 0.0,
			"0.024": 0.0,
			"0.025": 0.0
		}
	}
}
