{
	 "smiles": "ClP(Cl)C1=CC=CC=C1", 
	 "Tm": 222.15, 
	 "num_atms": 14, 
	 "gaussian": { 
		 "optdone": 1, 
		 "sigma_profile": "yes", 
		 "theory": "DFT", 
		 "functional": "B3LYP", 
		 "basiset": "6-31G**", 
		 "properties": { 
			 "R2extent": 4483.9082, 
			 "electric_dipole_moment_norm": 3.68302804225, 
			 "electric_quadrupole_moment_norm": 11.3591816136, 
			 "total_energy": -1493.43023178, 
			 "HOMO_LUMO_gap": 0.20277, 
			 "cosmo_polarized_energy": -5.68, 
			 "cosmo_cavitation_energy": 23.11, 
			 "cosmo_dispersion_energy": -17.97, 
			 "cosmo_repulsion_energy": 1.63, 
			 "cosmo_total_nonelectrostatic_energy": 6.77, 
			 "SMD_solvation_energy": 3.06 
		},
		"coords": [
			{
				"x": -2.5621528025,
				"y": -3.7043416834,
				"z": -1.4057019194,
				"element": "Cl" 
			},
			{
				"x": -0.4674295888,
				"y": -3.5863002556,
				"z": -1.6335594779,
				"element": "P" 
			},
			{
				"x": -0.3055316153,
				"y": -3.5452189261,
				"z": -3.7373168331,
				"element": "Cl" 
			},
			{
				"x": -0.1890889563,
				"y": -1.8172758926,
				"z": -1.2434469049,
				"element": "C" 
			},
			{
				"x": -0.8741168847,
				"y": -0.7423921891,
				"z": -1.8319850596,
				"element": "C" 
			},
			{
				"x": -0.5730443238,
				"y": 0.5617765172,
				"z": -1.4520765017,
				"element": "C" 
			},
			{
				"x": 0.4102310396,
				"y": 0.804286065,
				"z": -0.4853812202,
				"element": "C" 
			},
			{
				"x": 1.0936846415,
				"y": -0.2587756826,
				"z": 0.1025747788,
				"element": "C" 
			},
			{
				"x": 0.7953204816,
				"y": -1.5704339545,
				"z": -0.2752703267,
				"element": "C" 
			},
			{
				"x": -1.6364554856,
				"y": -0.931223266,
				"z": -2.5813847085,
				"element": "H" 
			},
			{
				"x": -1.1031915654,
				"y": 1.3928991349,
				"z": -1.9076442345,
				"element": "H" 
			},
			{
				"x": 0.6405795131,
				"y": 1.8246983229,
				"z": -0.1931900602,
				"element": "H" 
			},
			{
				"x": 1.8563859622,
				"y": -0.0717648538,
				"z": 0.8523994699,
				"element": "H" 
			},
			{
				"x": 1.3282095844,
				"y": -2.3999333362,
				"z": 0.1830829981,
				"element": "H" 
			}
		],
		 "valence_orbital": [ 
			{
				"type": "occ",
				"energy": -0.32924,
				"method": "rhf"
			},
			{
				"type": "occ",
				"energy": -0.31539,
				"method": "rhf"
			},
			{
				"type": "occ",
				"energy": -0.27585,
				"method": "rhf"
			},
			{
				"type": "occ",
				"energy": -0.27111,
				"method": "rhf"
			},
			{
				"type": "occ",
				"energy": -0.2697,
				"method": "rhf"
			},
			{
				"type": "unocc",
				"energy": -0.06693,
				"method": "rhf"
			},
			{
				"type": "unocc",
				"energy": -0.04707,
				"method": "rhf"
			},
			{
				"type": "unocc",
				"energy": -0.02394,
				"method": "rhf"
			},
			{
				"type": "unocc",
				"energy": 0.00375,
				"method": "rhf"
			},
			{
				"type": "unocc",
				"energy": 0.04487,
				"method": "rhf"
			}
		],
		"cosmo_sigma_profile": { 
			"-0.025": 0.0,
			"-0.024": 0.0,
			"-0.023": 0.0,
			"-0.022": 0.0,
			"-0.021": 0.0,
			"-0.02": 0.0,
			"-0.019": 0.0,
			"-0.018": 0.0,
			"-0.017": 0.0,
			"-0.016": 0.0,
			"-0.015": 0.0,
			"-0.014": 0.0,
			"-0.013": 0.0,
			"-0.012": 0.0,
			"-0.011": 0.0,
			"-0.01": 0.0,
			"-0.009": 0.0,
			"-0.008": 0.107289904543,
			"-0.007": 7.67983987991,
			"-0.006": 14.3685421384,
			"-0.005": 14.0821237625,
			"-0.004": 11.1912765185,
			"-0.003": 10.2933949733,
			"-0.002": 8.46407723435,
			"-0.001": 10.3907447488,
			"0.0": 13.8134591054,
			"0.001": 15.1343641384,
			"0.002": 17.9057538983,
			"0.003": 27.0921183104,
			"0.004": 26.6382080085,
			"0.005": 14.1370121326,
			"0.006": 0.541635730047,
			"0.007": 0.0,
			"0.008": 0.0,
			"0.009": 0.0,
			"0.01": 0.0,
			"0.011": 0.0,
			"0.012": 0.0,
			"0.013": 0.0,
			"0.014": 0.0,
			"0.015": 0.0,
			"0.016": 0.0,
			"0.017": 0.0,
			"0.018": 0.0,
			"0.019": 0.0,
			"0.02": 0.0,
			"0.021": 0.0,
			"0.022": 0.0,
			"0.023": 0.0,
			"0.024": 0.0,
			"0.025": 0.0
		}
	}
}
