{
	 "smiles": "FC1=C(C=C(C=O)C=C1)C#N", 
	 "Tm": 355.15, 
	 "num_atms": 15, 
	 "gaussian": { 
		 "optdone": 1, 
		 "sigma_profile": "yes", 
		 "theory": "DFT", 
		 "functional": "B3LYP", 
		 "basiset": "6-31G**", 
		 "properties": { 
			 "R2extent": 2344.4948, 
			 "electric_dipole_moment_norm": 5.35943578467, 
			 "electric_quadrupole_moment_norm": 11.4445214649, 
			 "total_energy": -537.040181875, 
			 "HOMO_LUMO_gap": 0.19076, 
			 "cosmo_polarized_energy": -12.52, 
			 "cosmo_cavitation_energy": 22.09, 
			 "cosmo_dispersion_energy": -15.26, 
			 "cosmo_repulsion_energy": 1.2, 
			 "cosmo_total_nonelectrostatic_energy": 8.03, 
			 "SMD_solvation_energy": 6.8 
		},
		"coords": [
			{
				"x": -2.4954802323,
				"y": 1.2841227429,
				"z": 2.0246342838,
				"element": "F" 
			},
			{
				"x": -1.9133730779,
				"y": 0.4937822252,
				"z": 1.1178163187,
				"element": "C" 
			},
			{
				"x": -1.8164077152,
				"y": 0.9496779228,
				"z": -0.2100266061,
				"element": "C" 
			},
			{
				"x": -1.2063815588,
				"y": 0.1195237885,
				"z": -1.1562969137,
				"element": "C" 
			},
			{
				"x": -0.708401798,
				"y": -1.1325115425,
				"z": -0.7784247147,
				"element": "C" 
			},
			{
				"x": -0.0634648852,
				"y": -2.0045919905,
				"z": -1.7902187033,
				"element": "C" 
			},
			{
				"x": 0.0712984744,
				"y": -1.7081319869,
				"z": -2.9602524666,
				"element": "O" 
			},
			{
				"x": -0.8205948152,
				"y": -1.5575971469,
				"z": 0.5527416025,
				"element": "C" 
			},
			{
				"x": -1.4244631737,
				"y": -0.7458578402,
				"z": 1.5096095709,
				"element": "C" 
			},
			{
				"x": -2.3356148317,
				"y": 2.235591554,
				"z": -0.5650556413,
				"element": "C" 
			},
			{
				"x": -2.7537164101,
				"y": 3.2779475291,
				"z": -0.8647078102,
				"element": "N" 
			},
			{
				"x": -1.112408611,
				"y": 0.4349072195,
				"z": -2.1899433966,
				"element": "H" 
			},
			{
				"x": 0.3008491838,
				"y": -2.9790500933,
				"z": -1.3972379799,
				"element": "H" 
			},
			{
				"x": -0.4316588669,
				"y": -2.5313547581,
				"z": 0.8395363763,
				"element": "H" 
			},
			{
				"x": -1.5243816821,
				"y": -1.0496576236,
				"z": 2.5454260801,
				"element": "H" 
			}
		],
		 "valence_orbital": [ 
			{
				"type": "occ",
				"energy": -0.36209,
				"method": "rhf"
			},
			{
				"type": "occ",
				"energy": -0.34605,
				"method": "rhf"
			},
			{
				"type": "occ",
				"energy": -0.29475,
				"method": "rhf"
			},
			{
				"type": "occ",
				"energy": -0.28289,
				"method": "rhf"
			},
			{
				"type": "occ",
				"energy": -0.27722,
				"method": "rhf"
			},
			{
				"type": "unocc",
				"energy": -0.08646,
				"method": "rhf"
			},
			{
				"type": "unocc",
				"energy": -0.07173,
				"method": "rhf"
			},
			{
				"type": "unocc",
				"energy": 0.0044,
				"method": "rhf"
			},
			{
				"type": "unocc",
				"energy": 0.01862,
				"method": "rhf"
			},
			{
				"type": "unocc",
				"energy": 0.06904,
				"method": "rhf"
			}
		],
		"cosmo_sigma_profile": { 
			"-0.025": 0.0,
			"-0.024": 0.0,
			"-0.023": 0.0,
			"-0.022": 0.0,
			"-0.021": 0.0,
			"-0.02": 0.0,
			"-0.019": 0.0,
			"-0.018": 0.0,
			"-0.017": 0.0,
			"-0.016": 0.0,
			"-0.015": 0.0,
			"-0.014": 0.0,
			"-0.013": 0.0,
			"-0.012": 0.0,
			"-0.011": 0.0,
			"-0.01": 1.1194440973,
			"-0.009": 5.81081675932,
			"-0.008": 8.40667639,
			"-0.007": 8.6127515915,
			"-0.006": 6.71809343286,
			"-0.005": 8.77557482987,
			"-0.004": 10.2078353154,
			"-0.003": 15.5028900136,
			"-0.002": 17.342224504,
			"-0.001": 16.1567440429,
			"0.0": 11.497878535,
			"0.001": 6.68252795315,
			"0.002": 12.3843732604,
			"0.003": 7.31470065916,
			"0.004": 3.53522310824,
			"0.005": 4.0875691287,
			"0.006": 4.78687777728,
			"0.007": 4.73135425729,
			"0.008": 4.52179677094,
			"0.009": 5.76462471385,
			"0.01": 5.88672815814,
			"0.011": 6.4444862999,
			"0.012": 3.2176558388,
			"0.013": 0.392022970383,
			"0.014": 0.0,
			"0.015": 0.0,
			"0.016": 0.0,
			"0.017": 0.0,
			"0.018": 0.0,
			"0.019": 0.0,
			"0.02": 0.0,
			"0.021": 0.0,
			"0.022": 0.0,
			"0.023": 0.0,
			"0.024": 0.0,
			"0.025": 0.0
		}
	}
}
