{
	 "smiles": "CC1=C(COC2=CC=C(CC(O)=O)C=C2)C(C)=NO1", 
	 "Tm": 412.15, 
	 "num_atms": 34, 
	 "gaussian": { 
		 "optdone": 1, 
		 "sigma_profile": "yes", 
		 "theory": "DFT", 
		 "functional": "B3LYP", 
		 "basiset": "6-31G**", 
		 "properties": { 
			 "R2extent": 6528.0626, 
			 "electric_dipole_moment_norm": 3.51198045837, 
			 "electric_quadrupole_moment_norm": 22.4143264289, 
			 "total_energy": -898.144559224, 
			 "HOMO_LUMO_gap": 0.22408, 
			 "cosmo_polarized_energy": -18.2, 
			 "cosmo_cavitation_energy": 39.11, 
			 "cosmo_dispersion_energy": -25.63, 
			 "cosmo_repulsion_energy": 1.98, 
			 "cosmo_total_nonelectrostatic_energy": 15.46, 
			 "SMD_solvation_energy": 7.61 
		},
		"coords": [
			{
				"x": -2.7682644165,
				"y": 0.7941232232,
				"z": 0.8404871182,
				"element": "C" 
			},
			{
				"x": -2.0898216769,
				"y": 1.0320787039,
				"z": 2.1461094827,
				"element": "C" 
			},
			{
				"x": -0.8973126977,
				"y": 1.6014652345,
				"z": 2.5074656837,
				"element": "C" 
			},
			{
				"x": 0.1781538955,
				"y": 2.1655280291,
				"z": 1.6380072777,
				"element": "C" 
			},
			{
				"x": 1.2561100868,
				"y": 1.2297080791,
				"z": 1.3863656662,
				"element": "O" 
			},
			{
				"x": 0.8996711993,
				"y": 0.1591068396,
				"z": 0.5928503703,
				"element": "C" 
			},
			{
				"x": 0.7183787594,
				"y": 0.3225568143,
				"z": -0.7843171729,
				"element": "C" 
			},
			{
				"x": 0.3263236403,
				"y": -0.7638115563,
				"z": -1.5641512805,
				"element": "C" 
			},
			{
				"x": 0.1151196299,
				"y": -2.0231138045,
				"z": -0.9900915537,
				"element": "C" 
			},
			{
				"x": -0.4032623178,
				"y": -3.1706003206,
				"z": -1.8192445918,
				"element": "C" 
			},
			{
				"x": -1.9244164646,
				"y": -3.2470196106,
				"z": -1.8457749254,
				"element": "C" 
			},
			{
				"x": -2.3376843738,
				"y": -4.2972325388,
				"z": -2.5962818493,
				"element": "O" 
			},
			{
				"x": -2.6975227342,
				"y": -2.4984371727,
				"z": -1.2918006325,
				"element": "O" 
			},
			{
				"x": 0.3457671869,
				"y": -2.1804463454,
				"z": 0.3813839685,
				"element": "C" 
			},
			{
				"x": 0.731872522,
				"y": -1.1000471697,
				"z": 1.1729395453,
				"element": "C" 
			},
			{
				"x": -0.8688154886,
				"y": 1.4544744126,
				"z": 3.9335265569,
				"element": "C" 
			},
			{
				"x": 0.2091533995,
				"y": 1.8829899685,
				"z": 4.8801843374,
				"element": "C" 
			},
			{
				"x": -1.9516391496,
				"y": 0.866701144,
				"z": 4.3852435506,
				"element": "N" 
			},
			{
				"x": -2.7333468146,
				"y": 0.5985234677,
				"z": 3.2478308886,
				"element": "O" 
			},
			{
				"x": -3.8391166683,
				"y": 0.9999671043,
				"z": 0.9255980409,
				"element": "H" 
			},
			{
				"x": -2.647928034,
				"y": -0.2441041096,
				"z": 0.5104597023,
				"element": "H" 
			},
			{
				"x": -2.3456882476,
				"y": 1.4382590756,
				"z": 0.0663769322,
				"element": "H" 
			},
			{
				"x": -0.2371533907,
				"y": 2.5137673061,
				"z": 0.6841234204,
				"element": "H" 
			},
			{
				"x": 0.6677927912,
				"y": 3.0151482078,
				"z": 2.1209135971,
				"element": "H" 
			},
			{
				"x": 0.885265445,
				"y": 1.2969202559,
				"z": -1.2337430942,
				"element": "H" 
			},
			{
				"x": 0.1731720462,
				"y": -0.6274540401,
				"z": -2.6319161637,
				"element": "H" 
			},
			{
				"x": -0.0379540928,
				"y": -4.1358747047,
				"z": -1.4495675048,
				"element": "H" 
			},
			{
				"x": -0.0653107508,
				"y": -3.1045958911,
				"z": -2.8602021862,
				"element": "H" 
			},
			{
				"x": -3.3092056957,
				"y": -4.2857131391,
				"z": -2.5669422464,
				"element": "H" 
			},
			{
				"x": 0.1985535305,
				"y": -3.153589752,
				"z": 0.8430917176,
				"element": "H" 
			},
			{
				"x": 0.8905457046,
				"y": -1.2134040319,
				"z": 2.239916832,
				"element": "H" 
			},
			{
				"x": 0.338908592,
				"y": 2.9710260715,
				"z": 4.8627811084,
				"element": "H" 
			},
			{
				"x": 1.1678407149,
				"y": 1.4334913332,
				"z": 4.6022823956,
				"element": "H" 
			},
			{
				"x": -0.0443861298,
				"y": 1.5816089161,
				"z": 5.8983950085,
				"element": "H" 
			}
		],
		 "valence_orbital": [ 
			{
				"type": "occ",
				"energy": -0.27889,
				"method": "rhf"
			},
			{
				"type": "occ",
				"energy": -0.27467,
				"method": "rhf"
			},
			{
				"type": "occ",
				"energy": -0.25682,
				"method": "rhf"
			},
			{
				"type": "occ",
				"energy": -0.24373,
				"method": "rhf"
			},
			{
				"type": "occ",
				"energy": -0.23584,
				"method": "rhf"
			},
			{
				"type": "unocc",
				"energy": -0.01176,
				"method": "rhf"
			},
			{
				"type": "unocc",
				"energy": -0.00748,
				"method": "rhf"
			},
			{
				"type": "unocc",
				"energy": 0.00393,
				"method": "rhf"
			},
			{
				"type": "unocc",
				"energy": 0.00693,
				"method": "rhf"
			},
			{
				"type": "unocc",
				"energy": 0.04745,
				"method": "rhf"
			}
		],
		"cosmo_sigma_profile": { 
			"-0.025": 0.0,
			"-0.024": 0.0,
			"-0.023": 0.0,
			"-0.022": 0.0,
			"-0.021": 0.0,
			"-0.02": 0.0,
			"-0.019": 0.0404668517254,
			"-0.018": 1.06402846749,
			"-0.017": 0.300061627089,
			"-0.016": 1.10829525378,
			"-0.015": 0.989248096523,
			"-0.014": 0.66038340322,
			"-0.013": 0.392884888018,
			"-0.012": 0.690106994248,
			"-0.011": 0.610197241956,
			"-0.01": 0.90750981589,
			"-0.009": 0.38045316706,
			"-0.008": 0.721787232718,
			"-0.007": 8.31873962369,
			"-0.006": 24.5899950388,
			"-0.005": 24.3970604011,
			"-0.004": 25.6654705812,
			"-0.003": 24.6228319336,
			"-0.002": 22.7056578525,
			"-0.001": 24.5958993914,
			"0.0": 16.9278491885,
			"0.001": 17.6047614182,
			"0.002": 18.2431119952,
			"0.003": 14.9445649912,
			"0.004": 15.199474415,
			"0.005": 12.8698423231,
			"0.006": 7.27476506036,
			"0.007": 8.83862294392,
			"0.008": 10.4858714255,
			"0.009": 7.52864337393,
			"0.01": 5.29546692037,
			"0.011": 4.98419837853,
			"0.012": 3.56716112192,
			"0.013": 1.01625129397,
			"0.014": 1.35103657486,
			"0.015": 0.807671312342,
			"0.016": 0.0,
			"0.017": 0.0,
			"0.018": 0.0,
			"0.019": 0.0,
			"0.02": 0.0,
			"0.021": 0.0,
			"0.022": 0.0,
			"0.023": 0.0,
			"0.024": 0.0,
			"0.025": 0.0
		}
	}
}
