{
	 "smiles": "OC(=O)CCCOC1=C2C=CC=CC2=CC=C1", 
	 "Tm": 390.15, 
	 "num_atms": 31, 
	 "gaussian": { 
		 "optdone": 1, 
		 "sigma_profile": "yes", 
		 "theory": "DFT", 
		 "functional": "B3LYP", 
		 "basiset": "6-31G**", 
		 "properties": { 
			 "R2extent": 6314.0552, 
			 "electric_dipole_moment_norm": 2.71781996092, 
			 "electric_quadrupole_moment_norm": 14.3726186814, 
			 "total_energy": -767.624067828, 
			 "HOMO_LUMO_gap": 0.17079, 
			 "cosmo_polarized_energy": -13.11, 
			 "cosmo_cavitation_energy": 34.97, 
			 "cosmo_dispersion_energy": -25.31, 
			 "cosmo_repulsion_energy": 1.97, 
			 "cosmo_total_nonelectrostatic_energy": 11.62, 
			 "SMD_solvation_energy": 6.74 
		},
		"coords": [
			{
				"x": 0.2596115932,
				"y": 1.3672597897,
				"z": 5.8518079167,
				"element": "O" 
			},
			{
				"x": -0.2039242257,
				"y": 1.105252953,
				"z": 4.6064932084,
				"element": "C" 
			},
			{
				"x": -0.6001376948,
				"y": 0.0081752789,
				"z": 4.2768744941,
				"element": "O" 
			},
			{
				"x": -0.162528377,
				"y": 2.3416970602,
				"z": 3.7319537747,
				"element": "C" 
			},
			{
				"x": -0.6546658664,
				"y": 2.1086944236,
				"z": 2.3012521437,
				"element": "C" 
			},
			{
				"x": 0.28729785,
				"y": 1.2408359868,
				"z": 1.4741496073,
				"element": "C" 
			},
			{
				"x": -0.232094564,
				"y": 1.2075536357,
				"z": 0.1471525811,
				"element": "O" 
			},
			{
				"x": 0.4253268568,
				"y": 0.4763063325,
				"z": -0.7983462101,
				"element": "C" 
			},
			{
				"x": -0.1664786239,
				"y": 0.5041494348,
				"z": -2.1043772852,
				"element": "C" 
			},
			{
				"x": -1.3495580919,
				"y": 1.2373301298,
				"z": -2.3788916078,
				"element": "C" 
			},
			{
				"x": -1.8928984286,
				"y": 1.2434631805,
				"z": -3.6455991069,
				"element": "C" 
			},
			{
				"x": -1.2760130454,
				"y": 0.5168423881,
				"z": -4.6910104849,
				"element": "C" 
			},
			{
				"x": -0.1268804965,
				"y": -0.2030640272,
				"z": -4.4499687798,
				"element": "C" 
			},
			{
				"x": 0.4622303357,
				"y": -0.2334650301,
				"z": -3.1574834087,
				"element": "C" 
			},
			{
				"x": 1.6483690619,
				"y": -0.970849593,
				"z": -2.8862189947,
				"element": "C" 
			},
			{
				"x": 2.1840401035,
				"y": -0.973529682,
				"z": -1.6215793984,
				"element": "C" 
			},
			{
				"x": 1.5777588519,
				"y": -0.24937516,
				"z": -0.5650273447,
				"element": "C" 
			},
			{
				"x": 0.192668796,
				"y": 0.5336072604,
				"z": 6.3473578094,
				"element": "H" 
			},
			{
				"x": -0.7715522014,
				"y": 3.1065674255,
				"z": 4.2282508398,
				"element": "H" 
			},
			{
				"x": 0.8630506094,
				"y": 2.7321824226,
				"z": 3.7500630658,
				"element": "H" 
			},
			{
				"x": -0.7631300865,
				"y": 3.0765878377,
				"z": 1.8004309198,
				"element": "H" 
			},
			{
				"x": -1.6424896024,
				"y": 1.6382328358,
				"z": 2.3209860856,
				"element": "H" 
			},
			{
				"x": 1.302014792,
				"y": 1.6676774816,
				"z": 1.4656645999,
				"element": "H" 
			},
			{
				"x": 0.3399326224,
				"y": 0.227466651,
				"z": 1.888044846,
				"element": "H" 
			},
			{
				"x": -1.817256341,
				"y": 1.7908115461,
				"z": -1.5728764648,
				"element": "H" 
			},
			{
				"x": -2.7994940587,
				"y": 1.8079136806,
				"z": -3.8442393887,
				"element": "H" 
			},
			{
				"x": -1.7125476212,
				"y": 0.5282156473,
				"z": -5.6858098653,
				"element": "H" 
			},
			{
				"x": 0.34961123,
				"y": -0.7630289466,
				"z": -5.2506898634,
				"element": "H" 
			},
			{
				"x": 2.1190208921,
				"y": -1.5283739651,
				"z": -3.6910243426,
				"element": "H" 
			},
			{
				"x": 3.0889954555,
				"y": -1.5375470789,
				"z": -1.4138729787,
				"element": "H" 
			},
			{
				"x": 2.0276202751,
				"y": -0.2774898994,
				"z": 0.4197336321,
				"element": "H" 
			}
		],
		 "valence_orbital": [ 
			{
				"type": "occ",
				"energy": -0.30765,
				"method": "rhf"
			},
			{
				"type": "occ",
				"energy": -0.28366,
				"method": "rhf"
			},
			{
				"type": "occ",
				"energy": -0.25464,
				"method": "rhf"
			},
			{
				"type": "occ",
				"energy": -0.23602,
				"method": "rhf"
			},
			{
				"type": "occ",
				"energy": -0.1957,
				"method": "rhf"
			},
			{
				"type": "unocc",
				"energy": -0.02491,
				"method": "rhf"
			},
			{
				"type": "unocc",
				"energy": -0.00153,
				"method": "rhf"
			},
			{
				"type": "unocc",
				"energy": 0.00042,
				"method": "rhf"
			},
			{
				"type": "unocc",
				"energy": 0.04828,
				"method": "rhf"
			},
			{
				"type": "unocc",
				"energy": 0.0714,
				"method": "rhf"
			}
		],
		"cosmo_sigma_profile": { 
			"-0.025": 0.0,
			"-0.024": 0.0,
			"-0.023": 0.0,
			"-0.022": 0.0,
			"-0.021": 0.0,
			"-0.02": 0.0,
			"-0.019": 0.0,
			"-0.018": 0.81782543989,
			"-0.017": 0.926299352774,
			"-0.016": 0.716016361564,
			"-0.015": 0.86393749036,
			"-0.014": 0.685933190318,
			"-0.013": 0.239287682094,
			"-0.012": 0.675101113449,
			"-0.011": 1.21166789287,
			"-0.01": 0.752064507353,
			"-0.009": 0.536982262814,
			"-0.008": 0.3086543715,
			"-0.007": 2.45340673132,
			"-0.006": 15.4683523116,
			"-0.005": 24.4086933028,
			"-0.004": 27.3700158084,
			"-0.003": 25.5360977436,
			"-0.002": 18.5287971727,
			"-0.001": 16.3518801116,
			"0.0": 13.3707884711,
			"0.001": 12.4302119621,
			"0.002": 13.7649539168,
			"0.003": 18.5196608462,
			"0.004": 25.2447837313,
			"0.005": 25.2674530046,
			"0.006": 11.7292357848,
			"0.007": 3.61240909289,
			"0.008": 3.19185062401,
			"0.009": 3.11323523605,
			"0.01": 2.63576392247,
			"0.011": 3.31506593377,
			"0.012": 3.29662274789,
			"0.013": 0.070471853977,
			"0.014": 0.0,
			"0.015": 0.0,
			"0.016": 0.0,
			"0.017": 0.0,
			"0.018": 0.0,
			"0.019": 0.0,
			"0.02": 0.0,
			"0.021": 0.0,
			"0.022": 0.0,
			"0.023": 0.0,
			"0.024": 0.0,
			"0.025": 0.0
		}
	}
}
