{
	 "smiles": "CCOC(=O)C1=C(N)SC=C1C1=CC=C(C)C=C1", 
	 "Tm": 379.15, 
	 "num_atms": 33, 
	 "gaussian": { 
		 "optdone": 1, 
		 "sigma_profile": "yes", 
		 "theory": "DFT", 
		 "functional": "B3LYP", 
		 "basiset": "6-31G**", 
		 "properties": { 
			 "R2extent": 6911.9811, 
			 "electric_dipole_moment_norm": 2.96682617455, 
			 "electric_quadrupole_moment_norm": 21.6309618429, 
			 "total_energy": -1145.93384951, 
			 "HOMO_LUMO_gap": 0.17716, 
			 "cosmo_polarized_energy": -13.93, 
			 "cosmo_cavitation_energy": 38.1, 
			 "cosmo_dispersion_energy": -27.61, 
			 "cosmo_repulsion_energy": 2.12, 
			 "cosmo_total_nonelectrostatic_energy": 12.62, 
			 "SMD_solvation_energy": 6.94 
		},
		"coords": [
			{
				"x": 0.3695848208,
				"y": -3.549090916,
				"z": -5.1874080829,
				"element": "C" 
			},
			{
				"x": 0.6168722781,
				"y": -2.4101215368,
				"z": -4.215414129,
				"element": "C" 
			},
			{
				"x": -0.0754445573,
				"y": -2.7236054202,
				"z": -2.987209604,
				"element": "O" 
			},
			{
				"x": 0.0376802607,
				"y": -1.7802972331,
				"z": -1.9901412741,
				"element": "C" 
			},
			{
				"x": 0.679270749,
				"y": -0.7625100796,
				"z": -2.1652784257,
				"element": "O" 
			},
			{
				"x": -0.670925285,
				"y": -2.1632995638,
				"z": -0.7634799074,
				"element": "C" 
			},
			{
				"x": -1.2836340738,
				"y": -3.401904895,
				"z": -0.5628081678,
				"element": "C" 
			},
			{
				"x": -1.4968000291,
				"y": -4.4222551746,
				"z": -1.4484596571,
				"element": "N" 
			},
			{
				"x": -1.8831016737,
				"y": -3.5672635042,
				"z": 1.071449256,
				"element": "S" 
			},
			{
				"x": -1.3020872514,
				"y": -1.972826418,
				"z": 1.4878896237,
				"element": "C" 
			},
			{
				"x": -0.7005028159,
				"y": -1.3382258353,
				"z": 0.4420801385,
				"element": "C" 
			},
			{
				"x": -0.1893496536,
				"y": 0.0464806576,
				"z": 0.6100168065,
				"element": "C" 
			},
			{
				"x": -0.567247717,
				"y": 1.0898499448,
				"z": -0.2507694157,
				"element": "C" 
			},
			{
				"x": -0.1510999332,
				"y": 2.3946340007,
				"z": -0.0120923907,
				"element": "C" 
			},
			{
				"x": 0.6618460117,
				"y": 2.7128609843,
				"z": 1.086877022,
				"element": "C" 
			},
			{
				"x": 1.132375491,
				"y": 4.1296235574,
				"z": 1.3170046786,
				"element": "C" 
			},
			{
				"x": 1.0374101099,
				"y": 1.6731926021,
				"z": 1.9429677365,
				"element": "C" 
			},
			{
				"x": 0.6197829579,
				"y": 0.361967155,
				"z": 1.7102606516,
				"element": "C" 
			},
			{
				"x": 0.8721925951,
				"y": -3.341829996,
				"z": -6.137236291,
				"element": "H" 
			},
			{
				"x": -0.6994148507,
				"y": -3.6709519364,
				"z": -5.3868405914,
				"element": "H" 
			},
			{
				"x": 0.7609666181,
				"y": -4.493965213,
				"z": -4.7970144761,
				"element": "H" 
			},
			{
				"x": 0.2408704516,
				"y": -1.4568326824,
				"z": -4.5987207848,
				"element": "H" 
			},
			{
				"x": 1.6816792936,
				"y": -2.2780589261,
				"z": -4.0002820788,
				"element": "H" 
			},
			{
				"x": -1.6109344597,
				"y": -5.3519444647,
				"z": -1.0740189853,
				"element": "H" 
			},
			{
				"x": -0.9849869511,
				"y": -4.3411870177,
				"z": -2.3167057154,
				"element": "H" 
			},
			{
				"x": -1.4907136949,
				"y": -1.5790045733,
				"z": 2.4756430085,
				"element": "H" 
			},
			{
				"x": -1.1937429876,
				"y": 0.8746435381,
				"z": -1.1092323414,
				"element": "H" 
			},
			{
				"x": -0.4632910539,
				"y": 3.1847595836,
				"z": -0.6912180423,
				"element": "H" 
			},
			{
				"x": 1.5199102582,
				"y": 4.2632053886,
				"z": 2.3312234487,
				"element": "H" 
			},
			{
				"x": 0.321546389,
				"y": 4.8507220966,
				"z": 1.1675345299,
				"element": "H" 
			},
			{
				"x": 1.9353057427,
				"y": 4.4005074494,
				"z": 0.6199322966,
				"element": "H" 
			},
			{
				"x": 1.6692070545,
				"y": 1.8877679097,
				"z": 2.8017150351,
				"element": "H" 
			},
			{
				"x": 0.9344759061,
				"y": -0.4318394818,
				"z": 2.3816361288,
				"element": "H" 
			}
		],
		 "valence_orbital": [ 
			{
				"type": "occ",
				"energy": -0.26709,
				"method": "rhf"
			},
			{
				"type": "occ",
				"energy": -0.25467,
				"method": "rhf"
			},
			{
				"type": "occ",
				"energy": -0.23412,
				"method": "rhf"
			},
			{
				"type": "occ",
				"energy": -0.22191,
				"method": "rhf"
			},
			{
				"type": "occ",
				"energy": -0.19549,
				"method": "rhf"
			},
			{
				"type": "unocc",
				"energy": -0.01833,
				"method": "rhf"
			},
			{
				"type": "unocc",
				"energy": -0.00793,
				"method": "rhf"
			},
			{
				"type": "unocc",
				"energy": 0.01264,
				"method": "rhf"
			},
			{
				"type": "unocc",
				"energy": 0.01544,
				"method": "rhf"
			},
			{
				"type": "unocc",
				"energy": 0.03962,
				"method": "rhf"
			}
		],
		"cosmo_sigma_profile": { 
			"-0.025": 0.0,
			"-0.024": 0.0,
			"-0.023": 0.0,
			"-0.022": 0.0,
			"-0.021": 0.0,
			"-0.02": 0.0,
			"-0.019": 0.0,
			"-0.018": 0.0,
			"-0.017": 0.0,
			"-0.016": 0.0,
			"-0.015": 0.427338897436,
			"-0.014": 1.36094996522,
			"-0.013": 1.66620505355,
			"-0.012": 0.984535895481,
			"-0.011": 1.22238874484,
			"-0.01": 1.90434662601,
			"-0.009": 2.09001381511,
			"-0.008": 2.6397667569,
			"-0.007": 3.85801173065,
			"-0.006": 3.38956767209,
			"-0.005": 12.9882578731,
			"-0.004": 29.3915093818,
			"-0.003": 32.2120015128,
			"-0.002": 28.4345473179,
			"-0.001": 27.0907409483,
			"0.0": 30.4388286845,
			"0.001": 20.9411897165,
			"0.002": 18.2537115391,
			"0.003": 21.5262886196,
			"0.004": 19.7398393627,
			"0.005": 12.6203628155,
			"0.006": 8.60721970417,
			"0.007": 5.19187498033,
			"0.008": 3.08353869696,
			"0.009": 2.63237488071,
			"0.01": 2.17444830627,
			"0.011": 2.31321090713,
			"0.012": 2.71931357261,
			"0.013": 4.19946219705,
			"0.014": 0.338085030734,
			"0.015": 0.0,
			"0.016": 0.0,
			"0.017": 0.0,
			"0.018": 0.0,
			"0.019": 0.0,
			"0.02": 0.0,
			"0.021": 0.0,
			"0.022": 0.0,
			"0.023": 0.0,
			"0.024": 0.0,
			"0.025": 0.0
		}
	}
}
