{
	 "smiles": "O=S1(=O)CCC2=CC=CC=C2CC1", 
	 "Tm": 427.15, 
	 "num_atms": 25, 
	 "gaussian": { 
		 "optdone": 1, 
		 "sigma_profile": "yes", 
		 "theory": "DFT", 
		 "functional": "B3LYP", 
		 "basiset": "6-31G**", 
		 "properties": { 
			 "R2extent": 3510.0545, 
			 "electric_dipole_moment_norm": 5.12154186354, 
			 "electric_quadrupole_moment_norm": 22.3480050481, 
			 "total_energy": -936.87567559, 
			 "HOMO_LUMO_gap": 0.23579, 
			 "cosmo_polarized_energy": -16.96, 
			 "cosmo_cavitation_energy": 27.97, 
			 "cosmo_dispersion_energy": -21.25, 
			 "cosmo_repulsion_energy": 1.59, 
			 "cosmo_total_nonelectrostatic_energy": 8.32, 
			 "SMD_solvation_energy": 3.24 
		},
		"coords": [
			{
				"x": 0.4075587957,
				"y": -2.6690849772,
				"z": 3.4838248335,
				"element": "O" 
			},
			{
				"x": -0.58944368,
				"y": -1.690878907,
				"z": 3.0155620755,
				"element": "S" 
			},
			{
				"x": -1.6544138959,
				"y": -1.2139610224,
				"z": 3.9147549774,
				"element": "O" 
			},
			{
				"x": -1.3831068695,
				"y": -2.3628659696,
				"z": 1.5229100442,
				"element": "C" 
			},
			{
				"x": -0.4448094754,
				"y": -2.3853322509,
				"z": 0.3103008388,
				"element": "C" 
			},
			{
				"x": -0.4172434988,
				"y": -1.1322072645,
				"z": -0.557831675,
				"element": "C" 
			},
			{
				"x": -0.3524064124,
				"y": -1.3358899959,
				"z": -1.9456242964,
				"element": "C" 
			},
			{
				"x": -0.3041023448,
				"y": -0.2795724471,
				"z": -2.8511076111,
				"element": "C" 
			},
			{
				"x": -0.3248631002,
				"y": 1.0284931285,
				"z": -2.3720426136,
				"element": "C" 
			},
			{
				"x": -0.3866375523,
				"y": 1.2485376662,
				"z": -0.9987956609,
				"element": "C" 
			},
			{
				"x": -0.4337217317,
				"y": 0.1952166834,
				"z": -0.0714564424,
				"element": "C" 
			},
			{
				"x": -0.5193229109,
				"y": 0.5903446606,
				"z": 1.3987239576,
				"element": "C" 
			},
			{
				"x": 0.3100350855,
				"y": -0.2406105968,
				"z": 2.3851939739,
				"element": "C" 
			},
			{
				"x": -1.6665976055,
				"y": -3.3735802047,
				"z": 1.8295969017,
				"element": "H" 
			},
			{
				"x": -2.2929969971,
				"y": -1.7861909418,
				"z": 1.3436046353,
				"element": "H" 
			},
			{
				"x": 0.5659613499,
				"y": -2.6488477913,
				"z": 0.6508233414,
				"element": "H" 
			},
			{
				"x": -0.7532159678,
				"y": -3.2203628763,
				"z": -0.3261971217,
				"element": "H" 
			},
			{
				"x": -0.3419688829,
				"y": -2.3562789724,
				"z": -2.3211303973,
				"element": "H" 
			},
			{
				"x": -0.2551973888,
				"y": -0.4788260202,
				"z": -3.9175100436,
				"element": "H" 
			},
			{
				"x": -0.2891644729,
				"y": 1.8704840606,
				"z": -3.0569417916,
				"element": "H" 
			},
			{
				"x": -0.3969176281,
				"y": 2.2699330938,
				"z": -0.6260195576,
				"element": "H" 
			},
			{
				"x": -0.1818045845,
				"y": 1.6280488804,
				"z": 1.4811185778,
				"element": "H" 
			},
			{
				"x": -1.5634078004,
				"y": 0.6056035114,
				"z": 1.7404510054,
				"element": "H" 
			},
			{
				"x": 1.2494074163,
				"y": -0.5947553276,
				"z": 1.9552880938,
				"element": "H" 
			},
			{
				"x": 0.534580152,
				"y": 0.3232838809,
				"z": 3.294903955,
				"element": "H" 
			}
		],
		 "valence_orbital": [ 
			{
				"type": "occ",
				"energy": -0.305,
				"method": "rhf"
			},
			{
				"type": "occ",
				"energy": -0.29061,
				"method": "rhf"
			},
			{
				"type": "occ",
				"energy": -0.27749,
				"method": "rhf"
			},
			{
				"type": "occ",
				"energy": -0.2583,
				"method": "rhf"
			},
			{
				"type": "occ",
				"energy": -0.25312,
				"method": "rhf"
			},
			{
				"type": "unocc",
				"energy": -0.01733,
				"method": "rhf"
			},
			{
				"type": "unocc",
				"energy": -0.0142,
				"method": "rhf"
			},
			{
				"type": "unocc",
				"energy": 0.05823,
				"method": "rhf"
			},
			{
				"type": "unocc",
				"energy": 0.06856,
				"method": "rhf"
			},
			{
				"type": "unocc",
				"energy": 0.08416,
				"method": "rhf"
			}
		],
		"cosmo_sigma_profile": { 
			"-0.025": 0.0,
			"-0.024": 0.0,
			"-0.023": 0.0,
			"-0.022": 0.0,
			"-0.021": 0.0,
			"-0.02": 0.0,
			"-0.019": 0.0,
			"-0.018": 0.0,
			"-0.017": 0.0,
			"-0.016": 0.0,
			"-0.015": 0.0,
			"-0.014": 0.0,
			"-0.013": 0.0,
			"-0.012": 0.0,
			"-0.011": 0.0,
			"-0.01": 0.382976411299,
			"-0.009": 1.01918452843,
			"-0.008": 5.4446424458,
			"-0.007": 9.18890933427,
			"-0.006": 18.6791560421,
			"-0.005": 24.9408502994,
			"-0.004": 23.823315006,
			"-0.003": 19.5514748204,
			"-0.002": 13.9660772204,
			"-0.001": 10.2844354541,
			"0.0": 7.7554530781,
			"0.001": 8.65334136066,
			"0.002": 7.54996564271,
			"0.003": 8.93842050662,
			"0.004": 8.03935326616,
			"0.005": 8.9225158255,
			"0.006": 8.87276123269,
			"0.007": 2.59905544851,
			"0.008": 1.98900944431,
			"0.009": 3.05020933049,
			"0.01": 3.00094070588,
			"0.011": 7.17142836436,
			"0.012": 11.582102582,
			"0.013": 5.2269735769,
			"0.014": 0.0,
			"0.015": 0.0,
			"0.016": 0.0,
			"0.017": 0.0,
			"0.018": 0.0,
			"0.019": 0.0,
			"0.02": 0.0,
			"0.021": 0.0,
			"0.022": 0.0,
			"0.023": 0.0,
			"0.024": 0.0,
			"0.025": 0.0
		}
	}
}
