{
	 "smiles": "CC1=NC2=C(C(N)=NS2)C(C)=C1", 
	 "Tm": 454.15, 
	 "num_atms": 21, 
	 "gaussian": { 
		 "optdone": 1, 
		 "sigma_profile": "yes", 
		 "theory": "DFT", 
		 "functional": "B3LYP", 
		 "basiset": "6-31G**", 
		 "properties": { 
			 "R2extent": 2661.6272, 
			 "electric_dipole_moment_norm": 4.68756737125, 
			 "electric_quadrupole_moment_norm": 12.1760401798, 
			 "total_energy": -872.729355847, 
			 "HOMO_LUMO_gap": 0.16883, 
			 "cosmo_polarized_energy": -12.93, 
			 "cosmo_cavitation_energy": 25.91, 
			 "cosmo_dispersion_energy": -20.02, 
			 "cosmo_repulsion_energy": 1.54, 
			 "cosmo_total_nonelectrostatic_energy": 7.42, 
			 "SMD_solvation_energy": 1.21 
		},
		"coords": [
			{
				"x": 0.3346265196,
				"y": -2.4067076992,
				"z": 2.4892781168,
				"element": "C" 
			},
			{
				"x": -0.1255875165,
				"y": -1.4104746167,
				"z": 1.4551748731,
				"element": "C" 
			},
			{
				"x": -1.2599986431,
				"y": -1.6891674565,
				"z": 0.8057440996,
				"element": "N" 
			},
			{
				"x": -1.6539415634,
				"y": -0.7859056403,
				"z": -0.0942733682,
				"element": "C" 
			},
			{
				"x": -0.9949979043,
				"y": 0.4213862116,
				"z": -0.4136078149,
				"element": "C" 
			},
			{
				"x": -1.7407963767,
				"y": 1.12043594,
				"z": -1.4469736154,
				"element": "C" 
			},
			{
				"x": -1.3230554086,
				"y": 2.3116869625,
				"z": -2.0367716477,
				"element": "N" 
			},
			{
				"x": -2.83336868,
				"y": 0.539663256,
				"z": -1.8777249631,
				"element": "N" 
			},
			{
				"x": -3.0821990653,
				"y": -0.9478642348,
				"z": -1.0944137833,
				"element": "S" 
			},
			{
				"x": 0.2122892563,
				"y": 0.7026788373,
				"z": 0.2660166286,
				"element": "C" 
			},
			{
				"x": 1.029339002,
				"y": 1.9439846139,
				"z": 0.0079838629,
				"element": "C" 
			},
			{
				"x": 0.624437589,
				"y": -0.2399336178,
				"z": 1.2018522432,
				"element": "C" 
			},
			{
				"x": 1.3770674837,
				"y": -2.6995588085,
				"z": 2.3233207144,
				"element": "H" 
			},
			{
				"x": -0.2966970876,
				"y": -3.2955004318,
				"z": 2.4510151973,
				"element": "H" 
			},
			{
				"x": 0.2747563777,
				"y": -1.9801601537,
				"z": 3.497733063,
				"element": "H" 
			},
			{
				"x": -2.0326764536,
				"y": 2.6807072585,
				"z": -2.6596318718,
				"element": "H" 
			},
			{
				"x": -0.9914548911,
				"y": 3.0139149562,
				"z": -1.388777367,
				"element": "H" 
			},
			{
				"x": 1.1831453226,
				"y": 2.1031569201,
				"z": -1.0632227586,
				"element": "H" 
			},
			{
				"x": 0.5309263757,
				"y": 2.8369463569,
				"z": 0.4073716231,
				"element": "H" 
			},
			{
				"x": 2.0056374003,
				"y": 1.8744630962,
				"z": 0.4936952887,
				"element": "H" 
			},
			{
				"x": 1.5479482634,
				"y": -0.07915175,
				"z": 1.7511114794,
				"element": "H" 
			}
		],
		 "valence_orbital": [ 
			{
				"type": "occ",
				"energy": -0.28963,
				"method": "rhf"
			},
			{
				"type": "occ",
				"energy": -0.28346,
				"method": "rhf"
			},
			{
				"type": "occ",
				"energy": -0.2602,
				"method": "rhf"
			},
			{
				"type": "occ",
				"energy": -0.25041,
				"method": "rhf"
			},
			{
				"type": "occ",
				"energy": -0.21176,
				"method": "rhf"
			},
			{
				"type": "unocc",
				"energy": -0.04293,
				"method": "rhf"
			},
			{
				"type": "unocc",
				"energy": -0.01486,
				"method": "rhf"
			},
			{
				"type": "unocc",
				"energy": 0.01808,
				"method": "rhf"
			},
			{
				"type": "unocc",
				"energy": 0.04663,
				"method": "rhf"
			},
			{
				"type": "unocc",
				"energy": 0.07056,
				"method": "rhf"
			}
		],
		"cosmo_sigma_profile": { 
			"-0.025": 0.0,
			"-0.024": 0.0,
			"-0.023": 0.0,
			"-0.022": 0.0,
			"-0.021": 0.0,
			"-0.02": 0.0,
			"-0.019": 0.0,
			"-0.018": 0.0,
			"-0.017": 0.0,
			"-0.016": 0.0,
			"-0.015": 0.0,
			"-0.014": 0.0,
			"-0.013": 0.848983633594,
			"-0.012": 2.77537116169,
			"-0.011": 3.19042934436,
			"-0.01": 3.11533791113,
			"-0.009": 2.46669370758,
			"-0.008": 2.2530804919,
			"-0.007": 2.97202899929,
			"-0.006": 6.68243493013,
			"-0.005": 10.9650352488,
			"-0.004": 13.5643804552,
			"-0.003": 14.483110754,
			"-0.002": 15.6901213737,
			"-0.001": 19.8542201117,
			"0.0": 18.5040758418,
			"0.001": 21.3892525948,
			"0.002": 14.9328775032,
			"0.003": 10.3710793126,
			"0.004": 9.24146206207,
			"0.005": 8.8930477388,
			"0.006": 4.39209570957,
			"0.007": 3.48913401662,
			"0.008": 3.87538499063,
			"0.009": 2.25982326973,
			"0.01": 2.9577045693,
			"0.011": 1.91365334605,
			"0.012": 2.70223625638,
			"0.013": 2.47495649411,
			"0.014": 1.01470193077,
			"0.015": 1.12510170256,
			"0.016": 0.0115406609485,
			"0.017": 0.0,
			"0.018": 0.0,
			"0.019": 0.0,
			"0.02": 0.0,
			"0.021": 0.0,
			"0.022": 0.0,
			"0.023": 0.0,
			"0.024": 0.0,
			"0.025": 0.0
		}
	}
}
