{
	 "smiles": "O=C(CC#N)C1=CC=CC=C1", 
	 "Tm": 354.95, 
	 "num_atms": 18, 
	 "gaussian": { 
		 "optdone": 1, 
		 "sigma_profile": "yes", 
		 "theory": "DFT", 
		 "functional": "B3LYP", 
		 "basiset": "6-31G**", 
		 "properties": { 
			 "R2extent": 2518.7251, 
			 "electric_dipole_moment_norm": 3.84821854369, 
			 "electric_quadrupole_moment_norm": 11.5527566109, 
			 "total_energy": -477.128410417, 
			 "HOMO_LUMO_gap": 0.19464, 
			 "cosmo_polarized_energy": -12.27, 
			 "cosmo_cavitation_energy": 23.51, 
			 "cosmo_dispersion_energy": -16.48, 
			 "cosmo_repulsion_energy": 1.33, 
			 "cosmo_total_nonelectrostatic_energy": 8.36, 
			 "SMD_solvation_energy": 5.96 
		},
		"coords": [
			{
				"x": 1.2031310295,
				"y": -3.5991670211,
				"z": -0.5064026633,
				"element": "O" 
			},
			{
				"x": 1.1108844709,
				"y": -2.3914779306,
				"z": -0.6278151081,
				"element": "C" 
			},
			{
				"x": 0.6486783054,
				"y": -1.8279935007,
				"z": -1.9978357218,
				"element": "C" 
			},
			{
				"x": -0.610775262,
				"y": -1.0872096822,
				"z": -1.9436887913,
				"element": "C" 
			},
			{
				"x": -1.6120246721,
				"y": -0.5019330675,
				"z": -1.8920184367,
				"element": "N" 
			},
			{
				"x": 1.4659365037,
				"y": -1.4505542606,
				"z": 0.4706593532,
				"element": "C" 
			},
			{
				"x": 1.4141574381,
				"y": -0.0544418372,
				"z": 0.3307201474,
				"element": "C" 
			},
			{
				"x": 1.7752004291,
				"y": 0.7700307609,
				"z": 1.3955029814,
				"element": "C" 
			},
			{
				"x": 2.189669572,
				"y": 0.2092907461,
				"z": 2.6049694127,
				"element": "C" 
			},
			{
				"x": 2.2434515211,
				"y": -1.1806747903,
				"z": 2.7524998126,
				"element": "C" 
			},
			{
				"x": 1.8846617467,
				"y": -2.005565361,
				"z": 1.6924662767,
				"element": "C" 
			},
			{
				"x": 0.5366149736,
				"y": -2.688669364,
				"z": -2.661981279,
				"element": "H" 
			},
			{
				"x": 1.4269947953,
				"y": -1.1756355857,
				"z": -2.4122985012,
				"element": "H" 
			},
			{
				"x": 1.0829238901,
				"y": 0.399001957,
				"z": -0.5973043937,
				"element": "H" 
			},
			{
				"x": 1.7295331529,
				"y": 1.8486675978,
				"z": 1.2814972353,
				"element": "H" 
			},
			{
				"x": 2.4690936359,
				"y": 0.8541734602,
				"z": 3.4331615848,
				"element": "H" 
			},
			{
				"x": 2.5648379967,
				"y": -1.616032498,
				"z": 3.693912165,
				"element": "H" 
			},
			{
				"x": 1.9193304731,
				"y": -3.086009623,
				"z": 1.781555926,
				"element": "H" 
			}
		],
		 "valence_orbital": [ 
			{
				"type": "occ",
				"energy": -0.34206,
				"method": "rhf"
			},
			{
				"type": "occ",
				"energy": -0.33202,
				"method": "rhf"
			},
			{
				"type": "occ",
				"energy": -0.2741,
				"method": "rhf"
			},
			{
				"type": "occ",
				"energy": -0.27148,
				"method": "rhf"
			},
			{
				"type": "occ",
				"energy": -0.27052,
				"method": "rhf"
			},
			{
				"type": "unocc",
				"energy": -0.07588,
				"method": "rhf"
			},
			{
				"type": "unocc",
				"energy": -0.02147,
				"method": "rhf"
			},
			{
				"type": "unocc",
				"energy": 0.01492,
				"method": "rhf"
			},
			{
				"type": "unocc",
				"energy": 0.02855,
				"method": "rhf"
			},
			{
				"type": "unocc",
				"energy": 0.03936,
				"method": "rhf"
			}
		],
		"cosmo_sigma_profile": { 
			"-0.025": 0.0,
			"-0.024": 0.0,
			"-0.023": 0.0,
			"-0.022": 0.0,
			"-0.021": 0.0,
			"-0.02": 0.0,
			"-0.019": 0.0,
			"-0.018": 0.0,
			"-0.017": 0.0,
			"-0.016": 0.0,
			"-0.015": 0.0,
			"-0.014": 0.0,
			"-0.013": 0.0,
			"-0.012": 0.0,
			"-0.011": 1.11239907367,
			"-0.01": 4.09543572358,
			"-0.009": 5.08140223038,
			"-0.008": 4.85461109161,
			"-0.007": 8.0130034652,
			"-0.006": 14.167629298,
			"-0.005": 14.1576517651,
			"-0.004": 11.9339791125,
			"-0.003": 9.76650260822,
			"-0.002": 9.08844714607,
			"-0.001": 9.13383814209,
			"0.0": 10.3258693616,
			"0.001": 12.1478748386,
			"0.002": 13.6310499046,
			"0.003": 16.8877447479,
			"0.004": 7.41924096545,
			"0.005": 3.4879752072,
			"0.006": 4.5819614214,
			"0.007": 3.50341077091,
			"0.008": 4.96746318862,
			"0.009": 4.85604956411,
			"0.01": 6.85976626364,
			"0.011": 5.62916335178,
			"0.012": 2.80116056214,
			"0.013": 1.2055135987,
			"0.014": 0.0,
			"0.015": 0.0,
			"0.016": 0.0,
			"0.017": 0.0,
			"0.018": 0.0,
			"0.019": 0.0,
			"0.02": 0.0,
			"0.021": 0.0,
			"0.022": 0.0,
			"0.023": 0.0,
			"0.024": 0.0,
			"0.025": 0.0
		}
	}
}
