{
	 "smiles": "ClC1=CC=CC(Cl)=C1C1=NN=NN1", 
	 "Tm": 476.15, 
	 "num_atms": 17, 
	 "gaussian": { 
		 "optdone": 1, 
		 "sigma_profile": "yes", 
		 "theory": "DFT", 
		 "functional": "B3LYP", 
		 "basiset": "6-31G**", 
		 "properties": { 
			 "R2extent": 2834.3418, 
			 "electric_dipole_moment_norm": 6.85636274201, 
			 "electric_quadrupole_moment_norm": 4.53666315038, 
			 "total_energy": -1408.48140522, 
			 "HOMO_LUMO_gap": 0.21346, 
			 "cosmo_polarized_energy": -18.01, 
			 "cosmo_cavitation_energy": 26.09, 
			 "cosmo_dispersion_energy": -18.91, 
			 "cosmo_repulsion_energy": 1.49, 
			 "cosmo_total_nonelectrostatic_energy": 8.67, 
			 "SMD_solvation_energy": 1.91 
		},
		"coords": [
			{
				"x": 0.0504671071,
				"y": -0.4068070912,
				"z": 2.7750700601,
				"element": "Cl" 
			},
			{
				"x": -0.2388743014,
				"y": -1.3591695626,
				"z": 1.330717366,
				"element": "C" 
			},
			{
				"x": -0.6314059697,
				"y": -2.6868303193,
				"z": 1.4840756751,
				"element": "C" 
			},
			{
				"x": -0.8730769226,
				"y": -3.4590950178,
				"z": 0.3498221826,
				"element": "C" 
			},
			{
				"x": -0.7187309445,
				"y": -2.9167664608,
				"z": -0.9239760822,
				"element": "C" 
			},
			{
				"x": -0.3234919473,
				"y": -1.5869322795,
				"z": -1.0594615862,
				"element": "C" 
			},
			{
				"x": -0.1064765831,
				"y": -0.9469041296,
				"z": -2.6718720305,
				"element": "Cl" 
			},
			{
				"x": -0.0785074884,
				"y": -0.7719549273,
				"z": 0.0620479919,
				"element": "C" 
			},
			{
				"x": 0.30351912,
				"y": 0.645195471,
				"z": -0.0890768177,
				"element": "C" 
			},
			{
				"x": -0.4657598272,
				"y": 1.6393078866,
				"z": -0.4948794807,
				"element": "N" 
			},
			{
				"x": 0.3153068925,
				"y": 2.7528700585,
				"z": -0.4746879716,
				"element": "N" 
			},
			{
				"x": 1.5155663826,
				"y": 2.4799013819,
				"z": -0.0782858274,
				"element": "N" 
			},
			{
				"x": 1.5299670394,
				"y": 1.1538718358,
				"z": 0.1676592646,
				"element": "N" 
			},
			{
				"x": -0.7491125335,
				"y": -3.0996970551,
				"z": 2.4789994295,
				"element": "H" 
			},
			{
				"x": -1.1826314413,
				"y": -4.493593559,
				"z": 0.4599425874,
				"element": "H" 
			},
			{
				"x": -0.8988645432,
				"y": -3.5128154977,
				"z": -1.8108456758,
				"element": "H" 
			},
			{
				"x": 2.3661059606,
				"y": 0.7022192662,
				"z": 0.5099509151,
				"element": "H" 
			}
		],
		 "valence_orbital": [ 
			{
				"type": "occ",
				"energy": -0.31323,
				"method": "rhf"
			},
			{
				"type": "occ",
				"energy": -0.30101,
				"method": "rhf"
			},
			{
				"type": "occ",
				"energy": -0.29138,
				"method": "rhf"
			},
			{
				"type": "occ",
				"energy": -0.27559,
				"method": "rhf"
			},
			{
				"type": "occ",
				"energy": -0.27,
				"method": "rhf"
			},
			{
				"type": "unocc",
				"energy": -0.05654,
				"method": "rhf"
			},
			{
				"type": "unocc",
				"energy": -0.04424,
				"method": "rhf"
			},
			{
				"type": "unocc",
				"energy": -0.0184,
				"method": "rhf"
			},
			{
				"type": "unocc",
				"energy": -0.01018,
				"method": "rhf"
			},
			{
				"type": "unocc",
				"energy": 0.01629,
				"method": "rhf"
			}
		],
		"cosmo_sigma_profile": { 
			"-0.025": 0.0,
			"-0.024": 0.0,
			"-0.023": 0.0,
			"-0.022": 0.0,
			"-0.021": 0.0,
			"-0.02": 0.354931370464,
			"-0.019": 1.90532062721,
			"-0.018": 0.899058826662,
			"-0.017": 1.14370582233,
			"-0.016": 1.3003128289,
			"-0.015": 1.27209090433,
			"-0.014": 0.75623133644,
			"-0.013": 0.812393518565,
			"-0.012": 1.1947359931,
			"-0.011": 1.10452910426,
			"-0.01": 0.877027116188,
			"-0.009": 1.8673405423,
			"-0.008": 7.51040148288,
			"-0.007": 6.92309266389,
			"-0.006": 7.59729173199,
			"-0.005": 5.95834619327,
			"-0.004": 7.94646435413,
			"-0.003": 9.68634704055,
			"-0.002": 12.7647983117,
			"-0.001": 17.3718339631,
			"0.0": 24.4400944864,
			"0.001": 21.6907014513,
			"0.002": 16.8604767849,
			"0.003": 16.1156263611,
			"0.004": 9.07609198026,
			"0.005": 3.6531420048,
			"0.006": 4.22595452397,
			"0.007": 5.09737900926,
			"0.008": 5.1405794072,
			"0.009": 3.98662444992,
			"0.01": 5.382079974,
			"0.011": 3.88041872398,
			"0.012": 2.71516937886,
			"0.013": 2.44492320913,
			"0.014": 1.22173896136,
			"0.015": 0.180553533325,
			"0.016": 0.0,
			"0.017": 0.0,
			"0.018": 0.0,
			"0.019": 0.0,
			"0.02": 0.0,
			"0.021": 0.0,
			"0.022": 0.0,
			"0.023": 0.0,
			"0.024": 0.0,
			"0.025": 0.0
		}
	}
}
