{
	 "smiles": "CN1C2CC(CC1C1OC21)OC(=O)C(CO)C1=CC=CC=C1", 
	 "Tm": 332.15, 
	 "num_atms": 43, 
	 "gaussian": { 
		 "optdone": 1, 
		 "sigma_profile": "yes", 
		 "theory": "DFT", 
		 "functional": "B3LYP", 
		 "basiset": "6-31G**", 
		 "properties": { 
			 "R2extent": 8345.404, 
			 "electric_dipole_moment_norm": 4.63107490114, 
			 "electric_quadrupole_moment_norm": 17.5000566445, 
			 "total_energy": -1016.04473213, 
			 "HOMO_LUMO_gap": 0.20968, 
			 "cosmo_polarized_energy": -16.35, 
			 "cosmo_cavitation_energy": 43.15, 
			 "cosmo_dispersion_energy": -30.29, 
			 "cosmo_repulsion_energy": 2.34, 
			 "cosmo_total_nonelectrostatic_energy": 15.21, 
			 "SMD_solvation_energy": 5.0 
		},
		"coords": [
			{
				"x": 4.5184810105,
				"y": -0.5040427977,
				"z": 0.4511541787,
				"element": "C" 
			},
			{
				"x": 3.1153543514,
				"y": -0.3737859164,
				"z": 0.0692906392,
				"element": "N" 
			},
			{
				"x": 2.1777679946,
				"y": -0.9067852218,
				"z": 1.0977363951,
				"element": "C" 
			},
			{
				"x": 0.7644783115,
				"y": -0.3275743438,
				"z": 0.7968280405,
				"element": "C" 
			},
			{
				"x": 0.7517178354,
				"y": 0.2502889819,
				"z": -0.6303790622,
				"element": "C" 
			},
			{
				"x": 1.4054606591,
				"y": -0.6732040046,
				"z": -1.6752366837,
				"element": "C" 
			},
			{
				"x": 2.7486739212,
				"y": -1.2151388304,
				"z": -1.1047742365,
				"element": "C" 
			},
			{
				"x": 2.6011895979,
				"y": -2.6390739614,
				"z": -0.5126090914,
				"element": "C" 
			},
			{
				"x": 1.2777430788,
				"y": -2.949121388,
				"z": -0.0463908331,
				"element": "O" 
			},
			{
				"x": 2.2360683672,
				"y": -2.4418011499,
				"z": 0.8965970208,
				"element": "C" 
			},
			{
				"x": -0.5683580515,
				"y": 0.7177214582,
				"z": -1.0377941469,
				"element": "O" 
			},
			{
				"x": -1.6040850254,
				"y": -0.1200917501,
				"z": -1.1830103145,
				"element": "C" 
			},
			{
				"x": -1.5607719916,
				"y": -1.3263737815,
				"z": -1.0095707196,
				"element": "O" 
			},
			{
				"x": -2.8646196701,
				"y": 0.6356245496,
				"z": -1.6069797679,
				"element": "C" 
			},
			{
				"x": -3.9827035418,
				"y": -0.3665711944,
				"z": -1.9755026734,
				"element": "C" 
			},
			{
				"x": -3.5911684544,
				"y": -1.2739676205,
				"z": -2.9839171927,
				"element": "O" 
			},
			{
				"x": -3.3187012301,
				"y": 1.6132138328,
				"z": -0.5348532967,
				"element": "C" 
			},
			{
				"x": -3.5866137065,
				"y": 2.9501301115,
				"z": -0.8520424409,
				"element": "C" 
			},
			{
				"x": -4.0500702168,
				"y": 3.8362408338,
				"z": 0.1217180453,
				"element": "C" 
			},
			{
				"x": -4.2523256732,
				"y": 3.3958382872,
				"z": 1.430506595,
				"element": "C" 
			},
			{
				"x": -3.9885814565,
				"y": 2.064310843,
				"z": 1.7584430643,
				"element": "C" 
			},
			{
				"x": -3.5278611858,
				"y": 1.1800685516,
				"z": 0.7829919103,
				"element": "C" 
			},
			{
				"x": 4.7090937876,
				"y": 0.110779606,
				"z": 1.3366632684,
				"element": "H" 
			},
			{
				"x": 4.8399219803,
				"y": -1.5357635287,
				"z": 0.6787833276,
				"element": "H" 
			},
			{
				"x": 5.1489001153,
				"y": -0.1267385007,
				"z": -0.3604370499,
				"element": "H" 
			},
			{
				"x": 2.5180027023,
				"y": -0.6198741404,
				"z": 2.0962767254,
				"element": "H" 
			},
			{
				"x": 0.0099399167,
				"y": -1.1087420486,
				"z": 0.8900920757,
				"element": "H" 
			},
			{
				"x": 0.5252158888,
				"y": 0.4761614506,
				"z": 1.4997129956,
				"element": "H" 
			},
			{
				"x": 1.3164596654,
				"y": 1.1813787901,
				"z": -0.6137642821,
				"element": "H" 
			},
			{
				"x": 1.5862385585,
				"y": -0.0952814604,
				"z": -2.5867804614,
				"element": "H" 
			},
			{
				"x": 0.7364830738,
				"y": -1.4999342376,
				"z": -1.9140223362,
				"element": "H" 
			},
			{
				"x": 3.5422308965,
				"y": -1.1732907409,
				"z": -1.8555292386,
				"element": "H" 
			},
			{
				"x": 3.1757639723,
				"y": -3.4826489616,
				"z": -0.8900051314,
				"element": "H" 
			},
			{
				"x": 2.5035450278,
				"y": -3.119436028,
				"z": 1.7049827621,
				"element": "H" 
			},
			{
				"x": -2.5981938042,
				"y": 1.1993453031,
				"z": -2.5084437082,
				"element": "H" 
			},
			{
				"x": -4.8388221535,
				"y": 0.1960123946,
				"z": -2.3605519452,
				"element": "H" 
			},
			{
				"x": -4.3122440375,
				"y": -0.8869747168,
				"z": -1.064329108,
				"element": "H" 
			},
			{
				"x": -2.9128600981,
				"y": -1.832554137,
				"z": -2.5748096979,
				"element": "H" 
			},
			{
				"x": -3.4286724869,
				"y": 3.2995031444,
				"z": -1.8692393293,
				"element": "H" 
			},
			{
				"x": -4.2509682514,
				"y": 4.8706329614,
				"z": -0.1427673653,
				"element": "H" 
			},
			{
				"x": -4.6115446816,
				"y": 4.0846473558,
				"z": 2.1896702254,
				"element": "H" 
			},
			{
				"x": -4.1420362522,
				"y": 1.7127686148,
				"z": 2.7749070544,
				"element": "H" 
			},
			{
				"x": -3.3225287439,
				"y": 0.1457033911,
				"z": 1.0476857893,
				"element": "H" 
			}
		],
		 "valence_orbital": [ 
			{
				"type": "occ",
				"energy": -0.27047,
				"method": "rhf"
			},
			{
				"type": "occ",
				"energy": -0.25908,
				"method": "rhf"
			},
			{
				"type": "occ",
				"energy": -0.24996,
				"method": "rhf"
			},
			{
				"type": "occ",
				"energy": -0.2378,
				"method": "rhf"
			},
			{
				"type": "occ",
				"energy": -0.21735,
				"method": "rhf"
			},
			{
				"type": "unocc",
				"energy": -0.00767,
				"method": "rhf"
			},
			{
				"type": "unocc",
				"energy": -0.00372,
				"method": "rhf"
			},
			{
				"type": "unocc",
				"energy": 0.01283,
				"method": "rhf"
			},
			{
				"type": "unocc",
				"energy": 0.07097,
				"method": "rhf"
			},
			{
				"type": "unocc",
				"energy": 0.07612,
				"method": "rhf"
			}
		],
		"cosmo_sigma_profile": { 
			"-0.025": 0.0,
			"-0.024": 0.0,
			"-0.023": 0.0,
			"-0.022": 0.0,
			"-0.021": 0.0,
			"-0.02": 0.0,
			"-0.019": 0.0,
			"-0.018": 0.0,
			"-0.017": 0.0,
			"-0.016": 0.0,
			"-0.015": 0.0,
			"-0.014": 0.0,
			"-0.013": 0.0,
			"-0.012": 0.0,
			"-0.011": 0.0,
			"-0.01": 0.401516600617,
			"-0.009": 0.372132461527,
			"-0.008": 0.593743433868,
			"-0.007": 4.10988938576,
			"-0.006": 13.707750727,
			"-0.005": 29.5863993362,
			"-0.004": 40.1402490641,
			"-0.003": 39.5726079542,
			"-0.002": 38.0107652365,
			"-0.001": 32.537494618,
			"0.0": 23.0487943182,
			"0.001": 14.3800907232,
			"0.002": 12.7666229218,
			"0.003": 13.2247281642,
			"0.004": 12.969953922,
			"0.005": 14.0996733891,
			"0.006": 10.7625670606,
			"0.007": 4.94160174988,
			"0.008": 5.64675833967,
			"0.009": 5.04328844666,
			"0.01": 4.48003288899,
			"0.011": 6.14349739368,
			"0.012": 4.74500825612,
			"0.013": 3.11392096766,
			"0.014": 3.17399869537,
			"0.015": 0.96872127075,
			"0.016": 0.0324678682046,
			"0.017": 0.0,
			"0.018": 0.0,
			"0.019": 0.0,
			"0.02": 0.0,
			"0.021": 0.0,
			"0.022": 0.0,
			"0.023": 0.0,
			"0.024": 0.0,
			"0.025": 0.0
		}
	}
}
