{
	 "smiles": "CN1CCN(CC1)C(N)=S", 
	 "Tm": 453.15, 
	 "num_atms": 23, 
	 "gaussian": { 
		 "optdone": 1, 
		 "sigma_profile": "yes", 
		 "theory": "DFT", 
		 "functional": "B3LYP", 
		 "basiset": "6-31G**", 
		 "properties": { 
			 "R2extent": 2297.7272, 
			 "electric_dipole_moment_norm": 5.06242829579, 
			 "electric_quadrupole_moment_norm": 23.1752078556, 
			 "total_energy": -798.91291927, 
			 "HOMO_LUMO_gap": 0.19417, 
			 "cosmo_polarized_energy": -17.55, 
			 "cosmo_cavitation_energy": 25.43, 
			 "cosmo_dispersion_energy": -19.45, 
			 "cosmo_repulsion_energy": 1.52, 
			 "cosmo_total_nonelectrostatic_energy": 7.49, 
			 "SMD_solvation_energy": 0.2 
		},
		"coords": [
			{
				"x": -1.4982424269,
				"y": -2.1184465058,
				"z": -1.756515813,
				"element": "C" 
			},
			{
				"x": -0.6159380929,
				"y": -1.7477193871,
				"z": -0.6547928797,
				"element": "N" 
			},
			{
				"x": -1.3141195423,
				"y": -1.3599563578,
				"z": 0.5677403856,
				"element": "C" 
			},
			{
				"x": -1.8963341256,
				"y": 0.0655029186,
				"z": 0.5221521513,
				"element": "C" 
			},
			{
				"x": -0.8411768305,
				"y": 1.0314935474,
				"z": 0.1812274569,
				"element": "N" 
			},
			{
				"x": -0.1580988694,
				"y": 0.6991035444,
				"z": -1.0748048148,
				"element": "C" 
			},
			{
				"x": 0.3871289474,
				"y": -0.7371153059,
				"z": -1.0002328014,
				"element": "C" 
			},
			{
				"x": -0.6976738994,
				"y": 2.2528577224,
				"z": 0.7698071017,
				"element": "C" 
			},
			{
				"x": -1.3763437202,
				"y": 2.4392874402,
				"z": 1.9550888089,
				"element": "N" 
			},
			{
				"x": 0.20624856,
				"y": 3.5261004269,
				"z": 0.1280621722,
				"element": "S" 
			},
			{
				"x": -2.1497324083,
				"y": -2.9378254271,
				"z": -1.4349026756,
				"element": "H" 
			},
			{
				"x": -0.8920703022,
				"y": -2.4833249297,
				"z": -2.5919572803,
				"element": "H" 
			},
			{
				"x": -2.1439347103,
				"y": -1.3103016007,
				"z": -2.1432246566,
				"element": "H" 
			},
			{
				"x": -2.1177556673,
				"y": -2.0774312099,
				"z": 0.7675118021,
				"element": "H" 
			},
			{
				"x": -0.6021389609,
				"y": -1.4170505362,
				"z": 1.4024294975,
				"element": "H" 
			},
			{
				"x": -2.685917728,
				"y": 0.1293967862,
				"z": -0.2415588064,
				"element": "H" 
			},
			{
				"x": -2.3649754444,
				"y": 0.31580083,
				"z": 1.4731355733,
				"element": "H" 
			},
			{
				"x": 0.645270018,
				"y": 1.4198432478,
				"z": -1.2256323762,
				"element": "H" 
			},
			{
				"x": -0.8644080429,
				"y": 0.810658522,
				"z": -1.910425082,
				"element": "H" 
			},
			{
				"x": 0.8462179442,
				"y": -1.0035310684,
				"z": -1.9581478379,
				"element": "H" 
			},
			{
				"x": 1.175874339,
				"y": -0.7672394676,
				"z": -0.2370744056,
				"element": "H" 
			},
			{
				"x": -1.4797608562,
				"y": 1.6568302143,
				"z": 2.586979048,
				"element": "H" 
			},
			{
				"x": -1.1349181811,
				"y": 3.310766596,
				"z": 2.4043354321,
				"element": "H" 
			}
		],
		 "valence_orbital": [ 
			{
				"type": "occ",
				"energy": -0.34355,
				"method": "rhf"
			},
			{
				"type": "occ",
				"energy": -0.26532,
				"method": "rhf"
			},
			{
				"type": "occ",
				"energy": -0.22318,
				"method": "rhf"
			},
			{
				"type": "occ",
				"energy": -0.20303,
				"method": "rhf"
			},
			{
				"type": "occ",
				"energy": -0.19683,
				"method": "rhf"
			},
			{
				"type": "unocc",
				"energy": -0.00266,
				"method": "rhf"
			},
			{
				"type": "unocc",
				"energy": 0.05977,
				"method": "rhf"
			},
			{
				"type": "unocc",
				"energy": 0.08188,
				"method": "rhf"
			},
			{
				"type": "unocc",
				"energy": 0.09238,
				"method": "rhf"
			},
			{
				"type": "unocc",
				"energy": 0.10205,
				"method": "rhf"
			}
		],
		"cosmo_sigma_profile": { 
			"-0.025": 0.0,
			"-0.024": 0.0,
			"-0.023": 0.0,
			"-0.022": 0.0,
			"-0.021": 0.0,
			"-0.02": 0.0,
			"-0.019": 0.0,
			"-0.018": 0.0,
			"-0.017": 0.0,
			"-0.016": 0.00520709990713,
			"-0.015": 0.763518958705,
			"-0.014": 1.4343166646,
			"-0.013": 2.27851938176,
			"-0.012": 2.30389555062,
			"-0.011": 2.63945573925,
			"-0.01": 2.45054335099,
			"-0.009": 2.49617228777,
			"-0.008": 1.75895438293,
			"-0.007": 1.90018929241,
			"-0.006": 3.05264020288,
			"-0.005": 12.3838027367,
			"-0.004": 27.7876611017,
			"-0.003": 24.4489511618,
			"-0.002": 18.1140271772,
			"-0.001": 15.4389280964,
			"0.0": 11.5472188248,
			"0.001": 5.78409996481,
			"0.002": 5.19255426678,
			"0.003": 3.97041150726,
			"0.004": 4.60526337001,
			"0.005": 4.9371683649,
			"0.006": 5.37594334203,
			"0.007": 5.05339291789,
			"0.008": 5.38619920938,
			"0.009": 5.41878826915,
			"0.01": 6.05443994256,
			"0.011": 7.61130252466,
			"0.012": 6.9107719061,
			"0.013": 2.26318324065,
			"0.014": 0.432557682059,
			"0.015": 0.39347241877,
			"0.016": 0.350926308909,
			"0.017": 0.0437152046014,
			"0.018": 0.0,
			"0.019": 0.0,
			"0.02": 0.0,
			"0.021": 0.0,
			"0.022": 0.0,
			"0.023": 0.0,
			"0.024": 0.0,
			"0.025": 0.0
		}
	}
}
