{
	 "smiles": "CC1CNC2=C(N1)N=CC=C2", 
	 "Tm": 384.15, 
	 "num_atms": 22, 
	 "gaussian": { 
		 "optdone": 1, 
		 "sigma_profile": "yes", 
		 "theory": "DFT", 
		 "functional": "B3LYP", 
		 "basiset": "6-31G**", 
		 "properties": { 
			 "R2extent": 1889.0769, 
			 "electric_dipole_moment_norm": 3.11742952607, 
			 "electric_quadrupole_moment_norm": 8.37546530528, 
			 "total_energy": -475.743522526, 
			 "HOMO_LUMO_gap": 0.17981, 
			 "cosmo_polarized_energy": -10.59, 
			 "cosmo_cavitation_energy": 24.13, 
			 "cosmo_dispersion_energy": -18.45, 
			 "cosmo_repulsion_energy": 1.47, 
			 "cosmo_total_nonelectrostatic_energy": 7.15, 
			 "SMD_solvation_energy": 0.74 
		},
		"coords": [
			{
				"x": -1.6258985855,
				"y": 2.0215718713,
				"z": 2.2641707549,
				"element": "C" 
			},
			{
				"x": -0.6844749809,
				"y": 1.2757390434,
				"z": 1.3201669628,
				"element": "C" 
			},
			{
				"x": -0.5637433286,
				"y": -0.2095497134,
				"z": 1.6903923032,
				"element": "C" 
			},
			{
				"x": 0.2960797728,
				"y": -0.8788550803,
				"z": 0.7225666635,
				"element": "N" 
			},
			{
				"x": 0.0443890956,
				"y": -0.6538707718,
				"z": -0.6361864978,
				"element": "C" 
			},
			{
				"x": -0.6674152561,
				"y": 0.5148962432,
				"z": -1.0257967066,
				"element": "C" 
			},
			{
				"x": -1.1938010162,
				"y": 1.3433929672,
				"z": -0.0433772,
				"element": "N" 
			},
			{
				"x": -0.888842243,
				"y": 0.8459014594,
				"z": -2.296079192,
				"element": "N" 
			},
			{
				"x": -0.4322864589,
				"y": 0.0248833546,
				"z": -3.2572329228,
				"element": "C" 
			},
			{
				"x": 0.2625238687,
				"y": -1.146915851,
				"z": -2.9888404965,
				"element": "C" 
			},
			{
				"x": 0.5030609899,
				"y": -1.4867500752,
				"z": -1.6510440233,
				"element": "C" 
			},
			{
				"x": -1.7114798974,
				"y": 3.0744829505,
				"z": 1.9745266009,
				"element": "H" 
			},
			{
				"x": -1.2498829828,
				"y": 1.9905663513,
				"z": 3.2916123233,
				"element": "H" 
			},
			{
				"x": -2.6277615668,
				"y": 1.5814194319,
				"z": 2.2404152351,
				"element": "H" 
			},
			{
				"x": 0.323979997,
				"y": 1.716560567,
				"z": 1.3959622179,
				"element": "H" 
			},
			{
				"x": -0.1110822942,
				"y": -0.3027352637,
				"z": 2.6831016572,
				"element": "H" 
			},
			{
				"x": -1.5773642743,
				"y": -0.641267849,
				"z": 1.7356462406,
				"element": "H" 
			},
			{
				"x": 0.5199708604,
				"y": -1.8387790064,
				"z": 0.9498924452,
				"element": "H" 
			},
			{
				"x": -1.4697552298,
				"y": 2.2511082735,
				"z": -0.3954579949,
				"element": "H" 
			},
			{
				"x": -0.6366150755,
				"y": 0.3313265123,
				"z": -4.2809621623,
				"element": "H" 
			},
			{
				"x": 0.6136095298,
				"y": -1.7823286687,
				"z": -3.7951401896,
				"element": "H" 
			},
			{
				"x": 1.0517890758,
				"y": -2.3911967461,
				"z": -1.3974360188,
				"element": "H" 
			}
		],
		 "valence_orbital": [ 
			{
				"type": "occ",
				"energy": -0.30436,
				"method": "rhf"
			},
			{
				"type": "occ",
				"energy": -0.29058,
				"method": "rhf"
			},
			{
				"type": "occ",
				"energy": -0.24338,
				"method": "rhf"
			},
			{
				"type": "occ",
				"energy": -0.22999,
				"method": "rhf"
			},
			{
				"type": "occ",
				"energy": -0.17657,
				"method": "rhf"
			},
			{
				"type": "unocc",
				"energy": 0.00324,
				"method": "rhf"
			},
			{
				"type": "unocc",
				"energy": 0.02683,
				"method": "rhf"
			},
			{
				"type": "unocc",
				"energy": 0.08128,
				"method": "rhf"
			},
			{
				"type": "unocc",
				"energy": 0.09172,
				"method": "rhf"
			},
			{
				"type": "unocc",
				"energy": 0.11762,
				"method": "rhf"
			}
		],
		"cosmo_sigma_profile": { 
			"-0.025": 0.0,
			"-0.024": 0.0,
			"-0.023": 0.0,
			"-0.022": 0.0,
			"-0.021": 0.0,
			"-0.02": 0.0,
			"-0.019": 0.0,
			"-0.018": 0.0,
			"-0.017": 0.0,
			"-0.016": 0.0,
			"-0.015": 0.0,
			"-0.014": 0.0,
			"-0.013": 0.363351043262,
			"-0.012": 1.51214930997,
			"-0.011": 2.44267420325,
			"-0.01": 2.26590984474,
			"-0.009": 2.57928833342,
			"-0.008": 2.7296063748,
			"-0.007": 3.21820792791,
			"-0.006": 4.01675172767,
			"-0.005": 10.2109524199,
			"-0.004": 14.5794150914,
			"-0.003": 21.5596223101,
			"-0.002": 20.4549313841,
			"-0.001": 16.3152047635,
			"0.0": 13.2689765055,
			"0.001": 10.7871885061,
			"0.002": 7.19024464724,
			"0.003": 7.17030515638,
			"0.004": 9.00867869651,
			"0.005": 11.3193233719,
			"0.006": 8.57049739805,
			"0.007": 4.18394016899,
			"0.008": 3.37315752467,
			"0.009": 2.81047095015,
			"0.01": 2.9492034886,
			"0.011": 1.68913168618,
			"0.012": 1.47061330554,
			"0.013": 0.733585726564,
			"0.014": 0.799543744171,
			"0.015": 1.1410748976,
			"0.016": 0.849033071785,
			"0.017": 0.21823069499,
			"0.018": 0.0,
			"0.019": 0.0,
			"0.02": 0.0,
			"0.021": 0.0,
			"0.022": 0.0,
			"0.023": 0.0,
			"0.024": 0.0,
			"0.025": 0.0
		}
	}
}
