{
	 "smiles": "NC(=O)C1=CC(CCl)=CC=C1", 
	 "Tm": 399.15, 
	 "num_atms": 19, 
	 "gaussian": { 
		 "optdone": 1, 
		 "sigma_profile": "yes", 
		 "theory": "DFT", 
		 "functional": "B3LYP", 
		 "basiset": "6-31G**", 
		 "properties": { 
			 "R2extent": 3608.581, 
			 "electric_dipole_moment_norm": 3.92109458952, 
			 "electric_quadrupole_moment_norm": 23.9959439804, 
			 "total_energy": -899.864938718, 
			 "HOMO_LUMO_gap": 0.20618, 
			 "cosmo_polarized_energy": -15.85, 
			 "cosmo_cavitation_energy": 25.22, 
			 "cosmo_dispersion_energy": -18.44, 
			 "cosmo_repulsion_energy": 1.51, 
			 "cosmo_total_nonelectrostatic_energy": 8.29, 
			 "SMD_solvation_energy": 4.72 
		},
		"coords": [
			{
				"x": -2.4467339598,
				"y": 0.5595657307,
				"z": -2.8639269354,
				"element": "N" 
			},
			{
				"x": -1.1242653362,
				"y": 0.5803198882,
				"z": -3.2369951688,
				"element": "C" 
			},
			{
				"x": -0.7794921376,
				"y": 0.4223739913,
				"z": -4.4012578102,
				"element": "O" 
			},
			{
				"x": -0.1234163689,
				"y": 0.8329369509,
				"z": -2.1423908285,
				"element": "C" 
			},
			{
				"x": -0.4615707333,
				"y": 1.3799973844,
				"z": -0.8991660505,
				"element": "C" 
			},
			{
				"x": 0.5151892883,
				"y": 1.5943626189,
				"z": 0.0803734663,
				"element": "C" 
			},
			{
				"x": 0.1429363262,
				"y": 2.1849384481,
				"z": 1.4077149251,
				"element": "C" 
			},
			{
				"x": 0.2499957895,
				"y": 4.0184272005,
				"z": 1.4157696343,
				"element": "Cl" 
			},
			{
				"x": 1.8448143557,
				"y": 1.2546695849,
				"z": -0.1997640427,
				"element": "C" 
			},
			{
				"x": 2.1919687466,
				"y": 0.7200024329,
				"z": -1.4408252235,
				"element": "C" 
			},
			{
				"x": 1.2143499497,
				"y": 0.5157204283,
				"z": -2.4113377361,
				"element": "C" 
			},
			{
				"x": -3.0946994155,
				"y": 0.2786264173,
				"z": -3.5857747813,
				"element": "H" 
			},
			{
				"x": -2.709795256,
				"y": 0.3613611635,
				"z": -1.9115901477,
				"element": "H" 
			},
			{
				"x": -1.4849790933,
				"y": 1.6820189771,
				"z": -0.692490878,
				"element": "H" 
			},
			{
				"x": 0.8112770262,
				"y": 1.8535034852,
				"z": 2.2025912626,
				"element": "H" 
			},
			{
				"x": -0.886589311,
				"y": 1.9559788823,
				"z": 1.6837829984,
				"element": "H" 
			},
			{
				"x": 2.6095982678,
				"y": 1.4193133766,
				"z": 0.5547742894,
				"element": "H" 
			},
			{
				"x": 3.2263626264,
				"y": 0.4642200013,
				"z": -1.649772712,
				"element": "H" 
			},
			{
				"x": 1.4587492353,
				"y": 0.1116630377,
				"z": -3.3877142613,
				"element": "H" 
			}
		],
		 "valence_orbital": [ 
			{
				"type": "occ",
				"energy": -0.29797,
				"method": "rhf"
			},
			{
				"type": "occ",
				"energy": -0.27719,
				"method": "rhf"
			},
			{
				"type": "occ",
				"energy": -0.268,
				"method": "rhf"
			},
			{
				"type": "occ",
				"energy": -0.26346,
				"method": "rhf"
			},
			{
				"type": "occ",
				"energy": -0.25302,
				"method": "rhf"
			},
			{
				"type": "unocc",
				"energy": -0.04684,
				"method": "rhf"
			},
			{
				"type": "unocc",
				"energy": -0.03395,
				"method": "rhf"
			},
			{
				"type": "unocc",
				"energy": 0.02868,
				"method": "rhf"
			},
			{
				"type": "unocc",
				"energy": 0.05516,
				"method": "rhf"
			},
			{
				"type": "unocc",
				"energy": 0.07492,
				"method": "rhf"
			}
		],
		"cosmo_sigma_profile": { 
			"-0.025": 0.0,
			"-0.024": 0.0,
			"-0.023": 0.0,
			"-0.022": 0.0,
			"-0.021": 0.0,
			"-0.02": 0.0,
			"-0.019": 0.0,
			"-0.018": 0.0,
			"-0.017": 0.0,
			"-0.016": 0.0,
			"-0.015": 0.105614983033,
			"-0.014": 1.62341514846,
			"-0.013": 2.54401367556,
			"-0.012": 2.57348673351,
			"-0.011": 2.53447769008,
			"-0.01": 2.38313801076,
			"-0.009": 2.42491897976,
			"-0.008": 7.21911858402,
			"-0.007": 10.8704043033,
			"-0.006": 10.2499432326,
			"-0.005": 12.08881436,
			"-0.004": 11.0220885593,
			"-0.003": 7.95650261555,
			"-0.002": 8.86486795088,
			"-0.001": 8.99061978212,
			"0.0": 11.829086,
			"0.001": 11.6402150052,
			"0.002": 12.4545902923,
			"0.003": 17.3114729502,
			"0.004": 13.4388938072,
			"0.005": 8.45338547038,
			"0.006": 11.0787267649,
			"0.007": 8.06617094546,
			"0.008": 2.76345992212,
			"0.009": 1.10104193881,
			"0.01": 1.29527724368,
			"0.011": 1.46611100271,
			"0.012": 2.41237624609,
			"0.013": 4.51537476321,
			"0.014": 3.51723235166,
			"0.015": 0.251767929133,
			"0.016": 0.0,
			"0.017": 0.0,
			"0.018": 0.0,
			"0.019": 0.0,
			"0.02": 0.0,
			"0.021": 0.0,
			"0.022": 0.0,
			"0.023": 0.0,
			"0.024": 0.0,
			"0.025": 0.0
		}
	}
}
