{
	 "smiles": "NCCN(CCN)CCN", 
	 "Tm": 257.15, 
	 "num_atms": 28, 
	 "gaussian": { 
		 "optdone": 1, 
		 "sigma_profile": "yes", 
		 "theory": "DFT", 
		 "functional": "B3LYP", 
		 "basiset": "6-31G**", 
		 "properties": { 
			 "R2extent": 2246.4585, 
			 "electric_dipole_moment_norm": 3.66942002229, 
			 "electric_quadrupole_moment_norm": 11.738886103, 
			 "total_energy": -458.462405894, 
			 "HOMO_LUMO_gap": 0.27557, 
			 "cosmo_polarized_energy": -14.66, 
			 "cosmo_cavitation_energy": 28.97, 
			 "cosmo_dispersion_energy": -20.3, 
			 "cosmo_repulsion_energy": 1.72, 
			 "cosmo_total_nonelectrostatic_energy": 10.39, 
			 "SMD_solvation_energy": 0.23 
		},
		"coords": [
			{
				"x": 1.3573997989,
				"y": 2.9843426965,
				"z": -2.2253991033,
				"element": "N" 
			},
			{
				"x": 0.4398593834,
				"y": 2.3399465428,
				"z": -1.2801879432,
				"element": "C" 
			},
			{
				"x": 1.1245563098,
				"y": 1.094796668,
				"z": -0.6841227094,
				"element": "C" 
			},
			{
				"x": 0.3427088532,
				"y": 0.2903056179,
				"z": 0.256437806,
				"element": "N" 
			},
			{
				"x": -0.757344168,
				"y": -0.461926968,
				"z": -0.3515035384,
				"element": "C" 
			},
			{
				"x": -0.2932665209,
				"y": -1.7160088067,
				"z": -1.115564618,
				"element": "C" 
			},
			{
				"x": -1.3682100501,
				"y": -2.5055855146,
				"z": -1.7184525108,
				"element": "N" 
			},
			{
				"x": -0.0209229561,
				"y": 0.984882534,
				"z": 1.4967826542,
				"element": "C" 
			},
			{
				"x": -0.0205643461,
				"y": 0.03181823,
				"z": 2.7067982335,
				"element": "C" 
			},
			{
				"x": 1.248235557,
				"y": -0.6499782593,
				"z": 2.9587918521,
				"element": "N" 
			},
			{
				"x": 0.8970363114,
				"y": 3.7650043844,
				"z": -2.6859028638,
				"element": "H" 
			},
			{
				"x": 2.1493439062,
				"y": 3.379791825,
				"z": -1.7227447964,
				"element": "H" 
			},
			{
				"x": -0.454439761,
				"y": 2.0386604696,
				"z": -1.837784014,
				"element": "H" 
			},
			{
				"x": 0.0941710837,
				"y": 2.9984503418,
				"z": -0.4640390906,
				"element": "H" 
			},
			{
				"x": 1.4518674167,
				"y": 0.4623336993,
				"z": -1.5151624991,
				"element": "H" 
			},
			{
				"x": 2.0406470026,
				"y": 1.4141085199,
				"z": -0.167456799,
				"element": "H" 
			},
			{
				"x": -1.3765501879,
				"y": 0.1614167284,
				"z": -1.0246717983,
				"element": "H" 
			},
			{
				"x": -1.4274521796,
				"y": -0.7898247087,
				"z": 0.4515101716,
				"element": "H" 
			},
			{
				"x": 0.4031537789,
				"y": -1.4369571337,
				"z": -1.9143881741,
				"element": "H" 
			},
			{
				"x": 0.2688231911,
				"y": -2.3572592778,
				"z": -0.4270112266,
				"element": "H" 
			},
			{
				"x": -2.0306683801,
				"y": -2.7970830417,
				"z": -1.0026254005,
				"element": "H" 
			},
			{
				"x": -1.8939197451,
				"y": -1.9345334764,
				"z": -2.3768218776,
				"element": "H" 
			},
			{
				"x": 0.7300059748,
				"y": 1.7646822851,
				"z": 1.6769693021,
				"element": "H" 
			},
			{
				"x": -0.9966948671,
				"y": 1.5006643095,
				"z": 1.4264123995,
				"element": "H" 
			},
			{
				"x": -0.7960537796,
				"y": -0.7336623359,
				"z": 2.5719831057,
				"element": "H" 
			},
			{
				"x": -0.306477779,
				"y": 0.5964323863,
				"z": 3.6028158026,
				"element": "H" 
			},
			{
				"x": 1.5676547092,
				"y": -1.0329946674,
				"z": 2.0696435804,
				"element": "H" 
			},
			{
				"x": 1.9510014437,
				"y": 0.0359769517,
				"z": 3.2298940554,
				"element": "H" 
			}
		],
		 "valence_orbital": [ 
			{
				"type": "occ",
				"energy": -0.32863,
				"method": "rhf"
			},
			{
				"type": "occ",
				"energy": -0.23983,
				"method": "rhf"
			},
			{
				"type": "occ",
				"energy": -0.23517,
				"method": "rhf"
			},
			{
				"type": "occ",
				"energy": -0.22684,
				"method": "rhf"
			},
			{
				"type": "occ",
				"energy": -0.20448,
				"method": "rhf"
			},
			{
				"type": "unocc",
				"energy": 0.07109,
				"method": "rhf"
			},
			{
				"type": "unocc",
				"energy": 0.08118,
				"method": "rhf"
			},
			{
				"type": "unocc",
				"energy": 0.08429,
				"method": "rhf"
			},
			{
				"type": "unocc",
				"energy": 0.10096,
				"method": "rhf"
			},
			{
				"type": "unocc",
				"energy": 0.1111,
				"method": "rhf"
			}
		],
		"cosmo_sigma_profile": { 
			"-0.025": 0.0,
			"-0.024": 0.0,
			"-0.023": 0.0,
			"-0.022": 0.0,
			"-0.021": 0.0,
			"-0.02": 0.0,
			"-0.019": 0.0,
			"-0.018": 0.0,
			"-0.017": 0.0,
			"-0.016": 0.0,
			"-0.015": 0.0,
			"-0.014": 0.0,
			"-0.013": 0.0,
			"-0.012": 0.0,
			"-0.011": 0.0,
			"-0.01": 0.764901241982,
			"-0.009": 5.52640826983,
			"-0.008": 7.43006654976,
			"-0.007": 6.7162055337,
			"-0.006": 7.62675420005,
			"-0.005": 10.3257832137,
			"-0.004": 14.3661663775,
			"-0.003": 27.3054100521,
			"-0.002": 27.9527295597,
			"-0.001": 27.492970896,
			"0.0": 21.4005732062,
			"0.001": 12.0308355655,
			"0.002": 5.12252170067,
			"0.003": 6.16410908298,
			"0.004": 3.86206387578,
			"0.005": 3.56709974507,
			"0.006": 3.12978866729,
			"0.007": 3.43385864297,
			"0.008": 3.17827715695,
			"0.009": 2.03925742158,
			"0.01": 2.35802379488,
			"0.011": 2.14283044924,
			"0.012": 1.93731562033,
			"0.013": 1.83013588623,
			"0.014": 2.50668342849,
			"0.015": 2.22537417389,
			"0.016": 1.71272698094,
			"0.017": 1.71798565909,
			"0.018": 1.35220717463,
			"0.019": 2.38448818303,
			"0.02": 1.37170368699,
			"0.021": 0.240205232844,
			"0.022": 0.0,
			"0.023": 0.0,
			"0.024": 0.0,
			"0.025": 0.0
		}
	}
}
