{
	 "smiles": "CCOC(=O)C1=CC2=C(N1)C=CC(C)=C2", 
	 "Tm": 436.15, 
	 "num_atms": 28, 
	 "gaussian": { 
		 "optdone": 1, 
		 "sigma_profile": "yes", 
		 "theory": "DFT", 
		 "functional": "B3LYP", 
		 "basiset": "6-31G**", 
		 "properties": { 
			 "R2extent": 4745.7543, 
			 "electric_dipole_moment_norm": 0.543094770735, 
			 "electric_quadrupole_moment_norm": 10.5868557117, 
			 "total_energy": -670.346650025, 
			 "HOMO_LUMO_gap": 0.16586, 
			 "cosmo_polarized_energy": -9.1, 
			 "cosmo_cavitation_energy": 32.08, 
			 "cosmo_dispersion_energy": -23.47, 
			 "cosmo_repulsion_energy": 1.85, 
			 "cosmo_total_nonelectrostatic_energy": 10.46, 
			 "SMD_solvation_energy": 6.21 
		},
		"coords": [
			{
				"x": -1.7288477367,
				"y": 1.1384460894,
				"z": -5.176085377,
				"element": "C" 
			},
			{
				"x": -2.7081758198,
				"y": 1.0705367158,
				"z": -4.0136894224,
				"element": "C" 
			},
			{
				"x": -2.0161821237,
				"y": 1.0211807121,
				"z": -2.7434528385,
				"element": "O" 
			},
			{
				"x": -1.6251400222,
				"y": -0.1992884668,
				"z": -2.3216522417,
				"element": "C" 
			},
			{
				"x": -1.822559073,
				"y": -1.2404871355,
				"z": -2.9299305023,
				"element": "O" 
			},
			{
				"x": -0.9317679765,
				"y": -0.1481892137,
				"z": -1.0338776229,
				"element": "C" 
			},
			{
				"x": -0.6050017677,
				"y": 0.8927065374,
				"z": -0.1882669312,
				"element": "C" 
			},
			{
				"x": 0.0771176988,
				"y": 0.3219431863,
				"z": 0.9295489907,
				"element": "C" 
			},
			{
				"x": 0.1359194354,
				"y": -1.0852780177,
				"z": 0.7057972706,
				"element": "C" 
			},
			{
				"x": -0.4827545487,
				"y": -1.3391639496,
				"z": -0.4916950557,
				"element": "N" 
			},
			{
				"x": 0.7467925124,
				"y": -1.9506991096,
				"z": 1.6246889443,
				"element": "C" 
			},
			{
				"x": 1.2954907431,
				"y": -1.3883472555,
				"z": 2.765496391,
				"element": "C" 
			},
			{
				"x": 1.2566235475,
				"y": 0.0090255046,
				"z": 3.0230558116,
				"element": "C" 
			},
			{
				"x": 1.8775493704,
				"y": 0.5486120713,
				"z": 4.2913221893,
				"element": "C" 
			},
			{
				"x": 0.6485519097,
				"y": 0.8532219358,
				"z": 2.1044052822,
				"element": "C" 
			},
			{
				"x": -1.0516292875,
				"y": 1.9904614928,
				"z": -5.065918815,
				"element": "H" 
			},
			{
				"x": -1.1381589144,
				"y": 0.2210297337,
				"z": -5.2338870925,
				"element": "H" 
			},
			{
				"x": -2.2772610086,
				"y": 1.2538999885,
				"z": -6.1170160205,
				"element": "H" 
			},
			{
				"x": -3.3206861989,
				"y": 1.9731796743,
				"z": -3.9522105501,
				"element": "H" 
			},
			{
				"x": -3.357412357,
				"y": 0.1956309133,
				"z": -4.0958981487,
				"element": "H" 
			},
			{
				"x": -0.8326739159,
				"y": 1.9340906744,
				"z": -0.3612229516,
				"element": "H" 
			},
			{
				"x": -0.6204722328,
				"y": -2.2278981527,
				"z": -0.9483950613,
				"element": "H" 
			},
			{
				"x": 0.7893957026,
				"y": -3.0219361106,
				"z": 1.4507923032,
				"element": "H" 
			},
			{
				"x": 1.7749953647,
				"y": -2.0378343498,
				"z": 3.4938004636,
				"element": "H" 
			},
			{
				"x": 1.4087573976,
				"y": 0.1164335641,
				"z": 5.1835092891,
				"element": "H" 
			},
			{
				"x": 2.9472116581,
				"y": 0.3134311427,
				"z": 4.346581543,
				"element": "H" 
			},
			{
				"x": 1.7728341924,
				"y": 1.6352851634,
				"z": 4.3546845826,
				"element": "H" 
			},
			{
				"x": 0.6118834504,
				"y": 1.9239066614,
				"z": 2.2893155701,
				"element": "H" 
			}
		],
		 "valence_orbital": [ 
			{
				"type": "occ",
				"energy": -0.29763,
				"method": "rhf"
			},
			{
				"type": "occ",
				"energy": -0.28036,
				"method": "rhf"
			},
			{
				"type": "occ",
				"energy": -0.27658,
				"method": "rhf"
			},
			{
				"type": "occ",
				"energy": -0.21839,
				"method": "rhf"
			},
			{
				"type": "occ",
				"energy": -0.20904,
				"method": "rhf"
			},
			{
				"type": "unocc",
				"energy": -0.04318,
				"method": "rhf"
			},
			{
				"type": "unocc",
				"energy": 0.0215,
				"method": "rhf"
			},
			{
				"type": "unocc",
				"energy": 0.02902,
				"method": "rhf"
			},
			{
				"type": "unocc",
				"energy": 0.09811,
				"method": "rhf"
			},
			{
				"type": "unocc",
				"energy": 0.10622,
				"method": "rhf"
			}
		],
		"cosmo_sigma_profile": { 
			"-0.025": 0.0,
			"-0.024": 0.0,
			"-0.023": 0.0,
			"-0.022": 0.0,
			"-0.021": 0.0,
			"-0.02": 0.0,
			"-0.019": 0.0,
			"-0.018": 0.0,
			"-0.017": 0.0,
			"-0.016": 0.0357664460446,
			"-0.015": 0.51682486949,
			"-0.014": 1.06534531069,
			"-0.013": 0.843812625117,
			"-0.012": 1.03117622896,
			"-0.011": 0.67085551072,
			"-0.01": 0.80596262202,
			"-0.009": 0.948660888543,
			"-0.008": 1.02708120007,
			"-0.007": 2.30507674055,
			"-0.006": 6.42377060026,
			"-0.005": 11.8692685572,
			"-0.004": 23.3441209083,
			"-0.003": 25.0676298754,
			"-0.002": 25.9993111661,
			"-0.001": 23.8848774352,
			"0.0": 24.169769254,
			"0.001": 18.2940762966,
			"0.002": 13.0780200953,
			"0.003": 16.9694077042,
			"0.004": 15.4767311421,
			"0.005": 16.1346651128,
			"0.006": 10.5341478336,
			"0.007": 3.79159311016,
			"0.008": 1.1980264499,
			"0.009": 1.08653910967,
			"0.01": 2.05718586326,
			"0.011": 2.22978690682,
			"0.012": 3.45098888568,
			"0.013": 0.236499919232,
			"0.014": 0.0,
			"0.015": 0.0,
			"0.016": 0.0,
			"0.017": 0.0,
			"0.018": 0.0,
			"0.019": 0.0,
			"0.02": 0.0,
			"0.021": 0.0,
			"0.022": 0.0,
			"0.023": 0.0,
			"0.024": 0.0,
			"0.025": 0.0
		}
	}
}
