{
	 "smiles": "OC(=O)C1=C(Cl)C=C(Cl)C(=C1)S(=O)(=O)NCC1=CN=CC=C1", 
	 "Tm": 519.15, 
	 "num_atms": 32, 
	 "gaussian": { 
		 "optdone": 1, 
		 "sigma_profile": "yes", 
		 "theory": "DFT", 
		 "functional": "B3LYP", 
		 "basiset": "6-31G**", 
		 "properties": { 
			 "R2extent": 10743.1258, 
			 "electric_dipole_moment_norm": 6.20258781558, 
			 "electric_quadrupole_moment_norm": 16.430189299, 
			 "total_energy": -2230.29534966, 
			 "HOMO_LUMO_gap": 0.17388, 
			 "cosmo_polarized_energy": -23.99, 
			 "cosmo_cavitation_energy": 42.09, 
			 "cosmo_dispersion_energy": -30.33, 
			 "cosmo_repulsion_energy": 2.24, 
			 "cosmo_total_nonelectrostatic_energy": 13.99, 
			 "SMD_solvation_energy": 5.37 
		},
		"coords": [
			{
				"x": -2.4247494469,
				"y": -4.2158140126,
				"z": 3.0783351911,
				"element": "O" 
			},
			{
				"x": -2.3769129782,
				"y": -2.9803712202,
				"z": 2.553908351,
				"element": "C" 
			},
			{
				"x": -3.3962492416,
				"y": -2.3574949653,
				"z": 2.3702637838,
				"element": "O" 
			},
			{
				"x": -1.0295809138,
				"y": -2.3624459061,
				"z": 2.2181717245,
				"element": "C" 
			},
			{
				"x": 0.2302485717,
				"y": -2.9740533267,
				"z": 2.1220744964,
				"element": "C" 
			},
			{
				"x": 0.4849103214,
				"y": -4.6984491395,
				"z": 2.4007750923,
				"element": "Cl" 
			},
			{
				"x": 1.3734202209,
				"y": -2.2532193686,
				"z": 1.7783999308,
				"element": "C" 
			},
			{
				"x": 1.2870519768,
				"y": -0.8864363211,
				"z": 1.5281940744,
				"element": "C" 
			},
			{
				"x": 2.7582746695,
				"y": -0.0567214022,
				"z": 1.1029419253,
				"element": "Cl" 
			},
			{
				"x": 0.0442962221,
				"y": -0.2405170297,
				"z": 1.6141730282,
				"element": "C" 
			},
			{
				"x": -1.0800151363,
				"y": -0.9847508086,
				"z": 1.9515449393,
				"element": "C" 
			},
			{
				"x": -0.1975461447,
				"y": 1.5397575426,
				"z": 1.3752737599,
				"element": "S" 
			},
			{
				"x": 0.7786449826,
				"y": 2.2542010567,
				"z": 2.1953252461,
				"element": "O" 
			},
			{
				"x": -1.6377117822,
				"y": 1.7659307877,
				"z": 1.5197338535,
				"element": "O" 
			},
			{
				"x": 0.2209494102,
				"y": 1.7530666318,
				"z": -0.2451048446,
				"element": "N" 
			},
			{
				"x": 1.129176372,
				"y": 2.8715762084,
				"z": -0.5902865008,
				"element": "C" 
			},
			{
				"x": 1.5126345103,
				"y": 2.7835338123,
				"z": -2.0491515714,
				"element": "C" 
			},
			{
				"x": 1.2539770352,
				"y": 3.848371211,
				"z": -2.9190664592,
				"element": "C" 
			},
			{
				"x": 1.5771287336,
				"y": 3.8573716657,
				"z": -4.2179458573,
				"element": "N" 
			},
			{
				"x": 2.1817051681,
				"y": 2.7689264366,
				"z": -4.705189962,
				"element": "C" 
			},
			{
				"x": 2.4831032225,
				"y": 1.644030745,
				"z": -3.9321858437,
				"element": "C" 
			},
			{
				"x": 2.1418437469,
				"y": 1.6523281751,
				"z": -2.5833693209,
				"element": "C" 
			},
			{
				"x": -1.5421697235,
				"y": -4.6084258404,
				"z": 3.1706680267,
				"element": "H" 
			},
			{
				"x": 2.3302137573,
				"y": -2.7551882055,
				"z": 1.7056142279,
				"element": "H" 
			},
			{
				"x": -2.0454315695,
				"y": -0.4952588622,
				"z": 2.0124693951,
				"element": "H" 
			},
			{
				"x": -0.6345914512,
				"y": 1.7526590701,
				"z": -0.7970093458,
				"element": "H" 
			},
			{
				"x": 0.6744251798,
				"y": 3.8480491004,
				"z": -0.3833007402,
				"element": "H" 
			},
			{
				"x": 2.0063546716,
				"y": 2.7807064828,
				"z": 0.0543891837,
				"element": "H" 
			},
			{
				"x": 0.7598515547,
				"y": 4.7445677181,
				"z": -2.5436075636,
				"element": "H" 
			},
			{
				"x": 2.4358917498,
				"y": 2.7935970141,
				"z": -5.7634330291,
				"element": "H" 
			},
			{
				"x": 2.9739991484,
				"y": 0.7862616366,
				"z": -4.3813369766,
				"element": "H" 
			},
			{
				"x": 2.3525571624,
				"y": 0.7977111136,
				"z": -1.9470682148,
				"element": "H" 
			}
		],
		 "valence_orbital": [ 
			{
				"type": "occ",
				"energy": -0.29522,
				"method": "rhf"
			},
			{
				"type": "occ",
				"energy": -0.28908,
				"method": "rhf"
			},
			{
				"type": "occ",
				"energy": -0.28288,
				"method": "rhf"
			},
			{
				"type": "occ",
				"energy": -0.26993,
				"method": "rhf"
			},
			{
				"type": "occ",
				"energy": -0.26341,
				"method": "rhf"
			},
			{
				"type": "unocc",
				"energy": -0.08953,
				"method": "rhf"
			},
			{
				"type": "unocc",
				"energy": -0.06607,
				"method": "rhf"
			},
			{
				"type": "unocc",
				"energy": -0.03901,
				"method": "rhf"
			},
			{
				"type": "unocc",
				"energy": -0.03196,
				"method": "rhf"
			},
			{
				"type": "unocc",
				"energy": -0.02494,
				"method": "rhf"
			}
		],
		"cosmo_sigma_profile": { 
			"-0.025": 0.0,
			"-0.024": 0.0,
			"-0.023": 0.0,
			"-0.022": 0.0,
			"-0.021": 0.0,
			"-0.02": 0.0,
			"-0.019": 0.0,
			"-0.018": 0.0,
			"-0.017": 0.0,
			"-0.016": 0.0,
			"-0.015": 0.782234183529,
			"-0.014": 1.57762696308,
			"-0.013": 1.68108730466,
			"-0.012": 2.42059059534,
			"-0.011": 3.0201922518,
			"-0.01": 3.4155073756,
			"-0.009": 3.66790251909,
			"-0.008": 4.69308556086,
			"-0.007": 11.6212257285,
			"-0.006": 18.6841315567,
			"-0.005": 18.3789647632,
			"-0.004": 22.2629183156,
			"-0.003": 33.4814094605,
			"-0.002": 33.2542225482,
			"-0.001": 22.2352234568,
			"0.0": 19.4133615809,
			"0.001": 22.5385595713,
			"0.002": 27.0137168252,
			"0.003": 13.425082469,
			"0.004": 8.31978663284,
			"0.005": 7.52735248556,
			"0.006": 6.38501629321,
			"0.007": 6.61370658629,
			"0.008": 8.74907620428,
			"0.009": 10.885350223,
			"0.01": 14.655107124,
			"0.011": 8.83578421556,
			"0.012": 3.29161429073,
			"0.013": 1.24683724181,
			"0.014": 0.518216371198,
			"0.015": 1.13905525353,
			"0.016": 0.755106493694,
			"0.017": 0.293630720376,
			"0.018": 0.0,
			"0.019": 0.0,
			"0.02": 0.0,
			"0.021": 0.0,
			"0.022": 0.0,
			"0.023": 0.0,
			"0.024": 0.0,
			"0.025": 0.0
		}
	}
}
