{
	 "smiles": "CC(C)(C)CC(C)(C)C1=CC(CC2=C(Cl)C=C(Cl)C=C2)=C(O)C=C1", 
	 "Tm": 351.15, 
	 "num_atms": 50, 
	 "gaussian": { 
		 "optdone": 1, 
		 "sigma_profile": "yes", 
		 "theory": "DFT", 
		 "functional": "B3LYP", 
		 "basiset": "6-31G**", 
		 "properties": { 
			 "R2extent": 15173.4556, 
			 "electric_dipole_moment_norm": 3.36021218526, 
			 "electric_quadrupole_moment_norm": 20.3476138422, 
			 "total_energy": -1811.53503213, 
			 "HOMO_LUMO_gap": 0.19702, 
			 "cosmo_polarized_energy": -9.55, 
			 "cosmo_cavitation_energy": 52.3, 
			 "cosmo_dispersion_energy": -34.69, 
			 "cosmo_repulsion_energy": 2.63, 
			 "cosmo_total_nonelectrostatic_energy": 20.24, 
			 "SMD_solvation_energy": 8.21 
		},
		"coords": [
			{
				"x": 0.049243921,
				"y": -3.5401889654,
				"z": -0.7452316894,
				"element": "C" 
			},
			{
				"x": 0.00728793,
				"y": -2.2720883249,
				"z": -1.6309183349,
				"element": "C" 
			},
			{
				"x": 1.2142672409,
				"y": -2.3229965195,
				"z": -2.5872796773,
				"element": "C" 
			},
			{
				"x": -1.2979478995,
				"y": -2.3300113417,
				"z": -2.4541434361,
				"element": "C" 
			},
			{
				"x": 0.0302195926,
				"y": -1.064557242,
				"z": -0.6371173278,
				"element": "C" 
			},
			{
				"x": 0.2689256824,
				"y": 0.4350159478,
				"z": -1.0423200006,
				"element": "C" 
			},
			{
				"x": -0.620084254,
				"y": 0.8770157971,
				"z": -2.2203389464,
				"element": "C" 
			},
			{
				"x": 1.7414290534,
				"y": 0.7087883553,
				"z": -1.4411676384,
				"element": "C" 
			},
			{
				"x": -0.0499259688,
				"y": 1.2607010711,
				"z": 0.2264322752,
				"element": "C" 
			},
			{
				"x": 0.7812427166,
				"y": 1.1730157658,
				"z": 1.3566383281,
				"element": "C" 
			},
			{
				"x": 0.5404366779,
				"y": 1.868939656,
				"z": 2.5429576275,
				"element": "C" 
			},
			{
				"x": 1.4738318974,
				"y": 1.7396540445,
				"z": 3.7380527785,
				"element": "C" 
			},
			{
				"x": 1.0964271039,
				"y": 0.6104978775,
				"z": 4.6849614996,
				"element": "C" 
			},
			{
				"x": 1.7242244949,
				"y": -0.6432485186,
				"z": 4.6919635549,
				"element": "C" 
			},
			{
				"x": 3.0465007779,
				"y": -1.0040647872,
				"z": 3.5780711664,
				"element": "Cl" 
			},
			{
				"x": 1.3546239606,
				"y": -1.6635420502,
				"z": 5.5708501751,
				"element": "C" 
			},
			{
				"x": 0.3206106865,
				"y": -1.4273887193,
				"z": 6.4708807726,
				"element": "C" 
			},
			{
				"x": -0.1556432165,
				"y": -2.701702235,
				"z": 7.5828482067,
				"element": "Cl" 
			},
			{
				"x": -0.3360219429,
				"y": -0.1983261313,
				"z": 6.5023784995,
				"element": "C" 
			},
			{
				"x": 0.0605014253,
				"y": 0.7976591374,
				"z": 5.6147862494,
				"element": "C" 
			},
			{
				"x": -0.5908662818,
				"y": 2.6996224583,
				"z": 2.6029549765,
				"element": "C" 
			},
			{
				"x": -0.819841583,
				"y": 3.3896163721,
				"z": 3.7702894561,
				"element": "O" 
			},
			{
				"x": -1.4345859087,
				"y": 2.8111137,
				"z": 1.4996786742,
				"element": "C" 
			},
			{
				"x": -1.1676654748,
				"y": 2.0971992618,
				"z": 0.3301757184,
				"element": "C" 
			},
			{
				"x": -0.7792087962,
				"y": -3.5517199468,
				"z": -0.0278782818,
				"element": "H" 
			},
			{
				"x": 0.9837428344,
				"y": -3.597878047,
				"z": -0.1760355776,
				"element": "H" 
			},
			{
				"x": -0.0268326292,
				"y": -4.4455533046,
				"z": -1.3579249012,
				"element": "H" 
			},
			{
				"x": 1.2190874351,
				"y": -3.2725903666,
				"z": -3.1351528499,
				"element": "H" 
			},
			{
				"x": 2.1628958449,
				"y": -2.2501953097,
				"z": -2.0446766975,
				"element": "H" 
			},
			{
				"x": 1.1872347678,
				"y": -1.5221886101,
				"z": -3.3320123581,
				"element": "H" 
			},
			{
				"x": -1.3457428148,
				"y": -3.267415747,
				"z": -3.0204679652,
				"element": "H" 
			},
			{
				"x": -1.3811342215,
				"y": -1.5122448877,
				"z": -3.1729902206,
				"element": "H" 
			},
			{
				"x": -2.1775919778,
				"y": -2.2944469467,
				"z": -1.8011413768,
				"element": "H" 
			},
			{
				"x": -0.9282028382,
				"y": -1.0953966342,
				"z": -0.1025220413,
				"element": "H" 
			},
			{
				"x": 0.7877582412,
				"y": -1.2941317211,
				"z": 0.1228019577,
				"element": "H" 
			},
			{
				"x": -1.6773966221,
				"y": 0.6483038192,
				"z": -2.0561661258,
				"element": "H" 
			},
			{
				"x": -0.5277975216,
				"y": 1.9548620617,
				"z": -2.3924353036,
				"element": "H" 
			},
			{
				"x": -0.312554501,
				"y": 0.3760227609,
				"z": -3.1412238605,
				"element": "H" 
			},
			{
				"x": 1.9102523088,
				"y": 1.7863103472,
				"z": -1.5400934055,
				"element": "H" 
			},
			{
				"x": 1.9916732585,
				"y": 0.2443675932,
				"z": -2.3969153592,
				"element": "H" 
			},
			{
				"x": 2.4481223427,
				"y": 0.3296696743,
				"z": -0.6974470022,
				"element": "H" 
			},
			{
				"x": 1.6608584242,
				"y": 0.5378189135,
				"z": 1.3263508793,
				"element": "H" 
			},
			{
				"x": 2.493876192,
				"y": 1.5901464739,
				"z": 3.3787615737,
				"element": "H" 
			},
			{
				"x": 1.4613719328,
				"y": 2.6768835779,
				"z": 4.3012701545,
				"element": "H" 
			},
			{
				"x": 1.8658433394,
				"y": -2.6178721195,
				"z": 5.5497523266,
				"element": "H" 
			},
			{
				"x": -1.1387124726,
				"y": -0.025373138,
				"z": 7.2102553828,
				"element": "H" 
			},
			{
				"x": -0.4476365473,
				"y": 1.7566413225,
				"z": 5.625078089,
				"element": "H" 
			},
			{
				"x": -1.6039778979,
				"y": 3.941975712,
				"z": 3.6574120644,
				"element": "H" 
			},
			{
				"x": -2.3077145239,
				"y": 3.4594697754,
				"z": 1.5504807321,
				"element": "H" 
			},
			{
				"x": -1.851504189,
				"y": 2.2118101375,
				"z": -0.5025827411,
				"element": "H" 
			}
		],
		 "valence_orbital": [ 
			{
				"type": "occ",
				"energy": -0.29246,
				"method": "rhf"
			},
			{
				"type": "occ",
				"energy": -0.25695,
				"method": "rhf"
			},
			{
				"type": "occ",
				"energy": -0.24793,
				"method": "rhf"
			},
			{
				"type": "occ",
				"energy": -0.23925,
				"method": "rhf"
			},
			{
				"type": "occ",
				"energy": -0.21675,
				"method": "rhf"
			},
			{
				"type": "unocc",
				"energy": -0.01973,
				"method": "rhf"
			},
			{
				"type": "unocc",
				"energy": -0.01892,
				"method": "rhf"
			},
			{
				"type": "unocc",
				"energy": -0.00129,
				"method": "rhf"
			},
			{
				"type": "unocc",
				"energy": 0.00888,
				"method": "rhf"
			},
			{
				"type": "unocc",
				"energy": 0.01635,
				"method": "rhf"
			}
		],
		"cosmo_sigma_profile": { 
			"-0.025": 0.0,
			"-0.024": 0.0,
			"-0.023": 0.0,
			"-0.022": 0.0,
			"-0.021": 0.0,
			"-0.02": 0.0,
			"-0.019": 0.0,
			"-0.018": 0.235851137633,
			"-0.017": 1.03902605145,
			"-0.016": 0.788198474853,
			"-0.015": 1.11960961918,
			"-0.014": 1.53522658394,
			"-0.013": 0.516252010821,
			"-0.012": 0.900704645794,
			"-0.011": 0.77202665277,
			"-0.01": 1.03437644846,
			"-0.009": 1.57742282431,
			"-0.008": 2.66183497641,
			"-0.007": 3.97891035907,
			"-0.006": 4.7568100693,
			"-0.005": 8.56812877885,
			"-0.004": 13.5147549566,
			"-0.003": 24.423688306,
			"-0.002": 46.1859205187,
			"-0.001": 55.8698275794,
			"0.0": 48.3312731222,
			"0.001": 56.4998449574,
			"0.002": 55.4203645938,
			"0.003": 32.5376683823,
			"0.004": 26.3234109168,
			"0.005": 13.6445419332,
			"0.006": 7.8283942707,
			"0.007": 2.48758733207,
			"0.008": 0.790416056918,
			"0.009": 0.90332609983,
			"0.01": 0.0887965701633,
			"0.011": 0.0,
			"0.012": 0.0,
			"0.013": 0.0,
			"0.014": 0.0,
			"0.015": 0.0,
			"0.016": 0.0,
			"0.017": 0.0,
			"0.018": 0.0,
			"0.019": 0.0,
			"0.02": 0.0,
			"0.021": 0.0,
			"0.022": 0.0,
			"0.023": 0.0,
			"0.024": 0.0,
			"0.025": 0.0
		}
	}
}
