{
	 "smiles": "O=CC1=NC2=CC=CC=C2S1", 
	 "Tm": 347.15, 
	 "num_atms": 16, 
	 "gaussian": { 
		 "optdone": 1, 
		 "sigma_profile": "yes", 
		 "theory": "DFT", 
		 "functional": "B3LYP", 
		 "basiset": "6-31G**", 
		 "properties": { 
			 "R2extent": 2066.6885, 
			 "electric_dipole_moment_norm": 3.60082589693, 
			 "electric_quadrupole_moment_norm": 4.79867658006, 
			 "total_energy": -836.018929228, 
			 "HOMO_LUMO_gap": 0.15702, 
			 "cosmo_polarized_energy": -7.49, 
			 "cosmo_cavitation_energy": 22.65, 
			 "cosmo_dispersion_energy": -17.37, 
			 "cosmo_repulsion_energy": 1.33, 
			 "cosmo_total_nonelectrostatic_energy": 6.6, 
			 "SMD_solvation_energy": 2.82 
		},
		"coords": [
			{
				"x": 0.3125339981,
				"y": -0.2395070452,
				"z": 3.4080130589,
				"element": "O" 
			},
			{
				"x": -0.1605772241,
				"y": -0.9520782243,
				"z": 2.5451586112,
				"element": "C" 
			},
			{
				"x": 0.0009723435,
				"y": -0.6991007824,
				"z": 1.1002938876,
				"element": "C" 
			},
			{
				"x": -0.5103127848,
				"y": -1.4692392354,
				"z": 0.184768421,
				"element": "N" 
			},
			{
				"x": -0.2038278718,
				"y": -0.9975252568,
				"z": -1.0736530627,
				"element": "C" 
			},
			{
				"x": -0.6044205349,
				"y": -1.5981707527,
				"z": -2.2806246228,
				"element": "C" 
			},
			{
				"x": -0.2222289701,
				"y": -1.0119734236,
				"z": -3.4770334135,
				"element": "C" 
			},
			{
				"x": 0.5537353016,
				"y": 0.1646312137,
				"z": -3.4899217146,
				"element": "C" 
			},
			{
				"x": 0.9614144949,
				"y": 0.7761694537,
				"z": -2.3094061824,
				"element": "C" 
			},
			{
				"x": 0.5786310315,
				"y": 0.1890300268,
				"z": -1.0984816192,
				"element": "C" 
			},
			{
				"x": 0.9233762372,
				"y": 0.7027187906,
				"z": 0.5359749509,
				"element": "S" 
			},
			{
				"x": -0.7571629905,
				"y": -1.8578850299,
				"z": 2.7690110279,
				"element": "H" 
			},
			{
				"x": -1.201375481,
				"y": -2.5034550009,
				"z": -2.2494330839,
				"element": "H" 
			},
			{
				"x": -0.5224241026,
				"y": -1.4618447475,
				"z": -4.4182478506,
				"element": "H" 
			},
			{
				"x": 0.8398190257,
				"y": 0.603702413,
				"z": -4.4410077106,
				"element": "H" 
			},
			{
				"x": 1.5586475273,
				"y": 1.681827601,
				"z": -2.3300106974,
				"element": "H" 
			}
		],
		 "valence_orbital": [ 
			{
				"type": "occ",
				"energy": -0.31773,
				"method": "rhf"
			},
			{
				"type": "occ",
				"energy": -0.30046,
				"method": "rhf"
			},
			{
				"type": "occ",
				"energy": -0.27235,
				"method": "rhf"
			},
			{
				"type": "occ",
				"energy": -0.25677,
				"method": "rhf"
			},
			{
				"type": "occ",
				"energy": -0.24935,
				"method": "rhf"
			},
			{
				"type": "unocc",
				"energy": -0.09233,
				"method": "rhf"
			},
			{
				"type": "unocc",
				"energy": -0.02046,
				"method": "rhf"
			},
			{
				"type": "unocc",
				"energy": -0.00299,
				"method": "rhf"
			},
			{
				"type": "unocc",
				"energy": 0.00602,
				"method": "rhf"
			},
			{
				"type": "unocc",
				"energy": 0.05151,
				"method": "rhf"
			}
		],
		"cosmo_sigma_profile": { 
			"-0.025": 0.0,
			"-0.024": 0.0,
			"-0.023": 0.0,
			"-0.022": 0.0,
			"-0.021": 0.0,
			"-0.02": 0.0,
			"-0.019": 0.0,
			"-0.018": 0.0,
			"-0.017": 0.0,
			"-0.016": 0.0,
			"-0.015": 0.0,
			"-0.014": 0.0,
			"-0.013": 0.0,
			"-0.012": 0.0,
			"-0.011": 0.0,
			"-0.01": 0.0,
			"-0.009": 0.0258069786497,
			"-0.008": 4.08659412794,
			"-0.007": 9.26095628725,
			"-0.006": 11.8182514376,
			"-0.005": 13.0283729967,
			"-0.004": 10.678510956,
			"-0.003": 10.7966393634,
			"-0.002": 13.1356005495,
			"-0.001": 10.3216992729,
			"0.0": 16.3113981387,
			"0.001": 18.5719326077,
			"0.002": 20.471585278,
			"0.003": 14.943396766,
			"0.004": 7.80329140223,
			"0.005": 2.22016670218,
			"0.006": 2.79017986962,
			"0.007": 3.06070978542,
			"0.008": 2.76696716822,
			"0.009": 4.22974454949,
			"0.01": 4.95730126502,
			"0.011": 2.66452939025,
			"0.012": 0.990621350476,
			"0.013": 0.610731924583,
			"0.014": 0.00656816209409,
			"0.015": 0.0,
			"0.016": 0.0,
			"0.017": 0.0,
			"0.018": 0.0,
			"0.019": 0.0,
			"0.02": 0.0,
			"0.021": 0.0,
			"0.022": 0.0,
			"0.023": 0.0,
			"0.024": 0.0,
			"0.025": 0.0
		}
	}
}
