{
	 "smiles": "CCOCCOC(=O)CCCCCCCCC(=O)OCCOCC", 
	 "Tm": 272.15, 
	 "num_atms": 58, 
	 "gaussian": { 
		 "optdone": 1, 
		 "sigma_profile": "yes", 
		 "theory": "DFT", 
		 "functional": "B3LYP", 
		 "basiset": "6-31G**", 
		 "properties": { 
			 "R2extent": 13457.6473, 
			 "electric_dipole_moment_norm": 2.24638228937, 
			 "electric_quadrupole_moment_norm": 19.1854431317, 
			 "total_energy": -1157.77897442, 
			 "HOMO_LUMO_gap": 0.26472, 
			 "cosmo_polarized_energy": -15.14, 
			 "cosmo_cavitation_energy": 59.35, 
			 "cosmo_dispersion_energy": -36.42, 
			 "cosmo_repulsion_energy": 2.89, 
			 "cosmo_total_nonelectrostatic_energy": 25.83, 
			 "SMD_solvation_energy": 10.82 
		},
		"coords": [
			{
				"x": -0.2602334627,
				"y": -1.833932966,
				"z": -2.5266655661,
				"element": "C" 
			},
			{
				"x": -1.4799166382,
				"y": -1.5123819132,
				"z": -1.6798849866,
				"element": "C" 
			},
			{
				"x": -1.0339572398,
				"y": -1.1334537869,
				"z": -0.3753928297,
				"element": "O" 
			},
			{
				"x": -2.0309516124,
				"y": -0.5678948944,
				"z": 0.4515960537,
				"element": "C" 
			},
			{
				"x": -3.074008314,
				"y": -1.5545094813,
				"z": 0.9726873852,
				"element": "C" 
			},
			{
				"x": -2.4635251707,
				"y": -2.5209913536,
				"z": 1.8456356248,
				"element": "O" 
			},
			{
				"x": -2.2198358161,
				"y": -3.7589058411,
				"z": 1.3428481146,
				"element": "C" 
			},
			{
				"x": -2.5556391169,
				"y": -4.1192006039,
				"z": 0.2342161855,
				"element": "O" 
			},
			{
				"x": -1.4752219179,
				"y": -4.6038116574,
				"z": 2.35707494,
				"element": "C" 
			},
			{
				"x": -0.0471699034,
				"y": -4.0758744666,
				"z": 2.6115207097,
				"element": "C" 
			},
			{
				"x": 0.8713873266,
				"y": -4.210889188,
				"z": 1.3874556339,
				"element": "C" 
			},
			{
				"x": 2.1976591213,
				"y": -3.4404930594,
				"z": 1.4972644823,
				"element": "C" 
			},
			{
				"x": 2.0191913502,
				"y": -1.9139835452,
				"z": 1.4823248948,
				"element": "C" 
			},
			{
				"x": 3.333374995,
				"y": -1.1402168821,
				"z": 1.3117444857,
				"element": "C" 
			},
			{
				"x": 3.1604762176,
				"y": 0.3863003816,
				"z": 1.2588272589,
				"element": "C" 
			},
			{
				"x": 2.4177333763,
				"y": 0.875106666,
				"z": 0.0108055966,
				"element": "C" 
			},
			{
				"x": 2.2825032848,
				"y": 2.3821964012,
				"z": -0.0456323646,
				"element": "C" 
			},
			{
				"x": 2.6419506295,
				"y": 3.1601683002,
				"z": 0.8122045399,
				"element": "O" 
			},
			{
				"x": 1.6916148969,
				"y": 2.7661701256,
				"z": -1.2069969514,
				"element": "O" 
			},
			{
				"x": 1.5291703798,
				"y": 4.1830207733,
				"z": -1.4110559178,
				"element": "C" 
			},
			{
				"x": 0.2541415656,
				"y": 4.6883214318,
				"z": -0.7439816452,
				"element": "C" 
			},
			{
				"x": 0.082421031,
				"y": 6.0264913,
				"z": -1.1709724959,
				"element": "O" 
			},
			{
				"x": -0.8802158947,
				"y": 6.7689827051,
				"z": -0.4349467892,
				"element": "C" 
			},
			{
				"x": -2.3246760617,
				"y": 6.3814435689,
				"z": -0.7480507823,
				"element": "C" 
			},
			{
				"x": -0.5691393888,
				"y": -2.1277331938,
				"z": -3.5348462951,
				"element": "H" 
			},
			{
				"x": 0.30491285,
				"y": -2.6617686897,
				"z": -2.0886339195,
				"element": "H" 
			},
			{
				"x": 0.4000487077,
				"y": -0.9651414475,
				"z": -2.6044129174,
				"element": "H" 
			},
			{
				"x": -2.1396285643,
				"y": -2.3868816692,
				"z": -1.6136166028,
				"element": "H" 
			},
			{
				"x": -2.0508201409,
				"y": -0.6820976174,
				"z": -2.1273536729,
				"element": "H" 
			},
			{
				"x": -2.5633382228,
				"y": 0.2436134695,
				"z": -0.074290589,
				"element": "H" 
			},
			{
				"x": -1.5010090563,
				"y": -0.1289354285,
				"z": 1.3029438803,
				"element": "H" 
			},
			{
				"x": -3.8051329961,
				"y": -1.0135189427,
				"z": 1.5817787861,
				"element": "H" 
			},
			{
				"x": -3.5921943405,
				"y": -2.0745034199,
				"z": 0.1648058544,
				"element": "H" 
			},
			{
				"x": -1.4551190546,
				"y": -5.6280846387,
				"z": 1.9756347126,
				"element": "H" 
			},
			{
				"x": -2.0428410919,
				"y": -4.5930824427,
				"z": 3.294302743,
				"element": "H" 
			},
			{
				"x": 0.384377762,
				"y": -4.6233652915,
				"z": 3.4586138426,
				"element": "H" 
			},
			{
				"x": -0.1228167084,
				"y": -3.0289778858,
				"z": 2.921392479,
				"element": "H" 
			},
			{
				"x": 1.0759181228,
				"y": -5.2759963672,
				"z": 1.2156934854,
				"element": "H" 
			},
			{
				"x": 0.3401569187,
				"y": -3.8558764973,
				"z": 0.4949420898,
				"element": "H" 
			},
			{
				"x": 2.8346239341,
				"y": -3.7291102539,
				"z": 0.6501271721,
				"element": "H" 
			},
			{
				"x": 2.7412520077,
				"y": -3.7482198128,
				"z": 2.4021504111,
				"element": "H" 
			},
			{
				"x": 1.3219437749,
				"y": -1.6567665307,
				"z": 0.676036805,
				"element": "H" 
			},
			{
				"x": 1.5373058005,
				"y": -1.5827951981,
				"z": 2.4123652695,
				"element": "H" 
			},
			{
				"x": 3.8404225117,
				"y": -1.4806344584,
				"z": 0.396940339,
				"element": "H" 
			},
			{
				"x": 4.0094781225,
				"y": -1.3887473178,
				"z": 2.1406938739,
				"element": "H" 
			},
			{
				"x": 2.6285549765,
				"y": 0.7335065057,
				"z": 2.1527983493,
				"element": "H" 
			},
			{
				"x": 4.1431455873,
				"y": 0.8697680133,
				"z": 1.2923034626,
				"element": "H" 
			},
			{
				"x": 2.9314063583,
				"y": 0.5526532652,
				"z": -0.9044124588,
				"element": "H" 
			},
			{
				"x": 1.4081817173,
				"y": 0.4513601183,
				"z": -0.0611371074,
				"element": "H" 
			},
			{
				"x": 2.3975603529,
				"y": 4.7194330615,
				"z": -1.0233606637,
				"element": "H" 
			},
			{
				"x": 1.4625257913,
				"y": 4.3186313675,
				"z": -2.4924816199,
				"element": "H" 
			},
			{
				"x": 0.3592430768,
				"y": 4.631646527,
				"z": 0.3496615782,
				"element": "H" 
			},
			{
				"x": -0.590276278,
				"y": 4.0474318521,
				"z": -1.041404541,
				"element": "H" 
			},
			{
				"x": -0.6842601703,
				"y": 6.6716368945,
				"z": 0.6453473989,
				"element": "H" 
			},
			{
				"x": -0.7070246305,
				"y": 7.8151341452,
				"z": -0.708111821,
				"element": "H" 
			},
			{
				"x": -3.0165036551,
				"y": 7.0455788765,
				"z": -0.2187735566,
				"element": "H" 
			},
			{
				"x": -2.51876026,
				"y": 6.4663309687,
				"z": -1.8216615501,
				"element": "H" 
			},
			{
				"x": -2.5486668411,
				"y": 5.3555500236,
				"z": -0.4390607945,
				"element": "H" 
			}
		],
		 "valence_orbital": [ 
			{
				"type": "occ",
				"energy": -0.29187,
				"method": "rhf"
			},
			{
				"type": "occ",
				"energy": -0.26925,
				"method": "rhf"
			},
			{
				"type": "occ",
				"energy": -0.26723,
				"method": "rhf"
			},
			{
				"type": "occ",
				"energy": -0.26047,
				"method": "rhf"
			},
			{
				"type": "occ",
				"energy": -0.25478,
				"method": "rhf"
			},
			{
				"type": "unocc",
				"energy": 0.00994,
				"method": "rhf"
			},
			{
				"type": "unocc",
				"energy": 0.01754,
				"method": "rhf"
			},
			{
				"type": "unocc",
				"energy": 0.07319,
				"method": "rhf"
			},
			{
				"type": "unocc",
				"energy": 0.08501,
				"method": "rhf"
			},
			{
				"type": "unocc",
				"energy": 0.09438,
				"method": "rhf"
			}
		],
		"cosmo_sigma_profile": { 
			"-0.025": 0.0,
			"-0.024": 0.0,
			"-0.023": 0.0,
			"-0.022": 0.0,
			"-0.021": 0.0,
			"-0.02": 0.0,
			"-0.019": 0.0,
			"-0.018": 0.0,
			"-0.017": 0.0,
			"-0.016": 0.0,
			"-0.015": 0.0,
			"-0.014": 0.0,
			"-0.013": 0.0,
			"-0.012": 0.0,
			"-0.011": 0.0,
			"-0.01": 0.0,
			"-0.009": 0.0,
			"-0.008": 0.0,
			"-0.007": 0.636956627282,
			"-0.006": 6.52384237036,
			"-0.005": 20.6038681769,
			"-0.004": 34.7240793183,
			"-0.003": 58.8713852011,
			"-0.002": 73.1179166273,
			"-0.001": 62.5178544196,
			"0.0": 56.5414265052,
			"0.001": 38.9244019414,
			"0.002": 18.7486269558,
			"0.003": 14.3397587014,
			"0.004": 15.5199175466,
			"0.005": 11.724469601,
			"0.006": 6.72214627984,
			"0.007": 7.02783303679,
			"0.008": 5.42721070616,
			"0.009": 6.03600096751,
			"0.01": 4.58423209646,
			"0.011": 6.01707426606,
			"0.012": 7.94475335625,
			"0.013": 2.70503649637,
			"0.014": 0.0706854712556,
			"0.015": 0.0,
			"0.016": 0.0,
			"0.017": 0.0,
			"0.018": 0.0,
			"0.019": 0.0,
			"0.02": 0.0,
			"0.021": 0.0,
			"0.022": 0.0,
			"0.023": 0.0,
			"0.024": 0.0,
			"0.025": 0.0
		}
	}
}
