{
	 "smiles": "ClC1=CC=C(OC2=CC=C(Cl)C=C2)C=C1", 
	 "Tm": 303.15, 
	 "num_atms": 23, 
	 "gaussian": { 
		 "optdone": 1, 
		 "sigma_profile": "yes", 
		 "theory": "DFT", 
		 "functional": "B3LYP", 
		 "basiset": "6-31G**", 
		 "properties": { 
			 "R2extent": 6682.0015, 
			 "electric_dipole_moment_norm": 0.625056949405, 
			 "electric_quadrupole_moment_norm": 12.8696374164, 
			 "total_energy": -1457.69835855, 
			 "HOMO_LUMO_gap": 0.19715, 
			 "cosmo_polarized_energy": -6.42, 
			 "cosmo_cavitation_energy": 31.6, 
			 "cosmo_dispersion_energy": -23.24, 
			 "cosmo_repulsion_energy": 1.83, 
			 "cosmo_total_nonelectrostatic_energy": 10.19, 
			 "SMD_solvation_energy": 4.99 
		},
		"coords": [
			{
				"x": -4.1723955137,
				"y": -2.1358541222,
				"z": -0.14488964,
				"element": "Cl" 
			},
			{
				"x": -2.6017446927,
				"y": -1.5317516607,
				"z": 0.3638227336,
				"element": "C" 
			},
			{
				"x": -1.5684315653,
				"y": -2.4321879292,
				"z": 0.6225841737,
				"element": "C" 
			},
			{
				"x": -0.3224809597,
				"y": -1.948888125,
				"z": 1.0176958841,
				"element": "C" 
			},
			{
				"x": -0.1199531789,
				"y": -0.5744510927,
				"z": 1.1584911643,
				"element": "C" 
			},
			{
				"x": 1.1146685718,
				"y": -0.1756462902,
				"z": 1.6296017876,
				"element": "O" 
			},
			{
				"x": 1.7102805807,
				"y": 0.9793231851,
				"z": 1.1641896613,
				"element": "C" 
			},
			{
				"x": 2.4463368722,
				"y": 1.7213988234,
				"z": 2.0901730007,
				"element": "C" 
			},
			{
				"x": 3.1411526309,
				"y": 2.8568888974,
				"z": 1.6778747929,
				"element": "C" 
			},
			{
				"x": 3.0865145969,
				"y": 3.2448617435,
				"z": 0.3392329142,
				"element": "C" 
			},
			{
				"x": 3.952837359,
				"y": 4.6824088062,
				"z": -0.1838444249,
				"element": "Cl" 
			},
			{
				"x": 2.3546240213,
				"y": 2.506723728,
				"z": -0.5906864759,
				"element": "C" 
			},
			{
				"x": 1.6670926909,
				"y": 1.3656228807,
				"z": -0.1788264267,
				"element": "C" 
			},
			{
				"x": -1.1616034593,
				"y": 0.3240255199,
				"z": 0.9085503568,
				"element": "C" 
			},
			{
				"x": -2.4061148343,
				"y": -0.1579952258,
				"z": 0.504488872,
				"element": "C" 
			},
			{
				"x": -1.7341000205,
				"y": -3.4978909209,
				"z": 0.5110901463,
				"element": "H" 
			},
			{
				"x": 0.4992678531,
				"y": -2.6261388526,
				"z": 1.2242475228,
				"element": "H" 
			},
			{
				"x": 2.4701201659,
				"y": 1.3973173618,
				"z": 3.1250685322,
				"element": "H" 
			},
			{
				"x": 3.7152396558,
				"y": 3.4385235789,
				"z": 2.3904220213,
				"element": "H" 
			},
			{
				"x": 2.3288625684,
				"y": 2.8150948327,
				"z": -1.6299518178,
				"element": "H" 
			},
			{
				"x": 1.1055104602,
				"y": 0.7793637735,
				"z": -0.8977574115,
				"element": "H" 
			},
			{
				"x": -1.0045880462,
				"y": 1.3898786829,
				"z": 1.0319364798,
				"element": "H" 
			},
			{
				"x": -3.2213957564,
				"y": 0.5296724053,
				"z": 0.3088861531,
				"element": "H" 
			}
		],
		 "valence_orbital": [ 
			{
				"type": "occ",
				"energy": -0.31487,
				"method": "rhf"
			},
			{
				"type": "occ",
				"energy": -0.27543,
				"method": "rhf"
			},
			{
				"type": "occ",
				"energy": -0.27089,
				"method": "rhf"
			},
			{
				"type": "occ",
				"energy": -0.25235,
				"method": "rhf"
			},
			{
				"type": "occ",
				"energy": -0.22629,
				"method": "rhf"
			},
			{
				"type": "unocc",
				"energy": -0.02914,
				"method": "rhf"
			},
			{
				"type": "unocc",
				"energy": -0.02221,
				"method": "rhf"
			},
			{
				"type": "unocc",
				"energy": -0.01698,
				"method": "rhf"
			},
			{
				"type": "unocc",
				"energy": -0.00506,
				"method": "rhf"
			},
			{
				"type": "unocc",
				"energy": 0.02614,
				"method": "rhf"
			}
		],
		"cosmo_sigma_profile": { 
			"-0.025": 0.0,
			"-0.024": 0.0,
			"-0.023": 0.0,
			"-0.022": 0.0,
			"-0.021": 0.0,
			"-0.02": 0.0,
			"-0.019": 0.0,
			"-0.018": 0.0,
			"-0.017": 0.0,
			"-0.016": 0.0,
			"-0.015": 0.0,
			"-0.014": 0.0,
			"-0.013": 0.0,
			"-0.012": 0.0,
			"-0.011": 0.0,
			"-0.01": 0.0,
			"-0.009": 0.0,
			"-0.008": 2.70103458679,
			"-0.007": 13.2350030062,
			"-0.006": 15.0308898242,
			"-0.005": 14.2072120587,
			"-0.004": 12.2397853876,
			"-0.003": 11.4244835379,
			"-0.002": 15.2638159686,
			"-0.001": 17.4668699233,
			"0.0": 18.0661575822,
			"0.001": 25.4073920801,
			"0.002": 34.9928576875,
			"0.003": 36.7377111126,
			"0.004": 21.4563273449,
			"0.005": 16.8192194654,
			"0.006": 1.48427289937,
			"0.007": 1.35866568982,
			"0.008": 1.05426190043,
			"0.009": 0.197773622311,
			"0.01": 0.0,
			"0.011": 0.0,
			"0.012": 0.0,
			"0.013": 0.0,
			"0.014": 0.0,
			"0.015": 0.0,
			"0.016": 0.0,
			"0.017": 0.0,
			"0.018": 0.0,
			"0.019": 0.0,
			"0.02": 0.0,
			"0.021": 0.0,
			"0.022": 0.0,
			"0.023": 0.0,
			"0.024": 0.0,
			"0.025": 0.0
		}
	}
}
