{
	 "smiles": "CCC1(C(=O)NC(=O)NC1=O)C1=CC2CCC(C2)C1", 
	 "Tm": 486.15, 
	 "num_atms": 37, 
	 "gaussian": { 
		 "optdone": 1, 
		 "sigma_profile": "yes", 
		 "theory": "DFT", 
		 "functional": "B3LYP", 
		 "basiset": "6-31G**", 
		 "properties": { 
			 "R2extent": 5247.8356, 
			 "electric_dipole_moment_norm": 1.16043999414, 
			 "electric_quadrupole_moment_norm": 9.80305558028, 
			 "total_energy": -879.556383167, 
			 "HOMO_LUMO_gap": 0.19486, 
			 "cosmo_polarized_energy": -16.58, 
			 "cosmo_cavitation_energy": 36.91, 
			 "cosmo_dispersion_energy": -25.84, 
			 "cosmo_repulsion_energy": 1.99, 
			 "cosmo_total_nonelectrostatic_energy": 13.06, 
			 "SMD_solvation_energy": 7.16 
		},
		"coords": [
			{
				"x": -2.8214460254,
				"y": -0.8424731895,
				"z": 0.256860158,
				"element": "C" 
			},
			{
				"x": -1.6640382271,
				"y": -1.4581870231,
				"z": -0.5373353508,
				"element": "C" 
			},
			{
				"x": -0.2440721746,
				"y": -1.4260869122,
				"z": 0.145000438,
				"element": "C" 
			},
			{
				"x": 0.6388498863,
				"y": -2.2664996922,
				"z": -0.8019729314,
				"element": "C" 
			},
			{
				"x": 1.1177303048,
				"y": -1.8248884484,
				"z": -1.8262323418,
				"element": "O" 
			},
			{
				"x": 0.7971890352,
				"y": -3.6109956147,
				"z": -0.4754700161,
				"element": "N" 
			},
			{
				"x": 0.4268232227,
				"y": -4.2552018005,
				"z": 0.6980826566,
				"element": "C" 
			},
			{
				"x": 0.6392585282,
				"y": -5.4331367727,
				"z": 0.9011933508,
				"element": "O" 
			},
			{
				"x": -0.1951996434,
				"y": -3.4282540936,
				"z": 1.6262980138,
				"element": "N" 
			},
			{
				"x": -0.414292092,
				"y": -2.056178998,
				"z": 1.5346412065,
				"element": "C" 
			},
			{
				"x": -0.7938348454,
				"y": -1.4330502229,
				"z": 2.5072847676,
				"element": "O" 
			},
			{
				"x": 0.3839908906,
				"y": -0.0368078251,
				"z": 0.2742334237,
				"element": "C" 
			},
			{
				"x": -0.1043464766,
				"y": 1.0573822477,
				"z": -0.322904279,
				"element": "C" 
			},
			{
				"x": 0.5879286973,
				"y": 2.4035754444,
				"z": -0.2281404483,
				"element": "C" 
			},
			{
				"x": 0.3019126918,
				"y": 3.0563891755,
				"z": 1.1506511974,
				"element": "C" 
			},
			{
				"x": 1.2825504132,
				"y": 2.3244356959,
				"z": 2.1175086789,
				"element": "C" 
			},
			{
				"x": 2.2123883007,
				"y": 1.4723030088,
				"z": 1.2041701601,
				"element": "C" 
			},
			{
				"x": 2.1096198354,
				"y": 2.1837819818,
				"z": -0.1580144005,
				"element": "C" 
			},
			{
				"x": 1.6903399838,
				"y": 0.0294807399,
				"z": 1.0511447696,
				"element": "C" 
			},
			{
				"x": -3.7225398097,
				"y": -0.8437436533,
				"z": -0.3650343451,
				"element": "H" 
			},
			{
				"x": -2.6118183241,
				"y": 0.1855539408,
				"z": 0.5567990989,
				"element": "H" 
			},
			{
				"x": -3.0395508457,
				"y": -1.4088020705,
				"z": 1.1651417826,
				"element": "H" 
			},
			{
				"x": -1.5473974006,
				"y": -0.9636813623,
				"z": -1.5060179544,
				"element": "H" 
			},
			{
				"x": -1.9028676079,
				"y": -2.5055614215,
				"z": -0.758695894,
				"element": "H" 
			},
			{
				"x": 1.3081608794,
				"y": -4.1804702964,
				"z": -1.1400592405,
				"element": "H" 
			},
			{
				"x": -0.3871597817,
				"y": -3.8557242461,
				"z": 2.5249903661,
				"element": "H" 
			},
			{
				"x": -1.0311263135,
				"y": 1.0203668383,
				"z": -0.8868641146,
				"element": "H" 
			},
			{
				"x": 0.2784803428,
				"y": 3.0430353414,
				"z": -1.0609337141,
				"element": "H" 
			},
			{
				"x": -0.743947263,
				"y": 2.9533856858,
				"z": 1.4542817548,
				"element": "H" 
			},
			{
				"x": 0.5251486535,
				"y": 4.1288276698,
				"z": 1.1051014201,
				"element": "H" 
			},
			{
				"x": 1.866610792,
				"y": 3.0477583589,
				"z": 2.6956478007,
				"element": "H" 
			},
			{
				"x": 0.750046642,
				"y": 1.6948706672,
				"z": 2.836905514,
				"element": "H" 
			},
			{
				"x": 3.2364454369,
				"y": 1.439130942,
				"z": 1.5905920685,
				"element": "H" 
			},
			{
				"x": 2.6400132387,
				"y": 3.1435182701,
				"z": -0.1454355334,
				"element": "H" 
			},
			{
				"x": 2.4957927381,
				"y": 1.5853915003,
				"z": -0.989341954,
				"element": "H" 
			},
			{
				"x": 1.5570880874,
				"y": -0.4121216299,
				"z": 2.0462957745,
				"element": "H" 
			},
			{
				"x": 2.4449682295,
				"y": -0.5856222353,
				"z": 0.536428117,
				"element": "H" 
			}
		],
		 "valence_orbital": [ 
			{
				"type": "occ",
				"energy": -0.30115,
				"method": "rhf"
			},
			{
				"type": "occ",
				"energy": -0.3,
				"method": "rhf"
			},
			{
				"type": "occ",
				"energy": -0.29302,
				"method": "rhf"
			},
			{
				"type": "occ",
				"energy": -0.26484,
				"method": "rhf"
			},
			{
				"type": "occ",
				"energy": -0.24103,
				"method": "rhf"
			},
			{
				"type": "unocc",
				"energy": -0.04617,
				"method": "rhf"
			},
			{
				"type": "unocc",
				"energy": -0.00767,
				"method": "rhf"
			},
			{
				"type": "unocc",
				"energy": 0.01345,
				"method": "rhf"
			},
			{
				"type": "unocc",
				"energy": 0.0535,
				"method": "rhf"
			},
			{
				"type": "unocc",
				"energy": 0.07278,
				"method": "rhf"
			}
		],
		"cosmo_sigma_profile": { 
			"-0.025": 0.0,
			"-0.024": 0.0,
			"-0.023": 0.0,
			"-0.022": 0.0,
			"-0.021": 0.0,
			"-0.02": 0.0,
			"-0.019": 0.0,
			"-0.018": 0.0,
			"-0.017": 0.281869767435,
			"-0.016": 1.6896189318,
			"-0.015": 1.92363386328,
			"-0.014": 1.90188228238,
			"-0.013": 1.54200025158,
			"-0.012": 0.927527319141,
			"-0.011": 1.93676312543,
			"-0.01": 2.31107536741,
			"-0.009": 2.25870366693,
			"-0.008": 2.55157040717,
			"-0.007": 3.72636012077,
			"-0.006": 6.29486103824,
			"-0.005": 10.8297073703,
			"-0.004": 14.8514978945,
			"-0.003": 27.2049914958,
			"-0.002": 39.1382120368,
			"-0.001": 38.6126958445,
			"0.0": 30.2740580619,
			"0.001": 25.2158957996,
			"0.002": 10.7646021917,
			"0.003": 5.06248891354,
			"0.004": 5.56133115897,
			"0.005": 4.13755995336,
			"0.006": 4.92405966398,
			"0.007": 3.95842821853,
			"0.008": 4.34566977568,
			"0.009": 6.37138749377,
			"0.01": 6.11066210845,
			"0.011": 13.5939190118,
			"0.012": 9.2877404322,
			"0.013": 0.233797775942,
			"0.014": 0.0,
			"0.015": 0.0,
			"0.016": 0.0,
			"0.017": 0.0,
			"0.018": 0.0,
			"0.019": 0.0,
			"0.02": 0.0,
			"0.021": 0.0,
			"0.022": 0.0,
			"0.023": 0.0,
			"0.024": 0.0,
			"0.025": 0.0
		}
	}
}
