{
	 "smiles": "OC(=O)C1(CCC1)C1=C(F)C=C(F)C=C1", 
	 "Tm": 338.15, 
	 "num_atms": 25, 
	 "gaussian": { 
		 "optdone": 1, 
		 "sigma_profile": "yes", 
		 "theory": "DFT", 
		 "functional": "B3LYP", 
		 "basiset": "6-31G**", 
		 "properties": { 
			 "R2extent": 3860.5094, 
			 "electric_dipole_moment_norm": 4.30632827012, 
			 "electric_quadrupole_moment_norm": 13.5508244886, 
			 "total_energy": -775.296972375, 
			 "HOMO_LUMO_gap": 0.21765, 
			 "cosmo_polarized_energy": -12.73, 
			 "cosmo_cavitation_energy": 28.89, 
			 "cosmo_dispersion_energy": -20.34, 
			 "cosmo_repulsion_energy": 1.54, 
			 "cosmo_total_nonelectrostatic_energy": 10.09, 
			 "SMD_solvation_energy": 6.49 
		},
		"coords": [
			{
				"x": -1.0331014842,
				"y": -0.4589513944,
				"z": -3.2855160209,
				"element": "O" 
			},
			{
				"x": -1.3078084451,
				"y": -0.8982176554,
				"z": -2.0327746956,
				"element": "C" 
			},
			{
				"x": -1.8943254893,
				"y": -1.9403404222,
				"z": -1.8704770344,
				"element": "O" 
			},
			{
				"x": -0.9046852853,
				"y": 0.0463885264,
				"z": -0.8831180837,
				"element": "C" 
			},
			{
				"x": -0.9948052655,
				"y": -0.6985922822,
				"z": 0.4878173276,
				"element": "C" 
			},
			{
				"x": -2.447519,
				"y": -0.1890446958,
				"z": 0.6530122653,
				"element": "C" 
			},
			{
				"x": -2.1757656757,
				"y": 0.8678197604,
				"z": -0.4468687849,
				"element": "C" 
			},
			{
				"x": 0.3658320412,
				"y": 0.8097772215,
				"z": -1.195696005,
				"element": "C" 
			},
			{
				"x": 1.6014040996,
				"y": 0.1470471372,
				"z": -1.167627736,
				"element": "C" 
			},
			{
				"x": 1.6114218102,
				"y": -1.1673002364,
				"z": -0.8672311459,
				"element": "F" 
			},
			{
				"x": 2.8113137281,
				"y": 0.769440005,
				"z": -1.436924671,
				"element": "C" 
			},
			{
				"x": 2.7781642639,
				"y": 2.121968235,
				"z": -1.7641147433,
				"element": "C" 
			},
			{
				"x": 3.9379134551,
				"y": 2.7482248901,
				"z": -2.0309599883,
				"element": "F" 
			},
			{
				"x": 1.5882464895,
				"y": 2.8362443179,
				"z": -1.8256158415,
				"element": "C" 
			},
			{
				"x": 0.3942771871,
				"y": 2.1698706123,
				"z": -1.5381375232,
				"element": "C" 
			},
			{
				"x": -0.5139970657,
				"y": 0.3591009619,
				"z": -3.2362848628,
				"element": "H" 
			},
			{
				"x": -0.3098733175,
				"y": -0.2555628146,
				"z": 1.215642184,
				"element": "H" 
			},
			{
				"x": -0.8443360237,
				"y": -1.7773007456,
				"z": 0.4457338397,
				"element": "H" 
			},
			{
				"x": -3.1719323257,
				"y": -0.9379713842,
				"z": 0.3287702969,
				"element": "H" 
			},
			{
				"x": -2.7364697706,
				"y": 0.192844051,
				"z": 1.6352510923,
				"element": "H" 
			},
			{
				"x": -2.9466865747,
				"y": 1.0359294847,
				"z": -1.2044270466,
				"element": "H" 
			},
			{
				"x": -1.883843318,
				"y": 1.83144584,
				"z": -0.0201073081,
				"element": "H" 
			},
			{
				"x": 3.7436500094,
				"y": 0.2194178125,
				"z": -1.3988696771,
				"element": "H" 
			},
			{
				"x": 1.6044111528,
				"y": 3.8882260129,
				"z": -2.0861464943,
				"element": "H" 
			},
			{
				"x": -0.537585196,
				"y": 2.725536762,
				"z": -1.5737293433,
				"element": "H" 
			}
		],
		 "valence_orbital": [ 
			{
				"type": "occ",
				"energy": -0.3188,
				"method": "rhf"
			},
			{
				"type": "occ",
				"energy": -0.31051,
				"method": "rhf"
			},
			{
				"type": "occ",
				"energy": -0.2818,
				"method": "rhf"
			},
			{
				"type": "occ",
				"energy": -0.27436,
				"method": "rhf"
			},
			{
				"type": "occ",
				"energy": -0.25122,
				"method": "rhf"
			},
			{
				"type": "unocc",
				"energy": -0.03357,
				"method": "rhf"
			},
			{
				"type": "unocc",
				"energy": -0.02339,
				"method": "rhf"
			},
			{
				"type": "unocc",
				"energy": 0.01031,
				"method": "rhf"
			},
			{
				"type": "unocc",
				"energy": 0.06503,
				"method": "rhf"
			},
			{
				"type": "unocc",
				"energy": 0.07796,
				"method": "rhf"
			}
		],
		"cosmo_sigma_profile": { 
			"-0.025": 0.0,
			"-0.024": 0.0,
			"-0.023": 0.0,
			"-0.022": 0.0,
			"-0.021": 0.0,
			"-0.02": 0.0,
			"-0.019": 0.0,
			"-0.018": 0.0,
			"-0.017": 0.0,
			"-0.016": 0.0,
			"-0.015": 0.145605434427,
			"-0.014": 0.56685259085,
			"-0.013": 0.731514876009,
			"-0.012": 1.2291085669,
			"-0.011": 1.45991187691,
			"-0.01": 1.53924744471,
			"-0.009": 1.76118365082,
			"-0.008": 3.82564690992,
			"-0.007": 7.09737154167,
			"-0.006": 8.90559076634,
			"-0.005": 10.1956208614,
			"-0.004": 14.0216174181,
			"-0.003": 16.8151020145,
			"-0.002": 17.969845254,
			"-0.001": 20.6045171062,
			"0.0": 26.4238968379,
			"0.001": 23.230501502,
			"0.002": 13.9209326284,
			"0.003": 14.4942153936,
			"0.004": 15.6110029626,
			"0.005": 2.36572671416,
			"0.006": 2.29106285057,
			"0.007": 2.74209634425,
			"0.008": 3.02328917905,
			"0.009": 3.24543736385,
			"0.01": 4.79418370243,
			"0.011": 4.60950967974,
			"0.012": 4.44037652869,
			"0.013": 1.45905436569,
			"0.014": 0.0240841733794,
			"0.015": 0.0,
			"0.016": 0.0,
			"0.017": 0.0,
			"0.018": 0.0,
			"0.019": 0.0,
			"0.02": 0.0,
			"0.021": 0.0,
			"0.022": 0.0,
			"0.023": 0.0,
			"0.024": 0.0,
			"0.025": 0.0
		}
	}
}
