{
	 "smiles": "CCOC(=O)C1=C2N=C(CCl)C=C(O)N2N=C1", 
	 "Tm": 489.15, 
	 "num_atms": 27, 
	 "gaussian": { 
		 "optdone": 1, 
		 "sigma_profile": "yes", 
		 "theory": "DFT", 
		 "functional": "B3LYP", 
		 "basiset": "6-31G**", 
		 "properties": { 
			 "R2extent": 6075.5955, 
			 "electric_dipole_moment_norm": 3.10882483424, 
			 "electric_quadrupole_moment_norm": 10.3409078054, 
			 "total_energy": -1237.20733468, 
			 "HOMO_LUMO_gap": 0.17658, 
			 "cosmo_polarized_energy": -15.83, 
			 "cosmo_cavitation_energy": 34.07, 
			 "cosmo_dispersion_energy": -25.01, 
			 "cosmo_repulsion_energy": 1.97, 
			 "cosmo_total_nonelectrostatic_energy": 11.03, 
			 "SMD_solvation_energy": 5.26 
		},
		"coords": [
			{
				"x": 2.2225727783,
				"y": 2.6770542399,
				"z": -3.6657761826,
				"element": "C" 
			},
			{
				"x": 2.7644118169,
				"y": 2.7423595488,
				"z": -2.2452677855,
				"element": "C" 
			},
			{
				"x": 2.4397704222,
				"y": 1.5464133109,
				"z": -1.5004770681,
				"element": "O" 
			},
			{
				"x": 1.2192568072,
				"y": 1.5275261723,
				"z": -0.8977891224,
				"element": "C" 
			},
			{
				"x": 0.4214208243,
				"y": 2.4414890295,
				"z": -0.9511206675,
				"element": "O" 
			},
			{
				"x": 1.0197303719,
				"y": 0.2612088555,
				"z": -0.1854976917,
				"element": "C" 
			},
			{
				"x": -0.1116561188,
				"y": -0.1282180489,
				"z": 0.5601756555,
				"element": "C" 
			},
			{
				"x": -1.2869254931,
				"y": 0.4418577493,
				"z": 0.8735662284,
				"element": "N" 
			},
			{
				"x": -2.1189050425,
				"y": -0.27083255,
				"z": 1.6231820089,
				"element": "C" 
			},
			{
				"x": -3.4488209108,
				"y": 0.3894229726,
				"z": 1.8953079673,
				"element": "C" 
			},
			{
				"x": -3.8967558843,
				"y": 0.3766053365,
				"z": 3.6564509959,
				"element": "Cl" 
			},
			{
				"x": -1.8483389469,
				"y": -1.5748388728,
				"z": 2.1140947359,
				"element": "C" 
			},
			{
				"x": -0.6375419142,
				"y": -2.1436475605,
				"z": 1.7915043895,
				"element": "C" 
			},
			{
				"x": -0.2146865084,
				"y": -3.3473743984,
				"z": 2.1616914974,
				"element": "O" 
			},
			{
				"x": 0.2062604755,
				"y": -1.4058784501,
				"z": 1.0172802784,
				"element": "N" 
			},
			{
				"x": 1.4312589316,
				"y": -1.8490365537,
				"z": 0.626827366,
				"element": "N" 
			},
			{
				"x": 1.9076269273,
				"y": -0.8329507664,
				"z": -0.0966401104,
				"element": "C" 
			},
			{
				"x": 2.5470714374,
				"y": 3.5586463171,
				"z": -4.2288345709,
				"element": "H" 
			},
			{
				"x": 1.1301215825,
				"y": 2.6584660418,
				"z": -3.6576859567,
				"element": "H" 
			},
			{
				"x": 2.5892199898,
				"y": 1.7852234121,
				"z": -4.1828389485,
				"element": "H" 
			},
			{
				"x": 3.8565820169,
				"y": 2.7815006672,
				"z": -2.2347489778,
				"element": "H" 
			},
			{
				"x": 2.3650085437,
				"y": 3.6087867445,
				"z": -1.7127884398,
				"element": "H" 
			},
			{
				"x": -4.2594120533,
				"y": -0.1278167365,
				"z": 1.3769793054,
				"element": "H" 
			},
			{
				"x": -3.4042099509,
				"y": 1.4271150229,
				"z": 1.5707628097,
				"element": "H" 
			},
			{
				"x": -2.5504721718,
				"y": -2.110309322,
				"z": 2.7384583837,
				"element": "H" 
			},
			{
				"x": 0.6788006703,
				"y": -3.4669234313,
				"z": 1.7801697207,
				"element": "H" 
			},
			{
				"x": 2.8881113992,
				"y": -0.9078487302,
				"z": -0.5449858208,
				"element": "H" 
			}
		],
		 "valence_orbital": [ 
			{
				"type": "occ",
				"energy": -0.2932,
				"method": "rhf"
			},
			{
				"type": "occ",
				"energy": -0.28471,
				"method": "rhf"
			},
			{
				"type": "occ",
				"energy": -0.27904,
				"method": "rhf"
			},
			{
				"type": "occ",
				"energy": -0.26616,
				"method": "rhf"
			},
			{
				"type": "occ",
				"energy": -0.23778,
				"method": "rhf"
			},
			{
				"type": "unocc",
				"energy": -0.0612,
				"method": "rhf"
			},
			{
				"type": "unocc",
				"energy": -0.03359,
				"method": "rhf"
			},
			{
				"type": "unocc",
				"energy": -0.00887,
				"method": "rhf"
			},
			{
				"type": "unocc",
				"energy": 0.02448,
				"method": "rhf"
			},
			{
				"type": "unocc",
				"energy": 0.0715,
				"method": "rhf"
			}
		],
		"cosmo_sigma_profile": { 
			"-0.025": 0.0,
			"-0.024": 0.0,
			"-0.023": 0.0,
			"-0.022": 0.0,
			"-0.021": 0.0,
			"-0.02": 0.0,
			"-0.019": 0.0,
			"-0.018": 0.0,
			"-0.017": 0.0441079006021,
			"-0.016": 0.563311494976,
			"-0.015": 0.587734669422,
			"-0.014": 0.342451491294,
			"-0.013": 1.13126994342,
			"-0.012": 0.67587214837,
			"-0.011": 0.616203479423,
			"-0.01": 0.569353484307,
			"-0.009": 3.97786119226,
			"-0.008": 7.69055935757,
			"-0.007": 8.23094895917,
			"-0.006": 12.1476686198,
			"-0.005": 14.6922033441,
			"-0.004": 17.8105159918,
			"-0.003": 20.921288275,
			"-0.002": 22.6852105968,
			"-0.001": 23.4836792434,
			"0.0": 27.3930177978,
			"0.001": 19.9677401506,
			"0.002": 12.1630872057,
			"0.003": 12.5120579393,
			"0.004": 12.6319537531,
			"0.005": 13.3577316299,
			"0.006": 12.5570380008,
			"0.007": 4.67601943492,
			"0.008": 5.36826900578,
			"0.009": 2.56022825367,
			"0.01": 1.66680867168,
			"0.011": 2.87687761461,
			"0.012": 4.16406476055,
			"0.013": 2.60319015035,
			"0.014": 1.37098942015,
			"0.015": 1.38948135667,
			"0.016": 0.958974887098,
			"0.017": 0.133336897616,
			"0.018": 0.0,
			"0.019": 0.0,
			"0.02": 0.0,
			"0.021": 0.0,
			"0.022": 0.0,
			"0.023": 0.0,
			"0.024": 0.0,
			"0.025": 0.0
		}
	}
}
