{
	 "smiles": "O=CC1=CC(=CC=C1)C1=CSC=C1", 
	 "Tm": 321.65, 
	 "num_atms": 21, 
	 "gaussian": { 
		 "optdone": 1, 
		 "sigma_profile": "yes", 
		 "theory": "DFT", 
		 "functional": "B3LYP", 
		 "basiset": "6-31G**", 
		 "properties": { 
			 "R2extent": 3691.5511, 
			 "electric_dipole_moment_norm": 3.34832223808, 
			 "electric_quadrupole_moment_norm": 12.3060052828, 
			 "total_energy": -897.384677936, 
			 "HOMO_LUMO_gap": 0.1652, 
			 "cosmo_polarized_energy": -9.34, 
			 "cosmo_cavitation_energy": 27.48, 
			 "cosmo_dispersion_energy": -20.51, 
			 "cosmo_repulsion_energy": 1.54, 
			 "cosmo_total_nonelectrostatic_energy": 8.51, 
			 "SMD_solvation_energy": 5.74 
		},
		"coords": [
			{
				"x": -2.9835033742,
				"y": -2.5566100651,
				"z": -1.5130294665,
				"element": "O" 
			},
			{
				"x": -2.217180529,
				"y": -2.0753633381,
				"z": -0.7004862852,
				"element": "C" 
			},
			{
				"x": -1.0193425539,
				"y": -1.2743138234,
				"z": -1.0439959622,
				"element": "C" 
			},
			{
				"x": -0.2110222942,
				"y": -0.7693306737,
				"z": -0.0213040895,
				"element": "C" 
			},
			{
				"x": 0.9330772438,
				"y": -0.0090559855,
				"z": -0.3092986686,
				"element": "C" 
			},
			{
				"x": 1.2452677629,
				"y": 0.2184368469,
				"z": -1.6609798779,
				"element": "C" 
			},
			{
				"x": 0.4440671379,
				"y": -0.2901421087,
				"z": -2.6871483852,
				"element": "C" 
			},
			{
				"x": -0.6909829916,
				"y": -1.0347466243,
				"z": -2.3868916714,
				"element": "C" 
			},
			{
				"x": 1.7827375181,
				"y": 0.5380083582,
				"z": 0.7691358494,
				"element": "C" 
			},
			{
				"x": 1.3161022693,
				"y": 0.9333579105,
				"z": 2.0022075748,
				"element": "C" 
			},
			{
				"x": 2.5782955243,
				"y": 1.530359594,
				"z": 3.022574357,
				"element": "S" 
			},
			{
				"x": 3.7667393722,
				"y": 1.2495400217,
				"z": 1.7911225022,
				"element": "C" 
			},
			{
				"x": 3.2045328727,
				"y": 0.7289237948,
				"z": 0.6619246833,
				"element": "C" 
			},
			{
				"x": -2.3815291984,
				"y": -2.2158559243,
				"z": 0.3916058123,
				"element": "H" 
			},
			{
				"x": -0.4636921385,
				"y": -0.9905313009,
				"z": 1.0130721756,
				"element": "H" 
			},
			{
				"x": 2.1150208247,
				"y": 0.81847266,
				"z": -1.9116848114,
				"element": "H" 
			},
			{
				"x": 0.7100049283,
				"y": -0.0936094387,
				"z": -3.7216718304,
				"element": "H" 
			},
			{
				"x": -1.3326450638,
				"y": -1.4414958083,
				"z": -3.1616468527,
				"element": "H" 
			},
			{
				"x": 0.2931164424,
				"y": 0.9429019223,
				"z": 2.3514051762,
				"element": "H" 
			},
			{
				"x": 4.8079356422,
				"y": 1.4699980591,
				"z": 1.9805415312,
				"element": "H" 
			},
			{
				"x": 3.7806006049,
				"y": 0.4558559236,
				"z": -0.2146517611,
				"element": "H" 
			}
		],
		 "valence_orbital": [ 
			{
				"type": "occ",
				"energy": -0.28743,
				"method": "rhf"
			},
			{
				"type": "occ",
				"energy": -0.26769,
				"method": "rhf"
			},
			{
				"type": "occ",
				"energy": -0.25574,
				"method": "rhf"
			},
			{
				"type": "occ",
				"energy": -0.25193,
				"method": "rhf"
			},
			{
				"type": "occ",
				"energy": -0.22984,
				"method": "rhf"
			},
			{
				"type": "unocc",
				"energy": -0.06464,
				"method": "rhf"
			},
			{
				"type": "unocc",
				"energy": -0.03678,
				"method": "rhf"
			},
			{
				"type": "unocc",
				"energy": -0.00542,
				"method": "rhf"
			},
			{
				"type": "unocc",
				"energy": 0.02221,
				"method": "rhf"
			},
			{
				"type": "unocc",
				"energy": 0.03092,
				"method": "rhf"
			}
		],
		"cosmo_sigma_profile": { 
			"-0.025": 0.0,
			"-0.024": 0.0,
			"-0.023": 0.0,
			"-0.022": 0.0,
			"-0.021": 0.0,
			"-0.02": 0.0,
			"-0.019": 0.0,
			"-0.018": 0.0,
			"-0.017": 0.0,
			"-0.016": 0.0,
			"-0.015": 0.0,
			"-0.014": 0.0,
			"-0.013": 0.0,
			"-0.012": 0.0,
			"-0.011": 0.0,
			"-0.01": 0.0,
			"-0.009": 0.632124921245,
			"-0.008": 4.70489855525,
			"-0.007": 12.38049459,
			"-0.006": 16.0625407662,
			"-0.005": 14.3252285408,
			"-0.004": 14.9165004102,
			"-0.003": 12.7517388722,
			"-0.002": 12.8537898624,
			"-0.001": 12.1875841204,
			"0.0": 13.0612867058,
			"0.001": 16.5752433464,
			"0.002": 21.2871583554,
			"0.003": 25.4469162032,
			"0.004": 20.6046042451,
			"0.005": 7.77983088803,
			"0.006": 1.81473097076,
			"0.007": 2.21968666593,
			"0.008": 1.34619909707,
			"0.009": 2.090877973,
			"0.01": 2.75843079285,
			"0.011": 4.13258175158,
			"0.012": 2.95393816815,
			"0.013": 0.764420996905,
			"0.014": 0.0,
			"0.015": 0.0,
			"0.016": 0.0,
			"0.017": 0.0,
			"0.018": 0.0,
			"0.019": 0.0,
			"0.02": 0.0,
			"0.021": 0.0,
			"0.022": 0.0,
			"0.023": 0.0,
			"0.024": 0.0,
			"0.025": 0.0
		}
	}
}
