{
	 "smiles": "OC(=O)C1=CC2=C(C=C1)N=CC=N2", 
	 "Tm": 507.15, 
	 "num_atms": 19, 
	 "gaussian": { 
		 "optdone": 1, 
		 "sigma_profile": "yes", 
		 "theory": "DFT", 
		 "functional": "B3LYP", 
		 "basiset": "6-31G**", 
		 "properties": { 
			 "R2extent": 3056.9107, 
			 "electric_dipole_moment_norm": 4.39151158145, 
			 "electric_quadrupole_moment_norm": 10.7989357605, 
			 "total_energy": -606.526208116, 
			 "HOMO_LUMO_gap": 0.16995, 
			 "cosmo_polarized_energy": -15.49, 
			 "cosmo_cavitation_energy": 24.2, 
			 "cosmo_dispersion_energy": -18.21, 
			 "cosmo_repulsion_energy": 1.4, 
			 "cosmo_total_nonelectrostatic_energy": 7.39, 
			 "SMD_solvation_energy": 2.32 
		},
		"coords": [
			{
				"x": -3.1357510233,
				"y": -1.9086851051,
				"z": -2.2040218796,
				"element": "O" 
			},
			{
				"x": -1.9852427038,
				"y": -1.365672125,
				"z": -2.6768458068,
				"element": "C" 
			},
			{
				"x": -1.527015849,
				"y": -1.7351121708,
				"z": -3.7320883121,
				"element": "O" 
			},
			{
				"x": -1.3323263214,
				"y": -0.3087352923,
				"z": -1.8321823459,
				"element": "C" 
			},
			{
				"x": -1.5778486113,
				"y": -0.1723685713,
				"z": -0.478688006,
				"element": "C" 
			},
			{
				"x": -0.9124946901,
				"y": 0.8288874789,
				"z": 0.2712592126,
				"element": "C" 
			},
			{
				"x": 0.015182074,
				"y": 1.695649611,
				"z": -0.3840743505,
				"element": "C" 
			},
			{
				"x": 0.2623978231,
				"y": 1.5272460646,
				"z": -1.7720285308,
				"element": "C" 
			},
			{
				"x": -0.3887258097,
				"y": 0.5426117987,
				"z": -2.4741219459,
				"element": "C" 
			},
			{
				"x": 0.669688861,
				"y": 2.6748832406,
				"z": 0.3052663501,
				"element": "N" 
			},
			{
				"x": 0.3972298989,
				"y": 2.7633825005,
				"z": 1.5897719958,
				"element": "C" 
			},
			{
				"x": -0.5233070227,
				"y": 1.8960367331,
				"z": 2.2423510095,
				"element": "C" 
			},
			{
				"x": -1.1709557392,
				"y": 0.9433556484,
				"z": 1.6065213626,
				"element": "N" 
			},
			{
				"x": -3.4548026697,
				"y": -1.4107830097,
				"z": -1.4386090668,
				"element": "H" 
			},
			{
				"x": -2.2465654921,
				"y": -0.8289347406,
				"z": 0.0715992941,
				"element": "H" 
			},
			{
				"x": 0.9771487018,
				"y": 2.1919847032,
				"z": -2.2458623266,
				"element": "H" 
			},
			{
				"x": -0.2044061447,
				"y": 0.3856249299,
				"z": -3.5310374935,
				"element": "H" 
			},
			{
				"x": 0.9086444883,
				"y": 3.5386424514,
				"z": 2.1582901146,
				"element": "H" 
			},
			{
				"x": -0.7138497701,
				"y": 2.0076858544,
				"z": 3.308500725,
				"element": "H" 
			}
		],
		 "valence_orbital": [ 
			{
				"type": "occ",
				"energy": -0.32318,
				"method": "rhf"
			},
			{
				"type": "occ",
				"energy": -0.28573,
				"method": "rhf"
			},
			{
				"type": "occ",
				"energy": -0.27492,
				"method": "rhf"
			},
			{
				"type": "occ",
				"energy": -0.26763,
				"method": "rhf"
			},
			{
				"type": "occ",
				"energy": -0.26401,
				"method": "rhf"
			},
			{
				"type": "unocc",
				"energy": -0.09406,
				"method": "rhf"
			},
			{
				"type": "unocc",
				"energy": -0.05665,
				"method": "rhf"
			},
			{
				"type": "unocc",
				"energy": -0.01888,
				"method": "rhf"
			},
			{
				"type": "unocc",
				"energy": 0.02013,
				"method": "rhf"
			},
			{
				"type": "unocc",
				"energy": 0.05605,
				"method": "rhf"
			}
		],
		"cosmo_sigma_profile": { 
			"-0.025": 0.0,
			"-0.024": 0.0,
			"-0.023": 0.0,
			"-0.022": 0.0,
			"-0.021": 0.0,
			"-0.02": 0.0022696891,
			"-0.019": 0.616379763651,
			"-0.018": 0.847188428282,
			"-0.017": 1.24067134951,
			"-0.016": 0.910654986987,
			"-0.015": 0.918367726389,
			"-0.014": 0.97041015332,
			"-0.013": 1.42806770341,
			"-0.012": 0.857576645923,
			"-0.011": 1.16751171569,
			"-0.01": 1.09823680462,
			"-0.009": 2.09416758002,
			"-0.008": 7.3573115486,
			"-0.007": 8.14495342231,
			"-0.006": 8.45726880491,
			"-0.005": 8.90988003433,
			"-0.004": 9.87839595416,
			"-0.003": 12.7562472429,
			"-0.002": 13.7652383497,
			"-0.001": 15.6091796141,
			"0.0": 17.4921127397,
			"0.001": 14.0209681323,
			"0.002": 10.49061858,
			"0.003": 5.14997035855,
			"0.004": 4.84634883201,
			"0.005": 5.22223954771,
			"0.006": 5.28264231168,
			"0.007": 4.09478625711,
			"0.008": 4.63371136817,
			"0.009": 5.5486468789,
			"0.01": 6.80157675813,
			"0.011": 6.83055038708,
			"0.012": 4.9073466347,
			"0.013": 2.0388922491,
			"0.014": 1.27588020102,
			"0.015": 0.0446126578576,
			"0.016": 0.0,
			"0.017": 0.0,
			"0.018": 0.0,
			"0.019": 0.0,
			"0.02": 0.0,
			"0.021": 0.0,
			"0.022": 0.0,
			"0.023": 0.0,
			"0.024": 0.0,
			"0.025": 0.0
		}
	}
}
