{
	 "smiles": "[O-][N+](=O)C1=CC=CC=C1NN=C1SC(=N)NC1=O", 
	 "Tm": 547.15, 
	 "num_atms": 25, 
	 "gaussian": { 
		 "optdone": 1, 
		 "sigma_profile": "yes", 
		 "theory": "DFT", 
		 "functional": "B3LYP", 
		 "basiset": "6-31G**", 
		 "properties": { 
			 "R2extent": 6466.3045, 
			 "electric_dipole_moment_norm": 4.54915213309, 
			 "electric_quadrupole_moment_norm": 9.2373141735, 
			 "total_energy": -1244.66974103, 
			 "HOMO_LUMO_gap": 0.12636, 
			 "cosmo_polarized_energy": -16.48, 
			 "cosmo_cavitation_energy": 32.95, 
			 "cosmo_dispersion_energy": -24.84, 
			 "cosmo_repulsion_energy": 1.85, 
			 "cosmo_total_nonelectrostatic_energy": 9.96, 
			 "SMD_solvation_energy": 6.45 
		},
		"coords": [
			{
				"x": -0.383471553,
				"y": 1.0976391084,
				"z": -1.7209245771,
				"element": "O" 
			},
			{
				"x": -0.9571579891,
				"y": 2.0439825933,
				"z": -1.1579706472,
				"element": "N" 
			},
			{
				"x": -1.3212500191,
				"y": 3.0575199524,
				"z": -1.752060625,
				"element": "O" 
			},
			{
				"x": -1.2122553205,
				"y": 1.9510791346,
				"z": 0.2739939832,
				"element": "C" 
			},
			{
				"x": -1.8631981325,
				"y": 3.0440814086,
				"z": 0.8640565848,
				"element": "C" 
			},
			{
				"x": -2.1493319687,
				"y": 3.0488578665,
				"z": 2.2174092205,
				"element": "C" 
			},
			{
				"x": -1.7781204385,
				"y": 1.941203442,
				"z": 2.9937213452,
				"element": "C" 
			},
			{
				"x": -1.1349212249,
				"y": 0.854553231,
				"z": 2.4259766026,
				"element": "C" 
			},
			{
				"x": -0.8303692588,
				"y": 0.8230915878,
				"z": 1.0479114448,
				"element": "C" 
			},
			{
				"x": -0.1858419016,
				"y": -0.2754805738,
				"z": 0.5024310296,
				"element": "N" 
			},
			{
				"x": 0.1414948205,
				"y": -1.2983636044,
				"z": 1.2993624383,
				"element": "N" 
			},
			{
				"x": 0.7406678378,
				"y": -2.3299882823,
				"z": 0.8175365513,
				"element": "C" 
			},
			{
				"x": 1.1859024585,
				"y": -3.7053104085,
				"z": 1.8642547297,
				"element": "S" 
			},
			{
				"x": 1.9060419792,
				"y": -4.5886103972,
				"z": 0.4641429789,
				"element": "C" 
			},
			{
				"x": 2.4624129346,
				"y": -5.7259164156,
				"z": 0.4335234834,
				"element": "N" 
			},
			{
				"x": 1.767288468,
				"y": -3.8066100774,
				"z": -0.6801134764,
				"element": "N" 
			},
			{
				"x": 1.1544465691,
				"y": -2.5757551384,
				"z": -0.5902766705,
				"element": "C" 
			},
			{
				"x": 0.9752722952,
				"y": -1.8013272909,
				"z": -1.5199948736,
				"element": "O" 
			},
			{
				"x": -2.1288679683,
				"y": 3.8738929649,
				"z": 0.222121573,
				"element": "H" 
			},
			{
				"x": -2.6529606109,
				"y": 3.8980090079,
				"z": 2.6661304777,
				"element": "H" 
			},
			{
				"x": -1.9947558364,
				"y": 1.9271103742,
				"z": 4.0578855689,
				"element": "H" 
			},
			{
				"x": -0.8492281729,
				"y": 0.0010381366,
				"z": 3.0261514943,
				"element": "H" 
			},
			{
				"x": 0.0289449545,
				"y": -0.2861390336,
				"z": -0.4983210237,
				"element": "H" 
			},
			{
				"x": 2.4886851215,
				"y": -6.1753912606,
				"z": 1.347103608,
				"element": "H" 
			},
			{
				"x": 2.1213729564,
				"y": -4.1545663254,
				"z": -1.5627512208,
				"element": "H" 
			}
		],
		 "valence_orbital": [ 
			{
				"type": "occ",
				"energy": -0.29194,
				"method": "rhf"
			},
			{
				"type": "occ",
				"energy": -0.28358,
				"method": "rhf"
			},
			{
				"type": "occ",
				"energy": -0.2786,
				"method": "rhf"
			},
			{
				"type": "occ",
				"energy": -0.27574,
				"method": "rhf"
			},
			{
				"type": "occ",
				"energy": -0.223,
				"method": "rhf"
			},
			{
				"type": "unocc",
				"energy": -0.09664,
				"method": "rhf"
			},
			{
				"type": "unocc",
				"energy": -0.07687,
				"method": "rhf"
			},
			{
				"type": "unocc",
				"energy": -0.02055,
				"method": "rhf"
			},
			{
				"type": "unocc",
				"energy": -0.01253,
				"method": "rhf"
			},
			{
				"type": "unocc",
				"energy": 0.00089,
				"method": "rhf"
			}
		],
		"cosmo_sigma_profile": { 
			"-0.025": 0.0,
			"-0.024": 0.0,
			"-0.023": 0.0,
			"-0.022": 0.0,
			"-0.021": 0.0,
			"-0.02": 0.0,
			"-0.019": 0.0,
			"-0.018": 0.0150900929815,
			"-0.017": 0.893678052037,
			"-0.016": 0.913139601104,
			"-0.015": 1.20783336699,
			"-0.014": 0.865824200149,
			"-0.013": 1.72210017023,
			"-0.012": 2.99216873032,
			"-0.011": 2.15247876827,
			"-0.01": 1.33410204308,
			"-0.009": 2.20229326707,
			"-0.008": 3.25020509333,
			"-0.007": 7.66315432497,
			"-0.006": 13.3964411617,
			"-0.005": 16.645783538,
			"-0.004": 15.2388060759,
			"-0.003": 17.1830089315,
			"-0.002": 17.1313514434,
			"-0.001": 20.8567408838,
			"0.0": 24.2001017148,
			"0.001": 22.3125976371,
			"0.002": 20.5856624358,
			"0.003": 15.3897464702,
			"0.004": 8.01869599218,
			"0.005": 4.75518195983,
			"0.006": 6.66240052705,
			"0.007": 7.00839753016,
			"0.008": 9.7059435822,
			"0.009": 8.4932773594,
			"0.01": 7.81149659637,
			"0.011": 3.45131145443,
			"0.012": 1.34797946269,
			"0.013": 0.971891757403,
			"0.014": 1.27284472855,
			"0.015": 0.661919258324,
			"0.016": 0.117681379771,
			"0.017": 0.0,
			"0.018": 0.0,
			"0.019": 0.0,
			"0.02": 0.0,
			"0.021": 0.0,
			"0.022": 0.0,
			"0.023": 0.0,
			"0.024": 0.0,
			"0.025": 0.0
		}
	}
}
