{
	 "smiles": "NC1=C(C=C(C=C1C(O)=O)[N+]([O-])=O)[N+]([O-])=O", 
	 "Tm": 540.15, 
	 "num_atms": 21, 
	 "gaussian": { 
		 "optdone": 1, 
		 "sigma_profile": "yes", 
		 "theory": "DFT", 
		 "functional": "B3LYP", 
		 "basiset": "6-31G**", 
		 "properties": { 
			 "R2extent": 4116.134, 
			 "electric_dipole_moment_norm": 4.50913591057, 
			 "electric_quadrupole_moment_norm": 21.4846587273, 
			 "total_energy": -885.164168294, 
			 "HOMO_LUMO_gap": 0.15401, 
			 "cosmo_polarized_energy": -22.55, 
			 "cosmo_cavitation_energy": 27.44, 
			 "cosmo_dispersion_energy": -20.41, 
			 "cosmo_repulsion_energy": 1.57, 
			 "cosmo_total_nonelectrostatic_energy": 8.6, 
			 "SMD_solvation_energy": 10.16 
		},
		"coords": [
			{
				"x": 0.6568376099,
				"y": 1.6346059737,
				"z": -1.2578539966,
				"element": "N" 
			},
			{
				"x": 0.746973288,
				"y": 0.525320665,
				"z": -0.4702001306,
				"element": "C" 
			},
			{
				"x": 0.5614526121,
				"y": 0.5695339026,
				"z": 0.9460381817,
				"element": "C" 
			},
			{
				"x": 0.645653923,
				"y": -0.5758331065,
				"z": 1.7339340358,
				"element": "C" 
			},
			{
				"x": 0.9065003086,
				"y": -1.7944209382,
				"z": 1.1334115709,
				"element": "C" 
			},
			{
				"x": 1.104305371,
				"y": -1.8898330304,
				"z": -0.2430202729,
				"element": "C" 
			},
			{
				"x": 1.0614674659,
				"y": -0.7513347052,
				"z": -1.0362623692,
				"element": "C" 
			},
			{
				"x": 1.3561520544,
				"y": -0.9655607421,
				"z": -2.4976291148,
				"element": "C" 
			},
			{
				"x": 1.9427766241,
				"y": 0.06418708,
				"z": -3.1689936752,
				"element": "O" 
			},
			{
				"x": 1.112754053,
				"y": -1.999316297,
				"z": -3.066984789,
				"element": "O" 
			},
			{
				"x": 0.9792814438,
				"y": -3.0014867499,
				"z": 1.9629363719,
				"element": "N" 
			},
			{
				"x": 0.803977809,
				"y": -2.8685605859,
				"z": 3.1729542158,
				"element": "O" 
			},
			{
				"x": 1.2113757238,
				"y": -4.0646903451,
				"z": 1.3904718571,
				"element": "O" 
			},
			{
				"x": 0.2419386419,
				"y": 1.8109677404,
				"z": 1.6549262261,
				"element": "N" 
			},
			{
				"x": 0.1351229155,
				"y": 2.8627679484,
				"z": 1.0015157462,
				"element": "O" 
			},
			{
				"x": 0.0931872122,
				"y": 1.7590389191,
				"z": 2.8700339186,
				"element": "O" 
			},
			{
				"x": 0.3452853536,
				"y": 2.4780275863,
				"z": -0.7877425755,
				"element": "H" 
			},
			{
				"x": 0.42434657,
				"y": 1.5135648338,
				"z": -2.2331042871,
				"element": "H" 
			},
			{
				"x": 0.4944903419,
				"y": -0.5067173068,
				"z": 2.802618104,
				"element": "H" 
			},
			{
				"x": 1.3073741382,
				"y": -2.8503364057,
				"z": -0.7007945935,
				"element": "H" 
			},
			{
				"x": 2.2569465401,
				"y": 0.7455755636,
				"z": -2.5529544237,
				"element": "H" 
			}
		],
		 "valence_orbital": [ 
			{
				"type": "occ",
				"energy": -0.32277,
				"method": "rhf"
			},
			{
				"type": "occ",
				"energy": -0.3201,
				"method": "rhf"
			},
			{
				"type": "occ",
				"energy": -0.30794,
				"method": "rhf"
			},
			{
				"type": "occ",
				"energy": -0.30218,
				"method": "rhf"
			},
			{
				"type": "occ",
				"energy": -0.27654,
				"method": "rhf"
			},
			{
				"type": "unocc",
				"energy": -0.12253,
				"method": "rhf"
			},
			{
				"type": "unocc",
				"energy": -0.10606,
				"method": "rhf"
			},
			{
				"type": "unocc",
				"energy": -0.07354,
				"method": "rhf"
			},
			{
				"type": "unocc",
				"energy": -0.0157,
				"method": "rhf"
			},
			{
				"type": "unocc",
				"energy": 0.01402,
				"method": "rhf"
			}
		],
		"cosmo_sigma_profile": { 
			"-0.025": 0.0,
			"-0.024": 0.0,
			"-0.023": 0.0,
			"-0.022": 0.0,
			"-0.021": 0.0,
			"-0.02": 0.0,
			"-0.019": 0.0,
			"-0.018": 0.0474175805149,
			"-0.017": 0.895386945486,
			"-0.016": 1.09841431657,
			"-0.015": 3.07711485444,
			"-0.014": 1.89230374431,
			"-0.013": 2.99131444554,
			"-0.012": 3.3648740904,
			"-0.011": 3.38245140064,
			"-0.01": 2.68243460482,
			"-0.009": 2.10978541684,
			"-0.008": 3.97959814186,
			"-0.007": 7.3719388502,
			"-0.006": 10.8583995614,
			"-0.005": 14.8304953255,
			"-0.004": 19.5429478908,
			"-0.003": 16.9040279402,
			"-0.002": 11.1939451291,
			"-0.001": 7.4311539083,
			"0.0": 7.30483635935,
			"0.001": 5.0692611895,
			"0.002": 6.65332538072,
			"0.003": 7.2129339926,
			"0.004": 6.60447994912,
			"0.005": 8.08466842324,
			"0.006": 11.1473006948,
			"0.007": 17.6540783858,
			"0.008": 12.7699637526,
			"0.009": 11.8854523132,
			"0.01": 7.1608580856,
			"0.011": 4.48309061572,
			"0.012": 1.40004696244,
			"0.013": 0.0141756203823,
			"0.014": 0.0,
			"0.015": 0.0,
			"0.016": 0.0,
			"0.017": 0.0,
			"0.018": 0.0,
			"0.019": 0.0,
			"0.02": 0.0,
			"0.021": 0.0,
			"0.022": 0.0,
			"0.023": 0.0,
			"0.024": 0.0,
			"0.025": 0.0
		}
	}
}
