{
	 "smiles": "NN1C(SCC=C)=NN=C1C1=C(O)C(Br)=CC(Br)=C1", 
	 "Tm": 435.15, 
	 "num_atms": 29, 
	 "gaussian": { 
		 "optdone": 1, 
		 "sigma_profile": "yes", 
		 "theory": "DFT", 
		 "functional": "B3LYP", 
		 "basiset": "6-31G**", 
		 "properties": { 
			 "R2extent": 14991.0422, 
			 "electric_dipole_moment_norm": 4.52903019862, 
			 "electric_quadrupole_moment_norm": 16.5245121619, 
			 "total_energy": -6260.33864692, 
			 "HOMO_LUMO_gap": 0.17854, 
			 "cosmo_polarized_energy": -18.99, 
			 "cosmo_cavitation_energy": 40.33, 
			 "cosmo_dispersion_energy": -29.35, 
			 "cosmo_repulsion_energy": 2.25, 
			 "cosmo_total_nonelectrostatic_energy": 13.23, 
			 "SMD_solvation_energy": 3.54 
		},
		"coords": [
			{
				"x": -2.1265735238,
				"y": 1.2693453191,
				"z": 0.4751530144,
				"element": "N" 
			},
			{
				"x": -0.880739937,
				"y": 0.6546387073,
				"z": 0.6609042465,
				"element": "N" 
			},
			{
				"x": -0.6085641451,
				"y": -0.5911121469,
				"z": 1.1742820651,
				"element": "C" 
			},
			{
				"x": -1.8482181943,
				"y": -1.590875385,
				"z": 1.925033353,
				"element": "S" 
			},
			{
				"x": -1.2862037403,
				"y": -3.2591914524,
				"z": 1.3094219441,
				"element": "C" 
			},
			{
				"x": -1.5592662432,
				"y": -3.4681794114,
				"z": -0.1453855646,
				"element": "C" 
			},
			{
				"x": -0.6023955743,
				"y": -3.4997542686,
				"z": -1.075103056,
				"element": "C" 
			},
			{
				"x": 0.6600295246,
				"y": -0.8892040403,
				"z": 0.9899007946,
				"element": "N" 
			},
			{
				"x": 1.2467583653,
				"y": 0.180668223,
				"z": 0.3530519207,
				"element": "N" 
			},
			{
				"x": 0.3198666226,
				"y": 1.1000593374,
				"z": 0.1606717112,
				"element": "C" 
			},
			{
				"x": 0.5467097147,
				"y": 2.3971234417,
				"z": -0.4861744459,
				"element": "C" 
			},
			{
				"x": 0.0549533309,
				"y": 3.6001694776,
				"z": 0.0606990289,
				"element": "C" 
			},
			{
				"x": -0.6398102203,
				"y": 3.5562728296,
				"z": 1.225890216,
				"element": "O" 
			},
			{
				"x": 0.339393136,
				"y": 4.8006797871,
				"z": -0.6048057162,
				"element": "C" 
			},
			{
				"x": -0.3347271503,
				"y": 6.4322807633,
				"z": 0.1412057085,
				"element": "Br" 
			},
			{
				"x": 1.1060847623,
				"y": 4.8423522922,
				"z": -1.7642908216,
				"element": "C" 
			},
			{
				"x": 1.6070303033,
				"y": 3.6456317114,
				"z": -2.2706762372,
				"element": "C" 
			},
			{
				"x": 2.6699415379,
				"y": 3.6760565956,
				"z": -3.8544026543,
				"element": "Br" 
			},
			{
				"x": 1.3340110309,
				"y": 2.4347543106,
				"z": -1.6436009416,
				"element": "C" 
			},
			{
				"x": -2.8217680667,
				"y": 0.5266153484,
				"z": 0.4281876195,
				"element": "H" 
			},
			{
				"x": -2.3147532717,
				"y": 1.8623186917,
				"z": 1.280571992,
				"element": "H" 
			},
			{
				"x": -1.8441621428,
				"y": -3.9555350057,
				"z": 1.9427404608,
				"element": "H" 
			},
			{
				"x": -0.2239359037,
				"y": -3.3333500999,
				"z": 1.5454700402,
				"element": "H" 
			},
			{
				"x": -2.6046156408,
				"y": -3.580730551,
				"z": -0.4295837545,
				"element": "H" 
			},
			{
				"x": 0.4438621055,
				"y": -3.3654787422,
				"z": -0.8156112822,
				"element": "H" 
			},
			{
				"x": -0.8373282143,
				"y": -3.6516085724,
				"z": -2.1244654871,
				"element": "H" 
			},
			{
				"x": -0.860204299,
				"y": 4.4668005663,
				"z": 1.4846354254,
				"element": "H" 
			},
			{
				"x": 1.3095923253,
				"y": 5.785648037,
				"z": -2.2544400716,
				"element": "H" 
			},
			{
				"x": 1.7252335081,
				"y": 1.5046042367,
				"z": -2.0361795081,
				"element": "H" 
			}
		],
		 "valence_orbital": [ 
			{
				"type": "occ",
				"energy": -0.27019,
				"method": "rhf"
			},
			{
				"type": "occ",
				"energy": -0.26333,
				"method": "rhf"
			},
			{
				"type": "occ",
				"energy": -0.25001,
				"method": "rhf"
			},
			{
				"type": "occ",
				"energy": -0.23957,
				"method": "rhf"
			},
			{
				"type": "occ",
				"energy": -0.22394,
				"method": "rhf"
			},
			{
				"type": "unocc",
				"energy": -0.0454,
				"method": "rhf"
			},
			{
				"type": "unocc",
				"energy": -0.02854,
				"method": "rhf"
			},
			{
				"type": "unocc",
				"energy": -0.01967,
				"method": "rhf"
			},
			{
				"type": "unocc",
				"energy": -0.01605,
				"method": "rhf"
			},
			{
				"type": "unocc",
				"energy": 0.0127,
				"method": "rhf"
			}
		],
		"cosmo_sigma_profile": { 
			"-0.025": 0.0,
			"-0.024": 0.0,
			"-0.023": 0.0,
			"-0.022": 0.0,
			"-0.021": 0.0,
			"-0.02": 0.0,
			"-0.019": 0.0,
			"-0.018": 0.0,
			"-0.017": 0.0,
			"-0.016": 0.000884336621722,
			"-0.015": 0.545472115582,
			"-0.014": 0.786045744272,
			"-0.013": 0.778023618385,
			"-0.012": 3.11132828821,
			"-0.011": 4.12612352491,
			"-0.01": 3.48243674324,
			"-0.009": 3.47174117063,
			"-0.008": 6.44952612727,
			"-0.007": 9.42836412269,
			"-0.006": 11.03414547,
			"-0.005": 17.44521144,
			"-0.004": 17.7236181167,
			"-0.003": 21.6368452402,
			"-0.002": 21.6691462031,
			"-0.001": 24.5177344557,
			"0.0": 29.0859910057,
			"0.001": 34.9403350326,
			"0.002": 25.4922154002,
			"0.003": 26.3446826926,
			"0.004": 24.4735078537,
			"0.005": 11.5696058034,
			"0.006": 6.74742008762,
			"0.007": 3.7526296291,
			"0.008": 3.0554737579,
			"0.009": 3.59906450249,
			"0.01": 2.36889015264,
			"0.011": 2.61502823218,
			"0.012": 2.38975547436,
			"0.013": 3.88033058858,
			"0.014": 2.34392771216,
			"0.015": 1.89269759571,
			"0.016": 0.788636143565,
			"0.017": 0.0719695928192,
			"0.018": 0.0,
			"0.019": 0.0,
			"0.02": 0.0,
			"0.021": 0.0,
			"0.022": 0.0,
			"0.023": 0.0,
			"0.024": 0.0,
			"0.025": 0.0
		}
	}
}
