{
	 "smiles": "CC(=O)NC1=CC=CS1", 
	 "Tm": 420.15, 
	 "num_atms": 16, 
	 "gaussian": { 
		 "optdone": 1, 
		 "sigma_profile": "yes", 
		 "theory": "DFT", 
		 "functional": "B3LYP", 
		 "basiset": "6-31G**", 
		 "properties": { 
			 "R2extent": 2097.7453, 
			 "electric_dipole_moment_norm": 2.7500076109, 
			 "electric_quadrupole_moment_norm": 15.4205166632, 
			 "total_energy": -761.016473499, 
			 "HOMO_LUMO_gap": 0.18995, 
			 "cosmo_polarized_energy": -12.06, 
			 "cosmo_cavitation_energy": 21.65, 
			 "cosmo_dispersion_energy": -16.8, 
			 "cosmo_repulsion_energy": 1.33, 
			 "cosmo_total_nonelectrostatic_energy": 6.18, 
			 "SMD_solvation_energy": 4.68 
		},
		"coords": [
			{
				"x": 0.063008595,
				"y": 1.9353830018,
				"z": 3.0488695176,
				"element": "C" 
			},
			{
				"x": 0.2986892463,
				"y": 2.0628006199,
				"z": 1.5518504799,
				"element": "C" 
			},
			{
				"x": 0.0959583376,
				"y": 3.1037768256,
				"z": 0.9467276597,
				"element": "O" 
			},
			{
				"x": 0.7569385332,
				"y": 0.9105050316,
				"z": 0.9422193087,
				"element": "N" 
			},
			{
				"x": 1.0486037936,
				"y": 0.766947505,
				"z": -0.4190117301,
				"element": "C" 
			},
			{
				"x": 0.9612019822,
				"y": 1.6765493579,
				"z": -1.4416824484,
				"element": "C" 
			},
			{
				"x": 1.35958885,
				"y": 1.1133549381,
				"z": -2.6947098764,
				"element": "C" 
			},
			{
				"x": 1.739662162,
				"y": -0.1942247921,
				"z": -2.6188810293,
				"element": "C" 
			},
			{
				"x": 1.62156824,
				"y": -0.7914275835,
				"z": -0.9856853452,
				"element": "S" 
			},
			{
				"x": -0.9829859033,
				"y": 2.1744888419,
				"z": 3.2593114244,
				"element": "H" 
			},
			{
				"x": 0.6767893009,
				"y": 2.6796322366,
				"z": 3.5635033945,
				"element": "H" 
			},
			{
				"x": 0.289156836,
				"y": 0.94631876,
				"z": 3.4569196737,
				"element": "H" 
			},
			{
				"x": 0.8936085023,
				"y": 0.0999572236,
				"z": 1.5272702882,
				"element": "H" 
			},
			{
				"x": 0.6275391242,
				"y": 2.6915049908,
				"z": -1.2881873018,
				"element": "H" 
			},
			{
				"x": 1.3598859625,
				"y": 1.6743877238,
				"z": -3.6225890998,
				"element": "H" 
			},
			{
				"x": 2.0813864375,
				"y": -0.853454681,
				"z": -3.4035249156,
				"element": "H" 
			}
		],
		 "valence_orbital": [ 
			{
				"type": "occ",
				"energy": -0.34617,
				"method": "rhf"
			},
			{
				"type": "occ",
				"energy": -0.3054,
				"method": "rhf"
			},
			{
				"type": "occ",
				"energy": -0.25763,
				"method": "rhf"
			},
			{
				"type": "occ",
				"energy": -0.25047,
				"method": "rhf"
			},
			{
				"type": "occ",
				"energy": -0.20746,
				"method": "rhf"
			},
			{
				"type": "unocc",
				"energy": -0.01751,
				"method": "rhf"
			},
			{
				"type": "unocc",
				"energy": 0.00826,
				"method": "rhf"
			},
			{
				"type": "unocc",
				"energy": 0.03283,
				"method": "rhf"
			},
			{
				"type": "unocc",
				"energy": 0.07873,
				"method": "rhf"
			},
			{
				"type": "unocc",
				"energy": 0.08796,
				"method": "rhf"
			}
		],
		"cosmo_sigma_profile": { 
			"-0.025": 0.0,
			"-0.024": 0.0,
			"-0.023": 0.0,
			"-0.022": 0.0,
			"-0.021": 0.0,
			"-0.02": 0.0,
			"-0.019": 0.0,
			"-0.018": 0.0,
			"-0.017": 0.0755793575706,
			"-0.016": 0.934544227831,
			"-0.015": 1.3207513948,
			"-0.014": 1.41456528358,
			"-0.013": 1.36561699395,
			"-0.012": 1.14829309046,
			"-0.011": 1.75240442089,
			"-0.01": 0.833689690722,
			"-0.009": 1.03574349109,
			"-0.008": 3.7269320792,
			"-0.007": 4.04462326054,
			"-0.006": 8.96761317265,
			"-0.005": 9.4313107382,
			"-0.004": 11.6281185207,
			"-0.003": 13.4666170461,
			"-0.002": 14.3592426444,
			"-0.001": 10.8324161224,
			"0.0": 7.17213612523,
			"0.001": 9.53750935333,
			"0.002": 10.7874686501,
			"0.003": 10.3276955419,
			"0.004": 13.5082379334,
			"0.005": 13.497994505,
			"0.006": 6.89313492352,
			"0.007": 3.35138144982,
			"0.008": 1.2436798112,
			"0.009": 1.07847386279,
			"0.01": 1.69463319827,
			"0.011": 2.19965726449,
			"0.012": 2.4959985717,
			"0.013": 3.162379892,
			"0.014": 1.72184176889,
			"0.015": 0.132676827416,
			"0.016": 0.0,
			"0.017": 0.0,
			"0.018": 0.0,
			"0.019": 0.0,
			"0.02": 0.0,
			"0.021": 0.0,
			"0.022": 0.0,
			"0.023": 0.0,
			"0.024": 0.0,
			"0.025": 0.0
		}
	}
}
