{
	 "smiles": "NC(=S)NCCCC1=CC=CC=C1", 
	 "Tm": 384.15, 
	 "num_atms": 27, 
	 "gaussian": { 
		 "optdone": 1, 
		 "sigma_profile": "yes", 
		 "theory": "DFT", 
		 "functional": "B3LYP", 
		 "basiset": "6-31G**", 
		 "properties": { 
			 "R2extent": 4081.6196, 
			 "electric_dipole_moment_norm": 6.48950049079, 
			 "electric_quadrupole_moment_norm": 34.7479788609, 
			 "total_energy": -897.219350369, 
			 "HOMO_LUMO_gap": 0.17484, 
			 "cosmo_polarized_energy": -19.44, 
			 "cosmo_cavitation_energy": 31.57, 
			 "cosmo_dispersion_energy": -22.47, 
			 "cosmo_repulsion_energy": 1.77, 
			 "cosmo_total_nonelectrostatic_energy": 10.87, 
			 "SMD_solvation_energy": 3.33 
		},
		"coords": [
			{
				"x": 0.2981199785,
				"y": 1.9430808534,
				"z": 2.0912903289,
				"element": "N" 
			},
			{
				"x": -0.8794843593,
				"y": 2.5842390188,
				"z": 2.3083315107,
				"element": "C" 
			},
			{
				"x": -1.0124453912,
				"y": 3.8332611871,
				"z": 3.4359125194,
				"element": "S" 
			},
			{
				"x": -1.9484485732,
				"y": 2.1745369662,
				"z": 1.5749691819,
				"element": "N" 
			},
			{
				"x": -1.9448522148,
				"y": 1.1749317094,
				"z": 0.5162518151,
				"element": "C" 
			},
			{
				"x": -1.3902946623,
				"y": 1.6858710942,
				"z": -0.8255962072,
				"element": "C" 
			},
			{
				"x": -1.136385126,
				"y": 0.5524656143,
				"z": -1.8416954384,
				"element": "C" 
			},
			{
				"x": -0.0597744274,
				"y": -0.4210816765,
				"z": -1.3995436702,
				"element": "C" 
			},
			{
				"x": 1.2753462125,
				"y": -0.0009524456,
				"z": -1.2796074944,
				"element": "C" 
			},
			{
				"x": 2.2697024644,
				"y": -0.882021622,
				"z": -0.8521148149,
				"element": "C" 
			},
			{
				"x": 1.9478546446,
				"y": -2.2046949428,
				"z": -0.5371248807,
				"element": "C" 
			},
			{
				"x": 0.6269239931,
				"y": -2.6370762644,
				"z": -0.6561282739,
				"element": "C" 
			},
			{
				"x": -0.3656807711,
				"y": -1.7512070464,
				"z": -1.0824746669,
				"element": "C" 
			},
			{
				"x": 1.0679307502,
				"y": 2.1989339297,
				"z": 2.6869977457,
				"element": "H" 
			},
			{
				"x": 0.4075627901,
				"y": 1.160521644,
				"z": 1.4639094229,
				"element": "H" 
			},
			{
				"x": -2.7797820555,
				"y": 2.7242011288,
				"z": 1.732132005,
				"element": "H" 
			},
			{
				"x": -1.3773858441,
				"y": 0.2983639319,
				"z": 0.8521022191,
				"element": "H" 
			},
			{
				"x": -2.9756975723,
				"y": 0.8280470258,
				"z": 0.3896056121,
				"element": "H" 
			},
			{
				"x": -2.0897691252,
				"y": 2.4149949846,
				"z": -1.2506451551,
				"element": "H" 
			},
			{
				"x": -0.455616005,
				"y": 2.2270874004,
				"z": -0.6405831073,
				"element": "H" 
			},
			{
				"x": -0.8511067522,
				"y": 1.0054653476,
				"z": -2.7990264013,
				"element": "H" 
			},
			{
				"x": -2.0695784151,
				"y": 0.0062372339,
				"z": -2.0261885369,
				"element": "H" 
			},
			{
				"x": 1.5407734706,
				"y": 1.021986293,
				"z": -1.5370478757,
				"element": "H" 
			},
			{
				"x": 3.2973233878,
				"y": -0.5382229559,
				"z": -0.7730993639,
				"element": "H" 
			},
			{
				"x": 2.7213488372,
				"y": -2.8916363556,
				"z": -0.2066590925,
				"element": "H" 
			},
			{
				"x": 0.3660630918,
				"y": -3.6643204266,
				"z": -0.4177180301,
				"element": "H" 
			},
			{
				"x": -1.3921483262,
				"y": -2.0981116272,
				"z": -1.1746493513,
				"element": "H" 
			}
		],
		 "valence_orbital": [ 
			{
				"type": "occ",
				"energy": -0.269,
				"method": "rhf"
			},
			{
				"type": "occ",
				"energy": -0.26386,
				"method": "rhf"
			},
			{
				"type": "occ",
				"energy": -0.25449,
				"method": "rhf"
			},
			{
				"type": "occ",
				"energy": -0.1984,
				"method": "rhf"
			},
			{
				"type": "occ",
				"energy": -0.19331,
				"method": "rhf"
			},
			{
				"type": "unocc",
				"energy": -0.01847,
				"method": "rhf"
			},
			{
				"type": "unocc",
				"energy": -0.01427,
				"method": "rhf"
			},
			{
				"type": "unocc",
				"energy": 0.01496,
				"method": "rhf"
			},
			{
				"type": "unocc",
				"energy": 0.0603,
				"method": "rhf"
			},
			{
				"type": "unocc",
				"energy": 0.07775,
				"method": "rhf"
			}
		],
		"cosmo_sigma_profile": { 
			"-0.025": 0.0,
			"-0.024": 0.0,
			"-0.023": 0.0,
			"-0.022": 0.0,
			"-0.021": 0.0,
			"-0.02": 0.0,
			"-0.019": 0.0,
			"-0.018": 0.0,
			"-0.017": 0.0,
			"-0.016": 0.0,
			"-0.015": 0.0729770259052,
			"-0.014": 1.22011075277,
			"-0.013": 2.19093612108,
			"-0.012": 2.06940232045,
			"-0.011": 2.19301385797,
			"-0.01": 2.76065064453,
			"-0.009": 3.92410016747,
			"-0.008": 2.8516665808,
			"-0.007": 3.99068504708,
			"-0.006": 7.94102914936,
			"-0.005": 17.7425861336,
			"-0.004": 25.7202380556,
			"-0.003": 26.2382551161,
			"-0.002": 21.2233844633,
			"-0.001": 19.423013888,
			"0.0": 14.1119034933,
			"0.001": 11.5238996327,
			"0.002": 10.5962833444,
			"0.003": 10.6137498981,
			"0.004": 10.5100821192,
			"0.005": 10.9149447004,
			"0.006": 8.7231323871,
			"0.007": 3.69405048622,
			"0.008": 3.75158900443,
			"0.009": 3.46736551592,
			"0.01": 4.0277149505,
			"0.011": 4.41270408469,
			"0.012": 7.50023137241,
			"0.013": 7.49169130661,
			"0.014": 0.698258595001,
			"0.015": 0.0,
			"0.016": 0.0,
			"0.017": 0.0,
			"0.018": 0.0,
			"0.019": 0.0,
			"0.02": 0.0,
			"0.021": 0.0,
			"0.022": 0.0,
			"0.023": 0.0,
			"0.024": 0.0,
			"0.025": 0.0
		}
	}
}
