{
	 "smiles": "CC(=NO)C1=CC2=C(OCC2)C=C1", 
	 "Tm": 396.15, 
	 "num_atms": 24, 
	 "gaussian": { 
		 "optdone": 1, 
		 "sigma_profile": "yes", 
		 "theory": "DFT", 
		 "functional": "B3LYP", 
		 "basiset": "6-31G**", 
		 "properties": { 
			 "R2extent": 3690.3651, 
			 "electric_dipole_moment_norm": 2.0764464284, 
			 "electric_quadrupole_moment_norm": 8.04320902066, 
			 "total_energy": -592.82956761, 
			 "HOMO_LUMO_gap": 0.1811, 
			 "cosmo_polarized_energy": -10.44, 
			 "cosmo_cavitation_energy": 27.06, 
			 "cosmo_dispersion_energy": -20.49, 
			 "cosmo_repulsion_energy": 1.63, 
			 "cosmo_total_nonelectrostatic_energy": 8.21, 
			 "SMD_solvation_energy": 4.74 
		},
		"coords": [
			{
				"x": 2.7669413238,
				"y": -1.9930615964,
				"z": 1.5782721719,
				"element": "C" 
			},
			{
				"x": 3.2536790868,
				"y": -0.7233891144,
				"z": 0.9091573993,
				"element": "C" 
			},
			{
				"x": 4.4998023872,
				"y": -0.4929455119,
				"z": 1.1587519344,
				"element": "N" 
			},
			{
				"x": 5.0038256996,
				"y": 0.6964703388,
				"z": 0.6012248031,
				"element": "O" 
			},
			{
				"x": 2.2970176615,
				"y": 0.0622872582,
				"z": 0.0913790537,
				"element": "C" 
			},
			{
				"x": 0.9093060666,
				"y": -0.1278766666,
				"z": 0.295527525,
				"element": "C" 
			},
			{
				"x": -0.0117173671,
				"y": 0.5781348185,
				"z": -0.4594127618,
				"element": "C" 
			},
			{
				"x": 0.4274130104,
				"y": 1.4652677197,
				"z": -1.4452480418,
				"element": "C" 
			},
			{
				"x": -0.5868207865,
				"y": 2.0793066945,
				"z": -2.115486189,
				"element": "O" 
			},
			{
				"x": -1.824415733,
				"y": 1.7558184377,
				"z": -1.4278988074,
				"element": "C" 
			},
			{
				"x": -1.52451361,
				"y": 0.5569316762,
				"z": -0.4938029334,
				"element": "C" 
			},
			{
				"x": 1.7803668006,
				"y": 1.6653516219,
				"z": -1.6963969475,
				"element": "C" 
			},
			{
				"x": 2.7015662211,
				"y": 0.9633571128,
				"z": -0.9184424395,
				"element": "C" 
			},
			{
				"x": 3.6144994348,
				"y": -2.5025153714,
				"z": 2.0384272036,
				"element": "H" 
			},
			{
				"x": 2.2903975294,
				"y": -2.6654954602,
				"z": 0.8569556933,
				"element": "H" 
			},
			{
				"x": 2.0338284188,
				"y": -1.7782232535,
				"z": 2.3644035396,
				"element": "H" 
			},
			{
				"x": 5.9147345907,
				"y": 0.6865833459,
				"z": 0.9220105557,
				"element": "H" 
			},
			{
				"x": 0.5585458833,
				"y": -0.8229162386,
				"z": 1.050732701,
				"element": "H" 
			},
			{
				"x": -2.5790002621,
				"y": 1.5450827427,
				"z": -2.1887482395,
				"element": "H" 
			},
			{
				"x": -2.1329554942,
				"y": 2.6415026742,
				"z": -0.8600268095,
				"element": "H" 
			},
			{
				"x": -1.8998294724,
				"y": -0.3853612433,
				"z": -0.9122320629,
				"element": "H" 
			},
			{
				"x": -1.9867411712,
				"y": 0.6849418105,
				"z": 0.4898760072,
				"element": "H" 
			},
			{
				"x": 2.1057281182,
				"y": 2.3514313561,
				"z": -2.4708264619,
				"element": "H" 
			},
			{
				"x": 3.7562416636,
				"y": 1.1121168488,
				"z": -1.0961968935,
				"element": "H" 
			}
		],
		 "valence_orbital": [ 
			{
				"type": "occ",
				"energy": -0.31633,
				"method": "rhf"
			},
			{
				"type": "occ",
				"energy": -0.25996,
				"method": "rhf"
			},
			{
				"type": "occ",
				"energy": -0.25245,
				"method": "rhf"
			},
			{
				"type": "occ",
				"energy": -0.24596,
				"method": "rhf"
			},
			{
				"type": "occ",
				"energy": -0.20388,
				"method": "rhf"
			},
			{
				"type": "unocc",
				"energy": -0.02278,
				"method": "rhf"
			},
			{
				"type": "unocc",
				"energy": -0.00247,
				"method": "rhf"
			},
			{
				"type": "unocc",
				"energy": 0.06248,
				"method": "rhf"
			},
			{
				"type": "unocc",
				"energy": 0.08327,
				"method": "rhf"
			},
			{
				"type": "unocc",
				"energy": 0.09246,
				"method": "rhf"
			}
		],
		"cosmo_sigma_profile": { 
			"-0.025": 0.0,
			"-0.024": 0.0,
			"-0.023": 0.0,
			"-0.022": 0.0,
			"-0.021": 0.0,
			"-0.02": 0.0,
			"-0.019": 0.0,
			"-0.018": 0.0201442584249,
			"-0.017": 0.681395654764,
			"-0.016": 0.796595416591,
			"-0.015": 1.22382142302,
			"-0.014": 0.661110196057,
			"-0.013": 0.411480914276,
			"-0.012": 0.468849494649,
			"-0.011": 0.875158429135,
			"-0.01": 0.661775460309,
			"-0.009": 0.822400082004,
			"-0.008": 0.633633415374,
			"-0.007": 1.49292835207,
			"-0.006": 8.40556894068,
			"-0.005": 17.7539376761,
			"-0.004": 21.3594617049,
			"-0.003": 21.2872363381,
			"-0.002": 17.6856728786,
			"-0.001": 15.0375511236,
			"0.0": 13.2210777877,
			"0.001": 9.73621430806,
			"0.002": 11.7959453705,
			"0.003": 13.1891551624,
			"0.004": 13.3000625843,
			"0.005": 14.4322280777,
			"0.006": 6.56152626013,
			"0.007": 5.04076127069,
			"0.008": 4.26267983796,
			"0.009": 3.52806766978,
			"0.01": 3.92909656703,
			"0.011": 2.84761000577,
			"0.012": 1.01982927672,
			"0.013": 1.03287691859,
			"0.014": 0.347770594852,
			"0.015": 0.0,
			"0.016": 0.0,
			"0.017": 0.0,
			"0.018": 0.0,
			"0.019": 0.0,
			"0.02": 0.0,
			"0.021": 0.0,
			"0.022": 0.0,
			"0.023": 0.0,
			"0.024": 0.0,
			"0.025": 0.0
		}
	}
}
