{
	 "smiles": "FC1=C(C=CC(Br)=C1)N1CCCCC1=O", 
	 "Tm": 370.15, 
	 "num_atms": 26, 
	 "gaussian": { 
		 "optdone": 1, 
		 "sigma_profile": "yes", 
		 "theory": "DFT", 
		 "functional": "B3LYP", 
		 "basiset": "6-31G**", 
		 "properties": { 
			 "R2extent": 6983.6173, 
			 "electric_dipole_moment_norm": 3.98512889377, 
			 "electric_quadrupole_moment_norm": 6.2886016832, 
			 "total_energy": -3227.02730335, 
			 "HOMO_LUMO_gap": 0.2012, 
			 "cosmo_polarized_energy": -10.05, 
			 "cosmo_cavitation_energy": 31.31, 
			 "cosmo_dispersion_energy": -23.21, 
			 "cosmo_repulsion_energy": 1.81, 
			 "cosmo_total_nonelectrostatic_energy": 9.91, 
			 "SMD_solvation_energy": 4.46 
		},
		"coords": [
			{
				"x": -1.6234798496,
				"y": 1.6915923453,
				"z": -0.3587790408,
				"element": "F" 
			},
			{
				"x": -1.6598221435,
				"y": 0.8751215404,
				"z": 0.7195688133,
				"element": "C" 
			},
			{
				"x": -0.6219883776,
				"y": -0.0459640919,
				"z": 0.912220652,
				"element": "C" 
			},
			{
				"x": -0.6834623152,
				"y": -0.8468956271,
				"z": 2.0616811257,
				"element": "C" 
			},
			{
				"x": -1.7408807805,
				"y": -0.7396376229,
				"z": 2.9624625283,
				"element": "C" 
			},
			{
				"x": -2.7645066404,
				"y": 0.1736000261,
				"z": 2.7146420645,
				"element": "C" 
			},
			{
				"x": -4.2260155994,
				"y": 0.3154092963,
				"z": 3.9339080161,
				"element": "Br" 
			},
			{
				"x": -2.73715734,
				"y": 0.9903964407,
				"z": 1.5877783734,
				"element": "C" 
			},
			{
				"x": 0.4388706338,
				"y": -0.1456551684,
				"z": -0.0244781489,
				"element": "N" 
			},
			{
				"x": 0.1531964462,
				"y": -0.1835662767,
				"z": -1.4730602304,
				"element": "C" 
			},
			{
				"x": 0.9219888753,
				"y": -1.3355216737,
				"z": -2.1289823617,
				"element": "C" 
			},
			{
				"x": 2.441142024,
				"y": -1.2569035887,
				"z": -1.8321585465,
				"element": "C" 
			},
			{
				"x": 2.7607996856,
				"y": -0.1970771718,
				"z": -0.7549063593,
				"element": "C" 
			},
			{
				"x": 1.764259099,
				"y": -0.1885679578,
				"z": 0.3955056134,
				"element": "C" 
			},
			{
				"x": 2.0981967444,
				"y": -0.2013682164,
				"z": 1.5708992228,
				"element": "O" 
			},
			{
				"x": 0.1195630817,
				"y": -1.5461947146,
				"z": 2.2530849646,
				"element": "H" 
			},
			{
				"x": -1.7701914939,
				"y": -1.3663615889,
				"z": 3.8457172625,
				"element": "H" 
			},
			{
				"x": -3.5144474384,
				"y": 1.715638017,
				"z": 1.3818831016,
				"element": "H" 
			},
			{
				"x": -0.920250767,
				"y": -0.3214166107,
				"z": -1.6022642141,
				"element": "H" 
			},
			{
				"x": 0.409593664,
				"y": 0.7766217903,
				"z": -1.937886559,
				"element": "H" 
			},
			{
				"x": 0.7292471915,
				"y": -1.3210553125,
				"z": -3.207145755,
				"element": "H" 
			},
			{
				"x": 0.5123136434,
				"y": -2.2765755378,
				"z": -1.7468925805,
				"element": "H" 
			},
			{
				"x": 3.003698015,
				"y": -1.0177664372,
				"z": -2.7401283717,
				"element": "H" 
			},
			{
				"x": 2.8021443095,
				"y": -2.2330691238,
				"z": -1.4942255674,
				"element": "H" 
			},
			{
				"x": 3.7514773749,
				"y": -0.3437791735,
				"z": -0.3216945012,
				"element": "H" 
			},
			{
				"x": 2.7492119572,
				"y": 0.8022964382,
				"z": -1.2103495015,
				"element": "H" 
			}
		],
		 "valence_orbital": [ 
			{
				"type": "occ",
				"energy": -0.29016,
				"method": "rhf"
			},
			{
				"type": "occ",
				"energy": -0.27278,
				"method": "rhf"
			},
			{
				"type": "occ",
				"energy": -0.26343,
				"method": "rhf"
			},
			{
				"type": "occ",
				"energy": -0.24737,
				"method": "rhf"
			},
			{
				"type": "occ",
				"energy": -0.22603,
				"method": "rhf"
			},
			{
				"type": "unocc",
				"energy": -0.02483,
				"method": "rhf"
			},
			{
				"type": "unocc",
				"energy": -0.01152,
				"method": "rhf"
			},
			{
				"type": "unocc",
				"energy": 0.00246,
				"method": "rhf"
			},
			{
				"type": "unocc",
				"energy": 0.02527,
				"method": "rhf"
			},
			{
				"type": "unocc",
				"energy": 0.07248,
				"method": "rhf"
			}
		],
		"cosmo_sigma_profile": { 
			"-0.025": 0.0,
			"-0.024": 0.0,
			"-0.023": 0.0,
			"-0.022": 0.0,
			"-0.021": 0.0,
			"-0.02": 0.0,
			"-0.019": 0.0,
			"-0.018": 0.0,
			"-0.017": 0.0,
			"-0.016": 0.0,
			"-0.015": 0.0,
			"-0.014": 0.0,
			"-0.013": 0.0,
			"-0.012": 0.0,
			"-0.011": 0.0,
			"-0.01": 0.0,
			"-0.009": 0.354365414153,
			"-0.008": 1.68617743848,
			"-0.007": 3.86978981863,
			"-0.006": 9.44341712285,
			"-0.005": 14.364645037,
			"-0.004": 19.5891164332,
			"-0.003": 32.2504642508,
			"-0.002": 25.953395156,
			"-0.001": 21.8567321782,
			"0.0": 23.1141835847,
			"0.001": 18.4857662794,
			"0.002": 20.2300326102,
			"0.003": 17.5811557779,
			"0.004": 18.8808339962,
			"0.005": 4.77107449052,
			"0.006": 1.0378558969,
			"0.007": 2.1942586884,
			"0.008": 1.14979563911,
			"0.009": 1.5619194458,
			"0.01": 1.87242824015,
			"0.011": 1.60810896987,
			"0.012": 2.79955830828,
			"0.013": 3.77612496137,
			"0.014": 2.76656878873,
			"0.015": 0.464156936102,
			"0.016": 0.0,
			"0.017": 0.0,
			"0.018": 0.0,
			"0.019": 0.0,
			"0.02": 0.0,
			"0.021": 0.0,
			"0.022": 0.0,
			"0.023": 0.0,
			"0.024": 0.0,
			"0.025": 0.0
		}
	}
}
