{
	 "smiles": "CN(C)S(=O)(=O)C1=C(F)C=CC(=C1)C(O)=O", 
	 "Tm": 473.15, 
	 "num_atms": 26, 
	 "gaussian": { 
		 "optdone": 1, 
		 "sigma_profile": "yes", 
		 "theory": "DFT", 
		 "functional": "B3LYP", 
		 "basiset": "6-31G**", 
		 "properties": { 
			 "R2extent": 4612.6301, 
			 "electric_dipole_moment_norm": 6.38320161204, 
			 "electric_quadrupole_moment_norm": 27.108681391, 
			 "total_energy": -1202.57805795, 
			 "HOMO_LUMO_gap": 0.19257, 
			 "cosmo_polarized_energy": -23.8, 
			 "cosmo_cavitation_energy": 31.71, 
			 "cosmo_dispersion_energy": -22.87, 
			 "cosmo_repulsion_energy": 1.71, 
			 "cosmo_total_nonelectrostatic_energy": 10.55, 
			 "SMD_solvation_energy": 5.81 
		},
		"coords": [
			{
				"x": -1.3100502576,
				"y": 2.5456688146,
				"z": -0.7106302326,
				"element": "C" 
			},
			{
				"x": 0.0957391353,
				"y": 2.2091642943,
				"z": -0.946273967,
				"element": "N" 
			},
			{
				"x": 0.3784402934,
				"y": 1.4626963441,
				"z": -2.1740232753,
				"element": "C" 
			},
			{
				"x": 1.0860915443,
				"y": 1.9158561071,
				"z": 0.3710128329,
				"element": "S" 
			},
			{
				"x": 2.4576766829,
				"y": 1.8857011717,
				"z": -0.135822707,
				"element": "O" 
			},
			{
				"x": 0.6720337382,
				"y": 2.8240030741,
				"z": 1.4368667593,
				"element": "O" 
			},
			{
				"x": 0.7567592015,
				"y": 0.2229465613,
				"z": 0.9384551672,
				"element": "C" 
			},
			{
				"x": -0.4244518156,
				"y": -0.1252487364,
				"z": 1.6026953086,
				"element": "C" 
			},
			{
				"x": -1.3825154107,
				"y": 0.7933944487,
				"z": 1.796985281,
				"element": "F" 
			},
			{
				"x": -0.649727803,
				"y": -1.4189406768,
				"z": 2.0571467496,
				"element": "C" 
			},
			{
				"x": 0.3310873654,
				"y": -2.3870212877,
				"z": 1.8534041841,
				"element": "C" 
			},
			{
				"x": 1.5261573192,
				"y": -2.0647952765,
				"z": 1.1954886683,
				"element": "C" 
			},
			{
				"x": 1.7233082854,
				"y": -0.7580886572,
				"z": 0.730201214,
				"element": "C" 
			},
			{
				"x": 2.6025650563,
				"y": -3.0716111511,
				"z": 0.9131659984,
				"element": "C" 
			},
			{
				"x": 2.6434447165,
				"y": -4.1642188646,
				"z": 1.7214239518,
				"element": "O" 
			},
			{
				"x": 3.3989459342,
				"y": -2.9487088927,
				"z": 0.0146398998,
				"element": "O" 
			},
			{
				"x": -1.6482699413,
				"y": 3.1721688308,
				"z": -1.5415804633,
				"element": "H" 
			},
			{
				"x": -1.3971113201,
				"y": 3.1132841758,
				"z": 0.2142296945,
				"element": "H" 
			},
			{
				"x": -1.9534145953,
				"y": 1.6565933811,
				"z": -0.6563049148,
				"element": "H" 
			},
			{
				"x": 1.4558696616,
				"y": 1.359473663,
				"z": -2.2984679266,
				"element": "H" 
			},
			{
				"x": -0.0916589043,
				"y": 0.4679642697,
				"z": -2.1794869684,
				"element": "H" 
			},
			{
				"x": -0.014282603,
				"y": 2.0369457667,
				"z": -3.0181132849,
				"element": "H" 
			},
			{
				"x": -1.5860894424,
				"y": -1.6474675247,
				"z": 2.5538442856,
				"element": "H" 
			},
			{
				"x": 0.1331823188,
				"y": -3.4043450249,
				"z": 2.1801795209,
				"element": "H" 
			},
			{
				"x": 2.6427852598,
				"y": -0.5043384676,
				"z": 0.2150615864,
				"element": "H" 
			},
			{
				"x": 2.0852855802,
				"y": -4.0317763429,
				"z": 2.5000026376,
				"element": "H" 
			}
		],
		 "valence_orbital": [ 
			{
				"type": "occ",
				"energy": -0.30989,
				"method": "rhf"
			},
			{
				"type": "occ",
				"energy": -0.30046,
				"method": "rhf"
			},
			{
				"type": "occ",
				"energy": -0.29159,
				"method": "rhf"
			},
			{
				"type": "occ",
				"energy": -0.28001,
				"method": "rhf"
			},
			{
				"type": "occ",
				"energy": -0.2632,
				"method": "rhf"
			},
			{
				"type": "unocc",
				"energy": -0.07063,
				"method": "rhf"
			},
			{
				"type": "unocc",
				"energy": -0.05646,
				"method": "rhf"
			},
			{
				"type": "unocc",
				"energy": 0.02072,
				"method": "rhf"
			},
			{
				"type": "unocc",
				"energy": 0.03517,
				"method": "rhf"
			},
			{
				"type": "unocc",
				"energy": 0.05497,
				"method": "rhf"
			}
		],
		"cosmo_sigma_profile": { 
			"-0.025": 0.0,
			"-0.024": 0.0,
			"-0.023": 0.0,
			"-0.022": 0.0,
			"-0.021": 0.0,
			"-0.02": 0.0889152122353,
			"-0.019": 0.712409832404,
			"-0.018": 1.43823558952,
			"-0.017": 0.859947750704,
			"-0.016": 1.19387849167,
			"-0.015": 0.911622817118,
			"-0.014": 0.849111927183,
			"-0.013": 1.09479860727,
			"-0.012": 1.54767465328,
			"-0.011": 1.36818945818,
			"-0.01": 1.89290391444,
			"-0.009": 3.39392679748,
			"-0.008": 4.85831590219,
			"-0.007": 5.74469556498,
			"-0.006": 10.4408927607,
			"-0.005": 17.1769366593,
			"-0.004": 19.2087578815,
			"-0.003": 27.0395092668,
			"-0.002": 23.9747806023,
			"-0.001": 17.5792606997,
			"0.0": 13.7751499913,
			"0.001": 8.20670037272,
			"0.002": 9.27290314319,
			"0.003": 8.47272460761,
			"0.004": 7.32729368976,
			"0.005": 6.78736850766,
			"0.006": 6.81235659149,
			"0.007": 5.85754068614,
			"0.008": 7.74806451563,
			"0.009": 7.48904867522,
			"0.01": 13.2948890961,
			"0.011": 11.9437989913,
			"0.012": 4.04982298336,
			"0.013": 0.558969639476,
			"0.014": 0.0,
			"0.015": 0.0,
			"0.016": 0.0,
			"0.017": 0.0,
			"0.018": 0.0,
			"0.019": 0.0,
			"0.02": 0.0,
			"0.021": 0.0,
			"0.022": 0.0,
			"0.023": 0.0,
			"0.024": 0.0,
			"0.025": 0.0
		}
	}
}
