{
	 "smiles": "OC(=O)C1=NN(C2CCS(=O)(=O)C2)C(=O)CC1", 
	 "Tm": 412.15, 
	 "num_atms": 29, 
	 "gaussian": { 
		 "optdone": 1, 
		 "sigma_profile": "yes", 
		 "theory": "DFT", 
		 "functional": "B3LYP", 
		 "basiset": "6-31G**", 
		 "properties": { 
			 "R2extent": 4706.9635, 
			 "electric_dipole_moment_norm": 5.86382984149, 
			 "electric_quadrupole_moment_norm": 20.9297002315, 
			 "total_energy": -1233.93309009, 
			 "HOMO_LUMO_gap": 0.18692, 
			 "cosmo_polarized_energy": -26.11, 
			 "cosmo_cavitation_energy": 32.62, 
			 "cosmo_dispersion_energy": -24.17, 
			 "cosmo_repulsion_energy": 1.82, 
			 "cosmo_total_nonelectrostatic_energy": 10.27, 
			 "SMD_solvation_energy": 6.0 
		},
		"coords": [
			{
				"x": 2.3497184842,
				"y": -0.3579103464,
				"z": -0.9839653816,
				"element": "O" 
			},
			{
				"x": 1.5371378853,
				"y": -1.3668092705,
				"z": -1.3161970234,
				"element": "C" 
			},
			{
				"x": 1.8461373819,
				"y": -2.2248665594,
				"z": -2.1153643939,
				"element": "O" 
			},
			{
				"x": 0.1899281673,
				"y": -1.3855250926,
				"z": -0.6447787094,
				"element": "C" 
			},
			{
				"x": -0.0171394419,
				"y": -0.4439325325,
				"z": 0.2020771446,
				"element": "N" 
			},
			{
				"x": -1.2190392034,
				"y": -0.3428136338,
				"z": 0.8447300935,
				"element": "N" 
			},
			{
				"x": -1.3535864574,
				"y": 0.8858894997,
				"z": 1.6333117677,
				"element": "C" 
			},
			{
				"x": -1.4443580853,
				"y": 2.1357081165,
				"z": 0.6896868859,
				"element": "C" 
			},
			{
				"x": -0.650452249,
				"y": 3.2967837649,
				"z": 1.2922396274,
				"element": "C" 
			},
			{
				"x": 0.8101883261,
				"y": 2.486831982,
				"z": 2.0194064203,
				"element": "S" 
			},
			{
				"x": 1.6912920706,
				"y": 2.0504556799,
				"z": 0.9175871292,
				"element": "O" 
			},
			{
				"x": 1.3620182653,
				"y": 3.252235462,
				"z": 3.144089809,
				"element": "O" 
			},
			{
				"x": -0.1688567834,
				"y": 1.0612616084,
				"z": 2.6154632036,
				"element": "C" 
			},
			{
				"x": -2.1666121769,
				"y": -1.367974695,
				"z": 0.9123864478,
				"element": "C" 
			},
			{
				"x": -3.2026821393,
				"y": -1.2341912076,
				"z": 1.5406639519,
				"element": "O" 
			},
			{
				"x": -1.7551930033,
				"y": -2.6529012169,
				"z": 0.2098153582,
				"element": "C" 
			},
			{
				"x": -0.8378896335,
				"y": -2.4180231117,
				"z": -0.9977629814,
				"element": "C" 
			},
			{
				"x": 1.9256440653,
				"y": 0.2422347838,
				"z": -0.3356101875,
				"element": "H" 
			},
			{
				"x": -2.2801122238,
				"y": 0.7634595259,
				"z": 2.1935293477,
				"element": "H" 
			},
			{
				"x": -2.4874487542,
				"y": 2.4126542599,
				"z": 0.5191367962,
				"element": "H" 
			},
			{
				"x": -1.0039460659,
				"y": 1.8708612291,
				"z": -0.2743244704,
				"element": "H" 
			},
			{
				"x": -0.3081571815,
				"y": 4.0304668092,
				"z": 0.5603709575,
				"element": "H" 
			},
			{
				"x": -1.1702375254,
				"y": 3.806420351,
				"z": 2.1084254469,
				"element": "H" 
			},
			{
				"x": 0.4893457276,
				"y": 0.193580684,
				"z": 2.6594194076,
				"element": "H" 
			},
			{
				"x": -0.5033223211,
				"y": 1.3227825056,
				"z": 3.6214662449,
				"element": "H" 
			},
			{
				"x": -2.6679423747,
				"y": -3.1879524077,
				"z": -0.0581432737,
				"element": "H" 
			},
			{
				"x": -1.2377164611,
				"y": -3.262778216,
				"z": 0.9630178031,
				"element": "H" 
			},
			{
				"x": -0.3467239679,
				"y": -3.334409055,
				"z": -1.3312355298,
				"element": "H" 
			},
			{
				"x": -1.4163943245,
				"y": -2.0483389169,
				"z": -1.8567418919,
				"element": "H" 
			}
		],
		 "valence_orbital": [ 
			{
				"type": "occ",
				"energy": -0.30961,
				"method": "rhf"
			},
			{
				"type": "occ",
				"energy": -0.29916,
				"method": "rhf"
			},
			{
				"type": "occ",
				"energy": -0.28595,
				"method": "rhf"
			},
			{
				"type": "occ",
				"energy": -0.27221,
				"method": "rhf"
			},
			{
				"type": "occ",
				"energy": -0.26549,
				"method": "rhf"
			},
			{
				"type": "unocc",
				"energy": -0.07857,
				"method": "rhf"
			},
			{
				"type": "unocc",
				"energy": -0.00655,
				"method": "rhf"
			},
			{
				"type": "unocc",
				"energy": 0.03975,
				"method": "rhf"
			},
			{
				"type": "unocc",
				"energy": 0.04358,
				"method": "rhf"
			},
			{
				"type": "unocc",
				"energy": 0.05354,
				"method": "rhf"
			}
		],
		"cosmo_sigma_profile": { 
			"-0.025": 0.0,
			"-0.024": 0.0,
			"-0.023": 0.0,
			"-0.022": 0.0,
			"-0.021": 0.0,
			"-0.02": 0.0,
			"-0.019": 0.0,
			"-0.018": 0.0,
			"-0.017": 0.0,
			"-0.016": 0.0,
			"-0.015": 0.0,
			"-0.014": 0.0,
			"-0.013": 0.0,
			"-0.012": 0.0471445166454,
			"-0.011": 0.827037940994,
			"-0.01": 1.58103487273,
			"-0.009": 6.70958783234,
			"-0.008": 11.9326232532,
			"-0.007": 19.7152517045,
			"-0.006": 24.7445263169,
			"-0.005": 26.2307354429,
			"-0.004": 22.7719969271,
			"-0.003": 18.1864033687,
			"-0.002": 10.2474314925,
			"-0.001": 9.31405637415,
			"0.0": 6.8627313198,
			"0.001": 6.15468402748,
			"0.002": 6.9711702072,
			"0.003": 5.79566192781,
			"0.004": 4.24346327165,
			"0.005": 5.79669981696,
			"0.006": 5.35685690299,
			"0.007": 6.97614922239,
			"0.008": 6.10262383615,
			"0.009": 7.98633003204,
			"0.01": 11.8458156245,
			"0.011": 17.242624806,
			"0.012": 12.4374823538,
			"0.013": 2.19785947051,
			"0.014": 0.00598948402524,
			"0.015": 0.0,
			"0.016": 0.0,
			"0.017": 0.0,
			"0.018": 0.0,
			"0.019": 0.0,
			"0.02": 0.0,
			"0.021": 0.0,
			"0.022": 0.0,
			"0.023": 0.0,
			"0.024": 0.0,
			"0.025": 0.0
		}
	}
}
