{
	 "smiles": "COC(=O)C(F)(F)F", 
	 "Tm": 195.15, 
	 "num_atms": 11, 
	 "gaussian": { 
		 "optdone": 1, 
		 "sigma_profile": "yes", 
		 "theory": "DFT", 
		 "functional": "B3LYP", 
		 "basiset": "6-31G**", 
		 "properties": { 
			 "R2extent": 1372.9581, 
			 "electric_dipole_moment_norm": 2.75553181981, 
			 "electric_quadrupole_moment_norm": 4.22628063432, 
			 "total_energy": -566.087993492, 
			 "HOMO_LUMO_gap": 0.27364, 
			 "cosmo_polarized_energy": -5.41, 
			 "cosmo_cavitation_energy": 17.38, 
			 "cosmo_dispersion_energy": -12.25, 
			 "cosmo_repulsion_energy": 0.99, 
			 "cosmo_total_nonelectrostatic_energy": 6.13, 
			 "SMD_solvation_energy": 6.28 
		},
		"coords": [
			{
				"x": 1.0622989496,
				"y": 0.8676562018,
				"z": 0.7246894175,
				"element": "C" 
			},
			{
				"x": 0.1851261098,
				"y": 0.4089759008,
				"z": -0.3254972887,
				"element": "O" 
			},
			{
				"x": 0.5419737077,
				"y": -0.7373783771,
				"z": -0.9066620402,
				"element": "C" 
			},
			{
				"x": 1.5056521581,
				"y": -1.4110658388,
				"z": -0.6437347683,
				"element": "O" 
			},
			{
				"x": -0.4826032851,
				"y": -1.1017164729,
				"z": -2.0033570709,
				"element": "C" 
			},
			{
				"x": -0.5369814549,
				"y": -0.1327926159,
				"z": -2.9345419796,
				"element": "F" 
			},
			{
				"x": -0.1373100219,
				"y": -2.2465068528,
				"z": -2.5954343314,
				"element": "F" 
			},
			{
				"x": -1.7091299127,
				"y": -1.2437807254,
				"z": -1.4700886009,
				"element": "F" 
			},
			{
				"x": 0.6264297536,
				"y": 1.7999248804,
				"z": 1.0799181357,
				"element": "H" 
			},
			{
				"x": 1.1075220016,
				"y": 0.1291081908,
				"z": 1.5280472686,
				"element": "H" 
			},
			{
				"x": 2.0674219944,
				"y": 1.0339757091,
				"z": 0.3310612583,
				"element": "H" 
			}
		],
		 "valence_orbital": [ 
			{
				"type": "occ",
				"energy": -0.41229,
				"method": "rhf"
			},
			{
				"type": "occ",
				"energy": -0.41033,
				"method": "rhf"
			},
			{
				"type": "occ",
				"energy": -0.38083,
				"method": "rhf"
			},
			{
				"type": "occ",
				"energy": -0.33084,
				"method": "rhf"
			},
			{
				"type": "occ",
				"energy": -0.30417,
				"method": "rhf"
			},
			{
				"type": "unocc",
				"energy": -0.03053,
				"method": "rhf"
			},
			{
				"type": "unocc",
				"energy": 0.09065,
				"method": "rhf"
			},
			{
				"type": "unocc",
				"energy": 0.09819,
				"method": "rhf"
			},
			{
				"type": "unocc",
				"energy": 0.13963,
				"method": "rhf"
			},
			{
				"type": "unocc",
				"energy": 0.15039,
				"method": "rhf"
			}
		],
		"cosmo_sigma_profile": { 
			"-0.025": 0.0,
			"-0.024": 0.0,
			"-0.023": 0.0,
			"-0.022": 0.0,
			"-0.021": 0.0,
			"-0.02": 0.0,
			"-0.019": 0.0,
			"-0.018": 0.0,
			"-0.017": 0.0,
			"-0.016": 0.0,
			"-0.015": 0.0,
			"-0.014": 0.0,
			"-0.013": 0.0,
			"-0.012": 0.0,
			"-0.011": 0.0,
			"-0.01": 0.0,
			"-0.009": 0.0,
			"-0.008": 0.899923733155,
			"-0.007": 7.1202544391,
			"-0.006": 11.0538922631,
			"-0.005": 10.2230905393,
			"-0.004": 9.44305697453,
			"-0.003": 6.08432015362,
			"-0.002": 6.37442528064,
			"-0.001": 5.30082347815,
			"0.0": 7.73297875503,
			"0.001": 17.6279601982,
			"0.002": 30.3255232499,
			"0.003": 5.58543068248,
			"0.004": 2.63470954535,
			"0.005": 3.83975295975,
			"0.006": 2.91343156001,
			"0.007": 1.75959573563,
			"0.008": 1.99956899792,
			"0.009": 3.7196116397,
			"0.01": 4.05742674422,
			"0.011": 0.270915066188,
			"0.012": 0.0,
			"0.013": 0.0,
			"0.014": 0.0,
			"0.015": 0.0,
			"0.016": 0.0,
			"0.017": 0.0,
			"0.018": 0.0,
			"0.019": 0.0,
			"0.02": 0.0,
			"0.021": 0.0,
			"0.022": 0.0,
			"0.023": 0.0,
			"0.024": 0.0,
			"0.025": 0.0
		}
	}
}
