{
	 "smiles": "NC(=O)COC1=CC(CCl)=CC=C1", 
	 "Tm": 388.15, 
	 "num_atms": 23, 
	 "gaussian": { 
		 "optdone": 1, 
		 "sigma_profile": "yes", 
		 "theory": "DFT", 
		 "functional": "B3LYP", 
		 "basiset": "6-31G**", 
		 "properties": { 
			 "R2extent": 4385.256, 
			 "electric_dipole_moment_norm": 2.29749589771, 
			 "electric_quadrupole_moment_norm": 23.6870469394, 
			 "total_energy": -1014.38752762, 
			 "HOMO_LUMO_gap": 0.20259, 
			 "cosmo_polarized_energy": -15.85, 
			 "cosmo_cavitation_energy": 29.47, 
			 "cosmo_dispersion_energy": -21.46, 
			 "cosmo_repulsion_energy": 1.74, 
			 "cosmo_total_nonelectrostatic_energy": 9.75, 
			 "SMD_solvation_energy": 5.76 
		},
		"coords": [
			{
				"x": -3.1204900406,
				"y": 0.4601485665,
				"z": 1.5421546084,
				"element": "N" 
			},
			{
				"x": -3.0455800847,
				"y": -0.8728985762,
				"z": 1.306786673,
				"element": "C" 
			},
			{
				"x": -3.9205419529,
				"y": -1.6815141373,
				"z": 1.5770897246,
				"element": "O" 
			},
			{
				"x": -1.7476366404,
				"y": -1.3567052524,
				"z": 0.6585804722,
				"element": "C" 
			},
			{
				"x": -0.8800542056,
				"y": -0.262773457,
				"z": 0.3863545962,
				"element": "O" 
			},
			{
				"x": 0.3439313302,
				"y": -0.5121572911,
				"z": -0.1754618264,
				"element": "C" 
			},
			{
				"x": 1.1438568477,
				"y": 0.6129306326,
				"z": -0.4091053749,
				"element": "C" 
			},
			{
				"x": 2.4095368991,
				"y": 0.475692902,
				"z": -0.9790154957,
				"element": "C" 
			},
			{
				"x": 3.2569897242,
				"y": 1.6886556743,
				"z": -1.2262321114,
				"element": "C" 
			},
			{
				"x": 4.3431431603,
				"y": 2.0860721832,
				"z": 0.2011105203,
				"element": "Cl" 
			},
			{
				"x": 2.879138909,
				"y": -0.8019852029,
				"z": -1.3196557113,
				"element": "C" 
			},
			{
				"x": 2.0797745368,
				"y": -1.9163521159,
				"z": -1.0875256063,
				"element": "C" 
			},
			{
				"x": 0.8099388597,
				"y": -1.7861895769,
				"z": -0.5166466187,
				"element": "C" 
			},
			{
				"x": -3.9537673319,
				"y": 0.8268374362,
				"z": 1.9748110941,
				"element": "H" 
			},
			{
				"x": -2.3573385466,
				"y": 1.0691490293,
				"z": 1.2943139535,
				"element": "H" 
			},
			{
				"x": -2.0141130751,
				"y": -1.8920195054,
				"z": -0.2612320771,
				"element": "H" 
			},
			{
				"x": -1.2795556459,
				"y": -2.0726229036,
				"z": 1.3460964492,
				"element": "H" 
			},
			{
				"x": 0.7600754704,
				"y": 1.5905338655,
				"z": -0.1331817611,
				"element": "H" 
			},
			{
				"x": 2.6551764396,
				"y": 2.5828606816,
				"z": -1.3882136065,
				"element": "H" 
			},
			{
				"x": 3.9317250356,
				"y": 1.5481210145,
				"z": -2.070653777,
				"element": "H" 
			},
			{
				"x": 3.8651396951,
				"y": -0.9164411498,
				"z": -1.7601212189,
				"element": "H" 
			},
			{
				"x": 2.4397043275,
				"y": -2.9058355887,
				"z": -1.3533779266,
				"element": "H" 
			},
			{
				"x": 0.2044462884,
				"y": -2.6685072285,
				"z": -0.3483749797,
				"element": "H" 
			}
		],
		 "valence_orbital": [ 
			{
				"type": "occ",
				"energy": -0.29542,
				"method": "rhf"
			},
			{
				"type": "occ",
				"energy": -0.27208,
				"method": "rhf"
			},
			{
				"type": "occ",
				"energy": -0.26225,
				"method": "rhf"
			},
			{
				"type": "occ",
				"energy": -0.25606,
				"method": "rhf"
			},
			{
				"type": "occ",
				"energy": -0.23663,
				"method": "rhf"
			},
			{
				"type": "unocc",
				"energy": -0.03404,
				"method": "rhf"
			},
			{
				"type": "unocc",
				"energy": -0.00837,
				"method": "rhf"
			},
			{
				"type": "unocc",
				"energy": 0.02632,
				"method": "rhf"
			},
			{
				"type": "unocc",
				"energy": 0.04152,
				"method": "rhf"
			},
			{
				"type": "unocc",
				"energy": 0.07885,
				"method": "rhf"
			}
		],
		"cosmo_sigma_profile": { 
			"-0.025": 0.0,
			"-0.024": 0.0,
			"-0.023": 0.0,
			"-0.022": 0.0,
			"-0.021": 0.0,
			"-0.02": 0.0,
			"-0.019": 0.0,
			"-0.018": 0.0,
			"-0.017": 0.0,
			"-0.016": 0.0,
			"-0.015": 0.116908521233,
			"-0.014": 1.11913701802,
			"-0.013": 1.78920194627,
			"-0.012": 1.695368938,
			"-0.011": 1.94369322083,
			"-0.01": 1.87381654009,
			"-0.009": 1.62894051169,
			"-0.008": 4.42261114513,
			"-0.007": 17.7079403912,
			"-0.006": 17.4937023519,
			"-0.005": 15.4179166665,
			"-0.004": 14.9916176457,
			"-0.003": 10.9989749405,
			"-0.002": 9.75917531618,
			"-0.001": 10.842295514,
			"0.0": 12.7372440027,
			"0.001": 10.8698005204,
			"0.002": 14.400754028,
			"0.003": 17.0942764255,
			"0.004": 16.7102344608,
			"0.005": 15.6728492919,
			"0.006": 10.2572184376,
			"0.007": 9.41424454649,
			"0.008": 1.33036210327,
			"0.009": 0.531784968696,
			"0.01": 1.08526692322,
			"0.011": 1.79666968808,
			"0.012": 1.97728174522,
			"0.013": 3.83985758002,
			"0.014": 5.63601267001,
			"0.015": 1.09018190981,
			"0.016": 0.0,
			"0.017": 0.0,
			"0.018": 0.0,
			"0.019": 0.0,
			"0.02": 0.0,
			"0.021": 0.0,
			"0.022": 0.0,
			"0.023": 0.0,
			"0.024": 0.0,
			"0.025": 0.0
		}
	}
}
