{
	 "smiles": "COC(=O)C1=NN2C=CC=CC2=C1C(=O)OC", 
	 "Tm": 346.15, 
	 "num_atms": 27, 
	 "gaussian": { 
		 "optdone": 1, 
		 "sigma_profile": "yes", 
		 "theory": "DFT", 
		 "functional": "B3LYP", 
		 "basiset": "6-31G**", 
		 "properties": { 
			 "R2extent": 4915.8924, 
			 "electric_dipole_moment_norm": 2.64641768812, 
			 "electric_quadrupole_moment_norm": 18.578404569, 
			 "total_energy": -835.584673546, 
			 "HOMO_LUMO_gap": 0.16963, 
			 "cosmo_polarized_energy": -15.36, 
			 "cosmo_cavitation_energy": 32.68, 
			 "cosmo_dispersion_energy": -23.4, 
			 "cosmo_repulsion_energy": 1.82, 
			 "cosmo_total_nonelectrostatic_energy": 11.09, 
			 "SMD_solvation_energy": 8.01 
		},
		"coords": [
			{
				"x": 1.879438282,
				"y": 1.1428859241,
				"z": 2.9213969473,
				"element": "C" 
			},
			{
				"x": 1.2594724208,
				"y": 0.9557817961,
				"z": 1.6386388906,
				"element": "O" 
			},
			{
				"x": 1.0923668974,
				"y": -0.3290760695,
				"z": 1.2719379873,
				"element": "C" 
			},
			{
				"x": 1.4512574338,
				"y": -1.2800404064,
				"z": 1.9296331184,
				"element": "O" 
			},
			{
				"x": 0.3706496381,
				"y": -0.4289733418,
				"z": -0.0341025062,
				"element": "C" 
			},
			{
				"x": -0.7038240082,
				"y": 0.3455111358,
				"z": -0.2251583844,
				"element": "N" 
			},
			{
				"x": -1.19406242,
				"y": -0.0496446481,
				"z": -1.4247286435,
				"element": "N" 
			},
			{
				"x": -2.3085506287,
				"y": 0.4903598817,
				"z": -2.0053961891,
				"element": "C" 
			},
			{
				"x": -2.7104977294,
				"y": 0.0153474593,
				"z": -3.2229013623,
				"element": "C" 
			},
			{
				"x": -1.9758033108,
				"y": -1.022475533,
				"z": -3.8632011129,
				"element": "C" 
			},
			{
				"x": -0.8578788843,
				"y": -1.5598752506,
				"z": -3.269904543,
				"element": "C" 
			},
			{
				"x": -0.4485513396,
				"y": -1.0651022248,
				"z": -2.0095793833,
				"element": "C" 
			},
			{
				"x": 0.5959768067,
				"y": -1.3304641536,
				"z": -1.1046024678,
				"element": "C" 
			},
			{
				"x": 1.662717785,
				"y": -2.2965562755,
				"z": -1.3798484674,
				"element": "C" 
			},
			{
				"x": 1.62811174,
				"y": -3.1040030092,
				"z": -2.2958344147,
				"element": "O" 
			},
			{
				"x": 2.7069400303,
				"y": -2.1789725143,
				"z": -0.5366056364,
				"element": "O" 
			},
			{
				"x": 3.7672819977,
				"y": -3.1243211213,
				"z": -0.7344532054,
				"element": "C" 
			},
			{
				"x": 1.9373341584,
				"y": 2.221727858,
				"z": 3.0634941547,
				"element": "H" 
			},
			{
				"x": 2.8777173805,
				"y": 0.6981157501,
				"z": 2.9345477654,
				"element": "H" 
			},
			{
				"x": 1.2785521964,
				"y": 0.682490505,
				"z": 3.7098005754,
				"element": "H" 
			},
			{
				"x": -2.7944076766,
				"y": 1.2731283988,
				"z": -1.4380060148,
				"element": "H" 
			},
			{
				"x": -3.592363794,
				"y": 0.4389810161,
				"z": -3.6889488652,
				"element": "H" 
			},
			{
				"x": -2.3081463013,
				"y": -1.3921517241,
				"z": -4.8277231547,
				"element": "H" 
			},
			{
				"x": -0.2740957704,
				"y": -2.3551419017,
				"z": -3.7153940177,
				"element": "H" 
			},
			{
				"x": 4.2168996292,
				"y": -3.0003670289,
				"z": -1.7233141346,
				"element": "H" 
			},
			{
				"x": 4.4957517588,
				"y": -2.9127475192,
				"z": 0.0479186116,
				"element": "H" 
			},
			{
				"x": 3.3941137079,
				"y": -4.147417003,
				"z": -0.6433655473,
				"element": "H" 
			}
		],
		 "valence_orbital": [ 
			{
				"type": "occ",
				"energy": -0.29285,
				"method": "rhf"
			},
			{
				"type": "occ",
				"energy": -0.27838,
				"method": "rhf"
			},
			{
				"type": "occ",
				"energy": -0.26751,
				"method": "rhf"
			},
			{
				"type": "occ",
				"energy": -0.26458,
				"method": "rhf"
			},
			{
				"type": "occ",
				"energy": -0.2249,
				"method": "rhf"
			},
			{
				"type": "unocc",
				"energy": -0.05527,
				"method": "rhf"
			},
			{
				"type": "unocc",
				"energy": -0.02499,
				"method": "rhf"
			},
			{
				"type": "unocc",
				"energy": -0.01669,
				"method": "rhf"
			},
			{
				"type": "unocc",
				"energy": 0.03655,
				"method": "rhf"
			},
			{
				"type": "unocc",
				"energy": 0.08261,
				"method": "rhf"
			}
		],
		"cosmo_sigma_profile": { 
			"-0.025": 0.0,
			"-0.024": 0.0,
			"-0.023": 0.0,
			"-0.022": 0.0,
			"-0.021": 0.0,
			"-0.02": 0.0,
			"-0.019": 0.0,
			"-0.018": 0.0,
			"-0.017": 0.0,
			"-0.016": 0.0,
			"-0.015": 0.0,
			"-0.014": 0.0,
			"-0.013": 0.0,
			"-0.012": 0.0,
			"-0.011": 0.0,
			"-0.01": 1.12101355405,
			"-0.009": 2.19529503257,
			"-0.008": 5.08929059319,
			"-0.007": 9.11879813754,
			"-0.006": 18.0884542542,
			"-0.005": 18.7971023998,
			"-0.004": 22.1667992042,
			"-0.003": 23.2951234347,
			"-0.002": 21.303730011,
			"-0.001": 18.848193916,
			"0.0": 21.6318351123,
			"0.001": 20.2468624148,
			"0.002": 14.9974931108,
			"0.003": 6.18179539501,
			"0.004": 7.05529821117,
			"0.005": 6.09566287082,
			"0.006": 5.70427725614,
			"0.007": 4.90619637412,
			"0.008": 5.96377724616,
			"0.009": 5.17575891889,
			"0.01": 6.40974717969,
			"0.011": 8.68603890882,
			"0.012": 6.56994566428,
			"0.013": 2.05820407102,
			"0.014": 0.382748857631,
			"0.015": 0.0,
			"0.016": 0.0,
			"0.017": 0.0,
			"0.018": 0.0,
			"0.019": 0.0,
			"0.02": 0.0,
			"0.021": 0.0,
			"0.022": 0.0,
			"0.023": 0.0,
			"0.024": 0.0,
			"0.025": 0.0
		}
	}
}
