{
	 "smiles": "OC(=O)CC1(CC(=O)NC2=NC=CS2)CCCCC1", 
	 "Tm": 449.15, 
	 "num_atms": 37, 
	 "gaussian": { 
		 "optdone": 1, 
		 "sigma_profile": "yes", 
		 "theory": "DFT", 
		 "functional": "B3LYP", 
		 "basiset": "6-31G**", 
		 "properties": { 
			 "R2extent": 7261.7857, 
			 "electric_dipole_moment_norm": 2.56295399491, 
			 "electric_quadrupole_moment_norm": 12.3532012697, 
			 "total_energy": -1239.63303885, 
			 "HOMO_LUMO_gap": 0.19325, 
			 "cosmo_polarized_energy": -18.93, 
			 "cosmo_cavitation_energy": 39.21, 
			 "cosmo_dispersion_energy": -27.77, 
			 "cosmo_repulsion_energy": 2.08, 
			 "cosmo_total_nonelectrostatic_energy": 13.52, 
			 "SMD_solvation_energy": 5.52 
		},
		"coords": [
			{
				"x": 0.1058283812,
				"y": 1.6929580608,
				"z": -4.5353376133,
				"element": "O" 
			},
			{
				"x": 0.1504143821,
				"y": 0.8905464841,
				"z": -3.4482835433,
				"element": "C" 
			},
			{
				"x": -0.7258939313,
				"y": 0.0879025798,
				"z": -3.2034602029,
				"element": "O" 
			},
			{
				"x": 1.4482483053,
				"y": 1.0955881848,
				"z": -2.687907905,
				"element": "C" 
			},
			{
				"x": 1.5144708625,
				"y": 0.6749784318,
				"z": -1.1974883272,
				"element": "C" 
			},
			{
				"x": 0.6745540399,
				"y": 1.6571634851,
				"z": -0.3172019969,
				"element": "C" 
			},
			{
				"x": -0.7765016924,
				"y": 1.8612634002,
				"z": -0.7183211607,
				"element": "C" 
			},
			{
				"x": -1.1213815515,
				"y": 2.6921396589,
				"z": -1.5519165503,
				"element": "O" 
			},
			{
				"x": -1.6962284256,
				"y": 1.0691137493,
				"z": -0.0703619866,
				"element": "N" 
			},
			{
				"x": -3.0640591762,
				"y": 1.0561645628,
				"z": -0.3079199742,
				"element": "C" 
			},
			{
				"x": -3.8454540035,
				"y": 0.2431564574,
				"z": 0.3482803306,
				"element": "N" 
			},
			{
				"x": -5.1507154331,
				"y": 0.4167771963,
				"z": -0.0564077523,
				"element": "C" 
			},
			{
				"x": -5.3614239325,
				"y": 1.3615952531,
				"z": -1.0142401312,
				"element": "C" 
			},
			{
				"x": -3.8514220592,
				"y": 2.1061673758,
				"z": -1.470641924,
				"element": "S" 
			},
			{
				"x": 3.0052752736,
				"y": 0.8178227158,
				"z": -0.7704034147,
				"element": "C" 
			},
			{
				"x": 3.3208611066,
				"y": 0.2749648787,
				"z": 0.6318316072,
				"element": "C" 
			},
			{
				"x": 2.8843083575,
				"y": -1.19010434,
				"z": 0.7716628093,
				"element": "C" 
			},
			{
				"x": 1.4058796688,
				"y": -1.3641282634,
				"z": 0.3984717376,
				"element": "C" 
			},
			{
				"x": 1.0915302352,
				"y": -0.8060114294,
				"z": -1.0001153838,
				"element": "C" 
			},
			{
				"x": -0.738960575,
				"y": 1.4991141458,
				"z": -4.9756469869,
				"element": "H" 
			},
			{
				"x": 1.7347720015,
				"y": 2.1463673869,
				"z": -2.7970129212,
				"element": "H" 
			},
			{
				"x": 2.2015223993,
				"y": 0.519888141,
				"z": -3.2440777719,
				"element": "H" 
			},
			{
				"x": 0.7254574696,
				"y": 1.3445191349,
				"z": 0.729767188,
				"element": "H" 
			},
			{
				"x": 1.1319428837,
				"y": 2.6494397099,
				"z": -0.3801711891,
				"element": "H" 
			},
			{
				"x": -1.3922342027,
				"y": 0.3774535774,
				"z": 0.6021136262,
				"element": "H" 
			},
			{
				"x": -5.9224910916,
				"y": -0.1929644729,
				"z": 0.3986740547,
				"element": "H" 
			},
			{
				"x": -6.2918896883,
				"y": 1.6627400571,
				"z": -1.4738169286,
				"element": "H" 
			},
			{
				"x": 3.3119746139,
				"y": 1.8687392376,
				"z": -0.8509086812,
				"element": "H" 
			},
			{
				"x": 3.6156813193,
				"y": 0.2629351706,
				"z": -1.4965038907,
				"element": "H" 
			},
			{
				"x": 2.8238200111,
				"y": 0.8833309999,
				"z": 1.3990299821,
				"element": "H" 
			},
			{
				"x": 4.3963554496,
				"y": 0.3722829388,
				"z": 0.8215391049,
				"element": "H" 
			},
			{
				"x": 3.49700207,
				"y": -1.8124060875,
				"z": 0.1039971973,
				"element": "H" 
			},
			{
				"x": 3.069398531,
				"y": -1.5497903637,
				"z": 1.7906487061,
				"element": "H" 
			},
			{
				"x": 1.1276636611,
				"y": -2.4239051054,
				"z": 0.4303777316,
				"element": "H" 
			},
			{
				"x": 0.7832878839,
				"y": -0.8712384318,
				"z": 1.1597965949,
				"element": "H" 
			},
			{
				"x": 0.0347372291,
				"y": -0.9311660411,
				"z": -1.2415120747,
				"element": "H" 
			},
			{
				"x": 1.6372696272,
				"y": -1.4073984393,
				"z": -1.7408323597,
				"element": "H" 
			}
		],
		 "valence_orbital": [ 
			{
				"type": "occ",
				"energy": -0.27691,
				"method": "rhf"
			},
			{
				"type": "occ",
				"energy": -0.27006,
				"method": "rhf"
			},
			{
				"type": "occ",
				"energy": -0.26743,
				"method": "rhf"
			},
			{
				"type": "occ",
				"energy": -0.26096,
				"method": "rhf"
			},
			{
				"type": "occ",
				"energy": -0.21778,
				"method": "rhf"
			},
			{
				"type": "unocc",
				"energy": -0.02453,
				"method": "rhf"
			},
			{
				"type": "unocc",
				"energy": 0.01396,
				"method": "rhf"
			},
			{
				"type": "unocc",
				"energy": 0.02651,
				"method": "rhf"
			},
			{
				"type": "unocc",
				"energy": 0.03669,
				"method": "rhf"
			},
			{
				"type": "unocc",
				"energy": 0.0532,
				"method": "rhf"
			}
		],
		"cosmo_sigma_profile": { 
			"-0.025": 0.0,
			"-0.024": 0.0,
			"-0.023": 0.0,
			"-0.022": 0.0,
			"-0.021": 0.0,
			"-0.02": 0.0,
			"-0.019": 0.0,
			"-0.018": 0.330908253487,
			"-0.017": 1.02671997181,
			"-0.016": 0.756457979728,
			"-0.015": 0.934079153049,
			"-0.014": 0.570920150925,
			"-0.013": 1.54385148227,
			"-0.012": 2.69622961095,
			"-0.011": 2.67404855521,
			"-0.01": 2.68851045727,
			"-0.009": 3.28751023636,
			"-0.008": 3.67474971457,
			"-0.007": 6.86286573223,
			"-0.006": 10.4057478067,
			"-0.005": 16.5436969085,
			"-0.004": 16.1422821628,
			"-0.003": 21.2351922304,
			"-0.002": 30.5406475036,
			"-0.001": 29.7926484805,
			"0.0": 32.6645283702,
			"0.001": 24.8537746251,
			"0.002": 13.4060342789,
			"0.003": 14.1409576742,
			"0.004": 13.1054263783,
			"0.005": 9.10726781097,
			"0.006": 9.00127014639,
			"0.007": 8.20398620052,
			"0.008": 6.05752885106,
			"0.009": 6.30941383726,
			"0.01": 5.62101844485,
			"0.011": 5.80814733376,
			"0.012": 5.40109175337,
			"0.013": 2.00914413117,
			"0.014": 0.65659789977,
			"0.015": 0.465443730851,
			"0.016": 0.0,
			"0.017": 0.0,
			"0.018": 0.0,
			"0.019": 0.0,
			"0.02": 0.0,
			"0.021": 0.0,
			"0.022": 0.0,
			"0.023": 0.0,
			"0.024": 0.0,
			"0.025": 0.0
		}
	}
}
