{
	 "smiles": "CC1=NN(C(=O)C1)C1=CC=C(Br)C=C1", 
	 "Tm": 438.15, 
	 "num_atms": 23, 
	 "gaussian": { 
		 "optdone": 1, 
		 "sigma_profile": "yes", 
		 "theory": "DFT", 
		 "functional": "B3LYP", 
		 "basiset": "6-31G**", 
		 "properties": { 
			 "R2extent": 6031.8937, 
			 "electric_dipole_moment_norm": 5.18743192823, 
			 "electric_quadrupole_moment_norm": 10.0433758996, 
			 "total_energy": -3142.60813365, 
			 "HOMO_LUMO_gap": 0.1757, 
			 "cosmo_polarized_energy": -10.85, 
			 "cosmo_cavitation_energy": 29.62, 
			 "cosmo_dispersion_energy": -22.42, 
			 "cosmo_repulsion_energy": 1.77, 
			 "cosmo_total_nonelectrostatic_energy": 8.97, 
			 "SMD_solvation_energy": 3.98 
		},
		"coords": [
			{
				"x": -3.5552015884,
				"y": 0.6308803989,
				"z": 2.5429788201,
				"element": "C" 
			},
			{
				"x": -2.5210313392,
				"y": -0.1591083652,
				"z": 1.8122550968,
				"element": "C" 
			},
			{
				"x": -1.4486224507,
				"y": 0.3885366918,
				"z": 1.3563432849,
				"element": "N" 
			},
			{
				"x": -0.6759211791,
				"y": -0.5953439136,
				"z": 0.7235196566,
				"element": "N" 
			},
			{
				"x": -1.2735713127,
				"y": -1.8555963033,
				"z": 0.7666669836,
				"element": "C" 
			},
			{
				"x": -0.8431910484,
				"y": -2.8966013798,
				"z": 0.3054771865,
				"element": "O" 
			},
			{
				"x": -2.5821436789,
				"y": -1.6298124462,
				"z": 1.520432724,
				"element": "C" 
			},
			{
				"x": 0.5590926151,
				"y": -0.2180717936,
				"z": 0.1427667101,
				"element": "C" 
			},
			{
				"x": 0.9722389983,
				"y": 1.1207073924,
				"z": 0.215898419,
				"element": "C" 
			},
			{
				"x": 2.1833169324,
				"y": 1.5110414392,
				"z": -0.3490875175,
				"element": "C" 
			},
			{
				"x": 2.9837525967,
				"y": 0.5663344641,
				"z": -0.9877409346,
				"element": "C" 
			},
			{
				"x": 4.6470529693,
				"y": 1.1039933195,
				"z": -1.7632053364,
				"element": "Br" 
			},
			{
				"x": 2.5829910558,
				"y": -0.7649685356,
				"z": -1.0659008582,
				"element": "C" 
			},
			{
				"x": 1.3719285269,
				"y": -1.1634778425,
				"z": -0.5027178975,
				"element": "C" 
			},
			{
				"x": -3.2501748111,
				"y": 1.6770081284,
				"z": 2.6098302808,
				"element": "H" 
			},
			{
				"x": -3.7041464429,
				"y": 0.2385746791,
				"z": 3.5560477622,
				"element": "H" 
			},
			{
				"x": -4.5239032773,
				"y": 0.5749732872,
				"z": 2.0322072643,
				"element": "H" 
			},
			{
				"x": -3.4393806806,
				"y": -1.9142601313,
				"z": 0.8995959316,
				"element": "H" 
			},
			{
				"x": -2.6199856028,
				"y": -2.2505783868,
				"z": 2.4228865358,
				"element": "H" 
			},
			{
				"x": 0.3427518735,
				"y": 1.8460396535,
				"z": 0.714266815,
				"element": "H" 
			},
			{
				"x": 2.499935513,
				"y": 2.5462084159,
				"z": -0.2910115306,
				"element": "H" 
			},
			{
				"x": 3.2104323609,
				"y": -1.4951661554,
				"z": -1.5642228301,
				"element": "H" 
			},
			{
				"x": 1.0558799705,
				"y": -2.1956126166,
				"z": -0.5603865663,
				"element": "H" 
			}
		],
		 "valence_orbital": [ 
			{
				"type": "occ",
				"energy": -0.28154,
				"method": "rhf"
			},
			{
				"type": "occ",
				"energy": -0.26886,
				"method": "rhf"
			},
			{
				"type": "occ",
				"energy": -0.26369,
				"method": "rhf"
			},
			{
				"type": "occ",
				"energy": -0.25934,
				"method": "rhf"
			},
			{
				"type": "occ",
				"energy": -0.21433,
				"method": "rhf"
			},
			{
				"type": "unocc",
				"energy": -0.03863,
				"method": "rhf"
			},
			{
				"type": "unocc",
				"energy": -0.01943,
				"method": "rhf"
			},
			{
				"type": "unocc",
				"energy": -0.00768,
				"method": "rhf"
			},
			{
				"type": "unocc",
				"energy": 0.01409,
				"method": "rhf"
			},
			{
				"type": "unocc",
				"energy": 0.04714,
				"method": "rhf"
			}
		],
		"cosmo_sigma_profile": { 
			"-0.025": 0.0,
			"-0.024": 0.0,
			"-0.023": 0.0,
			"-0.022": 0.0,
			"-0.021": 0.0,
			"-0.02": 0.0,
			"-0.019": 0.0,
			"-0.018": 0.0,
			"-0.017": 0.0,
			"-0.016": 0.0,
			"-0.015": 0.0,
			"-0.014": 0.0,
			"-0.013": 0.0,
			"-0.012": 0.0,
			"-0.011": 0.0,
			"-0.01": 0.0,
			"-0.009": 2.01289052328,
			"-0.008": 6.30711067783,
			"-0.007": 9.34466208533,
			"-0.006": 14.3567961479,
			"-0.005": 17.845535349,
			"-0.004": 15.3289077038,
			"-0.003": 14.8946942404,
			"-0.002": 16.2249353608,
			"-0.001": 16.1616321753,
			"0.0": 12.6955089333,
			"0.001": 16.6058123336,
			"0.002": 22.3342323217,
			"0.003": 25.6213802838,
			"0.004": 18.0284778279,
			"0.005": 11.9260497703,
			"0.006": 3.72118508406,
			"0.007": 2.17633258949,
			"0.008": 3.25660192174,
			"0.009": 2.43979297211,
			"0.01": 2.31147776347,
			"0.011": 2.65959020843,
			"0.012": 3.21771369582,
			"0.013": 1.29478616084,
			"0.014": 0.0280639619205,
			"0.015": 0.0,
			"0.016": 0.0,
			"0.017": 0.0,
			"0.018": 0.0,
			"0.019": 0.0,
			"0.02": 0.0,
			"0.021": 0.0,
			"0.022": 0.0,
			"0.023": 0.0,
			"0.024": 0.0,
			"0.025": 0.0
		}
	}
}
