{
	 "smiles": "CC1=CC(C)=NC(SCC(=O)NN)=N1", 
	 "Tm": 393.15, 
	 "num_atms": 26, 
	 "gaussian": { 
		 "optdone": 1, 
		 "sigma_profile": "yes", 
		 "theory": "DFT", 
		 "functional": "B3LYP", 
		 "basiset": "6-31G**", 
		 "properties": { 
			 "R2extent": 4055.7296, 
			 "electric_dipole_moment_norm": 5.55393623838, 
			 "electric_quadrupole_moment_norm": 11.4362210472, 
			 "total_energy": -1004.501099, 
			 "HOMO_LUMO_gap": 0.18012, 
			 "cosmo_polarized_energy": -15.72, 
			 "cosmo_cavitation_energy": 31.7, 
			 "cosmo_dispersion_energy": -22.75, 
			 "cosmo_repulsion_energy": 1.78, 
			 "cosmo_total_nonelectrostatic_energy": 10.73, 
			 "SMD_solvation_energy": 4.45 
		},
		"coords": [
			{
				"x": -0.3888786047,
				"y": 3.1203214051,
				"z": -2.0294628075,
				"element": "C" 
			},
			{
				"x": -0.2080707347,
				"y": 1.9468408385,
				"z": -1.1058613722,
				"element": "C" 
			},
			{
				"x": 1.0565987148,
				"y": 1.5029405754,
				"z": -0.6976506045,
				"element": "C" 
			},
			{
				"x": 1.1200388863,
				"y": 0.3924732838,
				"z": 0.1416542876,
				"element": "C" 
			},
			{
				"x": 2.4239321,
				"y": -0.1902369821,
				"z": 0.6140582115,
				"element": "C" 
			},
			{
				"x": -0.0036572843,
				"y": -0.225526019,
				"z": 0.5577103105,
				"element": "N" 
			},
			{
				"x": -1.1625370898,
				"y": 0.289430873,
				"z": 0.132611953,
				"element": "C" 
			},
			{
				"x": -2.7123103558,
				"y": -0.4186942726,
				"z": 0.6411140107,
				"element": "S" 
			},
			{
				"x": -2.2195831275,
				"y": -1.6581262863,
				"z": 1.9054765216,
				"element": "C" 
			},
			{
				"x": -1.8656578455,
				"y": -3.0290794611,
				"z": 1.3286710822,
				"element": "C" 
			},
			{
				"x": -2.6877971892,
				"y": -3.9292928571,
				"z": 1.2097544674,
				"element": "O" 
			},
			{
				"x": -0.5559963222,
				"y": -3.154275072,
				"z": 0.968554882,
				"element": "N" 
			},
			{
				"x": -0.1150021982,
				"y": -4.2804579589,
				"z": 0.2383916649,
				"element": "N" 
			},
			{
				"x": -1.3228602375,
				"y": 1.3376812921,
				"z": -0.6822333968,
				"element": "N" 
			},
			{
				"x": -1.0033810701,
				"y": 3.8859850886,
				"z": -1.5456167568,
				"element": "H" 
			},
			{
				"x": -0.9236458909,
				"y": 2.806066708,
				"z": -2.9314261897,
				"element": "H" 
			},
			{
				"x": 0.5675001964,
				"y": 3.5615619726,
				"z": -2.319005098,
				"element": "H" 
			},
			{
				"x": 1.9596119339,
				"y": 2.0003800317,
				"z": -1.0334101654,
				"element": "H" 
			},
			{
				"x": 2.4292827275,
				"y": -0.2723820492,
				"z": 1.7053379273,
				"element": "H" 
			},
			{
				"x": 2.552411961,
				"y": -1.2019223124,
				"z": 0.2131033807,
				"element": "H" 
			},
			{
				"x": 3.2749621717,
				"y": 0.4176909362,
				"z": 0.2993061067,
				"element": "H" 
			},
			{
				"x": -3.1060101232,
				"y": -1.7823055215,
				"z": 2.5293736013,
				"element": "H" 
			},
			{
				"x": -1.4054864607,
				"y": -1.2376394042,
				"z": 2.4995442327,
				"element": "H" 
			},
			{
				"x": -0.0181944311,
				"y": -2.2998037417,
				"z": 0.8429534426,
				"element": "H" 
			},
			{
				"x": 0.0458927504,
				"y": -5.0322527434,
				"z": 0.9085548886,
				"element": "H" 
			},
			{
				"x": -0.9089624767,
				"y": -4.5940783237,
				"z": -0.3227045804,
				"element": "H" 
			}
		],
		 "valence_orbital": [ 
			{
				"type": "occ",
				"energy": -0.28095,
				"method": "rhf"
			},
			{
				"type": "occ",
				"energy": -0.26704,
				"method": "rhf"
			},
			{
				"type": "occ",
				"energy": -0.25577,
				"method": "rhf"
			},
			{
				"type": "occ",
				"energy": -0.24258,
				"method": "rhf"
			},
			{
				"type": "occ",
				"energy": -0.23028,
				"method": "rhf"
			},
			{
				"type": "unocc",
				"energy": -0.05016,
				"method": "rhf"
			},
			{
				"type": "unocc",
				"energy": -0.02971,
				"method": "rhf"
			},
			{
				"type": "unocc",
				"energy": 0.00701,
				"method": "rhf"
			},
			{
				"type": "unocc",
				"energy": 0.05032,
				"method": "rhf"
			},
			{
				"type": "unocc",
				"energy": 0.08541,
				"method": "rhf"
			}
		],
		"cosmo_sigma_profile": { 
			"-0.025": 0.0,
			"-0.024": 0.0,
			"-0.023": 0.0,
			"-0.022": 0.0,
			"-0.021": 0.0,
			"-0.02": 0.0,
			"-0.019": 0.0,
			"-0.018": 0.0,
			"-0.017": 0.0,
			"-0.016": 0.0,
			"-0.015": 0.0,
			"-0.014": 0.0,
			"-0.013": 0.0,
			"-0.012": 0.25876715084,
			"-0.011": 1.50760283035,
			"-0.01": 2.45393168136,
			"-0.009": 2.56860491427,
			"-0.008": 3.38489878672,
			"-0.007": 7.80029015461,
			"-0.006": 11.8388084335,
			"-0.005": 21.1567927891,
			"-0.004": 19.3254928551,
			"-0.003": 20.3230980947,
			"-0.002": 24.1315848631,
			"-0.001": 32.7198616539,
			"0.0": 17.2798580689,
			"0.001": 12.3894282245,
			"0.002": 8.01482707959,
			"0.003": 9.32159412104,
			"0.004": 10.6113617264,
			"0.005": 7.5257198288,
			"0.006": 7.39424822613,
			"0.007": 4.46618438038,
			"0.008": 4.07553232907,
			"0.009": 2.76069338507,
			"0.01": 3.34431028529,
			"0.011": 2.17007039045,
			"0.012": 3.83354110586,
			"0.013": 6.44834228324,
			"0.014": 3.92708252458,
			"0.015": 0.884301380092,
			"0.016": 0.434838640174,
			"0.017": 0.505203937878,
			"0.018": 0.0,
			"0.019": 0.0,
			"0.02": 0.0,
			"0.021": 0.0,
			"0.022": 0.0,
			"0.023": 0.0,
			"0.024": 0.0,
			"0.025": 0.0
		}
	}
}
