{
	 "smiles": "FC(F)(F)C1=NC=C(C=C1)C#N", 
	 "Tm": 312.15, 
	 "num_atms": 15, 
	 "gaussian": { 
		 "optdone": 1, 
		 "sigma_profile": "yes", 
		 "theory": "DFT", 
		 "functional": "B3LYP", 
		 "basiset": "6-31G**", 
		 "properties": { 
			 "R2extent": 2467.2438, 
			 "electric_dipole_moment_norm": 2.26009777886, 
			 "electric_quadrupole_moment_norm": 14.8047798319, 
			 "total_energy": -677.552553801, 
			 "HOMO_LUMO_gap": 0.20923, 
			 "cosmo_polarized_energy": -10.18, 
			 "cosmo_cavitation_energy": 22.82, 
			 "cosmo_dispersion_energy": -15.74, 
			 "cosmo_repulsion_energy": 1.2, 
			 "cosmo_total_nonelectrostatic_energy": 8.27, 
			 "SMD_solvation_energy": 5.43 
		},
		"coords": [
			{
				"x": -0.4565587027,
				"y": 2.1364125445,
				"z": -2.8700371065,
				"element": "F" 
			},
			{
				"x": -1.3487470546,
				"y": 1.4533295805,
				"z": -2.1329219536,
				"element": "C" 
			},
			{
				"x": -2.1983808124,
				"y": 2.3398066102,
				"z": -1.5867168521,
				"element": "F" 
			},
			{
				"x": -2.0579558421,
				"y": 0.6637418018,
				"z": -2.9703056568,
				"element": "F" 
			},
			{
				"x": -0.6557223891,
				"y": 0.6299852343,
				"z": -1.0616283422,
				"element": "C" 
			},
			{
				"x": 0.0696003282,
				"y": 1.340426262,
				"z": -0.1910416826,
				"element": "N" 
			},
			{
				"x": 0.7024235236,
				"y": 0.6798878328,
				"z": 0.7732777809,
				"element": "C" 
			},
			{
				"x": 0.6393883755,
				"y": -0.7206207135,
				"z": 0.9118748999,
				"element": "C" 
			},
			{
				"x": -0.1253178857,
				"y": -1.4488688386,
				"z": -0.0092294903,
				"element": "C" 
			},
			{
				"x": -0.7880544292,
				"y": -0.7576345318,
				"z": -1.019127731,
				"element": "C" 
			},
			{
				"x": 1.3447666425,
				"y": -1.3738848884,
				"z": 1.9734206091,
				"element": "C" 
			},
			{
				"x": 1.9193394107,
				"y": -1.8995095579,
				"z": 2.8369773644,
				"element": "N" 
			},
			{
				"x": 1.2880281033,
				"y": 1.2703782164,
				"z": 1.4734284723,
				"element": "H" 
			},
			{
				"x": -0.1944855389,
				"y": -2.5284563166,
				"z": 0.0697245808,
				"element": "H" 
			},
			{
				"x": -1.390723729,
				"y": -1.2763932357,
				"z": -1.7539948922,
				"element": "H" 
			}
		],
		 "valence_orbital": [ 
			{
				"type": "occ",
				"energy": -0.37999,
				"method": "rhf"
			},
			{
				"type": "occ",
				"energy": -0.35709,
				"method": "rhf"
			},
			{
				"type": "occ",
				"energy": -0.32732,
				"method": "rhf"
			},
			{
				"type": "occ",
				"energy": -0.2992,
				"method": "rhf"
			},
			{
				"type": "occ",
				"energy": -0.29819,
				"method": "rhf"
			},
			{
				"type": "unocc",
				"energy": -0.08896,
				"method": "rhf"
			},
			{
				"type": "unocc",
				"energy": -0.06303,
				"method": "rhf"
			},
			{
				"type": "unocc",
				"energy": 0.01226,
				"method": "rhf"
			},
			{
				"type": "unocc",
				"energy": 0.03874,
				"method": "rhf"
			},
			{
				"type": "unocc",
				"energy": 0.07186,
				"method": "rhf"
			}
		],
		"cosmo_sigma_profile": { 
			"-0.025": 0.0,
			"-0.024": 0.0,
			"-0.023": 0.0,
			"-0.022": 0.0,
			"-0.021": 0.0,
			"-0.02": 0.0,
			"-0.019": 0.0,
			"-0.018": 0.0,
			"-0.017": 0.0,
			"-0.016": 0.0,
			"-0.015": 0.0,
			"-0.014": 0.0,
			"-0.013": 0.0,
			"-0.012": 0.0,
			"-0.011": 0.0669527879868,
			"-0.01": 2.48938049918,
			"-0.009": 7.13392486205,
			"-0.008": 6.89085589703,
			"-0.007": 5.7946669898,
			"-0.006": 5.09950830345,
			"-0.005": 8.32958357853,
			"-0.004": 12.7101026571,
			"-0.003": 16.2679641326,
			"-0.002": 13.2426214932,
			"-0.001": 9.62034565554,
			"0.0": 7.49653289509,
			"0.001": 9.85943542433,
			"0.002": 28.6919092931,
			"0.003": 15.3882867863,
			"0.004": 5.59617071343,
			"0.005": 3.91002342011,
			"0.006": 5.53577298441,
			"0.007": 3.60104088249,
			"0.008": 5.1851040244,
			"0.009": 3.57720788249,
			"0.01": 3.73966579166,
			"0.011": 2.92656433827,
			"0.012": 2.54814159484,
			"0.013": 0.247921808581,
			"0.014": 0.0,
			"0.015": 0.0,
			"0.016": 0.0,
			"0.017": 0.0,
			"0.018": 0.0,
			"0.019": 0.0,
			"0.02": 0.0,
			"0.021": 0.0,
			"0.022": 0.0,
			"0.023": 0.0,
			"0.024": 0.0,
			"0.025": 0.0
		}
	}
}
