{
	 "smiles": "IC(I)I", 
	 "Tm": 393.15, 
	 "num_atms": 5, 
	 "gaussian": { 
		 "optdone": 1, 
		 "sigma_profile": "yes", 
		 "theory": "DFT", 
		 "functional": "B3LYP", 
		 "basiset": "6-31G**", 
		 "properties": { 
			 "R2extent": 1092.8242, 
			 "electric_dipole_moment_norm": 0.628049552185, 
			 "electric_quadrupole_moment_norm": 2.07269270998, 
			 "total_energy": -72.8507816516, 
			 "HOMO_LUMO_gap": 0.1441, 
			 "cosmo_polarized_energy": -4.42, 
			 "cosmo_cavitation_energy": 18.27, 
			 "cosmo_dispersion_energy": -17.67, 
			 "cosmo_repulsion_energy": 1.42, 
			 "cosmo_total_nonelectrostatic_energy": 2.01, 
			 "SMD_solvation_energy": 0.39 
		},
		"coords": [
			{
				"x": -1.5059523709,
				"y": 0.921138804,
				"z": 1.7866213411,
				"element": "I" 
			},
			{
				"x": -1.7399142734,
				"y": 1.8223608596,
				"z": -0.1686887642,
				"element": "C" 
			},
			{
				"x": -3.774964809,
				"y": 2.4358598247,
				"z": -0.583906902,
				"element": "I" 
			},
			{
				"x": -0.8670701687,
				"y": 0.6402067392,
				"z": -1.7595721794,
				"element": "I" 
			},
			{
				"x": -1.1613983779,
				"y": 2.7384337724,
				"z": -0.1370534955,
				"element": "H" 
			}
		],
		 "valence_orbital": [ 
			{
				"type": "occ",
				"energy": -0.29761,
				"method": "rhf"
			},
			{
				"type": "occ",
				"energy": -0.28368,
				"method": "rhf"
			},
			{
				"type": "occ",
				"energy": -0.27771,
				"method": "rhf"
			},
			{
				"type": "occ",
				"energy": -0.27771,
				"method": "rhf"
			},
			{
				"type": "occ",
				"energy": -0.26275,
				"method": "rhf"
			},
			{
				"type": "unocc",
				"energy": -0.11865,
				"method": "rhf"
			},
			{
				"type": "unocc",
				"energy": -0.05117,
				"method": "rhf"
			},
			{
				"type": "unocc",
				"energy": -0.05116,
				"method": "rhf"
			},
			{
				"type": "unocc",
				"energy": 0.02449,
				"method": "rhf"
			},
			{
				"type": "unocc",
				"energy": 0.02449,
				"method": "rhf"
			}
		],
		"cosmo_sigma_profile": { 
			"-0.025": 0.0,
			"-0.024": 0.0,
			"-0.023": 0.0,
			"-0.022": 0.0,
			"-0.021": 0.0,
			"-0.02": 0.0,
			"-0.019": 0.0,
			"-0.018": 0.0,
			"-0.017": 0.0,
			"-0.016": 0.0,
			"-0.015": 0.0,
			"-0.014": 0.0,
			"-0.013": 0.0,
			"-0.012": 0.271966930788,
			"-0.011": 2.36361951519,
			"-0.01": 1.60173318153,
			"-0.009": 2.5387190886,
			"-0.008": 4.51089259242,
			"-0.007": 4.95562956721,
			"-0.006": 5.36234437532,
			"-0.005": 5.30689430665,
			"-0.004": 7.27707842306,
			"-0.003": 6.42970086673,
			"-0.002": 7.22467013985,
			"-0.001": 9.32408189091,
			"0.0": 11.535592165,
			"0.001": 12.9476900657,
			"0.002": 19.2672959241,
			"0.003": 28.9637190999,
			"0.004": 30.484947237,
			"0.005": 1.03040637509,
			"0.006": 0.0,
			"0.007": 0.0,
			"0.008": 0.0,
			"0.009": 0.0,
			"0.01": 0.0,
			"0.011": 0.0,
			"0.012": 0.0,
			"0.013": 0.0,
			"0.014": 0.0,
			"0.015": 0.0,
			"0.016": 0.0,
			"0.017": 0.0,
			"0.018": 0.0,
			"0.019": 0.0,
			"0.02": 0.0,
			"0.021": 0.0,
			"0.022": 0.0,
			"0.023": 0.0,
			"0.024": 0.0,
			"0.025": 0.0
		}
	}
}
