{
	 "smiles": "NS(=O)(=O)C1=CC=C(CCCCCO)C=C1", 
	 "Tm": 359.15, 
	 "num_atms": 33, 
	 "gaussian": { 
		 "optdone": 1, 
		 "sigma_profile": "yes", 
		 "theory": "DFT", 
		 "functional": "B3LYP", 
		 "basiset": "6-31G**", 
		 "properties": { 
			 "R2extent": 7734.6108, 
			 "electric_dipole_moment_norm": 5.29786155161, 
			 "electric_quadrupole_moment_norm": 44.9919882362, 
			 "total_energy": -1107.95854402, 
			 "HOMO_LUMO_gap": 0.22126, 
			 "cosmo_polarized_energy": -23.86, 
			 "cosmo_cavitation_energy": 37.11, 
			 "cosmo_dispersion_energy": -26.43, 
			 "cosmo_repulsion_energy": 2.05, 
			 "cosmo_total_nonelectrostatic_energy": 12.73, 
			 "SMD_solvation_energy": 5.27 
		},
		"coords": [
			{
				"x": 1.6502069566,
				"y": -1.067758291,
				"z": -4.8669194285,
				"element": "N" 
			},
			{
				"x": 3.0483702201,
				"y": -0.7699058197,
				"z": -3.9781213661,
				"element": "S" 
			},
			{
				"x": 3.4769249577,
				"y": 0.573606599,
				"z": -4.3632133665,
				"element": "O" 
			},
			{
				"x": 3.8835501659,
				"y": -1.9566693937,
				"z": -4.1548748955,
				"element": "O" 
			},
			{
				"x": 2.5624701333,
				"y": -0.7060023462,
				"z": -2.2485139082,
				"element": "C" 
			},
			{
				"x": 2.5652859935,
				"y": -1.8783571663,
				"z": -1.4878150749,
				"element": "C" 
			},
			{
				"x": 2.1680170364,
				"y": -1.8231216482,
				"z": -0.1543902429,
				"element": "C" 
			},
			{
				"x": 1.7695798986,
				"y": -0.6137153322,
				"z": 0.4377830663,
				"element": "C" 
			},
			{
				"x": 1.329716181,
				"y": -0.5800186558,
				"z": 1.8863539058,
				"element": "C" 
			},
			{
				"x": -0.0780077249,
				"y": -1.1754253386,
				"z": 2.1257650325,
				"element": "C" 
			},
			{
				"x": -1.2360947374,
				"y": -0.4105982315,
				"z": 1.4609906451,
				"element": "C" 
			},
			{
				"x": -1.5129735183,
				"y": 1.0018535954,
				"z": 2.006290798,
				"element": "C" 
			},
			{
				"x": -1.987055667,
				"y": 1.0481647251,
				"z": 3.4637591038,
				"element": "C" 
			},
			{
				"x": -3.2176225548,
				"y": 0.3653604549,
				"z": 3.6741642499,
				"element": "O" 
			},
			{
				"x": 1.7913604624,
				"y": 0.5488330195,
				"z": -0.3455942142,
				"element": "C" 
			},
			{
				"x": 2.1860607241,
				"y": 0.5128977938,
				"z": -1.6829362161,
				"element": "C" 
			},
			{
				"x": 0.9769772087,
				"y": -0.3104313302,
				"z": -4.8062630279,
				"element": "H" 
			},
			{
				"x": 1.2446236302,
				"y": -1.977087785,
				"z": -4.6692802181,
				"element": "H" 
			},
			{
				"x": 2.9026795658,
				"y": -2.8085414897,
				"z": -1.9328661329,
				"element": "H" 
			},
			{
				"x": 2.1833205036,
				"y": -2.7314085054,
				"z": 0.4428449464,
				"element": "H" 
			},
			{
				"x": 2.0479121063,
				"y": -1.147926239,
				"z": 2.4902467855,
				"element": "H" 
			},
			{
				"x": 1.3669120273,
				"y": 0.4507277834,
				"z": 2.2552114539,
				"element": "H" 
			},
			{
				"x": -0.2393369619,
				"y": -1.2405721022,
				"z": 3.2095455827,
				"element": "H" 
			},
			{
				"x": -0.0849920672,
				"y": -2.2096260639,
				"z": 1.7591335194,
				"element": "H" 
			},
			{
				"x": -2.1536496922,
				"y": -1.0063310658,
				"z": 1.5582421178,
				"element": "H" 
			},
			{
				"x": -1.0470527883,
				"y": -0.342749886,
				"z": 0.383089049,
				"element": "H" 
			},
			{
				"x": -0.6179191977,
				"y": 1.6316738115,
				"z": 1.9143278055,
				"element": "H" 
			},
			{
				"x": -2.2860190382,
				"y": 1.4695291886,
				"z": 1.3850459251,
				"element": "H" 
			},
			{
				"x": -2.1746211979,
				"y": 2.0881857097,
				"z": 3.7500010177,
				"element": "H" 
			},
			{
				"x": -1.2039124023,
				"y": 0.6701509473,
				"z": 4.140259656,
				"element": "H" 
			},
			{
				"x": -3.0504718548,
				"y": -0.5823059285,
				"z": 3.6031967498,
				"element": "H" 
			},
			{
				"x": 1.5103161236,
				"y": 1.4991101547,
				"z": 0.1003808964,
				"element": "H" 
			},
			{
				"x": 2.2288455083,
				"y": 1.4196588362,
				"z": -2.2771442148,
				"element": "H" 
			}
		],
		 "valence_orbital": [ 
			{
				"type": "occ",
				"energy": -0.30303,
				"method": "rhf"
			},
			{
				"type": "occ",
				"energy": -0.30143,
				"method": "rhf"
			},
			{
				"type": "occ",
				"energy": -0.27445,
				"method": "rhf"
			},
			{
				"type": "occ",
				"energy": -0.2706,
				"method": "rhf"
			},
			{
				"type": "occ",
				"energy": -0.26251,
				"method": "rhf"
			},
			{
				"type": "unocc",
				"energy": -0.04125,
				"method": "rhf"
			},
			{
				"type": "unocc",
				"energy": -0.02641,
				"method": "rhf"
			},
			{
				"type": "unocc",
				"energy": 0.04796,
				"method": "rhf"
			},
			{
				"type": "unocc",
				"energy": 0.05306,
				"method": "rhf"
			},
			{
				"type": "unocc",
				"energy": 0.07052,
				"method": "rhf"
			}
		],
		"cosmo_sigma_profile": { 
			"-0.025": 0.0,
			"-0.024": 0.0,
			"-0.023": 0.0,
			"-0.022": 0.0,
			"-0.021": 0.0,
			"-0.02": 0.0,
			"-0.019": 0.0,
			"-0.018": 0.0,
			"-0.017": 0.0,
			"-0.016": 0.0165711157292,
			"-0.015": 1.9114989728,
			"-0.014": 3.00292828017,
			"-0.013": 3.80789693482,
			"-0.012": 3.76853212565,
			"-0.011": 3.77192725831,
			"-0.01": 3.97077047082,
			"-0.009": 2.29747400834,
			"-0.008": 2.6791542575,
			"-0.007": 5.52810240826,
			"-0.006": 10.5368159132,
			"-0.005": 14.5160153843,
			"-0.004": 19.048457541,
			"-0.003": 24.0770411572,
			"-0.002": 26.0928784709,
			"-0.001": 27.0043531458,
			"0.0": 25.8142068666,
			"0.001": 17.9418612906,
			"0.002": 13.5216551239,
			"0.003": 14.3717070072,
			"0.004": 6.81679558296,
			"0.005": 5.94280433964,
			"0.006": 4.33353811885,
			"0.007": 4.60462730099,
			"0.008": 6.13747276511,
			"0.009": 6.12743890559,
			"0.01": 8.00308904694,
			"0.011": 11.0347500427,
			"0.012": 8.19548771618,
			"0.013": 1.92212559805,
			"0.014": 2.13712426063,
			"0.015": 1.70198815033,
			"0.016": 0.0,
			"0.017": 0.0,
			"0.018": 0.0,
			"0.019": 0.0,
			"0.02": 0.0,
			"0.021": 0.0,
			"0.022": 0.0,
			"0.023": 0.0,
			"0.024": 0.0,
			"0.025": 0.0
		}
	}
}
