{
	 "smiles": "OC(=O)[C@@H]1CCCN1CC#C", 
	 "Tm": 425.15, 
	 "num_atms": 22, 
	 "gaussian": { 
		 "optdone": 1, 
		 "sigma_profile": "yes", 
		 "theory": "DFT", 
		 "functional": "B3LYP", 
		 "basiset": "6-31G**", 
		 "properties": { 
			 "R2extent": 2558.7352, 
			 "electric_dipole_moment_norm": 5.3032508945, 
			 "electric_quadrupole_moment_norm": 19.9715589209, 
			 "total_energy": -516.605475134, 
			 "HOMO_LUMO_gap": 0.25614, 
			 "cosmo_polarized_energy": -13.79, 
			 "cosmo_cavitation_energy": 25.28, 
			 "cosmo_dispersion_energy": -17.57, 
			 "cosmo_repulsion_energy": 1.41, 
			 "cosmo_total_nonelectrostatic_energy": 9.11, 
			 "SMD_solvation_energy": 6.01 
		},
		"coords": [
			{
				"x": 1.7985587074,
				"y": 3.160549843,
				"z": 0.3476641721,
				"element": "O" 
			},
			{
				"x": 1.8284729674,
				"y": 2.1595453796,
				"z": 1.2393641629,
				"element": "C" 
			},
			{
				"x": 2.1340783131,
				"y": 2.3092408554,
				"z": 2.3993190981,
				"element": "O" 
			},
			{
				"x": 1.4005968994,
				"y": 0.7981516789,
				"z": 0.6498769379,
				"element": "C" 
			},
			{
				"x": 2.29592051,
				"y": -0.370916187,
				"z": 1.1516375587,
				"element": "C" 
			},
			{
				"x": 3.0564573592,
				"y": -0.8508084027,
				"z": -0.1090917004,
				"element": "C" 
			},
			{
				"x": 2.8457750937,
				"y": 0.2948377183,
				"z": -1.1182281528,
				"element": "C" 
			},
			{
				"x": 1.5046008375,
				"y": 0.8557999979,
				"z": -0.8291723609,
				"element": "N" 
			},
			{
				"x": 0.4256967445,
				"y": 0.1341759478,
				"z": -1.5369539295,
				"element": "C" 
			},
			{
				"x": -0.8866853673,
				"y": 0.7382849433,
				"z": -1.3057814885,
				"element": "C" 
			},
			{
				"x": -1.9733946416,
				"y": 1.2246414145,
				"z": -1.1066752533,
				"element": "C" 
			},
			{
				"x": 1.5691920005,
				"y": 2.7199563702,
				"z": -0.5060680723,
				"element": "H" 
			},
			{
				"x": 0.3510880084,
				"y": 0.671364776,
				"z": 0.9339262548,
				"element": "H" 
			},
			{
				"x": 2.9649958906,
				"y": -0.0048770291,
				"z": 1.9334643457,
				"element": "H" 
			},
			{
				"x": 1.6966013485,
				"y": -1.1722671328,
				"z": 1.5903703168,
				"element": "H" 
			},
			{
				"x": 2.6275232154,
				"y": -1.7826640447,
				"z": -0.4928969536,
				"element": "H" 
			},
			{
				"x": 4.1165268107,
				"y": -1.0389331795,
				"z": 0.0819635625,
				"element": "H" 
			},
			{
				"x": 3.5828005879,
				"y": 1.0891479585,
				"z": -0.9502425684,
				"element": "H" 
			},
			{
				"x": 2.9180493971,
				"y": -0.0076233774,
				"z": -2.1664012272,
				"element": "H" 
			},
			{
				"x": 0.3816932849,
				"y": -0.9340700144,
				"z": -1.2628119037,
				"element": "H" 
			},
			{
				"x": 0.6553926715,
				"y": 0.172793035,
				"z": -2.6083735441,
				"element": "H" 
			},
			{
				"x": -2.9298406389,
				"y": 1.6631694491,
				"z": -0.9368892546,
				"element": "H" 
			}
		],
		 "valence_orbital": [ 
			{
				"type": "occ",
				"energy": -0.29816,
				"method": "rhf"
			},
			{
				"type": "occ",
				"energy": -0.28894,
				"method": "rhf"
			},
			{
				"type": "occ",
				"energy": -0.28551,
				"method": "rhf"
			},
			{
				"type": "occ",
				"energy": -0.26965,
				"method": "rhf"
			},
			{
				"type": "occ",
				"energy": -0.24478,
				"method": "rhf"
			},
			{
				"type": "unocc",
				"energy": 0.01136,
				"method": "rhf"
			},
			{
				"type": "unocc",
				"energy": 0.03128,
				"method": "rhf"
			},
			{
				"type": "unocc",
				"energy": 0.03894,
				"method": "rhf"
			},
			{
				"type": "unocc",
				"energy": 0.06955,
				"method": "rhf"
			},
			{
				"type": "unocc",
				"energy": 0.0915,
				"method": "rhf"
			}
		],
		"cosmo_sigma_profile": { 
			"-0.025": 0.0,
			"-0.024": 0.0,
			"-0.023": 0.0,
			"-0.022": 0.0,
			"-0.021": 0.0,
			"-0.02": 0.0,
			"-0.019": 0.0,
			"-0.018": 0.0,
			"-0.017": 0.0,
			"-0.016": 0.0,
			"-0.015": 0.0,
			"-0.014": 0.0,
			"-0.013": 0.0,
			"-0.012": 0.579031410429,
			"-0.011": 1.32731521829,
			"-0.01": 1.34291803024,
			"-0.009": 1.34982409767,
			"-0.008": 2.43731478472,
			"-0.007": 5.56907774276,
			"-0.006": 11.7904744009,
			"-0.005": 17.1892224492,
			"-0.004": 21.2105935896,
			"-0.003": 19.713365962,
			"-0.002": 17.1999207314,
			"-0.001": 14.6283842146,
			"0.0": 12.5008262863,
			"0.001": 7.83234346804,
			"0.002": 6.85760081745,
			"0.003": 6.8878556322,
			"0.004": 6.70335315601,
			"0.005": 6.60253075365,
			"0.006": 8.93698830951,
			"0.007": 4.13142697448,
			"0.008": 2.78124004671,
			"0.009": 3.01358742591,
			"0.01": 4.1776106318,
			"0.011": 5.32731947111,
			"0.012": 5.4621143939,
			"0.013": 3.58321438425,
			"0.014": 0.55310474079,
			"0.015": 0.0,
			"0.016": 0.0,
			"0.017": 0.0,
			"0.018": 0.0,
			"0.019": 0.0,
			"0.02": 0.0,
			"0.021": 0.0,
			"0.022": 0.0,
			"0.023": 0.0,
			"0.024": 0.0,
			"0.025": 0.0
		}
	}
}
