{
	 "smiles": "CC1=CC(N2C=CN=C2S)=C(C)C=C1", 
	 "Tm": 466.15, 
	 "num_atms": 26, 
	 "gaussian": { 
		 "optdone": 1, 
		 "sigma_profile": "yes", 
		 "theory": "DFT", 
		 "functional": "B3LYP", 
		 "basiset": "6-31G**", 
		 "properties": { 
			 "R2extent": 3829.0738, 
			 "electric_dipole_moment_norm": 5.13043375359, 
			 "electric_quadrupole_moment_norm": 16.9086200005, 
			 "total_energy": -934.090768881, 
			 "HOMO_LUMO_gap": 0.18415, 
			 "cosmo_polarized_energy": -11.05, 
			 "cosmo_cavitation_energy": 31.1, 
			 "cosmo_dispersion_energy": -21.99, 
			 "cosmo_repulsion_energy": 1.69, 
			 "cosmo_total_nonelectrostatic_energy": 10.8, 
			 "SMD_solvation_energy": 3.85 
		},
		"coords": [
			{
				"x": 1.3987354829,
				"y": -1.5119520883,
				"z": -3.3351692136,
				"element": "C" 
			},
			{
				"x": 0.8114138893,
				"y": -0.8832294063,
				"z": -2.0937474043,
				"element": "C" 
			},
			{
				"x": 1.2627659027,
				"y": -1.2443018381,
				"z": -0.81944624,
				"element": "C" 
			},
			{
				"x": 0.6999601863,
				"y": -0.6846851666,
				"z": 0.3304544621,
				"element": "C" 
			},
			{
				"x": 1.1982395305,
				"y": -1.1010260067,
				"z": 1.6088568254,
				"element": "N" 
			},
			{
				"x": 0.805371451,
				"y": -2.2387667271,
				"z": 2.3065195411,
				"element": "C" 
			},
			{
				"x": 1.526161844,
				"y": -2.2285820035,
				"z": 3.4703443854,
				"element": "C" 
			},
			{
				"x": 2.3661761916,
				"y": -1.1377577316,
				"z": 3.5166721989,
				"element": "N" 
			},
			{
				"x": 2.1499404065,
				"y": -0.4866030337,
				"z": 2.3963877624,
				"element": "C" 
			},
			{
				"x": 2.9436575768,
				"y": 1.0501395454,
				"z": 2.0097685516,
				"element": "S" 
			},
			{
				"x": -0.3397725304,
				"y": 0.2590988661,
				"z": 0.2575192644,
				"element": "C" 
			},
			{
				"x": -0.9439824665,
				"y": 0.8672852173,
				"z": 1.4982312143,
				"element": "C" 
			},
			{
				"x": -0.7796114101,
				"y": 0.6160633184,
				"z": -1.0227458113,
				"element": "C" 
			},
			{
				"x": -0.218552962,
				"y": 0.0618760438,
				"z": -2.1727732991,
				"element": "C" 
			},
			{
				"x": 2.4341314619,
				"y": -1.8260428398,
				"z": -3.174302648,
				"element": "H" 
			},
			{
				"x": 0.8311003095,
				"y": -2.4017087555,
				"z": -3.634868689,
				"element": "H" 
			},
			{
				"x": 1.3823805156,
				"y": -0.8171226868,
				"z": -4.1801429863,
				"element": "H" 
			},
			{
				"x": 2.0633997624,
				"y": -1.9701115138,
				"z": -0.7052237019,
				"element": "H" 
			},
			{
				"x": 0.0783235305,
				"y": -2.9211485658,
				"z": 1.8943725473,
				"element": "H" 
			},
			{
				"x": 1.5000528143,
				"y": -2.9492293607,
				"z": 4.2759298227,
				"element": "H" 
			},
			{
				"x": 2.8441144776,
				"y": 0.9333994626,
				"z": 0.6700798246,
				"element": "H" 
			},
			{
				"x": -0.22897449,
				"y": 1.5260998848,
				"z": 2.0038399941,
				"element": "H" 
			},
			{
				"x": -1.233966862,
				"y": 0.0981973343,
				"z": 2.2210379305,
				"element": "H" 
			},
			{
				"x": -1.829818164,
				"y": 1.4565758964,
				"z": 1.2482842797,
				"element": "H" 
			},
			{
				"x": -1.5796933699,
				"y": 1.3454830143,
				"z": -1.1174485845,
				"element": "H" 
			},
			{
				"x": -0.5886530786,
				"y": 0.3689491409,
				"z": -3.1478300263,
				"element": "H" 
			}
		],
		 "valence_orbital": [ 
			{
				"type": "occ",
				"energy": -0.27756,
				"method": "rhf"
			},
			{
				"type": "occ",
				"energy": -0.26857,
				"method": "rhf"
			},
			{
				"type": "occ",
				"energy": -0.2587,
				"method": "rhf"
			},
			{
				"type": "occ",
				"energy": -0.24757,
				"method": "rhf"
			},
			{
				"type": "occ",
				"energy": -0.20817,
				"method": "rhf"
			},
			{
				"type": "unocc",
				"energy": -0.02402,
				"method": "rhf"
			},
			{
				"type": "unocc",
				"energy": -0.01488,
				"method": "rhf"
			},
			{
				"type": "unocc",
				"energy": 0.01839,
				"method": "rhf"
			},
			{
				"type": "unocc",
				"energy": 0.0381,
				"method": "rhf"
			},
			{
				"type": "unocc",
				"energy": 0.07107,
				"method": "rhf"
			}
		],
		"cosmo_sigma_profile": { 
			"-0.025": 0.0,
			"-0.024": 0.0,
			"-0.023": 0.0,
			"-0.022": 0.0,
			"-0.021": 0.0,
			"-0.02": 0.0,
			"-0.019": 0.0,
			"-0.018": 0.0,
			"-0.017": 0.0,
			"-0.016": 0.0,
			"-0.015": 0.0,
			"-0.014": 0.0,
			"-0.013": 0.0,
			"-0.012": 0.0,
			"-0.011": 0.264815889938,
			"-0.01": 1.03217298948,
			"-0.009": 1.52897677582,
			"-0.008": 2.96219055872,
			"-0.007": 4.03465236672,
			"-0.006": 9.33695924076,
			"-0.005": 16.0070234408,
			"-0.004": 21.8110638097,
			"-0.003": 21.3001291895,
			"-0.002": 22.3692705919,
			"-0.001": 24.5106376193,
			"0.0": 27.4473738985,
			"0.001": 18.5768249285,
			"0.002": 14.6907801899,
			"0.003": 14.3900884261,
			"0.004": 14.6902868494,
			"0.005": 11.1365951959,
			"0.006": 5.42733388911,
			"0.007": 4.25402061629,
			"0.008": 3.0908054327,
			"0.009": 2.09997309034,
			"0.01": 1.46438963369,
			"0.011": 1.15069375723,
			"0.012": 1.50272694425,
			"0.013": 0.761792432734,
			"0.014": 1.37269245296,
			"0.015": 0.93777585684,
			"0.016": 1.10116602651,
			"0.017": 0.681334707897,
			"0.018": 0.20459610857,
			"0.019": 0.0,
			"0.02": 0.0,
			"0.021": 0.0,
			"0.022": 0.0,
			"0.023": 0.0,
			"0.024": 0.0,
			"0.025": 0.0
		}
	}
}
