{
	 "smiles": "NC1=NC=CN=N1", 
	 "Tm": 449.15, 
	 "num_atms": 11, 
	 "gaussian": { 
		 "optdone": 1, 
		 "sigma_profile": "yes", 
		 "theory": "DFT", 
		 "functional": "B3LYP", 
		 "basiset": "6-31G**", 
		 "properties": { 
			 "R2extent": 982.4544, 
			 "electric_dipole_moment_norm": 2.46340968984, 
			 "electric_quadrupole_moment_norm": 14.3715232383, 
			 "total_energy": -335.695703186, 
			 "HOMO_LUMO_gap": 0.1663, 
			 "cosmo_polarized_energy": -11.74, 
			 "cosmo_cavitation_energy": 15.52, 
			 "cosmo_dispersion_energy": -12.0, 
			 "cosmo_repulsion_energy": 1.03, 
			 "cosmo_total_nonelectrostatic_energy": 4.54, 
			 "SMD_solvation_energy": -0.17 
		},
		"coords": [
			{
				"x": 2.6454267211,
				"y": -0.4121149217,
				"z": -0.3953998448,
				"element": "N" 
			},
			{
				"x": 1.6192741994,
				"y": 0.4750590991,
				"z": -0.3374088476,
				"element": "C" 
			},
			{
				"x": 0.3631192423,
				"y": -0.0210137111,
				"z": -0.3772870642,
				"element": "N" 
			},
			{
				"x": -0.587676612,
				"y": 0.897275747,
				"z": -0.2732105153,
				"element": "C" 
			},
			{
				"x": -0.2802223801,
				"y": 2.2547435783,
				"z": -0.1384387891,
				"element": "C" 
			},
			{
				"x": 0.9893544019,
				"y": 2.6722453211,
				"z": -0.1249945519,
				"element": "N" 
			},
			{
				"x": 1.9624670341,
				"y": 1.7815058383,
				"z": -0.2275188692,
				"element": "N" 
			},
			{
				"x": 2.4402252397,
				"y": -1.3634183871,
				"z": -0.6527069007,
				"element": "H" 
			},
			{
				"x": 3.5757011964,
				"y": -0.048145109,
				"z": -0.5238423441,
				"element": "H" 
			},
			{
				"x": -1.6197388385,
				"y": 0.5500747466,
				"z": -0.3020787816,
				"element": "H" 
			},
			{
				"x": -1.0442302043,
				"y": 3.0200877986,
				"z": -0.0502134916,
				"element": "H" 
			}
		],
		 "valence_orbital": [ 
			{
				"type": "occ",
				"energy": -0.33379,
				"method": "rhf"
			},
			{
				"type": "occ",
				"energy": -0.32987,
				"method": "rhf"
			},
			{
				"type": "occ",
				"energy": -0.31857,
				"method": "rhf"
			},
			{
				"type": "occ",
				"energy": -0.24238,
				"method": "rhf"
			},
			{
				"type": "occ",
				"energy": -0.22786,
				"method": "rhf"
			},
			{
				"type": "unocc",
				"energy": -0.06156,
				"method": "rhf"
			},
			{
				"type": "unocc",
				"energy": -0.01171,
				"method": "rhf"
			},
			{
				"type": "unocc",
				"energy": 0.083,
				"method": "rhf"
			},
			{
				"type": "unocc",
				"energy": 0.1146,
				"method": "rhf"
			},
			{
				"type": "unocc",
				"energy": 0.12771,
				"method": "rhf"
			}
		],
		"cosmo_sigma_profile": { 
			"-0.025": 0.0,
			"-0.024": 0.0,
			"-0.023": 0.0,
			"-0.022": 0.0,
			"-0.021": 0.0,
			"-0.02": 0.0,
			"-0.019": 0.0,
			"-0.018": 0.0,
			"-0.017": 0.0,
			"-0.016": 0.0,
			"-0.015": 0.335474096574,
			"-0.014": 2.0692662435,
			"-0.013": 1.97626659662,
			"-0.012": 2.15390573643,
			"-0.011": 1.86102235954,
			"-0.01": 2.12852592317,
			"-0.009": 2.45814427525,
			"-0.008": 6.38870667911,
			"-0.007": 6.88277929399,
			"-0.006": 4.62049491697,
			"-0.005": 4.69626790397,
			"-0.004": 4.69524722135,
			"-0.003": 6.67743764409,
			"-0.002": 8.4077876684,
			"-0.001": 8.65459492645,
			"0.0": 7.4207026008,
			"0.001": 6.47729639078,
			"0.002": 4.8911169436,
			"0.003": 5.03859992274,
			"0.004": 3.70725774918,
			"0.005": 4.36177502504,
			"0.006": 3.86599839471,
			"0.007": 2.60813216859,
			"0.008": 3.3643493054,
			"0.009": 2.1777849367,
			"0.01": 2.58931690945,
			"0.011": 2.83005972308,
			"0.012": 3.77158662525,
			"0.013": 3.47324292861,
			"0.014": 2.19542883701,
			"0.015": 1.71559415346,
			"0.016": 0.0955061781794,
			"0.017": 0.0,
			"0.018": 0.0,
			"0.019": 0.0,
			"0.02": 0.0,
			"0.021": 0.0,
			"0.022": 0.0,
			"0.023": 0.0,
			"0.024": 0.0,
			"0.025": 0.0
		}
	}
}
