{
	 "smiles": "FC1=CC(NCC#N)=CC=C1", 
	 "Tm": 313.15, 
	 "num_atms": 18, 
	 "gaussian": { 
		 "optdone": 1, 
		 "sigma_profile": "yes", 
		 "theory": "DFT", 
		 "functional": "B3LYP", 
		 "basiset": "6-31G**", 
		 "properties": { 
			 "R2extent": 2437.2082, 
			 "electric_dipole_moment_norm": 2.58438660034, 
			 "electric_quadrupole_moment_norm": 14.2365120331, 
			 "total_energy": -518.378243695, 
			 "HOMO_LUMO_gap": 0.20799, 
			 "cosmo_polarized_energy": -12.32, 
			 "cosmo_cavitation_energy": 23.82, 
			 "cosmo_dispersion_energy": -16.89, 
			 "cosmo_repulsion_energy": 1.33, 
			 "cosmo_total_nonelectrostatic_energy": 8.26, 
			 "SMD_solvation_energy": 5.12 
		},
		"coords": [
			{
				"x": 1.419973159,
				"y": -3.6396380114,
				"z": -0.6785270481,
				"element": "F" 
			},
			{
				"x": 1.3432176068,
				"y": -2.2923778887,
				"z": -0.6605707363,
				"element": "C" 
			},
			{
				"x": 0.0880675216,
				"y": -1.7080066991,
				"z": -0.630585865,
				"element": "C" 
			},
			{
				"x": -0.0158789457,
				"y": -0.3045639221,
				"z": -0.6091955795,
				"element": "C" 
			},
			{
				"x": -1.2880018842,
				"y": 0.2713782489,
				"z": -0.6195033786,
				"element": "N" 
			},
			{
				"x": -1.4567390335,
				"y": 1.6762668462,
				"z": -0.2924585406,
				"element": "C" 
			},
			{
				"x": -2.8797047915,
				"y": 2.0348123421,
				"z": -0.28024636,
				"element": "C" 
			},
			{
				"x": -4.004916404,
				"y": 2.3142656891,
				"z": -0.2511471618,
				"element": "N" 
			},
			{
				"x": 1.1608033854,
				"y": 0.4655617693,
				"z": -0.6145416116,
				"element": "C" 
			},
			{
				"x": 2.4070703146,
				"y": -0.1635854255,
				"z": -0.6502768112,
				"element": "C" 
			},
			{
				"x": 2.5220470398,
				"y": -1.5515608769,
				"z": -0.672352205,
				"element": "C" 
			},
			{
				"x": -0.79487047,
				"y": -2.3391874337,
				"z": -0.633100046,
				"element": "H" 
			},
			{
				"x": -2.0227741938,
				"y": -0.3262577428,
				"z": -0.2666515853,
				"element": "H" 
			},
			{
				"x": -0.9601591557,
				"y": 2.2973697361,
				"z": -1.0487724416,
				"element": "H" 
			},
			{
				"x": -1.0224852497,
				"y": 1.9548094497,
				"z": 0.6834375645,
				"element": "H" 
			},
			{
				"x": 1.1161879415,
				"y": 1.5482667249,
				"z": -0.5935767217,
				"element": "H" 
			},
			{
				"x": 3.3054370337,
				"y": 0.4465276743,
				"z": -0.6553509922,
				"element": "H" 
			},
			{
				"x": 3.4809261258,
				"y": -2.0555804804,
				"z": -0.6958804801,
				"element": "H" 
			}
		],
		 "valence_orbital": [ 
			{
				"type": "occ",
				"energy": -0.34783,
				"method": "rhf"
			},
			{
				"type": "occ",
				"energy": -0.34311,
				"method": "rhf"
			},
			{
				"type": "occ",
				"energy": -0.31114,
				"method": "rhf"
			},
			{
				"type": "occ",
				"energy": -0.25335,
				"method": "rhf"
			},
			{
				"type": "occ",
				"energy": -0.22095,
				"method": "rhf"
			},
			{
				"type": "unocc",
				"energy": -0.01296,
				"method": "rhf"
			},
			{
				"type": "unocc",
				"energy": 0.00316,
				"method": "rhf"
			},
			{
				"type": "unocc",
				"energy": 0.00957,
				"method": "rhf"
			},
			{
				"type": "unocc",
				"energy": 0.02719,
				"method": "rhf"
			},
			{
				"type": "unocc",
				"energy": 0.07199,
				"method": "rhf"
			}
		],
		"cosmo_sigma_profile": { 
			"-0.025": 0.0,
			"-0.024": 0.0,
			"-0.023": 0.0,
			"-0.022": 0.0,
			"-0.021": 0.0,
			"-0.02": 0.0,
			"-0.019": 0.0,
			"-0.018": 0.0,
			"-0.017": 0.0,
			"-0.016": 0.0,
			"-0.015": 0.107330043767,
			"-0.014": 1.03599411451,
			"-0.013": 1.4633062984,
			"-0.012": 1.22637049495,
			"-0.011": 1.40928361207,
			"-0.01": 1.48424663787,
			"-0.009": 6.24215794578,
			"-0.008": 9.52852490873,
			"-0.007": 9.52774001784,
			"-0.006": 10.1233970241,
			"-0.005": 9.51179592579,
			"-0.004": 9.41837342264,
			"-0.003": 7.54976221514,
			"-0.002": 7.29288449608,
			"-0.001": 7.18832454242,
			"0.0": 8.01656890016,
			"0.001": 10.8892959458,
			"0.002": 13.0264916207,
			"0.003": 12.7855602685,
			"0.004": 20.3251117428,
			"0.005": 18.0971045203,
			"0.006": 5.49174534522,
			"0.007": 3.46262483616,
			"0.008": 4.45757187762,
			"0.009": 3.13021814252,
			"0.01": 3.55735081087,
			"0.011": 2.30824729189,
			"0.012": 2.35634798702,
			"0.013": 0.601893633414,
			"0.014": 0.0,
			"0.015": 0.0,
			"0.016": 0.0,
			"0.017": 0.0,
			"0.018": 0.0,
			"0.019": 0.0,
			"0.02": 0.0,
			"0.021": 0.0,
			"0.022": 0.0,
			"0.023": 0.0,
			"0.024": 0.0,
			"0.025": 0.0
		}
	}
}
