{
	 "smiles": "CN1N=C(C)C=C1CO", 
	 "Tm": 326.15, 
	 "num_atms": 19, 
	 "gaussian": { 
		 "optdone": 1, 
		 "sigma_profile": "yes", 
		 "theory": "DFT", 
		 "functional": "B3LYP", 
		 "basiset": "6-31G**", 
		 "properties": { 
			 "R2extent": 1531.1121, 
			 "electric_dipole_moment_norm": 1.29494899127, 
			 "electric_quadrupole_moment_norm": 7.04576413954, 
			 "total_energy": -419.368519665, 
			 "HOMO_LUMO_gap": 0.24395, 
			 "cosmo_polarized_energy": -9.66, 
			 "cosmo_cavitation_energy": 22.23, 
			 "cosmo_dispersion_energy": -16.38, 
			 "cosmo_repulsion_energy": 1.37, 
			 "cosmo_total_nonelectrostatic_energy": 7.22, 
			 "SMD_solvation_energy": 3.27 
		},
		"coords": [
			{
				"x": 1.3669256234,
				"y": 0.5942111533,
				"z": 0.6734289242,
				"element": "C" 
			},
			{
				"x": 0.3055264304,
				"y": 0.2288264125,
				"z": -0.2484239195,
				"element": "N" 
			},
			{
				"x": 0.3395300128,
				"y": -0.9750597846,
				"z": -0.8637806124,
				"element": "N" 
			},
			{
				"x": -0.7793088688,
				"y": -1.0361941372,
				"z": -1.5910114036,
				"element": "C" 
			},
			{
				"x": -1.0756588783,
				"y": -2.244817438,
				"z": -2.4266113621,
				"element": "C" 
			},
			{
				"x": -1.5403177005,
				"y": 0.1474090228,
				"z": -1.4395211265,
				"element": "C" 
			},
			{
				"x": -0.8172416318,
				"y": 0.9403605578,
				"z": -0.5628973608,
				"element": "C" 
			},
			{
				"x": -1.1049136814,
				"y": 2.3084656264,
				"z": -0.0238884917,
				"element": "C" 
			},
			{
				"x": -0.0949033657,
				"y": 3.2704898824,
				"z": -0.3367923188,
				"element": "O" 
			},
			{
				"x": 1.1450229089,
				"y": 0.2519638771,
				"z": 1.6908410222,
				"element": "H" 
			},
			{
				"x": 2.2871719119,
				"y": 0.1164828765,
				"z": 0.3354054634,
				"element": "H" 
			},
			{
				"x": 1.4844837825,
				"y": 1.6786772136,
				"z": 0.6671991533,
				"element": "H" 
			},
			{
				"x": -1.1638221404,
				"y": -1.9890321942,
				"z": -3.488681716,
				"element": "H" 
			},
			{
				"x": -0.2722864825,
				"y": -2.9765404722,
				"z": -2.3155998376,
				"element": "H" 
			},
			{
				"x": -2.0171499492,
				"y": -2.7191434039,
				"z": -2.1271901491,
				"element": "H" 
			},
			{
				"x": -2.4837033241,
				"y": 0.3960939994,
				"z": -1.9052898363,
				"element": "H" 
			},
			{
				"x": -1.1584229887,
				"y": 2.3015404628,
				"z": 1.0705923799,
				"element": "H" 
			},
			{
				"x": -2.0909088959,
				"y": 2.6237909061,
				"z": -0.3929548448,
				"element": "H" 
			},
			{
				"x": 0.0314772374,
				"y": 3.2515754395,
				"z": -1.2952239636,
				"element": "H" 
			}
		],
		 "valence_orbital": [ 
			{
				"type": "occ",
				"energy": -0.33753,
				"method": "rhf"
			},
			{
				"type": "occ",
				"energy": -0.28879,
				"method": "rhf"
			},
			{
				"type": "occ",
				"energy": -0.27329,
				"method": "rhf"
			},
			{
				"type": "occ",
				"energy": -0.23629,
				"method": "rhf"
			},
			{
				"type": "occ",
				"energy": -0.2303,
				"method": "rhf"
			},
			{
				"type": "unocc",
				"energy": 0.01365,
				"method": "rhf"
			},
			{
				"type": "unocc",
				"energy": 0.06751,
				"method": "rhf"
			},
			{
				"type": "unocc",
				"energy": 0.08968,
				"method": "rhf"
			},
			{
				"type": "unocc",
				"energy": 0.1139,
				"method": "rhf"
			},
			{
				"type": "unocc",
				"energy": 0.12416,
				"method": "rhf"
			}
		],
		"cosmo_sigma_profile": { 
			"-0.025": 0.0,
			"-0.024": 0.0,
			"-0.023": 0.0,
			"-0.022": 0.0,
			"-0.021": 0.0,
			"-0.02": 0.0,
			"-0.019": 0.0,
			"-0.018": 0.0,
			"-0.017": 0.0,
			"-0.016": 0.365414915269,
			"-0.015": 1.04168410902,
			"-0.014": 0.726093422586,
			"-0.013": 0.883514536829,
			"-0.012": 0.610642882767,
			"-0.011": 1.15562344893,
			"-0.01": 1.0650663585,
			"-0.009": 0.299406046084,
			"-0.008": 0.683379556046,
			"-0.007": 0.940411220343,
			"-0.006": 6.01419567993,
			"-0.005": 13.6301722739,
			"-0.004": 17.0772712396,
			"-0.003": 19.8917433343,
			"-0.002": 18.5321499075,
			"-0.001": 13.78604105,
			"0.0": 15.7681540106,
			"0.001": 8.83555948659,
			"0.002": 5.90207016357,
			"0.003": 5.85493917345,
			"0.004": 6.77850296181,
			"0.005": 6.84352325251,
			"0.006": 6.87697558712,
			"0.007": 2.90491545463,
			"0.008": 2.77023072695,
			"0.009": 2.12534850941,
			"0.01": 2.4279243422,
			"0.011": 2.4385319689,
			"0.012": 1.96132464931,
			"0.013": 2.62521537135,
			"0.014": 2.19926353393,
			"0.015": 0.6403662608,
			"0.016": 0.894910750479,
			"0.017": 0.264759861839,
			"0.018": 0.0,
			"0.019": 0.0,
			"0.02": 0.0,
			"0.021": 0.0,
			"0.022": 0.0,
			"0.023": 0.0,
			"0.024": 0.0,
			"0.025": 0.0
		}
	}
}
