{
	 "smiles": "NCC1=NOC(=N1)C1=CSC=C1", 
	 "Tm": 401.15, 
	 "num_atms": 19, 
	 "gaussian": { 
		 "optdone": 1, 
		 "sigma_profile": "yes", 
		 "theory": "DFT", 
		 "functional": "B3LYP", 
		 "basiset": "6-31G**", 
		 "properties": { 
			 "R2extent": 3369.5034, 
			 "electric_dipole_moment_norm": 2.79408936328, 
			 "electric_quadrupole_moment_norm": 12.8182444668, 
			 "total_energy": -908.570671043, 
			 "HOMO_LUMO_gap": 0.18452, 
			 "cosmo_polarized_energy": -11.43, 
			 "cosmo_cavitation_energy": 25.76, 
			 "cosmo_dispersion_energy": -19.8, 
			 "cosmo_repulsion_energy": 1.55, 
			 "cosmo_total_nonelectrostatic_energy": 7.51, 
			 "SMD_solvation_energy": 1.63 
		},
		"coords": [
			{
				"x": 1.7433957661,
				"y": 2.914217435,
				"z": 0.1979045377,
				"element": "N" 
			},
			{
				"x": 0.3449368116,
				"y": 3.1561282823,
				"z": -0.1656858007,
				"element": "C" 
			},
			{
				"x": -0.3365162326,
				"y": 1.8519243231,
				"z": -0.4500021156,
				"element": "C" 
			},
			{
				"x": -0.9868070903,
				"y": 1.6185934165,
				"z": -1.5619880575,
				"element": "N" 
			},
			{
				"x": -1.4689011913,
				"y": 0.3052686668,
				"z": -1.3808534088,
				"element": "O" 
			},
			{
				"x": -1.0387739645,
				"y": -0.0975693574,
				"z": -0.1705728991,
				"element": "C" 
			},
			{
				"x": -0.3390753613,
				"y": 0.8136344738,
				"z": 0.4537188815,
				"element": "N" 
			},
			{
				"x": -1.3817194926,
				"y": -1.4300005273,
				"z": 0.2916117709,
				"element": "C" 
			},
			{
				"x": -2.1280044837,
				"y": -2.3352751946,
				"z": -0.4287163841,
				"element": "C" 
			},
			{
				"x": -2.3334544507,
				"y": -3.8117732751,
				"z": 0.4348753658,
				"element": "S" 
			},
			{
				"x": -1.4088131485,
				"y": -3.2155357562,
				"z": 1.7813752037,
				"element": "C" 
			},
			{
				"x": -0.9690407918,
				"y": -1.9434540232,
				"z": 1.5668539937,
				"element": "C" 
			},
			{
				"x": 2.1813991228,
				"y": 3.7916146691,
				"z": 0.4653943145,
				"element": "H" 
			},
			{
				"x": 1.7713012913,
				"y": 2.3069707895,
				"z": 1.0136705984,
				"element": "H" 
			},
			{
				"x": 0.3023469135,
				"y": 3.7691234736,
				"z": -1.0707266585,
				"element": "H" 
			},
			{
				"x": -0.2470025365,
				"y": 3.6758826109,
				"z": 0.6093052118,
				"element": "H" 
			},
			{
				"x": -2.5574401563,
				"y": -2.201754423,
				"z": -1.4112284854,
				"element": "H" 
			},
			{
				"x": -1.2483437151,
				"y": -3.8433738156,
				"z": 2.6464596677,
				"element": "H" 
			},
			{
				"x": -0.3745872901,
				"y": -1.3711217684,
				"z": 2.2676042641,
				"element": "H" 
			}
		],
		 "valence_orbital": [ 
			{
				"type": "occ",
				"energy": -0.30829,
				"method": "rhf"
			},
			{
				"type": "occ",
				"energy": -0.29631,
				"method": "rhf"
			},
			{
				"type": "occ",
				"energy": -0.26175,
				"method": "rhf"
			},
			{
				"type": "occ",
				"energy": -0.24605,
				"method": "rhf"
			},
			{
				"type": "occ",
				"energy": -0.23969,
				"method": "rhf"
			},
			{
				"type": "unocc",
				"energy": -0.05517,
				"method": "rhf"
			},
			{
				"type": "unocc",
				"energy": -0.00694,
				"method": "rhf"
			},
			{
				"type": "unocc",
				"energy": 0.01664,
				"method": "rhf"
			},
			{
				"type": "unocc",
				"energy": 0.0275,
				"method": "rhf"
			},
			{
				"type": "unocc",
				"energy": 0.08224,
				"method": "rhf"
			}
		],
		"cosmo_sigma_profile": { 
			"-0.025": 0.0,
			"-0.024": 0.0,
			"-0.023": 0.0,
			"-0.022": 0.0,
			"-0.021": 0.0,
			"-0.02": 0.0,
			"-0.019": 0.0,
			"-0.018": 0.0,
			"-0.017": 0.0,
			"-0.016": 0.0,
			"-0.015": 0.0,
			"-0.014": 0.0,
			"-0.013": 0.0,
			"-0.012": 0.0,
			"-0.011": 0.638446151344,
			"-0.01": 2.38237576853,
			"-0.009": 5.90263268759,
			"-0.008": 6.67483397838,
			"-0.007": 7.63730966859,
			"-0.006": 8.66011205028,
			"-0.005": 12.0557478499,
			"-0.004": 14.0799676953,
			"-0.003": 14.7562485823,
			"-0.002": 13.2269482213,
			"-0.001": 13.4542452516,
			"0.0": 14.6109086894,
			"0.001": 17.1369323588,
			"0.002": 20.8442388434,
			"0.003": 12.4880587512,
			"0.004": 8.7085419675,
			"0.005": 5.16591867971,
			"0.006": 7.08414500727,
			"0.007": 4.09780258395,
			"0.008": 3.08429451515,
			"0.009": 3.36150421973,
			"0.01": 2.80968849898,
			"0.011": 2.40872085063,
			"0.012": 2.26001445117,
			"0.013": 1.65220558965,
			"0.014": 0.992627667828,
			"0.015": 0.454245098388,
			"0.016": 0.40625858926,
			"0.017": 0.611063447519,
			"0.018": 0.576214959131,
			"0.019": 0.37325446335,
			"0.02": 0.0,
			"0.021": 0.0,
			"0.022": 0.0,
			"0.023": 0.0,
			"0.024": 0.0,
			"0.025": 0.0
		}
	}
}
