{
	 "smiles": "CC(CC(O)=O)NC(=O)OC(C)(C)C", 
	 "Tm": 368.15, 
	 "num_atms": 31, 
	 "gaussian": { 
		 "optdone": 1, 
		 "sigma_profile": "yes", 
		 "theory": "DFT", 
		 "functional": "B3LYP", 
		 "basiset": "6-31G**", 
		 "properties": { 
			 "R2extent": 4370.3899, 
			 "electric_dipole_moment_norm": 2.22884705173, 
			 "electric_quadrupole_moment_norm": 5.59458488094, 
			 "total_energy": -708.914619391, 
			 "HOMO_LUMO_gap": 0.24489, 
			 "cosmo_polarized_energy": -13.57, 
			 "cosmo_cavitation_energy": 33.52, 
			 "cosmo_dispersion_energy": -23.23, 
			 "cosmo_repulsion_energy": 1.89, 
			 "cosmo_total_nonelectrostatic_energy": 12.18, 
			 "SMD_solvation_energy": 7.54 
		},
		"coords": [
			{
				"x": 2.1413533027,
				"y": -0.9469451873,
				"z": 0.5566981127,
				"element": "C" 
			},
			{
				"x": 0.9002270305,
				"y": -1.4878980943,
				"z": -0.1690572188,
				"element": "C" 
			},
			{
				"x": 1.1778629216,
				"y": -1.8248291707,
				"z": -1.6516058311,
				"element": "C" 
			},
			{
				"x": 1.7579938722,
				"y": -0.7003601052,
				"z": -2.4844132167,
				"element": "C" 
			},
			{
				"x": 1.0218450643,
				"y": 0.445364622,
				"z": -2.3934591084,
				"element": "O" 
			},
			{
				"x": 2.7455828573,
				"y": -0.7674533088,
				"z": -3.178220515,
				"element": "O" 
			},
			{
				"x": -0.245431831,
				"y": -0.5967621688,
				"z": -0.043556479,
				"element": "N" 
			},
			{
				"x": -1.1283270729,
				"y": -0.7162019056,
				"z": 0.9916062264,
				"element": "C" 
			},
			{
				"x": -1.1209932592,
				"y": -1.6292098855,
				"z": 1.8049374552,
				"element": "O" 
			},
			{
				"x": -2.0049936011,
				"y": 0.3194341705,
				"z": 0.9537690283,
				"element": "O" 
			},
			{
				"x": -3.0927996812,
				"y": 0.4229328968,
				"z": 1.9362458545,
				"element": "C" 
			},
			{
				"x": -4.0288980343,
				"y": -0.7846758227,
				"z": 1.8151153256,
				"element": "C" 
			},
			{
				"x": -3.806942557,
				"y": 1.7077298444,
				"z": 1.5073452378,
				"element": "C" 
			},
			{
				"x": -2.5149896851,
				"y": 0.5687023428,
				"z": 3.348497805,
				"element": "C" 
			},
			{
				"x": 2.9832025037,
				"y": -1.6417125735,
				"z": 0.4673852162,
				"element": "H" 
			},
			{
				"x": 2.4513376997,
				"y": 0.0203686826,
				"z": 0.1465320597,
				"element": "H" 
			},
			{
				"x": 1.9180280025,
				"y": -0.8125158182,
				"z": 1.6182295315,
				"element": "H" 
			},
			{
				"x": 0.5955607857,
				"y": -2.4182285575,
				"z": 0.3178609892,
				"element": "H" 
			},
			{
				"x": 1.8869682682,
				"y": -2.6524792775,
				"z": -1.7176784955,
				"element": "H" 
			},
			{
				"x": 0.2394602768,
				"y": -2.141815733,
				"z": -2.1218037624,
				"element": "H" 
			},
			{
				"x": 1.4671428274,
				"y": 1.0987037127,
				"z": -2.9593443412,
				"element": "H" 
			},
			{
				"x": -0.2668472704,
				"y": 0.2482561312,
				"z": -0.5963372561,
				"element": "H" 
			},
			{
				"x": -3.5167435668,
				"y": -1.7043323249,
				"z": 2.0988257037,
				"element": "H" 
			},
			{
				"x": -4.390846186,
				"y": -0.8821519391,
				"z": 0.7865626617,
				"element": "H" 
			},
			{
				"x": -4.8963903925,
				"y": -0.6455482227,
				"z": 2.4686007317,
				"element": "H" 
			},
			{
				"x": -4.6548399517,
				"y": 1.9063128628,
				"z": 2.1696756653,
				"element": "H" 
			},
			{
				"x": -3.1248461765,
				"y": 2.5618850052,
				"z": 1.5519136566,
				"element": "H" 
			},
			{
				"x": -4.1804137927,
				"y": 1.6182020005,
				"z": 0.48303714,
				"element": "H" 
			},
			{
				"x": -1.9866753069,
				"y": -0.3365051926,
				"z": 3.6484106825,
				"element": "H" 
			},
			{
				"x": -3.3249563603,
				"y": 0.7591859901,
				"z": 4.0602615555,
				"element": "H" 
			},
			{
				"x": -1.8217306871,
				"y": 1.4150470263,
				"z": 3.389165585,
				"element": "H" 
			}
		],
		 "valence_orbital": [ 
			{
				"type": "occ",
				"energy": -0.32849,
				"method": "rhf"
			},
			{
				"type": "occ",
				"energy": -0.28424,
				"method": "rhf"
			},
			{
				"type": "occ",
				"energy": -0.2837,
				"method": "rhf"
			},
			{
				"type": "occ",
				"energy": -0.26041,
				"method": "rhf"
			},
			{
				"type": "occ",
				"energy": -0.24833,
				"method": "rhf"
			},
			{
				"type": "unocc",
				"energy": -0.00344,
				"method": "rhf"
			},
			{
				"type": "unocc",
				"energy": 0.05886,
				"method": "rhf"
			},
			{
				"type": "unocc",
				"energy": 0.06147,
				"method": "rhf"
			},
			{
				"type": "unocc",
				"energy": 0.0889,
				"method": "rhf"
			},
			{
				"type": "unocc",
				"energy": 0.10333,
				"method": "rhf"
			}
		],
		"cosmo_sigma_profile": { 
			"-0.025": 0.0,
			"-0.024": 0.0,
			"-0.023": 0.0,
			"-0.022": 0.0,
			"-0.021": 0.0,
			"-0.02": 0.0,
			"-0.019": 0.0830620970118,
			"-0.018": 0.76569917061,
			"-0.017": 1.37854133468,
			"-0.016": 0.479148995832,
			"-0.015": 0.405076565652,
			"-0.014": 0.742929802211,
			"-0.013": 0.606022780903,
			"-0.012": 0.825463471912,
			"-0.011": 1.19322094025,
			"-0.01": 0.728677858045,
			"-0.009": 0.426617818795,
			"-0.008": 0.85421252343,
			"-0.007": 2.67261787528,
			"-0.006": 6.05478082186,
			"-0.005": 10.255833932,
			"-0.004": 21.9677696985,
			"-0.003": 29.2224230429,
			"-0.002": 26.179489932,
			"-0.001": 26.4919174272,
			"0.0": 36.09531332,
			"0.001": 27.8711110842,
			"0.002": 9.57686317794,
			"0.003": 7.37776817729,
			"0.004": 6.06773043093,
			"0.005": 6.08136270877,
			"0.006": 4.71912011087,
			"0.007": 4.50271832931,
			"0.008": 4.54006920647,
			"0.009": 2.86950702293,
			"0.01": 3.44720568189,
			"0.011": 6.49766325941,
			"0.012": 5.09061073075,
			"0.013": 3.14659586978,
			"0.014": 1.35383610539,
			"0.015": 0.0,
			"0.016": 0.0,
			"0.017": 0.0,
			"0.018": 0.0,
			"0.019": 0.0,
			"0.02": 0.0,
			"0.021": 0.0,
			"0.022": 0.0,
			"0.023": 0.0,
			"0.024": 0.0,
			"0.025": 0.0
		}
	}
}
