{
	 "smiles": "CCOC(=O)C1=C(C)N(C)C(=S)NC1C1=CC=CC=C1", 
	 "Tm": 420.15, 
	 "num_atms": 38, 
	 "gaussian": { 
		 "optdone": 1, 
		 "sigma_profile": "yes", 
		 "theory": "DFT", 
		 "functional": "B3LYP", 
		 "basiset": "6-31G**", 
		 "properties": { 
			 "R2extent": 7539.9026, 
			 "electric_dipole_moment_norm": 5.22064604623, 
			 "electric_quadrupole_moment_norm": 18.8107415444, 
			 "total_energy": -1240.60474856, 
			 "HOMO_LUMO_gap": 0.15441, 
			 "cosmo_polarized_energy": -15.91, 
			 "cosmo_cavitation_energy": 41.31, 
			 "cosmo_dispersion_energy": -29.01, 
			 "cosmo_repulsion_energy": 2.2, 
			 "cosmo_total_nonelectrostatic_energy": 14.5, 
			 "SMD_solvation_energy": 6.38 
		},
		"coords": [
			{
				"x": -1.9491365091,
				"y": -0.282374652,
				"z": -3.5342589017,
				"element": "C" 
			},
			{
				"x": -0.5613514471,
				"y": -0.1339693461,
				"z": -2.9402079635,
				"element": "C" 
			},
			{
				"x": -0.7202048157,
				"y": 0.2014476229,
				"z": -1.5406763583,
				"element": "O" 
			},
			{
				"x": 0.4307249008,
				"y": 0.3574497744,
				"z": -0.8441695022,
				"element": "C" 
			},
			{
				"x": 1.5226565884,
				"y": 0.2029464294,
				"z": -1.3742471663,
				"element": "O" 
			},
			{
				"x": 0.2870807016,
				"y": 0.6896878025,
				"z": 0.58812981,
				"element": "C" 
			},
			{
				"x": -0.8346972757,
				"y": 1.0890043807,
				"z": 1.2511627418,
				"element": "C" 
			},
			{
				"x": -2.2139432284,
				"y": 1.2197012351,
				"z": 0.6561461049,
				"element": "C" 
			},
			{
				"x": -0.7314720059,
				"y": 1.4674089327,
				"z": 2.6061051026,
				"element": "N" 
			},
			{
				"x": -1.9410609121,
				"y": 1.6002226193,
				"z": 3.4280280954,
				"element": "C" 
			},
			{
				"x": 0.4738511739,
				"y": 1.919321587,
				"z": 3.1380706685,
				"element": "C" 
			},
			{
				"x": 0.5948308455,
				"y": 2.7904679576,
				"z": 4.5717185106,
				"element": "S" 
			},
			{
				"x": 1.5616781241,
				"y": 1.6367884721,
				"z": 2.3894619559,
				"element": "N" 
			},
			{
				"x": 1.5947459817,
				"y": 0.5994284677,
				"z": 1.3651928404,
				"element": "C" 
			},
			{
				"x": 1.8759826684,
				"y": -0.8044504839,
				"z": 1.9224028306,
				"element": "C" 
			},
			{
				"x": 2.3518583201,
				"y": -1.7983372127,
				"z": 1.0527196587,
				"element": "C" 
			},
			{
				"x": 2.6005472646,
				"y": -3.0885637534,
				"z": 1.5188774432,
				"element": "C" 
			},
			{
				"x": 2.3845705901,
				"y": -3.4063056799,
				"z": 2.8618316165,
				"element": "C" 
			},
			{
				"x": 1.9241015331,
				"y": -2.4207251035,
				"z": 3.7341847113,
				"element": "C" 
			},
			{
				"x": 1.6727958493,
				"y": -1.1271048389,
				"z": 3.2695372253,
				"element": "C" 
			},
			{
				"x": -2.5132335842,
				"y": -1.0673623875,
				"z": -3.0223974984,
				"element": "H" 
			},
			{
				"x": -1.8700330189,
				"y": -0.5512249924,
				"z": -4.592160819,
				"element": "H" 
			},
			{
				"x": -2.5125257075,
				"y": 0.6527031496,
				"z": -3.4616034748,
				"element": "H" 
			},
			{
				"x": 0.0155612612,
				"y": 0.6556724844,
				"z": -3.4310443434,
				"element": "H" 
			},
			{
				"x": 0.0190584401,
				"y": -1.0583280916,
				"z": -3.0145259857,
				"element": "H" 
			},
			{
				"x": -2.8408214758,
				"y": 0.3600393585,
				"z": 0.9214209507,
				"element": "H" 
			},
			{
				"x": -2.1591915726,
				"y": 1.2584167993,
				"z": -0.4262452638,
				"element": "H" 
			},
			{
				"x": -2.710353799,
				"y": 2.120110531,
				"z": 1.0257564288,
				"element": "H" 
			},
			{
				"x": -1.6632092585,
				"y": 1.4515915388,
				"z": 4.4693408188,
				"element": "H" 
			},
			{
				"x": -2.3904035968,
				"y": 2.5944713776,
				"z": 3.3390699257,
				"element": "H" 
			},
			{
				"x": -2.6632132084,
				"y": 0.8402947542,
				"z": 3.1317161468,
				"element": "H" 
			},
			{
				"x": 2.4331423946,
				"y": 1.9605616466,
				"z": 2.7851470116,
				"element": "H" 
			},
			{
				"x": 2.3989651115,
				"y": 0.852310918,
				"z": 0.6706840751,
				"element": "H" 
			},
			{
				"x": 2.5259621808,
				"y": -1.5521790614,
				"z": 0.009973591,
				"element": "H" 
			},
			{
				"x": 2.9721726469,
				"y": -3.8449543177,
				"z": 0.8329923952,
				"element": "H" 
			},
			{
				"x": 2.582595322,
				"y": -4.4104958393,
				"z": 3.2257214792,
				"element": "H" 
			},
			{
				"x": 1.7640459117,
				"y": -2.6524716065,
				"z": 4.7835025976,
				"element": "H" 
			},
			{
				"x": 1.3375236052,
				"y": -0.3702004724,
				"z": 3.9710425407,
				"element": "H" 
			}
		],
		 "valence_orbital": [ 
			{
				"type": "occ",
				"energy": -0.24839,
				"method": "rhf"
			},
			{
				"type": "occ",
				"energy": -0.24407,
				"method": "rhf"
			},
			{
				"type": "occ",
				"energy": -0.23652,
				"method": "rhf"
			},
			{
				"type": "occ",
				"energy": -0.2177,
				"method": "rhf"
			},
			{
				"type": "occ",
				"energy": -0.20712,
				"method": "rhf"
			},
			{
				"type": "unocc",
				"energy": -0.05271,
				"method": "rhf"
			},
			{
				"type": "unocc",
				"energy": -0.00571,
				"method": "rhf"
			},
			{
				"type": "unocc",
				"energy": 0.00091,
				"method": "rhf"
			},
			{
				"type": "unocc",
				"energy": 0.0085,
				"method": "rhf"
			},
			{
				"type": "unocc",
				"energy": 0.06978,
				"method": "rhf"
			}
		],
		"cosmo_sigma_profile": { 
			"-0.025": 0.0,
			"-0.024": 0.0,
			"-0.023": 0.0,
			"-0.022": 0.0,
			"-0.021": 0.0,
			"-0.02": 0.0,
			"-0.019": 0.0,
			"-0.018": 0.0,
			"-0.017": 0.0,
			"-0.016": 0.0125920603576,
			"-0.015": 0.654616718659,
			"-0.014": 1.21698397352,
			"-0.013": 0.573386865079,
			"-0.012": 0.902697267421,
			"-0.011": 1.0082868418,
			"-0.01": 1.05813067454,
			"-0.009": 0.972567641839,
			"-0.008": 2.43754107844,
			"-0.007": 5.23669212238,
			"-0.006": 11.2814730553,
			"-0.005": 21.1068791734,
			"-0.004": 30.3754548932,
			"-0.003": 36.8749846533,
			"-0.002": 32.9130335008,
			"-0.001": 31.3057252393,
			"0.0": 26.7664052363,
			"0.001": 19.8398375393,
			"0.002": 13.9411879575,
			"0.003": 14.6732166874,
			"0.004": 14.0429723826,
			"0.005": 14.3993180822,
			"0.006": 12.8013641783,
			"0.007": 5.02220851453,
			"0.008": 5.64304435588,
			"0.009": 6.64121121175,
			"0.01": 8.24337682757,
			"0.011": 5.85650916805,
			"0.012": 3.65174743323,
			"0.013": 0.528883087175,
			"0.014": 0.0,
			"0.015": 0.0,
			"0.016": 0.0,
			"0.017": 0.0,
			"0.018": 0.0,
			"0.019": 0.0,
			"0.02": 0.0,
			"0.021": 0.0,
			"0.022": 0.0,
			"0.023": 0.0,
			"0.024": 0.0,
			"0.025": 0.0
		}
	}
}
