{
	 "smiles": "CC1=C(CN2C=C(Br)C=N2)C=C(O1)C(O)=O", 
	 "Tm": 428.15, 
	 "num_atms": 25, 
	 "gaussian": { 
		 "optdone": 1, 
		 "sigma_profile": "yes", 
		 "theory": "DFT", 
		 "functional": "B3LYP", 
		 "basiset": "6-31G**", 
		 "properties": { 
			 "R2extent": 7034.601, 
			 "electric_dipole_moment_norm": 4.07378068138, 
			 "electric_quadrupole_moment_norm": 28.2672338095, 
			 "total_energy": -3293.03289396, 
			 "HOMO_LUMO_gap": 0.18925, 
			 "cosmo_polarized_energy": -17.26, 
			 "cosmo_cavitation_energy": 33.22, 
			 "cosmo_dispersion_energy": -23.87, 
			 "cosmo_repulsion_energy": 1.9, 
			 "cosmo_total_nonelectrostatic_energy": 11.24, 
			 "SMD_solvation_energy": 5.98 
		},
		"coords": [
			{
				"x": -1.3013087928,
				"y": 1.679055352,
				"z": -2.2201728599,
				"element": "C" 
			},
			{
				"x": -0.3730677795,
				"y": 0.5184780836,
				"z": -2.286192309,
				"element": "C" 
			},
			{
				"x": -0.28115014,
				"y": -0.6627153988,
				"z": -1.5864032911,
				"element": "C" 
			},
			{
				"x": -1.1803152811,
				"y": -1.1246560924,
				"z": -0.4695118275,
				"element": "C" 
			},
			{
				"x": -0.9527030473,
				"y": -0.4423698802,
				"z": 0.804940252,
				"element": "N" 
			},
			{
				"x": -0.0371263909,
				"y": -0.7399717711,
				"z": 1.7634292569,
				"element": "C" 
			},
			{
				"x": -0.1553414843,
				"y": 0.2492608102,
				"z": 2.7214919146,
				"element": "C" 
			},
			{
				"x": 0.8228662271,
				"y": 0.3916975945,
				"z": 4.3241001862,
				"element": "Br" 
			},
			{
				"x": -1.1667764246,
				"y": 1.1105298794,
				"z": 2.2517044042,
				"element": "C" 
			},
			{
				"x": -1.6449828357,
				"y": 0.6853919681,
				"z": 1.0826161688,
				"element": "N" 
			},
			{
				"x": 0.8343788602,
				"y": -1.371931602,
				"z": -2.1308764398,
				"element": "C" 
			},
			{
				"x": 1.3507422443,
				"y": -0.5906805351,
				"z": -3.1224076035,
				"element": "C" 
			},
			{
				"x": 0.6174610304,
				"y": 0.5701460256,
				"z": -3.2229614176,
				"element": "O" 
			},
			{
				"x": 2.4880060947,
				"y": -0.7833240999,
				"z": -4.033605435,
				"element": "C" 
			},
			{
				"x": 2.7165937484,
				"y": 0.2295346299,
				"z": -4.9057947231,
				"element": "O" 
			},
			{
				"x": 3.1791063582,
				"y": -1.7759296288,
				"z": -4.0146903159,
				"element": "O" 
			},
			{
				"x": -1.8836581096,
				"y": 1.6361217472,
				"z": -1.2977873951,
				"element": "H" 
			},
			{
				"x": -1.9839124193,
				"y": 1.6945014029,
				"z": -3.0785833893,
				"element": "H" 
			},
			{
				"x": -0.7401206004,
				"y": 2.6190853599,
				"z": -2.2273958147,
				"element": "H" 
			},
			{
				"x": -2.2326200533,
				"y": -0.9582029848,
				"z": -0.7099054678,
				"element": "H" 
			},
			{
				"x": -1.043501868,
				"y": -2.1965567199,
				"z": -0.303772276,
				"element": "H" 
			},
			{
				"x": 0.6089112587,
				"y": -1.6026167175,
				"z": 1.7073639457,
				"element": "H" 
			},
			{
				"x": -1.5614520481,
				"y": 2.0008365976,
				"z": 2.7199678908,
				"element": "H" 
			},
			{
				"x": 1.2125717125,
				"y": -2.3408246331,
				"z": -1.8376680609,
				"element": "H" 
			},
			{
				"x": 2.0640997404,
				"y": 0.9339406128,
				"z": -4.767585393,
				"element": "H" 
			}
		],
		 "valence_orbital": [ 
			{
				"type": "occ",
				"energy": -0.28854,
				"method": "rhf"
			},
			{
				"type": "occ",
				"energy": -0.27849,
				"method": "rhf"
			},
			{
				"type": "occ",
				"energy": -0.27177,
				"method": "rhf"
			},
			{
				"type": "occ",
				"energy": -0.24809,
				"method": "rhf"
			},
			{
				"type": "occ",
				"energy": -0.24168,
				"method": "rhf"
			},
			{
				"type": "unocc",
				"energy": -0.05243,
				"method": "rhf"
			},
			{
				"type": "unocc",
				"energy": -0.0075,
				"method": "rhf"
			},
			{
				"type": "unocc",
				"energy": 0.00784,
				"method": "rhf"
			},
			{
				"type": "unocc",
				"energy": 0.02236,
				"method": "rhf"
			},
			{
				"type": "unocc",
				"energy": 0.04715,
				"method": "rhf"
			}
		],
		"cosmo_sigma_profile": { 
			"-0.025": 0.0,
			"-0.024": 0.0,
			"-0.023": 0.0,
			"-0.022": 0.0,
			"-0.021": 0.0,
			"-0.02": 0.0,
			"-0.019": 0.0,
			"-0.018": 0.0,
			"-0.017": 0.0844461097298,
			"-0.016": 0.73830056886,
			"-0.015": 0.764333919953,
			"-0.014": 0.689299662173,
			"-0.013": 0.371233905335,
			"-0.012": 0.850659239672,
			"-0.011": 0.972354775594,
			"-0.01": 3.15555839791,
			"-0.009": 5.51765211749,
			"-0.008": 9.88125280996,
			"-0.007": 8.99552617038,
			"-0.006": 12.1786988886,
			"-0.005": 15.1886767383,
			"-0.004": 14.1665219569,
			"-0.003": 15.1210635603,
			"-0.002": 18.1493521886,
			"-0.001": 18.7134547177,
			"0.0": 18.2488431529,
			"0.001": 21.5697729983,
			"0.002": 22.1291158353,
			"0.003": 19.0876274758,
			"0.004": 17.8332920378,
			"0.005": 9.19002022731,
			"0.006": 3.93225662911,
			"0.007": 4.49269479142,
			"0.008": 3.315101706,
			"0.009": 4.26856522009,
			"0.01": 5.98506247577,
			"0.011": 5.03509393841,
			"0.012": 6.50937695747,
			"0.013": 2.39998047867,
			"0.014": 0.207791276215,
			"0.015": 0.0,
			"0.016": 0.0,
			"0.017": 0.0,
			"0.018": 0.0,
			"0.019": 0.0,
			"0.02": 0.0,
			"0.021": 0.0,
			"0.022": 0.0,
			"0.023": 0.0,
			"0.024": 0.0,
			"0.025": 0.0
		}
	}
}
