{
	 "smiles": "CC1=CC(C)=NC(=N1)N1N=CC=C1N", 
	 "Tm": 457.15, 
	 "num_atms": 25, 
	 "gaussian": { 
		 "optdone": 1, 
		 "sigma_profile": "yes", 
		 "theory": "DFT", 
		 "functional": "B3LYP", 
		 "basiset": "6-31G**", 
		 "properties": { 
			 "R2extent": 3142.4975, 
			 "electric_dipole_moment_norm": 4.24705682679, 
			 "electric_quadrupole_moment_norm": 10.8503361994, 
			 "total_energy": -623.339464272, 
			 "HOMO_LUMO_gap": 0.1532, 
			 "cosmo_polarized_energy": -16.41, 
			 "cosmo_cavitation_energy": 28.97, 
			 "cosmo_dispersion_energy": -21.4, 
			 "cosmo_repulsion_energy": 1.69, 
			 "cosmo_total_nonelectrostatic_energy": 9.27, 
			 "SMD_solvation_energy": 2.78 
		},
		"coords": [
			{
				"x": -2.105030289,
				"y": 2.1081071701,
				"z": 1.471447229,
				"element": "C" 
			},
			{
				"x": -1.1750018081,
				"y": 0.9341630076,
				"z": 1.3239301599,
				"element": "C" 
			},
			{
				"x": -0.4693447667,
				"y": 0.4013613335,
				"z": 2.4098073268,
				"element": "C" 
			},
			{
				"x": 0.3664175341,
				"y": -0.6866980955,
				"z": 2.164729313,
				"element": "C" 
			},
			{
				"x": 1.1732125565,
				"y": -1.3459636801,
				"z": 3.2510345453,
				"element": "C" 
			},
			{
				"x": 0.4902516786,
				"y": -1.1978777823,
				"z": 0.9295714005,
				"element": "N" 
			},
			{
				"x": -0.2327881655,
				"y": -0.6178263491,
				"z": -0.0414607072,
				"element": "C" 
			},
			{
				"x": -1.0592817604,
				"y": 0.4203666097,
				"z": 0.0942857826,
				"element": "N" 
			},
			{
				"x": -0.0972240061,
				"y": -1.156964574,
				"z": -1.3287881004,
				"element": "N" 
			},
			{
				"x": -0.6564990399,
				"y": -0.4943035961,
				"z": -2.4096137254,
				"element": "N" 
			},
			{
				"x": -0.3087284289,
				"y": -1.2280656662,
				"z": -3.4475779214,
				"element": "C" 
			},
			{
				"x": 0.4635342207,
				"y": -2.3646022628,
				"z": -3.1035077393,
				"element": "C" 
			},
			{
				"x": 0.5877638322,
				"y": -2.3027604911,
				"z": -1.7284948511,
				"element": "C" 
			},
			{
				"x": 1.1699321334,
				"y": -3.1853791136,
				"z": -0.8482979551,
				"element": "N" 
			},
			{
				"x": -2.1538097422,
				"y": 2.4634517963,
				"z": 2.5034523218,
				"element": "H" 
			},
			{
				"x": -3.1104995258,
				"y": 1.8302775831,
				"z": 1.1402929,
				"element": "H" 
			},
			{
				"x": -1.7742251694,
				"y": 2.9279893258,
				"z": 0.8261140094,
				"element": "H" 
			},
			{
				"x": -0.5693013826,
				"y": 0.8181606962,
				"z": 3.4056470932,
				"element": "H" 
			},
			{
				"x": 1.0271563119,
				"y": -0.8556097676,
				"z": 4.2160307433,
				"element": "H" 
			},
			{
				"x": 0.8893991912,
				"y": -2.3994002687,
				"z": 3.3460489541,
				"element": "H" 
			},
			{
				"x": 2.2387884098,
				"y": -1.3196586288,
				"z": 3.0006205168,
				"element": "H" 
			},
			{
				"x": -0.6232011574,
				"y": -0.9190466098,
				"z": -4.436940335,
				"element": "H" 
			},
			{
				"x": 0.8616996532,
				"y": -3.1301931363,
				"z": -3.7524498023,
				"element": "H" 
			},
			{
				"x": 1.3701075667,
				"y": -2.7854458648,
				"z": 0.062308005,
				"element": "H" 
			},
			{
				"x": 1.8915721536,
				"y": -3.7630816353,
				"z": -1.2532891634,
				"element": "H" 
			}
		],
		 "valence_orbital": [ 
			{
				"type": "occ",
				"energy": -0.29306,
				"method": "rhf"
			},
			{
				"type": "occ",
				"energy": -0.27368,
				"method": "rhf"
			},
			{
				"type": "occ",
				"energy": -0.24646,
				"method": "rhf"
			},
			{
				"type": "occ",
				"energy": -0.23197,
				"method": "rhf"
			},
			{
				"type": "occ",
				"energy": -0.19226,
				"method": "rhf"
			},
			{
				"type": "unocc",
				"energy": -0.03906,
				"method": "rhf"
			},
			{
				"type": "unocc",
				"energy": -0.02554,
				"method": "rhf"
			},
			{
				"type": "unocc",
				"energy": 0.05626,
				"method": "rhf"
			},
			{
				"type": "unocc",
				"energy": 0.08766,
				"method": "rhf"
			},
			{
				"type": "unocc",
				"energy": 0.0954,
				"method": "rhf"
			}
		],
		"cosmo_sigma_profile": { 
			"-0.025": 0.0,
			"-0.024": 0.0,
			"-0.023": 0.0,
			"-0.022": 0.0,
			"-0.021": 0.0,
			"-0.02": 0.0,
			"-0.019": 0.0,
			"-0.018": 0.0,
			"-0.017": 0.0,
			"-0.016": 0.0,
			"-0.015": 0.0,
			"-0.014": 0.292758962909,
			"-0.013": 1.27924209796,
			"-0.012": 1.08859084938,
			"-0.011": 1.35189975611,
			"-0.01": 1.20247343948,
			"-0.009": 1.35435008995,
			"-0.008": 2.70678269738,
			"-0.007": 5.99922564912,
			"-0.006": 11.7377883897,
			"-0.005": 16.8550521016,
			"-0.004": 15.2378042466,
			"-0.003": 18.6079679705,
			"-0.002": 22.4653985897,
			"-0.001": 30.211865424,
			"0.0": 20.4632399755,
			"0.001": 13.9850747806,
			"0.002": 9.00326704526,
			"0.003": 7.58184997012,
			"0.004": 8.15247911372,
			"0.005": 8.94202089754,
			"0.006": 6.49810322211,
			"0.007": 3.10231475718,
			"0.008": 3.33691459016,
			"0.009": 3.00009940295,
			"0.01": 2.0514884658,
			"0.011": 2.33907648407,
			"0.012": 1.96486444866,
			"0.013": 1.93673547298,
			"0.014": 0.967002792009,
			"0.015": 1.57614809626,
			"0.016": 1.4233657253,
			"0.017": 0.893848204005,
			"0.018": 0.940845646385,
			"0.019": 0.752651616598,
			"0.02": 1.19626618647,
			"0.021": 0.495668433562,
			"0.022": 0.0418715362411,
			"0.023": 0.0,
			"0.024": 0.0,
			"0.025": 0.0
		}
	}
}
