{
	 "smiles": "OC1=NC=NC2=C1C(F)=CC=C2", 
	 "Tm": 511.15, 
	 "num_atms": 17, 
	 "gaussian": { 
		 "optdone": 1, 
		 "sigma_profile": "yes", 
		 "theory": "DFT", 
		 "functional": "B3LYP", 
		 "basiset": "6-31G**", 
		 "properties": { 
			 "R2extent": 2862.5829, 
			 "electric_dipole_moment_norm": 3.86687801851, 
			 "electric_quadrupole_moment_norm": 8.62336599304, 
			 "total_energy": -592.433022225, 
			 "HOMO_LUMO_gap": 0.18151, 
			 "cosmo_polarized_energy": -10.93, 
			 "cosmo_cavitation_energy": 21.66, 
			 "cosmo_dispersion_energy": -16.7, 
			 "cosmo_repulsion_energy": 1.27, 
			 "cosmo_total_nonelectrostatic_energy": 6.22, 
			 "SMD_solvation_energy": 1.42 
		},
		"coords": [
			{
				"x": 1.4705412689,
				"y": -3.3900871737,
				"z": -0.8753927756,
				"element": "O" 
			},
			{
				"x": 1.6542673686,
				"y": -2.5405141607,
				"z": 0.1451959217,
				"element": "C" 
			},
			{
				"x": 1.8274176126,
				"y": -3.0878520745,
				"z": 1.3266823357,
				"element": "N" 
			},
			{
				"x": 2.0146476201,
				"y": -2.2452674098,
				"z": 2.3711830606,
				"element": "C" 
			},
			{
				"x": 2.0467280047,
				"y": -0.9298893837,
				"z": 2.360459337,
				"element": "N" 
			},
			{
				"x": 1.8692319125,
				"y": -0.337351227,
				"z": 1.1438421419,
				"element": "C" 
			},
			{
				"x": 1.662264475,
				"y": -1.1150661188,
				"z": -0.0365698479,
				"element": "C" 
			},
			{
				"x": 1.4871068843,
				"y": -0.4255062329,
				"z": -1.2551231929,
				"element": "C" 
			},
			{
				"x": 1.2880710579,
				"y": -1.161087309,
				"z": -2.3925023478,
				"element": "F" 
			},
			{
				"x": 1.5069731043,
				"y": 0.9413073718,
				"z": -1.3521021846,
				"element": "C" 
			},
			{
				"x": 1.7130550269,
				"y": 1.6952345426,
				"z": -0.1730310886,
				"element": "C" 
			},
			{
				"x": 1.8901874164,
				"y": 1.0776401193,
				"z": 1.0461686336,
				"element": "C" 
			},
			{
				"x": 1.3535402163,
				"y": -2.886086701,
				"z": -1.6956589534,
				"element": "H" 
			},
			{
				"x": 2.1549799486,
				"y": -2.7303187995,
				"z": 3.335529598,
				"element": "H" 
			},
			{
				"x": 1.3664657346,
				"y": 1.4151632198,
				"z": -2.3167757324,
				"element": "H" 
			},
			{
				"x": 1.7301370053,
				"y": 2.7784895654,
				"z": -0.2414360723,
				"element": "H" 
			},
			{
				"x": 2.0490853431,
				"y": 1.6426917717,
				"z": 1.9576311669,
				"element": "H" 
			}
		],
		 "valence_orbital": [ 
			{
				"type": "occ",
				"energy": -0.30199,
				"method": "rhf"
			},
			{
				"type": "occ",
				"energy": -0.3014,
				"method": "rhf"
			},
			{
				"type": "occ",
				"energy": -0.28404,
				"method": "rhf"
			},
			{
				"type": "occ",
				"energy": -0.26062,
				"method": "rhf"
			},
			{
				"type": "occ",
				"energy": -0.24373,
				"method": "rhf"
			},
			{
				"type": "unocc",
				"energy": -0.06222,
				"method": "rhf"
			},
			{
				"type": "unocc",
				"energy": -0.0416,
				"method": "rhf"
			},
			{
				"type": "unocc",
				"energy": 0.01528,
				"method": "rhf"
			},
			{
				"type": "unocc",
				"energy": 0.0653,
				"method": "rhf"
			},
			{
				"type": "unocc",
				"energy": 0.07177,
				"method": "rhf"
			}
		],
		"cosmo_sigma_profile": { 
			"-0.025": 0.0,
			"-0.024": 0.0,
			"-0.023": 0.0,
			"-0.022": 0.0,
			"-0.021": 0.0,
			"-0.02": 0.0,
			"-0.019": 0.0,
			"-0.018": 0.0,
			"-0.017": 0.0,
			"-0.016": 0.0,
			"-0.015": 0.0282621241134,
			"-0.014": 0.453652776147,
			"-0.013": 0.457834471041,
			"-0.012": 0.887378664345,
			"-0.011": 1.13661394647,
			"-0.01": 1.67784972402,
			"-0.009": 2.07165827744,
			"-0.008": 5.325844912,
			"-0.007": 7.72676433245,
			"-0.006": 10.2482406391,
			"-0.005": 8.84766445026,
			"-0.004": 8.99531279511,
			"-0.003": 12.447379883,
			"-0.002": 10.5134814256,
			"-0.001": 15.9912270956,
			"0.0": 15.4476043844,
			"0.001": 14.7596925496,
			"0.002": 14.8342603412,
			"0.003": 8.59813019374,
			"0.004": 3.68169247189,
			"0.005": 3.22192607668,
			"0.006": 3.20588135686,
			"0.007": 3.12581419583,
			"0.008": 3.85828372829,
			"0.009": 3.01264363676,
			"0.01": 3.56228064671,
			"0.011": 3.49236737404,
			"0.012": 2.4329118097,
			"0.013": 2.12505803205,
			"0.014": 1.79777802695,
			"0.015": 1.4456262984,
			"0.016": 0.237322475212,
			"0.017": 0.0,
			"0.018": 0.0,
			"0.019": 0.0,
			"0.02": 0.0,
			"0.021": 0.0,
			"0.022": 0.0,
			"0.023": 0.0,
			"0.024": 0.0,
			"0.025": 0.0
		}
	}
}
