{
	 "smiles": "NC(CN1CCC(O)CC1)=NO", 
	 "Tm": 456.15, 
	 "num_atms": 27, 
	 "gaussian": { 
		 "optdone": 1, 
		 "sigma_profile": "yes", 
		 "theory": "DFT", 
		 "functional": "B3LYP", 
		 "basiset": "6-31G**", 
		 "properties": { 
			 "R2extent": 2835.4987, 
			 "electric_dipole_moment_norm": 1.67126697448, 
			 "electric_quadrupole_moment_norm": 12.6175831985, 
			 "total_energy": -590.419709014, 
			 "HOMO_LUMO_gap": 0.24582, 
			 "cosmo_polarized_energy": -15.15, 
			 "cosmo_cavitation_energy": 28.46, 
			 "cosmo_dispersion_energy": -20.68, 
			 "cosmo_repulsion_energy": 1.68, 
			 "cosmo_total_nonelectrostatic_energy": 9.46, 
			 "SMD_solvation_energy": 3.46 
		},
		"coords": [
			{
				"x": 1.3303893308,
				"y": 0.4784599363,
				"z": -2.0751238961,
				"element": "N" 
			},
			{
				"x": 1.879092108,
				"y": 0.6746725333,
				"z": -0.8320935672,
				"element": "C" 
			},
			{
				"x": 1.4581126613,
				"y": -0.2979725476,
				"z": 0.2440460233,
				"element": "C" 
			},
			{
				"x": 0.001860037,
				"y": -0.4222131488,
				"z": 0.3025307708,
				"element": "N" 
			},
			{
				"x": -0.4572101456,
				"y": -1.6093606944,
				"z": 1.0279774927,
				"element": "C" 
			},
			{
				"x": -1.943448692,
				"y": -1.8821331273,
				"z": 0.7029336653,
				"element": "C" 
			},
			{
				"x": -2.6870360175,
				"y": -0.5888708128,
				"z": 0.312522592,
				"element": "C" 
			},
			{
				"x": -4.0980307559,
				"y": -0.7214495039,
				"z": 0.4391334295,
				"element": "O" 
			},
			{
				"x": -2.1282028786,
				"y": 0.585329568,
				"z": 1.1213557504,
				"element": "C" 
			},
			{
				"x": -0.6283128973,
				"y": 0.804241797,
				"z": 0.8234246694,
				"element": "C" 
			},
			{
				"x": 2.7593301137,
				"y": 1.5645256171,
				"z": -0.5232569528,
				"element": "N" 
			},
			{
				"x": 3.0517536362,
				"y": 2.3539133821,
				"z": -1.6798825316,
				"element": "O" 
			},
			{
				"x": 0.4249355469,
				"y": 0.0283449772,
				"z": -2.0575222166,
				"element": "H" 
			},
			{
				"x": 1.4464395998,
				"y": 1.24492493,
				"z": -2.722561743,
				"element": "H" 
			},
			{
				"x": 1.9098380453,
				"y": 0.0276593506,
				"z": 1.1955499544,
				"element": "H" 
			},
			{
				"x": 1.8682472748,
				"y": -1.2851164128,
				"z": -0.0030276584,
				"element": "H" 
			},
			{
				"x": 0.1595199452,
				"y": -2.4610284587,
				"z": 0.7246987482,
				"element": "H" 
			},
			{
				"x": -0.3142280125,
				"y": -1.4954198287,
				"z": 2.1196255706,
				"element": "H" 
			},
			{
				"x": -2.4336390215,
				"y": -2.3162125526,
				"z": 1.5848340793,
				"element": "H" 
			},
			{
				"x": -2.0409661457,
				"y": -2.6149260329,
				"z": -0.104101711,
				"element": "H" 
			},
			{
				"x": -2.5266453684,
				"y": -0.39030631,
				"z": -0.7519994101,
				"element": "H" 
			},
			{
				"x": -4.2930239705,
				"y": -0.8975283893,
				"z": 1.3698837546,
				"element": "H" 
			},
			{
				"x": -2.2739204054,
				"y": 0.3690699696,
				"z": 2.1894243339,
				"element": "H" 
			},
			{
				"x": -2.6993711238,
				"y": 1.4925700413,
				"z": 0.9035339173,
				"element": "H" 
			},
			{
				"x": -0.1133540577,
				"y": 1.1539154558,
				"z": 1.7369086572,
				"element": "H" 
			},
			{
				"x": -0.4998288759,
				"y": 1.5910787045,
				"z": 0.072364178,
				"element": "H" 
			},
			{
				"x": 3.6744000693,
				"y": 2.9988315569,
				"z": -1.3241778999,
				"element": "H" 
			}
		],
		 "valence_orbital": [ 
			{
				"type": "occ",
				"energy": -0.30272,
				"method": "rhf"
			},
			{
				"type": "occ",
				"energy": -0.26532,
				"method": "rhf"
			},
			{
				"type": "occ",
				"energy": -0.26297,
				"method": "rhf"
			},
			{
				"type": "occ",
				"energy": -0.22386,
				"method": "rhf"
			},
			{
				"type": "occ",
				"energy": -0.2064,
				"method": "rhf"
			},
			{
				"type": "unocc",
				"energy": 0.03942,
				"method": "rhf"
			},
			{
				"type": "unocc",
				"energy": 0.06666,
				"method": "rhf"
			},
			{
				"type": "unocc",
				"energy": 0.07612,
				"method": "rhf"
			},
			{
				"type": "unocc",
				"energy": 0.08734,
				"method": "rhf"
			},
			{
				"type": "unocc",
				"energy": 0.09896,
				"method": "rhf"
			}
		],
		"cosmo_sigma_profile": { 
			"-0.025": 0.0,
			"-0.024": 0.0,
			"-0.023": 0.0,
			"-0.022": 0.0,
			"-0.021": 0.0,
			"-0.02": 0.0,
			"-0.019": 0.0,
			"-0.018": 0.0,
			"-0.017": 0.0932262480858,
			"-0.016": 0.783607603057,
			"-0.015": 1.3296438825,
			"-0.014": 1.91102326608,
			"-0.013": 1.34220068968,
			"-0.012": 1.6053675723,
			"-0.011": 2.71964341347,
			"-0.01": 3.59286330472,
			"-0.009": 2.95647518869,
			"-0.008": 3.6109720614,
			"-0.007": 3.64142245823,
			"-0.006": 4.53057720524,
			"-0.005": 7.5503441733,
			"-0.004": 10.4812758553,
			"-0.003": 22.5589579909,
			"-0.002": 34.2818126782,
			"-0.001": 25.814416501,
			"0.0": 16.7169666923,
			"0.001": 8.40090170827,
			"0.002": 5.55104310051,
			"0.003": 5.51911098963,
			"0.004": 5.37547209141,
			"0.005": 5.00687504241,
			"0.006": 4.93557347309,
			"0.007": 5.83672759951,
			"0.008": 6.05894396273,
			"0.009": 6.77760179799,
			"0.01": 4.29169098481,
			"0.011": 3.80078215218,
			"0.012": 3.50007179296,
			"0.013": 2.99560691183,
			"0.014": 3.09647972258,
			"0.015": 2.40557029179,
			"0.016": 0.240188360784,
			"0.017": 0.0,
			"0.018": 0.0,
			"0.019": 0.0,
			"0.02": 0.0,
			"0.021": 0.0,
			"0.022": 0.0,
			"0.023": 0.0,
			"0.024": 0.0,
			"0.025": 0.0
		}
	}
}
