{
	 "smiles": "CC(=O)NCCC1=C(C=CC=C1)[N+]([O-])=O", 
	 "Tm": 367.15, 
	 "num_atms": 27, 
	 "gaussian": { 
		 "optdone": 1, 
		 "sigma_profile": "yes", 
		 "theory": "DFT", 
		 "functional": "B3LYP", 
		 "basiset": "6-31G**", 
		 "properties": { 
			 "R2extent": 3477.9956, 
			 "electric_dipole_moment_norm": 6.12233392915, 
			 "electric_quadrupole_moment_norm": 12.7452854091, 
			 "total_energy": -723.392254296, 
			 "HOMO_LUMO_gap": 0.14939, 
			 "cosmo_polarized_energy": -16.69, 
			 "cosmo_cavitation_energy": 30.4, 
			 "cosmo_dispersion_energy": -21.26, 
			 "cosmo_repulsion_energy": 1.64, 
			 "cosmo_total_nonelectrostatic_energy": 10.77, 
			 "SMD_solvation_energy": 7.23 
		},
		"coords": [
			{
				"x": -3.5056095814,
				"y": 0.7203651806,
				"z": -0.4313588837,
				"element": "C" 
			},
			{
				"x": -3.1719199331,
				"y": -0.6861495478,
				"z": 0.0317579934,
				"element": "C" 
			},
			{
				"x": -3.7282247691,
				"y": -1.2317188341,
				"z": 0.9754151397,
				"element": "O" 
			},
			{
				"x": -2.1659337459,
				"y": -1.3089356246,
				"z": -0.6736747989,
				"element": "N" 
			},
			{
				"x": -1.6324216527,
				"y": -2.5868798391,
				"z": -0.2368187243,
				"element": "C" 
			},
			{
				"x": -0.5114648019,
				"y": -2.4749369614,
				"z": 0.8297086766,
				"element": "C" 
			},
			{
				"x": 0.7760337277,
				"y": -1.9000022022,
				"z": 0.2811249919,
				"element": "C" 
			},
			{
				"x": 1.0201570534,
				"y": -0.5323613401,
				"z": 0.0597420147,
				"element": "C" 
			},
			{
				"x": 2.1767353096,
				"y": -0.0579808677,
				"z": -0.5636164733,
				"element": "C" 
			},
			{
				"x": 3.161737136,
				"y": -0.9570654082,
				"z": -0.9562201539,
				"element": "C" 
			},
			{
				"x": 2.9626617143,
				"y": -2.32276311,
				"z": -0.7448024933,
				"element": "C" 
			},
			{
				"x": 1.7863705554,
				"y": -2.7751109197,
				"z": -0.1497819322,
				"element": "C" 
			},
			{
				"x": 0.0576003912,
				"y": 0.501798033,
				"z": 0.4781380297,
				"element": "N" 
			},
			{
				"x": -0.48240889,
				"y": 0.3940592964,
				"z": 1.5757726577,
				"element": "O" 
			},
			{
				"x": -0.1298387108,
				"y": 1.4375740523,
				"z": -0.3048045011,
				"element": "O" 
			},
			{
				"x": -2.7736255514,
				"y": 1.4171540036,
				"z": -0.0084154232,
				"element": "H" 
			},
			{
				"x": -4.4983806615,
				"y": 0.9842042292,
				"z": -0.0665286912,
				"element": "H" 
			},
			{
				"x": -3.4741140122,
				"y": 0.8182766627,
				"z": -1.5211163384,
				"element": "H" 
			},
			{
				"x": -1.6951455354,
				"y": -0.7987902477,
				"z": -1.4062216594,
				"element": "H" 
			},
			{
				"x": -2.4639235523,
				"y": -3.1426391402,
				"z": 0.20241855,
				"element": "H" 
			},
			{
				"x": -1.2698736419,
				"y": -3.1369420793,
				"z": -1.111593244,
				"element": "H" 
			},
			{
				"x": -0.8892836016,
				"y": -1.8864670742,
				"z": 1.6655777169,
				"element": "H" 
			},
			{
				"x": -0.303953925,
				"y": -3.4842908055,
				"z": 1.2015771932,
				"element": "H" 
			},
			{
				"x": 2.2875942375,
				"y": 1.0083070364,
				"z": -0.7212560527,
				"element": "H" 
			},
			{
				"x": 4.0723866256,
				"y": -0.5947317627,
				"z": -1.421992165,
				"element": "H" 
			},
			{
				"x": 3.7216368101,
				"y": -3.0379537497,
				"z": -1.0475454136,
				"element": "H" 
			},
			{
				"x": 1.6358090056,
				"y": -3.84181898,
				"z": -0.0081860155,
				"element": "H" 
			}
		],
		 "valence_orbital": [ 
			{
				"type": "occ",
				"energy": -0.30633,
				"method": "rhf"
			},
			{
				"type": "occ",
				"energy": -0.2774,
				"method": "rhf"
			},
			{
				"type": "occ",
				"energy": -0.27474,
				"method": "rhf"
			},
			{
				"type": "occ",
				"energy": -0.249,
				"method": "rhf"
			},
			{
				"type": "occ",
				"energy": -0.23922,
				"method": "rhf"
			},
			{
				"type": "unocc",
				"energy": -0.08983,
				"method": "rhf"
			},
			{
				"type": "unocc",
				"energy": -0.03088,
				"method": "rhf"
			},
			{
				"type": "unocc",
				"energy": -0.01806,
				"method": "rhf"
			},
			{
				"type": "unocc",
				"energy": 0.03614,
				"method": "rhf"
			},
			{
				"type": "unocc",
				"energy": 0.07225,
				"method": "rhf"
			}
		],
		"cosmo_sigma_profile": { 
			"-0.025": 0.0,
			"-0.024": 0.0,
			"-0.023": 0.0,
			"-0.022": 0.0,
			"-0.021": 0.0,
			"-0.02": 0.0,
			"-0.019": 0.0,
			"-0.018": 0.0,
			"-0.017": 0.0,
			"-0.016": 0.0,
			"-0.015": 0.0,
			"-0.014": 0.12710315214,
			"-0.013": 0.70821157292,
			"-0.012": 1.02483048496,
			"-0.011": 1.1703500411,
			"-0.01": 1.34577610561,
			"-0.009": 2.2408676271,
			"-0.008": 2.61142377164,
			"-0.007": 11.1065225039,
			"-0.006": 15.0211099298,
			"-0.005": 17.7585870964,
			"-0.004": 18.2790691789,
			"-0.003": 17.7261216809,
			"-0.002": 16.391164284,
			"-0.001": 19.9197940301,
			"0.0": 15.0884934329,
			"0.001": 15.605681978,
			"0.002": 15.7815750553,
			"0.003": 15.3764270475,
			"0.004": 6.99804129336,
			"0.005": 5.00631760053,
			"0.006": 6.94533241334,
			"0.007": 9.32092525919,
			"0.008": 7.49790189072,
			"0.009": 3.82279646868,
			"0.01": 1.10743368865,
			"0.011": 1.61327636294,
			"0.012": 1.82234415537,
			"0.013": 2.86732123199,
			"0.014": 4.89932268286,
			"0.015": 1.44267616087,
			"0.016": 0.0745290534623,
			"0.017": 0.0,
			"0.018": 0.0,
			"0.019": 0.0,
			"0.02": 0.0,
			"0.021": 0.0,
			"0.022": 0.0,
			"0.023": 0.0,
			"0.024": 0.0,
			"0.025": 0.0
		}
	}
}
