{
	 "smiles": "NC1=C(Br)C=CC=C1Br", 
	 "Tm": 360.65, 
	 "num_atms": 14, 
	 "gaussian": { 
		 "optdone": 1, 
		 "sigma_profile": "yes", 
		 "theory": "DFT", 
		 "functional": "B3LYP", 
		 "basiset": "6-31G**", 
		 "properties": { 
			 "R2extent": 4364.9334, 
			 "electric_dipole_moment_norm": 0.753346805927, 
			 "electric_quadrupole_moment_norm": 9.8329685182, 
			 "total_energy": -5429.21666243, 
			 "HOMO_LUMO_gap": 0.19627, 
			 "cosmo_polarized_energy": -5.65, 
			 "cosmo_cavitation_energy": 22.08, 
			 "cosmo_dispersion_energy": -17.66, 
			 "cosmo_repulsion_energy": 1.43, 
			 "cosmo_total_nonelectrostatic_energy": 5.85, 
			 "SMD_solvation_energy": 1.52 
		},
		"coords": [
			{
				"x": -0.0840341754,
				"y": -1.6050409801,
				"z": -1.6351219628,
				"element": "N" 
			},
			{
				"x": 0.088079586,
				"y": -0.2528330203,
				"z": -1.8033715267,
				"element": "C" 
			},
			{
				"x": 0.3870138465,
				"y": 0.6098888153,
				"z": -0.7253850498,
				"element": "C" 
			},
			{
				"x": 0.4784711844,
				"y": -0.1251574003,
				"z": 1.044073908,
				"element": "Br" 
			},
			{
				"x": 0.614800465,
				"y": 1.9701471817,
				"z": -0.8932413985,
				"element": "C" 
			},
			{
				"x": 0.5465382703,
				"y": 2.5346362967,
				"z": -2.1663242143,
				"element": "C" 
			},
			{
				"x": 0.2453448612,
				"y": 1.7228367712,
				"z": -3.2591669175,
				"element": "C" 
			},
			{
				"x": 0.0204687081,
				"y": 0.3645861547,
				"z": -3.0721906532,
				"element": "C" 
			},
			{
				"x": -0.4035590599,
				"y": -0.7150060117,
				"z": -4.6000306806,
				"element": "Br" 
			},
			{
				"x": -0.5498224433,
				"y": -2.0972726766,
				"z": -2.382796457,
				"element": "H" 
			},
			{
				"x": -0.2871842091,
				"y": -1.9211025742,
				"z": -0.6985847554,
				"element": "H" 
			},
			{
				"x": 0.8414597007,
				"y": 2.5806162983,
				"z": -0.0267378276,
				"element": "H" 
			},
			{
				"x": 0.7245518098,
				"y": 3.5954942686,
				"z": -2.3050175528,
				"element": "H" 
			},
			{
				"x": 0.1806714556,
				"y": 2.1383068767,
				"z": -4.2582049118,
				"element": "H" 
			}
		],
		 "valence_orbital": [ 
			{
				"type": "occ",
				"energy": -0.30174,
				"method": "rhf"
			},
			{
				"type": "occ",
				"energy": -0.29912,
				"method": "rhf"
			},
			{
				"type": "occ",
				"energy": -0.29421,
				"method": "rhf"
			},
			{
				"type": "occ",
				"energy": -0.24417,
				"method": "rhf"
			},
			{
				"type": "occ",
				"energy": -0.2149,
				"method": "rhf"
			},
			{
				"type": "unocc",
				"energy": -0.01863,
				"method": "rhf"
			},
			{
				"type": "unocc",
				"energy": -0.01689,
				"method": "rhf"
			},
			{
				"type": "unocc",
				"energy": -0.00044,
				"method": "rhf"
			},
			{
				"type": "unocc",
				"energy": 0.02601,
				"method": "rhf"
			},
			{
				"type": "unocc",
				"energy": 0.09344,
				"method": "rhf"
			}
		],
		"cosmo_sigma_profile": { 
			"-0.025": 0.0,
			"-0.024": 0.0,
			"-0.023": 0.0,
			"-0.022": 0.0,
			"-0.021": 0.0,
			"-0.02": 0.0,
			"-0.019": 0.0,
			"-0.018": 0.0,
			"-0.017": 0.0,
			"-0.016": 0.0,
			"-0.015": 0.0,
			"-0.014": 0.0,
			"-0.013": 0.00622940962055,
			"-0.012": 1.25294305764,
			"-0.011": 1.56480072679,
			"-0.01": 2.25085688788,
			"-0.009": 1.71787116002,
			"-0.008": 1.76861510952,
			"-0.007": 5.79121147402,
			"-0.006": 7.25550729603,
			"-0.005": 8.24865107486,
			"-0.004": 10.5325694122,
			"-0.003": 9.45992834182,
			"-0.002": 9.78996009813,
			"-0.001": 11.751600856,
			"0.0": 12.6177206938,
			"0.001": 14.6105876995,
			"0.002": 22.7681104366,
			"0.003": 25.8159440043,
			"0.004": 24.2682547518,
			"0.005": 8.25471087339,
			"0.006": 0.753105688078,
			"0.007": 0.375111517675,
			"0.008": 0.670301741168,
			"0.009": 0.961857273021,
			"0.01": 0.505479159703,
			"0.011": 0.47717113371,
			"0.012": 0.0849353727597,
			"0.013": 0.0,
			"0.014": 0.0,
			"0.015": 0.0,
			"0.016": 0.0,
			"0.017": 0.0,
			"0.018": 0.0,
			"0.019": 0.0,
			"0.02": 0.0,
			"0.021": 0.0,
			"0.022": 0.0,
			"0.023": 0.0,
			"0.024": 0.0,
			"0.025": 0.0
		}
	}
}
