{
	 "smiles": "ClCC1=C(CN2C=NC=N2)C=CC=C1", 
	 "Tm": 327.65, 
	 "num_atms": 24, 
	 "gaussian": { 
		 "optdone": 1, 
		 "sigma_profile": "yes", 
		 "theory": "DFT", 
		 "functional": "B3LYP", 
		 "basiset": "6-31G**", 
		 "properties": { 
			 "R2extent": 3260.1504, 
			 "electric_dipole_moment_norm": 4.98501420861, 
			 "electric_quadrupole_moment_norm": 10.394189422, 
			 "total_energy": -1011.5221792, 
			 "HOMO_LUMO_gap": 0.21638, 
			 "cosmo_polarized_energy": -14.5, 
			 "cosmo_cavitation_energy": 29.72, 
			 "cosmo_dispersion_energy": -20.67, 
			 "cosmo_repulsion_energy": 1.61, 
			 "cosmo_total_nonelectrostatic_energy": 10.66, 
			 "SMD_solvation_energy": 2.71 
		},
		"coords": [
			{
				"x": -1.3093025703,
				"y": -0.2791834839,
				"z": -2.2385362077,
				"element": "Cl" 
			},
			{
				"x": -0.4923984895,
				"y": 0.8755186379,
				"z": -1.0710872254,
				"element": "C" 
			},
			{
				"x": -0.4520613502,
				"y": 0.3216076576,
				"z": 0.3281513796,
				"element": "C" 
			},
			{
				"x": 0.7304012112,
				"y": -0.1748031978,
				"z": 0.9166338976,
				"element": "C" 
			},
			{
				"x": 2.0732121591,
				"y": -0.149229217,
				"z": 0.2084756988,
				"element": "C" 
			},
			{
				"x": 2.1409720495,
				"y": -0.9720085907,
				"z": -0.99883562,
				"element": "N" 
			},
			{
				"x": 1.9683819885,
				"y": -2.3043196713,
				"z": -1.1569849831,
				"element": "C" 
			},
			{
				"x": 2.1642835725,
				"y": -2.6514865903,
				"z": -2.4179115236,
				"element": "N" 
			},
			{
				"x": 2.4581403189,
				"y": -1.4600152845,
				"z": -3.0080986193,
				"element": "C" 
			},
			{
				"x": 2.4622518492,
				"y": -0.4114254325,
				"z": -2.1967089658,
				"element": "N" 
			},
			{
				"x": 0.6824137273,
				"y": -0.670746372,
				"z": 2.2258448877,
				"element": "C" 
			},
			{
				"x": -0.5058635952,
				"y": -0.6850067716,
				"z": 2.9546537936,
				"element": "C" 
			},
			{
				"x": -1.6740206884,
				"y": -0.1924677835,
				"z": 2.3736275518,
				"element": "C" 
			},
			{
				"x": -1.6385914734,
				"y": 0.3054938543,
				"z": 1.0732262294,
				"element": "C" 
			},
			{
				"x": 0.4909161018,
				"y": 1.0594888222,
				"z": -1.4988460109,
				"element": "H" 
			},
			{
				"x": -1.0861824209,
				"y": 1.7892317538,
				"z": -1.1148340367,
				"element": "H" 
			},
			{
				"x": 2.3411474958,
				"y": 0.8570194069,
				"z": -0.1218183704,
				"element": "H" 
			},
			{
				"x": 2.8532805268,
				"y": -0.4773552265,
				"z": 0.9028353341,
				"element": "H" 
			},
			{
				"x": 1.6994572996,
				"y": -2.9640956312,
				"z": -0.3438118031,
				"element": "H" 
			},
			{
				"x": 2.6746947615,
				"y": -1.3591839351,
				"z": -4.0626059761,
				"element": "H" 
			},
			{
				"x": 1.5950901804,
				"y": -1.0472506438,
				"z": 2.6811478626,
				"element": "H" 
			},
			{
				"x": -0.5169093439,
				"y": -1.0756960954,
				"z": 3.967718532,
				"element": "H" 
			},
			{
				"x": -2.6070760479,
				"y": -0.1942002322,
				"z": 2.9289927759,
				"element": "H" 
			},
			{
				"x": -2.5488372626,
				"y": 0.6834140266,
				"z": 0.6153713988,
				"element": "H" 
			}
		],
		 "valence_orbital": [ 
			{
				"type": "occ",
				"energy": -0.28588,
				"method": "rhf"
			},
			{
				"type": "occ",
				"energy": -0.27534,
				"method": "rhf"
			},
			{
				"type": "occ",
				"energy": -0.26832,
				"method": "rhf"
			},
			{
				"type": "occ",
				"energy": -0.26335,
				"method": "rhf"
			},
			{
				"type": "occ",
				"energy": -0.25703,
				"method": "rhf"
			},
			{
				"type": "unocc",
				"energy": -0.04065,
				"method": "rhf"
			},
			{
				"type": "unocc",
				"energy": -0.02258,
				"method": "rhf"
			},
			{
				"type": "unocc",
				"energy": 0.00579,
				"method": "rhf"
			},
			{
				"type": "unocc",
				"energy": 0.03889,
				"method": "rhf"
			},
			{
				"type": "unocc",
				"energy": 0.05449,
				"method": "rhf"
			}
		],
		"cosmo_sigma_profile": { 
			"-0.025": 0.0,
			"-0.024": 0.0,
			"-0.023": 0.0,
			"-0.022": 0.0,
			"-0.021": 0.0,
			"-0.02": 0.0,
			"-0.019": 0.0,
			"-0.018": 0.0,
			"-0.017": 0.0,
			"-0.016": 0.0,
			"-0.015": 0.0,
			"-0.014": 0.0,
			"-0.013": 0.0,
			"-0.012": 0.0,
			"-0.011": 0.0604914354222,
			"-0.01": 1.41940643315,
			"-0.009": 2.36344326604,
			"-0.008": 10.212263149,
			"-0.007": 13.58899251,
			"-0.006": 18.1705820015,
			"-0.005": 16.9780394158,
			"-0.004": 18.3318754082,
			"-0.003": 12.486778753,
			"-0.002": 10.3167245546,
			"-0.001": 9.54814909926,
			"0.0": 12.7014224397,
			"0.001": 12.3659257311,
			"0.002": 16.755432278,
			"0.003": 15.1404303388,
			"0.004": 21.5504864833,
			"0.005": 15.5918906558,
			"0.006": 10.6339730002,
			"0.007": 5.92669160586,
			"0.008": 1.39838337135,
			"0.009": 2.72752037296,
			"0.01": 2.48476884657,
			"0.011": 1.84321410991,
			"0.012": 2.08409807741,
			"0.013": 1.51380571454,
			"0.014": 1.54634141025,
			"0.015": 1.24896989993,
			"0.016": 0.998636697436,
			"0.017": 0.281577432897,
			"0.018": 0.0,
			"0.019": 0.0,
			"0.02": 0.0,
			"0.021": 0.0,
			"0.022": 0.0,
			"0.023": 0.0,
			"0.024": 0.0,
			"0.025": 0.0
		}
	}
}
