{
	 "smiles": "CCC1(C(=O)N(COC)C(=O)N(COC)C1=O)C1=CC=CC=C1", 
	 "Tm": 390.15, 
	 "num_atms": 43, 
	 "gaussian": { 
		 "optdone": 1, 
		 "sigma_profile": "yes", 
		 "theory": "DFT", 
		 "functional": "B3LYP", 
		 "basiset": "6-31G**", 
		 "properties": { 
			 "R2extent": 7374.5159, 
			 "electric_dipole_moment_norm": 1.32275431581, 
			 "electric_quadrupole_moment_norm": 3.4859924082, 
			 "total_energy": -1107.38944062, 
			 "HOMO_LUMO_gap": 0.20895, 
			 "cosmo_polarized_energy": -18.53, 
			 "cosmo_cavitation_energy": 45.67, 
			 "cosmo_dispersion_energy": -29.99, 
			 "cosmo_repulsion_energy": 2.32, 
			 "cosmo_total_nonelectrostatic_energy": 18.0, 
			 "SMD_solvation_energy": 10.16 
		},
		"coords": [
			{
				"x": -1.2895699818,
				"y": -2.2662601987,
				"z": 1.4562284698,
				"element": "C" 
			},
			{
				"x": -0.6260371859,
				"y": -2.6580023353,
				"z": 0.1297296873,
				"element": "C" 
			},
			{
				"x": 0.197934197,
				"y": -1.5087418832,
				"z": -0.5226590926,
				"element": "C" 
			},
			{
				"x": 1.3193312016,
				"y": -1.1603113755,
				"z": 0.4600050344,
				"element": "C" 
			},
			{
				"x": 2.1179538463,
				"y": -2.0008234555,
				"z": 0.8229486289,
				"element": "O" 
			},
			{
				"x": 1.4006792371,
				"y": 0.1573540212,
				"z": 0.9281649177,
				"element": "N" 
			},
			{
				"x": 2.3895281859,
				"y": 0.4376037611,
				"z": 1.9606951869,
				"element": "C" 
			},
			{
				"x": 1.8071946902,
				"y": 0.1222646433,
				"z": 3.2040146375,
				"element": "O" 
			},
			{
				"x": 2.6998047879,
				"y": 0.3348384835,
				"z": 4.2813847578,
				"element": "C" 
			},
			{
				"x": 0.4881187001,
				"y": 1.1841031489,
				"z": 0.6397488267,
				"element": "C" 
			},
			{
				"x": 0.6092819264,
				"y": 2.2945882666,
				"z": 1.1166824979,
				"element": "O" 
			},
			{
				"x": -0.5478355361,
				"y": 0.8787978493,
				"z": -0.2567347011,
				"element": "N" 
			},
			{
				"x": -1.5679765712,
				"y": 1.9018052965,
				"z": -0.4445054677,
				"element": "C" 
			},
			{
				"x": -2.5365911877,
				"y": 1.7258754481,
				"z": 0.5631427103,
				"element": "O" 
			},
			{
				"x": -3.5964232473,
				"y": 2.6573286609,
				"z": 0.45423157,
				"element": "C" 
			},
			{
				"x": -0.7895415179,
				"y": -0.3783830422,
				"z": -0.8251074461,
				"element": "C" 
			},
			{
				"x": -1.7551634782,
				"y": -0.5642749476,
				"z": -1.5385702635,
				"element": "O" 
			},
			{
				"x": 0.8662456499,
				"y": -1.901482961,
				"z": -1.8579822647,
				"element": "C" 
			},
			{
				"x": 1.6370473655,
				"y": -0.9436959371,
				"z": -2.5342257627,
				"element": "C" 
			},
			{
				"x": 2.260675803,
				"y": -1.2479416522,
				"z": -3.7422889295,
				"element": "C" 
			},
			{
				"x": 2.1234896772,
				"y": -2.5214711707,
				"z": -4.2976825047,
				"element": "C" 
			},
			{
				"x": 1.359670868,
				"y": -3.4796130966,
				"z": -3.6332844859,
				"element": "C" 
			},
			{
				"x": 0.734852183,
				"y": -3.1732086098,
				"z": -2.4218956186,
				"element": "C" 
			},
			{
				"x": -1.8492137375,
				"y": -3.117150759,
				"z": 1.8557216244,
				"element": "H" 
			},
			{
				"x": -1.9955548298,
				"y": -1.4386139834,
				"z": 1.3309638435,
				"element": "H" 
			},
			{
				"x": -0.5521171777,
				"y": -1.9747297324,
				"z": 2.2113808229,
				"element": "H" 
			},
			{
				"x": 0.0564408835,
				"y": -3.4965425484,
				"z": 0.2897698161,
				"element": "H" 
			},
			{
				"x": -1.3895052569,
				"y": -2.9601470402,
				"z": -0.5916231428,
				"element": "H" 
			},
			{
				"x": 2.6519295471,
				"y": 1.4982930739,
				"z": 1.8996036103,
				"element": "H" 
			},
			{
				"x": 3.2617768863,
				"y": -0.1925734833,
				"z": 1.7586676909,
				"element": "H" 
			},
			{
				"x": 3.5986876747,
				"y": -0.294985653,
				"z": 4.1973164256,
				"element": "H" 
			},
			{
				"x": 3.0150180855,
				"y": 1.3873881467,
				"z": 4.3489524405,
				"element": "H" 
			},
			{
				"x": 2.164635389,
				"y": 0.0674002895,
				"z": 5.194487431,
				"element": "H" 
			},
			{
				"x": -1.0845365337,
				"y": 2.8806035403,
				"z": -0.368046317,
				"element": "H" 
			},
			{
				"x": -1.9989437871,
				"y": 1.7559774912,
				"z": -1.4403664863,
				"element": "H" 
			},
			{
				"x": -4.2901319771,
				"y": 2.4456454585,
				"z": 1.2701026824,
				"element": "H" 
			},
			{
				"x": -3.2401229093,
				"y": 3.6944550483,
				"z": 0.5501366621,
				"element": "H" 
			},
			{
				"x": -4.1306482328,
				"y": 2.557889342,
				"z": -0.5030813183,
				"element": "H" 
			},
			{
				"x": 1.754040273,
				"y": 0.0529417863,
				"z": -2.1152444967,
				"element": "H" 
			},
			{
				"x": 2.8526200174,
				"y": -0.4907279214,
				"z": -4.2481777285,
				"element": "H" 
			},
			{
				"x": 2.6077963659,
				"y": -2.7632148649,
				"z": -5.2391681385,
				"element": "H" 
			},
			{
				"x": 1.2455046873,
				"y": -4.4739183925,
				"z": -4.0553465629,
				"element": "H" 
			},
			{
				"x": 0.1471550193,
				"y": -3.9363387125,
				"z": -1.9264892467,
				"element": "H" 
			}
		],
		 "valence_orbital": [ 
			{
				"type": "occ",
				"energy": -0.26717,
				"method": "rhf"
			},
			{
				"type": "occ",
				"energy": -0.26438,
				"method": "rhf"
			},
			{
				"type": "occ",
				"energy": -0.26081,
				"method": "rhf"
			},
			{
				"type": "occ",
				"energy": -0.25573,
				"method": "rhf"
			},
			{
				"type": "occ",
				"energy": -0.24867,
				"method": "rhf"
			},
			{
				"type": "unocc",
				"energy": -0.03972,
				"method": "rhf"
			},
			{
				"type": "unocc",
				"energy": -0.01858,
				"method": "rhf"
			},
			{
				"type": "unocc",
				"energy": -0.01071,
				"method": "rhf"
			},
			{
				"type": "unocc",
				"energy": 0.01333,
				"method": "rhf"
			},
			{
				"type": "unocc",
				"energy": 0.03985,
				"method": "rhf"
			}
		],
		"cosmo_sigma_profile": { 
			"-0.025": 0.0,
			"-0.024": 0.0,
			"-0.023": 0.0,
			"-0.022": 0.0,
			"-0.021": 0.0,
			"-0.02": 0.0,
			"-0.019": 0.0,
			"-0.018": 0.0,
			"-0.017": 0.0,
			"-0.016": 0.0,
			"-0.015": 0.0,
			"-0.014": 0.0,
			"-0.013": 0.0,
			"-0.012": 0.0,
			"-0.011": 0.00100950021688,
			"-0.01": 0.194755443431,
			"-0.009": 0.864160245193,
			"-0.008": 1.83489749652,
			"-0.007": 3.7489539709,
			"-0.006": 23.264296318,
			"-0.005": 42.2296066336,
			"-0.004": 41.6179522078,
			"-0.003": 34.5234466894,
			"-0.002": 31.8526439308,
			"-0.001": 21.829802224,
			"0.0": 22.3698584339,
			"0.001": 16.3521732458,
			"0.002": 11.9410432868,
			"0.003": 14.9330487115,
			"0.004": 14.32485378,
			"0.005": 16.5722036529,
			"0.006": 9.20274294649,
			"0.007": 9.30087072657,
			"0.008": 9.7149153938,
			"0.009": 11.147672901,
			"0.01": 11.3164884521,
			"0.011": 10.4713518297,
			"0.012": 0.601447154534,
			"0.013": 0.0,
			"0.014": 0.0,
			"0.015": 0.0,
			"0.016": 0.0,
			"0.017": 0.0,
			"0.018": 0.0,
			"0.019": 0.0,
			"0.02": 0.0,
			"0.021": 0.0,
			"0.022": 0.0,
			"0.023": 0.0,
			"0.024": 0.0,
			"0.025": 0.0
		}
	}
}
