{
	 "smiles": "CC(C)S(=O)(=O)C(C)C(O)=O", 
	 "Tm": 370.15, 
	 "num_atms": 23, 
	 "gaussian": { 
		 "optdone": 1, 
		 "sigma_profile": "yes", 
		 "theory": "DFT", 
		 "functional": "B3LYP", 
		 "basiset": "6-31G**", 
		 "properties": { 
			 "R2extent": 3747.7665, 
			 "electric_dipole_moment_norm": 6.84909876699, 
			 "electric_quadrupole_moment_norm": 19.7322993437, 
			 "total_energy": -934.917280777, 
			 "HOMO_LUMO_gap": 0.26804, 
			 "cosmo_polarized_energy": -18.35, 
			 "cosmo_cavitation_energy": 26.47, 
			 "cosmo_dispersion_energy": -19.31, 
			 "cosmo_repulsion_energy": 1.49, 
			 "cosmo_total_nonelectrostatic_energy": 8.65, 
			 "SMD_solvation_energy": 5.38 
		},
		"coords": [
			{
				"x": 0.3249183667,
				"y": 2.0826021057,
				"z": -1.1017319355,
				"element": "C" 
			},
			{
				"x": -0.639638214,
				"y": 1.5047629765,
				"z": -0.0663054431,
				"element": "C" 
			},
			{
				"x": -2.0141372728,
				"y": 2.1853277711,
				"z": -0.0780222963,
				"element": "C" 
			},
			{
				"x": 0.0206732264,
				"y": 1.6784758922,
				"z": 1.6458395781,
				"element": "S" 
			},
			{
				"x": -0.9392814357,
				"y": 1.0657858187,
				"z": 2.5768180884,
				"element": "O" 
			},
			{
				"x": 0.403363414,
				"y": 3.1119240989,
				"z": 1.8174271607,
				"element": "O" 
			},
			{
				"x": 1.6047426492,
				"y": 0.7370433603,
				"z": 1.7203265564,
				"element": "C" 
			},
			{
				"x": 1.3758875104,
				"y": -0.763846689,
				"z": 1.5741226364,
				"element": "C" 
			},
			{
				"x": 2.4018013131,
				"y": 1.0742448476,
				"z": 3.0162586183,
				"element": "C" 
			},
			{
				"x": 2.4062970892,
				"y": 2.344480447,
				"z": 3.4213085156,
				"element": "O" 
			},
			{
				"x": 3.0408669456,
				"y": 0.2145411671,
				"z": 3.5710022569,
				"element": "O" 
			},
			{
				"x": 0.5282411838,
				"y": 3.1362218308,
				"z": -0.89384013,
				"element": "H" 
			},
			{
				"x": 1.275260734,
				"y": 1.5426243471,
				"z": -1.1413608406,
				"element": "H" 
			},
			{
				"x": -0.1334953853,
				"y": 2.0093309305,
				"z": -2.09276498,
				"element": "H" 
			},
			{
				"x": -0.7598045809,
				"y": 0.424002206,
				"z": -0.194886432,
				"element": "H" 
			},
			{
				"x": -2.4711747762,
				"y": 2.0376307689,
				"z": -1.0609007921,
				"element": "H" 
			},
			{
				"x": -2.673885158,
				"y": 1.7617242193,
				"z": 0.6815797517,
				"element": "H" 
			},
			{
				"x": -1.9152977944,
				"y": 3.2596292904,
				"z": 0.1001523149,
				"element": "H" 
			},
			{
				"x": 2.1940301183,
				"y": 1.1408139375,
				"z": 0.8883986993,
				"element": "H" 
			},
			{
				"x": 0.6803709885,
				"y": -1.1184427082,
				"z": 2.3377603153,
				"element": "H" 
			},
			{
				"x": 0.9819520071,
				"y": -1.0183655228,
				"z": 0.5864114409,
				"element": "H" 
			},
			{
				"x": 2.3281859492,
				"y": -1.2759978864,
				"z": 1.7174630395,
				"element": "H" 
			},
			{
				"x": 1.7712231219,
				"y": 2.8883867909,
				"z": 2.8974438774,
				"element": "H" 
			}
		],
		 "valence_orbital": [ 
			{
				"type": "occ",
				"energy": -0.33265,
				"method": "rhf"
			},
			{
				"type": "occ",
				"energy": -0.32194,
				"method": "rhf"
			},
			{
				"type": "occ",
				"energy": -0.31409,
				"method": "rhf"
			},
			{
				"type": "occ",
				"energy": -0.30165,
				"method": "rhf"
			},
			{
				"type": "occ",
				"energy": -0.27923,
				"method": "rhf"
			},
			{
				"type": "unocc",
				"energy": -0.01119,
				"method": "rhf"
			},
			{
				"type": "unocc",
				"energy": 0.03717,
				"method": "rhf"
			},
			{
				"type": "unocc",
				"energy": 0.03936,
				"method": "rhf"
			},
			{
				"type": "unocc",
				"energy": 0.06096,
				"method": "rhf"
			},
			{
				"type": "unocc",
				"energy": 0.06449,
				"method": "rhf"
			}
		],
		"cosmo_sigma_profile": { 
			"-0.025": 0.0,
			"-0.024": 0.0,
			"-0.023": 0.0,
			"-0.022": 0.0,
			"-0.021": 0.0,
			"-0.02": 0.0,
			"-0.019": 0.0,
			"-0.018": 0.0,
			"-0.017": 0.0,
			"-0.016": 0.0,
			"-0.015": 0.0,
			"-0.014": 0.0,
			"-0.013": 0.0,
			"-0.012": 0.0996948715025,
			"-0.011": 2.10349378854,
			"-0.01": 3.60638405091,
			"-0.009": 5.21905781757,
			"-0.008": 6.34747670458,
			"-0.007": 5.8442165915,
			"-0.006": 9.226552407,
			"-0.005": 14.4341495041,
			"-0.004": 18.0862753307,
			"-0.003": 19.9385879767,
			"-0.002": 21.3130101186,
			"-0.001": 20.0906422155,
			"0.0": 8.09046824223,
			"0.001": 4.7839384244,
			"0.002": 5.26601227401,
			"0.003": 4.97730599946,
			"0.004": 4.66247827814,
			"0.005": 4.76159585307,
			"0.006": 4.57452623986,
			"0.007": 5.0056056277,
			"0.008": 6.6700575543,
			"0.009": 7.36905824306,
			"0.01": 11.3760540579,
			"0.011": 10.4921301776,
			"0.012": 2.87173350673,
			"0.013": 0.194386156344,
			"0.014": 0.0,
			"0.015": 0.0,
			"0.016": 0.0,
			"0.017": 0.0,
			"0.018": 0.0,
			"0.019": 0.0,
			"0.02": 0.0,
			"0.021": 0.0,
			"0.022": 0.0,
			"0.023": 0.0,
			"0.024": 0.0,
			"0.025": 0.0
		}
	}
}
