{
	 "smiles": "OC(=O)CCCOC1=CC=C(Cl)C=C1", 
	 "Tm": 388.15, 
	 "num_atms": 25, 
	 "gaussian": { 
		 "optdone": 1, 
		 "sigma_profile": "yes", 
		 "theory": "DFT", 
		 "functional": "B3LYP", 
		 "basiset": "6-31G**", 
		 "properties": { 
			 "R2extent": 5766.3419, 
			 "electric_dipole_moment_norm": 3.66028078021, 
			 "electric_quadrupole_moment_norm": 10.4564331175, 
			 "total_energy": -1073.56846885, 
			 "HOMO_LUMO_gap": 0.20522, 
			 "cosmo_polarized_energy": -12.87, 
			 "cosmo_cavitation_energy": 31.17, 
			 "cosmo_dispersion_energy": -22.74, 
			 "cosmo_repulsion_energy": 1.82, 
			 "cosmo_total_nonelectrostatic_energy": 10.24, 
			 "SMD_solvation_energy": 6.21 
		},
		"coords": [
			{
				"x": 0.2858732032,
				"y": -2.7689367833,
				"z": -4.5889226536,
				"element": "O" 
			},
			{
				"x": 0.7820343777,
				"y": -2.0162561244,
				"z": -3.5789697691,
				"element": "C" 
			},
			{
				"x": 1.9618871147,
				"y": -1.9934216042,
				"z": -3.3017683398,
				"element": "O" 
			},
			{
				"x": -0.3143381654,
				"y": -1.2329716873,
				"z": -2.885619343,
				"element": "C" 
			},
			{
				"x": 0.1795575571,
				"y": -0.379507888,
				"z": -1.7135494941,
				"element": "C" 
			},
			{
				"x": 0.6499535065,
				"y": -1.2148847496,
				"z": -0.5190099347,
				"element": "C" 
			},
			{
				"x": 1.0790575698,
				"y": -0.397880587,
				"z": 0.5712440374,
				"element": "O" 
			},
			{
				"x": 0.1627864303,
				"y": 0.1537179184,
				"z": 1.4180257979,
				"element": "C" 
			},
			{
				"x": -1.2216823881,
				"y": -0.0533514418,
				"z": 1.3636933203,
				"element": "C" 
			},
			{
				"x": -2.057425173,
				"y": 0.5533988429,
				"z": 2.3058082195,
				"element": "C" 
			},
			{
				"x": -1.5142370758,
				"y": 1.3652310656,
				"z": 3.2954914933,
				"element": "C" 
			},
			{
				"x": -2.5714293994,
				"y": 2.1302636428,
				"z": 4.4773835562,
				"element": "Cl" 
			},
			{
				"x": -0.1354644633,
				"y": 1.5812376222,
				"z": 3.3584260422,
				"element": "C" 
			},
			{
				"x": 0.695155897,
				"y": 0.9774033701,
				"z": 2.4226632647,
				"element": "C" 
			},
			{
				"x": 1.0454643013,
				"y": -3.2292697705,
				"z": -4.9841549386,
				"element": "H" 
			},
			{
				"x": -1.0886134475,
				"y": -1.9455399877,
				"z": -2.5728275714,
				"element": "H" 
			},
			{
				"x": -0.7915674164,
				"y": -0.6046556041,
				"z": -3.6471121825,
				"element": "H" 
			},
			{
				"x": 1.0112676973,
				"y": 0.2518170692,
				"z": -2.0408371551,
				"element": "H" 
			},
			{
				"x": -0.6296837932,
				"y": 0.2877328353,
				"z": -1.3996098106,
				"element": "H" 
			},
			{
				"x": -0.128606778,
				"y": -1.9169635923,
				"z": -0.1896753627,
				"element": "H" 
			},
			{
				"x": 1.5309569544,
				"y": -1.7947092662,
				"z": -0.7984473196,
				"element": "H" 
			},
			{
				"x": -1.6670868724,
				"y": -0.6797767871,
				"z": 0.6004067712,
				"element": "H" 
			},
			{
				"x": -3.1291197645,
				"y": 0.392385992,
				"z": 2.2629187017,
				"element": "H" 
			},
			{
				"x": 0.2810304215,
				"y": 2.2152943063,
				"z": 4.1334130235,
				"element": "H" 
			},
			{
				"x": 1.7692297063,
				"y": 1.1272432087,
				"z": 2.4522296472,
				"element": "H" 
			}
		],
		 "valence_orbital": [ 
			{
				"type": "occ",
				"energy": -0.30685,
				"method": "rhf"
			},
			{
				"type": "occ",
				"energy": -0.30043,
				"method": "rhf"
			},
			{
				"type": "occ",
				"energy": -0.28647,
				"method": "rhf"
			},
			{
				"type": "occ",
				"energy": -0.26168,
				"method": "rhf"
			},
			{
				"type": "occ",
				"energy": -0.2179,
				"method": "rhf"
			},
			{
				"type": "unocc",
				"energy": -0.01268,
				"method": "rhf"
			},
			{
				"type": "unocc",
				"energy": -0.0027,
				"method": "rhf"
			},
			{
				"type": "unocc",
				"energy": 0.00329,
				"method": "rhf"
			},
			{
				"type": "unocc",
				"energy": 0.03422,
				"method": "rhf"
			},
			{
				"type": "unocc",
				"energy": 0.06782,
				"method": "rhf"
			}
		],
		"cosmo_sigma_profile": { 
			"-0.025": 0.0,
			"-0.024": 0.0,
			"-0.023": 0.0,
			"-0.022": 0.0,
			"-0.021": 0.0,
			"-0.02": 0.0,
			"-0.019": 0.00500820450906,
			"-0.018": 0.71006126293,
			"-0.017": 0.696189604281,
			"-0.016": 0.976230828748,
			"-0.015": 1.15416097001,
			"-0.014": 0.503796266965,
			"-0.013": 0.785183166182,
			"-0.012": 0.341919153501,
			"-0.011": 0.680076038266,
			"-0.01": 1.02769673177,
			"-0.009": 0.403870875263,
			"-0.008": 1.98859064072,
			"-0.007": 8.90305032755,
			"-0.006": 17.5456152368,
			"-0.005": 15.4553458905,
			"-0.004": 17.566777451,
			"-0.003": 17.8052537012,
			"-0.002": 14.9261631586,
			"-0.001": 15.348764246,
			"0.0": 12.1662123822,
			"0.001": 14.2128698106,
			"0.002": 18.3320765055,
			"0.003": 21.7150886145,
			"0.004": 22.5770084295,
			"0.005": 15.8556356392,
			"0.006": 5.14064841605,
			"0.007": 3.89167658328,
			"0.008": 3.9117007221,
			"0.009": 4.36747997636,
			"0.01": 3.65276402752,
			"0.011": 3.5298123038,
			"0.012": 3.12762208601,
			"0.013": 0.039741548769,
			"0.014": 0.0,
			"0.015": 0.0,
			"0.016": 0.0,
			"0.017": 0.0,
			"0.018": 0.0,
			"0.019": 0.0,
			"0.02": 0.0,
			"0.021": 0.0,
			"0.022": 0.0,
			"0.023": 0.0,
			"0.024": 0.0,
			"0.025": 0.0
		}
	}
}
