{
	 "smiles": "CC1(C)CC2=C(C=C(N2CCC2=CC=CC=C2)C2=CC=CC=C2)C(=O)C1", 
	 "Tm": 387.15, 
	 "num_atms": 51, 
	 "gaussian": { 
		 "optdone": 1, 
		 "sigma_profile": "yes", 
		 "theory": "DFT", 
		 "functional": "B3LYP", 
		 "basiset": "6-31G**", 
		 "properties": { 
			 "R2extent": 9999.3419, 
			 "electric_dipole_moment_norm": 5.51006271289, 
			 "electric_quadrupole_moment_norm": 26.2900107758, 
			 "total_energy": -1059.62355774, 
			 "HOMO_LUMO_gap": 0.18396, 
			 "cosmo_polarized_energy": -17.31, 
			 "cosmo_cavitation_energy": 51.83, 
			 "cosmo_dispersion_energy": -32.63, 
			 "cosmo_repulsion_energy": 2.46, 
			 "cosmo_total_nonelectrostatic_energy": 21.66, 
			 "SMD_solvation_energy": 7.96 
		},
		"coords": [
			{
				"x": -2.9145598012,
				"y": -2.5597196145,
				"z": -0.1718709681,
				"element": "C" 
			},
			{
				"x": -1.8241033882,
				"y": -3.6413604775,
				"z": -0.0306587249,
				"element": "C" 
			},
			{
				"x": -2.3209750646,
				"y": -4.7260938698,
				"z": 0.9405107819,
				"element": "C" 
			},
			{
				"x": -0.5176336096,
				"y": -3.0155241051,
				"z": 0.5381105368,
				"element": "C" 
			},
			{
				"x": 0.1888641541,
				"y": -2.2034628148,
				"z": -0.5043663094,
				"element": "C" 
			},
			{
				"x": 0.0334651385,
				"y": -2.3617062972,
				"z": -1.8759369081,
				"element": "C" 
			},
			{
				"x": 0.9122225186,
				"y": -1.4420786244,
				"z": -2.5181463957,
				"element": "C" 
			},
			{
				"x": 1.593742059,
				"y": -0.7617337122,
				"z": -1.5342846659,
				"element": "C" 
			},
			{
				"x": 1.1375699548,
				"y": -1.2352359989,
				"z": -0.2888931294,
				"element": "N" 
			},
			{
				"x": 1.4290306944,
				"y": -0.6441210316,
				"z": 1.016623192,
				"element": "C" 
			},
			{
				"x": 0.3476764096,
				"y": 0.3357518724,
				"z": 1.5317456566,
				"element": "C" 
			},
			{
				"x": 0.1836617686,
				"y": 1.595591207,
				"z": 0.7090142089,
				"element": "C" 
			},
			{
				"x": 0.9929069809,
				"y": 2.7147208858,
				"z": 0.9486077626,
				"element": "C" 
			},
			{
				"x": 0.8535069923,
				"y": 3.8756402354,
				"z": 0.1881874059,
				"element": "C" 
			},
			{
				"x": -0.1037547328,
				"y": 3.9366237388,
				"z": -0.8264897666,
				"element": "C" 
			},
			{
				"x": -0.9175486922,
				"y": 2.8298066248,
				"z": -1.0741478769,
				"element": "C" 
			},
			{
				"x": -0.7740698872,
				"y": 1.6698248346,
				"z": -0.3109238511,
				"element": "C" 
			},
			{
				"x": 2.6782517536,
				"y": 0.2237915865,
				"z": -1.6974817309,
				"element": "C" 
			},
			{
				"x": 2.4963262998,
				"y": 1.3247444183,
				"z": -2.5507870986,
				"element": "C" 
			},
			{
				"x": 3.5310286705,
				"y": 2.2320981697,
				"z": -2.7745283356,
				"element": "C" 
			},
			{
				"x": 4.7645988293,
				"y": 2.0642365785,
				"z": -2.1425318158,
				"element": "C" 
			},
			{
				"x": 4.9604894143,
				"y": 0.9732127443,
				"z": -1.2933034192,
				"element": "C" 
			},
			{
				"x": 3.9312917733,
				"y": 0.056956985,
				"z": -1.0795048327,
				"element": "C" 
			},
			{
				"x": -0.8754200869,
				"y": -3.3535325797,
				"z": -2.4425041168,
				"element": "C" 
			},
			{
				"x": -1.0827307589,
				"y": -3.4832283232,
				"z": -3.6428561001,
				"element": "O" 
			},
			{
				"x": -1.5320349709,
				"y": -4.28073357,
				"z": -1.4122435303,
				"element": "C" 
			},
			{
				"x": -3.1553832348,
				"y": -2.1185473008,
				"z": 0.8023157411,
				"element": "H" 
			},
			{
				"x": -2.6033822919,
				"y": -1.753594564,
				"z": -0.8425858765,
				"element": "H" 
			},
			{
				"x": -3.8352057197,
				"y": -2.9927761907,
				"z": -0.5772262817,
				"element": "H" 
			},
			{
				"x": -1.580782769,
				"y": -5.5252229905,
				"z": 1.0600615922,
				"element": "H" 
			},
			{
				"x": -3.248364511,
				"y": -5.180762026,
				"z": 0.5761165965,
				"element": "H" 
			},
			{
				"x": -2.5244466255,
				"y": -4.3044847981,
				"z": 1.9319745196,
				"element": "H" 
			},
			{
				"x": 0.1444205521,
				"y": -3.8262122241,
				"z": 0.8813531024,
				"element": "H" 
			},
			{
				"x": -0.7582551712,
				"y": -2.4258411074,
				"z": 1.4308317174,
				"element": "H" 
			},
			{
				"x": 1.0653167194,
				"y": -1.3415139775,
				"z": -3.5825814761,
				"element": "H" 
			},
			{
				"x": 1.5518226045,
				"y": -1.4575424349,
				"z": 1.7394490234,
				"element": "H" 
			},
			{
				"x": 2.3848938425,
				"y": -0.1248705585,
				"z": 0.944922317,
				"element": "H" 
			},
			{
				"x": 0.6296478435,
				"y": 0.6003618252,
				"z": 2.55853336,
				"element": "H" 
			},
			{
				"x": -0.6106773452,
				"y": -0.1898907112,
				"z": 1.5966278112,
				"element": "H" 
			},
			{
				"x": 1.7366159395,
				"y": 2.6779121186,
				"z": 1.7416163752,
				"element": "H" 
			},
			{
				"x": 1.4882557644,
				"y": 4.7335205624,
				"z": 0.3912928305,
				"element": "H" 
			},
			{
				"x": -0.217875659,
				"y": 4.8417489615,
				"z": -1.4161412725,
				"element": "H" 
			},
			{
				"x": -1.6685464275,
				"y": 2.8692479518,
				"z": -1.858197199,
				"element": "H" 
			},
			{
				"x": -1.4133307731,
				"y": 0.8131647472,
				"z": -0.5078543295,
				"element": "H" 
			},
			{
				"x": 1.5293968102,
				"y": 1.469979736,
				"z": -3.0212328437,
				"element": "H" 
			},
			{
				"x": 3.3694546481,
				"y": 3.0780176897,
				"z": -3.4367044566,
				"element": "H" 
			},
			{
				"x": 5.568256067,
				"y": 2.7747251689,
				"z": -2.3133326743,
				"element": "H" 
			},
			{
				"x": 5.9221476969,
				"y": 0.8244023887,
				"z": -0.8100313025,
				"element": "H" 
			},
			{
				"x": 4.1085737016,
				"y": -0.8141700678,
				"z": -0.4547615174,
				"element": "H" 
			},
			{
				"x": -0.8475554081,
				"y": -5.1317648433,
				"z": -1.2755130794,
				"element": "H" 
			},
			{
				"x": -2.446798673,
				"y": -4.6836562169,
				"z": -1.858572646,
				"element": "H" 
			}
		],
		 "valence_orbital": [ 
			{
				"type": "occ",
				"energy": -0.25016,
				"method": "rhf"
			},
			{
				"type": "occ",
				"energy": -0.24625,
				"method": "rhf"
			},
			{
				"type": "occ",
				"energy": -0.23527,
				"method": "rhf"
			},
			{
				"type": "occ",
				"energy": -0.22166,
				"method": "rhf"
			},
			{
				"type": "occ",
				"energy": -0.20141,
				"method": "rhf"
			},
			{
				"type": "unocc",
				"energy": -0.01745,
				"method": "rhf"
			},
			{
				"type": "unocc",
				"energy": -0.01445,
				"method": "rhf"
			},
			{
				"type": "unocc",
				"energy": -0.00446,
				"method": "rhf"
			},
			{
				"type": "unocc",
				"energy": -0.00246,
				"method": "rhf"
			},
			{
				"type": "unocc",
				"energy": -0.00144,
				"method": "rhf"
			}
		],
		"cosmo_sigma_profile": { 
			"-0.025": 0.0,
			"-0.024": 0.0,
			"-0.023": 0.0,
			"-0.022": 0.0,
			"-0.021": 0.0,
			"-0.02": 0.0,
			"-0.019": 0.0,
			"-0.018": 0.0,
			"-0.017": 0.0,
			"-0.016": 0.0,
			"-0.015": 0.0,
			"-0.014": 0.0,
			"-0.013": 0.0,
			"-0.012": 0.0,
			"-0.011": 0.0,
			"-0.01": 0.0,
			"-0.009": 0.0,
			"-0.008": 0.0,
			"-0.007": 0.00771565210353,
			"-0.006": 11.2655611076,
			"-0.005": 36.0090055,
			"-0.004": 45.8529790789,
			"-0.003": 52.2831812569,
			"-0.002": 38.5222669626,
			"-0.001": 35.1805363026,
			"0.0": 29.6868041807,
			"0.001": 29.660142173,
			"0.002": 23.6846900411,
			"0.003": 20.6234522088,
			"0.004": 23.102457709,
			"0.005": 26.9372749792,
			"0.006": 14.4829255361,
			"0.007": 2.44039948896,
			"0.008": 1.68944161796,
			"0.009": 1.7204182069,
			"0.01": 1.56153140056,
			"0.011": 2.16593329045,
			"0.012": 2.52421622074,
			"0.013": 4.21238565954,
			"0.014": 4.28821140763,
			"0.015": 1.08097153073,
			"0.016": 0.0,
			"0.017": 0.0,
			"0.018": 0.0,
			"0.019": 0.0,
			"0.02": 0.0,
			"0.021": 0.0,
			"0.022": 0.0,
			"0.023": 0.0,
			"0.024": 0.0,
			"0.025": 0.0
		}
	}
}
