{
	 "smiles": "NC(=O)C1=C(N)N=C(NC2=CC=CC=C2)S1", 
	 "Tm": 478.15, 
	 "num_atms": 26, 
	 "gaussian": { 
		 "optdone": 1, 
		 "sigma_profile": "yes", 
		 "theory": "DFT", 
		 "functional": "B3LYP", 
		 "basiset": "6-31G**", 
		 "properties": { 
			 "R2extent": 5366.384, 
			 "electric_dipole_moment_norm": 3.76803638119, 
			 "electric_quadrupole_moment_norm": 13.0453216978, 
			 "total_energy": -1079.5373357, 
			 "HOMO_LUMO_gap": 0.15422, 
			 "cosmo_polarized_energy": -17.57, 
			 "cosmo_cavitation_energy": 31.85, 
			 "cosmo_dispersion_energy": -24.51, 
			 "cosmo_repulsion_energy": 1.87, 
			 "cosmo_total_nonelectrostatic_energy": 9.21, 
			 "SMD_solvation_energy": 4.02 
		},
		"coords": [
			{
				"x": -0.2550017961,
				"y": -3.2808510202,
				"z": 3.534169212,
				"element": "N" 
			},
			{
				"x": -1.4388048377,
				"y": -2.7706139238,
				"z": 3.035372066,
				"element": "C" 
			},
			{
				"x": -2.5248007738,
				"y": -3.0955815519,
				"z": 3.5431832264,
				"element": "O" 
			},
			{
				"x": -1.36519255,
				"y": -1.8223864845,
				"z": 1.9431826918,
				"element": "C" 
			},
			{
				"x": -2.4705988543,
				"y": -1.2133148859,
				"z": 1.3494478515,
				"element": "C" 
			},
			{
				"x": -3.7601909339,
				"y": -1.5080942128,
				"z": 1.6470423809,
				"element": "N" 
			},
			{
				"x": -2.2063071935,
				"y": -0.2716005298,
				"z": 0.3870770572,
				"element": "N" 
			},
			{
				"x": -0.9141527086,
				"y": -0.1318165209,
				"z": 0.2108155532,
				"element": "C" 
			},
			{
				"x": -0.4488425861,
				"y": 0.7168771581,
				"z": -0.7536894145,
				"element": "N" 
			},
			{
				"x": 0.8562886477,
				"y": 1.0930722798,
				"z": -1.1149795133,
				"element": "C" 
			},
			{
				"x": 1.9377865142,
				"y": 1.0660215538,
				"z": -0.2222858313,
				"element": "C" 
			},
			{
				"x": 3.2033580654,
				"y": 1.4640220516,
				"z": -0.6551069243,
				"element": "C" 
			},
			{
				"x": 3.4084325109,
				"y": 1.9109545382,
				"z": -1.9600134234,
				"element": "C" 
			},
			{
				"x": 2.3250561505,
				"y": 1.9595487746,
				"z": -2.8411320979,
				"element": "C" 
			},
			{
				"x": 1.0612363905,
				"y": 1.5504709485,
				"z": -2.4278314571,
				"element": "C" 
			},
			{
				"x": 0.1072869342,
				"y": -1.1502870881,
				"z": 1.2227277687,
				"element": "S" 
			},
			{
				"x": -0.3773307928,
				"y": -4.0500008141,
				"z": 4.1776622706,
				"element": "H" 
			},
			{
				"x": 0.5592220777,
				"y": -3.3313176017,
				"z": 2.9395605044,
				"element": "H" 
			},
			{
				"x": -3.8868016689,
				"y": -2.0743475723,
				"z": 2.480291608,
				"element": "H" 
			},
			{
				"x": -4.4648699389,
				"y": -0.8492596487,
				"z": 1.3571433288,
				"element": "H" 
			},
			{
				"x": -1.1995573811,
				"y": 1.0682846139,
				"z": -1.3342419189,
				"element": "H" 
			},
			{
				"x": 1.7925275933,
				"y": 0.7702639563,
				"z": 0.8095790992,
				"element": "H" 
			},
			{
				"x": 4.0314607952,
				"y": 1.4363069934,
				"z": 0.0471265226,
				"element": "H" 
			},
			{
				"x": 4.3957859511,
				"y": 2.2223694187,
				"z": -2.2858056388,
				"element": "H" 
			},
			{
				"x": 2.4641987377,
				"y": 2.3095629433,
				"z": -3.85979535,
				"element": "H" 
			},
			{
				"x": 0.2253116472,
				"y": 1.5730166247,
				"z": -3.1224995719,
				"element": "H" 
			}
		],
		 "valence_orbital": [ 
			{
				"type": "occ",
				"energy": -0.26323,
				"method": "rhf"
			},
			{
				"type": "occ",
				"energy": -0.26203,
				"method": "rhf"
			},
			{
				"type": "occ",
				"energy": -0.24551,
				"method": "rhf"
			},
			{
				"type": "occ",
				"energy": -0.22899,
				"method": "rhf"
			},
			{
				"type": "occ",
				"energy": -0.18907,
				"method": "rhf"
			},
			{
				"type": "unocc",
				"energy": -0.03485,
				"method": "rhf"
			},
			{
				"type": "unocc",
				"energy": -0.01646,
				"method": "rhf"
			},
			{
				"type": "unocc",
				"energy": 0.00542,
				"method": "rhf"
			},
			{
				"type": "unocc",
				"energy": 0.01304,
				"method": "rhf"
			},
			{
				"type": "unocc",
				"energy": 0.04644,
				"method": "rhf"
			}
		],
		"cosmo_sigma_profile": { 
			"-0.025": 0.0,
			"-0.024": 0.0,
			"-0.023": 0.0,
			"-0.022": 0.0,
			"-0.021": 0.0,
			"-0.02": 0.0,
			"-0.019": 0.0,
			"-0.018": 0.0,
			"-0.017": 0.0,
			"-0.016": 0.138411378474,
			"-0.015": 0.827757383734,
			"-0.014": 1.54416142192,
			"-0.013": 4.4509876756,
			"-0.012": 3.89015092936,
			"-0.011": 3.84512106262,
			"-0.01": 5.44215727076,
			"-0.009": 4.3754330108,
			"-0.008": 5.22092552235,
			"-0.007": 5.67434171775,
			"-0.006": 10.951332848,
			"-0.005": 12.9452367556,
			"-0.004": 14.0967834587,
			"-0.003": 13.626506147,
			"-0.002": 11.1207510615,
			"-0.001": 12.3486698885,
			"0.0": 17.5685434178,
			"0.001": 17.321583072,
			"0.002": 19.0812176876,
			"0.003": 20.4091288598,
			"0.004": 19.9414777167,
			"0.005": 15.6032694978,
			"0.006": 7.423116583,
			"0.007": 4.95826337114,
			"0.008": 3.8438809273,
			"0.009": 4.08806414487,
			"0.01": 3.36271800956,
			"0.011": 2.26864395756,
			"0.012": 3.22845914113,
			"0.013": 2.56951295058,
			"0.014": 2.78611069885,
			"0.015": 1.45979380971,
			"0.016": 0.0121464569823,
			"0.017": 0.0,
			"0.018": 0.0,
			"0.019": 0.0,
			"0.02": 0.0,
			"0.021": 0.0,
			"0.022": 0.0,
			"0.023": 0.0,
			"0.024": 0.0,
			"0.025": 0.0
		}
	}
}
