{
	 "smiles": "NC1=CC=NN1CC1=CC=C(Br)S1", 
	 "Tm": 357.15, 
	 "num_atms": 21, 
	 "gaussian": { 
		 "optdone": 1, 
		 "sigma_profile": "yes", 
		 "theory": "DFT", 
		 "functional": "B3LYP", 
		 "basiset": "6-31G**", 
		 "properties": { 
			 "R2extent": 5011.93, 
			 "electric_dipole_moment_norm": 3.57833424235, 
			 "electric_quadrupole_moment_norm": 9.04704119036, 
			 "total_energy": -3443.47112377, 
			 "HOMO_LUMO_gap": 0.17588, 
			 "cosmo_polarized_energy": -12.91, 
			 "cosmo_cavitation_energy": 29.34, 
			 "cosmo_dispersion_energy": -21.79, 
			 "cosmo_repulsion_energy": 1.69, 
			 "cosmo_total_nonelectrostatic_energy": 9.25, 
			 "SMD_solvation_energy": 2.6 
		},
		"coords": [
			{
				"x": -0.3108326932,
				"y": -2.1814866928,
				"z": 2.015965309,
				"element": "N" 
			},
			{
				"x": -1.6327421051,
				"y": -1.9022547623,
				"z": 1.6532697343,
				"element": "C" 
			},
			{
				"x": -2.7643953931,
				"y": -1.5789738171,
				"z": 2.3869522724,
				"element": "C" 
			},
			{
				"x": -3.7928652063,
				"y": -1.4880559536,
				"z": 1.4221395534,
				"element": "C" 
			},
			{
				"x": -3.3576539653,
				"y": -1.7257455849,
				"z": 0.1888201723,
				"element": "N" 
			},
			{
				"x": -2.0304289038,
				"y": -2.0018630253,
				"z": 0.3514751921,
				"element": "N" 
			},
			{
				"x": -1.2018251813,
				"y": -2.2979558818,
				"z": -0.8030922341,
				"element": "C" 
			},
			{
				"x": -0.3085372576,
				"y": -1.1604653874,
				"z": -1.2246156671,
				"element": "C" 
			},
			{
				"x": 1.0600579709,
				"y": -1.1587458295,
				"z": -1.3116238891,
				"element": "C" 
			},
			{
				"x": 1.6088728589,
				"y": 0.079231081,
				"z": -1.7678853279,
				"element": "C" 
			},
			{
				"x": 0.6320781266,
				"y": 1.001158938,
				"z": -2.0161775631,
				"element": "C" 
			},
			{
				"x": 0.8780025348,
				"y": 2.7723169439,
				"z": -2.6151924905,
				"element": "Br" 
			},
			{
				"x": -0.9674213341,
				"y": 0.3882213396,
				"z": -1.7043291965,
				"element": "S" 
			},
			{
				"x": 0.3655447692,
				"y": -1.6146953833,
				"z": 1.5121543504,
				"element": "H" 
			},
			{
				"x": -0.1670196447,
				"y": -2.0788775394,
				"z": 3.0127300241,
				"element": "H" 
			},
			{
				"x": -2.8275539718,
				"y": -1.4229094587,
				"z": 3.4537333886,
				"element": "H" 
			},
			{
				"x": -4.8369723064,
				"y": -1.2515595735,
				"z": 1.5812367949,
				"element": "H" 
			},
			{
				"x": -1.8970367473,
				"y": -2.5807916988,
				"z": -1.5976330919,
				"element": "H" 
			},
			{
				"x": -0.569440961,
				"y": -3.1628184001,
				"z": -0.5739322408,
				"element": "H" 
			},
			{
				"x": 1.6634359251,
				"y": -2.0281429665,
				"z": -1.070043339,
				"element": "H" 
			},
			{
				"x": 2.6653334854,
				"y": 0.2750136524,
				"z": -1.9006517516,
				"element": "H" 
			}
		],
		 "valence_orbital": [ 
			{
				"type": "occ",
				"energy": -0.27818,
				"method": "rhf"
			},
			{
				"type": "occ",
				"energy": -0.26737,
				"method": "rhf"
			},
			{
				"type": "occ",
				"energy": -0.24472,
				"method": "rhf"
			},
			{
				"type": "occ",
				"energy": -0.23255,
				"method": "rhf"
			},
			{
				"type": "occ",
				"energy": -0.20865,
				"method": "rhf"
			},
			{
				"type": "unocc",
				"energy": -0.03277,
				"method": "rhf"
			},
			{
				"type": "unocc",
				"energy": -0.00668,
				"method": "rhf"
			},
			{
				"type": "unocc",
				"energy": 0.01896,
				"method": "rhf"
			},
			{
				"type": "unocc",
				"energy": 0.03405,
				"method": "rhf"
			},
			{
				"type": "unocc",
				"energy": 0.04537,
				"method": "rhf"
			}
		],
		"cosmo_sigma_profile": { 
			"-0.025": 0.0,
			"-0.024": 0.0,
			"-0.023": 0.0,
			"-0.022": 0.0,
			"-0.021": 0.0,
			"-0.02": 0.0,
			"-0.019": 0.0,
			"-0.018": 0.0,
			"-0.017": 0.0,
			"-0.016": 0.0,
			"-0.015": 0.0,
			"-0.014": 0.0720773072623,
			"-0.013": 0.991441950721,
			"-0.012": 1.59142567867,
			"-0.011": 1.72847636648,
			"-0.01": 2.40890784478,
			"-0.009": 2.40985883056,
			"-0.008": 5.93825406641,
			"-0.007": 10.414919859,
			"-0.006": 13.7648649812,
			"-0.005": 15.2705223063,
			"-0.004": 12.8242559592,
			"-0.003": 10.9054539812,
			"-0.002": 10.5399491525,
			"-0.001": 14.6836088063,
			"0.0": 14.7092353665,
			"0.001": 19.2326774551,
			"0.002": 24.3898942788,
			"0.003": 27.1869063646,
			"0.004": 18.0865752485,
			"0.005": 6.84010238093,
			"0.006": 7.32298678793,
			"0.007": 4.24683619394,
			"0.008": 2.4870646614,
			"0.009": 2.44206506068,
			"0.01": 1.75281028421,
			"0.011": 1.604628483,
			"0.012": 2.00687193467,
			"0.013": 1.43467762674,
			"0.014": 1.16675899843,
			"0.015": 0.749867978465,
			"0.016": 1.01475025482,
			"0.017": 0.036670310806,
			"0.018": 0.0,
			"0.019": 0.0,
			"0.02": 0.0,
			"0.021": 0.0,
			"0.022": 0.0,
			"0.023": 0.0,
			"0.024": 0.0,
			"0.025": 0.0
		}
	}
}
