{
	 "smiles": "OC1=C(C=O)C=C(C=C1)[N+]([O-])=O", 
	 "Tm": 400.15, 
	 "num_atms": 17, 
	 "gaussian": { 
		 "optdone": 1, 
		 "sigma_profile": "yes", 
		 "theory": "DFT", 
		 "functional": "B3LYP", 
		 "basiset": "6-31G**", 
		 "properties": { 
			 "R2extent": 2705.5529, 
			 "electric_dipole_moment_norm": 6.91196621881, 
			 "electric_quadrupole_moment_norm": 11.8268858145, 
			 "total_energy": -625.289241899, 
			 "HOMO_LUMO_gap": 0.17495, 
			 "cosmo_polarized_energy": -17.57, 
			 "cosmo_cavitation_energy": 23.09, 
			 "cosmo_dispersion_energy": -16.89, 
			 "cosmo_repulsion_energy": 1.34, 
			 "cosmo_total_nonelectrostatic_energy": 7.53, 
			 "SMD_solvation_energy": 7.81 
		},
		"coords": [
			{
				"x": -1.69580112,
				"y": -0.2861945569,
				"z": 1.090792061,
				"element": "O" 
			},
			{
				"x": -0.6765320485,
				"y": -0.634393711,
				"z": 0.26923528,
				"element": "C" 
			},
			{
				"x": -0.1677899644,
				"y": 0.3531139537,
				"z": -0.6029404453,
				"element": "C" 
			},
			{
				"x": -0.7216788403,
				"y": 1.731489109,
				"z": -0.6296641194,
				"element": "C" 
			},
			{
				"x": -0.3018183002,
				"y": 2.6002487763,
				"z": -1.3712176258,
				"element": "O" 
			},
			{
				"x": 0.8838635693,
				"y": 0.0246288998,
				"z": -1.4628574934,
				"element": "C" 
			},
			{
				"x": 1.4109726264,
				"y": -1.2591218997,
				"z": -1.4485285249,
				"element": "C" 
			},
			{
				"x": 0.9134693169,
				"y": -2.2427331485,
				"z": -0.5884791683,
				"element": "C" 
			},
			{
				"x": -0.1300880865,
				"y": -1.9275524615,
				"z": 0.2690969409,
				"element": "C" 
			},
			{
				"x": 2.5145635171,
				"y": -1.5987433476,
				"z": -2.35293732,
				"element": "N" 
			},
			{
				"x": 2.9336173703,
				"y": -0.715807624,
				"z": -3.099151976,
				"element": "O" 
			},
			{
				"x": 2.9523826666,
				"y": -2.7495650963,
				"z": -2.3076074948,
				"element": "O" 
			},
			{
				"x": -1.9543347273,
				"y": -1.0420502686,
				"z": 1.6350686123,
				"element": "H" 
			},
			{
				"x": -1.5515254576,
				"y": 1.9285709749,
				"z": 0.0732819892,
				"element": "H" 
			},
			{
				"x": 1.2748091862,
				"y": 0.7815767645,
				"z": -2.1323292647,
				"element": "H" 
			},
			{
				"x": 1.3509450977,
				"y": -3.2331745804,
				"z": -0.6064328747,
				"element": "H" 
			},
			{
				"x": -0.5264548059,
				"y": -2.6829917836,
				"z": 0.943071424,
				"element": "H" 
			}
		],
		 "valence_orbital": [ 
			{
				"type": "occ",
				"energy": -0.31115,
				"method": "rhf"
			},
			{
				"type": "occ",
				"energy": -0.29404,
				"method": "rhf"
			},
			{
				"type": "occ",
				"energy": -0.29243,
				"method": "rhf"
			},
			{
				"type": "occ",
				"energy": -0.26964,
				"method": "rhf"
			},
			{
				"type": "occ",
				"energy": -0.26653,
				"method": "rhf"
			},
			{
				"type": "unocc",
				"energy": -0.09158,
				"method": "rhf"
			},
			{
				"type": "unocc",
				"energy": -0.08089,
				"method": "rhf"
			},
			{
				"type": "unocc",
				"energy": -0.0128,
				"method": "rhf"
			},
			{
				"type": "unocc",
				"energy": 0.0281,
				"method": "rhf"
			},
			{
				"type": "unocc",
				"energy": 0.03297,
				"method": "rhf"
			}
		],
		"cosmo_sigma_profile": { 
			"-0.025": 0.0,
			"-0.024": 0.0,
			"-0.023": 0.0,
			"-0.022": 0.0,
			"-0.021": 0.0,
			"-0.02": 0.321772190915,
			"-0.019": 1.60213240532,
			"-0.018": 1.21282813613,
			"-0.017": 1.00250945333,
			"-0.016": 1.34461700723,
			"-0.015": 0.992324449343,
			"-0.014": 0.829303649102,
			"-0.013": 1.29126270919,
			"-0.012": 0.995461524195,
			"-0.011": 0.875724639672,
			"-0.01": 1.4030318999,
			"-0.009": 2.33305500012,
			"-0.008": 3.82426848961,
			"-0.007": 4.70048591846,
			"-0.006": 6.3121213723,
			"-0.005": 7.46845984277,
			"-0.004": 10.6098487718,
			"-0.003": 10.4548599232,
			"-0.002": 16.5881184603,
			"-0.001": 22.586785836,
			"0.0": 13.7980793806,
			"0.001": 7.76995708922,
			"0.002": 5.40212380716,
			"0.003": 4.64545175441,
			"0.004": 6.18192568395,
			"0.005": 6.1524923614,
			"0.006": 6.24901330051,
			"0.007": 10.0481297487,
			"0.008": 10.2210517106,
			"0.009": 6.63193357959,
			"0.01": 5.8836394998,
			"0.011": 4.04236871325,
			"0.012": 1.72208279433,
			"0.013": 0.211244321743,
			"0.014": 0.0,
			"0.015": 0.0,
			"0.016": 0.0,
			"0.017": 0.0,
			"0.018": 0.0,
			"0.019": 0.0,
			"0.02": 0.0,
			"0.021": 0.0,
			"0.022": 0.0,
			"0.023": 0.0,
			"0.024": 0.0,
			"0.025": 0.0
		}
	}
}
