{
	 "smiles": "N#CC1=CC2=C(OCCO2)C=C1", 
	 "Tm": 378.15, 
	 "num_atms": 19, 
	 "gaussian": { 
		 "optdone": 1, 
		 "sigma_profile": "yes", 
		 "theory": "DFT", 
		 "functional": "B3LYP", 
		 "basiset": "6-31G**", 
		 "properties": { 
			 "R2extent": 3079.3182, 
			 "electric_dipole_moment_norm": 6.51953913709, 
			 "electric_quadrupole_moment_norm": 19.639143034, 
			 "total_energy": -552.339429243, 
			 "HOMO_LUMO_gap": 0.19076, 
			 "cosmo_polarized_energy": -11.73, 
			 "cosmo_cavitation_energy": 23.84, 
			 "cosmo_dispersion_energy": -17.66, 
			 "cosmo_repulsion_energy": 1.4, 
			 "cosmo_total_nonelectrostatic_energy": 7.59, 
			 "SMD_solvation_energy": 5.87 
		},
		"coords": [
			{
				"x": 4.6166354137,
				"y": -2.783451105,
				"z": -0.9235610249,
				"element": "N" 
			},
			{
				"x": 3.7840416179,
				"y": -2.2616922279,
				"z": -0.2999459543,
				"element": "C" 
			},
			{
				"x": 2.7603435628,
				"y": -1.6227014944,
				"z": 0.4720137779,
				"element": "C" 
			},
			{
				"x": 2.0050385299,
				"y": -0.5839159882,
				"z": -0.0938391322,
				"element": "C" 
			},
			{
				"x": 1.0110742504,
				"y": 0.0398153696,
				"z": 0.6531291533,
				"element": "C" 
			},
			{
				"x": 0.7728452506,
				"y": -0.3644742377,
				"z": 1.9816119114,
				"element": "C" 
			},
			{
				"x": -0.1782477884,
				"y": 0.2351490064,
				"z": 2.7581055471,
				"element": "O" 
			},
			{
				"x": -0.6620783592,
				"y": 1.479627793,
				"z": 2.2429747518,
				"element": "C" 
			},
			{
				"x": -0.9237128471,
				"y": 1.3625499893,
				"z": 0.7510589195,
				"element": "C" 
			},
			{
				"x": 0.2885369751,
				"y": 1.0448069504,
				"z": 0.0643967379,
				"element": "O" 
			},
			{
				"x": 1.5168641995,
				"y": -1.4096006427,
				"z": 2.5351443894,
				"element": "C" 
			},
			{
				"x": 2.5041926331,
				"y": -2.0417011236,
				"z": 1.7902574043,
				"element": "C" 
			},
			{
				"x": 2.1768273701,
				"y": -0.2572798851,
				"z": -1.1131969875,
				"element": "H" 
			},
			{
				"x": -1.5787466187,
				"y": 1.704659893,
				"z": 2.7930730109,
				"element": "H" 
			},
			{
				"x": 0.0755118294,
				"y": 2.2697565298,
				"z": 2.4351005872,
				"element": "H" 
			},
			{
				"x": -1.675001391,
				"y": 0.5844951537,
				"z": 0.560280649,
				"element": "H" 
			},
			{
				"x": -1.2761869393,
				"y": 2.3088998328,
				"z": 0.3343544413,
				"element": "H" 
			},
			{
				"x": 1.3071999504,
				"y": -1.7033293789,
				"z": 3.5581619029,
				"element": "H" 
			},
			{
				"x": 3.0842623608,
				"y": -2.8495144346,
				"z": 2.2216799151,
				"element": "H" 
			}
		],
		 "valence_orbital": [ 
			{
				"type": "occ",
				"energy": -0.32387,
				"method": "rhf"
			},
			{
				"type": "occ",
				"energy": -0.32299,
				"method": "rhf"
			},
			{
				"type": "occ",
				"energy": -0.31429,
				"method": "rhf"
			},
			{
				"type": "occ",
				"energy": -0.25556,
				"method": "rhf"
			},
			{
				"type": "occ",
				"energy": -0.23027,
				"method": "rhf"
			},
			{
				"type": "unocc",
				"energy": -0.03951,
				"method": "rhf"
			},
			{
				"type": "unocc",
				"energy": -0.01523,
				"method": "rhf"
			},
			{
				"type": "unocc",
				"energy": 0.04278,
				"method": "rhf"
			},
			{
				"type": "unocc",
				"energy": 0.06674,
				"method": "rhf"
			},
			{
				"type": "unocc",
				"energy": 0.08065,
				"method": "rhf"
			}
		],
		"cosmo_sigma_profile": { 
			"-0.025": 0.0,
			"-0.024": 0.0,
			"-0.023": 0.0,
			"-0.022": 0.0,
			"-0.021": 0.0,
			"-0.02": 0.0,
			"-0.019": 0.0,
			"-0.018": 0.0,
			"-0.017": 0.0,
			"-0.016": 0.0,
			"-0.015": 0.0,
			"-0.014": 0.0,
			"-0.013": 0.0,
			"-0.012": 0.0,
			"-0.011": 0.0,
			"-0.01": 0.0,
			"-0.009": 0.129778671476,
			"-0.008": 4.9539249399,
			"-0.007": 15.2098641812,
			"-0.006": 18.4213455059,
			"-0.005": 14.5836569911,
			"-0.004": 11.8134965893,
			"-0.003": 8.73047816131,
			"-0.002": 8.08319943801,
			"-0.001": 11.0822867838,
			"0.0": 13.5868975795,
			"0.001": 14.6600601335,
			"0.002": 16.2224385744,
			"0.003": 10.7152078659,
			"0.004": 4.78126672096,
			"0.005": 4.22986630146,
			"0.006": 4.71628855517,
			"0.007": 5.55686232399,
			"0.008": 5.89858600295,
			"0.009": 6.24957601456,
			"0.01": 4.48262956983,
			"0.011": 3.0114734781,
			"0.012": 2.40893935312,
			"0.013": 2.08964921516,
			"0.014": 0.307396854278,
			"0.015": 0.0,
			"0.016": 0.0,
			"0.017": 0.0,
			"0.018": 0.0,
			"0.019": 0.0,
			"0.02": 0.0,
			"0.021": 0.0,
			"0.022": 0.0,
			"0.023": 0.0,
			"0.024": 0.0,
			"0.025": 0.0
		}
	}
}
