{
	 "smiles": "NC1=C(C=CC=C1)C(=O)NCCCN1CCOCC1", 
	 "Tm": 469.15, 
	 "num_atms": 40, 
	 "gaussian": { 
		 "optdone": 1, 
		 "sigma_profile": "yes", 
		 "theory": "DFT", 
		 "functional": "B3LYP", 
		 "basiset": "6-31G**", 
		 "properties": { 
			 "R2extent": 6611.8116, 
			 "electric_dipole_moment_norm": 1.87209692591, 
			 "electric_quadrupole_moment_norm": 16.2890951633, 
			 "total_energy": -860.847496622, 
			 "HOMO_LUMO_gap": 0.17008, 
			 "cosmo_polarized_energy": -15.42, 
			 "cosmo_cavitation_energy": 39.92, 
			 "cosmo_dispersion_energy": -28.02, 
			 "cosmo_repulsion_energy": 2.15, 
			 "cosmo_total_nonelectrostatic_energy": 14.05, 
			 "SMD_solvation_energy": 6.3 
		},
		"coords": [
			{
				"x": 1.6159977681,
				"y": -2.4301579588,
				"z": -4.1688533892,
				"element": "N" 
			},
			{
				"x": 0.8669778221,
				"y": -2.4709900851,
				"z": -3.0130863871,
				"element": "C" 
			},
			{
				"x": 0.5896804653,
				"y": -1.2929067341,
				"z": -2.2593727107,
				"element": "C" 
			},
			{
				"x": -0.1949124064,
				"y": -1.3951083988,
				"z": -1.096856235,
				"element": "C" 
			},
			{
				"x": -0.668489382,
				"y": -2.6197096362,
				"z": -0.6391377976,
				"element": "C" 
			},
			{
				"x": -0.3516021488,
				"y": -3.7799795533,
				"z": -1.3544934621,
				"element": "C" 
			},
			{
				"x": 0.4003436229,
				"y": -3.7071916031,
				"z": -2.5178333902,
				"element": "C" 
			},
			{
				"x": 1.0564066893,
				"y": 0.0273144404,
				"z": -2.7722877093,
				"element": "C" 
			},
			{
				"x": 1.1822410152,
				"y": 0.2494596073,
				"z": -3.9849828941,
				"element": "O" 
			},
			{
				"x": 1.3144143381,
				"y": 1.0589034138,
				"z": -1.8901295584,
				"element": "N" 
			},
			{
				"x": 1.87634023,
				"y": 0.9773719944,
				"z": -0.5394487122,
				"element": "C" 
			},
			{
				"x": 1.5561177473,
				"y": 2.238783399,
				"z": 0.2710697942,
				"element": "C" 
			},
			{
				"x": 0.0588111557,
				"y": 2.5276163321,
				"z": 0.4537190496,
				"element": "C" 
			},
			{
				"x": -0.6693023582,
				"y": 1.4309106722,
				"z": 1.1035769592,
				"element": "N" 
			},
			{
				"x": -2.1258524701,
				"y": 1.4704925758,
				"z": 0.8969842533,
				"element": "C" 
			},
			{
				"x": -2.8368230049,
				"y": 2.4777642225,
				"z": 1.806922265,
				"element": "C" 
			},
			{
				"x": -2.5393912451,
				"y": 2.2161357096,
				"z": 3.1751964858,
				"element": "O" 
			},
			{
				"x": -1.1378942846,
				"y": 2.269753479,
				"z": 3.4184402355,
				"element": "C" 
			},
			{
				"x": -0.3905015517,
				"y": 1.2602413216,
				"z": 2.5388551273,
				"element": "C" 
			},
			{
				"x": 1.5572291826,
				"y": -3.2427216416,
				"z": -4.7638034145,
				"element": "H" 
			},
			{
				"x": 1.6078032271,
				"y": -1.5308302103,
				"z": -4.6376420263,
				"element": "H" 
			},
			{
				"x": -0.4494125156,
				"y": -0.492120344,
				"z": -0.5497201248,
				"element": "H" 
			},
			{
				"x": -1.2778466107,
				"y": -2.6706101809,
				"z": 0.2574763112,
				"element": "H" 
			},
			{
				"x": -0.7061300914,
				"y": -4.7479246522,
				"z": -1.0099366485,
				"element": "H" 
			},
			{
				"x": 0.6283447255,
				"y": -4.6111264364,
				"z": -3.0777423743,
				"element": "H" 
			},
			{
				"x": 1.629349607,
				"y": 1.8649502664,
				"z": -2.42113297,
				"element": "H" 
			},
			{
				"x": 2.9687561929,
				"y": 0.8534722918,
				"z": -0.5879257478,
				"element": "H" 
			},
			{
				"x": 1.4744939724,
				"y": 0.0999906214,
				"z": -0.0378291755,
				"element": "H" 
			},
			{
				"x": 2.0049000306,
				"y": 3.1146222177,
				"z": -0.2180827616,
				"element": "H" 
			},
			{
				"x": 2.0606351823,
				"y": 2.1555190857,
				"z": 1.241259066,
				"element": "H" 
			},
			{
				"x": -0.385623341,
				"y": 2.6573876037,
				"z": -0.5385546302,
				"element": "H" 
			},
			{
				"x": -0.0446786327,
				"y": 3.4961934742,
				"z": 0.9734330799,
				"element": "H" 
			},
			{
				"x": -2.3345617796,
				"y": 1.6853356199,
				"z": -0.1568054446,
				"element": "H" 
			},
			{
				"x": -2.5235428597,
				"y": 0.4708889536,
				"z": 1.1170451428,
				"element": "H" 
			},
			{
				"x": -2.5468310454,
				"y": 3.510236479,
				"z": 1.5470959359,
				"element": "H" 
			},
			{
				"x": -3.9236867135,
				"y": 2.3967803836,
				"z": 1.7044252328,
				"element": "H" 
			},
			{
				"x": -0.9968252528,
				"y": 2.0386083477,
				"z": 4.4791739143,
				"element": "H" 
			},
			{
				"x": -0.7633041659,
				"y": 3.2927070326,
				"z": 3.2429690434,
				"element": "H" 
			},
			{
				"x": -0.7102420844,
				"y": 0.2497991988,
				"z": 2.8243448022,
				"element": "H" 
			},
			{
				"x": 0.6875109702,
				"y": 1.3227386909,
				"z": 2.7186708655,
				"element": "H" 
			}
		],
		 "valence_orbital": [ 
			{
				"type": "occ",
				"energy": -0.2583,
				"method": "rhf"
			},
			{
				"type": "occ",
				"energy": -0.24313,
				"method": "rhf"
			},
			{
				"type": "occ",
				"energy": -0.23824,
				"method": "rhf"
			},
			{
				"type": "occ",
				"energy": -0.20676,
				"method": "rhf"
			},
			{
				"type": "occ",
				"energy": -0.19456,
				"method": "rhf"
			},
			{
				"type": "unocc",
				"energy": -0.02448,
				"method": "rhf"
			},
			{
				"type": "unocc",
				"energy": 0.0194,
				"method": "rhf"
			},
			{
				"type": "unocc",
				"energy": 0.05869,
				"method": "rhf"
			},
			{
				"type": "unocc",
				"energy": 0.06765,
				"method": "rhf"
			},
			{
				"type": "unocc",
				"energy": 0.08794,
				"method": "rhf"
			}
		],
		"cosmo_sigma_profile": { 
			"-0.025": 0.0,
			"-0.024": 0.0,
			"-0.023": 0.0,
			"-0.022": 0.0,
			"-0.021": 0.0,
			"-0.02": 0.0,
			"-0.019": 0.0,
			"-0.018": 0.0,
			"-0.017": 0.0,
			"-0.016": 0.0,
			"-0.015": 0.0,
			"-0.014": 0.0,
			"-0.013": 0.316968855672,
			"-0.012": 1.95919865339,
			"-0.011": 2.2464793573,
			"-0.01": 2.5425304574,
			"-0.009": 2.73152683624,
			"-0.008": 2.86817643504,
			"-0.007": 3.59298069578,
			"-0.006": 5.24079131826,
			"-0.005": 14.9513517399,
			"-0.004": 29.5245056548,
			"-0.003": 45.2925155041,
			"-0.002": 38.7568817828,
			"-0.001": 28.3263337955,
			"0.0": 19.9565354836,
			"0.001": 14.1091766029,
			"0.002": 12.3867405498,
			"0.003": 14.9675788357,
			"0.004": 15.4298306877,
			"0.005": 13.9508052097,
			"0.006": 12.7154500481,
			"0.007": 4.64130755748,
			"0.008": 3.25101280537,
			"0.009": 3.07330661808,
			"0.01": 3.38405036898,
			"0.011": 3.65860663523,
			"0.012": 3.8672593747,
			"0.013": 5.62590878739,
			"0.014": 2.77017565305,
			"0.015": 0.225868846037,
			"0.016": 0.0,
			"0.017": 0.0,
			"0.018": 0.0,
			"0.019": 0.0,
			"0.02": 0.0,
			"0.021": 0.0,
			"0.022": 0.0,
			"0.023": 0.0,
			"0.024": 0.0,
			"0.025": 0.0
		}
	}
}
