{
	 "smiles": "ClC1=CC=C(C=C1)P(C1=CC=C(Cl)C=C1)C1=CC=C(Cl)C=C1", 
	 "Tm": 376.15, 
	 "num_atms": 34, 
	 "gaussian": { 
		 "optdone": 1, 
		 "sigma_profile": "yes", 
		 "theory": "DFT", 
		 "functional": "B3LYP", 
		 "basiset": "6-31G**", 
		 "properties": { 
			 "R2extent": 12072.7338, 
			 "electric_dipole_moment_norm": 0.637152493521, 
			 "electric_quadrupole_moment_norm": 8.8659398949, 
			 "total_energy": -2415.0781044, 
			 "HOMO_LUMO_gap": 0.18689, 
			 "cosmo_polarized_energy": -8.51, 
			 "cosmo_cavitation_energy": 45.74, 
			 "cosmo_dispersion_energy": -32.19, 
			 "cosmo_repulsion_energy": 2.58, 
			 "cosmo_total_nonelectrostatic_energy": 16.13, 
			 "SMD_solvation_energy": 6.83 
		},
		"coords": [
			{
				"x": -1.3075707641,
				"y": -4.6084217868,
				"z": -2.6070957897,
				"element": "Cl" 
			},
			{
				"x": -0.905073106,
				"y": -2.9777225419,
				"z": -2.0930606736,
				"element": "C" 
			},
			{
				"x": -1.1133935479,
				"y": -2.6056160166,
				"z": -0.76573186,
				"element": "C" 
			},
			{
				"x": -0.7907093476,
				"y": -1.3088270114,
				"z": -0.3629320872,
				"element": "C" 
			},
			{
				"x": -0.2663546049,
				"y": -0.3772763454,
				"z": -1.2717374588,
				"element": "C" 
			},
			{
				"x": -0.0829671373,
				"y": -0.7789179676,
				"z": -2.6056649041,
				"element": "C" 
			},
			{
				"x": -0.3890895714,
				"y": -2.073474416,
				"z": -3.021537792,
				"element": "C" 
			},
			{
				"x": 0.1653129233,
				"y": 1.3751990062,
				"z": -0.8551060144,
				"element": "P" 
			},
			{
				"x": -0.6825363798,
				"y": 1.6191479553,
				"z": 0.7735776325,
				"element": "C" 
			},
			{
				"x": -0.0912501748,
				"y": 1.3885842692,
				"z": 2.0249141886,
				"element": "C" 
			},
			{
				"x": -0.7935876968,
				"y": 1.6231336079,
				"z": 3.2080507191,
				"element": "C" 
			},
			{
				"x": -2.1054984921,
				"y": 2.0898460223,
				"z": 3.1397393999,
				"element": "C" 
			},
			{
				"x": -2.9961812881,
				"y": 2.3860163965,
				"z": 4.6244539789,
				"element": "Cl" 
			},
			{
				"x": -2.7199551492,
				"y": 2.3326115285,
				"z": 1.9111074608,
				"element": "C" 
			},
			{
				"x": -2.0007944616,
				"y": 2.1043273415,
				"z": 0.7392890652,
				"element": "C" 
			},
			{
				"x": 1.9459505305,
				"y": 1.241840281,
				"z": -0.3627561508,
				"element": "C" 
			},
			{
				"x": 2.6055416199,
				"y": 0.0390723283,
				"z": -0.0680047016,
				"element": "C" 
			},
			{
				"x": 3.9596025402,
				"y": 0.0237492128,
				"z": 0.2701684199,
				"element": "C" 
			},
			{
				"x": 4.6626249609,
				"y": 1.2266509072,
				"z": 0.3189143949,
				"element": "C" 
			},
			{
				"x": 6.3666348649,
				"y": 1.2154999493,
				"z": 0.7451161071,
				"element": "Cl" 
			},
			{
				"x": 4.0363374223,
				"y": 2.4385816822,
				"z": 0.0273299441,
				"element": "C" 
			},
			{
				"x": 2.6865703251,
				"y": 2.4351850637,
				"z": -0.3199369437,
				"element": "C" 
			},
			{
				"x": -1.5207363741,
				"y": -3.3198968799,
				"z": -0.0584382714,
				"element": "H" 
			},
			{
				"x": -0.9557098148,
				"y": -1.0246009863,
				"z": 0.6713955599,
				"element": "H" 
			},
			{
				"x": 0.3005856768,
				"y": -0.0690939952,
				"z": -3.3340200335,
				"element": "H" 
			},
			{
				"x": -0.2410475485,
				"y": -2.3759440744,
				"z": -4.0523627784,
				"element": "H" 
			},
			{
				"x": 0.9299809315,
				"y": 1.0261120599,
				"z": 2.0843756521,
				"element": "H" 
			},
			{
				"x": -0.3294306417,
				"y": 1.445114174,
				"z": 4.1720325541,
				"element": "H" 
			},
			{
				"x": -3.7382447572,
				"y": 2.7038256932,
				"z": 1.8751529786,
				"element": "H" 
			},
			{
				"x": -2.473456367,
				"y": 2.3124116243,
				"z": -0.2171439349,
				"element": "H" 
			},
			{
				"x": 2.0636923623,
				"y": -0.9005094015,
				"z": -0.1051689938,
				"element": "H" 
			},
			{
				"x": 4.4637568765,
				"y": -0.9100374509,
				"z": 0.494368421,
				"element": "H" 
			},
			{
				"x": 4.5993605672,
				"y": 3.3647865757,
				"z": 0.0613240859,
				"element": "H" 
			},
			{
				"x": 2.2042356236,
				"y": 3.3776431952,
				"z": -0.5661121745,
				"element": "H" 
			}
		],
		 "valence_orbital": [ 
			{
				"type": "occ",
				"energy": -0.27166,
				"method": "rhf"
			},
			{
				"type": "occ",
				"energy": -0.27162,
				"method": "rhf"
			},
			{
				"type": "occ",
				"energy": -0.25829,
				"method": "rhf"
			},
			{
				"type": "occ",
				"energy": -0.25824,
				"method": "rhf"
			},
			{
				"type": "occ",
				"energy": -0.22672,
				"method": "rhf"
			},
			{
				"type": "unocc",
				"energy": -0.03983,
				"method": "rhf"
			},
			{
				"type": "unocc",
				"energy": -0.03978,
				"method": "rhf"
			},
			{
				"type": "unocc",
				"energy": -0.0311,
				"method": "rhf"
			},
			{
				"type": "unocc",
				"energy": -0.02008,
				"method": "rhf"
			},
			{
				"type": "unocc",
				"energy": -0.01859,
				"method": "rhf"
			}
		],
		"cosmo_sigma_profile": { 
			"-0.025": 0.0,
			"-0.024": 0.0,
			"-0.023": 0.0,
			"-0.022": 0.0,
			"-0.021": 0.0,
			"-0.02": 0.0,
			"-0.019": 0.0,
			"-0.018": 0.0,
			"-0.017": 0.0,
			"-0.016": 0.0,
			"-0.015": 0.0,
			"-0.014": 0.0,
			"-0.013": 0.0,
			"-0.012": 0.0,
			"-0.011": 0.0,
			"-0.01": 0.0,
			"-0.009": 0.0,
			"-0.008": 1.66439212562,
			"-0.007": 12.6165326385,
			"-0.006": 20.3382124944,
			"-0.005": 22.619335493,
			"-0.004": 18.837540884,
			"-0.003": 22.3483968836,
			"-0.002": 25.3984404704,
			"-0.001": 24.7935522884,
			"0.0": 31.7175392005,
			"0.001": 42.257947764,
			"0.002": 50.6540269981,
			"0.003": 44.5099644254,
			"0.004": 35.4756029446,
			"0.005": 17.732022267,
			"0.006": 1.01081272664,
			"0.007": 0.547189989038,
			"0.008": 0.398718292169,
			"0.009": 0.698255812525,
			"0.01": 0.831562070946,
			"0.011": 0.562466723016,
			"0.012": 0.527071282888,
			"0.013": 0.173486711222,
			"0.014": 0.0,
			"0.015": 0.0,
			"0.016": 0.0,
			"0.017": 0.0,
			"0.018": 0.0,
			"0.019": 0.0,
			"0.02": 0.0,
			"0.021": 0.0,
			"0.022": 0.0,
			"0.023": 0.0,
			"0.024": 0.0,
			"0.025": 0.0
		}
	}
}
