{
	 "smiles": "CC(C)C(=O)N1CCCC1C(O)=O", 
	 "Tm": 392.15, 
	 "num_atms": 28, 
	 "gaussian": { 
		 "optdone": 1, 
		 "sigma_profile": "yes", 
		 "theory": "DFT", 
		 "functional": "B3LYP", 
		 "basiset": "6-31G**", 
		 "properties": { 
			 "R2extent": 2771.5103, 
			 "electric_dipole_moment_norm": 2.53654261742, 
			 "electric_quadrupole_moment_norm": 19.4853591766, 
			 "total_energy": -632.458525305, 
			 "HOMO_LUMO_gap": 0.2294, 
			 "cosmo_polarized_energy": -15.49, 
			 "cosmo_cavitation_energy": 29.93, 
			 "cosmo_dispersion_energy": -20.63, 
			 "cosmo_repulsion_energy": 1.66, 
			 "cosmo_total_nonelectrostatic_energy": 10.97, 
			 "SMD_solvation_energy": 6.15 
		},
		"coords": [
			{
				"x": -0.1420362267,
				"y": -3.7530143869,
				"z": 0.6356635538,
				"element": "C" 
			},
			{
				"x": 0.7162695027,
				"y": -2.4758245891,
				"z": 0.6062648548,
				"element": "C" 
			},
			{
				"x": 2.1284870984,
				"y": -2.7387281933,
				"z": 1.1571327353,
				"element": "C" 
			},
			{
				"x": 0.0339035837,
				"y": -1.4089693958,
				"z": 1.4711689847,
				"element": "C" 
			},
			{
				"x": -0.1492462464,
				"y": -1.6004224759,
				"z": 2.6711250854,
				"element": "O" 
			},
			{
				"x": -0.3749112874,
				"y": -0.2375534985,
				"z": 0.8868390581,
				"element": "N" 
			},
			{
				"x": -1.0840358502,
				"y": 0.7646416975,
				"z": 1.7024103485,
				"element": "C" 
			},
			{
				"x": -1.6068506968,
				"y": 1.7712756851,
				"z": 0.669965985,
				"element": "C" 
			},
			{
				"x": -0.5792067791,
				"y": 1.6783594807,
				"z": -0.4684933105,
				"element": "C" 
			},
			{
				"x": -0.2232586258,
				"y": 0.1690922404,
				"z": -0.506652893,
				"element": "C" 
			},
			{
				"x": -1.1240868481,
				"y": -0.5632227486,
				"z": -1.5042398879,
				"element": "C" 
			},
			{
				"x": -2.2286609085,
				"y": -1.1020243595,
				"z": -0.9400440112,
				"element": "O" 
			},
			{
				"x": -0.8905108869,
				"y": -0.6239769539,
				"z": -2.6908464291,
				"element": "O" 
			},
			{
				"x": -0.2783221624,
				"y": -4.0841899737,
				"z": 1.6686320407,
				"element": "H" 
			},
			{
				"x": 0.3428553608,
				"y": -4.5542538323,
				"z": 0.068728312,
				"element": "H" 
			},
			{
				"x": -1.1313240013,
				"y": -3.5754622063,
				"z": 0.202157811,
				"element": "H" 
			},
			{
				"x": 0.8040764972,
				"y": -2.1415025522,
				"z": -0.4328058675,
				"element": "H" 
			},
			{
				"x": 2.0674784395,
				"y": -3.0276588984,
				"z": 2.2097314658,
				"element": "H" 
			},
			{
				"x": 2.6150304567,
				"y": -3.5441977161,
				"z": 0.5977968701,
				"element": "H" 
			},
			{
				"x": 2.7615239754,
				"y": -1.847519809,
				"z": 1.0870619647,
				"element": "H" 
			},
			{
				"x": -0.388173093,
				"y": 1.2258573981,
				"z": 2.4144040463,
				"element": "H" 
			},
			{
				"x": -1.8714001503,
				"y": 0.2815632311,
				"z": 2.285369004,
				"element": "H" 
			},
			{
				"x": -1.6945818032,
				"y": 2.7813118183,
				"z": 1.0783110625,
				"element": "H" 
			},
			{
				"x": -2.5949389797,
				"y": 1.4650258417,
				"z": 0.311867417,
				"element": "H" 
			},
			{
				"x": 0.3254942382,
				"y": 2.2410995154,
				"z": -0.2158238565,
				"element": "H" 
			},
			{
				"x": -0.9412811992,
				"y": 2.0412234122,
				"z": -1.4333479296,
				"element": "H" 
			},
			{
				"x": 0.7967634486,
				"y": 0.0266917558,
				"z": -0.8730061034,
				"element": "H" 
			},
			{
				"x": -2.7304568564,
				"y": -1.5087204869,
				"z": -1.6672703109,
				"element": "H" 
			}
		],
		 "valence_orbital": [ 
			{
				"type": "occ",
				"energy": -0.32843,
				"method": "rhf"
			},
			{
				"type": "occ",
				"energy": -0.32685,
				"method": "rhf"
			},
			{
				"type": "occ",
				"energy": -0.29351,
				"method": "rhf"
			},
			{
				"type": "occ",
				"energy": -0.23997,
				"method": "rhf"
			},
			{
				"type": "occ",
				"energy": -0.23742,
				"method": "rhf"
			},
			{
				"type": "unocc",
				"energy": -0.00802,
				"method": "rhf"
			},
			{
				"type": "unocc",
				"energy": 0.02537,
				"method": "rhf"
			},
			{
				"type": "unocc",
				"energy": 0.05533,
				"method": "rhf"
			},
			{
				"type": "unocc",
				"energy": 0.08935,
				"method": "rhf"
			},
			{
				"type": "unocc",
				"energy": 0.10087,
				"method": "rhf"
			}
		],
		"cosmo_sigma_profile": { 
			"-0.025": 0.0,
			"-0.024": 0.0,
			"-0.023": 0.0,
			"-0.022": 0.0,
			"-0.021": 0.0,
			"-0.02": 0.0,
			"-0.019": 0.145257150249,
			"-0.018": 0.906779084145,
			"-0.017": 1.04518841198,
			"-0.016": 0.729449073243,
			"-0.015": 0.894538096673,
			"-0.014": 0.458937556284,
			"-0.013": 0.521905353378,
			"-0.012": 1.02655129507,
			"-0.011": 0.62980200503,
			"-0.01": 0.662997339466,
			"-0.009": 0.556203367928,
			"-0.008": 1.12135464914,
			"-0.007": 3.8655278139,
			"-0.006": 4.56925915234,
			"-0.005": 11.1373062707,
			"-0.004": 21.9539991396,
			"-0.003": 29.5542565086,
			"-0.002": 29.5678903929,
			"-0.001": 24.4265615043,
			"0.0": 20.3101121408,
			"0.001": 18.4866233961,
			"0.002": 7.02436724971,
			"0.003": 5.43809086719,
			"0.004": 3.94251263859,
			"0.005": 4.66239300859,
			"0.006": 4.56313011642,
			"0.007": 4.27552217963,
			"0.008": 3.55106706505,
			"0.009": 2.94903539402,
			"0.01": 3.37448776923,
			"0.011": 6.01201157363,
			"0.012": 5.45566565614,
			"0.013": 2.64035116998,
			"0.014": 4.41564289074,
			"0.015": 1.76313709517,
			"0.016": 0.0,
			"0.017": 0.0,
			"0.018": 0.0,
			"0.019": 0.0,
			"0.02": 0.0,
			"0.021": 0.0,
			"0.022": 0.0,
			"0.023": 0.0,
			"0.024": 0.0,
			"0.025": 0.0
		}
	}
}
