{
	 "smiles": "FC(F)(F)C1=CC(OCCNC(=O)CCl)=CC=C1", 
	 "Tm": 317.15, 
	 "num_atms": 29, 
	 "gaussian": { 
		 "optdone": 1, 
		 "sigma_profile": "yes", 
		 "theory": "DFT", 
		 "functional": "B3LYP", 
		 "basiset": "6-31G**", 
		 "properties": { 
			 "R2extent": 8535.7398, 
			 "electric_dipole_moment_norm": 2.49456459127, 
			 "electric_quadrupole_moment_norm": 18.8455769933, 
			 "total_energy": -1390.73178922, 
			 "HOMO_LUMO_gap": 0.21122, 
			 "cosmo_polarized_energy": -12.83, 
			 "cosmo_cavitation_energy": 37.17, 
			 "cosmo_dispersion_energy": -25.91, 
			 "cosmo_repulsion_energy": 2.0, 
			 "cosmo_total_nonelectrostatic_energy": 13.25, 
			 "SMD_solvation_energy": 7.46 
		},
		"coords": [
			{
				"x": 4.1521326528,
				"y": -0.9555768171,
				"z": 2.9726324112,
				"element": "F" 
			},
			{
				"x": 3.1089835659,
				"y": -1.4480969252,
				"z": 3.6752162098,
				"element": "C" 
			},
			{
				"x": 2.8164518521,
				"y": -0.5415439435,
				"z": 4.6365603955,
				"element": "F" 
			},
			{
				"x": 3.5355901608,
				"y": -2.5635290863,
				"z": 4.3088413798,
				"element": "F" 
			},
			{
				"x": 1.9156069593,
				"y": -1.728806963,
				"z": 2.8003967037,
				"element": "C" 
			},
			{
				"x": 1.7714541923,
				"y": -1.054841644,
				"z": 1.5927974673,
				"element": "C" 
			},
			{
				"x": 0.6347368116,
				"y": -1.2770793719,
				"z": 0.8036741393,
				"element": "C" 
			},
			{
				"x": 0.5862364485,
				"y": -0.5760194031,
				"z": -0.3675153302,
				"element": "O" 
			},
			{
				"x": -0.5474847819,
				"y": -0.7303994213,
				"z": -1.2209742691,
				"element": "C" 
			},
			{
				"x": -0.3328053412,
				"y": 0.1942789792,
				"z": -2.409690519,
				"element": "C" 
			},
			{
				"x": -0.2488398921,
				"y": 1.5862369818,
				"z": -2.0059276645,
				"element": "N" 
			},
			{
				"x": -1.1202308761,
				"y": 2.5189847491,
				"z": -2.4583016778,
				"element": "C" 
			},
			{
				"x": -2.0317236147,
				"y": 2.3018212035,
				"z": -3.2481956309,
				"element": "O" 
			},
			{
				"x": -0.9579529011,
				"y": 3.9570053291,
				"z": -1.9605692259,
				"element": "C" 
			},
			{
				"x": 0.3771704751,
				"y": 4.2678902866,
				"z": -0.7698855187,
				"element": "Cl" 
			},
			{
				"x": -0.3493445653,
				"y": -2.1743100395,
				"z": 1.2329577488,
				"element": "C" 
			},
			{
				"x": -0.1861276937,
				"y": -2.8428455679,
				"z": 2.4504955858,
				"element": "C" 
			},
			{
				"x": 0.9378174491,
				"y": -2.6296231438,
				"z": 3.2409667989,
				"element": "C" 
			},
			{
				"x": 2.5280656042,
				"y": -0.3624377397,
				"z": 1.24322406,
				"element": "H" 
			},
			{
				"x": -0.6307692562,
				"y": -1.7710356859,
				"z": -1.5637448233,
				"element": "H" 
			},
			{
				"x": -1.4669713265,
				"y": -0.4599450945,
				"z": -0.6854622197,
				"element": "H" 
			},
			{
				"x": 0.5837609316,
				"y": -0.1004240756,
				"z": -2.9346418054,
				"element": "H" 
			},
			{
				"x": -1.1718848564,
				"y": 0.1110397154,
				"z": -3.1042163145,
				"element": "H" 
			},
			{
				"x": 0.4549151949,
				"y": 1.8512361853,
				"z": -1.3307927235,
				"element": "H" 
			},
			{
				"x": -0.7761886867,
				"y": 4.5987059103,
				"z": -2.8230158464,
				"element": "H" 
			},
			{
				"x": -1.8908444321,
				"y": 4.2618347295,
				"z": -1.4862113187,
				"element": "H" 
			},
			{
				"x": -1.2333655321,
				"y": -2.3614546818,
				"z": 0.6353930629,
				"element": "H" 
			},
			{
				"x": -0.9511559279,
				"y": -3.54095844,
				"z": 2.7766082892,
				"element": "H" 
			},
			{
				"x": 1.0655673858,
				"y": -3.1561060258,
				"z": 4.1798806352,
				"element": "H" 
			}
		],
		 "valence_orbital": [ 
			{
				"type": "occ",
				"energy": -0.31342,
				"method": "rhf"
			},
			{
				"type": "occ",
				"energy": -0.27309,
				"method": "rhf"
			},
			{
				"type": "occ",
				"energy": -0.26871,
				"method": "rhf"
			},
			{
				"type": "occ",
				"energy": -0.26554,
				"method": "rhf"
			},
			{
				"type": "occ",
				"energy": -0.24059,
				"method": "rhf"
			},
			{
				"type": "unocc",
				"energy": -0.02937,
				"method": "rhf"
			},
			{
				"type": "unocc",
				"energy": -0.01051,
				"method": "rhf"
			},
			{
				"type": "unocc",
				"energy": 0.01127,
				"method": "rhf"
			},
			{
				"type": "unocc",
				"energy": 0.01313,
				"method": "rhf"
			},
			{
				"type": "unocc",
				"energy": 0.08144,
				"method": "rhf"
			}
		],
		"cosmo_sigma_profile": { 
			"-0.025": 0.0,
			"-0.024": 0.0,
			"-0.023": 0.0,
			"-0.022": 0.0,
			"-0.021": 0.0,
			"-0.02": 0.0,
			"-0.019": 0.0,
			"-0.018": 0.0,
			"-0.017": 0.0,
			"-0.016": 0.0,
			"-0.015": 0.0,
			"-0.014": 0.0,
			"-0.013": 0.0,
			"-0.012": 0.0,
			"-0.011": 0.0,
			"-0.01": 0.0718845741213,
			"-0.009": 3.72772531275,
			"-0.008": 4.32059076402,
			"-0.007": 9.97910382815,
			"-0.006": 22.9453100972,
			"-0.005": 23.1668833309,
			"-0.004": 20.0210279536,
			"-0.003": 15.7678712084,
			"-0.002": 15.4695644313,
			"-0.001": 16.0733344703,
			"0.0": 17.3922013476,
			"0.001": 21.638606828,
			"0.002": 32.2437334235,
			"0.003": 47.4845603734,
			"0.004": 16.4782931844,
			"0.005": 8.90418605412,
			"0.006": 4.95448773842,
			"0.007": 2.03566284661,
			"0.008": 1.59384539047,
			"0.009": 1.53423218876,
			"0.01": 1.44783384038,
			"0.011": 1.33181932083,
			"0.012": 2.64221253484,
			"0.013": 5.4700737279,
			"0.014": 1.56104899296,
			"0.015": 0.0,
			"0.016": 0.0,
			"0.017": 0.0,
			"0.018": 0.0,
			"0.019": 0.0,
			"0.02": 0.0,
			"0.021": 0.0,
			"0.022": 0.0,
			"0.023": 0.0,
			"0.024": 0.0,
			"0.025": 0.0
		}
	}
}
