{
	 "smiles": "CCC(C)(C)CC(C)C", 
	 "Tm": 160.15, 
	 "num_atms": 29, 
	 "gaussian": { 
		 "optdone": 1, 
		 "sigma_profile": "yes", 
		 "theory": "DFT", 
		 "functional": "B3LYP", 
		 "basiset": "6-31G**", 
		 "properties": { 
			 "R2extent": 1766.7378, 
			 "electric_dipole_moment_norm": 0.107086226939, 
			 "electric_quadrupole_moment_norm": 0.386087088621, 
			 "total_energy": -355.032934766, 
			 "HOMO_LUMO_gap": 0.35096, 
			 "cosmo_polarized_energy": -0.79, 
			 "cosmo_cavitation_energy": 27.29, 
			 "cosmo_dispersion_energy": -19.4, 
			 "cosmo_repulsion_energy": 1.56, 
			 "cosmo_total_nonelectrostatic_energy": 9.45, 
			 "SMD_solvation_energy": 4.67 
		},
		"coords": [
			{
				"x": 1.5987379816,
				"y": 1.8514655746,
				"z": 1.9307478456,
				"element": "C" 
			},
			{
				"x": 1.3109703958,
				"y": 0.8401275211,
				"z": 0.8138748629,
				"element": "C" 
			},
			{
				"x": -0.1809719325,
				"y": 0.5917503526,
				"z": 0.4326106472,
				"element": "C" 
			},
			{
				"x": -0.7851620895,
				"y": 1.8846322277,
				"z": -0.1482077743,
				"element": "C" 
			},
			{
				"x": -0.9678074277,
				"y": 0.1839014192,
				"z": 1.6963167982,
				"element": "C" 
			},
			{
				"x": -0.1473406007,
				"y": -0.574967201,
				"z": -0.6065558094,
				"element": "C" 
			},
			{
				"x": -1.3460066483,
				"y": -0.9713436658,
				"z": -1.5152408926,
				"element": "C" 
			},
			{
				"x": -2.6684581398,
				"y": -1.2660514695,
				"z": -0.789473637,
				"element": "C" 
			},
			{
				"x": -1.5778898106,
				"y": -0.0276018442,
				"z": -2.7095579529,
				"element": "C" 
			},
			{
				"x": 1.1793062649,
				"y": 1.5377376755,
				"z": 2.8915319318,
				"element": "H" 
			},
			{
				"x": 2.6798453599,
				"y": 1.9588350993,
				"z": 2.0692355036,
				"element": "H" 
			},
			{
				"x": 1.2025568074,
				"y": 2.8461966184,
				"z": 1.702500926,
				"element": "H" 
			},
			{
				"x": 1.7548849551,
				"y": -0.1246353723,
				"z": 1.0960560679,
				"element": "H" 
			},
			{
				"x": 1.8421083994,
				"y": 1.1598511102,
				"z": -0.0930306624,
				"element": "H" 
			},
			{
				"x": -0.7038172324,
				"y": 2.7105755163,
				"z": 0.5659930562,
				"element": "H" 
			},
			{
				"x": -0.274671218,
				"y": 2.1893353377,
				"z": -1.0684052536,
				"element": "H" 
			},
			{
				"x": -1.8481673569,
				"y": 1.7651520678,
				"z": -0.3758384032,
				"element": "H" 
			},
			{
				"x": -0.5284174967,
				"y": -0.7052759407,
				"z": 2.1640911317,
				"element": "H" 
			},
			{
				"x": -2.012398028,
				"y": -0.0404426025,
				"z": 1.4721696284,
				"element": "H" 
			},
			{
				"x": -0.9637032309,
				"y": 0.986671389,
				"z": 2.4405836994,
				"element": "H" 
			},
			{
				"x": 0.6917081612,
				"y": -0.3781439132,
				"z": -1.2888783899,
				"element": "H" 
			},
			{
				"x": 0.1424864797,
				"y": -1.4753292358,
				"z": -0.0463289247,
				"element": "H" 
			},
			{
				"x": -1.0224293559,
				"y": -1.9267922121,
				"z": -1.9552091862,
				"element": "H" 
			},
			{
				"x": -3.1364567076,
				"y": -0.3552592326,
				"z": -0.4014455378,
				"element": "H" 
			},
			{
				"x": -3.3843927516,
				"y": -1.7257523901,
				"z": -1.4803733311,
				"element": "H" 
			},
			{
				"x": -2.5273991223,
				"y": -1.9559536115,
				"z": 0.0491016479,
				"element": "H" 
			},
			{
				"x": -2.2699120658,
				"y": -0.4858381167,
				"z": -3.4254116635,
				"element": "H" 
			},
			{
				"x": -0.6421508121,
				"y": 0.179284861,
				"z": -3.2407662736,
				"element": "H" 
			},
			{
				"x": -2.0094527778,
				"y": 0.9310700379,
				"z": -2.4099900546,
				"element": "H" 
			}
		],
		 "valence_orbital": [ 
			{
				"type": "occ",
				"energy": -0.3223,
				"method": "rhf"
			},
			{
				"type": "occ",
				"energy": -0.31895,
				"method": "rhf"
			},
			{
				"type": "occ",
				"energy": -0.30699,
				"method": "rhf"
			},
			{
				"type": "occ",
				"energy": -0.29792,
				"method": "rhf"
			},
			{
				"type": "occ",
				"energy": -0.28351,
				"method": "rhf"
			},
			{
				"type": "unocc",
				"energy": 0.06745,
				"method": "rhf"
			},
			{
				"type": "unocc",
				"energy": 0.10945,
				"method": "rhf"
			},
			{
				"type": "unocc",
				"energy": 0.11958,
				"method": "rhf"
			},
			{
				"type": "unocc",
				"energy": 0.12631,
				"method": "rhf"
			},
			{
				"type": "unocc",
				"energy": 0.12927,
				"method": "rhf"
			}
		],
		"cosmo_sigma_profile": { 
			"-0.025": 0.0,
			"-0.024": 0.0,
			"-0.023": 0.0,
			"-0.022": 0.0,
			"-0.021": 0.0,
			"-0.02": 0.0,
			"-0.019": 0.0,
			"-0.018": 0.0,
			"-0.017": 0.0,
			"-0.016": 0.0,
			"-0.015": 0.0,
			"-0.014": 0.0,
			"-0.013": 0.0,
			"-0.012": 0.0,
			"-0.011": 0.0,
			"-0.01": 0.0,
			"-0.009": 0.0,
			"-0.008": 0.0,
			"-0.007": 0.0,
			"-0.006": 0.0,
			"-0.005": 0.0,
			"-0.004": 0.0,
			"-0.003": 4.9132224628,
			"-0.002": 27.9856967138,
			"-0.001": 45.8875453409,
			"0.0": 50.4748236958,
			"0.001": 43.158602428,
			"0.002": 31.700779687,
			"0.003": 4.00585418278,
			"0.004": 0.0,
			"0.005": 0.0,
			"0.006": 0.0,
			"0.007": 0.0,
			"0.008": 0.0,
			"0.009": 0.0,
			"0.01": 0.0,
			"0.011": 0.0,
			"0.012": 0.0,
			"0.013": 0.0,
			"0.014": 0.0,
			"0.015": 0.0,
			"0.016": 0.0,
			"0.017": 0.0,
			"0.018": 0.0,
			"0.019": 0.0,
			"0.02": 0.0,
			"0.021": 0.0,
			"0.022": 0.0,
			"0.023": 0.0,
			"0.024": 0.0,
			"0.025": 0.0
		}
	}
}
