{
	 "smiles": "CC(C)(C)C1=CC=C(C=C1)N1CCC(N)CC1", 
	 "Tm": 354.15, 
	 "num_atms": 41, 
	 "gaussian": { 
		 "optdone": 1, 
		 "sigma_profile": "yes", 
		 "theory": "DFT", 
		 "functional": "B3LYP", 
		 "basiset": "6-31G**", 
		 "properties": { 
			 "R2extent": 5836.423, 
			 "electric_dipole_moment_norm": 0.943113847847, 
			 "electric_quadrupole_moment_norm": 5.79177199568, 
			 "total_energy": -695.564609782, 
			 "HOMO_LUMO_gap": 0.18946, 
			 "cosmo_polarized_energy": -8.92, 
			 "cosmo_cavitation_energy": 39.01, 
			 "cosmo_dispersion_energy": -27.81, 
			 "cosmo_repulsion_energy": 2.15, 
			 "cosmo_total_nonelectrostatic_energy": 13.35, 
			 "SMD_solvation_energy": 3.89 
		},
		"coords": [
			{
				"x": 2.6182901067,
				"y": -1.1007030017,
				"z": -2.5924732301,
				"element": "C" 
			},
			{
				"x": 1.1227888661,
				"y": -1.4973723986,
				"z": -2.6169664106,
				"element": "C" 
			},
			{
				"x": 1.0067592417,
				"y": -3.0371774374,
				"z": -2.7178012798,
				"element": "C" 
			},
			{
				"x": 0.4857806873,
				"y": -0.8854739835,
				"z": -3.8790060685,
				"element": "C" 
			},
			{
				"x": 0.4389686852,
				"y": -1.0121498528,
				"z": -1.3274919016,
				"element": "C" 
			},
			{
				"x": 0.8857764998,
				"y": -1.4608767949,
				"z": -0.0716212378,
				"element": "C" 
			},
			{
				"x": 0.2941961473,
				"y": -1.0565772553,
				"z": 1.1173589519,
				"element": "C" 
			},
			{
				"x": -0.7909872468,
				"y": -0.1529438402,
				"z": 1.1295781046,
				"element": "C" 
			},
			{
				"x": -1.2370479261,
				"y": 0.3059599929,
				"z": -0.1226197847,
				"element": "C" 
			},
			{
				"x": -0.6401259358,
				"y": -0.1237145039,
				"z": -1.3110847683,
				"element": "C" 
			},
			{
				"x": -1.3964438376,
				"y": 0.2019198453,
				"z": 2.3504639451,
				"element": "N" 
			},
			{
				"x": -2.6293167338,
				"y": 0.9912957208,
				"z": 2.3828915196,
				"element": "C" 
			},
			{
				"x": -2.389931713,
				"y": 2.50286686,
				"z": 2.6785265567,
				"element": "C" 
			},
			{
				"x": -0.912581116,
				"y": 2.8840333308,
				"z": 2.5115120344,
				"element": "C" 
			},
			{
				"x": -0.7257000822,
				"y": 4.2974373654,
				"z": 2.8683921059,
				"element": "N" 
			},
			{
				"x": -0.0245626297,
				"y": 2.0069098854,
				"z": 3.4167410297,
				"element": "C" 
			},
			{
				"x": -0.5509907118,
				"y": 0.5476404992,
				"z": 3.4950749591,
				"element": "C" 
			},
			{
				"x": 3.1238975902,
				"y": -1.447958173,
				"z": -3.5011590891,
				"element": "H" 
			},
			{
				"x": 3.1396125284,
				"y": -1.5368346901,
				"z": -1.7349337338,
				"element": "H" 
			},
			{
				"x": 2.7330513086,
				"y": -0.0132237332,
				"z": -2.5338340233,
				"element": "H" 
			},
			{
				"x": -0.0426398673,
				"y": -3.3482408461,
				"z": -2.7490985071,
				"element": "H" 
			},
			{
				"x": 1.4976690663,
				"y": -3.4016076778,
				"z": -3.627833595,
				"element": "H" 
			},
			{
				"x": 1.4760272477,
				"y": -3.5362053521,
				"z": -1.8645112058,
				"element": "H" 
			},
			{
				"x": 1.0011259645,
				"y": -1.2560114112,
				"z": -4.7713722433,
				"element": "H" 
			},
			{
				"x": 0.5613759708,
				"y": 0.2070407752,
				"z": -3.8839260956,
				"element": "H" 
			},
			{
				"x": -0.5714435462,
				"y": -1.1550987221,
				"z": -3.9725773032,
				"element": "H" 
			},
			{
				"x": 1.7139914929,
				"y": -2.1621962069,
				"z": -0.0129180549,
				"element": "H" 
			},
			{
				"x": 0.662057567,
				"y": -1.4708849076,
				"z": 2.0501518179,
				"element": "H" 
			},
			{
				"x": -2.0508047074,
				"y": 1.0189672829,
				"z": -0.190799252,
				"element": "H" 
			},
			{
				"x": -1.03647922,
				"y": 0.2703042297,
				"z": -2.240715379,
				"element": "H" 
			},
			{
				"x": -3.1699916114,
				"y": 0.8442911232,
				"z": 1.4482579251,
				"element": "H" 
			},
			{
				"x": -3.2657339873,
				"y": 0.5698323186,
				"z": 3.1725986158,
				"element": "H" 
			},
			{
				"x": -2.6865941127,
				"y": 2.7475118143,
				"z": 3.705034467,
				"element": "H" 
			},
			{
				"x": -3.0117028824,
				"y": 3.1231219134,
				"z": 2.0210212363,
				"element": "H" 
			},
			{
				"x": -0.6315718838,
				"y": 2.6738330042,
				"z": 1.4658476918,
				"element": "H" 
			},
			{
				"x": 0.2579442613,
				"y": 4.5438845363,
				"z": 2.7716727948,
				"element": "H" 
			},
			{
				"x": -1.2262111913,
				"y": 4.8858350401,
				"z": 2.2044042739,
				"element": "H" 
			},
			{
				"x": 1.0040003862,
				"y": 2.0213770403,
				"z": 3.0367886065,
				"element": "H" 
			},
			{
				"x": -0.0055288374,
				"y": 2.4517844136,
				"z": 4.4188354938,
				"element": "H" 
			},
			{
				"x": -1.1677934994,
				"y": 0.4231418987,
				"z": 4.3935188427,
				"element": "H" 
			},
			{
				"x": 0.2737696615,
				"y": -0.1593381018,
				"z": 3.5889721909,
				"element": "H" 
			}
		],
		 "valence_orbital": [ 
			{
				"type": "occ",
				"energy": -0.30362,
				"method": "rhf"
			},
			{
				"type": "occ",
				"energy": -0.26443,
				"method": "rhf"
			},
			{
				"type": "occ",
				"energy": -0.23899,
				"method": "rhf"
			},
			{
				"type": "occ",
				"energy": -0.23036,
				"method": "rhf"
			},
			{
				"type": "occ",
				"energy": -0.18119,
				"method": "rhf"
			},
			{
				"type": "unocc",
				"energy": 0.00827,
				"method": "rhf"
			},
			{
				"type": "unocc",
				"energy": 0.02108,
				"method": "rhf"
			},
			{
				"type": "unocc",
				"energy": 0.07586,
				"method": "rhf"
			},
			{
				"type": "unocc",
				"energy": 0.08467,
				"method": "rhf"
			},
			{
				"type": "unocc",
				"energy": 0.08998,
				"method": "rhf"
			}
		],
		"cosmo_sigma_profile": { 
			"-0.025": 0.0,
			"-0.024": 0.0,
			"-0.023": 0.0,
			"-0.022": 0.0,
			"-0.021": 0.0,
			"-0.02": 0.0,
			"-0.019": 0.0,
			"-0.018": 0.0,
			"-0.017": 0.0,
			"-0.016": 0.0,
			"-0.015": 0.0,
			"-0.014": 0.0,
			"-0.013": 0.0,
			"-0.012": 0.0,
			"-0.011": 0.0,
			"-0.01": 0.122428738993,
			"-0.009": 2.10257656993,
			"-0.008": 2.70001530557,
			"-0.007": 3.12508667177,
			"-0.006": 5.44244274317,
			"-0.005": 9.34555085167,
			"-0.004": 16.0620464024,
			"-0.003": 34.7614217987,
			"-0.002": 46.1668955485,
			"-0.001": 40.8508694719,
			"0.0": 32.0895226448,
			"0.001": 31.6412883023,
			"0.002": 21.0454769369,
			"0.003": 9.5134513476,
			"0.004": 7.64804100951,
			"0.005": 7.72050710852,
			"0.006": 9.01042697238,
			"0.007": 8.63392841621,
			"0.008": 4.76878509603,
			"0.009": 1.67624273011,
			"0.01": 1.48826388622,
			"0.011": 0.728057679987,
			"0.012": 0.5908269916,
			"0.013": 1.03450726809,
			"0.014": 0.526133786178,
			"0.015": 0.710952310326,
			"0.016": 0.649542074077,
			"0.017": 0.236599319596,
			"0.018": 0.39419643206,
			"0.019": 0.814011052408,
			"0.02": 0.260070539531,
			"0.021": 0.0,
			"0.022": 0.0,
			"0.023": 0.0,
			"0.024": 0.0,
			"0.025": 0.0
		}
	}
}
