{
	 "smiles": "[O-][N+](=O)C1=C(Cl)C=CC(=C1)N1CCOC1=O", 
	 "Tm": 437.15, 
	 "num_atms": 23, 
	 "gaussian": { 
		 "optdone": 1, 
		 "sigma_profile": "yes", 
		 "theory": "DFT", 
		 "functional": "B3LYP", 
		 "basiset": "6-31G**", 
		 "properties": { 
			 "R2extent": 5672.6537, 
			 "electric_dipole_moment_norm": 9.0892940529, 
			 "electric_quadrupole_moment_norm": 13.4085473479, 
			 "total_energy": -1217.66414746, 
			 "HOMO_LUMO_gap": 0.15791, 
			 "cosmo_polarized_energy": -19.4, 
			 "cosmo_cavitation_energy": 29.79, 
			 "cosmo_dispersion_energy": -22.2, 
			 "cosmo_repulsion_energy": 1.71, 
			 "cosmo_total_nonelectrostatic_energy": 9.3, 
			 "SMD_solvation_energy": 7.92 
		},
		"coords": [
			{
				"x": 0.9552525579,
				"y": -2.7864994649,
				"z": 3.769383651,
				"element": "O" 
			},
			{
				"x": 0.5186259154,
				"y": -1.6634810038,
				"z": 4.0127813394,
				"element": "N" 
			},
			{
				"x": 0.0356550184,
				"y": -1.3032268004,
				"z": 5.0808469654,
				"element": "O" 
			},
			{
				"x": 0.5526562781,
				"y": -0.6829410611,
				"z": 2.9089089194,
				"element": "C" 
			},
			{
				"x": 0.806788836,
				"y": 0.6796081664,
				"z": 3.1200596652,
				"element": "C" 
			},
			{
				"x": 1.2023437775,
				"y": 1.3695421009,
				"z": 4.6705258155,
				"element": "Cl" 
			},
			{
				"x": 0.8019392921,
				"y": 1.5198754954,
				"z": 2.0070214384,
				"element": "C" 
			},
			{
				"x": 0.5329194797,
				"y": 1.0282013871,
				"z": 0.7337868891,
				"element": "C" 
			},
			{
				"x": 0.2819756664,
				"y": -0.3388900883,
				"z": 0.5297237398,
				"element": "C" 
			},
			{
				"x": 0.3109125444,
				"y": -1.1965655636,
				"z": 1.6386289574,
				"element": "C" 
			},
			{
				"x": 0.0392209574,
				"y": -0.8177440359,
				"z": -0.7703884167,
				"element": "N" 
			},
			{
				"x": 0.0647679923,
				"y": 0.043331854,
				"z": -1.9472376869,
				"element": "C" 
			},
			{
				"x": -0.112920068,
				"y": -0.9893291058,
				"z": -3.0703642477,
				"element": "C" 
			},
			{
				"x": -0.7004454001,
				"y": -2.1305563117,
				"z": -2.4298523399,
				"element": "O" 
			},
			{
				"x": -0.5103698852,
				"y": -2.0635517993,
				"z": -1.0819710157,
				"element": "C" 
			},
			{
				"x": -0.7932639039,
				"y": -2.9637932965,
				"z": -0.3315257023,
				"element": "O" 
			},
			{
				"x": 1.0122354438,
				"y": 2.574255929,
				"z": 2.1455491741,
				"element": "H" 
			},
			{
				"x": 0.5243710903,
				"y": 1.724542275,
				"z": -0.0961401743,
				"element": "H" 
			},
			{
				"x": 0.13277152,
				"y": -2.2557911508,
				"z": 1.5247316854,
				"element": "H" 
			},
			{
				"x": 1.0129081774,
				"y": 0.5821362561,
				"z": -2.0321903954,
				"element": "H" 
			},
			{
				"x": -0.7529452914,
				"y": 0.7762119326,
				"z": -1.9203452554,
				"element": "H" 
			},
			{
				"x": 0.846817501,
				"y": -1.2862835909,
				"z": -3.5064246596,
				"element": "H" 
			},
			{
				"x": -0.7818174994,
				"y": -0.6532521235,
				"z": -3.8641083463,
				"element": "H" 
			}
		],
		 "valence_orbital": [ 
			{
				"type": "occ",
				"energy": -0.30675,
				"method": "rhf"
			},
			{
				"type": "occ",
				"energy": -0.30016,
				"method": "rhf"
			},
			{
				"type": "occ",
				"energy": -0.29589,
				"method": "rhf"
			},
			{
				"type": "occ",
				"energy": -0.27933,
				"method": "rhf"
			},
			{
				"type": "occ",
				"energy": -0.24383,
				"method": "rhf"
			},
			{
				"type": "unocc",
				"energy": -0.08592,
				"method": "rhf"
			},
			{
				"type": "unocc",
				"energy": -0.03864,
				"method": "rhf"
			},
			{
				"type": "unocc",
				"energy": -0.01966,
				"method": "rhf"
			},
			{
				"type": "unocc",
				"energy": 0.01274,
				"method": "rhf"
			},
			{
				"type": "unocc",
				"energy": 0.03154,
				"method": "rhf"
			}
		],
		"cosmo_sigma_profile": { 
			"-0.025": 0.0,
			"-0.024": 0.0,
			"-0.023": 0.0,
			"-0.022": 0.0,
			"-0.021": 0.0,
			"-0.02": 0.0,
			"-0.019": 0.0,
			"-0.018": 0.0,
			"-0.017": 0.0,
			"-0.016": 0.0,
			"-0.015": 0.0,
			"-0.014": 0.0,
			"-0.013": 0.0,
			"-0.012": 0.0,
			"-0.011": 0.0,
			"-0.01": 0.0476768956458,
			"-0.009": 3.23413864212,
			"-0.008": 12.314625877,
			"-0.007": 23.367359772,
			"-0.006": 16.7016983085,
			"-0.005": 11.7396292297,
			"-0.004": 10.2258982067,
			"-0.003": 9.08155857641,
			"-0.002": 13.3189679457,
			"-0.001": 15.6488473619,
			"0.0": 22.0387905134,
			"0.001": 15.9326543903,
			"0.002": 9.46170340308,
			"0.003": 12.1313616727,
			"0.004": 9.13524311114,
			"0.005": 6.10034834043,
			"0.006": 7.22640242671,
			"0.007": 13.8672839265,
			"0.008": 11.0968500796,
			"0.009": 7.9714134684,
			"0.01": 3.97289104265,
			"0.011": 3.54220844646,
			"0.012": 2.69284982403,
			"0.013": 0.546346527935,
			"0.014": 0.0,
			"0.015": 0.0,
			"0.016": 0.0,
			"0.017": 0.0,
			"0.018": 0.0,
			"0.019": 0.0,
			"0.02": 0.0,
			"0.021": 0.0,
			"0.022": 0.0,
			"0.023": 0.0,
			"0.024": 0.0,
			"0.025": 0.0
		}
	}
}
