{
	 "smiles": "OC(=O)CNC(=O)C1=COC=C1", 
	 "Tm": 439.15, 
	 "num_atms": 19, 
	 "gaussian": { 
		 "optdone": 1, 
		 "sigma_profile": "yes", 
		 "theory": "DFT", 
		 "functional": "B3LYP", 
		 "basiset": "6-31G**", 
		 "properties": { 
			 "R2extent": 2952.7313, 
			 "electric_dipole_moment_norm": 6.44098088493, 
			 "electric_quadrupole_moment_norm": 12.8446148362, 
			 "total_energy": -626.607495962, 
			 "HOMO_LUMO_gap": 0.20602, 
			 "cosmo_polarized_energy": -18.66, 
			 "cosmo_cavitation_energy": 24.19, 
			 "cosmo_dispersion_energy": -17.95, 
			 "cosmo_repulsion_energy": 1.42, 
			 "cosmo_total_nonelectrostatic_energy": 7.67, 
			 "SMD_solvation_energy": 6.71 
		},
		"coords": [
			{
				"x": 2.7146028554,
				"y": 0.3720582955,
				"z": -2.2072900626,
				"element": "O" 
			},
			{
				"x": 2.0392519922,
				"y": -0.7526207585,
				"z": -2.468147691,
				"element": "C" 
			},
			{
				"x": 2.584393441,
				"y": -1.8054412373,
				"z": -2.7030991277,
				"element": "O" 
			},
			{
				"x": 0.503200804,
				"y": -0.6084769714,
				"z": -2.4842652268,
				"element": "C" 
			},
			{
				"x": -0.0762938851,
				"y": -0.1176747079,
				"z": -1.2359399228,
				"element": "N" 
			},
			{
				"x": 0.0177957306,
				"y": 1.1841713543,
				"z": -0.8571893499,
				"element": "C" 
			},
			{
				"x": 0.6943098411,
				"y": 1.9983606191,
				"z": -1.5102666672,
				"element": "O" 
			},
			{
				"x": -0.7176756999,
				"y": 1.5899333812,
				"z": 0.3525565872,
				"element": "C" 
			},
			{
				"x": -0.5719940023,
				"y": 2.8207430689,
				"z": 0.9335233791,
				"element": "C" 
			},
			{
				"x": -1.3594750935,
				"y": 2.9259884516,
				"z": 2.0256670375,
				"element": "O" 
			},
			{
				"x": -2.0317358837,
				"y": 1.7415402297,
				"z": 2.1562166259,
				"element": "C" 
			},
			{
				"x": -1.6807503056,
				"y": 0.8852541361,
				"z": 1.1627161653,
				"element": "C" 
			},
			{
				"x": 2.081537475,
				"y": 1.1177677784,
				"z": -2.0517279102,
				"element": "H" 
			},
			{
				"x": 0.0831178107,
				"y": -1.5898022951,
				"z": -2.7011058071,
				"element": "H" 
			},
			{
				"x": 0.2259376927,
				"y": 0.0833504368,
				"z": -3.2883991037,
				"element": "H" 
			},
			{
				"x": -0.5045605828,
				"y": -0.7855174574,
				"z": -0.6135508665,
				"element": "H" 
			},
			{
				"x": 0.0362632246,
				"y": 3.6737004263,
				"z": 0.6786521491,
				"element": "H" 
			},
			{
				"x": -2.7121506788,
				"y": 1.6764110059,
				"z": 2.990453815,
				"element": "H" 
			},
			{
				"x": -2.0760747355,
				"y": -0.1103457563,
				"z": 1.0185959764,
				"element": "H" 
			}
		],
		 "valence_orbital": [ 
			{
				"type": "occ",
				"energy": -0.30347,
				"method": "rhf"
			},
			{
				"type": "occ",
				"energy": -0.29837,
				"method": "rhf"
			},
			{
				"type": "occ",
				"energy": -0.28558,
				"method": "rhf"
			},
			{
				"type": "occ",
				"energy": -0.25973,
				"method": "rhf"
			},
			{
				"type": "occ",
				"energy": -0.25166,
				"method": "rhf"
			},
			{
				"type": "unocc",
				"energy": -0.04564,
				"method": "rhf"
			},
			{
				"type": "unocc",
				"energy": -0.00294,
				"method": "rhf"
			},
			{
				"type": "unocc",
				"energy": 0.01369,
				"method": "rhf"
			},
			{
				"type": "unocc",
				"energy": 0.0535,
				"method": "rhf"
			},
			{
				"type": "unocc",
				"energy": 0.09676,
				"method": "rhf"
			}
		],
		"cosmo_sigma_profile": { 
			"-0.025": 0.0,
			"-0.024": 0.0,
			"-0.023": 0.0,
			"-0.022": 0.0,
			"-0.021": 0.0,
			"-0.02": 0.0,
			"-0.019": 0.0,
			"-0.018": 0.0,
			"-0.017": 0.0,
			"-0.016": 0.932719812368,
			"-0.015": 1.32140259403,
			"-0.014": 1.88186144616,
			"-0.013": 1.64056890631,
			"-0.012": 1.26525726016,
			"-0.011": 1.83650362299,
			"-0.01": 3.60273238522,
			"-0.009": 6.05725230251,
			"-0.008": 8.66069496786,
			"-0.007": 8.6782837113,
			"-0.006": 7.62875027862,
			"-0.005": 9.52637552721,
			"-0.004": 10.6275104739,
			"-0.003": 9.61995865219,
			"-0.002": 10.1560916372,
			"-0.001": 9.5260730978,
			"0.0": 11.7339191343,
			"0.001": 13.640464362,
			"0.002": 12.3920127844,
			"0.003": 9.11647694753,
			"0.004": 7.16899919415,
			"0.005": 4.44680466698,
			"0.006": 4.18943415612,
			"0.007": 5.71488900219,
			"0.008": 4.40321365433,
			"0.009": 3.08606943199,
			"0.01": 5.77370999446,
			"0.011": 8.28896003305,
			"0.012": 7.46411465935,
			"0.013": 3.29354744381,
			"0.014": 0.19876514647,
			"0.015": 0.0,
			"0.016": 0.0,
			"0.017": 0.0,
			"0.018": 0.0,
			"0.019": 0.0,
			"0.02": 0.0,
			"0.021": 0.0,
			"0.022": 0.0,
			"0.023": 0.0,
			"0.024": 0.0,
			"0.025": 0.0
		}
	}
}
