{
	 "smiles": "O=S(=O)(N1CCNCC1)C1=CN=CC=C1", 
	 "Tm": 362.15, 
	 "num_atms": 28, 
	 "gaussian": { 
		 "optdone": 1, 
		 "sigma_profile": "yes", 
		 "theory": "DFT", 
		 "functional": "B3LYP", 
		 "basiset": "6-31G**", 
		 "properties": { 
			 "R2extent": 4311.8337, 
			 "electric_dipole_moment_norm": 4.03820933707, 
			 "electric_quadrupole_moment_norm": 19.4677083346, 
			 "total_energy": -1063.58108997, 
			 "HOMO_LUMO_gap": 0.17832, 
			 "cosmo_polarized_energy": -16.48, 
			 "cosmo_cavitation_energy": 31.44, 
			 "cosmo_dispersion_energy": -22.87, 
			 "cosmo_repulsion_energy": 1.74, 
			 "cosmo_total_nonelectrostatic_energy": 10.31, 
			 "SMD_solvation_energy": -0.59 
		},
		"coords": [
			{
				"x": -2.1874641146,
				"y": -1.8323060294,
				"z": -0.9300879402,
				"element": "O" 
			},
			{
				"x": -0.8028468666,
				"y": -2.1085821075,
				"z": -0.5248829558,
				"element": "S" 
			},
			{
				"x": -0.0363933347,
				"y": -3.1864136264,
				"z": -1.1571588173,
				"element": "O" 
			},
			{
				"x": 0.1640140748,
				"y": -0.7222192869,
				"z": -0.6429804759,
				"element": "N" 
			},
			{
				"x": -0.4783286961,
				"y": 0.5424031843,
				"z": -0.2463670779,
				"element": "C" 
			},
			{
				"x": 0.6451358696,
				"y": 1.5569378737,
				"z": 0.1027980197,
				"element": "C" 
			},
			{
				"x": 1.9019092816,
				"y": 1.3104455974,
				"z": -0.6146721498,
				"element": "N" 
			},
			{
				"x": 1.6413249973,
				"y": 0.7622369353,
				"z": -1.9412667598,
				"element": "C" 
			},
			{
				"x": 0.9255376196,
				"y": -0.6166224044,
				"z": -1.9138211735,
				"element": "C" 
			},
			{
				"x": -0.8143577662,
				"y": -2.3858842432,
				"z": 1.2479876326,
				"element": "C" 
			},
			{
				"x": -1.9585548865,
				"y": -2.107762734,
				"z": 1.9989948604,
				"element": "C" 
			},
			{
				"x": -2.0230155244,
				"y": -2.3158415277,
				"z": 3.3205037425,
				"element": "N" 
			},
			{
				"x": -0.9385590058,
				"y": -2.8231009637,
				"z": 3.9176746429,
				"element": "C" 
			},
			{
				"x": 0.24346671,
				"y": -3.1496029335,
				"z": 3.2445890654,
				"element": "C" 
			},
			{
				"x": 0.3105168043,
				"y": -2.9270221208,
				"z": 1.87332069,
				"element": "C" 
			},
			{
				"x": -1.1150921882,
				"y": 0.368271962,
				"z": 0.6245362763,
				"element": "H" 
			},
			{
				"x": -1.1284278197,
				"y": 0.9178655665,
				"z": -1.0488872092,
				"element": "H" 
			},
			{
				"x": 0.8571673582,
				"y": 1.5295265548,
				"z": 1.1755787871,
				"element": "H" 
			},
			{
				"x": 0.2859766982,
				"y": 2.5678773503,
				"z": -0.1300729995,
				"element": "H" 
			},
			{
				"x": 2.4521493554,
				"y": 0.6376939286,
				"z": -0.0872305516,
				"element": "H" 
			},
			{
				"x": 1.0297765712,
				"y": 1.4902238701,
				"z": -2.4870680507,
				"element": "H" 
			},
			{
				"x": 2.5819794079,
				"y": 0.6674659642,
				"z": -2.4926210003,
				"element": "H" 
			},
			{
				"x": 1.6447995304,
				"y": -1.4375657223,
				"z": -1.9352331681,
				"element": "H" 
			},
			{
				"x": 0.2733155006,
				"y": -0.7201347858,
				"z": -2.7932085999,
				"element": "H" 
			},
			{
				"x": -2.8472113979,
				"y": -1.7166666144,
				"z": 1.5109445225,
				"element": "H" 
			},
			{
				"x": -1.0172539693,
				"y": -2.983134097,
				"z": 4.9914259824,
				"element": "H" 
			},
			{
				"x": 1.0841732251,
				"y": -3.5716332901,
				"z": 3.7855584538,
				"element": "H" 
			},
			{
				"x": 1.1950625659,
				"y": -3.1731563001,
				"z": 1.2953462537,
				"element": "H" 
			}
		],
		 "valence_orbital": [ 
			{
				"type": "occ",
				"energy": -0.305,
				"method": "rhf"
			},
			{
				"type": "occ",
				"energy": -0.28932,
				"method": "rhf"
			},
			{
				"type": "occ",
				"energy": -0.27155,
				"method": "rhf"
			},
			{
				"type": "occ",
				"energy": -0.25507,
				"method": "rhf"
			},
			{
				"type": "occ",
				"energy": -0.23407,
				"method": "rhf"
			},
			{
				"type": "unocc",
				"energy": -0.05575,
				"method": "rhf"
			},
			{
				"type": "unocc",
				"energy": -0.04057,
				"method": "rhf"
			},
			{
				"type": "unocc",
				"energy": 0.0484,
				"method": "rhf"
			},
			{
				"type": "unocc",
				"energy": 0.07327,
				"method": "rhf"
			},
			{
				"type": "unocc",
				"energy": 0.07763,
				"method": "rhf"
			}
		],
		"cosmo_sigma_profile": { 
			"-0.025": 0.0,
			"-0.024": 0.0,
			"-0.023": 0.0,
			"-0.022": 0.0,
			"-0.021": 0.0,
			"-0.02": 0.0,
			"-0.019": 0.0,
			"-0.018": 0.0,
			"-0.017": 0.0,
			"-0.016": 0.0,
			"-0.015": 0.0,
			"-0.014": 0.0,
			"-0.013": 0.0,
			"-0.012": 0.0,
			"-0.011": 0.0,
			"-0.01": 0.660885083566,
			"-0.009": 2.23591595731,
			"-0.008": 5.96067104745,
			"-0.007": 9.4828018643,
			"-0.006": 11.0721744413,
			"-0.005": 24.1831380872,
			"-0.004": 30.5768261313,
			"-0.003": 23.3889905359,
			"-0.002": 18.2056337973,
			"-0.001": 18.0028039173,
			"0.0": 18.1140652346,
			"0.001": 12.8287677451,
			"0.002": 8.35253958151,
			"0.003": 6.35790809053,
			"0.004": 6.24013386793,
			"0.005": 4.3281154164,
			"0.006": 4.6308317585,
			"0.007": 5.03814524908,
			"0.008": 5.74547519207,
			"0.009": 4.72370700893,
			"0.01": 8.41003701942,
			"0.011": 9.78173253182,
			"0.012": 3.99405697257,
			"0.013": 2.08641351433,
			"0.014": 1.33236938726,
			"0.015": 1.12744345,
			"0.016": 0.380818227675,
			"0.017": 0.786338554809,
			"0.018": 0.428915337693,
			"0.019": 0.0,
			"0.02": 0.0,
			"0.021": 0.0,
			"0.022": 0.0,
			"0.023": 0.0,
			"0.024": 0.0,
			"0.025": 0.0
		}
	}
}
