{
	 "smiles": "NC(CCONC(N)=N)C(O)=O", 
	 "Tm": 457.15, 
	 "num_atms": 24, 
	 "gaussian": { 
		 "optdone": 1, 
		 "sigma_profile": "yes", 
		 "theory": "DFT", 
		 "functional": "B3LYP", 
		 "basiset": "6-31G**", 
		 "properties": { 
			 "R2extent": 3001.8194, 
			 "electric_dipole_moment_norm": 6.48514452884, 
			 "electric_quadrupole_moment_norm": 17.640578802, 
			 "total_energy": -642.392710946, 
			 "HOMO_LUMO_gap": 0.23825, 
			 "cosmo_polarized_energy": -26.14, 
			 "cosmo_cavitation_energy": 27.36, 
			 "cosmo_dispersion_energy": -19.93, 
			 "cosmo_repulsion_energy": 1.63, 
			 "cosmo_total_nonelectrostatic_energy": 9.06, 
			 "SMD_solvation_energy": 4.75 
		},
		"coords": [
			{
				"x": 2.0416498255,
				"y": -3.2306896666,
				"z": 1.9888783874,
				"element": "N" 
			},
			{
				"x": 1.3327558328,
				"y": -2.1558541366,
				"z": 1.2681260848,
				"element": "C" 
			},
			{
				"x": 1.2144309209,
				"y": -2.5228985451,
				"z": -0.2275741378,
				"element": "C" 
			},
			{
				"x": 0.5293870099,
				"y": -1.4723997953,
				"z": -1.0943237577,
				"element": "C" 
			},
			{
				"x": 1.2808911521,
				"y": -0.2626561404,
				"z": -0.9431540961,
				"element": "O" 
			},
			{
				"x": 0.803343809,
				"y": 0.7205920408,
				"z": -1.8454060504,
				"element": "N" 
			},
			{
				"x": 0.103122239,
				"y": 1.7760999937,
				"z": -1.1833959401,
				"element": "C" 
			},
			{
				"x": 0.0102661866,
				"y": 2.8799892348,
				"z": -2.0410333422,
				"element": "N" 
			},
			{
				"x": -0.3919747213,
				"y": 1.7846388576,
				"z": -0.0157121326,
				"element": "N" 
			},
			{
				"x": -0.0678450182,
				"y": -1.9946187739,
				"z": 1.8906815046,
				"element": "C" 
			},
			{
				"x": -0.452883421,
				"y": -3.0410481088,
				"z": 2.6306835514,
				"element": "O" 
			},
			{
				"x": -0.76890062,
				"y": -1.0251100266,
				"z": 1.697003462,
				"element": "O" 
			},
			{
				"x": 2.6885131189,
				"y": -3.7242107936,
				"z": 1.3808728005,
				"element": "H" 
			},
			{
				"x": 2.5819475229,
				"y": -2.8562425125,
				"z": 2.76399474,
				"element": "H" 
			},
			{
				"x": 1.8306546885,
				"y": -1.1836785359,
				"z": 1.3433753711,
				"element": "H" 
			},
			{
				"x": 2.2300695105,
				"y": -2.6834933079,
				"z": -0.6118309417,
				"element": "H" 
			},
			{
				"x": 0.6721135135,
				"y": -3.471373499,
				"z": -0.3281036886,
				"element": "H" 
			},
			{
				"x": -0.5079576317,
				"y": -1.3106433485,
				"z": -0.7840605051,
				"element": "H" 
			},
			{
				"x": 0.5396517337,
				"y": -1.7885136427,
				"z": -2.1448785894,
				"element": "H" 
			},
			{
				"x": 1.6305393658,
				"y": 1.0887936089,
				"z": -2.3118189628,
				"element": "H" 
			},
			{
				"x": -0.2510830936,
				"y": 2.6368627679,
				"z": -2.9903033814,
				"element": "H" 
			},
			{
				"x": -0.6204445744,
				"y": 3.5681601272,
				"z": -1.6477317996,
				"element": "H" 
			},
			{
				"x": -0.165986416,
				"y": 0.9350617274,
				"z": 0.5035211856,
				"element": "H" 
			},
			{
				"x": 0.3365390665,
				"y": -3.6370675248,
				"z": 2.6392902383,
				"element": "H" 
			}
		],
		 "valence_orbital": [ 
			{
				"type": "occ",
				"energy": -0.28217,
				"method": "rhf"
			},
			{
				"type": "occ",
				"energy": -0.25985,
				"method": "rhf"
			},
			{
				"type": "occ",
				"energy": -0.25927,
				"method": "rhf"
			},
			{
				"type": "occ",
				"energy": -0.24537,
				"method": "rhf"
			},
			{
				"type": "occ",
				"energy": -0.22617,
				"method": "rhf"
			},
			{
				"type": "unocc",
				"energy": 0.01208,
				"method": "rhf"
			},
			{
				"type": "unocc",
				"energy": 0.05224,
				"method": "rhf"
			},
			{
				"type": "unocc",
				"energy": 0.05675,
				"method": "rhf"
			},
			{
				"type": "unocc",
				"energy": 0.07585,
				"method": "rhf"
			},
			{
				"type": "unocc",
				"energy": 0.08926,
				"method": "rhf"
			}
		],
		"cosmo_sigma_profile": { 
			"-0.025": 0.0,
			"-0.024": 0.0,
			"-0.023": 0.0,
			"-0.022": 0.0,
			"-0.021": 0.0,
			"-0.02": 0.0,
			"-0.019": 0.0,
			"-0.018": 0.0,
			"-0.017": 0.0,
			"-0.016": 0.0,
			"-0.015": 0.0,
			"-0.014": 0.436434209562,
			"-0.013": 1.84678324244,
			"-0.012": 5.621942512,
			"-0.011": 6.09548726046,
			"-0.01": 6.80554715085,
			"-0.009": 8.50476605932,
			"-0.008": 6.99499341804,
			"-0.007": 7.66056873615,
			"-0.006": 9.6973747899,
			"-0.005": 14.3322333076,
			"-0.004": 16.4508360875,
			"-0.003": 11.9225594965,
			"-0.002": 9.25934164171,
			"-0.001": 6.49044193487,
			"0.0": 7.34363127892,
			"0.001": 8.41908499759,
			"0.002": 7.4318103946,
			"0.003": 7.59875984913,
			"0.004": 8.09069539521,
			"0.005": 6.85781640777,
			"0.006": 5.74827791028,
			"0.007": 6.34769325257,
			"0.008": 8.12405379306,
			"0.009": 7.1072166478,
			"0.01": 7.28957688279,
			"0.011": 6.02655710669,
			"0.012": 3.61590988542,
			"0.013": 4.08679747784,
			"0.014": 2.2235312096,
			"0.015": 0.857918541838,
			"0.016": 1.29807563567,
			"0.017": 1.34413093118,
			"0.018": 0.852124836524,
			"0.019": 0.514813458658,
			"0.02": 0.0,
			"0.021": 0.0,
			"0.022": 0.0,
			"0.023": 0.0,
			"0.024": 0.0,
			"0.025": 0.0
		}
	}
}
