{
	 "smiles": "C1CSCCS1", 
	 "Tm": 385.15, 
	 "num_atms": 14, 
	 "gaussian": { 
		 "optdone": 1, 
		 "sigma_profile": "yes", 
		 "theory": "DFT", 
		 "functional": "B3LYP", 
		 "basiset": "6-31G**", 
		 "properties": { 
			 "R2extent": 1285.6375, 
			 "electric_dipole_moment_norm": 0.00140712472795, 
			 "electric_quadrupole_moment_norm": 8.42235951263, 
			 "total_energy": -953.618956417, 
			 "HOMO_LUMO_gap": 0.24619, 
			 "cosmo_polarized_energy": -6.41, 
			 "cosmo_cavitation_energy": 18.55, 
			 "cosmo_dispersion_energy": -15.41, 
			 "cosmo_repulsion_energy": 1.2, 
			 "cosmo_total_nonelectrostatic_energy": 4.34, 
			 "SMD_solvation_energy": 1.86 
		},
		"coords": [
			{
				"x": -0.3756868437,
				"y": 0.6186230039,
				"z": -2.6900928122,
				"element": "C" 
			},
			{
				"x": -1.068698752,
				"y": 1.1925472838,
				"z": -1.4570483208,
				"element": "C" 
			},
			{
				"x": -0.9197431832,
				"y": 0.1191346732,
				"z": 0.03563069,
				"element": "S" 
			},
			{
				"x": 0.7767316787,
				"y": -0.5703368493,
				"z": -0.185951167,
				"element": "C" 
			},
			{
				"x": 1.7580192087,
				"y": 0.4186927178,
				"z": -0.8095760886,
				"element": "C" 
			},
			{
				"x": 1.4648026288,
				"y": 0.7097571714,
				"z": -2.6072761873,
				"element": "S" 
			},
			{
				"x": -0.642903504,
				"y": 1.2028054249,
				"z": -3.5761899017,
				"element": "H" 
			},
			{
				"x": -0.6923568503,
				"y": -0.4143163323,
				"z": -2.859240608,
				"element": "H" 
			},
			{
				"x": -2.1456245058,
				"y": 1.2719676782,
				"z": -1.6352775484,
				"element": "H" 
			},
			{
				"x": -0.6885522534,
				"y": 2.19414992,
				"z": -1.2376288997,
				"element": "H" 
			},
			{
				"x": 0.7334051727,
				"y": -1.4888798771,
				"z": -0.7777838939,
				"element": "H" 
			},
			{
				"x": 1.1028794217,
				"y": -0.8351500291,
				"z": 0.8246653549,
				"element": "H" 
			},
			{
				"x": 1.7377578236,
				"y": 1.3685921238,
				"z": -0.2681461552,
				"element": "H" 
			},
			{
				"x": 2.7762699583,
				"y": 0.0211130908,
				"z": -0.7553844621,
				"element": "H" 
			}
		],
		 "valence_orbital": [ 
			{
				"type": "occ",
				"energy": -0.3394,
				"method": "rhf"
			},
			{
				"type": "occ",
				"energy": -0.32643,
				"method": "rhf"
			},
			{
				"type": "occ",
				"energy": -0.29596,
				"method": "rhf"
			},
			{
				"type": "occ",
				"energy": -0.22657,
				"method": "rhf"
			},
			{
				"type": "occ",
				"energy": -0.22187,
				"method": "rhf"
			},
			{
				"type": "unocc",
				"energy": 0.02432,
				"method": "rhf"
			},
			{
				"type": "unocc",
				"energy": 0.04046,
				"method": "rhf"
			},
			{
				"type": "unocc",
				"energy": 0.04785,
				"method": "rhf"
			},
			{
				"type": "unocc",
				"energy": 0.08347,
				"method": "rhf"
			},
			{
				"type": "unocc",
				"energy": 0.09377,
				"method": "rhf"
			}
		],
		"cosmo_sigma_profile": { 
			"-0.025": 0.0,
			"-0.024": 0.0,
			"-0.023": 0.0,
			"-0.022": 0.0,
			"-0.021": 0.0,
			"-0.02": 0.0,
			"-0.019": 0.0,
			"-0.018": 0.0,
			"-0.017": 0.0,
			"-0.016": 0.0,
			"-0.015": 0.0,
			"-0.014": 0.0,
			"-0.013": 0.0,
			"-0.012": 0.0,
			"-0.011": 0.0,
			"-0.01": 0.0,
			"-0.009": 0.0,
			"-0.008": 0.0,
			"-0.007": 1.31577527316,
			"-0.006": 9.35734935727,
			"-0.005": 15.7727463674,
			"-0.004": 19.1982196575,
			"-0.003": 19.1711101874,
			"-0.002": 15.5713862702,
			"-0.001": 8.23974918737,
			"0.0": 5.71629117342,
			"0.001": 5.97537708095,
			"0.002": 3.9231388554,
			"0.003": 5.72841506321,
			"0.004": 4.06037357816,
			"0.005": 5.88319650714,
			"0.006": 6.96427876245,
			"0.007": 5.2328334292,
			"0.008": 5.52471605828,
			"0.009": 3.13909192631,
			"0.01": 4.83988891733,
			"0.011": 2.94885104601,
			"0.012": 0.526259613871,
			"0.013": 0.0,
			"0.014": 0.0,
			"0.015": 0.0,
			"0.016": 0.0,
			"0.017": 0.0,
			"0.018": 0.0,
			"0.019": 0.0,
			"0.02": 0.0,
			"0.021": 0.0,
			"0.022": 0.0,
			"0.023": 0.0,
			"0.024": 0.0,
			"0.025": 0.0
		}
	}
}
