{
	 "smiles": "OC(CCl)CCl", 
	 "Tm": 269.15, 
	 "num_atms": 12, 
	 "gaussian": { 
		 "optdone": 1, 
		 "sigma_profile": "yes", 
		 "theory": "DFT", 
		 "functional": "B3LYP", 
		 "basiset": "6-31G**", 
		 "properties": { 
			 "R2extent": 2143.6639, 
			 "electric_dipole_moment_norm": 3.4309087149, 
			 "electric_quadrupole_moment_norm": 6.85289254987, 
			 "total_energy": -1113.53524059, 
			 "HOMO_LUMO_gap": 0.28013, 
			 "cosmo_polarized_energy": -12.32, 
			 "cosmo_cavitation_energy": 18.62, 
			 "cosmo_dispersion_energy": -14.02, 
			 "cosmo_repulsion_energy": 1.22, 
			 "cosmo_total_nonelectrostatic_energy": 5.82, 
			 "SMD_solvation_energy": 2.54 
		},
		"coords": [
			{
				"x": -1.2154873048,
				"y": -1.2884449531,
				"z": -1.6240094698,
				"element": "O" 
			},
			{
				"x": 0.2108169843,
				"y": -1.2244515917,
				"z": -1.636106409,
				"element": "C" 
			},
			{
				"x": 0.6212208928,
				"y": -0.2691499195,
				"z": -2.764672936,
				"element": "C" 
			},
			{
				"x": 2.3470156555,
				"y": -0.3933063631,
				"z": -3.285952689,
				"element": "Cl" 
			},
			{
				"x": 0.6689153379,
				"y": -0.8500297214,
				"z": -0.2202277064,
				"element": "C" 
			},
			{
				"x": 2.410845639,
				"y": -1.1750660579,
				"z": 0.1341442357,
				"element": "Cl" 
			},
			{
				"x": -1.5615723364,
				"y": -0.4084592691,
				"z": -1.4166544703,
				"element": "H" 
			},
			{
				"x": 0.549286553,
				"y": -2.2366724215,
				"z": -1.8735279659,
				"element": "H" 
			},
			{
				"x": 0.4501689829,
				"y": 0.773075975,
				"z": -2.4785187888,
				"element": "H" 
			},
			{
				"x": 0.0139911868,
				"y": -0.5030121719,
				"z": -3.6393183441,
				"element": "H" 
			},
			{
				"x": 0.090849364,
				"y": -1.444646484,
				"z": 0.4873693577,
				"element": "H" 
			},
			{
				"x": 0.496849045,
				"y": 0.2118629782,
				"z": -0.019824814,
				"element": "H" 
			}
		],
		 "valence_orbital": [ 
			{
				"type": "occ",
				"energy": -0.32003,
				"method": "rhf"
			},
			{
				"type": "occ",
				"energy": -0.31638,
				"method": "rhf"
			},
			{
				"type": "occ",
				"energy": -0.30272,
				"method": "rhf"
			},
			{
				"type": "occ",
				"energy": -0.29283,
				"method": "rhf"
			},
			{
				"type": "occ",
				"energy": -0.27926,
				"method": "rhf"
			},
			{
				"type": "unocc",
				"energy": 0.00087,
				"method": "rhf"
			},
			{
				"type": "unocc",
				"energy": 0.03109,
				"method": "rhf"
			},
			{
				"type": "unocc",
				"energy": 0.06919,
				"method": "rhf"
			},
			{
				"type": "unocc",
				"energy": 0.08977,
				"method": "rhf"
			},
			{
				"type": "unocc",
				"energy": 0.11453,
				"method": "rhf"
			}
		],
		"cosmo_sigma_profile": { 
			"-0.025": 0.0,
			"-0.024": 0.0,
			"-0.023": 0.0,
			"-0.022": 0.0,
			"-0.021": 0.0,
			"-0.02": 0.0,
			"-0.019": 0.0,
			"-0.018": 0.00411253887381,
			"-0.017": 1.00803735381,
			"-0.016": 1.19848510772,
			"-0.015": 1.48299896311,
			"-0.014": 1.12080795812,
			"-0.013": 1.34675437503,
			"-0.012": 1.63832909044,
			"-0.011": 0.852847986424,
			"-0.01": 1.11753644357,
			"-0.009": 2.16080114775,
			"-0.008": 4.5452688296,
			"-0.007": 7.07055093923,
			"-0.006": 8.00996428173,
			"-0.005": 9.89392941685,
			"-0.004": 8.28876919267,
			"-0.003": 6.43323127119,
			"-0.002": 4.35191284102,
			"-0.001": 4.83143326208,
			"0.0": 7.66230753369,
			"0.001": 6.81114409944,
			"0.002": 7.19877820741,
			"0.003": 7.00273791672,
			"0.004": 9.45855900829,
			"0.005": 10.0138463343,
			"0.006": 16.5778376478,
			"0.007": 9.54726529733,
			"0.008": 3.86019052369,
			"0.009": 0.945899769056,
			"0.01": 1.51139346181,
			"0.011": 1.05583990719,
			"0.012": 1.87468481157,
			"0.013": 1.20972429641,
			"0.014": 0.0,
			"0.015": 0.0,
			"0.016": 0.0,
			"0.017": 0.0,
			"0.018": 0.0,
			"0.019": 0.0,
			"0.02": 0.0,
			"0.021": 0.0,
			"0.022": 0.0,
			"0.023": 0.0,
			"0.024": 0.0,
			"0.025": 0.0
		}
	}
}
