{
	 "smiles": "CS(=O)(=O)NC1=CC=C(O)C=C1", 
	 "Tm": 432.15, 
	 "num_atms": 21, 
	 "gaussian": { 
		 "optdone": 1, 
		 "sigma_profile": "yes", 
		 "theory": "DFT", 
		 "functional": "B3LYP", 
		 "basiset": "6-31G**", 
		 "properties": { 
			 "R2extent": 3539.3968, 
			 "electric_dipole_moment_norm": 6.05637230362, 
			 "electric_quadrupole_moment_norm": 16.8294186008, 
			 "total_energy": -950.70765971, 
			 "HOMO_LUMO_gap": 0.20185, 
			 "cosmo_polarized_energy": -20.98, 
			 "cosmo_cavitation_energy": 26.46, 
			 "cosmo_dispersion_energy": -19.78, 
			 "cosmo_repulsion_energy": 1.53, 
			 "cosmo_total_nonelectrostatic_energy": 8.21, 
			 "SMD_solvation_energy": 4.53 
		},
		"coords": [
			{
				"x": 3.4470826535,
				"y": -0.1033330799,
				"z": 1.170263772,
				"element": "C" 
			},
			{
				"x": 3.1965273764,
				"y": -1.1762879659,
				"z": -0.2620417882,
				"element": "S" 
			},
			{
				"x": 4.5001299601,
				"y": -1.4711397998,
				"z": -0.8568295625,
				"element": "O" 
			},
			{
				"x": 2.2771814099,
				"y": -2.2343087029,
				"z": 0.1534848166,
				"element": "O" 
			},
			{
				"x": 2.4104832033,
				"y": -0.2209633669,
				"z": -1.4163809151,
				"element": "N" 
			},
			{
				"x": 1.1838314363,
				"y": 0.4582678782,
				"z": -1.1569750062,
				"element": "C" 
			},
			{
				"x": 0.0455183527,
				"y": -0.251015148,
				"z": -0.7425749229,
				"element": "C" 
			},
			{
				"x": -1.1518723435,
				"y": 0.4183683284,
				"z": -0.517759764,
				"element": "C" 
			},
			{
				"x": -1.2442845456,
				"y": 1.798578858,
				"z": -0.7354798586,
				"element": "C" 
			},
			{
				"x": -2.4545390485,
				"y": 2.3915269717,
				"z": -0.513606463,
				"element": "O" 
			},
			{
				"x": -0.1184317281,
				"y": 2.5058599059,
				"z": -1.1670199483,
				"element": "C" 
			},
			{
				"x": 1.0917156367,
				"y": 1.8394360353,
				"z": -1.3595838924,
				"element": "C" 
			},
			{
				"x": 3.8819752799,
				"y": -0.7221492464,
				"z": 1.9567947281,
				"element": "H" 
			},
			{
				"x": 4.1302955011,
				"y": 0.7019035406,
				"z": 0.8973438829,
				"element": "H" 
			},
			{
				"x": 2.4808272669,
				"y": 0.2896462312,
				"z": 1.4893570173,
				"element": "H" 
			},
			{
				"x": 3.0946166011,
				"y": 0.2910265923,
				"z": -1.9631227041,
				"element": "H" 
			},
			{
				"x": 0.1120669182,
				"y": -1.3228430071,
				"z": -0.598770973,
				"element": "H" 
			},
			{
				"x": -2.0360855289,
				"y": -0.1196097554,
				"z": -0.1927671845,
				"element": "H" 
			},
			{
				"x": -2.3901618588,
				"y": 3.3344090178,
				"z": -0.7129116457,
				"element": "H" 
			},
			{
				"x": -0.1783731435,
				"y": 3.5777648811,
				"z": -1.3421354515,
				"element": "H" 
			},
			{
				"x": 1.9664966007,
				"y": 2.4002618319,
				"z": -1.6793841369,
				"element": "H" 
			}
		],
		 "valence_orbital": [ 
			{
				"type": "occ",
				"energy": -0.3069,
				"method": "rhf"
			},
			{
				"type": "occ",
				"energy": -0.30509,
				"method": "rhf"
			},
			{
				"type": "occ",
				"energy": -0.29673,
				"method": "rhf"
			},
			{
				"type": "occ",
				"energy": -0.26539,
				"method": "rhf"
			},
			{
				"type": "occ",
				"energy": -0.21903,
				"method": "rhf"
			},
			{
				"type": "unocc",
				"energy": -0.01718,
				"method": "rhf"
			},
			{
				"type": "unocc",
				"energy": -0.00369,
				"method": "rhf"
			},
			{
				"type": "unocc",
				"energy": 0.05953,
				"method": "rhf"
			},
			{
				"type": "unocc",
				"energy": 0.06155,
				"method": "rhf"
			},
			{
				"type": "unocc",
				"energy": 0.07399,
				"method": "rhf"
			}
		],
		"cosmo_sigma_profile": { 
			"-0.025": 0.0,
			"-0.024": 0.0,
			"-0.023": 0.0,
			"-0.022": 0.0,
			"-0.021": 0.0,
			"-0.02": 0.0,
			"-0.019": 0.0,
			"-0.018": 0.553079410573,
			"-0.017": 1.03149106525,
			"-0.016": 1.16955773162,
			"-0.015": 1.8557704135,
			"-0.014": 2.16460438122,
			"-0.013": 2.61796417343,
			"-0.012": 2.2690655286,
			"-0.011": 2.25463915287,
			"-0.01": 2.71304715138,
			"-0.009": 4.7347402504,
			"-0.008": 6.82038965655,
			"-0.007": 9.50322855765,
			"-0.006": 11.0248439939,
			"-0.005": 12.3771881744,
			"-0.004": 14.1564836792,
			"-0.003": 10.1941565937,
			"-0.002": 8.43673708802,
			"-0.001": 7.91105803776,
			"0.0": 5.51493587028,
			"0.001": 7.73498385901,
			"0.002": 8.71277057156,
			"0.003": 12.4189324509,
			"0.004": 17.1528054317,
			"0.005": 11.4813864613,
			"0.006": 4.58945065368,
			"0.007": 5.39690587928,
			"0.008": 4.79703455855,
			"0.009": 5.09463873513,
			"0.01": 8.17118142677,
			"0.011": 12.5557412552,
			"0.012": 4.98241643167,
			"0.013": 0.0,
			"0.014": 0.0,
			"0.015": 0.0,
			"0.016": 0.0,
			"0.017": 0.0,
			"0.018": 0.0,
			"0.019": 0.0,
			"0.02": 0.0,
			"0.021": 0.0,
			"0.022": 0.0,
			"0.023": 0.0,
			"0.024": 0.0,
			"0.025": 0.0
		}
	}
}
