{
	 "smiles": "CNC(=O)C1=C(Cl)C(=CC=C1Cl)S(=O)(=O)NC", 
	 "Tm": 505.15, 
	 "num_atms": 27, 
	 "gaussian": { 
		 "optdone": 1, 
		 "sigma_profile": "yes", 
		 "theory": "DFT", 
		 "functional": "B3LYP", 
		 "basiset": "6-31G**", 
		 "properties": { 
			 "R2extent": 5585.6658, 
			 "electric_dipole_moment_norm": 6.64717852175, 
			 "electric_quadrupole_moment_norm": 10.5161724848, 
			 "total_energy": -2002.65165946, 
			 "HOMO_LUMO_gap": 0.19976, 
			 "cosmo_polarized_energy": -21.79, 
			 "cosmo_cavitation_energy": 35.76, 
			 "cosmo_dispersion_energy": -25.28, 
			 "cosmo_repulsion_energy": 1.94, 
			 "cosmo_total_nonelectrostatic_energy": 12.41, 
			 "SMD_solvation_energy": 5.23 
		},
		"coords": [
			{
				"x": -1.2278092494,
				"y": -2.2815215793,
				"z": 1.755128378,
				"element": "C" 
			},
			{
				"x": -0.0217953387,
				"y": -2.6516468856,
				"z": 1.0366239287,
				"element": "N" 
			},
			{
				"x": 0.9173873672,
				"y": -1.8407352929,
				"z": 0.4779271571,
				"element": "C" 
			},
			{
				"x": 1.8844597649,
				"y": -2.2635206794,
				"z": -0.136154722,
				"element": "O" 
			},
			{
				"x": 0.7365442341,
				"y": -0.3393655436,
				"z": 0.6586686352,
				"element": "C" 
			},
			{
				"x": 0.0424811309,
				"y": 0.4239307379,
				"z": -0.2916816882,
				"element": "C" 
			},
			{
				"x": -0.7618403639,
				"y": -0.4255152877,
				"z": -1.5904084676,
				"element": "Cl" 
			},
			{
				"x": -0.0162576106,
				"y": 1.8214908468,
				"z": -0.1887711925,
				"element": "C" 
			},
			{
				"x": 0.640742025,
				"y": 2.4601999978,
				"z": 0.8652695663,
				"element": "C" 
			},
			{
				"x": 1.3362770636,
				"y": 1.7241175084,
				"z": 1.8178254573,
				"element": "C" 
			},
			{
				"x": 1.3778870804,
				"y": 0.3365455754,
				"z": 1.7059660553,
				"element": "C" 
			},
			{
				"x": 2.2447759973,
				"y": -0.5743935536,
				"z": 2.9245699029,
				"element": "Cl" 
			},
			{
				"x": -0.8468366036,
				"y": 2.9009827704,
				"z": -1.3816548005,
				"element": "S" 
			},
			{
				"x": -0.3557791304,
				"y": 2.5985197897,
				"z": -2.7243233585,
				"element": "O" 
			},
			{
				"x": -0.7499584433,
				"y": 4.2528588444,
				"z": -0.8169278258,
				"element": "O" 
			},
			{
				"x": -2.4595054484,
				"y": 2.4171105704,
				"z": -1.2815835833,
				"element": "N" 
			},
			{
				"x": -3.1718719486,
				"y": 2.115803701,
				"z": -2.5330873087,
				"element": "C" 
			},
			{
				"x": -1.2625090664,
				"y": -2.7740173757,
				"z": 2.7326361933,
				"element": "H" 
			},
			{
				"x": -1.239085733,
				"y": -1.2036214116,
				"z": 1.9191145331,
				"element": "H" 
			},
			{
				"x": -2.1292236632,
				"y": -2.5512235429,
				"z": 1.1926321653,
				"element": "H" 
			},
			{
				"x": 0.1557655327,
				"y": -3.6345342597,
				"z": 0.8720718049,
				"element": "H" 
			},
			{
				"x": 0.5945290737,
				"y": 3.5411804712,
				"z": 0.9252983795,
				"element": "H" 
			},
			{
				"x": 1.8437004399,
				"y": 2.2178234296,
				"z": 2.6382650544,
				"element": "H" 
			},
			{
				"x": -2.9422857073,
				"y": 3.0889309462,
				"z": -0.6906854509,
				"element": "H" 
			},
			{
				"x": -3.365432786,
				"y": 3.0021193529,
				"z": -3.1478350722,
				"element": "H" 
			},
			{
				"x": -2.5827661964,
				"y": 1.4087793289,
				"z": -3.1153890567,
				"element": "H" 
			},
			{
				"x": -4.1216924206,
				"y": 1.6458015408,
				"z": -2.2655946847,
				"element": "H" 
			}
		],
		 "valence_orbital": [ 
			{
				"type": "occ",
				"energy": -0.29115,
				"method": "rhf"
			},
			{
				"type": "occ",
				"energy": -0.28059,
				"method": "rhf"
			},
			{
				"type": "occ",
				"energy": -0.26594,
				"method": "rhf"
			},
			{
				"type": "occ",
				"energy": -0.26213,
				"method": "rhf"
			},
			{
				"type": "occ",
				"energy": -0.25669,
				"method": "rhf"
			},
			{
				"type": "unocc",
				"energy": -0.05693,
				"method": "rhf"
			},
			{
				"type": "unocc",
				"energy": -0.04337,
				"method": "rhf"
			},
			{
				"type": "unocc",
				"energy": -0.00769,
				"method": "rhf"
			},
			{
				"type": "unocc",
				"energy": 0.01098,
				"method": "rhf"
			},
			{
				"type": "unocc",
				"energy": 0.03165,
				"method": "rhf"
			}
		],
		"cosmo_sigma_profile": { 
			"-0.025": 0.0,
			"-0.024": 0.0,
			"-0.023": 0.0,
			"-0.022": 0.0,
			"-0.021": 0.0,
			"-0.02": 0.0,
			"-0.019": 0.0,
			"-0.018": 0.0,
			"-0.017": 0.0,
			"-0.016": 0.0,
			"-0.015": 0.6919990447,
			"-0.014": 2.76642376669,
			"-0.013": 1.57799169958,
			"-0.012": 2.5958191817,
			"-0.011": 1.99436106396,
			"-0.01": 1.77340049932,
			"-0.009": 4.22714648434,
			"-0.008": 5.63892538066,
			"-0.007": 5.92409879864,
			"-0.006": 13.3381840853,
			"-0.005": 18.8970058535,
			"-0.004": 20.0418852391,
			"-0.003": 26.4184899748,
			"-0.002": 24.6122269155,
			"-0.001": 22.3984381934,
			"0.0": 18.4297367693,
			"0.001": 15.4398330255,
			"0.002": 15.8101522406,
			"0.003": 18.2838666928,
			"0.004": 8.94273751789,
			"0.005": 7.16734105185,
			"0.006": 5.21403772323,
			"0.007": 6.30326741662,
			"0.008": 5.08089136952,
			"0.009": 6.46006041145,
			"0.01": 10.1628085434,
			"0.011": 8.53295305065,
			"0.012": 3.40119491744,
			"0.013": 5.58734461659,
			"0.014": 1.17538766496,
			"0.015": 0.0,
			"0.016": 0.0,
			"0.017": 0.0,
			"0.018": 0.0,
			"0.019": 0.0,
			"0.02": 0.0,
			"0.021": 0.0,
			"0.022": 0.0,
			"0.023": 0.0,
			"0.024": 0.0,
			"0.025": 0.0
		}
	}
}
