{
	 "smiles": "OC(=O)CC1=CC=C(C=C1)N1C=CC=N1", 
	 "Tm": 404.15, 
	 "num_atms": 25, 
	 "gaussian": { 
		 "optdone": 1, 
		 "sigma_profile": "yes", 
		 "theory": "DFT", 
		 "functional": "B3LYP", 
		 "basiset": "6-31G**", 
		 "properties": { 
			 "R2extent": 5459.0402, 
			 "electric_dipole_moment_norm": 5.11255822559, 
			 "electric_quadrupole_moment_norm": 18.5203950247, 
			 "total_energy": -685.134405674, 
			 "HOMO_LUMO_gap": 0.19217, 
			 "cosmo_polarized_energy": -16.85, 
			 "cosmo_cavitation_energy": 29.83, 
			 "cosmo_dispersion_energy": -21.64, 
			 "cosmo_repulsion_energy": 1.67, 
			 "cosmo_total_nonelectrostatic_energy": 9.86, 
			 "SMD_solvation_energy": 6.07 
		},
		"coords": [
			{
				"x": 0.8002812057,
				"y": 0.1904442637,
				"z": -3.9744416644,
				"element": "O" 
			},
			{
				"x": 0.4194849288,
				"y": -1.1037620285,
				"z": -4.0687258729,
				"element": "C" 
			},
			{
				"x": -0.225201706,
				"y": -1.4948411936,
				"z": -5.0089215442,
				"element": "O" 
			},
			{
				"x": 0.8922625486,
				"y": -2.0450989936,
				"z": -2.9454306079,
				"element": "C" 
			},
			{
				"x": 1.2707247897,
				"y": -1.3828283534,
				"z": -1.6409367771,
				"element": "C" 
			},
			{
				"x": 0.3053801342,
				"y": -1.1222843254,
				"z": -0.6573813468,
				"element": "C" 
			},
			{
				"x": 0.6382660718,
				"y": -0.4801713414,
				"z": 0.5318482723,
				"element": "C" 
			},
			{
				"x": 1.9628595255,
				"y": -0.0906474809,
				"z": 0.7683124395,
				"element": "C" 
			},
			{
				"x": 2.9413735039,
				"y": -0.3361841787,
				"z": -0.2012368319,
				"element": "C" 
			},
			{
				"x": 2.5899855259,
				"y": -0.9730847565,
				"z": -1.3890707383,
				"element": "C" 
			},
			{
				"x": 2.3260003862,
				"y": 0.5497347547,
				"z": 1.9778799566,
				"element": "N" 
			},
			{
				"x": 1.6324459838,
				"y": 0.5960489564,
				"z": 3.1582561359,
				"element": "C" 
			},
			{
				"x": 2.3947374834,
				"y": 1.3246512851,
				"z": 4.0429268616,
				"element": "C" 
			},
			{
				"x": 3.5487287965,
				"y": 1.6815305738,
				"z": 3.3051587193,
				"element": "C" 
			},
			{
				"x": 3.509562109,
				"y": 1.2143924867,
				"z": 2.0632702782,
				"element": "N" 
			},
			{
				"x": 1.2707232949,
				"y": 0.3320684991,
				"z": -3.1368697638,
				"element": "H" 
			},
			{
				"x": 1.7478664868,
				"y": -2.5956078665,
				"z": -3.3555663618,
				"element": "H" 
			},
			{
				"x": 0.0926733689,
				"y": -2.7773732166,
				"z": -2.808596168,
				"element": "H" 
			},
			{
				"x": -0.7263024537,
				"y": -1.4185310389,
				"z": -0.8271944864,
				"element": "H" 
			},
			{
				"x": -0.1375246655,
				"y": -0.2706515796,
				"z": 1.2598244417,
				"element": "H" 
			},
			{
				"x": 3.9608753928,
				"y": -0.0279797169,
				"z": -0.0070026388,
				"element": "H" 
			},
			{
				"x": 3.3635426865,
				"y": -1.1730967233,
				"z": -2.1268332702,
				"element": "H" 
			},
			{
				"x": 0.6841522985,
				"y": 0.0980636887,
				"z": 3.2846012199,
				"element": "H" 
			},
			{
				"x": 2.1579242237,
				"y": 1.5579454043,
				"z": 5.0699896283,
				"element": "H" 
			},
			{
				"x": 4.4027780801,
				"y": 2.2612628813,
				"z": 3.6291401193,
				"element": "H" 
			}
		],
		 "valence_orbital": [ 
			{
				"type": "occ",
				"energy": -0.30023,
				"method": "rhf"
			},
			{
				"type": "occ",
				"energy": -0.27788,
				"method": "rhf"
			},
			{
				"type": "occ",
				"energy": -0.2689,
				"method": "rhf"
			},
			{
				"type": "occ",
				"energy": -0.26081,
				"method": "rhf"
			},
			{
				"type": "occ",
				"energy": -0.23503,
				"method": "rhf"
			},
			{
				"type": "unocc",
				"energy": -0.04286,
				"method": "rhf"
			},
			{
				"type": "unocc",
				"energy": -0.03088,
				"method": "rhf"
			},
			{
				"type": "unocc",
				"energy": 0.01506,
				"method": "rhf"
			},
			{
				"type": "unocc",
				"energy": 0.02285,
				"method": "rhf"
			},
			{
				"type": "unocc",
				"energy": 0.05942,
				"method": "rhf"
			}
		],
		"cosmo_sigma_profile": { 
			"-0.025": 0.0,
			"-0.024": 0.0,
			"-0.023": 0.0,
			"-0.022": 0.0,
			"-0.021": 0.0,
			"-0.02": 0.0,
			"-0.019": 0.0,
			"-0.018": 0.0,
			"-0.017": 0.0,
			"-0.016": 0.0,
			"-0.015": 0.0,
			"-0.014": 0.231536970832,
			"-0.013": 0.546908246322,
			"-0.012": 1.09670348741,
			"-0.011": 0.651200080252,
			"-0.01": 3.47345135523,
			"-0.009": 4.01760544645,
			"-0.008": 7.11853637743,
			"-0.007": 15.1681950691,
			"-0.006": 17.6119076315,
			"-0.005": 15.4788939292,
			"-0.004": 14.9865220735,
			"-0.003": 14.0469290429,
			"-0.002": 12.2122679967,
			"-0.001": 12.818996988,
			"0.0": 11.7649541623,
			"0.001": 13.2480781064,
			"0.002": 15.8293840487,
			"0.003": 16.596622357,
			"0.004": 13.9534014893,
			"0.005": 7.98494221548,
			"0.006": 4.47983615285,
			"0.007": 3.56331559335,
			"0.008": 5.42660309966,
			"0.009": 4.50293903116,
			"0.01": 5.67631736043,
			"0.011": 5.65849965212,
			"0.012": 7.17511816138,
			"0.013": 3.67175062513,
			"0.014": 0.293476136931,
			"0.015": 0.0,
			"0.016": 0.0,
			"0.017": 0.0,
			"0.018": 0.0,
			"0.019": 0.0,
			"0.02": 0.0,
			"0.021": 0.0,
			"0.022": 0.0,
			"0.023": 0.0,
			"0.024": 0.0,
			"0.025": 0.0
		}
	}
}
