{
	 "smiles": "ClC1=CC=C2OC3=CC(Cl)=CC=C3OC2=C1", 
	 "Tm": 474.65, 
	 "num_atms": 22, 
	 "gaussian": { 
		 "optdone": 1, 
		 "sigma_profile": "yes", 
		 "theory": "DFT", 
		 "functional": "B3LYP", 
		 "basiset": "6-31G**", 
		 "properties": { 
			 "R2extent": 6843.0115, 
			 "electric_dipole_moment_norm": 0.0, 
			 "electric_quadrupole_moment_norm": 15.8510161561, 
			 "total_energy": -1531.70732051, 
			 "HOMO_LUMO_gap": 0.17761, 
			 "cosmo_polarized_energy": -5.65, 
			 "cosmo_cavitation_energy": 30.53, 
			 "cosmo_dispersion_energy": -23.4, 
			 "cosmo_repulsion_energy": 1.79, 
			 "cosmo_total_nonelectrostatic_energy": 8.92, 
			 "SMD_solvation_energy": 5.04 
		},
		"coords": [
			{
				"x": -0.4732148575,
				"y": 1.8569419895,
				"z": 5.9576005375,
				"element": "Cl" 
			},
			{
				"x": -0.343952681,
				"y": 1.6063007473,
				"z": 4.2248181794,
				"element": "C" 
			},
			{
				"x": 0.5207927045,
				"y": 2.3999790072,
				"z": 3.4747472079,
				"element": "C" 
			},
			{
				"x": 0.6124672249,
				"y": 2.1884103477,
				"z": 2.0974420187,
				"element": "C" 
			},
			{
				"x": -0.1490808557,
				"y": 1.1997859206,
				"z": 1.486754472,
				"element": "C" 
			},
			{
				"x": -0.0245690919,
				"y": 1.0277913363,
				"z": 0.1225777985,
				"element": "O" 
			},
			{
				"x": -0.7979864341,
				"y": 0.0365526219,
				"z": -0.4414289473,
				"element": "C" 
			},
			{
				"x": -0.6958093505,
				"y": -0.1620985182,
				"z": -1.8134826565,
				"element": "C" 
			},
			{
				"x": -1.467543144,
				"y": -1.15933278,
				"z": -2.4119994176,
				"element": "C" 
			},
			{
				"x": -1.3382700242,
				"y": -1.4099734952,
				"z": -4.1447807258,
				"element": "Cl" 
			},
			{
				"x": -2.3322875395,
				"y": -1.9530102948,
				"z": -1.6619296416,
				"element": "C" 
			},
			{
				"x": -2.4239679109,
				"y": -1.7414372522,
				"z": -0.2846254796,
				"element": "C" 
			},
			{
				"x": -1.6624279003,
				"y": -0.7528090139,
				"z": 0.3260630747,
				"element": "C" 
			},
			{
				"x": -1.7869457856,
				"y": -0.5808076238,
				"z": 1.6902388389,
				"element": "O" 
			},
			{
				"x": -1.0135208924,
				"y": 0.4104252644,
				"z": 2.2542462629,
				"element": "C" 
			},
			{
				"x": -1.1156905856,
				"y": 0.6090715409,
				"z": 3.6263012604,
				"element": "C" 
			},
			{
				"x": 1.1131248689,
				"y": 3.1699713079,
				"z": 3.9544089556,
				"element": "H" 
			},
			{
				"x": 1.2751794406,
				"y": 2.7873645427,
				"z": 1.4819943169,
				"element": "H" 
			},
			{
				"x": -0.0212186994,
				"y": 0.4589183976,
				"z": -2.3905288159,
				"element": "H" 
			},
			{
				"x": -2.9246159203,
				"y": -2.7230078746,
				"z": -2.141588647,
				"element": "H" 
			},
			{
				"x": -3.0866798928,
				"y": -2.3403935135,
				"z": 0.3308221701,
				"element": "H" 
			},
			{
				"x": -1.7902826733,
				"y": -0.0119426578,
				"z": 4.2033492376,
				"element": "H" 
			}
		],
		 "valence_orbital": [ 
			{
				"type": "occ",
				"energy": -0.31585,
				"method": "rhf"
			},
			{
				"type": "occ",
				"energy": -0.27722,
				"method": "rhf"
			},
			{
				"type": "occ",
				"energy": -0.26982,
				"method": "rhf"
			},
			{
				"type": "occ",
				"energy": -0.24985,
				"method": "rhf"
			},
			{
				"type": "occ",
				"energy": -0.2112,
				"method": "rhf"
			},
			{
				"type": "unocc",
				"energy": -0.03359,
				"method": "rhf"
			},
			{
				"type": "unocc",
				"energy": -0.02373,
				"method": "rhf"
			},
			{
				"type": "unocc",
				"energy": -0.02335,
				"method": "rhf"
			},
			{
				"type": "unocc",
				"energy": 0.00936,
				"method": "rhf"
			},
			{
				"type": "unocc",
				"energy": 0.01742,
				"method": "rhf"
			}
		],
		"cosmo_sigma_profile": { 
			"-0.025": 0.0,
			"-0.024": 0.0,
			"-0.023": 0.0,
			"-0.022": 0.0,
			"-0.021": 0.0,
			"-0.02": 0.0,
			"-0.019": 0.0,
			"-0.018": 0.0,
			"-0.017": 0.0,
			"-0.016": 0.0,
			"-0.015": 0.0,
			"-0.014": 0.0,
			"-0.013": 0.0,
			"-0.012": 0.0,
			"-0.011": 0.0,
			"-0.01": 0.0,
			"-0.009": 0.278403048538,
			"-0.008": 6.11626366405,
			"-0.007": 11.0561859793,
			"-0.006": 10.600383954,
			"-0.005": 11.1400186628,
			"-0.004": 9.3415310896,
			"-0.003": 11.5559908202,
			"-0.002": 13.3515025608,
			"-0.001": 17.3331469265,
			"0.0": 24.0878480592,
			"0.001": 37.3656972275,
			"0.002": 36.9762693275,
			"0.003": 24.2645014122,
			"0.004": 20.8652577936,
			"0.005": 12.9070835767,
			"0.006": 3.04588460779,
			"0.007": 1.44699071667,
			"0.008": 0.0,
			"0.009": 0.0,
			"0.01": 0.0,
			"0.011": 0.0,
			"0.012": 0.0,
			"0.013": 0.0,
			"0.014": 0.0,
			"0.015": 0.0,
			"0.016": 0.0,
			"0.017": 0.0,
			"0.018": 0.0,
			"0.019": 0.0,
			"0.02": 0.0,
			"0.021": 0.0,
			"0.022": 0.0,
			"0.023": 0.0,
			"0.024": 0.0,
			"0.025": 0.0
		}
	}
}
