{
	 "smiles": "COC1=CC(Cl)=C(NC(C)=O)C(Cl)=C1", 
	 "Tm": 460.15, 
	 "num_atms": 23, 
	 "gaussian": { 
		 "optdone": 1, 
		 "sigma_profile": "yes", 
		 "theory": "DFT", 
		 "functional": "B3LYP", 
		 "basiset": "6-31G**", 
		 "properties": { 
			 "R2extent": 3970.5624, 
			 "electric_dipole_moment_norm": 2.86187167078, 
			 "electric_quadrupole_moment_norm": 19.8259069886, 
			 "total_energy": -1473.96484277, 
			 "HOMO_LUMO_gap": 0.20306, 
			 "cosmo_polarized_energy": -14.54, 
			 "cosmo_cavitation_energy": 30.96, 
			 "cosmo_dispersion_energy": -22.19, 
			 "cosmo_repulsion_energy": 1.77, 
			 "cosmo_total_nonelectrostatic_energy": 10.54, 
			 "SMD_solvation_energy": 6.54 
		},
		"coords": [
			{
				"x": 3.7844417733,
				"y": 0.2577780198,
				"z": 1.9594775172,
				"element": "C" 
			},
			{
				"x": 3.4470443702,
				"y": 0.5390797886,
				"z": 0.6071240254,
				"element": "O" 
			},
			{
				"x": 2.1350061548,
				"y": 0.5307131515,
				"z": 0.2534302089,
				"element": "C" 
			},
			{
				"x": 1.8700257263,
				"y": 0.805606717,
				"z": -1.095282088,
				"element": "C" 
			},
			{
				"x": 0.5589440864,
				"y": 0.7957617162,
				"z": -1.5423179076,
				"element": "C" 
			},
			{
				"x": 0.2567389768,
				"y": 1.131684022,
				"z": -3.2412282848,
				"element": "Cl" 
			},
			{
				"x": -0.5363048681,
				"y": 0.5393020266,
				"z": -0.693087022,
				"element": "C" 
			},
			{
				"x": -1.8596017964,
				"y": 0.5504606252,
				"z": -1.1813626007,
				"element": "N" 
			},
			{
				"x": -2.6536514535,
				"y": -0.5897858605,
				"z": -1.249081534,
				"element": "C" 
			},
			{
				"x": -4.0128959896,
				"y": -0.3572154063,
				"z": -1.8888637875,
				"element": "C" 
			},
			{
				"x": -2.3069820402,
				"y": -1.6613507821,
				"z": -0.7897594345,
				"element": "O" 
			},
			{
				"x": -0.2331865832,
				"y": 0.3091091935,
				"z": 0.6571522489,
				"element": "C" 
			},
			{
				"x": -1.5203406382,
				"y": 0.087733373,
				"z": 1.8189077657,
				"element": "Cl" 
			},
			{
				"x": 1.078660662,
				"y": 0.2827622283,
				"z": 1.1341509226,
				"element": "C" 
			},
			{
				"x": 3.448580556,
				"y": -0.7429898338,
				"z": 2.2576734215,
				"element": "H" 
			},
			{
				"x": 4.872815786,
				"y": 0.3031032533,
				"z": 2.0110017298,
				"element": "H" 
			},
			{
				"x": 3.3586269401,
				"y": 1.0020907438,
				"z": 2.6438504139,
				"element": "H" 
			},
			{
				"x": 2.6919870893,
				"y": 1.0070365566,
				"z": -1.7707277583,
				"element": "H" 
			},
			{
				"x": -2.1112112695,
				"y": 1.3246915161,
				"z": -1.779933155,
				"element": "H" 
			},
			{
				"x": -3.9826905556,
				"y": 0.376580439,
				"z": -2.7003959384,
				"element": "H" 
			},
			{
				"x": -4.3834865789,
				"y": -1.3088342889,
				"z": -2.27048933,
				"element": "H" 
			},
			{
				"x": -4.7133769173,
				"y": 0.0061413114,
				"z": -1.1290676528,
				"element": "H" 
			},
			{
				"x": 1.2468565692,
				"y": 0.0868414897,
				"z": 2.1841282399,
				"element": "H" 
			}
		],
		 "valence_orbital": [ 
			{
				"type": "occ",
				"energy": -0.3038,
				"method": "rhf"
			},
			{
				"type": "occ",
				"energy": -0.27894,
				"method": "rhf"
			},
			{
				"type": "occ",
				"energy": -0.25256,
				"method": "rhf"
			},
			{
				"type": "occ",
				"energy": -0.25124,
				"method": "rhf"
			},
			{
				"type": "occ",
				"energy": -0.22796,
				"method": "rhf"
			},
			{
				"type": "unocc",
				"energy": -0.0249,
				"method": "rhf"
			},
			{
				"type": "unocc",
				"energy": -0.01578,
				"method": "rhf"
			},
			{
				"type": "unocc",
				"energy": 0.00362,
				"method": "rhf"
			},
			{
				"type": "unocc",
				"energy": 0.02835,
				"method": "rhf"
			},
			{
				"type": "unocc",
				"energy": 0.05179,
				"method": "rhf"
			}
		],
		"cosmo_sigma_profile": { 
			"-0.025": 0.0,
			"-0.024": 0.0,
			"-0.023": 0.0,
			"-0.022": 0.0,
			"-0.021": 0.0,
			"-0.02": 0.0,
			"-0.019": 0.0,
			"-0.018": 0.0,
			"-0.017": 0.0,
			"-0.016": 0.0,
			"-0.015": 0.00969609677964,
			"-0.014": 1.09846483685,
			"-0.013": 0.93712380921,
			"-0.012": 0.967393436502,
			"-0.011": 1.55523417273,
			"-0.01": 1.52184105076,
			"-0.009": 1.40141671358,
			"-0.008": 4.02324194159,
			"-0.007": 6.71506589028,
			"-0.006": 14.5466003102,
			"-0.005": 16.5078236209,
			"-0.004": 17.8304533312,
			"-0.003": 16.3135669642,
			"-0.002": 16.9107424188,
			"-0.001": 16.8950094912,
			"0.0": 17.3638300137,
			"0.001": 26.4015607803,
			"0.002": 21.9129095939,
			"0.003": 16.43015176,
			"0.004": 16.8951441922,
			"0.005": 6.28963762659,
			"0.006": 3.57051294757,
			"0.007": 3.40328628168,
			"0.008": 3.08782681642,
			"0.009": 3.14053432499,
			"0.01": 2.59246533016,
			"0.011": 2.34726422668,
			"0.012": 3.10947188369,
			"0.013": 4.73543577019,
			"0.014": 2.31780166771,
			"0.015": 0.123630781453,
			"0.016": 0.0,
			"0.017": 0.0,
			"0.018": 0.0,
			"0.019": 0.0,
			"0.02": 0.0,
			"0.021": 0.0,
			"0.022": 0.0,
			"0.023": 0.0,
			"0.024": 0.0,
			"0.025": 0.0
		}
	}
}
