{
	 "smiles": "SC1=NN=NN1CC1=CC=CO1", 
	 "Tm": 352.15, 
	 "num_atms": 18, 
	 "gaussian": { 
		 "optdone": 1, 
		 "sigma_profile": "yes", 
		 "theory": "DFT", 
		 "functional": "B3LYP", 
		 "basiset": "6-31G**", 
		 "properties": { 
			 "R2extent": 2654.6116, 
			 "electric_dipole_moment_norm": 5.1115410778, 
			 "electric_quadrupole_moment_norm": 11.2184678771, 
			 "total_energy": -924.575390368, 
			 "HOMO_LUMO_gap": 0.22454, 
			 "cosmo_polarized_energy": -14.65, 
			 "cosmo_cavitation_energy": 25.17, 
			 "cosmo_dispersion_energy": -18.49, 
			 "cosmo_repulsion_energy": 1.43, 
			 "cosmo_total_nonelectrostatic_energy": 8.1, 
			 "SMD_solvation_energy": 2.82 
		},
		"coords": [
			{
				"x": -2.4902538649,
				"y": -2.0314560011,
				"z": -0.5962641603,
				"element": "S" 
			},
			{
				"x": -1.0529743076,
				"y": -1.7553867692,
				"z": 0.3804582574,
				"element": "C" 
			},
			{
				"x": -0.3983765086,
				"y": -2.6561599051,
				"z": 1.0950680407,
				"element": "N" 
			},
			{
				"x": 0.6296219003,
				"y": -1.9826340857,
				"z": 1.6783742151,
				"element": "N" 
			},
			{
				"x": 0.6281419654,
				"y": -0.7368585797,
				"z": 1.3454729981,
				"element": "N" 
			},
			{
				"x": -0.4413721452,
				"y": -0.5575081684,
				"z": 0.5226822145,
				"element": "N" 
			},
			{
				"x": -0.7496785067,
				"y": 0.7677994627,
				"z": -0.0293704013,
				"element": "C" 
			},
			{
				"x": -0.2562848649,
				"y": 0.9794723406,
				"z": -1.4188036252,
				"element": "C" 
			},
			{
				"x": 0.8467107403,
				"y": 1.5877783329,
				"z": -1.9408545675,
				"element": "C" 
			},
			{
				"x": 0.7590178301,
				"y": 1.4338280758,
				"z": -3.3628500734,
				"element": "C" 
			},
			{
				"x": -0.3888236237,
				"y": 0.7410002372,
				"z": -3.5984554498,
				"element": "C" 
			},
			{
				"x": -1.0235966062,
				"y": 0.4577057249,
				"z": -2.4259493959,
				"element": "O" 
			},
			{
				"x": -2.7614914194,
				"y": -3.2035877002,
				"z": 0.0092323684,
				"element": "H" 
			},
			{
				"x": -1.835171621,
				"y": 0.9017032989,
				"z": 0.0197200429,
				"element": "H" 
			},
			{
				"x": -0.2789199989,
				"y": 1.483432553,
				"z": 0.6458384789,
				"element": "H" 
			},
			{
				"x": 1.6293318468,
				"y": 2.0794917878,
				"z": -1.3809053433,
				"element": "H" 
			},
			{
				"x": 1.4575128045,
				"y": 1.7928997209,
				"z": -4.1045151794,
				"element": "H" 
			},
			{
				"x": -0.8779936204,
				"y": 0.3904796747,
				"z": -4.4937784199,
				"element": "H" 
			}
		],
		 "valence_orbital": [ 
			{
				"type": "occ",
				"energy": -0.29708,
				"method": "rhf"
			},
			{
				"type": "occ",
				"energy": -0.29465,
				"method": "rhf"
			},
			{
				"type": "occ",
				"energy": -0.28448,
				"method": "rhf"
			},
			{
				"type": "occ",
				"energy": -0.25868,
				"method": "rhf"
			},
			{
				"type": "occ",
				"energy": -0.24452,
				"method": "rhf"
			},
			{
				"type": "unocc",
				"energy": -0.01998,
				"method": "rhf"
			},
			{
				"type": "unocc",
				"energy": -0.00725,
				"method": "rhf"
			},
			{
				"type": "unocc",
				"energy": -0.00316,
				"method": "rhf"
			},
			{
				"type": "unocc",
				"energy": 0.02294,
				"method": "rhf"
			},
			{
				"type": "unocc",
				"energy": 0.04927,
				"method": "rhf"
			}
		],
		"cosmo_sigma_profile": { 
			"-0.025": 0.0,
			"-0.024": 0.0,
			"-0.023": 0.0,
			"-0.022": 0.0,
			"-0.021": 0.0,
			"-0.02": 0.0,
			"-0.019": 0.0,
			"-0.018": 0.0,
			"-0.017": 0.0,
			"-0.016": 0.0,
			"-0.015": 0.0,
			"-0.014": 0.0349180350975,
			"-0.013": 1.30644204644,
			"-0.012": 1.55322505711,
			"-0.011": 1.3597976503,
			"-0.01": 1.95626769713,
			"-0.009": 5.9169856993,
			"-0.008": 8.26428735993,
			"-0.007": 11.7503245288,
			"-0.006": 11.6506500526,
			"-0.005": 10.1782895258,
			"-0.004": 12.0546196051,
			"-0.003": 11.2279603698,
			"-0.002": 10.1868981957,
			"-0.001": 11.2004470239,
			"0.0": 9.36675509136,
			"0.001": 12.2043840536,
			"0.002": 13.9011588086,
			"0.003": 13.3231482861,
			"0.004": 11.7024202233,
			"0.005": 10.7482519365,
			"0.006": 6.6640894103,
			"0.007": 3.52843913183,
			"0.008": 4.57988316729,
			"0.009": 4.81996106585,
			"0.01": 5.11250319387,
			"0.011": 4.18334455191,
			"0.012": 2.95536428297,
			"0.013": 2.01312841408,
			"0.014": 1.3687103867,
			"0.015": 0.171011545775,
			"0.016": 0.0,
			"0.017": 0.0,
			"0.018": 0.0,
			"0.019": 0.0,
			"0.02": 0.0,
			"0.021": 0.0,
			"0.022": 0.0,
			"0.023": 0.0,
			"0.024": 0.0,
			"0.025": 0.0
		}
	}
}
