{
	 "smiles": "C1CCN2C[C@@H]3C[C@@H](C=C4CCCN[C@H]34)[C@@H]2C1", 
	 "Tm": 344.55, 
	 "num_atms": 41, 
	 "gaussian": { 
		 "optdone": 1, 
		 "sigma_profile": "yes", 
		 "theory": "DFT", 
		 "functional": "B3LYP", 
		 "basiset": "6-31G**", 
		 "properties": { 
			 "R2extent": 4624.623, 
			 "electric_dipole_moment_norm": 0.872058352405, 
			 "electric_quadrupole_moment_norm": 5.57900835633, 
			 "total_energy": -695.533839524, 
			 "HOMO_LUMO_gap": 0.21669, 
			 "cosmo_polarized_energy": -7.03, 
			 "cosmo_cavitation_energy": 36.12, 
			 "cosmo_dispersion_energy": -26.82, 
			 "cosmo_repulsion_energy": 2.06, 
			 "cosmo_total_nonelectrostatic_energy": 11.37, 
			 "SMD_solvation_energy": 0.96 
		},
		"coords": [
			{
				"x": 0.1468450111,
				"y": -4.394538124,
				"z": 1.6173188815,
				"element": "C" 
			},
			{
				"x": 0.3834603983,
				"y": -3.4936910669,
				"z": 2.8500713327,
				"element": "C" 
			},
			{
				"x": -0.3482642757,
				"y": -2.1585882966,
				"z": 2.6975352346,
				"element": "C" 
			},
			{
				"x": 0.1088718337,
				"y": -1.3979790739,
				"z": 1.5230455545,
				"element": "N" 
			},
			{
				"x": -0.9794703344,
				"y": -0.5581533571,
				"z": 1.0247057109,
				"element": "C" 
			},
			{
				"x": -0.6900746347,
				"y": 0.2063564758,
				"z": -0.2789219606,
				"element": "C" 
			},
			{
				"x": -0.1425584824,
				"y": -0.7812273657,
				"z": -1.3189644261,
				"element": "C" 
			},
			{
				"x": 1.144251324,
				"y": -1.3850619629,
				"z": -0.7382131326,
				"element": "C" 
			},
			{
				"x": 2.1225816454,
				"y": -0.2886936129,
				"z": -0.368334082,
				"element": "C" 
			},
			{
				"x": 1.7361272435,
				"y": 0.9443819907,
				"z": -0.0299845928,
				"element": "C" 
			},
			{
				"x": 2.6530717821,
				"y": 1.9946035244,
				"z": 0.5617921384,
				"element": "C" 
			},
			{
				"x": 2.1146834267,
				"y": 3.4044837744,
				"z": 0.2796276664,
				"element": "C" 
			},
			{
				"x": 0.6871956321,
				"y": 3.5886689641,
				"z": 0.8452459313,
				"element": "C" 
			},
			{
				"x": -0.0268085153,
				"y": 2.302040101,
				"z": 0.9263299592,
				"element": "N" 
			},
			{
				"x": 0.2893921752,
				"y": 1.3912932047,
				"z": -0.1788785086,
				"element": "C" 
			},
			{
				"x": 0.8412288082,
				"y": -2.2152605969,
				"z": 0.5365989781,
				"element": "C" 
			},
			{
				"x": 0.1612408962,
				"y": -3.5770666672,
				"z": 0.2941335429,
				"element": "C" 
			},
			{
				"x": -0.8154294703,
				"y": -4.9091056458,
				"z": 1.7236262216,
				"element": "H" 
			},
			{
				"x": 0.9124444779,
				"y": -5.1782924246,
				"z": 1.589178793,
				"element": "H" 
			},
			{
				"x": 0.0333578705,
				"y": -3.994680937,
				"z": 3.7593249944,
				"element": "H" 
			},
			{
				"x": 1.4546749462,
				"y": -3.3119834979,
				"z": 2.9940172817,
				"element": "H" 
			},
			{
				"x": -1.4307317397,
				"y": -2.3816859077,
				"z": 2.6139012585,
				"element": "H" 
			},
			{
				"x": -0.2329593123,
				"y": -1.5433887027,
				"z": 3.6014849719,
				"element": "H" 
			},
			{
				"x": -1.2318465951,
				"y": 0.1519805637,
				"z": 1.8216857471,
				"element": "H" 
			},
			{
				"x": -1.8977438615,
				"y": -1.1572982688,
				"z": 0.8411210786,
				"element": "H" 
			},
			{
				"x": -1.6559778796,
				"y": 0.6078898285,
				"z": -0.6181943807,
				"element": "H" 
			},
			{
				"x": 0.07084134,
				"y": -0.2727747737,
				"z": -2.266549803,
				"element": "H" 
			},
			{
				"x": -0.8824912533,
				"y": -1.5622099958,
				"z": -1.5301775505,
				"element": "H" 
			},
			{
				"x": 1.6038246691,
				"y": -2.065006781,
				"z": -1.4673506333,
				"element": "H" 
			},
			{
				"x": 3.1686334949,
				"y": -0.5758089852,
				"z": -0.2565653345,
				"element": "H" 
			},
			{
				"x": 2.7007457666,
				"y": 1.8430330712,
				"z": 1.6491373013,
				"element": "H" 
			},
			{
				"x": 3.6748734378,
				"y": 1.8804367771,
				"z": 0.1822391248,
				"element": "H" 
			},
			{
				"x": 2.7765748775,
				"y": 4.1667674596,
				"z": 0.7037386584,
				"element": "H" 
			},
			{
				"x": 2.1080053376,
				"y": 3.5693937198,
				"z": -0.8044821672,
				"element": "H" 
			},
			{
				"x": 0.7381243083,
				"y": 4.0081549208,
				"z": 1.8582725865,
				"element": "H" 
			},
			{
				"x": 0.1563369038,
				"y": 4.3293863386,
				"z": 0.221414383,
				"element": "H" 
			},
			{
				"x": -1.0285856077,
				"y": 2.4717033522,
				"z": 0.9562849584,
				"element": "H" 
			},
			{
				"x": 0.2085599283,
				"y": 1.9155855049,
				"z": -1.156678314,
				"element": "H" 
			},
			{
				"x": 1.824335915,
				"y": -2.431784238,
				"z": 0.9793141461,
				"element": "H" 
			},
			{
				"x": 0.6842730067,
				"y": -4.1298073141,
				"z": -0.4957783922,
				"element": "H" 
			},
			{
				"x": -0.8631144947,
				"y": -3.4191719751,
				"z": -0.0635731579,
				"element": "H" 
			}
		],
		 "valence_orbital": [ 
			{
				"type": "occ",
				"energy": -0.28828,
				"method": "rhf"
			},
			{
				"type": "occ",
				"energy": -0.28379,
				"method": "rhf"
			},
			{
				"type": "occ",
				"energy": -0.22202,
				"method": "rhf"
			},
			{
				"type": "occ",
				"energy": -0.20513,
				"method": "rhf"
			},
			{
				"type": "occ",
				"energy": -0.18371,
				"method": "rhf"
			},
			{
				"type": "unocc",
				"energy": 0.03298,
				"method": "rhf"
			},
			{
				"type": "unocc",
				"energy": 0.07203,
				"method": "rhf"
			},
			{
				"type": "unocc",
				"energy": 0.08917,
				"method": "rhf"
			},
			{
				"type": "unocc",
				"energy": 0.10654,
				"method": "rhf"
			},
			{
				"type": "unocc",
				"energy": 0.11069,
				"method": "rhf"
			}
		],
		"cosmo_sigma_profile": { 
			"-0.025": 0.0,
			"-0.024": 0.0,
			"-0.023": 0.0,
			"-0.022": 0.0,
			"-0.021": 0.0,
			"-0.02": 0.0,
			"-0.019": 0.0,
			"-0.018": 0.0,
			"-0.017": 0.0,
			"-0.016": 0.0,
			"-0.015": 0.0,
			"-0.014": 0.0,
			"-0.013": 0.0,
			"-0.012": 0.0,
			"-0.011": 0.0,
			"-0.01": 0.245562790796,
			"-0.009": 0.892520970605,
			"-0.008": 1.22072611682,
			"-0.007": 1.6358236261,
			"-0.006": 1.00661064557,
			"-0.005": 2.04746507799,
			"-0.004": 2.47029698709,
			"-0.003": 17.6151821014,
			"-0.002": 52.0736507395,
			"-0.001": 71.597496902,
			"0.0": 55.5412478917,
			"0.001": 32.4152736676,
			"0.002": 9.06645112796,
			"0.003": 4.41409767364,
			"0.004": 3.32867007596,
			"0.005": 2.5817303209,
			"0.006": 2.67079895671,
			"0.007": 2.47460876206,
			"0.008": 1.49701377541,
			"0.009": 1.37008242966,
			"0.01": 0.882410354808,
			"0.011": 1.30182238594,
			"0.012": 0.936380183739,
			"0.013": 1.04641310866,
			"0.014": 1.61695590042,
			"0.015": 0.864735733902,
			"0.016": 1.77473980966,
			"0.017": 1.57669762048,
			"0.018": 0.0670639729462,
			"0.019": 0.0,
			"0.02": 0.0,
			"0.021": 0.0,
			"0.022": 0.0,
			"0.023": 0.0,
			"0.024": 0.0,
			"0.025": 0.0
		}
	}
}
