{
	 "smiles": "OC1=CC=C(Cl)C=C1CC1=CC=CC=C1", 
	 "Tm": 321.35, 
	 "num_atms": 26, 
	 "gaussian": { 
		 "optdone": 1, 
		 "sigma_profile": "yes", 
		 "theory": "DFT", 
		 "functional": "B3LYP", 
		 "basiset": "6-31G**", 
		 "properties": { 
			 "R2extent": 5580.444, 
			 "electric_dipole_moment_norm": 2.64100045437, 
			 "electric_quadrupole_moment_norm": 8.5488167345, 
			 "total_energy": -1037.43162151, 
			 "HOMO_LUMO_gap": 0.2047, 
			 "cosmo_polarized_energy": -9.86, 
			 "cosmo_cavitation_energy": 31.41, 
			 "cosmo_dispersion_energy": -22.78, 
			 "cosmo_repulsion_energy": 1.78, 
			 "cosmo_total_nonelectrostatic_energy": 10.4, 
			 "SMD_solvation_energy": 4.92 
		},
		"coords": [
			{
				"x": 3.5892922382,
				"y": -1.0652219364,
				"z": 1.7182681236,
				"element": "O" 
			},
			{
				"x": 2.9112445117,
				"y": 0.0504686267,
				"z": 2.1342828705,
				"element": "C" 
			},
			{
				"x": 3.6965301591,
				"y": 1.1243224025,
				"z": 2.5670590156,
				"element": "C" 
			},
			{
				"x": 3.1036347894,
				"y": 2.3077527549,
				"z": 2.9931754911,
				"element": "C" 
			},
			{
				"x": 1.7124411868,
				"y": 2.4079640644,
				"z": 2.9872135916,
				"element": "C" 
			},
			{
				"x": 0.9429104074,
				"y": 3.8962591636,
				"z": 3.5284953587,
				"element": "Cl" 
			},
			{
				"x": 0.9245786982,
				"y": 1.342884992,
				"z": 2.5635953292,
				"element": "C" 
			},
			{
				"x": 1.5080882659,
				"y": 0.1458466425,
				"z": 2.129416784,
				"element": "C" 
			},
			{
				"x": 0.620854214,
				"y": -0.9962558903,
				"z": 1.6611364628,
				"element": "C" 
			},
			{
				"x": 0.256065377,
				"y": -0.9666163605,
				"z": 0.1808376298,
				"element": "C" 
			},
			{
				"x": 1.24155887,
				"y": -0.8870696738,
				"z": -0.8142440792,
				"element": "C" 
			},
			{
				"x": 0.8911502924,
				"y": -0.8805167025,
				"z": -2.1639353167,
				"element": "C" 
			},
			{
				"x": -0.451188292,
				"y": -0.951040626,
				"z": -2.5439234441,
				"element": "C" 
			},
			{
				"x": -1.4394448386,
				"y": -1.027728909,
				"z": -1.5629465524,
				"element": "C" 
			},
			{
				"x": -1.0856736318,
				"y": -1.0349454322,
				"z": -0.2118585404,
				"element": "C" 
			},
			{
				"x": 2.9630070589,
				"y": -1.7676633362,
				"z": 1.5028547931,
				"element": "H" 
			},
			{
				"x": 4.7755076665,
				"y": 1.0117246913,
				"z": 2.5617566105,
				"element": "H" 
			},
			{
				"x": 3.7115318355,
				"y": 3.1406326733,
				"z": 3.3282411908,
				"element": "H" 
			},
			{
				"x": -0.1564471079,
				"y": 1.439097923,
				"z": 2.5673747192,
				"element": "H" 
			},
			{
				"x": -0.3016057138,
				"y": -0.9819450828,
				"z": 2.2499046868,
				"element": "H" 
			},
			{
				"x": 1.0864268106,
				"y": -1.9641672641,
				"z": 1.9051909877,
				"element": "H" 
			},
			{
				"x": 2.28971897,
				"y": -0.8209837691,
				"z": -0.535779726,
				"element": "H" 
			},
			{
				"x": 1.6684769808,
				"y": -0.8171664007,
				"z": -2.9201984647,
				"element": "H" 
			},
			{
				"x": -0.7228784994,
				"y": -0.9434828047,
				"z": -3.5954491521,
				"element": "H" 
			},
			{
				"x": -2.487078204,
				"y": -1.0791250069,
				"z": -1.8458296486,
				"element": "H" 
			},
			{
				"x": -1.8625020449,
				"y": -1.094024739,
				"z": 0.5467612789,
				"element": "H" 
			}
		],
		 "valence_orbital": [ 
			{
				"type": "occ",
				"energy": -0.30738,
				"method": "rhf"
			},
			{
				"type": "occ",
				"energy": -0.26039,
				"method": "rhf"
			},
			{
				"type": "occ",
				"energy": -0.25449,
				"method": "rhf"
			},
			{
				"type": "occ",
				"energy": -0.24659,
				"method": "rhf"
			},
			{
				"type": "occ",
				"energy": -0.22124,
				"method": "rhf"
			},
			{
				"type": "unocc",
				"energy": -0.01654,
				"method": "rhf"
			},
			{
				"type": "unocc",
				"energy": -0.01192,
				"method": "rhf"
			},
			{
				"type": "unocc",
				"energy": -0.00419,
				"method": "rhf"
			},
			{
				"type": "unocc",
				"energy": 0.00604,
				"method": "rhf"
			},
			{
				"type": "unocc",
				"energy": 0.03428,
				"method": "rhf"
			}
		],
		"cosmo_sigma_profile": { 
			"-0.025": 0.0,
			"-0.024": 0.0,
			"-0.023": 0.0,
			"-0.022": 0.0,
			"-0.021": 0.0,
			"-0.02": 0.0,
			"-0.019": 0.0,
			"-0.018": 0.0,
			"-0.017": 0.283853778113,
			"-0.016": 0.857364521952,
			"-0.015": 0.611685323351,
			"-0.014": 1.06856432149,
			"-0.013": 0.833810236207,
			"-0.012": 0.97941895232,
			"-0.011": 1.43124183406,
			"-0.01": 1.19400687351,
			"-0.009": 0.701240783088,
			"-0.008": 1.28735494778,
			"-0.007": 4.9153678134,
			"-0.006": 11.9891064587,
			"-0.005": 17.8824634,
			"-0.004": 19.1883483314,
			"-0.003": 17.4389222801,
			"-0.002": 15.8157270804,
			"-0.001": 15.8143412202,
			"0.0": 12.8820201966,
			"0.001": 16.7838886818,
			"0.002": 19.9422140932,
			"0.003": 26.1431599313,
			"0.004": 26.3795194679,
			"0.005": 20.0806679295,
			"0.006": 11.4206499893,
			"0.007": 2.33485809266,
			"0.008": 0.722124487896,
			"0.009": 1.39824251594,
			"0.01": 1.61156326509,
			"0.011": 1.5164105858,
			"0.012": 0.0206137279833,
			"0.013": 0.0,
			"0.014": 0.0,
			"0.015": 0.0,
			"0.016": 0.0,
			"0.017": 0.0,
			"0.018": 0.0,
			"0.019": 0.0,
			"0.02": 0.0,
			"0.021": 0.0,
			"0.022": 0.0,
			"0.023": 0.0,
			"0.024": 0.0,
			"0.025": 0.0
		}
	}
}
