{
	 "smiles": "[O-][N+](=O)C1=CC=C(O1)C=NN1CCOC1=O", 
	 "Tm": 528.15, 
	 "num_atms": 23, 
	 "gaussian": { 
		 "optdone": 1, 
		 "sigma_profile": "yes", 
		 "theory": "DFT", 
		 "functional": "B3LYP", 
		 "basiset": "6-31G**", 
		 "properties": { 
			 "R2extent": 5859.014, 
			 "electric_dipole_moment_norm": 4.98662403435, 
			 "electric_quadrupole_moment_norm": 39.7342255167, 
			 "total_energy": -849.275778892, 
			 "HOMO_LUMO_gap": 0.13759, 
			 "cosmo_polarized_energy": -23.04, 
			 "cosmo_cavitation_energy": 30.23, 
			 "cosmo_dispersion_energy": -22.1, 
			 "cosmo_repulsion_energy": 1.74, 
			 "cosmo_total_nonelectrostatic_energy": 9.87, 
			 "SMD_solvation_energy": 8.89 
		},
		"coords": [
			{
				"x": -4.054637613,
				"y": -0.4128103136,
				"z": 3.2955517493,
				"element": "O" 
			},
			{
				"x": -4.3336828763,
				"y": 0.3728427973,
				"z": 2.3893711625,
				"element": "N" 
			},
			{
				"x": -5.3552040168,
				"y": 1.0640652276,
				"z": 2.3120721458,
				"element": "O" 
			},
			{
				"x": -3.4060768881,
				"y": 0.5155962506,
				"z": 1.3170413335,
				"element": "C" 
			},
			{
				"x": -3.4515015733,
				"y": 1.3010409565,
				"z": 0.1946358429,
				"element": "C" 
			},
			{
				"x": -2.253658192,
				"y": 1.0251989869,
				"z": -0.5082749618,
				"element": "C" 
			},
			{
				"x": -1.5672164163,
				"y": 0.0904600459,
				"z": 0.2404394978,
				"element": "C" 
			},
			{
				"x": -2.2746638335,
				"y": -0.2249566814,
				"z": 1.3648398743,
				"element": "O" 
			},
			{
				"x": -0.3043635868,
				"y": -0.5919515955,
				"z": 0.0833444699,
				"element": "C" 
			},
			{
				"x": 0.4154905239,
				"y": -0.3410566888,
				"z": -0.9573025844,
				"element": "N" 
			},
			{
				"x": 1.5834080566,
				"y": -0.9810525227,
				"z": -1.1136335286,
				"element": "N" 
			},
			{
				"x": 2.2404622802,
				"y": -1.866880752,
				"z": -0.1617785059,
				"element": "C" 
			},
			{
				"x": 3.4861391039,
				"y": -2.2665826102,
				"z": -0.9729659569,
				"element": "C" 
			},
			{
				"x": 3.603265958,
				"y": -1.2832162454,
				"z": -2.0162036323,
				"element": "O" 
			},
			{
				"x": 2.4440312111,
				"y": -0.5800885073,
				"z": -2.1529071392,
				"element": "C" 
			},
			{
				"x": 2.231139423,
				"y": 0.2289693697,
				"z": -3.0104050647,
				"element": "O" 
			},
			{
				"x": -4.2487553592,
				"y": 1.978234758,
				"z": -0.0691866901,
				"element": "H" 
			},
			{
				"x": -1.917923702,
				"y": 1.4466675996,
				"z": -1.4437608044,
				"element": "H" 
			},
			{
				"x": -0.0332708898,
				"y": -1.2952655692,
				"z": 0.8730383921,
				"element": "H" 
			},
			{
				"x": 1.6139734531,
				"y": -2.7295926731,
				"z": 0.0871321209,
				"element": "H" 
			},
			{
				"x": 2.4830395069,
				"y": -1.3313121858,
				"z": 0.7664220644,
				"element": "H" 
			},
			{
				"x": 4.4039558525,
				"y": -2.252045397,
				"z": -0.3831699493,
				"element": "H" 
			},
			{
				"x": 3.3691495777,
				"y": -3.2518642501,
				"z": -1.434799836,
				"element": "H" 
			}
		],
		 "valence_orbital": [ 
			{
				"type": "occ",
				"energy": -0.30708,
				"method": "rhf"
			},
			{
				"type": "occ",
				"energy": -0.30328,
				"method": "rhf"
			},
			{
				"type": "occ",
				"energy": -0.29742,
				"method": "rhf"
			},
			{
				"type": "occ",
				"energy": -0.29284,
				"method": "rhf"
			},
			{
				"type": "occ",
				"energy": -0.23815,
				"method": "rhf"
			},
			{
				"type": "unocc",
				"energy": -0.10056,
				"method": "rhf"
			},
			{
				"type": "unocc",
				"energy": -0.05245,
				"method": "rhf"
			},
			{
				"type": "unocc",
				"energy": 0.02892,
				"method": "rhf"
			},
			{
				"type": "unocc",
				"energy": 0.04148,
				"method": "rhf"
			},
			{
				"type": "unocc",
				"energy": 0.05463,
				"method": "rhf"
			}
		],
		"cosmo_sigma_profile": { 
			"-0.025": 0.0,
			"-0.024": 0.0,
			"-0.023": 0.0,
			"-0.022": 0.0,
			"-0.021": 0.0,
			"-0.02": 0.0,
			"-0.019": 0.0,
			"-0.018": 0.0,
			"-0.017": 0.0,
			"-0.016": 0.0,
			"-0.015": 0.0,
			"-0.014": 0.0,
			"-0.013": 0.0,
			"-0.012": 0.0,
			"-0.011": 0.120959273808,
			"-0.01": 3.18910544867,
			"-0.009": 6.09607962999,
			"-0.008": 18.3394535981,
			"-0.007": 23.0290861213,
			"-0.006": 15.4717077405,
			"-0.005": 11.0995621848,
			"-0.004": 11.0503306189,
			"-0.003": 14.0137721286,
			"-0.002": 14.8644613596,
			"-0.001": 12.4709627879,
			"0.0": 13.9890531329,
			"0.001": 10.332215739,
			"0.002": 6.36871076598,
			"0.003": 6.47971275795,
			"0.004": 4.62459485736,
			"0.005": 6.25118261785,
			"0.006": 7.39888470556,
			"0.007": 8.18359110737,
			"0.008": 16.6039995211,
			"0.009": 11.6489990636,
			"0.01": 6.80329038444,
			"0.011": 6.3604460761,
			"0.012": 5.13950931109,
			"0.013": 1.68352615429,
			"0.014": 1.16542389869,
			"0.015": 0.170550155659,
			"0.016": 0.0,
			"0.017": 0.0,
			"0.018": 0.0,
			"0.019": 0.0,
			"0.02": 0.0,
			"0.021": 0.0,
			"0.022": 0.0,
			"0.023": 0.0,
			"0.024": 0.0,
			"0.025": 0.0
		}
	}
}
