{
	 "smiles": "O=CC1=CC(=CS1)C#CC1=CC=CC=C1", 
	 "Tm": 389.15, 
	 "num_atms": 23, 
	 "gaussian": { 
		 "optdone": 1, 
		 "sigma_profile": "yes", 
		 "theory": "DFT", 
		 "functional": "B3LYP", 
		 "basiset": "6-31G**", 
		 "properties": { 
			 "R2extent": 6623.8808, 
			 "electric_dipole_moment_norm": 3.46774695011, 
			 "electric_quadrupole_moment_norm": 17.6956892946, 
			 "total_energy": -973.537397587, 
			 "HOMO_LUMO_gap": 0.14559, 
			 "cosmo_polarized_energy": -9.86, 
			 "cosmo_cavitation_energy": 31.75, 
			 "cosmo_dispersion_energy": -23.15, 
			 "cosmo_repulsion_energy": 1.78, 
			 "cosmo_total_nonelectrostatic_energy": 10.38, 
			 "SMD_solvation_energy": 6.52 
		},
		"coords": [
			{
				"x": 3.897759894,
				"y": -3.7327208619,
				"z": -2.3266152854,
				"element": "O" 
			},
			{
				"x": 3.0142141934,
				"y": -3.6343876286,
				"z": -3.1588702079,
				"element": "C" 
			},
			{
				"x": 1.8436826417,
				"y": -2.767457667,
				"z": -2.9951851973,
				"element": "C" 
			},
			{
				"x": 1.5546223637,
				"y": -1.954331551,
				"z": -1.9253645522,
				"element": "C" 
			},
			{
				"x": 0.3280592812,
				"y": -1.2339410649,
				"z": -2.0772727329,
				"element": "C" 
			},
			{
				"x": -0.2887961488,
				"y": -1.5300971552,
				"z": -3.2850594856,
				"element": "C" 
			},
			{
				"x": 0.6002473046,
				"y": -2.6621606983,
				"z": -4.2231796895,
				"element": "S" 
			},
			{
				"x": -0.196268071,
				"y": -0.3294330228,
				"z": -1.117244949,
				"element": "C" 
			},
			{
				"x": -0.6328838793,
				"y": 0.4425931194,
				"z": -0.2856090474,
				"element": "C" 
			},
			{
				"x": -1.1477358419,
				"y": 1.3483659119,
				"z": 0.686732295,
				"element": "C" 
			},
			{
				"x": -0.446388587,
				"y": 1.5843613367,
				"z": 1.8864407391,
				"element": "C" 
			},
			{
				"x": -0.9530408201,
				"y": 2.4701638215,
				"z": 2.8333324655,
				"element": "C" 
			},
			{
				"x": -2.1611881117,
				"y": 3.1333965841,
				"z": 2.6033779363,
				"element": "C" 
			},
			{
				"x": -2.8637607674,
				"y": 2.9060688473,
				"z": 1.4171772898,
				"element": "C" 
			},
			{
				"x": -2.3655965693,
				"y": 2.0222012191,
				"z": 0.46400157,
				"element": "C" 
			},
			{
				"x": 3.0507306671,
				"y": -4.2108254876,
				"z": -4.1083431548,
				"element": "H" 
			},
			{
				"x": 2.2029544913,
				"y": -1.8790377244,
				"z": -1.0614043351,
				"element": "H" 
			},
			{
				"x": -1.2227081909,
				"y": -1.1276793076,
				"z": -3.651662809,
				"element": "H" 
			},
			{
				"x": 0.4915925229,
				"y": 1.0674780351,
				"z": 2.0614913905,
				"element": "H" 
			},
			{
				"x": -0.4035782674,
				"y": 2.6438456392,
				"z": 3.7539416076,
				"element": "H" 
			},
			{
				"x": -2.5530536369,
				"y": 3.8236809116,
				"z": 3.3445501498,
				"element": "H" 
			},
			{
				"x": -3.8032577767,
				"y": 3.419458867,
				"z": 1.2343171018,
				"element": "H" 
			},
			{
				"x": -2.9085066915,
				"y": 1.8431578763,
				"z": -0.4584510994,
				"element": "H" 
			}
		],
		 "valence_orbital": [ 
			{
				"type": "occ",
				"energy": -0.27651,
				"method": "rhf"
			},
			{
				"type": "occ",
				"energy": -0.26203,
				"method": "rhf"
			},
			{
				"type": "occ",
				"energy": -0.26155,
				"method": "rhf"
			},
			{
				"type": "occ",
				"energy": -0.26073,
				"method": "rhf"
			},
			{
				"type": "occ",
				"energy": -0.21951,
				"method": "rhf"
			},
			{
				"type": "unocc",
				"energy": -0.07392,
				"method": "rhf"
			},
			{
				"type": "unocc",
				"energy": -0.04853,
				"method": "rhf"
			},
			{
				"type": "unocc",
				"energy": -0.00937,
				"method": "rhf"
			},
			{
				"type": "unocc",
				"energy": 0.00267,
				"method": "rhf"
			},
			{
				"type": "unocc",
				"energy": 0.01467,
				"method": "rhf"
			}
		],
		"cosmo_sigma_profile": { 
			"-0.025": 0.0,
			"-0.024": 0.0,
			"-0.023": 0.0,
			"-0.022": 0.0,
			"-0.021": 0.0,
			"-0.02": 0.0,
			"-0.019": 0.0,
			"-0.018": 0.0,
			"-0.017": 0.0,
			"-0.016": 0.0,
			"-0.015": 0.0,
			"-0.014": 0.0,
			"-0.013": 0.0,
			"-0.012": 0.0,
			"-0.011": 0.0259191528783,
			"-0.01": 1.72455130132,
			"-0.009": 2.1871664328,
			"-0.008": 5.97045631279,
			"-0.007": 7.9419746876,
			"-0.006": 14.4211228052,
			"-0.005": 16.6974060423,
			"-0.004": 17.7885838761,
			"-0.003": 14.7846375781,
			"-0.002": 13.7736466433,
			"-0.001": 15.7492481448,
			"0.0": 21.5869076057,
			"0.001": 28.3213129298,
			"0.002": 25.585716401,
			"0.003": 20.5998531409,
			"0.004": 20.239714789,
			"0.005": 13.8819796393,
			"0.006": 2.48923933947,
			"0.007": 1.69937779109,
			"0.008": 1.41833002966,
			"0.009": 1.81378371614,
			"0.01": 3.14303841755,
			"0.011": 4.33657060164,
			"0.012": 2.94016281308,
			"0.013": 0.530261259415,
			"0.014": 0.0,
			"0.015": 0.0,
			"0.016": 0.0,
			"0.017": 0.0,
			"0.018": 0.0,
			"0.019": 0.0,
			"0.02": 0.0,
			"0.021": 0.0,
			"0.022": 0.0,
			"0.023": 0.0,
			"0.024": 0.0,
			"0.025": 0.0
		}
	}
}
