{
	 "smiles": "CC(=O)CCC1=CC2=C(OCO2)C=C1", 
	 "Tm": 324.15, 
	 "num_atms": 26, 
	 "gaussian": { 
		 "optdone": 1, 
		 "sigma_profile": "yes", 
		 "theory": "DFT", 
		 "functional": "B3LYP", 
		 "basiset": "6-31G**", 
		 "properties": { 
			 "R2extent": 4127.0408, 
			 "electric_dipole_moment_norm": 2.29622718824, 
			 "electric_quadrupole_moment_norm": 16.8188139823, 
			 "total_energy": -652.053756487, 
			 "HOMO_LUMO_gap": 0.1845, 
			 "cosmo_polarized_energy": -10.51, 
			 "cosmo_cavitation_energy": 29.51, 
			 "cosmo_dispersion_energy": -21.55, 
			 "cosmo_repulsion_energy": 1.72, 
			 "cosmo_total_nonelectrostatic_energy": 9.68, 
			 "SMD_solvation_energy": 6.07 
		},
		"coords": [
			{
				"x": -2.2568302408,
				"y": 1.8359069823,
				"z": 2.9626512509,
				"element": "C" 
			},
			{
				"x": -1.3611370252,
				"y": 2.4848596633,
				"z": 1.9230448122,
				"element": "C" 
			},
			{
				"x": -1.7955895861,
				"y": 3.2980697326,
				"z": 1.1277278424,
				"element": "O" 
			},
			{
				"x": 0.1098888309,
				"y": 2.0794538411,
				"z": 1.949888314,
				"element": "C" 
			},
			{
				"x": 0.9046015469,
				"y": 2.4645982275,
				"z": 0.6884831064,
				"element": "C" 
			},
			{
				"x": 0.6701356378,
				"y": 1.5405407567,
				"z": -0.4916963188,
				"element": "C" 
			},
			{
				"x": -0.431985645,
				"y": 1.7504471949,
				"z": -1.3527389573,
				"element": "C" 
			},
			{
				"x": -0.5984825825,
				"y": 0.8650908864,
				"z": -2.397905843,
				"element": "C" 
			},
			{
				"x": 0.268873755,
				"y": -0.2029798562,
				"z": -2.6152133071,
				"element": "C" 
			},
			{
				"x": -0.1491999994,
				"y": -0.9266994952,
				"z": -3.7088697967,
				"element": "O" 
			},
			{
				"x": -1.2216520402,
				"y": -0.1696381737,
				"z": -4.2812918432,
				"element": "C" 
			},
			{
				"x": -1.5939064203,
				"y": 0.8496054592,
				"z": -3.3489746222,
				"element": "O" 
			},
			{
				"x": 1.3509820444,
				"y": -0.4333175779,
				"z": -1.7905417038,
				"element": "C" 
			},
			{
				"x": 1.5352028143,
				"y": 0.4646705817,
				"z": -0.7224967079,
				"element": "C" 
			},
			{
				"x": -3.2220560108,
				"y": 2.3433827444,
				"z": 2.9922196454,
				"element": "H" 
			},
			{
				"x": -2.4132308337,
				"y": 0.7828306624,
				"z": 2.6980337213,
				"element": "H" 
			},
			{
				"x": -1.7918692782,
				"y": 1.8496737203,
				"z": 3.9545015187,
				"element": "H" 
			},
			{
				"x": 0.5411220122,
				"y": 2.576972146,
				"z": 2.8324849957,
				"element": "H" 
			},
			{
				"x": 0.187233856,
				"y": 1.0039052936,
				"z": 2.152895805,
				"element": "H" 
			},
			{
				"x": 1.970786185,
				"y": 2.4596627021,
				"z": 0.9387267138,
				"element": "H" 
			},
			{
				"x": 0.6399932217,
				"y": 3.4920972536,
				"z": 0.4203331611,
				"element": "H" 
			},
			{
				"x": -1.1192051786,
				"y": 2.5716922134,
				"z": -1.1871787904,
				"element": "H" 
			},
			{
				"x": -2.0766075458,
				"y": -0.8286307523,
				"z": -4.4625934856,
				"element": "H" 
			},
			{
				"x": -0.8829944107,
				"y": 0.2951459289,
				"z": -5.2192552368,
				"element": "H" 
			},
			{
				"x": 2.0274826522,
				"y": -1.2628350322,
				"z": -1.9634588799,
				"element": "H" 
			},
			{
				"x": 2.385444241,
				"y": 0.3195948971,
				"z": -0.0612753942,
				"element": "H" 
			}
		],
		 "valence_orbital": [ 
			{
				"type": "occ",
				"energy": -0.3311,
				"method": "rhf"
			},
			{
				"type": "occ",
				"energy": -0.30107,
				"method": "rhf"
			},
			{
				"type": "occ",
				"energy": -0.24827,
				"method": "rhf"
			},
			{
				"type": "occ",
				"energy": -0.23773,
				"method": "rhf"
			},
			{
				"type": "occ",
				"energy": -0.19927,
				"method": "rhf"
			},
			{
				"type": "unocc",
				"energy": -0.01477,
				"method": "rhf"
			},
			{
				"type": "unocc",
				"energy": 0.00602,
				"method": "rhf"
			},
			{
				"type": "unocc",
				"energy": 0.01558,
				"method": "rhf"
			},
			{
				"type": "unocc",
				"energy": 0.08855,
				"method": "rhf"
			},
			{
				"type": "unocc",
				"energy": 0.10248,
				"method": "rhf"
			}
		],
		"cosmo_sigma_profile": { 
			"-0.025": 0.0,
			"-0.024": 0.0,
			"-0.023": 0.0,
			"-0.022": 0.0,
			"-0.021": 0.0,
			"-0.02": 0.0,
			"-0.019": 0.0,
			"-0.018": 0.0,
			"-0.017": 0.0,
			"-0.016": 0.0,
			"-0.015": 0.0,
			"-0.014": 0.0,
			"-0.013": 0.0,
			"-0.012": 0.0,
			"-0.011": 0.0,
			"-0.01": 0.0,
			"-0.009": 0.0,
			"-0.008": 1.7601335358,
			"-0.007": 6.52265463973,
			"-0.006": 17.2072670851,
			"-0.005": 19.1354780966,
			"-0.004": 20.2398256541,
			"-0.003": 20.3600197984,
			"-0.002": 19.9047623293,
			"-0.001": 19.9634659886,
			"0.0": 15.2240325358,
			"0.001": 11.0630414314,
			"0.002": 11.7875494747,
			"0.003": 15.6512736981,
			"0.004": 12.380085322,
			"0.005": 11.1279282551,
			"0.006": 6.85485081552,
			"0.007": 4.41027110083,
			"0.008": 4.41268884011,
			"0.009": 4.5678352609,
			"0.01": 4.24288364792,
			"0.011": 2.86728687869,
			"0.012": 2.50385645231,
			"0.013": 1.40541652445,
			"0.014": 0.125073631579,
			"0.015": 0.0,
			"0.016": 0.0,
			"0.017": 0.0,
			"0.018": 0.0,
			"0.019": 0.0,
			"0.02": 0.0,
			"0.021": 0.0,
			"0.022": 0.0,
			"0.023": 0.0,
			"0.024": 0.0,
			"0.0": 0.0
		}
	}
}
