{
	 "smiles": "CC1=C(CC(O)=O)C=CC(Br)=C1", 
	 "Tm": 385.15, 
	 "num_atms": 21, 
	 "gaussian": { 
		 "optdone": 1, 
		 "sigma_profile": "yes", 
		 "theory": "DFT", 
		 "functional": "B3LYP", 
		 "basiset": "6-31G**", 
		 "properties": { 
			 "R2extent": 5213.3161, 
			 "electric_dipole_moment_norm": 4.54012956753, 
			 "electric_quadrupole_moment_norm": 13.9826139967, 
			 "total_energy": -3070.24889741, 
			 "HOMO_LUMO_gap": 0.22041, 
			 "cosmo_polarized_energy": -17.18, 
			 "cosmo_cavitation_energy": 27.38, 
			 "cosmo_dispersion_energy": -20.09, 
			 "cosmo_repulsion_energy": 1.61, 
			 "cosmo_total_nonelectrostatic_energy": 8.9, 
			 "SMD_solvation_energy": 4.59 
		},
		"coords": [
			{
				"x": -0.2568548006,
				"y": -2.5215248141,
				"z": 1.1975848267,
				"element": "C" 
			},
			{
				"x": 0.346998081,
				"y": -1.8179748929,
				"z": 0.005605092,
				"element": "C" 
			},
			{
				"x": -0.0895541789,
				"y": -0.5396577548,
				"z": -0.4017531029,
				"element": "C" 
			},
			{
				"x": -1.1993576129,
				"y": 0.1866697088,
				"z": 0.3212760242,
				"element": "C" 
			},
			{
				"x": -0.7953921138,
				"y": 0.7993336669,
				"z": 1.6683099767,
				"element": "C" 
			},
			{
				"x": -1.7356468517,
				"y": 1.6123831156,
				"z": 2.222534038,
				"element": "O" 
			},
			{
				"x": 0.2405222322,
				"y": 0.5941927189,
				"z": 2.2452763588,
				"element": "O" 
			},
			{
				"x": 0.5114488661,
				"y": 0.0686076513,
				"z": -1.5080590662,
				"element": "C" 
			},
			{
				"x": 1.5351881914,
				"y": -0.5518841616,
				"z": -2.2228166171,
				"element": "C" 
			},
			{
				"x": 1.9549741752,
				"y": -1.8119672601,
				"z": -1.811739358,
				"element": "C" 
			},
			{
				"x": 3.3509787315,
				"y": -2.7008295796,
				"z": -2.770017925,
				"element": "Br" 
			},
			{
				"x": 1.3722611026,
				"y": -2.4416464121,
				"z": -0.7146313716,
				"element": "C" 
			},
			{
				"x": -1.3427461885,
				"y": -2.639439725,
				"z": 1.0938422444,
				"element": "H" 
			},
			{
				"x": 0.1700330751,
				"y": -3.5197453596,
				"z": 1.3202924746,
				"element": "H" 
			},
			{
				"x": -0.0713018641,
				"y": -1.9556836142,
				"z": 2.1155830899,
				"element": "H" 
			},
			{
				"x": -1.5930436722,
				"y": 0.9884219485,
				"z": -0.3160193285,
				"element": "H" 
			},
			{
				"x": -2.0464169403,
				"y": -0.4847779513,
				"z": 0.5214296345,
				"element": "H" 
			},
			{
				"x": -2.5055440038,
				"y": 1.6871278241,
				"z": 1.6409355986,
				"element": "H" 
			},
			{
				"x": 0.1746354997,
				"y": 1.0533066769,
				"z": -1.8227914137,
				"element": "H" 
			},
			{
				"x": 1.991452447,
				"y": -0.0671331836,
				"z": -3.0778857366,
				"element": "H" 
			},
			{
				"x": 1.7177658249,
				"y": -3.424978602,
				"z": -0.4146554388,
				"element": "H" 
			}
		],
		 "valence_orbital": [ 
			{
				"type": "occ",
				"energy": -0.30735,
				"method": "rhf"
			},
			{
				"type": "occ",
				"energy": -0.28544,
				"method": "rhf"
			},
			{
				"type": "occ",
				"energy": -0.28017,
				"method": "rhf"
			},
			{
				"type": "occ",
				"energy": -0.25686,
				"method": "rhf"
			},
			{
				"type": "occ",
				"energy": -0.23849,
				"method": "rhf"
			},
			{
				"type": "unocc",
				"energy": -0.01808,
				"method": "rhf"
			},
			{
				"type": "unocc",
				"energy": -0.01345,
				"method": "rhf"
			},
			{
				"type": "unocc",
				"energy": 0.0035,
				"method": "rhf"
			},
			{
				"type": "unocc",
				"energy": 0.00838,
				"method": "rhf"
			},
			{
				"type": "unocc",
				"energy": 0.04656,
				"method": "rhf"
			}
		],
		"cosmo_sigma_profile": { 
			"-0.025": 0.0,
			"-0.024": 0.0,
			"-0.023": 0.0,
			"-0.022": 0.0,
			"-0.021": 0.0,
			"-0.02": 0.0686337041778,
			"-0.019": 0.793761154756,
			"-0.018": 1.0031897703,
			"-0.017": 1.29754270398,
			"-0.016": 1.29357502149,
			"-0.015": 0.614501262878,
			"-0.014": 1.28893730091,
			"-0.013": 1.50531683602,
			"-0.012": 0.88638577384,
			"-0.011": 1.37361779705,
			"-0.01": 1.6685762704,
			"-0.009": 1.37095289256,
			"-0.008": 4.23054058294,
			"-0.007": 8.25738591074,
			"-0.006": 12.4304615225,
			"-0.005": 10.9926660451,
			"-0.004": 11.4658815756,
			"-0.003": 11.2260285583,
			"-0.002": 14.3443506319,
			"-0.001": 12.6785027845,
			"0.0": 15.6246312851,
			"0.001": 11.9315598451,
			"0.002": 14.2736022029,
			"0.003": 18.6343119204,
			"0.004": 19.6066572339,
			"0.005": 12.8393618088,
			"0.006": 3.72296629723,
			"0.007": 1.83470459017,
			"0.008": 3.69310000297,
			"0.009": 3.35028746472,
			"0.01": 5.18130392547,
			"0.011": 5.58038335278,
			"0.012": 4.46788368391,
			"0.013": 1.21313785462,
			"0.014": 0.00186376918966,
			"0.015": 0.0,
			"0.016": 0.0,
			"0.017": 0.0,
			"0.018": 0.0,
			"0.019": 0.0,
			"0.02": 0.0,
			"0.021": 0.0,
			"0.022": 0.0,
			"0.023": 0.0,
			"0.024": 0.0,
			"0.025": 0.0
		}
	}
}
