{
	 "smiles": "CC1CC2=C(C=CC(=C2)S(Cl)(=O)=O)N1C(C)=O", 
	 "Tm": 386.15, 
	 "num_atms": 29, 
	 "gaussian": { 
		 "optdone": 1, 
		 "sigma_profile": "yes", 
		 "theory": "DFT", 
		 "functional": "B3LYP", 
		 "basiset": "6-31G**", 
		 "properties": { 
			 "R2extent": 7448.7496, 
			 "electric_dipole_moment_norm": 4.18505098655, 
			 "electric_quadrupole_moment_norm": 37.7359691562, 
			 "total_energy": -1565.16585054, 
			 "HOMO_LUMO_gap": 0.15425, 
			 "cosmo_polarized_energy": -15.38, 
			 "cosmo_cavitation_energy": 35.37, 
			 "cosmo_dispersion_energy": -25.77, 
			 "cosmo_repulsion_energy": 1.96, 
			 "cosmo_total_nonelectrostatic_energy": 11.55, 
			 "SMD_solvation_energy": 4.96 
		},
		"coords": [
			{
				"x": -2.5661868762,
				"y": -0.5621430045,
				"z": -1.0271241678,
				"element": "C" 
			},
			{
				"x": -1.1791378508,
				"y": -0.5802850762,
				"z": -1.6727219876,
				"element": "C" 
			},
			{
				"x": -0.6985054867,
				"y": 0.8179017492,
				"z": -2.1313611118,
				"element": "C" 
			},
			{
				"x": 0.2399544412,
				"y": 1.2435014356,
				"z": -1.0286455361,
				"element": "C" 
			},
			{
				"x": 0.561241744,
				"y": 0.1290563549,
				"z": -0.2212924301,
				"element": "C" 
			},
			{
				"x": 1.4264342234,
				"y": 0.2709653531,
				"z": 0.8725973632,
				"element": "C" 
			},
			{
				"x": 1.979427652,
				"y": 1.5244907983,
				"z": 1.1342192578,
				"element": "C" 
			},
			{
				"x": 1.6623608904,
				"y": 2.6080559023,
				"z": 0.3156488145,
				"element": "C" 
			},
			{
				"x": 0.7847415892,
				"y": 2.4871915678,
				"z": -0.7714518852,
				"element": "C" 
			},
			{
				"x": 2.3801914939,
				"y": 4.1927517554,
				"z": 0.6680463089,
				"element": "S" 
			},
			{
				"x": 0.914694009,
				"y": 5.0608812478,
				"z": 1.9702311464,
				"element": "Cl" 
			},
			{
				"x": 3.5782618793,
				"y": 4.0181199516,
				"z": 1.4805493567,
				"element": "O" 
			},
			{
				"x": 2.3682737262,
				"y": 5.0110491271,
				"z": -0.5388896958,
				"element": "O" 
			},
			{
				"x": -0.1353354267,
				"y": -0.9954086674,
				"z": -0.6844381492,
				"element": "N" 
			},
			{
				"x": 0.0311545886,
				"y": -2.3551094321,
				"z": -0.4370803912,
				"element": "C" 
			},
			{
				"x": 1.1622166306,
				"y": -2.8105946881,
				"z": 0.4627000749,
				"element": "C" 
			},
			{
				"x": -0.725160498,
				"y": -3.1586278602,
				"z": -0.9653986227,
				"element": "O" 
			},
			{
				"x": -2.8230343747,
				"y": -1.5560782146,
				"z": -0.655900951,
				"element": "H" 
			},
			{
				"x": -3.3171217859,
				"y": -0.2653011334,
				"z": -1.7667357343,
				"element": "H" 
			},
			{
				"x": -2.6032929516,
				"y": 0.1511978858,
				"z": -0.1966815948,
				"element": "H" 
			},
			{
				"x": -1.1669340165,
				"y": -1.3096881689,
				"z": -2.4836528611,
				"element": "H" 
			},
			{
				"x": -0.1652258078,
				"y": 0.762116365,
				"z": -3.088486189,
				"element": "H" 
			},
			{
				"x": -1.5360533063,
				"y": 1.5087241689,
				"z": -2.2646587471,
				"element": "H" 
			},
			{
				"x": 1.6662386934,
				"y": -0.5533961584,
				"z": 1.5279600095,
				"element": "H" 
			},
			{
				"x": 2.6539688731,
				"y": 1.6596886888,
				"z": 1.9720850292,
				"element": "H" 
			},
			{
				"x": 0.5575247808,
				"y": 3.3473882404,
				"z": -1.3919789138,
				"element": "H" 
			},
			{
				"x": 2.1110666224,
				"y": -2.3241836368,
				"z": 0.2213955419,
				"element": "H" 
			},
			{
				"x": 1.2583607057,
				"y": -3.8883236969,
				"z": 0.3325845998,
				"element": "H" 
			},
			{
				"x": 0.9299758381,
				"y": -2.6106408546,
				"z": 1.5141814659,
				"element": "H" 
			}
		],
		 "valence_orbital": [ 
			{
				"type": "occ",
				"energy": -0.31754,
				"method": "rhf"
			},
			{
				"type": "occ",
				"energy": -0.30949,
				"method": "rhf"
			},
			{
				"type": "occ",
				"energy": -0.28693,
				"method": "rhf"
			},
			{
				"type": "occ",
				"energy": -0.27353,
				"method": "rhf"
			},
			{
				"type": "occ",
				"energy": -0.24279,
				"method": "rhf"
			},
			{
				"type": "unocc",
				"energy": -0.08854,
				"method": "rhf"
			},
			{
				"type": "unocc",
				"energy": -0.04599,
				"method": "rhf"
			},
			{
				"type": "unocc",
				"energy": -0.04101,
				"method": "rhf"
			},
			{
				"type": "unocc",
				"energy": 0.00909,
				"method": "rhf"
			},
			{
				"type": "unocc",
				"energy": 0.05662,
				"method": "rhf"
			}
		],
		"cosmo_sigma_profile": { 
			"-0.025": 0.0,
			"-0.024": 0.0,
			"-0.023": 0.0,
			"-0.022": 0.0,
			"-0.021": 0.0,
			"-0.02": 0.0,
			"-0.019": 0.0,
			"-0.018": 0.0,
			"-0.017": 0.0,
			"-0.016": 0.0,
			"-0.015": 0.0,
			"-0.014": 0.0,
			"-0.013": 0.0,
			"-0.012": 0.0,
			"-0.011": 0.0,
			"-0.01": 0.0,
			"-0.009": 1.2767859328,
			"-0.008": 6.33726418671,
			"-0.007": 7.53395407088,
			"-0.006": 13.4425910737,
			"-0.005": 21.6389843417,
			"-0.004": 24.3702796529,
			"-0.003": 25.2780898653,
			"-0.002": 25.0968849098,
			"-0.001": 22.765048772,
			"0.0": 23.8250654833,
			"0.001": 22.6157230942,
			"0.002": 13.01011814,
			"0.003": 13.0922811802,
			"0.004": 16.3231405505,
			"0.005": 5.44894477288,
			"0.006": 5.29219612763,
			"0.007": 6.99993630469,
			"0.008": 10.8912795795,
			"0.009": 7.46986603645,
			"0.01": 1.70886922031,
			"0.011": 1.97209530208,
			"0.012": 3.24642133128,
			"0.013": 3.26841256803,
			"0.014": 0.976355459995,
			"0.015": 0.00237994724973,
			"0.016": 0.0,
			"0.017": 0.0,
			"0.018": 0.0,
			"0.019": 0.0,
			"0.02": 0.0,
			"0.021": 0.0,
			"0.022": 0.0,
			"0.023": 0.0,
			"0.024": 0.0,
			"0.025": 0.0
		}
	}
}
