{
	 "smiles": "SC1=NC=C(Cl)C=C1", 
	 "Tm": 488.15, 
	 "num_atms": 12, 
	 "gaussian": { 
		 "optdone": 1, 
		 "sigma_profile": "yes", 
		 "theory": "DFT", 
		 "functional": "B3LYP", 
		 "basiset": "6-31G**", 
		 "properties": { 
			 "R2extent": 2478.4517, 
			 "electric_dipole_moment_norm": 0.915688096461, 
			 "electric_quadrupole_moment_norm": 3.63134382702, 
			 "total_energy": -1106.06519407, 
			 "HOMO_LUMO_gap": 0.1915, 
			 "cosmo_polarized_energy": -5.76, 
			 "cosmo_cavitation_energy": 19.95, 
			 "cosmo_dispersion_energy": -15.69, 
			 "cosmo_repulsion_energy": 1.25, 
			 "cosmo_total_nonelectrostatic_energy": 5.51, 
			 "SMD_solvation_energy": 1.47 
		},
		"coords": [
			{
				"x": -0.4052171425,
				"y": 1.5329874512,
				"z": 4.2949515972,
				"element": "S" 
			},
			{
				"x": 0.0420714746,
				"y": 1.3045331385,
				"z": 2.5821129534,
				"element": "C" 
			},
			{
				"x": 0.9592890669,
				"y": 2.1219642005,
				"z": 2.060279685,
				"element": "N" 
			},
			{
				"x": 1.2999946917,
				"y": 1.9574823188,
				"z": 0.7775629598,
				"element": "C" 
			},
			{
				"x": 0.7356014865,
				"y": 0.9701524838,
				"z": -0.027950483,
				"element": "C" 
			},
			{
				"x": 1.2295701144,
				"y": 0.8120342154,
				"z": -1.7006565527,
				"element": "Cl" 
			},
			{
				"x": -0.2236972703,
				"y": 0.1142724075,
				"z": 0.5155117306,
				"element": "C" 
			},
			{
				"x": -0.5798830227,
				"y": 0.2824150052,
				"z": 1.8476186548,
				"element": "C" 
			},
			{
				"x": 0.4351540483,
				"y": 2.5674875994,
				"z": 4.4839437761,
				"element": "H" 
			},
			{
				"x": 2.0488924155,
				"y": 2.6356275669,
				"z": 0.376466771,
				"element": "H" 
			},
			{
				"x": -0.6774394803,
				"y": -0.6619311331,
				"z": -0.0912674672,
				"element": "H" 
			},
			{
				"x": -1.3215363821,
				"y": -0.3621252541,
				"z": 2.3077263751,
				"element": "H" 
			}
		],
		 "valence_orbital": [ 
			{
				"type": "occ",
				"energy": -0.32913,
				"method": "rhf"
			},
			{
				"type": "occ",
				"energy": -0.30311,
				"method": "rhf"
			},
			{
				"type": "occ",
				"energy": -0.29761,
				"method": "rhf"
			},
			{
				"type": "occ",
				"energy": -0.27633,
				"method": "rhf"
			},
			{
				"type": "occ",
				"energy": -0.23429,
				"method": "rhf"
			},
			{
				"type": "unocc",
				"energy": -0.04279,
				"method": "rhf"
			},
			{
				"type": "unocc",
				"energy": -0.02854,
				"method": "rhf"
			},
			{
				"type": "unocc",
				"energy": 0.00728,
				"method": "rhf"
			},
			{
				"type": "unocc",
				"energy": 0.02544,
				"method": "rhf"
			},
			{
				"type": "unocc",
				"energy": 0.07192,
				"method": "rhf"
			}
		],
		"cosmo_sigma_profile": { 
			"-0.025": 0.0,
			"-0.024": 0.0,
			"-0.023": 0.0,
			"-0.022": 0.0,
			"-0.021": 0.0,
			"-0.02": 0.0,
			"-0.019": 0.0,
			"-0.018": 0.0,
			"-0.017": 0.0,
			"-0.016": 0.0,
			"-0.015": 0.0,
			"-0.014": 0.0,
			"-0.013": 0.0,
			"-0.012": 0.0,
			"-0.011": 0.712320067108,
			"-0.01": 1.57729412784,
			"-0.009": 2.17128842565,
			"-0.008": 7.06899848759,
			"-0.007": 7.52678887302,
			"-0.006": 5.87874424211,
			"-0.005": 6.43429681201,
			"-0.004": 6.16649789051,
			"-0.003": 6.60219560546,
			"-0.002": 8.80676818039,
			"-0.001": 11.1757303679,
			"0.0": 19.3403370617,
			"0.001": 19.6605913157,
			"0.002": 14.6460862814,
			"0.003": 12.674956981,
			"0.004": 14.9860879468,
			"0.005": 5.93012630554,
			"0.006": 4.18664941882,
			"0.007": 3.83433632509,
			"0.008": 2.31361337828,
			"0.009": 0.809983692746,
			"0.01": 0.738383742928,
			"0.011": 1.02013298845,
			"0.012": 0.779172099054,
			"0.013": 0.520561789907,
			"0.014": 0.0,
			"0.015": 0.0,
			"0.016": 0.0,
			"0.017": 0.0,
			"0.018": 0.0,
			"0.019": 0.0,
			"0.02": 0.0,
			"0.021": 0.0,
			"0.022": 0.0,
			"0.023": 0.0,
			"0.024": 0.0,
			"0.025": 0.0
		}
	}
}
