{
	 "smiles": "NC1=CC=C(C=C1)S(=O)(=O)NC1=CC(F)=CC=C1", 
	 "Tm": 442.15, 
	 "num_atms": 29, 
	 "gaussian": { 
		 "optdone": 1, 
		 "sigma_profile": "yes", 
		 "theory": "DFT", 
		 "functional": "B3LYP", 
		 "basiset": "6-31G**", 
		 "properties": { 
			 "R2extent": 6131.6043, 
			 "electric_dipole_moment_norm": 7.0270081016, 
			 "electric_quadrupole_moment_norm": 17.8610885133, 
			 "total_energy": -1221.81295789, 
			 "HOMO_LUMO_gap": 0.1949, 
			 "cosmo_polarized_energy": -20.64, 
			 "cosmo_cavitation_energy": 35.4, 
			 "cosmo_dispersion_energy": -25.58, 
			 "cosmo_repulsion_energy": 1.91, 
			 "cosmo_total_nonelectrostatic_energy": 11.73, 
			 "SMD_solvation_energy": 5.67 
		},
		"coords": [
			{
				"x": 4.5923923464,
				"y": -0.5997865504,
				"z": -1.3917151716,
				"element": "N" 
			},
			{
				"x": 3.4218563751,
				"y": -0.346991702,
				"z": -0.7027414931,
				"element": "C" 
			},
			{
				"x": 2.5970194952,
				"y": -1.4047810837,
				"z": -0.2726676344,
				"element": "C" 
			},
			{
				"x": 1.4448825077,
				"y": -1.1502866783,
				"z": 0.4607799079,
				"element": "C" 
			},
			{
				"x": 1.0952968358,
				"y": 0.1667824584,
				"z": 0.7700391455,
				"element": "C" 
			},
			{
				"x": 1.9091567768,
				"y": 1.2299338819,
				"z": 0.3618841224,
				"element": "C" 
			},
			{
				"x": 3.0575812856,
				"y": 0.9759594842,
				"z": -0.371191178,
				"element": "C" 
			},
			{
				"x": -0.3526403709,
				"y": 0.4831694902,
				"z": 1.7526688636,
				"element": "S" 
			},
			{
				"x": -0.0203887518,
				"y": 1.4375648968,
				"z": 2.8153355487,
				"element": "O" 
			},
			{
				"x": -0.9844284091,
				"y": -0.805104733,
				"z": 2.043190461,
				"element": "O" 
			},
			{
				"x": -1.3480966682,
				"y": 1.424080605,
				"z": 0.7247303163,
				"element": "N" 
			},
			{
				"x": -2.328360454,
				"y": 0.8914214353,
				"z": -0.1439464263,
				"element": "C" 
			},
			{
				"x": -3.5521779112,
				"y": 1.564707931,
				"z": -0.262567059,
				"element": "C" 
			},
			{
				"x": -4.4956621029,
				"y": 1.0906980024,
				"z": -1.164155302,
				"element": "C" 
			},
			{
				"x": -5.6657894066,
				"y": 1.7545330016,
				"z": -1.2717636089,
				"element": "F" 
			},
			{
				"x": -4.284354624,
				"y": -0.0388706239,
				"z": -1.9446358035,
				"element": "C" 
			},
			{
				"x": -3.0635163424,
				"y": -0.7013231636,
				"z": -1.8073167729,
				"element": "C" 
			},
			{
				"x": -2.0836674064,
				"y": -0.2459108465,
				"z": -0.927458843,
				"element": "C" 
			},
			{
				"x": 4.9938167493,
				"y": 0.1624335507,
				"z": -1.9168652054,
				"element": "H" 
			},
			{
				"x": 4.6780278084,
				"y": -1.4978854553,
				"z": -1.8434012427,
				"element": "H" 
			},
			{
				"x": 2.8713245718,
				"y": -2.4291350292,
				"z": -0.5097989672,
				"element": "H" 
			},
			{
				"x": 0.8127698634,
				"y": -1.9634036994,
				"z": 0.8006179667,
				"element": "H" 
			},
			{
				"x": 1.6416087518,
				"y": 2.2495892143,
				"z": 0.6177864648,
				"element": "H" 
			},
			{
				"x": 3.690500386,
				"y": 1.8003870393,
				"z": -0.6882674825,
				"element": "H" 
			},
			{
				"x": -1.6428740477,
				"y": 2.2353232901,
				"z": 1.2593434543,
				"element": "H" 
			},
			{
				"x": -3.7786568695,
				"y": 2.4427746241,
				"z": 0.3336689301,
				"element": "H" 
			},
			{
				"x": -5.0534011628,
				"y": -0.376934281,
				"z": -2.6293732501,
				"element": "H" 
			},
			{
				"x": -2.8677008223,
				"y": -1.5866156823,
				"z": -2.4047692614,
				"element": "H" 
			},
			{
				"x": -1.1374184036,
				"y": -0.7665293769,
				"z": -0.8532104792,
				"element": "H" 
			}
		],
		 "valence_orbital": [ 
			{
				"type": "occ",
				"energy": -0.29883,
				"method": "rhf"
			},
			{
				"type": "occ",
				"energy": -0.27186,
				"method": "rhf"
			},
			{
				"type": "occ",
				"energy": -0.24982,
				"method": "rhf"
			},
			{
				"type": "occ",
				"energy": -0.23137,
				"method": "rhf"
			},
			{
				"type": "occ",
				"energy": -0.22181,
				"method": "rhf"
			},
			{
				"type": "unocc",
				"energy": -0.02691,
				"method": "rhf"
			},
			{
				"type": "unocc",
				"energy": -0.02073,
				"method": "rhf"
			},
			{
				"type": "unocc",
				"energy": -0.00744,
				"method": "rhf"
			},
			{
				"type": "unocc",
				"energy": 0.00174,
				"method": "rhf"
			},
			{
				"type": "unocc",
				"energy": 0.05408,
				"method": "rhf"
			}
		],
		"cosmo_sigma_profile": { 
			"-0.025": 0.0,
			"-0.024": 0.0,
			"-0.023": 0.0,
			"-0.022": 0.0,
			"-0.021": 0.0,
			"-0.02": 0.0,
			"-0.019": 0.0,
			"-0.018": 0.0,
			"-0.017": 0.0,
			"-0.016": 0.0666312919815,
			"-0.015": 0.897453811047,
			"-0.014": 1.92846290336,
			"-0.013": 3.8131475254,
			"-0.012": 3.94882629738,
			"-0.011": 4.62425151989,
			"-0.01": 4.32912068081,
			"-0.009": 4.74148336787,
			"-0.008": 4.81980375186,
			"-0.007": 11.4975601149,
			"-0.006": 12.8717827026,
			"-0.005": 15.0556927045,
			"-0.004": 14.6567905146,
			"-0.003": 11.53097838,
			"-0.002": 13.3094015613,
			"-0.001": 11.8658474087,
			"0.0": 16.0550703065,
			"0.001": 18.8359627927,
			"0.002": 20.9172607982,
			"0.003": 26.6186808474,
			"0.004": 31.8241260957,
			"0.005": 10.8011139124,
			"0.006": 4.10382694092,
			"0.007": 4.83539927452,
			"0.008": 4.44483573806,
			"0.009": 4.83744357867,
			"0.01": 8.39463476219,
			"0.011": 9.61550773999,
			"0.012": 2.17309501247,
			"0.013": 0.0,
			"0.014": 0.0,
			"0.015": 0.0,
			"0.016": 0.0,
			"0.017": 0.0,
			"0.018": 0.0,
			"0.019": 0.0,
			"0.02": 0.0,
			"0.021": 0.0,
			"0.022": 0.0,
			"0.023": 0.0,
			"0.024": 0.0,
			"0.025": 0.0
		}
	}
}
