{
	 "smiles": "COC1=C(C=C(C=C1)C(O)=O)C(C)C", 
	 "Tm": 438.15, 
	 "num_atms": 28, 
	 "gaussian": { 
		 "optdone": 1, 
		 "sigma_profile": "yes", 
		 "theory": "DFT", 
		 "functional": "B3LYP", 
		 "basiset": "6-31G**", 
		 "properties": { 
			 "R2extent": 3447.1137, 
			 "electric_dipole_moment_norm": 6.27358391113, 
			 "electric_quadrupole_moment_norm": 17.3246063736, 
			 "total_energy": -653.290689403, 
			 "HOMO_LUMO_gap": 0.19602, 
			 "cosmo_polarized_energy": -15.48, 
			 "cosmo_cavitation_energy": 31.07, 
			 "cosmo_dispersion_energy": -22.0, 
			 "cosmo_repulsion_energy": 1.76, 
			 "cosmo_total_nonelectrostatic_energy": 10.82, 
			 "SMD_solvation_energy": 7.36 
		},
		"coords": [
			{
				"x": -0.6194030424,
				"y": 3.2177097144,
				"z": -0.2364586633,
				"element": "C" 
			},
			{
				"x": -0.7256312019,
				"y": 1.9757508372,
				"z": 0.4436668111,
				"element": "O" 
			},
			{
				"x": 0.0078360284,
				"y": 0.9154965589,
				"z": 0.0021813864,
				"element": "C" 
			},
			{
				"x": -0.1482146964,
				"y": -0.2955744226,
				"z": 0.7197132784,
				"element": "C" 
			},
			{
				"x": 0.5891282523,
				"y": -1.3962159444,
				"z": 0.2950822501,
				"element": "C" 
			},
			{
				"x": 1.4764864129,
				"y": -1.3381820732,
				"z": -0.7907514953,
				"element": "C" 
			},
			{
				"x": 1.5982756147,
				"y": -0.1341166203,
				"z": -1.4912532168,
				"element": "C" 
			},
			{
				"x": 0.8700599997,
				"y": 0.9873283621,
				"z": -1.1005886056,
				"element": "C" 
			},
			{
				"x": 2.2117218889,
				"y": -2.5856664807,
				"z": -1.1570240773,
				"element": "C" 
			},
			{
				"x": 3.3156594533,
				"y": -2.4392917037,
				"z": -1.9439545386,
				"element": "O" 
			},
			{
				"x": 1.8795655686,
				"y": -3.6907391144,
				"z": -0.793492009,
				"element": "O" 
			},
			{
				"x": -1.0890064969,
				"y": -0.3922085471,
				"z": 1.9156623131,
				"element": "C" 
			},
			{
				"x": -0.3140721089,
				"y": -0.6816966124,
				"z": 3.2156416804,
				"element": "C" 
			},
			{
				"x": -2.1948028747,
				"y": -1.4391346293,
				"z": 1.6828692915,
				"element": "C" 
			},
			{
				"x": -0.9424350316,
				"y": 3.1348503012,
				"z": -1.2816840269,
				"element": "H" 
			},
			{
				"x": -1.2826523004,
				"y": 3.9047099823,
				"z": 0.2907904348,
				"element": "H" 
			},
			{
				"x": 0.4051367757,
				"y": 3.6090063693,
				"z": -0.2049913017,
				"element": "H" 
			},
			{
				"x": 0.4929236187,
				"y": -2.3473476115,
				"z": 0.8087334093,
				"element": "H" 
			},
			{
				"x": 2.2268237426,
				"y": -0.0574211589,
				"z": -2.3754596953,
				"element": "H" 
			},
			{
				"x": 0.9713117151,
				"y": 1.906717372,
				"z": -1.663843322,
				"element": "H" 
			},
			{
				"x": 3.5550214749,
				"y": -1.5045521739,
				"z": -2.0052780336,
				"element": "H" 
			},
			{
				"x": -1.5730402238,
				"y": 0.5811224619,
				"z": 2.0288097406,
				"element": "H" 
			},
			{
				"x": 0.1914983244,
				"y": -1.6526067555,
				"z": 3.1722220955,
				"element": "H" 
			},
			{
				"x": 0.4460157694,
				"y": 0.0831323468,
				"z": 3.4037236129,
				"element": "H" 
			},
			{
				"x": -0.9966384381,
				"y": -0.6998901329,
				"z": 4.072256617,
				"element": "H" 
			},
			{
				"x": -1.7797810356,
				"y": -2.4469562728,
				"z": 1.5743202338,
				"element": "H" 
			},
			{
				"x": -2.7692124544,
				"y": -1.2155646618,
				"z": 0.7785168434,
				"element": "H" 
			},
			{
				"x": -2.8883747344,
				"y": -1.4556593906,
				"z": 2.530588987,
				"element": "H" 
			}
		],
		 "valence_orbital": [ 
			{
				"type": "occ",
				"energy": -0.3208,
				"method": "rhf"
			},
			{
				"type": "occ",
				"energy": -0.30599,
				"method": "rhf"
			},
			{
				"type": "occ",
				"energy": -0.26619,
				"method": "rhf"
			},
			{
				"type": "occ",
				"energy": -0.25737,
				"method": "rhf"
			},
			{
				"type": "occ",
				"energy": -0.23277,
				"method": "rhf"
			},
			{
				"type": "unocc",
				"energy": -0.03675,
				"method": "rhf"
			},
			{
				"type": "unocc",
				"energy": -0.01637,
				"method": "rhf"
			},
			{
				"type": "unocc",
				"energy": 0.05809,
				"method": "rhf"
			},
			{
				"type": "unocc",
				"energy": 0.06696,
				"method": "rhf"
			},
			{
				"type": "unocc",
				"energy": 0.08823,
				"method": "rhf"
			}
		],
		"cosmo_sigma_profile": { 
			"-0.025": 0.0,
			"-0.024": 0.0,
			"-0.023": 0.0,
			"-0.022": 0.0,
			"-0.021": 0.0,
			"-0.02": 0.0,
			"-0.019": 0.0,
			"-0.018": 0.500848859534,
			"-0.017": 0.970983407074,
			"-0.016": 1.14477931822,
			"-0.015": 0.553988417336,
			"-0.014": 1.49147919644,
			"-0.013": 0.838424809022,
			"-0.012": 0.746462420187,
			"-0.011": 0.931925207728,
			"-0.01": 1.38503311391,
			"-0.009": 1.49149451381,
			"-0.008": 1.47104903123,
			"-0.007": 4.36792997779,
			"-0.006": 10.6466074806,
			"-0.005": 14.5370428144,
			"-0.004": 14.6371288064,
			"-0.003": 20.2232629404,
			"-0.002": 20.8060742484,
			"-0.001": 21.1022594199,
			"0.0": 21.951343654,
			"0.001": 25.9707514573,
			"0.002": 16.0137573072,
			"0.003": 13.7014502573,
			"0.004": 11.7614277666,
			"0.005": 5.1369615288,
			"0.006": 3.83025815248,
			"0.007": 3.86642682915,
			"0.008": 3.35999333343,
			"0.009": 3.02596387027,
			"0.01": 3.74085370589,
			"0.011": 5.42302141416,
			"0.012": 5.83122863768,
			"0.013": 2.80297485131,
			"0.014": 0.561432011071,
			"0.015": 0.0,
			"0.016": 0.0,
			"0.017": 0.0,
			"0.018": 0.0,
			"0.019": 0.0,
			"0.02": 0.0,
			"0.021": 0.0,
			"0.022": 0.0,
			"0.023": 0.0,
			"0.024": 0.0,
			"0.025": 0.0
		}
	}
}
