{
	 "smiles": "CN(C1CCCCC1)C(=O)CSC1=C(C=CC=C1)C(O)=O", 
	 "Tm": 376.15, 
	 "num_atms": 42, 
	 "gaussian": { 
		 "optdone": 1, 
		 "sigma_profile": "yes", 
		 "theory": "DFT", 
		 "functional": "B3LYP", 
		 "basiset": "6-31G**", 
		 "properties": { 
			 "R2extent": 9648.1298, 
			 "electric_dipole_moment_norm": 1.62242153893, 
			 "electric_quadrupole_moment_norm": 14.0996298724, 
			 "total_energy": -1301.00128492, 
			 "HOMO_LUMO_gap": 0.16684, 
			 "cosmo_polarized_energy": -16.13, 
			 "cosmo_cavitation_energy": 43.54, 
			 "cosmo_dispersion_energy": -31.51, 
			 "cosmo_repulsion_energy": 2.37, 
			 "cosmo_total_nonelectrostatic_energy": 14.41, 
			 "SMD_solvation_energy": 7.83 
		},
		"coords": [
			{
				"x": 0.3950382152,
				"y": -0.295429335,
				"z": 2.8184606903,
				"element": "C" 
			},
			{
				"x": 0.8884177123,
				"y": 0.5402347054,
				"z": 1.7260089585,
				"element": "N" 
			},
			{
				"x": 0.6858754793,
				"y": 2.0008911431,
				"z": 1.8071095481,
				"element": "C" 
			},
			{
				"x": 1.4799210342,
				"y": 2.625551948,
				"z": 2.9726869197,
				"element": "C" 
			},
			{
				"x": 1.0924150943,
				"y": 4.1021214673,
				"z": 3.1404047565,
				"element": "C" 
			},
			{
				"x": -0.4007258216,
				"y": 4.272057094,
				"z": 3.5315263218,
				"element": "C" 
			},
			{
				"x": -1.2429940433,
				"y": 3.0241664458,
				"z": 3.1930726927,
				"element": "C" 
			},
			{
				"x": -0.8223420545,
				"y": 2.3969590687,
				"z": 1.8551277994,
				"element": "C" 
			},
			{
				"x": 1.6493343515,
				"y": 0.0464624381,
				"z": 0.7007354876,
				"element": "C" 
			},
			{
				"x": 2.1406048648,
				"y": 0.7662415389,
				"z": -0.1723624299,
				"element": "O" 
			},
			{
				"x": 1.9059973488,
				"y": -1.462889033,
				"z": 0.653824872,
				"element": "C" 
			},
			{
				"x": 0.5002846558,
				"y": -2.5500259311,
				"z": 0.1530401598,
				"element": "S" 
			},
			{
				"x": 0.4447288229,
				"y": -2.3831544583,
				"z": -1.6273411872,
				"element": "C" 
			},
			{
				"x": -0.3932383371,
				"y": -3.2424417494,
				"z": -2.3895886303,
				"element": "C" 
			},
			{
				"x": -0.4054931998,
				"y": -3.1406614196,
				"z": -3.7914226008,
				"element": "C" 
			},
			{
				"x": 0.3811698616,
				"y": -2.2083405654,
				"z": -4.4536175263,
				"element": "C" 
			},
			{
				"x": 1.1886209471,
				"y": -1.3531820959,
				"z": -3.7023582079,
				"element": "C" 
			},
			{
				"x": 1.220843167,
				"y": -1.432422804,
				"z": -2.3117152407,
				"element": "C" 
			},
			{
				"x": -1.2676812021,
				"y": -4.2367976485,
				"z": -1.73251577,
				"element": "C" 
			},
			{
				"x": -1.9381119619,
				"y": -5.0346351511,
				"z": -2.6044552476,
				"element": "O" 
			},
			{
				"x": -1.4109035916,
				"y": -4.3630164719,
				"z": -0.5285882534,
				"element": "O" 
			},
			{
				"x": -0.0274958657,
				"y": -1.2282938463,
				"z": 2.4418344222,
				"element": "H" 
			},
			{
				"x": 1.1741901803,
				"y": -0.5261975168,
				"z": 3.5570188292,
				"element": "H" 
			},
			{
				"x": -0.4078433474,
				"y": 0.232998869,
				"z": 3.3338895667,
				"element": "H" 
			},
			{
				"x": 1.1146912369,
				"y": 2.376540242,
				"z": 0.8778697805,
				"element": "H" 
			},
			{
				"x": 2.551478471,
				"y": 2.5243822726,
				"z": 2.7690959991,
				"element": "H" 
			},
			{
				"x": 1.2847742171,
				"y": 2.0848774493,
				"z": 3.9081009105,
				"element": "H" 
			},
			{
				"x": 1.2901351548,
				"y": 4.6187171438,
				"z": 2.192395032,
				"element": "H" 
			},
			{
				"x": 1.7384716599,
				"y": 4.5798032685,
				"z": 3.8845408546,
				"element": "H" 
			},
			{
				"x": -0.4898674427,
				"y": 4.4838176624,
				"z": 4.6032922915,
				"element": "H" 
			},
			{
				"x": -0.8151724332,
				"y": 5.1449228894,
				"z": 3.0135077833,
				"element": "H" 
			},
			{
				"x": -2.3071518037,
				"y": 3.2843836891,
				"z": 3.1663478478,
				"element": "H" 
			},
			{
				"x": -1.1364545724,
				"y": 2.2846701948,
				"z": 3.9971974308,
				"element": "H" 
			},
			{
				"x": -1.4416853055,
				"y": 1.5237077922,
				"z": 1.6243254642,
				"element": "H" 
			},
			{
				"x": -1.0159144105,
				"y": 3.1192114804,
				"z": 1.0528243522,
				"element": "H" 
			},
			{
				"x": 2.1695293046,
				"y": -1.8541893706,
				"z": 1.6406350737,
				"element": "H" 
			},
			{
				"x": 2.7592054134,
				"y": -1.6244659862,
				"z": -0.0054578379,
				"element": "H" 
			},
			{
				"x": -1.0496592597,
				"y": -3.8101668845,
				"z": -4.3487082192,
				"element": "H" 
			},
			{
				"x": 0.358516818,
				"y": -2.1423705236,
				"z": -5.5367175704,
				"element": "H" 
			},
			{
				"x": 1.7993803468,
				"y": -0.6030747872,
				"z": -4.1970608373,
				"element": "H" 
			},
			{
				"x": 1.829638556,
				"y": -0.7203919944,
				"z": -1.7678966293,
				"element": "H" 
			},
			{
				"x": -2.4757282608,
				"y": -5.6237712299,
				"z": -2.0508676567,
				"element": "H" 
			}
		],
		 "valence_orbital": [ 
			{
				"type": "occ",
				"energy": -0.26836,
				"method": "rhf"
			},
			{
				"type": "occ",
				"energy": -0.25794,
				"method": "rhf"
			},
			{
				"type": "occ",
				"energy": -0.24893,
				"method": "rhf"
			},
			{
				"type": "occ",
				"energy": -0.23658,
				"method": "rhf"
			},
			{
				"type": "occ",
				"energy": -0.21272,
				"method": "rhf"
			},
			{
				"type": "unocc",
				"energy": -0.04588,
				"method": "rhf"
			},
			{
				"type": "unocc",
				"energy": -0.00457,
				"method": "rhf"
			},
			{
				"type": "unocc",
				"energy": 0.00706,
				"method": "rhf"
			},
			{
				"type": "unocc",
				"energy": 0.04981,
				"method": "rhf"
			},
			{
				"type": "unocc",
				"energy": 0.05994,
				"method": "rhf"
			}
		],
		"cosmo_sigma_profile": { 
			"-0.025": 0.0,
			"-0.024": 0.0,
			"-0.023": 0.0,
			"-0.022": 0.0,
			"-0.021": 0.0,
			"-0.02": 0.0,
			"-0.019": 0.094086230648,
			"-0.018": 0.709819017541,
			"-0.017": 1.02818135401,
			"-0.016": 1.21410742769,
			"-0.015": 0.311260755834,
			"-0.014": 0.201997769277,
			"-0.013": 0.10604237912,
			"-0.012": 1.006154664,
			"-0.011": 1.52956613438,
			"-0.01": 0.438686509126,
			"-0.009": 0.560101643347,
			"-0.008": 2.39184060381,
			"-0.007": 7.0352364116,
			"-0.006": 11.0943691898,
			"-0.005": 17.2009481169,
			"-0.004": 19.2412964672,
			"-0.003": 31.2807163089,
			"-0.002": 39.479439159,
			"-0.001": 38.7969551743,
			"0.0": 38.6781353206,
			"0.001": 31.7033099358,
			"0.002": 18.8872166603,
			"0.003": 20.0966763914,
			"0.004": 12.6814202635,
			"0.005": 6.14967951493,
			"0.006": 7.22230152679,
			"0.007": 5.29052654106,
			"0.008": 4.0482821898,
			"0.009": 4.48872324194,
			"0.01": 4.41792113899,
			"0.011": 5.37309184875,
			"0.012": 5.6179929092,
			"0.013": 3.49135757745,
			"0.014": 2.008097988,
			"0.015": 0.0,
			"0.016": 0.0,
			"0.017": 0.0,
			"0.018": 0.0,
			"0.019": 0.0,
			"0.02": 0.0,
			"0.021": 0.0,
			"0.022": 0.0,
			"0.023": 0.0,
			"0.024": 0.0,
			"0.025": 0.0
		}
	}
}
