{
	 "smiles": "FC1=CC=C(C=CC(=O)C2=CC=C(F)C=C2)C=C1", 
	 "Tm": 389.15, 
	 "num_atms": 28, 
	 "gaussian": { 
		 "optdone": 1, 
		 "sigma_profile": "yes", 
		 "theory": "DFT", 
		 "functional": "B3LYP", 
		 "basiset": "6-31G**", 
		 "properties": { 
			 "R2extent": 5642.1307, 
			 "electric_dipole_moment_norm": 2.40034077997, 
			 "electric_quadrupole_moment_norm": 14.0070472445, 
			 "total_energy": -852.4943316, 
			 "HOMO_LUMO_gap": 0.16431, 
			 "cosmo_polarized_energy": -9.69, 
			 "cosmo_cavitation_energy": 34.04, 
			 "cosmo_dispersion_energy": -23.04, 
			 "cosmo_repulsion_energy": 1.74, 
			 "cosmo_total_nonelectrostatic_energy": 12.75, 
			 "SMD_solvation_energy": 7.27 
		},
		"coords": [
			{
				"x": -2.5553885416,
				"y": 2.2688363978,
				"z": 0.479499049,
				"element": "F" 
			},
			{
				"x": -1.4385925864,
				"y": 1.5598270134,
				"z": 0.7366710557,
				"element": "C" 
			},
			{
				"x": -1.5442778681,
				"y": 0.1916094977,
				"z": 0.9646215577,
				"element": "C" 
			},
			{
				"x": -0.3884503913,
				"y": -0.5366579102,
				"z": 1.2321260663,
				"element": "C" 
			},
			{
				"x": 0.872807106,
				"y": 0.0876743974,
				"z": 1.2653169277,
				"element": "C" 
			},
			{
				"x": 2.1191481586,
				"y": -0.6412033562,
				"z": 1.548555617,
				"element": "C" 
			},
			{
				"x": 2.4234423656,
				"y": -1.9316555678,
				"z": 1.3161422112,
				"element": "C" 
			},
			{
				"x": 1.5867017615,
				"y": -3.0075384386,
				"z": 0.6890368066,
				"element": "C" 
			},
			{
				"x": 1.3535269616,
				"y": -4.021962259,
				"z": 1.3382247763,
				"element": "O" 
			},
			{
				"x": 1.1217770606,
				"y": -2.8818936216,
				"z": -0.7268468633,
				"element": "C" 
			},
			{
				"x": 0.2604081823,
				"y": -3.8736601999,
				"z": -1.2268281296,
				"element": "C" 
			},
			{
				"x": -0.1845863173,
				"y": -3.8331935955,
				"z": -2.5423533594,
				"element": "C" 
			},
			{
				"x": 0.2517156971,
				"y": -2.7919371469,
				"z": -3.3594240786,
				"element": "C" 
			},
			{
				"x": -0.1720962924,
				"y": -2.7471762147,
				"z": -4.6360272921,
				"element": "F" 
			},
			{
				"x": 1.1133595009,
				"y": -1.8000514189,
				"z": -2.9021903041,
				"element": "C" 
			},
			{
				"x": 1.5458664411,
				"y": -1.8507581005,
				"z": -1.5792245812,
				"element": "C" 
			},
			{
				"x": 0.9300859916,
				"y": 1.4788571301,
				"z": 1.0594413553,
				"element": "C" 
			},
			{
				"x": -0.2155501714,
				"y": 2.2204100634,
				"z": 0.7847325795,
				"element": "C" 
			},
			{
				"x": -2.5203518321,
				"y": -0.280669698,
				"z": 0.9445040115,
				"element": "H" 
			},
			{
				"x": -0.4716688321,
				"y": -1.5959636375,
				"z": 1.4483786959,
				"element": "H" 
			},
			{
				"x": 2.888794001,
				"y": -0.0424313169,
				"z": 2.035655153,
				"element": "H" 
			},
			{
				"x": 3.3665826,
				"y": -2.3094489298,
				"z": 1.7063907554,
				"element": "H" 
			},
			{
				"x": -0.0451617209,
				"y": -4.6720189655,
				"z": -0.5590024842,
				"element": "H" 
			},
			{
				"x": -0.8532327667,
				"y": -4.5857347112,
				"z": -2.9460650322,
				"element": "H" 
			},
			{
				"x": 1.4313499844,
				"y": -1.0140033201,
				"z": -3.578191667,
				"element": "H" 
			},
			{
				"x": 2.2223174428,
				"y": -1.0896957223,
				"z": -1.2071799164,
				"element": "H" 
			},
			{
				"x": 1.8912068749,
				"y": 1.9840165469,
				"z": 1.1055519692,
				"element": "H" 
			},
			{
				"x": -0.1763328096,
				"y": 3.2910230845,
				"z": 0.6160851209,
				"element": "H" 
			}
		],
		 "valence_orbital": [ 
			{
				"type": "occ",
				"energy": -0.27228,
				"method": "rhf"
			},
			{
				"type": "occ",
				"energy": -0.26941,
				"method": "rhf"
			},
			{
				"type": "occ",
				"energy": -0.25931,
				"method": "rhf"
			},
			{
				"type": "occ",
				"energy": -0.25188,
				"method": "rhf"
			},
			{
				"type": "occ",
				"energy": -0.23227,
				"method": "rhf"
			},
			{
				"type": "unocc",
				"energy": -0.06796,
				"method": "rhf"
			},
			{
				"type": "unocc",
				"energy": -0.03726,
				"method": "rhf"
			},
			{
				"type": "unocc",
				"energy": -0.02121,
				"method": "rhf"
			},
			{
				"type": "unocc",
				"energy": -0.01567,
				"method": "rhf"
			},
			{
				"type": "unocc",
				"energy": 0.02844,
				"method": "rhf"
			}
		],
		"cosmo_sigma_profile": { 
			"-0.025": 0.0,
			"-0.024": 0.0,
			"-0.023": 0.0,
			"-0.022": 0.0,
			"-0.021": 0.0,
			"-0.02": 0.0,
			"-0.019": 0.0,
			"-0.018": 0.0,
			"-0.017": 0.0,
			"-0.016": 0.0,
			"-0.015": 0.0,
			"-0.014": 0.0,
			"-0.013": 0.0,
			"-0.012": 0.0,
			"-0.011": 0.0,
			"-0.01": 0.0,
			"-0.009": 0.0,
			"-0.008": 2.45620706198,
			"-0.007": 12.9105770311,
			"-0.006": 17.6156800938,
			"-0.005": 19.8349529974,
			"-0.004": 15.1171236592,
			"-0.003": 15.0693371998,
			"-0.002": 15.2200780978,
			"-0.001": 18.7216870029,
			"0.0": 25.5892944761,
			"0.001": 25.9522677024,
			"0.002": 28.3313803452,
			"0.003": 30.0611346598,
			"0.004": 25.9707431143,
			"0.005": 4.49198324503,
			"0.006": 1.51529599152,
			"0.007": 1.46741334898,
			"0.008": 1.38854181225,
			"0.009": 1.94602233539,
			"0.01": 2.02322437491,
			"0.011": 3.07571809745,
			"0.012": 3.86467468533,
			"0.013": 1.49712738906,
			"0.014": 0.0946320823816,
			"0.015": 0.0,
			"0.016": 0.0,
			"0.017": 0.0,
			"0.018": 0.0,
			"0.019": 0.0,
			"0.02": 0.0,
			"0.021": 0.0,
			"0.022": 0.0,
			"0.023": 0.0,
			"0.024": 0.0,
			"0.025": 0.0
		}
	}
}
