{
	 "smiles": "FC1=CC=CC(N2C=CC=C2)=C1C#N", 
	 "Tm": 341.15, 
	 "num_atms": 21, 
	 "gaussian": { 
		 "optdone": 1, 
		 "sigma_profile": "yes", 
		 "theory": "DFT", 
		 "functional": "B3LYP", 
		 "basiset": "6-31G**", 
		 "properties": { 
			 "R2extent": 2827.796, 
			 "electric_dipole_moment_norm": 5.17265043667, 
			 "electric_quadrupole_moment_norm": 11.226120357, 
			 "total_energy": -632.687031307, 
			 "HOMO_LUMO_gap": 0.1565, 
			 "cosmo_polarized_energy": -10.92, 
			 "cosmo_cavitation_energy": 26.98, 
			 "cosmo_dispersion_energy": -18.85, 
			 "cosmo_repulsion_energy": 1.43, 
			 "cosmo_total_nonelectrostatic_energy": 9.56, 
			 "SMD_solvation_energy": 6.83 
		},
		"coords": [
			{
				"x": -2.0688028661,
				"y": -2.3449190158,
				"z": -0.2316736948,
				"element": "F" 
			},
			{
				"x": -1.5499069312,
				"y": -1.1155852711,
				"z": -0.1067710481,
				"element": "C" 
			},
			{
				"x": -2.3561934999,
				"y": -0.0136671044,
				"z": -0.3390692541,
				"element": "C" 
			},
			{
				"x": -1.7861509581,
				"y": 1.2536682013,
				"z": -0.21429949,
				"element": "C" 
			},
			{
				"x": -0.4501134045,
				"y": 1.4069790615,
				"z": 0.1476645883,
				"element": "C" 
			},
			{
				"x": 0.3637171665,
				"y": 0.2896981579,
				"z": 0.3769496086,
				"element": "C" 
			},
			{
				"x": 1.7136085967,
				"y": 0.4800247512,
				"z": 0.7269420002,
				"element": "N" 
			},
			{
				"x": 2.4346576602,
				"y": -0.216755145,
				"z": 1.6910831561,
				"element": "C" 
			},
			{
				"x": 3.6850431185,
				"y": 0.3391642853,
				"z": 1.7741603543,
				"element": "C" 
			},
			{
				"x": 3.7466905558,
				"y": 1.4106190736,
				"z": 0.8310560142,
				"element": "C" 
			},
			{
				"x": 2.527167657,
				"y": 1.4841814306,
				"z": 0.2094202174,
				"element": "C" 
			},
			{
				"x": -0.1916245862,
				"y": -1.0069143038,
				"z": 0.2369389419,
				"element": "C" 
			},
			{
				"x": 0.5636575544,
				"y": -2.211707278,
				"z": 0.3806697385,
				"element": "C" 
			},
			{
				"x": 1.1484829499,
				"y": -3.2113821228,
				"z": 0.4872007311,
				"element": "N" 
			},
			{
				"x": -3.3961160574,
				"y": -0.1597251811,
				"z": -0.6062658337,
				"element": "H" 
			},
			{
				"x": -2.3978815468,
				"y": 2.1344699684,
				"z": -0.3814403213,
				"element": "H" 
			},
			{
				"x": -0.0304774596,
				"y": 2.3962092422,
				"z": 0.2862637896,
				"element": "H" 
			},
			{
				"x": 1.983377246,
				"y": -1.0236015631,
				"z": 2.2450692829,
				"element": "H" 
			},
			{
				"x": 4.4713624894,
				"y": 0.0161046228,
				"z": 2.4414669968,
				"element": "H" 
			},
			{
				"x": 4.5979280745,
				"y": 2.0435078054,
				"z": 0.6232783228,
				"element": "H" 
			},
			{
				"x": 2.1743742406,
				"y": 2.115830385,
				"z": -0.5909441008,
				"element": "H" 
			}
		],
		 "valence_orbital": [ 
			{
				"type": "occ",
				"energy": -0.3368,
				"method": "rhf"
			},
			{
				"type": "occ",
				"energy": -0.2959,
				"method": "rhf"
			},
			{
				"type": "occ",
				"energy": -0.2725,
				"method": "rhf"
			},
			{
				"type": "occ",
				"energy": -0.23881,
				"method": "rhf"
			},
			{
				"type": "occ",
				"energy": -0.22148,
				"method": "rhf"
			},
			{
				"type": "unocc",
				"energy": -0.06498,
				"method": "rhf"
			},
			{
				"type": "unocc",
				"energy": -0.03322,
				"method": "rhf"
			},
			{
				"type": "unocc",
				"energy": 0.02309,
				"method": "rhf"
			},
			{
				"type": "unocc",
				"energy": 0.0335,
				"method": "rhf"
			},
			{
				"type": "unocc",
				"energy": 0.06447,
				"method": "rhf"
			}
		],
		"cosmo_sigma_profile": { 
			"-0.025": 0.0,
			"-0.024": 0.0,
			"-0.023": 0.0,
			"-0.022": 0.0,
			"-0.021": 0.0,
			"-0.02": 0.0,
			"-0.019": 0.0,
			"-0.018": 0.0,
			"-0.017": 0.0,
			"-0.016": 0.0,
			"-0.015": 0.0,
			"-0.014": 0.0,
			"-0.013": 0.0,
			"-0.012": 0.0,
			"-0.011": 0.0,
			"-0.01": 0.0,
			"-0.009": 0.963086611399,
			"-0.008": 7.47412706094,
			"-0.007": 11.2538379915,
			"-0.006": 12.4616002939,
			"-0.005": 10.555711494,
			"-0.004": 10.7998138381,
			"-0.003": 15.5759640812,
			"-0.002": 19.2796050353,
			"-0.001": 19.9159318933,
			"0.0": 17.5452091972,
			"0.001": 15.2419005037,
			"0.002": 13.6634213673,
			"0.003": 16.3037170141,
			"0.004": 8.54266719486,
			"0.005": 8.61020147778,
			"0.006": 7.90046097096,
			"0.007": 8.50804146381,
			"0.008": 3.47669947954,
			"0.009": 3.12618664045,
			"0.01": 2.64190473997,
			"0.011": 2.56407536778,
			"0.012": 2.16405888153,
			"0.013": 0.578792839273,
			"0.014": 0.0,
			"0.015": 0.0,
			"0.016": 0.0,
			"0.017": 0.0,
			"0.018": 0.0,
			"0.019": 0.0,
			"0.02": 0.0,
			"0.021": 0.0,
			"0.022": 0.0,
			"0.023": 0.0,
			"0.024": 0.0,
			"0.025": 0.0
		}
	}
}
