{
	 "smiles": "COC(=O)C1=C(F)C=C(Br)C(=C1)S(Cl)(=O)=O", 
	 "Tm": 379.15, 
	 "num_atms": 21, 
	 "gaussian": { 
		 "optdone": 1, 
		 "sigma_profile": "yes", 
		 "theory": "DFT", 
		 "functional": "B3LYP", 
		 "basiset": "6-31G**", 
		 "properties": { 
			 "R2extent": 9023.9469, 
			 "electric_dipole_moment_norm": 2.67227521225, 
			 "electric_quadrupole_moment_norm": 25.8346391411, 
			 "total_energy": -4138.29930954, 
			 "HOMO_LUMO_gap": 0.18611, 
			 "cosmo_polarized_energy": -11.76, 
			 "cosmo_cavitation_energy": 32.45, 
			 "cosmo_dispersion_energy": -24.13, 
			 "cosmo_repulsion_energy": 1.82, 
			 "cosmo_total_nonelectrostatic_energy": 10.14, 
			 "SMD_solvation_energy": 5.41 
		},
		"coords": [
			{
				"x": -1.1741102736,
				"y": -2.1894621492,
				"z": 2.5335465971,
				"element": "C" 
			},
			{
				"x": -1.2274330861,
				"y": -1.3123309197,
				"z": 1.3940000849,
				"element": "O" 
			},
			{
				"x": -0.1694353042,
				"y": -1.3882484314,
				"z": 0.5591375834,
				"element": "C" 
			},
			{
				"x": 0.7722772365,
				"y": -2.1310974624,
				"z": 0.7290642075,
				"element": "O" 
			},
			{
				"x": -0.3209064244,
				"y": -0.4402681919,
				"z": -0.5873588951,
				"element": "C" 
			},
			{
				"x": 0.6547231934,
				"y": -0.338889478,
				"z": -1.5906543707,
				"element": "C" 
			},
			{
				"x": 1.7538689676,
				"y": -1.0868742023,
				"z": -1.554099236,
				"element": "F" 
			},
			{
				"x": 0.5249482431,
				"y": 0.5423709233,
				"z": -2.6608915046,
				"element": "C" 
			},
			{
				"x": -0.5996183903,
				"y": 1.3548258705,
				"z": -2.7646039584,
				"element": "C" 
			},
			{
				"x": -0.6839347952,
				"y": 2.5402347572,
				"z": -4.2365303398,
				"element": "Br" 
			},
			{
				"x": -1.593878447,
				"y": 1.2663744309,
				"z": -1.773870658,
				"element": "C" 
			},
			{
				"x": -1.4451070349,
				"y": 0.384185246,
				"z": -0.7046323109,
				"element": "C" 
			},
			{
				"x": -3.1308834298,
				"y": 2.2017798837,
				"z": -1.7905602729,
				"element": "S" 
			},
			{
				"x": -2.4440720858,
				"y": 4.1585234912,
				"z": -1.3413409696,
				"element": "Cl" 
			},
			{
				"x": -3.9232014995,
				"y": 1.7805608815,
				"z": -0.6423210659,
				"element": "O" 
			},
			{
				"x": -3.6915040218,
				"y": 2.2404945526,
				"z": -3.1322647129,
				"element": "O" 
			},
			{
				"x": -0.2958234147,
				"y": -1.9680517679,
				"z": 3.144290264,
				"element": "H" 
			},
			{
				"x": -2.0901889857,
				"y": -1.9981062886,
				"z": 3.0909383825,
				"element": "H" 
			},
			{
				"x": -1.1283388868,
				"y": -3.2319873008,
				"z": 2.2102893591,
				"element": "H" 
			},
			{
				"x": 1.3104944717,
				"y": 0.5842798794,
				"z": -3.404921045,
				"element": "H" 
			},
			{
				"x": -2.2182760327,
				"y": 0.3332862759,
				"z": 0.0508828614,
				"element": "H" 
			}
		],
		 "valence_orbital": [ 
			{
				"type": "occ",
				"energy": -0.32114,
				"method": "rhf"
			},
			{
				"type": "occ",
				"energy": -0.31137,
				"method": "rhf"
			},
			{
				"type": "occ",
				"energy": -0.29846,
				"method": "rhf"
			},
			{
				"type": "occ",
				"energy": -0.29444,
				"method": "rhf"
			},
			{
				"type": "occ",
				"energy": -0.28474,
				"method": "rhf"
			},
			{
				"type": "unocc",
				"energy": -0.09863,
				"method": "rhf"
			},
			{
				"type": "unocc",
				"energy": -0.08372,
				"method": "rhf"
			},
			{
				"type": "unocc",
				"energy": -0.05814,
				"method": "rhf"
			},
			{
				"type": "unocc",
				"energy": -0.02673,
				"method": "rhf"
			},
			{
				"type": "unocc",
				"energy": 0.00917,
				"method": "rhf"
			}
		],
		"cosmo_sigma_profile": { 
			"-0.025": 0.0,
			"-0.024": 0.0,
			"-0.023": 0.0,
			"-0.022": 0.0,
			"-0.021": 0.0,
			"-0.02": 0.0,
			"-0.019": 0.0,
			"-0.018": 0.0,
			"-0.017": 0.0,
			"-0.016": 0.0,
			"-0.015": 0.0,
			"-0.014": 0.0,
			"-0.013": 0.0,
			"-0.012": 0.0,
			"-0.011": 0.156266896976,
			"-0.01": 1.40193232852,
			"-0.009": 1.64835808818,
			"-0.008": 1.7950374249,
			"-0.007": 5.49187349544,
			"-0.006": 11.0964440618,
			"-0.005": 16.4707773513,
			"-0.004": 31.4592449988,
			"-0.003": 28.6403630038,
			"-0.002": 22.0566761713,
			"-0.001": 15.9508170549,
			"0.0": 14.0876476952,
			"0.001": 16.5504254938,
			"0.002": 26.5662886975,
			"0.003": 21.9361632502,
			"0.004": 8.19701673363,
			"0.005": 4.7788967864,
			"0.006": 6.22553165096,
			"0.007": 10.345187328,
			"0.008": 10.7190085025,
			"0.009": 3.25486338168,
			"0.01": 3.33390203502,
			"0.011": 4.5734158224,
			"0.012": 0.38732129577,
			"0.013": 0.0,
			"0.014": 0.0,
			"0.015": 0.0,
			"0.016": 0.0,
			"0.017": 0.0,
			"0.018": 0.0,
			"0.019": 0.0,
			"0.02": 0.0,
			"0.021": 0.0,
			"0.022": 0.0,
			"0.023": 0.0,
			"0.024": 0.0,
			"0.025": 0.0
		}
	}
}
