{
	 "smiles": "CN1C(=O)C(C2=NNC(=O)C2=C/C2=CC=CC=C2O)=C(O)C2=CC=CC=C12", 
	 "Tm": 513.15, 
	 "num_atms": 42, 
	 "gaussian": { 
		 "optdone": 1, 
		 "sigma_profile": "yes", 
		 "theory": "DFT", 
		 "functional": "B3LYP", 
		 "basiset": "6-31G**", 
		 "properties": { 
			 "R2extent": 11328.6574, 
			 "electric_dipole_moment_norm": 4.61777519591, 
			 "electric_quadrupole_moment_norm": 19.691957292, 
			 "total_energy": -1236.32255643, 
			 "HOMO_LUMO_gap": 0.1197, 
			 "cosmo_polarized_energy": -22.53, 
			 "cosmo_cavitation_energy": 45.44, 
			 "cosmo_dispersion_energy": -33.17, 
			 "cosmo_repulsion_energy": 2.42, 
			 "cosmo_total_nonelectrostatic_energy": 14.69, 
			 "SMD_solvation_energy": 8.45 
		},
		"coords": [
			{
				"x": -3.6575167897,
				"y": 0.6675163591,
				"z": -1.9285740862,
				"element": "C" 
			},
			{
				"x": -2.2576536167,
				"y": 0.3561085608,
				"z": -2.2143497515,
				"element": "N" 
			},
			{
				"x": -1.5414617538,
				"y": -0.3318381923,
				"z": -1.2114933755,
				"element": "C" 
			},
			{
				"x": -2.118931717,
				"y": -0.6607857578,
				"z": -0.1717441201,
				"element": "O" 
			},
			{
				"x": -0.1356417055,
				"y": -0.6263735759,
				"z": -1.4811082053,
				"element": "C" 
			},
			{
				"x": 0.7125001525,
				"y": -1.2658797665,
				"z": -0.4584021763,
				"element": "C" 
			},
			{
				"x": 1.7243270354,
				"y": -1.9932528446,
				"z": -0.8875133413,
				"element": "N" 
			},
			{
				"x": 2.4535835164,
				"y": -2.3986200393,
				"z": 0.2018465403,
				"element": "N" 
			},
			{
				"x": 1.9084807251,
				"y": -2.0186910098,
				"z": 1.4108686378,
				"element": "C" 
			},
			{
				"x": 2.3578586848,
				"y": -2.3634906618,
				"z": 2.5014832805,
				"element": "O" 
			},
			{
				"x": 0.7537789882,
				"y": -1.1579199131,
				"z": 1.0122385663,
				"element": "C" 
			},
			{
				"x": -0.0037454486,
				"y": -0.3023120229,
				"z": 1.766006539,
				"element": "C" 
			},
			{
				"x": -0.0425923774,
				"y": 0.007183722,
				"z": 3.1805038923,
				"element": "C" 
			},
			{
				"x": 0.5974070689,
				"y": -0.7295811365,
				"z": 4.2039584876,
				"element": "C" 
			},
			{
				"x": 0.4582127532,
				"y": -0.3827401604,
				"z": 5.5421348276,
				"element": "C" 
			},
			{
				"x": -0.3255042591,
				"y": 0.7172399856,
				"z": 5.9016993714,
				"element": "C" 
			},
			{
				"x": -0.9669254994,
				"y": 1.470711302,
				"z": 4.9217265649,
				"element": "C" 
			},
			{
				"x": -0.8325728523,
				"y": 1.1263520176,
				"z": 3.5751972219,
				"element": "C" 
			},
			{
				"x": -1.4369278878,
				"y": 1.858603034,
				"z": 2.5990625984,
				"element": "O" 
			},
			{
				"x": 0.3845429277,
				"y": -0.3857908249,
				"z": -2.7481317509,
				"element": "C" 
			},
			{
				"x": 1.6023983832,
				"y": -0.7702700142,
				"z": -3.130659247,
				"element": "O" 
			},
			{
				"x": -0.3800377014,
				"y": 0.3316303721,
				"z": -3.7428784,
				"element": "C" 
			},
			{
				"x": 0.1737170641,
				"y": 0.6580979637,
				"z": -4.9944897158,
				"element": "C" 
			},
			{
				"x": -0.5639510192,
				"y": 1.3581750464,
				"z": -5.935370674,
				"element": "C" 
			},
			{
				"x": -1.8799690361,
				"y": 1.7341031962,
				"z": -5.6327220912,
				"element": "C" 
			},
			{
				"x": -2.4519634802,
				"y": 1.4146663624,
				"z": -4.4081823775,
				"element": "C" 
			},
			{
				"x": -1.7106460258,
				"y": 0.706757832,
				"z": -3.4402170103,
				"element": "C" 
			},
			{
				"x": -4.3155134885,
				"y": 0.1982978648,
				"z": -2.6666616636,
				"element": "H" 
			},
			{
				"x": -3.8220171432,
				"y": 1.7498859845,
				"z": -1.9391946226,
				"element": "H" 
			},
			{
				"x": -3.877786442,
				"y": 0.2730774891,
				"z": -0.9396489466,
				"element": "H" 
			},
			{
				"x": 3.1739606511,
				"y": -3.0947747924,
				"z": 0.0895588072,
				"element": "H" 
			},
			{
				"x": -0.7299990038,
				"y": 0.261804755,
				"z": 1.1961870149,
				"element": "H" 
			},
			{
				"x": 1.2061604917,
				"y": -1.5775379615,
				"z": 3.9157645198,
				"element": "H" 
			},
			{
				"x": 0.9573276198,
				"y": -0.9707179401,
				"z": 6.3055637411,
				"element": "H" 
			},
			{
				"x": -0.4385391313,
				"y": 0.9935212123,
				"z": 6.9462606621,
				"element": "H" 
			},
			{
				"x": -1.5722278,
				"y": 2.3318516744,
				"z": 5.1972200274,
				"element": "H" 
			},
			{
				"x": -1.9843692526,
				"y": 2.5419006135,
				"z": 3.0067799635,
				"element": "H" 
			},
			{
				"x": 1.9662550044,
				"y": -1.3549090595,
				"z": -2.4068641178,
				"element": "H" 
			},
			{
				"x": 1.1919752756,
				"y": 0.3486844938,
				"z": -5.1987910892,
				"element": "H" 
			},
			{
				"x": -0.1284874074,
				"y": 1.6098117635,
				"z": -6.8969628094,
				"element": "H" 
			},
			{
				"x": -2.4693720197,
				"y": 2.2813359854,
				"z": -6.3628666495,
				"element": "H" 
			},
			{
				"x": -3.4716334835,
				"y": 1.7142680832,
				"z": -4.2041350422,
				"element": "H" 
			}
		],
		 "valence_orbital": [ 
			{
				"type": "occ",
				"energy": -0.24769,
				"method": "rhf"
			},
			{
				"type": "occ",
				"energy": -0.24074,
				"method": "rhf"
			},
			{
				"type": "occ",
				"energy": -0.22687,
				"method": "rhf"
			},
			{
				"type": "occ",
				"energy": -0.21874,
				"method": "rhf"
			},
			{
				"type": "occ",
				"energy": -0.20468,
				"method": "rhf"
			},
			{
				"type": "unocc",
				"energy": -0.08498,
				"method": "rhf"
			},
			{
				"type": "unocc",
				"energy": -0.04936,
				"method": "rhf"
			},
			{
				"type": "unocc",
				"energy": -0.00808,
				"method": "rhf"
			},
			{
				"type": "unocc",
				"energy": 0.00368,
				"method": "rhf"
			},
			{
				"type": "unocc",
				"energy": 0.01594,
				"method": "rhf"
			}
		],
		"cosmo_sigma_profile": { 
			"-0.025": 0.0,
			"-0.024": 0.0,
			"-0.023": 0.0,
			"-0.022": 0.0,
			"-0.021": 0.0,
			"-0.02": 0.0,
			"-0.019": 0.338515038803,
			"-0.018": 1.28694640366,
			"-0.017": 1.37730992818,
			"-0.016": 1.98987507403,
			"-0.015": 2.39154775629,
			"-0.014": 1.77790178392,
			"-0.013": 1.15426675895,
			"-0.012": 2.29772955595,
			"-0.011": 2.94742825343,
			"-0.01": 1.39762491329,
			"-0.009": 1.5254657331,
			"-0.008": 1.88856638092,
			"-0.007": 7.15212522041,
			"-0.006": 18.7150012134,
			"-0.005": 21.957538229,
			"-0.004": 21.3315948939,
			"-0.003": 19.7758459618,
			"-0.002": 24.2460621919,
			"-0.001": 26.8684011825,
			"0.0": 31.0827473878,
			"0.001": 31.7683615946,
			"0.002": 32.4555040899,
			"0.003": 28.0536869706,
			"0.004": 25.8377812942,
			"0.005": 10.9224645571,
			"0.006": 7.10973239736,
			"0.007": 8.83806571256,
			"0.008": 7.3340816211,
			"0.009": 3.85799276176,
			"0.01": 2.95820277303,
			"0.011": 3.82320323824,
			"0.012": 4.77795849324,
			"0.013": 5.08076175559,
			"0.014": 1.6427366735,
			"0.015": 0.0,
			"0.016": 0.0,
			"0.017": 0.0,
			"0.018": 0.0,
			"0.019": 0.0,
			"0.02": 0.0,
			"0.021": 0.0,
			"0.022": 0.0,
			"0.023": 0.0,
			"0.024": 0.0,
			"0.025": 0.0
		}
	}
}
