{
	 "smiles": "[O-][N+](=O)C1=CN=C(OC2=CC=C(CC#N)C=C2)C=C1", 
	 "Tm": 391.15, 
	 "num_atms": 28, 
	 "gaussian": { 
		 "optdone": 1, 
		 "sigma_profile": "yes", 
		 "theory": "DFT", 
		 "functional": "B3LYP", 
		 "basiset": "6-31G**", 
		 "properties": { 
			 "R2extent": 8566.0638, 
			 "electric_dipole_moment_norm": 6.52032764054, 
			 "electric_quadrupole_moment_norm": 25.6273665939, 
			 "total_energy": -890.60442641, 
			 "HOMO_LUMO_gap": 0.15862, 
			 "cosmo_polarized_energy": -18.44, 
			 "cosmo_cavitation_energy": 35.93, 
			 "cosmo_dispersion_energy": -25.02, 
			 "cosmo_repulsion_energy": 1.93, 
			 "cosmo_total_nonelectrostatic_energy": 12.84, 
			 "SMD_solvation_energy": 9.31 
		},
		"coords": [
			{
				"x": -0.2063592103,
				"y": -0.3401596835,
				"z": -6.9203014485,
				"element": "O" 
			},
			{
				"x": -0.15269055,
				"y": -0.871861366,
				"z": -5.8105953644,
				"element": "N" 
			},
			{
				"x": 0.0811068261,
				"y": -2.0636560255,
				"z": -5.6096338177,
				"element": "O" 
			},
			{
				"x": -0.3847772641,
				"y": -0.0221261088,
				"z": -4.6462163583,
				"element": "C" 
			},
			{
				"x": -0.3307443443,
				"y": -0.5666102416,
				"z": -3.3664836489,
				"element": "C" 
			},
			{
				"x": -0.5379736994,
				"y": 0.1702998807,
				"z": -2.2709355762,
				"element": "N" 
			},
			{
				"x": -0.801670393,
				"y": 1.4621402854,
				"z": -2.4358726638,
				"element": "C" 
			},
			{
				"x": -0.9996770276,
				"y": 2.2561770856,
				"z": -1.3556450034,
				"element": "O" 
			},
			{
				"x": -1.0430963435,
				"y": 1.7369567552,
				"z": -0.0614874473,
				"element": "C" 
			},
			{
				"x": -0.1803459182,
				"y": 2.3061938211,
				"z": 0.8706009716,
				"element": "C" 
			},
			{
				"x": -0.2525318012,
				"y": 1.9027414045,
				"z": 2.2033565258,
				"element": "C" 
			},
			{
				"x": -1.1787059468,
				"y": 0.9359814479,
				"z": 2.6061563648,
				"element": "C" 
			},
			{
				"x": -1.2478555658,
				"y": 0.4889806845,
				"z": 4.0601211275,
				"element": "C" 
			},
			{
				"x": -0.3599679837,
				"y": -0.6454137847,
				"z": 4.3521437719,
				"element": "C" 
			},
			{
				"x": 0.3439245776,
				"y": -1.5403720842,
				"z": 4.5768901459,
				"element": "N" 
			},
			{
				"x": -2.0377469476,
				"y": 0.3799546061,
				"z": 1.6509201373,
				"element": "C" 
			},
			{
				"x": -1.9803915329,
				"y": 0.7770370556,
				"z": 0.3169778282,
				"element": "C" 
			},
			{
				"x": -0.8781690482,
				"y": 2.1043164785,
				"z": -3.6878213887,
				"element": "C" 
			},
			{
				"x": -0.6628306415,
				"y": 1.3391064103,
				"z": -4.8173188603,
				"element": "C" 
			},
			{
				"x": -0.1127523902,
				"y": -1.6207589445,
				"z": -3.230382862,
				"element": "H" 
			},
			{
				"x": 0.5302510178,
				"y": 3.0592773138,
				"z": 0.5475762048,
				"element": "H" 
			},
			{
				"x": 0.420890412,
				"y": 2.3455737382,
				"z": 2.9319810371,
				"element": "H" 
			},
			{
				"x": -0.9749204521,
				"y": 1.3134802548,
				"z": 4.7284454408,
				"element": "H" 
			},
			{
				"x": -2.2704168964,
				"y": 0.1956471558,
				"z": 4.3232711538,
				"element": "H" 
			},
			{
				"x": -2.7638204104,
				"y": -0.3710479721,
				"z": 1.9499874046,
				"element": "H" 
			},
			{
				"x": -2.6500719497,
				"y": 0.3471527796,
				"z": -0.4181139781,
				"element": "H" 
			},
			{
				"x": -1.0985424801,
				"y": 3.1638500301,
				"z": -3.7386818868,
				"element": "H" 
			},
			{
				"x": -0.7035140364,
				"y": 1.7571390232,
				"z": -5.8157378101,
				"element": "H" 
			}
		],
		 "valence_orbital": [ 
			{
				"type": "occ",
				"energy": -0.29887,
				"method": "rhf"
			},
			{
				"type": "occ",
				"energy": -0.29651,
				"method": "rhf"
			},
			{
				"type": "occ",
				"energy": -0.28153,
				"method": "rhf"
			},
			{
				"type": "occ",
				"energy": -0.27462,
				"method": "rhf"
			},
			{
				"type": "occ",
				"energy": -0.25415,
				"method": "rhf"
			},
			{
				"type": "unocc",
				"energy": -0.09553,
				"method": "rhf"
			},
			{
				"type": "unocc",
				"energy": -0.05579,
				"method": "rhf"
			},
			{
				"type": "unocc",
				"energy": -0.0278,
				"method": "rhf"
			},
			{
				"type": "unocc",
				"energy": -0.02753,
				"method": "rhf"
			},
			{
				"type": "unocc",
				"energy": -0.00349,
				"method": "rhf"
			}
		],
		"cosmo_sigma_profile": { 
			"-0.025": 0.0,
			"-0.024": 0.0,
			"-0.023": 0.0,
			"-0.022": 0.0,
			"-0.021": 0.0,
			"-0.02": 0.0,
			"-0.019": 0.0,
			"-0.018": 0.0,
			"-0.017": 0.0,
			"-0.016": 0.0,
			"-0.015": 0.0,
			"-0.014": 0.0,
			"-0.013": 0.0,
			"-0.012": 0.0,
			"-0.011": 0.0,
			"-0.01": 0.0125169179806,
			"-0.009": 7.1327512474,
			"-0.008": 12.3301865516,
			"-0.007": 17.7116652672,
			"-0.006": 18.0663973713,
			"-0.005": 18.4768069847,
			"-0.004": 15.6666600729,
			"-0.003": 20.7975933226,
			"-0.002": 21.4406797113,
			"-0.001": 18.6739450423,
			"0.0": 16.7116637876,
			"0.001": 13.3242386855,
			"0.002": 15.5534886614,
			"0.003": 16.9420116043,
			"0.004": 11.3508154114,
			"0.005": 7.76196932884,
			"0.006": 9.6930860986,
			"0.007": 12.3660389192,
			"0.008": 11.6827793144,
			"0.009": 8.73128274115,
			"0.01": 6.44988215992,
			"0.011": 4.31370319028,
			"0.012": 2.88421487858,
			"0.013": 2.0042995865,
			"0.014": 0.277613839898,
			"0.015": 0.0,
			"0.016": 0.0,
			"0.017": 0.0,
			"0.018": 0.0,
			"0.019": 0.0,
			"0.02": 0.0,
			"0.021": 0.0,
			"0.022": 0.0,
			"0.023": 0.0,
			"0.024": 0.0,
			"0.025": 0.0
		}
	}
}
