{
	 "smiles": "FC(F)SC1=NC2=C(N1)C=CC=C2", 
	 "Tm": 290.15, 
	 "num_atms": 19, 
	 "gaussian": { 
		 "optdone": 1, 
		 "sigma_profile": "yes", 
		 "theory": "DFT", 
		 "functional": "B3LYP", 
		 "basiset": "6-31G**", 
		 "properties": { 
			 "R2extent": 4511.6154, 
			 "electric_dipole_moment_norm": 2.92480639188, 
			 "electric_quadrupole_moment_norm": 11.1242399376, 
			 "total_energy": -1015.82887763, 
			 "HOMO_LUMO_gap": 0.19453, 
			 "cosmo_polarized_energy": -10.65, 
			 "cosmo_cavitation_energy": 26.27, 
			 "cosmo_dispersion_energy": -19.74, 
			 "cosmo_repulsion_energy": 1.48, 
			 "cosmo_total_nonelectrostatic_energy": 8.01, 
			 "SMD_solvation_energy": 3.21 
		},
		"coords": [
			{
				"x": 3.9006732802,
				"y": -4.3999025267,
				"z": 0.077723436,
				"element": "F" 
			},
			{
				"x": 3.0150836923,
				"y": -3.4173384746,
				"z": -0.2096658193,
				"element": "C" 
			},
			{
				"x": 2.9673251138,
				"y": -3.2715687037,
				"z": -1.5542894298,
				"element": "F" 
			},
			{
				"x": 1.3859430656,
				"y": -3.963767423,
				"z": 0.4559463839,
				"element": "S" 
			},
			{
				"x": 0.6373299843,
				"y": -2.3620811411,
				"z": 0.5378429791,
				"element": "C" 
			},
			{
				"x": 1.2362040672,
				"y": -1.2503470579,
				"z": 0.8825246909,
				"element": "N" 
			},
			{
				"x": 0.2447349302,
				"y": -0.2781516585,
				"z": 0.8125695702,
				"element": "C" 
			},
			{
				"x": -0.9887460594,
				"y": -0.8583436634,
				"z": 0.4296045719,
				"element": "C" 
			},
			{
				"x": -0.7017610752,
				"y": -2.2047035109,
				"z": 0.2578999841,
				"element": "N" 
			},
			{
				"x": -2.160644395,
				"y": -0.1131206917,
				"z": 0.2938889429,
				"element": "C" 
			},
			{
				"x": -2.06447496,
				"y": 1.2526655869,
				"z": 0.5510285874,
				"element": "C" 
			},
			{
				"x": -0.8453430308,
				"y": 1.8473808163,
				"z": 0.933505388,
				"element": "C" 
			},
			{
				"x": 0.3181062146,
				"y": 1.0965681965,
				"z": 1.0688531688,
				"element": "C" 
			},
			{
				"x": 3.3018046503,
				"y": -2.4719471818,
				"z": 0.2557744478,
				"element": "H" 
			},
			{
				"x": -1.3174202489,
				"y": -2.9207305324,
				"z": -0.0959132259,
				"element": "H" 
			},
			{
				"x": -3.101365602,
				"y": -0.5683823569,
				"z": -0.0001172608,
				"element": "H" 
			},
			{
				"x": -2.950362892,
				"y": 1.8730394189,
				"z": 0.4544638354,
				"element": "H" 
			},
			{
				"x": -0.8177938535,
				"y": 2.9155280245,
				"z": 1.1266434811,
				"element": "H" 
			},
			{
				"x": 1.2590071183,
				"y": 1.5483028794,
				"z": 1.3651162684,
				"element": "H" 
			}
		],
		 "valence_orbital": [ 
			{
				"type": "occ",
				"energy": -0.31937,
				"method": "rhf"
			},
			{
				"type": "occ",
				"energy": -0.28816,
				"method": "rhf"
			},
			{
				"type": "occ",
				"energy": -0.28322,
				"method": "rhf"
			},
			{
				"type": "occ",
				"energy": -0.23666,
				"method": "rhf"
			},
			{
				"type": "occ",
				"energy": -0.22527,
				"method": "rhf"
			},
			{
				"type": "unocc",
				"energy": -0.03074,
				"method": "rhf"
			},
			{
				"type": "unocc",
				"energy": -0.00043,
				"method": "rhf"
			},
			{
				"type": "unocc",
				"energy": 0.01287,
				"method": "rhf"
			},
			{
				"type": "unocc",
				"energy": 0.04017,
				"method": "rhf"
			},
			{
				"type": "unocc",
				"energy": 0.07127,
				"method": "rhf"
			}
		],
		"cosmo_sigma_profile": { 
			"-0.025": 0.0,
			"-0.024": 0.0,
			"-0.023": 0.0,
			"-0.022": 0.0,
			"-0.021": 0.0,
			"-0.02": 0.0,
			"-0.019": 0.0,
			"-0.018": 0.0220027852479,
			"-0.017": 1.14809340874,
			"-0.016": 1.58346145633,
			"-0.015": 0.944330260951,
			"-0.014": 1.09364453919,
			"-0.013": 1.65317866857,
			"-0.012": 1.25750820234,
			"-0.011": 1.20601947932,
			"-0.01": 1.39145960271,
			"-0.009": 2.50312779321,
			"-0.008": 3.05204269248,
			"-0.007": 3.86757564691,
			"-0.006": 7.12943904374,
			"-0.005": 10.5241787653,
			"-0.004": 10.7779760684,
			"-0.003": 11.0858714127,
			"-0.002": 10.075436959,
			"-0.001": 14.2528710867,
			"0.0": 14.5916086889,
			"0.001": 17.1180724932,
			"0.002": 17.8548234947,
			"0.003": 30.8342632225,
			"0.004": 22.1079923504,
			"0.005": 13.1193634944,
			"0.006": 6.77958268435,
			"0.007": 1.32811431409,
			"0.008": 1.14950811074,
			"0.009": 1.18045135865,
			"0.01": 1.03660338768,
			"0.011": 0.630026516208,
			"0.012": 1.17354552865,
			"0.013": 0.674285959567,
			"0.014": 0.371174952518,
			"0.015": 0.0670081054824,
			"0.016": 0.0,
			"0.017": 0.0,
			"0.018": 0.0,
			"0.019": 0.0,
			"0.02": 0.0,
			"0.021": 0.0,
			"0.022": 0.0,
			"0.023": 0.0,
			"0.024": 0.0,
			"0.025": 0.0
		}
	}
}
