{
	 "smiles": "CC1=CC(F)=C(C=C1)C(N)=O", 
	 "Tm": 419.15, 
	 "num_atms": 19, 
	 "gaussian": { 
		 "optdone": 1, 
		 "sigma_profile": "yes", 
		 "theory": "DFT", 
		 "functional": "B3LYP", 
		 "basiset": "6-31G**", 
		 "properties": { 
			 "R2extent": 1915.0222, 
			 "electric_dipole_moment_norm": 3.29966706502, 
			 "electric_quadrupole_moment_norm": 11.2556729395, 
			 "total_energy": -539.512079749, 
			 "HOMO_LUMO_gap": 0.21326, 
			 "cosmo_polarized_energy": -10.72, 
			 "cosmo_cavitation_energy": 23.29, 
			 "cosmo_dispersion_energy": -17.37, 
			 "cosmo_repulsion_energy": 1.38, 
			 "cosmo_total_nonelectrostatic_energy": 7.29, 
			 "SMD_solvation_energy": 5.2 
		},
		"coords": [
			{
				"x": 1.3906461686,
				"y": -2.8687517202,
				"z": -1.9237057332,
				"element": "C" 
			},
			{
				"x": 0.7924334095,
				"y": -1.7069152878,
				"z": -1.1689406359,
				"element": "C" 
			},
			{
				"x": -0.4879594562,
				"y": -1.2368715753,
				"z": -1.4802987381,
				"element": "C" 
			},
			{
				"x": -1.0109956031,
				"y": -0.1484622351,
				"z": -0.7963982702,
				"element": "C" 
			},
			{
				"x": -2.2657979197,
				"y": 0.2499458282,
				"z": -1.1556253804,
				"element": "F" 
			},
			{
				"x": -0.3181491055,
				"y": 0.524030376,
				"z": 0.2138891635,
				"element": "C" 
			},
			{
				"x": 0.9633293901,
				"y": 0.0367545013,
				"z": 0.5140462506,
				"element": "C" 
			},
			{
				"x": 1.5089828125,
				"y": -1.0513068898,
				"z": -0.156051731,
				"element": "C" 
			},
			{
				"x": -0.7990884108,
				"y": 1.7089740037,
				"z": 1.0144901693,
				"element": "C" 
			},
			{
				"x": -2.0417302912,
				"y": 2.1917588096,
				"z": 0.7355565474,
				"element": "N" 
			},
			{
				"x": -0.087204202,
				"y": 2.2082740811,
				"z": 1.8802999445,
				"element": "O" 
			},
			{
				"x": 2.0891978814,
				"y": -3.4316173889,
				"z": -1.2980541327,
				"element": "H" 
			},
			{
				"x": 0.6190784425,
				"y": -3.557023127,
				"z": -2.2804751054,
				"element": "H" 
			},
			{
				"x": 1.9481529249,
				"y": -2.5189448462,
				"z": -2.8015236856,
				"element": "H" 
			},
			{
				"x": -1.092178595,
				"y": -1.7062974873,
				"z": -2.2501521621,
				"element": "H" 
			},
			{
				"x": 1.5076692811,
				"y": 0.5500933349,
				"z": 1.2994705055,
				"element": "H" 
			},
			{
				"x": 2.5030712607,
				"y": -1.4010834316,
				"z": 0.1081286402,
				"element": "H" 
			},
			{
				"x": -2.3555187551,
				"y": 2.9841112979,
				"z": 1.2736913039,
				"element": "H" 
			},
			{
				"x": -2.6303392326,
				"y": 1.7880317567,
				"z": 0.0266530498,
				"element": "H" 
			}
		],
		 "valence_orbital": [ 
			{
				"type": "occ",
				"energy": -0.35064,
				"method": "rhf"
			},
			{
				"type": "occ",
				"energy": -0.26343,
				"method": "rhf"
			},
			{
				"type": "occ",
				"energy": -0.2563,
				"method": "rhf"
			},
			{
				"type": "occ",
				"energy": -0.25101,
				"method": "rhf"
			},
			{
				"type": "occ",
				"energy": -0.25074,
				"method": "rhf"
			},
			{
				"type": "unocc",
				"energy": -0.03748,
				"method": "rhf"
			},
			{
				"type": "unocc",
				"energy": -0.00749,
				"method": "rhf"
			},
			{
				"type": "unocc",
				"energy": 0.06355,
				"method": "rhf"
			},
			{
				"type": "unocc",
				"energy": 0.08592,
				"method": "rhf"
			},
			{
				"type": "unocc",
				"energy": 0.10116,
				"method": "rhf"
			}
		],
		"cosmo_sigma_profile": { 
			"-0.025": 0.0,
			"-0.024": 0.0,
			"-0.023": 0.0,
			"-0.022": 0.0,
			"-0.021": 0.0,
			"-0.02": 0.0,
			"-0.019": 0.0,
			"-0.018": 0.0,
			"-0.017": 0.0,
			"-0.016": 0.0,
			"-0.015": 0.0,
			"-0.014": 0.783994528804,
			"-0.013": 1.03795474149,
			"-0.012": 1.93399765638,
			"-0.011": 1.10867185912,
			"-0.01": 2.15282115205,
			"-0.009": 2.10550886049,
			"-0.008": 1.63899913895,
			"-0.007": 3.19289988011,
			"-0.006": 5.77687776183,
			"-0.005": 11.0176074303,
			"-0.004": 13.2682112752,
			"-0.003": 13.0155424858,
			"-0.002": 14.4452952718,
			"-0.001": 18.2608713151,
			"0.0": 17.7418822064,
			"0.001": 13.5158130719,
			"0.002": 16.0600374212,
			"0.003": 18.2496163567,
			"0.004": 9.25230255655,
			"0.005": 1.49491331895,
			"0.006": 1.67001186543,
			"0.007": 1.40801960308,
			"0.008": 1.50755892977,
			"0.009": 1.26795503066,
			"0.01": 1.53745278384,
			"0.011": 1.51290262137,
			"0.012": 1.70300811183,
			"0.013": 3.94237218591,
			"0.014": 4.40415276802,
			"0.015": 0.634996770967,
			"0.016": 0.0,
			"0.017": 0.0,
			"0.018": 0.0,
			"0.019": 0.0,
			"0.02": 0.0,
			"0.021": 0.0,
			"0.022": 0.0,
			"0.023": 0.0,
			"0.024": 0.0,
			"0.025": 0.0
		}
	}
}
