{
	 "smiles": "CN(C1CCOCC1)C(=O)C1=CC=C(N)C=C1", 
	 "Tm": 444.15, 
	 "num_atms": 35, 
	 "gaussian": { 
		 "optdone": 1, 
		 "sigma_profile": "yes", 
		 "theory": "DFT", 
		 "functional": "B3LYP", 
		 "basiset": "6-31G**", 
		 "properties": { 
			 "R2extent": 5478.7412, 
			 "electric_dipole_moment_norm": 5.24294538881, 
			 "electric_quadrupole_moment_norm": 16.0782904775, 
			 "total_energy": -766.183372445, 
			 "HOMO_LUMO_gap": 0.18675, 
			 "cosmo_polarized_energy": -16.95, 
			 "cosmo_cavitation_energy": 35.52, 
			 "cosmo_dispersion_energy": -25.7, 
			 "cosmo_repulsion_energy": 1.98, 
			 "cosmo_total_nonelectrostatic_energy": 11.8, 
			 "SMD_solvation_energy": 6.22 
		},
		"coords": [
			{
				"x": 0.5716741944,
				"y": -0.9883945549,
				"z": 0.6473021293,
				"element": "C" 
			},
			{
				"x": 0.034718035,
				"y": -0.5922849006,
				"z": -0.6599219289,
				"element": "N" 
			},
			{
				"x": 0.3908577833,
				"y": -1.4413566564,
				"z": -1.8321631152,
				"element": "C" 
			},
			{
				"x": 0.4216728044,
				"y": -0.6045900265,
				"z": -3.1317726082,
				"element": "C" 
			},
			{
				"x": 1.6443011966,
				"y": 0.3094178175,
				"z": -3.1875410236,
				"element": "C" 
			},
			{
				"x": 2.8613330235,
				"y": -0.4254434277,
				"z": -3.0817237002,
				"element": "O" 
			},
			{
				"x": 2.9344383355,
				"y": -1.135693674,
				"z": -1.8567331947,
				"element": "C" 
			},
			{
				"x": 1.768850042,
				"y": -2.1198670122,
				"z": -1.694799922,
				"element": "C" 
			},
			{
				"x": -1.256448887,
				"y": -0.0546424518,
				"z": -0.6967365999,
				"element": "C" 
			},
			{
				"x": -2.0653002027,
				"y": -0.3781807151,
				"z": -1.565177558,
				"element": "O" 
			},
			{
				"x": -1.6153022372,
				"y": 0.9946237181,
				"z": 0.3089200631,
				"element": "C" 
			},
			{
				"x": -0.6942229672,
				"y": 1.9173589845,
				"z": 0.8290815988,
				"element": "C" 
			},
			{
				"x": -1.1003396366,
				"y": 2.9320882019,
				"z": 1.6874061515,
				"element": "C" 
			},
			{
				"x": -2.4520053183,
				"y": 3.0551461663,
				"z": 2.0603967912,
				"element": "C" 
			},
			{
				"x": -2.8700689669,
				"y": 4.0924873022,
				"z": 2.8832632255,
				"element": "N" 
			},
			{
				"x": -3.38056172,
				"y": 2.1390474451,
				"z": 1.5284718165,
				"element": "C" 
			},
			{
				"x": -2.9665032946,
				"y": 1.1402322444,
				"z": 0.6594042335,
				"element": "C" 
			},
			{
				"x": 0.3882257326,
				"y": -2.0531194372,
				"z": 0.8490766112,
				"element": "H" 
			},
			{
				"x": 0.0815102835,
				"y": -0.4164105299,
				"z": 1.4318803448,
				"element": "H" 
			},
			{
				"x": 1.6477351934,
				"y": -0.8060209768,
				"z": 0.714126262,
				"element": "H" 
			},
			{
				"x": -0.3816823787,
				"y": -2.2151705211,
				"z": -1.9334139655,
				"element": "H" 
			},
			{
				"x": 0.4663258305,
				"y": -1.3024361393,
				"z": -3.976713714,
				"element": "H" 
			},
			{
				"x": -0.4984250399,
				"y": -0.0281521256,
				"z": -3.2374513628,
				"element": "H" 
			},
			{
				"x": 1.6925019572,
				"y": 0.8384438254,
				"z": -4.1439070259,
				"element": "H" 
			},
			{
				"x": 1.5910234969,
				"y": 1.0636697645,
				"z": -2.3847655546,
				"element": "H" 
			},
			{
				"x": 3.8884166321,
				"y": -1.6724913095,
				"z": -1.8687987241,
				"element": "H" 
			},
			{
				"x": 2.9625886028,
				"y": -0.4251302072,
				"z": -1.0124042979,
				"element": "H" 
			},
			{
				"x": 1.8708437598,
				"y": -2.6774612832,
				"z": -0.758836563,
				"element": "H" 
			},
			{
				"x": 1.8357383524,
				"y": -2.8573732,
				"z": -2.5028530994,
				"element": "H" 
			},
			{
				"x": 0.3502983967,
				"y": 1.85409954,
				"z": 0.5391474534,
				"element": "H" 
			},
			{
				"x": -0.3738819143,
				"y": 3.6478723813,
				"z": 2.0642387456,
				"element": "H" 
			},
			{
				"x": -3.7530451685,
				"y": 3.9599286564,
				"z": 3.3547405581,
				"element": "H" 
			},
			{
				"x": -2.1647065176,
				"y": 4.5063582586,
				"z": 3.475409957,
				"element": "H" 
			},
			{
				"x": -4.4311490471,
				"y": 2.2282635694,
				"z": 1.7940526656,
				"element": "H" 
			},
			{
				"x": -3.6881103559,
				"y": 0.4530812733,
				"z": 0.2297953509,
				"element": "H" 
			}
		],
		 "valence_orbital": [ 
			{
				"type": "occ",
				"energy": -0.2541,
				"method": "rhf"
			},
			{
				"type": "occ",
				"energy": -0.24897,
				"method": "rhf"
			},
			{
				"type": "occ",
				"energy": -0.24294,
				"method": "rhf"
			},
			{
				"type": "occ",
				"energy": -0.22808,
				"method": "rhf"
			},
			{
				"type": "occ",
				"energy": -0.20762,
				"method": "rhf"
			},
			{
				"type": "unocc",
				"energy": -0.02087,
				"method": "rhf"
			},
			{
				"type": "unocc",
				"energy": -0.00271,
				"method": "rhf"
			},
			{
				"type": "unocc",
				"energy": 0.05428,
				"method": "rhf"
			},
			{
				"type": "unocc",
				"energy": 0.07561,
				"method": "rhf"
			},
			{
				"type": "unocc",
				"energy": 0.08282,
				"method": "rhf"
			}
		],
		"cosmo_sigma_profile": { 
			"-0.025": 0.0,
			"-0.024": 0.0,
			"-0.023": 0.0,
			"-0.022": 0.0,
			"-0.021": 0.0,
			"-0.02": 0.0,
			"-0.019": 0.0,
			"-0.018": 0.0,
			"-0.017": 0.0,
			"-0.016": 0.0,
			"-0.015": 0.0,
			"-0.014": 0.0,
			"-0.013": 1.16843926242,
			"-0.012": 3.29763084453,
			"-0.011": 2.45093565277,
			"-0.01": 3.09429391288,
			"-0.009": 3.85410915633,
			"-0.008": 2.5126965385,
			"-0.007": 3.51450276067,
			"-0.006": 4.19704180325,
			"-0.005": 12.5965878207,
			"-0.004": 25.7753298185,
			"-0.003": 33.1423719619,
			"-0.002": 39.4040488573,
			"-0.001": 25.4985174849,
			"0.0": 16.8720532936,
			"0.001": 13.6966967002,
			"0.002": 10.5992251217,
			"0.003": 9.68924166199,
			"0.004": 10.9712630329,
			"0.005": 14.6393257796,
			"0.006": 8.20759190589,
			"0.007": 4.18802822002,
			"0.008": 3.80110106395,
			"0.009": 3.72668133108,
			"0.01": 3.46967159417,
			"0.011": 3.86379366938,
			"0.012": 3.2296211075,
			"0.013": 5.32331959315,
			"0.014": 4.80061424449,
			"0.015": 0.575337664828,
			"0.016": 0.0,
			"0.017": 0.0,
			"0.018": 0.0,
			"0.019": 0.0,
			"0.02": 0.0,
			"0.021": 0.0,
			"0.022": 0.0,
			"0.023": 0.0,
			"0.024": 0.0,
			"0.025": 0.0
		}
	}
}
