{
	 "smiles": "CC(=O)C1=CC=C(Cl)C(Cl)=C1", 
	 "Tm": 347.65, 
	 "num_atms": 17, 
	 "gaussian": { 
		 "optdone": 1, 
		 "sigma_profile": "yes", 
		 "theory": "DFT", 
		 "functional": "B3LYP", 
		 "basiset": "6-31G**", 
		 "properties": { 
			 "R2extent": 3600.725, 
			 "electric_dipole_moment_norm": 3.60522542707, 
			 "electric_quadrupole_moment_norm": 14.6378882152, 
			 "total_energy": -1304.07618749, 
			 "HOMO_LUMO_gap": 0.18859, 
			 "cosmo_polarized_energy": -8.36, 
			 "cosmo_cavitation_energy": 25.07, 
			 "cosmo_dispersion_energy": -18.6, 
			 "cosmo_repulsion_energy": 1.49, 
			 "cosmo_total_nonelectrostatic_energy": 7.95, 
			 "SMD_solvation_energy": 4.5 
		},
		"coords": [
			{
				"x": -4.1064875018,
				"y": 0.5791085117,
				"z": 2.1003462933,
				"element": "C" 
			},
			{
				"x": -2.9299642294,
				"y": 0.6458813703,
				"z": 1.1432940972,
				"element": "C" 
			},
			{
				"x": -3.0675769186,
				"y": 1.0753161638,
				"z": 0.0092349218,
				"element": "O" 
			},
			{
				"x": -1.5850660971,
				"y": 0.1719296755,
				"z": 1.6171958903,
				"element": "C" 
			},
			{
				"x": -1.358320631,
				"y": -0.3321472181,
				"z": 2.9051121485,
				"element": "C" 
			},
			{
				"x": -0.087064203,
				"y": -0.7548272639,
				"z": 3.2811181269,
				"element": "C" 
			},
			{
				"x": 0.9755518124,
				"y": -0.6803743221,
				"z": 2.3771990175,
				"element": "C" 
			},
			{
				"x": 2.5515131454,
				"y": -1.2203143169,
				"z": 2.8888383331,
				"element": "Cl" 
			},
			{
				"x": 0.75696002,
				"y": -0.1763090632,
				"z": 1.083985816,
				"element": "C" 
			},
			{
				"x": 2.0553526128,
				"y": -0.0651580113,
				"z": -0.0778741977,
				"element": "Cl" 
			},
			{
				"x": -0.5162418723,
				"y": 0.244332223,
				"z": 0.715030818,
				"element": "C" 
			},
			{
				"x": -3.917302101,
				"y": 1.17761997,
				"z": 2.9984306524,
				"element": "H" 
			},
			{
				"x": -4.2900043181,
				"y": -0.4506371848,
				"z": 2.4267011084,
				"element": "H" 
			},
			{
				"x": -4.9917003715,
				"y": 0.9604788044,
				"z": 1.5912493185,
				"element": "H" 
			},
			{
				"x": -2.1675324543,
				"y": -0.3995389828,
				"z": 3.6239395646,
				"element": "H" 
			},
			{
				"x": 0.0963331254,
				"y": -1.1459255505,
				"z": 4.275590338,
				"element": "H" 
			},
			{
				"x": -0.700250018,
				"y": 0.635465195,
				"z": -0.2790922469,
				"element": "H" 
			}
		],
		 "valence_orbital": [ 
			{
				"type": "occ",
				"energy": -0.33573,
				"method": "rhf"
			},
			{
				"type": "occ",
				"energy": -0.31649,
				"method": "rhf"
			},
			{
				"type": "occ",
				"energy": -0.27211,
				"method": "rhf"
			},
			{
				"type": "occ",
				"energy": -0.26195,
				"method": "rhf"
			},
			{
				"type": "occ",
				"energy": -0.26142,
				"method": "rhf"
			},
			{
				"type": "unocc",
				"energy": -0.07283,
				"method": "rhf"
			},
			{
				"type": "unocc",
				"energy": -0.03334,
				"method": "rhf"
			},
			{
				"type": "unocc",
				"energy": -0.00354,
				"method": "rhf"
			},
			{
				"type": "unocc",
				"energy": 0.01888,
				"method": "rhf"
			},
			{
				"type": "unocc",
				"energy": 0.05465,
				"method": "rhf"
			}
		],
		"cosmo_sigma_profile": { 
			"-0.025": 0.0,
			"-0.024": 0.0,
			"-0.023": 0.0,
			"-0.022": 0.0,
			"-0.021": 0.0,
			"-0.02": 0.0,
			"-0.019": 0.0,
			"-0.018": 0.0,
			"-0.017": 0.0,
			"-0.016": 0.0,
			"-0.015": 0.0,
			"-0.014": 0.0,
			"-0.013": 0.0,
			"-0.012": 0.0,
			"-0.011": 0.0,
			"-0.01": 0.0,
			"-0.009": 0.326523086077,
			"-0.008": 3.26168524936,
			"-0.007": 9.17036881907,
			"-0.006": 11.3649067643,
			"-0.005": 8.96342835798,
			"-0.004": 10.1026116221,
			"-0.003": 12.7400959801,
			"-0.002": 15.6557596925,
			"-0.001": 20.4129919648,
			"0.0": 25.7293885867,
			"0.001": 21.0903768039,
			"0.002": 15.0018309789,
			"0.003": 16.1457419692,
			"0.004": 15.1368573457,
			"0.005": 4.86276451813,
			"0.006": 1.57188030443,
			"0.007": 1.2728630917,
			"0.008": 1.37750917405,
			"0.009": 2.04258368983,
			"0.01": 2.22252562624,
			"0.011": 3.71860696145,
			"0.012": 2.58384934355,
			"0.013": 0.733204379872,
			"0.014": 0.0,
			"0.015": 0.0,
			"0.016": 0.0,
			"0.017": 0.0,
			"0.018": 0.0,
			"0.019": 0.0,
			"0.02": 0.0,
			"0.021": 0.0,
			"0.022": 0.0,
			"0.023": 0.0,
			"0.024": 0.0,
			"0.025": 0.0
		}
	}
}
