{
	 "smiles": "OC1=C(C=O)C=CC=C1F", 
	 "Tm": 342.15, 
	 "num_atms": 15, 
	 "gaussian": { 
		 "optdone": 1, 
		 "sigma_profile": "yes", 
		 "theory": "DFT", 
		 "functional": "B3LYP", 
		 "basiset": "6-31G**", 
		 "properties": { 
			 "R2extent": 1731.6494, 
			 "electric_dipole_moment_norm": 3.51138938314, 
			 "electric_quadrupole_moment_norm": 13.7549344789, 
			 "total_energy": -520.023877004, 
			 "HOMO_LUMO_gap": 0.17791, 
			 "cosmo_polarized_energy": -9.25, 
			 "cosmo_cavitation_energy": 20.22, 
			 "cosmo_dispersion_energy": -14.94, 
			 "cosmo_repulsion_energy": 1.18, 
			 "cosmo_total_nonelectrostatic_energy": 6.46, 
			 "SMD_solvation_energy": 5.43 
		},
		"coords": [
			{
				"x": 2.6957645277,
				"y": -1.3981425345,
				"z": -0.7515551296,
				"element": "O" 
			},
			{
				"x": 1.4992396836,
				"y": -0.8271264866,
				"z": -0.4623325268,
				"element": "C" 
			},
			{
				"x": 0.3365131794,
				"y": -1.6055462022,
				"z": -0.3307448951,
				"element": "C" 
			},
			{
				"x": 0.3801612607,
				"y": -3.0759943113,
				"z": -0.5038392704,
				"element": "C" 
			},
			{
				"x": -0.6000971077,
				"y": -3.7924223476,
				"z": -0.3997592904,
				"element": "O" 
			},
			{
				"x": -0.8821423217,
				"y": -0.9713275926,
				"z": -0.0302382051,
				"element": "C" 
			},
			{
				"x": -0.9563223427,
				"y": 0.4049938036,
				"z": 0.1380400368,
				"element": "C" 
			},
			{
				"x": 0.201913878,
				"y": 1.1856078481,
				"z": 0.0075233388,
				"element": "C" 
			},
			{
				"x": 1.3961677697,
				"y": 0.5577124575,
				"z": -0.2876866031,
				"element": "C" 
			},
			{
				"x": 2.549074791,
				"y": 1.2693366284,
				"z": -0.4249482541,
				"element": "F" 
			},
			{
				"x": 3.3584450034,
				"y": -0.692676765,
				"z": -0.7972315549,
				"element": "H" 
			},
			{
				"x": 1.3749577257,
				"y": -3.4995114871,
				"z": -0.7384595093,
				"element": "H" 
			},
			{
				"x": -1.7595629039,
				"y": -1.6025765495,
				"z": 0.0641642098,
				"element": "H" 
			},
			{
				"x": -1.9023973019,
				"y": 0.8825653938,
				"z": 0.3696872845,
				"element": "H" 
			},
			{
				"x": 0.1863841587,
				"y": 2.2633081452,
				"z": 0.1312803687,
				"element": "H" 
			}
		],
		 "valence_orbital": [ 
			{
				"type": "occ",
				"energy": -0.37312,
				"method": "rhf"
			},
			{
				"type": "occ",
				"energy": -0.35109,
				"method": "rhf"
			},
			{
				"type": "occ",
				"energy": -0.26676,
				"method": "rhf"
			},
			{
				"type": "occ",
				"energy": -0.25295,
				"method": "rhf"
			},
			{
				"type": "occ",
				"energy": -0.24345,
				"method": "rhf"
			},
			{
				"type": "unocc",
				"energy": -0.06554,
				"method": "rhf"
			},
			{
				"type": "unocc",
				"energy": -0.00691,
				"method": "rhf"
			},
			{
				"type": "unocc",
				"energy": 0.03622,
				"method": "rhf"
			},
			{
				"type": "unocc",
				"energy": 0.05136,
				"method": "rhf"
			},
			{
				"type": "unocc",
				"energy": 0.09364,
				"method": "rhf"
			}
		],
		"cosmo_sigma_profile": { 
			"-0.025": 0.0,
			"-0.024": 0.0,
			"-0.023": 0.0,
			"-0.022": 0.0,
			"-0.021": 0.0,
			"-0.02": 0.0,
			"-0.019": 0.0,
			"-0.018": 0.0,
			"-0.017": 0.465265440015,
			"-0.016": 0.914128217259,
			"-0.015": 0.507514781482,
			"-0.014": 0.718275929125,
			"-0.013": 0.420464357703,
			"-0.012": 1.166193367,
			"-0.011": 1.09102163258,
			"-0.01": 0.978682368113,
			"-0.009": 1.02332498613,
			"-0.008": 3.09629350329,
			"-0.007": 4.69222639274,
			"-0.006": 8.10181159859,
			"-0.005": 8.29524807382,
			"-0.004": 9.41662117289,
			"-0.003": 8.55227293104,
			"-0.002": 10.2459746101,
			"-0.001": 12.6311775261,
			"0.0": 15.821497455,
			"0.001": 13.1871996818,
			"0.002": 14.200491179,
			"0.003": 14.7633799868,
			"0.004": 7.37712017528,
			"0.005": 3.07579714411,
			"0.006": 3.13542324863,
			"0.007": 2.80532643749,
			"0.008": 3.54309262079,
			"0.009": 2.2881787335,
			"0.01": 2.30656506347,
			"0.011": 4.22846806538,
			"0.012": 2.90296783943,
			"0.013": 0.85153732981,
			"0.014": 0.00259039338625,
			"0.015": 0.0,
			"0.016": 0.0,
			"0.017": 0.0,
			"0.018": 0.0,
			"0.019": 0.0,
			"0.02": 0.0,
			"0.021": 0.0,
			"0.022": 0.0,
			"0.023": 0.0,
			"0.024": 0.0,
			"0.025": 0.0
		}
	}
}
