{
	 "smiles": "OCCNC1=C(C=CC=C1)[N+]([O-])=O", 
	 "Tm": 350.15, 
	 "num_atms": 23, 
	 "gaussian": { 
		 "optdone": 1, 
		 "sigma_profile": "yes", 
		 "theory": "DFT", 
		 "functional": "B3LYP", 
		 "basiset": "6-31G**", 
		 "properties": { 
			 "R2extent": 3461.0428, 
			 "electric_dipole_moment_norm": 4.51346933855, 
			 "electric_quadrupole_moment_norm": 14.8079696258, 
			 "total_energy": -645.945158674, 
			 "HOMO_LUMO_gap": 0.13642, 
			 "cosmo_polarized_energy": -14.13, 
			 "cosmo_cavitation_energy": 27.13, 
			 "cosmo_dispersion_energy": -20.06, 
			 "cosmo_repulsion_energy": 1.6, 
			 "cosmo_total_nonelectrostatic_energy": 8.66, 
			 "SMD_solvation_energy": 5.76 
		},
		"coords": [
			{
				"x": -3.6575529597,
				"y": -2.0477855871,
				"z": -1.0109479629,
				"element": "O" 
			},
			{
				"x": -2.2491717895,
				"y": -2.1804765275,
				"z": -1.0433905101,
				"element": "C" 
			},
			{
				"x": -1.5640810918,
				"y": -1.1466845089,
				"z": -0.1426933568,
				"element": "C" 
			},
			{
				"x": -0.1255397124,
				"y": -1.2999717995,
				"z": -0.2164533257,
				"element": "N" 
			},
			{
				"x": 0.7716386423,
				"y": -0.5223079259,
				"z": 0.441863063,
				"element": "C" 
			},
			{
				"x": 2.1869061668,
				"y": -0.7131873265,
				"z": 0.3518624629,
				"element": "C" 
			},
			{
				"x": 3.0811375433,
				"y": 0.1165597433,
				"z": 1.0470838053,
				"element": "C" 
			},
			{
				"x": 2.6202117146,
				"y": 1.1467842274,
				"z": 1.8441960446,
				"element": "C" 
			},
			{
				"x": 1.2344914605,
				"y": 1.3514017794,
				"z": 1.9488921394,
				"element": "C" 
			},
			{
				"x": 0.3369529836,
				"y": 0.5456863909,
				"z": 1.2723947725,
				"element": "C" 
			},
			{
				"x": 2.7722780612,
				"y": -1.7646628487,
				"z": -0.4522482988,
				"element": "N" 
			},
			{
				"x": 3.9986724054,
				"y": -1.8727771231,
				"z": -0.4864178245,
				"element": "O" 
			},
			{
				"x": 2.0189693985,
				"y": -2.532802327,
				"z": -1.0874371037,
				"element": "O" 
			},
			{
				"x": -3.9698582295,
				"y": -2.3570446029,
				"z": -0.1509600891,
				"element": "H" 
			},
			{
				"x": -1.9479306574,
				"y": -2.0176874127,
				"z": -2.0833472819,
				"element": "H" 
			},
			{
				"x": -1.9220002998,
				"y": -3.1936481209,
				"z": -0.7609687024,
				"element": "H" 
			},
			{
				"x": -1.8754761525,
				"y": -0.1435602849,
				"z": -0.4635585868,
				"element": "H" 
			},
			{
				"x": -1.9183813383,
				"y": -1.278748074,
				"z": 0.8925269271,
				"element": "H" 
			},
			{
				"x": 0.285908971,
				"y": -2.0404230553,
				"z": -0.7745148611,
				"element": "H" 
			},
			{
				"x": 4.138684397,
				"y": -0.0840966047,
				"z": 0.9330719462,
				"element": "H" 
			},
			{
				"x": 3.3179102899,
				"y": 1.7828412413,
				"z": 2.3773861731,
				"element": "H" 
			},
			{
				"x": 0.8521689701,
				"y": 2.1559069078,
				"z": 2.571073865,
				"element": "H" 
			},
			{
				"x": -0.7258387732,
				"y": 0.7291838394,
				"z": 1.372686705,
				"element": "H" 
			}
		],
		 "valence_orbital": [ 
			{
				"type": "occ",
				"energy": -0.30087,
				"method": "rhf"
			},
			{
				"type": "occ",
				"energy": -0.28825,
				"method": "rhf"
			},
			{
				"type": "occ",
				"energy": -0.28298,
				"method": "rhf"
			},
			{
				"type": "occ",
				"energy": -0.27393,
				"method": "rhf"
			},
			{
				"type": "occ",
				"energy": -0.21826,
				"method": "rhf"
			},
			{
				"type": "unocc",
				"energy": -0.08184,
				"method": "rhf"
			},
			{
				"type": "unocc",
				"energy": -0.00342,
				"method": "rhf"
			},
			{
				"type": "unocc",
				"energy": 0.00941,
				"method": "rhf"
			},
			{
				"type": "unocc",
				"energy": 0.05639,
				"method": "rhf"
			},
			{
				"type": "unocc",
				"energy": 0.08333,
				"method": "rhf"
			}
		],
		"cosmo_sigma_profile": { 
			"-0.025": 0.0,
			"-0.024": 0.0,
			"-0.023": 0.0,
			"-0.022": 0.0,
			"-0.021": 0.0,
			"-0.02": 0.0,
			"-0.019": 0.0,
			"-0.018": 0.0,
			"-0.017": 0.0,
			"-0.016": 0.576067486962,
			"-0.015": 1.2112155303,
			"-0.014": 0.658830652238,
			"-0.013": 1.44214460357,
			"-0.012": 1.12912603796,
			"-0.011": 0.707876671684,
			"-0.01": 1.67440339357,
			"-0.009": 1.48422928563,
			"-0.008": 2.10205245732,
			"-0.007": 5.83708520846,
			"-0.006": 12.0246879096,
			"-0.005": 20.4447140379,
			"-0.004": 19.0519637853,
			"-0.003": 14.5703858937,
			"-0.002": 13.0735589317,
			"-0.001": 12.6975983674,
			"0.0": 12.0468828523,
			"0.001": 15.7007030011,
			"0.002": 14.0193035543,
			"0.003": 12.7162605723,
			"0.004": 9.80781844741,
			"0.005": 4.10545184116,
			"0.006": 4.48650123549,
			"0.007": 4.2154252989,
			"0.008": 7.03734327612,
			"0.009": 6.08543929495,
			"0.01": 5.79830790678,
			"0.011": 4.4666893046,
			"0.012": 2.06632259373,
			"0.013": 1.68330318981,
			"0.014": 2.0815915268,
			"0.015": 0.0846155728153,
			"0.016": 0.0,
			"0.017": 0.0,
			"0.018": 0.0,
			"0.019": 0.0,
			"0.02": 0.0,
			"0.021": 0.0,
			"0.022": 0.0,
			"0.023": 0.0,
			"0.024": 0.0,
			"0.025": 0.0
		}
	}
}
