{
	 "smiles": "CCCCCCCCCCCCCCC(O)=O", 
	 "Tm": 325.65, 
	 "num_atms": 47, 
	 "gaussian": { 
		 "optdone": 1, 
		 "sigma_profile": "yes", 
		 "theory": "DFT", 
		 "functional": "B3LYP", 
		 "basiset": "6-31G**", 
		 "properties": { 
			 "R2extent": 8016.4197, 
			 "electric_dipole_moment_norm": 1.39748789619, 
			 "electric_quadrupole_moment_norm": 10.2330376043, 
			 "total_energy": -740.176233531, 
			 "HOMO_LUMO_gap": 0.28558, 
			 "cosmo_polarized_energy": -8.4, 
			 "cosmo_cavitation_energy": 46.36, 
			 "cosmo_dispersion_energy": -30.03, 
			 "cosmo_repulsion_energy": 2.42, 
			 "cosmo_total_nonelectrostatic_energy": 18.76, 
			 "SMD_solvation_energy": 7.42 
		},
		"coords": [
			{
				"x": 2.6308742885,
				"y": -2.2700737902,
				"z": -1.4760556172,
				"element": "C" 
			},
			{
				"x": 3.377477374,
				"y": -2.3208781801,
				"z": -0.1375195816,
				"element": "C" 
			},
			{
				"x": 2.9467394181,
				"y": -1.2470871342,
				"z": 0.8759263029,
				"element": "C" 
			},
			{
				"x": 3.2955375231,
				"y": 0.1923606123,
				"z": 0.4669879816,
				"element": "C" 
			},
			{
				"x": 2.9364925498,
				"y": 1.247627278,
				"z": 1.53132773,
				"element": "C" 
			},
			{
				"x": 1.4288902393,
				"y": 1.5351833168,
				"z": 1.7304153103,
				"element": "C" 
			},
			{
				"x": 0.8777594087,
				"y": 2.7373407787,
				"z": 0.9387257159,
				"element": "C" 
			},
			{
				"x": 0.8825528822,
				"y": 2.6260519673,
				"z": -0.5960743409,
				"element": "C" 
			},
			{
				"x": -0.0117285505,
				"y": 1.5385885268,
				"z": -1.2233046774,
				"element": "C" 
			},
			{
				"x": -1.5327393233,
				"y": 1.7330768391,
				"z": -1.0174338553,
				"element": "C" 
			},
			{
				"x": -2.1588772064,
				"y": 1.000409512,
				"z": 0.1858108777,
				"element": "C" 
			},
			{
				"x": -2.2538189737,
				"y": -0.522466264,
				"z": 0.002715958,
				"element": "C" 
			},
			{
				"x": -2.8046371599,
				"y": -1.2833146501,
				"z": 1.2189795481,
				"element": "C" 
			},
			{
				"x": -4.2663908279,
				"y": -0.9630585114,
				"z": 1.5420563983,
				"element": "C" 
			},
			{
				"x": -4.8168402992,
				"y": -1.794696354,
				"z": 2.679791131,
				"element": "C" 
			},
			{
				"x": -6.0972591419,
				"y": -1.450863022,
				"z": 2.9717470622,
				"element": "O" 
			},
			{
				"x": -4.2282659123,
				"y": -2.6673597394,
				"z": 3.2796470566,
				"element": "O" 
			},
			{
				"x": 1.5484792024,
				"y": -2.3640435471,
				"z": -1.3270280223,
				"element": "H" 
			},
			{
				"x": 2.8105707744,
				"y": -1.3316977194,
				"z": -2.0105654918,
				"element": "H" 
			},
			{
				"x": 2.9455030516,
				"y": -3.0868088644,
				"z": -2.1342425008,
				"element": "H" 
			},
			{
				"x": 3.2269205366,
				"y": -3.3095736664,
				"z": 0.314582269,
				"element": "H" 
			},
			{
				"x": 4.4577230675,
				"y": -2.2325988301,
				"z": -0.3186946052,
				"element": "H" 
			},
			{
				"x": 1.8657044042,
				"y": -1.3376988761,
				"z": 1.0515806565,
				"element": "H" 
			},
			{
				"x": 3.4268901003,
				"y": -1.4598179163,
				"z": 1.8411407961,
				"element": "H" 
			},
			{
				"x": 4.3765270887,
				"y": 0.2437550284,
				"z": 0.2750699106,
				"element": "H" 
			},
			{
				"x": 2.8088757707,
				"y": 0.4400390983,
				"z": -0.4833373602,
				"element": "H" 
			},
			{
				"x": 3.3665420698,
				"y": 0.917895771,
				"z": 2.4865216378,
				"element": "H" 
			},
			{
				"x": 3.4459980925,
				"y": 2.190119758,
				"z": 1.2889625041,
				"element": "H" 
			},
			{
				"x": 0.8433390349,
				"y": 0.6346829478,
				"z": 1.5062616866,
				"element": "H" 
			},
			{
				"x": 1.248535671,
				"y": 1.7398896297,
				"z": 2.7930471993,
				"element": "H" 
			},
			{
				"x": -0.1440663199,
				"y": 2.9456615927,
				"z": 1.2812407827,
				"element": "H" 
			},
			{
				"x": 1.4654671384,
				"y": 3.6236474102,
				"z": 1.2158100121,
				"element": "H" 
			},
			{
				"x": 0.5744516995,
				"y": 3.597380158,
				"z": -1.0077006752,
				"element": "H" 
			},
			{
				"x": 1.9130132237,
				"y": 2.4749998704,
				"z": -0.9423854528,
				"element": "H" 
			},
			{
				"x": 0.1968927699,
				"y": 1.5316204197,
				"z": -2.3003497108,
				"element": "H" 
			},
			{
				"x": 0.2926605121,
				"y": 0.5475589527,
				"z": -0.8642353196,
				"element": "H" 
			},
			{
				"x": -2.0618847912,
				"y": 1.4018435378,
				"z": -1.921028048,
				"element": "H" 
			},
			{
				"x": -1.7424075768,
				"y": 2.8077451471,
				"z": -0.9316650793,
				"element": "H" 
			},
			{
				"x": -3.1645381996,
				"y": 1.4088971893,
				"z": 0.3495824248,
				"element": "H" 
			},
			{
				"x": -1.5918961765,
				"y": 1.21767416,
				"z": 1.0999973304,
				"element": "H" 
			},
			{
				"x": -2.8754220419,
				"y": -0.7402540582,
				"z": -0.8782162747,
				"element": "H" 
			},
			{
				"x": -1.2590664156,
				"y": -0.9245551838,
				"z": -0.226568147,
				"element": "H" 
			},
			{
				"x": -2.7161917876,
				"y": -2.3615372843,
				"z": 1.0479258008,
				"element": "H" 
			},
			{
				"x": -2.1881215277,
				"y": -1.0712931915,
				"z": 2.1010677079,
				"element": "H" 
			},
			{
				"x": -4.4098782377,
				"y": 0.0909492336,
				"z": 1.8068507315,
				"element": "H" 
			},
			{
				"x": -4.9107656914,
				"y": -1.1338232938,
				"z": 0.6689059817,
				"element": "H" 
			},
			{
				"x": -6.3700217311,
				"y": -2.0319986588,
				"z": 3.7015262555,
				"element": "H" 
			}
		],
		 "valence_orbital": [ 
			{
				"type": "occ",
				"energy": -0.30852,
				"method": "rhf"
			},
			{
				"type": "occ",
				"energy": -0.30033,
				"method": "rhf"
			},
			{
				"type": "occ",
				"energy": -0.29896,
				"method": "rhf"
			},
			{
				"type": "occ",
				"energy": -0.2954,
				"method": "rhf"
			},
			{
				"type": "occ",
				"energy": -0.27272,
				"method": "rhf"
			},
			{
				"type": "unocc",
				"energy": 0.01286,
				"method": "rhf"
			},
			{
				"type": "unocc",
				"energy": 0.06068,
				"method": "rhf"
			},
			{
				"type": "unocc",
				"energy": 0.0813,
				"method": "rhf"
			},
			{
				"type": "unocc",
				"energy": 0.08564,
				"method": "rhf"
			},
			{
				"type": "unocc",
				"energy": 0.08885,
				"method": "rhf"
			}
		],
		"cosmo_sigma_profile": { 
			"-0.025": 0.0,
			"-0.024": 0.0,
			"-0.023": 0.0,
			"-0.022": 0.0,
			"-0.021": 0.0,
			"-0.02": 0.0,
			"-0.019": 0.0,
			"-0.018": 0.212911679182,
			"-0.017": 1.29173244117,
			"-0.016": 0.491528801755,
			"-0.015": 0.746382608768,
			"-0.014": 1.01365679173,
			"-0.013": 0.627371904395,
			"-0.012": 0.466963249421,
			"-0.011": 1.01756291955,
			"-0.01": 0.772370079457,
			"-0.009": 0.547345199429,
			"-0.008": 0.456919168429,
			"-0.007": 0.623914239955,
			"-0.006": 2.53816450626,
			"-0.005": 5.87774438315,
			"-0.004": 6.1829832168,
			"-0.003": 11.8282965021,
			"-0.002": 45.7680981252,
			"-0.001": 76.9185867991,
			"0.0": 76.5312561048,
			"0.001": 60.8772519723,
			"0.002": 29.2662286081,
			"0.003": 2.78637740134,
			"0.004": 2.55253950793,
			"0.005": 2.34342240504,
			"0.006": 2.8664807161,
			"0.007": 2.26691798061,
			"0.008": 2.73956167295,
			"0.009": 3.72553109173,
			"0.01": 2.9462256535,
			"0.011": 2.58146111676,
			"0.012": 5.35153578423,
			"0.013": 1.32504630373,
			"0.014": 0.00903553499236,
			"0.015": 0.0,
			"0.016": 0.0,
			"0.017": 0.0,
			"0.018": 0.0,
			"0.019": 0.0,
			"0.02": 0.0,
			"0.021": 0.0,
			"0.022": 0.0,
			"0.023": 0.0,
			"0.024": 0.0,
			"0.025": 0.0
		}
	}
}
