{
	 "smiles": "OC(=O)CN1C=C(Br)C(=O)NC1=O", 
	 "Tm": 540.15, 
	 "num_atms": 18, 
	 "gaussian": { 
		 "optdone": 1, 
		 "sigma_profile": "yes", 
		 "theory": "DFT", 
		 "functional": "B3LYP", 
		 "basiset": "6-31G**", 
		 "properties": { 
			 "R2extent": 4426.8136, 
			 "electric_dipole_moment_norm": 2.6079307717, 
			 "electric_quadrupole_moment_norm": 17.7359582966, 
			 "total_energy": -3213.48630099, 
			 "HOMO_LUMO_gap": 0.18641, 
			 "cosmo_polarized_energy": -21.99, 
			 "cosmo_cavitation_energy": 26.36, 
			 "cosmo_dispersion_energy": -19.34, 
			 "cosmo_repulsion_energy": 1.56, 
			 "cosmo_total_nonelectrostatic_energy": 8.58, 
			 "SMD_solvation_energy": 6.52 
		},
		"coords": [
			{
				"x": -2.4906537542,
				"y": 1.2662502416,
				"z": -1.3338215042,
				"element": "O" 
			},
			{
				"x": -3.1532323606,
				"y": 0.3238582477,
				"z": -0.6364539711,
				"element": "C" 
			},
			{
				"x": -4.3345987666,
				"y": 0.097925163,
				"z": -0.7470535068,
				"element": "O" 
			},
			{
				"x": -2.2545326027,
				"y": -0.4556106413,
				"z": 0.3192927049,
				"element": "C" 
			},
			{
				"x": -0.8946810639,
				"y": 0.045415815,
				"z": 0.4558267426,
				"element": "N" 
			},
			{
				"x": -0.6167688019,
				"y": 1.1144840325,
				"z": 1.2809554308,
				"element": "C" 
			},
			{
				"x": 0.6156895779,
				"y": 1.6587126485,
				"z": 1.3863897261,
				"element": "C" 
			},
			{
				"x": 0.9539563184,
				"y": 3.1081926464,
				"z": 2.5466844909,
				"element": "Br" 
			},
			{
				"x": 1.731343278,
				"y": 1.1315051336,
				"z": 0.5943374969,
				"element": "C" 
			},
			{
				"x": 2.8801162933,
				"y": 1.5284422022,
				"z": 0.5918565481,
				"element": "O" 
			},
			{
				"x": 1.3368316541,
				"y": 0.0513496227,
				"z": -0.2190118614,
				"element": "N" 
			},
			{
				"x": 0.0890473958,
				"y": -0.5268317805,
				"z": -0.3641894139,
				"element": "C" 
			},
			{
				"x": -0.1390423,
				"y": -1.4533931699,
				"z": -1.1215656446,
				"element": "O" 
			},
			{
				"x": -3.1401893731,
				"y": 1.6822536632,
				"z": -1.9261459611,
				"element": "H" 
			},
			{
				"x": -2.1937759816,
				"y": -1.4788200953,
				"z": -0.0575763811,
				"element": "H" 
			},
			{
				"x": -2.7455951797,
				"y": -0.4805013345,
				"z": 1.2952522058,
				"element": "H" 
			},
			{
				"x": -1.4548749065,
				"y": 1.4931426215,
				"z": 1.854079028,
				"element": "H" 
			},
			{
				"x": 2.0660605734,
				"y": -0.3502750164,
				"z": -0.7968561298,
				"element": "H" 
			}
		],
		 "valence_orbital": [ 
			{
				"type": "occ",
				"energy": -0.30342,
				"method": "rhf"
			},
			{
				"type": "occ",
				"energy": -0.30069,
				"method": "rhf"
			},
			{
				"type": "occ",
				"energy": -0.29666,
				"method": "rhf"
			},
			{
				"type": "occ",
				"energy": -0.2798,
				"method": "rhf"
			},
			{
				"type": "occ",
				"energy": -0.24529,
				"method": "rhf"
			},
			{
				"type": "unocc",
				"energy": -0.05888,
				"method": "rhf"
			},
			{
				"type": "unocc",
				"energy": -0.01664,
				"method": "rhf"
			},
			{
				"type": "unocc",
				"energy": -0.00921,
				"method": "rhf"
			},
			{
				"type": "unocc",
				"energy": -0.00444,
				"method": "rhf"
			},
			{
				"type": "unocc",
				"energy": 0.05341,
				"method": "rhf"
			}
		],
		"cosmo_sigma_profile": { 
			"-0.025": 0.0,
			"-0.024": 0.0,
			"-0.023": 0.0,
			"-0.022": 0.0,
			"-0.021": 0.0,
			"-0.02": 0.00572673607327,
			"-0.019": 0.811082479137,
			"-0.018": 1.13273285046,
			"-0.017": 0.950916181129,
			"-0.016": 1.71198835498,
			"-0.015": 1.60035335902,
			"-0.014": 2.00177250184,
			"-0.013": 2.8156899046,
			"-0.012": 4.27269538223,
			"-0.011": 4.03296483152,
			"-0.01": 3.60988845451,
			"-0.009": 4.94844859051,
			"-0.008": 5.46024804645,
			"-0.007": 6.57549814193,
			"-0.006": 7.73808004186,
			"-0.005": 10.6834500189,
			"-0.004": 10.7932276887,
			"-0.003": 11.8477478361,
			"-0.002": 10.510789996,
			"-0.001": 10.4640628794,
			"0.0": 10.9979947218,
			"0.001": 9.13304732745,
			"0.002": 10.4602642577,
			"0.003": 13.0049203566,
			"0.004": 12.296146902,
			"0.005": 6.15876928624,
			"0.006": 4.99110091524,
			"0.007": 3.88532912211,
			"0.008": 4.42010473406,
			"0.009": 5.02169216287,
			"0.01": 7.07717995345,
			"0.011": 12.7537745295,
			"0.012": 10.3300160976,
			"0.013": 1.61120338893,
			"0.014": 0.0,
			"0.015": 0.0,
			"0.016": 0.0,
			"0.017": 0.0,
			"0.018": 0.0,
			"0.019": 0.0,
			"0.02": 0.0,
			"0.021": 0.0,
			"0.022": 0.0,
			"0.023": 0.0,
			"0.024": 0.0,
			"0.025": 0.0
		}
	}
}
