{
	 "smiles": "OC(=O)C(NCC1=CC=CC=C1)C1CC1", 
	 "Tm": 502.15, 
	 "num_atms": 30, 
	 "gaussian": { 
		 "optdone": 1, 
		 "sigma_profile": "yes", 
		 "theory": "DFT", 
		 "functional": "B3LYP", 
		 "basiset": "6-31G**", 
		 "properties": { 
			 "R2extent": 4146.1393, 
			 "electric_dipole_moment_norm": 1.29076393659, 
			 "electric_quadrupole_moment_norm": 7.75540875196, 
			 "total_energy": -671.487390521, 
			 "HOMO_LUMO_gap": 0.22179, 
			 "cosmo_polarized_energy": -10.93, 
			 "cosmo_cavitation_energy": 32.41, 
			 "cosmo_dispersion_energy": -23.06, 
			 "cosmo_repulsion_energy": 1.8, 
			 "cosmo_total_nonelectrostatic_energy": 11.15, 
			 "SMD_solvation_energy": 4.54 
		},
		"coords": [
			{
				"x": -1.9800215281,
				"y": 1.3989800914,
				"z": -3.4206607414,
				"element": "O" 
			},
			{
				"x": -1.0494303659,
				"y": 0.818679293,
				"z": -2.6269362675,
				"element": "C" 
			},
			{
				"x": 0.0748445742,
				"y": 1.2643513136,
				"z": -2.5271508146,
				"element": "O" 
			},
			{
				"x": -1.5640590392,
				"y": -0.4756337201,
				"z": -1.9649966232,
				"element": "C" 
			},
			{
				"x": -0.6400984683,
				"y": -1.0403806602,
				"z": -0.9931166416,
				"element": "N" 
			},
			{
				"x": -0.2193278385,
				"y": -0.211752422,
				"z": 0.1591063517,
				"element": "C" 
			},
			{
				"x": 1.2011255662,
				"y": -0.5443299475,
				"z": 0.5639291626,
				"element": "C" 
			},
			{
				"x": 2.2797527915,
				"y": -0.0330681875,
				"z": -0.1739878226,
				"element": "C" 
			},
			{
				"x": 3.5916546381,
				"y": -0.351292161,
				"z": 0.1776479203,
				"element": "C" 
			},
			{
				"x": 3.8438918214,
				"y": -1.1854280436,
				"z": 1.2699089169,
				"element": "C" 
			},
			{
				"x": 2.7771255634,
				"y": -1.7011609834,
				"z": 2.0072583623,
				"element": "C" 
			},
			{
				"x": 1.4642990054,
				"y": -1.3828049626,
				"z": 1.653167414,
				"element": "C" 
			},
			{
				"x": -3.0213649719,
				"y": -0.3461835049,
				"z": -1.5122452478,
				"element": "C" 
			},
			{
				"x": -3.4670156208,
				"y": 0.23903185,
				"z": -0.1927467807,
				"element": "C" 
			},
			{
				"x": -3.5885355922,
				"y": -1.246286218,
				"z": -0.448948575,
				"element": "C" 
			},
			{
				"x": -1.5466977114,
				"y": 2.1701403563,
				"z": -3.8249974268,
				"element": "H" 
			},
			{
				"x": -1.586069307,
				"y": -1.1963181678,
				"z": -2.7976288461,
				"element": "H" 
			},
			{
				"x": 0.1934703726,
				"y": -1.3457845674,
				"z": -1.4835006865,
				"element": "H" 
			},
			{
				"x": -0.2831854851,
				"y": 0.8606773752,
				"z": -0.0687974316,
				"element": "H" 
			},
			{
				"x": -0.8845207992,
				"y": -0.4095746966,
				"z": 1.0075143566,
				"element": "H" 
			},
			{
				"x": 2.0765101166,
				"y": 0.6151852695,
				"z": -1.0220880558,
				"element": "H" 
			},
			{
				"x": 4.4185819777,
				"y": 0.0561486968,
				"z": -0.397611773,
				"element": "H" 
			},
			{
				"x": 4.8659986084,
				"y": -1.4303335377,
				"z": 1.5450074402,
				"element": "H" 
			},
			{
				"x": 2.9656555358,
				"y": -2.3511164238,
				"z": 2.8572819926,
				"element": "H" 
			},
			{
				"x": 0.6345909208,
				"y": -1.7869790123,
				"z": 2.2279262426,
				"element": "H" 
			},
			{
				"x": -3.6761788543,
				"y": -0.1207731876,
				"z": -2.3488988982,
				"element": "H" 
			},
			{
				"x": -4.3731055617,
				"y": 0.8380368043,
				"z": -0.2013689947,
				"element": "H" 
			},
			{
				"x": -2.7273176321,
				"y": 0.5788040166,
				"z": 0.5221620069,
				"element": "H" 
			},
			{
				"x": -2.8840217457,
				"y": -1.8999138927,
				"z": 0.0552156959,
				"element": "H" 
			},
			{
				"x": -4.5768509708,
				"y": -1.67012077,
				"z": -0.6006442355,
				"element": "H" 
			}
		],
		 "valence_orbital": [ 
			{
				"type": "occ",
				"energy": -0.28733,
				"method": "rhf"
			},
			{
				"type": "occ",
				"energy": -0.26975,
				"method": "rhf"
			},
			{
				"type": "occ",
				"energy": -0.24601,
				"method": "rhf"
			},
			{
				"type": "occ",
				"energy": -0.24312,
				"method": "rhf"
			},
			{
				"type": "occ",
				"energy": -0.22248,
				"method": "rhf"
			},
			{
				"type": "unocc",
				"energy": -0.00069,
				"method": "rhf"
			},
			{
				"type": "unocc",
				"energy": 0.00364,
				"method": "rhf"
			},
			{
				"type": "unocc",
				"energy": 0.00722,
				"method": "rhf"
			},
			{
				"type": "unocc",
				"energy": 0.07328,
				"method": "rhf"
			},
			{
				"type": "unocc",
				"energy": 0.08604,
				"method": "rhf"
			}
		],
		"cosmo_sigma_profile": { 
			"-0.025": 0.0,
			"-0.024": 0.0,
			"-0.023": 0.0,
			"-0.022": 0.0,
			"-0.021": 0.0,
			"-0.02": 0.0,
			"-0.019": 0.0545127746563,
			"-0.018": 0.69950207425,
			"-0.017": 0.991376340593,
			"-0.016": 1.01990363017,
			"-0.015": 0.587057866107,
			"-0.014": 0.599647246681,
			"-0.013": 0.671434525351,
			"-0.012": 0.445408473925,
			"-0.011": 0.662711112902,
			"-0.01": 1.4245733019,
			"-0.009": 2.05298099146,
			"-0.008": 2.06022048261,
			"-0.007": 4.27340322389,
			"-0.006": 6.06164656211,
			"-0.005": 12.5155478798,
			"-0.004": 20.8713477846,
			"-0.003": 27.6638787439,
			"-0.002": 21.8933373571,
			"-0.001": 20.437181378,
			"0.0": 18.6605797698,
			"0.001": 17.1439540802,
			"0.002": 15.3105705443,
			"0.003": 15.0923762056,
			"0.004": 17.246674819,
			"0.005": 14.5574932996,
			"0.006": 13.6798004747,
			"0.007": 4.24951322976,
			"0.008": 3.97388727258,
			"0.009": 2.88209467712,
			"0.01": 2.64029144066,
			"0.011": 2.48549243844,
			"0.012": 1.95162825208,
			"0.013": 0.26674250308,
			"0.014": 0.442880568932,
			"0.015": 0.108079556218,
			"0.016": 0.0,
			"0.017": 0.0,
			"0.018": 0.0,
			"0.019": 0.0,
			"0.02": 0.0,
			"0.021": 0.0,
			"0.022": 0.0,
			"0.023": 0.0,
			"0.024": 0.0,
			"0.025": 0.0
		}
	}
}
