{
	 "smiles": "CCCCC(C(O)=O)C(=O)N(NC1=CC=CC=C1)C1=CC=CC=C1", 
	 "Tm": 389.15, 
	 "num_atms": 46, 
	 "gaussian": { 
		 "optdone": 1, 
		 "sigma_profile": "yes", 
		 "theory": "DFT", 
		 "functional": "B3LYP", 
		 "basiset": "6-31G**", 
		 "properties": { 
			 "R2extent": 8865.9363, 
			 "electric_dipole_moment_norm": 3.602692439, 
			 "electric_quadrupole_moment_norm": 9.26209685384, 
			 "total_energy": -1072.45126862, 
			 "HOMO_LUMO_gap": 0.18441, 
			 "cosmo_polarized_energy": -17.6, 
			 "cosmo_cavitation_energy": 47.73, 
			 "cosmo_dispersion_energy": -31.69, 
			 "cosmo_repulsion_energy": 2.46, 
			 "cosmo_total_nonelectrostatic_energy": 18.49, 
			 "SMD_solvation_energy": 9.17 
		},
		"coords": [
			{
				"x": -1.2488991499,
				"y": -3.7829986595,
				"z": 2.7321837844,
				"element": "C" 
			},
			{
				"x": -1.1708422795,
				"y": -4.6396415107,
				"z": 1.4599918198,
				"element": "C" 
			},
			{
				"x": -1.4448035477,
				"y": -3.8776643918,
				"z": 0.141864472,
				"element": "C" 
			},
			{
				"x": -0.2238371435,
				"y": -3.4017975807,
				"z": -0.6715569459,
				"element": "C" 
			},
			{
				"x": 0.7403026413,
				"y": -2.3168618739,
				"z": -0.1157268868,
				"element": "C" 
			},
			{
				"x": 1.5966177185,
				"y": -2.7362400122,
				"z": 1.0733197859,
				"element": "C" 
			},
			{
				"x": 2.1585613264,
				"y": -3.9524335881,
				"z": 0.8858476665,
				"element": "O" 
			},
			{
				"x": 1.8238695651,
				"y": -2.0584662886,
				"z": 2.0522748289,
				"element": "O" 
			},
			{
				"x": 0.0554089369,
				"y": -0.9926002145,
				"z": 0.2272905879,
				"element": "C" 
			},
			{
				"x": -1.016492551,
				"y": -0.945907925,
				"z": 0.8164990441,
				"element": "O" 
			},
			{
				"x": 0.7110667723,
				"y": 0.1857036541,
				"z": -0.1160120502,
				"element": "N" 
			},
			{
				"x": 0.1781686071,
				"y": 1.3505898947,
				"z": 0.4763431016,
				"element": "N" 
			},
			{
				"x": -0.6355497981,
				"y": 2.1798833775,
				"z": -0.3389334201,
				"element": "C" 
			},
			{
				"x": -1.5048465272,
				"y": 3.0748812203,
				"z": 0.3043425985,
				"element": "C" 
			},
			{
				"x": -2.2771571147,
				"y": 3.9612863975,
				"z": -0.4404522728,
				"element": "C" 
			},
			{
				"x": -2.1954717997,
				"y": 3.9757935977,
				"z": -1.8355528484,
				"element": "C" 
			},
			{
				"x": -1.3287399491,
				"y": 3.0879261456,
				"z": -2.471989804,
				"element": "C" 
			},
			{
				"x": -0.5499662055,
				"y": 2.1932422039,
				"z": -1.7358296658,
				"element": "C" 
			},
			{
				"x": 2.0934057977,
				"y": 0.2849728697,
				"z": -0.5089386763,
				"element": "C" 
			},
			{
				"x": 3.0509924739,
				"y": 0.72381374,
				"z": 0.4115956811,
				"element": "C" 
			},
			{
				"x": 4.3826479791,
				"y": 0.8415379886,
				"z": 0.0188064146,
				"element": "C" 
			},
			{
				"x": 4.7675373604,
				"y": 0.5164780467,
				"z": -1.2852675957,
				"element": "C" 
			},
			{
				"x": 3.8104860275,
				"y": 0.0817337503,
				"z": -2.2022010861,
				"element": "C" 
			},
			{
				"x": 2.4711377081,
				"y": -0.0219305017,
				"z": -1.8199068202,
				"element": "C" 
			},
			{
				"x": -1.0491186822,
				"y": -4.3902964181,
				"z": 3.6223370714,
				"element": "H" 
			},
			{
				"x": -0.5421478544,
				"y": -2.950709387,
				"z": 2.725942271,
				"element": "H" 
			},
			{
				"x": -2.249235921,
				"y": -3.3505005174,
				"z": 2.8419481966,
				"element": "H" 
			},
			{
				"x": -1.9113470363,
				"y": -5.4442935082,
				"z": 1.5505953626,
				"element": "H" 
			},
			{
				"x": -0.1970385327,
				"y": -5.1423579812,
				"z": 1.4025585971,
				"element": "H" 
			},
			{
				"x": -2.1060242522,
				"y": -3.029780149,
				"z": 0.3366535579,
				"element": "H" 
			},
			{
				"x": -1.9886279592,
				"y": -4.5469465791,
				"z": -0.5374086867,
				"element": "H" 
			},
			{
				"x": 0.4002934026,
				"y": -4.2676743944,
				"z": -0.9188756189,
				"element": "H" 
			},
			{
				"x": -0.5945247965,
				"y": -3.0121116991,
				"z": -1.6278469842,
				"element": "H" 
			},
			{
				"x": 1.4764651813,
				"y": -2.1495749985,
				"z": -0.9087859502,
				"element": "H" 
			},
			{
				"x": 2.7096382897,
				"y": -4.1171750893,
				"z": 1.6697260853,
				"element": "H" 
			},
			{
				"x": -0.3213877207,
				"y": 1.0647947209,
				"z": 1.3155667512,
				"element": "H" 
			},
			{
				"x": -1.5707799411,
				"y": 3.0706693533,
				"z": 1.3895696275,
				"element": "H" 
			},
			{
				"x": -2.9497427593,
				"y": 4.6421212006,
				"z": 0.073821614,
				"element": "H" 
			},
			{
				"x": -2.7990278811,
				"y": 4.6675610277,
				"z": -2.4148966281,
				"element": "H" 
			},
			{
				"x": -1.2539979741,
				"y": 3.084804262,
				"z": -3.5560817407,
				"element": "H" 
			},
			{
				"x": 0.1198915293,
				"y": 1.5102249877,
				"z": -2.2434035588,
				"element": "H" 
			},
			{
				"x": 2.7404364277,
				"y": 0.9686791531,
				"z": 1.4206719139,
				"element": "H" 
			},
			{
				"x": 5.1242199331,
				"y": 1.180946824,
				"z": 0.7359449397,
				"element": "H" 
			},
			{
				"x": 5.8072154536,
				"y": 0.6078062281,
				"z": -1.5850790247,
				"element": "H" 
			},
			{
				"x": 4.0986439135,
				"y": -0.1616081523,
				"z": -3.2205153014,
				"element": "H" 
			},
			{
				"x": 1.7159003317,
				"y": -0.3353792238,
				"z": -2.5348342074,
				"element": "H" 
			}
		],
		 "valence_orbital": [ 
			{
				"type": "occ",
				"energy": -0.26508,
				"method": "rhf"
			},
			{
				"type": "occ",
				"energy": -0.26233,
				"method": "rhf"
			},
			{
				"type": "occ",
				"energy": -0.24453,
				"method": "rhf"
			},
			{
				"type": "occ",
				"energy": -0.24078,
				"method": "rhf"
			},
			{
				"type": "occ",
				"energy": -0.20512,
				"method": "rhf"
			},
			{
				"type": "unocc",
				"energy": -0.02071,
				"method": "rhf"
			},
			{
				"type": "unocc",
				"energy": -0.01674,
				"method": "rhf"
			},
			{
				"type": "unocc",
				"energy": -0.00072,
				"method": "rhf"
			},
			{
				"type": "unocc",
				"energy": 0.00508,
				"method": "rhf"
			},
			{
				"type": "unocc",
				"energy": 0.00787,
				"method": "rhf"
			}
		],
		"cosmo_sigma_profile": { 
			"-0.025": 0.0,
			"-0.024": 0.0,
			"-0.023": 0.0,
			"-0.022": 0.0,
			"-0.021": 0.0,
			"-0.02": 0.0,
			"-0.019": 0.176751759857,
			"-0.018": 1.01460397138,
			"-0.017": 0.886778619794,
			"-0.016": 0.766558949271,
			"-0.015": 0.823180942241,
			"-0.014": 0.775611885085,
			"-0.013": 0.43597906737,
			"-0.012": 0.558809475643,
			"-0.011": 1.58762411682,
			"-0.01": 1.87657255305,
			"-0.009": 1.4285864945,
			"-0.008": 2.69378548072,
			"-0.007": 7.24921147824,
			"-0.006": 19.035254317,
			"-0.005": 23.8721712819,
			"-0.004": 26.0363060845,
			"-0.003": 25.5040758672,
			"-0.002": 29.2555921284,
			"-0.001": 32.2843036893,
			"0.0": 32.0816403341,
			"0.001": 30.9791349688,
			"0.002": 26.509043512,
			"0.003": 19.7351037295,
			"0.004": 25.4694424154,
			"0.005": 19.5103403312,
			"0.006": 16.3922281242,
			"0.007": 8.21733693178,
			"0.008": 6.29208229907,
			"0.009": 4.14222578102,
			"0.01": 4.04017954313,
			"0.011": 4.80797191424,
			"0.012": 2.50149791107,
			"0.013": 0.196155366308,
			"0.014": 0.0,
			"0.015": 0.0,
			"0.016": 0.0,
			"0.017": 0.0,
			"0.018": 0.0,
			"0.019": 0.0,
			"0.02": 0.0,
			"0.021": 0.0,
			"0.022": 0.0,
			"0.023": 0.0,
			"0.024": 0.0,
			"0.025": 0.0
		}
	}
}
