{
	 "smiles": "CN(C)C(N)=NC(N)=N", 
	 "Tm": 497.15, 
	 "num_atms": 20, 
	 "gaussian": { 
		 "optdone": 1, 
		 "sigma_profile": "yes", 
		 "theory": "DFT", 
		 "functional": "B3LYP", 
		 "basiset": "6-31G**", 
		 "properties": { 
			 "R2extent": 1861.451, 
			 "electric_dipole_moment_norm": 1.96980489389, 
			 "electric_quadrupole_moment_norm": 12.6458896263, 
			 "total_energy": -432.82241255, 
			 "HOMO_LUMO_gap": 0.226, 
			 "cosmo_polarized_energy": -14.06, 
			 "cosmo_cavitation_energy": 22.6, 
			 "cosmo_dispersion_energy": -17.19, 
			 "cosmo_repulsion_energy": 1.44, 
			 "cosmo_total_nonelectrostatic_energy": 6.84, 
			 "SMD_solvation_energy": 2.77 
		},
		"coords": [
			{
				"x": -0.9155070391,
				"y": 1.6900082175,
				"z": -1.7282122511,
				"element": "C" 
			},
			{
				"x": -1.3503908765,
				"y": 1.2673384852,
				"z": -0.4111027438,
				"element": "N" 
			},
			{
				"x": -2.3216172591,
				"y": 2.110135734,
				"z": 0.2676397089,
				"element": "C" 
			},
			{
				"x": -0.9611051039,
				"y": 0.0612051263,
				"z": 0.1252660298,
				"element": "C" 
			},
			{
				"x": -0.2073595608,
				"y": -0.7568416149,
				"z": -0.6597115208,
				"element": "N" 
			},
			{
				"x": -1.2958514757,
				"y": -0.2026654529,
				"z": 1.3736571713,
				"element": "N" 
			},
			{
				"x": -1.0196376255,
				"y": -1.4271141726,
				"z": 1.9402579982,
				"element": "C" 
			},
			{
				"x": -1.5938488324,
				"y": -1.5364308252,
				"z": 3.2060201667,
				"element": "N" 
			},
			{
				"x": -0.3453753916,
				"y": -2.3875871688,
				"z": 1.3738696756,
				"element": "N" 
			},
			{
				"x": -0.9612246882,
				"y": 2.7812265661,
				"z": -1.7825078386,
				"element": "H" 
			},
			{
				"x": 0.1214458194,
				"y": 1.3918564989,
				"z": -1.9056666664,
				"element": "H" 
			},
			{
				"x": -1.5436940699,
				"y": 1.2912742286,
				"z": -2.5411924116,
				"element": "H" 
			},
			{
				"x": -2.5516683745,
				"y": 1.6594462576,
				"z": 1.2303495629,
				"element": "H" 
			},
			{
				"x": -1.9128624886,
				"y": 3.1161235603,
				"z": 0.4258363293,
				"element": "H" 
			},
			{
				"x": -3.243334256,
				"y": 2.2021709073,
				"z": -0.3233980342,
				"element": "H" 
			},
			{
				"x": -0.3067751406,
				"y": -0.7103587623,
				"z": -1.6612644293,
				"element": "H" 
			},
			{
				"x": -0.0396918387,
				"y": -1.6700142531,
				"z": -0.1974744305,
				"element": "H" 
			},
			{
				"x": -1.8404759892,
				"y": -0.6449338993,
				"z": 3.6123639632,
				"element": "H" 
			},
			{
				"x": -1.1385691466,
				"y": -2.1720386462,
				"z": 3.8452578876,
				"element": "H" 
			},
			{
				"x": -0.3020566623,
				"y": -3.2183007865,
				"z": 1.9620118328,
				"element": "H" 
			}
		],
		 "valence_orbital": [ 
			{
				"type": "occ",
				"energy": -0.25873,
				"method": "rhf"
			},
			{
				"type": "occ",
				"energy": -0.24403,
				"method": "rhf"
			},
			{
				"type": "occ",
				"energy": -0.23859,
				"method": "rhf"
			},
			{
				"type": "occ",
				"energy": -0.22644,
				"method": "rhf"
			},
			{
				"type": "occ",
				"energy": -0.19904,
				"method": "rhf"
			},
			{
				"type": "unocc",
				"energy": 0.02696,
				"method": "rhf"
			},
			{
				"type": "unocc",
				"energy": 0.08049,
				"method": "rhf"
			},
			{
				"type": "unocc",
				"energy": 0.09677,
				"method": "rhf"
			},
			{
				"type": "unocc",
				"energy": 0.12172,
				"method": "rhf"
			},
			{
				"type": "unocc",
				"energy": 0.12555,
				"method": "rhf"
			}
		],
		"cosmo_sigma_profile": { 
			"-0.025": 0.0,
			"-0.024": 0.0,
			"-0.023": 0.0,
			"-0.022": 0.0,
			"-0.021": 0.0,
			"-0.02": 0.0,
			"-0.019": 0.0,
			"-0.018": 0.0,
			"-0.017": 0.0,
			"-0.016": 0.0,
			"-0.015": 0.0,
			"-0.014": 0.0,
			"-0.013": 0.661980100552,
			"-0.012": 2.7823175149,
			"-0.011": 3.58682486613,
			"-0.01": 4.93885094461,
			"-0.009": 4.07903769265,
			"-0.008": 3.86421264589,
			"-0.007": 4.8735701106,
			"-0.006": 5.54794130391,
			"-0.005": 9.24297576774,
			"-0.004": 14.5807651107,
			"-0.003": 15.4556957577,
			"-0.002": 17.45053285,
			"-0.001": 12.3886122534,
			"0.0": 6.93355166204,
			"0.001": 5.70139068904,
			"0.002": 5.73557214258,
			"0.003": 5.87973167752,
			"0.004": 5.28725165241,
			"0.005": 6.62129250964,
			"0.006": 6.35887400899,
			"0.007": 5.76641428411,
			"0.008": 5.85690689108,
			"0.009": 5.88502836001,
			"0.01": 5.7760168633,
			"0.011": 5.10145185893,
			"0.012": 2.69989000496,
			"0.013": 2.43178237591,
			"0.014": 1.19905649551,
			"0.015": 0.0861835320815,
			"0.016": 0.0,
			"0.017": 0.0,
			"0.018": 0.0,
			"0.019": 0.0,
			"0.02": 0.0,
			"0.021": 0.0,
			"0.022": 0.0,
			"0.023": 0.0,
			"0.024": 0.0,
			"0.025": 0.0
		}
	}
}
