{
	 "smiles": "BrC1=CC(=O)NC1=O", 
	 "Tm": 425.15, 
	 "num_atms": 10, 
	 "gaussian": { 
		 "optdone": 1, 
		 "sigma_profile": "yes", 
		 "theory": "DFT", 
		 "functional": "B3LYP", 
		 "basiset": "6-31G**", 
		 "properties": { 
			 "R2extent": 3379.8082, 
			 "electric_dipole_moment_norm": 0.827927055966, 
			 "electric_quadrupole_moment_norm": 10.8294697322, 
			 "total_energy": -2930.22742848, 
			 "HOMO_LUMO_gap": 0.17599, 
			 "cosmo_polarized_energy": -10.75, 
			 "cosmo_cavitation_energy": 17.94, 
			 "cosmo_dispersion_energy": -13.78, 
			 "cosmo_repulsion_energy": 1.17, 
			 "cosmo_total_nonelectrostatic_energy": 5.33, 
			 "SMD_solvation_energy": 3.77 
		},
		"coords": [
			{
				"x": -1.6303011435,
				"y": 0.2587395533,
				"z": -3.8910559233,
				"element": "Br" 
			},
			{
				"x": -1.1745923769,
				"y": -0.3312358874,
				"z": -2.1807659112,
				"element": "C" 
			},
			{
				"x": -0.8625477023,
				"y": 0.3768796467,
				"z": -1.08914008,
				"element": "C" 
			},
			{
				"x": -0.5768737378,
				"y": -0.5846859683,
				"z": 0.0251870123,
				"element": "C" 
			},
			{
				"x": -0.2599819915,
				"y": -0.3362537077,
				"z": 1.1670463225,
				"element": "O" 
			},
			{
				"x": -0.7511765431,
				"y": -1.8626235765,
				"z": -0.5221817463,
				"element": "N" 
			},
			{
				"x": -1.1171662064,
				"y": -1.8139354433,
				"z": -1.8649973772,
				"element": "C" 
			},
			{
				"x": -1.3356696071,
				"y": -2.7481932057,
				"z": -2.5984749714,
				"element": "O" 
			},
			{
				"x": -0.8063818345,
				"y": 1.4483220459,
				"z": -0.9601225742,
				"element": "H" 
			},
			{
				"x": -0.6265088568,
				"y": -2.7212134571,
				"z": -0.0048947513,
				"element": "H" 
			}
		],
		 "valence_orbital": [ 
			{
				"type": "occ",
				"energy": -0.32384,
				"method": "rhf"
			},
			{
				"type": "occ",
				"energy": -0.30959,
				"method": "rhf"
			},
			{
				"type": "occ",
				"energy": -0.30518,
				"method": "rhf"
			},
			{
				"type": "occ",
				"energy": -0.28537,
				"method": "rhf"
			},
			{
				"type": "occ",
				"energy": -0.28384,
				"method": "rhf"
			},
			{
				"type": "unocc",
				"energy": -0.10785,
				"method": "rhf"
			},
			{
				"type": "unocc",
				"energy": -0.00826,
				"method": "rhf"
			},
			{
				"type": "unocc",
				"energy": 0.04443,
				"method": "rhf"
			},
			{
				"type": "unocc",
				"energy": 0.05074,
				"method": "rhf"
			},
			{
				"type": "unocc",
				"energy": 0.0803,
				"method": "rhf"
			}
		],
		"cosmo_sigma_profile": { 
			"-0.025": 0.0,
			"-0.024": 0.0,
			"-0.023": 0.0,
			"-0.022": 0.0,
			"-0.021": 0.0,
			"-0.02": 0.0,
			"-0.019": 0.0,
			"-0.018": 0.0804189473942,
			"-0.017": 1.0385336259,
			"-0.016": 1.5407207454,
			"-0.015": 0.943033349811,
			"-0.014": 0.70107177311,
			"-0.013": 0.699855637568,
			"-0.012": 0.832520144314,
			"-0.011": 1.86312839349,
			"-0.01": 2.7032246337,
			"-0.009": 1.77835387924,
			"-0.008": 2.99026865391,
			"-0.007": 3.40973886878,
			"-0.006": 6.67218331719,
			"-0.005": 8.43442127719,
			"-0.004": 9.1624525188,
			"-0.003": 11.1486378137,
			"-0.002": 11.7849537671,
			"-0.001": 8.05059221845,
			"0.0": 7.87670882453,
			"0.001": 8.97257935392,
			"0.002": 11.1850684624,
			"0.003": 6.856489237,
			"0.004": 4.49658926551,
			"0.005": 2.56196750236,
			"0.006": 2.88885952713,
			"0.007": 3.30967668228,
			"0.008": 4.28987595661,
			"0.009": 4.91446747757,
			"0.01": 9.91892990183,
			"0.011": 6.77492337508,
			"0.012": 0.45310352277,
			"0.013": 0.0,
			"0.014": 0.0,
			"0.015": 0.0,
			"0.016": 0.0,
			"0.017": 0.0,
			"0.018": 0.0,
			"0.019": 0.0,
			"0.02": 0.0,
			"0.021": 0.0,
			"0.022": 0.0,
			"0.023": 0.0,
			"0.024": 0.0,
			"0.025": 0.0
		}
	}
}
