{
	 "smiles": "CC(=O)C1=CNC(=C1)C(=O)C(Cl)(Cl)Cl", 
	 "Tm": 464.15, 
	 "num_atms": 20, 
	 "gaussian": { 
		 "optdone": 1, 
		 "sigma_profile": "yes", 
		 "theory": "DFT", 
		 "functional": "B3LYP", 
		 "basiset": "6-31G**", 
		 "properties": { 
			 "R2extent": 5535.7312, 
			 "electric_dipole_moment_norm": 0.442220815883, 
			 "electric_quadrupole_moment_norm": 19.7218728609, 
			 "total_energy": -1894.21926702, 
			 "HOMO_LUMO_gap": 0.16705, 
			 "cosmo_polarized_energy": -12.92, 
			 "cosmo_cavitation_energy": 30.53, 
			 "cosmo_dispersion_energy": -21.79, 
			 "cosmo_repulsion_energy": 1.73, 
			 "cosmo_total_nonelectrostatic_energy": 10.47, 
			 "SMD_solvation_energy": 5.61 
		},
		"coords": [
			{
				"x": -2.7051518404,
				"y": -3.0045792431,
				"z": 0.7417639298,
				"element": "C" 
			},
			{
				"x": -1.2417808917,
				"y": -3.2420539358,
				"z": 0.4195064884,
				"element": "C" 
			},
			{
				"x": -0.8468587545,
				"y": -4.309414414,
				"z": -0.0291157329,
				"element": "O" 
			},
			{
				"x": -0.2925710881,
				"y": -2.13468399,
				"z": 0.6652763226,
				"element": "C" 
			},
			{
				"x": 1.080265136,
				"y": -2.2307282771,
				"z": 0.4088221329,
				"element": "C" 
			},
			{
				"x": 1.653666388,
				"y": -1.0591431048,
				"z": 0.7387074327,
				"element": "N" 
			},
			{
				"x": 0.6971126434,
				"y": -0.1710549356,
				"z": 1.2135653651,
				"element": "C" 
			},
			{
				"x": -0.5269368755,
				"y": -0.8330391276,
				"z": 1.1725368892,
				"element": "C" 
			},
			{
				"x": 1.1764717278,
				"y": 1.1421114026,
				"z": 1.6100238029,
				"element": "C" 
			},
			{
				"x": 2.3555240091,
				"y": 1.4398031157,
				"z": 1.5268357854,
				"element": "O" 
			},
			{
				"x": 0.1512800221,
				"y": 2.2012997535,
				"z": 2.1575257564,
				"element": "C" 
			},
			{
				"x": -1.0901371616,
				"y": 2.5353676409,
				"z": 0.8887600546,
				"element": "Cl" 
			},
			{
				"x": -0.6501858889,
				"y": 1.5420136168,
				"z": 3.6358350329,
				"element": "Cl" 
			},
			{
				"x": 0.9909421384,
				"y": 3.7131698862,
				"z": 2.5698702085,
				"element": "Cl" 
			},
			{
				"x": -3.0981092036,
				"y": -2.1631085439,
				"z": 0.1597892781,
				"element": "H" 
			},
			{
				"x": -3.2740300283,
				"y": -3.9052837378,
				"z": 0.509395717,
				"element": "H" 
			},
			{
				"x": -2.8325881401,
				"y": -2.7542219971,
				"z": 1.801129316,
				"element": "H" 
			},
			{
				"x": 1.6386777434,
				"y": -3.067451064,
				"z": 0.0168697396,
				"element": "H" 
			},
			{
				"x": 2.6302693644,
				"y": -0.8055737864,
				"z": 0.6724226395,
				"element": "H" 
			},
			{
				"x": -1.4760592999,
				"y": -0.4186292586,
				"z": 1.4753798414,
				"element": "H" 
			}
		],
		 "valence_orbital": [ 
			{
				"type": "occ",
				"energy": -0.31644,
				"method": "rhf"
			},
			{
				"type": "occ",
				"energy": -0.29349,
				"method": "rhf"
			},
			{
				"type": "occ",
				"energy": -0.28417,
				"method": "rhf"
			},
			{
				"type": "occ",
				"energy": -0.25422,
				"method": "rhf"
			},
			{
				"type": "occ",
				"energy": -0.25371,
				"method": "rhf"
			},
			{
				"type": "unocc",
				"energy": -0.08666,
				"method": "rhf"
			},
			{
				"type": "unocc",
				"energy": -0.05058,
				"method": "rhf"
			},
			{
				"type": "unocc",
				"energy": -0.04509,
				"method": "rhf"
			},
			{
				"type": "unocc",
				"energy": -0.00764,
				"method": "rhf"
			},
			{
				"type": "unocc",
				"energy": -0.00504,
				"method": "rhf"
			}
		],
		"cosmo_sigma_profile": { 
			"-0.025": 0.0,
			"-0.024": 0.0,
			"-0.023": 0.0,
			"-0.022": 0.0,
			"-0.021": 0.0,
			"-0.02": 0.0,
			"-0.019": 0.0,
			"-0.018": 0.0,
			"-0.017": 0.664944077963,
			"-0.016": 0.809623223599,
			"-0.015": 0.972591393585,
			"-0.014": 0.701467031687,
			"-0.013": 1.19874391308,
			"-0.012": 0.862682447834,
			"-0.011": 1.31145654067,
			"-0.01": 2.29742787644,
			"-0.009": 3.24304378398,
			"-0.008": 1.85412959632,
			"-0.007": 3.31238225272,
			"-0.006": 8.82806857956,
			"-0.005": 12.0294326992,
			"-0.004": 15.6512613273,
			"-0.003": 18.6342997816,
			"-0.002": 18.468100354,
			"-0.001": 21.5131616803,
			"0.0": 24.3182182533,
			"0.001": 24.3787601966,
			"0.002": 33.3271375121,
			"0.003": 18.8106449002,
			"0.004": 3.4475267508,
			"0.005": 3.7293367791,
			"0.006": 2.93058810977,
			"0.007": 3.82684756335,
			"0.008": 3.51457512274,
			"0.009": 4.47391150317,
			"0.01": 4.90016386116,
			"0.011": 3.43719439273,
			"0.012": 4.55206601211,
			"0.013": 2.26377818586,
			"0.014": 0.433785021155,
			"0.015": 0.0,
			"0.016": 0.0,
			"0.017": 0.0,
			"0.018": 0.0,
			"0.019": 0.0,
			"0.02": 0.0,
			"0.021": 0.0,
			"0.022": 0.0,
			"0.023": 0.0,
			"0.024": 0.0,
			"0.025": 0.0
		}
	}
}
