{
	 "smiles": "ClC1=CC=C(SCC#N)C=C1", 
	 "Tm": 353.15, 
	 "num_atms": 17, 
	 "gaussian": { 
		 "optdone": 1, 
		 "sigma_profile": "yes", 
		 "theory": "DFT", 
		 "functional": "B3LYP", 
		 "basiset": "6-31G**", 
		 "properties": { 
			 "R2extent": 3358.0813, 
			 "electric_dipole_moment_norm": 3.11919374518, 
			 "electric_quadrupole_moment_norm": 16.67393539, 
			 "total_energy": -1221.57270224, 
			 "HOMO_LUMO_gap": 0.20724, 
			 "cosmo_polarized_energy": -10.63, 
			 "cosmo_cavitation_energy": 26.04, 
			 "cosmo_dispersion_energy": -18.64, 
			 "cosmo_repulsion_energy": 1.47, 
			 "cosmo_total_nonelectrostatic_energy": 8.87, 
			 "SMD_solvation_energy": 5.12 
		},
		"coords": [
			{
				"x": 1.7342306468,
				"y": -3.3153348325,
				"z": 0.6588119705,
				"element": "Cl" 
			},
			{
				"x": 0.6763092754,
				"y": -1.9531333707,
				"z": 0.3375470939,
				"element": "C" 
			},
			{
				"x": 1.1000285542,
				"y": -0.9498192977,
				"z": -0.5344552521,
				"element": "C" 
			},
			{
				"x": 0.2543490095,
				"y": 0.1292608181,
				"z": -0.7886548224,
				"element": "C" 
			},
			{
				"x": -1.001774373,
				"y": 0.2073728513,
				"z": -0.1726999306,
				"element": "C" 
			},
			{
				"x": -2.0520338005,
				"y": 1.6312801165,
				"z": -0.4702211583,
				"element": "S" 
			},
			{
				"x": -3.2109314515,
				"y": 0.9610313335,
				"z": -1.7503184747,
				"element": "C" 
			},
			{
				"x": -4.1048062192,
				"y": -0.0761305793,
				"z": -1.2447874339,
				"element": "C" 
			},
			{
				"x": -4.7979610762,
				"y": -0.9079537256,
				"z": -0.8253375985,
				"element": "N" 
			},
			{
				"x": -1.4044543135,
				"y": -0.8036514745,
				"z": 0.7107784084,
				"element": "C" 
			},
			{
				"x": -0.5698398804,
				"y": -1.8918488841,
				"z": 0.9621604401,
				"element": "C" 
			},
			{
				"x": 2.0741755898,
				"y": -1.0139428742,
				"z": -1.0062341671,
				"element": "H" 
			},
			{
				"x": 0.5722320972,
				"y": 0.9165623125,
				"z": -1.4646277704,
				"element": "H" 
			},
			{
				"x": -2.6420147865,
				"y": 0.5791576289,
				"z": -2.6023438243,
				"element": "H" 
			},
			{
				"x": -3.7972499634,
				"y": 1.8207699817,
				"z": -2.0886483361,
				"element": "H" 
			},
			{
				"x": -2.3717953169,
				"y": -0.7429030363,
				"z": 1.197314807,
				"element": "H" 
			},
			{
				"x": -0.8791639919,
				"y": -2.6801169677,
				"z": 1.6392160483,
				"element": "H" 
			}
		],
		 "valence_orbital": [ 
			{
				"type": "occ",
				"energy": -0.32587,
				"method": "rhf"
			},
			{
				"type": "occ",
				"energy": -0.32272,
				"method": "rhf"
			},
			{
				"type": "occ",
				"energy": -0.27858,
				"method": "rhf"
			},
			{
				"type": "occ",
				"energy": -0.26436,
				"method": "rhf"
			},
			{
				"type": "occ",
				"energy": -0.25437,
				"method": "rhf"
			},
			{
				"type": "unocc",
				"energy": -0.04713,
				"method": "rhf"
			},
			{
				"type": "unocc",
				"energy": -0.02932,
				"method": "rhf"
			},
			{
				"type": "unocc",
				"energy": -0.00133,
				"method": "rhf"
			},
			{
				"type": "unocc",
				"energy": 0.01574,
				"method": "rhf"
			},
			{
				"type": "unocc",
				"energy": 0.02713,
				"method": "rhf"
			}
		],
		"cosmo_sigma_profile": { 
			"-0.025": 0.0,
			"-0.024": 0.0,
			"-0.023": 0.0,
			"-0.022": 0.0,
			"-0.021": 0.0,
			"-0.02": 0.0,
			"-0.019": 0.0,
			"-0.018": 0.0,
			"-0.017": 0.0,
			"-0.016": 0.0,
			"-0.015": 0.0,
			"-0.014": 0.0,
			"-0.013": 0.0,
			"-0.012": 0.0,
			"-0.011": 1.19854618504,
			"-0.01": 4.24096590524,
			"-0.009": 4.23927787433,
			"-0.008": 6.08312874448,
			"-0.007": 11.677928758,
			"-0.006": 11.4791772505,
			"-0.005": 9.06717377306,
			"-0.004": 8.25525687049,
			"-0.003": 9.64323847318,
			"-0.002": 11.1863707653,
			"-0.001": 13.3722086907,
			"0.0": 15.2324044604,
			"0.001": 19.759405303,
			"0.002": 25.0085345197,
			"0.003": 16.1974102804,
			"0.004": 14.9174330351,
			"0.005": 8.29092440402,
			"0.006": 4.27876637362,
			"0.007": 4.39565520975,
			"0.008": 4.00147571304,
			"0.009": 2.91274472127,
			"0.01": 2.94802924506,
			"0.011": 2.44031832836,
			"0.012": 2.28045394973,
			"0.013": 1.17853173231,
			"0.014": 0.0,
			"0.015": 0.0,
			"0.016": 0.0,
			"0.017": 0.0,
			"0.018": 0.0,
			"0.019": 0.0,
			"0.02": 0.0,
			"0.021": 0.0,
			"0.022": 0.0,
			"0.023": 0.0,
			"0.024": 0.0,
			"0.025": 0.0
		}
	}
}
