{
	 "smiles": "CC(C)NC1=CC=CC=C1", 
	 "Tm": 263.15, 
	 "num_atms": 23, 
	 "gaussian": { 
		 "optdone": 1, 
		 "sigma_profile": "yes", 
		 "theory": "DFT", 
		 "functional": "B3LYP", 
		 "basiset": "6-31G**", 
		 "properties": { 
			 "R2extent": 2298.4478, 
			 "electric_dipole_moment_norm": 1.12418725309, 
			 "electric_quadrupole_moment_norm": 4.78741426973, 
			 "total_energy": -405.548012575, 
			 "HOMO_LUMO_gap": 0.21099, 
			 "cosmo_polarized_energy": -5.73, 
			 "cosmo_cavitation_energy": 25.09, 
			 "cosmo_dispersion_energy": -18.28, 
			 "cosmo_repulsion_energy": 1.48, 
			 "cosmo_total_nonelectrostatic_energy": 8.29, 
			 "SMD_solvation_energy": 3.3 
		},
		"coords": [
			{
				"x": 1.8083416034,
				"y": -1.2561587865,
				"z": -0.2527936772,
				"element": "C" 
			},
			{
				"x": 0.3531676462,
				"y": -0.9535315809,
				"z": 0.1174628531,
				"element": "C" 
			},
			{
				"x": -0.2251472729,
				"y": -2.0675164415,
				"z": 0.9941158739,
				"element": "C" 
			},
			{
				"x": 0.3285430878,
				"y": 0.3668866141,
				"z": 0.7939948112,
				"element": "N" 
			},
			{
				"x": -0.9179426583,
				"y": 1.0255434493,
				"z": 0.976934686,
				"element": "C" 
			},
			{
				"x": -1.8087699603,
				"y": 0.6207899984,
				"z": 1.985668909,
				"element": "C" 
			},
			{
				"x": -3.0156077344,
				"y": 1.2920859628,
				"z": 2.1773652784,
				"element": "C" 
			},
			{
				"x": -3.3483596708,
				"y": 2.398100649,
				"z": 1.3918091217,
				"element": "C" 
			},
			{
				"x": -2.4577117351,
				"y": 2.8257335012,
				"z": 0.4062811319,
				"element": "C" 
			},
			{
				"x": -1.261730573,
				"y": 2.140080876,
				"z": 0.1936997108,
				"element": "C" 
			},
			{
				"x": 2.430462641,
				"y": -1.2977306721,
				"z": 0.6474491103,
				"element": "H" 
			},
			{
				"x": 1.8833367614,
				"y": -2.2164178233,
				"z": -0.7714057276,
				"element": "H" 
			},
			{
				"x": 2.2209330471,
				"y": -0.487186439,
				"z": -0.9168596365,
				"element": "H" 
			},
			{
				"x": -0.2396984142,
				"y": -0.9147786074,
				"z": -0.8140556791,
				"element": "H" 
			},
			{
				"x": 0.3080282743,
				"y": -2.1189913512,
				"z": 1.9495497813,
				"element": "H" 
			},
			{
				"x": -0.1211532557,
				"y": -3.031779856,
				"z": 0.4854550202,
				"element": "H" 
			},
			{
				"x": -1.2875334581,
				"y": -1.9151395944,
				"z": 1.1967370405,
				"element": "H" 
			},
			{
				"x": 0.948343387,
				"y": 0.9872556288,
				"z": 0.2810043557,
				"element": "H" 
			},
			{
				"x": -1.5321501585,
				"y": -0.1986829442,
				"z": 2.6392125393,
				"element": "H" 
			},
			{
				"x": -3.6899849731,
				"y": 0.9615932886,
				"z": 2.9627855448,
				"element": "H" 
			},
			{
				"x": -4.2838124859,
				"y": 2.9253453976,
				"z": 1.5533614782,
				"element": "H" 
			},
			{
				"x": -2.6973625011,
				"y": 3.6888997311,
				"z": -0.2088495376,
				"element": "H" 
			},
			{
				"x": -0.5816915968,
				"y": 2.4681989996,
				"z": -0.5898229883,
				"element": "H" 
			}
		],
		 "valence_orbital": [ 
			{
				"type": "occ",
				"energy": -0.33395,
				"method": "rhf"
			},
			{
				"type": "occ",
				"energy": -0.33293,
				"method": "rhf"
			},
			{
				"type": "occ",
				"energy": -0.26645,
				"method": "rhf"
			},
			{
				"type": "occ",
				"energy": -0.2434,
				"method": "rhf"
			},
			{
				"type": "occ",
				"energy": -0.2061,
				"method": "rhf"
			},
			{
				"type": "unocc",
				"energy": 0.00489,
				"method": "rhf"
			},
			{
				"type": "unocc",
				"energy": 0.01017,
				"method": "rhf"
			},
			{
				"type": "unocc",
				"energy": 0.0836,
				"method": "rhf"
			},
			{
				"type": "unocc",
				"energy": 0.1001,
				"method": "rhf"
			},
			{
				"type": "unocc",
				"energy": 0.11917,
				"method": "rhf"
			}
		],
		"cosmo_sigma_profile": { 
			"-0.025": 0.0,
			"-0.024": 0.0,
			"-0.023": 0.0,
			"-0.022": 0.0,
			"-0.021": 0.0,
			"-0.02": 0.0,
			"-0.019": 0.0,
			"-0.018": 0.0,
			"-0.017": 0.0,
			"-0.016": 0.0,
			"-0.015": 0.0,
			"-0.014": 0.0,
			"-0.013": 0.0,
			"-0.012": 0.0,
			"-0.011": 0.0900410498663,
			"-0.01": 1.07297925071,
			"-0.009": 1.49752252545,
			"-0.008": 1.8516169725,
			"-0.007": 1.75741061334,
			"-0.006": 3.16693011143,
			"-0.005": 9.78524763362,
			"-0.004": 11.6649705804,
			"-0.003": 21.4664125925,
			"-0.002": 22.6631075107,
			"-0.001": 24.7741798558,
			"0.0": 19.9603880729,
			"0.001": 21.5465292175,
			"0.002": 10.4630758289,
			"0.003": 6.99807908841,
			"0.004": 8.58794242971,
			"0.005": 8.32372828977,
			"0.006": 9.88687422637,
			"0.007": 6.14889458043,
			"0.008": 1.05964057154,
			"0.009": 0.861428817581,
			"0.01": 0.859329447053,
			"0.011": 0.395148327029,
			"0.012": 0.359947743353,
			"0.013": 0.342105207005,
			"0.014": 0.758493560524,
			"0.015": 0.288417610878,
			"0.016": 0.309440073525,
			"0.017": 0.0,
			"0.018": 0.0,
			"0.019": 0.0,
			"0.02": 0.0,
			"0.021": 0.0,
			"0.022": 0.0,
			"0.023": 0.0,
			"0.024": 0.0,
			"0.025": 0.0
		}
	}
}
