{
	 "smiles": "NC1=CC=C(C=C1)C1=CN=CO1", 
	 "Tm": 423.15, 
	 "num_atms": 20, 
	 "gaussian": { 
		 "optdone": 1, 
		 "sigma_profile": "yes", 
		 "theory": "DFT", 
		 "functional": "B3LYP", 
		 "basiset": "6-31G**", 
		 "properties": { 
			 "R2extent": 3352.8155, 
			 "electric_dipole_moment_norm": 4.09317537005, 
			 "electric_quadrupole_moment_norm": 13.8432609088, 
			 "total_energy": -532.493870895, 
			 "HOMO_LUMO_gap": 0.16822, 
			 "cosmo_polarized_energy": -12.43, 
			 "cosmo_cavitation_energy": 24.61, 
			 "cosmo_dispersion_energy": -18.4, 
			 "cosmo_repulsion_energy": 1.44, 
			 "cosmo_total_nonelectrostatic_energy": 7.65, 
			 "SMD_solvation_energy": 3.48 
		},
		"coords": [
			{
				"x": -2.346286543,
				"y": -4.4310904486,
				"z": -0.149965565,
				"element": "N" 
			},
			{
				"x": -1.7774588933,
				"y": -3.2219491858,
				"z": -0.5407044621,
				"element": "C" 
			},
			{
				"x": -1.8316415432,
				"y": -2.7965128568,
				"z": -1.8798034208,
				"element": "C" 
			},
			{
				"x": -1.312831412,
				"y": -1.5645742917,
				"z": -2.2569688577,
				"element": "C" 
			},
			{
				"x": -0.7184073038,
				"y": -0.7068954429,
				"z": -1.3151434096,
				"element": "C" 
			},
			{
				"x": -0.6664501214,
				"y": -1.1360018261,
				"z": 0.0234437719,
				"element": "C" 
			},
			{
				"x": -1.1836053366,
				"y": -2.3654821825,
				"z": 0.4053901635,
				"element": "C" 
			},
			{
				"x": -0.170542013,
				"y": 0.5832151259,
				"z": -1.703063562,
				"element": "C" 
			},
			{
				"x": 0.4465117886,
				"y": 1.615360973,
				"z": -1.0505050302,
				"element": "C" 
			},
			{
				"x": 0.763659135,
				"y": 2.6236037238,
				"z": -1.9504573806,
				"element": "N" 
			},
			{
				"x": 0.3376524514,
				"y": 2.1763957377,
				"z": -3.0875282682,
				"element": "C" 
			},
			{
				"x": -0.2413337245,
				"y": 0.9485043146,
				"z": -3.0311880344,
				"element": "O" 
			},
			{
				"x": -1.9892176434,
				"y": -4.8258495722,
				"z": 0.7088213747,
				"element": "H" 
			},
			{
				"x": -2.445104514,
				"y": -5.1237363853,
				"z": -0.8788953461,
				"element": "H" 
			},
			{
				"x": -2.2893612978,
				"y": -3.4398083524,
				"z": -2.6273011989,
				"element": "H" 
			},
			{
				"x": -1.3641435731,
				"y": -1.2585417148,
				"z": -3.296399395,
				"element": "H" 
			},
			{
				"x": -0.2121016756,
				"y": -0.4997378423,
				"z": 0.7773055607,
				"element": "H" 
			},
			{
				"x": -1.1341193276,
				"y": -2.6713318694,
				"z": 1.4474659582,
				"element": "H" 
			},
			{
				"x": 0.6836635657,
				"y": 1.7055841083,
				"z": -0.0009129797,
				"element": "H" 
			},
			{
				"x": 0.3834179815,
				"y": 2.6475479874,
				"z": -4.0581899187,
				"element": "H" 
			}
		],
		 "valence_orbital": [ 
			{
				"type": "occ",
				"energy": -0.31193,
				"method": "rhf"
			},
			{
				"type": "occ",
				"energy": -0.28088,
				"method": "rhf"
			},
			{
				"type": "occ",
				"energy": -0.2547,
				"method": "rhf"
			},
			{
				"type": "occ",
				"energy": -0.25327,
				"method": "rhf"
			},
			{
				"type": "occ",
				"energy": -0.19189,
				"method": "rhf"
			},
			{
				"type": "unocc",
				"energy": -0.02367,
				"method": "rhf"
			},
			{
				"type": "unocc",
				"energy": -0.00345,
				"method": "rhf"
			},
			{
				"type": "unocc",
				"energy": 0.03529,
				"method": "rhf"
			},
			{
				"type": "unocc",
				"energy": 0.07216,
				"method": "rhf"
			},
			{
				"type": "unocc",
				"energy": 0.0895,
				"method": "rhf"
			}
		],
		"cosmo_sigma_profile": { 
			"-0.025": 0.0,
			"-0.024": 0.0,
			"-0.023": 0.0,
			"-0.022": 0.0,
			"-0.021": 0.0,
			"-0.02": 0.0,
			"-0.019": 0.0,
			"-0.018": 0.0,
			"-0.017": 0.0,
			"-0.016": 0.0,
			"-0.015": 0.0,
			"-0.014": 0.0,
			"-0.013": 0.754391599168,
			"-0.012": 2.86685434792,
			"-0.011": 3.16090779974,
			"-0.01": 5.73576541419,
			"-0.009": 4.48157151935,
			"-0.008": 4.7768935018,
			"-0.007": 9.03077401699,
			"-0.006": 8.72888454203,
			"-0.005": 10.4239996904,
			"-0.004": 8.81458895889,
			"-0.003": 9.37231864504,
			"-0.002": 9.77256982352,
			"-0.001": 8.76960026725,
			"0.0": 10.6503981853,
			"0.001": 12.9002321451,
			"0.002": 15.2249042896,
			"0.003": 16.0960950432,
			"0.004": 12.0275677205,
			"0.005": 16.3601892536,
			"0.006": 9.54432277296,
			"0.007": 3.25813380277,
			"0.008": 2.13990101808,
			"0.009": 1.72197608128,
			"0.01": 1.75685313189,
			"0.011": 1.99064626583,
			"0.012": 1.59021522485,
			"0.013": 1.91923120368,
			"0.014": 1.56014303508,
			"0.015": 1.12295879724,
			"0.016": 0.727836164626,
			"0.017": 0.128230596165,
			"0.018": 0.0,
			"0.019": 0.0,
			"0.02": 0.0,
			"0.021": 0.0,
			"0.022": 0.0,
			"0.023": 0.0,
			"0.024": 0.0,
			"0.025": 0.0
		}
	}
}
