{
	 "smiles": "COC(F)(F)C(F)F", 
	 "Tm": 166.15, 
	 "num_atms": 12, 
	 "gaussian": { 
		 "optdone": 1, 
		 "sigma_profile": "yes", 
		 "theory": "DFT", 
		 "functional": "B3LYP", 
		 "basiset": "6-31G**", 
		 "properties": { 
			 "R2extent": 1435.1461, 
			 "electric_dipole_moment_norm": 2.17579474446, 
			 "electric_quadrupole_moment_norm": 7.08949426193, 
			 "total_energy": -591.293675271, 
			 "HOMO_LUMO_gap": 0.38483, 
			 "cosmo_polarized_energy": -4.68, 
			 "cosmo_cavitation_energy": 17.33, 
			 "cosmo_dispersion_energy": -12.46, 
			 "cosmo_repulsion_energy": 0.98, 
			 "cosmo_total_nonelectrostatic_energy": 5.85, 
			 "SMD_solvation_energy": 5.5 
		},
		"coords": [
			{
				"x": -1.5039885736,
				"y": -1.0327229912,
				"z": 2.8234104449,
				"element": "C" 
			},
			{
				"x": -0.430436868,
				"y": -0.9974132607,
				"z": 1.8669026596,
				"element": "O" 
			},
			{
				"x": -0.7246473447,
				"y": -0.6092271461,
				"z": 0.5936963941,
				"element": "C" 
			},
			{
				"x": 0.4334787239,
				"y": -0.1869735578,
				"z": 0.0345966214,
				"element": "F" 
			},
			{
				"x": -1.6105422233,
				"y": 0.4252027695,
				"z": 0.5658433824,
				"element": "F" 
			},
			{
				"x": -1.259444955,
				"y": -1.7513407312,
				"z": -0.2869709455,
				"element": "C" 
			},
			{
				"x": -2.4331393171,
				"y": -2.2117939751,
				"z": 0.2361211772,
				"element": "F" 
			},
			{
				"x": -1.5012143148,
				"y": -1.2899112793,
				"z": -1.5377648265,
				"element": "F" 
			},
			{
				"x": -2.2492019208,
				"y": -1.7852870397,
				"z": 2.5565156123,
				"element": "H" 
			},
			{
				"x": -1.0327198979,
				"y": -1.2959344257,
				"z": 3.7702264462,
				"element": "H" 
			},
			{
				"x": -1.9784680246,
				"y": -0.0525787285,
				"z": 2.9066318378,
				"element": "H" 
			},
			{
				"x": -0.5365752842,
				"y": -2.5728196344,
				"z": -0.329408804,
				"element": "H" 
			}
		],
		 "valence_orbital": [ 
			{
				"type": "occ",
				"energy": -0.4056,
				"method": "rhf"
			},
			{
				"type": "occ",
				"energy": -0.4041,
				"method": "rhf"
			},
			{
				"type": "occ",
				"energy": -0.37369,
				"method": "rhf"
			},
			{
				"type": "occ",
				"energy": -0.3491,
				"method": "rhf"
			},
			{
				"type": "occ",
				"energy": -0.30437,
				"method": "rhf"
			},
			{
				"type": "unocc",
				"energy": 0.08046,
				"method": "rhf"
			},
			{
				"type": "unocc",
				"energy": 0.09496,
				"method": "rhf"
			},
			{
				"type": "unocc",
				"energy": 0.11433,
				"method": "rhf"
			},
			{
				"type": "unocc",
				"energy": 0.1217,
				"method": "rhf"
			},
			{
				"type": "unocc",
				"energy": 0.14517,
				"method": "rhf"
			}
		],
		"cosmo_sigma_profile": { 
			"-0.025": 0.0,
			"-0.024": 0.0,
			"-0.023": 0.0,
			"-0.022": 0.0,
			"-0.021": 0.0,
			"-0.02": 0.0,
			"-0.019": 0.0,
			"-0.018": 0.0,
			"-0.017": 0.0,
			"-0.016": 0.0,
			"-0.015": 0.0,
			"-0.014": 0.0,
			"-0.013": 0.0,
			"-0.012": 0.0,
			"-0.011": 0.445401935967,
			"-0.01": 3.29598080198,
			"-0.009": 2.13518200723,
			"-0.008": 1.28585554807,
			"-0.007": 3.10395223548,
			"-0.006": 5.21803880896,
			"-0.005": 7.93467432576,
			"-0.004": 9.85222026638,
			"-0.003": 8.61142864983,
			"-0.002": 6.81778757629,
			"-0.001": 5.67839379615,
			"0.0": 5.41620436231,
			"0.001": 7.96900111267,
			"0.002": 16.9874942326,
			"0.003": 34.2000888129,
			"0.004": 11.1250707238,
			"0.005": 2.15982331685,
			"0.006": 1.15811117768,
			"0.007": 1.22054273373,
			"0.008": 1.64108685667,
			"0.009": 1.24333561643,
			"0.01": 0.292559407319,
			"0.011": 0.0,
			"0.012": 0.0,
			"0.013": 0.0,
			"0.014": 0.0,
			"0.015": 0.0,
			"0.016": 0.0,
			"0.017": 0.0,
			"0.018": 0.0,
			"0.019": 0.0,
			"0.02": 0.0,
			"0.021": 0.0,
			"0.022": 0.0,
			"0.023": 0.0,
			"0.024": 0.0,
			"0.025": 0.0
		}
	}
}
