{
	 "smiles": "OC(=O)C1CCCN1S(=O)(=O)C1=CC=C(Br)C=C1", 
	 "Tm": 377.15, 
	 "num_atms": 30, 
	 "gaussian": { 
		 "optdone": 1, 
		 "sigma_profile": "yes", 
		 "theory": "DFT", 
		 "functional": "B3LYP", 
		 "basiset": "6-31G**", 
		 "properties": { 
			 "R2extent": 7970.9875, 
			 "electric_dipole_moment_norm": 5.19664068702, 
			 "electric_quadrupole_moment_norm": 19.099975218, 
			 "total_energy": -3751.58005121, 
			 "HOMO_LUMO_gap": 0.1965, 
			 "cosmo_polarized_energy": -19.19, 
			 "cosmo_cavitation_energy": 36.79, 
			 "cosmo_dispersion_energy": -26.47, 
			 "cosmo_repulsion_energy": 2.0, 
			 "cosmo_total_nonelectrostatic_energy": 12.31, 
			 "SMD_solvation_energy": 5.04 
		},
		"coords": [
			{
				"x": 0.1752916191,
				"y": -1.7432179288,
				"z": -2.3850656476,
				"element": "O" 
			},
			{
				"x": 1.445070552,
				"y": -2.1384577251,
				"z": -2.587676256,
				"element": "C" 
			},
			{
				"x": 1.7490462126,
				"y": -2.9892660168,
				"z": -3.387616439,
				"element": "O" 
			},
			{
				"x": 2.5033126432,
				"y": -1.4186749134,
				"z": -1.7270309406,
				"element": "C" 
			},
			{
				"x": 3.5166634771,
				"y": -0.650657133,
				"z": -2.5965093313,
				"element": "C" 
			},
			{
				"x": 2.8966000912,
				"y": 0.7507458292,
				"z": -2.7016718949,
				"element": "C" 
			},
			{
				"x": 2.3454444539,
				"y": 0.9885255202,
				"z": -1.2910912463,
				"element": "C" 
			},
			{
				"x": 1.8645880172,
				"y": -0.3643360471,
				"z": -0.8766753971,
				"element": "N" 
			},
			{
				"x": 1.8034942275,
				"y": -0.6620803139,
				"z": 0.8140398521,
				"element": "S" 
			},
			{
				"x": 2.7695270954,
				"y": 0.1978963218,
				"z": 1.5065102198,
				"element": "O" 
			},
			{
				"x": 1.8299030113,
				"y": -2.1187782591,
				"z": 0.9636445718,
				"element": "O" 
			},
			{
				"x": 0.1609590847,
				"y": -0.0769823359,
				"z": 1.2306647992,
				"element": "C" 
			},
			{
				"x": -0.9454705954,
				"y": -0.8718568742,
				"z": 0.9159913813,
				"element": "C" 
			},
			{
				"x": -2.2221726826,
				"y": -0.4223148692,
				"z": 1.2436366052,
				"element": "C" 
			},
			{
				"x": -2.3686708455,
				"y": 0.8092257697,
				"z": 1.8872094723,
				"element": "C" 
			},
			{
				"x": -4.1152287054,
				"y": 1.4225740908,
				"z": 2.3349430213,
				"element": "Br" 
			},
			{
				"x": -1.26416279,
				"y": 1.5960125482,
				"z": 2.2137636703,
				"element": "C" 
			},
			{
				"x": 0.0147654028,
				"y": 1.147041063,
				"z": 1.8833068137,
				"element": "C" 
			},
			{
				"x": 0.2275340783,
				"y": -1.0175801904,
				"z": -1.7292273726,
				"element": "H" 
			},
			{
				"x": 2.9757587461,
				"y": -2.1881844836,
				"z": -1.114034929,
				"element": "H" 
			},
			{
				"x": 4.4811474306,
				"y": -0.6026740782,
				"z": -2.0806730857,
				"element": "H" 
			},
			{
				"x": 3.6641154721,
				"y": -1.1474466637,
				"z": -3.5569784591,
				"element": "H" 
			},
			{
				"x": 3.6152297581,
				"y": 1.5220054399,
				"z": -2.9900929964,
				"element": "H" 
			},
			{
				"x": 2.0843048967,
				"y": 0.7558371882,
				"z": -3.4371433576,
				"element": "H" 
			},
			{
				"x": 1.5200270612,
				"y": 1.7054991946,
				"z": -1.2590813513,
				"element": "H" 
			},
			{
				"x": 3.1327826019,
				"y": 1.3302837642,
				"z": -0.6113254443,
				"element": "H" 
			},
			{
				"x": -0.812267725,
				"y": -1.83311474,
				"z": 0.4301460088,
				"element": "H" 
			},
			{
				"x": -3.0932307333,
				"y": -1.022760278,
				"z": 1.0089480552,
				"element": "H" 
			},
			{
				"x": -1.4000042393,
				"y": 2.5429414223,
				"z": 2.7230415748,
				"element": "H" 
			},
			{
				"x": 0.8922423837,
				"y": 1.730094698,
				"z": 2.1400481031,
				"element": "H" 
			}
		],
		 "valence_orbital": [ 
			{
				"type": "occ",
				"energy": -0.30803,
				"method": "rhf"
			},
			{
				"type": "occ",
				"energy": -0.3042,
				"method": "rhf"
			},
			{
				"type": "occ",
				"energy": -0.29444,
				"method": "rhf"
			},
			{
				"type": "occ",
				"energy": -0.27215,
				"method": "rhf"
			},
			{
				"type": "occ",
				"energy": -0.25941,
				"method": "rhf"
			},
			{
				"type": "unocc",
				"energy": -0.06291,
				"method": "rhf"
			},
			{
				"type": "unocc",
				"energy": -0.04577,
				"method": "rhf"
			},
			{
				"type": "unocc",
				"energy": -0.0144,
				"method": "rhf"
			},
			{
				"type": "unocc",
				"energy": 0.00455,
				"method": "rhf"
			},
			{
				"type": "unocc",
				"energy": 0.03858,
				"method": "rhf"
			}
		],
		"cosmo_sigma_profile": { 
			"-0.025": 0.0,
			"-0.024": 0.0,
			"-0.023": 0.0,
			"-0.022": 0.0,
			"-0.021": 0.0,
			"-0.02": 0.0,
			"-0.019": 0.0,
			"-0.018": 0.0,
			"-0.017": 0.0,
			"-0.016": 0.0,
			"-0.015": 0.0,
			"-0.014": 0.0,
			"-0.013": 0.0,
			"-0.012": 0.102868285867,
			"-0.011": 0.443761320587,
			"-0.01": 1.13409074152,
			"-0.009": 2.39956967283,
			"-0.008": 9.0418002481,
			"-0.007": 11.159980671,
			"-0.006": 15.2922843173,
			"-0.005": 26.2808854187,
			"-0.004": 26.5359690254,
			"-0.003": 24.1378685456,
			"-0.002": 20.2051770394,
			"-0.001": 20.625642049,
			"0.0": 21.5630426267,
			"0.001": 22.3206251408,
			"0.002": 12.1528243535,
			"0.003": 12.6855708136,
			"0.004": 13.5302743286,
			"0.005": 3.65013261998,
			"0.006": 5.28817796571,
			"0.007": 5.63314683322,
			"0.008": 5.70454545878,
			"0.009": 8.93731433544,
			"0.01": 11.909771821,
			"0.011": 8.461026776,
			"0.012": 5.30304804809,
			"0.013": 1.7183421543,
			"0.014": 0.0283920799525,
			"0.015": 0.0,
			"0.016": 0.0,
			"0.017": 0.0,
			"0.018": 0.0,
			"0.019": 0.0,
			"0.02": 0.0,
			"0.021": 0.0,
			"0.022": 0.0,
			"0.023": 0.0,
			"0.024": 0.0,
			"0.025": 0.0
		}
	}
}
