{
	 "smiles": "CC1=NC2=C(O1)C=C(C)C(C)=C2", 
	 "Tm": 366.95, 
	 "num_atms": 23, 
	 "gaussian": { 
		 "optdone": 1, 
		 "sigma_profile": "yes", 
		 "theory": "DFT", 
		 "functional": "B3LYP", 
		 "basiset": "6-31G**", 
		 "properties": { 
			 "R2extent": 2815.9312, 
			 "electric_dipole_moment_norm": 1.25588567155, 
			 "electric_quadrupole_moment_norm": 9.35226838313, 
			 "total_energy": -517.689495561, 
			 "HOMO_LUMO_gap": 0.20378, 
			 "cosmo_polarized_energy": -6.83, 
			 "cosmo_cavitation_energy": 26.27, 
			 "cosmo_dispersion_energy": -19.6, 
			 "cosmo_repulsion_energy": 1.55, 
			 "cosmo_total_nonelectrostatic_energy": 8.22, 
			 "SMD_solvation_energy": 2.98 
		},
		"coords": [
			{
				"x": 0.4489216834,
				"y": -1.113876367,
				"z": 5.1940403744,
				"element": "C" 
			},
			{
				"x": 0.3056327406,
				"y": -0.6678816314,
				"z": 3.7829856726,
				"element": "C" 
			},
			{
				"x": 0.2433767837,
				"y": 0.5429722521,
				"z": 3.3290944053,
				"element": "N" 
			},
			{
				"x": 0.1117915868,
				"y": 0.3877856076,
				"z": 1.9452181613,
				"element": "C" 
			},
			{
				"x": 0.1033000671,
				"y": -0.9755401195,
				"z": 1.6439878991,
				"element": "C" 
			},
			{
				"x": 0.2284246124,
				"y": -1.6620324166,
				"z": 2.8291852948,
				"element": "O" 
			},
			{
				"x": -0.0137746578,
				"y": -1.4731403067,
				"z": 0.3560573215,
				"element": "C" 
			},
			{
				"x": -0.1283220916,
				"y": -0.5393069764,
				"z": -0.6815571046,
				"element": "C" 
			},
			{
				"x": -0.2586947415,
				"y": -1.0287980665,
				"z": -2.1051358159,
				"element": "C" 
			},
			{
				"x": -0.12243253,
				"y": 0.8575862847,
				"z": -0.4023114544,
				"element": "C" 
			},
			{
				"x": -0.2468317398,
				"y": 1.8538137216,
				"z": -1.5326837234,
				"element": "C" 
			},
			{
				"x": -0.0022804782,
				"y": 1.3192413897,
				"z": 0.9116611565,
				"element": "C" 
			},
			{
				"x": 0.4982566141,
				"y": -0.2375604864,
				"z": 5.8404631245,
				"element": "H" 
			},
			{
				"x": -0.40004861,
				"y": -1.7373781991,
				"z": 5.4937469855,
				"element": "H" 
			},
			{
				"x": 1.3578573046,
				"y": -1.7108476454,
				"z": 5.3236218438,
				"element": "H" 
			},
			{
				"x": -0.0169902034,
				"y": -2.5395444695,
				"z": 0.1555784876,
				"element": "H" 
			},
			{
				"x": -1.1924733668,
				"y": -0.6872663569,
				"z": -2.5683189471,
				"element": "H" 
			},
			{
				"x": 0.5582134232,
				"y": -0.6607132797,
				"z": -2.7378296124,
				"element": "H" 
			},
			{
				"x": -0.246348717,
				"y": -2.1208891227,
				"z": -2.1487945529,
				"element": "H" 
			},
			{
				"x": -1.1828512524,
				"y": 1.7239563247,
				"z": -2.089658331,
				"element": "H" 
			},
			{
				"x": 0.5683391531,
				"y": 1.7501065233,
				"z": -2.2592872721,
				"element": "H" 
			},
			{
				"x": -0.2255288254,
				"y": 2.8790399052,
				"z": -1.1545987678,
				"element": "H" 
			},
			{
				"x": 0.0026632449,
				"y": 2.3829734348,
				"z": 1.1286348547,
				"element": "H" 
			}
		],
		 "valence_orbital": [ 
			{
				"type": "occ",
				"energy": -0.33699,
				"method": "rhf"
			},
			{
				"type": "occ",
				"energy": -0.31316,
				"method": "rhf"
			},
			{
				"type": "occ",
				"energy": -0.28096,
				"method": "rhf"
			},
			{
				"type": "occ",
				"energy": -0.23345,
				"method": "rhf"
			},
			{
				"type": "occ",
				"energy": -0.21961,
				"method": "rhf"
			},
			{
				"type": "unocc",
				"energy": -0.01583,
				"method": "rhf"
			},
			{
				"type": "unocc",
				"energy": 0.01413,
				"method": "rhf"
			},
			{
				"type": "unocc",
				"energy": 0.0467,
				"method": "rhf"
			},
			{
				"type": "unocc",
				"energy": 0.09413,
				"method": "rhf"
			},
			{
				"type": "unocc",
				"energy": 0.10645,
				"method": "rhf"
			}
		],
		"cosmo_sigma_profile": { 
			"-0.025": 0.0,
			"-0.024": 0.0,
			"-0.023": 0.0,
			"-0.022": 0.0,
			"-0.021": 0.0,
			"-0.02": 0.0,
			"-0.019": 0.0,
			"-0.018": 0.0,
			"-0.017": 0.0,
			"-0.016": 0.0,
			"-0.015": 0.0,
			"-0.014": 0.0,
			"-0.013": 0.0,
			"-0.012": 0.0,
			"-0.011": 0.0,
			"-0.01": 0.0,
			"-0.009": 0.0,
			"-0.008": 0.0,
			"-0.007": 1.40350398716,
			"-0.006": 8.98137292047,
			"-0.005": 11.252475781,
			"-0.004": 21.7308116089,
			"-0.003": 20.3148331376,
			"-0.002": 24.5558888424,
			"-0.001": 19.6523879177,
			"0.0": 22.5326332459,
			"0.001": 15.2715927487,
			"0.002": 12.0988438431,
			"0.003": 10.7332655652,
			"0.004": 13.4806464337,
			"0.005": 9.68248086829,
			"0.006": 3.10495955329,
			"0.007": 3.09077006301,
			"0.008": 2.68652665588,
			"0.009": 1.24735586739,
			"0.01": 0.533192056333,
			"0.011": 0.872046645394,
			"0.012": 1.35477950685,
			"0.013": 1.14897166341,
			"0.014": 0.757502817701,
			"0.015": 0.988804657264,
			"0.016": 0.797114591667,
			"0.017": 0.0933922237607,
			"0.018": 0.0,
			"0.019": 0.0,
			"0.02": 0.0,
			"0.021": 0.0,
			"0.022": 0.0,
			"0.023": 0.0,
			"0.024": 0.0,
			"0.025": 0.0
		}
	}
}
