{
	 "smiles": "OC(=O)CNC(=O)N1CCC2=C(C1)C=CC=C2", 
	 "Tm": 433.15, 
	 "num_atms": 31, 
	 "gaussian": { 
		 "optdone": 1, 
		 "sigma_profile": "yes", 
		 "theory": "DFT", 
		 "functional": "B3LYP", 
		 "basiset": "6-31G**", 
		 "properties": { 
			 "R2extent": 6345.711, 
			 "electric_dipole_moment_norm": 4.67903849204, 
			 "electric_quadrupole_moment_norm": 18.4108986636, 
			 "total_energy": -800.928830933, 
			 "HOMO_LUMO_gap": 0.22223, 
			 "cosmo_polarized_energy": -19.24, 
			 "cosmo_cavitation_energy": 34.2, 
			 "cosmo_dispersion_energy": -24.71, 
			 "cosmo_repulsion_energy": 1.93, 
			 "cosmo_total_nonelectrostatic_energy": 11.42, 
			 "SMD_solvation_energy": 5.83 
		},
		"coords": [
			{
				"x": -1.6553323688,
				"y": 4.4589120016,
				"z": 1.3751942549,
				"element": "O" 
			},
			{
				"x": -0.4538074512,
				"y": 5.0145740236,
				"z": 1.662273601,
				"element": "C" 
			},
			{
				"x": -0.2942070437,
				"y": 5.8259720624,
				"z": 2.5440103798,
				"element": "O" 
			},
			{
				"x": 0.6492770341,
				"y": 4.5569267841,
				"z": 0.7128794692,
				"element": "C" 
			},
			{
				"x": 0.3798033176,
				"y": 3.363445258,
				"z": -0.0627522066,
				"element": "N" 
			},
			{
				"x": 0.3990154155,
				"y": 2.1539581988,
				"z": 0.639937105,
				"element": "C" 
			},
			{
				"x": 0.7760438808,
				"y": 2.1019363817,
				"z": 1.8083605266,
				"element": "O" 
			},
			{
				"x": 0.0136644549,
				"y": 1.0435410989,
				"z": -0.079386354,
				"element": "N" 
			},
			{
				"x": -0.129744231,
				"y": -0.2312100155,
				"z": 0.6178103844,
				"element": "C" 
			},
			{
				"x": 0.7419419103,
				"y": -1.2928117052,
				"z": -0.0525238944,
				"element": "C" 
			},
			{
				"x": 0.4564387473,
				"y": -1.3659364685,
				"z": -1.5372264202,
				"element": "C" 
			},
			{
				"x": -0.0562519253,
				"y": -0.2456140234,
				"z": -2.208137956,
				"element": "C" 
			},
			{
				"x": -0.318257045,
				"y": 1.0740026889,
				"z": -1.4974131175,
				"element": "C" 
			},
			{
				"x": -0.3367063765,
				"y": -0.3275888754,
				"z": -3.5786710099,
				"element": "C" 
			},
			{
				"x": -0.1026901075,
				"y": -1.5016034507,
				"z": -4.288675502,
				"element": "C" 
			},
			{
				"x": 0.4127463692,
				"y": -2.6184253812,
				"z": -3.6250015128,
				"element": "C" 
			},
			{
				"x": 0.6829039798,
				"y": -2.5451134286,
				"z": -2.2613756606,
				"element": "C" 
			},
			{
				"x": -2.2773784836,
				"y": 4.8166419389,
				"z": 2.0308343337,
				"element": "H" 
			},
			{
				"x": 0.8560547864,
				"y": 5.3892291237,
				"z": 0.0306568265,
				"element": "H" 
			},
			{
				"x": 1.5389878175,
				"y": 4.397541233,
				"z": 1.321919099,
				"element": "H" 
			},
			{
				"x": -0.3587840581,
				"y": 3.4672308015,
				"z": -0.7449628171,
				"element": "H" 
			},
			{
				"x": 0.1623082275,
				"y": -0.0643345492,
				"z": 1.6537874918,
				"element": "H" 
			},
			{
				"x": -1.183649607,
				"y": -0.5457991525,
				"z": 0.5977513849,
				"element": "H" 
			},
			{
				"x": 1.7975128812,
				"y": -1.0432359816,
				"z": 0.119346192,
				"element": "H" 
			},
			{
				"x": 0.56717438,
				"y": -2.2697666497,
				"z": 0.4131243091,
				"element": "H" 
			},
			{
				"x": -1.3755691979,
				"y": 1.3534176815,
				"z": -1.653328542,
				"element": "H" 
			},
			{
				"x": 0.290806533,
				"y": 1.8484142835,
				"z": -1.9761649967,
				"element": "H" 
			},
			{
				"x": -0.7414327634,
				"y": 0.5418720723,
				"z": -4.0930041171,
				"element": "H" 
			},
			{
				"x": -0.3225349372,
				"y": -1.5473926131,
				"z": -5.351294323,
				"element": "H" 
			},
			{
				"x": 0.5948001082,
				"y": -3.5418513671,
				"z": -4.1671038686,
				"element": "H" 
			},
			{
				"x": 1.0735657529,
				"y": -3.4155319709,
				"z": -1.7393630592,
				"element": "H" 
			}
		],
		 "valence_orbital": [ 
			{
				"type": "occ",
				"energy": -0.26223,
				"method": "rhf"
			},
			{
				"type": "occ",
				"energy": -0.2544,
				"method": "rhf"
			},
			{
				"type": "occ",
				"energy": -0.24664,
				"method": "rhf"
			},
			{
				"type": "occ",
				"energy": -0.24327,
				"method": "rhf"
			},
			{
				"type": "occ",
				"energy": -0.23278,
				"method": "rhf"
			},
			{
				"type": "unocc",
				"energy": -0.01055,
				"method": "rhf"
			},
			{
				"type": "unocc",
				"energy": -0.00278,
				"method": "rhf"
			},
			{
				"type": "unocc",
				"energy": 0.01158,
				"method": "rhf"
			},
			{
				"type": "unocc",
				"energy": 0.05229,
				"method": "rhf"
			},
			{
				"type": "unocc",
				"energy": 0.06748,
				"method": "rhf"
			}
		],
		"cosmo_sigma_profile": { 
			"-0.025": 0.0,
			"-0.024": 0.0,
			"-0.023": 0.0,
			"-0.022": 0.0,
			"-0.021": 0.0,
			"-0.02": 0.0,
			"-0.019": 0.0564527544871,
			"-0.018": 0.796043128027,
			"-0.017": 1.25889142741,
			"-0.016": 0.518659322111,
			"-0.015": 0.565855847008,
			"-0.014": 1.52204485618,
			"-0.013": 1.42878983345,
			"-0.012": 1.88944089924,
			"-0.011": 1.77979030782,
			"-0.01": 1.7834800071,
			"-0.009": 2.19001352801,
			"-0.008": 5.67228505452,
			"-0.007": 5.10625827022,
			"-0.006": 8.93432949641,
			"-0.005": 19.6417752195,
			"-0.004": 25.3625496817,
			"-0.003": 25.7161689364,
			"-0.002": 21.3281726457,
			"-0.001": 17.5614681193,
			"0.0": 14.0774456185,
			"0.001": 13.0026344825,
			"0.002": 13.0328916416,
			"0.003": 12.1766597318,
			"0.004": 12.4890307275,
			"0.005": 13.7379697888,
			"0.006": 12.5283354625,
			"0.007": 5.92486763256,
			"0.008": 4.31217689894,
			"0.009": 3.25202689417,
			"0.01": 3.22070815073,
			"0.011": 5.64312785936,
			"0.012": 6.05252944102,
			"0.013": 2.634203438,
			"0.014": 4.40351292915,
			"0.015": 0.387939416346,
			"0.016": 0.0,
			"0.017": 0.0,
			"0.018": 0.0,
			"0.019": 0.0,
			"0.02": 0.0,
			"0.021": 0.0,
			"0.022": 0.0,
			"0.023": 0.0,
			"0.024": 0.0,
			"0.025": 0.0
		}
	}
}
