{
	 "smiles": "CC(=O)NC1=CC=C(C=C1)[N+]([O-])=O", 
	 "Tm": 489.15, 
	 "num_atms": 21, 
	 "gaussian": { 
		 "optdone": 1, 
		 "sigma_profile": "yes", 
		 "theory": "DFT", 
		 "functional": "B3LYP", 
		 "basiset": "6-31G**", 
		 "properties": { 
			 "R2extent": 4102.8111, 
			 "electric_dipole_moment_norm": 7.04615602297, 
			 "electric_quadrupole_moment_norm": 11.7887026152, 
			 "total_energy": -644.770330085, 
			 "HOMO_LUMO_gap": 0.16416, 
			 "cosmo_polarized_energy": -17.2, 
			 "cosmo_cavitation_energy": 26.34, 
			 "cosmo_dispersion_energy": -19.46, 
			 "cosmo_repulsion_energy": 1.53, 
			 "cosmo_total_nonelectrostatic_energy": 8.41, 
			 "SMD_solvation_energy": 7.64 
		},
		"coords": [
			{
				"x": 3.9793569697,
				"y": 1.3699129893,
				"z": 0.0061324966,
				"element": "C" 
			},
			{
				"x": 3.1817412161,
				"y": 0.0830478685,
				"z": -0.1353005267,
				"element": "C" 
			},
			{
				"x": 3.7171615752,
				"y": -1.0060446919,
				"z": -0.2563549553,
				"element": "O" 
			},
			{
				"x": 1.8070750593,
				"y": 0.2706217992,
				"z": -0.145332346,
				"element": "N" 
			},
			{
				"x": 0.789422008,
				"y": -0.6798232533,
				"z": -0.3084063878,
				"element": "C" 
			},
			{
				"x": 1.0382992386,
				"y": -2.0542009266,
				"z": -0.4840647959,
				"element": "C" 
			},
			{
				"x": -0.0298532777,
				"y": -2.9301372779,
				"z": -0.6385970135,
				"element": "C" 
			},
			{
				"x": -1.3362386558,
				"y": -2.4443516763,
				"z": -0.6183636539,
				"element": "C" 
			},
			{
				"x": -1.6024683993,
				"y": -1.0860693697,
				"z": -0.4450881843,
				"element": "C" 
			},
			{
				"x": -0.5389244432,
				"y": -0.2108085411,
				"z": -0.2909433115,
				"element": "C" 
			},
			{
				"x": -2.4540599415,
				"y": -3.3750525582,
				"z": -0.781806326,
				"element": "N" 
			},
			{
				"x": -3.5950019623,
				"y": -2.9089190162,
				"z": -0.758859333,
				"element": "O" 
			},
			{
				"x": -2.1897081895,
				"y": -4.5685904412,
				"z": -0.9326722613,
				"element": "O" 
			},
			{
				"x": 3.4459720785,
				"y": 2.1544145831,
				"z": 0.5510375436,
				"element": "H" 
			},
			{
				"x": 4.9127797508,
				"y": 1.1408952509,
				"z": 0.521478496,
				"element": "H" 
			},
			{
				"x": 4.2295366709,
				"y": 1.7514450866,
				"z": -0.9899287173,
				"element": "H" 
			},
			{
				"x": 1.4885820772,
				"y": 1.2224889129,
				"z": -0.0322248812,
				"element": "H" 
			},
			{
				"x": 2.0575425596,
				"y": -2.4112517261,
				"z": -0.4964019994,
				"element": "H" 
			},
			{
				"x": 0.1371275395,
				"y": -3.9913490759,
				"z": -0.7752426828,
				"element": "H" 
			},
			{
				"x": -2.6283643105,
				"y": -0.7404036537,
				"z": -0.4340711296,
				"element": "H" 
			},
			{
				"x": -0.7345775636,
				"y": 0.8499757176,
				"z": -0.1552900307,
				"element": "H" 
			}
		],
		 "valence_orbital": [ 
			{
				"type": "occ",
				"energy": -0.30162,
				"method": "rhf"
			},
			{
				"type": "occ",
				"energy": -0.28407,
				"method": "rhf"
			},
			{
				"type": "occ",
				"energy": -0.27866,
				"method": "rhf"
			},
			{
				"type": "occ",
				"energy": -0.27403,
				"method": "rhf"
			},
			{
				"type": "occ",
				"energy": -0.24822,
				"method": "rhf"
			},
			{
				"type": "unocc",
				"energy": -0.08406,
				"method": "rhf"
			},
			{
				"type": "unocc",
				"energy": -0.02689,
				"method": "rhf"
			},
			{
				"type": "unocc",
				"energy": -0.01553,
				"method": "rhf"
			},
			{
				"type": "unocc",
				"energy": 0.03174,
				"method": "rhf"
			},
			{
				"type": "unocc",
				"energy": 0.04735,
				"method": "rhf"
			}
		],
		"cosmo_sigma_profile": { 
			"-0.025": 0.0,
			"-0.024": 0.0,
			"-0.023": 0.0,
			"-0.022": 0.0,
			"-0.021": 0.0,
			"-0.02": 0.0,
			"-0.019": 0.0,
			"-0.018": 0.0,
			"-0.017": 0.0654098101385,
			"-0.016": 0.861639113065,
			"-0.015": 1.75479461954,
			"-0.014": 1.45062725366,
			"-0.013": 1.41067938418,
			"-0.012": 1.5422538123,
			"-0.011": 1.71275797623,
			"-0.01": 1.95848992261,
			"-0.009": 1.40764281778,
			"-0.008": 3.72247517724,
			"-0.007": 6.50152725147,
			"-0.006": 10.8634931821,
			"-0.005": 13.3577159319,
			"-0.004": 12.3722537003,
			"-0.003": 12.5556230133,
			"-0.002": 16.2768543237,
			"-0.001": 15.6191492197,
			"0.0": 15.6379013203,
			"0.001": 18.7423718572,
			"0.002": 14.8522446536,
			"0.003": 6.08189574436,
			"0.004": 4.09434206188,
			"0.005": 4.53855332743,
			"0.006": 4.50411609053,
			"0.007": 6.43896980949,
			"0.008": 11.9532149735,
			"0.009": 6.22563207582,
			"0.01": 5.99711333826,
			"0.011": 2.98079284211,
			"0.012": 2.81074612344,
			"0.013": 2.08814982971,
			"0.014": 0.429348053103,
			"0.015": 0.0,
			"0.016": 0.0,
			"0.017": 0.0,
			"0.018": 0.0,
			"0.019": 0.0,
			"0.02": 0.0,
			"0.021": 0.0,
			"0.022": 0.0,
			"0.023": 0.0,
			"0.024": 0.0,
			"0.025": 0.0
		}
	}
}
