{
	 "smiles": "CCOC(=O)CC1=C(C=C(C(=C1)C(=NNC1=CC=CC=C1)C(=O)OCC)[N+]([O-])=O)[N+]([O-])=O", 
	 "Tm": 427.15, 
	 "num_atms": 52, 
	 "gaussian": { 
		 "optdone": 1, 
		 "sigma_profile": "yes", 
		 "theory": "DFT", 
		 "functional": "B3LYP", 
		 "basiset": "6-31G**", 
		 "properties": { 
			 "R2extent": 17154.1243, 
			 "electric_dipole_moment_norm": 6.54351956901, 
			 "electric_quadrupole_moment_norm": 18.2608327384, 
			 "total_energy": -1594.77243734, 
			 "HOMO_LUMO_gap": 0.11463, 
			 "cosmo_polarized_energy": -19.06, 
			 "cosmo_cavitation_energy": 58.84, 
			 "cosmo_dispersion_energy": -38.99, 
			 "cosmo_repulsion_energy": 2.97, 
			 "cosmo_total_nonelectrostatic_energy": 22.82, 
			 "SMD_solvation_energy": 15.6 
		},
		"coords": [
			{
				"x": -4.1746476387,
				"y": -4.3940590334,
				"z": -1.266176655,
				"element": "C" 
			},
			{
				"x": -3.5747164124,
				"y": -3.556758676,
				"z": -0.1536275721,
				"element": "C" 
			},
			{
				"x": -2.1336475155,
				"y": -3.7048513482,
				"z": -0.2266979069,
				"element": "O" 
			},
			{
				"x": -1.4216290591,
				"y": -3.0416451663,
				"z": 0.7000655432,
				"element": "C" 
			},
			{
				"x": -1.9242420706,
				"y": -2.3419910602,
				"z": 1.5583935005,
				"element": "O" 
			},
			{
				"x": 0.0625584413,
				"y": -3.3380831386,
				"z": 0.5471727462,
				"element": "C" 
			},
			{
				"x": 0.9656364281,
				"y": -2.1272913928,
				"z": 0.3535905884,
				"element": "C" 
			},
			{
				"x": 2.2674565006,
				"y": -2.2273469897,
				"z": -0.1839806208,
				"element": "C" 
			},
			{
				"x": 3.0578851458,
				"y": -1.1008064337,
				"z": -0.3982442822,
				"element": "C" 
			},
			{
				"x": 2.5834200472,
				"y": 0.1444417074,
				"z": -0.0256709404,
				"element": "C" 
			},
			{
				"x": 1.2909284531,
				"y": 0.3204931269,
				"z": 0.5021467489,
				"element": "C" 
			},
			{
				"x": 0.5185346268,
				"y": -0.8413434001,
				"z": 0.668903907,
				"element": "C" 
			},
			{
				"x": 0.7132050909,
				"y": 1.660942949,
				"z": 0.7462857235,
				"element": "C" 
			},
			{
				"x": 1.0432089078,
				"y": 2.5734274858,
				"z": -0.1426846495,
				"element": "N" 
			},
			{
				"x": 0.5956446926,
				"y": 3.7991075713,
				"z": -0.0943619919,
				"element": "N" 
			},
			{
				"x": 0.9856887048,
				"y": 4.7566358219,
				"z": -1.0476967429,
				"element": "C" 
			},
			{
				"x": 1.963251471,
				"y": 4.4848742436,
				"z": -2.0146251549,
				"element": "C" 
			},
			{
				"x": 2.304932711,
				"y": 5.4777052175,
				"z": -2.9289887996,
				"element": "C" 
			},
			{
				"x": 1.6912325253,
				"y": 6.7333408131,
				"z": -2.8897357813,
				"element": "C" 
			},
			{
				"x": 0.7232192051,
				"y": 6.9955904796,
				"z": -1.9186532487,
				"element": "C" 
			},
			{
				"x": 0.3665664107,
				"y": 6.012800403,
				"z": -0.9978340477,
				"element": "C" 
			},
			{
				"x": -0.1731740742,
				"y": 1.9560038543,
				"z": 1.8920154268,
				"element": "C" 
			},
			{
				"x": -0.7410486977,
				"y": 3.0386543607,
				"z": 2.0388616857,
				"element": "O" 
			},
			{
				"x": -0.2740932063,
				"y": 0.9472099004,
				"z": 2.7691799575,
				"element": "O" 
			},
			{
				"x": -1.1587075034,
				"y": 1.1314620327,
				"z": 3.9074710708,
				"element": "C" 
			},
			{
				"x": -2.5835565982,
				"y": 0.7324403524,
				"z": 3.556349103,
				"element": "C" 
			},
			{
				"x": 3.5376788577,
				"y": 1.2621941679,
				"z": -0.155798732,
				"element": "N" 
			},
			{
				"x": 4.1409530113,
				"y": 1.3562505766,
				"z": -1.223783623,
				"element": "O" 
			},
			{
				"x": 3.7017342547,
				"y": 1.9830642755,
				"z": 0.8219436328,
				"element": "O" 
			},
			{
				"x": 2.8884068705,
				"y": -3.5127725347,
				"z": -0.5346168873,
				"element": "N" 
			},
			{
				"x": 2.4456718776,
				"y": -4.5353122088,
				"z": -0.0055572715,
				"element": "O" 
			},
			{
				"x": 3.8330897158,
				"y": -3.4932722427,
				"z": -1.3219951934,
				"element": "O" 
			},
			{
				"x": -3.9099588534,
				"y": -5.4486129702,
				"z": -1.1489006915,
				"element": "H" 
			},
			{
				"x": -5.2653955359,
				"y": -4.3083321237,
				"z": -1.245153473,
				"element": "H" 
			},
			{
				"x": -3.8218221389,
				"y": -4.0562950578,
				"z": -2.2446297161,
				"element": "H" 
			},
			{
				"x": -3.8214347829,
				"y": -2.4953607941,
				"z": -0.2545732107,
				"element": "H" 
			},
			{
				"x": -3.9089243971,
				"y": -3.8810850539,
				"z": 0.8365956643,
				"element": "H" 
			},
			{
				"x": 0.1941183229,
				"y": -4.0467442362,
				"z": -0.2686122164,
				"element": "H" 
			},
			{
				"x": 0.3774826136,
				"y": -3.8671814112,
				"z": 1.4548396456,
				"element": "H" 
			},
			{
				"x": 4.043659362,
				"y": -1.2105064855,
				"z": -0.8301945014,
				"element": "H" 
			},
			{
				"x": -0.4800861414,
				"y": -0.7362536316,
				"z": 1.0653540379,
				"element": "H" 
			},
			{
				"x": -0.0558630866,
				"y": 4.041196897,
				"z": 0.6584801135,
				"element": "H" 
			},
			{
				"x": 2.4482690863,
				"y": 3.5163217955,
				"z": -2.0336228237,
				"element": "H" 
			},
			{
				"x": 3.064829519,
				"y": 5.2681252712,
				"z": -3.6759770853,
				"element": "H" 
			},
			{
				"x": 1.9683808438,
				"y": 7.5000913302,
				"z": -3.6064583846,
				"element": "H" 
			},
			{
				"x": 0.2405324333,
				"y": 7.9673887073,
				"z": -1.8754819371,
				"element": "H" 
			},
			{
				"x": -0.3894326443,
				"y": 6.2137076592,
				"z": -0.2431473048,
				"element": "H" 
			},
			{
				"x": -0.7360751133,
				"y": 0.4805022257,
				"z": 4.6753816863,
				"element": "H" 
			},
			{
				"x": -1.095985688,
				"y": 2.1714446239,
				"z": 4.2341040344,
				"element": "H" 
			},
			{
				"x": -2.6140221583,
				"y": -0.2880742916,
				"z": 3.1649892067,
				"element": "H" 
			},
			{
				"x": -3.2097947454,
				"y": 0.7829476781,
				"z": 4.4533822245,
				"element": "H" 
			},
			{
				"x": -3.0024180687,
				"y": 1.4140141537,
				"z": 2.8110751983,
				"element": "H" 
			}
		],
		 "valence_orbital": [ 
			{
				"type": "occ",
				"energy": -0.28153,
				"method": "rhf"
			},
			{
				"type": "occ",
				"energy": -0.27548,
				"method": "rhf"
			},
			{
				"type": "occ",
				"energy": -0.27307,
				"method": "rhf"
			},
			{
				"type": "occ",
				"energy": -0.2586,
				"method": "rhf"
			},
			{
				"type": "occ",
				"energy": -0.21584,
				"method": "rhf"
			},
			{
				"type": "unocc",
				"energy": -0.10121,
				"method": "rhf"
			},
			{
				"type": "unocc",
				"energy": -0.08154,
				"method": "rhf"
			},
			{
				"type": "unocc",
				"energy": -0.06957,
				"method": "rhf"
			},
			{
				"type": "unocc",
				"energy": -0.02924,
				"method": "rhf"
			},
			{
				"type": "unocc",
				"energy": -0.01685,
				"method": "rhf"
			}
		],
		"cosmo_sigma_profile": { 
			"-0.025": 0.0,
			"-0.024": 0.0,
			"-0.023": 0.0,
			"-0.022": 0.0,
			"-0.021": 0.0,
			"-0.02": 0.0,
			"-0.019": 0.0,
			"-0.018": 0.0,
			"-0.017": 0.0,
			"-0.016": 0.0,
			"-0.015": 0.0,
			"-0.014": 0.0,
			"-0.013": 0.0,
			"-0.012": 0.315125729854,
			"-0.011": 1.03184404292,
			"-0.01": 1.4715187579,
			"-0.009": 3.42941805484,
			"-0.008": 6.23236781242,
			"-0.007": 8.64352429097,
			"-0.006": 19.2086375408,
			"-0.005": 31.343952257,
			"-0.004": 43.922770972,
			"-0.003": 44.7008184695,
			"-0.002": 40.1378567014,
			"-0.001": 39.8291637581,
			"0.0": 38.1762118425,
			"0.001": 28.4829621245,
			"0.002": 24.546427693,
			"0.003": 22.9898046461,
			"0.004": 25.5073185488,
			"0.005": 21.6175916345,
			"0.006": 16.4462129042,
			"0.007": 20.8035650133,
			"0.008": 14.67918386,
			"0.009": 10.1493030542,
			"0.01": 5.08997730918,
			"0.011": 0.865668730922,
			"0.012": 0.0,
			"0.013": 0.0,
			"0.014": 0.0,
			"0.015": 0.0,
			"0.016": 0.0,
			"0.017": 0.0,
			"0.018": 0.0,
			"0.019": 0.0,
			"0.02": 0.0,
			"0.021": 0.0,
			"0.022": 0.0,
			"0.023": 0.0,
			"0.024": 0.0,
			"0.025": 0.0
		}
	}
}
