{
	 "smiles": "O=C1NC(=O)N2CCCCC12", 
	 "Tm": 388.15, 
	 "num_atms": 21, 
	 "gaussian": { 
		 "optdone": 1, 
		 "sigma_profile": "yes", 
		 "theory": "DFT", 
		 "functional": "B3LYP", 
		 "basiset": "6-31G**", 
		 "properties": { 
			 "R2extent": 2575.1357, 
			 "electric_dipole_moment_norm": 2.77626490631, 
			 "electric_quadrupole_moment_norm": 12.0798971337, 
			 "total_energy": -532.765337369, 
			 "HOMO_LUMO_gap": 0.23713, 
			 "cosmo_polarized_energy": -13.36, 
			 "cosmo_cavitation_energy": 23.08, 
			 "cosmo_dispersion_energy": -17.39, 
			 "cosmo_repulsion_energy": 1.4, 
			 "cosmo_total_nonelectrostatic_energy": 7.1, 
			 "SMD_solvation_energy": 3.73 
		},
		"coords": [
			{
				"x": 1.3008610659,
				"y": -2.6965956502,
				"z": -3.4407200025,
				"element": "O" 
			},
			{
				"x": 1.0930738603,
				"y": -1.7022064233,
				"z": -2.7775069356,
				"element": "C" 
			},
			{
				"x": 1.8849744338,
				"y": -1.1789247362,
				"z": -1.7777204349,
				"element": "N" 
			},
			{
				"x": 1.2921997633,
				"y": -0.0800839817,
				"z": -1.1165694015,
				"element": "C" 
			},
			{
				"x": 1.722357644,
				"y": 0.4602399082,
				"z": -0.1167033252,
				"element": "O" 
			},
			{
				"x": 0.1552455656,
				"y": 0.2266375472,
				"z": -1.8308992108,
				"element": "N" 
			},
			{
				"x": -0.9561603322,
				"y": 0.9442993576,
				"z": -1.2192029654,
				"element": "C" 
			},
			{
				"x": -2.0361985504,
				"y": -0.0305738483,
				"z": -0.6646326611,
				"element": "C" 
			},
			{
				"x": -1.862895969,
				"y": -1.4634605368,
				"z": -1.2141463468,
				"element": "C" 
			},
			{
				"x": -1.4745249917,
				"y": -1.4536399253,
				"z": -2.6984200244,
				"element": "C" 
			},
			{
				"x": -0.1098875292,
				"y": -0.7522207547,
				"z": -2.8855550925,
				"element": "C" 
			},
			{
				"x": 2.7449460966,
				"y": -1.597475234,
				"z": -1.4532470431,
				"element": "H" 
			},
			{
				"x": -1.3876617749,
				"y": 1.6104435236,
				"z": -1.9744623956,
				"element": "H" 
			},
			{
				"x": -0.532693827,
				"y": 1.569978197,
				"z": -0.4318922099,
				"element": "H" 
			},
			{
				"x": -1.9950878558,
				"y": -0.0539801851,
				"z": 0.4289381692,
				"element": "H" 
			},
			{
				"x": -3.028579119,
				"y": 0.3496730843,
				"z": -0.933414425,
				"element": "H" 
			},
			{
				"x": -2.7870521385,
				"y": -2.0317484377,
				"z": -1.0681133479,
				"element": "H" 
			},
			{
				"x": -1.0876521718,
				"y": -1.9888838032,
				"z": -0.642106257,
				"element": "H" 
			},
			{
				"x": -1.4037896684,
				"y": -2.4643807846,
				"z": -3.112577386,
				"element": "H" 
			},
			{
				"x": -2.2394476385,
				"y": -0.9230107076,
				"z": -3.2775124425,
				"element": "H" 
			},
			{
				"x": -0.0606268633,
				"y": -0.2819866091,
				"z": -3.8777362617,
				"element": "H" 
			}
		],
		 "valence_orbital": [ 
			{
				"type": "occ",
				"energy": -0.33464,
				"method": "rhf"
			},
			{
				"type": "occ",
				"energy": -0.29305,
				"method": "rhf"
			},
			{
				"type": "occ",
				"energy": -0.28586,
				"method": "rhf"
			},
			{
				"type": "occ",
				"energy": -0.26445,
				"method": "rhf"
			},
			{
				"type": "occ",
				"energy": -0.24738,
				"method": "rhf"
			},
			{
				"type": "unocc",
				"energy": -0.01025,
				"method": "rhf"
			},
			{
				"type": "unocc",
				"energy": 0.05544,
				"method": "rhf"
			},
			{
				"type": "unocc",
				"energy": 0.07079,
				"method": "rhf"
			},
			{
				"type": "unocc",
				"energy": 0.08841,
				"method": "rhf"
			},
			{
				"type": "unocc",
				"energy": 0.10122,
				"method": "rhf"
			}
		],
		"cosmo_sigma_profile": { 
			"-0.025": 0.0,
			"-0.024": 0.0,
			"-0.023": 0.0,
			"-0.022": 0.0,
			"-0.021": 0.0,
			"-0.02": 0.0,
			"-0.019": 0.0,
			"-0.018": 0.0,
			"-0.017": 0.260248110464,
			"-0.016": 1.39510871445,
			"-0.015": 0.876933852125,
			"-0.014": 1.12166936607,
			"-0.013": 0.701232751301,
			"-0.012": 0.549831398763,
			"-0.011": 1.20769952544,
			"-0.01": 0.77320173277,
			"-0.009": 0.69485280444,
			"-0.008": 1.00939957246,
			"-0.007": 4.34596917637,
			"-0.006": 5.51415553708,
			"-0.005": 11.3728754958,
			"-0.004": 17.9453908445,
			"-0.003": 23.6166277413,
			"-0.002": 24.5596500009,
			"-0.001": 18.3324268163,
			"0.0": 11.1251896155,
			"0.001": 4.61558146487,
			"0.002": 4.0903184513,
			"0.003": 4.03709361602,
			"0.004": 3.68474891468,
			"0.005": 3.3556672741,
			"0.006": 2.53972225813,
			"0.007": 1.91186216233,
			"0.008": 2.53858410495,
			"0.009": 3.117127892,
			"0.01": 3.06103060279,
			"0.011": 4.91084500856,
			"0.012": 9.10930150438,
			"0.013": 7.84781361108,
			"0.014": 0.497705730686,
			"0.015": 0.0,
			"0.016": 0.0,
			"0.017": 0.0,
			"0.018": 0.0,
			"0.019": 0.0,
			"0.02": 0.0,
			"0.021": 0.0,
			"0.022": 0.0,
			"0.023": 0.0,
			"0.024": 0.0,
			"0.025": 0.0
		}
	}
}
