{
	 "smiles": "CCCCCCCC1=CC=C(C=C1)C(O)=O", 
	 "Tm": 374.65, 
	 "num_atms": 36, 
	 "gaussian": { 
		 "optdone": 1, 
		 "sigma_profile": "yes", 
		 "theory": "DFT", 
		 "functional": "B3LYP", 
		 "basiset": "6-31G**", 
		 "properties": { 
			 "R2extent": 6734.1104, 
			 "electric_dipole_moment_norm": 5.27359585293, 
			 "electric_quadrupole_moment_norm": 40.2861639473, 
			 "total_energy": -696.027984076, 
			 "HOMO_LUMO_gap": 0.20789, 
			 "cosmo_polarized_energy": -13.57, 
			 "cosmo_cavitation_energy": 38.29, 
			 "cosmo_dispersion_energy": -25.94, 
			 "cosmo_repulsion_energy": 2.09, 
			 "cosmo_total_nonelectrostatic_energy": 14.44, 
			 "SMD_solvation_energy": 6.82 
		},
		"coords": [
			{
				"x": -0.3158401208,
				"y": -1.4039544165,
				"z": -3.630246483,
				"element": "C" 
			},
			{
				"x": -0.1143821549,
				"y": -0.0512510154,
				"z": -2.9389323247,
				"element": "C" 
			},
			{
				"x": -1.4285846898,
				"y": 0.5658365042,
				"z": -2.4402431982,
				"element": "C" 
			},
			{
				"x": -1.2900180625,
				"y": 1.9725203734,
				"z": -1.8311415782,
				"element": "C" 
			},
			{
				"x": -0.3997470373,
				"y": 2.0819354885,
				"z": -0.5802893394,
				"element": "C" 
			},
			{
				"x": -0.9123399101,
				"y": 1.2918066487,
				"z": 0.6307220988,
				"element": "C" 
			},
			{
				"x": -0.0505699623,
				"y": 1.4635822808,
				"z": 1.9023642945,
				"element": "C" 
			},
			{
				"x": 1.3449724572,
				"y": 0.8895392231,
				"z": 1.7803330108,
				"element": "C" 
			},
			{
				"x": 2.4660778986,
				"y": 1.7166831601,
				"z": 1.6158456813,
				"element": "C" 
			},
			{
				"x": 3.744491298,
				"y": 1.1813467336,
				"z": 1.4899809743,
				"element": "C" 
			},
			{
				"x": 3.9372804438,
				"y": -0.2057659258,
				"z": 1.5081544332,
				"element": "C" 
			},
			{
				"x": 2.8244995506,
				"y": -1.0410071531,
				"z": 1.6879786401,
				"element": "C" 
			},
			{
				"x": 1.5495131162,
				"y": -0.4979997407,
				"z": 1.8232981351,
				"element": "C" 
			},
			{
				"x": 5.3377981349,
				"y": -0.7186146333,
				"z": 1.3719681681,
				"element": "C" 
			},
			{
				"x": 5.4802592136,
				"y": -2.0206422437,
				"z": 0.9995832792,
				"element": "O" 
			},
			{
				"x": 6.3182495728,
				"y": -0.0401210876,
				"z": 1.5715226432,
				"element": "O" 
			},
			{
				"x": -0.7735087755,
				"y": -2.1323958926,
				"z": -2.9507150949,
				"element": "H" 
			},
			{
				"x": -0.9740367528,
				"y": -1.3097273385,
				"z": -4.5015392113,
				"element": "H" 
			},
			{
				"x": 0.6345533503,
				"y": -1.8238721265,
				"z": -3.9757730124,
				"element": "H" 
			},
			{
				"x": 0.3707337426,
				"y": 0.6472123119,
				"z": -3.634797617,
				"element": "H" 
			},
			{
				"x": 0.5823826731,
				"y": -0.1757397425,
				"z": -2.1002104894,
				"element": "H" 
			},
			{
				"x": -2.131627463,
				"y": 0.6246773719,
				"z": -3.2823394713,
				"element": "H" 
			},
			{
				"x": -1.8946378757,
				"y": -0.1148278511,
				"z": -1.7146434462,
				"element": "H" 
			},
			{
				"x": -0.8926961668,
				"y": 2.6493402207,
				"z": -2.5996453689,
				"element": "H" 
			},
			{
				"x": -2.292317849,
				"y": 2.349923526,
				"z": -1.5859506005,
				"element": "H" 
			},
			{
				"x": 0.6221337514,
				"y": 1.7643472574,
				"z": -0.8200336592,
				"element": "H" 
			},
			{
				"x": -0.3251322614,
				"y": 3.1421543568,
				"z": -0.3012621144,
				"element": "H" 
			},
			{
				"x": -1.9372446644,
				"y": 1.610529084,
				"z": 0.8634706959,
				"element": "H" 
			},
			{
				"x": -0.9717116057,
				"y": 0.2235801335,
				"z": 0.3874731111,
				"element": "H" 
			},
			{
				"x": 0.0146060976,
				"y": 2.5292174436,
				"z": 2.152770495,
				"element": "H" 
			},
			{
				"x": -0.5644182947,
				"y": 0.9768028234,
				"z": 2.7406125622,
				"element": "H" 
			},
			{
				"x": 2.332510305,
				"y": 2.7949787633,
				"z": 1.5931572649,
				"element": "H" 
			},
			{
				"x": 4.6128315722,
				"y": 1.8214746976,
				"z": 1.3760610113,
				"element": "H" 
			},
			{
				"x": 2.9444433179,
				"y": -2.1190881941,
				"z": 1.7708568382,
				"element": "H" 
			},
			{
				"x": 0.7010881328,
				"y": -1.1595751309,
				"z": 1.9791958665,
				"element": "H" 
			},
			{
				"x": 4.6276890181,
				"y": -2.3811059105,
				"z": 0.7198138055,
				"element": "H" 
			}
		],
		 "valence_orbital": [ 
			{
				"type": "occ",
				"energy": -0.31248,
				"method": "rhf"
			},
			{
				"type": "occ",
				"energy": -0.31171,
				"method": "rhf"
			},
			{
				"type": "occ",
				"energy": -0.27192,
				"method": "rhf"
			},
			{
				"type": "occ",
				"energy": -0.26793,
				"method": "rhf"
			},
			{
				"type": "occ",
				"energy": -0.25545,
				"method": "rhf"
			},
			{
				"type": "unocc",
				"energy": -0.04756,
				"method": "rhf"
			},
			{
				"type": "unocc",
				"energy": -0.02038,
				"method": "rhf"
			},
			{
				"type": "unocc",
				"energy": 0.04839,
				"method": "rhf"
			},
			{
				"type": "unocc",
				"energy": 0.06442,
				"method": "rhf"
			},
			{
				"type": "unocc",
				"energy": 0.07704,
				"method": "rhf"
			}
		],
		"cosmo_sigma_profile": { 
			"-0.025": 0.0,
			"-0.024": 0.0,
			"-0.023": 0.0,
			"-0.022": 0.0,
			"-0.021": 0.0,
			"-0.02": 0.0,
			"-0.019": 0.0901713413977,
			"-0.018": 0.687045102898,
			"-0.017": 1.07624096369,
			"-0.016": 0.851843828956,
			"-0.015": 0.768068096297,
			"-0.014": 0.807006930622,
			"-0.013": 0.659631887027,
			"-0.012": 1.57088239762,
			"-0.011": 1.42916965769,
			"-0.01": 0.761597208343,
			"-0.009": 1.30652863358,
			"-0.008": 2.10030383959,
			"-0.007": 1.62108986776,
			"-0.006": 5.92541772239,
			"-0.005": 8.66704564056,
			"-0.004": 12.8508840112,
			"-0.003": 16.1998998731,
			"-0.002": 33.2784862128,
			"-0.001": 47.6719180839,
			"0.0": 46.4180386596,
			"0.001": 40.0371615767,
			"0.002": 21.5438803976,
			"0.003": 12.0790710073,
			"0.004": 9.88730755501,
			"0.005": 2.90906447071,
			"0.006": 2.16684715714,
			"0.007": 2.03778807184,
			"0.008": 2.5502909194,
			"0.009": 3.65478470987,
			"0.01": 4.40149518208,
			"0.011": 5.07014761236,
			"0.012": 5.38829136298,
			"0.013": 2.17947597406,
			"0.014": 0.222352406823,
			"0.015": 0.0,
			"0.016": 0.0,
			"0.017": 0.0,
			"0.018": 0.0,
			"0.019": 0.0,
			"0.02": 0.0,
			"0.021": 0.0,
			"0.022": 0.0,
			"0.023": 0.0,
			"0.024": 0.0,
			"0.025": 0.0
		}
	}
}
