{
	 "smiles": "OC(=O)CSC1=NN=C(N1CC1CCCO1)C1=CC=C(F)C=C1", 
	 "Tm": 405.15, 
	 "num_atms": 39, 
	 "gaussian": { 
		 "optdone": 1, 
		 "sigma_profile": "yes", 
		 "theory": "DFT", 
		 "functional": "B3LYP", 
		 "basiset": "6-31G**", 
		 "properties": { 
			 "R2extent": 9439.5573, 
			 "electric_dipole_moment_norm": 4.25451107649, 
			 "electric_quadrupole_moment_norm": 21.032930302, 
			 "total_energy": -1469.16494584, 
			 "HOMO_LUMO_gap": 0.19097, 
			 "cosmo_polarized_energy": -23.04, 
			 "cosmo_cavitation_energy": 44.39, 
			 "cosmo_dispersion_energy": -30.19, 
			 "cosmo_repulsion_energy": 2.28, 
			 "cosmo_total_nonelectrostatic_energy": 16.48, 
			 "SMD_solvation_energy": 6.34 
		},
		"coords": [
			{
				"x": -3.3861127763,
				"y": -2.0819219411,
				"z": -2.9993386852,
				"element": "O" 
			},
			{
				"x": -3.3024962557,
				"y": -1.3416621532,
				"z": -4.1253240974,
				"element": "C" 
			},
			{
				"x": -3.733316984,
				"y": -1.709147764,
				"z": -5.1952867112,
				"element": "O" 
			},
			{
				"x": -2.6340877397,
				"y": -0.0032616349,
				"z": -3.8871628884,
				"element": "C" 
			},
			{
				"x": -0.8946349572,
				"y": -0.1331660272,
				"z": -3.2946819275,
				"element": "S" 
			},
			{
				"x": -1.1883644356,
				"y": -0.0865974697,
				"z": -1.548494872,
				"element": "C" 
			},
			{
				"x": -2.1432421641,
				"y": 0.591616511,
				"z": -0.9591767763,
				"element": "N" 
			},
			{
				"x": -2.0453906674,
				"y": 0.3447463176,
				"z": 0.3889362084,
				"element": "N" 
			},
			{
				"x": -1.0225978665,
				"y": -0.4648797713,
				"z": 0.5857631237,
				"element": "C" 
			},
			{
				"x": -0.4327502055,
				"y": -0.780202943,
				"z": -0.6288490669,
				"element": "N" 
			},
			{
				"x": 0.7982767895,
				"y": -1.5175534502,
				"z": -0.9106951293,
				"element": "C" 
			},
			{
				"x": 2.0914207472,
				"y": -0.7087478246,
				"z": -0.7340533358,
				"element": "C" 
			},
			{
				"x": 2.2027875892,
				"y": 0.6299611587,
				"z": -1.4767764445,
				"element": "C" 
			},
			{
				"x": 3.1872406898,
				"y": 1.3982849531,
				"z": -0.5826859675,
				"element": "C" 
			},
			{
				"x": 2.7694137092,
				"y": 0.9274547437,
				"z": 0.8156136198,
				"element": "C" 
			},
			{
				"x": 2.2598935262,
				"y": -0.4049226327,
				"z": 0.6516949712,
				"element": "O" 
			},
			{
				"x": -0.6312648939,
				"y": -0.9494857545,
				"z": 1.919601342,
				"element": "C" 
			},
			{
				"x": -0.3287754821,
				"y": -2.2946806806,
				"z": 2.1800460423,
				"element": "C" 
			},
			{
				"x": -0.0122600539,
				"y": -2.7194388003,
				"z": 3.468666383,
				"element": "C" 
			},
			{
				"x": -0.0159660995,
				"y": -1.7869252012,
				"z": 4.4995006439,
				"element": "C" 
			},
			{
				"x": 0.2913278408,
				"y": -2.1923099571,
				"z": 5.7484066971,
				"element": "F" 
			},
			{
				"x": -0.3378251045,
				"y": -0.4515681219,
				"z": 4.2823365652,
				"element": "C" 
			},
			{
				"x": -0.6466893398,
				"y": -0.0393517692,
				"z": 2.9890236757,
				"element": "C" 
			},
			{
				"x": -3.8320429947,
				"y": -2.9085779976,
				"z": -3.2491423204,
				"element": "H" 
			},
			{
				"x": -2.6043823872,
				"y": 0.5385628372,
				"z": -4.8317435283,
				"element": "H" 
			},
			{
				"x": -3.1749924776,
				"y": 0.5758209195,
				"z": -3.1341692784,
				"element": "H" 
			},
			{
				"x": 0.8467139602,
				"y": -2.3834752911,
				"z": -0.2505005767,
				"element": "H" 
			},
			{
				"x": 0.7302597193,
				"y": -1.885114124,
				"z": -1.9388195683,
				"element": "H" 
			},
			{
				"x": 2.9069747398,
				"y": -1.3780806317,
				"z": -1.0587416282,
				"element": "H" 
			},
			{
				"x": 1.2367966108,
				"y": 1.1448052447,
				"z": -1.4961879155,
				"element": "H" 
			},
			{
				"x": 2.545919747,
				"y": 0.5109940358,
				"z": -2.5078965989,
				"element": "H" 
			},
			{
				"x": 3.1228304294,
				"y": 2.4830170357,
				"z": -0.7018168531,
				"element": "H" 
			},
			{
				"x": 4.2175156138,
				"y": 1.0941832816,
				"z": -0.7984132836,
				"element": "H" 
			},
			{
				"x": 1.9788673239,
				"y": 1.5648631978,
				"z": 1.235186405,
				"element": "H" 
			},
			{
				"x": 3.6004345749,
				"y": 0.8996305893,
				"z": 1.5284381275,
				"element": "H" 
			},
			{
				"x": -0.3712374418,
				"y": -3.029100388,
				"z": 1.3823580757,
				"element": "H" 
			},
			{
				"x": 0.2208734248,
				"y": -3.7563478618,
				"z": 3.6841431884,
				"element": "H" 
			},
			{
				"x": -0.3421011083,
				"y": 0.2417702701,
				"z": 5.1162916974,
				"element": "H" 
			},
			{
				"x": -0.9118156006,
				"y": 0.993809095,
				"z": 2.7935506867,
				"element": "H" 
			}
		],
		 "valence_orbital": [ 
			{
				"type": "occ",
				"energy": -0.26549,
				"method": "rhf"
			},
			{
				"type": "occ",
				"energy": -0.26277,
				"method": "rhf"
			},
			{
				"type": "occ",
				"energy": -0.25566,
				"method": "rhf"
			},
			{
				"type": "occ",
				"energy": -0.24872,
				"method": "rhf"
			},
			{
				"type": "occ",
				"energy": -0.22125,
				"method": "rhf"
			},
			{
				"type": "unocc",
				"energy": -0.03028,
				"method": "rhf"
			},
			{
				"type": "unocc",
				"energy": -0.02114,
				"method": "rhf"
			},
			{
				"type": "unocc",
				"energy": -0.01526,
				"method": "rhf"
			},
			{
				"type": "unocc",
				"energy": 0.02362,
				"method": "rhf"
			},
			{
				"type": "unocc",
				"energy": 0.02938,
				"method": "rhf"
			}
		],
		"cosmo_sigma_profile": { 
			"-0.025": 0.0,
			"-0.024": 0.0,
			"-0.023": 0.0,
			"-0.022": 0.0,
			"-0.021": 0.0,
			"-0.02": 0.0,
			"-0.019": 0.359856399776,
			"-0.018": 1.04253725542,
			"-0.017": 1.00068745422,
			"-0.016": 0.680835801926,
			"-0.015": 0.846862097779,
			"-0.014": 0.432411897561,
			"-0.013": 0.456566304327,
			"-0.012": 0.896759897662,
			"-0.011": 1.14569425358,
			"-0.01": 0.876574211838,
			"-0.009": 3.32243387996,
			"-0.008": 7.56914932672,
			"-0.007": 13.1861071578,
			"-0.006": 17.5322978666,
			"-0.005": 21.5998862837,
			"-0.004": 29.6055466536,
			"-0.003": 31.3425605325,
			"-0.002": 26.7558972566,
			"-0.001": 23.3939761039,
			"0.0": 25.4141856806,
			"0.001": 20.1480814747,
			"0.002": 18.8467383344,
			"0.003": 19.2685129001,
			"0.004": 22.775343658,
			"0.005": 10.2952042777,
			"0.006": 9.11424944734,
			"0.007": 6.62436207775,
			"0.008": 5.68534010945,
			"0.009": 5.52925881918,
			"0.01": 5.70155272631,
			"0.011": 9.41629994432,
			"0.012": 4.62809029155,
			"0.013": 3.86164271526,
			"0.014": 2.82988870622,
			"0.015": 1.35720045279,
			"0.016": 0.786081728672,
			"0.017": 0.135775667316,
			"0.018": 0.0,
			"0.019": 0.0,
			"0.02": 0.0,
			"0.021": 0.0,
			"0.022": 0.0,
			"0.023": 0.0,
			"0.024": 0.0,
			"0.025": 0.0
		}
	}
}
