{
	 "smiles": "OC(=O)CSC1=NC2=C(SC(=C2)C2=CC=CC=C2)C(=O)N1CC1=CC=CC=C1", 
	 "Tm": 594.15, 
	 "num_atms": 44, 
	 "gaussian": { 
		 "optdone": 1, 
		 "sigma_profile": "yes", 
		 "theory": "DFT", 
		 "functional": "B3LYP", 
		 "basiset": "6-31G**", 
		 "properties": { 
			 "R2extent": 15345.823, 
			 "electric_dipole_moment_norm": 1.43298600831, 
			 "electric_quadrupole_moment_norm": 44.7846797001, 
			 "total_energy": -1941.45598083, 
			 "HOMO_LUMO_gap": 0.15807, 
			 "cosmo_polarized_energy": -20.99, 
			 "cosmo_cavitation_energy": 51.45, 
			 "cosmo_dispersion_energy": -36.39, 
			 "cosmo_repulsion_energy": 2.64, 
			 "cosmo_total_nonelectrostatic_energy": 17.71, 
			 "SMD_solvation_energy": 8.58 
		},
		"coords": [
			{
				"x": -2.690762973,
				"y": -0.936695011,
				"z": -2.8417765164,
				"element": "O" 
			},
			{
				"x": -3.4397387926,
				"y": 0.1162000144,
				"z": -2.4689797799,
				"element": "C" 
			},
			{
				"x": -4.4711707042,
				"y": -0.0178455776,
				"z": -1.8610840031,
				"element": "O" 
			},
			{
				"x": -2.9829807042,
				"y": 1.5105955051,
				"z": -2.9208539822,
				"element": "C" 
			},
			{
				"x": -1.2430473519,
				"y": 1.6928963709,
				"z": -3.4511263913,
				"element": "S" 
			},
			{
				"x": -0.437078276,
				"y": 1.6097910855,
				"z": -1.8458373404,
				"element": "C" 
			},
			{
				"x": -1.172068191,
				"y": 1.3144611849,
				"z": -0.8187474893,
				"element": "N" 
			},
			{
				"x": -0.5397846316,
				"y": 1.2542669048,
				"z": 0.3988018475,
				"element": "C" 
			},
			{
				"x": 0.8221044302,
				"y": 1.5011179916,
				"z": 0.5355049961,
				"element": "C" 
			},
			{
				"x": 1.3514831216,
				"y": 1.3475322288,
				"z": 2.1800430613,
				"element": "S" 
			},
			{
				"x": -0.2885795515,
				"y": 0.9621880767,
				"z": 2.6976178135,
				"element": "C" 
			},
			{
				"x": -1.1682961267,
				"y": 0.9475310316,
				"z": 1.6401898643,
				"element": "C" 
			},
			{
				"x": -0.5802468166,
				"y": 0.691701,
				"z": 4.1120785027,
				"element": "C" 
			},
			{
				"x": -1.6514296088,
				"y": -0.1513257688,
				"z": 4.461376341,
				"element": "C" 
			},
			{
				"x": -1.9473707159,
				"y": -0.4053703727,
				"z": 5.7981584828,
				"element": "C" 
			},
			{
				"x": -1.1758295956,
				"y": 0.1673716592,
				"z": 6.8120599871,
				"element": "C" 
			},
			{
				"x": -0.1055428173,
				"y": 0.9992696573,
				"z": 6.4779232793,
				"element": "C" 
			},
			{
				"x": 0.188934978,
				"y": 1.2620049758,
				"z": 5.1418128424,
				"element": "C" 
			},
			{
				"x": 1.656322074,
				"y": 1.8183533832,
				"z": -0.584462923,
				"element": "C" 
			},
			{
				"x": 2.8640732313,
				"y": 2.034055859,
				"z": -0.5709790015,
				"element": "O" 
			},
			{
				"x": 0.916373094,
				"y": 1.865111696,
				"z": -1.81638988,
				"element": "N" 
			},
			{
				"x": 1.6964031491,
				"y": 2.2253438471,
				"z": -3.026113461,
				"element": "C" 
			},
			{
				"x": 2.1667446827,
				"y": 1.037479482,
				"z": -3.8450026122,
				"element": "C" 
			},
			{
				"x": 1.7812418601,
				"y": 0.9025306406,
				"z": -5.1834823083,
				"element": "C" 
			},
			{
				"x": 2.2389101633,
				"y": -0.1708200732,
				"z": -5.9513237297,
				"element": "C" 
			},
			{
				"x": 3.0848284958,
				"y": -1.1232793762,
				"z": -5.3837449947,
				"element": "C" 
			},
			{
				"x": 3.4795305747,
				"y": -0.9918658427,
				"z": -4.049437775,
				"element": "C" 
			},
			{
				"x": 3.029812675,
				"y": 0.0835724717,
				"z": -3.2848977112,
				"element": "C" 
			},
			{
				"x": -1.8850198288,
				"y": -0.6248507018,
				"z": -3.2898458459,
				"element": "H" 
			},
			{
				"x": -3.5657987999,
				"y": 1.791141056,
				"z": -3.8049040177,
				"element": "H" 
			},
			{
				"x": -3.202795624,
				"y": 2.2120527695,
				"z": -2.1178120259,
				"element": "H" 
			},
			{
				"x": -2.2297504032,
				"y": 0.7543385904,
				"z": 1.7306368885,
				"element": "H" 
			},
			{
				"x": -2.2372615679,
				"y": -0.6245688967,
				"z": 3.6797837331,
				"element": "H" 
			},
			{
				"x": -2.7761766823,
				"y": -1.0611240026,
				"z": 6.0482525597,
				"element": "H" 
			},
			{
				"x": -1.405655139,
				"y": -0.0352901956,
				"z": 7.8538497033,
				"element": "H" 
			},
			{
				"x": 0.4977307067,
				"y": 1.4523503481,
				"z": 7.2590501152,
				"element": "H" 
			},
			{
				"x": 1.0078697565,
				"y": 1.9313969449,
				"z": 4.894612751,
				"element": "H" 
			},
			{
				"x": 1.0882258527,
				"y": 2.8995769308,
				"z": -3.6339662704,
				"element": "H" 
			},
			{
				"x": 2.553948103,
				"y": 2.7827385578,
				"z": -2.6451383009,
				"element": "H" 
			},
			{
				"x": 1.122058752,
				"y": 1.6422018527,
				"z": -5.6307014193,
				"element": "H" 
			},
			{
				"x": 1.9315677758,
				"y": -0.2617168837,
				"z": -6.9891863936,
				"element": "H" 
			},
			{
				"x": 3.4395331335,
				"y": -1.960838785,
				"z": -5.9774266994,
				"element": "H" 
			},
			{
				"x": 4.1470426885,
				"y": -1.7247618934,
				"z": -3.605361855,
				"element": "H" 
			},
			{
				"x": 3.3565456036,
				"y": 0.1994812648,
				"z": -2.2561700413,
				"element": "H" 
			}
		],
		 "valence_orbital": [ 
			{
				"type": "occ",
				"energy": -0.26272,
				"method": "rhf"
			},
			{
				"type": "occ",
				"energy": -0.25708,
				"method": "rhf"
			},
			{
				"type": "occ",
				"energy": -0.25393,
				"method": "rhf"
			},
			{
				"type": "occ",
				"energy": -0.24102,
				"method": "rhf"
			},
			{
				"type": "occ",
				"energy": -0.22604,
				"method": "rhf"
			},
			{
				"type": "unocc",
				"energy": -0.06797,
				"method": "rhf"
			},
			{
				"type": "unocc",
				"energy": -0.0308,
				"method": "rhf"
			},
			{
				"type": "unocc",
				"energy": -0.01942,
				"method": "rhf"
			},
			{
				"type": "unocc",
				"energy": -0.01459,
				"method": "rhf"
			},
			{
				"type": "unocc",
				"energy": -0.00995,
				"method": "rhf"
			}
		],
		"cosmo_sigma_profile": { 
			"-0.025": 0.0,
			"-0.024": 0.0,
			"-0.023": 0.0,
			"-0.022": 0.0,
			"-0.021": 0.0,
			"-0.02": 0.0,
			"-0.019": 0.0,
			"-0.018": 0.0,
			"-0.017": 0.0,
			"-0.016": 0.0,
			"-0.015": 0.129061800794,
			"-0.014": 0.798040156802,
			"-0.013": 0.548428906111,
			"-0.012": 0.888763838687,
			"-0.011": 2.74778868097,
			"-0.01": 4.84461800822,
			"-0.009": 3.24000398077,
			"-0.008": 5.64125357873,
			"-0.007": 10.2622397212,
			"-0.006": 22.9844144379,
			"-0.005": 30.124284201,
			"-0.004": 35.68154631,
			"-0.003": 28.9194153257,
			"-0.002": 24.5790027279,
			"-0.001": 22.9825542971,
			"0.0": 30.0203049071,
			"0.001": 34.2884837604,
			"0.002": 33.5637441296,
			"0.003": 28.3192280911,
			"0.004": 28.2162039672,
			"0.005": 21.6854820379,
			"0.006": 8.36420058478,
			"0.007": 3.53930268317,
			"0.008": 5.78692582282,
			"0.009": 5.01300337653,
			"0.01": 6.27634404707,
			"0.011": 6.67927530288,
			"0.012": 8.61953914791,
			"0.013": 2.3614316057,
			"0.014": 0.0,
			"0.015": 0.0,
			"0.016": 0.0,
			"0.017": 0.0,
			"0.018": 0.0,
			"0.019": 0.0,
			"0.02": 0.0,
			"0.021": 0.0,
			"0.022": 0.0,
			"0.023": 0.0,
			"0.024": 0.0,
			"0.025": 0.0
		}
	}
}
