{
	 "smiles": "CC1=NOC2=C1C=C(C=N2)C(O)=O", 
	 "Tm": 503.15, 
	 "num_atms": 19, 
	 "gaussian": { 
		 "optdone": 1, 
		 "sigma_profile": "yes", 
		 "theory": "DFT", 
		 "functional": "B3LYP", 
		 "basiset": "6-31G**", 
		 "properties": { 
			 "R2extent": 2665.3936, 
			 "electric_dipole_moment_norm": 1.37050985403, 
			 "electric_quadrupole_moment_norm": 23.994804735, 
			 "total_energy": -643.604388052, 
			 "HOMO_LUMO_gap": 0.19988, 
			 "cosmo_polarized_energy": -18.54, 
			 "cosmo_cavitation_energy": 24.57, 
			 "cosmo_dispersion_energy": -18.27, 
			 "cosmo_repulsion_energy": 1.42, 
			 "cosmo_total_nonelectrostatic_energy": 7.72, 
			 "SMD_solvation_energy": 3.77 
		},
		"coords": [
			{
				"x": -1.9892831012,
				"y": -1.7441731852,
				"z": 1.7549278783,
				"element": "C" 
			},
			{
				"x": -1.1729183637,
				"y": -0.5027350611,
				"z": 1.5932095568,
				"element": "C" 
			},
			{
				"x": -1.3642149169,
				"y": 0.5250520177,
				"z": 2.3798175719,
				"element": "N" 
			},
			{
				"x": -0.4591393319,
				"y": 1.5451290256,
				"z": 1.9956795001,
				"element": "O" 
			},
			{
				"x": 0.2692078263,
				"y": 1.0857489586,
				"z": 0.9603693587,
				"element": "C" 
			},
			{
				"x": -0.1274234094,
				"y": -0.2244655204,
				"z": 0.641838007,
				"element": "C" 
			},
			{
				"x": 0.5236119061,
				"y": -0.8635861591,
				"z": -0.4083557811,
				"element": "C" 
			},
			{
				"x": 1.5389780211,
				"y": -0.1474456697,
				"z": -1.0532276628,
				"element": "C" 
			},
			{
				"x": 1.8184114112,
				"y": 1.1745972824,
				"z": -0.6370861626,
				"element": "C" 
			},
			{
				"x": 1.2030309211,
				"y": 1.8114129357,
				"z": 0.3622580953,
				"element": "N" 
			},
			{
				"x": 2.243865471,
				"y": -0.8188888375,
				"z": -2.1926778956,
				"element": "C" 
			},
			{
				"x": 3.4324534274,
				"y": -0.2942448804,
				"z": -2.5858182413,
				"element": "O" 
			},
			{
				"x": 1.7945171019,
				"y": -1.7896487044,
				"z": -2.7548015409,
				"element": "O" 
			},
			{
				"x": -2.6960598841,
				"y": -1.6209924171,
				"z": 2.5773733931,
				"element": "H" 
			},
			{
				"x": -2.5476449833,
				"y": -1.9628060101,
				"z": 0.8386889964,
				"element": "H" 
			},
			{
				"x": -1.3474370855,
				"y": -2.6058118803,
				"z": 1.9664207092,
				"element": "H" 
			},
			{
				"x": 0.2849936051,
				"y": -1.8678256584,
				"z": -0.7424596448,
				"element": "H" 
			},
			{
				"x": 2.5640371043,
				"y": 1.7695663289,
				"z": -1.1638736192,
				"element": "H" 
			},
			{
				"x": 3.7480142804,
				"y": 0.3657174348,
				"z": -1.9533825183,
				"element": "H" 
			}
		],
		 "valence_orbital": [ 
			{
				"type": "occ",
				"energy": -0.32903,
				"method": "rhf"
			},
			{
				"type": "occ",
				"energy": -0.30419,
				"method": "rhf"
			},
			{
				"type": "occ",
				"energy": -0.28983,
				"method": "rhf"
			},
			{
				"type": "occ",
				"energy": -0.28742,
				"method": "rhf"
			},
			{
				"type": "occ",
				"energy": -0.28078,
				"method": "rhf"
			},
			{
				"type": "unocc",
				"energy": -0.0809,
				"method": "rhf"
			},
			{
				"type": "unocc",
				"energy": -0.06133,
				"method": "rhf"
			},
			{
				"type": "unocc",
				"energy": 0.00437,
				"method": "rhf"
			},
			{
				"type": "unocc",
				"energy": 0.04278,
				"method": "rhf"
			},
			{
				"type": "unocc",
				"energy": 0.04879,
				"method": "rhf"
			}
		],
		"cosmo_sigma_profile": { 
			"-0.025": 0.0,
			"-0.024": 0.0,
			"-0.023": 0.0,
			"-0.022": 0.0,
			"-0.021": 0.0,
			"-0.02": 0.577828101723,
			"-0.019": 1.00948128557,
			"-0.018": 0.906417855021,
			"-0.017": 1.13652442838,
			"-0.016": 0.88662228826,
			"-0.015": 1.06179385407,
			"-0.014": 1.31507494084,
			"-0.013": 0.979633727932,
			"-0.012": 1.11742817338,
			"-0.011": 1.69080464663,
			"-0.01": 1.45355367357,
			"-0.009": 2.05406466862,
			"-0.008": 2.84473794832,
			"-0.007": 6.62786229308,
			"-0.006": 11.9330736046,
			"-0.005": 10.2961698315,
			"-0.004": 16.2601430237,
			"-0.003": 17.8852616286,
			"-0.002": 19.9532964841,
			"-0.001": 12.0646027869,
			"0.0": 6.65193197323,
			"0.001": 5.56084020895,
			"0.002": 5.26351189809,
			"0.003": 4.52666029309,
			"0.004": 5.92498709288,
			"0.005": 7.04594085978,
			"0.006": 6.39030302203,
			"0.007": 9.20949255119,
			"0.008": 6.30178877269,
			"0.009": 6.57053614406,
			"0.01": 7.29848944122,
			"0.011": 7.62487153611,
			"0.012": 4.89496983653,
			"0.013": 2.37345221978,
			"0.014": 0.236295938673,
			"0.015": 0.0,
			"0.016": 0.0,
			"0.017": 0.0,
			"0.018": 0.0,
			"0.019": 0.0,
			"0.02": 0.0,
			"0.021": 0.0,
			"0.022": 0.0,
			"0.023": 0.0,
			"0.024": 0.0,
			"0.025": 0.0
		}
	}
}
