{
	 "smiles": "NNC1=CC(=NC2=NC=NN12)C(F)(F)F", 
	 "Tm": 504.15, 
	 "num_atms": 20, 
	 "gaussian": { 
		 "optdone": 1, 
		 "sigma_profile": "yes", 
		 "theory": "DFT", 
		 "functional": "B3LYP", 
		 "basiset": "6-31G**", 
		 "properties": { 
			 "R2extent": 3263.0282, 
			 "electric_dipole_moment_norm": 5.72392076552, 
			 "electric_quadrupole_moment_norm": 7.93127625985, 
			 "total_energy": -859.632776632, 
			 "HOMO_LUMO_gap": 0.18323, 
			 "cosmo_polarized_energy": -19.38, 
			 "cosmo_cavitation_energy": 26.71, 
			 "cosmo_dispersion_energy": -19.47, 
			 "cosmo_repulsion_energy": 1.45, 
			 "cosmo_total_nonelectrostatic_energy": 8.69, 
			 "SMD_solvation_energy": 2.41 
		},
		"coords": [
			{
				"x": 1.5685180025,
				"y": -2.0639726567,
				"z": -2.7027061926,
				"element": "N" 
			},
			{
				"x": 0.9247892978,
				"y": -0.8569469075,
				"z": -2.4295066155,
				"element": "N" 
			},
			{
				"x": 0.2831058273,
				"y": -0.5782328489,
				"z": -1.2735237006,
				"element": "C" 
			},
			{
				"x": 0.1347426914,
				"y": -1.4020209732,
				"z": -0.160128864,
				"element": "C" 
			},
			{
				"x": -0.5802598458,
				"y": -0.8989978463,
				"z": 0.9435835731,
				"element": "C" 
			},
			{
				"x": -1.1382376462,
				"y": 0.2978889071,
				"z": 1.0372449521,
				"element": "N" 
			},
			{
				"x": -0.9916101695,
				"y": 1.0853692942,
				"z": -0.0380680274,
				"element": "C" 
			},
			{
				"x": -1.4233898827,
				"y": 2.3268946151,
				"z": -0.2658421141,
				"element": "N" 
			},
			{
				"x": -0.9731440843,
				"y": 2.5880173782,
				"z": -1.5113505755,
				"element": "C" 
			},
			{
				"x": -0.2802713072,
				"y": 1.6234381851,
				"z": -2.1252071801,
				"element": "N" 
			},
			{
				"x": -0.2933131758,
				"y": 0.6541255342,
				"z": -1.1719849362,
				"element": "N" 
			},
			{
				"x": -0.7576282214,
				"y": -1.7741034288,
				"z": 2.175756134,
				"element": "C" 
			},
			{
				"x": -0.2089856826,
				"y": -1.2013856641,
				"z": 3.2599293238,
				"element": "F" 
			},
			{
				"x": -0.1679655346,
				"y": -2.9827968923,
				"z": 2.0097417229,
				"element": "F" 
			},
			{
				"x": -2.0576262144,
				"y": -1.9901440713,
				"z": 2.4342158903,
				"element": "F" 
			},
			{
				"x": 0.9051659301,
				"y": -2.8351014033,
				"z": -2.6641553351,
				"element": "H" 
			},
			{
				"x": 2.312334124,
				"y": -2.2289287127,
				"z": -2.0276493475,
				"element": "H" 
			},
			{
				"x": 0.9435650338,
				"y": -0.144544369,
				"z": -3.1472128485,
				"element": "H" 
			},
			{
				"x": 0.5562306292,
				"y": -2.3955796738,
				"z": -0.146938293,
				"element": "H" 
			},
			{
				"x": -1.1535197716,
				"y": 3.5308215342,
				"z": -2.0107975658,
				"element": "H" 
			}
		],
		 "valence_orbital": [ 
			{
				"type": "occ",
				"energy": -0.3095,
				"method": "rhf"
			},
			{
				"type": "occ",
				"energy": -0.29071,
				"method": "rhf"
			},
			{
				"type": "occ",
				"energy": -0.28927,
				"method": "rhf"
			},
			{
				"type": "occ",
				"energy": -0.28417,
				"method": "rhf"
			},
			{
				"type": "occ",
				"energy": -0.24361,
				"method": "rhf"
			},
			{
				"type": "unocc",
				"energy": -0.06038,
				"method": "rhf"
			},
			{
				"type": "unocc",
				"energy": -0.02795,
				"method": "rhf"
			},
			{
				"type": "unocc",
				"energy": 0.04195,
				"method": "rhf"
			},
			{
				"type": "unocc",
				"energy": 0.04365,
				"method": "rhf"
			},
			{
				"type": "unocc",
				"energy": 0.0837,
				"method": "rhf"
			}
		],
		"cosmo_sigma_profile": { 
			"-0.025": 0.0,
			"-0.024": 0.0,
			"-0.023": 0.0,
			"-0.022": 0.0,
			"-0.021": 0.0,
			"-0.02": 0.0,
			"-0.019": 0.0,
			"-0.018": 0.0,
			"-0.017": 0.0,
			"-0.016": 0.0,
			"-0.015": 0.0375601330908,
			"-0.014": 0.773672695901,
			"-0.013": 2.81596528496,
			"-0.012": 6.15619021236,
			"-0.011": 5.18478040717,
			"-0.01": 5.31003034349,
			"-0.009": 4.93533224891,
			"-0.008": 3.7524904724,
			"-0.007": 4.19935683457,
			"-0.006": 5.57641821652,
			"-0.005": 8.53325973261,
			"-0.004": 10.1135479902,
			"-0.003": 13.9409086657,
			"-0.002": 13.330314595,
			"-0.001": 11.5659965324,
			"0.0": 11.9105209882,
			"0.001": 11.7536250636,
			"0.002": 28.2458591955,
			"0.003": 19.0810800245,
			"0.004": 6.94808443526,
			"0.005": 4.6187848887,
			"0.006": 5.23826426461,
			"0.007": 3.91746988452,
			"0.008": 5.0365283584,
			"0.009": 3.93835614044,
			"0.01": 4.26849851499,
			"0.011": 3.40802671501,
			"0.012": 2.65238397143,
			"0.013": 3.22808567402,
			"0.014": 2.12902697379,
			"0.015": 1.46779717677,
			"0.016": 0.80440289326,
			"0.017": 0.0495009717081,
			"0.018": 0.0,
			"0.019": 0.0,
			"0.02": 0.0,
			"0.021": 0.0,
			"0.022": 0.0,
			"0.023": 0.0,
			"0.024": 0.0,
			"0.025": 0.0
		}
	}
}
