{
	 "smiles": "ClC1=C(C2=NON=C2C=C1)S(Cl)(=O)=O", 
	 "Tm": 347.15, 
	 "num_atms": 16, 
	 "gaussian": { 
		 "optdone": 1, 
		 "sigma_profile": "yes", 
		 "theory": "DFT", 
		 "functional": "B3LYP", 
		 "basiset": "6-31G**", 
		 "properties": { 
			 "R2extent": 3624.1099, 
			 "electric_dipole_moment_norm": 5.94188581933, 
			 "electric_quadrupole_moment_norm": 8.71993123826, 
			 "total_energy": -1883.39485031, 
			 "HOMO_LUMO_gap": 0.1557, 
			 "cosmo_polarized_energy": -13.42, 
			 "cosmo_cavitation_energy": 26.48, 
			 "cosmo_dispersion_energy": -20.32, 
			 "cosmo_repulsion_energy": 1.53, 
			 "cosmo_total_nonelectrostatic_energy": 7.69, 
			 "SMD_solvation_energy": 2.59 
		},
		"coords": [
			{
				"x": -0.2570158181,
				"y": -3.5282579647,
				"z": -0.2138440429,
				"element": "Cl" 
			},
			{
				"x": -0.0865559833,
				"y": -1.866813601,
				"z": -0.680246041,
				"element": "C" 
			},
			{
				"x": -0.1112020646,
				"y": -0.8264477326,
				"z": 0.2282902292,
				"element": "C" 
			},
			{
				"x": 0.0926907124,
				"y": 0.4966171723,
				"z": -0.2929402201,
				"element": "C" 
			},
			{
				"x": 0.1406376633,
				"y": 1.6798861837,
				"z": 0.2997884849,
				"element": "N" 
			},
			{
				"x": 0.3582204474,
				"y": 2.5643409194,
				"z": -0.7198080805,
				"element": "O" 
			},
			{
				"x": 0.4478614468,
				"y": 1.9784910313,
				"z": -1.9425774938,
				"element": "N" 
			},
			{
				"x": 0.2870372136,
				"y": 0.6893770378,
				"z": -1.7040316126,
				"element": "C" 
			},
			{
				"x": 0.2906608015,
				"y": -0.4031899054,
				"z": -2.6143375037,
				"element": "C" 
			},
			{
				"x": 0.1068964079,
				"y": -1.6493718843,
				"z": -2.091954413,
				"element": "C" 
			},
			{
				"x": -0.3981338882,
				"y": -1.0482998928,
				"z": 1.9957520027,
				"element": "S" 
			},
			{
				"x": 1.4527131535,
				"y": -1.904297318,
				"z": 2.5911101012,
				"element": "Cl" 
			},
			{
				"x": -1.4238925112,
				"y": -2.0573346207,
				"z": 2.2035540357,
				"element": "O" 
			},
			{
				"x": -0.465151318,
				"y": 0.262922704,
				"z": 2.6137047201,
				"element": "O" 
			},
			{
				"x": 0.4376302825,
				"y": -0.2402551775,
				"z": -3.6756745625,
				"element": "H" 
			},
			{
				"x": 0.1039034544,
				"y": -2.5239669515,
				"z": -2.7316856036,
				"element": "H" 
			}
		],
		 "valence_orbital": [ 
			{
				"type": "occ",
				"energy": -0.33792,
				"method": "rhf"
			},
			{
				"type": "occ",
				"energy": -0.33486,
				"method": "rhf"
			},
			{
				"type": "occ",
				"energy": -0.32439,
				"method": "rhf"
			},
			{
				"type": "occ",
				"energy": -0.31526,
				"method": "rhf"
			},
			{
				"type": "occ",
				"energy": -0.2893,
				"method": "rhf"
			},
			{
				"type": "unocc",
				"energy": -0.1336,
				"method": "rhf"
			},
			{
				"type": "unocc",
				"energy": -0.09223,
				"method": "rhf"
			},
			{
				"type": "unocc",
				"energy": -0.04577,
				"method": "rhf"
			},
			{
				"type": "unocc",
				"energy": -0.0363,
				"method": "rhf"
			},
			{
				"type": "unocc",
				"energy": -0.0146,
				"method": "rhf"
			}
		],
		"cosmo_sigma_profile": { 
			"-0.025": 0.0,
			"-0.024": 0.0,
			"-0.023": 0.0,
			"-0.022": 0.0,
			"-0.021": 0.0,
			"-0.02": 0.0,
			"-0.019": 0.0,
			"-0.018": 0.0,
			"-0.017": 0.0,
			"-0.016": 0.0,
			"-0.015": 0.0,
			"-0.014": 0.0,
			"-0.013": 0.0,
			"-0.012": 0.0,
			"-0.011": 1.46615502424,
			"-0.01": 4.21428434415,
			"-0.009": 5.49936289552,
			"-0.008": 3.34125160198,
			"-0.007": 7.17631082182,
			"-0.006": 10.9123621545,
			"-0.005": 11.8794681143,
			"-0.004": 16.6205917552,
			"-0.003": 14.2062538936,
			"-0.002": 13.4959905915,
			"-0.001": 12.1210357903,
			"0.0": 13.1053696974,
			"0.001": 16.6861636149,
			"0.002": 19.5206146947,
			"0.003": 17.3530134411,
			"0.004": 9.30607965267,
			"0.005": 7.22429828256,
			"0.006": 6.58229870323,
			"0.007": 11.0866508635,
			"0.008": 9.91813228484,
			"0.009": 3.41332409306,
			"0.01": 2.62569240194,
			"0.011": 1.47135949509,
			"0.012": 0.605869243977,
			"0.013": 0.0,
			"0.014": 0.0,
			"0.015": 0.0,
			"0.016": 0.0,
			"0.017": 0.0,
			"0.018": 0.0,
			"0.019": 0.0,
			"0.02": 0.0,
			"0.021": 0.0,
			"0.022": 0.0,
			"0.023": 0.0,
			"0.024": 0.0,
			"0.025": 0.0
		}
	}
}
