{
	 "smiles": "OCC1=CC=CC=C1Cl", 
	 "Tm": 344.65, 
	 "num_atms": 16, 
	 "gaussian": { 
		 "optdone": 1, 
		 "sigma_profile": "yes", 
		 "theory": "DFT", 
		 "functional": "B3LYP", 
		 "basiset": "6-31G**", 
		 "properties": { 
			 "R2extent": 1539.184, 
			 "electric_dipole_moment_norm": 0.915551751678, 
			 "electric_quadrupole_moment_norm": 10.9626592791, 
			 "total_energy": -806.368965531, 
			 "HOMO_LUMO_gap": 0.23225, 
			 "cosmo_polarized_energy": -7.17, 
			 "cosmo_cavitation_energy": 21.21, 
			 "cosmo_dispersion_energy": -16.16, 
			 "cosmo_repulsion_energy": 1.33, 
			 "cosmo_total_nonelectrostatic_energy": 6.38, 
			 "SMD_solvation_energy": 3.48 
		},
		"coords": [
			{
				"x": -1.8286616152,
				"y": -1.471714092,
				"z": -1.9037892713,
				"element": "O" 
			},
			{
				"x": -1.9319041502,
				"y": -0.6438742099,
				"z": -0.7569821682,
				"element": "C" 
			},
			{
				"x": -0.6029237847,
				"y": 0.0295805396,
				"z": -0.5015643932,
				"element": "C" 
			},
			{
				"x": 0.4980007603,
				"y": -0.200534795,
				"z": -1.3345007944,
				"element": "C" 
			},
			{
				"x": 1.7240358241,
				"y": 0.4214288302,
				"z": -1.098005276,
				"element": "C" 
			},
			{
				"x": 1.8719370281,
				"y": 1.2903540174,
				"z": -0.0172016636,
				"element": "C" 
			},
			{
				"x": 0.7899203952,
				"y": 1.536844447,
				"z": 0.8283388824,
				"element": "C" 
			},
			{
				"x": -0.4264398347,
				"y": 0.9065951587,
				"z": 0.5762369886,
				"element": "C" 
			},
			{
				"x": -1.7813308873,
				"y": 1.2361451554,
				"z": 1.6627712479,
				"element": "Cl" 
			},
			{
				"x": -2.6862966569,
				"y": -1.8887259075,
				"z": -2.0454358306,
				"element": "H" 
			},
			{
				"x": -2.7066432827,
				"y": 0.1288273422,
				"z": -0.8864089795,
				"element": "H" 
			},
			{
				"x": -2.2169760826,
				"y": -1.2247774885,
				"z": 0.1348283024,
				"element": "H" 
			},
			{
				"x": 0.3700188749,
				"y": -0.8776346047,
				"z": -2.1707088112,
				"element": "H" 
			},
			{
				"x": 2.5629382329,
				"y": 0.2260097426,
				"z": -1.759316347,
				"element": "H" 
			},
			{
				"x": 2.8231418015,
				"y": 1.7782626532,
				"z": 0.1733832444,
				"element": "H" 
			},
			{
				"x": 0.8811833775,
				"y": 2.2085132113,
				"z": 1.6748548692,
				"element": "H" 
			}
		],
		 "valence_orbital": [ 
			{
				"type": "occ",
				"energy": -0.32995,
				"method": "rhf"
			},
			{
				"type": "occ",
				"energy": -0.31003,
				"method": "rhf"
			},
			{
				"type": "occ",
				"energy": -0.2821,
				"method": "rhf"
			},
			{
				"type": "occ",
				"energy": -0.25083,
				"method": "rhf"
			},
			{
				"type": "occ",
				"energy": -0.24019,
				"method": "rhf"
			},
			{
				"type": "unocc",
				"energy": -0.00794,
				"method": "rhf"
			},
			{
				"type": "unocc",
				"energy": -0.00483,
				"method": "rhf"
			},
			{
				"type": "unocc",
				"energy": 0.03189,
				"method": "rhf"
			},
			{
				"type": "unocc",
				"energy": 0.06886,
				"method": "rhf"
			},
			{
				"type": "unocc",
				"energy": 0.11396,
				"method": "rhf"
			}
		],
		"cosmo_sigma_profile": { 
			"-0.025": 0.0,
			"-0.024": 0.0,
			"-0.023": 0.0,
			"-0.022": 0.0,
			"-0.021": 0.0,
			"-0.02": 0.0,
			"-0.019": 0.0,
			"-0.018": 0.0,
			"-0.017": 0.124792215023,
			"-0.016": 0.878707798336,
			"-0.015": 1.26308278321,
			"-0.014": 0.934133083753,
			"-0.013": 1.17541703426,
			"-0.012": 0.681464714712,
			"-0.011": 0.595955952504,
			"-0.01": 0.987521621649,
			"-0.009": 0.691006142229,
			"-0.008": 1.38988595203,
			"-0.007": 2.61401744056,
			"-0.006": 7.0133021336,
			"-0.005": 10.1009859595,
			"-0.004": 13.6339910387,
			"-0.003": 10.5403742738,
			"-0.002": 10.1856970521,
			"-0.001": 10.1449780446,
			"0.0": 10.3895542653,
			"0.001": 11.8426062664,
			"0.002": 14.9365653767,
			"0.003": 17.0948313926,
			"0.004": 19.9657778367,
			"0.005": 12.7255829436,
			"0.006": 1.95862236829,
			"0.007": 1.56829391339,
			"0.008": 1.51013314556,
			"0.009": 1.27508310542,
			"0.01": 1.84033277559,
			"0.011": 1.87677244774,
			"0.012": 0.758962718178,
			"0.013": 0.131712478954,
			"0.014": 0.0,
			"0.015": 0.0,
			"0.016": 0.0,
			"0.017": 0.0,
			"0.018": 0.0,
			"0.019": 0.0,
			"0.02": 0.0,
			"0.021": 0.0,
			"0.022": 0.0,
			"0.023": 0.0,
			"0.024": 0.0,
			"0.025": 0.0
		}
	}
}
