{
	 "smiles": "CC(C)N1C(C)=CC(C(=O)CCl)=C1C", 
	 "Tm": 319.15, 
	 "num_atms": 30, 
	 "gaussian": { 
		 "optdone": 1, 
		 "sigma_profile": "yes", 
		 "theory": "DFT", 
		 "functional": "B3LYP", 
		 "basiset": "6-31G**", 
		 "properties": { 
			 "R2extent": 4812.367, 
			 "electric_dipole_moment_norm": 7.92487182546, 
			 "electric_quadrupole_moment_norm": 19.7455539304, 
			 "total_energy": -1018.98834668, 
			 "HOMO_LUMO_gap": 0.18322, 
			 "cosmo_polarized_energy": -16.52, 
			 "cosmo_cavitation_energy": 33.12, 
			 "cosmo_dispersion_energy": -23.44, 
			 "cosmo_repulsion_energy": 1.85, 
			 "cosmo_total_nonelectrostatic_energy": 11.52, 
			 "SMD_solvation_energy": 6.02 
		},
		"coords": [
			{
				"x": -0.5325933349,
				"y": 2.0068218948,
				"z": -1.6632753714,
				"element": "C" 
			},
			{
				"x": -1.0952186983,
				"y": 1.7345804306,
				"z": -0.25900605,
				"element": "C" 
			},
			{
				"x": -0.8584836925,
				"y": 2.8839892287,
				"z": 0.732044699,
				"element": "C" 
			},
			{
				"x": -0.6840355897,
				"y": 0.4176847208,
				"z": 0.2719629586,
				"element": "N" 
			},
			{
				"x": -1.577876472,
				"y": -0.6547906645,
				"z": 0.3856509619,
				"element": "C" 
			},
			{
				"x": -3.0211253405,
				"y": -0.5783392931,
				"z": -0.0052710845,
				"element": "C" 
			},
			{
				"x": -0.8896556343,
				"y": -1.7183877422,
				"z": 0.8978397924,
				"element": "C" 
			},
			{
				"x": 0.4634970837,
				"y": -1.3146150304,
				"z": 1.1139721329,
				"element": "C" 
			},
			{
				"x": 1.4352685776,
				"y": -2.2557095714,
				"z": 1.6978476566,
				"element": "C" 
			},
			{
				"x": 1.1148156035,
				"y": -3.4016789426,
				"z": 1.9682299106,
				"element": "O" 
			},
			{
				"x": 2.8653990426,
				"y": -1.7583318379,
				"z": 1.9658417905,
				"element": "C" 
			},
			{
				"x": 3.8804992158,
				"y": -2.9562589155,
				"z": 2.833685539,
				"element": "Cl" 
			},
			{
				"x": 0.5668920957,
				"y": 0.0222457735,
				"z": 0.7077359917,
				"element": "C" 
			},
			{
				"x": 1.75212683,
				"y": 0.9442320938,
				"z": 0.7245992139,
				"element": "C" 
			},
			{
				"x": 0.5495051969,
				"y": 2.1601437994,
				"z": -1.6634760225,
				"element": "H" 
			},
			{
				"x": -0.7547077938,
				"y": 1.1721395105,
				"z": -2.334094814,
				"element": "H" 
			},
			{
				"x": -0.9943923378,
				"y": 2.9098898109,
				"z": -2.0753915455,
				"element": "H" 
			},
			{
				"x": -2.1776189218,
				"y": 1.6494615498,
				"z": -0.3718598493,
				"element": "H" 
			},
			{
				"x": -1.272135186,
				"y": 2.6365543815,
				"z": 1.713831929,
				"element": "H" 
			},
			{
				"x": -1.3624141205,
				"y": 3.7848315392,
				"z": 0.3674986093,
				"element": "H" 
			},
			{
				"x": 0.1985389024,
				"y": 3.1269921191,
				"z": 0.8576673411,
				"element": "H" 
			},
			{
				"x": -3.4805473356,
				"y": -1.5533473727,
				"z": 0.1729161099,
				"element": "H" 
			},
			{
				"x": -3.5857812491,
				"y": 0.1585332788,
				"z": 0.5802007776,
				"element": "H" 
			},
			{
				"x": -3.1668070923,
				"y": -0.3384653985,
				"z": -1.0660275386,
				"element": "H" 
			},
			{
				"x": -1.280798555,
				"y": -2.7010389063,
				"z": 1.1148460276,
				"element": "H" 
			},
			{
				"x": 2.8523480981,
				"y": -0.846200009,
				"z": 2.5653454528,
				"element": "H" 
			},
			{
				"x": 3.3671336767,
				"y": -1.5409800436,
				"z": 1.0192579055,
				"element": "H" 
			},
			{
				"x": 1.6708687984,
				"y": 1.7358181848,
				"z": -0.0192911185,
				"element": "H" 
			},
			{
				"x": 1.8889325766,
				"y": 1.4281260591,
				"z": 1.7007437526,
				"element": "H" 
			},
			{
				"x": 2.671565656,
				"y": 0.4014993525,
				"z": 0.5005748419,
				"element": "H" 
			}
		],
		 "valence_orbital": [ 
			{
				"type": "occ",
				"energy": -0.28595,
				"method": "rhf"
			},
			{
				"type": "occ",
				"energy": -0.28512,
				"method": "rhf"
			},
			{
				"type": "occ",
				"energy": -0.24126,
				"method": "rhf"
			},
			{
				"type": "occ",
				"energy": -0.24047,
				"method": "rhf"
			},
			{
				"type": "occ",
				"energy": -0.20991,
				"method": "rhf"
			},
			{
				"type": "unocc",
				"energy": -0.02669,
				"method": "rhf"
			},
			{
				"type": "unocc",
				"energy": 0.03566,
				"method": "rhf"
			},
			{
				"type": "unocc",
				"energy": 0.03652,
				"method": "rhf"
			},
			{
				"type": "unocc",
				"energy": 0.06195,
				"method": "rhf"
			},
			{
				"type": "unocc",
				"energy": 0.08194,
				"method": "rhf"
			}
		],
		"cosmo_sigma_profile": { 
			"-0.025": 0.0,
			"-0.024": 0.0,
			"-0.023": 0.0,
			"-0.022": 0.0,
			"-0.021": 0.0,
			"-0.02": 0.0,
			"-0.019": 0.0,
			"-0.018": 0.0,
			"-0.017": 0.0,
			"-0.016": 0.0,
			"-0.015": 0.0,
			"-0.014": 0.0,
			"-0.013": 0.0,
			"-0.012": 0.0,
			"-0.011": 0.0,
			"-0.01": 0.304310635123,
			"-0.009": 2.69456341219,
			"-0.008": 4.44386519621,
			"-0.007": 5.01454718203,
			"-0.006": 8.23110702845,
			"-0.005": 17.2709430904,
			"-0.004": 29.8821462598,
			"-0.003": 26.2450582489,
			"-0.002": 25.8566374255,
			"-0.001": 26.2289135584,
			"0.0": 25.753198644,
			"0.001": 12.7406896325,
			"0.002": 8.17030591078,
			"0.003": 6.99163005498,
			"0.004": 8.65241399403,
			"0.005": 11.4371772096,
			"0.006": 14.3453763294,
			"0.007": 8.56542868435,
			"0.008": 2.2966080783,
			"0.009": 2.62780186395,
			"0.01": 2.45670843445,
			"0.011": 2.13153728994,
			"0.012": 4.32011627302,
			"0.013": 3.94520839562,
			"0.014": 1.73422909027,
			"0.015": 0.281194056763,
			"0.016": 0.0,
			"0.017": 0.0,
			"0.018": 0.0,
			"0.019": 0.0,
			"0.02": 0.0,
			"0.021": 0.0,
			"0.022": 0.0,
			"0.023": 0.0,
			"0.024": 0.0,
			"0.025": 0.0
		}
	}
}
