{
	 "smiles": "NN1CCN(CCO)CC1", 
	 "Tm": 377.15, 
	 "num_atms": 25, 
	 "gaussian": { 
		 "optdone": 1, 
		 "sigma_profile": "yes", 
		 "theory": "DFT", 
		 "functional": "B3LYP", 
		 "basiset": "6-31G**", 
		 "properties": { 
			 "R2extent": 1873.5597, 
			 "electric_dipole_moment_norm": 3.36784216524, 
			 "electric_quadrupole_moment_norm": 8.1901581804, 
			 "total_energy": -477.087813609, 
			 "HOMO_LUMO_gap": 0.27773, 
			 "cosmo_polarized_energy": -11.57, 
			 "cosmo_cavitation_energy": 25.42, 
			 "cosmo_dispersion_energy": -18.86, 
			 "cosmo_repulsion_energy": 1.55, 
			 "cosmo_total_nonelectrostatic_energy": 8.11, 
			 "SMD_solvation_energy": 2.31 
		},
		"coords": [
			{
				"x": -0.4843526217,
				"y": -0.0201964959,
				"z": 3.1377511738,
				"element": "N" 
			},
			{
				"x": -0.2996998196,
				"y": -0.1935974526,
				"z": 1.7396103996,
				"element": "N" 
			},
			{
				"x": 0.3540527523,
				"y": -1.4614678735,
				"z": 1.4484185252,
				"element": "C" 
			},
			{
				"x": 0.8765974467,
				"y": -1.4366080257,
				"z": -0.0005197964,
				"element": "C" 
			},
			{
				"x": -0.0126651191,
				"y": -0.6538529768,
				"z": -0.8781950982,
				"element": "N" 
			},
			{
				"x": 0.1792557356,
				"y": -0.9408382103,
				"z": -2.2988172718,
				"element": "C" 
			},
			{
				"x": 1.4999822934,
				"y": -0.3275976458,
				"z": -2.7796371799,
				"element": "C" 
			},
			{
				"x": 1.5673779568,
				"y": 1.0383951512,
				"z": -2.4245114877,
				"element": "O" 
			},
			{
				"x": -1.3977160899,
				"y": -0.7113754686,
				"z": -0.4241368371,
				"element": "C" 
			},
			{
				"x": -1.527394163,
				"y": -0.0301217331,
				"z": 0.9539492978,
				"element": "C" 
			},
			{
				"x": -1.3721729978,
				"y": -0.4415663464,
				"z": 3.4386597151,
				"element": "H" 
			},
			{
				"x": -0.5572486091,
				"y": 0.9787316946,
				"z": 3.317409069,
				"element": "H" 
			},
			{
				"x": -0.3213109026,
				"y": -2.3263396874,
				"z": 1.6011352892,
				"element": "H" 
			},
			{
				"x": 1.1840479797,
				"y": -1.5803007939,
				"z": 2.1472175857,
				"element": "H" 
			},
			{
				"x": 0.9783231578,
				"y": -2.4769220735,
				"z": -0.3599650069,
				"element": "H" 
			},
			{
				"x": 1.8734814495,
				"y": -0.9839921124,
				"z": -0.0231350259,
				"element": "H" 
			},
			{
				"x": -0.6407595053,
				"y": -0.4655199275,
				"z": -2.8482578282,
				"element": "H" 
			},
			{
				"x": 0.1521761076,
				"y": -2.0241249543,
				"z": -2.5241138669,
				"element": "H" 
			},
			{
				"x": 2.3525751259,
				"y": -0.893940385,
				"z": -2.3675968057,
				"element": "H" 
			},
			{
				"x": 1.5643447343,
				"y": -0.4021059354,
				"z": -3.8713044407,
				"element": "H" 
			},
			{
				"x": 1.1229759564,
				"y": 1.0828513646,
				"z": -1.559935056,
				"element": "H" 
			},
			{
				"x": -2.0307854328,
				"y": -0.1901726682,
				"z": -1.1485569173,
				"element": "H" 
			},
			{
				"x": -1.7728167822,
				"y": -1.7504646553,
				"z": -0.3694441472,
				"element": "H" 
			},
			{
				"x": -1.7249566309,
				"y": 1.042884646,
				"z": 0.836863888,
				"element": "H" 
			},
			{
				"x": -2.3977120223,
				"y": -0.4686574348,
				"z": 1.4814118225,
				"element": "H" 
			}
		],
		 "valence_orbital": [ 
			{
				"type": "occ",
				"energy": -0.31078,
				"method": "rhf"
			},
			{
				"type": "occ",
				"energy": -0.25137,
				"method": "rhf"
			},
			{
				"type": "occ",
				"energy": -0.2508,
				"method": "rhf"
			},
			{
				"type": "occ",
				"energy": -0.23242,
				"method": "rhf"
			},
			{
				"type": "occ",
				"energy": -0.20913,
				"method": "rhf"
			},
			{
				"type": "unocc",
				"energy": 0.0686,
				"method": "rhf"
			},
			{
				"type": "unocc",
				"energy": 0.08231,
				"method": "rhf"
			},
			{
				"type": "unocc",
				"energy": 0.10523,
				"method": "rhf"
			},
			{
				"type": "unocc",
				"energy": 0.11289,
				"method": "rhf"
			},
			{
				"type": "unocc",
				"energy": 0.12184,
				"method": "rhf"
			}
		],
		"cosmo_sigma_profile": { 
			"-0.025": 0.0,
			"-0.024": 0.0,
			"-0.023": 0.0,
			"-0.022": 0.0,
			"-0.021": 0.0,
			"-0.02": 0.0,
			"-0.019": 0.0,
			"-0.018": 0.0,
			"-0.017": 0.0,
			"-0.016": 0.0,
			"-0.015": 0.0,
			"-0.014": 0.0,
			"-0.013": 0.0,
			"-0.012": 0.0,
			"-0.011": 0.0943270579492,
			"-0.01": 1.25373187097,
			"-0.009": 1.80567920899,
			"-0.008": 3.78424659504,
			"-0.007": 4.04850000031,
			"-0.006": 3.99979346053,
			"-0.005": 5.31978488082,
			"-0.004": 13.3078148079,
			"-0.003": 30.3296254046,
			"-0.002": 46.1998507935,
			"-0.001": 23.707830475,
			"0.0": 10.9202904986,
			"0.001": 5.2231394221,
			"0.002": 4.62801906847,
			"0.003": 3.12107838666,
			"0.004": 2.83108410549,
			"0.005": 2.54862925762,
			"0.006": 3.30434690872,
			"0.007": 2.67464824924,
			"0.008": 2.85912628094,
			"0.009": 2.31132975823,
			"0.01": 2.95796840497,
			"0.011": 2.95323164403,
			"0.012": 2.50458983287,
			"0.013": 4.10643588181,
			"0.014": 2.54676496566,
			"0.015": 3.28727462975,
			"0.016": 1.35742949583,
			"0.017": 0.726995532207,
			"0.018": 0.194901404057,
			"0.019": 0.0,
			"0.02": 0.0,
			"0.021": 0.0,
			"0.022": 0.0,
			"0.023": 0.0,
			"0.024": 0.0,
			"0.025": 0.0
		}
	}
}
