{
	 "smiles": "CN1C(CO)=CC2=C1C=CO2", 
	 "Tm": 348.15, 
	 "num_atms": 20, 
	 "gaussian": { 
		 "optdone": 1, 
		 "sigma_profile": "yes", 
		 "theory": "DFT", 
		 "functional": "B3LYP", 
		 "basiset": "6-31G**", 
		 "properties": { 
			 "R2extent": 2167.7266, 
			 "electric_dipole_moment_norm": 3.0619176034, 
			 "electric_quadrupole_moment_norm": 11.3546015447, 
			 "total_energy": -515.410905033, 
			 "HOMO_LUMO_gap": 0.19244, 
			 "cosmo_polarized_energy": -10.95, 
			 "cosmo_cavitation_energy": 23.53, 
			 "cosmo_dispersion_energy": -17.56, 
			 "cosmo_repulsion_energy": 1.41, 
			 "cosmo_total_nonelectrostatic_energy": 7.38, 
			 "SMD_solvation_energy": 5.03 
		},
		"coords": [
			{
				"x": -0.5587485946,
				"y": 0.3703088568,
				"z": 2.6592348249,
				"element": "C" 
			},
			{
				"x": -0.365038683,
				"y": -0.3578711555,
				"z": 1.4175621343,
				"element": "N" 
			},
			{
				"x": -1.1811784501,
				"y": -0.2960268264,
				"z": 0.2873504937,
				"element": "C" 
			},
			{
				"x": -2.3930930344,
				"y": 0.5685642587,
				"z": 0.2345873679,
				"element": "C" 
			},
			{
				"x": -3.3564519432,
				"y": 0.1271970927,
				"z": 1.2021065179,
				"element": "O" 
			},
			{
				"x": -0.662295706,
				"y": -1.1024993605,
				"z": -0.7213115182,
				"element": "C" 
			},
			{
				"x": 0.5130829664,
				"y": -1.6554928793,
				"z": -0.1693547942,
				"element": "C" 
			},
			{
				"x": 0.6828600305,
				"y": -1.1979570582,
				"z": 1.1249022912,
				"element": "C" 
			},
			{
				"x": 1.8709942523,
				"y": -1.8091728755,
				"z": 1.6375554468,
				"element": "C" 
			},
			{
				"x": 2.32380825,
				"y": -2.5854816845,
				"z": 0.6054978501,
				"element": "C" 
			},
			{
				"x": 1.5176166321,
				"y": -2.5149599144,
				"z": -0.5103219233,
				"element": "O" 
			},
			{
				"x": -0.0237977085,
				"y": 1.3285630486,
				"z": 2.6583974039,
				"element": "H" 
			},
			{
				"x": -1.6252571017,
				"y": 0.5452539924,
				"z": 2.8046562589,
				"element": "H" 
			},
			{
				"x": -0.1881808573,
				"y": -0.2324468102,
				"z": 3.4924221196,
				"element": "H" 
			},
			{
				"x": -2.7981523033,
				"y": 0.5156956259,
				"z": -0.7855781653,
				"element": "H" 
			},
			{
				"x": -2.1273364365,
				"y": 1.6225219585,
				"z": 0.4238088174,
				"element": "H" 
			},
			{
				"x": -4.086177188,
				"y": 0.7610878888,
				"z": 1.1963424123,
				"element": "H" 
			},
			{
				"x": -1.1007002943,
				"y": -1.2514341366,
				"z": -1.6968461892,
				"element": "H" 
			},
			{
				"x": 2.3407933297,
				"y": -1.7051689584,
				"z": 2.6047322948,
				"element": "H" 
			},
			{
				"x": 3.1858528402,
				"y": -3.227081063,
				"z": 0.5092563565,
				"element": "H" 
			}
		],
		 "valence_orbital": [ 
			{
				"type": "occ",
				"energy": -0.33617,
				"method": "rhf"
			},
			{
				"type": "occ",
				"energy": -0.27572,
				"method": "rhf"
			},
			{
				"type": "occ",
				"energy": -0.26826,
				"method": "rhf"
			},
			{
				"type": "occ",
				"energy": -0.21556,
				"method": "rhf"
			},
			{
				"type": "occ",
				"energy": -0.18342,
				"method": "rhf"
			},
			{
				"type": "unocc",
				"energy": 0.00902,
				"method": "rhf"
			},
			{
				"type": "unocc",
				"energy": 0.06045,
				"method": "rhf"
			},
			{
				"type": "unocc",
				"energy": 0.08935,
				"method": "rhf"
			},
			{
				"type": "unocc",
				"energy": 0.10944,
				"method": "rhf"
			},
			{
				"type": "unocc",
				"energy": 0.11313,
				"method": "rhf"
			}
		],
		"cosmo_sigma_profile": { 
			"-0.025": 0.0,
			"-0.024": 0.0,
			"-0.023": 0.0,
			"-0.022": 0.0,
			"-0.021": 0.0,
			"-0.02": 0.0,
			"-0.019": 0.0,
			"-0.018": 0.0,
			"-0.017": 0.0,
			"-0.016": 0.626869726231,
			"-0.015": 1.00866001972,
			"-0.014": 0.803416499226,
			"-0.013": 1.16148604651,
			"-0.012": 1.180953913,
			"-0.011": 0.556413319892,
			"-0.01": 0.418042367059,
			"-0.009": 1.14063219988,
			"-0.008": 2.9916032211,
			"-0.007": 4.72892845879,
			"-0.006": 7.14695760593,
			"-0.005": 14.7333569335,
			"-0.004": 18.7307967547,
			"-0.003": 17.8605247701,
			"-0.002": 16.8784726081,
			"-0.001": 7.85962532586,
			"0.0": 8.32575099392,
			"0.001": 7.02872694626,
			"0.002": 6.16207525084,
			"0.003": 8.42612164633,
			"0.004": 12.4751568024,
			"0.005": 13.9196859834,
			"0.006": 11.5764373809,
			"0.007": 6.88648309631,
			"0.008": 3.71601976861,
			"0.009": 3.46951569777,
			"0.01": 2.00033485279,
			"0.011": 1.2106349228,
			"0.012": 1.12902217818,
			"0.013": 1.55231676921,
			"0.014": 1.14710815574,
			"0.015": 0.256779959059,
			"0.016": 0.0,
			"0.017": 0.0,
			"0.018": 0.0,
			"0.019": 0.0,
			"0.02": 0.0,
			"0.021": 0.0,
			"0.022": 0.0,
			"0.023": 0.0,
			"0.024": 0.0,
			"0.025": 0.0
		}
	}
}
