{
	 "smiles": "NC1=NON=C1C1=CC(Br)=CC=C1", 
	 "Tm": 411.15, 
	 "num_atms": 19, 
	 "gaussian": { 
		 "optdone": 1, 
		 "sigma_profile": "yes", 
		 "theory": "DFT", 
		 "functional": "B3LYP", 
		 "basiset": "6-31G**", 
		 "properties": { 
			 "R2extent": 5590.9295, 
			 "electric_dipole_moment_norm": 4.96832585687, 
			 "electric_quadrupole_moment_norm": 7.65467864773, 
			 "total_energy": -3119.26818042, 
			 "HOMO_LUMO_gap": 0.18805, 
			 "cosmo_polarized_energy": -13.33, 
			 "cosmo_cavitation_energy": 26.5, 
			 "cosmo_dispersion_energy": -20.11, 
			 "cosmo_repulsion_energy": 1.59, 
			 "cosmo_total_nonelectrostatic_energy": 7.98, 
			 "SMD_solvation_energy": 3.01 
		},
		"coords": [
			{
				"x": -1.9286517853,
				"y": -1.4495441607,
				"z": 0.5092024674,
				"element": "N" 
			},
			{
				"x": -2.0514653577,
				"y": -0.3268720787,
				"z": -0.2894901184,
				"element": "C" 
			},
			{
				"x": -3.204846062,
				"y": 0.2330514258,
				"z": -0.5592325143,
				"element": "N" 
			},
			{
				"x": -2.8972933319,
				"y": 1.343721676,
				"z": -1.3274131076,
				"element": "O" 
			},
			{
				"x": -1.5563572147,
				"y": 1.4464444132,
				"z": -1.539305193,
				"element": "N" 
			},
			{
				"x": -0.998254739,
				"y": 0.4394737373,
				"z": -0.9100246772,
				"element": "C" 
			},
			{
				"x": 0.454398471,
				"y": 0.2102212067,
				"z": -0.9179419993,
				"element": "C" 
			},
			{
				"x": 1.2227639562,
				"y": 0.682747197,
				"z": -1.9954771184,
				"element": "C" 
			},
			{
				"x": 2.5970205688,
				"y": 0.4755279817,
				"z": -1.9962090927,
				"element": "C" 
			},
			{
				"x": 3.6363604049,
				"y": 1.1142446208,
				"z": -3.4661015128,
				"element": "Br" 
			},
			{
				"x": 3.2349442998,
				"y": -0.1946944915,
				"z": -0.9510016401,
				"element": "C" 
			},
			{
				"x": 2.4678332923,
				"y": -0.6564896841,
				"z": 0.1179416098,
				"element": "C" 
			},
			{
				"x": 1.0872945801,
				"y": -0.4586645834,
				"z": 0.14193717,
				"element": "C" 
			},
			{
				"x": -2.8169651123,
				"y": -1.9003217794,
				"z": 0.6927628696,
				"element": "H" 
			},
			{
				"x": -1.2261827648,
				"y": -2.1067876463,
				"z": 0.1942863728,
				"element": "H" 
			},
			{
				"x": 0.7400858423,
				"y": 1.2016329611,
				"z": -2.8146703867,
				"element": "H" 
			},
			{
				"x": 4.3075319361,
				"y": -0.3485642142,
				"z": -0.9751972548,
				"element": "H" 
			},
			{
				"x": 2.9541617969,
				"y": -1.1684141754,
				"z": 0.9427922085,
				"element": "H" 
			},
			{
				"x": 0.5059212192,
				"y": -0.7937124059,
				"z": 0.9944419172,
				"element": "H" 
			}
		],
		 "valence_orbital": [ 
			{
				"type": "occ",
				"energy": -0.31201,
				"method": "rhf"
			},
			{
				"type": "occ",
				"energy": -0.29419,
				"method": "rhf"
			},
			{
				"type": "occ",
				"energy": -0.2711,
				"method": "rhf"
			},
			{
				"type": "occ",
				"energy": -0.25776,
				"method": "rhf"
			},
			{
				"type": "occ",
				"energy": -0.24796,
				"method": "rhf"
			},
			{
				"type": "unocc",
				"energy": -0.05991,
				"method": "rhf"
			},
			{
				"type": "unocc",
				"energy": -0.02942,
				"method": "rhf"
			},
			{
				"type": "unocc",
				"energy": -0.01474,
				"method": "rhf"
			},
			{
				"type": "unocc",
				"energy": -0.00062,
				"method": "rhf"
			},
			{
				"type": "unocc",
				"energy": 0.05331,
				"method": "rhf"
			}
		],
		"cosmo_sigma_profile": { 
			"-0.025": 0.0,
			"-0.024": 0.0,
			"-0.023": 0.0,
			"-0.022": 0.0,
			"-0.021": 0.0,
			"-0.02": 0.0,
			"-0.019": 0.0,
			"-0.018": 0.0,
			"-0.017": 0.0,
			"-0.016": 0.0,
			"-0.015": 0.132856556396,
			"-0.014": 2.00815028292,
			"-0.013": 2.45804495261,
			"-0.012": 2.8726963759,
			"-0.011": 3.27977071674,
			"-0.01": 2.14342495322,
			"-0.009": 2.26361930299,
			"-0.008": 3.49739075516,
			"-0.007": 7.36103057973,
			"-0.006": 8.66220401554,
			"-0.005": 9.18374232855,
			"-0.004": 9.40287689946,
			"-0.003": 11.785761017,
			"-0.002": 13.0301512659,
			"-0.001": 11.6099723619,
			"0.0": 14.0518804291,
			"0.001": 20.1197486346,
			"0.002": 23.866049625,
			"0.003": 15.7484964798,
			"0.004": 14.2001369476,
			"0.005": 7.64675826678,
			"0.006": 10.3258301747,
			"0.007": 7.34028621508,
			"0.008": 2.83266413279,
			"0.009": 3.90379194228,
			"0.01": 2.73024564969,
			"0.011": 2.04556327384,
			"0.012": 1.77759892576,
			"0.013": 0.435479412084,
			"0.014": 0.0,
			"0.015": 0.0,
			"0.016": 0.0,
			"0.017": 0.0,
			"0.018": 0.0,
			"0.019": 0.0,
			"0.02": 0.0,
			"0.021": 0.0,
			"0.022": 0.0,
			"0.023": 0.0,
			"0.024": 0.0,
			"0.025": 0.0
		}
	}
}
