{
	 "smiles": "CC1=C(C=C(F)C=C1)C1=NC2=C(N1)C=CC=C2", 
	 "Tm": 497.15, 
	 "num_atms": 28, 
	 "gaussian": { 
		 "optdone": 1, 
		 "sigma_profile": "yes", 
		 "theory": "DFT", 
		 "functional": "B3LYP", 
		 "basiset": "6-31G**", 
		 "properties": { 
			 "R2extent": 5908.0809, 
			 "electric_dipole_moment_norm": 4.3299866755, 
			 "electric_quadrupole_moment_norm": 11.4344737164, 
			 "total_energy": -749.481223165, 
			 "HOMO_LUMO_gap": 0.16592, 
			 "cosmo_polarized_energy": -12.98, 
			 "cosmo_cavitation_energy": 32.09, 
			 "cosmo_dispersion_energy": -23.75, 
			 "cosmo_repulsion_energy": 1.77, 
			 "cosmo_total_nonelectrostatic_energy": 10.11, 
			 "SMD_solvation_energy": 3.88 
		},
		"coords": [
			{
				"x": -1.5406740625,
				"y": -1.0616382284,
				"z": -1.0368857247,
				"element": "C" 
			},
			{
				"x": -1.8926529188,
				"y": 0.3899746662,
				"z": -0.7902058656,
				"element": "C" 
			},
			{
				"x": -0.9372295885,
				"y": 1.4324334373,
				"z": -0.691851174,
				"element": "C" 
			},
			{
				"x": -1.3730672835,
				"y": 2.7559651878,
				"z": -0.4977217021,
				"element": "C" 
			},
			{
				"x": -2.7237781207,
				"y": 3.0320708472,
				"z": -0.3913850999,
				"element": "C" 
			},
			{
				"x": -3.119341921,
				"y": 4.307928123,
				"z": -0.2004165337,
				"element": "F" 
			},
			{
				"x": -3.6845599937,
				"y": 2.0315035326,
				"z": -0.4717811439,
				"element": "C" 
			},
			{
				"x": -3.2492647851,
				"y": 0.7247581631,
				"z": -0.6750393501,
				"element": "C" 
			},
			{
				"x": 0.523995493,
				"y": 1.2624185768,
				"z": -0.793117266,
				"element": "C" 
			},
			{
				"x": 1.3531763707,
				"y": 2.2665125068,
				"z": -1.0095846066,
				"element": "N" 
			},
			{
				"x": 2.6199830125,
				"y": 1.7185335758,
				"z": -0.9990842317,
				"element": "C" 
			},
			{
				"x": 2.5500443288,
				"y": 0.323868831,
				"z": -0.7633262059,
				"element": "C" 
			},
			{
				"x": 1.1988753292,
				"y": 0.0604575619,
				"z": -0.6448989572,
				"element": "N" 
			},
			{
				"x": 3.6853638133,
				"y": -0.4869194748,
				"z": -0.6967176185,
				"element": "C" 
			},
			{
				"x": 4.9137860396,
				"y": 0.1436360818,
				"z": -0.875891774,
				"element": "C" 
			},
			{
				"x": 5.0035632291,
				"y": 1.5313376074,
				"z": -1.1149620982,
				"element": "C" 
			},
			{
				"x": 3.8685889243,
				"y": 2.3312913677,
				"z": -1.180303446,
				"element": "C" 
			},
			{
				"x": -0.8276791698,
				"y": -1.1823246301,
				"z": -1.8588787602,
				"element": "H" 
			},
			{
				"x": -1.1204579607,
				"y": -1.5472591646,
				"z": -0.1442421703,
				"element": "H" 
			},
			{
				"x": -2.437122271,
				"y": -1.6292400021,
				"z": -1.2981582462,
				"element": "H" 
			},
			{
				"x": -0.641392544,
				"y": 3.552172092,
				"z": -0.4373672281,
				"element": "H" 
			},
			{
				"x": -4.7370320501,
				"y": 2.2774922183,
				"z": -0.3841110939,
				"element": "H" 
			},
			{
				"x": -3.9887796983,
				"y": -0.0672754154,
				"z": -0.7550496169,
				"element": "H" 
			},
			{
				"x": 0.7888509659,
				"y": -0.8273126131,
				"z": -0.4100518461,
				"element": "H" 
			},
			{
				"x": 3.6205340876,
				"y": -1.5554930581,
				"z": -0.5141790438,
				"element": "H" 
			},
			{
				"x": 5.8240888516,
				"y": -0.4468643253,
				"z": -0.8313880309,
				"element": "H" 
			},
			{
				"x": 5.9833677794,
				"y": 1.9797703648,
				"z": -1.2499248126,
				"element": "H" 
			},
			{
				"x": 3.9314141425,
				"y": 3.3990021702,
				"z": -1.3633763527,
				"element": "H" 
			}
		],
		 "valence_orbital": [ 
			{
				"type": "occ",
				"energy": -0.27311,
				"method": "rhf"
			},
			{
				"type": "occ",
				"energy": -0.26958,
				"method": "rhf"
			},
			{
				"type": "occ",
				"energy": -0.24478,
				"method": "rhf"
			},
			{
				"type": "occ",
				"energy": -0.22751,
				"method": "rhf"
			},
			{
				"type": "occ",
				"energy": -0.21324,
				"method": "rhf"
			},
			{
				"type": "unocc",
				"energy": -0.04732,
				"method": "rhf"
			},
			{
				"type": "unocc",
				"energy": -0.00444,
				"method": "rhf"
			},
			{
				"type": "unocc",
				"energy": 0.01001,
				"method": "rhf"
			},
			{
				"type": "unocc",
				"energy": 0.02391,
				"method": "rhf"
			},
			{
				"type": "unocc",
				"energy": 0.06422,
				"method": "rhf"
			}
		],
		"cosmo_sigma_profile": { 
			"-0.025": 0.0,
			"-0.024": 0.0,
			"-0.023": 0.0,
			"-0.022": 0.0,
			"-0.021": 0.0,
			"-0.02": 0.0,
			"-0.019": 0.0,
			"-0.018": 0.0,
			"-0.017": 0.0,
			"-0.016": 0.0592812619534,
			"-0.015": 0.901721903891,
			"-0.014": 0.996550686678,
			"-0.013": 1.50747531892,
			"-0.012": 1.20485549752,
			"-0.011": 1.6363163684,
			"-0.01": 1.21736650575,
			"-0.009": 1.68892624671,
			"-0.008": 2.37243976508,
			"-0.007": 4.87313326389,
			"-0.006": 11.0233386701,
			"-0.005": 18.4168488894,
			"-0.004": 17.2539066354,
			"-0.003": 17.0558750321,
			"-0.002": 16.6204216607,
			"-0.001": 16.2963098649,
			"0.0": 17.0027127804,
			"0.001": 21.7688822782,
			"0.002": 20.2580733242,
			"0.003": 23.7339971504,
			"0.004": 25.2680231115,
			"0.005": 16.166508395,
			"0.006": 8.93437527008,
			"0.007": 2.38781318433,
			"0.008": 1.83383400715,
			"0.009": 1.63359620125,
			"0.01": 0.829620646845,
			"0.011": 1.30582001275,
			"0.012": 0.983851802899,
			"0.013": 1.0267061744,
			"0.014": 0.902688149233,
			"0.015": 0.647980306265,
			"0.016": 0.0900770507974,
			"0.017": 0.0,
			"0.018": 0.0,
			"0.019": 0.0,
			"0.02": 0.0,
			"0.021": 0.0,
			"0.022": 0.0,
			"0.023": 0.0,
			"0.024": 0.0,
			"0.025": 0.0
		}
	}
}
