{
	 "smiles": "CN1C=CN=C(NN)C1=O", 
	 "Tm": 405.15, 
	 "num_atms": 18, 
	 "gaussian": { 
		 "optdone": 1, 
		 "sigma_profile": "yes", 
		 "theory": "DFT", 
		 "functional": "B3LYP", 
		 "basiset": "6-31G**", 
		 "properties": { 
			 "R2extent": 1654.6798, 
			 "electric_dipole_moment_norm": 3.16419842298, 
			 "electric_quadrupole_moment_norm": 9.32698646402, 
			 "total_energy": -489.555501955, 
			 "HOMO_LUMO_gap": 0.16523, 
			 "cosmo_polarized_energy": -12.39, 
			 "cosmo_cavitation_energy": 21.85, 
			 "cosmo_dispersion_energy": -16.55, 
			 "cosmo_repulsion_energy": 1.35, 
			 "cosmo_total_nonelectrostatic_energy": 6.64, 
			 "SMD_solvation_energy": 4.25 
		},
		"coords": [
			{
				"x": 3.3615326914,
				"y": -0.4448451648,
				"z": -0.0549735693,
				"element": "C" 
			},
			{
				"x": 2.0826886477,
				"y": -0.2332628465,
				"z": 0.6226071436,
				"element": "N" 
			},
			{
				"x": 1.973767953,
				"y": -0.4698041773,
				"z": 1.9875682436,
				"element": "C" 
			},
			{
				"x": 0.791628959,
				"y": -0.2586658879,
				"z": 2.6187011873,
				"element": "C" 
			},
			{
				"x": -0.3370909314,
				"y": 0.1807785848,
				"z": 1.9718224763,
				"element": "N" 
			},
			{
				"x": -0.2325022135,
				"y": 0.388885658,
				"z": 0.681861803,
				"element": "C" 
			},
			{
				"x": -1.2973304624,
				"y": 0.8038850172,
				"z": -0.0520169471,
				"element": "N" 
			},
			{
				"x": -2.5152846302,
				"y": 1.1897760528,
				"z": 0.5276546033,
				"element": "N" 
			},
			{
				"x": 1.00612337,
				"y": 0.2135590108,
				"z": -0.1189011278,
				"element": "C" 
			},
			{
				"x": 1.0514800591,
				"y": 0.4560598369,
				"z": -1.3290080654,
				"element": "O" 
			},
			{
				"x": 3.6891631461,
				"y": -1.4802928996,
				"z": 0.0761769388,
				"element": "H" 
			},
			{
				"x": 4.1220341504,
				"y": 0.2279068937,
				"z": 0.3530633542,
				"element": "H" 
			},
			{
				"x": 3.2154045832,
				"y": -0.2340891803,
				"z": -1.1129307853,
				"element": "H" 
			},
			{
				"x": 2.868873697,
				"y": -0.8202442795,
				"z": 2.4858155377,
				"element": "H" 
			},
			{
				"x": 0.7014841186,
				"y": -0.4378466215,
				"z": 3.6850186459,
				"element": "H" 
			},
			{
				"x": -1.1205256793,
				"y": 1.09219481,
				"z": -1.0039336334,
				"element": "H" 
			},
			{
				"x": -2.9697662974,
				"y": 0.3465566068,
				"z": 0.879085411,
				"element": "H" 
			},
			{
				"x": -2.2993811614,
				"y": 1.7404485864,
				"z": 1.3606887839,
				"element": "H" 
			}
		],
		 "valence_orbital": [ 
			{
				"type": "occ",
				"energy": -0.30113,
				"method": "rhf"
			},
			{
				"type": "occ",
				"energy": -0.27474,
				"method": "rhf"
			},
			{
				"type": "occ",
				"energy": -0.26416,
				"method": "rhf"
			},
			{
				"type": "occ",
				"energy": -0.24531,
				"method": "rhf"
			},
			{
				"type": "occ",
				"energy": -0.19778,
				"method": "rhf"
			},
			{
				"type": "unocc",
				"energy": -0.03255,
				"method": "rhf"
			},
			{
				"type": "unocc",
				"energy": 0.01261,
				"method": "rhf"
			},
			{
				"type": "unocc",
				"energy": 0.09163,
				"method": "rhf"
			},
			{
				"type": "unocc",
				"energy": 0.09826,
				"method": "rhf"
			},
			{
				"type": "unocc",
				"energy": 0.11436,
				"method": "rhf"
			}
		],
		"cosmo_sigma_profile": { 
			"-0.025": 0.0,
			"-0.024": 0.0,
			"-0.023": 0.0,
			"-0.022": 0.0,
			"-0.021": 0.0,
			"-0.02": 0.0,
			"-0.019": 0.0,
			"-0.018": 0.0,
			"-0.017": 0.0,
			"-0.016": 0.0,
			"-0.015": 0.0,
			"-0.014": 0.0,
			"-0.013": 0.0,
			"-0.012": 0.459579131621,
			"-0.011": 1.74113430815,
			"-0.01": 3.10591435229,
			"-0.009": 3.68899025233,
			"-0.008": 5.09014583096,
			"-0.007": 6.71859765195,
			"-0.006": 12.7910573358,
			"-0.005": 11.1670153012,
			"-0.004": 10.784739845,
			"-0.003": 14.7913419085,
			"-0.002": 13.4162340025,
			"-0.001": 11.9259187593,
			"0.0": 8.24753027153,
			"0.001": 6.97097010133,
			"0.002": 8.48457677335,
			"0.003": 8.97534036356,
			"0.004": 9.17376430476,
			"0.005": 4.41595009569,
			"0.006": 2.49395181771,
			"0.007": 3.19089577474,
			"0.008": 3.38197096203,
			"0.009": 3.62299224044,
			"0.01": 2.97362887277,
			"0.011": 2.91972015797,
			"0.012": 3.95331059911,
			"0.013": 5.34027997453,
			"0.014": 1.79039500298,
			"0.015": 0.697844590303,
			"0.016": 0.624735218477,
			"0.017": 0.244771064168,
			"0.018": 0.0,
			"0.019": 0.0,
			"0.02": 0.0,
			"0.021": 0.0,
			"0.022": 0.0,
			"0.023": 0.0,
			"0.024": 0.0,
			"0.025": 0.0
		}
	}
}
