{
	 "smiles": "CN(C)C(=O)COC1=CC(F)=C(N)C=C1", 
	 "Tm": 380.15, 
	 "num_atms": 28, 
	 "gaussian": { 
		 "optdone": 1, 
		 "sigma_profile": "yes", 
		 "theory": "DFT", 
		 "functional": "B3LYP", 
		 "basiset": "6-31G**", 
		 "properties": { 
			 "R2extent": 4957.3903, 
			 "electric_dipole_moment_norm": 1.2282636769, 
			 "electric_quadrupole_moment_norm": 21.0920481725, 
			 "total_energy": -748.679472002, 
			 "HOMO_LUMO_gap": 0.19072, 
			 "cosmo_polarized_energy": -13.8, 
			 "cosmo_cavitation_energy": 31.73, 
			 "cosmo_dispersion_energy": -22.58, 
			 "cosmo_repulsion_energy": 1.77, 
			 "cosmo_total_nonelectrostatic_energy": 10.92, 
			 "SMD_solvation_energy": 6.61 
		},
		"coords": [
			{
				"x": -0.9845527151,
				"y": 2.2342179039,
				"z": 2.7026569933,
				"element": "C" 
			},
			{
				"x": -1.3477217154,
				"y": 1.7072866817,
				"z": 1.3936010024,
				"element": "N" 
			},
			{
				"x": -1.9381125486,
				"y": 0.3760614584,
				"z": 1.3935056273,
				"element": "C" 
			},
			{
				"x": -1.2168195004,
				"y": 2.5178572563,
				"z": 0.3010021092,
				"element": "C" 
			},
			{
				"x": -0.8121776841,
				"y": 3.6778380213,
				"z": 0.3738530009,
				"element": "O" 
			},
			{
				"x": -1.6221276172,
				"y": 1.9656710818,
				"z": -1.080768686,
				"element": "C" 
			},
			{
				"x": -1.0284590389,
				"y": 0.732659989,
				"z": -1.4640699711,
				"element": "O" 
			},
			{
				"x": 0.3048174953,
				"y": 0.7294871454,
				"z": -1.8175873649,
				"element": "C" 
			},
			{
				"x": 0.7827350675,
				"y": -0.4860852353,
				"z": -2.3247136446,
				"element": "C" 
			},
			{
				"x": 2.1064998394,
				"y": -0.5759025355,
				"z": -2.7072920269,
				"element": "C" 
			},
			{
				"x": 2.5753290996,
				"y": -1.7464114557,
				"z": -3.2161189342,
				"element": "F" 
			},
			{
				"x": 3.0095509401,
				"y": 0.4941588236,
				"z": -2.6192436273,
				"element": "C" 
			},
			{
				"x": 4.3521124961,
				"y": 0.3096406733,
				"z": -2.9684432555,
				"element": "N" 
			},
			{
				"x": 2.5016269025,
				"y": 1.6939479085,
				"z": -2.1114059816,
				"element": "C" 
			},
			{
				"x": 1.1665987799,
				"y": 1.8240262826,
				"z": -1.7121533349,
				"element": "C" 
			},
			{
				"x": -1.8716796602,
				"y": 2.3295366842,
				"z": 3.3422702086,
				"element": "H" 
			},
			{
				"x": -0.2745640717,
				"y": 1.5600103334,
				"z": 3.1958097059,
				"element": "H" 
			},
			{
				"x": -0.5322410448,
				"y": 3.2150485998,
				"z": 2.5674132388,
				"element": "H" 
			},
			{
				"x": -1.2738923656,
				"y": -0.3215627718,
				"z": 1.9174837975,
				"element": "H" 
			},
			{
				"x": -2.9039459458,
				"y": 0.3794551257,
				"z": 1.9171391899,
				"element": "H" 
			},
			{
				"x": -2.0728917085,
				"y": 0.0054705974,
				"z": 0.3806311639,
				"element": "H" 
			},
			{
				"x": -2.701636263,
				"y": 1.7832211058,
				"z": -1.1042577557,
				"element": "H" 
			},
			{
				"x": -1.3897879961,
				"y": 2.7590423556,
				"z": -1.7971248843,
				"element": "H" 
			},
			{
				"x": 0.1245394315,
				"y": -1.3410536916,
				"z": -2.4258954857,
				"element": "H" 
			},
			{
				"x": 4.8103655267,
				"y": 1.1425975812,
				"z": -3.3126265771,
				"element": "H" 
			},
			{
				"x": 4.5000659855,
				"y": -0.4805772764,
				"z": -3.5820450154,
				"element": "H" 
			},
			{
				"x": 3.1668044645,
				"y": 2.5478583013,
				"z": -2.0145651445,
				"element": "H" 
			},
			{
				"x": 0.827863847,
				"y": 2.7700990562,
				"z": -1.307054348,
				"element": "H" 
			}
		],
		 "valence_orbital": [ 
			{
				"type": "occ",
				"energy": -0.28505,
				"method": "rhf"
			},
			{
				"type": "occ",
				"energy": -0.24845,
				"method": "rhf"
			},
			{
				"type": "occ",
				"energy": -0.24304,
				"method": "rhf"
			},
			{
				"type": "occ",
				"energy": -0.24121,
				"method": "rhf"
			},
			{
				"type": "occ",
				"energy": -0.19008,
				"method": "rhf"
			},
			{
				"type": "unocc",
				"energy": 0.00064,
				"method": "rhf"
			},
			{
				"type": "unocc",
				"energy": 0.01368,
				"method": "rhf"
			},
			{
				"type": "unocc",
				"energy": 0.02724,
				"method": "rhf"
			},
			{
				"type": "unocc",
				"energy": 0.08429,
				"method": "rhf"
			},
			{
				"type": "unocc",
				"energy": 0.08865,
				"method": "rhf"
			}
		],
		"cosmo_sigma_profile": { 
			"-0.025": 0.0,
			"-0.024": 0.0,
			"-0.023": 0.0,
			"-0.022": 0.0,
			"-0.021": 0.0,
			"-0.02": 0.0,
			"-0.019": 0.0,
			"-0.018": 0.0,
			"-0.017": 0.0,
			"-0.016": 0.0,
			"-0.015": 0.0,
			"-0.014": 0.0,
			"-0.013": 0.342871214555,
			"-0.012": 1.71995528998,
			"-0.011": 2.32534568947,
			"-0.01": 2.29489713155,
			"-0.009": 2.7227591863,
			"-0.008": 3.22452135377,
			"-0.007": 7.68669500394,
			"-0.006": 9.47289661494,
			"-0.005": 17.5800905752,
			"-0.004": 23.0273609404,
			"-0.003": 21.7546199759,
			"-0.002": 23.0968515633,
			"-0.001": 14.8483351329,
			"0.0": 9.12112195204,
			"0.001": 13.4249570602,
			"0.002": 18.51556079,
			"0.003": 17.3038538958,
			"0.004": 20.8859840383,
			"0.005": 13.1797757318,
			"0.006": 4.37325635187,
			"0.007": 3.46282152262,
			"0.008": 2.81868208754,
			"0.009": 3.18754680193,
			"0.01": 1.74788730915,
			"0.011": 1.66866138219,
			"0.012": 3.18956444388,
			"0.013": 3.70310146156,
			"0.014": 3.86563399371,
			"0.015": 0.571876332368,
			"0.016": 0.0401283039573,
			"0.017": 0.0,
			"0.018": 0.0,
			"0.019": 0.0,
			"0.02": 0.0,
			"0.021": 0.0,
			"0.022": 0.0,
			"0.023": 0.0,
			"0.024": 0.0,
			"0.025": 0.0
		}
	}
}
