{
	 "smiles": "CC(=O)C1CCC2=C(C=CC=C2)C1=O", 
	 "Tm": 329.15, 
	 "num_atms": 26, 
	 "gaussian": { 
		 "optdone": 1, 
		 "sigma_profile": "yes", 
		 "theory": "DFT", 
		 "functional": "B3LYP", 
		 "basiset": "6-31G**", 
		 "properties": { 
			 "R2extent": 3492.9533, 
			 "electric_dipole_moment_norm": 4.70308656629, 
			 "electric_quadrupole_moment_norm": 9.02837538099, 
			 "total_energy": -614.968116617, 
			 "HOMO_LUMO_gap": 0.17467, 
			 "cosmo_polarized_energy": -11.67, 
			 "cosmo_cavitation_energy": 28.8, 
			 "cosmo_dispersion_energy": -20.84, 
			 "cosmo_repulsion_energy": 1.62, 
			 "cosmo_total_nonelectrostatic_energy": 9.59, 
			 "SMD_solvation_energy": 5.62 
		},
		"coords": [
			{
				"x": -1.1260366236,
				"y": -1.0347101216,
				"z": -1.8169351605,
				"element": "C" 
			},
			{
				"x": 0.2692965289,
				"y": -1.2990767643,
				"z": -1.2899694084,
				"element": "C" 
			},
			{
				"x": 1.093176259,
				"y": -1.9178361191,
				"z": -1.9356594732,
				"element": "O" 
			},
			{
				"x": 0.6642725581,
				"y": -0.714213589,
				"z": 0.0762930167,
				"element": "C" 
			},
			{
				"x": 1.0578748336,
				"y": 0.7738993466,
				"z": -0.0471281991,
				"element": "C" 
			},
			{
				"x": 1.5546719074,
				"y": 1.3069897106,
				"z": 1.3005220417,
				"element": "C" 
			},
			{
				"x": 0.5563371039,
				"y": 1.0678464238,
				"z": 2.4122067613,
				"element": "C" 
			},
			{
				"x": -0.3526174981,
				"y": -0.0082765079,
				"z": 2.342489389,
				"element": "C" 
			},
			{
				"x": -1.2662361931,
				"y": -0.2305146811,
				"z": 3.3865685503,
				"element": "C" 
			},
			{
				"x": -1.2839986252,
				"y": 0.6023124967,
				"z": 4.4976755021,
				"element": "C" 
			},
			{
				"x": -0.3847472824,
				"y": 1.6724406837,
				"z": 4.5705424019,
				"element": "C" 
			},
			{
				"x": 0.5221852762,
				"y": 1.9006081905,
				"z": 3.5371263485,
				"element": "C" 
			},
			{
				"x": -0.3758785213,
				"y": -0.9372537064,
				"z": 1.1756111185,
				"element": "C" 
			},
			{
				"x": -1.1697599575,
				"y": -1.8669135039,
				"z": 1.1129016676,
				"element": "O" 
			},
			{
				"x": -1.1582875304,
				"y": -1.2615879211,
				"z": -2.8834213911,
				"element": "H" 
			},
			{
				"x": -1.4390610173,
				"y": 0.000238356,
				"z": -1.6410132454,
				"element": "H" 
			},
			{
				"x": -1.8285679285,
				"y": -1.6785251428,
				"z": -1.2790312411,
				"element": "H" 
			},
			{
				"x": 1.5601925633,
				"y": -1.2743353983,
				"z": 0.3810743953,
				"element": "H" 
			},
			{
				"x": 0.1917870405,
				"y": 1.3619574535,
				"z": -0.3764000911,
				"element": "H" 
			},
			{
				"x": 1.8338490111,
				"y": 0.8839846829,
				"z": -0.8112596893,
				"element": "H" 
			},
			{
				"x": 2.5031765252,
				"y": 0.8099695059,
				"z": 1.5531822382,
				"element": "H" 
			},
			{
				"x": 1.7809850162,
				"y": 2.376613221,
				"z": 1.2290963748,
				"element": "H" 
			},
			{
				"x": -1.9487087116,
				"y": -1.0689633736,
				"z": 3.2942606578,
				"element": "H" 
			},
			{
				"x": -1.9908283221,
				"y": 0.4263447443,
				"z": 5.3029398033,
				"element": "H" 
			},
			{
				"x": -0.3951992177,
				"y": 2.33321395,
				"z": 5.4329068375,
				"element": "H" 
			},
			{
				"x": 1.2120228054,
				"y": 2.7385880637,
				"z": 3.5990207947,
				"element": "H" 
			}
		],
		 "valence_orbital": [ 
			{
				"type": "occ",
				"energy": -0.33787,
				"method": "rhf"
			},
			{
				"type": "occ",
				"energy": -0.26432,
				"method": "rhf"
			},
			{
				"type": "occ",
				"energy": -0.25919,
				"method": "rhf"
			},
			{
				"type": "occ",
				"energy": -0.25729,
				"method": "rhf"
			},
			{
				"type": "occ",
				"energy": -0.23925,
				"method": "rhf"
			},
			{
				"type": "unocc",
				"energy": -0.06458,
				"method": "rhf"
			},
			{
				"type": "unocc",
				"energy": -0.01607,
				"method": "rhf"
			},
			{
				"type": "unocc",
				"energy": -0.01205,
				"method": "rhf"
			},
			{
				"type": "unocc",
				"energy": 0.03087,
				"method": "rhf"
			},
			{
				"type": "unocc",
				"energy": 0.0871,
				"method": "rhf"
			}
		],
		"cosmo_sigma_profile": { 
			"-0.025": 0.0,
			"-0.024": 0.0,
			"-0.023": 0.0,
			"-0.022": 0.0,
			"-0.021": 0.0,
			"-0.02": 0.0,
			"-0.019": 0.0,
			"-0.018": 0.0,
			"-0.017": 0.0,
			"-0.016": 0.0,
			"-0.015": 0.0,
			"-0.014": 0.0,
			"-0.013": 0.0,
			"-0.012": 0.0,
			"-0.011": 0.0,
			"-0.01": 0.0,
			"-0.009": 0.0,
			"-0.008": 0.323107431646,
			"-0.007": 4.28701877152,
			"-0.006": 13.5741770607,
			"-0.005": 21.2286649616,
			"-0.004": 25.9702448794,
			"-0.003": 23.422582911,
			"-0.002": 22.2438431926,
			"-0.001": 17.378295037,
			"0.0": 13.2916130825,
			"0.001": 10.2249807387,
			"0.002": 13.1598627239,
			"0.003": 13.7255282324,
			"0.004": 13.8456125667,
			"0.005": 5.170373072,
			"0.006": 2.75402216943,
			"0.007": 2.54862775013,
			"0.008": 2.96753123057,
			"0.009": 3.45438684573,
			"0.01": 4.42270283687,
			"0.011": 5.96795410128,
			"0.012": 6.33556603193,
			"0.013": 1.6795416622,
			"0.014": 0.000402915354946,
			"0.015": 0.0,
			"0.016": 0.0,
			"0.017": 0.0,
			"0.018": 0.0,
			"0.019": 0.0,
			"0.02": 0.0,
			"0.021": 0.0,
			"0.022": 0.0,
			"0.023": 0.0,
			"0.024": 0.0,
			"0.025": 0.0
		}
	}
}
