{
	 "smiles": "BrC1=CC=C(C=C1)C1=NN(C=C1C=O)C1=CC=CC=C1", 
	 "Tm": 415.15, 
	 "num_atms": 31, 
	 "gaussian": { 
		 "optdone": 1, 
		 "sigma_profile": "yes", 
		 "theory": "DFT", 
		 "functional": "B3LYP", 
		 "basiset": "6-31G**", 
		 "properties": { 
			 "R2extent": 13174.4729, 
			 "electric_dipole_moment_norm": 3.78930486765, 
			 "electric_quadrupole_moment_norm": 12.9115572248, 
			 "total_energy": -3372.44167236, 
			 "HOMO_LUMO_gap": 0.17152, 
			 "cosmo_polarized_energy": -12.24, 
			 "cosmo_cavitation_energy": 38.97, 
			 "cosmo_dispersion_energy": -28.33, 
			 "cosmo_repulsion_energy": 2.15, 
			 "cosmo_total_nonelectrostatic_energy": 12.78, 
			 "SMD_solvation_energy": 5.82 
		},
		"coords": [
			{
				"x": -0.2156193179,
				"y": -2.5708538288,
				"z": 6.2757154636,
				"element": "Br" 
			},
			{
				"x": 0.3963240986,
				"y": -2.0205803475,
				"z": 4.5519214889,
				"element": "C" 
			},
			{
				"x": 1.6866830994,
				"y": -2.3517985523,
				"z": 4.1440931819,
				"element": "C" 
			},
			{
				"x": 2.1269053906,
				"y": -1.9484272729,
				"z": 2.8841362701,
				"element": "C" 
			},
			{
				"x": 1.2875692578,
				"y": -1.2241486483,
				"z": 2.0230645004,
				"element": "C" 
			},
			{
				"x": -0.0046139706,
				"y": -0.8948281159,
				"z": 2.4653028222,
				"element": "C" 
			},
			{
				"x": -0.4537104069,
				"y": -1.2885652033,
				"z": 3.7225758524,
				"element": "C" 
			},
			{
				"x": 1.7393638146,
				"y": -0.7830517204,
				"z": 0.6914560137,
				"element": "C" 
			},
			{
				"x": 1.3074454801,
				"y": 0.3790992319,
				"z": 0.2035687987,
				"element": "N" 
			},
			{
				"x": 1.883863651,
				"y": 0.4991081275,
				"z": -1.0258262139,
				"element": "N" 
			},
			{
				"x": 2.6761306169,
				"y": -0.5569095281,
				"z": -1.3199227247,
				"element": "C" 
			},
			{
				"x": 2.6134584896,
				"y": -1.4306771891,
				"z": -0.2432061905,
				"element": "C" 
			},
			{
				"x": 3.2577384313,
				"y": -2.7437098093,
				"z": -0.2142808534,
				"element": "C" 
			},
			{
				"x": 4.0109155343,
				"y": -3.1443589498,
				"z": -1.0877279234,
				"element": "O" 
			},
			{
				"x": 1.6335257139,
				"y": 1.6580838287,
				"z": -1.8147695425,
				"element": "C" 
			},
			{
				"x": 1.2010346044,
				"y": 2.8310393117,
				"z": -1.1881773361,
				"element": "C" 
			},
			{
				"x": 0.9643880394,
				"y": 3.9679941049,
				"z": -1.9581536446,
				"element": "C" 
			},
			{
				"x": 1.1616692993,
				"y": 3.9444677565,
				"z": -3.3405118782,
				"element": "C" 
			},
			{
				"x": 1.5890518504,
				"y": 2.7668132985,
				"z": -3.9559853569,
				"element": "C" 
			},
			{
				"x": 1.8190924908,
				"y": 1.6178642993,
				"z": -3.200508448,
				"element": "C" 
			},
			{
				"x": 2.3430833613,
				"y": -2.9067733176,
				"z": 4.8043896206,
				"element": "H" 
			},
			{
				"x": 3.1454089443,
				"y": -2.175195538,
				"z": 2.5866794081,
				"element": "H" 
			},
			{
				"x": -0.6568473258,
				"y": -0.328738173,
				"z": 1.8090874993,
				"element": "H" 
			},
			{
				"x": -1.4542383491,
				"y": -1.0356609222,
				"z": 4.0544155563,
				"element": "H" 
			},
			{
				"x": 3.2353865333,
				"y": -0.6410564625,
				"z": -2.2381221196,
				"element": "H" 
			},
			{
				"x": 3.0058077949,
				"y": -3.3847149887,
				"z": 0.6543263603,
				"element": "H" 
			},
			{
				"x": 1.056553052,
				"y": 2.8330487872,
				"z": -0.1150020993,
				"element": "H" 
			},
			{
				"x": 0.6294941101,
				"y": 4.8788664708,
				"z": -1.4711120419,
				"element": "H" 
			},
			{
				"x": 0.978981416,
				"y": 4.8347977646,
				"z": -3.934156842,
				"element": "H" 
			},
			{
				"x": 1.733147752,
				"y": 2.7332727582,
				"z": -5.0315817937,
				"element": "H" 
			},
			{
				"x": 2.1184065443,
				"y": 0.6978928281,
				"z": -3.6909878276,
				"element": "H" 
			}
		],
		 "valence_orbital": [ 
			{
				"type": "occ",
				"energy": -0.27006,
				"method": "rhf"
			},
			{
				"type": "occ",
				"energy": -0.26886,
				"method": "rhf"
			},
			{
				"type": "occ",
				"energy": -0.25511,
				"method": "rhf"
			},
			{
				"type": "occ",
				"energy": -0.25048,
				"method": "rhf"
			},
			{
				"type": "occ",
				"energy": -0.23034,
				"method": "rhf"
			},
			{
				"type": "unocc",
				"energy": -0.05882,
				"method": "rhf"
			},
			{
				"type": "unocc",
				"energy": -0.04654,
				"method": "rhf"
			},
			{
				"type": "unocc",
				"energy": -0.02032,
				"method": "rhf"
			},
			{
				"type": "unocc",
				"energy": -0.01967,
				"method": "rhf"
			},
			{
				"type": "unocc",
				"energy": -0.0069,
				"method": "rhf"
			}
		],
		"cosmo_sigma_profile": { 
			"-0.025": 0.0,
			"-0.024": 0.0,
			"-0.023": 0.0,
			"-0.022": 0.0,
			"-0.021": 0.0,
			"-0.02": 0.0,
			"-0.019": 0.0,
			"-0.018": 0.0,
			"-0.017": 0.0,
			"-0.016": 0.0,
			"-0.015": 0.0,
			"-0.014": 0.0,
			"-0.013": 0.0,
			"-0.012": 0.00813072098392,
			"-0.011": 1.16817401885,
			"-0.01": 2.01998068884,
			"-0.009": 1.85946219104,
			"-0.008": 4.12637230187,
			"-0.007": 10.7750146952,
			"-0.006": 20.2690634817,
			"-0.005": 20.9652763767,
			"-0.004": 21.4643521862,
			"-0.003": 16.7247091606,
			"-0.002": 17.5970730918,
			"-0.001": 21.7904833677,
			"0.0": 27.7276575122,
			"0.001": 26.9865917634,
			"0.002": 28.9696795687,
			"0.003": 33.7434079925,
			"0.004": 26.699313871,
			"0.005": 10.5998191525,
			"0.006": 3.7690697662,
			"0.007": 2.18666699438,
			"0.008": 3.69511443559,
			"0.009": 3.06306144763,
			"0.01": 2.56375811058,
			"0.011": 3.42965540185,
			"0.012": 4.33795278413,
			"0.013": 1.37012434968,
			"0.014": 0.142510937149,
			"0.015": 0.0,
			"0.016": 0.0,
			"0.017": 0.0,
			"0.018": 0.0,
			"0.019": 0.0,
			"0.02": 0.0,
			"0.021": 0.0,
			"0.022": 0.0,
			"0.023": 0.0,
			"0.024": 0.0,
			"0.0": 0.0
		}
	}
}
