{
	 "smiles": "CN(C)P(=O)(N(C)C)N1C(N)=NC2=C1C=CC=C2", 
	 "Tm": 472.65, 
	 "num_atms": 36, 
	 "gaussian": { 
		 "optdone": 1, 
		 "sigma_profile": "yes", 
		 "theory": "DFT", 
		 "functional": "B3LYP", 
		 "basiset": "6-31G**", 
		 "properties": { 
			 "R2extent": 4942.2588, 
			 "electric_dipole_moment_norm": 4.08489262038, 
			 "electric_quadrupole_moment_norm": 12.0156199703, 
			 "total_energy": -1120.41835803, 
			 "HOMO_LUMO_gap": 0.19742, 
			 "cosmo_polarized_energy": -15.33, 
			 "cosmo_cavitation_energy": 37.69, 
			 "cosmo_dispersion_energy": -25.99, 
			 "cosmo_repulsion_energy": 1.96, 
			 "cosmo_total_nonelectrostatic_energy": 13.66, 
			 "SMD_solvation_energy": 6.33 
		},
		"coords": [
			{
				"x": 0.9918321806,
				"y": 1.0372816486,
				"z": -2.1591941835,
				"element": "C" 
			},
			{
				"x": 0.2429659176,
				"y": 1.2934667287,
				"z": -0.9240584477,
				"element": "N" 
			},
			{
				"x": -1.0716250821,
				"y": 1.8992736794,
				"z": -1.1397446984,
				"element": "C" 
			},
			{
				"x": 0.5618301249,
				"y": 0.3381135678,
				"z": 0.4113076653,
				"element": "P" 
			},
			{
				"x": 1.8708445917,
				"y": -0.3761893585,
				"z": 0.2798485293,
				"element": "O" 
			},
			{
				"x": 0.3144377839,
				"y": 1.3561825824,
				"z": 1.721111601,
				"element": "N" 
			},
			{
				"x": 0.9252269503,
				"y": 2.6924372984,
				"z": 1.6925684842,
				"element": "C" 
			},
			{
				"x": 0.3647292105,
				"y": 0.7502019486,
				"z": 3.0610913032,
				"element": "C" 
			},
			{
				"x": -0.6973485571,
				"y": -0.8302576419,
				"z": 0.6278717486,
				"element": "N" 
			},
			{
				"x": -0.6297317953,
				"y": -2.1723618644,
				"z": 0.174177426,
				"element": "C" 
			},
			{
				"x": 0.4889952564,
				"y": -2.6601736745,
				"z": -0.4290815902,
				"element": "N" 
			},
			{
				"x": -1.7393443403,
				"y": -2.845958369,
				"z": 0.3375884693,
				"element": "N" 
			},
			{
				"x": -2.6304988242,
				"y": -1.9505479139,
				"z": 0.9098177957,
				"element": "C" 
			},
			{
				"x": -2.0291549431,
				"y": -0.6849102307,
				"z": 1.1049312843,
				"element": "C" 
			},
			{
				"x": -2.7191349305,
				"y": 0.3738976914,
				"z": 1.6893791044,
				"element": "C" 
			},
			{
				"x": -4.0494385644,
				"y": 0.1493846973,
				"z": 2.0621387372,
				"element": "C" 
			},
			{
				"x": -4.659219571,
				"y": -1.0972425735,
				"z": 1.8651791018,
				"element": "C" 
			},
			{
				"x": -3.9579456098,
				"y": -2.1587926025,
				"z": 1.2922912596,
				"element": "C" 
			},
			{
				"x": 0.4458903856,
				"y": 0.362640713,
				"z": -2.8336361425,
				"element": "H" 
			},
			{
				"x": 1.1580332931,
				"y": 1.9871488496,
				"z": -2.6805403073,
				"element": "H" 
			},
			{
				"x": 1.9552077353,
				"y": 0.5905798121,
				"z": -1.9165977386,
				"element": "H" 
			},
			{
				"x": -1.5440369247,
				"y": 2.1445895573,
				"z": -0.1886389384,
				"element": "H" 
			},
			{
				"x": -1.7443624257,
				"y": 1.2335236359,
				"z": -1.6981538625,
				"element": "H" 
			},
			{
				"x": -0.9509103458,
				"y": 2.825932497,
				"z": -1.7124977058,
				"element": "H" 
			},
			{
				"x": 1.9731564393,
				"y": 2.6706273762,
				"z": 2.0231270165,
				"element": "H" 
			},
			{
				"x": 0.3661219312,
				"y": 3.3517662812,
				"z": 2.3654004561,
				"element": "H" 
			},
			{
				"x": 0.8858501816,
				"y": 3.1023876728,
				"z": 0.6838977299,
				"element": "H" 
			},
			{
				"x": -0.1183856414,
				"y": -0.2266643054,
				"z": 3.0589849654,
				"element": "H" 
			},
			{
				"x": -0.1754422845,
				"y": 1.3942208554,
				"z": 3.7625022588,
				"element": "H" 
			},
			{
				"x": 1.3984274258,
				"y": 0.6353529792,
				"z": 3.4140338276,
				"element": "H" 
			},
			{
				"x": 0.4957273008,
				"y": -3.6644045727,
				"z": -0.5233544545,
				"element": "H" 
			},
			{
				"x": 1.3619499236,
				"y": -2.181082238,
				"z": -0.2278020888,
				"element": "H" 
			},
			{
				"x": -2.2465848521,
				"y": 1.3332552548,
				"z": 1.8618432911,
				"element": "H" 
			},
			{
				"x": -4.6136111064,
				"y": 0.9587937366,
				"z": 2.5159847804,
				"element": "H" 
			},
			{
				"x": -5.6928593705,
				"y": -1.2394001924,
				"z": 2.1674823028,
				"element": "H" 
			},
			{
				"x": -4.4169914629,
				"y": -3.1304735266,
				"z": 1.1415410197,
				"element": "H" 
			}
		],
		 "valence_orbital": [ 
			{
				"type": "occ",
				"energy": -0.26467,
				"method": "rhf"
			},
			{
				"type": "occ",
				"energy": -0.25373,
				"method": "rhf"
			},
			{
				"type": "occ",
				"energy": -0.25223,
				"method": "rhf"
			},
			{
				"type": "occ",
				"energy": -0.22004,
				"method": "rhf"
			},
			{
				"type": "occ",
				"energy": -0.19181,
				"method": "rhf"
			},
			{
				"type": "unocc",
				"energy": 0.00561,
				"method": "rhf"
			},
			{
				"type": "unocc",
				"energy": 0.02068,
				"method": "rhf"
			},
			{
				"type": "unocc",
				"energy": 0.05782,
				"method": "rhf"
			},
			{
				"type": "unocc",
				"energy": 0.06611,
				"method": "rhf"
			},
			{
				"type": "unocc",
				"energy": 0.07894,
				"method": "rhf"
			}
		],
		"cosmo_sigma_profile": { 
			"-0.025": 0.0,
			"-0.024": 0.0,
			"-0.023": 0.0,
			"-0.022": 0.0,
			"-0.021": 0.0,
			"-0.02": 0.0,
			"-0.019": 0.0,
			"-0.018": 0.0,
			"-0.017": 0.0,
			"-0.016": 0.0,
			"-0.015": 0.00996469553235,
			"-0.014": 0.580220051632,
			"-0.013": 0.907016825985,
			"-0.012": 1.08623211935,
			"-0.011": 1.25010189173,
			"-0.01": 0.665031799649,
			"-0.009": 1.18153235629,
			"-0.008": 2.01808617695,
			"-0.007": 0.935632422461,
			"-0.006": 2.45189429084,
			"-0.005": 18.1122420573,
			"-0.004": 35.1870802886,
			"-0.003": 39.3003085607,
			"-0.002": 46.400805588,
			"-0.001": 28.9170790388,
			"0.0": 16.1733333521,
			"0.001": 13.6645638191,
			"0.002": 10.4283537726,
			"0.003": 10.7005935778,
			"0.004": 10.8524485967,
			"0.005": 10.7040516893,
			"0.006": 12.3893384291,
			"0.007": 7.15103834629,
			"0.008": 3.44746899479,
			"0.009": 3.45472434281,
			"0.01": 2.47949554065,
			"0.011": 2.31833554169,
			"0.012": 1.98799874034,
			"0.013": 2.89076623909,
			"0.014": 2.20045357987,
			"0.015": 3.36304128968,
			"0.016": 0.957376305534,
			"0.017": 0.877981423272,
			"0.018": 0.172803860505,
			"0.019": 0.0,
			"0.02": 0.0,
			"0.021": 0.0,
			"0.022": 0.0,
			"0.023": 0.0,
			"0.024": 0.0,
			"0.025": 0.0
		}
	}
}
