{
	 "smiles": "CC1=CC2=CC=CN=C2C(N)=C1", 
	 "Tm": 346.15, 
	 "num_atms": 22, 
	 "gaussian": { 
		 "optdone": 1, 
		 "sigma_profile": "yes", 
		 "theory": "DFT", 
		 "functional": "B3LYP", 
		 "basiset": "6-31G**", 
		 "properties": { 
			 "R2extent": 2378.8855, 
			 "electric_dipole_moment_norm": 1.03096098859, 
			 "electric_quadrupole_moment_norm": 11.635785044, 
			 "total_energy": -496.616327297, 
			 "HOMO_LUMO_gap": 0.14927, 
			 "cosmo_polarized_energy": -8.14, 
			 "cosmo_cavitation_energy": 25.17, 
			 "cosmo_dispersion_energy": -19.01, 
			 "cosmo_repulsion_energy": 1.5, 
			 "cosmo_total_nonelectrostatic_energy": 7.66, 
			 "SMD_solvation_energy": 3.16 
		},
		"coords": [
			{
				"x": -2.6217639285,
				"y": 1.6871709563,
				"z": 2.2162528404,
				"element": "C" 
			},
			{
				"x": -1.5003196461,
				"y": 1.508618195,
				"z": 1.2208140309,
				"element": "C" 
			},
			{
				"x": -1.0631315622,
				"y": 0.2503183088,
				"z": 0.8544469075,
				"element": "C" 
			},
			{
				"x": -0.0028130151,
				"y": 0.1034901073,
				"z": -0.0768223347,
				"element": "C" 
			},
			{
				"x": 0.5082153802,
				"y": -1.153234628,
				"z": -0.4913017573,
				"element": "C" 
			},
			{
				"x": 1.5522244664,
				"y": -1.2070203709,
				"z": -1.3871749701,
				"element": "C" 
			},
			{
				"x": 2.098967121,
				"y": 0.0048976132,
				"z": -1.8707114294,
				"element": "C" 
			},
			{
				"x": 1.6532251598,
				"y": 1.1963807234,
				"z": -1.5172833709,
				"element": "N" 
			},
			{
				"x": 0.6144578488,
				"y": 1.2600122673,
				"z": -0.6419246284,
				"element": "C" 
			},
			{
				"x": 0.1364344149,
				"y": 2.5664440752,
				"z": -0.2693332248,
				"element": "C" 
			},
			{
				"x": 0.7070901715,
				"y": 3.659918086,
				"z": -0.8846038135,
				"element": "N" 
			},
			{
				"x": -0.894485079,
				"y": 2.6590646284,
				"z": 0.6537701791,
				"element": "C" 
			},
			{
				"x": -2.2899661789,
				"y": 2.263071465,
				"z": 3.0884007586,
				"element": "H" 
			},
			{
				"x": -3.4617053679,
				"y": 2.2350595103,
				"z": 1.772931198,
				"element": "H" 
			},
			{
				"x": -2.9982833222,
				"y": 0.7246335011,
				"z": 2.5722202333,
				"element": "H" 
			},
			{
				"x": -1.5233358085,
				"y": -0.6385364566,
				"z": 1.2779092491,
				"element": "H" 
			},
			{
				"x": 0.0670401946,
				"y": -2.0632914656,
				"z": -0.0920934349,
				"element": "H" 
			},
			{
				"x": 1.9614736372,
				"y": -2.1557946094,
				"z": -1.72015531,
				"element": "H" 
			},
			{
				"x": 2.9335519631,
				"y": -0.0159346086,
				"z": -2.5702618011,
				"element": "H" 
			},
			{
				"x": 0.6744835603,
				"y": 4.5393788653,
				"z": -0.3925616975,
				"element": "H" 
			},
			{
				"x": 1.5720440858,
				"y": 3.4516032689,
				"z": -1.3665775918,
				"element": "H" 
			},
			{
				"x": -1.258304095,
				"y": 3.6428505675,
				"z": 0.9430599674,
				"element": "H" 
			}
		],
		 "valence_orbital": [ 
			{
				"type": "occ",
				"energy": -0.31078,
				"method": "rhf"
			},
			{
				"type": "occ",
				"energy": -0.26832,
				"method": "rhf"
			},
			{
				"type": "occ",
				"energy": -0.25413,
				"method": "rhf"
			},
			{
				"type": "occ",
				"energy": -0.23715,
				"method": "rhf"
			},
			{
				"type": "occ",
				"energy": -0.18806,
				"method": "rhf"
			},
			{
				"type": "unocc",
				"energy": -0.03879,
				"method": "rhf"
			},
			{
				"type": "unocc",
				"energy": -0.00754,
				"method": "rhf"
			},
			{
				"type": "unocc",
				"energy": 0.04276,
				"method": "rhf"
			},
			{
				"type": "unocc",
				"energy": 0.09059,
				"method": "rhf"
			},
			{
				"type": "unocc",
				"energy": 0.09959,
				"method": "rhf"
			}
		],
		"cosmo_sigma_profile": { 
			"-0.025": 0.0,
			"-0.024": 0.0,
			"-0.023": 0.0,
			"-0.022": 0.0,
			"-0.021": 0.0,
			"-0.02": 0.0,
			"-0.019": 0.0,
			"-0.018": 0.0,
			"-0.017": 0.0,
			"-0.016": 0.0,
			"-0.015": 0.0,
			"-0.014": 0.0,
			"-0.013": 0.356466407197,
			"-0.012": 1.11403463669,
			"-0.011": 1.7235319841,
			"-0.01": 1.2589466028,
			"-0.009": 2.12137747864,
			"-0.008": 2.56978679593,
			"-0.007": 3.56389730869,
			"-0.006": 8.69485468469,
			"-0.005": 13.5269625681,
			"-0.004": 15.6735235672,
			"-0.003": 14.2795569375,
			"-0.002": 14.0822777609,
			"-0.001": 14.1599557362,
			"0.0": 14.8796522463,
			"0.001": 11.6049617314,
			"0.002": 14.8154332493,
			"0.003": 20.068454141,
			"0.004": 12.8202322437,
			"0.005": 11.1052381777,
			"0.006": 9.3295475348,
			"0.007": 2.47824072588,
			"0.008": 3.25586777585,
			"0.009": 1.85273681054,
			"0.01": 2.09757638145,
			"0.011": 1.79176394695,
			"0.012": 0.536636245589,
			"0.013": 0.493614576479,
			"0.014": 0.152135710354,
			"0.015": 0.0,
			"0.016": 0.0,
			"0.017": 0.0,
			"0.018": 0.0,
			"0.019": 0.0,
			"0.02": 0.0,
			"0.021": 0.0,
			"0.022": 0.0,
			"0.023": 0.0,
			"0.024": 0.0,
			"0.025": 0.0
		}
	}
}
