{
	 "smiles": "[O-][N+](=O)N=C1NCCN1", 
	 "Tm": 493.15, 
	 "num_atms": 15, 
	 "gaussian": { 
		 "optdone": 1, 
		 "sigma_profile": "yes", 
		 "theory": "DFT", 
		 "functional": "B3LYP", 
		 "basiset": "6-31G**", 
		 "properties": { 
			 "R2extent": 1310.9811, 
			 "electric_dipole_moment_norm": 7.8856285875, 
			 "electric_quadrupole_moment_norm": 7.08077681049, 
			 "total_energy": -487.272658046, 
			 "HOMO_LUMO_gap": 0.20718, 
			 "cosmo_polarized_energy": -18.55, 
			 "cosmo_cavitation_energy": 19.15, 
			 "cosmo_dispersion_energy": -15.03, 
			 "cosmo_repulsion_energy": 1.27, 
			 "cosmo_total_nonelectrostatic_energy": 5.39, 
			 "SMD_solvation_energy": 2.77 
		},
		"coords": [
			{
				"x": 0.8641753903,
				"y": -2.0476414778,
				"z": -0.5313198494,
				"element": "O" 
			},
			{
				"x": 0.5900382695,
				"y": -1.728060453,
				"z": 0.6483702713,
				"element": "N" 
			},
			{
				"x": 0.9283062,
				"y": -2.3925686907,
				"z": 1.6176294225,
				"element": "O" 
			},
			{
				"x": -0.1137699481,
				"y": -0.5757188377,
				"z": 0.9439750968,
				"element": "N" 
			},
			{
				"x": -0.5711222441,
				"y": 0.1270549282,
				"z": -0.0778367543,
				"element": "C" 
			},
			{
				"x": -1.1916701189,
				"y": 1.3217956775,
				"z": 0.1751425189,
				"element": "N" 
			},
			{
				"x": -1.892677768,
				"y": 1.7854586528,
				"z": -1.0219232243,
				"element": "C" 
			},
			{
				"x": -1.0846164797,
				"y": 1.0763476172,
				"z": -2.1296250295,
				"element": "C" 
			},
			{
				"x": -0.5824222365,
				"y": -0.0936535519,
				"z": -1.4131660326,
				"element": "N" 
			},
			{
				"x": -1.5550884467,
				"y": 1.4700455932,
				"z": 1.1054537045,
				"element": "H" 
			},
			{
				"x": -2.9422951246,
				"y": 1.4597017345,
				"z": -1.0300774994,
				"element": "H" 
			},
			{
				"x": -1.8606830486,
				"y": 2.8736498601,
				"z": -1.1111904731,
				"element": "H" 
			},
			{
				"x": -1.7034194248,
				"y": 0.7898548657,
				"z": -2.9830802594,
				"element": "H" 
			},
			{
				"x": -0.2603289148,
				"y": 1.7080631079,
				"z": -2.4870356168,
				"element": "H" 
			},
			{
				"x": 0.0450738949,
				"y": -0.8042290258,
				"z": -1.7692162753,
				"element": "H" 
			}
		],
		 "valence_orbital": [ 
			{
				"type": "occ",
				"energy": -0.28761,
				"method": "rhf"
			},
			{
				"type": "occ",
				"energy": -0.2869,
				"method": "rhf"
			},
			{
				"type": "occ",
				"energy": -0.27246,
				"method": "rhf"
			},
			{
				"type": "occ",
				"energy": -0.26105,
				"method": "rhf"
			},
			{
				"type": "occ",
				"energy": -0.25415,
				"method": "rhf"
			},
			{
				"type": "unocc",
				"energy": -0.04697,
				"method": "rhf"
			},
			{
				"type": "unocc",
				"energy": 0.04927,
				"method": "rhf"
			},
			{
				"type": "unocc",
				"energy": 0.06163,
				"method": "rhf"
			},
			{
				"type": "unocc",
				"energy": 0.08857,
				"method": "rhf"
			},
			{
				"type": "unocc",
				"energy": 0.10206,
				"method": "rhf"
			}
		],
		"cosmo_sigma_profile": { 
			"-0.025": 0.0,
			"-0.024": 0.0,
			"-0.023": 0.0,
			"-0.022": 0.0,
			"-0.021": 0.0,
			"-0.02": 0.0,
			"-0.019": 0.0,
			"-0.018": 0.0,
			"-0.017": 0.0,
			"-0.016": 0.026450573335,
			"-0.015": 0.88749039147,
			"-0.014": 1.66899518829,
			"-0.013": 0.910152025069,
			"-0.012": 1.43413996031,
			"-0.011": 2.08011163652,
			"-0.01": 1.54444880659,
			"-0.009": 1.62219815087,
			"-0.008": 2.92927306847,
			"-0.007": 5.14856656767,
			"-0.006": 15.8275732675,
			"-0.005": 18.7788489637,
			"-0.004": 12.6047803988,
			"-0.003": 9.23716830817,
			"-0.002": 5.70954877274,
			"-0.001": 5.1394250066,
			"0.0": 3.86992157742,
			"0.001": 4.37944419968,
			"0.002": 4.30798587823,
			"0.003": 4.63881261639,
			"0.004": 3.93405975401,
			"0.005": 3.69890936657,
			"0.006": 3.66966009301,
			"0.007": 3.95488078873,
			"0.008": 4.35051447546,
			"0.009": 8.63415408402,
			"0.01": 6.68171662513,
			"0.011": 6.23346911393,
			"0.012": 3.77770790306,
			"0.013": 2.06812209119,
			"0.014": 1.50066271789,
			"0.015": 0.469471022218,
			"0.016": 0.0,
			"0.017": 0.0,
			"0.018": 0.0,
			"0.019": 0.0,
			"0.02": 0.0,
			"0.021": 0.0,
			"0.022": 0.0,
			"0.023": 0.0,
			"0.024": 0.0,
			"0.025": 0.0
		}
	}
}
