{
	 "smiles": "OC(=O)CC1C(=O)NC2=C1C=CC=C2", 
	 "Tm": 488.15, 
	 "num_atms": 23, 
	 "gaussian": { 
		 "optdone": 1, 
		 "sigma_profile": "yes", 
		 "theory": "DFT", 
		 "functional": "B3LYP", 
		 "basiset": "6-31G**", 
		 "properties": { 
			 "R2extent": 2973.8988, 
			 "electric_dipole_moment_norm": 3.00177028268, 
			 "electric_quadrupole_moment_norm": 12.0641987956, 
			 "total_energy": -666.947082681, 
			 "HOMO_LUMO_gap": 0.20319, 
			 "cosmo_polarized_energy": -17.48, 
			 "cosmo_cavitation_energy": 27.34, 
			 "cosmo_dispersion_energy": -19.46, 
			 "cosmo_repulsion_energy": 1.55, 
			 "cosmo_total_nonelectrostatic_energy": 9.43, 
			 "SMD_solvation_energy": 6.09 
		},
		"coords": [
			{
				"x": -2.0633581066,
				"y": 0.3115260797,
				"z": -1.1821623712,
				"element": "O" 
			},
			{
				"x": -1.9151544913,
				"y": -0.1647635526,
				"z": 0.0769692803,
				"element": "C" 
			},
			{
				"x": -2.2884578749,
				"y": 0.4444865288,
				"z": 1.053843309,
				"element": "O" 
			},
			{
				"x": -1.2708450164,
				"y": -1.5356719266,
				"z": 0.0999474134,
				"element": "C" 
			},
			{
				"x": -0.0532510325,
				"y": -1.7083294091,
				"z": -0.8270742224,
				"element": "C" 
			},
			{
				"x": -0.4501403764,
				"y": -1.8581303052,
				"z": -2.3139153805,
				"element": "C" 
			},
			{
				"x": -1.306621761,
				"y": -2.5866810148,
				"z": -2.7736919164,
				"element": "O" 
			},
			{
				"x": 0.3869917142,
				"y": -1.0220852411,
				"z": -3.0308604995,
				"element": "N" 
			},
			{
				"x": 1.2079548791,
				"y": -0.2477982217,
				"z": -2.2006273999,
				"element": "C" 
			},
			{
				"x": 0.9801460682,
				"y": -0.60435104,
				"z": -0.8588602142,
				"element": "C" 
			},
			{
				"x": 1.6819032961,
				"y": 0.0352600393,
				"z": 0.1523122646,
				"element": "C" 
			},
			{
				"x": 2.6111025248,
				"y": 1.0313316054,
				"z": -0.1844912163,
				"element": "C" 
			},
			{
				"x": 2.8283966908,
				"y": 1.3691873147,
				"z": -1.5210998513,
				"element": "C" 
			},
			{
				"x": 2.1284597537,
				"y": 0.7316510473,
				"z": -2.5540387439,
				"element": "C" 
			},
			{
				"x": -2.4853488202,
				"y": 1.1828265355,
				"z": -1.0965473217,
				"element": "H" 
			},
			{
				"x": -1.0079729148,
				"y": -1.7423304888,
				"z": 1.138875981,
				"element": "H" 
			},
			{
				"x": -2.0262628644,
				"y": -2.2692547158,
				"z": -0.2096417484,
				"element": "H" 
			},
			{
				"x": 0.4203858347,
				"y": -2.6618102087,
				"z": -0.5529014946,
				"element": "H" 
			},
			{
				"x": 0.2961296746,
				"y": -0.911362379,
				"z": -4.0300336767,
				"element": "H" 
			},
			{
				"x": 1.5135793502,
				"y": -0.2252600074,
				"z": 1.1937372298,
				"element": "H" 
			},
			{
				"x": 3.1630816465,
				"y": 1.5407019106,
				"z": 0.5990673008,
				"element": "H" 
			},
			{
				"x": 3.5514203319,
				"y": 2.1404338366,
				"z": -1.770231822,
				"element": "H" 
			},
			{
				"x": 2.2989614936,
				"y": 0.9989236132,
				"z": -3.5925749002,
				"element": "H" 
			}
		],
		 "valence_orbital": [ 
			{
				"type": "occ",
				"energy": -0.31154,
				"method": "rhf"
			},
			{
				"type": "occ",
				"energy": -0.27647,
				"method": "rhf"
			},
			{
				"type": "occ",
				"energy": -0.26092,
				"method": "rhf"
			},
			{
				"type": "occ",
				"energy": -0.25656,
				"method": "rhf"
			},
			{
				"type": "occ",
				"energy": -0.22111,
				"method": "rhf"
			},
			{
				"type": "unocc",
				"energy": -0.01792,
				"method": "rhf"
			},
			{
				"type": "unocc",
				"energy": -0.00695,
				"method": "rhf"
			},
			{
				"type": "unocc",
				"energy": 0.00371,
				"method": "rhf"
			},
			{
				"type": "unocc",
				"energy": 0.03529,
				"method": "rhf"
			},
			{
				"type": "unocc",
				"energy": 0.07667,
				"method": "rhf"
			}
		],
		"cosmo_sigma_profile": { 
			"-0.025": 0.0,
			"-0.024": 0.0,
			"-0.023": 0.0,
			"-0.022": 0.0,
			"-0.021": 0.0,
			"-0.02": 0.0,
			"-0.019": 0.183379723522,
			"-0.018": 0.744529963037,
			"-0.017": 0.95306060444,
			"-0.016": 1.57566964954,
			"-0.015": 1.96020581096,
			"-0.014": 1.7928525462,
			"-0.013": 1.12076490698,
			"-0.012": 2.06928406631,
			"-0.011": 1.90641672118,
			"-0.01": 2.20878820806,
			"-0.009": 1.93755851936,
			"-0.008": 3.06807521807,
			"-0.007": 7.61253513785,
			"-0.006": 16.1069724684,
			"-0.005": 16.015954811,
			"-0.004": 15.670256808,
			"-0.003": 12.7061659381,
			"-0.002": 10.9089113293,
			"-0.001": 8.78834068907,
			"0.0": 9.57385246324,
			"0.001": 10.6594984153,
			"0.002": 10.6552517703,
			"0.003": 10.6685345511,
			"0.004": 12.0008970638,
			"0.005": 13.2272771312,
			"0.006": 8.05065860696,
			"0.007": 3.21556866015,
			"0.008": 3.99558755145,
			"0.009": 3.06706882937,
			"0.01": 3.6664071112,
			"0.011": 6.25307923488,
			"0.012": 8.27856589067,
			"0.013": 5.82405704548,
			"0.014": 0.684414612513,
			"0.015": 0.0,
			"0.016": 0.0,
			"0.017": 0.0,
			"0.018": 0.0,
			"0.019": 0.0,
			"0.02": 0.0,
			"0.021": 0.0,
			"0.022": 0.0,
			"0.023": 0.0,
			"0.024": 0.0,
			"0.025": 0.0
		}
	}
}
