{
	 "smiles": "CC(=O)OCC(CCN1C=NC2=C1N=C(N)N=C2)COC(C)=O", 
	 "Tm": 376.15, 
	 "num_atms": 42, 
	 "gaussian": { 
		 "optdone": 1, 
		 "sigma_profile": "yes", 
		 "theory": "DFT", 
		 "functional": "B3LYP", 
		 "basiset": "6-31G**", 
		 "properties": { 
			 "R2extent": 9143.8425, 
			 "electric_dipole_moment_norm": 3.56556296116, 
			 "electric_quadrupole_moment_norm": 29.8561923081, 
			 "total_energy": -1119.65137466, 
			 "HOMO_LUMO_gap": 0.17779, 
			 "cosmo_polarized_energy": -21.58, 
			 "cosmo_cavitation_energy": 45.33, 
			 "cosmo_dispersion_energy": -30.4, 
			 "cosmo_repulsion_energy": 2.31, 
			 "cosmo_total_nonelectrostatic_energy": 17.23, 
			 "SMD_solvation_energy": 5.78 
		},
		"coords": [
			{
				"x": -2.5154215854,
				"y": -4.3427840628,
				"z": -2.0053082924,
				"element": "C" 
			},
			{
				"x": -2.7043902304,
				"y": -3.012054532,
				"z": -1.3176636636,
				"element": "C" 
			},
			{
				"x": -3.4371403346,
				"y": -2.8042398356,
				"z": -0.3750672773,
				"element": "O" 
			},
			{
				"x": -1.9452214847,
				"y": -2.0544139381,
				"z": -1.9075037155,
				"element": "O" 
			},
			{
				"x": -2.0702528689,
				"y": -0.7170537229,
				"z": -1.3757646447,
				"element": "C" 
			},
			{
				"x": -1.1813565715,
				"y": -0.5043683179,
				"z": -0.1429412542,
				"element": "C" 
			},
			{
				"x": 0.3133684353,
				"y": -0.7034535493,
				"z": -0.4678145649,
				"element": "C" 
			},
			{
				"x": 1.1540369547,
				"y": -1.0275951214,
				"z": 0.7823595684,
				"element": "C" 
			},
			{
				"x": 2.545633157,
				"y": -0.6119156109,
				"z": 0.6586661449,
				"element": "N" 
			},
			{
				"x": 3.6934488342,
				"y": -1.3779009169,
				"z": 0.4955013501,
				"element": "C" 
			},
			{
				"x": 4.8032380434,
				"y": -0.6867559973,
				"z": 0.4584681688,
				"element": "N" 
			},
			{
				"x": 4.3843283008,
				"y": 0.6302380953,
				"z": 0.606895643,
				"element": "C" 
			},
			{
				"x": 2.9818617645,
				"y": 0.6899338666,
				"z": 0.7293372964,
				"element": "C" 
			},
			{
				"x": 2.2398915139,
				"y": 1.7804667971,
				"z": 0.890242481,
				"element": "N" 
			},
			{
				"x": 2.9847572119,
				"y": 2.9033393591,
				"z": 0.939012268,
				"element": "C" 
			},
			{
				"x": 2.3070840642,
				"y": 4.0865448829,
				"z": 1.0549093073,
				"element": "N" 
			},
			{
				"x": 4.3382141515,
				"y": 2.9910268389,
				"z": 0.850277252,
				"element": "N" 
			},
			{
				"x": 5.0326325162,
				"y": 1.8641493853,
				"z": 0.6835070432,
				"element": "C" 
			},
			{
				"x": -1.4522458456,
				"y": 0.8750801085,
				"z": 0.4671731286,
				"element": "C" 
			},
			{
				"x": -1.182421736,
				"y": 1.8750036501,
				"z": -0.5437662989,
				"element": "O" 
			},
			{
				"x": -0.8018910181,
				"y": 3.0990409295,
				"z": -0.1191983722,
				"element": "C" 
			},
			{
				"x": -0.440474761,
				"y": 4.0030879866,
				"z": -1.271192151,
				"element": "C" 
			},
			{
				"x": -0.7457410756,
				"y": 3.4193644018,
				"z": 1.0520909034,
				"element": "O" 
			},
			{
				"x": -2.8812585985,
				"y": -4.2819757608,
				"z": -3.0349473617,
				"element": "H" 
			},
			{
				"x": -3.0656814062,
				"y": -5.1119907595,
				"z": -1.4645620421,
				"element": "H" 
			},
			{
				"x": -1.4536054914,
				"y": -4.5998746813,
				"z": -2.0529424935,
				"element": "H" 
			},
			{
				"x": -3.1178331216,
				"y": -0.5314266222,
				"z": -1.1245681554,
				"element": "H" 
			},
			{
				"x": -1.7682258878,
				"y": -0.0603686952,
				"z": -2.1933666893,
				"element": "H" 
			},
			{
				"x": -1.5006045129,
				"y": -1.239062825,
				"z": 0.6083272653,
				"element": "H" 
			},
			{
				"x": 0.6951272827,
				"y": 0.2135000141,
				"z": -0.9257382304,
				"element": "H" 
			},
			{
				"x": 0.4292721328,
				"y": -1.5050195734,
				"z": -1.2038079484,
				"element": "H" 
			},
			{
				"x": 0.7457067517,
				"y": -0.5146240911,
				"z": 1.6590934515,
				"element": "H" 
			},
			{
				"x": 1.1408832352,
				"y": -2.0998835664,
				"z": 0.9993878174,
				"element": "H" 
			},
			{
				"x": 3.627820218,
				"y": -2.4560413536,
				"z": 0.4147267276,
				"element": "H" 
			},
			{
				"x": 2.8571230437,
				"y": 4.88853701,
				"z": 1.3188632414,
				"element": "H" 
			},
			{
				"x": 1.3390404601,
				"y": 4.0412699399,
				"z": 1.3503591911,
				"element": "H" 
			},
			{
				"x": 6.1157290932,
				"y": 1.951991993,
				"z": 0.6159908949,
				"element": "H" 
			},
			{
				"x": -0.8206583894,
				"y": 1.0777047512,
				"z": 1.3341976746,
				"element": "H" 
			},
			{
				"x": -2.4994264894,
				"y": 0.9717816914,
				"z": 0.7748309526,
				"element": "H" 
			},
			{
				"x": 0.6359345056,
				"y": 4.1967242629,
				"z": -1.2223745164,
				"element": "H" 
			},
			{
				"x": -0.9533895298,
				"y": 4.9602292206,
				"z": -1.1488054763,
				"element": "H" 
			},
			{
				"x": -0.6924907319,
				"y": 3.560888349,
				"z": -2.2350846232,
				"element": "H" 
			}
		],
		 "valence_orbital": [ 
			{
				"type": "occ",
				"energy": -0.27995,
				"method": "rhf"
			},
			{
				"type": "occ",
				"energy": -0.2783,
				"method": "rhf"
			},
			{
				"type": "occ",
				"energy": -0.25778,
				"method": "rhf"
			},
			{
				"type": "occ",
				"energy": -0.24031,
				"method": "rhf"
			},
			{
				"type": "occ",
				"energy": -0.20746,
				"method": "rhf"
			},
			{
				"type": "unocc",
				"energy": -0.02967,
				"method": "rhf"
			},
			{
				"type": "unocc",
				"energy": 0.00216,
				"method": "rhf"
			},
			{
				"type": "unocc",
				"energy": 0.00354,
				"method": "rhf"
			},
			{
				"type": "unocc",
				"energy": 0.01705,
				"method": "rhf"
			},
			{
				"type": "unocc",
				"energy": 0.04777,
				"method": "rhf"
			}
		],
		"cosmo_sigma_profile": { 
			"-0.025": 0.0,
			"-0.024": 0.0,
			"-0.023": 0.0,
			"-0.022": 0.0,
			"-0.021": 0.0,
			"-0.02": 0.0,
			"-0.019": 0.0,
			"-0.018": 0.0,
			"-0.017": 0.0,
			"-0.016": 0.0,
			"-0.015": 0.0,
			"-0.014": 0.0229425086056,
			"-0.013": 0.996269332197,
			"-0.012": 0.929352883867,
			"-0.011": 0.626558408532,
			"-0.01": 2.38835270251,
			"-0.009": 4.34129395108,
			"-0.008": 4.2805116529,
			"-0.007": 11.425156532,
			"-0.006": 22.3733892848,
			"-0.005": 27.7059567562,
			"-0.004": 28.9103508507,
			"-0.003": 29.1592020754,
			"-0.002": 34.0536064914,
			"-0.001": 29.8298417433,
			"0.0": 24.6381014329,
			"0.001": 22.352864179,
			"0.002": 16.7191601623,
			"0.003": 14.326010807,
			"0.004": 12.4618425876,
			"0.005": 10.9502308238,
			"0.006": 8.32160130699,
			"0.007": 7.02908807598,
			"0.008": 8.66260942462,
			"0.009": 6.07331834858,
			"0.01": 5.8279677623,
			"0.011": 8.52813392407,
			"0.012": 7.31664810069,
			"0.013": 2.73690694595,
			"0.014": 1.90223524219,
			"0.015": 1.62826962722,
			"0.016": 1.47814665473,
			"0.017": 0.537283414041,
			"0.018": 0.00155478847372,
			"0.019": 0.0,
			"0.02": 0.0,
			"0.021": 0.0,
			"0.022": 0.0,
			"0.023": 0.0,
			"0.024": 0.0,
			"0.025": 0.0
		}
	}
}
