{
	 "smiles": "OC(=O)CNC(=O)C12CC3CC(CC(C3)C1)C2", 
	 "Tm": 419.15, 
	 "num_atms": 36, 
	 "gaussian": { 
		 "optdone": 1, 
		 "sigma_profile": "yes", 
		 "theory": "DFT", 
		 "functional": "B3LYP", 
		 "basiset": "6-31G**", 
		 "properties": { 
			 "R2extent": 4754.5167, 
			 "electric_dipole_moment_norm": 1.7876970297, 
			 "electric_quadrupole_moment_norm": 16.8720552557, 
			 "total_energy": -787.299091112, 
			 "HOMO_LUMO_gap": 0.24744, 
			 "cosmo_polarized_energy": -17.29, 
			 "cosmo_cavitation_energy": 33.57, 
			 "cosmo_dispersion_energy": -24.44, 
			 "cosmo_repulsion_energy": 1.86, 
			 "cosmo_total_nonelectrostatic_energy": 10.98, 
			 "SMD_solvation_energy": 5.95 
		},
		"coords": [
			{
				"x": -0.6573332138,
				"y": -0.4590743416,
				"z": -3.6239521934,
				"element": "O" 
			},
			{
				"x": 0.5225937473,
				"y": -0.9645848905,
				"z": -3.2145130225,
				"element": "C" 
			},
			{
				"x": 1.5678836216,
				"y": -0.3807952415,
				"z": -3.356699543,
				"element": "O" 
			},
			{
				"x": 0.4406552264,
				"y": -2.3660591507,
				"z": -2.5894041566,
				"element": "C" 
			},
			{
				"x": -0.9123139866,
				"y": -2.7727835209,
				"z": -2.212153477,
				"element": "N" 
			},
			{
				"x": -1.5733644357,
				"y": -2.7348292822,
				"z": -0.9711959178,
				"element": "C" 
			},
			{
				"x": -2.4724139826,
				"y": -3.548636952,
				"z": -0.8138356206,
				"element": "O" 
			},
			{
				"x": -1.3280379292,
				"y": -1.6289145421,
				"z": 0.0780839397,
				"element": "C" 
			},
			{
				"x": -1.8518932346,
				"y": -2.1601473443,
				"z": 1.440423517,
				"element": "C" 
			},
			{
				"x": -1.7931615973,
				"y": -1.0620555454,
				"z": 2.5178210541,
				"element": "C" 
			},
			{
				"x": -2.6643404788,
				"y": 0.1331460439,
				"z": 2.0803581872,
				"element": "C" 
			},
			{
				"x": -2.1337616161,
				"y": 0.6926655434,
				"z": 0.745157955,
				"element": "C" 
			},
			{
				"x": -0.6725061602,
				"y": 1.1511437078,
				"z": 0.9251131564,
				"element": "C" 
			},
			{
				"x": 0.191077805,
				"y": -0.0486807337,
				"z": 1.3657750368,
				"element": "C" 
			},
			{
				"x": -0.3348826261,
				"y": -0.6014509794,
				"z": 2.7029173664,
				"element": "C" 
			},
			{
				"x": 0.1325538779,
				"y": -1.1420609402,
				"z": 0.2734984601,
				"element": "C" 
			},
			{
				"x": -2.200721449,
				"y": -0.4029686905,
				"z": -0.3397170398,
				"element": "C" 
			},
			{
				"x": -1.346982563,
				"y": -1.0971890397,
				"z": -3.3562537331,
				"element": "H" 
			},
			{
				"x": 0.7960157824,
				"y": -3.0637465927,
				"z": -3.3552265492,
				"element": "H" 
			},
			{
				"x": 1.1565285882,
				"y": -2.4181564583,
				"z": -1.7699854179,
				"element": "H" 
			},
			{
				"x": -1.2631033584,
				"y": -3.5828041005,
				"z": -2.711800596,
				"element": "H" 
			},
			{
				"x": -1.2504238647,
				"y": -3.0252902843,
				"z": 1.7476542917,
				"element": "H" 
			},
			{
				"x": -2.8742850743,
				"y": -2.5232229357,
				"z": 1.311816052,
				"element": "H" 
			},
			{
				"x": -2.1761279716,
				"y": -1.4709274955,
				"z": 3.4611903176,
				"element": "H" 
			},
			{
				"x": -2.6464416591,
				"y": 0.9167048001,
				"z": 2.8488459124,
				"element": "H" 
			},
			{
				"x": -3.7096460745,
				"y": -0.1829126098,
				"z": 1.9697425744,
				"element": "H" 
			},
			{
				"x": -2.7515171716,
				"y": 1.5411596481,
				"z": 0.4253586414,
				"element": "H" 
			},
			{
				"x": -0.287315182,
				"y": 1.5705571994,
				"z": -0.0132253222,
				"element": "H" 
			},
			{
				"x": -0.6183853557,
				"y": 1.9485689225,
				"z": 1.6771209465,
				"element": "H" 
			},
			{
				"x": 1.2343030922,
				"y": 0.270919165,
				"z": 1.4787822899,
				"element": "H" 
			},
			{
				"x": -0.2725931157,
				"y": 0.1714455395,
				"z": 3.4798122539,
				"element": "H" 
			},
			{
				"x": 0.287495193,
				"y": -1.4417623359,
				"z": 3.0378371714,
				"element": "H" 
			},
			{
				"x": 0.7779200177,
				"y": -1.9849378438,
				"z": 0.5555008992,
				"element": "H" 
			},
			{
				"x": 0.5390486442,
				"y": -0.7082204481,
				"z": -0.6436703508,
				"element": "H" 
			},
			{
				"x": -1.8463985315,
				"y": 0.0007306098,
				"z": -1.2958355017,
				"element": "H" 
			},
			{
				"x": -3.2368249639,
				"y": -0.7322288804,
				"z": -0.4839415815,
				"element": "H" 
			}
		],
		 "valence_orbital": [ 
			{
				"type": "occ",
				"energy": -0.30039,
				"method": "rhf"
			},
			{
				"type": "occ",
				"energy": -0.28657,
				"method": "rhf"
			},
			{
				"type": "occ",
				"energy": -0.28519,
				"method": "rhf"
			},
			{
				"type": "occ",
				"energy": -0.26986,
				"method": "rhf"
			},
			{
				"type": "occ",
				"energy": -0.25571,
				"method": "rhf"
			},
			{
				"type": "unocc",
				"energy": -0.00827,
				"method": "rhf"
			},
			{
				"type": "unocc",
				"energy": 0.00239,
				"method": "rhf"
			},
			{
				"type": "unocc",
				"energy": 0.05423,
				"method": "rhf"
			},
			{
				"type": "unocc",
				"energy": 0.06955,
				"method": "rhf"
			},
			{
				"type": "unocc",
				"energy": 0.09637,
				"method": "rhf"
			}
		],
		"cosmo_sigma_profile": { 
			"-0.025": 0.0,
			"-0.024": 0.0,
			"-0.023": 0.0,
			"-0.022": 0.0,
			"-0.021": 0.0,
			"-0.02": 0.000961347089688,
			"-0.019": 0.0418341462609,
			"-0.018": 0.192406499655,
			"-0.017": 0.063624196397,
			"-0.016": 0.00629310940201,
			"-0.015": 0.0429277545091,
			"-0.014": 1.23965550606,
			"-0.013": 2.35089789846,
			"-0.012": 2.33902721238,
			"-0.011": 3.85269962521,
			"-0.01": 4.17326308092,
			"-0.009": 4.59563588267,
			"-0.008": 2.79477944699,
			"-0.007": 5.72842157386,
			"-0.006": 5.70378686469,
			"-0.005": 6.46989855982,
			"-0.004": 8.41549252524,
			"-0.003": 12.8142847842,
			"-0.002": 37.8469253239,
			"-0.001": 42.5656445579,
			"0.0": 34.7393181983,
			"0.001": 20.9657583033,
			"0.002": 7.29681601069,
			"0.003": 4.10010473304,
			"0.004": 3.23078412997,
			"0.005": 2.83495290506,
			"0.006": 4.07794205452,
			"0.007": 3.79250859444,
			"0.008": 3.31209293926,
			"0.009": 5.14678642849,
			"0.01": 6.57600920895,
			"0.011": 5.99806375898,
			"0.012": 8.35860979475,
			"0.013": 6.96168106213,
			"0.014": 0.627341294553,
			"0.015": 0.0,
			"0.016": 0.0,
			"0.017": 0.0,
			"0.018": 0.0,
			"0.019": 0.0,
			"0.02": 0.0,
			"0.021": 0.0,
			"0.022": 0.0,
			"0.023": 0.0,
			"0.024": 0.0,
			"0.0": 0.0
		}
	}
}
