{
	 "smiles": "CCCCCCCOC1=CC=C(O)C=C1", 
	 "Tm": 334.65, 
	 "num_atms": 35, 
	 "gaussian": { 
		 "optdone": 1, 
		 "sigma_profile": "yes", 
		 "theory": "DFT", 
		 "functional": "B3LYP", 
		 "basiset": "6-31G**", 
		 "properties": { 
			 "R2extent": 4902.5366, 
			 "electric_dipole_moment_norm": 0.528477757337, 
			 "electric_quadrupole_moment_norm": 12.6537086888, 
			 "total_energy": -657.889164632, 
			 "HOMO_LUMO_gap": 0.19567, 
			 "cosmo_polarized_energy": -9.44, 
			 "cosmo_cavitation_energy": 36.9, 
			 "cosmo_dispersion_energy": -25.32, 
			 "cosmo_repulsion_energy": 2.01, 
			 "cosmo_total_nonelectrostatic_energy": 13.59, 
			 "SMD_solvation_energy": 6.02 
		},
		"coords": [
			{
				"x": -0.2431060848,
				"y": 3.4127214047,
				"z": 1.625898034,
				"element": "C" 
			},
			{
				"x": 0.8938003676,
				"y": 3.2431967394,
				"z": 2.640808287,
				"element": "C" 
			},
			{
				"x": 1.5101366517,
				"y": 1.83438439,
				"z": 2.6772949566,
				"element": "C" 
			},
			{
				"x": 2.2549709832,
				"y": 1.4378534635,
				"z": 1.3939890133,
				"element": "C" 
			},
			{
				"x": 3.0583898433,
				"y": 0.1298197781,
				"z": 1.5103804229,
				"element": "C" 
			},
			{
				"x": 2.2623226303,
				"y": -1.1574374053,
				"z": 1.7941910962,
				"element": "C" 
			},
			{
				"x": 1.3600822689,
				"y": -1.6478083642,
				"z": 0.6666839807,
				"element": "C" 
			},
			{
				"x": 0.2275533498,
				"y": -0.7879966427,
				"z": 0.5611887651,
				"element": "O" 
			},
			{
				"x": -0.7211728817,
				"y": -1.0733302599,
				"z": -0.3867950518,
				"element": "C" 
			},
			{
				"x": -1.8161917989,
				"y": -0.2016062979,
				"z": -0.4398728063,
				"element": "C" 
			},
			{
				"x": -2.8353544084,
				"y": -0.403286704,
				"z": -1.3650130092,
				"element": "C" 
			},
			{
				"x": -2.7777124219,
				"y": -1.482402216,
				"z": -2.2555507334,
				"element": "C" 
			},
			{
				"x": -3.7523144309,
				"y": -1.7308625918,
				"z": -3.1880964707,
				"element": "O" 
			},
			{
				"x": -1.6880917698,
				"y": -2.3516173774,
				"z": -2.2053793954,
				"element": "C" 
			},
			{
				"x": -0.6629307411,
				"y": -2.1519000343,
				"z": -1.2780171109,
				"element": "C" 
			},
			{
				"x": -0.6640393592,
				"y": 4.4229481788,
				"z": 1.669120981,
				"element": "H" 
			},
			{
				"x": -1.0563876036,
				"y": 2.705524743,
				"z": 1.8281850762,
				"element": "H" 
			},
			{
				"x": 0.0964750453,
				"y": 3.2411611478,
				"z": 0.5995203185,
				"element": "H" 
			},
			{
				"x": 0.5149286229,
				"y": 3.4876797724,
				"z": 3.6416754606,
				"element": "H" 
			},
			{
				"x": 1.6840173784,
				"y": 3.9769978955,
				"z": 2.4289907444,
				"element": "H" 
			},
			{
				"x": 2.208547769,
				"y": 1.7795774056,
				"z": 3.5247066809,
				"element": "H" 
			},
			{
				"x": 0.7166671431,
				"y": 1.1042193453,
				"z": 2.8826331894,
				"element": "H" 
			},
			{
				"x": 2.9583337208,
				"y": 2.2415021778,
				"z": 1.1330046452,
				"element": "H" 
			},
			{
				"x": 1.5477517266,
				"y": 1.358275344,
				"z": 0.5629973956,
				"element": "H" 
			},
			{
				"x": 3.6338368091,
				"y": -0.0168669303,
				"z": 0.5855972752,
				"element": "H" 
			},
			{
				"x": 3.802156741,
				"y": 0.2473831036,
				"z": 2.3105774203,
				"element": "H" 
			},
			{
				"x": 2.9775211368,
				"y": -1.9654709037,
				"z": 1.9963742805,
				"element": "H" 
			},
			{
				"x": 1.6572224065,
				"y": -1.0516528468,
				"z": 2.7020158453,
				"element": "H" 
			},
			{
				"x": 1.0228790892,
				"y": -2.6738867332,
				"z": 0.8753923334,
				"element": "H" 
			},
			{
				"x": 1.9101148629,
				"y": -1.6650707381,
				"z": -0.2870477899,
				"element": "H" 
			},
			{
				"x": -1.8518814118,
				"y": 0.6322298512,
				"z": 0.2535051698,
				"element": "H" 
			},
			{
				"x": -3.6794110318,
				"y": 0.2831193088,
				"z": -1.3938073024,
				"element": "H" 
			},
			{
				"x": -4.4387184074,
				"y": -1.0563555231,
				"z": -3.1106045364,
				"element": "H" 
			},
			{
				"x": -1.6497307489,
				"y": -3.1851984986,
				"z": -2.8989974692,
				"element": "H" 
			},
			{
				"x": 0.1712345538,
				"y": -2.8429439823,
				"z": -1.2636496964,
				"element": "H" 
			}
		],
		 "valence_orbital": [ 
			{
				"type": "occ",
				"energy": -0.3063,
				"method": "rhf"
			},
			{
				"type": "occ",
				"energy": -0.3016,
				"method": "rhf"
			},
			{
				"type": "occ",
				"energy": -0.28725,
				"method": "rhf"
			},
			{
				"type": "occ",
				"energy": -0.24922,
				"method": "rhf"
			},
			{
				"type": "occ",
				"energy": -0.19614,
				"method": "rhf"
			},
			{
				"type": "unocc",
				"energy": -0.00047,
				"method": "rhf"
			},
			{
				"type": "unocc",
				"energy": 0.03005,
				"method": "rhf"
			},
			{
				"type": "unocc",
				"energy": 0.07417,
				"method": "rhf"
			},
			{
				"type": "unocc",
				"energy": 0.08495,
				"method": "rhf"
			},
			{
				"type": "unocc",
				"energy": 0.09038,
				"method": "rhf"
			}
		],
		"cosmo_sigma_profile": { 
			"-0.025": 0.0,
			"-0.024": 0.0,
			"-0.023": 0.0,
			"-0.022": 0.0,
			"-0.021": 0.0,
			"-0.02": 0.0,
			"-0.019": 0.0,
			"-0.018": 0.0430508609139,
			"-0.017": 1.13881713722,
			"-0.016": 0.875232615247,
			"-0.015": 1.11849548769,
			"-0.014": 1.60725295432,
			"-0.013": 0.454562627882,
			"-0.012": 0.750481722508,
			"-0.011": 0.755056830472,
			"-0.01": 1.18244862075,
			"-0.009": 1.28611448229,
			"-0.008": 0.975905898337,
			"-0.007": 1.36060332962,
			"-0.006": 4.17585652905,
			"-0.005": 8.5344471039,
			"-0.004": 15.4648058736,
			"-0.003": 20.8718399685,
			"-0.002": 29.2739647373,
			"-0.001": 36.9592303383,
			"0.0": 41.6114212263,
			"0.001": 36.6672715509,
			"0.002": 18.5785476389,
			"0.003": 9.73441594078,
			"0.004": 14.7007209832,
			"0.005": 15.927036424,
			"0.006": 10.422366475,
			"0.007": 3.29234427683,
			"0.008": 2.67059115387,
			"0.009": 1.37254708942,
			"0.01": 1.66516039552,
			"0.011": 2.08442473304,
			"0.012": 1.60342643778,
			"0.013": 0.0826831635337,
			"0.014": 0.0,
			"0.015": 0.0,
			"0.016": 0.0,
			"0.017": 0.0,
			"0.018": 0.0,
			"0.019": 0.0,
			"0.02": 0.0,
			"0.021": 0.0,
			"0.022": 0.0,
			"0.023": 0.0,
			"0.024": 0.0,
			"0.025": 0.0
		}
	}
}
