{
	 "smiles": "COC1=CC=CC=C1N1CCN(CCCC(=O)C2=CC=C(F)C=C2)CC1", 
	 "Tm": 340.65, 
	 "num_atms": 51, 
	 "gaussian": { 
		 "optdone": 1, 
		 "sigma_profile": "yes", 
		 "theory": "DFT", 
		 "functional": "B3LYP", 
		 "basiset": "6-31G**", 
		 "properties": { 
			 "R2extent": 9029.4434, 
			 "electric_dipole_moment_norm": 2.91556462628, 
			 "electric_quadrupole_moment_norm": 8.28120188137, 
			 "total_energy": -1175.05376299, 
			 "HOMO_LUMO_gap": 0.12973, 
			 "cosmo_polarized_energy": -13.85, 
			 "cosmo_cavitation_energy": 50.71, 
			 "cosmo_dispersion_energy": -32.32, 
			 "cosmo_repulsion_energy": 2.39, 
			 "cosmo_total_nonelectrostatic_energy": 20.78, 
			 "SMD_solvation_energy": 7.56 
		},
		"coords": [
			{
				"x": -2.5380260758,
				"y": 3.895824793,
				"z": 2.4425812684,
				"element": "C" 
			},
			{
				"x": -2.2963102669,
				"y": 2.50763551,
				"z": 2.306526971,
				"element": "O" 
			},
			{
				"x": -1.0031530991,
				"y": 2.0586767341,
				"z": 2.3991493545,
				"element": "C" 
			},
			{
				"x": 0.0871823165,
				"y": 2.8958020503,
				"z": 2.6368350136,
				"element": "C" 
			},
			{
				"x": 1.3744648271,
				"y": 2.3673611526,
				"z": 2.7907596834,
				"element": "C" 
			},
			{
				"x": 1.563823017,
				"y": 0.9933941772,
				"z": 2.6978969882,
				"element": "C" 
			},
			{
				"x": 0.4792241699,
				"y": 0.1539168346,
				"z": 2.4269659524,
				"element": "C" 
			},
			{
				"x": -0.8241257064,
				"y": 0.6517118827,
				"z": 2.2662327909,
				"element": "C" 
			},
			{
				"x": -1.9326370652,
				"y": -0.1769407699,
				"z": 2.0421774356,
				"element": "N" 
			},
			{
				"x": -1.8521612734,
				"y": -1.602458108,
				"z": 2.322458307,
				"element": "C" 
			},
			{
				"x": -1.5151726938,
				"y": -2.4589318555,
				"z": 1.0863313166,
				"element": "C" 
			},
			{
				"x": -2.2097539174,
				"y": -1.946794881,
				"z": -0.1098461676,
				"element": "N" 
			},
			{
				"x": -2.4905465944,
				"y": -2.9858965878,
				"z": -1.0934407483,
				"element": "C" 
			},
			{
				"x": -1.2387889676,
				"y": -3.4643241411,
				"z": -1.8433871563,
				"element": "C" 
			},
			{
				"x": -0.5661144096,
				"y": -2.3418807135,
				"z": -2.6473705886,
				"element": "C" 
			},
			{
				"x": 0.2769629964,
				"y": -1.408237602,
				"z": -1.779423801,
				"element": "C" 
			},
			{
				"x": 0.9618725769,
				"y": -1.8730500965,
				"z": -0.8755007596,
				"element": "O" 
			},
			{
				"x": 0.3247398815,
				"y": 0.0585941907,
				"z": -2.0811007765,
				"element": "C" 
			},
			{
				"x": -0.2220146642,
				"y": 0.6317460276,
				"z": -3.2408314965,
				"element": "C" 
			},
			{
				"x": -0.1243701878,
				"y": 2.0021851309,
				"z": -3.4760339525,
				"element": "C" 
			},
			{
				"x": 0.5149104618,
				"y": 2.7963472724,
				"z": -2.5301373265,
				"element": "C" 
			},
			{
				"x": 0.5992513292,
				"y": 4.1241703141,
				"z": -2.7466764922,
				"element": "F" 
			},
			{
				"x": 1.0679823309,
				"y": 2.2649160016,
				"z": -1.3682546267,
				"element": "C" 
			},
			{
				"x": 0.9775828279,
				"y": 0.8942282036,
				"z": -1.1576074947,
				"element": "C" 
			},
			{
				"x": -3.3559488895,
				"y": -1.1105050154,
				"z": 0.2322079699,
				"element": "C" 
			},
			{
				"x": -2.8883509032,
				"y": 0.1549533937,
				"z": 0.9682863526,
				"element": "C" 
			},
			{
				"x": -3.6174086003,
				"y": 4.0253144569,
				"z": 2.3444459484,
				"element": "H" 
			},
			{
				"x": -2.0335338283,
				"y": 4.4774370222,
				"z": 1.6595150023,
				"element": "H" 
			},
			{
				"x": -2.2191707159,
				"y": 4.2700877952,
				"z": 3.4244319915,
				"element": "H" 
			},
			{
				"x": -0.0625920283,
				"y": 3.9646878882,
				"z": 2.7334438936,
				"element": "H" 
			},
			{
				"x": 2.2085903955,
				"y": 3.0327612261,
				"z": 2.9918641487,
				"element": "H" 
			},
			{
				"x": 2.5541311676,
				"y": 0.5630589836,
				"z": 2.8146355467,
				"element": "H" 
			},
			{
				"x": 0.6591249114,
				"y": -0.9079118386,
				"z": 2.3074863471,
				"element": "H" 
			},
			{
				"x": -1.1238981878,
				"y": -1.7786931154,
				"z": 3.1162603185,
				"element": "H" 
			},
			{
				"x": -2.8220112102,
				"y": -1.9211390771,
				"z": 2.7268509764,
				"element": "H" 
			},
			{
				"x": -1.8161823928,
				"y": -3.5013365583,
				"z": 1.302492889,
				"element": "H" 
			},
			{
				"x": -0.4381528444,
				"y": -2.4646880942,
				"z": 0.8888908425,
				"element": "H" 
			},
			{
				"x": -2.9913755985,
				"y": -3.8606839536,
				"z": -0.632986662,
				"element": "H" 
			},
			{
				"x": -3.1958314488,
				"y": -2.5729365453,
				"z": -1.826131472,
				"element": "H" 
			},
			{
				"x": -0.5067249948,
				"y": -3.8892785273,
				"z": -1.1497800115,
				"element": "H" 
			},
			{
				"x": -1.539514957,
				"y": -4.2698348501,
				"z": -2.5237322262,
				"element": "H" 
			},
			{
				"x": 0.123694735,
				"y": -2.7812006428,
				"z": -3.3817897929,
				"element": "H" 
			},
			{
				"x": -1.3205526312,
				"y": -1.7909715665,
				"z": -3.2159730613,
				"element": "H" 
			},
			{
				"x": -0.7174387659,
				"y": 0.0142337079,
				"z": -3.9819350743,
				"element": "H" 
			},
			{
				"x": -0.5340069224,
				"y": 2.4586954141,
				"z": -4.3704897969,
				"element": "H" 
			},
			{
				"x": 1.547485091,
				"y": 2.9182038422,
				"z": -0.6478211772,
				"element": "H" 
			},
			{
				"x": 1.3964991335,
				"y": 0.4481838201,
				"z": -0.26364412,
				"element": "H" 
			},
			{
				"x": -4.1204572888,
				"y": -1.6479980441,
				"z": 0.8256298924,
				"element": "H" 
			},
			{
				"x": -3.8519161744,
				"y": -0.7971596209,
				"z": -0.6926994052,
				"element": "H" 
			},
			{
				"x": -3.760391002,
				"y": 0.6926302826,
				"z": 1.3604977194,
				"element": "H" 
			},
			{
				"x": -2.3937878633,
				"y": 0.8100940967,
				"z": 0.2447392663,
				"element": "H" 
			}
		],
		 "valence_orbital": [ 
			{
				"type": "occ",
				"energy": -0.24616,
				"method": "rhf"
			},
			{
				"type": "occ",
				"energy": -0.24095,
				"method": "rhf"
			},
			{
				"type": "occ",
				"energy": -0.21953,
				"method": "rhf"
			},
			{
				"type": "occ",
				"energy": -0.20743,
				"method": "rhf"
			},
			{
				"type": "occ",
				"energy": -0.17505,
				"method": "rhf"
			},
			{
				"type": "unocc",
				"energy": -0.04532,
				"method": "rhf"
			},
			{
				"type": "unocc",
				"energy": -0.01032,
				"method": "rhf"
			},
			{
				"type": "unocc",
				"energy": 0.01534,
				"method": "rhf"
			},
			{
				"type": "unocc",
				"energy": 0.02382,
				"method": "rhf"
			},
			{
				"type": "unocc",
				"energy": 0.04869,
				"method": "rhf"
			}
		],
		"cosmo_sigma_profile": { 
			"-0.025": 0.0,
			"-0.024": 0.0,
			"-0.023": 0.0,
			"-0.022": 0.0,
			"-0.021": 0.0,
			"-0.02": 0.0,
			"-0.019": 0.0,
			"-0.018": 0.0,
			"-0.017": 0.0,
			"-0.016": 0.0,
			"-0.015": 0.0,
			"-0.014": 0.0,
			"-0.013": 0.0,
			"-0.012": 0.0,
			"-0.011": 0.0,
			"-0.01": 0.0,
			"-0.009": 0.0,
			"-0.008": 1.35967525032,
			"-0.007": 4.07675379199,
			"-0.006": 10.5634071134,
			"-0.005": 26.2974362884,
			"-0.004": 31.9384137283,
			"-0.003": 41.9267086981,
			"-0.002": 49.2130061321,
			"-0.001": 41.3889832739,
			"0.0": 34.571296693,
			"0.001": 27.6446262566,
			"0.002": 26.8962596633,
			"0.003": 30.0880871364,
			"0.004": 23.5826569777,
			"0.005": 15.860832461,
			"0.006": 10.2782513949,
			"0.007": 8.11409884611,
			"0.008": 2.6162620726,
			"0.009": 3.14371693616,
			"0.01": 2.6100431007,
			"0.011": 2.83133590408,
			"0.012": 3.26777528461,
			"0.013": 1.43448100238,
			"0.014": 0.0,
			"0.015": 0.0,
			"0.016": 0.0,
			"0.017": 0.0,
			"0.018": 0.0,
			"0.019": 0.0,
			"0.02": 0.0,
			"0.021": 0.0,
			"0.022": 0.0,
			"0.023": 0.0,
			"0.024": 0.0,
			"0.025": 0.0
		}
	}
}
