{
	 "smiles": "[O-][N+](=O)C1=CC=C(C=CC(=O)C2=CC=C(Cl)C=C2)C=C1", 
	 "Tm": 436.15, 
	 "num_atms": 30, 
	 "gaussian": { 
		 "optdone": 1, 
		 "sigma_profile": "yes", 
		 "theory": "DFT", 
		 "functional": "B3LYP", 
		 "basiset": "6-31G**", 
		 "properties": { 
			 "R2extent": 12829.3973, 
			 "electric_dipole_moment_norm": 2.68675711779, 
			 "electric_quadrupole_moment_norm": 34.0010846471, 
			 "total_energy": -1318.12887063, 
			 "HOMO_LUMO_gap": 0.14609, 
			 "cosmo_polarized_energy": -14.99, 
			 "cosmo_cavitation_energy": 38.67, 
			 "cosmo_dispersion_energy": -28.02, 
			 "cosmo_repulsion_energy": 2.1, 
			 "cosmo_total_nonelectrostatic_energy": 12.75, 
			 "SMD_solvation_energy": 9.0 
		},
		"coords": [
			{
				"x": 0.0419592859,
				"y": -7.0107331345,
				"z": 1.6878426333,
				"element": "O" 
			},
			{
				"x": -0.4795570971,
				"y": -6.1918646958,
				"z": 2.4443012365,
				"element": "N" 
			},
			{
				"x": -0.9673160814,
				"y": -6.4592143421,
				"z": 3.541828453,
				"element": "O" 
			},
			{
				"x": -0.5225158684,
				"y": -4.7893333912,
				"z": 2.0033349322,
				"element": "C" 
			},
			{
				"x": 0.0223220986,
				"y": -4.4532675887,
				"z": 0.7626915545,
				"element": "C" 
			},
			{
				"x": -0.0193730388,
				"y": -3.1294650141,
				"z": 0.3497621287,
				"element": "C" 
			},
			{
				"x": -0.5995784658,
				"y": -2.1324092972,
				"z": 1.1617269644,
				"element": "C" 
			},
			{
				"x": -0.6700083611,
				"y": -0.7230943721,
				"z": 0.776536636,
				"element": "C" 
			},
			{
				"x": -0.2013507928,
				"y": -0.151588486,
				"z": -0.3498345799,
				"element": "C" 
			},
			{
				"x": -0.384031981,
				"y": 1.3094862577,
				"z": -0.5671632136,
				"element": "C" 
			},
			{
				"x": -1.0182307191,
				"y": 1.9881148703,
				"z": 0.2374681727,
				"element": "O" 
			},
			{
				"x": 0.2021811765,
				"y": 1.9505819219,
				"z": -1.7890436917,
				"element": "C" 
			},
			{
				"x": 1.0907489852,
				"y": 1.3064052288,
				"z": -2.6637609796,
				"element": "C" 
			},
			{
				"x": 1.6080112788,
				"y": 1.9693328167,
				"z": -3.7752688207,
				"element": "C" 
			},
			{
				"x": 1.227307813,
				"y": 3.2891140859,
				"z": -4.0164386572,
				"element": "C" 
			},
			{
				"x": 1.8676401806,
				"y": 4.1266185896,
				"z": -5.4168009436,
				"element": "Cl" 
			},
			{
				"x": 0.3468218614,
				"y": 3.9560625881,
				"z": -3.160498495,
				"element": "C" 
			},
			{
				"x": -0.1543354926,
				"y": 3.2838266207,
				"z": -2.0527124239,
				"element": "C" 
			},
			{
				"x": -1.1394046209,
				"y": -2.513945598,
				"z": 2.4060147924,
				"element": "C" 
			},
			{
				"x": -1.1053092547,
				"y": -3.8360497165,
				"z": 2.8345513902,
				"element": "C" 
			},
			{
				"x": 0.4640861272,
				"y": -5.2288285263,
				"z": 0.1498208984,
				"element": "H" 
			},
			{
				"x": 0.4023584023,
				"y": -2.867878123,
				"z": -0.6147443426,
				"element": "H" 
			},
			{
				"x": -1.1591233365,
				"y": -0.0547654046,
				"z": 1.4832693489,
				"element": "H" 
			},
			{
				"x": 0.2934429071,
				"y": -0.7397398647,
				"z": -1.1141963704,
				"element": "H" 
			},
			{
				"x": 1.4083984978,
				"y": 0.2853413596,
				"z": -2.4843056297,
				"element": "H" 
			},
			{
				"x": 2.2988653663,
				"y": 1.4717065608,
				"z": -4.4464352875,
				"element": "H" 
			},
			{
				"x": 0.0650163311,
				"y": 4.9830766339,
				"z": -3.3643322629,
				"element": "H" 
			},
			{
				"x": -0.8337347245,
				"y": 3.7762373645,
				"z": -1.3655847664,
				"element": "H" 
			},
			{
				"x": -1.5902974046,
				"y": -1.7574630085,
				"z": 3.0413132484,
				"element": "H" 
			},
			{
				"x": -1.5167930727,
				"y": -4.139664335,
				"z": 3.7888580752,
				"element": "H" 
			}
		],
		 "valence_orbital": [ 
			{
				"type": "occ",
				"energy": -0.28938,
				"method": "rhf"
			},
			{
				"type": "occ",
				"energy": -0.28041,
				"method": "rhf"
			},
			{
				"type": "occ",
				"energy": -0.26747,
				"method": "rhf"
			},
			{
				"type": "occ",
				"energy": -0.26213,
				"method": "rhf"
			},
			{
				"type": "occ",
				"energy": -0.25999,
				"method": "rhf"
			},
			{
				"type": "unocc",
				"energy": -0.1139,
				"method": "rhf"
			},
			{
				"type": "unocc",
				"energy": -0.07694,
				"method": "rhf"
			},
			{
				"type": "unocc",
				"energy": -0.03998,
				"method": "rhf"
			},
			{
				"type": "unocc",
				"energy": -0.03388,
				"method": "rhf"
			},
			{
				"type": "unocc",
				"energy": -0.02712,
				"method": "rhf"
			}
		],
		"cosmo_sigma_profile": { 
			"-0.025": 0.0,
			"-0.024": 0.0,
			"-0.023": 0.0,
			"-0.022": 0.0,
			"-0.021": 0.0,
			"-0.02": 0.0,
			"-0.019": 0.0,
			"-0.018": 0.0,
			"-0.017": 0.0,
			"-0.016": 0.0,
			"-0.015": 0.0,
			"-0.014": 0.0,
			"-0.013": 0.0,
			"-0.012": 0.0,
			"-0.011": 0.212066995576,
			"-0.01": 2.34530577179,
			"-0.009": 3.77837936169,
			"-0.008": 9.13088538938,
			"-0.007": 15.8321794073,
			"-0.006": 16.1242426586,
			"-0.005": 15.1041366404,
			"-0.004": 12.530736541,
			"-0.003": 17.2380044872,
			"-0.002": 20.8298978608,
			"-0.001": 24.3775142556,
			"0.0": 32.6242941828,
			"0.001": 37.8825958925,
			"0.002": 28.696176478,
			"0.003": 15.6265682849,
			"0.004": 14.8771105761,
			"0.005": 6.40248410413,
			"0.006": 5.35643695658,
			"0.007": 9.48062013753,
			"0.008": 9.34773749991,
			"0.009": 5.37905037611,
			"0.01": 4.85809423706,
			"0.011": 2.56324907238,
			"0.012": 3.71536363765,
			"0.013": 0.256322447121,
			"0.014": 0.0,
			"0.015": 0.0,
			"0.016": 0.0,
			"0.017": 0.0,
			"0.018": 0.0,
			"0.019": 0.0,
			"0.02": 0.0,
			"0.021": 0.0,
			"0.022": 0.0,
			"0.023": 0.0,
			"0.024": 0.0,
			"0.025": 0.0
		}
	}
}
