{
	 "smiles": "CCCCCCCCCCCCCCCCCCCCCCCCCCCCC", 
	 "Tm": 337.95, 
	 "num_atms": 89, 
	 "gaussian": { 
		 "optdone": 1, 
		 "sigma_profile": "yes", 
		 "theory": "DFT", 
		 "functional": "B3LYP", 
		 "basiset": "6-31G**", 
		 "properties": { 
			 "R2extent": 20206.3476, 
			 "electric_dipole_moment_norm": 0.0959604606075, 
			 "electric_quadrupole_moment_norm": 0.423042314668, 
			 "total_energy": -1141.33012854, 
			 "HOMO_LUMO_gap": 0.34475, 
			 "cosmo_polarized_energy": -1.77, 
			 "cosmo_cavitation_energy": 82.21, 
			 "cosmo_dispersion_energy": -46.51, 
			 "cosmo_repulsion_energy": 3.65, 
			 "cosmo_total_nonelectrostatic_energy": 39.35, 
			 "SMD_solvation_energy": 9.9 
		},
		"coords": [
			{
				"x": -3.5442761513,
				"y": -0.6327564226,
				"z": -4.7309713902,
				"element": "C" 
			},
			{
				"x": -3.9252131236,
				"y": -1.9231306531,
				"z": -3.995084101,
				"element": "C" 
			},
			{
				"x": -5.0433992629,
				"y": -1.7390704198,
				"z": -2.9507699856,
				"element": "C" 
			},
			{
				"x": -4.6597134796,
				"y": -0.9446428427,
				"z": -1.6800058745,
				"element": "C" 
			},
			{
				"x": -4.2249337308,
				"y": -1.7932735623,
				"z": -0.4705425477,
				"element": "C" 
			},
			{
				"x": -2.9463944452,
				"y": -2.6215659298,
				"z": -0.6648694278,
				"element": "C" 
			},
			{
				"x": -2.5071495603,
				"y": -3.4153742978,
				"z": 0.5780537823,
				"element": "C" 
			},
			{
				"x": -2.0413883397,
				"y": -2.5583145746,
				"z": 1.764409705,
				"element": "C" 
			},
			{
				"x": -1.5146583511,
				"y": -3.3988907629,
				"z": 2.9362634401,
				"element": "C" 
			},
			{
				"x": -1.1412382842,
				"y": -2.5906009289,
				"z": 4.1916812471,
				"element": "C" 
			},
			{
				"x": -0.0136230893,
				"y": -1.5555578953,
				"z": 4.0242335459,
				"element": "C" 
			},
			{
				"x": 1.349045021,
				"y": -2.1539406153,
				"z": 3.6441498443,
				"element": "C" 
			},
			{
				"x": 2.4822259813,
				"y": -1.1214536021,
				"z": 3.5052149374,
				"element": "C" 
			},
			{
				"x": 2.8808468948,
				"y": -0.4396442642,
				"z": 4.823489188,
				"element": "C" 
			},
			{
				"x": 4.1537759617,
				"y": 0.4269318062,
				"z": 4.7841088549,
				"element": "C" 
			},
			{
				"x": 4.0801396407,
				"y": 1.732376834,
				"z": 3.9620875154,
				"element": "C" 
			},
			{
				"x": 4.4222170558,
				"y": 1.599136296,
				"z": 2.4689031702,
				"element": "C" 
			},
			{
				"x": 4.5088148744,
				"y": 2.9426596844,
				"z": 1.7218751686,
				"element": "C" 
			},
			{
				"x": 3.2067670903,
				"y": 3.7603010097,
				"z": 1.6429045652,
				"element": "C" 
			},
			{
				"x": 2.0648423012,
				"y": 3.0694019842,
				"z": 0.8819308006,
				"element": "C" 
			},
			{
				"x": 0.8065474112,
				"y": 3.9465872324,
				"z": 0.7238366839,
				"element": "C" 
			},
			{
				"x": 0.9158217465,
				"y": 5.1032666928,
				"z": -0.2966847797,
				"element": "C" 
			},
			{
				"x": 0.4242770089,
				"y": 4.8266192462,
				"z": -1.7321555624,
				"element": "C" 
			},
			{
				"x": 1.2000055711,
				"y": 3.7854443538,
				"z": -2.5688668731,
				"element": "C" 
			},
			{
				"x": 0.6996084382,
				"y": 2.3371170984,
				"z": -2.4496640374,
				"element": "C" 
			},
			{
				"x": 1.5006672696,
				"y": 1.356623163,
				"z": -3.3178098573,
				"element": "C" 
			},
			{
				"x": 0.9648458429,
				"y": -0.0859112973,
				"z": -3.3209656662,
				"element": "C" 
			},
			{
				"x": 0.9945568241,
				"y": -0.8184669711,
				"z": -1.9675335211,
				"element": "C" 
			},
			{
				"x": 2.3995209301,
				"y": -1.0206530507,
				"z": -1.3877948813,
				"element": "C" 
			},
			{
				"x": -2.7599872466,
				"y": -0.817341555,
				"z": -5.4727807317,
				"element": "H" 
			},
			{
				"x": -3.1711684405,
				"y": 0.1352593543,
				"z": -4.0446729252,
				"element": "H" 
			},
			{
				"x": -4.4078923854,
				"y": -0.2103144883,
				"z": -5.2580509746,
				"element": "H" 
			},
			{
				"x": -4.2563671991,
				"y": -2.6646215533,
				"z": -4.7338917027,
				"element": "H" 
			},
			{
				"x": -3.0325570012,
				"y": -2.3472011746,
				"z": -3.5202685887,
				"element": "H" 
			},
			{
				"x": -5.4235546599,
				"y": -2.7253069612,
				"z": -2.6513128501,
				"element": "H" 
			},
			{
				"x": -5.8846658343,
				"y": -1.2375375632,
				"z": -3.4477974207,
				"element": "H" 
			},
			{
				"x": -3.8676602367,
				"y": -0.2211591282,
				"z": -1.9159290644,
				"element": "H" 
			},
			{
				"x": -5.5211911685,
				"y": -0.3425109366,
				"z": -1.3656014029,
				"element": "H" 
			},
			{
				"x": -5.0475915591,
				"y": -2.4707049981,
				"z": -0.1975440554,
				"element": "H" 
			},
			{
				"x": -4.0937102651,
				"y": -1.1193400213,
				"z": 0.3855176388,
				"element": "H" 
			},
			{
				"x": -2.1262443869,
				"y": -1.9585785681,
				"z": -0.9773874095,
				"element": "H" 
			},
			{
				"x": -3.0965059952,
				"y": -3.3293142478,
				"z": -1.4893201851,
				"element": "H" 
			},
			{
				"x": -3.3315120353,
				"y": -4.066772438,
				"z": 0.9028339616,
				"element": "H" 
			},
			{
				"x": -1.6878817766,
				"y": -4.0888783211,
				"z": 0.2911535966,
				"element": "H" 
			},
			{
				"x": -2.8667175491,
				"y": -1.9278946783,
				"z": 2.1216088027,
				"element": "H" 
			},
			{
				"x": -1.2598677113,
				"y": -1.868503194,
				"z": 1.4174466323,
				"element": "H" 
			},
			{
				"x": -2.2829178235,
				"y": -4.1323175893,
				"z": 3.2173642867,
				"element": "H" 
			},
			{
				"x": -0.6522889168,
				"y": -3.9893271674,
				"z": 2.598760826,
				"element": "H" 
			},
			{
				"x": -2.039621388,
				"y": -2.0716371941,
				"z": 4.5534088012,
				"element": "H" 
			},
			{
				"x": -0.8577627973,
				"y": -3.2922748196,
				"z": 4.9883130924,
				"element": "H" 
			},
			{
				"x": 0.0807767103,
				"y": -1.0050987479,
				"z": 4.9684066083,
				"element": "H" 
			},
			{
				"x": -0.3003333069,
				"y": -0.808666239,
				"z": 3.2711809212,
				"element": "H" 
			},
			{
				"x": 1.6354647918,
				"y": -2.9066506823,
				"z": 4.3935202167,
				"element": "H" 
			},
			{
				"x": 1.2558734028,
				"y": -2.6945058683,
				"z": 2.6937180965,
				"element": "H" 
			},
			{
				"x": 3.365849466,
				"y": -1.622833999,
				"z": 3.0870718862,
				"element": "H" 
			},
			{
				"x": 2.1828454458,
				"y": -0.3669656968,
				"z": 2.7661805517,
				"element": "H" 
			},
			{
				"x": 2.0500888442,
				"y": 0.1778893355,
				"z": 5.1902284738,
				"element": "H" 
			},
			{
				"x": 3.0290392695,
				"y": -1.222778925,
				"z": 5.5808984682,
				"element": "H" 
			},
			{
				"x": 4.998895394,
				"y": -0.1802692374,
				"z": 4.4287210226,
				"element": "H" 
			},
			{
				"x": 4.3947526672,
				"y": 0.6919638902,
				"z": 5.8215107501,
				"element": "H" 
			},
			{
				"x": 3.0827484044,
				"y": 2.1758368165,
				"z": 4.0858468663,
				"element": "H" 
			},
			{
				"x": 4.7820625138,
				"y": 2.4564481971,
				"z": 4.3987680176,
				"element": "H" 
			},
			{
				"x": 3.7032819332,
				"y": 0.9421018313,
				"z": 1.9674908636,
				"element": "H" 
			},
			{
				"x": 5.3948108547,
				"y": 1.095855778,
				"z": 2.3805347106,
				"element": "H" 
			},
			{
				"x": 4.865500862,
				"y": 2.7528507039,
				"z": 0.6999913707,
				"element": "H" 
			},
			{
				"x": 5.2810785218,
				"y": 3.5605633611,
				"z": 2.2008660052,
				"element": "H" 
			},
			{
				"x": 3.4376846293,
				"y": 4.7191067993,
				"z": 1.1608489692,
				"element": "H" 
			},
			{
				"x": 2.8604957483,
				"y": 4.0134690574,
				"z": 2.654120303,
				"element": "H" 
			},
			{
				"x": 1.7840800465,
				"y": 2.1496650193,
				"z": 1.4109821879,
				"element": "H" 
			},
			{
				"x": 2.4314267675,
				"y": 2.7516226145,
				"z": -0.1028974617,
				"element": "H" 
			},
			{
				"x": -0.0509871641,
				"y": 3.3154318073,
				"z": 0.4577345155,
				"element": "H" 
			},
			{
				"x": 0.56689555,
				"y": 4.3640533782,
				"z": 1.7111249516,
				"element": "H" 
			},
			{
				"x": 1.9538647901,
				"y": 5.4601085131,
				"z": -0.3409164958,
				"element": "H" 
			},
			{
				"x": 0.3328135906,
				"y": 5.9536464392,
				"z": 0.0791105698,
				"element": "H" 
			},
			{
				"x": -0.6371835152,
				"y": 4.5413718748,
				"z": -1.6995206031,
				"element": "H" 
			},
			{
				"x": 0.4542066425,
				"y": 5.7852807635,
				"z": -2.265886379,
				"element": "H" 
			},
			{
				"x": 2.2685724606,
				"y": 3.8316569677,
				"z": -2.3151819292,
				"element": "H" 
			},
			{
				"x": 1.1377138815,
				"y": 4.0714910022,
				"z": -3.6275944759,
				"element": "H" 
			},
			{
				"x": 0.7272097377,
				"y": 2.0140655742,
				"z": -1.4033767183,
				"element": "H" 
			},
			{
				"x": -0.3583072824,
				"y": 2.3029673565,
				"z": -2.7485867328,
				"element": "H" 
			},
			{
				"x": 1.505217655,
				"y": 1.7251127201,
				"z": -4.3529263922,
				"element": "H" 
			},
			{
				"x": 2.5514060429,
				"y": 1.364131511,
				"z": -2.9974496375,
				"element": "H" 
			},
			{
				"x": -0.0690504705,
				"y": -0.0765102903,
				"z": -3.693020308,
				"element": "H" 
			},
			{
				"x": 1.5425767431,
				"y": -0.6729383469,
				"z": -4.0483660301,
				"element": "H" 
			},
			{
				"x": 0.5188738553,
				"y": -1.7991151985,
				"z": -2.0981542627,
				"element": "H" 
			},
			{
				"x": 0.3735304042,
				"y": -0.2810846583,
				"z": -1.239164147,
				"element": "H" 
			},
			{
				"x": 2.8878102525,
				"y": -0.0679675479,
				"z": -1.157399761,
				"element": "H" 
			},
			{
				"x": 2.3635554986,
				"y": -1.6015016809,
				"z": -0.460060189,
				"element": "H" 
			},
			{
				"x": 3.0438866917,
				"y": -1.5597442603,
				"z": -2.0923290738,
				"element": "H" 
			}
		],
		 "valence_orbital": [ 
			{
				"type": "occ",
				"energy": -0.29688,
				"method": "rhf"
			},
			{
				"type": "occ",
				"energy": -0.29601,
				"method": "rhf"
			},
			{
				"type": "occ",
				"energy": -0.29402,
				"method": "rhf"
			},
			{
				"type": "occ",
				"energy": -0.29108,
				"method": "rhf"
			},
			{
				"type": "occ",
				"energy": -0.29013,
				"method": "rhf"
			},
			{
				"type": "unocc",
				"energy": 0.05462,
				"method": "rhf"
			},
			{
				"type": "unocc",
				"energy": 0.07033,
				"method": "rhf"
			},
			{
				"type": "unocc",
				"energy": 0.08029,
				"method": "rhf"
			},
			{
				"type": "unocc",
				"energy": 0.08647,
				"method": "rhf"
			},
			{
				"type": "unocc",
				"energy": 0.09271,
				"method": "rhf"
			}
		],
		"cosmo_sigma_profile": { 
			"-0.025": 0.0,
			"-0.024": 0.0,
			"-0.023": 0.0,
			"-0.022": 0.0,
			"-0.021": 0.0,
			"-0.02": 0.0,
			"-0.019": 0.0,
			"-0.018": 0.0,
			"-0.017": 0.0,
			"-0.016": 0.0,
			"-0.015": 0.0,
			"-0.014": 0.0,
			"-0.013": 0.0,
			"-0.012": 0.0,
			"-0.011": 0.0,
			"-0.01": 0.0,
			"-0.009": 0.0,
			"-0.008": 0.0,
			"-0.007": 0.0,
			"-0.006": 0.0,
			"-0.005": 0.0,
			"-0.004": 0.0,
			"-0.003": 2.45725182212,
			"-0.002": 60.6971081403,
			"-0.001": 158.557800002,
			"0.0": 184.75126612,
			"0.001": 155.513116386,
			"0.002": 62.6250574543,
			"0.003": 1.3295349662,
			"0.004": 0.0,
			"0.005": 0.0,
			"0.006": 0.0,
			"0.007": 0.0,
			"0.008": 0.0,
			"0.009": 0.0,
			"0.01": 0.0,
			"0.011": 0.0,
			"0.012": 0.0,
			"0.013": 0.0,
			"0.014": 0.0,
			"0.015": 0.0,
			"0.016": 0.0,
			"0.017": 0.0,
			"0.018": 0.0,
			"0.019": 0.0,
			"0.02": 0.0,
			"0.021": 0.0,
			"0.022": 0.0,
			"0.023": 0.0,
			"0.024": 0.0,
			"0.025": 0.0
		}
	}
}
