{
	 "smiles": "[O-][N+](=O)C1=CC2=C(CCNC2=O)C=C1", 
	 "Tm": 502.15, 
	 "num_atms": 22, 
	 "gaussian": { 
		 "optdone": 1, 
		 "sigma_profile": "yes", 
		 "theory": "DFT", 
		 "functional": "B3LYP", 
		 "basiset": "6-31G**", 
		 "properties": { 
			 "R2extent": 3069.7834, 
			 "electric_dipole_moment_norm": 7.68456404099, 
			 "electric_quadrupole_moment_norm": 8.93936040777, 
			 "total_energy": -682.879103315, 
			 "HOMO_LUMO_gap": 0.16947, 
			 "cosmo_polarized_energy": -16.86, 
			 "cosmo_cavitation_energy": 26.45, 
			 "cosmo_dispersion_energy": -19.78, 
			 "cosmo_repulsion_energy": 1.54, 
			 "cosmo_total_nonelectrostatic_energy": 8.22, 
			 "SMD_solvation_energy": 6.34 
		},
		"coords": [
			{
				"x": 4.0614760675,
				"y": -0.3660501372,
				"z": -1.6281686049,
				"element": "O" 
			},
			{
				"x": 2.9143094118,
				"y": -0.191318199,
				"z": -2.0399015995,
				"element": "N" 
			},
			{
				"x": 2.5993838104,
				"y": -0.0966978626,
				"z": -3.2240788535,
				"element": "O" 
			},
			{
				"x": 1.8410100299,
				"y": -0.0877366963,
				"z": -1.0367902211,
				"element": "C" 
			},
			{
				"x": 0.5330134655,
				"y": 0.1065562513,
				"z": -1.4617919327,
				"element": "C" 
			},
			{
				"x": -0.4751749069,
				"y": 0.2083738229,
				"z": -0.5017696901,
				"element": "C" 
			},
			{
				"x": -0.1727865591,
				"y": 0.1072797181,
				"z": 0.8693393478,
				"element": "C" 
			},
			{
				"x": -1.3023480055,
				"y": 0.1785653474,
				"z": 1.8702552993,
				"element": "C" 
			},
			{
				"x": -2.4283507085,
				"y": 1.0799286913,
				"z": 1.3596082518,
				"element": "C" 
			},
			{
				"x": -2.8011026554,
				"y": 0.6779501811,
				"z": 0.0065133334,
				"element": "N" 
			},
			{
				"x": -1.8838183613,
				"y": 0.4150360667,
				"z": -0.9794392583,
				"element": "C" 
			},
			{
				"x": -2.1940880607,
				"y": 0.3348738502,
				"z": -2.1620589922,
				"element": "O" 
			},
			{
				"x": 1.1569971066,
				"y": -0.0909611963,
				"z": 1.2616675648,
				"element": "C" 
			},
			{
				"x": 2.1720582509,
				"y": -0.1880371034,
				"z": 0.315150321,
				"element": "C" 
			},
			{
				"x": 0.2861867961,
				"y": 0.1769401682,
				"z": -2.5137047621,
				"element": "H" 
			},
			{
				"x": -1.700021285,
				"y": -0.8327004322,
				"z": 2.0329547474,
				"element": "H" 
			},
			{
				"x": -0.9405682734,
				"y": 0.5417731564,
				"z": 2.8373470167,
				"element": "H" 
			},
			{
				"x": -3.3078469851,
				"y": 0.9886557981,
				"z": 2.002889844,
				"element": "H" 
			},
			{
				"x": -2.1063057093,
				"y": 2.1322126105,
				"z": 1.3883251317,
				"element": "H" 
			},
			{
				"x": -3.7164283048,
				"y": 0.9278235435,
				"z": -0.3445105944,
				"element": "H" 
			},
			{
				"x": 1.3998435512,
				"y": -0.1680682824,
				"z": 2.3176896589,
				"element": "H" 
			},
			{
				"x": 3.2064613249,
				"y": -0.3360992965,
				"z": 0.5990739921,
				"element": "H" 
			}
		],
		 "valence_orbital": [ 
			{
				"type": "occ",
				"energy": -0.29056,
				"method": "rhf"
			},
			{
				"type": "occ",
				"energy": -0.28272,
				"method": "rhf"
			},
			{
				"type": "occ",
				"energy": -0.27952,
				"method": "rhf"
			},
			{
				"type": "occ",
				"energy": -0.26781,
				"method": "rhf"
			},
			{
				"type": "occ",
				"energy": -0.25952,
				"method": "rhf"
			},
			{
				"type": "unocc",
				"energy": -0.09005,
				"method": "rhf"
			},
			{
				"type": "unocc",
				"energy": -0.05591,
				"method": "rhf"
			},
			{
				"type": "unocc",
				"energy": -0.01094,
				"method": "rhf"
			},
			{
				"type": "unocc",
				"energy": 0.05094,
				"method": "rhf"
			},
			{
				"type": "unocc",
				"energy": 0.06712,
				"method": "rhf"
			}
		],
		"cosmo_sigma_profile": { 
			"-0.025": 0.0,
			"-0.024": 0.0,
			"-0.023": 0.0,
			"-0.022": 0.0,
			"-0.021": 0.0,
			"-0.02": 0.0,
			"-0.019": 0.0,
			"-0.018": 0.0,
			"-0.017": 0.0,
			"-0.016": 0.0,
			"-0.015": 0.0289782816161,
			"-0.014": 0.825488263837,
			"-0.013": 1.1744699184,
			"-0.012": 1.48473466866,
			"-0.011": 0.786232148072,
			"-0.01": 0.68251299914,
			"-0.009": 1.3988576949,
			"-0.008": 2.87232005939,
			"-0.007": 6.88188097634,
			"-0.006": 13.9242008808,
			"-0.005": 17.9893012541,
			"-0.004": 18.8604850468,
			"-0.003": 18.8407631124,
			"-0.002": 14.4597838206,
			"-0.001": 15.2924936796,
			"0.0": 16.2094553734,
			"0.001": 12.8380348928,
			"0.002": 7.51344439422,
			"0.003": 4.80015983084,
			"0.004": 3.90503118718,
			"0.005": 5.35829512423,
			"0.006": 5.26281124812,
			"0.007": 9.51962291408,
			"0.008": 8.78189866782,
			"0.009": 5.67594042534,
			"0.01": 3.87300196374,
			"0.011": 1.67553908301,
			"0.012": 1.99090364014,
			"0.013": 5.25082240036,
			"0.014": 2.71744324874,
			"0.015": 0.074087047269,
			"0.016": 0.0,
			"0.017": 0.0,
			"0.018": 0.0,
			"0.019": 0.0,
			"0.02": 0.0,
			"0.021": 0.0,
			"0.022": 0.0,
			"0.023": 0.0,
			"0.024": 0.0,
			"0.025": 0.0
		}
	}
}
