{
	 "smiles": "C1N(CN(CN1C1=CC=CC=C1)C1=CC=CC=C1)C1=CC=CC=C1", 
	 "Tm": 464.15, 
	 "num_atms": 45, 
	 "gaussian": { 
		 "optdone": 1, 
		 "sigma_profile": "yes", 
		 "theory": "DFT", 
		 "functional": "B3LYP", 
		 "basiset": "6-31G**", 
		 "properties": { 
			 "R2extent": 9521.269, 
			 "electric_dipole_moment_norm": 1.15409838835, 
			 "electric_quadrupole_moment_norm": 5.38417639291, 
			 "total_energy": -977.115273965, 
			 "HOMO_LUMO_gap": 0.19906, 
			 "cosmo_polarized_energy": -12.03, 
			 "cosmo_cavitation_energy": 46.12, 
			 "cosmo_dispersion_energy": -32.14, 
			 "cosmo_repulsion_energy": 2.41, 
			 "cosmo_total_nonelectrostatic_energy": 16.39, 
			 "SMD_solvation_energy": 4.0 
		},
		"coords": [
			{
				"x": -0.768144307,
				"y": -0.1096546081,
				"z": 1.0068781627,
				"element": "C" 
			},
			{
				"x": 0.6198255093,
				"y": 0.0171158104,
				"z": 1.466592384,
				"element": "N" 
			},
			{
				"x": 1.0925870012,
				"y": 1.3941918788,
				"z": 1.2979559518,
				"element": "C" 
			},
			{
				"x": 0.9351725798,
				"y": 1.8247896639,
				"z": -0.090028099,
				"element": "N" 
			},
			{
				"x": -0.4596537762,
				"y": 1.703582282,
				"z": -0.5206710881,
				"element": "C" 
			},
			{
				"x": -0.9207654022,
				"y": 0.3319230861,
				"z": -0.364215223,
				"element": "N" 
			},
			{
				"x": -0.5899427742,
				"y": -0.5810113648,
				"z": -1.4109272602,
				"element": "C" 
			},
			{
				"x": -1.1144497552,
				"y": -0.3402870665,
				"z": -2.6924423415,
				"element": "C" 
			},
			{
				"x": -0.8609804585,
				"y": -1.2191258654,
				"z": -3.7419354871,
				"element": "C" 
			},
			{
				"x": -0.1000143622,
				"y": -2.3720113609,
				"z": -3.5311098235,
				"element": "C" 
			},
			{
				"x": 0.4119243704,
				"y": -2.6229861251,
				"z": -2.2590005312,
				"element": "C" 
			},
			{
				"x": 0.1831633226,
				"y": -1.7332409055,
				"z": -1.2067940982,
				"element": "C" 
			},
			{
				"x": 1.6628706506,
				"y": 2.9745188503,
				"z": -0.4787467804,
				"element": "C" 
			},
			{
				"x": 1.0455726111,
				"y": 4.101263462,
				"z": -1.0496020296,
				"element": "C" 
			},
			{
				"x": 1.8082752064,
				"y": 5.1946014659,
				"z": -1.4679223759,
				"element": "C" 
			},
			{
				"x": 3.191857831,
				"y": 5.2023905412,
				"z": -1.307675231,
				"element": "C" 
			},
			{
				"x": 3.8127792402,
				"y": 4.0890244435,
				"z": -0.7328414919,
				"element": "C" 
			},
			{
				"x": 3.0642792381,
				"y": 2.9876294428,
				"z": -0.3323913807,
				"element": "C" 
			},
			{
				"x": 0.977332502,
				"y": -0.6170073136,
				"z": 2.6818330045,
				"element": "C" 
			},
			{
				"x": 2.3386386314,
				"y": -0.7225265416,
				"z": 3.0313579753,
				"element": "C" 
			},
			{
				"x": 2.7272859264,
				"y": -1.3691160654,
				"z": 4.1994446307,
				"element": "C" 
			},
			{
				"x": 1.7752073325,
				"y": -1.9456981482,
				"z": 5.0459703229,
				"element": "C" 
			},
			{
				"x": 0.428068723,
				"y": -1.8578035876,
				"z": 4.7036797579,
				"element": "C" 
			},
			{
				"x": 0.0260868608,
				"y": -1.1933301218,
				"z": 3.5420729656,
				"element": "C" 
			},
			{
				"x": -1.0795234429,
				"y": -1.1520739543,
				"z": 1.0881187212,
				"element": "H" 
			},
			{
				"x": -1.4484373161,
				"y": 0.505005426,
				"z": 1.6253241935,
				"element": "H" 
			},
			{
				"x": 0.5215429938,
				"y": 2.0719657661,
				"z": 1.9729638633,
				"element": "H" 
			},
			{
				"x": 2.1398211187,
				"y": 1.4582133183,
				"z": 1.5827343219,
				"element": "H" 
			},
			{
				"x": -0.5307089743,
				"y": 1.9993741805,
				"z": -1.5666289204,
				"element": "H" 
			},
			{
				"x": -1.1259553821,
				"y": 2.3538248213,
				"z": 0.0756353259,
				"element": "H" 
			},
			{
				"x": -1.7458659237,
				"y": 0.5288264977,
				"z": -2.8535684948,
				"element": "H" 
			},
			{
				"x": -1.2780038869,
				"y": -1.0125946658,
				"z": -4.7237987026,
				"element": "H" 
			},
			{
				"x": 0.0885236513,
				"y": -3.0632433606,
				"z": -4.3470189793,
				"element": "H" 
			},
			{
				"x": 1.013548738,
				"y": -3.5100569293,
				"z": -2.0800591908,
				"element": "H" 
			},
			{
				"x": 0.634273459,
				"y": -1.9165803262,
				"z": -0.238919367,
				"element": "H" 
			},
			{
				"x": -0.0323610579,
				"y": 4.1413448994,
				"z": -1.1596325433,
				"element": "H" 
			},
			{
				"x": 1.3061519878,
				"y": 6.0512229003,
				"z": -1.9093530359,
				"element": "H" 
			},
			{
				"x": 3.7798172461,
				"y": 6.0569235249,
				"z": -1.6280009953,
				"element": "H" 
			},
			{
				"x": 4.8925275498,
				"y": 4.069649765,
				"z": -0.6128072793,
				"element": "H" 
			},
			{
				"x": 3.5669429841,
				"y": 2.1119399608,
				"z": 0.0664578796,
				"element": "H" 
			},
			{
				"x": 3.0944851566,
				"y": -0.3209140301,
				"z": 2.3635971088,
				"element": "H" 
			},
			{
				"x": 3.7842406953,
				"y": -1.4388543257,
				"z": 4.4414740931,
				"element": "H" 
			},
			{
				"x": 2.0821361625,
				"y": -2.4574685992,
				"z": 5.9528224925,
				"element": "H" 
			},
			{
				"x": -0.3277827352,
				"y": -2.2971197576,
				"z": 5.3489750819,
				"element": "H" 
			},
			{
				"x": -1.032649725,
				"y": -1.119816964,
				"z": 3.3215025128,
				"element": "H" 
			}
		],
		 "valence_orbital": [ 
			{
				"type": "occ",
				"energy": -0.24824,
				"method": "rhf"
			},
			{
				"type": "occ",
				"energy": -0.24235,
				"method": "rhf"
			},
			{
				"type": "occ",
				"energy": -0.20975,
				"method": "rhf"
			},
			{
				"type": "occ",
				"energy": -0.20497,
				"method": "rhf"
			},
			{
				"type": "occ",
				"energy": -0.20196,
				"method": "rhf"
			},
			{
				"type": "unocc",
				"energy": -0.0029,
				"method": "rhf"
			},
			{
				"type": "unocc",
				"energy": -0.00056,
				"method": "rhf"
			},
			{
				"type": "unocc",
				"energy": 0.00306,
				"method": "rhf"
			},
			{
				"type": "unocc",
				"energy": 0.00604,
				"method": "rhf"
			},
			{
				"type": "unocc",
				"energy": 0.01051,
				"method": "rhf"
			}
		],
		"cosmo_sigma_profile": { 
			"-0.025": 0.0,
			"-0.024": 0.0,
			"-0.023": 0.0,
			"-0.022": 0.0,
			"-0.021": 0.0,
			"-0.02": 0.0,
			"-0.019": 0.0,
			"-0.018": 0.0,
			"-0.017": 0.0,
			"-0.016": 0.0,
			"-0.015": 0.0,
			"-0.014": 0.0,
			"-0.013": 0.0,
			"-0.012": 0.0,
			"-0.011": 0.0,
			"-0.01": 0.0,
			"-0.009": 0.0,
			"-0.008": 0.991977197999,
			"-0.007": 3.32106242135,
			"-0.006": 16.7756486209,
			"-0.005": 35.8489248476,
			"-0.004": 39.9142803982,
			"-0.003": 43.175317473,
			"-0.002": 28.2017935246,
			"-0.001": 23.2602880078,
			"0.0": 18.7714152267,
			"0.001": 18.2285435766,
			"0.002": 19.7476025607,
			"0.003": 20.9961356295,
			"0.004": 22.5429964076,
			"0.005": 26.2697806232,
			"0.006": 29.5365929736,
			"0.007": 12.2821464072,
			"0.008": 2.44117194645,
			"0.009": 1.18695632724,
			"0.01": 1.99607578727,
			"0.011": 1.68127001398,
			"0.012": 0.126419438401,
			"0.013": 0.0,
			"0.014": 0.0,
			"0.015": 0.0,
			"0.016": 0.0,
			"0.017": 0.0,
			"0.018": 0.0,
			"0.019": 0.0,
			"0.02": 0.0,
			"0.021": 0.0,
			"0.022": 0.0,
			"0.023": 0.0,
			"0.024": 0.0,
			"0.025": 0.0
		}
	}
}
