{
	 "smiles": "OC(=O)[C@@H]1C[C@H]1C1=CN=CC=C1", 
	 "Tm": 398.15, 
	 "num_atms": 21, 
	 "gaussian": { 
		 "optdone": 1, 
		 "sigma_profile": "yes", 
		 "theory": "DFT", 
		 "functional": "B3LYP", 
		 "basiset": "6-31G**", 
		 "properties": { 
			 "R2extent": 2638.7909, 
			 "electric_dipole_moment_norm": 2.86577010941, 
			 "electric_quadrupole_moment_norm": 5.60044983908, 
			 "total_energy": -553.566123083, 
			 "HOMO_LUMO_gap": 0.21734, 
			 "cosmo_polarized_energy": -13.06, 
			 "cosmo_cavitation_energy": 25.57, 
			 "cosmo_dispersion_energy": -18.54, 
			 "cosmo_repulsion_energy": 1.48, 
			 "cosmo_total_nonelectrostatic_energy": 8.5, 
			 "SMD_solvation_energy": 3.81 
		},
		"coords": [
			{
				"x": 2.0226540455,
				"y": 3.5358129924,
				"z": 1.1087732861,
				"element": "O" 
			},
			{
				"x": 0.871596779,
				"y": 3.2526100422,
				"z": 0.4544520194,
				"element": "C" 
			},
			{
				"x": -0.0953525937,
				"y": 3.9881262493,
				"z": 0.4765253369,
				"element": "O" 
			},
			{
				"x": 0.9451628332,
				"y": 1.957259686,
				"z": -0.2666094882,
				"element": "C" 
			},
			{
				"x": 0.1277413047,
				"y": 1.815669337,
				"z": -1.5304273902,
				"element": "C" 
			},
			{
				"x": -0.3372583175,
				"y": 1.1121991244,
				"z": -0.2907980332,
				"element": "C" 
			},
			{
				"x": -0.2722417219,
				"y": -0.3657416229,
				"z": -0.1301723245,
				"element": "C" 
			},
			{
				"x": -1.229484279,
				"y": -1.0159405425,
				"z": 0.6642933991,
				"element": "C" 
			},
			{
				"x": -1.2706575173,
				"y": -2.3341771515,
				"z": 0.8787121945,
				"element": "N" 
			},
			{
				"x": -0.3286172598,
				"y": -3.0825591002,
				"z": 0.2932691192,
				"element": "C" 
			},
			{
				"x": 0.6745843873,
				"y": -2.5494449803,
				"z": -0.517935693,
				"element": "C" 
			},
			{
				"x": 0.701166844,
				"y": -1.1740857341,
				"z": -0.7318088419,
				"element": "C" 
			},
			{
				"x": 1.8770690397,
				"y": 4.3892348132,
				"z": 1.5510776109,
				"element": "H" 
			},
			{
				"x": 1.8885662346,
				"y": 1.4274294588,
				"z": -0.1936586999,
				"element": "H" 
			},
			{
				"x": 0.5527435231,
				"y": 1.2210181366,
				"z": -2.333171348,
				"element": "H" 
			},
			{
				"x": -0.430656514,
				"y": 2.6921120585,
				"z": -1.8421904246,
				"element": "H" 
			},
			{
				"x": -1.1731859127,
				"y": 1.5856392776,
				"z": 0.2168584695,
				"element": "H" 
			},
			{
				"x": -2.0074423853,
				"y": -0.4282067747,
				"z": 1.1513190138,
				"element": "H" 
			},
			{
				"x": -0.3774548044,
				"y": -4.1536759393,
				"z": 0.4805689359,
				"element": "H" 
			},
			{
				"x": 1.4170216099,
				"y": -3.1988638332,
				"z": -0.9714496445,
				"element": "H" 
			},
			{
				"x": 1.4740447046,
				"y": -0.7392154973,
				"z": -1.3606274974,
				"element": "H" 
			}
		],
		 "valence_orbital": [ 
			{
				"type": "occ",
				"energy": -0.31262,
				"method": "rhf"
			},
			{
				"type": "occ",
				"energy": -0.2858,
				"method": "rhf"
			},
			{
				"type": "occ",
				"energy": -0.28106,
				"method": "rhf"
			},
			{
				"type": "occ",
				"energy": -0.25403,
				"method": "rhf"
			},
			{
				"type": "occ",
				"energy": -0.24911,
				"method": "rhf"
			},
			{
				"type": "unocc",
				"energy": -0.03177,
				"method": "rhf"
			},
			{
				"type": "unocc",
				"energy": -0.01781,
				"method": "rhf"
			},
			{
				"type": "unocc",
				"energy": 0.01084,
				"method": "rhf"
			},
			{
				"type": "unocc",
				"energy": 0.07529,
				"method": "rhf"
			},
			{
				"type": "unocc",
				"energy": 0.08313,
				"method": "rhf"
			}
		],
		"cosmo_sigma_profile": { 
			"-0.025": 0.0,
			"-0.024": 0.0,
			"-0.023": 0.0,
			"-0.022": 0.0,
			"-0.021": 0.0,
			"-0.02": 0.0,
			"-0.019": 0.0407631754991,
			"-0.018": 0.674148487098,
			"-0.017": 1.02845799776,
			"-0.016": 0.751533682166,
			"-0.015": 0.713798542489,
			"-0.014": 0.620669596413,
			"-0.013": 0.928896653605,
			"-0.012": 0.601932567993,
			"-0.011": 1.00393952158,
			"-0.01": 0.572322180524,
			"-0.009": 0.511627119409,
			"-0.008": 2.90924153196,
			"-0.007": 9.53507104437,
			"-0.006": 14.18100703,
			"-0.005": 13.6116077998,
			"-0.004": 12.6412608974,
			"-0.003": 10.266474299,
			"-0.002": 15.0428457892,
			"-0.001": 13.1386815963,
			"0.0": 15.2144063693,
			"0.001": 13.5260401588,
			"0.002": 19.3849676397,
			"0.003": 13.3530671535,
			"0.004": 5.74795878554,
			"0.005": 4.21944714592,
			"0.006": 3.40328188728,
			"0.007": 4.36632696889,
			"0.008": 4.03500722134,
			"0.009": 4.53162761213,
			"0.01": 3.03661109311,
			"0.011": 4.14833780854,
			"0.012": 5.43583940893,
			"0.013": 1.38814624644,
			"0.014": 0.868565385221,
			"0.015": 0.793899809792,
			"0.016": 1.0362344758,
			"0.017": 0.38127560929,
			"0.018": 0.0,
			"0.019": 0.0,
			"0.02": 0.0,
			"0.021": 0.0,
			"0.022": 0.0,
			"0.023": 0.0,
			"0.024": 0.0,
			"0.025": 0.0
		}
	}
}
