{
	 "smiles": "OC(=O)CNC1=CC=CC=C1", 
	 "Tm": 401.15, 
	 "num_atms": 20, 
	 "gaussian": { 
		 "optdone": 1, 
		 "sigma_profile": "yes", 
		 "theory": "DFT", 
		 "functional": "B3LYP", 
		 "basiset": "6-31G**", 
		 "properties": { 
			 "R2extent": 3097.5993, 
			 "electric_dipole_moment_norm": 4.92449906183, 
			 "electric_quadrupole_moment_norm": 17.130778846, 
			 "total_energy": -515.482888406, 
			 "HOMO_LUMO_gap": 0.21195, 
			 "cosmo_polarized_energy": -15.4, 
			 "cosmo_cavitation_energy": 23.89, 
			 "cosmo_dispersion_energy": -17.61, 
			 "cosmo_repulsion_energy": 1.43, 
			 "cosmo_total_nonelectrostatic_energy": 7.7, 
			 "SMD_solvation_energy": 5.08 
		},
		"coords": [
			{
				"x": -1.4301985746,
				"y": -2.9093983398,
				"z": -1.2546797417,
				"element": "O" 
			},
			{
				"x": -0.1537934204,
				"y": -2.6792231828,
				"z": -1.6039280038,
				"element": "C" 
			},
			{
				"x": 0.4872968446,
				"y": -3.4247605456,
				"z": -2.3032895734,
				"element": "O" 
			},
			{
				"x": 0.415044251,
				"y": -1.3545933311,
				"z": -1.0656995251,
				"element": "C" 
			},
			{
				"x": -0.4152803104,
				"y": -0.7714240246,
				"z": -0.0146521615,
				"element": "N" 
			},
			{
				"x": -0.1356417222,
				"y": -1.0524640429,
				"z": 1.3447647606,
				"element": "C" 
			},
			{
				"x": -0.5221808351,
				"y": -0.1294959938,
				"z": 2.3297373578,
				"element": "C" 
			},
			{
				"x": -0.3013130788,
				"y": -0.4020222428,
				"z": 3.6769671259,
				"element": "C" 
			},
			{
				"x": 0.3101023723,
				"y": -1.5956906483,
				"z": 4.0683255911,
				"element": "C" 
			},
			{
				"x": 0.6928835996,
				"y": -2.5137090076,
				"z": 3.0909491238,
				"element": "C" 
			},
			{
				"x": 0.4732815355,
				"y": -2.2539450544,
				"z": 1.7370587346,
				"element": "C" 
			},
			{
				"x": -1.6870058812,
				"y": -2.1657560094,
				"z": -0.6694479401,
				"element": "H" 
			},
			{
				"x": 0.4508417543,
				"y": -0.6630952916,
				"z": -1.9135727851,
				"element": "H" 
			},
			{
				"x": 1.4488558417,
				"y": -1.5324114225,
				"z": -0.7492244551,
				"element": "H" 
			},
			{
				"x": -0.6145943187,
				"y": 0.209178651,
				"z": -0.1641254507,
				"element": "H" 
			},
			{
				"x": -0.9962240769,
				"y": 0.8039159114,
				"z": 2.0337946883,
				"element": "H" 
			},
			{
				"x": -0.6043591956,
				"y": 0.3265056525,
				"z": 4.4235766516,
				"element": "H" 
			},
			{
				"x": 0.4840124537,
				"y": -1.8056197175,
				"z": 5.1188555968,
				"element": "H" 
			},
			{
				"x": 1.1666432987,
				"y": -3.4481612955,
				"z": 3.3775694869,
				"element": "H" 
			},
			{
				"x": 0.7697294625,
				"y": -2.9914300649,
				"z": 0.9986205191,
				"element": "H" 
			}
		],
		 "valence_orbital": [ 
			{
				"type": "occ",
				"energy": -0.32387,
				"method": "rhf"
			},
			{
				"type": "occ",
				"energy": -0.30754,
				"method": "rhf"
			},
			{
				"type": "occ",
				"energy": -0.26609,
				"method": "rhf"
			},
			{
				"type": "occ",
				"energy": -0.25932,
				"method": "rhf"
			},
			{
				"type": "occ",
				"energy": -0.22363,
				"method": "rhf"
			},
			{
				"type": "unocc",
				"energy": -0.01168,
				"method": "rhf"
			},
			{
				"type": "unocc",
				"energy": -0.00015,
				"method": "rhf"
			},
			{
				"type": "unocc",
				"energy": 0.0126,
				"method": "rhf"
			},
			{
				"type": "unocc",
				"energy": 0.06242,
				"method": "rhf"
			},
			{
				"type": "unocc",
				"energy": 0.08832,
				"method": "rhf"
			}
		],
		"cosmo_sigma_profile": { 
			"-0.025": 0.0,
			"-0.024": 0.0,
			"-0.023": 0.0,
			"-0.022": 0.0,
			"-0.021": 0.0,
			"-0.02": 0.0,
			"-0.019": 0.0,
			"-0.018": 0.0,
			"-0.017": 0.0,
			"-0.016": 0.0,
			"-0.015": 0.0,
			"-0.014": 0.748775372698,
			"-0.013": 1.61420026151,
			"-0.012": 2.50809352883,
			"-0.011": 2.10705906619,
			"-0.01": 2.50849963224,
			"-0.009": 4.39390798735,
			"-0.008": 5.69345336533,
			"-0.007": 5.53880484805,
			"-0.006": 10.6598688646,
			"-0.005": 14.3464916479,
			"-0.004": 15.0761313827,
			"-0.003": 14.438441641,
			"-0.002": 10.1770874784,
			"-0.001": 9.48286456051,
			"0.0": 6.4788461809,
			"0.001": 8.59663052695,
			"0.002": 8.91655064642,
			"0.003": 7.49880410263,
			"0.004": 9.67083792706,
			"0.005": 9.15241454018,
			"0.006": 10.6067415699,
			"0.007": 4.96708531108,
			"0.008": 2.73439221175,
			"0.009": 3.16208042515,
			"0.01": 4.74816207473,
			"0.011": 4.5746512538,
			"0.012": 6.01962729497,
			"0.013": 3.300819062,
			"0.014": 0.252138694143,
			"0.015": 0.0,
			"0.016": 0.0,
			"0.017": 0.0,
			"0.018": 0.0,
			"0.019": 0.0,
			"0.02": 0.0,
			"0.021": 0.0,
			"0.022": 0.0,
			"0.023": 0.0,
			"0.024": 0.0,
			"0.025": 0.0
		}
	}
}
