{
	 "smiles": "[O-][N+](=O)C1=C(F)C=CC(=C1)C#N", 
	 "Tm": 365.15, 
	 "num_atms": 15, 
	 "gaussian": { 
		 "optdone": 1, 
		 "sigma_profile": "yes", 
		 "theory": "DFT", 
		 "functional": "B3LYP", 
		 "basiset": "6-31G**", 
		 "properties": { 
			 "R2extent": 2499.5409, 
			 "electric_dipole_moment_norm": 3.93602162215, 
			 "electric_quadrupole_moment_norm": 19.6342038127, 
			 "total_energy": -628.203475103, 
			 "HOMO_LUMO_gap": 0.1791, 
			 "cosmo_polarized_energy": -13.07, 
			 "cosmo_cavitation_energy": 22.5, 
			 "cosmo_dispersion_energy": -15.84, 
			 "cosmo_repulsion_energy": 1.24, 
			 "cosmo_total_nonelectrostatic_energy": 7.9, 
			 "SMD_solvation_energy": 8.08 
		},
		"coords": [
			{
				"x": -1.5630113286,
				"y": 2.7997589577,
				"z": 2.1237230891,
				"element": "O" 
			},
			{
				"x": -1.2300613273,
				"y": 1.7070057203,
				"z": 2.5797010489,
				"element": "N" 
			},
			{
				"x": -1.4038491557,
				"y": 1.3382116199,
				"z": 3.7358118391,
				"element": "O" 
			},
			{
				"x": -0.5791286512,
				"y": 0.7691618172,
				"z": 1.6478424547,
				"element": "C" 
			},
			{
				"x": 0.0221182613,
				"y": -0.4230240312,
				"z": 2.0801768158,
				"element": "C" 
			},
			{
				"x": 0.0632872453,
				"y": -0.7717223506,
				"z": 3.3614047279,
				"element": "F" 
			},
			{
				"x": 0.6184794861,
				"y": -1.2791887372,
				"z": 1.1547870254,
				"element": "C" 
			},
			{
				"x": 0.6151820625,
				"y": -0.9581136051,
				"z": -0.1951637712,
				"element": "C" 
			},
			{
				"x": 0.0156174466,
				"y": 0.2372499316,
				"z": -0.6350473957,
				"element": "C" 
			},
			{
				"x": -0.576812373,
				"y": 1.0982780759,
				"z": 0.2941174349,
				"element": "C" 
			},
			{
				"x": 0.0124188287,
				"y": 0.5711074589,
				"z": -2.0294040873,
				"element": "C" 
			},
			{
				"x": 0.0147204778,
				"y": 0.8329066172,
				"z": -3.1622203673,
				"element": "N" 
			},
			{
				"x": 1.0788122798,
				"y": -2.1899194872,
				"z": 1.5207194228,
				"element": "H" 
			},
			{
				"x": 1.0761433209,
				"y": -1.6250893946,
				"z": -0.9153153482,
				"element": "H" 
			},
			{
				"x": -1.040116573,
				"y": 2.0278774071,
				"z": -0.011132889,
				"element": "H" 
			}
		],
		 "valence_orbital": [ 
			{
				"type": "occ",
				"energy": -0.32861,
				"method": "rhf"
			},
			{
				"type": "occ",
				"energy": -0.32628,
				"method": "rhf"
			},
			{
				"type": "occ",
				"energy": -0.31924,
				"method": "rhf"
			},
			{
				"type": "occ",
				"energy": -0.30855,
				"method": "rhf"
			},
			{
				"type": "occ",
				"energy": -0.2909,
				"method": "rhf"
			},
			{
				"type": "unocc",
				"energy": -0.1118,
				"method": "rhf"
			},
			{
				"type": "unocc",
				"energy": -0.0766,
				"method": "rhf"
			},
			{
				"type": "unocc",
				"energy": -0.03671,
				"method": "rhf"
			},
			{
				"type": "unocc",
				"energy": 0.01327,
				"method": "rhf"
			},
			{
				"type": "unocc",
				"energy": 0.03979,
				"method": "rhf"
			}
		],
		"cosmo_sigma_profile": { 
			"-0.025": 0.0,
			"-0.024": 0.0,
			"-0.023": 0.0,
			"-0.022": 0.0,
			"-0.021": 0.0,
			"-0.02": 0.0,
			"-0.019": 0.0,
			"-0.018": 0.0,
			"-0.017": 0.0,
			"-0.016": 0.0,
			"-0.015": 0.0,
			"-0.014": 0.0,
			"-0.013": 0.0,
			"-0.012": 0.0,
			"-0.011": 0.0380456526113,
			"-0.01": 3.83677725286,
			"-0.009": 7.43998772859,
			"-0.008": 7.50230519475,
			"-0.007": 7.39384779124,
			"-0.006": 7.10637620662,
			"-0.005": 10.3914941283,
			"-0.004": 13.585661586,
			"-0.003": 17.8933518086,
			"-0.002": 14.8530610378,
			"-0.001": 9.4029847695,
			"0.0": 5.54135827802,
			"0.001": 5.40421771948,
			"0.002": 9.24800822009,
			"0.003": 6.53857879164,
			"0.004": 5.84425561825,
			"0.005": 6.66527752534,
			"0.006": 8.52843776214,
			"0.007": 13.1644838892,
			"0.008": 9.05006110651,
			"0.009": 5.76887795243,
			"0.01": 3.41899884274,
			"0.011": 2.58490659812,
			"0.012": 1.94689569798,
			"0.013": 0.324162671112,
			"0.014": 0.0,
			"0.015": 0.0,
			"0.016": 0.0,
			"0.017": 0.0,
			"0.018": 0.0,
			"0.019": 0.0,
			"0.02": 0.0,
			"0.021": 0.0,
			"0.022": 0.0,
			"0.023": 0.0,
			"0.024": 0.0,
			"0.025": 0.0
		}
	}
}
