{
	 "smiles": "O=C1CCCC(C=CC2=CC=CC=C2)=C1", 
	 "Tm": 339.15, 
	 "num_atms": 29, 
	 "gaussian": { 
		 "optdone": 1, 
		 "sigma_profile": "yes", 
		 "theory": "DFT", 
		 "functional": "B3LYP", 
		 "basiset": "6-31G**", 
		 "properties": { 
			 "R2extent": 5712.3296, 
			 "electric_dipole_moment_norm": 4.54232547271, 
			 "electric_quadrupole_moment_norm": 19.1155963825, 
			 "total_energy": -617.137640887, 
			 "HOMO_LUMO_gap": 0.14264, 
			 "cosmo_polarized_energy": -11.7, 
			 "cosmo_cavitation_energy": 32.45, 
			 "cosmo_dispersion_energy": -23.67, 
			 "cosmo_repulsion_energy": 1.85, 
			 "cosmo_total_nonelectrostatic_energy": 10.63, 
			 "SMD_solvation_energy": 5.57 
		},
		"coords": [
			{
				"x": -3.6652309744,
				"y": 1.9919039001,
				"z": -1.1565373685,
				"element": "O" 
			},
			{
				"x": -2.4408016116,
				"y": 2.0415467754,
				"z": -1.1748114585,
				"element": "C" 
			},
			{
				"x": -1.6954446917,
				"y": 3.3364067324,
				"z": -1.4824175271,
				"element": "C" 
			},
			{
				"x": -0.320152857,
				"y": 3.3777485156,
				"z": -0.8077545744,
				"element": "C" 
			},
			{
				"x": 0.5036078902,
				"y": 2.1370437297,
				"z": -1.1716313943,
				"element": "C" 
			},
			{
				"x": -0.2619704372,
				"y": 0.8419821234,
				"z": -0.973403931,
				"element": "C" 
			},
			{
				"x": 0.5410002927,
				"y": -0.3730184229,
				"z": -0.8331983745,
				"element": "C" 
			},
			{
				"x": 0.1194190501,
				"y": -1.627693324,
				"z": -1.1062584271,
				"element": "C" 
			},
			{
				"x": 0.8830161906,
				"y": -2.8688465772,
				"z": -0.9679924675,
				"element": "C" 
			},
			{
				"x": 2.1547684972,
				"y": -2.9342480008,
				"z": -0.3637783285,
				"element": "C" 
			},
			{
				"x": 2.8371716051,
				"y": -4.1424174136,
				"z": -0.2687708909,
				"element": "C" 
			},
			{
				"x": 2.2679025899,
				"y": -5.3183947251,
				"z": -0.7687030798,
				"element": "C" 
			},
			{
				"x": 1.0059910221,
				"y": -5.2740615299,
				"z": -1.3629440764,
				"element": "C" 
			},
			{
				"x": 0.3228554253,
				"y": -4.0635476183,
				"z": -1.4589925933,
				"element": "C" 
			},
			{
				"x": -1.6205106775,
				"y": 0.8442184807,
				"z": -0.9350204531,
				"element": "C" 
			},
			{
				"x": -1.5773452968,
				"y": 3.3943707043,
				"z": -2.5749080277,
				"element": "H" 
			},
			{
				"x": -2.3331104058,
				"y": 4.1745476465,
				"z": -1.187967183,
				"element": "H" 
			},
			{
				"x": -0.4526035122,
				"y": 3.4112186894,
				"z": 0.281112486,
				"element": "H" 
			},
			{
				"x": 0.2215548604,
				"y": 4.2871043863,
				"z": -1.0895392395,
				"element": "H" 
			},
			{
				"x": 0.8253009318,
				"y": 2.194542782,
				"z": -2.2230969429,
				"element": "H" 
			},
			{
				"x": 1.4286559975,
				"y": 2.1036662773,
				"z": -0.5827481532,
				"element": "H" 
			},
			{
				"x": 1.5720497999,
				"y": -0.2171055546,
				"z": -0.5197075539,
				"element": "H" 
			},
			{
				"x": -0.8889831677,
				"y": -1.7537952982,
				"z": -1.4972899651,
				"element": "H" 
			},
			{
				"x": 2.607495389,
				"y": -2.0357958514,
				"z": 0.0439943676,
				"element": "H" 
			},
			{
				"x": 3.8156265239,
				"y": -4.1710857121,
				"z": 0.2022052867,
				"element": "H" 
			},
			{
				"x": 2.8031747134,
				"y": -6.2600491993,
				"z": -0.6900553109,
				"element": "H" 
			},
			{
				"x": 0.5529502454,
				"y": -6.1817971638,
				"z": -1.7508322533,
				"element": "H" 
			},
			{
				"x": -0.6596227642,
				"y": -4.033770957,
				"z": -1.9232649625,
				"element": "H" 
			},
			{
				"x": -2.1803646285,
				"y": -0.0639733949,
				"z": -0.7298876033,
				"element": "H" 
			}
		],
		 "valence_orbital": [ 
			{
				"type": "occ",
				"energy": -0.31868,
				"method": "rhf"
			},
			{
				"type": "occ",
				"energy": -0.27186,
				"method": "rhf"
			},
			{
				"type": "occ",
				"energy": -0.26003,
				"method": "rhf"
			},
			{
				"type": "occ",
				"energy": -0.22998,
				"method": "rhf"
			},
			{
				"type": "occ",
				"energy": -0.21856,
				"method": "rhf"
			},
			{
				"type": "unocc",
				"energy": -0.07592,
				"method": "rhf"
			},
			{
				"type": "unocc",
				"energy": -0.0122,
				"method": "rhf"
			},
			{
				"type": "unocc",
				"energy": -0.0077,
				"method": "rhf"
			},
			{
				"type": "unocc",
				"energy": 0.04535,
				"method": "rhf"
			},
			{
				"type": "unocc",
				"energy": 0.07724,
				"method": "rhf"
			}
		],
		"cosmo_sigma_profile": { 
			"-0.025": 0.0,
			"-0.024": 0.0,
			"-0.023": 0.0,
			"-0.022": 0.0,
			"-0.021": 0.0,
			"-0.02": 0.0,
			"-0.019": 0.0,
			"-0.018": 0.0,
			"-0.017": 0.0,
			"-0.016": 0.0,
			"-0.015": 0.0,
			"-0.014": 0.0,
			"-0.013": 0.0,
			"-0.012": 0.0,
			"-0.011": 0.0,
			"-0.01": 0.0,
			"-0.009": 0.0,
			"-0.008": 0.455448569949,
			"-0.007": 3.58412914588,
			"-0.006": 13.7772930286,
			"-0.005": 20.8321614837,
			"-0.004": 26.7105029139,
			"-0.003": 26.5941294405,
			"-0.002": 26.6201726703,
			"-0.001": 23.5059234629,
			"0.0": 15.511192015,
			"0.001": 14.2058557145,
			"0.002": 15.7683493926,
			"0.003": 18.279727317,
			"0.004": 16.8324732962,
			"0.005": 12.5865561552,
			"0.006": 2.35367337034,
			"0.007": 1.30568242695,
			"0.008": 1.77236351144,
			"0.009": 1.5919769286,
			"0.01": 1.44970180277,
			"0.011": 2.19328939329,
			"0.012": 2.42063681706,
			"0.013": 5.0878369044,
			"0.014": 3.25295502336,
			"0.015": 0.96241159441,
			"0.016": 0.0,
			"0.017": 0.0,
			"0.018": 0.0,
			"0.019": 0.0,
			"0.02": 0.0,
			"0.021": 0.0,
			"0.022": 0.0,
			"0.023": 0.0,
			"0.024": 0.0,
			"0.025": 0.0
		}
	}
}
