{
	 "smiles": "ClC1=C(C=CC=N1)C(=O)NCC=C", 
	 "Tm": 349.15, 
	 "num_atms": 22, 
	 "gaussian": { 
		 "optdone": 1, 
		 "sigma_profile": "yes", 
		 "theory": "DFT", 
		 "functional": "B3LYP", 
		 "basiset": "6-31G**", 
		 "properties": { 
			 "R2extent": 3847.6061, 
			 "electric_dipole_moment_norm": 5.28257311355, 
			 "electric_quadrupole_moment_norm": 22.4617125445, 
			 "total_energy": -993.274163575, 
			 "HOMO_LUMO_gap": 0.20574, 
			 "cosmo_polarized_energy": -16.66, 
			 "cosmo_cavitation_energy": 29.06, 
			 "cosmo_dispersion_energy": -19.47, 
			 "cosmo_repulsion_energy": 1.58, 
			 "cosmo_total_nonelectrostatic_energy": 11.17, 
			 "SMD_solvation_energy": 3.88 
		},
		"coords": [
			{
				"x": -3.212970008,
				"y": -0.2371332345,
				"z": 2.6867521868,
				"element": "Cl" 
			},
			{
				"x": -1.8298740167,
				"y": -1.2127029793,
				"z": 2.2118528072,
				"element": "C" 
			},
			{
				"x": -0.6208642181,
				"y": -0.5821436352,
				"z": 1.8710362264,
				"element": "C" 
			},
			{
				"x": 0.4311374252,
				"y": -1.4195880524,
				"z": 1.4893960651,
				"element": "C" 
			},
			{
				"x": 0.2468986303,
				"y": -2.8016909178,
				"z": 1.4651493547,
				"element": "C" 
			},
			{
				"x": -1.0018724644,
				"y": -3.30159427,
				"z": 1.8238499391,
				"element": "C" 
			},
			{
				"x": -2.0269411665,
				"y": -2.5183269046,
				"z": 2.1865934347,
				"element": "N" 
			},
			{
				"x": -0.3931443585,
				"y": 0.9045175235,
				"z": 2.0229571222,
				"element": "C" 
			},
			{
				"x": -0.3169421895,
				"y": 1.4160175237,
				"z": 3.1301694396,
				"element": "O" 
			},
			{
				"x": -0.1804145378,
				"y": 1.6193919849,
				"z": 0.8720274918,
				"element": "N" 
			},
			{
				"x": -0.5425147473,
				"y": 1.2383562092,
				"z": -0.4967493693,
				"element": "C" 
			},
			{
				"x": -2.0000386867,
				"y": 1.450917359,
				"z": -0.8263674014,
				"element": "C" 
			},
			{
				"x": -2.7978715481,
				"y": 0.5092974926,
				"z": -1.3276765892,
				"element": "C" 
			},
			{
				"x": 1.389844307,
				"y": -0.9828687339,
				"z": 1.223919043,
				"element": "H" 
			},
			{
				"x": 1.0505980326,
				"y": -3.4718171811,
				"z": 1.1792425892,
				"element": "H" 
			},
			{
				"x": -1.1988756616,
				"y": -4.3712858808,
				"z": 1.8232387535,
				"element": "H" 
			},
			{
				"x": -0.0499379638,
				"y": 2.6068787816,
				"z": 1.058521604,
				"element": "H" 
			},
			{
				"x": -0.270623976,
				"y": 0.1930311976,
				"z": -0.6620260882,
				"element": "H" 
			},
			{
				"x": 0.0880219095,
				"y": 1.8385694543,
				"z": -1.1645456007,
				"element": "H" 
			},
			{
				"x": -2.3908357254,
				"y": 2.4495457081,
				"z": -0.6320172574,
				"element": "H" 
			},
			{
				"x": -3.8396402745,
				"y": 0.707768125,
				"z": -1.5592972006,
				"element": "H" 
			},
			{
				"x": -2.4393387615,
				"y": -0.4987395702,
				"z": -1.5230265505,
				"element": "H" 
			}
		],
		 "valence_orbital": [ 
			{
				"type": "occ",
				"energy": -0.28215,
				"method": "rhf"
			},
			{
				"type": "occ",
				"energy": -0.27743,
				"method": "rhf"
			},
			{
				"type": "occ",
				"energy": -0.26612,
				"method": "rhf"
			},
			{
				"type": "occ",
				"energy": -0.25994,
				"method": "rhf"
			},
			{
				"type": "occ",
				"energy": -0.24947,
				"method": "rhf"
			},
			{
				"type": "unocc",
				"energy": -0.04373,
				"method": "rhf"
			},
			{
				"type": "unocc",
				"energy": -0.03272,
				"method": "rhf"
			},
			{
				"type": "unocc",
				"energy": 0.00245,
				"method": "rhf"
			},
			{
				"type": "unocc",
				"energy": 0.01573,
				"method": "rhf"
			},
			{
				"type": "unocc",
				"energy": 0.04021,
				"method": "rhf"
			}
		],
		"cosmo_sigma_profile": { 
			"-0.025": 0.0,
			"-0.024": 0.0,
			"-0.023": 0.0,
			"-0.022": 0.0,
			"-0.021": 0.0,
			"-0.02": 0.0,
			"-0.019": 0.0,
			"-0.018": 0.0,
			"-0.017": 0.0,
			"-0.016": 0.0,
			"-0.015": 0.0398370932683,
			"-0.014": 1.00944490805,
			"-0.013": 1.00326676713,
			"-0.012": 1.370987703,
			"-0.011": 0.836098639619,
			"-0.01": 1.03724025739,
			"-0.009": 2.35156202335,
			"-0.008": 6.37058619096,
			"-0.007": 9.80248897031,
			"-0.006": 13.6244905738,
			"-0.005": 16.6927877898,
			"-0.004": 14.7102960149,
			"-0.003": 14.6783292543,
			"-0.002": 13.7077203191,
			"-0.001": 16.9170629327,
			"0.0": 19.2220697966,
			"0.001": 18.2106708506,
			"0.002": 12.8514302725,
			"0.003": 12.5590968429,
			"0.004": 14.7689916929,
			"0.005": 8.80137224891,
			"0.006": 6.02668496576,
			"0.007": 3.47490159976,
			"0.008": 2.3253176037,
			"0.009": 2.74970718851,
			"0.01": 3.11761660786,
			"0.011": 3.21939011772,
			"0.012": 4.19460920749,
			"0.013": 6.17351475676,
			"0.014": 2.45162255965,
			"0.015": 0.0574233847543,
			"0.016": 0.0,
			"0.017": 0.0,
			"0.018": 0.0,
			"0.019": 0.0,
			"0.02": 0.0,
			"0.021": 0.0,
			"0.022": 0.0,
			"0.023": 0.0,
			"0.024": 0.0,
			"0.025": 0.0
		}
	}
}
