{
	 "smiles": "O=C(NC1CC1)C1CCNCC1", 
	 "Tm": 409.15, 
	 "num_atms": 28, 
	 "gaussian": { 
		 "optdone": 1, 
		 "sigma_profile": "yes", 
		 "theory": "DFT", 
		 "functional": "B3LYP", 
		 "basiset": "6-31G**", 
		 "properties": { 
			 "R2extent": 2762.7929, 
			 "electric_dipole_moment_norm": 4.86411054459, 
			 "electric_quadrupole_moment_norm": 9.80437271272, 
			 "total_energy": -537.301327238, 
			 "HOMO_LUMO_gap": 0.21538, 
			 "cosmo_polarized_energy": -11.45, 
			 "cosmo_cavitation_energy": 28.18, 
			 "cosmo_dispersion_energy": -20.72, 
			 "cosmo_repulsion_energy": 1.66, 
			 "cosmo_total_nonelectrostatic_energy": 9.12, 
			 "SMD_solvation_energy": 0.92 
		},
		"coords": [
			{
				"x": 2.399055057,
				"y": -0.029812848,
				"z": 0.8314457944,
				"element": "O" 
			},
			{
				"x": 1.2940678019,
				"y": 0.0781145734,
				"z": 1.3620636151,
				"element": "C" 
			},
			{
				"x": 1.1455375066,
				"y": -0.2654723972,
				"z": 2.6860318731,
				"element": "N" 
			},
			{
				"x": 0.0333447663,
				"y": 0.0028012587,
				"z": 3.555096023,
				"element": "C" 
			},
			{
				"x": -1.1665035113,
				"y": -0.9184810926,
				"z": 3.5603865289,
				"element": "C" 
			},
			{
				"x": -0.1873321711,
				"y": -0.9456106453,
				"z": 4.7049142357,
				"element": "C" 
			},
			{
				"x": 0.0504440337,
				"y": 0.54410203,
				"z": 0.6024485658,
				"element": "C" 
			},
			{
				"x": 0.3830938641,
				"y": 1.7166875348,
				"z": -0.3663361478,
				"element": "C" 
			},
			{
				"x": 0.5932405832,
				"y": 1.233961612,
				"z": -1.824576942,
				"element": "C" 
			},
			{
				"x": 1.2195827706,
				"y": -0.0838131926,
				"z": -1.9133903195,
				"element": "N" 
			},
			{
				"x": 0.3549797785,
				"y": -1.1249452453,
				"z": -1.3382425821,
				"element": "C" 
			},
			{
				"x": -0.5690155745,
				"y": -0.6340774064,
				"z": -0.1929543832,
				"element": "C" 
			},
			{
				"x": 2.0303212464,
				"y": -0.498256712,
				"z": 3.1218185855,
				"element": "H" 
			},
			{
				"x": -0.1614385682,
				"y": 1.0561522541,
				"z": 3.7572217727,
				"element": "H" 
			},
			{
				"x": -2.1450459369,
				"y": -0.4760745852,
				"z": 3.7193292078,
				"element": "H" 
			},
			{
				"x": -1.1501002826,
				"y": -1.7548706207,
				"z": 2.870092417,
				"element": "H" 
			},
			{
				"x": -0.4823777908,
				"y": -0.5244273499,
				"z": 5.6604701142,
				"element": "H" 
			},
			{
				"x": 0.475406791,
				"y": -1.8031132573,
				"z": 4.7744600931,
				"element": "H" 
			},
			{
				"x": -0.691053162,
				"y": 0.8798560793,
				"z": 1.3322184762,
				"element": "H" 
			},
			{
				"x": 1.2891525205,
				"y": 2.2234761002,
				"z": -0.019611995,
				"element": "H" 
			},
			{
				"x": -0.4279430931,
				"y": 2.4548364979,
				"z": -0.3315217282,
				"element": "H" 
			},
			{
				"x": 1.2065780354,
				"y": 1.9603100001,
				"z": -2.3692886221,
				"element": "H" 
			},
			{
				"x": -0.3695050693,
				"y": 1.1889506089,
				"z": -2.3509165894,
				"element": "H" 
			},
			{
				"x": 2.0647757262,
				"y": -0.052355338,
				"z": -1.3457773348,
				"element": "H" 
			},
			{
				"x": -0.2731695327,
				"y": -1.5563344922,
				"z": -2.130666932,
				"element": "H" 
			},
			{
				"x": 1.0033893207,
				"y": -1.9299586038,
				"z": -0.9789031892,
				"element": "H" 
			},
			{
				"x": -0.8219993534,
				"y": -1.4657676104,
				"z": 0.4739483532,
				"element": "H" 
			},
			{
				"x": -1.5187857564,
				"y": -0.2750771526,
				"z": -0.6076588903,
				"element": "H" 
			}
		],
		 "valence_orbital": [ 
			{
				"type": "occ",
				"energy": -0.31066,
				"method": "rhf"
			},
			{
				"type": "occ",
				"energy": -0.30664,
				"method": "rhf"
			},
			{
				"type": "occ",
				"energy": -0.25357,
				"method": "rhf"
			},
			{
				"type": "occ",
				"energy": -0.24832,
				"method": "rhf"
			},
			{
				"type": "occ",
				"energy": -0.19707,
				"method": "rhf"
			},
			{
				"type": "unocc",
				"energy": 0.01831,
				"method": "rhf"
			},
			{
				"type": "unocc",
				"energy": 0.0781,
				"method": "rhf"
			},
			{
				"type": "unocc",
				"energy": 0.08187,
				"method": "rhf"
			},
			{
				"type": "unocc",
				"energy": 0.09174,
				"method": "rhf"
			},
			{
				"type": "unocc",
				"energy": 0.10116,
				"method": "rhf"
			}
		],
		"cosmo_sigma_profile": { 
			"-0.025": 0.0,
			"-0.024": 0.0,
			"-0.023": 0.0,
			"-0.022": 0.0,
			"-0.021": 0.0,
			"-0.02": 0.0,
			"-0.019": 0.0,
			"-0.018": 0.0,
			"-0.017": 0.0,
			"-0.016": 0.0,
			"-0.015": 0.0,
			"-0.014": 0.0,
			"-0.013": 0.245496849516,
			"-0.012": 0.995604738507,
			"-0.011": 0.76714935393,
			"-0.01": 0.834975499544,
			"-0.009": 0.761774480348,
			"-0.008": 1.20887737934,
			"-0.007": 1.39698429651,
			"-0.006": 2.32173789638,
			"-0.005": 11.5111418087,
			"-0.004": 15.2844030661,
			"-0.003": 26.4749339905,
			"-0.002": 36.6008408963,
			"-0.001": 29.6904118803,
			"0.0": 28.1987866178,
			"0.001": 13.967438682,
			"0.002": 7.43572302854,
			"0.003": 6.28404066132,
			"0.004": 5.54376191523,
			"0.005": 3.98097789907,
			"0.006": 1.97565477954,
			"0.007": 2.44538898904,
			"0.008": 1.82808865787,
			"0.009": 2.09577803448,
			"0.01": 2.37373389024,
			"0.011": 2.11510605193,
			"0.012": 1.93814718215,
			"0.013": 3.28115535234,
			"0.014": 3.11159829728,
			"0.015": 1.06662237578,
			"0.016": 0.74438177839,
			"0.017": 0.699534453458,
			"0.018": 0.581816906451,
			"0.019": 0.553802136053,
			"0.02": 0.16696703312,
			"0.021": 0.0,
			"0.022": 0.0,
			"0.023": 0.0,
			"0.024": 0.0,
			"0.025": 0.0
		}
	}
}
