{
	 "smiles": "COC1=CC=C(OC)C2=CC3=C(C=CC=C3)C=C12", 
	 "Tm": 409.15, 
	 "num_atms": 32, 
	 "gaussian": { 
		 "optdone": 1, 
		 "sigma_profile": "yes", 
		 "theory": "DFT", 
		 "functional": "B3LYP", 
		 "basiset": "6-31G**", 
		 "properties": { 
			 "R2extent": 5223.7792, 
			 "electric_dipole_moment_norm": 2.32652183527, 
			 "electric_quadrupole_moment_norm": 13.6004086497, 
			 "total_energy": -768.581306213, 
			 "HOMO_LUMO_gap": 0.12647, 
			 "cosmo_polarized_energy": -9.11, 
			 "cosmo_cavitation_energy": 34.88, 
			 "cosmo_dispersion_energy": -25.86, 
			 "cosmo_repulsion_energy": 1.95, 
			 "cosmo_total_nonelectrostatic_energy": 10.96, 
			 "SMD_solvation_energy": 6.87 
		},
		"coords": [
			{
				"x": 2.6167673596,
				"y": 1.1997204817,
				"z": -2.7536123386,
				"element": "C" 
			},
			{
				"x": 2.1466166468,
				"y": 0.4549833877,
				"z": -1.6448191752,
				"element": "O" 
			},
			{
				"x": 0.8112435581,
				"y": 0.5149963665,
				"z": -1.35390819,
				"element": "C" 
			},
			{
				"x": -0.1161678742,
				"y": 1.2430699396,
				"z": -2.0531893721,
				"element": "C" 
			},
			{
				"x": -1.4921102049,
				"y": 1.2404420878,
				"z": -1.669047572,
				"element": "C" 
			},
			{
				"x": -1.9206192855,
				"y": 0.5097797991,
				"z": -0.5912286396,
				"element": "C" 
			},
			{
				"x": -3.2133215746,
				"y": 0.4448129074,
				"z": -0.1483744894,
				"element": "O" 
			},
			{
				"x": -4.1924272671,
				"y": 1.1869951357,
				"z": -0.8524002137,
				"element": "C" 
			},
			{
				"x": -0.9813469482,
				"y": -0.2720152216,
				"z": 0.1752833049,
				"element": "C" 
			},
			{
				"x": -1.3803918162,
				"y": -1.0291377171,
				"z": 1.27952973,
				"element": "C" 
			},
			{
				"x": -0.4627747022,
				"y": -1.7877797673,
				"z": 2.0215973416,
				"element": "C" 
			},
			{
				"x": 0.9258161009,
				"y": -1.7850484553,
				"z": 1.633979013,
				"element": "C" 
			},
			{
				"x": 1.8522679941,
				"y": -2.5610499951,
				"z": 2.3963941042,
				"element": "C" 
			},
			{
				"x": 1.4344710614,
				"y": -3.2955729605,
				"z": 3.476138978,
				"element": "C" 
			},
			{
				"x": 0.061751438,
				"y": -3.2982812022,
				"z": 3.8593242642,
				"element": "C" 
			},
			{
				"x": -0.8575596224,
				"y": -2.5663948279,
				"z": 3.1528287318,
				"element": "C" 
			},
			{
				"x": 1.3236497245,
				"y": -1.0238606892,
				"z": 0.5246798429,
				"element": "C" 
			},
			{
				"x": 0.4076225475,
				"y": -0.2693265302,
				"z": -0.2124673753,
				"element": "C" 
			},
			{
				"x": 3.6909905514,
				"y": 1.0162701253,
				"z": -2.8104813395,
				"element": "H" 
			},
			{
				"x": 2.1433466925,
				"y": 0.8730941232,
				"z": -3.689042151,
				"element": "H" 
			},
			{
				"x": 2.4393510824,
				"y": 2.2753514791,
				"z": -2.621762128,
				"element": "H" 
			},
			{
				"x": 0.1722360931,
				"y": 1.8365581381,
				"z": -2.9121860224,
				"element": "H" 
			},
			{
				"x": -2.1858272564,
				"y": 1.8320559837,
				"z": -2.2538772874,
				"element": "H" 
			},
			{
				"x": -4.2712432998,
				"y": 0.8610666496,
				"z": -1.8980574491,
				"element": "H" 
			},
			{
				"x": -5.1400283276,
				"y": 1.0000016054,
				"z": -0.3445351959,
				"element": "H" 
			},
			{
				"x": -3.9758811862,
				"y": 2.2633206122,
				"z": -0.8306405973,
				"element": "H" 
			},
			{
				"x": -2.4265281255,
				"y": -1.0266968378,
				"z": 1.5656339998,
				"element": "H" 
			},
			{
				"x": 2.8985384803,
				"y": -2.5567930525,
				"z": 2.1014330455,
				"element": "H" 
			},
			{
				"x": 2.1491939278,
				"y": -3.8812494206,
				"z": 4.0472632096,
				"element": "H" 
			},
			{
				"x": -0.2516948356,
				"y": -3.8859919462,
				"z": 4.7174483371,
				"element": "H" 
			},
			{
				"x": -1.9053378626,
				"y": -2.5662739325,
				"z": 3.4424231195,
				"element": "H" 
			},
			{
				"x": 2.3666969304,
				"y": -1.0173462662,
				"z": 0.2275725141,
				"element": "H" 
			}
		],
		 "valence_orbital": [ 
			{
				"type": "occ",
				"energy": -0.27998,
				"method": "rhf"
			},
			{
				"type": "occ",
				"energy": -0.27676,
				"method": "rhf"
			},
			{
				"type": "occ",
				"energy": -0.23289,
				"method": "rhf"
			},
			{
				"type": "occ",
				"energy": -0.22058,
				"method": "rhf"
			},
			{
				"type": "occ",
				"energy": -0.17525,
				"method": "rhf"
			},
			{
				"type": "unocc",
				"energy": -0.04878,
				"method": "rhf"
			},
			{
				"type": "unocc",
				"energy": -0.00677,
				"method": "rhf"
			},
			{
				"type": "unocc",
				"energy": 0.023,
				"method": "rhf"
			},
			{
				"type": "unocc",
				"energy": 0.06174,
				"method": "rhf"
			},
			{
				"type": "unocc",
				"energy": 0.0745,
				"method": "rhf"
			}
		],
		"cosmo_sigma_profile": { 
			"-0.025": 0.0,
			"-0.024": 0.0,
			"-0.023": 0.0,
			"-0.022": 0.0,
			"-0.021": 0.0,
			"-0.02": 0.0,
			"-0.019": 0.0,
			"-0.018": 0.0,
			"-0.017": 0.0,
			"-0.016": 0.0,
			"-0.015": 0.0,
			"-0.014": 0.0,
			"-0.013": 0.0,
			"-0.012": 0.0,
			"-0.011": 0.0,
			"-0.01": 0.0,
			"-0.009": 0.0,
			"-0.008": 0.0,
			"-0.007": 0.255856367021,
			"-0.006": 13.4654760059,
			"-0.005": 32.1407057046,
			"-0.004": 29.5393023421,
			"-0.003": 28.9533628832,
			"-0.002": 17.698699803,
			"-0.001": 13.7855342989,
			"0.0": 12.2604821583,
			"0.001": 11.4399149364,
			"0.002": 12.7412038087,
			"0.003": 28.427376366,
			"0.004": 41.6698916386,
			"0.005": 20.508920925,
			"0.006": 8.09366925366,
			"0.007": 4.42588598608,
			"0.008": 2.96054894677,
			"0.009": 0.300637665624,
			"0.01": 0.0,
			"0.011": 0.0,
			"0.012": 0.0,
			"0.013": 0.0,
			"0.014": 0.0,
			"0.015": 0.0,
			"0.016": 0.0,
			"0.017": 0.0,
			"0.018": 0.0,
			"0.019": 0.0,
			"0.02": 0.0,
			"0.021": 0.0,
			"0.022": 0.0,
			"0.023": 0.0,
			"0.024": 0.0,
			"0.025": 0.0
		}
	}
}
