{
	 "smiles": "O=C1OC(=NC1=C/C1=CC(C=C2/N=C(OC2=O)C2=CC=CC=C2)=CC=C1)C1=CC=CC=C1", 
	 "Tm": 520.15, 
	 "num_atms": 48, 
	 "gaussian": { 
		 "optdone": 1, 
		 "sigma_profile": "yes", 
		 "theory": "DFT", 
		 "functional": "B3LYP", 
		 "basiset": "6-31G**", 
		 "properties": { 
			 "R2extent": 23923.1661, 
			 "electric_dipole_moment_norm": 3.37404907048, 
			 "electric_quadrupole_moment_norm": 42.5169523707, 
			 "total_energy": -1410.82490998, 
			 "HOMO_LUMO_gap": 0.1219, 
			 "cosmo_polarized_energy": -16.37, 
			 "cosmo_cavitation_energy": 56.22, 
			 "cosmo_dispersion_energy": -39.6, 
			 "cosmo_repulsion_energy": 2.89, 
			 "cosmo_total_nonelectrostatic_energy": 19.51, 
			 "SMD_solvation_energy": 9.64 
		},
		"coords": [
			{
				"x": 2.7258089085,
				"y": -2.7571627132,
				"z": -5.6596325847,
				"element": "O" 
			},
			{
				"x": 2.0060622276,
				"y": -1.8970485238,
				"z": -5.228723955,
				"element": "C" 
			},
			{
				"x": 1.2223003686,
				"y": -1.0773298587,
				"z": -6.0617900636,
				"element": "O" 
			},
			{
				"x": 0.5421158061,
				"y": -0.2255785692,
				"z": -5.2212178455,
				"element": "C" 
			},
			{
				"x": 0.7729927302,
				"y": -0.3756176309,
				"z": -3.9540103745,
				"element": "N" 
			},
			{
				"x": 1.6944668298,
				"y": -1.4187852556,
				"z": -3.8599968747,
				"element": "C" 
			},
			{
				"x": 2.2649661252,
				"y": -1.970972506,
				"z": -2.7580652259,
				"element": "C" 
			},
			{
				"x": 2.0839141947,
				"y": -1.6388155407,
				"z": -1.3552474661,
				"element": "C" 
			},
			{
				"x": 1.224188431,
				"y": -0.6190156964,
				"z": -0.9060946401,
				"element": "C" 
			},
			{
				"x": 1.0808948863,
				"y": -0.3334055236,
				"z": 0.4620970137,
				"element": "C" 
			},
			{
				"x": 0.171695311,
				"y": 0.7365064414,
				"z": 0.8376376623,
				"element": "C" 
			},
			{
				"x": -0.1497350891,
				"y": 1.2125500093,
				"z": 2.0683421447,
				"element": "C" 
			},
			{
				"x": 0.3028672467,
				"y": 0.8079742121,
				"z": 3.3251078819,
				"element": "N" 
			},
			{
				"x": -0.3021234123,
				"y": 1.5744714561,
				"z": 4.1778703422,
				"element": "C" 
			},
			{
				"x": -1.161663956,
				"y": 2.5080144345,
				"z": 3.6451500094,
				"element": "O" 
			},
			{
				"x": -1.1115686193,
				"y": 2.3262851143,
				"z": 2.250131099,
				"element": "C" 
			},
			{
				"x": -1.75678067,
				"y": 2.9946483624,
				"z": 1.488099247,
				"element": "O" 
			},
			{
				"x": -0.1668763624,
				"y": 1.5494579957,
				"z": 5.6292030161,
				"element": "C" 
			},
			{
				"x": -0.8882384327,
				"y": 2.4477182994,
				"z": 6.4329193613,
				"element": "C" 
			},
			{
				"x": -0.74499055,
				"y": 2.407775468,
				"z": 7.8180275939,
				"element": "C" 
			},
			{
				"x": 0.1132021356,
				"y": 1.4775330817,
				"z": 8.4086010089,
				"element": "C" 
			},
			{
				"x": 0.832674372,
				"y": 0.5818241048,
				"z": 7.6102429471,
				"element": "C" 
			},
			{
				"x": 0.6961572269,
				"y": 0.6143992646,
				"z": 6.2269818014,
				"element": "C" 
			},
			{
				"x": 1.8190031445,
				"y": -1.090297011,
				"z": 1.4014479087,
				"element": "C" 
			},
			{
				"x": 2.6711118577,
				"y": -2.1000705416,
				"z": 0.9660186069,
				"element": "C" 
			},
			{
				"x": 2.8060180798,
				"y": -2.3755497217,
				"z": -0.3935745041,
				"element": "C" 
			},
			{
				"x": -0.3542162398,
				"y": 0.7425446008,
				"z": -5.8402601061,
				"element": "C" 
			},
			{
				"x": -1.0726239958,
				"y": 1.6372376015,
				"z": -5.0276549658,
				"element": "C" 
			},
			{
				"x": -1.9302727401,
				"y": 2.565246677,
				"z": -5.6075205637,
				"element": "C" 
			},
			{
				"x": -2.0797601479,
				"y": 2.6103710801,
				"z": -6.997809865,
				"element": "C" 
			},
			{
				"x": -1.3677270262,
				"y": 1.7230285649,
				"z": -7.8080990764,
				"element": "C" 
			},
			{
				"x": -0.5061376048,
				"y": 0.7898780317,
				"z": -7.236068107,
				"element": "C" 
			},
			{
				"x": 2.9586251221,
				"y": -2.7814973413,
				"z": -2.9729506183,
				"element": "H" 
			},
			{
				"x": 0.665618477,
				"y": -0.0478756335,
				"z": -1.6389270529,
				"element": "H" 
			},
			{
				"x": -0.3347778616,
				"y": 1.2410191989,
				"z": 0.0173764909,
				"element": "H" 
			},
			{
				"x": -1.5523699999,
				"y": 3.1666956,
				"z": 5.9665733996,
				"element": "H" 
			},
			{
				"x": -1.3036038509,
				"y": 3.1031761957,
				"z": 8.4370837584,
				"element": "H" 
			},
			{
				"x": 0.2222875677,
				"y": 1.4492828742,
				"z": 9.4888567838,
				"element": "H" 
			},
			{
				"x": 1.4997835936,
				"y": -0.1412996513,
				"z": 8.0697111809,
				"element": "H" 
			},
			{
				"x": 1.2462193346,
				"y": -0.0724624911,
				"z": 5.5932088354,
				"element": "H" 
			},
			{
				"x": 1.7095166582,
				"y": -0.8708953654,
				"z": 2.4565851906,
				"element": "H" 
			},
			{
				"x": 3.2356796573,
				"y": -2.6784448016,
				"z": 1.6912444844,
				"element": "H" 
			},
			{
				"x": 3.474241501,
				"y": -3.1664727957,
				"z": -0.7236161684,
				"element": "H" 
			},
			{
				"x": -0.9453706203,
				"y": 1.5891733324,
				"z": -3.9518477627,
				"element": "H" 
			},
			{
				"x": -2.4837540629,
				"y": 3.2549956051,
				"z": -4.9776355235,
				"element": "H" 
			},
			{
				"x": -2.7505942165,
				"y": 3.3366127877,
				"z": -7.4474815764,
				"element": "H" 
			},
			{
				"x": -1.4836656739,
				"y": 1.7578951629,
				"z": -8.8870815908,
				"element": "H" 
			},
			{
				"x": 0.0503393388,
				"y": 0.097581615,
				"z": -7.857811257,
				"element": "H" 
			}
		],
		 "valence_orbital": [ 
			{
				"type": "occ",
				"energy": -0.27182,
				"method": "rhf"
			},
			{
				"type": "occ",
				"energy": -0.26869,
				"method": "rhf"
			},
			{
				"type": "occ",
				"energy": -0.26668,
				"method": "rhf"
			},
			{
				"type": "occ",
				"energy": -0.22847,
				"method": "rhf"
			},
			{
				"type": "occ",
				"energy": -0.21995,
				"method": "rhf"
			},
			{
				"type": "unocc",
				"energy": -0.09805,
				"method": "rhf"
			},
			{
				"type": "unocc",
				"energy": -0.09292,
				"method": "rhf"
			},
			{
				"type": "unocc",
				"energy": -0.04087,
				"method": "rhf"
			},
			{
				"type": "unocc",
				"energy": -0.03749,
				"method": "rhf"
			},
			{
				"type": "unocc",
				"energy": -0.01727,
				"method": "rhf"
			}
		],
		"cosmo_sigma_profile": { 
			"-0.025": 0.0,
			"-0.024": 0.0,
			"-0.023": 0.0,
			"-0.022": 0.0,
			"-0.021": 0.0,
			"-0.02": 0.0,
			"-0.019": 0.0,
			"-0.018": 0.0,
			"-0.017": 0.0,
			"-0.016": 0.0,
			"-0.015": 0.0,
			"-0.014": 0.0,
			"-0.013": 0.0,
			"-0.012": 0.0,
			"-0.011": 0.0,
			"-0.01": 0.0,
			"-0.009": 0.855866747147,
			"-0.008": 4.62441495685,
			"-0.007": 13.1118128676,
			"-0.006": 29.7340250581,
			"-0.005": 33.9574456523,
			"-0.004": 30.5857404628,
			"-0.003": 27.7997442694,
			"-0.002": 27.158311565,
			"-0.001": 33.9349569562,
			"0.0": 37.9502623797,
			"0.001": 51.5776071769,
			"0.002": 46.8664933577,
			"0.003": 41.4613000538,
			"0.004": 23.4488625565,
			"0.005": 9.0871784985,
			"0.006": 8.81999273633,
			"0.007": 6.68440917663,
			"0.008": 4.63403432747,
			"0.009": 6.00142565294,
			"0.01": 9.89348137548,
			"0.011": 7.07677518914,
			"0.012": 0.393462532641,
			"0.013": 0.0,
			"0.014": 0.0,
			"0.015": 0.0,
			"0.016": 0.0,
			"0.017": 0.0,
			"0.018": 0.0,
			"0.019": 0.0,
			"0.02": 0.0,
			"0.021": 0.0,
			"0.022": 0.0,
			"0.023": 0.0,
			"0.024": 0.0,
			"0.025": 0.0
		}
	}
}
