{
	 "smiles": "CC1=C(C=CC=C1Br)[N+]([O-])=O", 
	 "Tm": 313.15, 
	 "num_atms": 17, 
	 "gaussian": { 
		 "optdone": 1, 
		 "sigma_profile": "yes", 
		 "theory": "DFT", 
		 "functional": "B3LYP", 
		 "basiset": "6-31G**", 
		 "properties": { 
			 "R2extent": 2682.6935, 
			 "electric_dipole_moment_norm": 3.21856351965, 
			 "electric_quadrupole_moment_norm": 11.4005920552, 
			 "total_energy": -3046.86279438, 
			 "HOMO_LUMO_gap": 0.17092, 
			 "cosmo_polarized_energy": -7.11, 
			 "cosmo_cavitation_energy": 23.53, 
			 "cosmo_dispersion_energy": -17.87, 
			 "cosmo_repulsion_energy": 1.42, 
			 "cosmo_total_nonelectrostatic_energy": 7.08, 
			 "SMD_solvation_energy": 5.21 
		},
		"coords": [
			{
				"x": 1.5714194496,
				"y": -1.1340705614,
				"z": 0.6905837852,
				"element": "C" 
			},
			{
				"x": 0.3932130756,
				"y": -0.3159028613,
				"z": 0.2250987881,
				"element": "C" 
			},
			{
				"x": -0.7548369746,
				"y": -0.8698407643,
				"z": -0.3793685578,
				"element": "C" 
			},
			{
				"x": -1.868883326,
				"y": -0.1206419268,
				"z": -0.7570378838,
				"element": "C" 
			},
			{
				"x": -1.8583944039,
				"y": 1.2552937486,
				"z": -0.5691370774,
				"element": "C" 
			},
			{
				"x": -0.7429888205,
				"y": 1.8592866997,
				"z": 0.0059697157,
				"element": "C" 
			},
			{
				"x": 0.3470930265,
				"y": 1.0808986716,
				"z": 0.3949062641,
				"element": "C" 
			},
			{
				"x": 1.8227140068,
				"y": 2.020996065,
				"z": 1.1777768722,
				"element": "Br" 
			},
			{
				"x": -0.8386495361,
				"y": -2.315401509,
				"z": -0.67166794,
				"element": "N" 
			},
			{
				"x": -1.9605959266,
				"y": -2.8198496607,
				"z": -0.6985113282,
				"element": "O" 
			},
			{
				"x": 0.2058128633,
				"y": -2.9247191296,
				"z": -0.8990734939,
				"element": "O" 
			},
			{
				"x": 1.2651822101,
				"y": -2.1190364967,
				"z": 1.0411449313,
				"element": "H" 
			},
			{
				"x": 2.0961378835,
				"y": -0.6126377835,
				"z": 1.4909110366,
				"element": "H" 
			},
			{
				"x": 2.2764818579,
				"y": -1.297590833,
				"z": -0.1307555385,
				"element": "H" 
			},
			{
				"x": -2.7167772842,
				"y": -0.6319068374,
				"z": -1.194437467,
				"element": "H" 
			},
			{
				"x": -2.7099453185,
				"y": 1.8566764207,
				"z": -0.8694049289,
				"element": "H" 
			},
			{
				"x": -0.7131827829,
				"y": 2.9316467582,
				"z": 0.1597028224,
				"element": "H" 
			}
		],
		 "valence_orbital": [ 
			{
				"type": "occ",
				"energy": -0.31111,
				"method": "rhf"
			},
			{
				"type": "occ",
				"energy": -0.30393,
				"method": "rhf"
			},
			{
				"type": "occ",
				"energy": -0.29641,
				"method": "rhf"
			},
			{
				"type": "occ",
				"energy": -0.27919,
				"method": "rhf"
			},
			{
				"type": "occ",
				"energy": -0.26216,
				"method": "rhf"
			},
			{
				"type": "unocc",
				"energy": -0.09124,
				"method": "rhf"
			},
			{
				"type": "unocc",
				"energy": -0.03579,
				"method": "rhf"
			},
			{
				"type": "unocc",
				"energy": -0.01623,
				"method": "rhf"
			},
			{
				"type": "unocc",
				"energy": -0.01058,
				"method": "rhf"
			},
			{
				"type": "unocc",
				"energy": 0.09306,
				"method": "rhf"
			}
		],
		"cosmo_sigma_profile": { 
			"-0.025": 0.0,
			"-0.024": 0.0,
			"-0.023": 0.0,
			"-0.022": 0.0,
			"-0.021": 0.0,
			"-0.02": 0.0,
			"-0.019": 0.0,
			"-0.018": 0.0,
			"-0.017": 0.0,
			"-0.016": 0.0,
			"-0.015": 0.0,
			"-0.014": 0.0,
			"-0.013": 0.0,
			"-0.012": 0.0,
			"-0.011": 0.0,
			"-0.01": 0.0,
			"-0.009": 0.42322308823,
			"-0.008": 4.91682888778,
			"-0.007": 7.4237389605,
			"-0.006": 8.20588098424,
			"-0.005": 10.1082961008,
			"-0.004": 11.4154577235,
			"-0.003": 12.1095690978,
			"-0.002": 15.1982404913,
			"-0.001": 20.016275285,
			"0.0": 20.6278289079,
			"0.001": 18.8178003506,
			"0.002": 13.9827883397,
			"0.003": 10.0721079269,
			"0.004": 10.2620048121,
			"0.005": 3.05281536196,
			"0.006": 4.41205559229,
			"0.007": 8.06864842549,
			"0.008": 6.69584437385,
			"0.009": 4.15152262995,
			"0.01": 1.93374709313,
			"0.011": 0.00680948202486,
			"0.012": 0.0,
			"0.013": 0.0,
			"0.014": 0.0,
			"0.015": 0.0,
			"0.016": 0.0,
			"0.017": 0.0,
			"0.018": 0.0,
			"0.019": 0.0,
			"0.02": 0.0,
			"0.021": 0.0,
			"0.022": 0.0,
			"0.023": 0.0,
			"0.024": 0.0,
			"0.025": 0.0
		}
	}
}
