{
	 "smiles": "COC1=C(OC)C=C(C=C1)C(O)=O", 
	 "Tm": 453.15, 
	 "num_atms": 23, 
	 "gaussian": { 
		 "optdone": 1, 
		 "sigma_profile": "yes", 
		 "theory": "DFT", 
		 "functional": "B3LYP", 
		 "basiset": "6-31G**", 
		 "properties": { 
			 "R2extent": 3979.7049, 
			 "electric_dipole_moment_norm": 5.45758715276, 
			 "electric_quadrupole_moment_norm": 29.4512261023, 
			 "total_energy": -649.853813636, 
			 "HOMO_LUMO_gap": 0.19714, 
			 "cosmo_polarized_energy": -15.04, 
			 "cosmo_cavitation_energy": 27.2, 
			 "cosmo_dispersion_energy": -19.68, 
			 "cosmo_repulsion_energy": 1.57, 
			 "cosmo_total_nonelectrostatic_energy": 9.09, 
			 "SMD_solvation_energy": 7.37 
		},
		"coords": [
			{
				"x": -2.1271064224,
				"y": 0.0122509645,
				"z": 1.9948874381,
				"element": "C" 
			},
			{
				"x": -0.7148459399,
				"y": -0.1605221113,
				"z": 1.8003044234,
				"element": "O" 
			},
			{
				"x": -0.0751337122,
				"y": 0.8844051364,
				"z": 1.1834821013,
				"element": "C" 
			},
			{
				"x": -0.3153466906,
				"y": 1.2062925509,
				"z": -0.1679022738,
				"element": "C" 
			},
			{
				"x": -1.2470346462,
				"y": 0.5285408635,
				"z": -0.9191722632,
				"element": "O" 
			},
			{
				"x": -0.9007204119,
				"y": -0.8287739755,
				"z": -1.2300566105,
				"element": "C" 
			},
			{
				"x": 0.3682006221,
				"y": 2.2711422103,
				"z": -0.7522974697,
				"element": "C" 
			},
			{
				"x": 1.3063768792,
				"y": 3.0136894686,
				"z": -0.0210143235,
				"element": "C" 
			},
			{
				"x": 1.5498591176,
				"y": 2.6773072211,
				"z": 1.3169941785,
				"element": "C" 
			},
			{
				"x": 0.8673613106,
				"y": 1.6195982613,
				"z": 1.9083527389,
				"element": "C" 
			},
			{
				"x": 2.0564004151,
				"y": 4.1763412941,
				"z": -0.5948755506,
				"element": "C" 
			},
			{
				"x": 2.1064372473,
				"y": 4.2683973881,
				"z": -1.9519701461,
				"element": "O" 
			},
			{
				"x": 2.6058895271,
				"y": 5.0119787719,
				"z": 0.0843119407,
				"element": "O" 
			},
			{
				"x": -2.478746886,
				"y": -0.8999525657,
				"z": 2.4799172435,
				"element": "H" 
			},
			{
				"x": -2.3215395015,
				"y": 0.8699489311,
				"z": 2.6498515802,
				"element": "H" 
			},
			{
				"x": -2.6473064963,
				"y": 0.153285866,
				"z": 1.0432233151,
				"element": "H" 
			},
			{
				"x": -1.7308309069,
				"y": -1.2273980693,
				"z": -1.8160055039,
				"element": "H" 
			},
			{
				"x": -0.7666162734,
				"y": -1.424377368,
				"z": -0.3222105038,
				"element": "H" 
			},
			{
				"x": 0.0172636059,
				"y": -0.8654642454,
				"z": -1.8295611626,
				"element": "H" 
			},
			{
				"x": 0.1079822091,
				"y": 2.5118958543,
				"z": -1.7798228985,
				"element": "H" 
			},
			{
				"x": 2.2683029892,
				"y": 3.2650918829,
				"z": 1.8771417649,
				"element": "H" 
			},
			{
				"x": 1.0405383771,
				"y": 1.3459761485,
				"z": 2.9441757511,
				"element": "H" 
			},
			{
				"x": 1.7672155869,
				"y": 3.4576455217,
				"z": -2.3549537696,
				"element": "H" 
			}
		],
		 "valence_orbital": [ 
			{
				"type": "occ",
				"energy": -0.30893,
				"method": "rhf"
			},
			{
				"type": "occ",
				"energy": -0.28393,
				"method": "rhf"
			},
			{
				"type": "occ",
				"energy": -0.27062,
				"method": "rhf"
			},
			{
				"type": "occ",
				"energy": -0.26308,
				"method": "rhf"
			},
			{
				"type": "occ",
				"energy": -0.2449,
				"method": "rhf"
			},
			{
				"type": "unocc",
				"energy": -0.04776,
				"method": "rhf"
			},
			{
				"type": "unocc",
				"energy": -0.01878,
				"method": "rhf"
			},
			{
				"type": "unocc",
				"energy": 0.05056,
				"method": "rhf"
			},
			{
				"type": "unocc",
				"energy": 0.05798,
				"method": "rhf"
			},
			{
				"type": "unocc",
				"energy": 0.08136,
				"method": "rhf"
			}
		],
		"cosmo_sigma_profile": { 
			"-0.025": 0.0,
			"-0.024": 0.0,
			"-0.023": 0.0,
			"-0.022": 0.0,
			"-0.021": 0.0,
			"-0.02": 0.0,
			"-0.019": 0.107628824776,
			"-0.018": 0.840933097497,
			"-0.017": 1.18306383358,
			"-0.016": 0.70320440433,
			"-0.015": 1.30013951499,
			"-0.014": 1.25545276114,
			"-0.013": 0.718816714002,
			"-0.012": 0.99254818423,
			"-0.011": 1.12243262481,
			"-0.01": 1.14771441864,
			"-0.009": 1.07955101358,
			"-0.008": 1.26999162943,
			"-0.007": 3.32548346188,
			"-0.006": 8.09091427195,
			"-0.005": 13.0017054686,
			"-0.004": 17.4601336893,
			"-0.003": 25.9540061116,
			"-0.002": 20.3396297276,
			"-0.001": 15.9040472613,
			"0.0": 12.3273691733,
			"0.001": 13.0998722647,
			"0.002": 14.7021214847,
			"0.003": 11.3505649319,
			"0.004": 5.419627449,
			"0.005": 4.7895593262,
			"0.006": 3.87991852802,
			"0.007": 5.5078722737,
			"0.008": 4.18627591011,
			"0.009": 4.72146268117,
			"0.01": 6.39016623248,
			"0.011": 7.25616072363,
			"0.012": 5.17049039906,
			"0.013": 1.77959966698,
			"0.014": 0.0940479737691,
			"0.015": 0.0,
			"0.016": 0.0,
			"0.017": 0.0,
			"0.018": 0.0,
			"0.019": 0.0,
			"0.02": 0.0,
			"0.021": 0.0,
			"0.022": 0.0,
			"0.023": 0.0,
			"0.024": 0.0,
			"0.025": 0.0
		}
	}
}
