{
	 "smiles": "NC1=CC(Cl)=CC=C1Cl", 
	 "Tm": 322.15, 
	 "num_atms": 14, 
	 "gaussian": { 
		 "optdone": 1, 
		 "sigma_profile": "yes", 
		 "theory": "DFT", 
		 "functional": "B3LYP", 
		 "basiset": "6-31G**", 
		 "properties": { 
			 "R2extent": 3088.4367, 
			 "electric_dipole_moment_norm": 1.92336024707, 
			 "electric_quadrupole_moment_norm": 12.6554964889, 
			 "total_energy": -1206.79347947, 
			 "HOMO_LUMO_gap": 0.19986, 
			 "cosmo_polarized_energy": -7.47, 
			 "cosmo_cavitation_energy": 21.5, 
			 "cosmo_dispersion_energy": -16.54, 
			 "cosmo_repulsion_energy": 1.36, 
			 "cosmo_total_nonelectrostatic_energy": 6.32, 
			 "SMD_solvation_energy": 3.09 
		},
		"coords": [
			{
				"x": -1.540081339,
				"y": -0.8661826244,
				"z": -0.5675668085,
				"element": "N" 
			},
			{
				"x": -0.2471421829,
				"y": -1.3550544605,
				"z": -0.560718715,
				"element": "C" 
			},
			{
				"x": 0.006106449,
				"y": -2.715469357,
				"z": -0.3011558944,
				"element": "C" 
			},
			{
				"x": 1.3110317179,
				"y": -3.188648723,
				"z": -0.241325452,
				"element": "C" 
			},
			{
				"x": 1.5769347188,
				"y": -4.8962422405,
				"z": 0.084813094,
				"element": "Cl" 
			},
			{
				"x": 2.4097455815,
				"y": -2.3519098687,
				"z": -0.4337350551,
				"element": "C" 
			},
			{
				"x": 2.1697365018,
				"y": -1.0035397742,
				"z": -0.6943667278,
				"element": "C" 
			},
			{
				"x": 0.8687969604,
				"y": -0.5162389903,
				"z": -0.7576016772,
				"element": "C" 
			},
			{
				"x": 0.6047753405,
				"y": 1.1922726198,
				"z": -1.1016556194,
				"element": "Cl" 
			},
			{
				"x": -1.6789472541,
				"y": 0.0219730962,
				"z": -1.0276383268,
				"element": "H" 
			},
			{
				"x": -2.2706483096,
				"y": -1.5397250881,
				"z": -0.7428264741,
				"element": "H" 
			},
			{
				"x": -0.8256539236,
				"y": -3.3931320325,
				"z": -0.1398959109,
				"element": "H" 
			},
			{
				"x": 3.4196957783,
				"y": -2.7396674698,
				"z": -0.3832775743,
				"element": "H" 
			},
			{
				"x": 2.998249961,
				"y": -0.3221350871,
				"z": -0.8538488586,
				"element": "H" 
			}
		],
		 "valence_orbital": [ 
			{
				"type": "occ",
				"energy": -0.3235,
				"method": "rhf"
			},
			{
				"type": "occ",
				"energy": -0.31389,
				"method": "rhf"
			},
			{
				"type": "occ",
				"energy": -0.30692,
				"method": "rhf"
			},
			{
				"type": "occ",
				"energy": -0.24858,
				"method": "rhf"
			},
			{
				"type": "occ",
				"energy": -0.21821,
				"method": "rhf"
			},
			{
				"type": "unocc",
				"energy": -0.01835,
				"method": "rhf"
			},
			{
				"type": "unocc",
				"energy": -0.00241,
				"method": "rhf"
			},
			{
				"type": "unocc",
				"energy": 0.01763,
				"method": "rhf"
			},
			{
				"type": "unocc",
				"energy": 0.03785,
				"method": "rhf"
			},
			{
				"type": "unocc",
				"energy": 0.07696,
				"method": "rhf"
			}
		],
		"cosmo_sigma_profile": { 
			"-0.025": 0.0,
			"-0.024": 0.0,
			"-0.023": 0.0,
			"-0.022": 0.0,
			"-0.021": 0.0,
			"-0.02": 0.0,
			"-0.019": 0.0,
			"-0.018": 0.0,
			"-0.017": 0.0,
			"-0.016": 0.0,
			"-0.015": 0.0,
			"-0.014": 0.327032991511,
			"-0.013": 1.73470504775,
			"-0.012": 2.25450300753,
			"-0.011": 2.40785763175,
			"-0.01": 3.04102120255,
			"-0.009": 2.91600340505,
			"-0.008": 3.39702749807,
			"-0.007": 5.66326965641,
			"-0.006": 5.80168865999,
			"-0.005": 6.52565025586,
			"-0.004": 5.43867052822,
			"-0.003": 6.03708725546,
			"-0.002": 8.40011982949,
			"-0.001": 9.80597234759,
			"0.0": 10.3809938322,
			"0.001": 14.4473287797,
			"0.002": 21.8877162569,
			"0.003": 24.8323043864,
			"0.004": 23.6161036244,
			"0.005": 12.7022443247,
			"0.006": 1.0670692632,
			"0.007": 0.801834561878,
			"0.008": 0.451298341457,
			"0.009": 0.660559382019,
			"0.01": 1.00614798222,
			"0.011": 0.418909021167,
			"0.012": 0.475372276571,
			"0.013": 0.0929731480703,
			"0.014": 0.0,
			"0.015": 0.0,
			"0.016": 0.0,
			"0.017": 0.0,
			"0.018": 0.0,
			"0.019": 0.0,
			"0.02": 0.0,
			"0.021": 0.0,
			"0.022": 0.0,
			"0.023": 0.0,
			"0.024": 0.0,
			"0.025": 0.0
		}
	}
}
