{
	 "smiles": "NC(=O)NN=C(O)C=CC1=CC=CC=C1", 
	 "Tm": 471.15, 
	 "num_atms": 26, 
	 "gaussian": { 
		 "optdone": 1, 
		 "sigma_profile": "yes", 
		 "theory": "DFT", 
		 "functional": "B3LYP", 
		 "basiset": "6-31G**", 
		 "properties": { 
			 "R2extent": 5819.775, 
			 "electric_dipole_moment_norm": 3.92881388335, 
			 "electric_quadrupole_moment_norm": 26.1506024099, 
			 "total_energy": -702.379021559, 
			 "HOMO_LUMO_gap": 0.13897, 
			 "cosmo_polarized_energy": -18.35, 
			 "cosmo_cavitation_energy": 31.68, 
			 "cosmo_dispersion_energy": -23.19, 
			 "cosmo_repulsion_energy": 1.84, 
			 "cosmo_total_nonelectrostatic_energy": 10.34, 
			 "SMD_solvation_energy": 6.55 
		},
		"coords": [
			{
				"x": -4.8028753534,
				"y": 2.339864483,
				"z": -2.9119040581,
				"element": "N" 
			},
			{
				"x": -3.4629250205,
				"y": 2.6017202766,
				"z": -2.8321430347,
				"element": "C" 
			},
			{
				"x": -2.8958904374,
				"y": 3.5445440506,
				"z": -3.3678127388,
				"element": "O" 
			},
			{
				"x": -2.7497228842,
				"y": 1.7285288814,
				"z": -2.0050253119,
				"element": "N" 
			},
			{
				"x": -3.2955001045,
				"y": 0.5086808056,
				"z": -1.6651916438,
				"element": "N" 
			},
			{
				"x": -2.6209370145,
				"y": -0.2856551276,
				"z": -0.9049118966,
				"element": "C" 
			},
			{
				"x": -3.1665993628,
				"y": -1.5061337547,
				"z": -0.6456345688,
				"element": "O" 
			},
			{
				"x": -1.3382955976,
				"y": -0.036083517,
				"z": -0.2661361128,
				"element": "C" 
			},
			{
				"x": -0.631038444,
				"y": -0.9961877988,
				"z": 0.367253806,
				"element": "C" 
			},
			{
				"x": 0.6389883098,
				"y": -0.8375846601,
				"z": 1.0753988476,
				"element": "C" 
			},
			{
				"x": 1.2611204883,
				"y": -1.9847827147,
				"z": 1.6029684619,
				"element": "C" 
			},
			{
				"x": 2.4745682964,
				"y": -1.8985433253,
				"z": 2.2821340842,
				"element": "C" 
			},
			{
				"x": 3.0925184171,
				"y": -0.6588097415,
				"z": 2.4513902426,
				"element": "C" 
			},
			{
				"x": 2.4861762283,
				"y": 0.4925255164,
				"z": 1.9375311816,
				"element": "C" 
			},
			{
				"x": 1.2751934383,
				"y": 0.4064137726,
				"z": 1.2592983932,
				"element": "C" 
			},
			{
				"x": -5.1286303,
				"y": 1.4281339132,
				"z": -2.6282699584,
				"element": "H" 
			},
			{
				"x": -5.3013360946,
				"y": 2.84331179,
				"z": -3.6271772203,
				"element": "H" 
			},
			{
				"x": -1.7467339598,
				"y": 1.819042522,
				"z": -2.122778173,
				"element": "H" 
			},
			{
				"x": -3.9895504232,
				"y": -1.5529767075,
				"z": -1.1558209515,
				"element": "H" 
			},
			{
				"x": -0.9881126003,
				"y": 0.9906900054,
				"z": -0.2921180203,
				"element": "H" 
			},
			{
				"x": -1.0364564621,
				"y": -2.005158914,
				"z": 0.3544826461,
				"element": "H" 
			},
			{
				"x": 0.7818844827,
				"y": -2.9516737665,
				"z": 1.4728293857,
				"element": "H" 
			},
			{
				"x": 2.9364072594,
				"y": -2.7976543083,
				"z": 2.6794357641,
				"element": "H" 
			},
			{
				"x": 4.0377654497,
				"y": -0.5866860637,
				"z": 2.9811979842,
				"element": "H" 
			},
			{
				"x": 2.9601525797,
				"y": 1.4607534416,
				"z": 2.0700606387,
				"element": "H" 
			},
			{
				"x": 0.8176291093,
				"y": 1.3131209412,
				"z": 0.8757422532,
				"element": "H" 
			}
		],
		 "valence_orbital": [ 
			{
				"type": "occ",
				"energy": -0.26261,
				"method": "rhf"
			},
			{
				"type": "occ",
				"energy": -0.26162,
				"method": "rhf"
			},
			{
				"type": "occ",
				"energy": -0.25179,
				"method": "rhf"
			},
			{
				"type": "occ",
				"energy": -0.24834,
				"method": "rhf"
			},
			{
				"type": "occ",
				"energy": -0.20825,
				"method": "rhf"
			},
			{
				"type": "unocc",
				"energy": -0.06928,
				"method": "rhf"
			},
			{
				"type": "unocc",
				"energy": -0.0115,
				"method": "rhf"
			},
			{
				"type": "unocc",
				"energy": 0.01659,
				"method": "rhf"
			},
			{
				"type": "unocc",
				"energy": 0.06198,
				"method": "rhf"
			},
			{
				"type": "unocc",
				"energy": 0.07617,
				"method": "rhf"
			}
		],
		"cosmo_sigma_profile": { 
			"-0.025": 0.0,
			"-0.024": 0.0,
			"-0.023": 0.0,
			"-0.022": 0.0,
			"-0.021": 0.0,
			"-0.02": 0.0,
			"-0.019": 0.0,
			"-0.018": 0.0,
			"-0.017": 0.479135465648,
			"-0.016": 1.18979624452,
			"-0.015": 0.507693425042,
			"-0.014": 1.58266783276,
			"-0.013": 2.88127691475,
			"-0.012": 4.06402293641,
			"-0.011": 3.30525540363,
			"-0.01": 2.74658283978,
			"-0.009": 5.29429343622,
			"-0.008": 5.16740679668,
			"-0.007": 6.32948037387,
			"-0.006": 12.4719090262,
			"-0.005": 14.3484720719,
			"-0.004": 15.8338678259,
			"-0.003": 12.4381800594,
			"-0.002": 11.1398950076,
			"-0.001": 12.4862350273,
			"0.0": 15.7557583252,
			"0.001": 16.4625538059,
			"0.002": 18.0081259124,
			"0.003": 20.5998570548,
			"0.004": 18.7989998008,
			"0.005": 16.700010304,
			"0.006": 6.45045910315,
			"0.007": 4.0468914249,
			"0.008": 3.29683862421,
			"0.009": 3.61846769699,
			"0.01": 2.04088163572,
			"0.011": 0.57954361607,
			"0.012": 1.76339537508,
			"0.013": 1.9740674271,
			"0.014": 6.90900385507,
			"0.015": 3.20519536524,
			"0.016": 0.103648499676,
			"0.017": 0.0,
			"0.018": 0.0,
			"0.019": 0.0,
			"0.02": 0.0,
			"0.021": 0.0,
			"0.022": 0.0,
			"0.023": 0.0,
			"0.024": 0.0,
			"0.025": 0.0
		}
	}
}
