{
	 "smiles": "OC1=C(C=CC(C=O)=C1)[N+]([O-])=O", 
	 "Tm": 406.15, 
	 "num_atms": 17, 
	 "gaussian": { 
		 "optdone": 1, 
		 "sigma_profile": "yes", 
		 "theory": "DFT", 
		 "functional": "B3LYP", 
		 "basiset": "6-31G**", 
		 "properties": { 
			 "R2extent": 2802.6039, 
			 "electric_dipole_moment_norm": 2.39287998236, 
			 "electric_quadrupole_moment_norm": 14.6040057659, 
			 "total_energy": -625.296145238, 
			 "HOMO_LUMO_gap": 0.14118, 
			 "cosmo_polarized_energy": -10.83, 
			 "cosmo_cavitation_energy": 22.67, 
			 "cosmo_dispersion_energy": -16.91, 
			 "cosmo_repulsion_energy": 1.32, 
			 "cosmo_total_nonelectrostatic_energy": 7.08, 
			 "SMD_solvation_energy": 7.48 
		},
		"coords": [
			{
				"x": -0.6051454807,
				"y": -2.8829585263,
				"z": 1.9390162083,
				"element": "O" 
			},
			{
				"x": -0.1091559484,
				"y": -1.9069840658,
				"z": 1.1771547836,
				"element": "C" 
			},
			{
				"x": 0.6060332785,
				"y": -0.7870839615,
				"z": 1.6788753592,
				"element": "C" 
			},
			{
				"x": 1.1049248106,
				"y": 0.2096047788,
				"z": 0.8269654884,
				"element": "C" 
			},
			{
				"x": 0.9013436917,
				"y": 0.1098627549,
				"z": -0.5364743637,
				"element": "C" 
			},
			{
				"x": 0.1941353121,
				"y": -0.993814308,
				"z": -1.0526999098,
				"element": "C" 
			},
			{
				"x": -0.0261243041,
				"y": -1.102767645,
				"z": -2.5225770357,
				"element": "C" 
			},
			{
				"x": -0.6219998876,
				"y": -2.0151135888,
				"z": -3.0563424827,
				"element": "O" 
			},
			{
				"x": -0.30159209,
				"y": -1.9833692356,
				"z": -0.2115096351,
				"element": "C" 
			},
			{
				"x": 0.8432792456,
				"y": -0.6408035495,
				"z": 3.1029143497,
				"element": "N" 
			},
			{
				"x": 1.4631867833,
				"y": 0.3343375091,
				"z": 3.5073605926,
				"element": "O" 
			},
			{
				"x": 0.3996453213,
				"y": -1.5272224902,
				"z": 3.8678755086,
				"element": "O" 
			},
			{
				"x": -0.3727161821,
				"y": -2.6577335347,
				"z": 2.8712076513,
				"element": "H" 
			},
			{
				"x": 1.6422858432,
				"y": 1.0393830483,
				"z": 1.2686416696,
				"element": "H" 
			},
			{
				"x": 1.282471664,
				"y": 0.8747226216,
				"z": -1.2063193678,
				"element": "H" 
			},
			{
				"x": 0.4036285913,
				"y": -0.2687675782,
				"z": -3.1183938293,
				"element": "H" 
			},
			{
				"x": -0.8439006487,
				"y": -2.8268922292,
				"z": -0.6240949872,
				"element": "H" 
			}
		],
		 "valence_orbital": [ 
			{
				"type": "occ",
				"energy": -0.33145,
				"method": "rhf"
			},
			{
				"type": "occ",
				"energy": -0.3185,
				"method": "rhf"
			},
			{
				"type": "occ",
				"energy": -0.2984,
				"method": "rhf"
			},
			{
				"type": "occ",
				"energy": -0.27802,
				"method": "rhf"
			},
			{
				"type": "occ",
				"energy": -0.26296,
				"method": "rhf"
			},
			{
				"type": "unocc",
				"energy": -0.12178,
				"method": "rhf"
			},
			{
				"type": "unocc",
				"energy": -0.06251,
				"method": "rhf"
			},
			{
				"type": "unocc",
				"energy": -0.03043,
				"method": "rhf"
			},
			{
				"type": "unocc",
				"energy": 0.02687,
				"method": "rhf"
			},
			{
				"type": "unocc",
				"energy": 0.07482,
				"method": "rhf"
			}
		],
		"cosmo_sigma_profile": { 
			"-0.025": 0.0,
			"-0.024": 0.0,
			"-0.023": 0.0,
			"-0.022": 0.0,
			"-0.021": 0.0,
			"-0.02": 0.0,
			"-0.019": 0.0,
			"-0.018": 0.0,
			"-0.017": 0.0,
			"-0.016": 0.0,
			"-0.015": 0.0,
			"-0.014": 0.0,
			"-0.013": 0.0,
			"-0.012": 0.0,
			"-0.011": 0.126839416902,
			"-0.01": 0.626660518789,
			"-0.009": 3.02505963866,
			"-0.008": 9.5131838785,
			"-0.007": 11.7224466746,
			"-0.006": 10.4342462321,
			"-0.005": 9.2520139565,
			"-0.004": 10.1532122337,
			"-0.003": 10.789930371,
			"-0.002": 14.0959188103,
			"-0.001": 14.4103864784,
			"0.0": 15.9516359731,
			"0.001": 10.0057491614,
			"0.002": 5.84110043273,
			"0.003": 5.14684304903,
			"0.004": 5.4782282054,
			"0.005": 6.08943962165,
			"0.006": 8.65702241699,
			"0.007": 7.80817433371,
			"0.008": 7.82832854438,
			"0.009": 7.48840544843,
			"0.01": 4.79789068078,
			"0.011": 2.77558644526,
			"0.012": 0.826737271621,
			"0.013": 0.0,
			"0.014": 0.0,
			"0.015": 0.0,
			"0.016": 0.0,
			"0.017": 0.0,
			"0.018": 0.0,
			"0.019": 0.0,
			"0.02": 0.0,
			"0.021": 0.0,
			"0.022": 0.0,
			"0.023": 0.0,
			"0.024": 0.0,
			"0.025": 0.0
		}
	}
}
