{
	 "smiles": "OC(=O)C1=CC2=C(SC=C2)C=C1", 
	 "Tm": 487.15, 
	 "num_atms": 18, 
	 "gaussian": { 
		 "optdone": 1, 
		 "sigma_profile": "yes", 
		 "theory": "DFT", 
		 "functional": "B3LYP", 
		 "basiset": "6-31G**", 
		 "properties": { 
			 "R2extent": 2845.8438, 
			 "electric_dipole_moment_norm": 5.05523848399, 
			 "electric_quadrupole_moment_norm": 15.7696209831, 
			 "total_energy": -895.216790144, 
			 "HOMO_LUMO_gap": 0.18617, 
			 "cosmo_polarized_energy": -14.57, 
			 "cosmo_cavitation_energy": 24.24, 
			 "cosmo_dispersion_energy": -18.71, 
			 "cosmo_repulsion_energy": 1.41, 
			 "cosmo_total_nonelectrostatic_energy": 6.94, 
			 "SMD_solvation_energy": 5.01 
		},
		"coords": [
			{
				"x": -0.8703500822,
				"y": 2.8866060182,
				"z": 2.3334617061,
				"element": "O" 
			},
			{
				"x": -1.8241660575,
				"y": 2.4428686319,
				"z": 1.4691434053,
				"element": "C" 
			},
			{
				"x": -2.8693029765,
				"y": 3.0413109752,
				"z": 1.3667444462,
				"element": "O" 
			},
			{
				"x": -1.5004591597,
				"y": 1.2085975911,
				"z": 0.6834436475,
				"element": "C" 
			},
			{
				"x": -0.1919424574,
				"y": 0.7828404419,
				"z": 0.4563720323,
				"element": "C" 
			},
			{
				"x": 0.0478657078,
				"y": -0.3727084189,
				"z": -0.3057423773,
				"element": "C" 
			},
			{
				"x": -1.0607055769,
				"y": -1.0867458546,
				"z": -0.8283145573,
				"element": "C" 
			},
			{
				"x": -0.5339274505,
				"y": -2.4886183303,
				"z": -1.7376058642,
				"element": "S" 
			},
			{
				"x": 1.1440239309,
				"y": -2.1043365757,
				"z": -1.4157597731,
				"element": "C" 
			},
			{
				"x": 1.3020374327,
				"y": -0.9837951123,
				"z": -0.6658748161,
				"element": "C" 
			},
			{
				"x": -2.3766231056,
				"y": -0.6563494071,
				"z": -0.6159381793,
				"element": "C" 
			},
			{
				"x": -2.5851988967,
				"y": 0.4926144076,
				"z": 0.130290485,
				"element": "C" 
			},
			{
				"x": -0.1814957832,
				"y": 2.21606472,
				"z": 2.4385027435,
				"element": "H" 
			},
			{
				"x": 0.6583074018,
				"y": 1.3534452406,
				"z": 0.8230570208,
				"element": "H" 
			},
			{
				"x": 1.9161369396,
				"y": -2.7495162009,
				"z": -1.8127225905,
				"element": "H" 
			},
			{
				"x": 2.2684241732,
				"y": -0.5924090193,
				"z": -0.3688135174,
				"element": "H" 
			},
			{
				"x": -3.2165132077,
				"y": -1.2054839553,
				"z": -1.0296143959,
				"element": "H" 
			},
			{
				"x": -3.586810832,
				"y": 0.8683148477,
				"z": 0.3067705842,
				"element": "H" 
			}
		],
		 "valence_orbital": [ 
			{
				"type": "occ",
				"energy": -0.31413,
				"method": "rhf"
			},
			{
				"type": "occ",
				"energy": -0.30252,
				"method": "rhf"
			},
			{
				"type": "occ",
				"energy": -0.27405,
				"method": "rhf"
			},
			{
				"type": "occ",
				"energy": -0.25298,
				"method": "rhf"
			},
			{
				"type": "occ",
				"energy": -0.23679,
				"method": "rhf"
			},
			{
				"type": "unocc",
				"energy": -0.05062,
				"method": "rhf"
			},
			{
				"type": "unocc",
				"energy": -0.04319,
				"method": "rhf"
			},
			{
				"type": "unocc",
				"energy": 0.00685,
				"method": "rhf"
			},
			{
				"type": "unocc",
				"energy": 0.0207,
				"method": "rhf"
			},
			{
				"type": "unocc",
				"energy": 0.05518,
				"method": "rhf"
			}
		],
		"cosmo_sigma_profile": { 
			"-0.025": 0.0,
			"-0.024": 0.0,
			"-0.023": 0.0,
			"-0.022": 0.0,
			"-0.021": 0.0,
			"-0.02": 0.0,
			"-0.019": 0.105441112875,
			"-0.018": 0.914414995093,
			"-0.017": 1.12233740513,
			"-0.016": 0.762886993509,
			"-0.015": 0.987659723055,
			"-0.014": 0.527615361262,
			"-0.013": 1.09079877305,
			"-0.012": 1.59451031334,
			"-0.011": 1.21602861247,
			"-0.01": 1.13781421234,
			"-0.009": 3.39559441626,
			"-0.008": 5.31224594585,
			"-0.007": 9.97852202193,
			"-0.006": 9.39292852165,
			"-0.005": 8.94034251447,
			"-0.004": 8.85632094632,
			"-0.003": 9.66247426431,
			"-0.002": 9.27747319811,
			"-0.001": 9.61204998508,
			"0.0": 10.8597977775,
			"0.001": 14.7306054927,
			"0.002": 23.3496251614,
			"0.003": 23.2968004175,
			"0.004": 10.022453592,
			"0.005": 3.6762366331,
			"0.006": 2.51275624695,
			"0.007": 2.69371308387,
			"0.008": 2.91898691151,
			"0.009": 2.64237182506,
			"0.01": 4.94310846977,
			"0.011": 5.04445862984,
			"0.012": 5.19843671969,
			"0.013": 1.72764754555,
			"0.014": 0.151168800521,
			"0.015": 0.0,
			"0.016": 0.0,
			"0.017": 0.0,
			"0.018": 0.0,
			"0.019": 0.0,
			"0.02": 0.0,
			"0.021": 0.0,
			"0.022": 0.0,
			"0.023": 0.0,
			"0.024": 0.0,
			"0.025": 0.0
		}
	}
}
