{
	 "smiles": "O=CC12CC=CCC1C1CC=CCC1O2", 
	 "Tm": 193.15, 
	 "num_atms": 31, 
	 "gaussian": { 
		 "optdone": 1, 
		 "sigma_profile": "yes", 
		 "theory": "DFT", 
		 "functional": "B3LYP", 
		 "basiset": "6-31G**", 
		 "properties": { 
			 "R2extent": 3030.5706, 
			 "electric_dipole_moment_norm": 1.96072420294, 
			 "electric_quadrupole_moment_norm": 7.71634436699, 
			 "total_energy": -655.417952384, 
			 "HOMO_LUMO_gap": 0.21017, 
			 "cosmo_polarized_energy": -7.49, 
			 "cosmo_cavitation_energy": 30.78, 
			 "cosmo_dispersion_energy": -22.32, 
			 "cosmo_repulsion_energy": 1.73, 
			 "cosmo_total_nonelectrostatic_energy": 10.19, 
			 "SMD_solvation_energy": 5.02 
		},
		"coords": [
			{
				"x": 0.388624857,
				"y": 2.0337561027,
				"z": 1.1388381512,
				"element": "O" 
			},
			{
				"x": 0.0490573986,
				"y": 1.7320141951,
				"z": 0.0160773134,
				"element": "C" 
			},
			{
				"x": -0.5846945875,
				"y": 0.4053793628,
				"z": -0.4416484789,
				"element": "C" 
			},
			{
				"x": -1.8671618415,
				"y": 0.6942379926,
				"z": -1.2154907728,
				"element": "C" 
			},
			{
				"x": -2.9790240301,
				"y": 0.9929727632,
				"z": -0.2249317778,
				"element": "C" 
			},
			{
				"x": -2.9277593599,
				"y": 0.6935709358,
				"z": 1.0807150553,
				"element": "C" 
			},
			{
				"x": -1.7725659377,
				"y": -0.0217591484,
				"z": 1.7512768041,
				"element": "C" 
			},
			{
				"x": -0.8654867126,
				"y": -0.6176476366,
				"z": 0.6733951511,
				"element": "C" 
			},
			{
				"x": 0.5467791315,
				"y": -1.1390225906,
				"z": 0.9387548887,
				"element": "C" 
			},
			{
				"x": 0.8016071796,
				"y": -2.4564652914,
				"z": 1.6696580207,
				"element": "C" 
			},
			{
				"x": 2.2283479162,
				"y": -2.9019892908,
				"z": 1.407248533,
				"element": "C" 
			},
			{
				"x": 3.0118748744,
				"y": -2.3936232761,
				"z": 0.4460352156,
				"element": "C" 
			},
			{
				"x": 2.5653297646,
				"y": -1.3396231622,
				"z": -0.5507969694,
				"element": "C" 
			},
			{
				"x": 1.0479393493,
				"y": -1.2674148281,
				"z": -0.507205244,
				"element": "C" 
			},
			{
				"x": 0.4702383204,
				"y": -0.1698332601,
				"z": -1.2478928057,
				"element": "O" 
			},
			{
				"x": 0.2498488917,
				"y": 2.4117889649,
				"z": -0.8431876771,
				"element": "H" 
			},
			{
				"x": -2.1098148015,
				"y": -0.1744731667,
				"z": -1.8424757981,
				"element": "H" 
			},
			{
				"x": -1.7342272702,
				"y": 1.5383541419,
				"z": -1.9052722883,
				"element": "H" 
			},
			{
				"x": -3.8584023758,
				"y": 1.4983314103,
				"z": -0.6188569963,
				"element": "H" 
			},
			{
				"x": -3.7670519156,
				"y": 0.9721118843,
				"z": 1.7155709138,
				"element": "H" 
			},
			{
				"x": -1.2186691166,
				"y": 0.6760440934,
				"z": 2.3895796616,
				"element": "H" 
			},
			{
				"x": -2.1608485283,
				"y": -0.8118575345,
				"z": 2.4072227164,
				"element": "H" 
			},
			{
				"x": -1.4307950168,
				"y": -1.4321195299,
				"z": 0.1938919024,
				"element": "H" 
			},
			{
				"x": 1.1256104807,
				"y": -0.3540341046,
				"z": 1.4396408845,
				"element": "H" 
			},
			{
				"x": 0.0964624009,
				"y": -3.2338871993,
				"z": 1.3357866056,
				"element": "H" 
			},
			{
				"x": 0.6393695317,
				"y": -2.3465015931,
				"z": 2.7494434365,
				"element": "H" 
			},
			{
				"x": 2.629389122,
				"y": -3.6752792007,
				"z": 2.0601142396,
				"element": "H" 
			},
			{
				"x": 4.0316748804,
				"y": -2.760288137,
				"z": 0.3465809012,
				"element": "H" 
			},
			{
				"x": 2.9233845134,
				"y": -1.5925048581,
				"z": -1.5564329698,
				"element": "H" 
			},
			{
				"x": 2.9971824544,
				"y": -0.3594093755,
				"z": -0.3039600763,
				"element": "H" 
			},
			{
				"x": 0.6475804274,
				"y": -2.2008286635,
				"z": -0.9349785402,
				"element": "H" 
			}
		],
		 "valence_orbital": [ 
			{
				"type": "occ",
				"energy": -0.29503,
				"method": "rhf"
			},
			{
				"type": "occ",
				"energy": -0.27567,
				"method": "rhf"
			},
			{
				"type": "occ",
				"energy": -0.24862,
				"method": "rhf"
			},
			{
				"type": "occ",
				"energy": -0.24603,
				"method": "rhf"
			},
			{
				"type": "occ",
				"energy": -0.23501,
				"method": "rhf"
			},
			{
				"type": "unocc",
				"energy": -0.02484,
				"method": "rhf"
			},
			{
				"type": "unocc",
				"energy": 0.01903,
				"method": "rhf"
			},
			{
				"type": "unocc",
				"energy": 0.02178,
				"method": "rhf"
			},
			{
				"type": "unocc",
				"energy": 0.08442,
				"method": "rhf"
			},
			{
				"type": "unocc",
				"energy": 0.09746,
				"method": "rhf"
			}
		],
		"cosmo_sigma_profile": { 
			"-0.025": 0.0,
			"-0.024": 0.0,
			"-0.023": 0.0,
			"-0.022": 0.0,
			"-0.021": 0.0,
			"-0.02": 0.0,
			"-0.019": 0.0,
			"-0.018": 0.0,
			"-0.017": 0.0,
			"-0.016": 0.0,
			"-0.015": 0.0,
			"-0.014": 0.0,
			"-0.013": 0.0,
			"-0.012": 0.0,
			"-0.011": 0.0,
			"-0.01": 0.0,
			"-0.009": 0.0,
			"-0.008": 0.0,
			"-0.007": 0.681351791927,
			"-0.006": 4.31202687313,
			"-0.005": 8.48037535241,
			"-0.004": 25.5260329236,
			"-0.003": 33.2329109398,
			"-0.002": 36.6418560374,
			"-0.001": 32.1454742851,
			"0.0": 21.4088949557,
			"0.001": 13.0675680928,
			"0.002": 9.82669028312,
			"0.003": 9.19157516275,
			"0.004": 9.84971331005,
			"0.005": 8.57965264878,
			"0.006": 6.2470920337,
			"0.007": 3.76421764779,
			"0.008": 3.24966045901,
			"0.009": 3.00052758006,
			"0.01": 3.93395058997,
			"0.011": 3.54704442282,
			"0.012": 2.69649312963,
			"0.013": 0.800224895386,
			"0.014": 0.0,
			"0.015": 0.0,
			"0.016": 0.0,
			"0.017": 0.0,
			"0.018": 0.0,
			"0.019": 0.0,
			"0.02": 0.0,
			"0.021": 0.0,
			"0.022": 0.0,
			"0.023": 0.0,
			"0.024": 0.0,
			"0.025": 0.0
		}
	}
}
