{
	 "smiles": "CC(C)(F)C1=NC(Cl)=NC(N)=N1", 
	 "Tm": 443.15, 
	 "num_atms": 20, 
	 "gaussian": { 
		 "optdone": 1, 
		 "sigma_profile": "yes", 
		 "theory": "DFT", 
		 "functional": "B3LYP", 
		 "basiset": "6-31G**", 
		 "properties": { 
			 "R2extent": 2772.5465, 
			 "electric_dipole_moment_norm": 5.24630397518, 
			 "electric_quadrupole_moment_norm": 8.35107435843, 
			 "total_energy": -1012.52538026, 
			 "HOMO_LUMO_gap": 0.21911, 
			 "cosmo_polarized_energy": -13.48, 
			 "cosmo_cavitation_energy": 26.44, 
			 "cosmo_dispersion_energy": -19.25, 
			 "cosmo_repulsion_energy": 1.58, 
			 "cosmo_total_nonelectrostatic_energy": 8.77, 
			 "SMD_solvation_energy": 1.16 
		},
		"coords": [
			{
				"x": 1.1994075043,
				"y": 1.0843924109,
				"z": -2.1436124001,
				"element": "C" 
			},
			{
				"x": -0.0111507477,
				"y": 1.1564112183,
				"z": -1.2103814371,
				"element": "C" 
			},
			{
				"x": -1.2917076573,
				"y": 0.6254484694,
				"z": -1.8584420867,
				"element": "C" 
			},
			{
				"x": -0.223414565,
				"y": 2.4986441713,
				"z": -0.9045195752,
				"element": "F" 
			},
			{
				"x": 0.2755702395,
				"y": 0.4066844271,
				"z": 0.0904528027,
				"element": "C" 
			},
			{
				"x": 0.2749837991,
				"y": 1.1026155997,
				"z": 1.2363826199,
				"element": "N" 
			},
			{
				"x": 0.5349424286,
				"y": 0.3547916581,
				"z": 2.3037596942,
				"element": "C" 
			},
			{
				"x": 0.5516582638,
				"y": 1.1946757924,
				"z": 3.8411073574,
				"element": "Cl" 
			},
			{
				"x": 0.7820919676,
				"y": -0.9397235127,
				"z": 2.3531145713,
				"element": "N" 
			},
			{
				"x": 0.7554551414,
				"y": -1.5329836331,
				"z": 1.1375119669,
				"element": "C" 
			},
			{
				"x": 0.9980301578,
				"y": -2.8580166049,
				"z": 1.0967533215,
				"element": "N" 
			},
			{
				"x": 0.5062666716,
				"y": -0.9014143008,
				"z": -0.0259888391,
				"element": "N" 
			},
			{
				"x": 0.9801274669,
				"y": 1.6291854874,
				"z": -3.0660515704,
				"element": "H" 
			},
			{
				"x": 1.4378120833,
				"y": 0.0464873808,
				"z": -2.3849033556,
				"element": "H" 
			},
			{
				"x": 2.0684615679,
				"y": 1.5458347826,
				"z": -1.6663010243,
				"element": "H" 
			},
			{
				"x": -1.4855598168,
				"y": 1.1748958823,
				"z": -2.7838103049,
				"element": "H" 
			},
			{
				"x": -1.196208481,
				"y": -0.4387986429,
				"z": -2.0834112961,
				"element": "H" 
			},
			{
				"x": -2.1406593255,
				"y": 0.7704220843,
				"z": -1.1844437041,
				"element": "H" 
			},
			{
				"x": 1.1866768431,
				"y": -3.3522232122,
				"z": 1.953054227,
				"element": "H" 
			},
			{
				"x": 0.9871164584,
				"y": -3.3363294579,
				"z": 0.2116290326,
				"element": "H" 
			}
		],
		 "valence_orbital": [ 
			{
				"type": "occ",
				"energy": -0.31664,
				"method": "rhf"
			},
			{
				"type": "occ",
				"energy": -0.29905,
				"method": "rhf"
			},
			{
				"type": "occ",
				"energy": -0.28026,
				"method": "rhf"
			},
			{
				"type": "occ",
				"energy": -0.27641,
				"method": "rhf"
			},
			{
				"type": "occ",
				"energy": -0.26827,
				"method": "rhf"
			},
			{
				"type": "unocc",
				"energy": -0.04916,
				"method": "rhf"
			},
			{
				"type": "unocc",
				"energy": -0.02521,
				"method": "rhf"
			},
			{
				"type": "unocc",
				"energy": 0.03655,
				"method": "rhf"
			},
			{
				"type": "unocc",
				"energy": 0.07088,
				"method": "rhf"
			},
			{
				"type": "unocc",
				"energy": 0.10171,
				"method": "rhf"
			}
		],
		"cosmo_sigma_profile": { 
			"-0.025": 0.0,
			"-0.024": 0.0,
			"-0.023": 0.0,
			"-0.022": 0.0,
			"-0.021": 0.0,
			"-0.02": 0.0,
			"-0.019": 0.0,
			"-0.018": 0.0,
			"-0.017": 0.0,
			"-0.016": 0.136221433263,
			"-0.015": 2.17205485001,
			"-0.014": 2.09226531371,
			"-0.013": 2.21978235871,
			"-0.012": 1.98222699936,
			"-0.011": 2.25012815692,
			"-0.01": 2.34183891834,
			"-0.009": 1.428738125,
			"-0.008": 1.11390432491,
			"-0.007": 1.06506931746,
			"-0.006": 2.66698070059,
			"-0.005": 10.140026887,
			"-0.004": 16.8959385455,
			"-0.003": 16.8767752483,
			"-0.002": 16.7671152082,
			"-0.001": 22.8839480115,
			"0.0": 18.4059584119,
			"0.001": 12.7749891593,
			"0.002": 11.2854339287,
			"0.003": 14.3188721043,
			"0.004": 11.2638427773,
			"0.005": 8.96433148379,
			"0.006": 9.3453037273,
			"0.007": 6.11558885058,
			"0.008": 4.40425615169,
			"0.009": 2.96643904844,
			"0.01": 2.65526737157,
			"0.011": 1.84871336544,
			"0.012": 1.97888701103,
			"0.013": 1.21192112789,
			"0.014": 1.17987945687,
			"0.015": 0.23669530723,
			"0.016": 0.0,
			"0.017": 0.0,
			"0.018": 0.0,
			"0.019": 0.0,
			"0.02": 0.0,
			"0.021": 0.0,
			"0.022": 0.0,
			"0.023": 0.0,
			"0.024": 0.0,
			"0.025": 0.0
		}
	}
}
