{
	 "smiles": "NNC(=O)C1=CC=C(C=C1)C#N", 
	 "Tm": 469.15, 
	 "num_atms": 19, 
	 "gaussian": { 
		 "optdone": 1, 
		 "sigma_profile": "yes", 
		 "theory": "DFT", 
		 "functional": "B3LYP", 
		 "basiset": "6-31G**", 
		 "properties": { 
			 "R2extent": 2795.7104, 
			 "electric_dipole_moment_norm": 3.3885910848, 
			 "electric_quadrupole_moment_norm": 21.6550294994, 
			 "total_energy": -548.504198607, 
			 "HOMO_LUMO_gap": 0.18246, 
			 "cosmo_polarized_energy": -18.36, 
			 "cosmo_cavitation_energy": 25.08, 
			 "cosmo_dispersion_energy": -17.6, 
			 "cosmo_repulsion_energy": 1.42, 
			 "cosmo_total_nonelectrostatic_energy": 8.9, 
			 "SMD_solvation_energy": 6.87 
		},
		"coords": [
			{
				"x": -1.8872784471,
				"y": -2.9038597254,
				"z": -2.4174593272,
				"element": "N" 
			},
			{
				"x": -2.4081623788,
				"y": -2.5013282532,
				"z": -1.1695155052,
				"element": "N" 
			},
			{
				"x": -1.7389306581,
				"y": -1.7854024919,
				"z": -0.1984952996,
				"element": "C" 
			},
			{
				"x": -2.0517895422,
				"y": -1.8850105756,
				"z": 0.9811556568,
				"element": "O" 
			},
			{
				"x": -0.6306156367,
				"y": -0.8616227437,
				"z": -0.6290905855,
				"element": "C" 
			},
			{
				"x": 0.4721441984,
				"y": -0.739485666,
				"z": 0.227818649,
				"element": "C" 
			},
			{
				"x": 1.508613046,
				"y": 0.136209044,
				"z": -0.0723766264,
				"element": "C" 
			},
			{
				"x": 1.437880033,
				"y": 0.9297819776,
				"z": -1.2305683399,
				"element": "C" 
			},
			{
				"x": 0.3188864389,
				"y": 0.8389204165,
				"z": -2.0751613653,
				"element": "C" 
			},
			{
				"x": -0.7028198692,
				"y": -0.0565515604,
				"z": -1.7751585327,
				"element": "C" 
			},
			{
				"x": 2.5016514061,
				"y": 1.8385110501,
				"z": -1.546855284,
				"element": "C" 
			},
			{
				"x": 3.3651983254,
				"y": 2.5732006698,
				"z": -1.8065498647,
				"element": "N" 
			},
			{
				"x": -0.8889072107,
				"y": -3.0840041865,
				"z": -2.3495466704,
				"element": "H" 
			},
			{
				"x": -2.0371078344,
				"y": -2.177218258,
				"z": -3.1102273402,
				"element": "H" 
			},
			{
				"x": -3.0734749013,
				"y": -3.1587252313,
				"z": -0.7787308955,
				"element": "H" 
			},
			{
				"x": 0.4960656014,
				"y": -1.3352677808,
				"z": 1.1338155603,
				"element": "H" 
			},
			{
				"x": 2.3681087825,
				"y": 0.2201983333,
				"z": 0.5839232358,
				"element": "H" 
			},
			{
				"x": 0.2570583981,
				"y": 1.4716633718,
				"z": -2.9540312091,
				"element": "H" 
			},
			{
				"x": -1.5756197515,
				"y": -0.0992083903,
				"z": -2.4182462561,
				"element": "H" 
			}
		],
		 "valence_orbital": [ 
			{
				"type": "occ",
				"energy": -0.31115,
				"method": "rhf"
			},
			{
				"type": "occ",
				"energy": -0.28836,
				"method": "rhf"
			},
			{
				"type": "occ",
				"energy": -0.28307,
				"method": "rhf"
			},
			{
				"type": "occ",
				"energy": -0.26922,
				"method": "rhf"
			},
			{
				"type": "occ",
				"energy": -0.26002,
				"method": "rhf"
			},
			{
				"type": "unocc",
				"energy": -0.07756,
				"method": "rhf"
			},
			{
				"type": "unocc",
				"energy": -0.03726,
				"method": "rhf"
			},
			{
				"type": "unocc",
				"energy": 0.00877,
				"method": "rhf"
			},
			{
				"type": "unocc",
				"energy": 0.02735,
				"method": "rhf"
			},
			{
				"type": "unocc",
				"energy": 0.05109,
				"method": "rhf"
			}
		],
		"cosmo_sigma_profile": { 
			"-0.025": 0.0,
			"-0.024": 0.0,
			"-0.023": 0.0,
			"-0.022": 0.0,
			"-0.021": 0.0,
			"-0.02": 0.0,
			"-0.019": 0.0,
			"-0.018": 0.0,
			"-0.017": 0.0,
			"-0.016": 0.0,
			"-0.015": 0.0,
			"-0.014": 0.208445049031,
			"-0.013": 1.15544585912,
			"-0.012": 4.07327819057,
			"-0.011": 4.12220709625,
			"-0.01": 4.22047177537,
			"-0.009": 4.08477947005,
			"-0.008": 8.83764022676,
			"-0.007": 11.8558564038,
			"-0.006": 10.5185481358,
			"-0.005": 9.41118586259,
			"-0.004": 9.83951066708,
			"-0.003": 8.37420967694,
			"-0.002": 13.3146765779,
			"-0.001": 11.8203021818,
			"0.0": 11.8638937676,
			"0.001": 17.1138480026,
			"0.002": 9.0289720744,
			"0.003": 5.94265923457,
			"0.004": 4.75898813858,
			"0.005": 4.85154558277,
			"0.006": 4.7470830817,
			"0.007": 5.48008557404,
			"0.008": 5.42295512888,
			"0.009": 4.8594466358,
			"0.01": 5.00868500922,
			"0.011": 5.39247529385,
			"0.012": 6.32674475745,
			"0.013": 6.47924274508,
			"0.014": 1.42116937765,
			"0.015": 0.787544729565,
			"0.016": 0.148144801231,
			"0.017": 0.0,
			"0.018": 0.0,
			"0.019": 0.0,
			"0.02": 0.0,
			"0.021": 0.0,
			"0.022": 0.0,
			"0.023": 0.0,
			"0.024": 0.0,
			"0.025": 0.0
		}
	}
}
