{
	 "smiles": "BrC1=CC2=C(C=C1)N=CNC2=O", 
	 "Tm": 542.15, 
	 "num_atms": 17, 
	 "gaussian": { 
		 "optdone": 1, 
		 "sigma_profile": "yes", 
		 "theory": "DFT", 
		 "functional": "B3LYP", 
		 "basiset": "6-31G**", 
		 "properties": { 
			 "R2extent": 4540.9824, 
			 "electric_dipole_moment_norm": 3.0633605697, 
			 "electric_quadrupole_moment_norm": 11.4654346804, 
			 "total_energy": -3064.02021429, 
			 "HOMO_LUMO_gap": 0.181, 
			 "cosmo_polarized_energy": -13.2, 
			 "cosmo_cavitation_energy": 24.15, 
			 "cosmo_dispersion_energy": -18.64, 
			 "cosmo_repulsion_energy": 1.46, 
			 "cosmo_total_nonelectrostatic_energy": 6.97, 
			 "SMD_solvation_energy": 2.4 
		},
		"coords": [
			{
				"x": -2.8770782863,
				"y": 2.9264794967,
				"z": -1.9282537448,
				"element": "Br" 
			},
			{
				"x": -1.2143069946,
				"y": 2.1035856557,
				"z": -1.4787607515,
				"element": "C" 
			},
			{
				"x": -0.8703521036,
				"y": 1.9285014319,
				"z": -0.1495231772,
				"element": "C" 
			},
			{
				"x": 0.3555404495,
				"y": 1.3217214684,
				"z": 0.1614125295,
				"element": "C" 
			},
			{
				"x": 1.2346037442,
				"y": 0.8915200041,
				"z": -0.8622865596,
				"element": "C" 
			},
			{
				"x": 0.8516717069,
				"y": 1.0859492948,
				"z": -2.2036506282,
				"element": "C" 
			},
			{
				"x": -0.3589471893,
				"y": 1.6851484719,
				"z": -2.5118724973,
				"element": "C" 
			},
			{
				"x": 2.458724373,
				"y": 0.285882463,
				"z": -0.5980747101,
				"element": "N" 
			},
			{
				"x": 2.7692743531,
				"y": 0.1278630742,
				"z": 0.6435582599,
				"element": "C" 
			},
			{
				"x": 1.9846536248,
				"y": 0.5113301244,
				"z": 1.70331964,
				"element": "N" 
			},
			{
				"x": 0.7321099066,
				"y": 1.130053157,
				"z": 1.569633303,
				"element": "C" 
			},
			{
				"x": 0.0783327738,
				"y": 1.4497349986,
				"z": 2.5505906409,
				"element": "O" 
			},
			{
				"x": -1.5190041112,
				"y": 2.2457099201,
				"z": 0.6584045369,
				"element": "H" 
			},
			{
				"x": 1.5284072134,
				"y": 0.7547588151,
				"z": -2.9840866909,
				"element": "H" 
			},
			{
				"x": -0.6519322346,
				"y": 1.8339389891,
				"z": -3.5450618053,
				"element": "H" 
			},
			{
				"x": 3.7150200771,
				"y": -0.340115277,
				"z": 0.9093665562,
				"element": "H" 
			},
			{
				"x": 2.2954826974,
				"y": 0.354337912,
				"z": 2.6545850983,
				"element": "H" 
			}
		],
		 "valence_orbital": [ 
			{
				"type": "occ",
				"energy": -0.2892,
				"method": "rhf"
			},
			{
				"type": "occ",
				"energy": -0.28568,
				"method": "rhf"
			},
			{
				"type": "occ",
				"energy": -0.27587,
				"method": "rhf"
			},
			{
				"type": "occ",
				"energy": -0.27413,
				"method": "rhf"
			},
			{
				"type": "occ",
				"energy": -0.23582,
				"method": "rhf"
			},
			{
				"type": "unocc",
				"energy": -0.05482,
				"method": "rhf"
			},
			{
				"type": "unocc",
				"energy": -0.04952,
				"method": "rhf"
			},
			{
				"type": "unocc",
				"energy": 0.00181,
				"method": "rhf"
			},
			{
				"type": "unocc",
				"energy": 0.01434,
				"method": "rhf"
			},
			{
				"type": "unocc",
				"energy": 0.05981,
				"method": "rhf"
			}
		],
		"cosmo_sigma_profile": { 
			"-0.025": 0.0,
			"-0.024": 0.0,
			"-0.023": 0.0,
			"-0.022": 0.0,
			"-0.021": 0.0,
			"-0.02": 0.0,
			"-0.019": 0.0,
			"-0.018": 0.0,
			"-0.017": 0.921717476101,
			"-0.016": 2.05246107128,
			"-0.015": 0.984205848095,
			"-0.014": 1.50424443533,
			"-0.013": 1.09739380388,
			"-0.012": 1.01460835681,
			"-0.011": 1.66458653619,
			"-0.01": 3.09636632313,
			"-0.009": 2.26699718921,
			"-0.008": 4.1001029624,
			"-0.007": 5.40117159006,
			"-0.006": 6.57015732959,
			"-0.005": 7.63708425921,
			"-0.004": 10.3087909765,
			"-0.003": 11.5961753783,
			"-0.002": 13.3009631813,
			"-0.001": 12.0050403558,
			"0.0": 15.6114634009,
			"0.001": 24.2560556138,
			"0.002": 16.5734038935,
			"0.003": 11.1748378591,
			"0.004": 14.1813819921,
			"0.005": 4.76345686904,
			"0.006": 2.1341755594,
			"0.007": 2.74912510422,
			"0.008": 2.29827748233,
			"0.009": 2.86460511681,
			"0.01": 2.17252201613,
			"0.011": 3.08574432596,
			"0.012": 5.21827854846,
			"0.013": 4.22090673986,
			"0.014": 0.842455870627,
			"0.015": 0.567106698549,
			"0.016": 0.0,
			"0.017": 0.0,
			"0.018": 0.0,
			"0.019": 0.0,
			"0.02": 0.0,
			"0.021": 0.0,
			"0.022": 0.0,
			"0.023": 0.0,
			"0.024": 0.0,
			"0.025": 0.0
		}
	}
}
