{
	 "smiles": "ClC1=NC=CC(Br)=C1", 
	 "Tm": 292.15, 
	 "num_atms": 11, 
	 "gaussian": { 
		 "optdone": 1, 
		 "sigma_profile": "yes", 
		 "theory": "DFT", 
		 "functional": "B3LYP", 
		 "basiset": "6-31G**", 
		 "properties": { 
			 "R2extent": 2491.1501, 
			 "electric_dipole_moment_norm": 2.2353080526, 
			 "electric_quadrupole_moment_norm": 6.36414065998, 
			 "total_energy": -3278.68026794, 
			 "HOMO_LUMO_gap": 0.22246, 
			 "cosmo_polarized_energy": -5.64, 
			 "cosmo_cavitation_energy": 19.75, 
			 "cosmo_dispersion_energy": -15.42, 
			 "cosmo_repulsion_energy": 1.28, 
			 "cosmo_total_nonelectrostatic_energy": 5.6, 
			 "SMD_solvation_energy": 0.7 
		},
		"coords": [
			{
				"x": -0.8630960106,
				"y": -1.7244900027,
				"z": 1.9050354854,
				"element": "Cl" 
			},
			{
				"x": -0.4683587732,
				"y": -0.5398008745,
				"z": 0.6659040114,
				"element": "C" 
			},
			{
				"x": -0.6449884008,
				"y": -0.9092296097,
				"z": -0.5894263096,
				"element": "N" 
			},
			{
				"x": -0.3450598683,
				"y": -0.0081898417,
				"z": -1.5357423342,
				"element": "C" 
			},
			{
				"x": 0.1337352252,
				"y": 1.2718382229,
				"z": -1.2657370031,
				"element": "C" 
			},
			{
				"x": 0.3057702401,
				"y": 1.6213377077,
				"z": 0.073610153,
				"element": "C" 
			},
			{
				"x": 0.9550939527,
				"y": 3.3491511435,
				"z": 0.5328227872,
				"element": "Br" 
			},
			{
				"x": 0.0040411396,
				"y": 0.7101034319,
				"z": 1.0797523599,
				"element": "C" 
			},
			{
				"x": -0.4961524868,
				"y": -0.3282960262,
				"z": -2.5640500853,
				"element": "H" 
			},
			{
				"x": 0.3623139963,
				"y": 1.9655016873,
				"z": -2.0653373543,
				"element": "H" 
			},
			{
				"x": 0.1261009857,
				"y": 0.9494741615,
				"z": 2.1276682897,
				"element": "H" 
			}
		],
		 "valence_orbital": [ 
			{
				"type": "occ",
				"energy": -0.32301,
				"method": "rhf"
			},
			{
				"type": "occ",
				"energy": -0.30781,
				"method": "rhf"
			},
			{
				"type": "occ",
				"energy": -0.28745,
				"method": "rhf"
			},
			{
				"type": "occ",
				"energy": -0.2816,
				"method": "rhf"
			},
			{
				"type": "occ",
				"energy": -0.27287,
				"method": "rhf"
			},
			{
				"type": "unocc",
				"energy": -0.05041,
				"method": "rhf"
			},
			{
				"type": "unocc",
				"energy": -0.03866,
				"method": "rhf"
			},
			{
				"type": "unocc",
				"energy": -0.01924,
				"method": "rhf"
			},
			{
				"type": "unocc",
				"energy": 0.03837,
				"method": "rhf"
			},
			{
				"type": "unocc",
				"energy": 0.11358,
				"method": "rhf"
			}
		],
		"cosmo_sigma_profile": { 
			"-0.025": 0.0,
			"-0.024": 0.0,
			"-0.023": 0.0,
			"-0.022": 0.0,
			"-0.021": 0.0,
			"-0.02": 0.0,
			"-0.019": 0.0,
			"-0.018": 0.0,
			"-0.017": 0.0,
			"-0.016": 0.0,
			"-0.015": 0.0,
			"-0.014": 0.0,
			"-0.013": 0.0,
			"-0.012": 0.0,
			"-0.011": 0.0,
			"-0.01": 0.0952188717246,
			"-0.009": 2.07101860144,
			"-0.008": 5.8697733434,
			"-0.007": 5.62317034127,
			"-0.006": 5.62202587459,
			"-0.005": 6.08716384919,
			"-0.004": 5.92199046833,
			"-0.003": 8.42925622686,
			"-0.002": 11.7917273607,
			"-0.001": 22.8781226506,
			"0.0": 19.7689652291,
			"0.001": 11.35503048,
			"0.002": 13.9026723515,
			"0.003": 17.5838889088,
			"0.004": 13.5833193645,
			"0.005": 4.28645686612,
			"0.006": 2.21260525419,
			"0.007": 1.11214842848,
			"0.008": 1.81855383779,
			"0.009": 0.844413131529,
			"0.01": 1.32409371058,
			"0.011": 0.739465281876,
			"0.012": 0.959576281436,
			"0.013": 0.770311202879,
			"0.014": 0.630624451121,
			"0.015": 0.0113436850409,
			"0.016": 0.0,
			"0.017": 0.0,
			"0.018": 0.0,
			"0.019": 0.0,
			"0.02": 0.0,
			"0.021": 0.0,
			"0.022": 0.0,
			"0.023": 0.0,
			"0.024": 0.0,
			"0.025": 0.0
		}
	}
}
