{
	 "smiles": "O=CC1=C2OCOC2=CC=C1", 
	 "Tm": 308.15, 
	 "num_atms": 17, 
	 "gaussian": { 
		 "optdone": 1, 
		 "sigma_profile": "yes", 
		 "theory": "DFT", 
		 "functional": "B3LYP", 
		 "basiset": "6-31G**", 
		 "properties": { 
			 "R2extent": 1965.523, 
			 "electric_dipole_moment_norm": 3.73206329796, 
			 "electric_quadrupole_moment_norm": 9.51205679283, 
			 "total_energy": -534.099846905, 
			 "HOMO_LUMO_gap": 0.15994, 
			 "cosmo_polarized_energy": -9.04, 
			 "cosmo_cavitation_energy": 21.64, 
			 "cosmo_dispersion_energy": -16.4, 
			 "cosmo_repulsion_energy": 1.31, 
			 "cosmo_total_nonelectrostatic_energy": 6.54, 
			 "SMD_solvation_energy": 5.53 
		},
		"coords": [
			{
				"x": -0.5561468274,
				"y": 0.1714164194,
				"z": -2.7670571248,
				"element": "O" 
			},
			{
				"x": 0.032727967,
				"y": 0.1253357086,
				"z": -1.7016269169,
				"element": "C" 
			},
			{
				"x": -0.4077444462,
				"y": 0.8399747754,
				"z": -0.4878596744,
				"element": "C" 
			},
			{
				"x": 0.2912032895,
				"y": 0.7633572197,
				"z": 0.7117892546,
				"element": "C" 
			},
			{
				"x": 1.4361193802,
				"y": 0.064475329,
				"z": 0.9819804581,
				"element": "O" 
			},
			{
				"x": 1.7456997042,
				"y": 0.3177677288,
				"z": 2.3623174507,
				"element": "C" 
			},
			{
				"x": 0.7408547036,
				"y": 1.1892491084,
				"z": 2.888131526,
				"element": "O" 
			},
			{
				"x": -0.1298827988,
				"y": 1.4409112647,
				"z": 1.8553782281,
				"element": "C" 
			},
			{
				"x": -1.2636228836,
				"y": 2.2257713751,
				"z": 1.8620987956,
				"element": "C" 
			},
			{
				"x": -1.9882520384,
				"y": 2.3166688865,
				"z": 0.652328684,
				"element": "C" 
			},
			{
				"x": -1.5737666817,
				"y": 1.6449387055,
				"z": -0.4875306577,
				"element": "C" 
			},
			{
				"x": 0.9584631926,
				"y": -0.4744703806,
				"z": -1.5857570765,
				"element": "H" 
			},
			{
				"x": 2.7273136987,
				"y": 0.8017178613,
				"z": 2.429415941,
				"element": "H" 
			},
			{
				"x": 1.7391133434,
				"y": -0.6299351286,
				"z": 2.9137631442,
				"element": "H" 
			},
			{
				"x": -1.5794353716,
				"y": 2.7470946854,
				"z": 2.7587100502,
				"element": "H" 
			},
			{
				"x": -2.8856751034,
				"y": 2.9261857293,
				"z": 0.6229925735,
				"element": "H" 
			},
			{
				"x": -2.1296691284,
				"y": 1.7144407121,
				"z": -1.4162746556,
				"element": "H" 
			}
		],
		 "valence_orbital": [ 
			{
				"type": "occ",
				"energy": -0.37159,
				"method": "rhf"
			},
			{
				"type": "occ",
				"energy": -0.32475,
				"method": "rhf"
			},
			{
				"type": "occ",
				"energy": -0.25952,
				"method": "rhf"
			},
			{
				"type": "occ",
				"energy": -0.2525,
				"method": "rhf"
			},
			{
				"type": "occ",
				"energy": -0.22149,
				"method": "rhf"
			},
			{
				"type": "unocc",
				"energy": -0.06155,
				"method": "rhf"
			},
			{
				"type": "unocc",
				"energy": -5e-05,
				"method": "rhf"
			},
			{
				"type": "unocc",
				"energy": 0.04211,
				"method": "rhf"
			},
			{
				"type": "unocc",
				"energy": 0.08467,
				"method": "rhf"
			},
			{
				"type": "unocc",
				"energy": 0.09042,
				"method": "rhf"
			}
		],
		"cosmo_sigma_profile": { 
			"-0.025": 0.0,
			"-0.024": 0.0,
			"-0.023": 0.0,
			"-0.022": 0.0,
			"-0.021": 0.0,
			"-0.02": 0.0,
			"-0.019": 0.0,
			"-0.018": 0.0,
			"-0.017": 0.0,
			"-0.016": 0.0,
			"-0.015": 0.0,
			"-0.014": 0.0,
			"-0.013": 0.0,
			"-0.012": 0.0,
			"-0.011": 0.0,
			"-0.01": 0.0,
			"-0.009": 0.219186026476,
			"-0.008": 7.76023377505,
			"-0.007": 8.88919033083,
			"-0.006": 12.6014474485,
			"-0.005": 11.7780985256,
			"-0.004": 11.0324149575,
			"-0.003": 10.906869403,
			"-0.002": 10.159338447,
			"-0.001": 11.6244283239,
			"0.0": 10.3960654733,
			"0.001": 14.9090791016,
			"0.002": 12.5291333284,
			"0.003": 11.5050977556,
			"0.004": 9.14157033422,
			"0.005": 4.58541206754,
			"0.006": 4.41891400231,
			"0.007": 3.97334230669,
			"0.008": 2.960184042,
			"0.009": 3.80636073421,
			"0.01": 2.88751358996,
			"0.011": 3.70691095149,
			"0.012": 3.46572258996,
			"0.013": 0.871529245916,
			"0.014": 0.0,
			"0.015": 0.0,
			"0.016": 0.0,
			"0.017": 0.0,
			"0.018": 0.0,
			"0.019": 0.0,
			"0.02": 0.0,
			"0.021": 0.0,
			"0.022": 0.0,
			"0.023": 0.0,
			"0.024": 0.0,
			"0.025": 0.0
		}
	}
}
