{
	 "smiles": "CCOP(=S)(OCC)OC1=NC=CN=C1", 
	 "Tm": 271.45, 
	 "num_atms": 28, 
	 "gaussian": { 
		 "optdone": 1, 
		 "sigma_profile": "yes", 
		 "theory": "DFT", 
		 "functional": "B3LYP", 
		 "basiset": "6-31G**", 
		 "properties": { 
			 "R2extent": 5997.9938, 
			 "electric_dipole_moment_norm": 3.1606353491, 
			 "electric_quadrupole_moment_norm": 20.0968551279, 
			 "total_energy": -1387.46249467, 
			 "HOMO_LUMO_gap": 0.1822, 
			 "cosmo_polarized_energy": -11.84, 
			 "cosmo_cavitation_energy": 35.37, 
			 "cosmo_dispersion_energy": -25.06, 
			 "cosmo_repulsion_energy": 1.96, 
			 "cosmo_total_nonelectrostatic_energy": 12.27, 
			 "SMD_solvation_energy": 5.16 
		},
		"coords": [
			{
				"x": 1.2431083799,
				"y": 0.5145776467,
				"z": -2.8649018399,
				"element": "C" 
			},
			{
				"x": 0.0080359071,
				"y": -0.2582660624,
				"z": -2.4441245359,
				"element": "C" 
			},
			{
				"x": -0.1714307362,
				"y": -0.042867892,
				"z": -1.0160386923,
				"element": "O" 
			},
			{
				"x": -1.2581333454,
				"y": -0.8286384094,
				"z": -0.128035968,
				"element": "P" 
			},
			{
				"x": -1.8494561355,
				"y": -2.5544568468,
				"z": -0.7732204142,
				"element": "S" 
			},
			{
				"x": -0.5995037514,
				"y": -0.7392047777,
				"z": 1.3326912196,
				"element": "O" 
			},
			{
				"x": 0.5644024395,
				"y": -1.5447339112,
				"z": 1.6476528228,
				"element": "C" 
			},
			{
				"x": 0.900276557,
				"y": -1.310561708,
				"z": 3.1077045684,
				"element": "C" 
			},
			{
				"x": -2.4334071519,
				"y": 0.2757322098,
				"z": 0.2367619091,
				"element": "O" 
			},
			{
				"x": -3.3621958999,
				"y": 0.739475293,
				"z": -0.6449376719,
				"element": "C" 
			},
			{
				"x": -3.1355668364,
				"y": 0.6728240478,
				"z": -1.9468645721,
				"element": "N" 
			},
			{
				"x": -4.0975384895,
				"y": 1.1714523466,
				"z": -2.7395880708,
				"element": "C" 
			},
			{
				"x": -5.2568539753,
				"y": 1.736583757,
				"z": -2.2200729612,
				"element": "C" 
			},
			{
				"x": -5.4739471912,
				"y": 1.8065805612,
				"z": -0.896344351,
				"element": "N" 
			},
			{
				"x": -4.5314006392,
				"y": 1.3048728631,
				"z": -0.1059722961,
				"element": "C" 
			},
			{
				"x": 1.1225490344,
				"y": 1.5832982714,
				"z": -2.6669721511,
				"element": "H" 
			},
			{
				"x": 2.1296580176,
				"y": 0.1610048294,
				"z": -2.3305334389,
				"element": "H" 
			},
			{
				"x": 1.4109605036,
				"y": 0.3788187735,
				"z": -3.9382163815,
				"element": "H" 
			},
			{
				"x": -0.8920468134,
				"y": 0.0936758534,
				"z": -2.9528372566,
				"element": "H" 
			},
			{
				"x": 0.1163366561,
				"y": -1.331817429,
				"z": -2.6239060412,
				"element": "H" 
			},
			{
				"x": 0.3305763172,
				"y": -2.5966547132,
				"z": 1.4524691118,
				"element": "H" 
			},
			{
				"x": 1.3875983338,
				"y": -1.2392570194,
				"z": 0.9924561136,
				"element": "H" 
			},
			{
				"x": 1.7798926746,
				"y": -1.9011940146,
				"z": 3.3827606453,
				"element": "H" 
			},
			{
				"x": 0.0666771446,
				"y": -1.6107004097,
				"z": 3.7482783761,
				"element": "H" 
			},
			{
				"x": 1.1187738703,
				"y": -0.2552624361,
				"z": 3.2924196989,
				"element": "H" 
			},
			{
				"x": -3.9272204365,
				"y": 1.1158700205,
				"z": -3.8119092984,
				"element": "H" 
			},
			{
				"x": -6.0266500305,
				"y": 2.1396181553,
				"z": -2.8725894149,
				"element": "H" 
			},
			{
				"x": -4.6782944034,
				"y": 1.3401310007,
				"z": 0.9699708902,
				"element": "H" 
			}
		],
		 "valence_orbital": [ 
			{
				"type": "occ",
				"energy": -0.30952,
				"method": "rhf"
			},
			{
				"type": "occ",
				"energy": -0.26973,
				"method": "rhf"
			},
			{
				"type": "occ",
				"energy": -0.26511,
				"method": "rhf"
			},
			{
				"type": "occ",
				"energy": -0.24352,
				"method": "rhf"
			},
			{
				"type": "occ",
				"energy": -0.24058,
				"method": "rhf"
			},
			{
				"type": "unocc",
				"energy": -0.05838,
				"method": "rhf"
			},
			{
				"type": "unocc",
				"energy": -0.02621,
				"method": "rhf"
			},
			{
				"type": "unocc",
				"energy": 0.03808,
				"method": "rhf"
			},
			{
				"type": "unocc",
				"energy": 0.05355,
				"method": "rhf"
			},
			{
				"type": "unocc",
				"energy": 0.0645,
				"method": "rhf"
			}
		],
		"cosmo_sigma_profile": { 
			"-0.025": 0.0,
			"-0.024": 0.0,
			"-0.023": 0.0,
			"-0.022": 0.0,
			"-0.021": 0.0,
			"-0.02": 0.0,
			"-0.019": 0.0,
			"-0.018": 0.0,
			"-0.017": 0.0,
			"-0.016": 0.0,
			"-0.015": 0.0,
			"-0.014": 0.0,
			"-0.013": 0.0,
			"-0.012": 0.0,
			"-0.011": 0.0,
			"-0.01": 0.0,
			"-0.009": 0.97020591244,
			"-0.008": 5.88215865763,
			"-0.007": 6.03964641386,
			"-0.006": 7.36610329338,
			"-0.005": 14.7840324361,
			"-0.004": 30.5382683939,
			"-0.003": 29.6986457677,
			"-0.002": 28.9471538474,
			"-0.001": 28.9561350277,
			"0.0": 25.0990170406,
			"0.001": 13.5474722395,
			"0.002": 13.0219651082,
			"0.003": 12.4166002308,
			"0.004": 9.85773001188,
			"0.005": 11.3884964862,
			"0.006": 9.78581516516,
			"0.007": 11.9151279771,
			"0.008": 10.1987126324,
			"0.009": 6.54046907016,
			"0.01": 2.03989737935,
			"0.011": 0.647115289067,
			"0.012": 0.662982616541,
			"0.013": 0.926290637145,
			"0.014": 0.923662809884,
			"0.015": 0.147065959795,
			"0.016": 0.0,
			"0.017": 0.0,
			"0.018": 0.0,
			"0.019": 0.0,
			"0.02": 0.0,
			"0.021": 0.0,
			"0.022": 0.0,
			"0.023": 0.0,
			"0.024": 0.0,
			"0.025": 0.0
		}
	}
}
