{
	 "smiles": "C1CC(C1)NC1=C2N=CC=CC2=CC=C1", 
	 "Tm": 322.15, 
	 "num_atms": 29, 
	 "gaussian": { 
		 "optdone": 1, 
		 "sigma_profile": "yes", 
		 "theory": "DFT", 
		 "functional": "B3LYP", 
		 "basiset": "6-31G**", 
		 "properties": { 
			 "R2extent": 3389.2697, 
			 "electric_dipole_moment_norm": 0.565671653877, 
			 "electric_quadrupole_moment_norm": 10.0802570949, 
			 "total_energy": -613.300856321, 
			 "HOMO_LUMO_gap": 0.14201, 
			 "cosmo_polarized_energy": -7.65, 
			 "cosmo_cavitation_energy": 30.96, 
			 "cosmo_dispersion_energy": -22.62, 
			 "cosmo_repulsion_energy": 1.76, 
			 "cosmo_total_nonelectrostatic_energy": 10.1, 
			 "SMD_solvation_energy": 3.44 
		},
		"coords": [
			{
				"x": -1.1304747585,
				"y": -1.1147911265,
				"z": -3.8235069027,
				"element": "C" 
			},
			{
				"x": 0.066345951,
				"y": -0.5118048684,
				"z": -3.0371469977,
				"element": "C" 
			},
			{
				"x": -0.1235116915,
				"y": -1.603699899,
				"z": -1.936989933,
				"element": "C" 
			},
			{
				"x": -1.0460795405,
				"y": -2.3769300306,
				"z": -2.9229185176,
				"element": "C" 
			},
			{
				"x": -0.8665598788,
				"y": -1.1878058043,
				"z": -0.752475831,
				"element": "N" 
			},
			{
				"x": -0.5239227207,
				"y": -0.2277548546,
				"z": 0.1804255445,
				"element": "C" 
			},
			{
				"x": 0.8316103315,
				"y": 0.2114096907,
				"z": 0.4158209637,
				"element": "C" 
			},
			{
				"x": 1.8395408295,
				"y": -0.3096694842,
				"z": -0.3375248924,
				"element": "N" 
			},
			{
				"x": 3.0759935911,
				"y": 0.088688292,
				"z": -0.1156061125,
				"element": "C" 
			},
			{
				"x": 3.4297485096,
				"y": 1.039826546,
				"z": 0.8704322516,
				"element": "C" 
			},
			{
				"x": 2.4305889965,
				"y": 1.5801086665,
				"z": 1.6427870197,
				"element": "C" 
			},
			{
				"x": 1.0815857853,
				"y": 1.1816562511,
				"z": 1.4463076406,
				"element": "C" 
			},
			{
				"x": 0.0210692502,
				"y": 1.6985011526,
				"z": 2.2280956428,
				"element": "C" 
			},
			{
				"x": -1.263538981,
				"y": 1.259261518,
				"z": 1.9879137808,
				"element": "C" 
			},
			{
				"x": -1.5321527371,
				"y": 0.3183989321,
				"z": 0.9803606973,
				"element": "C" 
			},
			{
				"x": -2.0577191397,
				"y": -0.5534796062,
				"z": -3.6719563404,
				"element": "H" 
			},
			{
				"x": -0.9968118497,
				"y": -1.2652051544,
				"z": -4.8983379798,
				"element": "H" 
			},
			{
				"x": 1.0205658863,
				"y": -0.6322616775,
				"z": -3.5583201215,
				"element": "H" 
			},
			{
				"x": -0.0192711062,
				"y": 0.5255560396,
				"z": -2.7046771371,
				"element": "H" 
			},
			{
				"x": 0.7912670118,
				"y": -2.1085664102,
				"z": -1.6321659469,
				"element": "H" 
			},
			{
				"x": -0.5138643029,
				"y": -3.202890977,
				"z": -3.4029056279,
				"element": "H" 
			},
			{
				"x": -1.98081633,
				"y": -2.7753094408,
				"z": -2.5107285548,
				"element": "H" 
			},
			{
				"x": -1.8661107891,
				"y": -1.3116937746,
				"z": -0.8338073395,
				"element": "H" 
			},
			{
				"x": 3.8484619894,
				"y": -0.3552494541,
				"z": -0.7428743587,
				"element": "H" 
			},
			{
				"x": 4.4683292611,
				"y": 1.3268683291,
				"z": 1.0029250548,
				"element": "H" 
			},
			{
				"x": 2.6532593387,
				"y": 2.3139222561,
				"z": 2.4135830709,
				"element": "H" 
			},
			{
				"x": 0.2338476812,
				"y": 2.4274281472,
				"z": 3.0043619483,
				"element": "H" 
			},
			{
				"x": -2.0909437727,
				"y": 1.6449572731,
				"z": 2.5772464091,
				"element": "H" 
			},
			{
				"x": -2.5588368148,
				"y": -0.0008705316,
				"z": 0.8147825696,
				"element": "H" 
			}
		],
		 "valence_orbital": [ 
			{
				"type": "occ",
				"energy": -0.298,
				"method": "rhf"
			},
			{
				"type": "occ",
				"energy": -0.26109,
				"method": "rhf"
			},
			{
				"type": "occ",
				"energy": -0.24415,
				"method": "rhf"
			},
			{
				"type": "occ",
				"energy": -0.24258,
				"method": "rhf"
			},
			{
				"type": "occ",
				"energy": -0.18046,
				"method": "rhf"
			},
			{
				"type": "unocc",
				"energy": -0.03845,
				"method": "rhf"
			},
			{
				"type": "unocc",
				"energy": -0.00671,
				"method": "rhf"
			},
			{
				"type": "unocc",
				"energy": 0.03795,
				"method": "rhf"
			},
			{
				"type": "unocc",
				"energy": 0.07871,
				"method": "rhf"
			},
			{
				"type": "unocc",
				"energy": 0.09654,
				"method": "rhf"
			}
		],
		"cosmo_sigma_profile": { 
			"-0.025": 0.0,
			"-0.024": 0.0,
			"-0.023": 0.0,
			"-0.022": 0.0,
			"-0.021": 0.0,
			"-0.02": 0.0,
			"-0.019": 0.0,
			"-0.018": 0.0,
			"-0.017": 0.0,
			"-0.016": 0.0,
			"-0.015": 0.0,
			"-0.014": 0.0,
			"-0.013": 0.0,
			"-0.012": 0.449664426503,
			"-0.011": 1.55322360355,
			"-0.01": 0.786562376348,
			"-0.009": 1.71713267714,
			"-0.008": 2.11908926437,
			"-0.007": 3.15562386679,
			"-0.006": 9.20404856259,
			"-0.005": 14.470552999,
			"-0.004": 13.6275291662,
			"-0.003": 19.2566041311,
			"-0.002": 22.5839237797,
			"-0.001": 22.4462164135,
			"0.0": 21.9919464027,
			"0.001": 22.0739193769,
			"0.002": 20.7647028569,
			"0.003": 21.6555879403,
			"0.004": 14.7179622315,
			"0.005": 11.7609843984,
			"0.006": 10.0940043385,
			"0.007": 4.22299866816,
			"0.008": 3.91435755139,
			"0.009": 2.02032243149,
			"0.01": 0.68952727297,
			"0.011": 0.0292342260223,
			"0.012": 0.0,
			"0.013": 0.0,
			"0.014": 0.0,
			"0.015": 0.0,
			"0.016": 0.0,
			"0.017": 0.0,
			"0.018": 0.0,
			"0.019": 0.0,
			"0.02": 0.0,
			"0.021": 0.0,
			"0.022": 0.0,
			"0.023": 0.0,
			"0.024": 0.0,
			"0.025": 0.0
		}
	}
}
