{
	 "smiles": "OC(=O)C=O", 
	 "Tm": 371.15, 
	 "num_atms": 7, 
	 "gaussian": { 
		 "optdone": 1, 
		 "sigma_profile": "yes", 
		 "theory": "DFT", 
		 "functional": "B3LYP", 
		 "basiset": "6-31G**", 
		 "properties": { 
			 "R2extent": 870.8918, 
			 "electric_dipole_moment_norm": 1.95319027491, 
			 "electric_quadrupole_moment_norm": 3.42040284323, 
			 "total_energy": -303.069811115, 
			 "HOMO_LUMO_gap": 0.1753, 
			 "cosmo_polarized_energy": -9.56, 
			 "cosmo_cavitation_energy": 12.1, 
			 "cosmo_dispersion_energy": -8.9, 
			 "cosmo_repulsion_energy": 0.82, 
			 "cosmo_total_nonelectrostatic_energy": 4.02, 
			 "SMD_solvation_energy": 5.08 
		},
		"coords": [
			{
				"x": 0.6946898665,
				"y": -1.5287572649,
				"z": 1.8748457006,
				"element": "O" 
			},
			{
				"x": -0.2381116272,
				"y": -1.1780274987,
				"z": 0.9825804153,
				"element": "C" 
			},
			{
				"x": -0.6521136783,
				"y": -0.057435932,
				"z": 0.8174489048,
				"element": "O" 
			},
			{
				"x": -0.7534092019,
				"y": -2.3649923083,
				"z": 0.1598830361,
				"element": "C" 
			},
			{
				"x": -0.3188567754,
				"y": -3.481134239,
				"z": 0.347141346,
				"element": "O" 
			},
			{
				"x": 0.8278621919,
				"y": -2.4927343186,
				"z": 1.7837929838,
				"element": "H" 
			},
			{
				"x": -1.5257607756,
				"y": -2.1195184384,
				"z": -0.5898923867,
				"element": "H" 
			}
		],
		 "valence_orbital": [ 
			{
				"type": "occ",
				"energy": -0.42196,
				"method": "rhf"
			},
			{
				"type": "occ",
				"energy": -0.41501,
				"method": "rhf"
			},
			{
				"type": "occ",
				"energy": -0.3485,
				"method": "rhf"
			},
			{
				"type": "occ",
				"energy": -0.34106,
				"method": "rhf"
			},
			{
				"type": "occ",
				"energy": -0.28403,
				"method": "rhf"
			},
			{
				"type": "unocc",
				"energy": -0.10873,
				"method": "rhf"
			},
			{
				"type": "unocc",
				"energy": 0.04503,
				"method": "rhf"
			},
			{
				"type": "unocc",
				"energy": 0.07907,
				"method": "rhf"
			},
			{
				"type": "unocc",
				"energy": 0.10948,
				"method": "rhf"
			},
			{
				"type": "unocc",
				"energy": 0.20746,
				"method": "rhf"
			}
		],
		"cosmo_sigma_profile": { 
			"-0.025": 0.0,
			"-0.024": 0.0,
			"-0.023": 0.0,
			"-0.022": 0.0,
			"-0.021": 0.0,
			"-0.02": 0.0,
			"-0.019": 0.0,
			"-0.018": 0.0,
			"-0.017": 0.191399726624,
			"-0.016": 0.558009062411,
			"-0.015": 0.739749044909,
			"-0.014": 0.452782242628,
			"-0.013": 0.847794121613,
			"-0.012": 1.37052437612,
			"-0.011": 1.06649522642,
			"-0.01": 4.73381778927,
			"-0.009": 7.69925589138,
			"-0.008": 6.14760566227,
			"-0.007": 3.50874380778,
			"-0.006": 3.62995259994,
			"-0.005": 2.3018911192,
			"-0.004": 3.03029767978,
			"-0.003": 3.81370293122,
			"-0.002": 2.8773783602,
			"-0.001": 2.96009072889,
			"0.0": 2.69502373418,
			"0.001": 3.09950426627,
			"0.002": 2.4072183518,
			"0.003": 2.5688558756,
			"0.004": 4.36440423352,
			"0.005": 4.3615534953,
			"0.006": 4.18193702683,
			"0.007": 6.05538816055,
			"0.008": 6.90757952865,
			"0.009": 5.85079674171,
			"0.01": 5.58605667854,
			"0.011": 2.9704755166,
			"0.012": 0.298436119797,
			"0.013": 0.0,
			"0.014": 0.0,
			"0.015": 0.0,
			"0.016": 0.0,
			"0.017": 0.0,
			"0.018": 0.0,
			"0.019": 0.0,
			"0.02": 0.0,
			"0.021": 0.0,
			"0.022": 0.0,
			"0.023": 0.0,
			"0.024": 0.0,
			"0.025": 0.0
		}
	}
}
