{
	 "smiles": "OC(=O)C(OC1=C(F)C=C(F)C=C1)C1=CC=CC=C1", 
	 "Tm": 370.15, 
	 "num_atms": 29, 
	 "gaussian": { 
		 "optdone": 1, 
		 "sigma_profile": "yes", 
		 "theory": "DFT", 
		 "functional": "B3LYP", 
		 "basiset": "6-31G**", 
		 "properties": { 
			 "R2extent": 6291.3476, 
			 "electric_dipole_moment_norm": 1.27619943191, 
			 "electric_quadrupole_moment_norm": 4.67689582736, 
			 "total_energy": -964.848462039, 
			 "HOMO_LUMO_gap": 0.20017, 
			 "cosmo_polarized_energy": -12.19, 
			 "cosmo_cavitation_energy": 35.43, 
			 "cosmo_dispersion_energy": -24.39, 
			 "cosmo_repulsion_energy": 1.84, 
			 "cosmo_total_nonelectrostatic_energy": 12.87, 
			 "SMD_solvation_energy": 8.18 
		},
		"coords": [
			{
				"x": -0.8501024499,
				"y": -2.8603153956,
				"z": -0.4971146178,
				"element": "O" 
			},
			{
				"x": -1.2208164705,
				"y": -1.7885474411,
				"z": -1.2171056334,
				"element": "C" 
			},
			{
				"x": -1.9849547149,
				"y": -1.8326555394,
				"z": -2.1566601729,
				"element": "O" 
			},
			{
				"x": -0.5328727755,
				"y": -0.494294711,
				"z": -0.7550896161,
				"element": "C" 
			},
			{
				"x": -0.3045633469,
				"y": -0.46216986,
				"z": 0.6398543849,
				"element": "O" 
			},
			{
				"x": -1.3727653516,
				"y": -0.3289371138,
				"z": 1.4821139799,
				"element": "C" 
			},
			{
				"x": -1.0526096058,
				"y": -0.2439404681,
				"z": 2.8476124817,
				"element": "C" 
			},
			{
				"x": 0.242147629,
				"y": -0.3053141367,
				"z": 3.2043313653,
				"element": "F" 
			},
			{
				"x": -2.0242116996,
				"y": -0.0982913271,
				"z": 3.8224693542,
				"element": "C" 
			},
			{
				"x": -3.3560253376,
				"y": -0.0355501504,
				"z": 3.4162353749,
				"element": "C" 
			},
			{
				"x": -4.31213243,
				"y": 0.1058539518,
				"z": 4.3572669591,
				"element": "F" 
			},
			{
				"x": -3.7166956903,
				"y": -0.1165314959,
				"z": 2.0810300313,
				"element": "C" 
			},
			{
				"x": -2.7175455096,
				"y": -0.2641802077,
				"z": 1.1107128996,
				"element": "C" 
			},
			{
				"x": 0.8064187556,
				"y": -0.359645532,
				"z": -1.4703765744,
				"element": "C" 
			},
			{
				"x": 0.8179180683,
				"y": -0.1612142732,
				"z": -2.8566804668,
				"element": "C" 
			},
			{
				"x": 2.0292880917,
				"y": -0.0425857031,
				"z": -3.5364882009,
				"element": "C" 
			},
			{
				"x": 3.2357365523,
				"y": -0.1207300212,
				"z": -2.8368560997,
				"element": "C" 
			},
			{
				"x": 3.2231067056,
				"y": -0.3200583014,
				"z": -1.45589296,
				"element": "C" 
			},
			{
				"x": 2.0130418398,
				"y": -0.4434565439,
				"z": -0.7699612966,
				"element": "C" 
			},
			{
				"x": -1.3103556352,
				"y": -3.6244486521,
				"z": -0.8844266199,
				"element": "H" 
			},
			{
				"x": -1.1949710124,
				"y": 0.3258666016,
				"z": -1.0599900951,
				"element": "H" 
			},
			{
				"x": -1.7493552899,
				"y": -0.0341896167,
				"z": 4.8682859522,
				"element": "H" 
			},
			{
				"x": -4.762542791,
				"y": -0.0672797903,
				"z": 1.8009035145,
				"element": "H" 
			},
			{
				"x": -3.007242792,
				"y": -0.3349686355,
				"z": 0.0689825476,
				"element": "H" 
			},
			{
				"x": -0.120984832,
				"y": -0.1072813901,
				"z": -3.4008506614,
				"element": "H" 
			},
			{
				"x": 2.0300722477,
				"y": 0.1138129434,
				"z": -4.6112761534,
				"element": "H" 
			},
			{
				"x": 4.1795567558,
				"y": -0.0250109254,
				"z": -3.365818163,
				"element": "H" 
			},
			{
				"x": 4.1580143526,
				"y": -0.3805652295,
				"z": -0.9061726532,
				"element": "H" 
			},
			{
				"x": 1.9976467364,
				"y": -0.5923710357,
				"z": 0.3031611393,
				"element": "H" 
			}
		],
		 "valence_orbital": [ 
			{
				"type": "occ",
				"energy": -0.28983,
				"method": "rhf"
			},
			{
				"type": "occ",
				"energy": -0.26431,
				"method": "rhf"
			},
			{
				"type": "occ",
				"energy": -0.25522,
				"method": "rhf"
			},
			{
				"type": "occ",
				"energy": -0.25087,
				"method": "rhf"
			},
			{
				"type": "occ",
				"energy": -0.2273,
				"method": "rhf"
			},
			{
				"type": "unocc",
				"energy": -0.02713,
				"method": "rhf"
			},
			{
				"type": "unocc",
				"energy": -0.01428,
				"method": "rhf"
			},
			{
				"type": "unocc",
				"energy": -0.00778,
				"method": "rhf"
			},
			{
				"type": "unocc",
				"energy": 0.00533,
				"method": "rhf"
			},
			{
				"type": "unocc",
				"energy": 0.00983,
				"method": "rhf"
			}
		],
		"cosmo_sigma_profile": { 
			"-0.025": 0.0,
			"-0.024": 0.0,
			"-0.023": 0.0,
			"-0.022": 0.0,
			"-0.021": 0.0,
			"-0.02": 0.00528906012325,
			"-0.019": 0.614961331394,
			"-0.018": 1.15155670763,
			"-0.017": 0.934085212767,
			"-0.016": 0.555562279002,
			"-0.015": 0.905105983725,
			"-0.014": 0.774694772957,
			"-0.013": 0.58925802116,
			"-0.012": 0.913622354423,
			"-0.011": 0.716682273191,
			"-0.01": 0.697896131936,
			"-0.009": 1.57368051531,
			"-0.008": 5.90578068303,
			"-0.007": 7.86379833012,
			"-0.006": 13.2631502416,
			"-0.005": 16.3537423134,
			"-0.004": 17.0332480036,
			"-0.003": 16.26741367,
			"-0.002": 13.3628912547,
			"-0.001": 13.2420849587,
			"0.0": 24.1795519928,
			"0.001": 26.6093838945,
			"0.002": 24.3245806618,
			"0.003": 25.5661269513,
			"0.004": 32.8991864855,
			"0.005": 16.7578562402,
			"0.006": 4.95160471132,
			"0.007": 3.309685834,
			"0.008": 2.43206276695,
			"0.009": 2.60550581112,
			"0.01": 2.76071680604,
			"0.011": 4.4300389752,
			"0.012": 0.791977513467,
			"0.013": 0.0,
			"0.014": 0.0,
			"0.015": 0.0,
			"0.016": 0.0,
			"0.017": 0.0,
			"0.018": 0.0,
			"0.019": 0.0,
			"0.02": 0.0,
			"0.021": 0.0,
			"0.022": 0.0,
			"0.023": 0.0,
			"0.024": 0.0,
			"0.025": 0.0
		}
	}
}
