{
	 "smiles": "ClS(=O)(=O)C1=C(Br)C=C(Br)C=C1", 
	 "Tm": 357.15, 
	 "num_atms": 15, 
	 "gaussian": { 
		 "optdone": 1, 
		 "sigma_profile": "yes", 
		 "theory": "DFT", 
		 "functional": "B3LYP", 
		 "basiset": "6-31G**", 
		 "properties": { 
			 "R2extent": 8982.03, 
			 "electric_dipole_moment_norm": 4.11656734792, 
			 "electric_quadrupole_moment_norm": 7.85712895847, 
			 "total_energy": -6381.99814799, 
			 "HOMO_LUMO_gap": 0.1808, 
			 "cosmo_polarized_energy": -8.5, 
			 "cosmo_cavitation_energy": 27.52, 
			 "cosmo_dispersion_energy": -21.52, 
			 "cosmo_repulsion_energy": 1.66, 
			 "cosmo_total_nonelectrostatic_energy": 7.67, 
			 "SMD_solvation_energy": 1.35 
		},
		"coords": [
			{
				"x": 1.9993258384,
				"y": 3.2909811941,
				"z": 1.5257555893,
				"element": "Cl" 
			},
			{
				"x": 1.8414042599,
				"y": 1.5748894918,
				"z": 0.2882099415,
				"element": "S" 
			},
			{
				"x": 1.8149637238,
				"y": 0.4304459804,
				"z": 1.1906312852,
				"element": "O" 
			},
			{
				"x": 2.8483879991,
				"y": 1.7010469251,
				"z": -0.7536567664,
				"element": "O" 
			},
			{
				"x": 0.1877668757,
				"y": 1.7725263948,
				"z": -0.3958895478,
				"element": "C" 
			},
			{
				"x": -0.1633861481,
				"y": 2.7354479145,
				"z": -1.3543712784,
				"element": "C" 
			},
			{
				"x": 1.0368550502,
				"y": 4.0417531115,
				"z": -2.0225929763,
				"element": "Br" 
			},
			{
				"x": -1.4695397379,
				"y": 2.7629303785,
				"z": -1.8455965758,
				"element": "C" 
			},
			{
				"x": -2.404168517,
				"y": 1.8395412789,
				"z": -1.3799329406,
				"element": "C" 
			},
			{
				"x": -4.1755813926,
				"y": 1.895701007,
				"z": -2.0648961474,
				"element": "Br" 
			},
			{
				"x": -2.0648081209,
				"y": 0.8832766027,
				"z": -0.4238602965,
				"element": "C" 
			},
			{
				"x": -0.7639197901,
				"y": 0.857238125,
				"z": 0.0671213769,
				"element": "C" 
			},
			{
				"x": -1.747863041,
				"y": 3.5031169633,
				"z": -2.5845713025,
				"element": "H" 
			},
			{
				"x": -2.8009780017,
				"y": 0.1722906907,
				"z": -0.0690665334,
				"element": "H" 
			},
			{
				"x": -0.4714589977,
				"y": 0.1254139417,
				"z": 0.8107161722,
				"element": "H" 
			}
		],
		 "valence_orbital": [ 
			{
				"type": "occ",
				"energy": -0.31987,
				"method": "rhf"
			},
			{
				"type": "occ",
				"energy": -0.31718,
				"method": "rhf"
			},
			{
				"type": "occ",
				"energy": -0.30715,
				"method": "rhf"
			},
			{
				"type": "occ",
				"energy": -0.28628,
				"method": "rhf"
			},
			{
				"type": "occ",
				"energy": -0.27868,
				"method": "rhf"
			},
			{
				"type": "unocc",
				"energy": -0.09788,
				"method": "rhf"
			},
			{
				"type": "unocc",
				"energy": -0.06434,
				"method": "rhf"
			},
			{
				"type": "unocc",
				"energy": -0.05665,
				"method": "rhf"
			},
			{
				"type": "unocc",
				"energy": -0.03691,
				"method": "rhf"
			},
			{
				"type": "unocc",
				"energy": -0.00258,
				"method": "rhf"
			}
		],
		"cosmo_sigma_profile": { 
			"-0.025": 0.0,
			"-0.024": 0.0,
			"-0.023": 0.0,
			"-0.022": 0.0,
			"-0.021": 0.0,
			"-0.02": 0.0,
			"-0.019": 0.0,
			"-0.018": 0.0,
			"-0.017": 0.0,
			"-0.016": 0.0,
			"-0.015": 0.0,
			"-0.014": 0.0,
			"-0.013": 0.0,
			"-0.012": 0.0,
			"-0.011": 0.0,
			"-0.01": 0.340049122024,
			"-0.009": 4.54353248483,
			"-0.008": 5.49221480871,
			"-0.007": 5.22103219613,
			"-0.006": 7.55907198458,
			"-0.005": 10.1072285446,
			"-0.004": 9.66894569216,
			"-0.003": 14.4599828772,
			"-0.002": 23.8779226939,
			"-0.001": 26.6495579773,
			"0.0": 19.1803384953,
			"0.001": 15.1705993831,
			"0.002": 24.7748157306,
			"0.003": 30.0363745844,
			"0.004": 7.06011484657,
			"0.005": 3.35832742203,
			"0.006": 4.41035861808,
			"0.007": 7.67345730552,
			"0.008": 9.71233549314,
			"0.009": 1.95169665283,
			"0.01": 0.0,
			"0.011": 0.0,
			"0.012": 0.0,
			"0.013": 0.0,
			"0.014": 0.0,
			"0.015": 0.0,
			"0.016": 0.0,
			"0.017": 0.0,
			"0.018": 0.0,
			"0.019": 0.0,
			"0.02": 0.0,
			"0.021": 0.0,
			"0.022": 0.0,
			"0.023": 0.0,
			"0.024": 0.0,
			"0.025": 0.0
		}
	}
}
