{
	 "smiles": "O1C2=CC=C1C1=CC=C(O1)C=C/C1=CC=C(O1)C1=CC=C(O1)C=C/2", 
	 "Tm": 543.15, 
	 "num_atms": 36, 
	 "gaussian": { 
		 "optdone": 1, 
		 "sigma_profile": "yes", 
		 "theory": "DFT", 
		 "functional": "B3LYP", 
		 "basiset": "6-31G**", 
		 "properties": { 
			 "R2extent": 7740.0951, 
			 "electric_dipole_moment_norm": 0.00152970585408, 
			 "electric_quadrupole_moment_norm": 19.6720449336, 
			 "total_energy": -1070.15463964, 
			 "HOMO_LUMO_gap": 0.08063, 
			 "cosmo_polarized_energy": -14.76, 
			 "cosmo_cavitation_energy": 41.09, 
			 "cosmo_dispersion_energy": -29.17, 
			 "cosmo_repulsion_energy": 2.06, 
			 "cosmo_total_nonelectrostatic_energy": 13.97, 
			 "SMD_solvation_energy": 8.09 
		},
		"coords": [
			{
				"x": 0.417577155,
				"y": 1.3819451432,
				"z": 0.3705976231,
				"element": "O" 
			},
			{
				"x": 0.2156330516,
				"y": 2.724120312,
				"z": 0.5608946142,
				"element": "C" 
			},
			{
				"x": 0.9472601695,
				"y": 3.141746472,
				"z": 1.6550667433,
				"element": "C" 
			},
			{
				"x": 1.6276797979,
				"y": 2.007280155,
				"z": 2.1580880369,
				"element": "C" 
			},
			{
				"x": 1.2743206452,
				"y": 0.9549943415,
				"z": 1.3419374862,
				"element": "C" 
			},
			{
				"x": 1.6672032063,
				"y": -0.4274691767,
				"z": 1.386149743,
				"element": "C" 
			},
			{
				"x": 2.5071332734,
				"y": -1.0867086677,
				"z": 2.2568927794,
				"element": "C" 
			},
			{
				"x": 2.5326331467,
				"y": -2.4369112015,
				"z": 1.833422473,
				"element": "C" 
			},
			{
				"x": 1.7089698183,
				"y": -2.5315613192,
				"z": 0.7291001425,
				"element": "C" 
			},
			{
				"x": 1.1787815226,
				"y": -1.2974670433,
				"z": 0.4564500921,
				"element": "O" 
			},
			{
				"x": 1.4146681351,
				"y": -3.700985661,
				"z": -0.049538607,
				"element": "C" 
			},
			{
				"x": 0.6439038317,
				"y": -3.9548309743,
				"z": -1.1391852304,
				"element": "C" 
			},
			{
				"x": -0.2077089709,
				"y": -3.1628264493,
				"z": -1.9805689271,
				"element": "C" 
			},
			{
				"x": -0.9392601033,
				"y": -3.580442833,
				"z": -3.0747961414,
				"element": "C" 
			},
			{
				"x": -1.6199563359,
				"y": -2.4460510738,
				"z": -3.5776120398,
				"element": "C" 
			},
			{
				"x": -1.2665833911,
				"y": -1.3937553393,
				"z": -2.7614833673,
				"element": "C" 
			},
			{
				"x": -0.410111921,
				"y": -1.820773514,
				"z": -1.7899268711,
				"element": "O" 
			},
			{
				"x": -1.6593360636,
				"y": -0.0112593028,
				"z": -2.8057920451,
				"element": "C" 
			},
			{
				"x": -2.4989427119,
				"y": 0.6480697739,
				"z": -3.6767779366,
				"element": "C" 
			},
			{
				"x": -2.5241177399,
				"y": 1.9983541963,
				"z": -3.2535494779,
				"element": "C" 
			},
			{
				"x": -1.7008194686,
				"y": 2.0929005922,
				"z": -2.1489457733,
				"element": "C" 
			},
			{
				"x": -1.171336057,
				"y": 0.8586242471,
				"z": -1.8757614297,
				"element": "O" 
			},
			{
				"x": -1.4064580062,
				"y": 3.2623428458,
				"z": -1.370355726,
				"element": "C" 
			},
			{
				"x": -0.6358080625,
				"y": 3.5161658769,
				"z": -0.2806229936,
				"element": "C" 
			},
			{
				"x": 0.9819359959,
				"y": 4.1507955912,
				"z": 2.0405337538,
				"element": "H" 
			},
			{
				"x": 2.2918519913,
				"y": 1.9613017848,
				"z": 3.0086323548,
				"element": "H" 
			},
			{
				"x": 3.0339378148,
				"y": -0.6483817674,
				"z": 3.091764733,
				"element": "H" 
			},
			{
				"x": 3.0858630655,
				"y": -3.2523806372,
				"z": 2.2771724273,
				"element": "H" 
			},
			{
				"x": 1.9427503528,
				"y": -4.5658651668,
				"z": 0.3454461651,
				"element": "H" 
			},
			{
				"x": 0.6559701377,
				"y": -4.9896575101,
				"z": -1.4736821752,
				"element": "H" 
			},
			{
				"x": -0.9731106928,
				"y": -4.5892790196,
				"z": -3.4608928648,
				"element": "H" 
			},
			{
				"x": -2.2849113803,
				"y": -2.4002856191,
				"z": -4.4275557421,
				"element": "H" 
			},
			{
				"x": -3.026310093,
				"y": 0.209601118,
				"z": -4.5112201475,
				"element": "H" 
			},
			{
				"x": -3.0762791175,
				"y": 2.8141030936,
				"z": -3.6981156558,
				"element": "H" 
			},
			{
				"x": -1.9340426076,
				"y": 4.1273489559,
				"z": -1.7657282356,
				"element": "H" 
			},
			{
				"x": -0.6474803884,
				"y": 4.5510977768,
				"z": 0.0535622199,
				"element": "H" 
			}
		],
		 "valence_orbital": [ 
			{
				"type": "occ",
				"energy": -0.27764,
				"method": "rhf"
			},
			{
				"type": "occ",
				"energy": -0.27305,
				"method": "rhf"
			},
			{
				"type": "occ",
				"energy": -0.21872,
				"method": "rhf"
			},
			{
				"type": "occ",
				"energy": -0.21555,
				"method": "rhf"
			},
			{
				"type": "occ",
				"energy": -0.15434,
				"method": "rhf"
			},
			{
				"type": "unocc",
				"energy": -0.07371,
				"method": "rhf"
			},
			{
				"type": "unocc",
				"energy": -0.02262,
				"method": "rhf"
			},
			{
				"type": "unocc",
				"energy": -0.0091,
				"method": "rhf"
			},
			{
				"type": "unocc",
				"energy": 0.02934,
				"method": "rhf"
			},
			{
				"type": "unocc",
				"energy": 0.06615,
				"method": "rhf"
			}
		],
		"cosmo_sigma_profile": { 
			"-0.025": 0.0,
			"-0.024": 0.0,
			"-0.023": 0.0,
			"-0.022": 0.0,
			"-0.021": 0.0,
			"-0.02": 0.0,
			"-0.019": 0.0,
			"-0.018": 0.0,
			"-0.017": 0.0,
			"-0.016": 0.0,
			"-0.015": 0.0,
			"-0.014": 0.0,
			"-0.013": 0.0,
			"-0.012": 0.0,
			"-0.011": 0.0,
			"-0.01": 0.0,
			"-0.009": 0.0,
			"-0.008": 6.25330172509,
			"-0.007": 23.7869950638,
			"-0.006": 25.8774775835,
			"-0.005": 18.4479384322,
			"-0.004": 16.1483467064,
			"-0.003": 15.723968463,
			"-0.002": 13.8731084983,
			"-0.001": 13.9600214001,
			"0.0": 15.9012475554,
			"0.001": 27.892090585,
			"0.002": 39.8402428568,
			"0.003": 48.028089259,
			"0.004": 35.5421785918,
			"0.005": 13.2390658497,
			"0.006": 3.1420077843,
			"0.007": 3.37505189249,
			"0.008": 2.74157934779,
			"0.009": 1.94396706455,
			"0.01": 2.67539886382,
			"0.011": 2.36529240342,
			"0.012": 1.81164091154,
			"0.013": 0.244459668068,
			"0.014": 0.0,
			"0.015": 0.0,
			"0.016": 0.0,
			"0.017": 0.0,
			"0.018": 0.0,
			"0.019": 0.0,
			"0.02": 0.0,
			"0.021": 0.0,
			"0.022": 0.0,
			"0.023": 0.0,
			"0.024": 0.0,
			"0.025": 0.0
		}
	}
}
