{
	 "smiles": "COC(=O)C1=C(CC(C)C)C(C2=NCCS2)=C(N=C1C(F)F)C(F)(F)F", 
	 "Tm": 351.15, 
	 "num_atms": 43, 
	 "gaussian": { 
		 "optdone": 1, 
		 "sigma_profile": "yes", 
		 "theory": "DFT", 
		 "functional": "B3LYP", 
		 "basiset": "6-31G**", 
		 "properties": { 
			 "R2extent": 11490.9227, 
			 "electric_dipole_moment_norm": 5.01276373271, 
			 "electric_quadrupole_moment_norm": 18.1211208127, 
			 "total_energy": -1777.28170006, 
			 "HOMO_LUMO_gap": 0.17525, 
			 "cosmo_polarized_energy": -14.24, 
			 "cosmo_cavitation_energy": 48.68, 
			 "cosmo_dispersion_energy": -31.18, 
			 "cosmo_repulsion_energy": 2.27, 
			 "cosmo_total_nonelectrostatic_energy": 19.77, 
			 "SMD_solvation_energy": 6.64 
		},
		"coords": [
			{
				"x": -0.1645590826,
				"y": 5.1715350078,
				"z": 0.129132209,
				"element": "C" 
			},
			{
				"x": -0.1914340347,
				"y": 3.8794393345,
				"z": 0.76832302,
				"element": "O" 
			},
			{
				"x": -1.3250653489,
				"y": 3.1783236588,
				"z": 0.5894199019,
				"element": "C" 
			},
			{
				"x": -2.2553880826,
				"y": 3.54093863,
				"z": -0.0937922051,
				"element": "O" 
			},
			{
				"x": -1.2866687973,
				"y": 1.8782058209,
				"z": 1.3555871367,
				"element": "C" 
			},
			{
				"x": -0.4841371936,
				"y": 0.7984707409,
				"z": 0.9397988903,
				"element": "C" 
			},
			{
				"x": 0.3468440707,
				"y": 0.9131373614,
				"z": -0.3227588781,
				"element": "C" 
			},
			{
				"x": -0.4630654185,
				"y": 0.9263177996,
				"z": -1.6501645844,
				"element": "C" 
			},
			{
				"x": -1.2582762666,
				"y": -0.3665352399,
				"z": -1.8709400008,
				"element": "C" 
			},
			{
				"x": 0.494220629,
				"y": 1.1895354392,
				"z": -2.8217233987,
				"element": "C" 
			},
			{
				"x": -0.494628077,
				"y": -0.3680579101,
				"z": 1.7421009331,
				"element": "C" 
			},
			{
				"x": 0.3803838504,
				"y": -1.5308430168,
				"z": 1.3970063908,
				"element": "C" 
			},
			{
				"x": 1.6461600751,
				"y": -1.4830815426,
				"z": 1.5122011112,
				"element": "N" 
			},
			{
				"x": 2.2827414948,
				"y": -2.7606013162,
				"z": 1.1996901531,
				"element": "C" 
			},
			{
				"x": 1.3324234732,
				"y": -3.6508406626,
				"z": 0.361558493,
				"element": "C" 
			},
			{
				"x": -0.3573669622,
				"y": -3.0526141376,
				"z": 0.7691561814,
				"element": "S" 
			},
			{
				"x": -1.3041855387,
				"y": -0.3768049933,
				"z": 2.8922745039,
				"element": "C" 
			},
			{
				"x": -2.0773511368,
				"y": 0.6437267379,
				"z": 3.2541328996,
				"element": "N" 
			},
			{
				"x": -2.0728325019,
				"y": 1.7441782884,
				"z": 2.5061264285,
				"element": "C" 
			},
			{
				"x": -2.9911518983,
				"y": 2.8374509704,
				"z": 3.0142396944,
				"element": "C" 
			},
			{
				"x": -4.1157944494,
				"y": 2.9088457493,
				"z": 2.2493431274,
				"element": "F" 
			},
			{
				"x": -2.3659865991,
				"y": 4.0560639656,
				"z": 2.9421087365,
				"element": "F" 
			},
			{
				"x": -1.3970436992,
				"y": -1.5754493353,
				"z": 3.833667891,
				"element": "C" 
			},
			{
				"x": -0.2002525768,
				"y": -2.177798499,
				"z": 4.0032804319,
				"element": "F" 
			},
			{
				"x": -1.8415252972,
				"y": -1.2167364065,
				"z": 5.0433424739,
				"element": "F" 
			},
			{
				"x": -2.2511650476,
				"y": -2.4998846501,
				"z": 3.3394360086,
				"element": "F" 
			},
			{
				"x": -0.2850465922,
				"y": 5.0685155819,
				"z": -0.9517692877,
				"element": "H" 
			},
			{
				"x": -0.968551038,
				"y": 5.798547967,
				"z": 0.5207030108,
				"element": "H" 
			},
			{
				"x": 0.8090535791,
				"y": 5.5956091596,
				"z": 0.3715939358,
				"element": "H" 
			},
			{
				"x": 1.0768618731,
				"y": 0.1028360516,
				"z": -0.3552187427,
				"element": "H" 
			},
			{
				"x": 0.9210295741,
				"y": 1.8436700866,
				"z": -0.2581776985,
				"element": "H" 
			},
			{
				"x": -1.180378249,
				"y": 1.7540679514,
				"z": -1.6085423016,
				"element": "H" 
			},
			{
				"x": -1.9744831913,
				"y": -0.5496134557,
				"z": -1.0642475571,
				"element": "H" 
			},
			{
				"x": -1.8235065362,
				"y": -0.312504883,
				"z": -2.8072472985,
				"element": "H" 
			},
			{
				"x": -0.5961003269,
				"y": -1.2378429822,
				"z": -1.9286573555,
				"element": "H" 
			},
			{
				"x": 1.2369568232,
				"y": 0.3873538994,
				"z": -2.9113295732,
				"element": "H" 
			},
			{
				"x": 1.0367360206,
				"y": 2.1330728653,
				"z": -2.6962038357,
				"element": "H" 
			},
			{
				"x": -0.0536168682,
				"y": 1.2412482011,
				"z": -3.7682138643,
				"element": "H" 
			},
			{
				"x": 3.2265980849,
				"y": -2.5866138285,
				"z": 0.6738395171,
				"element": "H" 
			},
			{
				"x": 2.5262627591,
				"y": -3.244379892,
				"z": 2.1552536397,
				"element": "H" 
			},
			{
				"x": 1.4178927122,
				"y": -4.70784782,
				"z": 0.6187338937,
				"element": "H" 
			},
			{
				"x": 1.4999654894,
				"y": -3.5320357349,
				"z": -0.7124454726,
				"element": "H" 
			},
			{
				"x": -3.2752696982,
				"y": 2.6440950377,
				"z": 4.0526814411,
				"element": "H" 
			}
		],
		 "valence_orbital": [ 
			{
				"type": "occ",
				"energy": -0.29453,
				"method": "rhf"
			},
			{
				"type": "occ",
				"energy": -0.2865,
				"method": "rhf"
			},
			{
				"type": "occ",
				"energy": -0.27691,
				"method": "rhf"
			},
			{
				"type": "occ",
				"energy": -0.27617,
				"method": "rhf"
			},
			{
				"type": "occ",
				"energy": -0.2391,
				"method": "rhf"
			},
			{
				"type": "unocc",
				"energy": -0.06385,
				"method": "rhf"
			},
			{
				"type": "unocc",
				"energy": -0.05673,
				"method": "rhf"
			},
			{
				"type": "unocc",
				"energy": -0.02076,
				"method": "rhf"
			},
			{
				"type": "unocc",
				"energy": -0.00069,
				"method": "rhf"
			},
			{
				"type": "unocc",
				"energy": 0.00615,
				"method": "rhf"
			}
		],
		"cosmo_sigma_profile": { 
			"-0.025": 0.0,
			"-0.024": 0.0,
			"-0.023": 0.0,
			"-0.022": 0.0,
			"-0.021": 0.0,
			"-0.02": 0.0,
			"-0.019": 0.0,
			"-0.018": 0.0,
			"-0.017": 0.0,
			"-0.016": 0.0,
			"-0.015": 0.0,
			"-0.014": 0.0,
			"-0.013": 0.0,
			"-0.012": 0.0,
			"-0.011": 0.0,
			"-0.01": 0.715885243021,
			"-0.009": 1.92170185418,
			"-0.008": 1.88223288624,
			"-0.007": 5.90709966163,
			"-0.006": 15.5150147483,
			"-0.005": 22.5442200362,
			"-0.004": 32.0830781141,
			"-0.003": 41.029206074,
			"-0.002": 34.7111593498,
			"-0.001": 32.2721889187,
			"0.0": 29.9315365366,
			"0.001": 31.1189470206,
			"0.002": 35.5561357131,
			"0.003": 29.9672781881,
			"0.004": 24.7268037623,
			"0.005": 12.1424514355,
			"0.006": 8.45464902896,
			"0.007": 7.07234256052,
			"0.008": 3.65039144844,
			"0.009": 3.9731128515,
			"0.01": 5.27899581287,
			"0.011": 3.9067011753,
			"0.012": 0.988213763549,
			"0.013": 0.750986415442,
			"0.014": 0.664648671975,
			"0.015": 0.175147770032,
			"0.016": 0.0,
			"0.017": 0.0,
			"0.018": 0.0,
			"0.019": 0.0,
			"0.02": 0.0,
			"0.021": 0.0,
			"0.022": 0.0,
			"0.023": 0.0,
			"0.024": 0.0,
			"0.025": 0.0
		}
	}
}
