{
	 "smiles": "CN1CC(=O)N(C1=O)C1=CC(=CC=C1)[N+]([O-])=O", 
	 "Tm": 418.15, 
	 "num_atms": 26, 
	 "gaussian": { 
		 "optdone": 1, 
		 "sigma_profile": "yes", 
		 "theory": "DFT", 
		 "functional": "B3LYP", 
		 "basiset": "6-31G**", 
		 "properties": { 
			 "R2extent": 4904.7906, 
			 "electric_dipole_moment_norm": 6.44268148522, 
			 "electric_quadrupole_moment_norm": 19.0312853166, 
			 "total_energy": -851.571787605, 
			 "HOMO_LUMO_gap": 0.16827, 
			 "cosmo_polarized_energy": -17.06, 
			 "cosmo_cavitation_energy": 31.33, 
			 "cosmo_dispersion_energy": -22.78, 
			 "cosmo_repulsion_energy": 1.75, 
			 "cosmo_total_nonelectrostatic_energy": 10.3, 
			 "SMD_solvation_energy": 8.9 
		},
		"coords": [
			{
				"x": 3.339908503,
				"y": -2.0400363907,
				"z": -1.9011178377,
				"element": "C" 
			},
			{
				"x": 1.9699136145,
				"y": -1.5767105521,
				"z": -1.826654824,
				"element": "N" 
			},
			{
				"x": 0.8332244977,
				"y": -2.3013114,
				"z": -2.344795835,
				"element": "C" 
			},
			{
				"x": -0.3408675383,
				"y": -1.3726896802,
				"z": -2.048275099,
				"element": "C" 
			},
			{
				"x": -1.5043957853,
				"y": -1.5768346887,
				"z": -2.3217296872,
				"element": "O" 
			},
			{
				"x": 0.1978841593,
				"y": -0.2574949269,
				"z": -1.4091766532,
				"element": "N" 
			},
			{
				"x": 1.6230528671,
				"y": -0.3716629203,
				"z": -1.2827866812,
				"element": "C" 
			},
			{
				"x": 2.3581829606,
				"y": 0.4573223034,
				"z": -0.7853941609,
				"element": "O" 
			},
			{
				"x": -0.5487542883,
				"y": 0.8584770469,
				"z": -0.9346582997,
				"element": "C" 
			},
			{
				"x": -0.1436644319,
				"y": 1.5257023241,
				"z": 0.2254333696,
				"element": "C" 
			},
			{
				"x": -0.9005795764,
				"y": 2.6094668126,
				"z": 0.6581329836,
				"element": "C" 
			},
			{
				"x": -2.0444900567,
				"y": 3.0470252314,
				"z": -0.0046192668,
				"element": "C" 
			},
			{
				"x": -2.4355990348,
				"y": 2.3618563362,
				"z": -1.1518393081,
				"element": "C" 
			},
			{
				"x": -1.6959352217,
				"y": 1.2775707127,
				"z": -1.6244572105,
				"element": "C" 
			},
			{
				"x": -0.475329799,
				"y": 3.3151836484,
				"z": 1.8812137743,
				"element": "N" 
			},
			{
				"x": 0.5157018946,
				"y": 2.8906504654,
				"z": 2.4720802178,
				"element": "O" 
			},
			{
				"x": -1.143238998,
				"y": 4.2854843526,
				"z": 2.2373920054,
				"element": "O" 
			},
			{
				"x": 3.9731988129,
				"y": -1.2832677006,
				"z": -1.4370315848,
				"element": "H" 
			},
			{
				"x": 3.6514567438,
				"y": -2.1804319785,
				"z": -2.94298052,
				"element": "H" 
			},
			{
				"x": 3.4615451452,
				"y": -2.9891073758,
				"z": -1.3662255028,
				"element": "H" 
			},
			{
				"x": 0.9008045152,
				"y": -2.4846093477,
				"z": -3.4253070235,
				"element": "H" 
			},
			{
				"x": 0.6779408244,
				"y": -3.2671195426,
				"z": -1.8463102355,
				"element": "H" 
			},
			{
				"x": 0.7418426466,
				"y": 1.2351153659,
				"z": 0.7707956485,
				"element": "H" 
			},
			{
				"x": -2.5961394613,
				"y": 3.8949583715,
				"z": 0.3800294251,
				"element": "H" 
			},
			{
				"x": -3.3238067439,
				"y": 2.6753954771,
				"z": -1.6905865089,
				"element": "H" 
			},
			{
				"x": -2.0130562495,
				"y": 0.7457680558,
				"z": -2.5113311856,
				"element": "H" 
			}
		],
		 "valence_orbital": [ 
			{
				"type": "occ",
				"energy": -0.28832,
				"method": "rhf"
			},
			{
				"type": "occ",
				"energy": -0.28114,
				"method": "rhf"
			},
			{
				"type": "occ",
				"energy": -0.27946,
				"method": "rhf"
			},
			{
				"type": "occ",
				"energy": -0.27464,
				"method": "rhf"
			},
			{
				"type": "occ",
				"energy": -0.25463,
				"method": "rhf"
			},
			{
				"type": "unocc",
				"energy": -0.08636,
				"method": "rhf"
			},
			{
				"type": "unocc",
				"energy": -0.03902,
				"method": "rhf"
			},
			{
				"type": "unocc",
				"energy": -0.02064,
				"method": "rhf"
			},
			{
				"type": "unocc",
				"energy": 0.00131,
				"method": "rhf"
			},
			{
				"type": "unocc",
				"energy": 0.05213,
				"method": "rhf"
			}
		],
		"cosmo_sigma_profile": { 
			"-0.025": 0.0,
			"-0.024": 0.0,
			"-0.023": 0.0,
			"-0.022": 0.0,
			"-0.021": 0.0,
			"-0.02": 0.0,
			"-0.019": 0.0,
			"-0.018": 0.0,
			"-0.017": 0.0,
			"-0.016": 0.0,
			"-0.015": 0.0,
			"-0.014": 0.0,
			"-0.013": 0.0,
			"-0.012": 0.0,
			"-0.011": 0.0,
			"-0.01": 0.0,
			"-0.009": 1.21181103305,
			"-0.008": 9.11606483163,
			"-0.007": 13.7093617729,
			"-0.006": 20.8704378494,
			"-0.005": 20.499444566,
			"-0.004": 17.8624881809,
			"-0.003": 19.7618056167,
			"-0.002": 17.1347969322,
			"-0.001": 15.7070577646,
			"0.0": 16.619066836,
			"0.001": 14.7430644528,
			"0.002": 10.6972770259,
			"0.003": 6.00071323709,
			"0.004": 5.99261927285,
			"0.005": 6.87055464349,
			"0.006": 6.69933427493,
			"0.007": 12.1270273773,
			"0.008": 9.37319177157,
			"0.009": 7.23995019444,
			"0.01": 7.00240620411,
			"0.011": 6.14810497789,
			"0.012": 5.66726143874,
			"0.013": 0.296338608492,
			"0.014": 0.0,
			"0.015": 0.0,
			"0.016": 0.0,
			"0.017": 0.0,
			"0.018": 0.0,
			"0.019": 0.0,
			"0.02": 0.0,
			"0.021": 0.0,
			"0.022": 0.0,
			"0.023": 0.0,
			"0.024": 0.0,
			"0.025": 0.0
		}
	}
}
