{
	 "smiles": "CC1=CC(=CC(C)=C1)C(C)(C)C", 
	 "Tm": 253.15, 
	 "num_atms": 30, 
	 "gaussian": { 
		 "optdone": 1, 
		 "sigma_profile": "yes", 
		 "theory": "DFT", 
		 "functional": "B3LYP", 
		 "basiset": "6-31G**", 
		 "properties": { 
			 "R2extent": 2925.5346, 
			 "electric_dipole_moment_norm": 0.0585932589979, 
			 "electric_quadrupole_moment_norm": 3.61430651578, 
			 "total_energy": -468.155632902, 
			 "HOMO_LUMO_gap": 0.23542, 
			 "cosmo_polarized_energy": -3.28, 
			 "cosmo_cavitation_energy": 30.68, 
			 "cosmo_dispersion_energy": -21.59, 
			 "cosmo_repulsion_energy": 1.73, 
			 "cosmo_total_nonelectrostatic_energy": 10.82, 
			 "SMD_solvation_energy": 5.49 
		},
		"coords": [
			{
				"x": 3.5899386561,
				"y": 1.9884028823,
				"z": -1.1084730825,
				"element": "C" 
			},
			{
				"x": 2.3898676781,
				"y": 1.7726916869,
				"z": -0.2149566411,
				"element": "C" 
			},
			{
				"x": 1.4670774255,
				"y": 0.7613547327,
				"z": -0.4797203268,
				"element": "C" 
			},
			{
				"x": 0.3429291534,
				"y": 0.5418655017,
				"z": 0.3382869605,
				"element": "C" 
			},
			{
				"x": 0.1732690371,
				"y": 1.3798577694,
				"z": 1.4430464542,
				"element": "C" 
			},
			{
				"x": 1.083330356,
				"y": 2.408621732,
				"z": 1.739646947,
				"element": "C" 
			},
			{
				"x": 0.8609895259,
				"y": 3.291650117,
				"z": 2.9465140576,
				"element": "C" 
			},
			{
				"x": 2.1835591549,
				"y": 2.5931118816,
				"z": 0.9046623384,
				"element": "C" 
			},
			{
				"x": -0.6406051352,
				"y": -0.5925035438,
				"z": -0.0077850951,
				"element": "C" 
			},
			{
				"x": 0.1093554829,
				"y": -1.9459956702,
				"z": 0.0028746728,
				"element": "C" 
			},
			{
				"x": -1.2347228253,
				"y": -0.3480554826,
				"z": -1.4155374118,
				"element": "C" 
			},
			{
				"x": -1.807586917,
				"y": -0.6851609656,
				"z": 0.9935305321,
				"element": "C" 
			},
			{
				"x": 4.5278369049,
				"y": 1.8743867551,
				"z": -0.5522198693,
				"element": "H" 
			},
			{
				"x": 3.6055956255,
				"y": 1.2751145607,
				"z": -1.9373189096,
				"element": "H" 
			},
			{
				"x": 3.5931600705,
				"y": 2.9977686004,
				"z": -1.5364282768,
				"element": "H" 
			},
			{
				"x": 1.6311377766,
				"y": 0.1286162241,
				"z": -1.3480764559,
				"element": "H" 
			},
			{
				"x": -0.6790532323,
				"y": 1.2475555604,
				"z": 2.1013626714,
				"element": "H" 
			},
			{
				"x": 1.6462068963,
				"y": 4.0471266921,
				"z": 3.0396170645,
				"element": "H" 
			},
			{
				"x": 0.8495936202,
				"y": 2.7062106467,
				"z": 3.873472166,
				"element": "H" 
			},
			{
				"x": -0.1006016112,
				"y": 3.8149397014,
				"z": 2.8873629919,
				"element": "H" 
			},
			{
				"x": 2.8951488246,
				"y": 3.3868760329,
				"z": 1.1242494331,
				"element": "H" 
			},
			{
				"x": 0.5344667715,
				"y": -2.1493858057,
				"z": 0.9913017999,
				"element": "H" 
			},
			{
				"x": 0.9285502581,
				"y": -1.9635370768,
				"z": -0.7218774305,
				"element": "H" 
			},
			{
				"x": -0.5753674053,
				"y": -2.7643994674,
				"z": -0.2478200305,
				"element": "H" 
			},
			{
				"x": -1.7790937415,
				"y": 0.6014310439,
				"z": -1.4504399231,
				"element": "H" 
			},
			{
				"x": -1.9330329167,
				"y": -1.1503802625,
				"z": -1.6803462979,
				"element": "H" 
			},
			{
				"x": -0.4581914587,
				"y": -0.3150833422,
				"z": -2.1853170912,
				"element": "H" 
			},
			{
				"x": -2.4763627256,
				"y": -1.5031113375,
				"z": 0.7059198441,
				"element": "H" 
			},
			{
				"x": -1.4568180078,
				"y": -0.8881239135,
				"z": 2.0107351396,
				"element": "H" 
			},
			{
				"x": -2.4012772414,
				"y": 0.2346547465,
				"z": 1.0137337688,
				"element": "H" 
			}
		],
		 "valence_orbital": [ 
			{
				"type": "occ",
				"energy": -0.31776,
				"method": "rhf"
			},
			{
				"type": "occ",
				"energy": -0.31062,
				"method": "rhf"
			},
			{
				"type": "occ",
				"energy": -0.30725,
				"method": "rhf"
			},
			{
				"type": "occ",
				"energy": -0.228,
				"method": "rhf"
			},
			{
				"type": "occ",
				"energy": -0.22628,
				"method": "rhf"
			},
			{
				"type": "unocc",
				"energy": 0.00914,
				"method": "rhf"
			},
			{
				"type": "unocc",
				"energy": 0.0104,
				"method": "rhf"
			},
			{
				"type": "unocc",
				"energy": 0.08509,
				"method": "rhf"
			},
			{
				"type": "unocc",
				"energy": 0.10983,
				"method": "rhf"
			},
			{
				"type": "unocc",
				"energy": 0.12231,
				"method": "rhf"
			}
		],
		"cosmo_sigma_profile": { 
			"-0.025": 0.0,
			"-0.024": 0.0,
			"-0.023": 0.0,
			"-0.022": 0.0,
			"-0.021": 0.0,
			"-0.02": 0.0,
			"-0.019": 0.0,
			"-0.018": 0.0,
			"-0.017": 0.0,
			"-0.016": 0.0,
			"-0.015": 0.0,
			"-0.014": 0.0,
			"-0.013": 0.0,
			"-0.012": 0.0,
			"-0.011": 0.0,
			"-0.01": 0.0,
			"-0.009": 0.0,
			"-0.008": 0.0,
			"-0.007": 0.0,
			"-0.006": 0.0,
			"-0.005": 0.85201950815,
			"-0.004": 13.9324387804,
			"-0.003": 27.0549922572,
			"-0.002": 38.868020391,
			"-0.001": 34.1104896698,
			"0.0": 34.258882386,
			"0.001": 34.26669908,
			"0.002": 20.1842746835,
			"0.003": 7.58107033761,
			"0.004": 7.0135557048,
			"0.005": 6.12219522241,
			"0.006": 6.6994031903,
			"0.007": 5.90767385338,
			"0.008": 1.73865898056,
			"0.009": 0.0,
			"0.01": 0.0,
			"0.011": 0.0,
			"0.012": 0.0,
			"0.013": 0.0,
			"0.014": 0.0,
			"0.015": 0.0,
			"0.016": 0.0,
			"0.017": 0.0,
			"0.018": 0.0,
			"0.019": 0.0,
			"0.02": 0.0,
			"0.021": 0.0,
			"0.022": 0.0,
			"0.023": 0.0,
			"0.024": 0.0,
			"0.025": 0.0
		}
	}
}
