{
	 "smiles": "CCOC(=O)NC1CCC(O)CC1", 
	 "Tm": 406.15, 
	 "num_atms": 30, 
	 "gaussian": { 
		 "optdone": 1, 
		 "sigma_profile": "yes", 
		 "theory": "DFT", 
		 "functional": "B3LYP", 
		 "basiset": "6-31G**", 
		 "properties": { 
			 "R2extent": 4781.8332, 
			 "electric_dipole_moment_norm": 1.18668649188, 
			 "electric_quadrupole_moment_norm": 21.3015390587, 
			 "total_energy": -633.650858351, 
			 "HOMO_LUMO_gap": 0.30307, 
			 "cosmo_polarized_energy": -13.46, 
			 "cosmo_cavitation_energy": 31.07, 
			 "cosmo_dispersion_energy": -22.3, 
			 "cosmo_repulsion_energy": 1.82, 
			 "cosmo_total_nonelectrostatic_energy": 10.59, 
			 "SMD_solvation_energy": 5.35 
		},
		"coords": [
			{
				"x": 2.4655551232,
				"y": -4.5563805743,
				"z": -3.5626679421,
				"element": "C" 
			},
			{
				"x": 2.5706730947,
				"y": -4.1465634158,
				"z": -2.1015666941,
				"element": "C" 
			},
			{
				"x": 1.9284015615,
				"y": -2.8751004617,
				"z": -1.8591862879,
				"element": "O" 
			},
			{
				"x": 2.687123955,
				"y": -1.7752328337,
				"z": -2.1254487865,
				"element": "C" 
			},
			{
				"x": 3.8470953441,
				"y": -1.809661732,
				"z": -2.4992938796,
				"element": "O" 
			},
			{
				"x": 1.9743606896,
				"y": -0.6246479614,
				"z": -1.9368935609,
				"element": "N" 
			},
			{
				"x": 0.6514164259,
				"y": -0.5142636825,
				"z": -1.3289556389,
				"element": "C" 
			},
			{
				"x": 0.702608315,
				"y": -0.555902129,
				"z": 0.2242779024,
				"element": "C" 
			},
			{
				"x": -0.4811945437,
				"y": 0.1869196803,
				"z": 0.892455701,
				"element": "C" 
			},
			{
				"x": -1.7581940183,
				"y": 0.1229027327,
				"z": 0.0470347027,
				"element": "C" 
			},
			{
				"x": -2.2532396525,
				"y": -1.2147740717,
				"z": -0.0636165427,
				"element": "O" 
			},
			{
				"x": -1.5292608926,
				"y": 0.784574261,
				"z": -1.3386736108,
				"element": "C" 
			},
			{
				"x": -0.0575044434,
				"y": 0.7587413709,
				"z": -1.8079306561,
				"element": "C" 
			},
			{
				"x": 3.0163490832,
				"y": -3.8547694608,
				"z": -4.1936995697,
				"element": "H" 
			},
			{
				"x": 2.8947200153,
				"y": -5.5544256253,
				"z": -3.7019449745,
				"element": "H" 
			},
			{
				"x": 1.4208873741,
				"y": -4.5835255675,
				"z": -3.8872368651,
				"element": "H" 
			},
			{
				"x": 3.6148141517,
				"y": -4.0787882159,
				"z": -1.7877536229,
				"element": "H" 
			},
			{
				"x": 2.0404306674,
				"y": -4.8461868204,
				"z": -1.4501901236,
				"element": "H" 
			},
			{
				"x": 2.539665046,
				"y": 0.2095199428,
				"z": -2.0109343142,
				"element": "H" 
			},
			{
				"x": 0.0849794469,
				"y": -1.3751917446,
				"z": -1.6994655958,
				"element": "H" 
			},
			{
				"x": 1.6439330983,
				"y": -0.0993384755,
				"z": 0.5496224992,
				"element": "H" 
			},
			{
				"x": 0.7461815765,
				"y": -1.6005750905,
				"z": 0.5501095195,
				"element": "H" 
			},
			{
				"x": -0.6755295399,
				"y": -0.224469887,
				"z": 1.8879407409,
				"element": "H" 
			},
			{
				"x": -0.2202395087,
				"y": 1.2434487885,
				"z": 1.0327148199,
				"element": "H" 
			},
			{
				"x": -2.5636469169,
				"y": 0.6542780546,
				"z": 0.5641088192,
				"element": "H" 
			},
			{
				"x": -1.5477953301,
				"y": -1.7792764682,
				"z": -0.4040384911,
				"element": "H" 
			},
			{
				"x": -2.1682390567,
				"y": 0.2574611717,
				"z": -2.0552128567,
				"element": "H" 
			},
			{
				"x": -1.8787529731,
				"y": 1.8229803467,
				"z": -1.3130005526,
				"element": "H" 
			},
			{
				"x": 0.4805644657,
				"y": 1.6317195846,
				"z": -1.411375746,
				"element": "H" 
			},
			{
				"x": -0.0022625581,
				"y": 0.826328284,
				"z": -2.8992783931,
				"element": "H" 
			}
		],
		 "valence_orbital": [ 
			{
				"type": "occ",
				"energy": -0.30767,
				"method": "rhf"
			},
			{
				"type": "occ",
				"energy": -0.29016,
				"method": "rhf"
			},
			{
				"type": "occ",
				"energy": -0.26617,
				"method": "rhf"
			},
			{
				"type": "occ",
				"energy": -0.26396,
				"method": "rhf"
			},
			{
				"type": "occ",
				"energy": -0.24851,
				"method": "rhf"
			},
			{
				"type": "unocc",
				"energy": 0.05456,
				"method": "rhf"
			},
			{
				"type": "unocc",
				"energy": 0.0598,
				"method": "rhf"
			},
			{
				"type": "unocc",
				"energy": 0.0808,
				"method": "rhf"
			},
			{
				"type": "unocc",
				"energy": 0.0918,
				"method": "rhf"
			},
			{
				"type": "unocc",
				"energy": 0.10667,
				"method": "rhf"
			}
		],
		"cosmo_sigma_profile": { 
			"-0.025": 0.0,
			"-0.024": 0.0,
			"-0.023": 0.0,
			"-0.022": 0.0,
			"-0.021": 0.0,
			"-0.02": 0.0,
			"-0.019": 0.0,
			"-0.018": 0.0,
			"-0.017": 0.0,
			"-0.016": 0.0,
			"-0.015": 0.0,
			"-0.014": 0.197391935418,
			"-0.013": 1.47360188059,
			"-0.012": 1.89344097951,
			"-0.011": 2.37316839082,
			"-0.01": 1.62914619266,
			"-0.009": 1.5394326477,
			"-0.008": 2.30250773766,
			"-0.007": 2.59166251014,
			"-0.006": 3.35353467324,
			"-0.005": 5.9906602801,
			"-0.004": 16.3990384487,
			"-0.003": 34.8848468237,
			"-0.002": 34.5939608972,
			"-0.001": 27.1439728309,
			"0.0": 29.5162763503,
			"0.001": 15.0693211448,
			"0.002": 7.29783815606,
			"0.003": 7.27361449011,
			"0.004": 6.45987225592,
			"0.005": 5.51050519855,
			"0.006": 3.96139487986,
			"0.007": 2.74167484277,
			"0.008": 2.68588653529,
			"0.009": 2.34316880626,
			"0.01": 2.12594105228,
			"0.011": 2.38615094124,
			"0.012": 3.36805219022,
			"0.013": 5.28885035457,
			"0.014": 6.05599248727,
			"0.015": 1.68611962526,
			"0.016": 0.0,
			"0.017": 0.0,
			"0.018": 0.0,
			"0.019": 0.0,
			"0.02": 0.0,
			"0.021": 0.0,
			"0.022": 0.0,
			"0.023": 0.0,
			"0.024": 0.0,
			"0.025": 0.0
		}
	}
}
