{
	 "smiles": "CC1=NN2CC(CNC2=C1)C(F)(F)F", 
	 "Tm": 468.15, 
	 "num_atms": 24, 
	 "gaussian": { 
		 "optdone": 1, 
		 "sigma_profile": "yes", 
		 "theory": "DFT", 
		 "functional": "B3LYP", 
		 "basiset": "6-31G**", 
		 "properties": { 
			 "R2extent": 3268.7084, 
			 "electric_dipole_moment_norm": 3.81647135847, 
			 "electric_quadrupole_moment_norm": 10.3097772876, 
			 "total_energy": -774.643939113, 
			 "HOMO_LUMO_gap": 0.23283, 
			 "cosmo_polarized_energy": -13.29, 
			 "cosmo_cavitation_energy": 27.6, 
			 "cosmo_dispersion_energy": -20.03, 
			 "cosmo_repulsion_energy": 1.52, 
			 "cosmo_total_nonelectrostatic_energy": 9.09, 
			 "SMD_solvation_energy": 3.7 
		},
		"coords": [
			{
				"x": -2.3751496401,
				"y": 2.0635817377,
				"z": 3.6031416653,
				"element": "C" 
			},
			{
				"x": -1.6149187277,
				"y": 1.3598454911,
				"z": 2.5203210803,
				"element": "C" 
			},
			{
				"x": -1.4882541627,
				"y": 0.0345071868,
				"z": 2.5460294902,
				"element": "N" 
			},
			{
				"x": -0.741626709,
				"y": -0.2587871963,
				"z": 1.4391850428,
				"element": "N" 
			},
			{
				"x": -0.4521787152,
				"y": -1.6322991746,
				"z": 1.0800333153,
				"element": "C" 
			},
			{
				"x": 0.6189997496,
				"y": -1.6789427624,
				"z": -0.0274963341,
				"element": "C" 
			},
			{
				"x": 0.388771987,
				"y": -0.5610401942,
				"z": -1.0599854811,
				"element": "C" 
			},
			{
				"x": 0.3909814441,
				"y": 0.7417414782,
				"z": -0.4034258691,
				"element": "N" 
			},
			{
				"x": -0.4138393158,
				"y": 0.8531789223,
				"z": 0.7261784059,
				"element": "C" 
			},
			{
				"x": -0.9621242743,
				"y": 1.9341659615,
				"z": 1.3973416069,
				"element": "C" 
			},
			{
				"x": 2.0320363211,
				"y": -1.6782756595,
				"z": 0.5489632318,
				"element": "C" 
			},
			{
				"x": 2.2473668388,
				"y": -2.8217917045,
				"z": 1.244276304,
				"element": "F" 
			},
			{
				"x": 2.9575502481,
				"y": -1.6324200167,
				"z": -0.4370370623,
				"element": "F" 
			},
			{
				"x": 2.2717154423,
				"y": -0.6550661681,
				"z": 1.3850758022,
				"element": "F" 
			},
			{
				"x": -2.7704563112,
				"y": 1.3323464655,
				"z": 4.3117477176,
				"element": "H" 
			},
			{
				"x": -3.2135849449,
				"y": 2.6396974291,
				"z": 3.195255067,
				"element": "H" 
			},
			{
				"x": -1.7351549814,
				"y": 2.7645002112,
				"z": 4.151213851,
				"element": "H" 
			},
			{
				"x": -1.3659614236,
				"y": -2.1223350029,
				"z": 0.7224126228,
				"element": "H" 
			},
			{
				"x": -0.119783788,
				"y": -2.1699347276,
				"z": 1.9719713283,
				"element": "H" 
			},
			{
				"x": 0.5309682535,
				"y": -2.6386693959,
				"z": -0.546287387,
				"element": "H" 
			},
			{
				"x": 1.1848487631,
				"y": -0.5790410906,
				"z": -1.8077207024,
				"element": "H" 
			},
			{
				"x": -0.5631009177,
				"y": -0.7772671937,
				"z": -1.5738062674,
				"element": "H" 
			},
			{
				"x": 0.3120212074,
				"y": 1.527367247,
				"z": -1.0345812349,
				"element": "H" 
			},
			{
				"x": -0.8859263435,
				"y": 2.9776381564,
				"z": 1.1293938068,
				"element": "H" 
			}
		],
		 "valence_orbital": [ 
			{
				"type": "occ",
				"energy": -0.3556,
				"method": "rhf"
			},
			{
				"type": "occ",
				"energy": -0.30139,
				"method": "rhf"
			},
			{
				"type": "occ",
				"energy": -0.27178,
				"method": "rhf"
			},
			{
				"type": "occ",
				"energy": -0.22697,
				"method": "rhf"
			},
			{
				"type": "occ",
				"energy": -0.1962,
				"method": "rhf"
			},
			{
				"type": "unocc",
				"energy": 0.03663,
				"method": "rhf"
			},
			{
				"type": "unocc",
				"energy": 0.06455,
				"method": "rhf"
			},
			{
				"type": "unocc",
				"energy": 0.07856,
				"method": "rhf"
			},
			{
				"type": "unocc",
				"energy": 0.10019,
				"method": "rhf"
			},
			{
				"type": "unocc",
				"energy": 0.11884,
				"method": "rhf"
			}
		],
		"cosmo_sigma_profile": { 
			"-0.025": 0.0,
			"-0.024": 0.0,
			"-0.023": 0.0,
			"-0.022": 0.0,
			"-0.021": 0.0,
			"-0.02": 0.0,
			"-0.019": 0.0,
			"-0.018": 0.0,
			"-0.017": 0.0,
			"-0.016": 0.0,
			"-0.015": 0.0,
			"-0.014": 0.595896692624,
			"-0.013": 1.30111861982,
			"-0.012": 1.24887449115,
			"-0.011": 1.43843858385,
			"-0.01": 1.08905446322,
			"-0.009": 1.63437500849,
			"-0.008": 5.55769713594,
			"-0.007": 6.97712483451,
			"-0.006": 13.7094015904,
			"-0.005": 14.296941702,
			"-0.004": 15.0438259751,
			"-0.003": 13.4693202518,
			"-0.002": 11.8014305444,
			"-0.001": 12.8247692878,
			"0.0": 14.7273128165,
			"0.001": 12.3840595027,
			"0.002": 15.2863663266,
			"0.003": 30.0181316081,
			"0.004": 8.35262526366,
			"0.005": 6.90999797834,
			"0.006": 7.43239236158,
			"0.007": 6.3142970143,
			"0.008": 2.97208876493,
			"0.009": 2.74790081323,
			"0.01": 2.17039032811,
			"0.011": 1.61201643128,
			"0.012": 1.39933008577,
			"0.013": 0.996529022002,
			"0.014": 0.471942472131,
			"0.015": 1.34597379033,
			"0.016": 1.00515555122,
			"0.017": 0.775433993964,
			"0.018": 0.0,
			"0.019": 0.0,
			"0.02": 0.0,
			"0.021": 0.0,
			"0.022": 0.0,
			"0.023": 0.0,
			"0.024": 0.0,
			"0.025": 0.0
		}
	}
}
