{
	 "smiles": "OC(=O)C1=C(OC=N1)C1=C(Cl)C=CC=C1", 
	 "Tm": 468.15, 
	 "num_atms": 21, 
	 "gaussian": { 
		 "optdone": 1, 
		 "sigma_profile": "yes", 
		 "theory": "DFT", 
		 "functional": "B3LYP", 
		 "basiset": "6-31G**", 
		 "properties": { 
			 "R2extent": 3358.811, 
			 "electric_dipole_moment_norm": 4.99127596813, 
			 "electric_quadrupole_moment_norm": 16.0384939034, 
			 "total_energy": -1125.28494798, 
			 "HOMO_LUMO_gap": 0.19187, 
			 "cosmo_polarized_energy": -15.76, 
			 "cosmo_cavitation_energy": 28.43, 
			 "cosmo_dispersion_energy": -20.36, 
			 "cosmo_repulsion_energy": 1.6, 
			 "cosmo_total_nonelectrostatic_energy": 9.67, 
			 "SMD_solvation_energy": 5.21 
		},
		"coords": [
			{
				"x": -1.2549080581,
				"y": -1.8182648675,
				"z": -1.6506896715,
				"element": "O" 
			},
			{
				"x": -0.0556701787,
				"y": -2.3360673267,
				"z": -2.0168368066,
				"element": "C" 
			},
			{
				"x": 0.1157458794,
				"y": -2.9390504613,
				"z": -3.0517812974,
				"element": "O" 
			},
			{
				"x": 0.9842344166,
				"y": -2.0912660978,
				"z": -0.9960361277,
				"element": "C" 
			},
			{
				"x": 0.9623213322,
				"y": -1.2865080858,
				"z": 0.1169581262,
				"element": "C" 
			},
			{
				"x": 2.1592243765,
				"y": -1.4766217123,
				"z": 0.7624888987,
				"element": "O" 
			},
			{
				"x": 2.8348177678,
				"y": -2.3731893698,
				"z": -0.0083453534,
				"element": "C" 
			},
			{
				"x": 2.1970961195,
				"y": -2.7680288942,
				"z": -1.0565497121,
				"element": "N" 
			},
			{
				"x": 0.0178901598,
				"y": -0.3672840491,
				"z": 0.7655098428,
				"element": "C" 
			},
			{
				"x": -0.5071102514,
				"y": 0.7787599903,
				"z": 0.1421320795,
				"element": "C" 
			},
			{
				"x": -0.0230189567,
				"y": 1.2312352836,
				"z": -1.4815610214,
				"element": "Cl" 
			},
			{
				"x": -1.3959443793,
				"y": 1.6183087642,
				"z": 0.8135292694,
				"element": "C" 
			},
			{
				"x": -1.763957411,
				"y": 1.3331306097,
				"z": 2.1272508866,
				"element": "C" 
			},
			{
				"x": -1.2372778337,
				"y": 0.21458409,
				"z": 2.7745885639,
				"element": "C" 
			},
			{
				"x": -0.3550641849,
				"y": -0.6211256525,
				"z": 2.0971881532,
				"element": "C" 
			},
			{
				"x": -1.8583815601,
				"y": -1.9999691795,
				"z": -2.3899227998,
				"element": "H" 
			},
			{
				"x": 3.8201512789,
				"y": -2.6576247084,
				"z": 0.3303515622,
				"element": "H" 
			},
			{
				"x": -1.7828651981,
				"y": 2.4948317525,
				"z": 0.3061360475,
				"element": "H" 
			},
			{
				"x": -2.4561922425,
				"y": 1.9915168909,
				"z": 2.6432005375,
				"element": "H" 
			},
			{
				"x": -1.5143714071,
				"y": -0.0083949363,
				"z": 3.7999619316,
				"element": "H" 
			},
			{
				"x": 0.0547803308,
				"y": -1.49657204,
				"z": 2.5905268908,
				"element": "H" 
			}
		],
		 "valence_orbital": [ 
			{
				"type": "occ",
				"energy": -0.30584,
				"method": "rhf"
			},
			{
				"type": "occ",
				"energy": -0.28611,
				"method": "rhf"
			},
			{
				"type": "occ",
				"energy": -0.27658,
				"method": "rhf"
			},
			{
				"type": "occ",
				"energy": -0.26221,
				"method": "rhf"
			},
			{
				"type": "occ",
				"energy": -0.24843,
				"method": "rhf"
			},
			{
				"type": "unocc",
				"energy": -0.05656,
				"method": "rhf"
			},
			{
				"type": "unocc",
				"energy": -0.02541,
				"method": "rhf"
			},
			{
				"type": "unocc",
				"energy": -0.01572,
				"method": "rhf"
			},
			{
				"type": "unocc",
				"energy": 0.00105,
				"method": "rhf"
			},
			{
				"type": "unocc",
				"energy": 0.02272,
				"method": "rhf"
			}
		],
		"cosmo_sigma_profile": { 
			"-0.025": 0.0,
			"-0.024": 0.0,
			"-0.023": 0.0,
			"-0.022": 0.0,
			"-0.021": 0.0,
			"-0.02": 0.0,
			"-0.019": 0.11204578209,
			"-0.018": 1.03183641775,
			"-0.017": 0.905507874517,
			"-0.016": 0.673421875776,
			"-0.015": 1.08064348868,
			"-0.014": 0.6679191525,
			"-0.013": 0.379867446059,
			"-0.012": 1.73424427247,
			"-0.011": 2.81994804656,
			"-0.01": 2.72170896686,
			"-0.009": 1.65969271267,
			"-0.008": 3.06908843299,
			"-0.007": 10.7206512389,
			"-0.006": 11.7788604025,
			"-0.005": 11.0085701962,
			"-0.004": 11.0821286887,
			"-0.003": 12.7267771343,
			"-0.002": 13.6966917537,
			"-0.001": 15.2323365485,
			"0.0": 17.8724057226,
			"0.001": 17.9672422977,
			"0.002": 21.2105631558,
			"0.003": 19.6906904652,
			"0.004": 11.9922540925,
			"0.005": 7.22366642533,
			"0.006": 4.79148936004,
			"0.007": 4.0259890821,
			"0.008": 2.27700734861,
			"0.009": 2.51573826568,
			"0.01": 3.37435059756,
			"0.011": 6.05699155826,
			"0.012": 3.63085482189,
			"0.013": 2.35095222201,
			"0.014": 2.24666271048,
			"0.015": 0.958956721775,
			"0.016": 0.0814584348387,
			"0.017": 0.0,
			"0.018": 0.0,
			"0.019": 0.0,
			"0.02": 0.0,
			"0.021": 0.0,
			"0.022": 0.0,
			"0.023": 0.0,
			"0.024": 0.0,
			"0.025": 0.0
		}
	}
}
