{
	 "smiles": "ClC1=CC=C(CC2=C(NN=C2N=CC2=CC=CC=C2Cl)N=CC2=CC=CC=C2Cl)C=C1", 
	 "Tm": 473.15, 
	 "num_atms": 48, 
	 "gaussian": { 
		 "optdone": 1, 
		 "sigma_profile": "yes", 
		 "theory": "DFT", 
		 "functional": "B3LYP", 
		 "basiset": "6-31G**", 
		 "properties": { 
			 "R2extent": 22721.6646, 
			 "electric_dipole_moment_norm": 2.91760927816, 
			 "electric_quadrupole_moment_norm": 35.7208586021, 
			 "total_energy": -2524.35124057, 
			 "HOMO_LUMO_gap": 0.14274, 
			 "cosmo_polarized_energy": -16.23, 
			 "cosmo_cavitation_energy": 59.79, 
			 "cosmo_dispersion_energy": -40.48, 
			 "cosmo_repulsion_energy": 3.06, 
			 "cosmo_total_nonelectrostatic_energy": 22.37, 
			 "SMD_solvation_energy": 6.61 
		},
		"coords": [
			{
				"x": 4.6840157651,
				"y": -3.0040422839,
				"z": 1.4651961583,
				"element": "Cl" 
			},
			{
				"x": 3.50938461,
				"y": -1.7461620203,
				"z": 1.0993796309,
				"element": "C" 
			},
			{
				"x": 3.6411845165,
				"y": -0.4908266449,
				"z": 1.690163416,
				"element": "C" 
			},
			{
				"x": 2.7000675331,
				"y": 0.4973183351,
				"z": 1.3964170285,
				"element": "C" 
			},
			{
				"x": 1.6312935281,
				"y": 0.2528584678,
				"z": 0.5232783481,
				"element": "C" 
			},
			{
				"x": 0.6469851608,
				"y": 1.3668767124,
				"z": 0.1866737405,
				"element": "C" 
			},
			{
				"x": -0.7767834317,
				"y": 0.9523460555,
				"z": -0.0456549358,
				"element": "C" 
			},
			{
				"x": -1.7880765751,
				"y": 0.6129281918,
				"z": 0.8661421565,
				"element": "C" 
			},
			{
				"x": -2.9092556853,
				"y": 0.410757935,
				"z": 0.1070350405,
				"element": "N" 
			},
			{
				"x": -2.7214063014,
				"y": 0.5615059787,
				"z": -1.2052008206,
				"element": "N" 
			},
			{
				"x": -1.4229053959,
				"y": 0.9005211309,
				"z": -1.3098070116,
				"element": "C" 
			},
			{
				"x": -0.7767406052,
				"y": 1.1809460731,
				"z": -2.5095838399,
				"element": "N" 
			},
			{
				"x": -1.416104002,
				"y": 1.0775419274,
				"z": -3.6207739708,
				"element": "C" 
			},
			{
				"x": -0.7600127827,
				"y": 1.3707877301,
				"z": -4.9012091414,
				"element": "C" 
			},
			{
				"x": 0.5926713433,
				"y": 1.7647256926,
				"z": -4.9311555349,
				"element": "C" 
			},
			{
				"x": 1.2417422909,
				"y": 2.047550961,
				"z": -6.1248821431,
				"element": "C" 
			},
			{
				"x": 0.5485376192,
				"y": 1.9434708263,
				"z": -7.3352840743,
				"element": "C" 
			},
			{
				"x": -0.7898539723,
				"y": 1.5562976266,
				"z": -7.3411531762,
				"element": "C" 
			},
			{
				"x": -1.4312744854,
				"y": 1.2741914917,
				"z": -6.1350651751,
				"element": "C" 
			},
			{
				"x": -3.1245130614,
				"y": 0.7895278103,
				"z": -6.2141576144,
				"element": "Cl" 
			},
			{
				"x": -1.9401702039,
				"y": 0.4957517776,
				"z": 2.2288227188,
				"element": "N" 
			},
			{
				"x": -0.9245276643,
				"y": 0.406275378,
				"z": 3.0120580064,
				"element": "C" 
			},
			{
				"x": -0.9922897362,
				"y": 0.2996369424,
				"z": 4.4730927589,
				"element": "C" 
			},
			{
				"x": 0.2410878195,
				"y": 0.0712392293,
				"z": 5.1215172532,
				"element": "C" 
			},
			{
				"x": 0.3445697279,
				"y": -0.0609717938,
				"z": 6.5001306342,
				"element": "C" 
			},
			{
				"x": -0.8051948746,
				"y": 0.0398848206,
				"z": 7.2845803408,
				"element": "C" 
			},
			{
				"x": -2.0399657285,
				"y": 0.2714901849,
				"z": 6.6804677899,
				"element": "C" 
			},
			{
				"x": -2.1385099269,
				"y": 0.4002034907,
				"z": 5.2943863055,
				"element": "C" 
			},
			{
				"x": -3.7412748716,
				"y": 0.7042067847,
				"z": 4.6553222146,
				"element": "Cl" 
			},
			{
				"x": 1.527049793,
				"y": -1.0187553448,
				"z": -0.0549600726,
				"element": "C" 
			},
			{
				"x": 2.4576137745,
				"y": -2.0190346847,
				"z": 0.2256423517,
				"element": "C" 
			},
			{
				"x": 4.4648241828,
				"y": -0.2904947649,
				"z": 2.3668227579,
				"element": "H" 
			},
			{
				"x": 2.8055438257,
				"y": 1.4787473163,
				"z": 1.8530812638,
				"element": "H" 
			},
			{
				"x": 0.6912138556,
				"y": 2.1247179162,
				"z": 0.9794066134,
				"element": "H" 
			},
			{
				"x": 0.984678176,
				"y": 1.8614026545,
				"z": -0.7322901535,
				"element": "H" 
			},
			{
				"x": -3.8142708307,
				"y": 0.1541941953,
				"z": 0.4752987617,
				"element": "H" 
			},
			{
				"x": -2.4630984362,
				"y": 0.7694089052,
				"z": -3.6522869415,
				"element": "H" 
			},
			{
				"x": 1.1077797033,
				"y": 1.8371162852,
				"z": -3.9794930472,
				"element": "H" 
			},
			{
				"x": 2.2849260923,
				"y": 2.348358409,
				"z": -6.1172265388,
				"element": "H" 
			},
			{
				"x": 1.0461252544,
				"y": 2.1623678211,
				"z": -8.2753275055,
				"element": "H" 
			},
			{
				"x": -1.3409710015,
				"y": 1.4708291908,
				"z": -8.2709640203,
				"element": "H" 
			},
			{
				"x": 0.0985344392,
				"y": 0.3696552314,
				"z": 2.6237791605,
				"element": "H" 
			},
			{
				"x": 1.1322536409,
				"y": -0.0094557375,
				"z": 4.5045319173,
				"element": "H" 
			},
			{
				"x": 1.3116368131,
				"y": -0.2409977381,
				"z": 6.9587163302,
				"element": "H" 
			},
			{
				"x": -0.7476281999,
				"y": -0.058640893,
				"z": 8.3643282463,
				"element": "H" 
			},
			{
				"x": -2.9399938392,
				"y": 0.356190001,
				"z": 7.2792685995,
				"element": "H" 
			},
			{
				"x": 0.7061793251,
				"y": -1.2313028006,
				"z": -0.7328990277,
				"element": "H" 
			},
			{
				"x": 2.3680228217,
				"y": -3.0006447742,
				"z": -0.2267647984,
				"element": "H" 
			}
		],
		 "valence_orbital": [ 
			{
				"type": "occ",
				"energy": -0.25645,
				"method": "rhf"
			},
			{
				"type": "occ",
				"energy": -0.25232,
				"method": "rhf"
			},
			{
				"type": "occ",
				"energy": -0.24324,
				"method": "rhf"
			},
			{
				"type": "occ",
				"energy": -0.22864,
				"method": "rhf"
			},
			{
				"type": "occ",
				"energy": -0.21707,
				"method": "rhf"
			},
			{
				"type": "unocc",
				"energy": -0.07433,
				"method": "rhf"
			},
			{
				"type": "unocc",
				"energy": -0.06684,
				"method": "rhf"
			},
			{
				"type": "unocc",
				"energy": -0.02176,
				"method": "rhf"
			},
			{
				"type": "unocc",
				"energy": -0.0175,
				"method": "rhf"
			},
			{
				"type": "unocc",
				"energy": -0.01463,
				"method": "rhf"
			}
		],
		"cosmo_sigma_profile": { 
			"-0.025": 0.0,
			"-0.024": 0.0,
			"-0.023": 0.0,
			"-0.022": 0.0,
			"-0.021": 0.0,
			"-0.02": 0.0,
			"-0.019": 0.0,
			"-0.018": 0.0,
			"-0.017": 0.234998444968,
			"-0.016": 0.991547327523,
			"-0.015": 1.1702122961,
			"-0.014": 1.0450971077,
			"-0.013": 0.653385967419,
			"-0.012": 0.601585047186,
			"-0.011": 0.92491240783,
			"-0.01": 0.942170374131,
			"-0.009": 0.410568195144,
			"-0.008": 1.52261766142,
			"-0.007": 13.8527571994,
			"-0.006": 25.9014491524,
			"-0.005": 30.4600435218,
			"-0.004": 26.9018570519,
			"-0.003": 24.4175286393,
			"-0.002": 32.0079745067,
			"-0.001": 34.6174261916,
			"0.0": 39.0578820204,
			"0.001": 52.1228073342,
			"0.002": 60.9964801907,
			"0.003": 56.2129959451,
			"0.004": 39.5975331521,
			"0.005": 21.5890329636,
			"0.006": 5.84094068338,
			"0.007": 4.96345691846,
			"0.008": 3.22056955676,
			"0.009": 2.71876684836,
			"0.01": 2.49700606251,
			"0.011": 0.778603007375,
			"0.012": 0.725583421261,
			"0.013": 1.06611193281,
			"0.014": 0.246320433647,
			"0.015": 0.0,
			"0.016": 0.0,
			"0.017": 0.0,
			"0.018": 0.0,
			"0.019": 0.0,
			"0.02": 0.0,
			"0.021": 0.0,
			"0.022": 0.0,
			"0.023": 0.0,
			"0.024": 0.0,
			"0.025": 0.0
		}
	}
}
