{
	 "smiles": "ClC(Cl)(Cl)OC(=O)OC(Cl)(Cl)Cl", 
	 "Tm": 354.65, 
	 "num_atms": 12, 
	 "gaussian": { 
		 "optdone": 1, 
		 "sigma_profile": "yes", 
		 "theory": "DFT", 
		 "functional": "B3LYP", 
		 "basiset": "6-31G**", 
		 "properties": { 
			 "R2extent": 6147.1182, 
			 "electric_dipole_moment_norm": 0.678787013724, 
			 "electric_quadrupole_moment_norm": 3.60676328583, 
			 "total_energy": -3101.08527541, 
			 "HOMO_LUMO_gap": 0.25791, 
			 "cosmo_polarized_energy": -4.06, 
			 "cosmo_cavitation_energy": 28.55, 
			 "cosmo_dispersion_energy": -21.0, 
			 "cosmo_repulsion_energy": 1.72, 
			 "cosmo_total_nonelectrostatic_energy": 9.28, 
			 "SMD_solvation_energy": 4.11 
		},
		"coords": [
			{
				"x": -3.258788677,
				"y": -1.5677963774,
				"z": -2.1388965783,
				"element": "Cl" 
			},
			{
				"x": -1.499974527,
				"y": -1.7546138451,
				"z": -2.4025658197,
				"element": "C" 
			},
			{
				"x": -0.9840575321,
				"y": -0.721326658,
				"z": -3.7754800359,
				"element": "Cl" 
			},
			{
				"x": -1.1213562922,
				"y": -3.4754703747,
				"z": -2.740319993,
				"element": "Cl" 
			},
			{
				"x": -0.9278428084,
				"y": -1.3314826329,
				"z": -1.2006371146,
				"element": "O" 
			},
			{
				"x": 0.4299171191,
				"y": -1.3387028858,
				"z": -1.0403639266,
				"element": "C" 
			},
			{
				"x": 1.2640178753,
				"y": -1.6727769849,
				"z": -1.8209953968,
				"element": "O" 
			},
			{
				"x": 0.5986271781,
				"y": -0.8696719698,
				"z": 0.2327650483,
				"element": "O" 
			},
			{
				"x": 1.8800778153,
				"y": -0.7314031218,
				"z": 0.7710481894,
				"element": "C" 
			},
			{
				"x": 2.8617272349,
				"y": 0.4442963196,
				"z": -0.1632224682,
				"element": "Cl" 
			},
			{
				"x": 1.595710196,
				"y": -0.0994826903,
				"z": 2.4195886311,
				"element": "Cl" 
			},
			{
				"x": 2.7252424178,
				"y": -2.3108687787,
				"z": 0.8693794644,
				"element": "Cl" 
			}
		],
		 "valence_orbital": [ 
			{
				"type": "occ",
				"energy": -0.33821,
				"method": "rhf"
			},
			{
				"type": "occ",
				"energy": -0.33566,
				"method": "rhf"
			},
			{
				"type": "occ",
				"energy": -0.32963,
				"method": "rhf"
			},
			{
				"type": "occ",
				"energy": -0.32473,
				"method": "rhf"
			},
			{
				"type": "occ",
				"energy": -0.32392,
				"method": "rhf"
			},
			{
				"type": "unocc",
				"energy": -0.06601,
				"method": "rhf"
			},
			{
				"type": "unocc",
				"energy": -0.06306,
				"method": "rhf"
			},
			{
				"type": "unocc",
				"energy": -0.05037,
				"method": "rhf"
			},
			{
				"type": "unocc",
				"energy": -0.02473,
				"method": "rhf"
			},
			{
				"type": "unocc",
				"energy": -0.01607,
				"method": "rhf"
			}
		],
		"cosmo_sigma_profile": { 
			"-0.025": 0.0,
			"-0.024": 0.0,
			"-0.023": 0.0,
			"-0.022": 0.0,
			"-0.021": 0.0,
			"-0.02": 0.0,
			"-0.019": 0.0,
			"-0.018": 0.0,
			"-0.017": 0.0,
			"-0.016": 0.0,
			"-0.015": 0.0,
			"-0.014": 0.0,
			"-0.013": 0.0,
			"-0.012": 0.0,
			"-0.011": 0.0,
			"-0.01": 0.0,
			"-0.009": 0.0771262288233,
			"-0.008": 1.07425120632,
			"-0.007": 2.01104268095,
			"-0.006": 5.1345566058,
			"-0.005": 11.3899148467,
			"-0.004": 15.1713269955,
			"-0.003": 15.3994376511,
			"-0.002": 19.484763618,
			"-0.001": 19.5826196141,
			"0.0": 29.3722218453,
			"0.001": 48.9227983839,
			"0.002": 47.2353293668,
			"0.003": 10.450047004,
			"0.004": 4.67148146326,
			"0.005": 4.1141140087,
			"0.006": 3.03167844474,
			"0.007": 3.90383298376,
			"0.008": 2.0116055742,
			"0.009": 0.0,
			"0.01": 0.0,
			"0.011": 0.0,
			"0.012": 0.0,
			"0.013": 0.0,
			"0.014": 0.0,
			"0.015": 0.0,
			"0.016": 0.0,
			"0.017": 0.0,
			"0.018": 0.0,
			"0.019": 0.0,
			"0.02": 0.0,
			"0.021": 0.0,
			"0.022": 0.0,
			"0.023": 0.0,
			"0.024": 0.0,
			"0.025": 0.0
		}
	}
}
