{
	 "smiles": "NS(=O)(=O)C1CCOCC1", 
	 "Tm": 403.15, 
	 "num_atms": 21, 
	 "gaussian": { 
		 "optdone": 1, 
		 "sigma_profile": "yes", 
		 "theory": "DFT", 
		 "functional": "B3LYP", 
		 "basiset": "6-31G**", 
		 "properties": { 
			 "R2extent": 1714.8111, 
			 "electric_dipole_moment_norm": 3.33112100351, 
			 "electric_quadrupole_moment_norm": 9.44977538992, 
			 "total_energy": -875.701992064, 
			 "HOMO_LUMO_gap": 0.29692, 
			 "cosmo_polarized_energy": -15.54, 
			 "cosmo_cavitation_energy": 23.39, 
			 "cosmo_dispersion_energy": -18.42, 
			 "cosmo_repulsion_energy": 1.44, 
			 "cosmo_total_nonelectrostatic_energy": 6.41, 
			 "SMD_solvation_energy": 3.3 
		},
		"coords": [
			{
				"x": 1.0257519207,
				"y": 1.2373770663,
				"z": -1.4466253657,
				"element": "N" 
			},
			{
				"x": 0.0827087923,
				"y": 1.1671943805,
				"z": -0.031770608,
				"element": "S" 
			},
			{
				"x": 0.8426076241,
				"y": 1.8034765044,
				"z": 1.0520082136,
				"element": "O" 
			},
			{
				"x": -1.2607740666,
				"y": 1.6396263282,
				"z": -0.3979365231,
				"element": "O" 
			},
			{
				"x": 0.0555290135,
				"y": -0.6320574147,
				"z": 0.3076714925,
				"element": "C" 
			},
			{
				"x": -0.6609718109,
				"y": -1.4419167553,
				"z": -0.7877507243,
				"element": "C" 
			},
			{
				"x": -2.1868785912,
				"y": -1.4301114841,
				"z": -0.6280222259,
				"element": "C" 
			},
			{
				"x": -2.5730635008,
				"y": -1.8217977603,
				"z": 0.6844544626,
				"element": "O" 
			},
			{
				"x": -2.0849227224,
				"y": -0.9129057529,
				"z": 1.6644561222,
				"element": "C" 
			},
			{
				"x": -0.5524813849,
				"y": -0.9069044827,
				"z": 1.6974353377,
				"element": "C" 
			},
			{
				"x": 0.5077995471,
				"y": 1.7516686351,
				"z": -2.1547105089,
				"element": "H" 
			},
			{
				"x": 1.9065510456,
				"y": 1.7008879992,
				"z": -1.2368889962,
				"element": "H" 
			},
			{
				"x": 1.124311447,
				"y": -0.8697621906,
				"z": 0.3153005332,
				"element": "H" 
			},
			{
				"x": -0.3683829484,
				"y": -1.0949641588,
				"z": -1.7841117201,
				"element": "H" 
			},
			{
				"x": -0.308769295,
				"y": -2.4760175365,
				"z": -0.6915908278,
				"element": "H" 
			},
			{
				"x": -2.588051229,
				"y": -0.4347721544,
				"z": -0.8621696503,
				"element": "H" 
			},
			{
				"x": -2.6393857568,
				"y": -2.15585395,
				"z": -1.3102330703,
				"element": "H" 
			},
			{
				"x": -2.4814698854,
				"y": -1.2538828268,
				"z": 2.6251086103,
				"element": "H" 
			},
			{
				"x": -2.471022791,
				"y": 0.0990871574,
				"z": 1.4724184293,
				"element": "H" 
			},
			{
				"x": -0.2062371845,
				"y": -1.9007431523,
				"z": 2.0043348772,
				"element": "H" 
			},
			{
				"x": -0.1764482234,
				"y": -0.1864284517,
				"z": 2.430322142,
				"element": "H" 
			}
		],
		 "valence_orbital": [ 
			{
				"type": "occ",
				"energy": -0.3143,
				"method": "rhf"
			},
			{
				"type": "occ",
				"energy": -0.30471,
				"method": "rhf"
			},
			{
				"type": "occ",
				"energy": -0.30225,
				"method": "rhf"
			},
			{
				"type": "occ",
				"energy": -0.2896,
				"method": "rhf"
			},
			{
				"type": "occ",
				"energy": -0.24988,
				"method": "rhf"
			},
			{
				"type": "unocc",
				"energy": 0.04704,
				"method": "rhf"
			},
			{
				"type": "unocc",
				"energy": 0.05794,
				"method": "rhf"
			},
			{
				"type": "unocc",
				"energy": 0.07572,
				"method": "rhf"
			},
			{
				"type": "unocc",
				"energy": 0.08456,
				"method": "rhf"
			},
			{
				"type": "unocc",
				"energy": 0.0969,
				"method": "rhf"
			}
		],
		"cosmo_sigma_profile": { 
			"-0.025": 0.0,
			"-0.024": 0.0,
			"-0.023": 0.0,
			"-0.022": 0.0,
			"-0.021": 0.0,
			"-0.02": 0.0,
			"-0.019": 0.0,
			"-0.018": 0.0,
			"-0.017": 0.0,
			"-0.016": 0.0,
			"-0.015": 0.547253131457,
			"-0.014": 2.55945264504,
			"-0.013": 2.39463891805,
			"-0.012": 2.06138495644,
			"-0.011": 2.69847672247,
			"-0.01": 1.9980428362,
			"-0.009": 1.76068156974,
			"-0.008": 2.99473254558,
			"-0.007": 3.97706640009,
			"-0.006": 5.20542981891,
			"-0.005": 14.5549859576,
			"-0.004": 18.5957577251,
			"-0.003": 18.8665410282,
			"-0.002": 17.5373825173,
			"-0.001": 11.1975141753,
			"0.0": 6.13081000305,
			"0.001": 5.3582591723,
			"0.002": 5.65494648071,
			"0.003": 6.24866297092,
			"0.004": 4.03486139435,
			"0.005": 3.28873877504,
			"0.006": 4.96542867347,
			"0.007": 3.31700486135,
			"0.008": 4.92447868892,
			"0.009": 5.59939354952,
			"0.01": 6.24505490472,
			"0.011": 9.75282976091,
			"0.012": 6.56620298762,
			"0.013": 2.57767163288,
			"0.014": 0.415850863868,
			"0.015": 0.0,
			"0.016": 0.0,
			"0.017": 0.0,
			"0.018": 0.0,
			"0.019": 0.0,
			"0.02": 0.0,
			"0.021": 0.0,
			"0.022": 0.0,
			"0.023": 0.0,
			"0.024": 0.0,
			"0.025": 0.0
		}
	}
}
