{
	 "smiles": "NC1=NN=C(CC2=CC=C(F)C=C2)N1", 
	 "Tm": 471.15, 
	 "num_atms": 23, 
	 "gaussian": { 
		 "optdone": 1, 
		 "sigma_profile": "yes", 
		 "theory": "DFT", 
		 "functional": "B3LYP", 
		 "basiset": "6-31G**", 
		 "properties": { 
			 "R2extent": 4213.1105, 
			 "electric_dipole_moment_norm": 4.66841281272, 
			 "electric_quadrupole_moment_norm": 24.5934529678, 
			 "total_energy": -667.208089863, 
			 "HOMO_LUMO_gap": 0.20133, 
			 "cosmo_polarized_energy": -22.86, 
			 "cosmo_cavitation_energy": 28.59, 
			 "cosmo_dispersion_energy": -20.37, 
			 "cosmo_repulsion_energy": 1.6, 
			 "cosmo_total_nonelectrostatic_energy": 9.82, 
			 "SMD_solvation_energy": 2.88 
		},
		"coords": [
			{
				"x": 0.9616499842,
				"y": -2.1027497921,
				"z": -4.0857447541,
				"element": "N" 
			},
			{
				"x": 0.3201872217,
				"y": -2.5863003504,
				"z": -2.9507084904,
				"element": "C" 
			},
			{
				"x": -0.838559661,
				"y": -3.1989037351,
				"z": -2.9100026199,
				"element": "N" 
			},
			{
				"x": -1.1428821815,
				"y": -3.4063018527,
				"z": -1.5685150559,
				"element": "N" 
			},
			{
				"x": -0.1552042176,
				"y": -2.9341815223,
				"z": -0.8524679853,
				"element": "C" 
			},
			{
				"x": -0.0493995589,
				"y": -2.9714879302,
				"z": 0.640552181,
				"element": "C" 
			},
			{
				"x": 0.1715047157,
				"y": -1.6064767232,
				"z": 1.2745364168,
				"element": "C" 
			},
			{
				"x": -0.7494033507,
				"y": -0.5683382626,
				"z": 1.0646146107,
				"element": "C" 
			},
			{
				"x": -0.5641978278,
				"y": 0.6849043088,
				"z": 1.6437243462,
				"element": "C" 
			},
			{
				"x": 0.5586114019,
				"y": 0.8953322003,
				"z": 2.4390871167,
				"element": "C" 
			},
			{
				"x": 0.7446471775,
				"y": 2.1078600194,
				"z": 3.0014224855,
				"element": "F" 
			},
			{
				"x": 1.4925354745,
				"y": -0.1063073476,
				"z": 2.6680663977,
				"element": "C" 
			},
			{
				"x": 1.2892235371,
				"y": -1.3565898682,
				"z": 2.0787476606,
				"element": "C" 
			},
			{
				"x": 0.8113673926,
				"y": -2.4011661286,
				"z": -1.6838411459,
				"element": "N" 
			},
			{
				"x": 0.4142474403,
				"y": -2.3354543863,
				"z": -4.9071654029,
				"element": "H" 
			},
			{
				"x": 1.911736908,
				"y": -2.4428056873,
				"z": -4.1946909014,
				"element": "H" 
			},
			{
				"x": 0.7612365889,
				"y": -3.646848865,
				"z": 0.9427717949,
				"element": "H" 
			},
			{
				"x": -0.9820672474,
				"y": -3.4203495959,
				"z": 0.9973846967,
				"element": "H" 
			},
			{
				"x": -1.6191846072,
				"y": -0.7462375413,
				"z": 0.437876728,
				"element": "H" 
			},
			{
				"x": -1.2708590066,
				"y": 1.4933570156,
				"z": 1.490068974,
				"element": "H" 
			},
			{
				"x": 2.3544456941,
				"y": 0.0955482319,
				"z": 3.2948402102,
				"element": "H" 
			},
			{
				"x": 2.0109586063,
				"y": -2.1499511694,
				"z": 2.2570092798,
				"element": "H" 
			},
			{
				"x": 1.6031055158,
				"y": -1.8374510177,
				"z": -1.4132665429,
				"element": "H" 
			}
		],
		 "valence_orbital": [ 
			{
				"type": "occ",
				"energy": -0.29281,
				"method": "rhf"
			},
			{
				"type": "occ",
				"energy": -0.26731,
				"method": "rhf"
			},
			{
				"type": "occ",
				"energy": -0.24827,
				"method": "rhf"
			},
			{
				"type": "occ",
				"energy": -0.24547,
				"method": "rhf"
			},
			{
				"type": "occ",
				"energy": -0.22091,
				"method": "rhf"
			},
			{
				"type": "unocc",
				"energy": -0.01958,
				"method": "rhf"
			},
			{
				"type": "unocc",
				"energy": -0.00735,
				"method": "rhf"
			},
			{
				"type": "unocc",
				"energy": 0.02658,
				"method": "rhf"
			},
			{
				"type": "unocc",
				"energy": 0.05994,
				"method": "rhf"
			},
			{
				"type": "unocc",
				"energy": 0.06601,
				"method": "rhf"
			}
		],
		"cosmo_sigma_profile": { 
			"-0.025": 0.0,
			"-0.024": 0.0,
			"-0.023": 0.0,
			"-0.022": 0.0,
			"-0.021": 0.0,
			"-0.02": 0.0,
			"-0.019": 0.0,
			"-0.018": 0.0,
			"-0.017": 0.369140985461,
			"-0.016": 1.14022335193,
			"-0.015": 0.999323587777,
			"-0.014": 1.80008715176,
			"-0.013": 4.17795980232,
			"-0.012": 3.65252336158,
			"-0.011": 4.31728212545,
			"-0.01": 3.69236053041,
			"-0.009": 3.3176183834,
			"-0.008": 2.53952506927,
			"-0.007": 7.94360279309,
			"-0.006": 13.6549007511,
			"-0.005": 12.7022644871,
			"-0.004": 13.6547122715,
			"-0.003": 11.5986106397,
			"-0.002": 11.6733020071,
			"-0.001": 10.6896319842,
			"0.0": 12.4587389443,
			"0.001": 16.8699340595,
			"0.002": 14.5261010053,
			"0.003": 14.0766664528,
			"0.004": 20.1492796158,
			"0.005": 8.94666073888,
			"0.006": 1.85056068941,
			"0.007": 2.35856917932,
			"0.008": 2.11500839679,
			"0.009": 1.9849122851,
			"0.01": 2.17491682755,
			"0.011": 2.52437586559,
			"0.012": 3.29669548265,
			"0.013": 2.75863299145,
			"0.014": 3.35139131129,
			"0.015": 3.95473927561,
			"0.016": 3.0555669974,
			"0.017": 2.24502930757,
			"0.018": 1.30538591974,
			"0.019": 0.00140830767432,
			"0.02": 0.0,
			"0.021": 0.0,
			"0.022": 0.0,
			"0.023": 0.0,
			"0.024": 0.0,
			"0.025": 0.0
		}
	}
}
