{
	 "smiles": "CC1=NN(C(=O)CC#N)C(C)=C1", 
	 "Tm": 393.15, 
	 "num_atms": 21, 
	 "gaussian": { 
		 "optdone": 1, 
		 "sigma_profile": "yes", 
		 "theory": "DFT", 
		 "functional": "B3LYP", 
		 "basiset": "6-31G**", 
		 "properties": { 
			 "R2extent": 2252.5883, 
			 "electric_dipole_moment_norm": 4.52238177623, 
			 "electric_quadrupole_moment_norm": 11.8837605315, 
			 "total_energy": -549.730917295, 
			 "HOMO_LUMO_gap": 0.20435, 
			 "cosmo_polarized_energy": -12.39, 
			 "cosmo_cavitation_energy": 26.5, 
			 "cosmo_dispersion_energy": -18.28, 
			 "cosmo_repulsion_energy": 1.5, 
			 "cosmo_total_nonelectrostatic_energy": 9.71, 
			 "SMD_solvation_energy": 6.36 
		},
		"coords": [
			{
				"x": 1.0763749489,
				"y": -2.6444792213,
				"z": 0.2158906813,
				"element": "C" 
			},
			{
				"x": 0.3578825011,
				"y": -1.429153395,
				"z": 0.7110121029,
				"element": "C" 
			},
			{
				"x": -0.0775951304,
				"y": -0.5116652031,
				"z": -0.1309260366,
				"element": "N" 
			},
			{
				"x": -0.677313714,
				"y": 0.444410193,
				"z": 0.6599451902,
				"element": "N" 
			},
			{
				"x": -1.2394943406,
				"y": 1.5802368152,
				"z": 0.0711806369,
				"element": "C" 
			},
			{
				"x": -1.8331724914,
				"y": 2.4198609617,
				"z": 0.7135446459,
				"element": "O" 
			},
			{
				"x": -1.0568058591,
				"y": 1.6830612946,
				"z": -1.4512852037,
				"element": "C" 
			},
			{
				"x": 0.3040197821,
				"y": 2.0777556966,
				"z": -1.8189807049,
				"element": "C" 
			},
			{
				"x": 1.3754345574,
				"y": 2.4134084828,
				"z": -2.1111630061,
				"element": "N" 
			},
			{
				"x": -0.6173586209,
				"y": 0.1174837082,
				"z": 2.0135381308,
				"element": "C" 
			},
			{
				"x": -1.1753389422,
				"y": 0.961059951,
				"z": 3.1121203605,
				"element": "C" 
			},
			{
				"x": 0.0445035356,
				"y": -1.080659598,
				"z": 2.0630398222,
				"element": "C" 
			},
			{
				"x": 1.1551673501,
				"y": -2.6163983812,
				"z": -0.8724831158,
				"element": "H" 
			},
			{
				"x": 0.5494669006,
				"y": -3.5596844844,
				"z": 0.5072703318,
				"element": "H" 
			},
			{
				"x": 2.0859406648,
				"y": -2.7005971783,
				"z": 0.6371675958,
				"element": "H" 
			},
			{
				"x": -1.2826771899,
				"y": 0.7237816342,
				"z": -1.9240420668,
				"element": "H" 
			},
			{
				"x": -1.7609098649,
				"y": 2.4454039961,
				"z": -1.793923486,
				"element": "H" 
			},
			{
				"x": -0.7314579018,
				"y": 1.9605610734,
				"z": 3.1168085585,
				"element": "H" 
			},
			{
				"x": -2.2547882159,
				"y": 1.0994448223,
				"z": 3.0056933562,
				"element": "H" 
			},
			{
				"x": -0.97135743,
				"y": 0.4786335174,
				"z": 4.0708327077,
				"element": "H" 
			},
			{
				"x": 0.2793794603,
				"y": -1.6434646852,
				"z": 2.9552594994,
				"element": "H" 
			}
		],
		 "valence_orbital": [ 
			{
				"type": "occ",
				"energy": -0.32638,
				"method": "rhf"
			},
			{
				"type": "occ",
				"energy": -0.30899,
				"method": "rhf"
			},
			{
				"type": "occ",
				"energy": -0.28771,
				"method": "rhf"
			},
			{
				"type": "occ",
				"energy": -0.27195,
				"method": "rhf"
			},
			{
				"type": "occ",
				"energy": -0.26048,
				"method": "rhf"
			},
			{
				"type": "unocc",
				"energy": -0.05613,
				"method": "rhf"
			},
			{
				"type": "unocc",
				"energy": 0.02039,
				"method": "rhf"
			},
			{
				"type": "unocc",
				"energy": 0.03632,
				"method": "rhf"
			},
			{
				"type": "unocc",
				"energy": 0.04852,
				"method": "rhf"
			},
			{
				"type": "unocc",
				"energy": 0.05377,
				"method": "rhf"
			}
		],
		"cosmo_sigma_profile": { 
			"-0.025": 0.0,
			"-0.024": 0.0,
			"-0.023": 0.0,
			"-0.022": 0.0,
			"-0.021": 0.0,
			"-0.02": 0.0,
			"-0.019": 0.0,
			"-0.018": 0.0,
			"-0.017": 0.0,
			"-0.016": 0.0,
			"-0.015": 0.0,
			"-0.014": 0.0,
			"-0.013": 0.0,
			"-0.012": 0.0,
			"-0.011": 0.0,
			"-0.01": 2.15396950246,
			"-0.009": 4.30145312834,
			"-0.008": 5.00547859214,
			"-0.007": 6.66632548988,
			"-0.006": 8.66093487726,
			"-0.005": 16.5089351011,
			"-0.004": 16.2528320133,
			"-0.003": 19.6274089965,
			"-0.002": 18.7266025115,
			"-0.001": 20.1377642251,
			"0.0": 12.9317619258,
			"0.001": 10.0528582499,
			"0.002": 9.18221499301,
			"0.003": 8.63727836816,
			"0.004": 6.02946319598,
			"0.005": 6.69181991523,
			"0.006": 5.18074617165,
			"0.007": 6.6657411506,
			"0.008": 7.25200930764,
			"0.009": 7.0477665131,
			"0.01": 6.14795280357,
			"0.011": 4.47894268907,
			"0.012": 2.44071031554,
			"0.013": 1.01580681521,
			"0.014": 0.0,
			"0.015": 0.0,
			"0.016": 0.0,
			"0.017": 0.0,
			"0.018": 0.0,
			"0.019": 0.0,
			"0.02": 0.0,
			"0.021": 0.0,
			"0.022": 0.0,
			"0.023": 0.0,
			"0.024": 0.0,
			"0.025": 0.0
		}
	}
}
