{
	 "smiles": "NC(=S)NC1=C(F)C=CC=C1", 
	 "Tm": 417.15, 
	 "num_atms": 18, 
	 "gaussian": { 
		 "optdone": 1, 
		 "sigma_profile": "yes", 
		 "theory": "DFT", 
		 "functional": "B3LYP", 
		 "basiset": "6-31G**", 
		 "properties": { 
			 "R2extent": 2132.069, 
			 "electric_dipole_moment_norm": 4.91492713781, 
			 "electric_quadrupole_moment_norm": 20.5845070407, 
			 "total_energy": -878.495143282, 
			 "HOMO_LUMO_gap": 0.17752, 
			 "cosmo_polarized_energy": -20.74, 
			 "cosmo_cavitation_energy": 24.5, 
			 "cosmo_dispersion_energy": -18.1, 
			 "cosmo_repulsion_energy": 1.42, 
			 "cosmo_total_nonelectrostatic_energy": 7.82, 
			 "SMD_solvation_energy": 3.89 
		},
		"coords": [
			{
				"x": 1.5918936603,
				"y": 0.2291030229,
				"z": -2.7319000111,
				"element": "N" 
			},
			{
				"x": 1.4319656431,
				"y": 0.372135966,
				"z": -1.3752225901,
				"element": "C" 
			},
			{
				"x": 2.3573534726,
				"y": 1.4249327752,
				"z": -0.4717723748,
				"element": "S" 
			},
			{
				"x": 0.4747115189,
				"y": -0.4755579867,
				"z": -0.8686737116,
				"element": "N" 
			},
			{
				"x": 0.0655836527,
				"y": -0.5407893102,
				"z": 0.4873259451,
				"element": "C" 
			},
			{
				"x": -0.6121411209,
				"y": 0.5298153334,
				"z": 1.0825305808,
				"element": "C" 
			},
			{
				"x": -0.8438062005,
				"y": 1.6394459528,
				"z": 0.3628222747,
				"element": "F" 
			},
			{
				"x": -1.064187995,
				"y": 0.4669150747,
				"z": 2.3936872072,
				"element": "C" 
			},
			{
				"x": -0.8671890359,
				"y": -0.7033764655,
				"z": 3.1284489648,
				"element": "C" 
			},
			{
				"x": -0.2157915566,
				"y": -1.7928890492,
				"z": 2.5483170644,
				"element": "C" 
			},
			{
				"x": 0.2535083816,
				"y": -1.7054601205,
				"z": 1.2374377744,
				"element": "C" 
			},
			{
				"x": 0.788051916,
				"y": -0.0298477111,
				"z": -3.2896983196,
				"element": "H" 
			},
			{
				"x": 2.2118623158,
				"y": 0.9054537934,
				"z": -3.1520757569,
				"element": "H" 
			},
			{
				"x": 0.2519296517,
				"y": -1.2861939121,
				"z": -1.4326200918,
				"element": "H" 
			},
			{
				"x": -1.574446795,
				"y": 1.3278819138,
				"z": 2.8115898966,
				"element": "H" 
			},
			{
				"x": -1.2250162666,
				"y": -0.7606467941,
				"z": 4.1517306818,
				"element": "H" 
			},
			{
				"x": -0.0604112154,
				"y": -2.7044278753,
				"z": 3.1164249238,
				"element": "H" 
			},
			{
				"x": 0.7833299732,
				"y": -2.5387946075,
				"z": 0.7846475426,
				"element": "H" 
			}
		],
		 "valence_orbital": [ 
			{
				"type": "occ",
				"energy": -0.29551,
				"method": "rhf"
			},
			{
				"type": "occ",
				"energy": -0.25625,
				"method": "rhf"
			},
			{
				"type": "occ",
				"energy": -0.24403,
				"method": "rhf"
			},
			{
				"type": "occ",
				"energy": -0.2168,
				"method": "rhf"
			},
			{
				"type": "occ",
				"energy": -0.20274,
				"method": "rhf"
			},
			{
				"type": "unocc",
				"energy": -0.02522,
				"method": "rhf"
			},
			{
				"type": "unocc",
				"energy": -0.00367,
				"method": "rhf"
			},
			{
				"type": "unocc",
				"energy": 0.00371,
				"method": "rhf"
			},
			{
				"type": "unocc",
				"energy": 0.05833,
				"method": "rhf"
			},
			{
				"type": "unocc",
				"energy": 0.07895,
				"method": "rhf"
			}
		],
		"cosmo_sigma_profile": { 
			"-0.025": 0.0,
			"-0.024": 0.0,
			"-0.023": 0.0,
			"-0.022": 0.0,
			"-0.021": 0.0,
			"-0.02": 0.0,
			"-0.019": 0.0,
			"-0.018": 0.0,
			"-0.017": 0.208377364551,
			"-0.016": 2.1203491951,
			"-0.015": 3.38860774022,
			"-0.014": 2.65405746786,
			"-0.013": 3.02812924755,
			"-0.012": 4.24237350701,
			"-0.011": 3.32854785723,
			"-0.01": 2.5290756547,
			"-0.009": 1.98136193862,
			"-0.008": 2.93873496488,
			"-0.007": 7.09014055278,
			"-0.006": 9.8494300927,
			"-0.005": 10.2806905326,
			"-0.004": 9.78931853656,
			"-0.003": 7.16965929772,
			"-0.002": 7.51269465289,
			"-0.001": 6.63933594275,
			"0.0": 10.1042671784,
			"0.001": 9.83259977728,
			"0.002": 10.2075342446,
			"0.003": 11.7784818456,
			"0.004": 20.118477198,
			"0.005": 10.5646706477,
			"0.006": 6.23202822918,
			"0.007": 5.14191357793,
			"0.008": 5.80216141254,
			"0.009": 7.51090495845,
			"0.01": 7.44856972483,
			"0.011": 5.36151852028,
			"0.012": 3.1152603768,
			"0.013": 0.150345567794,
			"0.014": 0.0,
			"0.015": 0.0,
			"0.016": 0.0,
			"0.017": 0.0,
			"0.018": 0.0,
			"0.019": 0.0,
			"0.02": 0.0,
			"0.021": 0.0,
			"0.022": 0.0,
			"0.023": 0.0,
			"0.024": 0.0,
			"0.025": 0.0
		}
	}
}
