{
	 "smiles": "CC1=CC(C)=C(C#N)C(=O)N1N=CC1=CC=C(F)C=C1", 
	 "Tm": 460.15, 
	 "num_atms": 32, 
	 "gaussian": { 
		 "optdone": 1, 
		 "sigma_profile": "yes", 
		 "theory": "DFT", 
		 "functional": "B3LYP", 
		 "basiset": "6-31G**", 
		 "properties": { 
			 "R2extent": 8815.1587, 
			 "electric_dipole_moment_norm": 6.53902285514, 
			 "electric_quadrupole_moment_norm": 36.0583349476, 
			 "total_energy": -918.105003035, 
			 "HOMO_LUMO_gap": 0.14529, 
			 "cosmo_polarized_energy": -16.56, 
			 "cosmo_cavitation_energy": 38.48, 
			 "cosmo_dispersion_energy": -26.69, 
			 "cosmo_repulsion_energy": 1.98, 
			 "cosmo_total_nonelectrostatic_energy": 13.77, 
			 "SMD_solvation_energy": 8.85 
		},
		"coords": [
			{
				"x": 1.4955343191,
				"y": -0.5327301679,
				"z": -1.4764352909,
				"element": "C" 
			},
			{
				"x": 1.9207007142,
				"y": -1.0598701754,
				"z": -0.1375610858,
				"element": "C" 
			},
			{
				"x": 3.0538465943,
				"y": -1.8161008964,
				"z": 0.0081859716,
				"element": "C" 
			},
			{
				"x": 3.4653754266,
				"y": -2.3188871816,
				"z": 1.2676931156,
				"element": "C" 
			},
			{
				"x": 4.7206024595,
				"y": -3.1432802516,
				"z": 1.3577389293,
				"element": "C" 
			},
			{
				"x": 2.6835993731,
				"y": -2.0244149356,
				"z": 2.3696966293,
				"element": "C" 
			},
			{
				"x": 3.0255708531,
				"y": -2.4912510518,
				"z": 3.6765447566,
				"element": "C" 
			},
			{
				"x": 3.3396571736,
				"y": -2.8910124754,
				"z": 4.7235824448,
				"element": "N" 
			},
			{
				"x": 1.4654807666,
				"y": -1.2254965284,
				"z": 2.2837361726,
				"element": "C" 
			},
			{
				"x": 0.76360907,
				"y": -0.9575538985,
				"z": 3.2532703139,
				"element": "O" 
			},
			{
				"x": 1.1343175928,
				"y": -0.7640587222,
				"z": 0.9665432113,
				"element": "N" 
			},
			{
				"x": 0.0259644352,
				"y": 0.0102573945,
				"z": 0.654881926,
				"element": "N" 
			},
			{
				"x": -0.8374534134,
				"y": 0.3862234708,
				"z": 1.5369789847,
				"element": "C" 
			},
			{
				"x": -1.9799868818,
				"y": 1.204148792,
				"z": 1.1169107934,
				"element": "C" 
			},
			{
				"x": -2.1846844293,
				"y": 1.6061207347,
				"z": -0.2165261601,
				"element": "C" 
			},
			{
				"x": -3.283761874,
				"y": 2.3809110629,
				"z": -0.5631394132,
				"element": "C" 
			},
			{
				"x": -4.1835862955,
				"y": 2.7551040911,
				"z": 0.43464619,
				"element": "C" 
			},
			{
				"x": -5.249027073,
				"y": 3.5062051869,
				"z": 0.0985548883,
				"element": "F" 
			},
			{
				"x": -4.0150162433,
				"y": 2.3777751935,
				"z": 1.7617856825,
				"element": "C" 
			},
			{
				"x": -2.90797727,
				"y": 1.6006521845,
				"z": 2.0947239737,
				"element": "C" 
			},
			{
				"x": 2.2136605991,
				"y": -0.8515585468,
				"z": -2.2342693707,
				"element": "H" 
			},
			{
				"x": 0.501174227,
				"y": -0.8977585431,
				"z": -1.7475952015,
				"element": "H" 
			},
			{
				"x": 1.439292295,
				"y": 0.5592119267,
				"z": -1.4715686885,
				"element": "H" 
			},
			{
				"x": 3.6464645204,
				"y": -2.0303745315,
				"z": -0.8732628153,
				"element": "H" 
			},
			{
				"x": 5.5786865686,
				"y": -2.5664115436,
				"z": 0.9947097347,
				"element": "H" 
			},
			{
				"x": 4.637114459,
				"y": -4.0300878117,
				"z": 0.7193864795,
				"element": "H" 
			},
			{
				"x": 4.9267867338,
				"y": -3.4679020988,
				"z": 2.3781391097,
				"element": "H" 
			},
			{
				"x": -0.76285228,
				"y": 0.1269065875,
				"z": 2.5864947064,
				"element": "H" 
			},
			{
				"x": -1.4696667019,
				"y": 1.3014849984,
				"z": -0.9724834048,
				"element": "H" 
			},
			{
				"x": -3.4586419509,
				"y": 2.7004978437,
				"z": -1.5847949053,
				"element": "H" 
			},
			{
				"x": -4.7389291978,
				"y": 2.6908809549,
				"z": 2.505867873,
				"element": "H" 
			},
			{
				"x": -2.7583545698,
				"y": 1.2954689383,
				"z": 3.1266644491,
				"element": "H" 
			}
		],
		 "valence_orbital": [ 
			{
				"type": "occ",
				"energy": -0.29424,
				"method": "rhf"
			},
			{
				"type": "occ",
				"energy": -0.27471,
				"method": "rhf"
			},
			{
				"type": "occ",
				"energy": -0.25862,
				"method": "rhf"
			},
			{
				"type": "occ",
				"energy": -0.2496,
				"method": "rhf"
			},
			{
				"type": "occ",
				"energy": -0.22642,
				"method": "rhf"
			},
			{
				"type": "unocc",
				"energy": -0.08113,
				"method": "rhf"
			},
			{
				"type": "unocc",
				"energy": -0.04448,
				"method": "rhf"
			},
			{
				"type": "unocc",
				"energy": -0.02268,
				"method": "rhf"
			},
			{
				"type": "unocc",
				"energy": -0.00793,
				"method": "rhf"
			},
			{
				"type": "unocc",
				"energy": 0.03699,
				"method": "rhf"
			}
		],
		"cosmo_sigma_profile": { 
			"-0.025": 0.0,
			"-0.024": 0.0,
			"-0.023": 0.0,
			"-0.022": 0.0,
			"-0.021": 0.0,
			"-0.02": 0.0,
			"-0.019": 0.0,
			"-0.018": 0.0,
			"-0.017": 0.0,
			"-0.016": 0.0,
			"-0.015": 0.0,
			"-0.014": 0.0,
			"-0.013": 0.0,
			"-0.012": 0.0,
			"-0.011": 0.0,
			"-0.01": 0.0,
			"-0.009": 0.000517981215885,
			"-0.008": 3.95133613353,
			"-0.007": 10.4646189091,
			"-0.006": 15.5609078651,
			"-0.005": 20.6404420048,
			"-0.004": 22.4036975726,
			"-0.003": 27.5891849536,
			"-0.002": 34.0333008912,
			"-0.001": 29.2578572406,
			"0.0": 24.8582570644,
			"0.001": 20.8493113233,
			"0.002": 21.9424803779,
			"0.003": 21.1974969405,
			"0.004": 15.428427313,
			"0.005": 4.51496632197,
			"0.006": 3.41117359119,
			"0.007": 3.73494511109,
			"0.008": 5.85495668943,
			"0.009": 5.2694641013,
			"0.01": 5.45949673086,
			"0.011": 5.1833237248,
			"0.012": 5.06733125336,
			"0.013": 2.95317436979,
			"0.014": 0.2599942885,
			"0.015": 0.0,
			"0.016": 0.0,
			"0.017": 0.0,
			"0.018": 0.0,
			"0.019": 0.0,
			"0.02": 0.0,
			"0.021": 0.0,
			"0.022": 0.0,
			"0.023": 0.0,
			"0.024": 0.0,
			"0.025": 0.0
		}
	}
}
