{
	 "smiles": "CN1N=C(CC1=O)C1=CC=NC=C1", 
	 "Tm": 483.15, 
	 "num_atms": 22, 
	 "gaussian": { 
		 "optdone": 1, 
		 "sigma_profile": "yes", 
		 "theory": "DFT", 
		 "functional": "B3LYP", 
		 "basiset": "6-31G**", 
		 "properties": { 
			 "R2extent": 3223.9058, 
			 "electric_dipole_moment_norm": 0.692114109089, 
			 "electric_quadrupole_moment_norm": 15.8631670567, 
			 "total_energy": -587.8400789, 
			 "HOMO_LUMO_gap": 0.15953, 
			 "cosmo_polarized_energy": -13.12, 
			 "cosmo_cavitation_energy": 26.54, 
			 "cosmo_dispersion_energy": -19.61, 
			 "cosmo_repulsion_energy": 1.55, 
			 "cosmo_total_nonelectrostatic_energy": 8.48, 
			 "SMD_solvation_energy": 3.14 
		},
		"coords": [
			{
				"x": -2.3672612281,
				"y": 2.6474638292,
				"z": 0.7518953766,
				"element": "C" 
			},
			{
				"x": -1.741531975,
				"y": 1.4149778332,
				"z": 1.1777498834,
				"element": "N" 
			},
			{
				"x": -1.0363946905,
				"y": 0.6447580424,
				"z": 0.2793134429,
				"element": "N" 
			},
			{
				"x": -0.5772104238,
				"y": -0.3984306324,
				"z": 0.9011966968,
				"element": "C" 
			},
			{
				"x": -0.9673430495,
				"y": -0.402265556,
				"z": 2.3566178487,
				"element": "C" 
			},
			{
				"x": -1.774433424,
				"y": 0.8931550852,
				"z": 2.4620114906,
				"element": "C" 
			},
			{
				"x": -2.331075807,
				"y": 1.3878906792,
				"z": 3.4239077046,
				"element": "O" 
			},
			{
				"x": 0.2194713593,
				"y": -1.4153149658,
				"z": 0.2124379481,
				"element": "C" 
			},
			{
				"x": 0.5234168098,
				"y": -1.3071382583,
				"z": -1.1554929355,
				"element": "C" 
			},
			{
				"x": 1.2840256042,
				"y": -2.3039991503,
				"z": -1.7556986004,
				"element": "C" 
			},
			{
				"x": 1.7574701843,
				"y": -3.3820314706,
				"z": -1.1103728774,
				"element": "N" 
			},
			{
				"x": 1.4650852618,
				"y": -3.4794253719,
				"z": 0.1908434942,
				"element": "C" 
			},
			{
				"x": 0.7108237759,
				"y": -2.5387271856,
				"z": 0.8927122397,
				"element": "C" 
			},
			{
				"x": -3.1081881141,
				"y": 2.4553163829,
				"z": -0.0298923677,
				"element": "H" 
			},
			{
				"x": -1.6195090469,
				"y": 3.3498665628,
				"z": 0.3716554305,
				"element": "H" 
			},
			{
				"x": -2.8587827482,
				"y": 3.0719673955,
				"z": 1.628456608,
				"element": "H" 
			},
			{
				"x": -1.5842636044,
				"y": -1.2613349999,
				"z": 2.6415507539,
				"element": "H" 
			},
			{
				"x": -0.1108319959,
				"y": -0.375629018,
				"z": 3.0388678633,
				"element": "H" 
			},
			{
				"x": 0.1664862852,
				"y": -0.4568795191,
				"z": -1.725655302,
				"element": "H" 
			},
			{
				"x": 1.5289166754,
				"y": -2.2364895254,
				"z": -2.8141530378,
				"element": "H" 
			},
			{
				"x": 1.8529466358,
				"y": -4.3565622343,
				"z": 0.7061402859,
				"element": "H" 
			},
			{
				"x": 0.5140835158,
				"y": -2.685867923,
				"z": 1.9501080535,
				"element": "H" 
			}
		],
		 "valence_orbital": [ 
			{
				"type": "occ",
				"energy": -0.30439,
				"method": "rhf"
			},
			{
				"type": "occ",
				"energy": -0.26929,
				"method": "rhf"
			},
			{
				"type": "occ",
				"energy": -0.26322,
				"method": "rhf"
			},
			{
				"type": "occ",
				"energy": -0.25964,
				"method": "rhf"
			},
			{
				"type": "occ",
				"energy": -0.23068,
				"method": "rhf"
			},
			{
				"type": "unocc",
				"energy": -0.07115,
				"method": "rhf"
			},
			{
				"type": "unocc",
				"energy": -0.01704,
				"method": "rhf"
			},
			{
				"type": "unocc",
				"energy": -0.00013,
				"method": "rhf"
			},
			{
				"type": "unocc",
				"energy": 0.04494,
				"method": "rhf"
			},
			{
				"type": "unocc",
				"energy": 0.08712,
				"method": "rhf"
			}
		],
		"cosmo_sigma_profile": { 
			"-0.025": 0.0,
			"-0.024": 0.0,
			"-0.023": 0.0,
			"-0.022": 0.0,
			"-0.021": 0.0,
			"-0.02": 0.0,
			"-0.019": 0.0,
			"-0.018": 0.0,
			"-0.017": 0.0,
			"-0.016": 0.0,
			"-0.015": 0.0,
			"-0.014": 0.0,
			"-0.013": 0.0,
			"-0.012": 0.0,
			"-0.011": 0.0,
			"-0.01": 0.0,
			"-0.009": 1.95972925419,
			"-0.008": 7.54933082743,
			"-0.007": 10.3713129676,
			"-0.006": 16.3947039474,
			"-0.005": 17.0744026799,
			"-0.004": 16.1473948948,
			"-0.003": 17.1148766742,
			"-0.002": 14.2363794203,
			"-0.001": 11.6526864831,
			"0.0": 10.3615914608,
			"0.001": 16.1852450869,
			"0.002": 20.3502054674,
			"0.003": 7.65715378525,
			"0.004": 4.85065911189,
			"0.005": 4.77663695709,
			"0.006": 3.94756824024,
			"0.007": 4.25469906874,
			"0.008": 3.77263683421,
			"0.009": 3.59085897185,
			"0.01": 3.17937491056,
			"0.011": 3.41925168309,
			"0.012": 5.58180332517,
			"0.013": 4.45852301842,
			"0.014": 1.83487788455,
			"0.015": 0.688849096197,
			"0.016": 0.948450751009,
			"0.017": 0.289810119775,
			"0.018": 0.0,
			"0.019": 0.0,
			"0.02": 0.0,
			"0.021": 0.0,
			"0.022": 0.0,
			"0.023": 0.0,
			"0.024": 0.0,
			"0.025": 0.0
		}
	}
}
