{
	 "smiles": "NS(=O)(=O)C1=CC=C(CC(O)=O)S1", 
	 "Tm": 402.15, 
	 "num_atms": 20, 
	 "gaussian": { 
		 "optdone": 1, 
		 "sigma_profile": "yes", 
		 "theory": "DFT", 
		 "functional": "B3LYP", 
		 "basiset": "6-31G**", 
		 "properties": { 
			 "R2extent": 4129.8048, 
			 "electric_dipole_moment_norm": 7.34198677403, 
			 "electric_quadrupole_moment_norm": 16.9830419731, 
			 "total_energy": -1384.80304905, 
			 "HOMO_LUMO_gap": 0.20126, 
			 "cosmo_polarized_energy": -24.89, 
			 "cosmo_cavitation_energy": 28.26, 
			 "cosmo_dispersion_energy": -21.5, 
			 "cosmo_repulsion_energy": 1.64, 
			 "cosmo_total_nonelectrostatic_energy": 8.39, 
			 "SMD_solvation_energy": 5.43 
		},
		"coords": [
			{
				"x": -2.6425183686,
				"y": -1.4568358241,
				"z": 2.9942853367,
				"element": "N" 
			},
			{
				"x": -2.2653601425,
				"y": 0.1219743432,
				"z": 2.5656547797,
				"element": "S" 
			},
			{
				"x": -1.4300913306,
				"y": 0.6303504496,
				"z": 3.6500152796,
				"element": "O" 
			},
			{
				"x": -3.5250530564,
				"y": 0.7385288817,
				"z": 2.1592686584,
				"element": "O" 
			},
			{
				"x": -1.2548920132,
				"y": 0.0438302993,
				"z": 1.1062373723,
				"element": "C" 
			},
			{
				"x": -1.7030940692,
				"y": 0.1977188592,
				"z": -0.1800102128,
				"element": "C" 
			},
			{
				"x": -0.6587459416,
				"y": 0.023453794,
				"z": -1.1293120902,
				"element": "C" 
			},
			{
				"x": 0.5577167044,
				"y": -0.266612961,
				"z": -0.5590573778,
				"element": "C" 
			},
			{
				"x": 1.8607186046,
				"y": -0.4014606696,
				"z": -1.2927041672,
				"element": "C" 
			},
			{
				"x": 2.7721125038,
				"y": -1.5154110538,
				"z": -0.8075628616,
				"element": "C" 
			},
			{
				"x": 3.6356539493,
				"y": -1.8889608722,
				"z": -1.7760411201,
				"element": "O" 
			},
			{
				"x": 2.779108203,
				"y": -1.9907321021,
				"z": 0.3053753333,
				"element": "O" 
			},
			{
				"x": 0.4454102859,
				"y": -0.3255966048,
				"z": 1.1808220671,
				"element": "S" 
			},
			{
				"x": -1.831139505,
				"y": -1.9844789757,
				"z": 3.3011674797,
				"element": "H" 
			},
			{
				"x": -3.1872171749,
				"y": -1.9383550581,
				"z": 2.2858308942,
				"element": "H" 
			},
			{
				"x": -2.7323944715,
				"y": 0.433567998,
				"z": -0.4206240363,
				"element": "H" 
			},
			{
				"x": -0.7962258042,
				"y": 0.123846976,
				"z": -2.200616266,
				"element": "H" 
			},
			{
				"x": 2.4504836046,
				"y": 0.5236704779,
				"z": -1.2063981723,
				"element": "H" 
			},
			{
				"x": 1.6685344552,
				"y": -0.5357336482,
				"z": -2.3607034171,
				"element": "H" 
			},
			{
				"x": 4.2196935668,
				"y": -2.5598643096,
				"z": -1.3828274796,
				"element": "H" 
			}
		],
		 "valence_orbital": [ 
			{
				"type": "occ",
				"energy": -0.30816,
				"method": "rhf"
			},
			{
				"type": "occ",
				"energy": -0.30478,
				"method": "rhf"
			},
			{
				"type": "occ",
				"energy": -0.30108,
				"method": "rhf"
			},
			{
				"type": "occ",
				"energy": -0.26951,
				"method": "rhf"
			},
			{
				"type": "occ",
				"energy": -0.25038,
				"method": "rhf"
			},
			{
				"type": "unocc",
				"energy": -0.04912,
				"method": "rhf"
			},
			{
				"type": "unocc",
				"energy": -0.01255,
				"method": "rhf"
			},
			{
				"type": "unocc",
				"energy": 0.01788,
				"method": "rhf"
			},
			{
				"type": "unocc",
				"energy": 0.03464,
				"method": "rhf"
			},
			{
				"type": "unocc",
				"energy": 0.05213,
				"method": "rhf"
			}
		],
		"cosmo_sigma_profile": { 
			"-0.025": 0.0,
			"-0.024": 0.0,
			"-0.023": 0.0,
			"-0.022": 0.0,
			"-0.021": 0.0,
			"-0.02": 0.0,
			"-0.019": 0.306489094731,
			"-0.018": 1.13135500408,
			"-0.017": 0.796634145113,
			"-0.016": 0.941994910285,
			"-0.015": 3.23133069119,
			"-0.014": 3.17567210823,
			"-0.013": 3.10365913544,
			"-0.012": 3.84975360969,
			"-0.011": 3.99198587622,
			"-0.01": 2.5642342606,
			"-0.009": 4.38816875806,
			"-0.008": 10.4487465704,
			"-0.007": 10.4391303951,
			"-0.006": 9.28541453749,
			"-0.005": 9.96272396959,
			"-0.004": 10.1502640363,
			"-0.003": 8.37175169659,
			"-0.002": 7.675875494,
			"-0.001": 9.43067832971,
			"0.0": 9.17592058926,
			"0.001": 12.6085720984,
			"0.002": 15.3185661203,
			"0.003": 12.4369962067,
			"0.004": 6.93089130506,
			"0.005": 7.30851230021,
			"0.006": 6.85886402342,
			"0.007": 6.37890497025,
			"0.008": 9.67108112385,
			"0.009": 6.50937956154,
			"0.01": 12.1066076877,
			"0.011": 14.7851253311,
			"0.012": 3.48700828411,
			"0.013": 0.0106390111661,
			"0.014": 0.0,
			"0.015": 0.0,
			"0.016": 0.0,
			"0.017": 0.0,
			"0.018": 0.0,
			"0.019": 0.0,
			"0.02": 0.0,
			"0.021": 0.0,
			"0.022": 0.0,
			"0.023": 0.0,
			"0.024": 0.0,
			"0.025": 0.0
		}
	}
}
