{
	 "smiles": "CN1N=C(C)C(C=O)=C1Cl", 
	 "Tm": 351.65, 
	 "num_atms": 17, 
	 "gaussian": { 
		 "optdone": 1, 
		 "sigma_profile": "yes", 
		 "theory": "DFT", 
		 "functional": "B3LYP", 
		 "basiset": "6-31G**", 
		 "properties": { 
			 "R2extent": 2068.7535, 
			 "electric_dipole_moment_norm": 3.36421627723, 
			 "electric_quadrupole_moment_norm": 17.6062054981, 
			 "total_energy": -877.747353514, 
			 "HOMO_LUMO_gap": 0.20002, 
			 "cosmo_polarized_energy": -10.44, 
			 "cosmo_cavitation_energy": 23.29, 
			 "cosmo_dispersion_energy": -16.93, 
			 "cosmo_repulsion_energy": 1.38, 
			 "cosmo_total_nonelectrostatic_energy": 7.73, 
			 "SMD_solvation_energy": 4.17 
		},
		"coords": [
			{
				"x": -2.6282193378,
				"y": -0.0416113815,
				"z": 0.2149366992,
				"element": "C" 
			},
			{
				"x": -1.1862782507,
				"y": -0.0657763215,
				"z": 0.3954231464,
				"element": "N" 
			},
			{
				"x": -0.3953370907,
				"y": -0.6900653787,
				"z": -0.5260440789,
				"element": "N" 
			},
			{
				"x": 0.8500311513,
				"y": -0.5423003712,
				"z": -0.0884341171,
				"element": "C" 
			},
			{
				"x": 1.9927543637,
				"y": -1.1151878096,
				"z": -0.8703640694,
				"element": "C" 
			},
			{
				"x": 0.8888048831,
				"y": 0.1883320631,
				"z": 1.1380551216,
				"element": "C" 
			},
			{
				"x": 2.0611093813,
				"y": 0.5521141925,
				"z": 1.9254285646,
				"element": "C" 
			},
			{
				"x": 2.0441998716,
				"y": 1.1793402563,
				"z": 2.9709781353,
				"element": "O" 
			},
			{
				"x": -0.4549153246,
				"y": 0.4660917053,
				"z": 1.3960092231,
				"element": "C" 
			},
			{
				"x": -1.1895951734,
				"y": 1.3119561271,
				"z": 2.6964005113,
				"element": "Cl" 
			},
			{
				"x": -3.129935208,
				"y": -0.5367607859,
				"z": 1.050586888,
				"element": "H" 
			},
			{
				"x": -2.8355906752,
				"y": -0.5761467175,
				"z": -0.7105041924,
				"element": "H" 
			},
			{
				"x": -2.9903053658,
				"y": 0.9871459503,
				"z": 0.139118753,
				"element": "H" 
			},
			{
				"x": 2.5562398778,
				"y": -1.8471331587,
				"z": -0.2820226347,
				"element": "H" 
			},
			{
				"x": 1.6054014183,
				"y": -1.6132439053,
				"z": -1.761644353,
				"element": "H" 
			},
			{
				"x": 2.6947817177,
				"y": -0.3363250602,
				"z": -1.1864970368,
				"element": "H" 
			},
			{
				"x": 3.0226537614,
				"y": 0.2024705954,
				"z": 1.4892734396,
				"element": "H" 
			}
		],
		 "valence_orbital": [ 
			{
				"type": "occ",
				"energy": -0.3472,
				"method": "rhf"
			},
			{
				"type": "occ",
				"energy": -0.30248,
				"method": "rhf"
			},
			{
				"type": "occ",
				"energy": -0.2618,
				"method": "rhf"
			},
			{
				"type": "occ",
				"energy": -0.25426,
				"method": "rhf"
			},
			{
				"type": "occ",
				"energy": -0.24716,
				"method": "rhf"
			},
			{
				"type": "unocc",
				"energy": -0.04714,
				"method": "rhf"
			},
			{
				"type": "unocc",
				"energy": 0.00835,
				"method": "rhf"
			},
			{
				"type": "unocc",
				"energy": 0.02537,
				"method": "rhf"
			},
			{
				"type": "unocc",
				"energy": 0.09667,
				"method": "rhf"
			},
			{
				"type": "unocc",
				"energy": 0.09903,
				"method": "rhf"
			}
		],
		"cosmo_sigma_profile": { 
			"-0.025": 0.0,
			"-0.024": 0.0,
			"-0.023": 0.0,
			"-0.022": 0.0,
			"-0.021": 0.0,
			"-0.02": 0.0,
			"-0.019": 0.0,
			"-0.018": 0.0,
			"-0.017": 0.0,
			"-0.016": 0.0,
			"-0.015": 0.0,
			"-0.014": 0.0,
			"-0.013": 0.0,
			"-0.012": 0.0,
			"-0.011": 0.0,
			"-0.01": 0.0,
			"-0.009": 0.0,
			"-0.008": 0.225770144895,
			"-0.007": 5.54091193914,
			"-0.006": 13.8110100221,
			"-0.005": 17.6721671009,
			"-0.004": 18.7612608497,
			"-0.003": 16.2964700035,
			"-0.002": 14.4888161714,
			"-0.001": 16.8208622948,
			"0.0": 16.4246071574,
			"0.001": 13.575057012,
			"0.002": 9.62756816289,
			"0.003": 6.7712493405,
			"0.004": 3.95840353981,
			"0.005": 4.25122130727,
			"0.006": 2.57208980117,
			"0.007": 3.24111487049,
			"0.008": 3.95544594079,
			"0.009": 2.71761954923,
			"0.01": 3.68551740428,
			"0.011": 4.89588370222,
			"0.012": 5.20957616685,
			"0.013": 2.75757706907,
			"0.014": 0.64435453174,
			"0.015": 0.0,
			"0.016": 0.0,
			"0.017": 0.0,
			"0.018": 0.0,
			"0.019": 0.0,
			"0.02": 0.0,
			"0.021": 0.0,
			"0.022": 0.0,
			"0.023": 0.0,
			"0.024": 0.0,
			"0.025": 0.0
		}
	}
}
