{
	 "smiles": "BrCC1=CC=C(C=C1)C#N", 
	 "Tm": 388.15, 
	 "num_atms": 16, 
	 "gaussian": { 
		 "optdone": 1, 
		 "sigma_profile": "yes", 
		 "theory": "DFT", 
		 "functional": "B3LYP", 
		 "basiset": "6-31G**", 
		 "properties": { 
			 "R2extent": 2901.1968, 
			 "electric_dipole_moment_norm": 3.79495182842, 
			 "electric_quadrupole_moment_norm": 22.621347695, 
			 "total_energy": -2934.61149986, 
			 "HOMO_LUMO_gap": 0.19321, 
			 "cosmo_polarized_energy": -11.27, 
			 "cosmo_cavitation_energy": 23.91, 
			 "cosmo_dispersion_energy": -17.11, 
			 "cosmo_repulsion_energy": 1.4, 
			 "cosmo_total_nonelectrostatic_energy": 8.2, 
			 "SMD_solvation_energy": 4.28 
		},
		"coords": [
			{
				"x": 1.8729449914,
				"y": -1.1863828688,
				"z": -2.0221732681,
				"element": "Br" 
			},
			{
				"x": 1.8812611408,
				"y": -0.2108145841,
				"z": -0.2746633506,
				"element": "C" 
			},
			{
				"x": 0.4958839607,
				"y": 0.0339775269,
				"z": 0.2313280333,
				"element": "C" 
			},
			{
				"x": -0.1336338384,
				"y": -0.9027859424,
				"z": 1.0637526415,
				"element": "C" 
			},
			{
				"x": -1.4163102583,
				"y": -0.6754822311,
				"z": 1.5490411505,
				"element": "C" 
			},
			{
				"x": -2.0947009175,
				"y": 0.5053318746,
				"z": 1.2023334512,
				"element": "C" 
			},
			{
				"x": -1.4731183977,
				"y": 1.4484942077,
				"z": 0.3663962033,
				"element": "C" 
			},
			{
				"x": -0.1900843888,
				"y": 1.2080893253,
				"z": -0.1116289016,
				"element": "C" 
			},
			{
				"x": -3.4159097697,
				"y": 0.7490927356,
				"z": 1.7035784537,
				"element": "C" 
			},
			{
				"x": -4.4871716722,
				"y": 0.9474651626,
				"z": 2.1113026224,
				"element": "N" 
			},
			{
				"x": 2.4642835528,
				"y": -0.8460334138,
				"z": 0.3895833632,
				"element": "H" 
			},
			{
				"x": 2.4220817008,
				"y": 0.7112337521,
				"z": -0.4794920294,
				"element": "H" 
			},
			{
				"x": 0.3862369537,
				"y": -1.8185076036,
				"z": 1.3304681085,
				"element": "H" 
			},
			{
				"x": -1.8981171845,
				"y": -1.4011651071,
				"z": 2.19538943,
				"element": "H" 
			},
			{
				"x": -1.9987096531,
				"y": 2.3595668451,
				"z": 0.1014033441,
				"element": "H" 
			},
			{
				"x": 0.2857637801,
				"y": 1.9375203208,
				"z": -0.7608192521,
				"element": "H" 
			}
		],
		 "valence_orbital": [ 
			{
				"type": "occ",
				"energy": -0.33545,
				"method": "rhf"
			},
			{
				"type": "occ",
				"energy": -0.28786,
				"method": "rhf"
			},
			{
				"type": "occ",
				"energy": -0.28753,
				"method": "rhf"
			},
			{
				"type": "occ",
				"energy": -0.28023,
				"method": "rhf"
			},
			{
				"type": "occ",
				"energy": -0.26648,
				"method": "rhf"
			},
			{
				"type": "unocc",
				"energy": -0.07327,
				"method": "rhf"
			},
			{
				"type": "unocc",
				"energy": -0.03378,
				"method": "rhf"
			},
			{
				"type": "unocc",
				"energy": -0.00402,
				"method": "rhf"
			},
			{
				"type": "unocc",
				"energy": 0.03132,
				"method": "rhf"
			},
			{
				"type": "unocc",
				"energy": 0.06542,
				"method": "rhf"
			}
		],
		"cosmo_sigma_profile": { 
			"-0.025": 0.0,
			"-0.024": 0.0,
			"-0.023": 0.0,
			"-0.022": 0.0,
			"-0.021": 0.0,
			"-0.02": 0.0,
			"-0.019": 0.0,
			"-0.018": 0.0,
			"-0.017": 0.0,
			"-0.016": 0.0,
			"-0.015": 0.0,
			"-0.014": 0.0,
			"-0.013": 0.0,
			"-0.012": 0.0,
			"-0.011": 0.0,
			"-0.01": 0.0,
			"-0.009": 1.21870717711,
			"-0.008": 11.920287356,
			"-0.007": 13.9038402566,
			"-0.006": 13.0713903486,
			"-0.005": 10.1732744765,
			"-0.004": 9.84211664899,
			"-0.003": 8.19089618233,
			"-0.002": 11.3419107048,
			"-0.001": 12.8870627352,
			"0.0": 11.8588897813,
			"0.001": 14.1983188657,
			"0.002": 17.5628141929,
			"0.003": 8.78946198707,
			"0.004": 7.46066674495,
			"0.005": 10.133866048,
			"0.006": 13.2410578251,
			"0.007": 3.91333018334,
			"0.008": 3.33220581961,
			"0.009": 3.5458960024,
			"0.01": 2.96570042383,
			"0.011": 2.84740963779,
			"0.012": 2.3816573089,
			"0.013": 1.38083362176,
			"0.014": 0.0164552191602,
			"0.015": 0.0,
			"0.016": 0.0,
			"0.017": 0.0,
			"0.018": 0.0,
			"0.019": 0.0,
			"0.02": 0.0,
			"0.021": 0.0,
			"0.022": 0.0,
			"0.023": 0.0,
			"0.024": 0.0,
			"0.025": 0.0
		}
	}
}
