{
	 "smiles": "CC1C2CCC(C)CN2C2CC3C4CC=C5CC(O)CCC5(C)C4CCC3(C)C12", 
	 "Tm": 491.15, 
	 "num_atms": 72, 
	 "gaussian": { 
		 "optdone": 1, 
		 "sigma_profile": "yes", 
		 "theory": "DFT", 
		 "functional": "B3LYP", 
		 "basiset": "6-31G**", 
		 "properties": { 
			 "R2extent": 11420.3232, 
			 "electric_dipole_moment_norm": 2.48238224696, 
			 "electric_quadrupole_moment_norm": 13.2760506006, 
			 "total_energy": -1184.76295782, 
			 "HOMO_LUMO_gap": 0.22429, 
			 "cosmo_polarized_energy": -8.03, 
			 "cosmo_cavitation_energy": 58.38, 
			 "cosmo_dispersion_energy": -38.09, 
			 "cosmo_repulsion_energy": 2.78, 
			 "cosmo_total_nonelectrostatic_energy": 23.07, 
			 "SMD_solvation_energy": 7.39 
		},
		"coords": [
			{
				"x": 3.0765179947,
				"y": -2.564739707,
				"z": 1.5237622823,
				"element": "C" 
			},
			{
				"x": 2.2601748616,
				"y": -1.5929792033,
				"z": 0.6537408893,
				"element": "C" 
			},
			{
				"x": 0.7210540138,
				"y": -1.7252230695,
				"z": 0.8211643429,
				"element": "C" 
			},
			{
				"x": 0.1591586967,
				"y": -3.089734024,
				"z": 1.2406783402,
				"element": "C" 
			},
			{
				"x": -1.3514999362,
				"y": -2.9619781107,
				"z": 1.4818246269,
				"element": "C" 
			},
			{
				"x": -1.685315589,
				"y": -1.904886018,
				"z": 2.5756654905,
				"element": "C" 
			},
			{
				"x": -2.8526949804,
				"y": -1.006887764,
				"z": 2.1447506469,
				"element": "C" 
			},
			{
				"x": -0.4329515483,
				"y": -1.0791815942,
				"z": 2.9381193064,
				"element": "C" 
			},
			{
				"x": 0.3045250953,
				"y": -0.6528606909,
				"z": 1.7550792063,
				"element": "N" 
			},
			{
				"x": 1.4199518312,
				"y": 0.2662783929,
				"z": 2.0334080318,
				"element": "C" 
			},
			{
				"x": 1.0831172796,
				"y": 1.7380849462,
				"z": 1.7197551892,
				"element": "C" 
			},
			{
				"x": 1.3934288969,
				"y": 1.9248429451,
				"z": 0.2149840438,
				"element": "C" 
			},
			{
				"x": 0.1608061706,
				"y": 1.6259395511,
				"z": -0.6867423509,
				"element": "C" 
			},
			{
				"x": -0.8196859497,
				"y": 2.8109961175,
				"z": -0.6081360653,
				"element": "C" 
			},
			{
				"x": -1.9285153477,
				"y": 2.7244422261,
				"z": -1.6174521226,
				"element": "C" 
			},
			{
				"x": -1.8883654815,
				"y": 1.9735042548,
				"z": -2.7238329793,
				"element": "C" 
			},
			{
				"x": -3.0825044254,
				"y": 1.8738726647,
				"z": -3.6546372934,
				"element": "C" 
			},
			{
				"x": -3.392674099,
				"y": 0.4060957687,
				"z": -4.066363866,
				"element": "C" 
			},
			{
				"x": -4.7915202961,
				"y": 0.1800707456,
				"z": -4.2205988226,
				"element": "O" 
			},
			{
				"x": -2.7545898811,
				"y": -0.5567019602,
				"z": -3.0632338702,
				"element": "C" 
			},
			{
				"x": -1.2188786939,
				"y": -0.4061763411,
				"z": -2.9744082344,
				"element": "C" 
			},
			{
				"x": -0.7051416244,
				"y": 1.0762599417,
				"z": -3.0794548025,
				"element": "C" 
			},
			{
				"x": -0.272702649,
				"y": 1.3733650595,
				"z": -4.5400743858,
				"element": "C" 
			},
			{
				"x": 0.5358168747,
				"y": 1.3542999876,
				"z": -2.1585666938,
				"element": "C" 
			},
			{
				"x": 1.6087315082,
				"y": 0.2530522966,
				"z": -2.2394137849,
				"element": "C" 
			},
			{
				"x": 2.8777107321,
				"y": 0.6412578353,
				"z": -1.4757233403,
				"element": "C" 
			},
			{
				"x": 2.6722916684,
				"y": 1.0464061361,
				"z": 0.0000424702,
				"element": "C" 
			},
			{
				"x": 3.9093070137,
				"y": 1.8876319206,
				"z": 0.4056981448,
				"element": "C" 
			},
			{
				"x": 2.5664897092,
				"y": -0.1264257418,
				"z": 1.0597604629,
				"element": "C" 
			},
			{
				"x": 4.1482790959,
				"y": -2.3996903249,
				"z": 1.3694877613,
				"element": "H" 
			},
			{
				"x": 2.8734826421,
				"y": -2.4234519111,
				"z": 2.5916495465,
				"element": "H" 
			},
			{
				"x": 2.8657553529,
				"y": -3.6103456189,
				"z": 1.2791885448,
				"element": "H" 
			},
			{
				"x": 2.5301686759,
				"y": -1.7841198554,
				"z": -0.3905799433,
				"element": "H" 
			},
			{
				"x": 0.2670976868,
				"y": -1.5087824881,
				"z": -0.1596146328,
				"element": "H" 
			},
			{
				"x": 0.3596737577,
				"y": -3.8234650493,
				"z": 0.4509061732,
				"element": "H" 
			},
			{
				"x": 0.6531298418,
				"y": -3.4598368712,
				"z": 2.1458956942,
				"element": "H" 
			},
			{
				"x": -1.8249069969,
				"y": -2.6648970524,
				"z": 0.5363847737,
				"element": "H" 
			},
			{
				"x": -1.7817146729,
				"y": -3.9342519153,
				"z": 1.74680074,
				"element": "H" 
			},
			{
				"x": -1.982561703,
				"y": -2.43195401,
				"z": 3.4919302907,
				"element": "H" 
			},
			{
				"x": -3.7236161197,
				"y": -1.6038195788,
				"z": 1.8516167562,
				"element": "H" 
			},
			{
				"x": -2.5616467081,
				"y": -0.3876599903,
				"z": 1.2892740024,
				"element": "H" 
			},
			{
				"x": -3.1632398729,
				"y": -0.3378022931,
				"z": 2.9552334297,
				"element": "H" 
			},
			{
				"x": -0.741344437,
				"y": -0.1821170782,
				"z": 3.4890197335,
				"element": "H" 
			},
			{
				"x": 0.203039875,
				"y": -1.658661795,
				"z": 3.6370833294,
				"element": "H" 
			},
			{
				"x": 1.7345869803,
				"y": 0.1582103073,
				"z": 3.0843860372,
				"element": "H" 
			},
			{
				"x": 0.0473325221,
				"y": 1.9728963105,
				"z": 1.9821225553,
				"element": "H" 
			},
			{
				"x": 1.7218517919,
				"y": 2.3964294561,
				"z": 2.3207140941,
				"element": "H" 
			},
			{
				"x": 1.6683771634,
				"y": 2.9698066091,
				"z": 0.0145985434,
				"element": "H" 
			},
			{
				"x": -0.3511196485,
				"y": 0.7402535359,
				"z": -0.2894455823,
				"element": "H" 
			},
			{
				"x": -0.2640941654,
				"y": 3.7526794638,
				"z": -0.750657885,
				"element": "H" 
			},
			{
				"x": -1.2508991621,
				"y": 2.8810750981,
				"z": 0.3984092012,
				"element": "H" 
			},
			{
				"x": -2.8205609382,
				"y": 3.319395376,
				"z": -1.4189324386,
				"element": "H" 
			},
			{
				"x": -2.9412084916,
				"y": 2.4831409024,
				"z": -4.556618824,
				"element": "H" 
			},
			{
				"x": -3.9666560477,
				"y": 2.2799750293,
				"z": -3.1491556759,
				"element": "H" 
			},
			{
				"x": -2.9855638393,
				"y": 0.2029823093,
				"z": -5.0630937921,
				"element": "H" 
			},
			{
				"x": -5.1976097278,
				"y": 0.2877050331,
				"z": -3.349327202,
				"element": "H" 
			},
			{
				"x": -3.1937037639,
				"y": -0.3509740045,
				"z": -2.0759834265,
				"element": "H" 
			},
			{
				"x": -3.021918604,
				"y": -1.5867027052,
				"z": -3.3222189584,
				"element": "H" 
			},
			{
				"x": -0.9025179903,
				"y": -0.8395576195,
				"z": -2.0211320601,
				"element": "H" 
			},
			{
				"x": -0.743988558,
				"y": -1.0079150866,
				"z": -3.7589333774,
				"element": "H" 
			},
			{
				"x": -1.0590303783,
				"y": 1.144975727,
				"z": -5.263561288,
				"element": "H" 
			},
			{
				"x": -0.0073854133,
				"y": 2.4295732476,
				"z": -4.6580348421,
				"element": "H" 
			},
			{
				"x": 0.5993590111,
				"y": 0.7736972742,
				"z": -4.8183070464,
				"element": "H" 
			},
			{
				"x": 0.9937262256,
				"y": 2.2807319586,
				"z": -2.5436433129,
				"element": "H" 
			},
			{
				"x": 1.205601158,
				"y": -0.6841543932,
				"z": -1.8445388495,
				"element": "H" 
			},
			{
				"x": 1.8783093797,
				"y": 0.0516171953,
				"z": -3.2825568619,
				"element": "H" 
			},
			{
				"x": 3.3299816462,
				"y": 1.4967452335,
				"z": -1.9964253795,
				"element": "H" 
			},
			{
				"x": 3.6205998357,
				"y": -0.1648879121,
				"z": -1.5371075622,
				"element": "H" 
			},
			{
				"x": 3.8673059186,
				"y": 2.2023126852,
				"z": 1.4536159907,
				"element": "H" 
			},
			{
				"x": 3.9934742543,
				"y": 2.7888919574,
				"z": -0.211359139,
				"element": "H" 
			},
			{
				"x": 4.8292862405,
				"y": 1.3052930992,
				"z": 0.2749815422,
				"element": "H" 
			},
			{
				"x": 3.5155263381,
				"y": -0.135566821,
				"z": 1.6048344773,
				"element": "H" 
			}
		],
		 "valence_orbital": [ 
			{
				"type": "occ",
				"energy": -0.2708,
				"method": "rhf"
			},
			{
				"type": "occ",
				"energy": -0.26679,
				"method": "rhf"
			},
			{
				"type": "occ",
				"energy": -0.26041,
				"method": "rhf"
			},
			{
				"type": "occ",
				"energy": -0.22079,
				"method": "rhf"
			},
			{
				"type": "occ",
				"energy": -0.19197,
				"method": "rhf"
			},
			{
				"type": "unocc",
				"energy": 0.03232,
				"method": "rhf"
			},
			{
				"type": "unocc",
				"energy": 0.0588,
				"method": "rhf"
			},
			{
				"type": "unocc",
				"energy": 0.07261,
				"method": "rhf"
			},
			{
				"type": "unocc",
				"energy": 0.08266,
				"method": "rhf"
			},
			{
				"type": "unocc",
				"energy": 0.08633,
				"method": "rhf"
			}
		],
		"cosmo_sigma_profile": { 
			"-0.025": 0.0,
			"-0.024": 0.0,
			"-0.023": 0.0,
			"-0.022": 0.0,
			"-0.021": 0.0,
			"-0.02": 0.0,
			"-0.019": 0.0,
			"-0.018": 0.0,
			"-0.017": 0.0,
			"-0.016": 0.0,
			"-0.015": 0.185102569881,
			"-0.014": 0.775189247525,
			"-0.013": 0.912369443214,
			"-0.012": 1.09132963796,
			"-0.011": 0.533575620707,
			"-0.01": 1.42890093154,
			"-0.009": 0.728040616604,
			"-0.008": 1.23850167912,
			"-0.007": 0.92950871476,
			"-0.006": 1.0910217461,
			"-0.005": 2.32696145021,
			"-0.004": 5.12947580907,
			"-0.003": 20.2637840644,
			"-0.002": 63.9864938201,
			"-0.001": 106.537685702,
			"0.0": 94.7995399699,
			"0.001": 67.3625836833,
			"0.002": 34.9536808247,
			"0.003": 9.71442086043,
			"0.004": 5.57359411568,
			"0.005": 5.18304471075,
			"0.006": 4.21778278529,
			"0.007": 3.07373512403,
			"0.008": 1.94772056051,
			"0.009": 2.07354135513,
			"0.01": 1.16037793493,
			"0.011": 1.28635366359,
			"0.012": 1.32701358245,
			"0.013": 1.46966765241,
			"0.014": 2.17730926075,
			"0.015": 1.79506948619,
			"0.016": 0.0,
			"0.017": 0.0,
			"0.018": 0.0,
			"0.019": 0.0,
			"0.02": 0.0,
			"0.021": 0.0,
			"0.022": 0.0,
			"0.023": 0.0,
			"0.024": 0.0,
			"0.025": 0.0
		}
	}
}
