{
	 "smiles": "CCN(CC)S(=O)(=O)C1=CC(N)=C(O)C=C1", 
	 "Tm": 348.15, 
	 "num_atms": 32, 
	 "gaussian": { 
		 "optdone": 1, 
		 "sigma_profile": "yes", 
		 "theory": "DFT", 
		 "functional": "B3LYP", 
		 "basiset": "6-31G**", 
		 "properties": { 
			 "R2extent": 4969.5134, 
			 "electric_dipole_moment_norm": 5.16841656022, 
			 "electric_quadrupole_moment_norm": 19.4744290627, 
			 "total_energy": -1124.00333459, 
			 "HOMO_LUMO_gap": 0.2059, 
			 "cosmo_polarized_energy": -17.64, 
			 "cosmo_cavitation_energy": 35.74, 
			 "cosmo_dispersion_energy": -24.95, 
			 "cosmo_repulsion_energy": 1.94, 
			 "cosmo_total_nonelectrostatic_energy": 12.73, 
			 "SMD_solvation_energy": 5.82 
		},
		"coords": [
			{
				"x": 2.2922708851,
				"y": 1.0712065548,
				"z": 2.3521293212,
				"element": "C" 
			},
			{
				"x": 2.1834282692,
				"y": -0.1813056403,
				"z": 1.4863570193,
				"element": "C" 
			},
			{
				"x": 0.9814809004,
				"y": -0.158057338,
				"z": 0.6099734027,
				"element": "N" 
			},
			{
				"x": 0.0629360701,
				"y": -1.3069572069,
				"z": 0.7421655966,
				"element": "C" 
			},
			{
				"x": -0.7183992829,
				"y": -1.2523658268,
				"z": 2.0542892169,
				"element": "C" 
			},
			{
				"x": 1.3039579248,
				"y": 0.2948308496,
				"z": -0.9984214692,
				"element": "S" 
			},
			{
				"x": 1.4925970191,
				"y": -0.881748367,
				"z": -1.8616744345,
				"element": "O" 
			},
			{
				"x": 2.3559242251,
				"y": 1.315986742,
				"z": -0.9126996588,
				"element": "O" 
			},
			{
				"x": -0.2321148853,
				"y": 1.0695644205,
				"z": -1.4816236223,
				"element": "C" 
			},
			{
				"x": -0.6145038851,
				"y": 2.2697724533,
				"z": -0.8720490321,
				"element": "C" 
			},
			{
				"x": -1.7834154111,
				"y": 2.9002489887,
				"z": -1.2780056963,
				"element": "C" 
			},
			{
				"x": -2.2998906158,
				"y": 4.1337490265,
				"z": -0.7393354829,
				"element": "N" 
			},
			{
				"x": -2.572590284,
				"y": 2.3232618296,
				"z": -2.3002700922,
				"element": "C" 
			},
			{
				"x": -3.7110837791,
				"y": 2.9384353436,
				"z": -2.6716856861,
				"element": "O" 
			},
			{
				"x": -2.1748529896,
				"y": 1.1306694989,
				"z": -2.9141442088,
				"element": "C" 
			},
			{
				"x": -0.9993513411,
				"y": 0.5069395944,
				"z": -2.505551748,
				"element": "C" 
			},
			{
				"x": 3.1618668072,
				"y": 1.0008613393,
				"z": 3.0151121645,
				"element": "H" 
			},
			{
				"x": 1.3975871169,
				"y": 1.2005456301,
				"z": 2.9692885656,
				"element": "H" 
			},
			{
				"x": 2.4142450152,
				"y": 1.9547606497,
				"z": 1.7211884596,
				"element": "H" 
			},
			{
				"x": 2.1011696507,
				"y": -1.0742460027,
				"z": 2.1142538689,
				"element": "H" 
			},
			{
				"x": 3.0928385957,
				"y": -0.3013459478,
				"z": 0.889496163,
				"element": "H" 
			},
			{
				"x": -0.6419226472,
				"y": -1.2710742306,
				"z": -0.0928846907,
				"element": "H" 
			},
			{
				"x": 0.6112162111,
				"y": -2.2555319226,
				"z": 0.6512303039,
				"element": "H" 
			},
			{
				"x": -1.4039732991,
				"y": -2.1038165654,
				"z": 2.1157296028,
				"element": "H" 
			},
			{
				"x": -0.0586240314,
				"y": -1.2962181725,
				"z": 2.9264576211,
				"element": "H" 
			},
			{
				"x": -1.3026215278,
				"y": -0.329657527,
				"z": 2.1157007547,
				"element": "H" 
			},
			{
				"x": 0.0017488139,
				"y": 2.705109073,
				"z": -0.0914296638,
				"element": "H" 
			},
			{
				"x": -1.7107662723,
				"y": 4.924935193,
				"z": -0.9880782079,
				"element": "H" 
			},
			{
				"x": -2.3599945529,
				"y": 4.1058683351,
				"z": 0.2745617924,
				"element": "H" 
			},
			{
				"x": -3.7708212636,
				"y": 3.7156372773,
				"z": -2.0756716491,
				"element": "H" 
			},
			{
				"x": -2.7918501843,
				"y": 0.7107285615,
				"z": -3.7009569212,
				"element": "H" 
			},
			{
				"x": -0.6639912516,
				"y": -0.4121866134,
				"z": -2.973251589,
				"element": "H" 
			}
		],
		 "valence_orbital": [ 
			{
				"type": "occ",
				"energy": -0.29351,
				"method": "rhf"
			},
			{
				"type": "occ",
				"energy": -0.28508,
				"method": "rhf"
			},
			{
				"type": "occ",
				"energy": -0.2669,
				"method": "rhf"
			},
			{
				"type": "occ",
				"energy": -0.24865,
				"method": "rhf"
			},
			{
				"type": "occ",
				"energy": -0.23094,
				"method": "rhf"
			},
			{
				"type": "unocc",
				"energy": -0.02504,
				"method": "rhf"
			},
			{
				"type": "unocc",
				"energy": -0.01856,
				"method": "rhf"
			},
			{
				"type": "unocc",
				"energy": 0.05858,
				"method": "rhf"
			},
			{
				"type": "unocc",
				"energy": 0.06533,
				"method": "rhf"
			},
			{
				"type": "unocc",
				"energy": 0.08069,
				"method": "rhf"
			}
		],
		"cosmo_sigma_profile": { 
			"-0.025": 0.0,
			"-0.024": 0.0,
			"-0.023": 0.0,
			"-0.022": 0.0,
			"-0.021": 0.0,
			"-0.02": 0.0,
			"-0.019": 0.0,
			"-0.018": 0.0,
			"-0.017": 0.0,
			"-0.016": 0.0,
			"-0.015": 0.0,
			"-0.014": 0.0,
			"-0.013": 0.332351390132,
			"-0.012": 2.86784141697,
			"-0.011": 2.76361752756,
			"-0.01": 4.2394259688,
			"-0.009": 3.19729717219,
			"-0.008": 3.56739243905,
			"-0.007": 6.26870323245,
			"-0.006": 8.19332491352,
			"-0.005": 12.6463573592,
			"-0.004": 20.8977831708,
			"-0.003": 27.7456632179,
			"-0.002": 29.2467236228,
			"-0.001": 22.9621272058,
			"0.0": 24.1479356456,
			"0.001": 21.800466196,
			"0.002": 18.5319261785,
			"0.003": 13.145533304,
			"0.004": 9.57317763235,
			"0.005": 5.16073065028,
			"0.006": 4.9666602366,
			"0.007": 5.17484813394,
			"0.008": 4.67799328558,
			"0.009": 4.64603055229,
			"0.01": 6.5945170804,
			"0.011": 9.75833847963,
			"0.012": 7.0006690159,
			"0.013": 0.764006745673,
			"0.014": 0.0,
			"0.015": 0.0,
			"0.016": 0.0,
			"0.017": 0.0,
			"0.018": 0.0,
			"0.019": 0.0,
			"0.02": 0.0,
			"0.021": 0.0,
			"0.022": 0.0,
			"0.023": 0.0,
			"0.024": 0.0,
			"0.025": 0.0
		}
	}
}
