{
	 "smiles": "CN1C(=O)N(CC(O)=O)C(=O)C11CCCCC1", 
	 "Tm": 494.15, 
	 "num_atms": 33, 
	 "gaussian": { 
		 "optdone": 1, 
		 "sigma_profile": "yes", 
		 "theory": "DFT", 
		 "functional": "B3LYP", 
		 "basiset": "6-31G**", 
		 "properties": { 
			 "R2extent": 4961.2781, 
			 "electric_dipole_moment_norm": 1.57720831218, 
			 "electric_quadrupole_moment_norm": 16.6917713847, 
			 "total_energy": -839.277723074, 
			 "HOMO_LUMO_gap": 0.23972, 
			 "cosmo_polarized_energy": -16.9, 
			 "cosmo_cavitation_energy": 34.63, 
			 "cosmo_dispersion_energy": -24.08, 
			 "cosmo_repulsion_energy": 1.86, 
			 "cosmo_total_nonelectrostatic_energy": 12.4, 
			 "SMD_solvation_energy": 7.6 
		},
		"coords": [
			{
				"x": 1.152033995,
				"y": 0.5683180406,
				"z": 1.6204848604,
				"element": "C" 
			},
			{
				"x": 0.114162384,
				"y": 0.5851286512,
				"z": 0.6103715432,
				"element": "N" 
			},
			{
				"x": -1.1902851626,
				"y": 0.8363083565,
				"z": 0.9303086494,
				"element": "C" 
			},
			{
				"x": -1.6802131585,
				"y": 1.0660853903,
				"z": 2.0221797603,
				"element": "O" 
			},
			{
				"x": -1.9244740956,
				"y": 0.7516599376,
				"z": -0.2764874238,
				"element": "N" 
			},
			{
				"x": -3.3102521774,
				"y": 1.120502477,
				"z": -0.3690517342,
				"element": "C" 
			},
			{
				"x": -3.4654416984,
				"y": 2.5913259734,
				"z": -0.7425692053,
				"element": "C" 
			},
			{
				"x": -4.7710784022,
				"y": 2.9153590882,
				"z": -0.8474924252,
				"element": "O" 
			},
			{
				"x": -2.5600240334,
				"y": 3.3711254324,
				"z": -0.9211832281,
				"element": "O" 
			},
			{
				"x": -1.1159787504,
				"y": 0.4912745021,
				"z": -1.3593788405,
				"element": "C" 
			},
			{
				"x": -1.4876939155,
				"y": 0.3491889622,
				"z": -2.5098000605,
				"element": "O" 
			},
			{
				"x": 0.3287472672,
				"y": 0.4320143861,
				"z": -0.8376099606,
				"element": "C" 
			},
			{
				"x": 1.1113676073,
				"y": 1.6459214168,
				"z": -1.4234053781,
				"element": "C" 
			},
			{
				"x": 1.6873002815,
				"y": 1.3178009034,
				"z": -2.8062313808,
				"element": "C" 
			},
			{
				"x": 2.7416518712,
				"y": 0.1856575873,
				"z": -2.7275913634,
				"element": "C" 
			},
			{
				"x": 2.4965507834,
				"y": -0.758846268,
				"z": -1.5280422923,
				"element": "C" 
			},
			{
				"x": 0.9981677974,
				"y": -0.9131379062,
				"z": -1.2355817288,
				"element": "C" 
			},
			{
				"x": 0.6695237013,
				"y": 0.7303017746,
				"z": 2.5853818877,
				"element": "H" 
			},
			{
				"x": 1.8895523057,
				"y": 1.3626985601,
				"z": 1.4584653743,
				"element": "H" 
			},
			{
				"x": 1.6727884897,
				"y": -0.3955738604,
				"z": 1.6395342161,
				"element": "H" 
			},
			{
				"x": -3.7860948664,
				"y": 0.945676834,
				"z": 0.599344969,
				"element": "H" 
			},
			{
				"x": -3.8064852661,
				"y": 0.5074161497,
				"z": -1.1261262835,
				"element": "H" 
			},
			{
				"x": -4.8060077018,
				"y": 3.8575949611,
				"z": -1.0835308854,
				"element": "H" 
			},
			{
				"x": 1.9254483872,
				"y": 1.8972683135,
				"z": -0.7328218136,
				"element": "H" 
			},
			{
				"x": 0.4483612383,
				"y": 2.5164671651,
				"z": -1.4581204121,
				"element": "H" 
			},
			{
				"x": 0.8604330588,
				"y": 1.0238595634,
				"z": -3.4604648277,
				"element": "H" 
			},
			{
				"x": 2.128044293,
				"y": 2.2182906313,
				"z": -3.2465798695,
				"element": "H" 
			},
			{
				"x": 2.7233974418,
				"y": -0.3897429319,
				"z": -3.6601700054,
				"element": "H" 
			},
			{
				"x": 3.7490445746,
				"y": 0.6106606135,
				"z": -2.6486259856,
				"element": "H" 
			},
			{
				"x": 3.0049522254,
				"y": -0.369939674,
				"z": -0.6369540739,
				"element": "H" 
			},
			{
				"x": 2.9390756299,
				"y": -1.7420057546,
				"z": -1.7216781374,
				"element": "H" 
			},
			{
				"x": 0.4933711777,
				"y": -1.2810274409,
				"z": -2.1361778795,
				"element": "H" 
			},
			{
				"x": 0.8164547178,
				"y": -1.6494318354,
				"z": -0.4453960653,
				"element": "H" 
			}
		],
		 "valence_orbital": [ 
			{
				"type": "occ",
				"energy": -0.29229,
				"method": "rhf"
			},
			{
				"type": "occ",
				"energy": -0.28579,
				"method": "rhf"
			},
			{
				"type": "occ",
				"energy": -0.27443,
				"method": "rhf"
			},
			{
				"type": "occ",
				"energy": -0.25816,
				"method": "rhf"
			},
			{
				"type": "occ",
				"energy": -0.24473,
				"method": "rhf"
			},
			{
				"type": "unocc",
				"energy": -0.00501,
				"method": "rhf"
			},
			{
				"type": "unocc",
				"energy": 0.00243,
				"method": "rhf"
			},
			{
				"type": "unocc",
				"energy": 0.0551,
				"method": "rhf"
			},
			{
				"type": "unocc",
				"energy": 0.0694,
				"method": "rhf"
			},
			{
				"type": "unocc",
				"energy": 0.07494,
				"method": "rhf"
			}
		],
		"cosmo_sigma_profile": { 
			"-0.025": 0.0,
			"-0.024": 0.0,
			"-0.023": 0.0,
			"-0.022": 0.0,
			"-0.021": 0.0,
			"-0.02": 0.0,
			"-0.019": 0.57707141919,
			"-0.018": 0.958593552177,
			"-0.017": 0.955997827609,
			"-0.016": 0.694812049161,
			"-0.015": 0.668767030574,
			"-0.014": 1.07249506427,
			"-0.013": 0.461682312054,
			"-0.012": 0.435039686247,
			"-0.011": 0.937933197893,
			"-0.01": 0.516316811413,
			"-0.009": 1.25873225022,
			"-0.008": 3.74507722519,
			"-0.007": 4.3010423189,
			"-0.006": 7.45387344272,
			"-0.005": 13.8624645107,
			"-0.004": 18.1214121387,
			"-0.003": 28.4424606506,
			"-0.002": 37.047347023,
			"-0.001": 36.0760903863,
			"0.0": 21.2152736913,
			"0.001": 15.1286890932,
			"0.002": 8.66690055755,
			"0.003": 8.1332109947,
			"0.004": 6.57282695856,
			"0.005": 6.2826388592,
			"0.006": 6.1873175208,
			"0.007": 4.84146189691,
			"0.008": 5.9029241783,
			"0.009": 5.26002166424,
			"0.01": 5.8872110462,
			"0.011": 7.32414645992,
			"0.012": 7.65455277351,
			"0.013": 3.90135917571,
			"0.014": 0.0,
			"0.015": 0.0,
			"0.016": 0.0,
			"0.017": 0.0,
			"0.018": 0.0,
			"0.019": 0.0,
			"0.02": 0.0,
			"0.021": 0.0,
			"0.022": 0.0,
			"0.023": 0.0,
			"0.024": 0.0,
			"0.025": 0.0
		}
	}
}
