{
	 "smiles": "OC(=O)CCC(=O)N1CCN(CC1)S(=O)(=O)C1=CC=CC=C1", 
	 "Tm": 429.15, 
	 "num_atms": 40, 
	 "gaussian": { 
		 "optdone": 1, 
		 "sigma_profile": "yes", 
		 "theory": "DFT", 
		 "functional": "B3LYP", 
		 "basiset": "6-31G**", 
		 "properties": { 
			 "R2extent": 9429.9452, 
			 "electric_dipole_moment_norm": 3.01452363235, 
			 "electric_quadrupole_moment_norm": 30.0719399228, 
			 "total_energy": -1428.1013888, 
			 "HOMO_LUMO_gap": 0.20286, 
			 "cosmo_polarized_energy": -25.29, 
			 "cosmo_cavitation_energy": 44.2, 
			 "cosmo_dispersion_energy": -30.77, 
			 "cosmo_repulsion_energy": 2.34, 
			 "cosmo_total_nonelectrostatic_energy": 15.77, 
			 "SMD_solvation_energy": 6.62 
		},
		"coords": [
			{
				"x": 4.5861022804,
				"y": -3.8515535648,
				"z": -2.6378031682,
				"element": "O" 
			},
			{
				"x": 3.3176400988,
				"y": -3.4590609172,
				"z": -2.3845081229,
				"element": "C" 
			},
			{
				"x": 2.8774834479,
				"y": -2.3903364016,
				"z": -2.7507032875,
				"element": "O" 
			},
			{
				"x": 2.5338081232,
				"y": -4.5289992882,
				"z": -1.653641121,
				"element": "C" 
			},
			{
				"x": 1.2820635654,
				"y": -3.9558847442,
				"z": -0.9971946858,
				"element": "C" 
			},
			{
				"x": 1.6478993752,
				"y": -3.0757476822,
				"z": 0.19843073,
				"element": "C" 
			},
			{
				"x": 2.8120201291,
				"y": -2.9688100515,
				"z": 0.5774334995,
				"element": "O" 
			},
			{
				"x": 0.6106745328,
				"y": -2.4330881746,
				"z": 0.8274998031,
				"element": "N" 
			},
			{
				"x": -0.7891167659,
				"y": -2.5274370436,
				"z": 0.3948896649,
				"element": "C" 
			},
			{
				"x": -1.6665963225,
				"y": -1.5948702992,
				"z": 1.232407466,
				"element": "C" 
			},
			{
				"x": -1.0586405391,
				"y": -0.2584087782,
				"z": 1.2254970153,
				"element": "N" 
			},
			{
				"x": 0.3173564976,
				"y": -0.165145256,
				"z": 1.7692059248,
				"element": "C" 
			},
			{
				"x": 0.8956905419,
				"y": -1.5695997871,
				"z": 1.9707617206,
				"element": "C" 
			},
			{
				"x": -2.0696008004,
				"y": 1.0690631693,
				"z": 1.4988067801,
				"element": "S" 
			},
			{
				"x": -3.4130243313,
				"y": 0.6426697478,
				"z": 1.0913228191,
				"element": "O" 
			},
			{
				"x": -1.8298636257,
				"y": 1.6270168745,
				"z": 2.8366726531,
				"element": "O" 
			},
			{
				"x": -1.4555315923,
				"y": 2.2630387891,
				"z": 0.3078013447,
				"element": "C" 
			},
			{
				"x": -0.6825108506,
				"y": 3.3363118398,
				"z": 0.7513642853,
				"element": "C" 
			},
			{
				"x": -0.2155119058,
				"y": 4.2637307467,
				"z": -0.1826339221,
				"element": "C" 
			},
			{
				"x": -0.5268691462,
				"y": 4.1133670156,
				"z": -1.5346147564,
				"element": "C" 
			},
			{
				"x": -1.311682512,
				"y": 3.0380468434,
				"z": -1.9631426711,
				"element": "C" 
			},
			{
				"x": -1.7824453434,
				"y": 2.1051996723,
				"z": -1.0418181148,
				"element": "C" 
			},
			{
				"x": 5.0037608812,
				"y": -3.1184135904,
				"z": -3.12025043,
				"element": "H" 
			},
			{
				"x": 2.2611145433,
				"y": -5.2947851982,
				"z": -2.3905950135,
				"element": "H" 
			},
			{
				"x": 3.1884495241,
				"y": -4.9999669669,
				"z": -0.9179456072,
				"element": "H" 
			},
			{
				"x": 0.7208242066,
				"y": -3.367900318,
				"z": -1.7304738133,
				"element": "H" 
			},
			{
				"x": 0.6229781884,
				"y": -4.7669890478,
				"z": -0.6637474448,
				"element": "H" 
			},
			{
				"x": -0.8769556036,
				"y": -2.2384144289,
				"z": -0.6585560778,
				"element": "H" 
			},
			{
				"x": -1.1681326189,
				"y": -3.5538789134,
				"z": 0.4965978807,
				"element": "H" 
			},
			{
				"x": -2.6579930092,
				"y": -1.5265234582,
				"z": 0.7849352029,
				"element": "H" 
			},
			{
				"x": -1.7917205414,
				"y": -1.988460989,
				"z": 2.2511470562,
				"element": "H" 
			},
			{
				"x": 0.3214219216,
				"y": 0.3633542608,
				"z": 2.7295544451,
				"element": "H" 
			},
			{
				"x": 0.9351311492,
				"y": 0.3969902866,
				"z": 1.060073727,
				"element": "H" 
			},
			{
				"x": 0.4940736811,
				"y": -2.0156863611,
				"z": 2.8893728934,
				"element": "H" 
			},
			{
				"x": 1.9796063139,
				"y": -1.5191686053,
				"z": 2.0733370372,
				"element": "H" 
			},
			{
				"x": -0.4686261781,
				"y": 3.4416664555,
				"z": 1.8090738567,
				"element": "H" 
			},
			{
				"x": 0.3864839935,
				"y": 5.1042987694,
				"z": 0.1488266357,
				"element": "H" 
			},
			{
				"x": -0.1624862215,
				"y": 4.8373281553,
				"z": -2.2574747319,
				"element": "H" 
			},
			{
				"x": -1.5592276089,
				"y": 2.9290879888,
				"z": -3.0146232318,
				"element": "H" 
			},
			{
				"x": -2.4038474786,
				"y": 1.2735592505,
				"z": -1.3556862415,
				"element": "H" 
			}
		],
		 "valence_orbital": [ 
			{
				"type": "occ",
				"energy": -0.27357,
				"method": "rhf"
			},
			{
				"type": "occ",
				"energy": -0.27126,
				"method": "rhf"
			},
			{
				"type": "occ",
				"energy": -0.25536,
				"method": "rhf"
			},
			{
				"type": "occ",
				"energy": -0.24988,
				"method": "rhf"
			},
			{
				"type": "occ",
				"energy": -0.24263,
				"method": "rhf"
			},
			{
				"type": "unocc",
				"energy": -0.03977,
				"method": "rhf"
			},
			{
				"type": "unocc",
				"energy": -0.02103,
				"method": "rhf"
			},
			{
				"type": "unocc",
				"energy": 0.01554,
				"method": "rhf"
			},
			{
				"type": "unocc",
				"energy": 0.02373,
				"method": "rhf"
			},
			{
				"type": "unocc",
				"energy": 0.05403,
				"method": "rhf"
			}
		],
		"cosmo_sigma_profile": { 
			"-0.025": 0.0,
			"-0.024": 0.0,
			"-0.023": 0.0,
			"-0.022": 0.0,
			"-0.021": 0.0,
			"-0.02": 0.0,
			"-0.019": 0.0,
			"-0.018": 0.383302030125,
			"-0.017": 1.09030382916,
			"-0.016": 1.06628414668,
			"-0.015": 0.635744848918,
			"-0.014": 0.549932676908,
			"-0.013": 0.91137427854,
			"-0.012": 0.510802452109,
			"-0.011": 0.594278499168,
			"-0.01": 1.1971490698,
			"-0.009": 0.65622557851,
			"-0.008": 0.32669842211,
			"-0.007": 12.9853906463,
			"-0.006": 32.1462239579,
			"-0.005": 41.5176039356,
			"-0.004": 31.6774193288,
			"-0.003": 26.5064788837,
			"-0.002": 21.2647538032,
			"-0.001": 17.3757995617,
			"0.0": 15.3410346563,
			"0.001": 16.3768311703,
			"0.002": 18.7598328646,
			"0.003": 19.9478020738,
			"0.004": 9.27903885031,
			"0.005": 7.92388169456,
			"0.006": 6.48814670139,
			"0.007": 7.89533366139,
			"0.008": 9.00112122846,
			"0.009": 8.4896532646,
			"0.01": 10.6455772618,
			"0.011": 12.1024449192,
			"0.012": 9.62487784265,
			"0.013": 3.78658872002,
			"0.014": 1.87855470124,
			"0.015": 0.0,
			"0.016": 0.0,
			"0.017": 0.0,
			"0.018": 0.0,
			"0.019": 0.0,
			"0.02": 0.0,
			"0.021": 0.0,
			"0.022": 0.0,
			"0.023": 0.0,
			"0.024": 0.0,
			"0.025": 0.0
		}
	}
}
