{
	 "smiles": "CCOC1=CC=C(Br)C=N1", 
	 "Tm": 307.15, 
	 "num_atms": 18, 
	 "gaussian": { 
		 "optdone": 1, 
		 "sigma_profile": "yes", 
		 "theory": "DFT", 
		 "functional": "B3LYP", 
		 "basiset": "6-31G**", 
		 "properties": { 
			 "R2extent": 4208.4033, 
			 "electric_dipole_moment_norm": 1.64462686954, 
			 "electric_quadrupole_moment_norm": 4.50805778135, 
			 "total_energy": -2972.94488028, 
			 "HOMO_LUMO_gap": 0.19757, 
			 "cosmo_polarized_energy": -5.09, 
			 "cosmo_cavitation_energy": 24.43, 
			 "cosmo_dispersion_energy": -18.69, 
			 "cosmo_repulsion_energy": 1.54, 
			 "cosmo_total_nonelectrostatic_energy": 7.28, 
			 "SMD_solvation_energy": 2.67 
		},
		"coords": [
			{
				"x": 2.5568841306,
				"y": -2.6521723866,
				"z": 0.6675966555,
				"element": "C" 
			},
			{
				"x": 1.912899992,
				"y": -1.4933143369,
				"z": -0.0710741164,
				"element": "C" 
			},
			{
				"x": 1.2359756913,
				"y": -0.687427402,
				"z": 0.9119626069,
				"element": "O" 
			},
			{
				"x": 0.5844648068,
				"y": 0.4115699799,
				"z": 0.4816989196,
				"element": "C" 
			},
			{
				"x": -0.0704628379,
				"y": 1.1854356035,
				"z": 1.4599940867,
				"element": "C" 
			},
			{
				"x": -0.7477007113,
				"y": 2.3199599828,
				"z": 1.0475763766,
				"element": "C" 
			},
			{
				"x": -0.7484479551,
				"y": 2.6410245773,
				"z": -0.3152367902,
				"element": "C" 
			},
			{
				"x": -1.6627527576,
				"y": 4.1907324246,
				"z": -0.9481540882,
				"element": "Br" 
			},
			{
				"x": -0.0737949649,
				"y": 1.8161423348,
				"z": -1.2054547742,
				"element": "C" 
			},
			{
				"x": 0.5845942857,
				"y": 0.7152516957,
				"z": -0.8133407287,
				"element": "N" 
			},
			{
				"x": 3.0861578175,
				"y": -3.2962400177,
				"z": -0.0414757896,
				"element": "H" 
			},
			{
				"x": 1.802845601,
				"y": -3.2535469937,
				"z": 1.1835012206,
				"element": "H" 
			},
			{
				"x": 3.2756698183,
				"y": -2.2913867302,
				"z": 1.408920927,
				"element": "H" 
			},
			{
				"x": 1.1895641541,
				"y": -1.8363078326,
				"z": -0.8188061275,
				"element": "H" 
			},
			{
				"x": 2.6539759415,
				"y": -0.879591806,
				"z": -0.5946265471,
				"element": "H" 
			},
			{
				"x": -0.0334547074,
				"y": 0.8844845885,
				"z": 2.5006826822,
				"element": "H" 
			},
			{
				"x": -1.2676258356,
				"y": 2.9490366255,
				"z": 1.7616697563,
				"element": "H" 
			},
			{
				"x": -0.0591924689,
				"y": 2.0431496932,
				"z": -2.2681342694,
				"element": "H" 
			}
		],
		 "valence_orbital": [ 
			{
				"type": "occ",
				"energy": -0.30634,
				"method": "rhf"
			},
			{
				"type": "occ",
				"energy": -0.29438,
				"method": "rhf"
			},
			{
				"type": "occ",
				"energy": -0.28675,
				"method": "rhf"
			},
			{
				"type": "occ",
				"energy": -0.27139,
				"method": "rhf"
			},
			{
				"type": "occ",
				"energy": -0.22907,
				"method": "rhf"
			},
			{
				"type": "unocc",
				"energy": -0.0315,
				"method": "rhf"
			},
			{
				"type": "unocc",
				"energy": -0.00786,
				"method": "rhf"
			},
			{
				"type": "unocc",
				"energy": 0.00637,
				"method": "rhf"
			},
			{
				"type": "unocc",
				"energy": 0.10372,
				"method": "rhf"
			},
			{
				"type": "unocc",
				"energy": 0.114,
				"method": "rhf"
			}
		],
		"cosmo_sigma_profile": { 
			"-0.025": 0.0,
			"-0.024": 0.0,
			"-0.023": 0.0,
			"-0.022": 0.0,
			"-0.021": 0.0,
			"-0.02": 0.0,
			"-0.019": 0.0,
			"-0.018": 0.0,
			"-0.017": 0.0,
			"-0.016": 0.0,
			"-0.015": 0.0,
			"-0.014": 0.0,
			"-0.013": 0.0,
			"-0.012": 0.0,
			"-0.011": 0.0,
			"-0.01": 0.0,
			"-0.009": 0.0203387721208,
			"-0.008": 2.31180963015,
			"-0.007": 5.7759100912,
			"-0.006": 4.61992532957,
			"-0.005": 7.40805936775,
			"-0.004": 16.3828880816,
			"-0.003": 18.2210817385,
			"-0.002": 16.4311717441,
			"-0.001": 16.6103439005,
			"0.0": 23.3938344867,
			"0.001": 23.8921366421,
			"0.002": 16.2979858267,
			"0.003": 11.2191969327,
			"0.004": 15.0384655424,
			"0.005": 7.20594709187,
			"0.006": 2.73792502209,
			"0.007": 2.96227140602,
			"0.008": 2.34012709284,
			"0.009": 2.01144194951,
			"0.01": 1.67572014548,
			"0.011": 0.480259147926,
			"0.012": 0.693774078864,
			"0.013": 0.211142135345,
			"0.014": 0.0,
			"0.015": 0.0,
			"0.016": 0.0,
			"0.017": 0.0,
			"0.018": 0.0,
			"0.019": 0.0,
			"0.02": 0.0,
			"0.021": 0.0,
			"0.022": 0.0,
			"0.023": 0.0,
			"0.024": 0.0,
			"0.025": 0.0
		}
	}
}
