{
	 "smiles": "FC(F)(F)C1=C(NNC2=CC=C3C=CC=CC3=C2)C(=O)N=C2C=CC=CC2=N1", 
	 "Tm": 424.15, 
	 "num_atms": 41, 
	 "gaussian": { 
		 "optdone": 1, 
		 "sigma_profile": "yes", 
		 "theory": "DFT", 
		 "functional": "B3LYP", 
		 "basiset": "6-31G**", 
		 "properties": { 
			 "R2extent": 14156.2559, 
			 "electric_dipole_moment_norm": 2.94295719643, 
			 "electric_quadrupole_moment_norm": 23.9644706941, 
			 "total_energy": -1363.64588857, 
			 "HOMO_LUMO_gap": 0.09693, 
			 "cosmo_polarized_energy": -18.83, 
			 "cosmo_cavitation_energy": 46.89, 
			 "cosmo_dispersion_energy": -33.19, 
			 "cosmo_repulsion_energy": 2.37, 
			 "cosmo_total_nonelectrostatic_energy": 16.06, 
			 "SMD_solvation_energy": 6.82 
		},
		"coords": [
			{
				"x": -3.2390658753,
				"y": -1.5160249917,
				"z": -0.1484622046,
				"element": "F" 
			},
			{
				"x": -2.1276919729,
				"y": -2.3220409497,
				"z": -0.2925392474,
				"element": "C" 
			},
			{
				"x": -2.5681860926,
				"y": -3.5743096252,
				"z": -0.3062317798,
				"element": "F" 
			},
			{
				"x": -1.6205183684,
				"y": -2.0433228771,
				"z": -1.5147030323,
				"element": "F" 
			},
			{
				"x": -1.1068534526,
				"y": -2.0597445007,
				"z": 0.8136058872,
				"element": "C" 
			},
			{
				"x": -0.2936816721,
				"y": -0.882679871,
				"z": 0.7533636392,
				"element": "C" 
			},
			{
				"x": -0.4478709799,
				"y": 0.1769730589,
				"z": -0.030742742,
				"element": "N" 
			},
			{
				"x": -1.513953783,
				"y": 0.6462350308,
				"z": -0.7433955305,
				"element": "N" 
			},
			{
				"x": -1.2898866836,
				"y": 1.1298497966,
				"z": -2.0487773219,
				"element": "C" 
			},
			{
				"x": -2.4168787241,
				"y": 1.6718153227,
				"z": -2.7284171033,
				"element": "C" 
			},
			{
				"x": -2.2700963093,
				"y": 2.2061144026,
				"z": -3.9828297162,
				"element": "C" 
			},
			{
				"x": -1.0005325514,
				"y": 2.2511290951,
				"z": -4.6233021762,
				"element": "C" 
			},
			{
				"x": -0.8212172241,
				"y": 2.8072329451,
				"z": -5.9160618763,
				"element": "C" 
			},
			{
				"x": 0.4232414259,
				"y": 2.8300579788,
				"z": -6.5068342313,
				"element": "C" 
			},
			{
				"x": 1.5427103958,
				"y": 2.293962025,
				"z": -5.8255654925,
				"element": "C" 
			},
			{
				"x": 1.4011535609,
				"y": 1.7470424824,
				"z": -4.5692620218,
				"element": "C" 
			},
			{
				"x": 0.1317277857,
				"y": 1.7109065737,
				"z": -3.9316864587,
				"element": "C" 
			},
			{
				"x": -0.0426169767,
				"y": 1.143231424,
				"z": -2.641347465,
				"element": "C" 
			},
			{
				"x": 1.0068017011,
				"y": -0.6728265511,
				"z": 1.5422812478,
				"element": "C" 
			},
			{
				"x": 1.7149088942,
				"y": 0.2496201466,
				"z": 1.0916787678,
				"element": "O" 
			},
			{
				"x": 1.3335668831,
				"y": -1.3324232699,
				"z": 2.6558232492,
				"element": "N" 
			},
			{
				"x": 0.7664488692,
				"y": -2.387353345,
				"z": 3.2548473941,
				"element": "C" 
			},
			{
				"x": 1.3724380347,
				"y": -2.7570064012,
				"z": 4.5009771005,
				"element": "C" 
			},
			{
				"x": 0.957329756,
				"y": -3.8458894539,
				"z": 5.2246256156,
				"element": "C" 
			},
			{
				"x": -0.1038178323,
				"y": -4.6673277701,
				"z": 4.7571082802,
				"element": "C" 
			},
			{
				"x": -0.7219788519,
				"y": -4.3534061873,
				"z": 3.5758293719,
				"element": "C" 
			},
			{
				"x": -0.340553306,
				"y": -3.2106066429,
				"z": 2.800775652,
				"element": "C" 
			},
			{
				"x": -1.0854807111,
				"y": -3.0249323499,
				"z": 1.6978575328,
				"element": "N" 
			},
			{
				"x": 0.3832657331,
				"y": 0.7938314062,
				"z": 0.073750328,
				"element": "H" 
			},
			{
				"x": -2.3819042109,
				"y": 0.1557019215,
				"z": -0.5696228907,
				"element": "H" 
			},
			{
				"x": -3.387294564,
				"y": 1.6639616396,
				"z": -2.2398661626,
				"element": "H" 
			},
			{
				"x": -3.1343747532,
				"y": 2.6127795395,
				"z": -4.5009686956,
				"element": "H" 
			},
			{
				"x": -1.685078361,
				"y": 3.2158534314,
				"z": -6.4342089403,
				"element": "H" 
			},
			{
				"x": 0.5498652134,
				"y": 3.2583962802,
				"z": -7.4966105428,
				"element": "H" 
			},
			{
				"x": 2.519723441,
				"y": 2.3158175762,
				"z": -6.2995561782,
				"element": "H" 
			},
			{
				"x": 2.2616161651,
				"y": 1.336625914,
				"z": -4.047529348,
				"element": "H" 
			},
			{
				"x": 0.8158446213,
				"y": 0.703333741,
				"z": -2.1436030411,
				"element": "H" 
			},
			{
				"x": 2.191693063,
				"y": -2.129968412,
				"z": 4.8348312784,
				"element": "H" 
			},
			{
				"x": 1.4511648658,
				"y": -4.0889333257,
				"z": 6.1613601625,
				"element": "H" 
			},
			{
				"x": -0.4178585058,
				"y": -5.532492572,
				"z": 5.3321843144,
				"element": "H" 
			},
			{
				"x": -1.538308647,
				"y": -4.9483826356,
				"z": 3.1801243775,
				"element": "H" 
			}
		],
		 "valence_orbital": [ 
			{
				"type": "occ",
				"energy": -0.25815,
				"method": "rhf"
			},
			{
				"type": "occ",
				"energy": -0.24994,
				"method": "rhf"
			},
			{
				"type": "occ",
				"energy": -0.23871,
				"method": "rhf"
			},
			{
				"type": "occ",
				"energy": -0.22321,
				"method": "rhf"
			},
			{
				"type": "occ",
				"energy": -0.20651,
				"method": "rhf"
			},
			{
				"type": "unocc",
				"energy": -0.10958,
				"method": "rhf"
			},
			{
				"type": "unocc",
				"energy": -0.06284,
				"method": "rhf"
			},
			{
				"type": "unocc",
				"energy": -0.04493,
				"method": "rhf"
			},
			{
				"type": "unocc",
				"energy": -0.01443,
				"method": "rhf"
			},
			{
				"type": "unocc",
				"energy": -0.00475,
				"method": "rhf"
			}
		],
		"cosmo_sigma_profile": { 
			"-0.025": 0.0,
			"-0.024": 0.0,
			"-0.023": 0.0,
			"-0.022": 0.0,
			"-0.021": 0.0,
			"-0.02": 0.0,
			"-0.019": 0.0,
			"-0.018": 0.0,
			"-0.017": 0.0,
			"-0.016": 0.0,
			"-0.015": 0.0,
			"-0.014": 0.0796185085615,
			"-0.013": 0.574552217121,
			"-0.012": 1.68906094068,
			"-0.011": 2.26906080301,
			"-0.01": 2.31663073657,
			"-0.009": 2.7094200192,
			"-0.008": 3.33841241427,
			"-0.007": 9.84578565416,
			"-0.006": 25.8311731253,
			"-0.005": 29.5017242358,
			"-0.004": 27.8222394734,
			"-0.003": 20.9483002097,
			"-0.002": 20.3336866366,
			"-0.001": 22.4955266215,
			"0.0": 23.8325660423,
			"0.001": 29.5283435023,
			"0.002": 46.7080562337,
			"0.003": 38.3315327046,
			"0.004": 26.5820045847,
			"0.005": 14.1973873576,
			"0.006": 4.5061801515,
			"0.007": 2.79066506182,
			"0.008": 2.34116046307,
			"0.009": 2.80962999536,
			"0.01": 1.85635181169,
			"0.011": 2.0998814846,
			"0.012": 3.03533132106,
			"0.013": 2.98193564518,
			"0.014": 2.28866324195,
			"0.015": 2.53354024124,
			"0.016": 1.61715545844,
			"0.017": 0.953000650383,
			"0.018": 0.000939885661387,
			"0.019": 0.0,
			"0.02": 0.0,
			"0.021": 0.0,
			"0.022": 0.0,
			"0.023": 0.0,
			"0.024": 0.0,
			"0.025": 0.0
		}
	}
}
