{
	 "smiles": "OC(C(F)(F)F)C(F)(F)F", 
	 "Tm": 269.65, 
	 "num_atms": 12, 
	 "gaussian": { 
		 "optdone": 1, 
		 "sigma_profile": "yes", 
		 "theory": "DFT", 
		 "functional": "B3LYP", 
		 "basiset": "6-31G**", 
		 "properties": { 
			 "R2extent": 1322.7083, 
			 "electric_dipole_moment_norm": 2.27584577905, 
			 "electric_quadrupole_moment_norm": 5.78932620864, 
			 "total_energy": -789.783320096, 
			 "HOMO_LUMO_gap": 0.36388, 
			 "cosmo_polarized_energy": -7.03, 
			 "cosmo_cavitation_energy": 18.79, 
			 "cosmo_dispersion_energy": -13.13, 
			 "cosmo_repulsion_energy": 0.97, 
			 "cosmo_total_nonelectrostatic_energy": 6.62, 
			 "SMD_solvation_energy": 5.63 
		},
		"coords": [
			{
				"x": -1.604899208,
				"y": 0.6022106897,
				"z": -1.3186805513,
				"element": "O" 
			},
			{
				"x": -0.5457072623,
				"y": 0.5159584751,
				"z": -0.4063508434,
				"element": "C" 
			},
			{
				"x": -0.3286316648,
				"y": -0.9380777152,
				"z": 0.0376155693,
				"element": "C" 
			},
			{
				"x": 0.5382970395,
				"y": -1.0196235853,
				"z": 1.058915375,
				"element": "F" 
			},
			{
				"x": -1.5232109821,
				"y": -1.4232973527,
				"z": 0.467134762,
				"element": "F" 
			},
			{
				"x": 0.1000900132,
				"y": -1.7304717761,
				"z": -0.9517464514,
				"element": "F" 
			},
			{
				"x": 0.6826048854,
				"y": 1.1247611563,
				"z": -1.0900363529,
				"element": "C" 
			},
			{
				"x": 0.9651143303,
				"y": 0.5221655689,
				"z": -2.2515830958,
				"element": "F" 
			},
			{
				"x": 1.7584617407,
				"y": 1.0211914815,
				"z": -0.2842605061,
				"element": "F" 
			},
			{
				"x": 0.4671790935,
				"y": 2.4284321668,
				"z": -1.3324588854,
				"element": "F" 
			},
			{
				"x": -2.3860027135,
				"y": 0.2079375315,
				"z": -0.9078853105,
				"element": "H" 
			},
			{
				"x": -0.7146952719,
				"y": 1.0983133593,
				"z": 0.5113362905,
				"element": "H" 
			}
		],
		 "valence_orbital": [ 
			{
				"type": "occ",
				"energy": -0.41947,
				"method": "rhf"
			},
			{
				"type": "occ",
				"energy": -0.41367,
				"method": "rhf"
			},
			{
				"type": "occ",
				"energy": -0.40965,
				"method": "rhf"
			},
			{
				"type": "occ",
				"energy": -0.36849,
				"method": "rhf"
			},
			{
				"type": "occ",
				"energy": -0.31837,
				"method": "rhf"
			},
			{
				"type": "unocc",
				"energy": 0.04551,
				"method": "rhf"
			},
			{
				"type": "unocc",
				"energy": 0.08389,
				"method": "rhf"
			},
			{
				"type": "unocc",
				"energy": 0.11869,
				"method": "rhf"
			},
			{
				"type": "unocc",
				"energy": 0.13496,
				"method": "rhf"
			},
			{
				"type": "unocc",
				"energy": 0.15737,
				"method": "rhf"
			}
		],
		"cosmo_sigma_profile": { 
			"-0.025": 0.0,
			"-0.024": 0.0,
			"-0.023": 0.0,
			"-0.022": 0.0,
			"-0.021": 0.0,
			"-0.02": 0.0,
			"-0.019": 0.0,
			"-0.018": 0.311266676587,
			"-0.017": 0.702363656162,
			"-0.016": 0.495226534003,
			"-0.015": 0.940825523131,
			"-0.014": 0.950802295498,
			"-0.013": 0.689172401365,
			"-0.012": 0.982126833757,
			"-0.011": 2.28846914366,
			"-0.01": 4.6416977617,
			"-0.009": 3.34219144032,
			"-0.008": 1.91218480943,
			"-0.007": 2.10631497527,
			"-0.006": 1.61621132753,
			"-0.005": 1.97215417149,
			"-0.004": 2.0912010283,
			"-0.003": 2.60293023922,
			"-0.002": 4.862617379,
			"-0.001": 6.8336841196,
			"0.0": 8.5409803345,
			"0.001": 21.6623789908,
			"0.002": 55.0677995448,
			"0.003": 12.0540145103,
			"0.004": 2.41627428726,
			"0.005": 2.34584866551,
			"0.006": 1.99386279264,
			"0.007": 1.43867308011,
			"0.008": 1.45593686055,
			"0.009": 1.75335343883,
			"0.01": 1.60957673807,
			"0.011": 0.062304517574,
			"0.012": 0.0,
			"0.013": 0.0,
			"0.014": 0.0,
			"0.015": 0.0,
			"0.016": 0.0,
			"0.017": 0.0,
			"0.018": 0.0,
			"0.019": 0.0,
			"0.02": 0.0,
			"0.021": 0.0,
			"0.022": 0.0,
			"0.023": 0.0,
			"0.024": 0.0,
			"0.025": 0.0
		}
	}
}
