{
	 "smiles": "CC(C)(C)C1=CC(S)=CC(=C1O)C(C)(C)C", 
	 "Tm": 349.15, 
	 "num_atms": 38, 
	 "gaussian": { 
		 "optdone": 1, 
		 "sigma_profile": "yes", 
		 "theory": "DFT", 
		 "functional": "B3LYP", 
		 "basiset": "6-31G**", 
		 "properties": { 
			 "R2extent": 5553.1912, 
			 "electric_dipole_moment_norm": 2.88606567666, 
			 "electric_quadrupole_moment_norm": 10.2810482048, 
			 "total_energy": -1020.17418467, 
			 "HOMO_LUMO_gap": 0.21362, 
			 "cosmo_polarized_energy": -7.33, 
			 "cosmo_cavitation_energy": 38.01, 
			 "cosmo_dispersion_energy": -26.93, 
			 "cosmo_repulsion_energy": 2.05, 
			 "cosmo_total_nonelectrostatic_energy": 13.14, 
			 "SMD_solvation_energy": 6.43 
		},
		"coords": [
			{
				"x": 0.8509203821,
				"y": -1.6486587346,
				"z": -4.1697389478,
				"element": "C" 
			},
			{
				"x": 1.5824970021,
				"y": -1.4265394631,
				"z": -2.8292188665,
				"element": "C" 
			},
			{
				"x": 1.5144775537,
				"y": -2.7613782651,
				"z": -2.0458512885,
				"element": "C" 
			},
			{
				"x": 3.0543895224,
				"y": -1.0790221103,
				"z": -3.1649718264,
				"element": "C" 
			},
			{
				"x": 0.9354157172,
				"y": -0.2875933643,
				"z": -2.0063967144,
				"element": "C" 
			},
			{
				"x": -0.1726062122,
				"y": 0.4116562509,
				"z": -2.4931335481,
				"element": "C" 
			},
			{
				"x": -0.7769184309,
				"y": 1.436310783,
				"z": -1.7630601352,
				"element": "C" 
			},
			{
				"x": -2.1742322379,
				"y": 2.3483115072,
				"z": -2.4465361927,
				"element": "S" 
			},
			{
				"x": -0.2548875933,
				"y": 1.796442695,
				"z": -0.523110708,
				"element": "C" 
			},
			{
				"x": 0.8588524657,
				"y": 1.1462373931,
				"z": 0.0240329403,
				"element": "C" 
			},
			{
				"x": 1.4351934488,
				"y": 0.1006781749,
				"z": -0.7383650904,
				"element": "C" 
			},
			{
				"x": 2.5266163112,
				"y": -0.5998162534,
				"z": -0.2844851609,
				"element": "O" 
			},
			{
				"x": 1.4170371153,
				"y": 1.5704373558,
				"z": 1.4065435447,
				"element": "C" 
			},
			{
				"x": 1.3241883462,
				"y": 0.3986398324,
				"z": 2.4220413967,
				"element": "C" 
			},
			{
				"x": 0.6082156867,
				"y": 2.732900994,
				"z": 2.0213094229,
				"element": "C" 
			},
			{
				"x": 2.8767564765,
				"y": 2.0854546624,
				"z": 1.2762499599,
				"element": "C" 
			},
			{
				"x": 1.3414912574,
				"y": -2.4622153402,
				"z": -4.7134450715,
				"element": "H" 
			},
			{
				"x": 0.8818583943,
				"y": -0.7613069944,
				"z": -4.8104752495,
				"element": "H" 
			},
			{
				"x": -0.1963796522,
				"y": -1.9349499995,
				"z": -4.0271920801,
				"element": "H" 
			},
			{
				"x": 1.9566019825,
				"y": -3.5661572786,
				"z": -2.6444416669,
				"element": "H" 
			},
			{
				"x": 2.0515951577,
				"y": -2.7053000364,
				"z": -1.0989725831,
				"element": "H" 
			},
			{
				"x": 0.4738748928,
				"y": -3.0330036494,
				"z": -1.8369936964,
				"element": "H" 
			},
			{
				"x": 3.498094763,
				"y": -1.8820802656,
				"z": -3.7647119145,
				"element": "H" 
			},
			{
				"x": 3.1077518742,
				"y": -0.155099177,
				"z": -3.7511127623,
				"element": "H" 
			},
			{
				"x": 3.6573237101,
				"y": -0.9510619461,
				"z": -2.2659058617,
				"element": "H" 
			},
			{
				"x": -0.5849794016,
				"y": 0.1649801759,
				"z": -3.462133988,
				"element": "H" 
			},
			{
				"x": -3.1517365663,
				"y": 1.4766963264,
				"z": -2.1141153372,
				"element": "H" 
			},
			{
				"x": -0.7358936252,
				"y": 2.600534242,
				"z": 0.0167675465,
				"element": "H" 
			},
			{
				"x": 2.7964055679,
				"y": -0.2613718644,
				"z": 0.5744271971,
				"element": "H" 
			},
			{
				"x": 0.2789641509,
				"y": 0.1080000599,
				"z": 2.5648982238,
				"element": "H" 
			},
			{
				"x": 1.7269564636,
				"y": 0.7075054563,
				"z": 3.3926774435,
				"element": "H" 
			},
			{
				"x": 1.85935035,
				"y": -0.5077082205,
				"z": 2.1218634261,
				"element": "H" 
			},
			{
				"x": -0.4381172275,
				"y": 2.4604992046,
				"z": 2.1887965476,
				"element": "H" 
			},
			{
				"x": 1.0391259879,
				"y": 2.9978861773,
				"z": 2.992055273,
				"element": "H" 
			},
			{
				"x": 0.635492209,
				"y": 3.6281946983,
				"z": 1.3930949854,
				"element": "H" 
			},
			{
				"x": 3.5796214607,
				"y": 1.3606307133,
				"z": 0.8535788001,
				"element": "H" 
			},
			{
				"x": 2.9078422562,
				"y": 2.9633390322,
				"z": 0.623860235,
				"element": "H" 
			},
			{
				"x": 3.2630404412,
				"y": 2.3776272277,
				"z": 2.2586717474,
				"element": "H" 
			}
		],
		 "valence_orbital": [ 
			{
				"type": "occ",
				"energy": -0.30879,
				"method": "rhf"
			},
			{
				"type": "occ",
				"energy": -0.30527,
				"method": "rhf"
			},
			{
				"type": "occ",
				"energy": -0.24307,
				"method": "rhf"
			},
			{
				"type": "occ",
				"energy": -0.23918,
				"method": "rhf"
			},
			{
				"type": "occ",
				"energy": -0.21712,
				"method": "rhf"
			},
			{
				"type": "unocc",
				"energy": -0.0035,
				"method": "rhf"
			},
			{
				"type": "unocc",
				"energy": -0.00013,
				"method": "rhf"
			},
			{
				"type": "unocc",
				"energy": 0.0456,
				"method": "rhf"
			},
			{
				"type": "unocc",
				"energy": 0.0585,
				"method": "rhf"
			},
			{
				"type": "unocc",
				"energy": 0.07379,
				"method": "rhf"
			}
		],
		"cosmo_sigma_profile": { 
			"-0.025": 0.0,
			"-0.024": 0.0,
			"-0.023": 0.0,
			"-0.022": 0.0,
			"-0.021": 0.0,
			"-0.02": 0.0,
			"-0.019": 0.0,
			"-0.018": 0.0,
			"-0.017": 0.0,
			"-0.016": 0.0,
			"-0.015": 0.11489552128,
			"-0.014": 0.433439900797,
			"-0.013": 0.72327856136,
			"-0.012": 0.700500346026,
			"-0.011": 0.905255302459,
			"-0.01": 0.758744388916,
			"-0.009": 2.37026654426,
			"-0.008": 2.7168488192,
			"-0.007": 1.65578446808,
			"-0.006": 2.98272605588,
			"-0.005": 3.82891960469,
			"-0.004": 10.9571525928,
			"-0.003": 32.0490907238,
			"-0.002": 37.5002937657,
			"-0.001": 35.9008938758,
			"0.0": 38.1746751899,
			"0.001": 38.1039166111,
			"0.002": 28.7150197758,
			"0.003": 15.5366320423,
			"0.004": 14.5044734023,
			"0.005": 14.1028634303,
			"0.006": 6.22797493841,
			"0.007": 3.08797006248,
			"0.008": 2.59179942368,
			"0.009": 2.00946646869,
			"0.01": 1.50862289126,
			"0.011": 0.0335124646965,
			"0.012": 0.0,
			"0.013": 0.0,
			"0.014": 0.0,
			"0.015": 0.0,
			"0.016": 0.0,
			"0.017": 0.0,
			"0.018": 0.0,
			"0.019": 0.0,
			"0.02": 0.0,
			"0.021": 0.0,
			"0.022": 0.0,
			"0.023": 0.0,
			"0.024": 0.0,
			"0.025": 0.0
		}
	}
}
