{
	 "smiles": "COC1=C(OC(F)F)C=CC(=C1)C(C)=O", 
	 "Tm": 339.15, 
	 "num_atms": 25, 
	 "gaussian": { 
		 "optdone": 1, 
		 "sigma_profile": "yes", 
		 "theory": "DFT", 
		 "functional": "B3LYP", 
		 "basiset": "6-31G**", 
		 "properties": { 
			 "R2extent": 4546.9517, 
			 "electric_dipole_moment_norm": 3.26566857014, 
			 "electric_quadrupole_moment_norm": 17.3045771335, 
			 "total_energy": -812.419102687, 
			 "HOMO_LUMO_gap": 0.18838, 
			 "cosmo_polarized_energy": -11.34, 
			 "cosmo_cavitation_energy": 30.26, 
			 "cosmo_dispersion_energy": -21.44, 
			 "cosmo_repulsion_energy": 1.66, 
			 "cosmo_total_nonelectrostatic_energy": 10.48, 
			 "SMD_solvation_energy": 8.02 
		},
		"coords": [
			{
				"x": 0.0691240745,
				"y": 0.1364114812,
				"z": 4.1761150034,
				"element": "C" 
			},
			{
				"x": 1.0616911309,
				"y": 0.4987532436,
				"z": 3.2119458219,
				"element": "O" 
			},
			{
				"x": 0.8157874776,
				"y": 0.0844461392,
				"z": 1.9281285743,
				"element": "C" 
			},
			{
				"x": 1.0241488154,
				"y": -1.2570272498,
				"z": 1.5450870754,
				"element": "C" 
			},
			{
				"x": 1.4212148922,
				"y": -2.0986751784,
				"z": 2.5748450646,
				"element": "O" 
			},
			{
				"x": 1.9263503956,
				"y": -3.3451811587,
				"z": 2.3192133175,
				"element": "C" 
			},
			{
				"x": 0.9882702106,
				"y": -4.1663138169,
				"z": 1.7671152951,
				"element": "F" 
			},
			{
				"x": 2.9656905968,
				"y": -3.2973904187,
				"z": 1.4492626731,
				"element": "F" 
			},
			{
				"x": 0.8245492046,
				"y": -1.6538015979,
				"z": 0.2222531408,
				"element": "C" 
			},
			{
				"x": 0.4292382529,
				"y": -0.7098098169,
				"z": -0.7249540481,
				"element": "C" 
			},
			{
				"x": 0.2246032672,
				"y": 0.6284002122,
				"z": -0.3666437466,
				"element": "C" 
			},
			{
				"x": 0.4177310555,
				"y": 1.007465586,
				"z": 0.9706756323,
				"element": "C" 
			},
			{
				"x": -0.1992492839,
				"y": 1.6815663419,
				"z": -1.3435590857,
				"element": "C" 
			},
			{
				"x": -0.4014251883,
				"y": 1.2921679554,
				"z": -2.7987269941,
				"element": "C" 
			},
			{
				"x": -0.3797629762,
				"y": 2.8335297614,
				"z": -0.9777150659,
				"element": "O" 
			},
			{
				"x": -0.020072575,
				"y": -0.9507072004,
				"z": 4.2739108212,
				"element": "H" 
			},
			{
				"x": 0.3998075424,
				"y": 0.5594052441,
				"z": 5.1265333627,
				"element": "H" 
			},
			{
				"x": -0.9077119173,
				"y": 0.5604313783,
				"z": 3.9112381445,
				"element": "H" 
			},
			{
				"x": 2.2566146917,
				"y": -3.7656177218,
				"z": 3.2715654395,
				"element": "H" 
			},
			{
				"x": 0.9743586037,
				"y": -2.684452375,
				"z": -0.0683709891,
				"element": "H" 
			},
			{
				"x": 0.2833409576,
				"y": -1.0356481561,
				"z": -1.7491140484,
				"element": "H" 
			},
			{
				"x": 0.2671222258,
				"y": 2.0424330847,
				"z": 1.2569298139,
				"element": "H" 
			},
			{
				"x": -1.1755711302,
				"y": 0.5229943224,
				"z": -2.8963911878,
				"element": "H" 
			},
			{
				"x": -0.7011261101,
				"y": 2.1788710499,
				"z": -3.3578248527,
				"element": "H" 
			},
			{
				"x": 0.5200757858,
				"y": 0.8850488904,
				"z": -3.2292191617,
				"element": "H" 
			}
		],
		 "valence_orbital": [ 
			{
				"type": "occ",
				"energy": -0.33594,
				"method": "rhf"
			},
			{
				"type": "occ",
				"energy": -0.2829,
				"method": "rhf"
			},
			{
				"type": "occ",
				"energy": -0.25808,
				"method": "rhf"
			},
			{
				"type": "occ",
				"energy": -0.24794,
				"method": "rhf"
			},
			{
				"type": "occ",
				"energy": -0.24297,
				"method": "rhf"
			},
			{
				"type": "unocc",
				"energy": -0.05459,
				"method": "rhf"
			},
			{
				"type": "unocc",
				"energy": -0.01241,
				"method": "rhf"
			},
			{
				"type": "unocc",
				"energy": 0.03885,
				"method": "rhf"
			},
			{
				"type": "unocc",
				"energy": 0.07776,
				"method": "rhf"
			},
			{
				"type": "unocc",
				"energy": 0.10345,
				"method": "rhf"
			}
		],
		"cosmo_sigma_profile": { 
			"-0.025": 0.0,
			"-0.024": 0.0,
			"-0.023": 0.0,
			"-0.022": 0.0,
			"-0.021": 0.0,
			"-0.02": 0.0,
			"-0.019": 0.0,
			"-0.018": 0.0,
			"-0.017": 0.0,
			"-0.016": 0.0,
			"-0.015": 0.0,
			"-0.014": 0.0,
			"-0.013": 0.0,
			"-0.012": 0.0528706414998,
			"-0.011": 2.73994691351,
			"-0.01": 2.36164696966,
			"-0.009": 1.60897591349,
			"-0.008": 1.29522014946,
			"-0.007": 5.48165263476,
			"-0.006": 13.4103317396,
			"-0.005": 14.9497044282,
			"-0.004": 16.5673338735,
			"-0.003": 21.2318858299,
			"-0.002": 19.6693428208,
			"-0.001": 16.6764188795,
			"0.0": 17.0664570369,
			"0.001": 19.4860525259,
			"0.002": 22.0374744794,
			"0.003": 25.759618635,
			"0.004": 9.41533623557,
			"0.005": 3.39844397456,
			"0.006": 4.15294454024,
			"0.007": 2.7342739992,
			"0.008": 3.06082257838,
			"0.009": 3.84676955094,
			"0.01": 3.55316489737,
			"0.011": 4.62873170964,
			"0.012": 4.44051520153,
			"0.013": 1.50299107663,
			"0.014": 0.0940719519449,
			"0.015": 0.0,
			"0.016": 0.0,
			"0.017": 0.0,
			"0.018": 0.0,
			"0.019": 0.0,
			"0.02": 0.0,
			"0.021": 0.0,
			"0.022": 0.0,
			"0.023": 0.0,
			"0.024": 0.0,
			"0.025": 0.0
		}
	}
}
