{
	 "smiles": "CSC1=C(N)C=C(C=C1)C#N", 
	 "Tm": 316.15, 
	 "num_atms": 19, 
	 "gaussian": { 
		 "optdone": 1, 
		 "sigma_profile": "yes", 
		 "theory": "DFT", 
		 "functional": "B3LYP", 
		 "basiset": "6-31G**", 
		 "properties": { 
			 "R2extent": 2850.0271, 
			 "electric_dipole_moment_norm": 4.74855863816, 
			 "electric_quadrupole_moment_norm": 22.7802903904, 
			 "total_energy": -817.353346265, 
			 "HOMO_LUMO_gap": 0.17159, 
			 "cosmo_polarized_energy": -12.15, 
			 "cosmo_cavitation_energy": 25.44, 
			 "cosmo_dispersion_energy": -18.5, 
			 "cosmo_repulsion_energy": 1.45, 
			 "cosmo_total_nonelectrostatic_energy": 8.39, 
			 "SMD_solvation_energy": 5.95 
		},
		"coords": [
			{
				"x": 1.8354048515,
				"y": 1.9501429476,
				"z": 0.5819778539,
				"element": "C" 
			},
			{
				"x": 2.1406752825,
				"y": 0.3809992179,
				"z": 1.4915141243,
				"element": "S" 
			},
			{
				"x": 0.5134141854,
				"y": -0.3647456985,
				"z": 1.4383687717,
				"element": "C" 
			},
			{
				"x": 0.0242067862,
				"y": -0.9370818576,
				"z": 0.2350226132,
				"element": "C" 
			},
			{
				"x": 0.7596206063,
				"y": -0.8607518012,
				"z": -0.9366507702,
				"element": "N" 
			},
			{
				"x": -1.2452951076,
				"y": -1.5364160337,
				"z": 0.2457490359,
				"element": "C" 
			},
			{
				"x": -2.0027360132,
				"y": -1.5850327728,
				"z": 1.421960139,
				"element": "C" 
			},
			{
				"x": -1.5086179826,
				"y": -1.0362050086,
				"z": 2.6166625023,
				"element": "C" 
			},
			{
				"x": -0.2561752034,
				"y": -0.4307395017,
				"z": 2.6047246052,
				"element": "C" 
			},
			{
				"x": -3.2948670864,
				"y": -2.2092874665,
				"z": 1.4008495509,
				"element": "C" 
			},
			{
				"x": -4.3420754735,
				"y": -2.7155648992,
				"z": 1.3847008967,
				"element": "N" 
			},
			{
				"x": 1.1488769146,
				"y": 2.5873760082,
				"z": 1.1417667086,
				"element": "H" 
			},
			{
				"x": 2.8031340124,
				"y": 2.4488596689,
				"z": 0.4926606778,
				"element": "H" 
			},
			{
				"x": 1.4356436879,
				"y": 1.7482594912,
				"z": -0.4133084126,
				"element": "H" 
			},
			{
				"x": 0.5121466828,
				"y": -1.5279662676,
				"z": -1.6538175382,
				"element": "H" 
			},
			{
				"x": 1.7591952514,
				"y": -0.7690195165,
				"z": -0.7941190171,
				"element": "H" 
			},
			{
				"x": -1.6428212715,
				"y": -1.9728770046,
				"z": -0.6654494459,
				"element": "H" 
			},
			{
				"x": -2.0992937199,
				"y": -1.0818475675,
				"z": 3.5241366609,
				"element": "H" 
			},
			{
				"x": 0.1435635972,
				"y": 0.0056980624,
				"z": 3.5142510436,
				"element": "H" 
			}
		],
		 "valence_orbital": [ 
			{
				"type": "occ",
				"energy": -0.32871,
				"method": "rhf"
			},
			{
				"type": "occ",
				"energy": -0.31745,
				"method": "rhf"
			},
			{
				"type": "occ",
				"energy": -0.26798,
				"method": "rhf"
			},
			{
				"type": "occ",
				"energy": -0.24434,
				"method": "rhf"
			},
			{
				"type": "occ",
				"energy": -0.22625,
				"method": "rhf"
			},
			{
				"type": "unocc",
				"energy": -0.05466,
				"method": "rhf"
			},
			{
				"type": "unocc",
				"energy": -0.01135,
				"method": "rhf"
			},
			{
				"type": "unocc",
				"energy": 0.03123,
				"method": "rhf"
			},
			{
				"type": "unocc",
				"energy": 0.0393,
				"method": "rhf"
			},
			{
				"type": "unocc",
				"energy": 0.05963,
				"method": "rhf"
			}
		],
		"cosmo_sigma_profile": { 
			"-0.025": 0.0,
			"-0.024": 0.0,
			"-0.023": 0.0,
			"-0.022": 0.0,
			"-0.021": 0.0,
			"-0.02": 0.0,
			"-0.019": 0.0,
			"-0.018": 0.0,
			"-0.017": 0.0,
			"-0.016": 0.0,
			"-0.015": 0.0,
			"-0.014": 0.159939891992,
			"-0.013": 1.77718470616,
			"-0.012": 1.48533127804,
			"-0.011": 2.03273371733,
			"-0.01": 2.95340614937,
			"-0.009": 2.73135678656,
			"-0.008": 3.66916514923,
			"-0.007": 7.11843889749,
			"-0.006": 9.16299532864,
			"-0.005": 11.4088682073,
			"-0.004": 10.4505017078,
			"-0.003": 12.7975725512,
			"-0.002": 15.0593777021,
			"-0.001": 17.9666022388,
			"0.0": 16.0957175875,
			"0.001": 14.6340620602,
			"0.002": 15.3290515358,
			"0.003": 14.1683560408,
			"0.004": 6.94144903246,
			"0.005": 6.88582112982,
			"0.006": 6.35741233183,
			"0.007": 5.80691963164,
			"0.008": 5.01166058052,
			"0.009": 4.83558524297,
			"0.01": 3.67292629571,
			"0.011": 3.1303664954,
			"0.012": 2.56193699481,
			"0.013": 1.59212544306,
			"0.014": 0.0695028794398,
			"0.015": 0.0,
			"0.016": 0.0,
			"0.017": 0.0,
			"0.018": 0.0,
			"0.019": 0.0,
			"0.02": 0.0,
			"0.021": 0.0,
			"0.022": 0.0,
			"0.023": 0.0,
			"0.024": 0.0,
			"0.025": 0.0
		}
	}
}
