{
	 "smiles": "OCC1OC(OC2=CNC3=C2C(Cl)=C(Br)C=C3)C(O)C(O)C1O", 
	 "Tm": 523.15, 
	 "num_atms": 38, 
	 "gaussian": { 
		 "optdone": 1, 
		 "sigma_profile": "yes", 
		 "theory": "DFT", 
		 "functional": "B3LYP", 
		 "basiset": "6-31G**", 
		 "properties": { 
			 "R2extent": 13996.9765, 
			 "electric_dipole_moment_norm": 3.16966683738, 
			 "electric_quadrupole_moment_norm": 31.4056550158, 
			 "total_energy": -4080.16429482, 
			 "HOMO_LUMO_gap": 0.17561, 
			 "cosmo_polarized_energy": -24.27, 
			 "cosmo_cavitation_energy": 44.18, 
			 "cosmo_dispersion_energy": -31.44, 
			 "cosmo_repulsion_energy": 2.38, 
			 "cosmo_total_nonelectrostatic_energy": 15.12, 
			 "SMD_solvation_energy": 5.49 
		},
		"coords": [
			{
				"x": 1.8328944083,
				"y": -2.461209946,
				"z": -2.6703155319,
				"element": "O" 
			},
			{
				"x": 2.1321499963,
				"y": -1.6370993621,
				"z": -1.5597068453,
				"element": "C" 
			},
			{
				"x": 1.1522884507,
				"y": -1.868915705,
				"z": -0.4135651173,
				"element": "C" 
			},
			{
				"x": -0.1443002911,
				"y": -1.540623651,
				"z": -0.949949691,
				"element": "O" 
			},
			{
				"x": -1.1558983405,
				"y": -1.1394035001,
				"z": -0.0562106312,
				"element": "C" 
			},
			{
				"x": -1.1841289681,
				"y": 0.273489839,
				"z": 0.1094602982,
				"element": "O" 
			},
			{
				"x": -1.6459930072,
				"y": 1.0187683613,
				"z": -0.9385711364,
				"element": "C" 
			},
			{
				"x": -1.6704452371,
				"y": 0.6997697468,
				"z": -2.2751886752,
				"element": "C" 
			},
			{
				"x": -2.2401513455,
				"y": 1.7537868696,
				"z": -2.9721689667,
				"element": "N" 
			},
			{
				"x": -2.5691211482,
				"y": 2.7617531042,
				"z": -2.100066967,
				"element": "C" 
			},
			{
				"x": -2.2108589745,
				"y": 2.3345114931,
				"z": -0.789153089,
				"element": "C" 
			},
			{
				"x": -2.4574479316,
				"y": 3.2013352435,
				"z": 0.2957990187,
				"element": "C" 
			},
			{
				"x": -2.0336057235,
				"y": 2.7063700157,
				"z": 1.9156962715,
				"element": "Cl" 
			},
			{
				"x": -3.0382702633,
				"y": 4.4424929557,
				"z": 0.046971059,
				"element": "C" 
			},
			{
				"x": -3.4054392166,
				"y": 5.6733211862,
				"z": 1.4558929294,
				"element": "Br" 
			},
			{
				"x": -3.3804047795,
				"y": 4.8392301203,
				"z": -1.2628327115,
				"element": "C" 
			},
			{
				"x": -3.152496286,
				"y": 4.0087440917,
				"z": -2.3466296212,
				"element": "C" 
			},
			{
				"x": -0.9611843468,
				"y": -1.6978297498,
				"z": 1.3516745895,
				"element": "C" 
			},
			{
				"x": -0.9458217867,
				"y": -3.1069023355,
				"z": 1.2531674642,
				"element": "O" 
			},
			{
				"x": 0.3692509802,
				"y": -1.169089584,
				"z": 1.9366980457,
				"element": "C" 
			},
			{
				"x": 0.7437050882,
				"y": -2.0902922869,
				"z": 2.9534499346,
				"element": "O" 
			},
			{
				"x": 1.4827752497,
				"y": -1.0567543227,
				"z": 0.8440148356,
				"element": "C" 
			},
			{
				"x": 2.7494933149,
				"y": -1.4530606305,
				"z": 1.3785871222,
				"element": "O" 
			},
			{
				"x": 0.8878164423,
				"y": -2.3480382001,
				"z": -2.8426922705,
				"element": "H" 
			},
			{
				"x": 3.1467682169,
				"y": -1.8849541417,
				"z": -1.2355084051,
				"element": "H" 
			},
			{
				"x": 2.114231044,
				"y": -0.567327345,
				"z": -1.8252411212,
				"element": "H" 
			},
			{
				"x": 1.1431144863,
				"y": -2.9374545072,
				"z": -0.1534974859,
				"element": "H" 
			},
			{
				"x": -2.099155296,
				"y": -1.4729090389,
				"z": -0.5034948971,
				"element": "H" 
			},
			{
				"x": -1.3109771585,
				"y": -0.1831807842,
				"z": -2.7769353831,
				"element": "H" 
			},
			{
				"x": -2.3686231663,
				"y": 1.783160777,
				"z": -3.9698444446,
				"element": "H" 
			},
			{
				"x": -3.8287273676,
				"y": 5.8148133458,
				"z": -1.4073490376,
				"element": "H" 
			},
			{
				"x": -3.4187905555,
				"y": 4.3210649057,
				"z": -3.3516009487,
				"element": "H" 
			},
			{
				"x": -1.7954617115,
				"y": -1.3518922439,
				"z": 1.9780357725,
				"element": "H" 
			},
			{
				"x": -0.4531159391,
				"y": -3.4058209341,
				"z": 2.0348473759,
				"element": "H" 
			},
			{
				"x": 0.1984790719,
				"y": -0.1758811341,
				"z": 2.3671012336,
				"element": "H" 
			},
			{
				"x": 1.6875056149,
				"y": -1.9335864964,
				"z": 3.1132589553,
				"element": "H" 
			},
			{
				"x": 1.590899245,
				"y": -0.0036443918,
				"z": 0.5692019719,
				"element": "H" 
			},
			{
				"x": 2.8134472309,
				"y": -2.4159417645,
				"z": 1.2972660999,
				"element": "H" 
			}
		],
		 "valence_orbital": [ 
			{
				"type": "occ",
				"energy": -0.27669,
				"method": "rhf"
			},
			{
				"type": "occ",
				"energy": -0.2674,
				"method": "rhf"
			},
			{
				"type": "occ",
				"energy": -0.26243,
				"method": "rhf"
			},
			{
				"type": "occ",
				"energy": -0.22999,
				"method": "rhf"
			},
			{
				"type": "occ",
				"energy": -0.20571,
				"method": "rhf"
			},
			{
				"type": "unocc",
				"energy": -0.0301,
				"method": "rhf"
			},
			{
				"type": "unocc",
				"energy": -0.00342,
				"method": "rhf"
			},
			{
				"type": "unocc",
				"energy": 0.00392,
				"method": "rhf"
			},
			{
				"type": "unocc",
				"energy": 0.03458,
				"method": "rhf"
			},
			{
				"type": "unocc",
				"energy": 0.05104,
				"method": "rhf"
			}
		],
		"cosmo_sigma_profile": { 
			"-0.025": 0.0,
			"-0.024": 0.0,
			"-0.023": 0.0,
			"-0.022": 0.0,
			"-0.021": 0.0,
			"-0.02": 0.0,
			"-0.019": 0.0,
			"-0.018": 0.0,
			"-0.017": 0.239317301013,
			"-0.016": 2.44224262427,
			"-0.015": 2.51485950424,
			"-0.014": 2.69843670964,
			"-0.013": 2.97582096142,
			"-0.012": 4.41095542998,
			"-0.011": 4.49795659477,
			"-0.01": 4.16272813003,
			"-0.009": 3.9415112321,
			"-0.008": 6.52809945823,
			"-0.007": 10.9457136856,
			"-0.006": 10.9594545082,
			"-0.005": 20.4632089569,
			"-0.004": 19.1795610132,
			"-0.003": 19.9069892469,
			"-0.002": 19.9165624171,
			"-0.001": 16.3375283236,
			"0.0": 17.6956446411,
			"0.001": 20.0963198674,
			"0.002": 33.5428095638,
			"0.003": 36.3252478887,
			"0.004": 31.2377023337,
			"0.005": 20.3821186204,
			"0.006": 8.2528950333,
			"0.007": 5.04432329823,
			"0.008": 3.7246744581,
			"0.009": 4.27628662963,
			"0.01": 3.82642125002,
			"0.011": 5.11493171198,
			"0.012": 4.65075211477,
			"0.013": 4.46682685807,
			"0.014": 2.6817256125,
			"0.015": 0.228960731152,
			"0.016": 0.0,
			"0.017": 0.0,
			"0.018": 0.0,
			"0.019": 0.0,
			"0.02": 0.0,
			"0.021": 0.0,
			"0.022": 0.0,
			"0.023": 0.0,
			"0.024": 0.0,
			"0.025": 0.0
		}
	}
}
