{
	 "smiles": "OC(=O)C1=CC=C(Cl)N=C1", 
	 "Tm": 458.15, 
	 "num_atms": 14, 
	 "gaussian": { 
		 "optdone": 1, 
		 "sigma_profile": "yes", 
		 "theory": "DFT", 
		 "functional": "B3LYP", 
		 "basiset": "6-31G**", 
		 "properties": { 
			 "R2extent": 2023.7243, 
			 "electric_dipole_moment_norm": 1.58460867409, 
			 "electric_quadrupole_moment_norm": 19.7181199251, 
			 "total_energy": -896.440278799, 
			 "HOMO_LUMO_gap": 0.20565, 
			 "cosmo_polarized_energy": -14.76, 
			 "cosmo_cavitation_energy": 21.07, 
			 "cosmo_dispersion_energy": -15.94, 
			 "cosmo_repulsion_energy": 1.29, 
			 "cosmo_total_nonelectrostatic_energy": 6.42, 
			 "SMD_solvation_energy": 3.22 
		},
		"coords": [
			{
				"x": 0.5378036758,
				"y": 2.9800751441,
				"z": 1.4601483298,
				"element": "O" 
			},
			{
				"x": 0.4946283229,
				"y": 2.4217581469,
				"z": 0.2241919847,
				"element": "C" 
			},
			{
				"x": 0.6525320428,
				"y": 3.1054503846,
				"z": -0.7589705208,
				"element": "O" 
			},
			{
				"x": 0.2417776768,
				"y": 0.9464974146,
				"z": 0.1487201866,
				"element": "C" 
			},
			{
				"x": 0.5409438657,
				"y": 0.2802730291,
				"z": -1.0496700172,
				"element": "C" 
			},
			{
				"x": 0.305769656,
				"y": -1.0822502986,
				"z": -1.1491494711,
				"element": "C" 
			},
			{
				"x": -0.2408646676,
				"y": -1.7237928077,
				"z": -0.029507164,
				"element": "C" 
			},
			{
				"x": -0.5395333125,
				"y": -3.4505223833,
				"z": -0.1128323259,
				"element": "Cl" 
			},
			{
				"x": -0.5595497235,
				"y": -1.1204476668,
				"z": 1.1022146263,
				"element": "N" 
			},
			{
				"x": -0.3221382439,
				"y": 0.1942501305,
				"z": 1.1829663724,
				"element": "C" 
			},
			{
				"x": 0.5567700691,
				"y": 2.3004140231,
				"z": 2.1479434443,
				"element": "H" 
			},
			{
				"x": 0.9516466549,
				"y": 0.8485902348,
				"z": -1.8774820193,
				"element": "H" 
			},
			{
				"x": 0.5289138192,
				"y": -1.6385718381,
				"z": -2.0514244095,
				"element": "H" 
			},
			{
				"x": -0.6325998359,
				"y": 0.657576487,
				"z": 2.1191509837,
				"element": "H" 
			}
		],
		 "valence_orbital": [ 
			{
				"type": "occ",
				"energy": -0.33084,
				"method": "rhf"
			},
			{
				"type": "occ",
				"energy": -0.31936,
				"method": "rhf"
			},
			{
				"type": "occ",
				"energy": -0.30604,
				"method": "rhf"
			},
			{
				"type": "occ",
				"energy": -0.28673,
				"method": "rhf"
			},
			{
				"type": "occ",
				"energy": -0.28058,
				"method": "rhf"
			},
			{
				"type": "unocc",
				"energy": -0.07493,
				"method": "rhf"
			},
			{
				"type": "unocc",
				"energy": -0.05835,
				"method": "rhf"
			},
			{
				"type": "unocc",
				"energy": 0.0166,
				"method": "rhf"
			},
			{
				"type": "unocc",
				"energy": 0.02545,
				"method": "rhf"
			},
			{
				"type": "unocc",
				"energy": 0.05098,
				"method": "rhf"
			}
		],
		"cosmo_sigma_profile": { 
			"-0.025": 0.0,
			"-0.024": 0.0,
			"-0.023": 0.0,
			"-0.022": 0.0,
			"-0.021": 0.0,
			"-0.02": 0.321457954556,
			"-0.019": 0.930842465379,
			"-0.018": 1.22255481603,
			"-0.017": 1.19778401703,
			"-0.016": 0.779166683796,
			"-0.015": 0.854249159575,
			"-0.014": 1.09228514855,
			"-0.013": 1.3914075816,
			"-0.012": 1.41074940081,
			"-0.011": 1.03822290264,
			"-0.01": 1.77193667396,
			"-0.009": 2.80791830248,
			"-0.008": 5.92878341186,
			"-0.007": 6.61873138476,
			"-0.006": 4.95905047568,
			"-0.005": 5.53738466569,
			"-0.004": 5.72981167448,
			"-0.003": 9.56747708553,
			"-0.002": 15.4711568434,
			"-0.001": 15.8100063061,
			"0.0": 11.0536292407,
			"0.001": 8.18105181249,
			"0.002": 8.41041482358,
			"0.003": 10.5217442601,
			"0.004": 10.3050815049,
			"0.005": 5.12446834593,
			"0.006": 4.23107098814,
			"0.007": 3.6149015949,
			"0.008": 4.65808231884,
			"0.009": 4.45913375842,
			"0.01": 6.13003512707,
			"0.011": 6.47241966881,
			"0.012": 3.50176845361,
			"0.013": 1.01335606935,
			"0.014": 0.23037052524,
			"0.015": 0.0,
			"0.016": 0.0,
			"0.017": 0.0,
			"0.018": 0.0,
			"0.019": 0.0,
			"0.02": 0.0,
			"0.021": 0.0,
			"0.022": 0.0,
			"0.023": 0.0,
			"0.024": 0.0,
			"0.025": 0.0
		}
	}
}
