{
	 "smiles": "COC1=CC(OC)=C(Cl)C=C1N(C)S(=O)(=O)C1=CC(=CC=C1)C(O)=O", 
	 "Tm": 482.15, 
	 "num_atms": 41, 
	 "gaussian": { 
		 "optdone": 1, 
		 "sigma_profile": "yes", 
		 "theory": "DFT", 
		 "functional": "B3LYP", 
		 "basiset": "6-31G**", 
		 "properties": { 
			 "R2extent": 10516.0014, 
			 "electric_dipole_moment_norm": 5.91280915386, 
			 "electric_quadrupole_moment_norm": 20.9919892168, 
			 "total_energy": -1983.7184531, 
			 "HOMO_LUMO_gap": 0.16451, 
			 "cosmo_polarized_energy": -24.73, 
			 "cosmo_cavitation_energy": 48.32, 
			 "cosmo_dispersion_energy": -31.55, 
			 "cosmo_repulsion_energy": 2.38, 
			 "cosmo_total_nonelectrostatic_energy": 19.15, 
			 "SMD_solvation_energy": 9.85 
		},
		"coords": [
			{
				"x": -0.1547224706,
				"y": 1.7793823694,
				"z": 1.0738004294,
				"element": "C" 
			},
			{
				"x": -0.5363534906,
				"y": 0.7975803578,
				"z": 0.115578711,
				"element": "O" 
			},
			{
				"x": -0.6043416343,
				"y": -0.5033307368,
				"z": 0.5089131787,
				"element": "C" 
			},
			{
				"x": -0.39245615,
				"y": -0.9361446883,
				"z": 1.8203683823,
				"element": "C" 
			},
			{
				"x": -0.4468344825,
				"y": -2.2954597886,
				"z": 2.1485945072,
				"element": "C" 
			},
			{
				"x": -0.1651408061,
				"y": -2.6670536077,
				"z": 3.4341984598,
				"element": "O" 
			},
			{
				"x": -1.3041892381,
				"y": -2.9297773714,
				"z": 4.2621373638,
				"element": "C" 
			},
			{
				"x": -0.7280809858,
				"y": -3.2321561298,
				"z": 1.144808261,
				"element": "C" 
			},
			{
				"x": -0.7635345794,
				"y": -4.9441441041,
				"z": 1.5161844579,
				"element": "Cl" 
			},
			{
				"x": -0.9643485907,
				"y": -2.805765907,
				"z": -0.1598325713,
				"element": "C" 
			},
			{
				"x": -0.9109752748,
				"y": -1.4519702155,
				"z": -0.4949250563,
				"element": "C" 
			},
			{
				"x": -1.1795493528,
				"y": -1.0623484142,
				"z": -1.8449584363,
				"element": "N" 
			},
			{
				"x": -2.2779606742,
				"y": -0.1220658065,
				"z": -2.1187977339,
				"element": "C" 
			},
			{
				"x": 0.0716223628,
				"y": -1.1764125096,
				"z": -2.9772940756,
				"element": "S" 
			},
			{
				"x": -0.5388261948,
				"y": -0.9332533533,
				"z": -4.2857412409,
				"element": "O" 
			},
			{
				"x": 0.8045768174,
				"y": -2.4052540706,
				"z": -2.6713183204,
				"element": "O" 
			},
			{
				"x": 1.2018209308,
				"y": 0.1877872125,
				"z": -2.6584265874,
				"element": "C" 
			},
			{
				"x": 2.247154708,
				"y": 0.0007277424,
				"z": -1.7534866284,
				"element": "C" 
			},
			{
				"x": 3.1005656724,
				"y": 1.070195829,
				"z": -1.4610684495,
				"element": "C" 
			},
			{
				"x": 2.8853404539,
				"y": 2.3151681447,
				"z": -2.0709292773,
				"element": "C" 
			},
			{
				"x": 1.8545789965,
				"y": 2.4801189475,
				"z": -2.9926992695,
				"element": "C" 
			},
			{
				"x": 1.0035204032,
				"y": 1.4140017973,
				"z": -3.2941300338,
				"element": "C" 
			},
			{
				"x": 4.2295992452,
				"y": 0.9610704004,
				"z": -0.4764430152,
				"element": "C" 
			},
			{
				"x": 4.7139521311,
				"y": -0.2809564139,
				"z": -0.2296146716,
				"element": "O" 
			},
			{
				"x": 4.6974941838,
				"y": 1.9211583608,
				"z": 0.0897323363,
				"element": "O" 
			},
			{
				"x": -0.1273833941,
				"y": 2.7261751629,
				"z": 0.5339596166,
				"element": "H" 
			},
			{
				"x": 0.8386016843,
				"y": 1.5692865336,
				"z": 1.4867977168,
				"element": "H" 
			},
			{
				"x": -0.8831754117,
				"y": 1.8471386562,
				"z": 1.8908167589,
				"element": "H" 
			},
			{
				"x": -0.1525611985,
				"y": -0.2434372752,
				"z": 2.6169200035,
				"element": "H" 
			},
			{
				"x": -1.931438603,
				"y": -2.034486701,
				"z": 4.3587730925,
				"element": "H" 
			},
			{
				"x": -1.9052888563,
				"y": -3.7558558,
				"z": 3.8682225042,
				"element": "H" 
			},
			{
				"x": -0.9096659934,
				"y": -3.20434994,
				"z": 5.2416963227,
				"element": "H" 
			},
			{
				"x": -1.1792614153,
				"y": -3.5248026445,
				"z": -0.9402908618,
				"element": "H" 
			},
			{
				"x": -2.5165841749,
				"y": -0.1671511211,
				"z": -3.1809295106,
				"element": "H" 
			},
			{
				"x": -3.147899806,
				"y": -0.4590663392,
				"z": -1.5500106112,
				"element": "H" 
			},
			{
				"x": -2.0371244367,
				"y": 0.9048530309,
				"z": -1.8260961844,
				"element": "H" 
			},
			{
				"x": 2.3575132036,
				"y": -0.9718082665,
				"z": -1.2838115672,
				"element": "H" 
			},
			{
				"x": 3.5472843109,
				"y": 3.1349143664,
				"z": -1.8133742814,
				"element": "H" 
			},
			{
				"x": 1.7126219279,
				"y": 3.4384644081,
				"z": -3.4825710445,
				"element": "H" 
			},
			{
				"x": 0.2062850729,
				"y": 1.5185760631,
				"z": -4.0218115402,
				"element": "H" 
			},
			{
				"x": 4.35436511,
				"y": -0.9229481783,
				"z": -0.8580411339,
				"element": "H" 
			}
		],
		 "valence_orbital": [ 
			{
				"type": "occ",
				"energy": -0.28864,
				"method": "rhf"
			},
			{
				"type": "occ",
				"energy": -0.2815,
				"method": "rhf"
			},
			{
				"type": "occ",
				"energy": -0.27315,
				"method": "rhf"
			},
			{
				"type": "occ",
				"energy": -0.2549,
				"method": "rhf"
			},
			{
				"type": "occ",
				"energy": -0.23153,
				"method": "rhf"
			},
			{
				"type": "unocc",
				"energy": -0.06702,
				"method": "rhf"
			},
			{
				"type": "unocc",
				"energy": -0.05115,
				"method": "rhf"
			},
			{
				"type": "unocc",
				"energy": -0.0283,
				"method": "rhf"
			},
			{
				"type": "unocc",
				"energy": -0.01369,
				"method": "rhf"
			},
			{
				"type": "unocc",
				"energy": 0.02368,
				"method": "rhf"
			}
		],
		"cosmo_sigma_profile": { 
			"-0.025": 0.0,
			"-0.024": 0.0,
			"-0.023": 0.0,
			"-0.022": 0.0,
			"-0.021": 0.0,
			"-0.02": 0.0472521505889,
			"-0.019": 0.639378424536,
			"-0.018": 1.40982477712,
			"-0.017": 0.784478047964,
			"-0.016": 0.91886060641,
			"-0.015": 0.938795330833,
			"-0.014": 0.749129345191,
			"-0.013": 1.69576861059,
			"-0.012": 1.13845089369,
			"-0.011": 0.908209654151,
			"-0.01": 0.796883154397,
			"-0.009": 0.599300181097,
			"-0.008": 4.68667758767,
			"-0.007": 12.1888613619,
			"-0.006": 21.2515798227,
			"-0.005": 23.7386600051,
			"-0.004": 31.8208846774,
			"-0.003": 36.7604486628,
			"-0.002": 28.5083741224,
			"-0.001": 22.7385320568,
			"0.0": 28.6326897676,
			"0.001": 32.5046208595,
			"0.002": 26.6960299344,
			"0.003": 17.6148378224,
			"0.004": 15.4215906213,
			"0.005": 10.2048950325,
			"0.006": 7.52775454449,
			"0.007": 8.80579659715,
			"0.008": 7.39233476345,
			"0.009": 9.34805553582,
			"0.01": 13.422812196,
			"0.011": 12.7933144665,
			"0.012": 4.18249968259,
			"0.013": 0.793647889972,
			"0.014": 0.0,
			"0.015": 0.0,
			"0.016": 0.0,
			"0.017": 0.0,
			"0.018": 0.0,
			"0.019": 0.0,
			"0.02": 0.0,
			"0.021": 0.0,
			"0.022": 0.0,
			"0.023": 0.0,
			"0.024": 0.0,
			"0.0": 0.0
		}
	}
}
