{
	 "smiles": "CC(CC1=CC(O)=C(O)C=C1)(NN)C(O)=O", 
	 "Tm": 481.15, 
	 "num_atms": 30, 
	 "gaussian": { 
		 "optdone": 1, 
		 "sigma_profile": "yes", 
		 "theory": "DFT", 
		 "functional": "B3LYP", 
		 "basiset": "6-31G**", 
		 "properties": { 
			 "R2extent": 4582.0337, 
			 "electric_dipole_moment_norm": 4.94127738444, 
			 "electric_quadrupole_moment_norm": 28.0287656243, 
			 "total_energy": -799.870623146, 
			 "HOMO_LUMO_gap": 0.21028, 
			 "cosmo_polarized_energy": -25.21, 
			 "cosmo_cavitation_energy": 32.72, 
			 "cosmo_dispersion_energy": -23.39, 
			 "cosmo_repulsion_energy": 1.83, 
			 "cosmo_total_nonelectrostatic_energy": 11.16, 
			 "SMD_solvation_energy": 7.37 
		},
		"coords": [
			{
				"x": -1.9909976423,
				"y": -0.3874222939,
				"z": 0.8911041962,
				"element": "C" 
			},
			{
				"x": -0.8122250858,
				"y": 0.4080751868,
				"z": 1.4791948827,
				"element": "C" 
			},
			{
				"x": -0.2144299529,
				"y": 1.4006286169,
				"z": 0.4463933943,
				"element": "C" 
			},
			{
				"x": -0.0055980643,
				"y": 0.8809955199,
				"z": -0.9612978679,
				"element": "C" 
			},
			{
				"x": 0.9695110436,
				"y": -0.0873187017,
				"z": -1.2536501495,
				"element": "C" 
			},
			{
				"x": 1.1616476707,
				"y": -0.5373595765,
				"z": -2.5554205693,
				"element": "C" 
			},
			{
				"x": 2.1129955272,
				"y": -1.4791730447,
				"z": -2.8195287678,
				"element": "O" 
			},
			{
				"x": 0.3734994325,
				"y": -0.0164544249,
				"z": -3.5971120727,
				"element": "C" 
			},
			{
				"x": 0.6467300915,
				"y": -0.5274946846,
				"z": -4.8475004673,
				"element": "O" 
			},
			{
				"x": -0.5927991196,
				"y": 0.9428565477,
				"z": -3.3239345451,
				"element": "C" 
			},
			{
				"x": -0.7794499245,
				"y": 1.3884758247,
				"z": -2.0107673512,
				"element": "C" 
			},
			{
				"x": 0.285393521,
				"y": -0.531790247,
				"z": 1.840679093,
				"element": "N" 
			},
			{
				"x": -0.1411338229,
				"y": -1.4951483416,
				"z": 2.8728066921,
				"element": "N" 
			},
			{
				"x": -1.3583431175,
				"y": 1.2317772985,
				"z": 2.6913157905,
				"element": "C" 
			},
			{
				"x": -1.4396125094,
				"y": 0.5707327265,
				"z": 3.8551410455,
				"element": "O" 
			},
			{
				"x": -1.7210538465,
				"y": 2.3834518369,
				"z": 2.5895121614,
				"element": "O" 
			},
			{
				"x": -2.7492512089,
				"y": 0.3024286243,
				"z": 0.511893742,
				"element": "H" 
			},
			{
				"x": -2.4674026297,
				"y": -1.0158886116,
				"z": 1.6495937899,
				"element": "H" 
			},
			{
				"x": -1.6461163646,
				"y": -1.0150701883,
				"z": 0.0656870383,
				"element": "H" 
			},
			{
				"x": -0.8845715172,
				"y": 2.2619628214,
				"z": 0.4269327789,
				"element": "H" 
			},
			{
				"x": 0.7356912956,
				"y": 1.7751898034,
				"z": 0.8536022634,
				"element": "H" 
			},
			{
				"x": 1.5781948668,
				"y": -0.5136445118,
				"z": -0.464673247,
				"element": "H" 
			},
			{
				"x": 2.0976615438,
				"y": -1.6454762549,
				"z": -3.7738688668,
				"element": "H" 
			},
			{
				"x": 0.0844128326,
				"y": -0.0996618614,
				"z": -5.5045040603,
				"element": "H" 
			},
			{
				"x": -1.1990496917,
				"y": 1.3466459203,
				"z": -4.1323236069,
				"element": "H" 
			},
			{
				"x": -1.5324053649,
				"y": 2.1446438547,
				"z": -1.8087370165,
				"element": "H" 
			},
			{
				"x": 1.0135296063,
				"y": 0.025109613,
				"z": 2.2879800367,
				"element": "H" 
			},
			{
				"x": 0.7139199834,
				"y": -1.8333366223,
				"z": 3.311619762,
				"element": "H" 
			},
			{
				"x": -0.5088297317,
				"y": -2.297257884,
				"z": 2.3623570457,
				"element": "H" 
			},
			{
				"x": -1.0855178207,
				"y": -0.3541769457,
				"z": 3.7279048757,
				"element": "H" 
			}
		],
		 "valence_orbital": [ 
			{
				"type": "occ",
				"energy": -0.29073,
				"method": "rhf"
			},
			{
				"type": "occ",
				"energy": -0.26265,
				"method": "rhf"
			},
			{
				"type": "occ",
				"energy": -0.23394,
				"method": "rhf"
			},
			{
				"type": "occ",
				"energy": -0.22514,
				"method": "rhf"
			},
			{
				"type": "occ",
				"energy": -0.20588,
				"method": "rhf"
			},
			{
				"type": "unocc",
				"energy": 0.0044,
				"method": "rhf"
			},
			{
				"type": "unocc",
				"energy": 0.01833,
				"method": "rhf"
			},
			{
				"type": "unocc",
				"energy": 0.02323,
				"method": "rhf"
			},
			{
				"type": "unocc",
				"energy": 0.04821,
				"method": "rhf"
			},
			{
				"type": "unocc",
				"energy": 0.05373,
				"method": "rhf"
			}
		],
		"cosmo_sigma_profile": { 
			"-0.025": 0.0,
			"-0.024": 0.0,
			"-0.023": 0.0,
			"-0.022": 0.0,
			"-0.021": 0.0,
			"-0.02": 0.0,
			"-0.019": 0.013978117447,
			"-0.018": 0.895477544048,
			"-0.017": 1.11153259591,
			"-0.016": 1.06762452169,
			"-0.015": 0.965757543866,
			"-0.014": 2.91881673854,
			"-0.013": 4.19652178081,
			"-0.012": 6.35241521612,
			"-0.011": 6.50099921769,
			"-0.01": 5.57934056918,
			"-0.009": 5.402536091,
			"-0.008": 4.82149396121,
			"-0.007": 4.18504861923,
			"-0.006": 6.11156630923,
			"-0.005": 8.30455206582,
			"-0.004": 14.7286396529,
			"-0.003": 16.1225477675,
			"-0.002": 17.0504332771,
			"-0.001": 16.0483537484,
			"0.0": 13.820864384,
			"0.001": 12.541213963,
			"0.002": 10.3715751324,
			"0.003": 13.4995612457,
			"0.004": 15.3465906086,
			"0.005": 12.870398785,
			"0.006": 12.0799151584,
			"0.007": 7.09856380512,
			"0.008": 5.41980958562,
			"0.009": 4.06809120231,
			"0.01": 6.13514518011,
			"0.011": 5.98964924413,
			"0.012": 8.85394250271,
			"0.013": 4.62150027897,
			"0.014": 1.38503674426,
			"0.015": 0.0,
			"0.016": 0.0,
			"0.017": 0.0,
			"0.018": 0.0,
			"0.019": 0.0,
			"0.02": 0.0,
			"0.021": 0.0,
			"0.022": 0.0,
			"0.023": 0.0,
			"0.024": 0.0,
			"0.025": 0.0
		}
	}
}
