{
	 "smiles": "CC(C)C(=O)NC1=CC(=C(C=C1)[N+]([O-])=O)C(F)(F)F", 
	 "Tm": 385.15, 
	 "num_atms": 30, 
	 "gaussian": { 
		 "optdone": 1, 
		 "sigma_profile": "yes", 
		 "theory": "DFT", 
		 "functional": "B3LYP", 
		 "basiset": "6-31G**", 
		 "properties": { 
			 "R2extent": 7087.0064, 
			 "electric_dipole_moment_norm": 7.57323585134, 
			 "electric_quadrupole_moment_norm": 15.1342289242, 
			 "total_energy": -1060.41961696, 
			 "HOMO_LUMO_gap": 0.16408, 
			 "cosmo_polarized_energy": -17.14, 
			 "cosmo_cavitation_energy": 35.85, 
			 "cosmo_dispersion_energy": -25.08, 
			 "cosmo_repulsion_energy": 1.88, 
			 "cosmo_total_nonelectrostatic_energy": 12.65, 
			 "SMD_solvation_energy": 9.82 
		},
		"coords": [
			{
				"x": -0.0282630022,
				"y": -0.3785884741,
				"z": 4.1800245468,
				"element": "C" 
			},
			{
				"x": 0.1339625977,
				"y": -1.6444173931,
				"z": 3.3176157508,
				"element": "C" 
			},
			{
				"x": -1.1704389326,
				"y": -2.4586231987,
				"z": 3.2409574832,
				"element": "C" 
			},
			{
				"x": 0.7014702696,
				"y": -1.3177557822,
				"z": 1.9317752817,
				"element": "C" 
			},
			{
				"x": 1.8040781639,
				"y": -1.6974624854,
				"z": 1.5709559876,
				"element": "O" 
			},
			{
				"x": -0.1360876528,
				"y": -0.5525395506,
				"z": 1.1300627518,
				"element": "N" 
			},
			{
				"x": 0.0839865431,
				"y": -0.0828710255,
				"z": -0.1691611847,
				"element": "C" 
			},
			{
				"x": -0.9343148879,
				"y": 0.6911052265,
				"z": -0.7537219334,
				"element": "C" 
			},
			{
				"x": -0.8321125543,
				"y": 1.1973567325,
				"z": -2.0451062359,
				"element": "C" 
			},
			{
				"x": 0.3472134638,
				"y": 0.9253004964,
				"z": -2.764483919,
				"element": "C" 
			},
			{
				"x": 1.3736869767,
				"y": 0.1835621141,
				"z": -2.1823444454,
				"element": "C" 
			},
			{
				"x": 1.256625009,
				"y": -0.3332432325,
				"z": -0.8986751264,
				"element": "C" 
			},
			{
				"x": 0.5652586371,
				"y": 1.3638277812,
				"z": -4.1508209969,
				"element": "N" 
			},
			{
				"x": 1.7328201114,
				"y": 1.4846956338,
				"z": -4.5234300438,
				"element": "O" 
			},
			{
				"x": -0.4210618431,
				"y": 1.5503404824,
				"z": -4.8578469105,
				"element": "O" 
			},
			{
				"x": -1.9891899705,
				"y": 2.0482886848,
				"z": -2.550897436,
				"element": "C" 
			},
			{
				"x": -2.7525269408,
				"y": 1.4009072235,
				"z": -3.4435616045,
				"element": "F" 
			},
			{
				"x": -1.5656563646,
				"y": 3.2022953046,
				"z": -3.0924876718,
				"element": "F" 
			},
			{
				"x": -2.8076127256,
				"y": 2.3845595257,
				"z": -1.5193520556,
				"element": "F" 
			},
			{
				"x": -0.808393405,
				"y": 0.287380373,
				"z": 3.7926225539,
				"element": "H" 
			},
			{
				"x": -0.3147969233,
				"y": -0.6547064483,
				"z": 5.1995396185,
				"element": "H" 
			},
			{
				"x": 0.904361266,
				"y": 0.1906816882,
				"z": 4.2333570558,
				"element": "H" 
			},
			{
				"x": 0.9098630431,
				"y": -2.2722012013,
				"z": 3.7655463625,
				"element": "H" 
			},
			{
				"x": -1.0509220844,
				"y": -3.3513564032,
				"z": 2.6200332298,
				"element": "H" 
			},
			{
				"x": -2.0030065967,
				"y": -1.8728520999,
				"z": 2.8329447175,
				"element": "H" 
			},
			{
				"x": -1.4675194376,
				"y": -2.7817856033,
				"z": 4.2434417542,
				"element": "H" 
			},
			{
				"x": -1.0272601324,
				"y": -0.2985475374,
				"z": 1.5326858909,
				"element": "H" 
			},
			{
				"x": -1.8266018393,
				"y": 0.9176847816,
				"z": -0.1815935991,
				"element": "H" 
			},
			{
				"x": 2.2717410306,
				"y": 0.0124112886,
				"z": -2.7626263634,
				"element": "H" 
			},
			{
				"x": 2.048798181,
				"y": -0.9195469012,
				"z": -0.4569534585,
				"element": "H" 
			}
		],
		 "valence_orbital": [ 
			{
				"type": "occ",
				"energy": -0.30887,
				"method": "rhf"
			},
			{
				"type": "occ",
				"energy": -0.29336,
				"method": "rhf"
			},
			{
				"type": "occ",
				"energy": -0.29147,
				"method": "rhf"
			},
			{
				"type": "occ",
				"energy": -0.27379,
				"method": "rhf"
			},
			{
				"type": "occ",
				"energy": -0.25534,
				"method": "rhf"
			},
			{
				"type": "unocc",
				"energy": -0.09126,
				"method": "rhf"
			},
			{
				"type": "unocc",
				"energy": -0.04468,
				"method": "rhf"
			},
			{
				"type": "unocc",
				"energy": -0.0261,
				"method": "rhf"
			},
			{
				"type": "unocc",
				"energy": 0.01766,
				"method": "rhf"
			},
			{
				"type": "unocc",
				"energy": 0.03362,
				"method": "rhf"
			}
		],
		"cosmo_sigma_profile": { 
			"-0.025": 0.0,
			"-0.024": 0.0,
			"-0.023": 0.0,
			"-0.022": 0.0,
			"-0.021": 0.0,
			"-0.02": 0.0,
			"-0.019": 0.0,
			"-0.018": 0.0,
			"-0.017": 0.0373746522251,
			"-0.016": 0.727615894909,
			"-0.015": 1.15441972259,
			"-0.014": 1.42790243771,
			"-0.013": 1.6625644474,
			"-0.012": 2.06547418816,
			"-0.011": 1.20988905608,
			"-0.01": 1.74407983517,
			"-0.009": 1.62398086072,
			"-0.008": 3.17818902681,
			"-0.007": 4.93794433049,
			"-0.006": 5.76413410696,
			"-0.005": 9.06207633083,
			"-0.004": 21.4363514812,
			"-0.003": 22.7757635871,
			"-0.002": 27.8069791044,
			"-0.001": 33.8110120588,
			"0.0": 32.3962228398,
			"0.001": 18.1696856576,
			"0.002": 23.0239054762,
			"0.003": 18.1057540341,
			"0.004": 6.00418492704,
			"0.005": 5.65598566674,
			"0.006": 6.18269590668,
			"0.007": 10.8624341673,
			"0.008": 8.5527028576,
			"0.009": 5.57420174349,
			"0.01": 3.92873655256,
			"0.011": 1.85728250607,
			"0.012": 2.84422158563,
			"0.013": 1.66600379104,
			"0.014": 0.224495720409,
			"0.015": 0.0,
			"0.016": 0.0,
			"0.017": 0.0,
			"0.018": 0.0,
			"0.019": 0.0,
			"0.02": 0.0,
			"0.021": 0.0,
			"0.022": 0.0,
			"0.023": 0.0,
			"0.024": 0.0,
			"0.025": 0.0
		}
	}
}
