{
	 "smiles": "COC1=C2C=CC=CC2=CC=C1", 
	 "Tm": 278.15, 
	 "num_atms": 22, 
	 "gaussian": { 
		 "optdone": 1, 
		 "sigma_profile": "yes", 
		 "theory": "DFT", 
		 "functional": "B3LYP", 
		 "basiset": "6-31G**", 
		 "properties": { 
			 "R2extent": 2103.7937, 
			 "electric_dipole_moment_norm": 1.45880650533, 
			 "electric_quadrupole_moment_norm": 9.94336615639, 
			 "total_energy": -500.420881937, 
			 "HOMO_LUMO_gap": 0.17112, 
			 "cosmo_polarized_energy": -6.1, 
			 "cosmo_cavitation_energy": 25.08, 
			 "cosmo_dispersion_energy": -18.87, 
			 "cosmo_repulsion_energy": 1.47, 
			 "cosmo_total_nonelectrostatic_energy": 7.68, 
			 "SMD_solvation_energy": 4.82 
		},
		"coords": [
			{
				"x": -3.2878033268,
				"y": -1.8860966598,
				"z": 1.115074895,
				"element": "C" 
			},
			{
				"x": -2.2003425902,
				"y": -1.0169534201,
				"z": 1.3838652304,
				"element": "O" 
			},
			{
				"x": -1.2931786102,
				"y": -0.7889294968,
				"z": 0.3898547498,
				"element": "C" 
			},
			{
				"x": -0.2241354058,
				"y": 0.1000512012,
				"z": 0.7404505716,
				"element": "C" 
			},
			{
				"x": -0.1280340506,
				"y": 0.6912540415,
				"z": 2.0264397512,
				"element": "C" 
			},
			{
				"x": 0.9131456161,
				"y": 1.5417492615,
				"z": 2.3306536465,
				"element": "C" 
			},
			{
				"x": 1.9012976686,
				"y": 1.836515253,
				"z": 1.3621488797,
				"element": "C" 
			},
			{
				"x": 1.8301398693,
				"y": 1.2750999429,
				"z": 0.1064709155,
				"element": "C" 
			},
			{
				"x": 0.7721737891,
				"y": 0.3940759016,
				"z": -0.2439197012,
				"element": "C" 
			},
			{
				"x": 0.678914208,
				"y": -0.1971436782,
				"z": -1.5348344987,
				"element": "C" 
			},
			{
				"x": -0.360706006,
				"y": -1.043804583,
				"z": -1.8320918296,
				"element": "C" 
			},
			{
				"x": -1.357697776,
				"y": -1.3481718034,
				"z": -0.8717027848,
				"element": "C" 
			},
			{
				"x": -3.9137917926,
				"y": -1.507640306,
				"z": 0.2967741396,
				"element": "H" 
			},
			{
				"x": -3.8780962334,
				"y": -1.9245307197,
				"z": 2.0319176015,
				"element": "H" 
			},
			{
				"x": -2.9431097424,
				"y": -2.8973285478,
				"z": 0.863467213,
				"element": "H" 
			},
			{
				"x": -0.8886644732,
				"y": 0.4608776542,
				"z": 2.7634558957,
				"element": "H" 
			},
			{
				"x": 0.9771866983,
				"y": 1.9890117754,
				"z": 3.3184557614,
				"element": "H" 
			},
			{
				"x": 2.7176709439,
				"y": 2.5081742859,
				"z": 1.6125111009,
				"element": "H" 
			},
			{
				"x": 2.5876779383,
				"y": 1.4993455542,
				"z": -0.6402345563,
				"element": "H" 
			},
			{
				"x": 1.4394028275,
				"y": 0.0314451379,
				"z": -2.2760882472,
				"element": "H" 
			},
			{
				"x": -0.4318800657,
				"y": -1.4951544647,
				"z": -2.8176680458,
				"element": "H" 
			},
			{
				"x": -2.1626694863,
				"y": -2.0204463296,
				"z": -1.1426006883,
				"element": "H" 
			}
		],
		 "valence_orbital": [ 
			{
				"type": "occ",
				"energy": -0.31973,
				"method": "rhf"
			},
			{
				"type": "occ",
				"energy": -0.31019,
				"method": "rhf"
			},
			{
				"type": "occ",
				"energy": -0.25687,
				"method": "rhf"
			},
			{
				"type": "occ",
				"energy": -0.238,
				"method": "rhf"
			},
			{
				"type": "occ",
				"energy": -0.19795,
				"method": "rhf"
			},
			{
				"type": "unocc",
				"energy": -0.02683,
				"method": "rhf"
			},
			{
				"type": "unocc",
				"energy": -0.0034,
				"method": "rhf"
			},
			{
				"type": "unocc",
				"energy": 0.04619,
				"method": "rhf"
			},
			{
				"type": "unocc",
				"energy": 0.09566,
				"method": "rhf"
			},
			{
				"type": "unocc",
				"energy": 0.10718,
				"method": "rhf"
			}
		],
		"cosmo_sigma_profile": { 
			"-0.025": 0.0,
			"-0.024": 0.0,
			"-0.023": 0.0,
			"-0.022": 0.0,
			"-0.021": 0.0,
			"-0.02": 0.0,
			"-0.019": 0.0,
			"-0.018": 0.0,
			"-0.017": 0.0,
			"-0.016": 0.0,
			"-0.015": 0.0,
			"-0.014": 0.0,
			"-0.013": 0.0,
			"-0.012": 0.0,
			"-0.011": 0.0,
			"-0.01": 0.0,
			"-0.009": 0.0,
			"-0.008": 0.0,
			"-0.007": 0.178346201469,
			"-0.006": 9.01753301459,
			"-0.005": 22.8892402281,
			"-0.004": 20.369753512,
			"-0.003": 22.1903940208,
			"-0.002": 12.858273625,
			"-0.001": 11.9235466464,
			"0.0": 8.74212195837,
			"0.001": 9.03707063015,
			"0.002": 11.0592456622,
			"0.003": 16.0845353779,
			"0.004": 21.7490950105,
			"0.005": 21.4989060028,
			"0.006": 10.0721662051,
			"0.007": 1.7738803344,
			"0.008": 1.00579288237,
			"0.009": 0.0704734799064,
			"0.01": 0.0,
			"0.011": 0.0,
			"0.012": 0.0,
			"0.013": 0.0,
			"0.014": 0.0,
			"0.015": 0.0,
			"0.016": 0.0,
			"0.017": 0.0,
			"0.018": 0.0,
			"0.019": 0.0,
			"0.02": 0.0,
			"0.021": 0.0,
			"0.022": 0.0,
			"0.023": 0.0,
			"0.024": 0.0,
			"0.025": 0.0
		}
	}
}
