{
	 "smiles": "NC1=C(F)C=C(I)C=C1", 
	 "Tm": 329.15, 
	 "num_atms": 14, 
	 "gaussian": { 
		 "optdone": 1, 
		 "sigma_profile": "no", 
		 "theory": "DFT", 
		 "functional": "B3LYP", 
		 "basiset": "6-31G**", 
		 "properties": { 
			 "R2extent": 1814.1671, 
			 "electric_dipole_moment_norm": 3.10556144682, 
			 "electric_quadrupole_moment_norm": 5.55887660683, 
			 "total_energy": -397.623800001, 
			 "HOMO_LUMO_gap": 0.17371, 
			 "cosmo_polarized_energy": -98888.5, 
			 "cosmo_cavitation_energy": 21.7, 
			 "cosmo_dispersion_energy": -17.61, 
			 "cosmo_repulsion_energy": 1.39, 
			 "cosmo_total_nonelectrostatic_energy": 5.47, 
			 "SMD_solvation_energy": 3.24 
		},
		"coords": [
			{
				"x": -0.5392129734,
				"y": 2.4064429612,
				"z": -0.4008253267,
				"element": "N" 
			},
			{
				"x": -0.7392136046,
				"y": 1.2059538575,
				"z": 0.2673092255,
				"element": "C" 
			},
			{
				"x": -0.9894118106,
				"y": 1.2073565509,
				"z": 1.6482674009,
				"element": "C" 
			},
			{
				"x": -0.9514523516,
				"y": 2.4072509895,
				"z": 2.2836616844,
				"element": "F" 
			},
			{
				"x": -1.2535116614,
				"y": 0.0602029127,
				"z": 2.37526431,
				"element": "C" 
			},
			{
				"x": -1.2719644381,
				"y": -1.1641692929,
				"z": 1.7005524801,
				"element": "C" 
			},
			{
				"x": -1.6712855136,
				"y": -2.9440217686,
				"z": 2.7781588928,
				"element": "I" 
			},
			{
				"x": -1.0254919948,
				"y": -1.2160951445,
				"z": 0.3286088637,
				"element": "C" 
			},
			{
				"x": -0.7632326124,
				"y": -0.0401765126,
				"z": -0.3759527515,
				"element": "C" 
			},
			{
				"x": 0.0022752037,
				"y": 2.3508383588,
				"z": -1.2512350815,
				"element": "H" 
			},
			{
				"x": -0.2730840355,
				"y": 3.1793260349,
				"z": 0.1927290412,
				"element": "H" 
			},
			{
				"x": -1.4331143043,
				"y": 0.1401673338,
				"z": 3.4405442975,
				"element": "H" 
			},
			{
				"x": -1.0367532323,
				"y": -2.1634573938,
				"z": -0.1979050989,
				"element": "H" 
			},
			{
				"x": -0.5789466711,
				"y": -0.086918887,
				"z": -1.4458779377,
				"element": "H" 
			}
		],
		 "valence_orbital": [ 
			{
				"type": "occ",
				"energy": -0.3374,
				"method": "rhf"
			},
			{
				"type": "occ",
				"energy": -0.2693,
				"method": "rhf"
			},
			{
				"type": "occ",
				"energy": -0.2656,
				"method": "rhf"
			},
			{
				"type": "occ",
				"energy": -0.25763,
				"method": "rhf"
			},
			{
				"type": "occ",
				"energy": -0.20967,
				"method": "rhf"
			},
			{
				"type": "unocc",
				"energy": -0.03596,
				"method": "rhf"
			},
			{
				"type": "unocc",
				"energy": -0.01214,
				"method": "rhf"
			},
			{
				"type": "unocc",
				"energy": -0.00163,
				"method": "rhf"
			},
			{
				"type": "unocc",
				"energy": 0.04521,
				"method": "rhf"
			},
			{
				"type": "unocc",
				"energy": 0.05343,
				"method": "rhf"
			}
		],
		"cosmo_sigma_profile": { 
			"0.0": 0.0,
			"0.0": 0.0,
			"0.0": 0.0,
			"0.0": 0.0,
			"0.0": 0.0,
			"0.0": 0.0,
			"0.0": 0.0,
			"0.0": 0.0,
			"0.0": 0.0,
			"0.0": 0.0,
			"0.0": 0.0,
			"0.0": 0.0,
			"0.0": 0.0,
			"0.0": 0.0,
			"0.0": 0.0,
			"0.0": 0.0,
			"0.0": 0.0,
			"0.0": 0.0,
			"0.0": 0.0,
			"0.0": 0.0,
			"0.0": 0.0,
			"0.0": 0.0,
			"0.0": 0.0,
			"0.0": 0.0,
			"0.0": 0.0,
			"0.0": 0.0,
			"0.0": 0.0,
			"0.0": 0.0,
			"0.0": 0.0,
			"0.0": 0.0,
			"0.0": 0.0,
			"0.0": 0.0,
			"0.0": 0.0,
			"0.0": 0.0,
			"0.0": 0.0,
			"0.0": 0.0,
			"0.0": 0.0,
			"0.0": 0.0,
			"0.0": 0.0,
			"0.0": 0.0,
			"0.0": 0.0,
			"0.0": 0.0,
			"0.0": 0.0,
			"0.0": 0.0,
			"0.0": 0.0,
			"0.0": 0.0,
			"0.0": 0.0,
			"0.0": 0.0,
			"0.0": 0.0,
			"0.0": 0.0,
			"0.0": 0.0
		}
	}
}
