{
	 "smiles": "OC(=O)CCCCCC(=O)C1=CC=CC=C1", 
	 "Tm": 358.15, 
	 "num_atms": 32, 
	 "gaussian": { 
		 "optdone": 1, 
		 "sigma_profile": "yes", 
		 "theory": "DFT", 
		 "functional": "B3LYP", 
		 "basiset": "6-31G**", 
		 "properties": { 
			 "R2extent": 5351.515, 
			 "electric_dipole_moment_norm": 7.63502455792, 
			 "electric_quadrupole_moment_norm": 37.1201132902, 
			 "total_energy": -730.722400506, 
			 "HOMO_LUMO_gap": 0.16337, 
			 "cosmo_polarized_energy": -15.76, 
			 "cosmo_cavitation_energy": 34.05, 
			 "cosmo_dispersion_energy": -24.0, 
			 "cosmo_repulsion_energy": 1.86, 
			 "cosmo_total_nonelectrostatic_energy": 11.91, 
			 "SMD_solvation_energy": 6.39 
		},
		"coords": [
			{
				"x": 4.1164404797,
				"y": -0.2813082701,
				"z": -1.1004044942,
				"element": "O" 
			},
			{
				"x": 3.9213518946,
				"y": -0.4958479521,
				"z": -2.4233160982,
				"element": "C" 
			},
			{
				"x": 4.7756012174,
				"y": -0.2008391996,
				"z": -3.2255515523,
				"element": "O" 
			},
			{
				"x": 2.5872831064,
				"y": -1.1349176655,
				"z": -2.7966894532,
				"element": "C" 
			},
			{
				"x": 2.4725300385,
				"y": -2.5967311293,
				"z": -2.3081252179,
				"element": "C" 
			},
			{
				"x": 1.0425009237,
				"y": -3.174713747,
				"z": -2.3243546672,
				"element": "C" 
			},
			{
				"x": 0.1962882042,
				"y": -2.9858973658,
				"z": -1.046666201,
				"element": "C" 
			},
			{
				"x": -0.3703166635,
				"y": -1.5857669357,
				"z": -0.7577906222,
				"element": "C" 
			},
			{
				"x": 0.5714946708,
				"y": -0.6190680357,
				"z": -0.0530044333,
				"element": "C" 
			},
			{
				"x": 1.7097334172,
				"y": -0.9681170746,
				"z": 0.2587187258,
				"element": "O" 
			},
			{
				"x": 0.0962160599,
				"y": 0.7621472714,
				"z": 0.2605466864,
				"element": "C" 
			},
			{
				"x": 0.9895922057,
				"y": 1.645173524,
				"z": 0.8917037434,
				"element": "C" 
			},
			{
				"x": 0.5979637575,
				"y": 2.9434265171,
				"z": 1.2014349857,
				"element": "C" 
			},
			{
				"x": -0.69344867,
				"y": 3.3771019512,
				"z": 0.8871195074,
				"element": "C" 
			},
			{
				"x": -1.5905237942,
				"y": 2.5085673968,
				"z": 0.2613592475,
				"element": "C" 
			},
			{
				"x": -1.1992984965,
				"y": 1.2081594231,
				"z": -0.0518480504,
				"element": "C" 
			},
			{
				"x": 3.3367098591,
				"y": -0.548007081,
				"z": -0.5770068898,
				"element": "H" 
			},
			{
				"x": 1.7829218049,
				"y": -0.5217240879,
				"z": -2.3766767707,
				"element": "H" 
			},
			{
				"x": 2.4984210066,
				"y": -1.0895325699,
				"z": -3.8844668359,
				"element": "H" 
			},
			{
				"x": 3.1161673687,
				"y": -3.2084226003,
				"z": -2.9504404779,
				"element": "H" 
			},
			{
				"x": 2.8768728337,
				"y": -2.6849157538,
				"z": -1.2952853458,
				"element": "H" 
			},
			{
				"x": 0.4915210533,
				"y": -2.7862873578,
				"z": -3.1930382106,
				"element": "H" 
			},
			{
				"x": 1.1194938762,
				"y": -4.256749993,
				"z": -2.486009418,
				"element": "H" 
			},
			{
				"x": 0.7748816349,
				"y": -3.3182736535,
				"z": -0.1775562114,
				"element": "H" 
			},
			{
				"x": -0.6619522496,
				"y": -3.6637261224,
				"z": -1.1246066798,
				"element": "H" 
			},
			{
				"x": -1.2635632862,
				"y": -1.6744588766,
				"z": -0.1237572619,
				"element": "H" 
			},
			{
				"x": -0.7249343621,
				"y": -1.1102669791,
				"z": -1.6827474529,
				"element": "H" 
			},
			{
				"x": 1.9875128267,
				"y": 1.2921343106,
				"z": 1.1274435998,
				"element": "H" 
			},
			{
				"x": 1.2966416719,
				"y": 3.6186981705,
				"z": 1.6858938691,
				"element": "H" 
			},
			{
				"x": -0.9998055879,
				"y": 4.3907949608,
				"z": 1.1286859926,
				"element": "H" 
			},
			{
				"x": -2.5935582053,
				"y": 2.8446593815,
				"z": 0.0166652238,
				"element": "H" 
			},
			{
				"x": -1.9072385962,
				"y": 0.5461095437,
				"z": -0.5387292368,
				"element": "H" 
			}
		],
		 "valence_orbital": [ 
			{
				"type": "occ",
				"energy": -0.28758,
				"method": "rhf"
			},
			{
				"type": "occ",
				"energy": -0.27702,
				"method": "rhf"
			},
			{
				"type": "occ",
				"energy": -0.27577,
				"method": "rhf"
			},
			{
				"type": "occ",
				"energy": -0.27393,
				"method": "rhf"
			},
			{
				"type": "occ",
				"energy": -0.24375,
				"method": "rhf"
			},
			{
				"type": "unocc",
				"energy": -0.08038,
				"method": "rhf"
			},
			{
				"type": "unocc",
				"energy": -0.02406,
				"method": "rhf"
			},
			{
				"type": "unocc",
				"energy": 0.01765,
				"method": "rhf"
			},
			{
				"type": "unocc",
				"energy": 0.03063,
				"method": "rhf"
			},
			{
				"type": "unocc",
				"energy": 0.06888,
				"method": "rhf"
			}
		],
		"cosmo_sigma_profile": { 
			"-0.025": 0.0,
			"-0.024": 0.0,
			"-0.023": 0.0,
			"-0.022": 0.0,
			"-0.021": 0.0,
			"-0.02": 0.0,
			"-0.019": 0.0,
			"-0.018": 0.0,
			"-0.017": 0.0,
			"-0.016": 0.0,
			"-0.015": 0.0,
			"-0.014": 0.0,
			"-0.013": 0.0,
			"-0.012": 0.0,
			"-0.011": 0.0,
			"-0.01": 0.0293717992596,
			"-0.009": 0.17874088827,
			"-0.008": 0.546741538907,
			"-0.007": 6.09229574699,
			"-0.006": 18.6698157195,
			"-0.005": 19.4893820268,
			"-0.004": 20.2778140524,
			"-0.003": 30.6385127432,
			"-0.002": 33.5965251654,
			"-0.001": 24.7493091376,
			"0.0": 20.9799027683,
			"0.001": 14.5369433832,
			"0.002": 11.4651488573,
			"0.003": 12.676596506,
			"0.004": 14.9415249461,
			"0.005": 3.71014009667,
			"0.006": 2.41306041067,
			"0.007": 2.73484684895,
			"0.008": 4.55088089692,
			"0.009": 4.04436260305,
			"0.01": 3.75696742765,
			"0.011": 5.16103444601,
			"0.012": 6.91083793229,
			"0.013": 4.77357683704,
			"0.014": 1.5064912527,
			"0.015": 0.000560492901293,
			"0.016": 0.0,
			"0.017": 0.0,
			"0.018": 0.0,
			"0.019": 0.0,
			"0.02": 0.0,
			"0.021": 0.0,
			"0.022": 0.0,
			"0.023": 0.0,
			"0.024": 0.0,
			"0.025": 0.0
		}
	}
}
