{
	 "smiles": "CC1(C)CCC(C)(O)CC1", 
	 "Tm": 323.15, 
	 "num_atms": 28, 
	 "gaussian": { 
		 "optdone": 1, 
		 "sigma_profile": "yes", 
		 "theory": "DFT", 
		 "functional": "B3LYP", 
		 "basiset": "6-31G**", 
		 "properties": { 
			 "R2extent": 1745.529, 
			 "electric_dipole_moment_norm": 1.37200143221, 
			 "electric_quadrupole_moment_norm": 4.22024983028, 
			 "total_energy": -429.047902311, 
			 "HOMO_LUMO_gap": 0.32646, 
			 "cosmo_polarized_energy": -5.68, 
			 "cosmo_cavitation_energy": 26.9, 
			 "cosmo_dispersion_energy": -19.26, 
			 "cosmo_repulsion_energy": 1.53, 
			 "cosmo_total_nonelectrostatic_energy": 9.17, 
			 "SMD_solvation_energy": 4.17 
		},
		"coords": [
			{
				"x": 2.8562327349,
				"y": 1.7051913684,
				"z": 0.27978941,
				"element": "C" 
			},
			{
				"x": 1.854120501,
				"y": 0.7498399884,
				"z": -0.3938474661,
				"element": "C" 
			},
			{
				"x": 2.5009984481,
				"y": 0.1554188811,
				"z": -1.6584663652,
				"element": "C" 
			},
			{
				"x": 0.5605733657,
				"y": 1.5213931773,
				"z": -0.7943167812,
				"element": "C" 
			},
			{
				"x": -0.4807154781,
				"y": 1.5356235269,
				"z": 0.3288541115,
				"element": "C" 
			},
			{
				"x": -1.0265442592,
				"y": 0.1202234063,
				"z": 0.6204420875,
				"element": "C" 
			},
			{
				"x": -1.5640493494,
				"y": 0.0285609377,
				"z": 2.0544099717,
				"element": "C" 
			},
			{
				"x": -2.113144114,
				"y": -0.0630315172,
				"z": -0.3047038429,
				"element": "O" 
			},
			{
				"x": 0.0751135258,
				"y": -0.9421843565,
				"z": 0.3554137874,
				"element": "C" 
			},
			{
				"x": 1.484592545,
				"y": -0.3899222744,
				"z": 0.6032942495,
				"element": "C" 
			},
			{
				"x": 3.7336581709,
				"y": 1.1606610999,
				"z": 0.6483525774,
				"element": "H" 
			},
			{
				"x": 3.2082313716,
				"y": 2.4690737898,
				"z": -0.4230922111,
				"element": "H" 
			},
			{
				"x": 2.404684652,
				"y": 2.2208017432,
				"z": 1.1352685295,
				"element": "H" 
			},
			{
				"x": 1.8545777722,
				"y": -0.5988939147,
				"z": -2.1214325597,
				"element": "H" 
			},
			{
				"x": 3.4609928906,
				"y": -0.3209761043,
				"z": -1.4273736756,
				"element": "H" 
			},
			{
				"x": 2.6859384405,
				"y": 0.9343459877,
				"z": -2.4073110029,
				"element": "H" 
			},
			{
				"x": 0.1042646103,
				"y": 1.0520087235,
				"z": -1.6741408233,
				"element": "H" 
			},
			{
				"x": 0.8209145625,
				"y": 2.5440885881,
				"z": -1.0928700596,
				"element": "H" 
			},
			{
				"x": -1.3331944298,
				"y": 2.1717788717,
				"z": 0.0695617083,
				"element": "H" 
			},
			{
				"x": -0.0398470766,
				"y": 1.9520544843,
				"z": 1.2429124409,
				"element": "H" 
			},
			{
				"x": -2.0514521968,
				"y": -0.939622594,
				"z": 2.2236191393,
				"element": "H" 
			},
			{
				"x": -2.3010825364,
				"y": 0.8165688586,
				"z": 2.2376675543,
				"element": "H" 
			},
			{
				"x": -0.7599764411,
				"y": 0.1284995547,
				"z": 2.7920872238,
				"element": "H" 
			},
			{
				"x": -2.4255295794,
				"y": -0.9731016587,
				"z": -0.2096959953,
				"element": "H" 
			},
			{
				"x": -0.104751117,
				"y": -1.8344229483,
				"z": 0.9690793657,
				"element": "H" 
			},
			{
				"x": -0.0140298487,
				"y": -1.2557093305,
				"z": -0.6915585946,
				"element": "H" 
			},
			{
				"x": 2.2283289838,
				"y": -1.1932286824,
				"z": 0.5366950485,
				"element": "H" 
			},
			{
				"x": 1.5424938516,
				"y": -0.0124396066,
				"z": 1.6329621721,
				"element": "H" 
			}
		],
		 "valence_orbital": [ 
			{
				"type": "occ",
				"energy": -0.31406,
				"method": "rhf"
			},
			{
				"type": "occ",
				"energy": -0.30032,
				"method": "rhf"
			},
			{
				"type": "occ",
				"energy": -0.29829,
				"method": "rhf"
			},
			{
				"type": "occ",
				"energy": -0.28646,
				"method": "rhf"
			},
			{
				"type": "occ",
				"energy": -0.25572,
				"method": "rhf"
			},
			{
				"type": "unocc",
				"energy": 0.07074,
				"method": "rhf"
			},
			{
				"type": "unocc",
				"energy": 0.08766,
				"method": "rhf"
			},
			{
				"type": "unocc",
				"energy": 0.10716,
				"method": "rhf"
			},
			{
				"type": "unocc",
				"energy": 0.12192,
				"method": "rhf"
			},
			{
				"type": "unocc",
				"energy": 0.13695,
				"method": "rhf"
			}
		],
		"cosmo_sigma_profile": { 
			"-0.025": 0.0,
			"-0.024": 0.0,
			"-0.023": 0.0,
			"-0.022": 0.0,
			"-0.021": 0.0,
			"-0.02": 0.0,
			"-0.019": 0.0,
			"-0.018": 0.0,
			"-0.017": 0.0,
			"-0.016": 0.0,
			"-0.015": 0.141518947854,
			"-0.014": 0.563845213082,
			"-0.013": 0.905346729649,
			"-0.012": 0.89511635629,
			"-0.011": 1.18164274395,
			"-0.01": 0.359900556118,
			"-0.009": 0.891740528096,
			"-0.008": 1.35147000129,
			"-0.007": 1.06436915619,
			"-0.006": 1.05510841375,
			"-0.005": 1.34525288522,
			"-0.004": 2.00356884326,
			"-0.003": 11.6369954607,
			"-0.002": 34.2063315623,
			"-0.001": 36.1885671316,
			"0.0": 37.2166199707,
			"0.001": 35.2486417783,
			"0.002": 19.0256096962,
			"0.003": 2.83752850812,
			"0.004": 1.45496646051,
			"0.005": 1.73658931917,
			"0.006": 1.86528187066,
			"0.007": 1.18988926828,
			"0.008": 1.03472251314,
			"0.009": 2.11335680041,
			"0.01": 1.28211760665,
			"0.011": 0.708105344488,
			"0.012": 1.06445745326,
			"0.013": 1.42077921822,
			"0.014": 1.94003386097,
			"0.015": 0.974379653407,
			"0.016": 0.0,
			"0.017": 0.0,
			"0.018": 0.0,
			"0.019": 0.0,
			"0.02": 0.0,
			"0.021": 0.0,
			"0.022": 0.0,
			"0.023": 0.0,
			"0.024": 0.0,
			"0.025": 0.0
		}
	}
}
