{
	 "smiles": "CN(C)CCCNC(N)=S", 
	 "Tm": 340.15, 
	 "num_atms": 25, 
	 "gaussian": { 
		 "optdone": 1, 
		 "sigma_profile": "yes", 
		 "theory": "DFT", 
		 "functional": "B3LYP", 
		 "basiset": "6-31G**", 
		 "properties": { 
			 "R2extent": 3553.6567, 
			 "electric_dipole_moment_norm": 5.83738965121, 
			 "electric_quadrupole_moment_norm": 29.4530666432, 
			 "total_energy": -800.124217894, 
			 "HOMO_LUMO_gap": 0.20156, 
			 "cosmo_polarized_energy": -20.18, 
			 "cosmo_cavitation_energy": 28.58, 
			 "cosmo_dispersion_energy": -20.62, 
			 "cosmo_repulsion_energy": 1.65, 
			 "cosmo_total_nonelectrostatic_energy": 9.61, 
			 "SMD_solvation_energy": 1.25 
		},
		"coords": [
			{
				"x": 1.1246326263,
				"y": 0.1124437676,
				"z": 1.9275149217,
				"element": "C" 
			},
			{
				"x": 1.1373618973,
				"y": -0.8899251634,
				"z": 0.8798048839,
				"element": "N" 
			},
			{
				"x": -0.0608675146,
				"y": -1.7088128958,
				"z": 0.8613348232,
				"element": "C" 
			},
			{
				"x": 1.6390014137,
				"y": -0.4241749414,
				"z": -0.4091561087,
				"element": "C" 
			},
			{
				"x": 0.8972010091,
				"y": 0.7175447403,
				"z": -1.1478238662,
				"element": "C" 
			},
			{
				"x": -0.4136524892,
				"y": 0.3118332251,
				"z": -1.846705731,
				"element": "C" 
			},
			{
				"x": -0.9936222039,
				"y": 1.37346043,
				"z": -2.6614408911,
				"element": "N" 
			},
			{
				"x": -1.8601490737,
				"y": 2.3377490907,
				"z": -2.2600375238,
				"element": "C" 
			},
			{
				"x": -2.217760468,
				"y": 2.3294407301,
				"z": -0.9422483061,
				"element": "N" 
			},
			{
				"x": -2.500868921,
				"y": 3.4588357816,
				"z": -3.343325138,
				"element": "S" 
			},
			{
				"x": 0.9739530089,
				"y": -0.3733384665,
				"z": 2.8979792912,
				"element": "H" 
			},
			{
				"x": 0.3304748377,
				"y": 0.8786412385,
				"z": 1.8214527286,
				"element": "H" 
			},
			{
				"x": 2.0872271211,
				"y": 0.6338008623,
				"z": 1.9574654666,
				"element": "H" 
			},
			{
				"x": 0.0110687061,
				"y": -2.4567296816,
				"z": 0.0653120215,
				"element": "H" 
			},
			{
				"x": -0.152450318,
				"y": -2.242716871,
				"z": 1.8145651015,
				"element": "H" 
			},
			{
				"x": -1.0044722867,
				"y": -1.147876914,
				"z": 0.7159512745,
				"element": "H" 
			},
			{
				"x": 2.6699275831,
				"y": -0.085656993,
				"z": -0.2438479502,
				"element": "H" 
			},
			{
				"x": 1.7057697321,
				"y": -1.2958394856,
				"z": -1.0740692653,
				"element": "H" 
			},
			{
				"x": 0.7127534959,
				"y": 1.5531457776,
				"z": -0.4607827916,
				"element": "H" 
			},
			{
				"x": 1.5738828818,
				"y": 1.1134351129,
				"z": -1.9158697694,
				"element": "H" 
			},
			{
				"x": -1.1675186481,
				"y": -0.0246509484,
				"z": -1.1283409872,
				"element": "H" 
			},
			{
				"x": -0.2246249293,
				"y": -0.5407851806,
				"z": -2.5087228909,
				"element": "H" 
			},
			{
				"x": -0.755899458,
				"y": 1.424827786,
				"z": -3.6409226791,
				"element": "H" 
			},
			{
				"x": -1.638664827,
				"y": 1.8893917484,
				"z": -0.2423261471,
				"element": "H" 
			},
			{
				"x": -2.7777031755,
				"y": 3.11335725,
				"z": -0.6460604669,
				"element": "H" 
			}
		],
		 "valence_orbital": [ 
			{
				"type": "occ",
				"energy": -0.35024,
				"method": "rhf"
			},
			{
				"type": "occ",
				"energy": -0.27164,
				"method": "rhf"
			},
			{
				"type": "occ",
				"energy": -0.21726,
				"method": "rhf"
			},
			{
				"type": "occ",
				"energy": -0.20359,
				"method": "rhf"
			},
			{
				"type": "occ",
				"energy": -0.19651,
				"method": "rhf"
			},
			{
				"type": "unocc",
				"energy": 0.00505,
				"method": "rhf"
			},
			{
				"type": "unocc",
				"energy": 0.0368,
				"method": "rhf"
			},
			{
				"type": "unocc",
				"energy": 0.06746,
				"method": "rhf"
			},
			{
				"type": "unocc",
				"energy": 0.07853,
				"method": "rhf"
			},
			{
				"type": "unocc",
				"energy": 0.09705,
				"method": "rhf"
			}
		],
		"cosmo_sigma_profile": { 
			"-0.025": 0.0,
			"-0.024": 0.0,
			"-0.023": 0.0,
			"-0.022": 0.0,
			"-0.021": 0.0,
			"-0.02": 0.0,
			"-0.019": 0.0,
			"-0.018": 0.0,
			"-0.017": 0.0,
			"-0.016": 0.0,
			"-0.015": 0.0,
			"-0.014": 1.19773678114,
			"-0.013": 2.20943275697,
			"-0.012": 3.08747116235,
			"-0.011": 2.63800893457,
			"-0.01": 4.58091278864,
			"-0.009": 4.09509679852,
			"-0.008": 3.15696445743,
			"-0.007": 4.84362315429,
			"-0.006": 6.22921917751,
			"-0.005": 7.98526636601,
			"-0.004": 14.9759493628,
			"-0.003": 27.4598823013,
			"-0.002": 24.0746926773,
			"-0.001": 21.3132826548,
			"0.0": 22.2100369784,
			"0.001": 9.40356234495,
			"0.002": 5.11606525206,
			"0.003": 4.79965897866,
			"0.004": 4.60978671503,
			"0.005": 5.84506437522,
			"0.006": 3.64433190237,
			"0.007": 5.2594817801,
			"0.008": 4.35768405557,
			"0.009": 3.88207587686,
			"0.01": 5.09034077987,
			"0.011": 5.71022056553,
			"0.012": 8.61175496597,
			"0.013": 6.39889573926,
			"0.014": 1.05783593195,
			"0.015": 0.593034592581,
			"0.016": 0.202585527161,
			"0.017": 0.0,
			"0.018": 0.0,
			"0.019": 0.0,
			"0.02": 0.0,
			"0.021": 0.0,
			"0.022": 0.0,
			"0.023": 0.0,
			"0.024": 0.0,
			"0.025": 0.0
		}
	}
}
