{
	 "smiles": "CCOC(=O)C(=O)NC1=CC=C(C)C=C1", 
	 "Tm": 338.15, 
	 "num_atms": 28, 
	 "gaussian": { 
		 "optdone": 1, 
		 "sigma_profile": "yes", 
		 "theory": "DFT", 
		 "functional": "B3LYP", 
		 "basiset": "6-31G**", 
		 "properties": { 
			 "R2extent": 4052.1329, 
			 "electric_dipole_moment_norm": 4.44535169025, 
			 "electric_quadrupole_moment_norm": 14.9657564229, 
			 "total_energy": -707.448707999, 
			 "HOMO_LUMO_gap": 0.20998, 
			 "cosmo_polarized_energy": -13.43, 
			 "cosmo_cavitation_energy": 32.81, 
			 "cosmo_dispersion_energy": -22.72, 
			 "cosmo_repulsion_energy": 1.84, 
			 "cosmo_total_nonelectrostatic_energy": 11.93, 
			 "SMD_solvation_energy": 7.43 
		},
		"coords": [
			{
				"x": -1.7694726342,
				"y": 1.2129935295,
				"z": 4.2425925371,
				"element": "C" 
			},
			{
				"x": -1.5067428478,
				"y": 0.3469115118,
				"z": 3.0212657235,
				"element": "C" 
			},
			{
				"x": -0.1753589739,
				"y": 0.5883355821,
				"z": 2.4865155635,
				"element": "O" 
			},
			{
				"x": -0.0469055341,
				"y": 1.6193073604,
				"z": 1.6413931437,
				"element": "C" 
			},
			{
				"x": -0.9390559597,
				"y": 2.3489356062,
				"z": 1.267446106,
				"element": "O" 
			},
			{
				"x": 1.4305888221,
				"y": 1.8329216666,
				"z": 1.2886220049,
				"element": "C" 
			},
			{
				"x": 2.0911173837,
				"y": 2.5974767766,
				"z": 1.9737700381,
				"element": "O" 
			},
			{
				"x": 1.94533663,
				"y": 1.1588558017,
				"z": 0.2152599446,
				"element": "N" 
			},
			{
				"x": 1.3116450489,
				"y": 0.2420617185,
				"z": -0.666504334,
				"element": "C" 
			},
			{
				"x": 0.0568282031,
				"y": 0.5046921258,
				"z": -1.2269815452,
				"element": "C" 
			},
			{
				"x": -0.5201941337,
				"y": -0.4228419597,
				"z": -2.0951983172,
				"element": "C" 
			},
			{
				"x": 0.1406597184,
				"y": -1.6021747761,
				"z": -2.4570946084,
				"element": "C" 
			},
			{
				"x": -0.4728179515,
				"y": -2.577684954,
				"z": -3.4335557337,
				"element": "C" 
			},
			{
				"x": 1.4084970339,
				"y": -1.8361909097,
				"z": -1.9047921104,
				"element": "C" 
			},
			{
				"x": 1.9863717265,
				"y": -0.9352593562,
				"z": -1.0155872531,
				"element": "C" 
			},
			{
				"x": -2.7448552005,
				"y": 0.9594451756,
				"z": 4.6710488946,
				"element": "H" 
			},
			{
				"x": -1.004090918,
				"y": 1.0510225108,
				"z": 5.0066602823,
				"element": "H" 
			},
			{
				"x": -1.7786847244,
				"y": 2.2710236017,
				"z": 3.970161655,
				"element": "H" 
			},
			{
				"x": -1.5037665311,
				"y": -0.716262138,
				"z": 3.2700691507,
				"element": "H" 
			},
			{
				"x": -2.2381565112,
				"y": 0.5352064586,
				"z": 2.2320671766,
				"element": "H" 
			},
			{
				"x": 2.9442278244,
				"y": 1.2975041092,
				"z": 0.112330789,
				"element": "H" 
			},
			{
				"x": -0.4603313798,
				"y": 1.4278345781,
				"z": -0.9921149627,
				"element": "H" 
			},
			{
				"x": -1.4997005291,
				"y": -0.2090205243,
				"z": -2.5152819613,
				"element": "H" 
			},
			{
				"x": -0.2668561064,
				"y": -3.6140393692,
				"z": -3.1472220928,
				"element": "H" 
			},
			{
				"x": -0.0697183893,
				"y": -2.4356521804,
				"z": -4.4441045853,
				"element": "H" 
			},
			{
				"x": -1.557689248,
				"y": -2.4533785398,
				"z": -3.4944979203,
				"element": "H" 
			},
			{
				"x": 1.9470258552,
				"y": -2.7442690189,
				"z": -2.1643520104,
				"element": "H" 
			},
			{
				"x": 2.9583993267,
				"y": -1.145654387,
				"z": -0.5777155746,
				"element": "H" 
			}
		],
		 "valence_orbital": [ 
			{
				"type": "occ",
				"energy": -0.30333,
				"method": "rhf"
			},
			{
				"type": "occ",
				"energy": -0.29414,
				"method": "rhf"
			},
			{
				"type": "occ",
				"energy": -0.26071,
				"method": "rhf"
			},
			{
				"type": "occ",
				"energy": -0.25308,
				"method": "rhf"
			},
			{
				"type": "occ",
				"energy": -0.22965,
				"method": "rhf"
			},
			{
				"type": "unocc",
				"energy": -0.01967,
				"method": "rhf"
			},
			{
				"type": "unocc",
				"energy": -0.01545,
				"method": "rhf"
			},
			{
				"type": "unocc",
				"energy": 0.00498,
				"method": "rhf"
			},
			{
				"type": "unocc",
				"energy": 0.02091,
				"method": "rhf"
			},
			{
				"type": "unocc",
				"energy": 0.08838,
				"method": "rhf"
			}
		],
		"cosmo_sigma_profile": { 
			"-0.025": 0.0,
			"-0.024": 0.0,
			"-0.023": 0.0,
			"-0.022": 0.0,
			"-0.021": 0.0,
			"-0.02": 0.0,
			"-0.019": 0.0,
			"-0.018": 0.0,
			"-0.017": 0.0,
			"-0.016": 0.153924834213,
			"-0.015": 0.832987655647,
			"-0.014": 1.22933582226,
			"-0.013": 0.899949135281,
			"-0.012": 1.01941888135,
			"-0.011": 0.973104732144,
			"-0.01": 1.17857671089,
			"-0.009": 1.55779672454,
			"-0.008": 1.41913726056,
			"-0.007": 2.44277036659,
			"-0.006": 8.59690984773,
			"-0.005": 15.6013288265,
			"-0.004": 27.6500951777,
			"-0.003": 23.4167817423,
			"-0.002": 23.2342210916,
			"-0.001": 25.150900701,
			"0.0": 25.8248575546,
			"0.001": 14.8391024137,
			"0.002": 13.6317244772,
			"0.003": 12.4163424879,
			"0.004": 13.4205815201,
			"0.005": 11.5385100597,
			"0.006": 4.55608669926,
			"0.007": 4.18285819403,
			"0.008": 2.77887884769,
			"0.009": 3.31437284205,
			"0.01": 4.68040177083,
			"0.011": 5.8662334133,
			"0.012": 5.98087428265,
			"0.013": 1.40580686362,
			"0.014": 0.0,
			"0.015": 0.0,
			"0.016": 0.0,
			"0.017": 0.0,
			"0.018": 0.0,
			"0.019": 0.0,
			"0.02": 0.0,
			"0.021": 0.0,
			"0.022": 0.0,
			"0.023": 0.0,
			"0.024": 0.0,
			"0.025": 0.0
		}
	}
}
