{
	 "smiles": "CCCCOC(=O)C1=CC=C(O)C=C1", 
	 "Tm": 343.35, 
	 "num_atms": 28, 
	 "gaussian": { 
		 "optdone": 1, 
		 "sigma_profile": "yes", 
		 "theory": "DFT", 
		 "functional": "B3LYP", 
		 "basiset": "6-31G**", 
		 "properties": { 
			 "R2extent": 5012.7708, 
			 "electric_dipole_moment_norm": 3.14538762317, 
			 "electric_quadrupole_moment_norm": 13.5959828207, 
			 "total_energy": -653.303203144, 
			 "HOMO_LUMO_gap": 0.1979, 
			 "cosmo_polarized_energy": -11.91, 
			 "cosmo_cavitation_energy": 31.6, 
			 "cosmo_dispersion_energy": -22.33, 
			 "cosmo_repulsion_energy": 1.78, 
			 "cosmo_total_nonelectrostatic_energy": 11.05, 
			 "SMD_solvation_energy": 6.49 
		},
		"coords": [
			{
				"x": 0.7057108344,
				"y": -1.5996228389,
				"z": 0.2765016778,
				"element": "C" 
			},
			{
				"x": -0.587817909,
				"y": -2.3837029736,
				"z": 0.5295881354,
				"element": "C" 
			},
			{
				"x": -1.8746493806,
				"y": -1.7123422069,
				"z": 0.0206560902,
				"element": "C" 
			},
			{
				"x": -2.3450559224,
				"y": -0.4815668795,
				"z": 0.7947313462,
				"element": "C" 
			},
			{
				"x": -1.4725145593,
				"y": 0.6633728683,
				"z": 0.6436707237,
				"element": "O" 
			},
			{
				"x": -1.6854248221,
				"y": 1.4429821448,
				"z": -0.4461802166,
				"element": "C" 
			},
			{
				"x": -2.543963905,
				"y": 1.2093899591,
				"z": -1.2777089359,
				"element": "O" 
			},
			{
				"x": -0.7610419881,
				"y": 2.6032147012,
				"z": -0.5023528917,
				"element": "C" 
			},
			{
				"x": -0.8500791888,
				"y": 3.4663973317,
				"z": -1.6067550588,
				"element": "C" 
			},
			{
				"x": -0.016255771,
				"y": 4.5691711639,
				"z": -1.7172997823,
				"element": "C" 
			},
			{
				"x": 0.9269948778,
				"y": 4.8273136095,
				"z": -0.7124687148,
				"element": "C" 
			},
			{
				"x": 1.7213672128,
				"y": 5.9217445942,
				"z": -0.8677473382,
				"element": "O" 
			},
			{
				"x": 1.0239102262,
				"y": 3.9754019618,
				"z": 0.3958394885,
				"element": "C" 
			},
			{
				"x": 0.1838314635,
				"y": 2.8710794866,
				"z": 0.4976019412,
				"element": "C" 
			},
			{
				"x": 1.5782037132,
				"y": -2.169726412,
				"z": 0.6133210313,
				"element": "H" 
			},
			{
				"x": 0.8363148701,
				"y": -1.3936995086,
				"z": -0.7921511138,
				"element": "H" 
			},
			{
				"x": 0.7052989859,
				"y": -0.639351106,
				"z": 0.7978273798,
				"element": "H" 
			},
			{
				"x": -0.505411292,
				"y": -3.3657110849,
				"z": 0.0464206682,
				"element": "H" 
			},
			{
				"x": -0.6908271039,
				"y": -2.5871490232,
				"z": 1.6049232577,
				"element": "H" 
			},
			{
				"x": -1.7786099862,
				"y": -1.4449666102,
				"z": -1.0379770715,
				"element": "H" 
			},
			{
				"x": -2.6965073025,
				"y": -2.4391136759,
				"z": 0.0778899647,
				"element": "H" 
			},
			{
				"x": -2.3537556336,
				"y": -0.6746491485,
				"z": 1.8717266228,
				"element": "H" 
			},
			{
				"x": -3.3476295074,
				"y": -0.1936625807,
				"z": 0.4694562324,
				"element": "H" 
			},
			{
				"x": -1.5875603136,
				"y": 3.2497835633,
				"z": -2.372141924,
				"element": "H" 
			},
			{
				"x": -0.0747393324,
				"y": 5.2421856664,
				"z": -2.5660239827,
				"element": "H" 
			},
			{
				"x": 2.3238554895,
				"y": 5.9898748917,
				"z": -0.1153429019,
				"element": "H" 
			},
			{
				"x": 1.7549694463,
				"y": 4.1793890779,
				"z": 1.1754084908,
				"element": "H" 
			},
			{
				"x": 0.2550867982,
				"y": 2.2140630286,
				"z": 1.3565868813,
				"element": "H" 
			}
		],
		 "valence_orbital": [ 
			{
				"type": "occ",
				"energy": -0.31857,
				"method": "rhf"
			},
			{
				"type": "occ",
				"energy": -0.28646,
				"method": "rhf"
			},
			{
				"type": "occ",
				"energy": -0.26655,
				"method": "rhf"
			},
			{
				"type": "occ",
				"energy": -0.26062,
				"method": "rhf"
			},
			{
				"type": "occ",
				"energy": -0.23187,
				"method": "rhf"
			},
			{
				"type": "unocc",
				"energy": -0.03397,
				"method": "rhf"
			},
			{
				"type": "unocc",
				"energy": -0.00904,
				"method": "rhf"
			},
			{
				"type": "unocc",
				"energy": 0.06225,
				"method": "rhf"
			},
			{
				"type": "unocc",
				"energy": 0.06829,
				"method": "rhf"
			},
			{
				"type": "unocc",
				"energy": 0.08961,
				"method": "rhf"
			}
		],
		"cosmo_sigma_profile": { 
			"-0.025": 0.0,
			"-0.024": 0.0,
			"-0.023": 0.0,
			"-0.022": 0.0,
			"-0.021": 0.0,
			"-0.02": 0.0,
			"-0.019": 0.145011842187,
			"-0.018": 0.9955757479,
			"-0.017": 1.11360106638,
			"-0.016": 1.12544436068,
			"-0.015": 1.09595312846,
			"-0.014": 0.663207769937,
			"-0.013": 0.650771571937,
			"-0.012": 1.04079560977,
			"-0.011": 1.40518621878,
			"-0.01": 1.22766197669,
			"-0.009": 1.23734184751,
			"-0.008": 1.42097157889,
			"-0.007": 1.75815566686,
			"-0.006": 6.01446970934,
			"-0.005": 10.3268466203,
			"-0.004": 13.9423119021,
			"-0.003": 18.0215507354,
			"-0.002": 24.2088173769,
			"-0.001": 24.6073201346,
			"0.0": 26.9847165979,
			"0.001": 26.3099283594,
			"0.002": 23.1189846543,
			"0.003": 17.2222241353,
			"0.004": 15.3829094163,
			"0.005": 4.30389437774,
			"0.006": 3.83948493093,
			"0.007": 2.34527546484,
			"0.008": 3.46429389636,
			"0.009": 3.13225570746,
			"0.01": 3.38838430456,
			"0.011": 3.07712139203,
			"0.012": 4.22106463063,
			"0.013": 1.16635240665,
			"0.014": 0.0,
			"0.015": 0.0,
			"0.016": 0.0,
			"0.017": 0.0,
			"0.018": 0.0,
			"0.019": 0.0,
			"0.02": 0.0,
			"0.021": 0.0,
			"0.022": 0.0,
			"0.023": 0.0,
			"0.024": 0.0,
			"0.025": 0.0
		}
	}
}
