{
	 "smiles": "NC(=O)C1=CC=C(N)C=C1", 
	 "Tm": 455.15, 
	 "num_atms": 18, 
	 "gaussian": { 
		 "optdone": 1, 
		 "sigma_profile": "yes", 
		 "theory": "DFT", 
		 "functional": "B3LYP", 
		 "basiset": "6-31G**", 
		 "properties": { 
			 "R2extent": 1890.2346, 
			 "electric_dipole_moment_norm": 5.06831447722, 
			 "electric_quadrupole_moment_norm": 17.286834382, 
			 "total_energy": -456.317129118, 
			 "HOMO_LUMO_gap": 0.18927, 
			 "cosmo_polarized_energy": -17.98, 
			 "cosmo_cavitation_energy": 22.14, 
			 "cosmo_dispersion_energy": -16.63, 
			 "cosmo_repulsion_energy": 1.36, 
			 "cosmo_total_nonelectrostatic_energy": 6.86, 
			 "SMD_solvation_energy": 4.56 
		},
		"coords": [
			{
				"x": -0.2083560546,
				"y": 2.0246905349,
				"z": -0.5687335301,
				"element": "N" 
			},
			{
				"x": -0.5635177425,
				"y": 1.1200988591,
				"z": 0.4122942098,
				"element": "C" 
			},
			{
				"x": -1.1720312831,
				"y": 1.4790318215,
				"z": 1.4152347255,
				"element": "O" 
			},
			{
				"x": -0.1433729607,
				"y": -0.2969455486,
				"z": 0.1974017173,
				"element": "C" 
			},
			{
				"x": 0.8031824443,
				"y": -0.7011797411,
				"z": -0.7563353881,
				"element": "C" 
			},
			{
				"x": 1.1476791719,
				"y": -2.0393389394,
				"z": -0.9041957257,
				"element": "C" 
			},
			{
				"x": 0.5520834963,
				"y": -3.0243041531,
				"z": -0.0939486627,
				"element": "C" 
			},
			{
				"x": 0.9271207492,
				"y": -4.3562486885,
				"z": -0.2047388945,
				"element": "N" 
			},
			{
				"x": -0.3885088129,
				"y": -2.619013983,
				"z": 0.8733823398,
				"element": "C" 
			},
			{
				"x": -0.720009978,
				"y": -1.2802092988,
				"z": 1.0155476144,
				"element": "C" 
			},
			{
				"x": -0.0678070134,
				"y": 1.7066625949,
				"z": -1.5151888704,
				"element": "H" 
			},
			{
				"x": -0.6241357209,
				"y": 2.9391718173,
				"z": -0.4626222686,
				"element": "H" 
			},
			{
				"x": 1.3080690753,
				"y": 0.0351945035,
				"z": -1.3753426196,
				"element": "H" 
			},
			{
				"x": 1.893852518,
				"y": -2.3304510213,
				"z": -1.6393285007,
				"element": "H" 
			},
			{
				"x": 1.3350559688,
				"y": -4.6354270234,
				"z": -1.085137559,
				"element": "H" 
			},
			{
				"x": 0.2756361318,
				"y": -5.0351312516,
				"z": 0.1616330544,
				"element": "H" 
			},
			{
				"x": -0.8499640637,
				"y": -3.3656841637,
				"z": 1.5151060452,
				"element": "H" 
			},
			{
				"x": -1.4378759257,
				"y": -0.9624163186,
				"z": 1.7643723128,
				"element": "H" 
			}
		],
		 "valence_orbital": [ 
			{
				"type": "occ",
				"energy": -0.30958,
				"method": "rhf"
			},
			{
				"type": "occ",
				"energy": -0.26275,
				"method": "rhf"
			},
			{
				"type": "occ",
				"energy": -0.25258,
				"method": "rhf"
			},
			{
				"type": "occ",
				"energy": -0.23862,
				"method": "rhf"
			},
			{
				"type": "occ",
				"energy": -0.20872,
				"method": "rhf"
			},
			{
				"type": "unocc",
				"energy": -0.01945,
				"method": "rhf"
			},
			{
				"type": "unocc",
				"energy": -0.00205,
				"method": "rhf"
			},
			{
				"type": "unocc",
				"energy": 0.0671,
				"method": "rhf"
			},
			{
				"type": "unocc",
				"energy": 0.0762,
				"method": "rhf"
			},
			{
				"type": "unocc",
				"energy": 0.09001,
				"method": "rhf"
			}
		],
		"cosmo_sigma_profile": { 
			"-0.025": 0.0,
			"-0.024": 0.0,
			"-0.023": 0.0,
			"-0.022": 0.0,
			"-0.021": 0.0,
			"-0.02": 0.0,
			"-0.019": 0.0,
			"-0.018": 0.0,
			"-0.017": 0.0,
			"-0.016": 0.0,
			"-0.015": 0.0,
			"-0.014": 0.519892810941,
			"-0.013": 3.75881384856,
			"-0.012": 4.93992055908,
			"-0.011": 4.97568368099,
			"-0.01": 5.84179253564,
			"-0.009": 5.6592651044,
			"-0.008": 5.90600990716,
			"-0.007": 5.70511351916,
			"-0.006": 6.25977872337,
			"-0.005": 7.39690987382,
			"-0.004": 9.49036942494,
			"-0.003": 7.3819681125,
			"-0.002": 6.21418305702,
			"-0.001": 7.60601732036,
			"0.0": 6.84534098774,
			"0.001": 7.46793808838,
			"0.002": 9.05290987425,
			"0.003": 10.4588693431,
			"0.004": 9.9866519126,
			"0.005": 16.0378696693,
			"0.006": 7.77453819971,
			"0.007": 2.74271667203,
			"0.008": 2.631470168,
			"0.009": 2.88363132974,
			"0.01": 2.80170269117,
			"0.011": 2.38041264313,
			"0.012": 2.02733345266,
			"0.013": 3.3412800138,
			"0.014": 5.82349614053,
			"0.015": 1.58144504394,
			"0.016": 0.0,
			"0.017": 0.0,
			"0.018": 0.0,
			"0.019": 0.0,
			"0.02": 0.0,
			"0.021": 0.0,
			"0.022": 0.0,
			"0.023": 0.0,
			"0.024": 0.0,
			"0.025": 0.0
		}
	}
}
