{
	 "smiles": "OCC1=CNC2=C1C=C(Br)C=C2", 
	 "Tm": 386.15, 
	 "num_atms": 20, 
	 "gaussian": { 
		 "optdone": 1, 
		 "sigma_profile": "yes", 
		 "theory": "DFT", 
		 "functional": "B3LYP", 
		 "basiset": "6-31G**", 
		 "properties": { 
			 "R2extent": 3716.1286, 
			 "electric_dipole_moment_norm": 3.88150020868, 
			 "electric_quadrupole_moment_norm": 13.3726596599, 
			 "total_energy": -3049.15117345, 
			 "HOMO_LUMO_gap": 0.18891, 
			 "cosmo_polarized_energy": -12.85, 
			 "cosmo_cavitation_energy": 26.36, 
			 "cosmo_dispersion_energy": -19.98, 
			 "cosmo_repulsion_energy": 1.6, 
			 "cosmo_total_nonelectrostatic_energy": 7.98, 
			 "SMD_solvation_energy": 3.15 
		},
		"coords": [
			{
				"x": -0.549227971,
				"y": 3.6826234797,
				"z": 1.8468266001,
				"element": "O" 
			},
			{
				"x": -0.1983375277,
				"y": 2.862273062,
				"z": 0.7379715769,
				"element": "C" 
			},
			{
				"x": 0.3354772442,
				"y": 1.5207201519,
				"z": 1.154174196,
				"element": "C" 
			},
			{
				"x": 0.8947327504,
				"y": 1.2246866315,
				"z": 2.3725673187,
				"element": "C" 
			},
			{
				"x": 1.2868344895,
				"y": -0.1006841349,
				"z": 2.4026292225,
				"element": "N" 
			},
			{
				"x": 0.9870182969,
				"y": -0.6904856976,
				"z": 1.1930064247,
				"element": "C" 
			},
			{
				"x": 0.3843880523,
				"y": 0.3078142112,
				"z": 0.3767191996,
				"element": "C" 
			},
			{
				"x": -0.0254806001,
				"y": -0.0288008126,
				"z": -0.9258093639,
				"element": "C" 
			},
			{
				"x": 0.1752744347,
				"y": -1.3307160887,
				"z": -1.3572094301,
				"element": "C" 
			},
			{
				"x": -0.3748665776,
				"y": -1.822701422,
				"z": -3.1275780432,
				"element": "Br" 
			},
			{
				"x": 0.771544443,
				"y": -2.3144123718,
				"z": -0.5458740231,
				"element": "C" 
			},
			{
				"x": 1.1840311687,
				"y": -1.9996255625,
				"z": 0.7433201573,
				"element": "C" 
			},
			{
				"x": -1.2215363693,
				"y": 3.2030096986,
				"z": 2.3494256909,
				"element": "H" 
			},
			{
				"x": 0.5584259569,
				"y": 3.4335681903,
				"z": 0.1866203371,
				"element": "H" 
			},
			{
				"x": -1.0494115706,
				"y": 2.7280071637,
				"z": 0.05021307,
				"element": "H" 
			},
			{
				"x": 1.0432750985,
				"y": 1.8704497711,
				"z": 3.2254638356,
				"element": "H" 
			},
			{
				"x": 1.70670397,
				"y": -0.5647445851,
				"z": 3.1911695987,
				"element": "H" 
			},
			{
				"x": -0.4846274957,
				"y": 0.702658841,
				"z": -1.5812099613,
				"element": "H" 
			},
			{
				"x": 0.9069072254,
				"y": -3.317189862,
				"z": -0.933433763,
				"element": "H" 
			},
			{
				"x": 1.6453749815,
				"y": -2.7540506637,
				"z": 1.3740073566,
				"element": "H" 
			}
		],
		 "valence_orbital": [ 
			{
				"type": "occ",
				"energy": -0.28512,
				"method": "rhf"
			},
			{
				"type": "occ",
				"energy": -0.2781,
				"method": "rhf"
			},
			{
				"type": "occ",
				"energy": -0.27152,
				"method": "rhf"
			},
			{
				"type": "occ",
				"energy": -0.22171,
				"method": "rhf"
			},
			{
				"type": "occ",
				"energy": -0.21017,
				"method": "rhf"
			},
			{
				"type": "unocc",
				"energy": -0.02126,
				"method": "rhf"
			},
			{
				"type": "unocc",
				"energy": 0.01374,
				"method": "rhf"
			},
			{
				"type": "unocc",
				"energy": 0.01516,
				"method": "rhf"
			},
			{
				"type": "unocc",
				"energy": 0.0534,
				"method": "rhf"
			},
			{
				"type": "unocc",
				"energy": 0.07214,
				"method": "rhf"
			}
		],
		"cosmo_sigma_profile": { 
			"-0.025": 0.0,
			"-0.024": 0.0,
			"-0.023": 0.0,
			"-0.022": 0.0,
			"-0.021": 0.0,
			"-0.02": 0.0,
			"-0.019": 0.0,
			"-0.018": 0.0,
			"-0.017": 0.0,
			"-0.016": 0.896608215024,
			"-0.015": 2.33793192999,
			"-0.014": 2.2916981796,
			"-0.013": 1.68090436271,
			"-0.012": 1.6501187767,
			"-0.011": 2.46507695019,
			"-0.01": 2.49672158061,
			"-0.009": 1.54052401404,
			"-0.008": 3.43264513406,
			"-0.007": 6.28895392784,
			"-0.006": 8.63659453308,
			"-0.005": 10.2065918898,
			"-0.004": 12.858463131,
			"-0.003": 13.3040118795,
			"-0.002": 12.0380405227,
			"-0.001": 10.4920881278,
			"0.0": 9.40757719652,
			"0.001": 11.2937111343,
			"0.002": 11.7985692496,
			"0.003": 18.5305954787,
			"0.004": 26.1860534955,
			"0.005": 27.5132109127,
			"0.006": 4.8354384179,
			"0.007": 1.20037817517,
			"0.008": 1.09137399573,
			"0.009": 1.1880232363,
			"0.01": 0.924217259675,
			"0.011": 1.16369918199,
			"0.012": 1.41838405648,
			"0.013": 1.55888055985,
			"0.014": 2.26940419418,
			"0.015": 0.36859104377,
			"0.016": 0.0,
			"0.017": 0.0,
			"0.018": 0.0,
			"0.019": 0.0,
			"0.02": 0.0,
			"0.021": 0.0,
			"0.022": 0.0,
			"0.023": 0.0,
			"0.024": 0.0,
			"0.025": 0.0
		}
	}
}
