{
	 "smiles": "ClC1OCCOC1Cl", 
	 "Tm": 303.15, 
	 "num_atms": 14, 
	 "gaussian": { 
		 "optdone": 1, 
		 "sigma_profile": "yes", 
		 "theory": "DFT", 
		 "functional": "B3LYP", 
		 "basiset": "6-31G**", 
		 "properties": { 
			 "R2extent": 1333.0668, 
			 "electric_dipole_moment_norm": 2.86031094114, 
			 "electric_quadrupole_moment_norm": 7.25887019377, 
			 "total_energy": -1226.84175573, 
			 "HOMO_LUMO_gap": 0.27498, 
			 "cosmo_polarized_energy": -9.31, 
			 "cosmo_cavitation_energy": 19.76, 
			 "cosmo_dispersion_energy": -15.56, 
			 "cosmo_repulsion_energy": 1.29, 
			 "cosmo_total_nonelectrostatic_energy": 5.49, 
			 "SMD_solvation_energy": 2.9 
		},
		"coords": [
			{
				"x": -1.4478935815,
				"y": 1.7961378841,
				"z": -0.8238471725,
				"element": "Cl" 
			},
			{
				"x": -1.3748046691,
				"y": 0.0716569601,
				"z": -0.1467967438,
				"element": "C" 
			},
			{
				"x": -1.2440005441,
				"y": 0.0774798099,
				"z": 1.2220138882,
				"element": "O" 
			},
			{
				"x": 0.0164471153,
				"y": 0.5677390517,
				"z": 1.7203167112,
				"element": "C" 
			},
			{
				"x": 1.1297466562,
				"y": 0.3948169021,
				"z": 0.6827509253,
				"element": "C" 
			},
			{
				"x": 0.9005716951,
				"y": -0.831509051,
				"z": -0.0162752609,
				"element": "O" 
			},
			{
				"x": -0.2639019758,
				"y": -0.8347887078,
				"z": -0.7557531988,
				"element": "C" 
			},
			{
				"x": 0.0497306864,
				"y": -0.4938458488,
				"z": -2.5343434313,
				"element": "Cl" 
			},
			{
				"x": -2.3548314502,
				"y": -0.3379437994,
				"z": -0.3861816427,
				"element": "H" 
			},
			{
				"x": 0.2158166266,
				"y": -0.0252129427,
				"z": 2.6160628514,
				"element": "H" 
			},
			{
				"x": -0.0928490136,
				"y": 1.6212254607,
				"z": 2.0028534705,
				"element": "H" 
			},
			{
				"x": 1.1673514187,
				"y": 1.2321570017,
				"z": -0.0208697828,
				"element": "H" 
			},
			{
				"x": 2.1036016945,
				"y": 0.2984940934,
				"z": 1.1667502777,
				"element": "H" 
			},
			{
				"x": -0.6425846587,
				"y": -1.8583068141,
				"z": -0.7546808914,
				"element": "H" 
			}
		],
		 "valence_orbital": [ 
			{
				"type": "occ",
				"energy": -0.31457,
				"method": "rhf"
			},
			{
				"type": "occ",
				"energy": -0.31043,
				"method": "rhf"
			},
			{
				"type": "occ",
				"energy": -0.29898,
				"method": "rhf"
			},
			{
				"type": "occ",
				"energy": -0.29048,
				"method": "rhf"
			},
			{
				"type": "occ",
				"energy": -0.28357,
				"method": "rhf"
			},
			{
				"type": "unocc",
				"energy": -0.00859,
				"method": "rhf"
			},
			{
				"type": "unocc",
				"energy": 0.03344,
				"method": "rhf"
			},
			{
				"type": "unocc",
				"energy": 0.06047,
				"method": "rhf"
			},
			{
				"type": "unocc",
				"energy": 0.08028,
				"method": "rhf"
			},
			{
				"type": "unocc",
				"energy": 0.10345,
				"method": "rhf"
			}
		],
		"cosmo_sigma_profile": { 
			"-0.025": 0.0,
			"-0.024": 0.0,
			"-0.023": 0.0,
			"-0.022": 0.0,
			"-0.021": 0.0,
			"-0.02": 0.0,
			"-0.019": 0.0,
			"-0.018": 0.0,
			"-0.017": 0.0,
			"-0.016": 0.0,
			"-0.015": 0.0,
			"-0.014": 0.0,
			"-0.013": 0.0,
			"-0.012": 0.584566974919,
			"-0.011": 2.3466443814,
			"-0.01": 4.24869005195,
			"-0.009": 2.72385018592,
			"-0.008": 4.48076576982,
			"-0.007": 11.0671204741,
			"-0.006": 10.7093217207,
			"-0.005": 9.73612945465,
			"-0.004": 6.90026767735,
			"-0.003": 5.14810132379,
			"-0.002": 5.77285249353,
			"-0.001": 5.39303926016,
			"0.0": 8.08755183137,
			"0.001": 7.56116140997,
			"0.002": 8.50904974104,
			"0.003": 11.2489944238,
			"0.004": 11.7280534471,
			"0.005": 12.9011619579,
			"0.006": 15.0182523234,
			"0.007": 7.35052469252,
			"0.008": 4.40454731026,
			"0.009": 2.4233627595,
			"0.01": 1.69547542228,
			"0.011": 0.00780052355986,
			"0.012": 0.0,
			"0.013": 0.0,
			"0.014": 0.0,
			"0.015": 0.0,
			"0.016": 0.0,
			"0.017": 0.0,
			"0.018": 0.0,
			"0.019": 0.0,
			"0.02": 0.0,
			"0.021": 0.0,
			"0.022": 0.0,
			"0.023": 0.0,
			"0.024": 0.0,
			"0.025": 0.0
		}
	}
}
