{
	 "smiles": "ClC1=CC(Cl)=C(C=C1)C1(CN2C=NC=N2)OCCO1", 
	 "Tm": 386.15, 
	 "num_atms": 30, 
	 "gaussian": { 
		 "optdone": 1, 
		 "sigma_profile": "yes", 
		 "theory": "DFT", 
		 "functional": "B3LYP", 
		 "basiset": "6-31G**", 
		 "properties": { 
			 "R2extent": 6270.4416, 
			 "electric_dipole_moment_norm": 5.05053815449, 
			 "electric_quadrupole_moment_norm": 12.9178069126, 
			 "total_energy": -1698.94970306, 
			 "HOMO_LUMO_gap": 0.22022, 
			 "cosmo_polarized_energy": -14.62, 
			 "cosmo_cavitation_energy": 37.25, 
			 "cosmo_dispersion_energy": -25.52, 
			 "cosmo_repulsion_energy": 1.97, 
			 "cosmo_total_nonelectrostatic_energy": 13.69, 
			 "SMD_solvation_energy": 3.77 
		},
		"coords": [
			{
				"x": -2.9119322243,
				"y": 3.2253630073,
				"z": 2.7049637842,
				"element": "Cl" 
			},
			{
				"x": -1.973142973,
				"y": 1.8358715178,
				"z": 2.1912491936,
				"element": "C" 
			},
			{
				"x": -2.5694374335,
				"y": 0.5775805135,
				"z": 2.1906752423,
				"element": "C" 
			},
			{
				"x": -1.8225773783,
				"y": -0.5281098504,
				"z": 1.7831367976,
				"element": "C" 
			},
			{
				"x": -2.661065841,
				"y": -2.0745027848,
				"z": 1.8022507567,
				"element": "Cl" 
			},
			{
				"x": -0.4811515054,
				"y": -0.4057250433,
				"z": 1.3816880703,
				"element": "C" 
			},
			{
				"x": 0.0738929402,
				"y": 0.8807668795,
				"z": 1.3932626288,
				"element": "C" 
			},
			{
				"x": -0.6504876361,
				"y": 2.0017386945,
				"z": 1.7908397803,
				"element": "C" 
			},
			{
				"x": 0.379381991,
				"y": -1.5932830883,
				"z": 0.9208288778,
				"element": "C" 
			},
			{
				"x": -0.0419005879,
				"y": -2.169374337,
				"z": -0.4469882851,
				"element": "C" 
			},
			{
				"x": 0.0130713472,
				"y": -1.1896207281,
				"z": -1.5142262068,
				"element": "N" 
			},
			{
				"x": 1.0867840882,
				"y": -0.663826491,
				"z": -2.1522234687,
				"element": "C" 
			},
			{
				"x": 0.7015422435,
				"y": 0.2255703288,
				"z": -3.0507743832,
				"element": "N" 
			},
			{
				"x": -0.6555304155,
				"y": 0.2096430664,
				"z": -2.9160299767,
				"element": "C" 
			},
			{
				"x": -1.1263731846,
				"y": -0.6257354467,
				"z": -2.0024594742,
				"element": "N" 
			},
			{
				"x": 0.3501502308,
				"y": -2.6676802321,
				"z": 1.8391432809,
				"element": "O" 
			},
			{
				"x": 1.3999913345,
				"y": -2.416701945,
				"z": 2.772164774,
				"element": "C" 
			},
			{
				"x": 2.4910956891,
				"y": -1.8265940595,
				"z": 1.8773173406,
				"element": "C" 
			},
			{
				"x": 1.7489176895,
				"y": -1.1855526246,
				"z": 0.8308114626,
				"element": "O" 
			},
			{
				"x": -3.5999559252,
				"y": 0.4531962999,
				"z": 2.4989343346,
				"element": "H" 
			},
			{
				"x": 1.1038757352,
				"y": 0.9923781342,
				"z": 1.0775332275,
				"element": "H" 
			},
			{
				"x": -0.1962140553,
				"y": 2.9857951322,
				"z": 1.7882875418,
				"element": "H" 
			},
			{
				"x": 0.6346001761,
				"y": -2.9984868875,
				"z": -0.6683769336,
				"element": "H" 
			},
			{
				"x": -1.0636187633,
				"y": -2.5433230395,
				"z": -0.4014553943,
				"element": "H" 
			},
			{
				"x": 2.1015271542,
				"y": -0.9522764635,
				"z": -1.920488954,
				"element": "H" 
			},
			{
				"x": -1.3155951752,
				"y": 0.8262297587,
				"z": -3.5106227621,
				"element": "H" 
			},
			{
				"x": 1.0765358011,
				"y": -1.7033803047,
				"z": 3.5419483804,
				"element": "H" 
			},
			{
				"x": 1.6695211862,
				"y": -3.3637954391,
				"z": 3.2431388636,
				"element": "H" 
			},
			{
				"x": 3.1318908307,
				"y": -2.6057233828,
				"z": 1.44690415,
				"element": "H" 
			},
			{
				"x": 3.1171046611,
				"y": -1.0857411847,
				"z": 2.383667351,
				"element": "H" 
			}
		],
		 "valence_orbital": [ 
			{
				"type": "occ",
				"energy": -0.2785,
				"method": "rhf"
			},
			{
				"type": "occ",
				"energy": -0.26981,
				"method": "rhf"
			},
			{
				"type": "occ",
				"energy": -0.26508,
				"method": "rhf"
			},
			{
				"type": "occ",
				"energy": -0.26029,
				"method": "rhf"
			},
			{
				"type": "occ",
				"energy": -0.25277,
				"method": "rhf"
			},
			{
				"type": "unocc",
				"energy": -0.03255,
				"method": "rhf"
			},
			{
				"type": "unocc",
				"energy": -0.02679,
				"method": "rhf"
			},
			{
				"type": "unocc",
				"energy": 0.00512,
				"method": "rhf"
			},
			{
				"type": "unocc",
				"energy": 0.00874,
				"method": "rhf"
			},
			{
				"type": "unocc",
				"energy": 0.04668,
				"method": "rhf"
			}
		],
		"cosmo_sigma_profile": { 
			"-0.025": 0.0,
			"-0.024": 0.0,
			"-0.023": 0.0,
			"-0.022": 0.0,
			"-0.021": 0.0,
			"-0.02": 0.0,
			"-0.019": 0.0,
			"-0.018": 0.0,
			"-0.017": 0.0,
			"-0.016": 0.0,
			"-0.015": 0.0,
			"-0.014": 0.0,
			"-0.013": 0.0,
			"-0.012": 0.0,
			"-0.011": 0.0,
			"-0.01": 0.476349216017,
			"-0.009": 1.98663457297,
			"-0.008": 7.60764788357,
			"-0.007": 12.1738444375,
			"-0.006": 18.2746524681,
			"-0.005": 23.1756004108,
			"-0.004": 19.2952039948,
			"-0.003": 18.0896342514,
			"-0.002": 17.9215951581,
			"-0.001": 19.7942012383,
			"0.0": 22.9492274878,
			"0.001": 29.9734860923,
			"0.002": 26.1822194564,
			"0.003": 22.0572275198,
			"0.004": 21.7945411574,
			"0.005": 8.97943186453,
			"0.006": 4.48760358402,
			"0.007": 4.94863862301,
			"0.008": 4.14998326342,
			"0.009": 4.52456884353,
			"0.01": 2.87101402361,
			"0.011": 2.3846723155,
			"0.012": 2.10342862984,
			"0.013": 1.8200044339,
			"0.014": 1.5783879078,
			"0.015": 1.38080277585,
			"0.016": 0.869720971438,
			"0.017": 0.450537792355,
			"0.018": 0.0,
			"0.019": 0.0,
			"0.02": 0.0,
			"0.021": 0.0,
			"0.022": 0.0,
			"0.023": 0.0,
			"0.024": 0.0,
			"0.025": 0.0
		}
	}
}
