{
	 "smiles": "CC1=NC(=CS1)C1=CC(=NO1)C(Cl)=O", 
	 "Tm": 363.15, 
	 "num_atms": 19, 
	 "gaussian": { 
		 "optdone": 1, 
		 "sigma_profile": "yes", 
		 "theory": "DFT", 
		 "functional": "B3LYP", 
		 "basiset": "6-31G**", 
		 "properties": { 
			 "R2extent": 5888.1468, 
			 "electric_dipole_moment_norm": 6.65118307822, 
			 "electric_quadrupole_moment_norm": 12.4163506281, 
			 "total_energy": -1426.13316289, 
			 "HOMO_LUMO_gap": 0.16219, 
			 "cosmo_polarized_energy": -13.16, 
			 "cosmo_cavitation_energy": 29.09, 
			 "cosmo_dispersion_energy": -21.85, 
			 "cosmo_repulsion_energy": 1.68, 
			 "cosmo_total_nonelectrostatic_energy": 8.92, 
			 "SMD_solvation_energy": 4.12 
		},
		"coords": [
			{
				"x": 0.8178934619,
				"y": 0.3897542715,
				"z": 3.5210294932,
				"element": "C" 
			},
			{
				"x": 0.9936819156,
				"y": -0.2246361535,
				"z": 2.1670505708,
				"element": "C" 
			},
			{
				"x": 0.2518539547,
				"y": 0.0438972669,
				"z": 1.1362128924,
				"element": "N" 
			},
			{
				"x": 0.6475446494,
				"y": -0.6723275789,
				"z": 0.023046541,
				"element": "C" 
			},
			{
				"x": 1.7198173648,
				"y": -1.5098529194,
				"z": 0.2088879302,
				"element": "C" 
			},
			{
				"x": 2.2687561451,
				"y": -1.4090156218,
				"z": 1.8409759736,
				"element": "S" 
			},
			{
				"x": -0.0666492667,
				"y": -0.505071471,
				"z": -1.2343027437,
				"element": "C" 
			},
			{
				"x": 0.0784993851,
				"y": -1.0545872264,
				"z": -2.4796258387,
				"element": "C" 
			},
			{
				"x": -0.957282581,
				"y": -0.4446982062,
				"z": -3.2332036145,
				"element": "C" 
			},
			{
				"x": -1.6711687746,
				"y": 0.4034201558,
				"z": -2.5074061803,
				"element": "N" 
			},
			{
				"x": -1.1106344199,
				"y": 0.3637345172,
				"z": -1.2542835968,
				"element": "O" 
			},
			{
				"x": -1.3335872844,
				"y": -0.6173319409,
				"z": -4.6546615376,
				"element": "C" 
			},
			{
				"x": -0.2605618052,
				"y": -1.8140399796,
				"z": -5.5193297064,
				"element": "Cl" 
			},
			{
				"x": -2.219316139,
				"y": -0.0725210068,
				"z": -5.2304706947,
				"element": "O" 
			},
			{
				"x": 1.7131623926,
				"y": 0.9388856445,
				"z": 3.8304446416,
				"element": "H" 
			},
			{
				"x": 0.6124046481,
				"y": -0.3704814199,
				"z": 4.2816883824,
				"element": "H" 
			},
			{
				"x": -0.023941262,
				"y": 1.0827190032,
				"z": 3.4781961954,
				"element": "H" 
			},
			{
				"x": 2.1997378081,
				"y": -2.1605144324,
				"z": -0.5079807744,
				"element": "H" 
			},
			{
				"x": 0.8014898075,
				"y": -1.7774329021,
				"z": -2.8188679334,
				"element": "H" 
			}
		],
		 "valence_orbital": [ 
			{
				"type": "occ",
				"energy": -0.31797,
				"method": "rhf"
			},
			{
				"type": "occ",
				"energy": -0.30555,
				"method": "rhf"
			},
			{
				"type": "occ",
				"energy": -0.30288,
				"method": "rhf"
			},
			{
				"type": "occ",
				"energy": -0.29509,
				"method": "rhf"
			},
			{
				"type": "occ",
				"energy": -0.2477,
				"method": "rhf"
			},
			{
				"type": "unocc",
				"energy": -0.08551,
				"method": "rhf"
			},
			{
				"type": "unocc",
				"energy": -0.06332,
				"method": "rhf"
			},
			{
				"type": "unocc",
				"energy": -0.02314,
				"method": "rhf"
			},
			{
				"type": "unocc",
				"energy": -0.00512,
				"method": "rhf"
			},
			{
				"type": "unocc",
				"energy": 0.00819,
				"method": "rhf"
			}
		],
		"cosmo_sigma_profile": { 
			"-0.025": 0.0,
			"-0.024": 0.0,
			"-0.023": 0.0,
			"-0.022": 0.0,
			"-0.021": 0.0,
			"-0.02": 0.0,
			"-0.019": 0.0,
			"-0.018": 0.0,
			"-0.017": 0.0,
			"-0.016": 0.0,
			"-0.015": 0.0,
			"-0.014": 0.0,
			"-0.013": 0.0,
			"-0.012": 6.67120309017e-05,
			"-0.011": 1.7113942965,
			"-0.01": 4.00490270014,
			"-0.009": 3.46085867362,
			"-0.008": 2.12256480332,
			"-0.007": 4.74484029755,
			"-0.006": 12.1981640394,
			"-0.005": 13.322626289,
			"-0.004": 13.5535479364,
			"-0.003": 18.1377663755,
			"-0.002": 22.0219763489,
			"-0.001": 24.2280980816,
			"0.0": 20.670799924,
			"0.001": 20.7717779804,
			"0.002": 13.5732098234,
			"0.003": 12.596448006,
			"0.004": 10.3236739454,
			"0.005": 7.33730055026,
			"0.006": 7.4621802201,
			"0.007": 7.24666499312,
			"0.008": 8.16972476391,
			"0.009": 3.51400594509,
			"0.01": 2.55493686639,
			"0.011": 2.66386695879,
			"0.012": 1.68445349335,
			"0.013": 1.21612195684,
			"0.014": 0.398747467859,
			"0.015": 0.0,
			"0.016": 0.0,
			"0.017": 0.0,
			"0.018": 0.0,
			"0.019": 0.0,
			"0.02": 0.0,
			"0.021": 0.0,
			"0.022": 0.0,
			"0.023": 0.0,
			"0.024": 0.0,
			"0.025": 0.0
		}
	}
}
