{
	 "smiles": "CCCC(NOCC)=C1C(=O)CC(CC1=O)C1CCCSC1", 
	 "Tm": 310.25, 
	 "num_atms": 49, 
	 "gaussian": { 
		 "optdone": 1, 
		 "sigma_profile": "yes", 
		 "theory": "DFT", 
		 "functional": "B3LYP", 
		 "basiset": "6-31G**", 
		 "properties": { 
			 "R2extent": 10957.4176, 
			 "electric_dipole_moment_norm": 3.27012092284, 
			 "electric_quadrupole_moment_norm": 22.6103085992, 
			 "total_energy": -1342.66002234, 
			 "HOMO_LUMO_gap": 0.17201, 
			 "cosmo_polarized_energy": -14.57, 
			 "cosmo_cavitation_energy": 48.26, 
			 "cosmo_dispersion_energy": -34.24, 
			 "cosmo_repulsion_energy": 2.58, 
			 "cosmo_total_nonelectrostatic_energy": 16.6, 
			 "SMD_solvation_energy": 7.76 
		},
		"coords": [
			{
				"x": -2.7681453807,
				"y": 3.2663625511,
				"z": -0.1917638668,
				"element": "C" 
			},
			{
				"x": -1.3734132291,
				"y": 3.6391430013,
				"z": 0.316910071,
				"element": "C" 
			},
			{
				"x": -0.2289734395,
				"y": 3.4319397897,
				"z": -0.7052939752,
				"element": "C" 
			},
			{
				"x": -0.0303680754,
				"y": 1.9924150024,
				"z": -1.113258308,
				"element": "C" 
			},
			{
				"x": -0.51270046,
				"y": 1.5996464305,
				"z": -2.2864197665,
				"element": "N" 
			},
			{
				"x": -1.0056774723,
				"y": 2.5129907587,
				"z": -3.2100322921,
				"element": "O" 
			},
			{
				"x": -2.2741763155,
				"y": 2.0715594976,
				"z": -3.7435567276,
				"element": "C" 
			},
			{
				"x": -2.1587912785,
				"y": 0.832621023,
				"z": -4.6217117768,
				"element": "C" 
			},
			{
				"x": 0.6547234557,
				"y": 1.0027202027,
				"z": -0.3310422253,
				"element": "C" 
			},
			{
				"x": 1.262940503,
				"y": 1.3480257493,
				"z": 0.9602512653,
				"element": "C" 
			},
			{
				"x": 1.1943637724,
				"y": 2.4593854436,
				"z": 1.4899228118,
				"element": "O" 
			},
			{
				"x": 2.0641325809,
				"y": 0.266509267,
				"z": 1.6881897859,
				"element": "C" 
			},
			{
				"x": 1.5548094767,
				"y": -1.161061112,
				"z": 1.4588569391,
				"element": "C" 
			},
			{
				"x": 1.5635870501,
				"y": -1.3921900147,
				"z": -0.056597833,
				"element": "C" 
			},
			{
				"x": 0.8114342148,
				"y": -0.3385690448,
				"z": -0.8566944575,
				"element": "C" 
			},
			{
				"x": 0.37018237,
				"y": -0.7049411569,
				"z": -1.9744150574,
				"element": "O" 
			},
			{
				"x": 2.3711317835,
				"y": -2.2290313041,
				"z": 2.22843233,
				"element": "C" 
			},
			{
				"x": 1.9856922555,
				"y": -3.672464618,
				"z": 1.8029635535,
				"element": "C" 
			},
			{
				"x": 2.2925132521,
				"y": -4.7229483302,
				"z": 2.8804729214,
				"element": "C" 
			},
			{
				"x": 1.3082056951,
				"y": -4.6601133965,
				"z": 4.0609043688,
				"element": "C" 
			},
			{
				"x": 0.8455879836,
				"y": -2.92635248,
				"z": 4.5192864603,
				"element": "S" 
			},
			{
				"x": 2.2774277254,
				"y": -2.061340525,
				"z": 3.7654137513,
				"element": "C" 
			},
			{
				"x": -2.8391225809,
				"y": 2.1996178957,
				"z": -0.4322231189,
				"element": "H" 
			},
			{
				"x": -3.5261087707,
				"y": 3.4781644162,
				"z": 0.5695139891,
				"element": "H" 
			},
			{
				"x": -3.0346494056,
				"y": 3.8332528678,
				"z": -1.091168434,
				"element": "H" 
			},
			{
				"x": -1.3586382022,
				"y": 4.7001947255,
				"z": 0.5934418885,
				"element": "H" 
			},
			{
				"x": -1.1336309369,
				"y": 3.0831384811,
				"z": 1.2261298729,
				"element": "H" 
			},
			{
				"x": -0.4294520881,
				"y": 4.0184463841,
				"z": -1.6034965609,
				"element": "H" 
			},
			{
				"x": 0.694998198,
				"y": 3.7763183451,
				"z": -0.241437957,
				"element": "H" 
			},
			{
				"x": -0.2634948011,
				"y": 0.6266057875,
				"z": -2.584061555,
				"element": "H" 
			},
			{
				"x": -2.9778190628,
				"y": 1.9169567095,
				"z": -2.9178772526,
				"element": "H" 
			},
			{
				"x": -2.6041169068,
				"y": 2.9360100665,
				"z": -4.3264563722,
				"element": "H" 
			},
			{
				"x": -1.4345653322,
				"y": 0.9934462049,
				"z": -5.4255442176,
				"element": "H" 
			},
			{
				"x": -3.1317518685,
				"y": 0.6130144597,
				"z": -5.0734622226,
				"element": "H" 
			},
			{
				"x": -1.8561931596,
				"y": -0.0488223228,
				"z": -4.0481416903,
				"element": "H" 
			},
			{
				"x": 2.0675905064,
				"y": 0.5656286506,
				"z": 2.7384408967,
				"element": "H" 
			},
			{
				"x": 3.1060939792,
				"y": 0.3369570718,
				"z": 1.3378137922,
				"element": "H" 
			},
			{
				"x": 0.5151570351,
				"y": -1.2257495043,
				"z": 1.8132088608,
				"element": "H" 
			},
			{
				"x": 2.6036884119,
				"y": -1.3940317324,
				"z": -0.4196732947,
				"element": "H" 
			},
			{
				"x": 1.1338143067,
				"y": -2.3532258567,
				"z": -0.3466922521,
				"element": "H" 
			},
			{
				"x": 3.4315536869,
				"y": -2.0772318349,
				"z": 1.9701479931,
				"element": "H" 
			},
			{
				"x": 0.9118680085,
				"y": -3.7132180546,
				"z": 1.5793745594,
				"element": "H" 
			},
			{
				"x": 2.506278964,
				"y": -3.9310240221,
				"z": 0.8753557885,
				"element": "H" 
			},
			{
				"x": 2.2438227893,
				"y": -5.7295516558,
				"z": 2.4483449539,
				"element": "H" 
			},
			{
				"x": 3.3207294437,
				"y": -4.5977660609,
				"z": 3.2410912161,
				"element": "H" 
			},
			{
				"x": 0.3678467264,
				"y": -5.1520414462,
				"z": 3.7945186219,
				"element": "H" 
			},
			{
				"x": 1.7164087419,
				"y": -5.1701688503,
				"z": 4.9382816111,
				"element": "H" 
			},
			{
				"x": 2.1644886853,
				"y": -1.0148083208,
				"z": 4.0548580708,
				"element": "H" 
			},
			{
				"x": 3.1913171643,
				"y": -2.4186191386,
				"z": 4.2482948406,
				"element": "H" 
			}
		],
		 "valence_orbital": [ 
			{
				"type": "occ",
				"energy": -0.28911,
				"method": "rhf"
			},
			{
				"type": "occ",
				"energy": -0.24698,
				"method": "rhf"
			},
			{
				"type": "occ",
				"energy": -0.2247,
				"method": "rhf"
			},
			{
				"type": "occ",
				"energy": -0.21964,
				"method": "rhf"
			},
			{
				"type": "occ",
				"energy": -0.21267,
				"method": "rhf"
			},
			{
				"type": "unocc",
				"energy": -0.04066,
				"method": "rhf"
			},
			{
				"type": "unocc",
				"energy": -0.00865,
				"method": "rhf"
			},
			{
				"type": "unocc",
				"energy": 0.04319,
				"method": "rhf"
			},
			{
				"type": "unocc",
				"energy": 0.06905,
				"method": "rhf"
			},
			{
				"type": "unocc",
				"energy": 0.07423,
				"method": "rhf"
			}
		],
		"cosmo_sigma_profile": { 
			"-0.025": 0.0,
			"-0.024": 0.0,
			"-0.023": 0.0,
			"-0.022": 0.0,
			"-0.021": 0.0,
			"-0.02": 0.0,
			"-0.019": 0.0,
			"-0.018": 0.0,
			"-0.017": 0.0,
			"-0.016": 0.0,
			"-0.015": 0.0,
			"-0.014": 0.0,
			"-0.013": 0.0,
			"-0.012": 0.0,
			"-0.011": 0.0,
			"-0.01": 0.0,
			"-0.009": 0.0,
			"-0.008": 0.0,
			"-0.007": 0.6347192636,
			"-0.006": 4.93271196013,
			"-0.005": 15.8024024404,
			"-0.004": 34.4446652249,
			"-0.003": 56.0833416548,
			"-0.002": 63.8528778185,
			"-0.001": 53.4682602639,
			"0.0": 37.5363668947,
			"0.001": 25.5301875758,
			"0.002": 12.0716768349,
			"0.003": 8.92398256031,
			"0.004": 7.3206221988,
			"0.005": 8.0854953837,
			"0.006": 7.57820289919,
			"0.007": 7.41058631141,
			"0.008": 6.57718018191,
			"0.009": 5.66707641718,
			"0.01": 4.67785143689,
			"0.011": 4.62948691495,
			"0.012": 4.24047455786,
			"0.013": 2.97198909854,
			"0.014": 3.34320652262,
			"0.015": 1.22869854871,
			"0.016": 0.000625300150955,
			"0.017": 0.0,
			"0.018": 0.0,
			"0.019": 0.0,
			"0.02": 0.0,
			"0.021": 0.0,
			"0.022": 0.0,
			"0.023": 0.0,
			"0.024": 0.0,
			"0.025": 0.0
		}
	}
}
