{
	 "smiles": "OCCCC1=NC=CC=C1", 
	 "Tm": 307.15, 
	 "num_atms": 21, 
	 "gaussian": { 
		 "optdone": 1, 
		 "sigma_profile": "yes", 
		 "theory": "DFT", 
		 "functional": "B3LYP", 
		 "basiset": "6-31G**", 
		 "properties": { 
			 "R2extent": 2060.8605, 
			 "electric_dipole_moment_norm": 2.66937208721, 
			 "electric_quadrupole_moment_norm": 13.0851580143, 
			 "total_energy": -441.447698756, 
			 "HOMO_LUMO_gap": 0.22283, 
			 "cosmo_polarized_energy": -10.12, 
			 "cosmo_cavitation_energy": 24.11, 
			 "cosmo_dispersion_energy": -17.34, 
			 "cosmo_repulsion_energy": 1.43, 
			 "cosmo_total_nonelectrostatic_energy": 8.19, 
			 "SMD_solvation_energy": 2.76 
		},
		"coords": [
			{
				"x": 3.6021880111,
				"y": -2.0078799977,
				"z": 0.1285266704,
				"element": "O" 
			},
			{
				"x": 3.1740848562,
				"y": -0.9258509641,
				"z": -0.6962523575,
				"element": "C" 
			},
			{
				"x": 1.8119230603,
				"y": -1.167820662,
				"z": -1.3524407048,
				"element": "C" 
			},
			{
				"x": 0.6679949681,
				"y": -1.4087418518,
				"z": -0.3500668279,
				"element": "C" 
			},
			{
				"x": 0.3991611892,
				"y": -0.2359437697,
				"z": 0.5707009073,
				"element": "C" 
			},
			{
				"x": 0.1815895126,
				"y": 0.9535968606,
				"z": -0.0187551252,
				"element": "N" 
			},
			{
				"x": -0.0693041498,
				"y": 2.0099016129,
				"z": 0.7607963707,
				"element": "C" 
			},
			{
				"x": -0.1178839993,
				"y": 1.9536971681,
				"z": 2.155062735,
				"element": "C" 
			},
			{
				"x": 0.1090813882,
				"y": 0.7227715696,
				"z": 2.7669393176,
				"element": "C" 
			},
			{
				"x": 0.3720838528,
				"y": -0.386591698,
				"z": 1.964130282,
				"element": "C" 
			},
			{
				"x": 3.1212768851,
				"y": -1.9483613578,
				"z": 0.9627058805,
				"element": "H" 
			},
			{
				"x": 3.9385693778,
				"y": -0.8215516077,
				"z": -1.473375323,
				"element": "H" 
			},
			{
				"x": 3.1582714297,
				"y": 0.017942992,
				"z": -0.1309688468,
				"element": "H" 
			},
			{
				"x": 1.5630979674,
				"y": -0.2993033529,
				"z": -1.9723487906,
				"element": "H" 
			},
			{
				"x": 1.8861327709,
				"y": -2.0393909448,
				"z": -2.0131627385,
				"element": "H" 
			},
			{
				"x": -0.2489007099,
				"y": -1.622938949,
				"z": -0.9133130571,
				"element": "H" 
			},
			{
				"x": 0.8819389883,
				"y": -2.3036359046,
				"z": 0.2456023229,
				"element": "H" 
			},
			{
				"x": -0.2416373899,
				"y": 2.9532998496,
				"z": 0.2443896601,
				"element": "H" 
			},
			{
				"x": -0.3262380926,
				"y": 2.8466739514,
				"z": 2.7356587831,
				"element": "H" 
			},
			{
				"x": 0.0822822422,
				"y": 0.6260989522,
				"z": 3.848790495,
				"element": "H" 
			},
			{
				"x": 0.5441878416,
				"y": -1.3630718964,
				"z": 2.4085803466,
				"element": "H" 
			}
		],
		 "valence_orbital": [ 
			{
				"type": "occ",
				"energy": -0.31387,
				"method": "rhf"
			},
			{
				"type": "occ",
				"energy": -0.28807,
				"method": "rhf"
			},
			{
				"type": "occ",
				"energy": -0.26432,
				"method": "rhf"
			},
			{
				"type": "occ",
				"energy": -0.25595,
				"method": "rhf"
			},
			{
				"type": "occ",
				"energy": -0.25146,
				"method": "rhf"
			},
			{
				"type": "unocc",
				"energy": -0.02863,
				"method": "rhf"
			},
			{
				"type": "unocc",
				"energy": -0.01248,
				"method": "rhf"
			},
			{
				"type": "unocc",
				"energy": 0.06746,
				"method": "rhf"
			},
			{
				"type": "unocc",
				"energy": 0.09885,
				"method": "rhf"
			},
			{
				"type": "unocc",
				"energy": 0.11828,
				"method": "rhf"
			}
		],
		"cosmo_sigma_profile": { 
			"-0.025": 0.0,
			"-0.024": 0.0,
			"-0.023": 0.0,
			"-0.022": 0.0,
			"-0.021": 0.0,
			"-0.02": 0.0,
			"-0.019": 0.0,
			"-0.018": 0.0,
			"-0.017": 0.0,
			"-0.016": 0.0,
			"-0.015": 0.0,
			"-0.014": 0.00293098424201,
			"-0.013": 0.455319752758,
			"-0.012": 0.601619025114,
			"-0.011": 1.27968927659,
			"-0.01": 1.66402997059,
			"-0.009": 1.45491568862,
			"-0.008": 2.22649029992,
			"-0.007": 4.36487104561,
			"-0.006": 9.67332435412,
			"-0.005": 11.5024647652,
			"-0.004": 13.3833427905,
			"-0.003": 15.1858006513,
			"-0.002": 19.9011120187,
			"-0.001": 18.8445978151,
			"0.0": 17.7538121588,
			"0.001": 11.1049347467,
			"0.002": 11.1324405426,
			"0.003": 13.6004222115,
			"0.004": 6.95455306421,
			"0.005": 3.76937465718,
			"0.006": 3.69406991306,
			"0.007": 1.90333172982,
			"0.008": 2.43152426677,
			"0.009": 2.70088173244,
			"0.01": 1.88125701257,
			"0.011": 2.1396045492,
			"0.012": 2.25957371987,
			"0.013": 2.60656826419,
			"0.014": 3.01262794266,
			"0.015": 1.93445435922,
			"0.016": 0.203042847051,
			"0.017": 0.0,
			"0.018": 0.0,
			"0.019": 0.0,
			"0.02": 0.0,
			"0.021": 0.0,
			"0.022": 0.0,
			"0.023": 0.0,
			"0.024": 0.0,
			"0.025": 0.0
		}
	}
}
