{
	 "smiles": "COC1=C(NC(=O)C(Br)C(C)C)C=CC=C1", 
	 "Tm": 381.15, 
	 "num_atms": 32, 
	 "gaussian": { 
		 "optdone": 1, 
		 "sigma_profile": "yes", 
		 "theory": "DFT", 
		 "functional": "B3LYP", 
		 "basiset": "6-31G**", 
		 "properties": { 
			 "R2extent": 4882.8434, 
			 "electric_dipole_moment_norm": 4.93623870979, 
			 "electric_quadrupole_moment_norm": 13.9109960445, 
			 "total_energy": -3243.53224153, 
			 "HOMO_LUMO_gap": 0.20559, 
			 "cosmo_polarized_energy": -14.17, 
			 "cosmo_cavitation_energy": 36.2, 
			 "cosmo_dispersion_energy": -24.71, 
			 "cosmo_repulsion_energy": 1.93, 
			 "cosmo_total_nonelectrostatic_energy": 13.43, 
			 "SMD_solvation_energy": 6.51 
		},
		"coords": [
			{
				"x": 0.6252023421,
				"y": 0.311537963,
				"z": 2.9655895722,
				"element": "C" 
			},
			{
				"x": 0.6454203101,
				"y": -0.569811916,
				"z": 1.8502596125,
				"element": "O" 
			},
			{
				"x": 1.6626686104,
				"y": -0.475993255,
				"z": 0.9566993464,
				"element": "C" 
			},
			{
				"x": 1.5611195454,
				"y": -1.3163381656,
				"z": -0.1776564816,
				"element": "C" 
			},
			{
				"x": 0.4741369995,
				"y": -2.2294681591,
				"z": -0.3071084452,
				"element": "N" 
			},
			{
				"x": -0.8842272814,
				"y": -1.9821953076,
				"z": -0.3245924635,
				"element": "C" 
			},
			{
				"x": -1.682351836,
				"y": -2.8964318196,
				"z": -0.1949670408,
				"element": "O" 
			},
			{
				"x": -1.2973636782,
				"y": -0.5475734084,
				"z": -0.6645254085,
				"element": "C" 
			},
			{
				"x": -2.6094110765,
				"y": 0.0845340755,
				"z": 0.6928364884,
				"element": "Br" 
			},
			{
				"x": -1.8401832876,
				"y": -0.4223333793,
				"z": -2.1057232193,
				"element": "C" 
			},
			{
				"x": -1.9592780855,
				"y": 1.0502333345,
				"z": -2.5238222829,
				"element": "C" 
			},
			{
				"x": -3.143850348,
				"y": -1.1882960419,
				"z": -2.365036374,
				"element": "C" 
			},
			{
				"x": 2.5726074243,
				"y": -1.2981732395,
				"z": -1.1375764424,
				"element": "C" 
			},
			{
				"x": 3.6802625932,
				"y": -0.458735553,
				"z": -0.9990712785,
				"element": "C" 
			},
			{
				"x": 3.7647411447,
				"y": 0.3802559925,
				"z": 0.1096832714,
				"element": "C" 
			},
			{
				"x": 2.7627428116,
				"y": 0.3795286529,
				"z": 1.0839017193,
				"element": "C" 
			},
			{
				"x": 1.4802011414,
				"y": 0.1357636789,
				"z": 3.6301979062,
				"element": "H" 
			},
			{
				"x": -0.3020523383,
				"y": 0.0939256668,
				"z": 3.4951541883,
				"element": "H" 
			},
			{
				"x": 0.6209465062,
				"y": 1.3606084259,
				"z": 2.6464332035,
				"element": "H" 
			},
			{
				"x": 0.6723612159,
				"y": -3.2123287471,
				"z": -0.1551403165,
				"element": "H" 
			},
			{
				"x": -0.4594348036,
				"y": 0.1344600905,
				"z": -0.5398117466,
				"element": "H" 
			},
			{
				"x": -1.0485811269,
				"y": -0.8799420946,
				"z": -2.7212171625,
				"element": "H" 
			},
			{
				"x": -2.7119753947,
				"y": 1.5651578605,
				"z": -1.9190945317,
				"element": "H" 
			},
			{
				"x": -1.0083173227,
				"y": 1.582112605,
				"z": -2.4083648651,
				"element": "H" 
			},
			{
				"x": -2.2605973293,
				"y": 1.1232977986,
				"z": -3.573592314,
				"element": "H" 
			},
			{
				"x": -3.0637099819,
				"y": -2.2325075093,
				"z": -2.059161885,
				"element": "H" 
			},
			{
				"x": -3.3898640956,
				"y": -1.1464617634,
				"z": -3.4312257131,
				"element": "H" 
			},
			{
				"x": -3.9704144832,
				"y": -0.7375739847,
				"z": -1.8078222241,
				"element": "H" 
			},
			{
				"x": 2.4757934042,
				"y": -1.9534649041,
				"z": -1.9982662824,
				"element": "H" 
			},
			{
				"x": 4.4599926152,
				"y": -0.4568522627,
				"z": -1.7537114238,
				"element": "H" 
			},
			{
				"x": 4.6153921716,
				"y": 1.0451802909,
				"z": 0.2273655437,
				"element": "H" 
			},
			{
				"x": 2.8504236337,
				"y": 1.0323850755,
				"z": 1.9441670496,
				"element": "H" 
			}
		],
		 "valence_orbital": [ 
			{
				"type": "occ",
				"energy": -0.26951,
				"method": "rhf"
			},
			{
				"type": "occ",
				"energy": -0.26259,
				"method": "rhf"
			},
			{
				"type": "occ",
				"energy": -0.25287,
				"method": "rhf"
			},
			{
				"type": "occ",
				"energy": -0.24739,
				"method": "rhf"
			},
			{
				"type": "occ",
				"energy": -0.22859,
				"method": "rhf"
			},
			{
				"type": "unocc",
				"energy": -0.023,
				"method": "rhf"
			},
			{
				"type": "unocc",
				"energy": -0.01085,
				"method": "rhf"
			},
			{
				"type": "unocc",
				"energy": -0.00279,
				"method": "rhf"
			},
			{
				"type": "unocc",
				"energy": 0.04654,
				"method": "rhf"
			},
			{
				"type": "unocc",
				"energy": 0.07885,
				"method": "rhf"
			}
		],
		"cosmo_sigma_profile": { 
			"-0.025": 0.0,
			"-0.024": 0.0,
			"-0.023": 0.0,
			"-0.022": 0.0,
			"-0.021": 0.0,
			"-0.02": 0.0,
			"-0.019": 0.0,
			"-0.018": 0.0,
			"-0.017": 0.0,
			"-0.016": 0.0,
			"-0.015": 0.097867254252,
			"-0.014": 0.845654985452,
			"-0.013": 1.17285165189,
			"-0.012": 0.765144689034,
			"-0.011": 1.17141270795,
			"-0.01": 0.684190225995,
			"-0.009": 0.742121735278,
			"-0.008": 1.0339686034,
			"-0.007": 2.42136799012,
			"-0.006": 14.1097424103,
			"-0.005": 19.8881051383,
			"-0.004": 25.7252666842,
			"-0.003": 27.2359366441,
			"-0.002": 23.475289389,
			"-0.001": 23.1653562986,
			"0.0": 24.4114268946,
			"0.001": 26.3626090809,
			"0.002": 17.8552139959,
			"0.003": 15.7912610826,
			"0.004": 15.1872744766,
			"0.005": 14.7094430033,
			"0.006": 8.34724429916,
			"0.007": 4.14330757375,
			"0.008": 2.70202462611,
			"0.009": 2.27493881696,
			"0.01": 2.60798434121,
			"0.011": 1.96034578227,
			"0.012": 3.16496302336,
			"0.013": 4.95081908418,
			"0.014": 0.959378015195,
			"0.015": 0.0,
			"0.016": 0.0,
			"0.017": 0.0,
			"0.018": 0.0,
			"0.019": 0.0,
			"0.02": 0.0,
			"0.021": 0.0,
			"0.022": 0.0,
			"0.023": 0.0,
			"0.024": 0.0,
			"0.025": 0.0
		}
	}
}
