{
	 "smiles": "COC1=C(C=C(C=C1)S(N)(=O)=O)[N+]([O-])=O", 
	 "Tm": 413.15, 
	 "num_atms": 23, 
	 "gaussian": { 
		 "optdone": 1, 
		 "sigma_profile": "yes", 
		 "theory": "DFT", 
		 "functional": "B3LYP", 
		 "basiset": "6-31G**", 
		 "properties": { 
			 "R2extent": 5978.5529, 
			 "electric_dipole_moment_norm": 7.27388281869, 
			 "electric_quadrupole_moment_norm": 31.0771108434, 
			 "total_energy": -1155.17963002, 
			 "HOMO_LUMO_gap": 0.17076, 
			 "cosmo_polarized_energy": -25.59, 
			 "cosmo_cavitation_energy": 29.92, 
			 "cosmo_dispersion_energy": -22.13, 
			 "cosmo_repulsion_energy": 1.7, 
			 "cosmo_total_nonelectrostatic_energy": 9.49, 
			 "SMD_solvation_energy": 7.97 
		},
		"coords": [
			{
				"x": -1.2774494906,
				"y": 2.8016434751,
				"z": -0.0913029698,
				"element": "C" 
			},
			{
				"x": -1.6451767508,
				"y": 1.5152934162,
				"z": 0.4038301329,
				"element": "O" 
			},
			{
				"x": -0.7593576211,
				"y": 0.8132183011,
				"z": 1.1264727404,
				"element": "C" 
			},
			{
				"x": -1.1300532305,
				"y": -0.475348407,
				"z": 1.5869615309,
				"element": "C" 
			},
			{
				"x": -0.2401148363,
				"y": -1.2741162898,
				"z": 2.2953930999,
				"element": "C" 
			},
			{
				"x": 1.0379243957,
				"y": -0.7994639629,
				"z": 2.5761847453,
				"element": "C" 
			},
			{
				"x": 1.4232549981,
				"y": 0.4738540891,
				"z": 2.152593849,
				"element": "C" 
			},
			{
				"x": 0.5374212724,
				"y": 1.2661238524,
				"z": 1.4298823642,
				"element": "C" 
			},
			{
				"x": 2.1913712894,
				"y": -1.8275602148,
				"z": 3.4950261669,
				"element": "S" 
			},
			{
				"x": 2.9140866359,
				"y": -2.8672302276,
				"z": 2.3954386755,
				"element": "N" 
			},
			{
				"x": 1.4006602782,
				"y": -2.6790154322,
				"z": 4.3794006158,
				"element": "O" 
			},
			{
				"x": 3.2566235669,
				"y": -0.9442586098,
				"z": 3.9652082311,
				"element": "O" 
			},
			{
				"x": -2.4722756689,
				"y": -1.0311942884,
				"z": 1.3530847336,
				"element": "N" 
			},
			{
				"x": -2.5573225555,
				"y": -2.2596759771,
				"z": 1.2968817278,
				"element": "O" 
			},
			{
				"x": -3.4152719686,
				"y": -0.2539061696,
				"z": 1.2540437883,
				"element": "O" 
			},
			{
				"x": -0.4181801145,
				"y": 2.7388017086,
				"z": -0.768933924,
				"element": "H" 
			},
			{
				"x": -2.148721664,
				"y": 3.1590860276,
				"z": -0.6393546639,
				"element": "H" 
			},
			{
				"x": -1.0529830466,
				"y": 3.4936600711,
				"z": 0.728046995,
				"element": "H" 
			},
			{
				"x": -0.5691931746,
				"y": -2.2486526851,
				"z": 2.6356925325,
				"element": "H" 
			},
			{
				"x": 2.4109661499,
				"y": 0.8447211351,
				"z": 2.4048942599,
				"element": "H" 
			},
			{
				"x": 0.8544790952,
				"y": 2.2485625103,
				"z": 1.1043834748,
				"element": "H" 
			},
			{
				"x": 3.4890912714,
				"y": -2.3945539005,
				"z": 1.7061108783,
				"element": "H" 
			},
			{
				"x": 2.2731211687,
				"y": -3.5465884216,
				"z": 1.9988610157,
				"element": "H" 
			}
		],
		 "valence_orbital": [ 
			{
				"type": "occ",
				"energy": -0.31267,
				"method": "rhf"
			},
			{
				"type": "occ",
				"energy": -0.31184,
				"method": "rhf"
			},
			{
				"type": "occ",
				"energy": -0.30345,
				"method": "rhf"
			},
			{
				"type": "occ",
				"energy": -0.28703,
				"method": "rhf"
			},
			{
				"type": "occ",
				"energy": -0.26379,
				"method": "rhf"
			},
			{
				"type": "unocc",
				"energy": -0.09303,
				"method": "rhf"
			},
			{
				"type": "unocc",
				"energy": -0.04888,
				"method": "rhf"
			},
			{
				"type": "unocc",
				"energy": -0.02509,
				"method": "rhf"
			},
			{
				"type": "unocc",
				"energy": 0.03905,
				"method": "rhf"
			},
			{
				"type": "unocc",
				"energy": 0.05976,
				"method": "rhf"
			}
		],
		"cosmo_sigma_profile": { 
			"-0.025": 0.0,
			"-0.024": 0.0,
			"-0.023": 0.0,
			"-0.022": 0.0,
			"-0.021": 0.0,
			"-0.02": 0.0,
			"-0.019": 0.0,
			"-0.018": 0.0,
			"-0.017": 0.0,
			"-0.016": 0.375632985624,
			"-0.015": 2.76106824925,
			"-0.014": 3.12096470302,
			"-0.013": 2.99835869581,
			"-0.012": 2.88501335869,
			"-0.011": 2.82762156012,
			"-0.01": 1.86524998189,
			"-0.009": 4.1699908176,
			"-0.008": 8.04588810879,
			"-0.007": 13.720439385,
			"-0.006": 15.1367936715,
			"-0.005": 14.1394638238,
			"-0.004": 13.3603032419,
			"-0.003": 11.1564781194,
			"-0.002": 13.8740633905,
			"-0.001": 14.5393509278,
			"0.0": 12.4013370777,
			"0.001": 8.74060224809,
			"0.002": 5.21728104842,
			"0.003": 5.61521466005,
			"0.004": 6.24652430618,
			"0.005": 5.30086357467,
			"0.006": 7.80987110334,
			"0.007": 13.0892081242,
			"0.008": 13.2003589907,
			"0.009": 10.8048409447,
			"0.01": 11.3324432399,
			"0.011": 11.4101851265,
			"0.012": 2.79185970774,
			"0.013": 0.0233560860289,
			"0.014": 0.0,
			"0.015": 0.0,
			"0.016": 0.0,
			"0.017": 0.0,
			"0.018": 0.0,
			"0.019": 0.0,
			"0.02": 0.0,
			"0.021": 0.0,
			"0.022": 0.0,
			"0.023": 0.0,
			"0.024": 0.0,
			"0.025": 0.0
		}
	}
}
