{
	 "smiles": "CCCNC(=O)COC(=O)C1=CC=CC=C1", 
	 "Tm": 362.65, 
	 "num_atms": 31, 
	 "gaussian": { 
		 "optdone": 1, 
		 "sigma_profile": "yes", 
		 "theory": "DFT", 
		 "functional": "B3LYP", 
		 "basiset": "6-31G**", 
		 "properties": { 
			 "R2extent": 4910.3335, 
			 "electric_dipole_moment_norm": 3.98792177832, 
			 "electric_quadrupole_moment_norm": 15.463956064, 
			 "total_energy": -746.770102754, 
			 "HOMO_LUMO_gap": 0.1941, 
			 "cosmo_polarized_energy": -13.57, 
			 "cosmo_cavitation_energy": 35.06, 
			 "cosmo_dispersion_energy": -24.19, 
			 "cosmo_repulsion_energy": 1.94, 
			 "cosmo_total_nonelectrostatic_energy": 12.8, 
			 "SMD_solvation_energy": 7.29 
		},
		"coords": [
			{
				"x": 1.6155722291,
				"y": -1.5886758962,
				"z": 4.0219685387,
				"element": "C" 
			},
			{
				"x": 1.7596718684,
				"y": -0.3403013242,
				"z": 3.1465478519,
				"element": "C" 
			},
			{
				"x": 1.4180321626,
				"y": -0.5742689819,
				"z": 1.6691911594,
				"element": "C" 
			},
			{
				"x": 2.3582643358,
				"y": -1.5013346712,
				"z": 1.0468821567,
				"element": "N" 
			},
			{
				"x": 2.1451399149,
				"y": -2.455079224,
				"z": 0.0942533518,
				"element": "C" 
			},
			{
				"x": 3.0470427803,
				"y": -3.1748541676,
				"z": -0.318063965,
				"element": "O" 
			},
			{
				"x": 0.7195326209,
				"y": -2.6308748566,
				"z": -0.4341358237,
				"element": "C" 
			},
			{
				"x": 0.2590220599,
				"y": -1.4163208241,
				"z": -1.0593731047,
				"element": "O" 
			},
			{
				"x": -0.9760690744,
				"y": -0.9622065842,
				"z": -0.7247195133,
				"element": "C" 
			},
			{
				"x": -1.6777121357,
				"y": -1.4853519218,
				"z": 0.1206675103,
				"element": "O" 
			},
			{
				"x": -1.3554231565,
				"y": 0.2519031891,
				"z": -1.4976061309,
				"element": "C" 
			},
			{
				"x": -2.6024529394,
				"y": 0.8337255003,
				"z": -1.2281675686,
				"element": "C" 
			},
			{
				"x": -3.0062909289,
				"y": 1.9701445686,
				"z": -1.9239287661,
				"element": "C" 
			},
			{
				"x": -2.16791399,
				"y": 2.5307071319,
				"z": -2.8916890812,
				"element": "C" 
			},
			{
				"x": -0.9252306843,
				"y": 1.9526776235,
				"z": -3.1633435986,
				"element": "C" 
			},
			{
				"x": -0.5161803658,
				"y": 0.8147840079,
				"z": -2.4701722489,
				"element": "C" 
			},
			{
				"x": 1.8796144698,
				"y": -1.3720923963,
				"z": 5.0616138547,
				"element": "H" 
			},
			{
				"x": 0.5844835592,
				"y": -1.9592511929,
				"z": 4.0093177382,
				"element": "H" 
			},
			{
				"x": 2.2634149404,
				"y": -2.3983476656,
				"z": 3.6723125943,
				"element": "H" 
			},
			{
				"x": 2.7826257833,
				"y": 0.0552093595,
				"z": 3.2200323166,
				"element": "H" 
			},
			{
				"x": 1.1027110563,
				"y": 0.4555845215,
				"z": 3.5174326918,
				"element": "H" 
			},
			{
				"x": 1.4145688086,
				"y": 0.3864008584,
				"z": 1.1348212192,
				"element": "H" 
			},
			{
				"x": 0.408906609,
				"y": -0.9875795299,
				"z": 1.5946080489,
				"element": "H" 
			},
			{
				"x": 3.3358021555,
				"y": -1.4116415971,
				"z": 1.2968949107,
				"element": "H" 
			},
			{
				"x": 0.7633208944,
				"y": -3.4078819386,
				"z": -1.1983356037,
				"element": "H" 
			},
			{
				"x": 0.0185410934,
				"y": -2.9220484582,
				"z": 0.3526393982,
				"element": "H" 
			},
			{
				"x": -3.2356235563,
				"y": 0.3792796921,
				"z": -0.4737527194,
				"element": "H" 
			},
			{
				"x": -3.9725850136,
				"y": 2.4190239974,
				"z": -1.7142019335,
				"element": "H" 
			},
			{
				"x": -2.4834502026,
				"y": 3.4170560517,
				"z": -3.4347873856,
				"element": "H" 
			},
			{
				"x": -0.2755701946,
				"y": 2.3881289901,
				"z": -3.9167030612,
				"element": "H" 
			},
			{
				"x": 0.4449349002,
				"y": 0.3583857383,
				"z": -2.6763028371,
				"element": "H" 
			}
		],
		 "valence_orbital": [ 
			{
				"type": "occ",
				"energy": -0.28561,
				"method": "rhf"
			},
			{
				"type": "occ",
				"energy": -0.26656,
				"method": "rhf"
			},
			{
				"type": "occ",
				"energy": -0.26434,
				"method": "rhf"
			},
			{
				"type": "occ",
				"energy": -0.24917,
				"method": "rhf"
			},
			{
				"type": "occ",
				"energy": -0.24776,
				"method": "rhf"
			},
			{
				"type": "unocc",
				"energy": -0.05366,
				"method": "rhf"
			},
			{
				"type": "unocc",
				"energy": -0.0136,
				"method": "rhf"
			},
			{
				"type": "unocc",
				"energy": 0.01465,
				"method": "rhf"
			},
			{
				"type": "unocc",
				"energy": 0.05062,
				"method": "rhf"
			},
			{
				"type": "unocc",
				"energy": 0.08026,
				"method": "rhf"
			}
		],
		"cosmo_sigma_profile": { 
			"-0.025": 0.0,
			"-0.024": 0.0,
			"-0.023": 0.0,
			"-0.022": 0.0,
			"-0.021": 0.0,
			"-0.02": 0.0,
			"-0.019": 0.0,
			"-0.018": 0.0,
			"-0.017": 0.0,
			"-0.016": 0.0,
			"-0.015": 0.0,
			"-0.014": 0.078758495708,
			"-0.013": 0.777606721606,
			"-0.012": 0.771313870133,
			"-0.011": 0.93565689064,
			"-0.01": 1.19415840931,
			"-0.009": 1.20040011054,
			"-0.008": 1.59707290547,
			"-0.007": 5.69270262009,
			"-0.006": 13.6679525941,
			"-0.005": 16.7529079961,
			"-0.004": 21.0142550366,
			"-0.003": 31.6254971243,
			"-0.002": 24.9170397974,
			"-0.001": 22.7149930291,
			"0.0": 23.5329890682,
			"0.001": 27.2059223066,
			"0.002": 18.1979127582,
			"0.003": 16.1633889861,
			"0.004": 14.4899810721,
			"0.005": 3.0728175774,
			"0.006": 2.72197700049,
			"0.007": 2.84423230693,
			"0.008": 2.21698534226,
			"0.009": 2.05904825904,
			"0.01": 3.16535481921,
			"0.011": 5.67159758458,
			"0.012": 2.76690887287,
			"0.013": 4.51190682512,
			"0.014": 4.91363328868,
			"0.015": 0.735989072215,
			"0.016": 0.0,
			"0.017": 0.0,
			"0.018": 0.0,
			"0.019": 0.0,
			"0.02": 0.0,
			"0.021": 0.0,
			"0.022": 0.0,
			"0.023": 0.0,
			"0.024": 0.0,
			"0.025": 0.0
		}
	}
}
