{
	 "smiles": "CC1=C(C=CC(C=O)=C1)[N+]([O-])=O", 
	 "Tm": 339.15, 
	 "num_atms": 19, 
	 "gaussian": { 
		 "optdone": 1, 
		 "sigma_profile": "yes", 
		 "theory": "DFT", 
		 "functional": "B3LYP", 
		 "basiset": "6-31G**", 
		 "properties": { 
			 "R2extent": 2831.4792, 
			 "electric_dipole_moment_norm": 2.77527832478, 
			 "electric_quadrupole_moment_norm": 15.0362614782, 
			 "total_energy": -589.384962735, 
			 "HOMO_LUMO_gap": 0.1653, 
			 "cosmo_polarized_energy": -10.75, 
			 "cosmo_cavitation_energy": 24.21, 
			 "cosmo_dispersion_energy": -17.6, 
			 "cosmo_repulsion_energy": 1.38, 
			 "cosmo_total_nonelectrostatic_energy": 8.0, 
			 "SMD_solvation_energy": 7.4 
		},
		"coords": [
			{
				"x": 0.5492441172,
				"y": 2.6046111643,
				"z": -0.5046468108,
				"element": "C" 
			},
			{
				"x": -0.4447761142,
				"y": 1.4695987364,
				"z": -0.4708608803,
				"element": "C" 
			},
			{
				"x": -0.9179979295,
				"y": 0.8277877288,
				"z": 0.6907628618,
				"element": "C" 
			},
			{
				"x": -1.8311548795,
				"y": -0.233491095,
				"z": 0.6542837416,
				"element": "C" 
			},
			{
				"x": -2.3177303095,
				"y": -0.6825183611,
				"z": -0.562126044,
				"element": "C" 
			},
			{
				"x": -1.871749894,
				"y": -0.0725982343,
				"z": -1.7424393783,
				"element": "C" 
			},
			{
				"x": -2.3722378056,
				"y": -0.5394556229,
				"z": -3.0616343252,
				"element": "C" 
			},
			{
				"x": -3.1728264809,
				"y": -1.4413304868,
				"z": -3.2046966378,
				"element": "O" 
			},
			{
				"x": -0.9501257497,
				"y": 0.9750072781,
				"z": -1.6823840743,
				"element": "C" 
			},
			{
				"x": -0.4698924439,
				"y": 1.2427330695,
				"z": 2.0360903986,
				"element": "N" 
			},
			{
				"x": -0.6610694268,
				"y": 0.4588662833,
				"z": 2.9646186015,
				"element": "O" 
			},
			{
				"x": 0.0584416028,
				"y": 2.3477281832,
				"z": 2.1581571061,
				"element": "O" 
			},
			{
				"x": 1.4399341936,
				"y": 2.3854744774,
				"z": 0.0886718327,
				"element": "H" 
			},
			{
				"x": 0.1211568165,
				"y": 3.5188622006,
				"z": -0.0860523103,
				"element": "H" 
			},
			{
				"x": 0.8512656043,
				"y": 2.7965083633,
				"z": -1.5373934831,
				"element": "H" 
			},
			{
				"x": -2.1373639595,
				"y": -0.682453641,
				"z": 1.590467904,
				"element": "H" 
			},
			{
				"x": -3.03246917,
				"y": -1.4959919464,
				"z": -0.6233845834,
				"element": "H" 
			},
			{
				"x": -1.9560041505,
				"y": 0.0045363205,
				"z": -3.9375188875,
				"element": "H" 
			},
			{
				"x": -0.6077440209,
				"y": 1.4293255822,
				"z": -2.6094150313,
				"element": "H" 
			}
		],
		 "valence_orbital": [ 
			{
				"type": "occ",
				"energy": -0.31468,
				"method": "rhf"
			},
			{
				"type": "occ",
				"energy": -0.30267,
				"method": "rhf"
			},
			{
				"type": "occ",
				"energy": -0.28899,
				"method": "rhf"
			},
			{
				"type": "occ",
				"energy": -0.28134,
				"method": "rhf"
			},
			{
				"type": "occ",
				"energy": -0.27478,
				"method": "rhf"
			},
			{
				"type": "unocc",
				"energy": -0.10948,
				"method": "rhf"
			},
			{
				"type": "unocc",
				"energy": -0.05528,
				"method": "rhf"
			},
			{
				"type": "unocc",
				"energy": -0.03603,
				"method": "rhf"
			},
			{
				"type": "unocc",
				"energy": 0.02365,
				"method": "rhf"
			},
			{
				"type": "unocc",
				"energy": 0.0829,
				"method": "rhf"
			}
		],
		"cosmo_sigma_profile": { 
			"-0.025": 0.0,
			"-0.024": 0.0,
			"-0.023": 0.0,
			"-0.022": 0.0,
			"-0.021": 0.0,
			"-0.02": 0.0,
			"-0.019": 0.0,
			"-0.018": 0.0,
			"-0.017": 0.0,
			"-0.016": 0.0,
			"-0.015": 0.0,
			"-0.014": 0.0,
			"-0.013": 0.0,
			"-0.012": 0.0,
			"-0.011": 0.0,
			"-0.01": 0.00995670096921,
			"-0.009": 1.44162673891,
			"-0.008": 5.03512193238,
			"-0.007": 11.1987869324,
			"-0.006": 10.0106268113,
			"-0.005": 12.508170468,
			"-0.004": 13.9703228623,
			"-0.003": 13.5588429359,
			"-0.002": 16.5857683319,
			"-0.001": 20.6072769123,
			"0.0": 19.4842855447,
			"0.001": 11.3591798178,
			"0.002": 6.04853531425,
			"0.003": 3.95219150261,
			"0.004": 3.77557791611,
			"0.005": 5.20658253457,
			"0.006": 5.3440538483,
			"0.007": 8.9130904149,
			"0.008": 7.78271531781,
			"0.009": 6.83726421881,
			"0.01": 5.62067442352,
			"0.011": 3.55576423433,
			"0.012": 1.12326334361,
			"0.013": 0.0331718553418,
			"0.014": 0.0,
			"0.015": 0.0,
			"0.016": 0.0,
			"0.017": 0.0,
			"0.018": 0.0,
			"0.019": 0.0,
			"0.02": 0.0,
			"0.021": 0.0,
			"0.022": 0.0,
			"0.023": 0.0,
			"0.024": 0.0,
			"0.025": 0.0
		}
	}
}
