{
	 "smiles": "CC(C)C1=NOC(=C1)C(O)=O", 
	 "Tm": 348.15, 
	 "num_atms": 20, 
	 "gaussian": { 
		 "optdone": 1, 
		 "sigma_profile": "yes", 
		 "theory": "DFT", 
		 "functional": "B3LYP", 
		 "basiset": "6-31G**", 
		 "properties": { 
			 "R2extent": 3189.4459, 
			 "electric_dipole_moment_norm": 1.63505502354, 
			 "electric_quadrupole_moment_norm": 10.9950529066, 
			 "total_energy": -552.559193346, 
			 "HOMO_LUMO_gap": 0.21182, 
			 "cosmo_polarized_energy": -11.74, 
			 "cosmo_cavitation_energy": 24.88, 
			 "cosmo_dispersion_energy": -17.76, 
			 "cosmo_repulsion_energy": 1.46, 
			 "cosmo_total_nonelectrostatic_energy": 8.57, 
			 "SMD_solvation_energy": 5.75 
		},
		"coords": [
			{
				"x": 1.2762793434,
				"y": 0.5492926328,
				"z": -0.8604703587,
				"element": "C" 
			},
			{
				"x": 1.6128557029,
				"y": -0.1031337925,
				"z": 0.4929083873,
				"element": "C" 
			},
			{
				"x": 1.8702908303,
				"y": 0.9549931418,
				"z": 1.5813451206,
				"element": "C" 
			},
			{
				"x": 0.529836756,
				"y": -1.0625239798,
				"z": 0.9158517634,
				"element": "C" 
			},
			{
				"x": 0.8053555082,
				"y": -2.3444962651,
				"z": 1.0623725162,
				"element": "N" 
			},
			{
				"x": -0.379576325,
				"y": -2.9608682811,
				"z": 1.4529950489,
				"element": "O" 
			},
			{
				"x": -1.3461973445,
				"y": -2.0220371128,
				"z": 1.5317568071,
				"element": "C" 
			},
			{
				"x": -0.8416023058,
				"y": -0.798626578,
				"z": 1.2053937645,
				"element": "C" 
			},
			{
				"x": -2.7170849702,
				"y": -2.3979663066,
				"z": 1.9276727963,
				"element": "C" 
			},
			{
				"x": -2.8477574553,
				"y": -3.714664038,
				"z": 2.1787459724,
				"element": "O" 
			},
			{
				"x": -3.622100192,
				"y": -1.5941849137,
				"z": 2.0138705373,
				"element": "O" 
			},
			{
				"x": 0.3668449583,
				"y": 1.1569528775,
				"z": -0.7933954152,
				"element": "H" 
			},
			{
				"x": 1.12243826,
				"y": -0.2045500748,
				"z": -1.6381585472,
				"element": "H" 
			},
			{
				"x": 2.0923128404,
				"y": 1.2060581847,
				"z": -1.1785253382,
				"element": "H" 
			},
			{
				"x": 2.5206754659,
				"y": -0.7053352141,
				"z": 0.3721280262,
				"element": "H" 
			},
			{
				"x": 2.1379022344,
				"y": 0.4886611701,
				"z": 2.534059897,
				"element": "H" 
			},
			{
				"x": 2.6906654663,
				"y": 1.6152558287,
				"z": 1.2822686043,
				"element": "H" 
			},
			{
				"x": 0.9844744486,
				"y": 1.5785535023,
				"z": 1.7466526479,
				"element": "H" 
			},
			{
				"x": -1.3770932815,
				"y": 0.1372672515,
				"z": 1.1797742196,
				"element": "H" 
			},
			{
				"x": -3.7773199404,
				"y": -3.8514480327,
				"z": 2.4275535505,
				"element": "H" 
			}
		],
		 "valence_orbital": [ 
			{
				"type": "occ",
				"energy": -0.33432,
				"method": "rhf"
			},
			{
				"type": "occ",
				"energy": -0.31906,
				"method": "rhf"
			},
			{
				"type": "occ",
				"energy": -0.29567,
				"method": "rhf"
			},
			{
				"type": "occ",
				"energy": -0.29153,
				"method": "rhf"
			},
			{
				"type": "occ",
				"energy": -0.27645,
				"method": "rhf"
			},
			{
				"type": "unocc",
				"energy": -0.06463,
				"method": "rhf"
			},
			{
				"type": "unocc",
				"energy": 0.02416,
				"method": "rhf"
			},
			{
				"type": "unocc",
				"energy": 0.06796,
				"method": "rhf"
			},
			{
				"type": "unocc",
				"energy": 0.08223,
				"method": "rhf"
			},
			{
				"type": "unocc",
				"energy": 0.09275,
				"method": "rhf"
			}
		],
		"cosmo_sigma_profile": { 
			"-0.025": 0.0,
			"-0.024": 0.0,
			"-0.023": 0.0,
			"-0.022": 0.0,
			"-0.021": 0.0,
			"-0.02": 0.0619530993316,
			"-0.019": 1.06850855422,
			"-0.018": 0.726485157024,
			"-0.017": 0.792916683756,
			"-0.016": 1.17433187896,
			"-0.015": 0.75032823371,
			"-0.014": 0.288711309831,
			"-0.013": 0.740728266671,
			"-0.012": 0.725771795143,
			"-0.011": 1.01538755504,
			"-0.01": 0.493722271921,
			"-0.009": 1.94063102876,
			"-0.008": 2.84142842692,
			"-0.007": 2.04891914261,
			"-0.006": 3.21272666625,
			"-0.005": 5.63379108878,
			"-0.004": 14.4304062396,
			"-0.003": 22.1311756059,
			"-0.002": 20.852490743,
			"-0.001": 23.3516231705,
			"0.0": 24.2708601911,
			"0.001": 13.1310700293,
			"0.002": 3.26270361344,
			"0.003": 4.37107073036,
			"0.004": 4.95110082483,
			"0.005": 4.39013923635,
			"0.006": 4.6996030301,
			"0.007": 8.03397632485,
			"0.008": 5.59995852388,
			"0.009": 6.0401710852,
			"0.01": 4.5646805619,
			"0.011": 5.99568806601,
			"0.012": 1.38338997036,
			"0.013": 1.19462560171,
			"0.014": 0.351013254617,
			"0.015": 0.0,
			"0.016": 0.0,
			"0.017": 0.0,
			"0.018": 0.0,
			"0.019": 0.0,
			"0.02": 0.0,
			"0.021": 0.0,
			"0.022": 0.0,
			"0.023": 0.0,
			"0.024": 0.0,
			"0.025": 0.0
		}
	}
}
