{
	 "smiles": "ClC1=C2C=C(I)C=CC2=NC=N1", 
	 "Tm": 447.15, 
	 "num_atms": 16, 
	 "gaussian": { 
		 "optdone": 1, 
		 "sigma_profile": "yes", 
		 "theory": "DFT", 
		 "functional": "B3LYP", 
		 "basiset": "6-31G**", 
		 "properties": { 
			 "R2extent": 3147.7299, 
			 "electric_dipole_moment_norm": 1.85602874978, 
			 "electric_quadrupole_moment_norm": 4.1036838231, 
			 "total_energy": -888.343590131, 
			 "HOMO_LUMO_gap": 0.16524, 
			 "cosmo_polarized_energy": -6.68, 
			 "cosmo_cavitation_energy": 25.69, 
			 "cosmo_dispersion_energy": -20.81, 
			 "cosmo_repulsion_energy": 1.6, 
			 "cosmo_total_nonelectrostatic_energy": 6.48, 
			 "SMD_solvation_energy": 0.28 
		},
		"coords": [
			{
				"x": -1.6586490576,
				"y": 3.4105630563,
				"z": -2.0533464948,
				"element": "Cl" 
			},
			{
				"x": -0.8401221852,
				"y": 2.7265771254,
				"z": -0.6548481654,
				"element": "C" 
			},
			{
				"x": -0.9564389877,
				"y": 1.3297459891,
				"z": -0.3886559096,
				"element": "C" 
			},
			{
				"x": -1.69162233,
				"y": 0.4001716185,
				"z": -1.1643618529,
				"element": "C" 
			},
			{
				"x": -1.7120004157,
				"y": -0.9232508779,
				"z": -0.7821906559,
				"element": "C" 
			},
			{
				"x": -2.8036329446,
				"y": -2.330650298,
				"z": -1.9252435636,
				"element": "I" 
			},
			{
				"x": -1.0139791759,
				"y": -1.3714607776,
				"z": 0.3682930503,
				"element": "C" 
			},
			{
				"x": -0.2966992794,
				"y": -0.4766051695,
				"z": 1.1290257666,
				"element": "C" 
			},
			{
				"x": -0.2475404954,
				"y": 0.8951456079,
				"z": 0.7735272636,
				"element": "C" 
			},
			{
				"x": 0.4719460409,
				"y": 1.7585028783,
				"z": 1.5472219585,
				"element": "N" 
			},
			{
				"x": 0.4790703208,
				"y": 3.0137773762,
				"z": 1.1669452707,
				"element": "C" 
			},
			{
				"x": -0.1538034804,
				"y": 3.5486275705,
				"z": 0.0837359601,
				"element": "N" 
			},
			{
				"x": -2.2242129329,
				"y": 0.7429266185,
				"z": -2.0423705523,
				"element": "H" 
			},
			{
				"x": -1.0481936476,
				"y": -2.4192694488,
				"z": 0.6445915579,
				"element": "H" 
			},
			{
				"x": 0.2463017324,
				"y": -0.7915742852,
				"z": 2.0135955244,
				"element": "H" 
			},
			{
				"x": 1.0458768382,
				"y": 3.7199730162,
				"z": 1.7686808423,
				"element": "H" 
			}
		],
		 "valence_orbital": [ 
			{
				"type": "occ",
				"energy": -0.30482,
				"method": "rhf"
			},
			{
				"type": "occ",
				"energy": -0.28266,
				"method": "rhf"
			},
			{
				"type": "occ",
				"energy": -0.28252,
				"method": "rhf"
			},
			{
				"type": "occ",
				"energy": -0.27461,
				"method": "rhf"
			},
			{
				"type": "occ",
				"energy": -0.25196,
				"method": "rhf"
			},
			{
				"type": "unocc",
				"energy": -0.08672,
				"method": "rhf"
			},
			{
				"type": "unocc",
				"energy": -0.05443,
				"method": "rhf"
			},
			{
				"type": "unocc",
				"energy": -0.05345,
				"method": "rhf"
			},
			{
				"type": "unocc",
				"energy": -0.00859,
				"method": "rhf"
			},
			{
				"type": "unocc",
				"energy": 0.01895,
				"method": "rhf"
			}
		],
		"cosmo_sigma_profile": { 
			"-0.025": 0.0,
			"-0.024": 0.0,
			"-0.023": 0.0,
			"-0.022": 0.0,
			"-0.021": 0.0,
			"-0.02": 0.0,
			"-0.019": 0.0,
			"-0.018": 0.0,
			"-0.017": 0.0,
			"-0.016": 0.0,
			"-0.015": 0.0,
			"-0.014": 0.0,
			"-0.013": 0.0,
			"-0.012": 0.0,
			"-0.011": 0.0,
			"-0.01": 0.0,
			"-0.009": 0.306966403701,
			"-0.008": 4.69622404008,
			"-0.007": 8.68337831999,
			"-0.006": 7.713599866,
			"-0.005": 8.92194196657,
			"-0.004": 12.4359314763,
			"-0.003": 16.0975897257,
			"-0.002": 18.7171577478,
			"-0.001": 20.8303815347,
			"0.0": 23.0742077958,
			"0.001": 24.6399894715,
			"0.002": 14.9620814522,
			"0.003": 18.6347037116,
			"0.004": 15.7379074794,
			"0.005": 3.99201841741,
			"0.006": 2.47053299535,
			"0.007": 2.59401716282,
			"0.008": 1.84070461807,
			"0.009": 1.92747474722,
			"0.01": 1.69705735577,
			"0.011": 2.16047732955,
			"0.012": 1.63286695995,
			"0.013": 1.16999626032,
			"0.014": 0.706747020302,
			"0.015": 0.116138054792,
			"0.016": 0.0,
			"0.017": 0.0,
			"0.018": 0.0,
			"0.019": 0.0,
			"0.02": 0.0,
			"0.021": 0.0,
			"0.022": 0.0,
			"0.023": 0.0,
			"0.024": 0.0,
			"0.025": 0.0
		}
	}
}
