{
	 "smiles": "ClC1=CC=CC2=CC3=C(Cl)C=CC=C3C=C12", 
	 "Tm": 462.15, 
	 "num_atms": 24, 
	 "gaussian": { 
		 "optdone": 1, 
		 "sigma_profile": "yes", 
		 "theory": "DFT", 
		 "functional": "B3LYP", 
		 "basiset": "6-31G**", 
		 "properties": { 
			 "R2extent": 6043.5234, 
			 "electric_dipole_moment_norm": 0.0, 
			 "electric_quadrupole_moment_norm": 14.8573373479, 
			 "total_energy": -1458.71437741, 
			 "HOMO_LUMO_gap": 0.12807, 
			 "cosmo_polarized_energy": -5.52, 
			 "cosmo_cavitation_energy": 31.14, 
			 "cosmo_dispersion_energy": -23.46, 
			 "cosmo_repulsion_energy": 1.77, 
			 "cosmo_total_nonelectrostatic_energy": 9.44, 
			 "SMD_solvation_energy": 4.15 
		},
		"coords": [
			{
				"x": 1.4519862629,
				"y": 2.6509525706,
				"z": 1.7964096002,
				"element": "Cl" 
			},
			{
				"x": -0.1062910796,
				"y": 2.3415626623,
				"z": 1.0369526485,
				"element": "C" 
			},
			{
				"x": -0.7668853707,
				"y": 3.3866822017,
				"z": 0.4488166949,
				"element": "C" 
			},
			{
				"x": -2.0286872162,
				"y": 3.170916725,
				"z": -0.1740949265,
				"element": "C" 
			},
			{
				"x": -2.5926463456,
				"y": 1.9241461368,
				"z": -0.1922474421,
				"element": "C" 
			},
			{
				"x": -1.9286952517,
				"y": 0.813136297,
				"z": 0.4126016161,
				"element": "C" 
			},
			{
				"x": -2.4963659716,
				"y": -0.4676745219,
				"z": 0.4002160903,
				"element": "C" 
			},
			{
				"x": -1.8592084704,
				"y": -1.5649131887,
				"z": 0.9877316346,
				"element": "C" 
			},
			{
				"x": -2.3982421607,
				"y": -2.8951230837,
				"z": 1.0017874363,
				"element": "C" 
			},
			{
				"x": -3.9565196788,
				"y": -3.2045126992,
				"z": 0.2423329324,
				"element": "Cl" 
			},
			{
				"x": -1.7376479364,
				"y": -3.9402402497,
				"z": 1.5899255271,
				"element": "C" 
			},
			{
				"x": -0.4758452802,
				"y": -3.7244739722,
				"z": 2.212838161,
				"element": "C" 
			},
			{
				"x": 0.0881136469,
				"y": -2.4777040865,
				"z": 2.2309882641,
				"element": "C" 
			},
			{
				"x": -0.5758385034,
				"y": -1.3666942131,
				"z": 1.6261381657,
				"element": "C" 
			},
			{
				"x": -0.0081679924,
				"y": -0.0858846827,
				"z": 1.6385244717,
				"element": "C" 
			},
			{
				"x": -0.6453254222,
				"y": 1.0113543615,
				"z": 1.051007961,
				"element": "C" 
			},
			{
				"x": -0.326842721,
				"y": 4.3775551087,
				"z": 0.4588535939,
				"element": "H" 
			},
			{
				"x": -2.5364133063,
				"y": 4.0126184147,
				"z": -0.6348156243,
				"element": "H" 
			},
			{
				"x": -3.5552635319,
				"y": 1.7570371667,
				"z": -0.6668946967,
				"element": "H" 
			},
			{
				"x": -3.458465413,
				"y": -0.6066969876,
				"z": -0.0805181663,
				"element": "H" 
			},
			{
				"x": -2.1776890285,
				"y": -4.9311137667,
				"z": 1.5798919849,
				"element": "H" 
			},
			{
				"x": 0.0318787912,
				"y": -4.5661758684,
				"z": 2.6735607977,
				"element": "H" 
			},
			{
				"x": 1.0507303303,
				"y": -2.3105928067,
				"z": 2.7056352537,
				"element": "H" 
			},
			{
				"x": 0.9539316493,
				"y": 0.0531384818,
				"z": 2.1192580221,
				"element": "H" 
			}
		],
		 "valence_orbital": [ 
			{
				"type": "occ",
				"energy": -0.31243,
				"method": "rhf"
			},
			{
				"type": "occ",
				"energy": -0.29129,
				"method": "rhf"
			},
			{
				"type": "occ",
				"energy": -0.25523,
				"method": "rhf"
			},
			{
				"type": "occ",
				"energy": -0.25438,
				"method": "rhf"
			},
			{
				"type": "occ",
				"energy": -0.2055,
				"method": "rhf"
			},
			{
				"type": "unocc",
				"energy": -0.07743,
				"method": "rhf"
			},
			{
				"type": "unocc",
				"energy": -0.02854,
				"method": "rhf"
			},
			{
				"type": "unocc",
				"energy": -0.00894,
				"method": "rhf"
			},
			{
				"type": "unocc",
				"energy": 0.02755,
				"method": "rhf"
			},
			{
				"type": "unocc",
				"energy": 0.0303,
				"method": "rhf"
			}
		],
		"cosmo_sigma_profile": { 
			"-0.025": 0.0,
			"-0.024": 0.0,
			"-0.023": 0.0,
			"-0.022": 0.0,
			"-0.021": 0.0,
			"-0.02": 0.0,
			"-0.019": 0.0,
			"-0.018": 0.0,
			"-0.017": 0.0,
			"-0.016": 0.0,
			"-0.015": 0.0,
			"-0.014": 0.0,
			"-0.013": 0.0,
			"-0.012": 0.0,
			"-0.011": 0.0,
			"-0.01": 0.0,
			"-0.009": 0.0,
			"-0.008": 0.682560923868,
			"-0.007": 10.4384536113,
			"-0.006": 15.8129121669,
			"-0.005": 14.6192058026,
			"-0.004": 12.2077861989,
			"-0.003": 10.7749707663,
			"-0.002": 12.5771758704,
			"-0.001": 14.673705252,
			"0.0": 17.0442549354,
			"0.001": 31.095756338,
			"0.002": 51.4106165261,
			"0.003": 35.182083893,
			"0.004": 21.374967212,
			"0.005": 8.03550946225,
			"0.006": 0.0,
			"0.007": 0.0,
			"0.008": 0.0,
			"0.009": 0.0,
			"0.01": 0.0,
			"0.011": 0.0,
			"0.012": 0.0,
			"0.013": 0.0,
			"0.014": 0.0,
			"0.015": 0.0,
			"0.016": 0.0,
			"0.017": 0.0,
			"0.018": 0.0,
			"0.019": 0.0,
			"0.02": 0.0,
			"0.021": 0.0,
			"0.022": 0.0,
			"0.023": 0.0,
			"0.024": 0.0,
			"0.025": 0.0
		}
	}
}
