{
	 "smiles": "CS(=O)CC1=C(SC2=C1C=CC=C2)C(O)=O", 
	 "Tm": 457.15, 
	 "num_atms": 26, 
	 "gaussian": { 
		 "optdone": 1, 
		 "sigma_profile": "yes", 
		 "theory": "DFT", 
		 "functional": "B3LYP", 
		 "basiset": "6-31G**", 
		 "properties": { 
			 "R2extent": 4394.3271, 
			 "electric_dipole_moment_norm": 3.66708299742, 
			 "electric_quadrupole_moment_norm": 14.2849572386, 
			 "total_energy": -1447.21100365, 
			 "HOMO_LUMO_gap": 0.14455, 
			 "cosmo_polarized_energy": -17.33, 
			 "cosmo_cavitation_energy": 31.84, 
			 "cosmo_dispersion_energy": -24.0, 
			 "cosmo_repulsion_energy": 1.74, 
			 "cosmo_total_nonelectrostatic_energy": 9.58, 
			 "SMD_solvation_energy": 5.65 
		},
		"coords": [
			{
				"x": -0.5330019577,
				"y": 2.0931246476,
				"z": 1.1746854076,
				"element": "C" 
			},
			{
				"x": 0.591439643,
				"y": 0.9637954567,
				"z": 2.0704614746,
				"element": "S" 
			},
			{
				"x": 1.9532689272,
				"y": 1.0373331913,
				"z": 1.4113496813,
				"element": "O" 
			},
			{
				"x": -0.2288778145,
				"y": -0.6555665315,
				"z": 1.5769456413,
				"element": "C" 
			},
			{
				"x": -0.56983828,
				"y": -0.8424761114,
				"z": 0.1361418819,
				"element": "C" 
			},
			{
				"x": -1.8516661441,
				"y": -0.8241830525,
				"z": -0.3708528313,
				"element": "C" 
			},
			{
				"x": -1.907897503,
				"y": -1.1678129009,
				"z": -2.1040921972,
				"element": "S" 
			},
			{
				"x": -0.1680370491,
				"y": -1.365357812,
				"z": -2.1549665236,
				"element": "C" 
			},
			{
				"x": 0.4145190102,
				"y": -1.1359285578,
				"z": -0.8843174974,
				"element": "C" 
			},
			{
				"x": 1.8172023433,
				"y": -1.2083975085,
				"z": -0.7578001046,
				"element": "C" 
			},
			{
				"x": 2.583209442,
				"y": -1.5185056416,
				"z": -1.8716512941,
				"element": "C" 
			},
			{
				"x": 1.9824887283,
				"y": -1.753007726,
				"z": -3.1223966527,
				"element": "C" 
			},
			{
				"x": 0.6040241691,
				"y": -1.6702098023,
				"z": -3.2801653899,
				"element": "C" 
			},
			{
				"x": -3.1018283499,
				"y": -0.5969952751,
				"z": 0.3871377264,
				"element": "C" 
			},
			{
				"x": -4.2460025196,
				"y": -1.0731395303,
				"z": -0.1650622938,
				"element": "O" 
			},
			{
				"x": -3.1517037649,
				"y": -0.0102165828,
				"z": 1.4501701203,
				"element": "O" 
			},
			{
				"x": -1.562174433,
				"y": 1.8702598132,
				"z": 1.4657890596,
				"element": "H" 
			},
			{
				"x": -0.2532938022,
				"y": 3.1079275414,
				"z": 1.4633703063,
				"element": "H" 
			},
			{
				"x": -0.3944311898,
				"y": 1.9610919358,
				"z": 0.0995547081,
				"element": "H" 
			},
			{
				"x": -1.1160613538,
				"y": -0.7131730043,
				"z": 2.2086599017,
				"element": "H" 
			},
			{
				"x": 0.5068611721,
				"y": -1.3960663253,
				"z": 1.9045944163,
				"element": "H" 
			},
			{
				"x": 2.2854317152,
				"y": -0.9672477721,
				"z": 0.1899074811,
				"element": "H" 
			},
			{
				"x": 3.6636638619,
				"y": -1.5688696094,
				"z": -1.7804663825,
				"element": "H" 
			},
			{
				"x": 2.6032875828,
				"y": -1.9946858712,
				"z": -3.9800095126,
				"element": "H" 
			},
			{
				"x": 0.1411921558,
				"y": -1.8392514663,
				"z": -4.2471210217,
				"element": "H" 
			},
			{
				"x": -4.0541745895,
				"y": -1.6611415047,
				"z": -0.9115661049,
				"element": "H" 
			}
		],
		 "valence_orbital": [ 
			{
				"type": "occ",
				"energy": -0.29001,
				"method": "rhf"
			},
			{
				"type": "occ",
				"energy": -0.26771,
				"method": "rhf"
			},
			{
				"type": "occ",
				"energy": -0.25599,
				"method": "rhf"
			},
			{
				"type": "occ",
				"energy": -0.24294,
				"method": "rhf"
			},
			{
				"type": "occ",
				"energy": -0.22058,
				"method": "rhf"
			},
			{
				"type": "unocc",
				"energy": -0.07603,
				"method": "rhf"
			},
			{
				"type": "unocc",
				"energy": -0.01952,
				"method": "rhf"
			},
			{
				"type": "unocc",
				"energy": -0.01157,
				"method": "rhf"
			},
			{
				"type": "unocc",
				"energy": -0.00092,
				"method": "rhf"
			},
			{
				"type": "unocc",
				"energy": 0.03146,
				"method": "rhf"
			}
		],
		"cosmo_sigma_profile": { 
			"-0.025": 0.0,
			"-0.024": 0.0,
			"-0.023": 0.0,
			"-0.022": 0.0,
			"-0.021": 0.0,
			"-0.02": 0.0,
			"-0.019": 0.0,
			"-0.018": 0.141427864051,
			"-0.017": 0.625156649866,
			"-0.016": 1.12066569973,
			"-0.015": 0.836430824796,
			"-0.014": 0.837623796071,
			"-0.013": 0.915489498057,
			"-0.012": 0.914834827544,
			"-0.011": 1.10502400056,
			"-0.01": 1.10486718125,
			"-0.009": 0.589537006323,
			"-0.008": 4.26098892745,
			"-0.007": 9.26511895437,
			"-0.006": 15.1914876512,
			"-0.005": 18.6027134124,
			"-0.004": 22.127928623,
			"-0.003": 19.5454893653,
			"-0.002": 19.6380437603,
			"-0.001": 17.2303979952,
			"0.0": 16.74373852,
			"0.001": 15.5861471668,
			"0.002": 16.7275926869,
			"0.003": 16.7906470191,
			"0.004": 13.1382538225,
			"0.005": 5.48721526142,
			"0.006": 4.28552010225,
			"0.007": 2.74667542357,
			"0.008": 4.71868288938,
			"0.009": 4.90232023138,
			"0.01": 5.669894997,
			"0.011": 3.5876254809,
			"0.012": 3.61856207401,
			"0.013": 3.21219203432,
			"0.014": 2.89006130428,
			"0.015": 3.24381113775,
			"0.016": 0.730023637957,
			"0.017": 0.0,
			"0.018": 0.0,
			"0.019": 0.0,
			"0.02": 0.0,
			"0.021": 0.0,
			"0.022": 0.0,
			"0.023": 0.0,
			"0.024": 0.0,
			"0.025": 0.0
		}
	}
}
