{
	 "smiles": "CC(=O)OC[C@H]1OC=C[C@@H](OC(C)=O)[C@@H]1OC(C)=O", 
	 "Tm": 327.15, 
	 "num_atms": 35, 
	 "gaussian": { 
		 "optdone": 1, 
		 "sigma_profile": "yes", 
		 "theory": "DFT", 
		 "functional": "B3LYP", 
		 "basiset": "6-31G**", 
		 "properties": { 
			 "R2extent": 5277.3013, 
			 "electric_dipole_moment_norm": 3.70720872355, 
			 "electric_quadrupole_moment_norm": 11.0085960735, 
			 "total_energy": -993.494459753, 
			 "HOMO_LUMO_gap": 0.22734, 
			 "cosmo_polarized_energy": -18.05, 
			 "cosmo_cavitation_energy": 39.14, 
			 "cosmo_dispersion_energy": -25.67, 
			 "cosmo_repulsion_energy": 2.05, 
			 "cosmo_total_nonelectrostatic_energy": 15.52, 
			 "SMD_solvation_energy": 10.33 
		},
		"coords": [
			{
				"x": 0.9403930555,
				"y": 0.7212653715,
				"z": 4.5228247572,
				"element": "C" 
			},
			{
				"x": 0.4000141768,
				"y": -0.5412507809,
				"z": 3.8999065395,
				"element": "C" 
			},
			{
				"x": -0.3092131259,
				"y": -1.3531701369,
				"z": 4.4465539244,
				"element": "O" 
			},
			{
				"x": 0.8318114722,
				"y": -0.6490250286,
				"z": 2.6107319219,
				"element": "O" 
			},
			{
				"x": 0.304909151,
				"y": -1.7249317432,
				"z": 1.8210563727,
				"element": "C" 
			},
			{
				"x": -0.526690227,
				"y": -1.1646870729,
				"z": 0.6763727378,
				"element": "C" 
			},
			{
				"x": -1.709834804,
				"y": -0.6048471828,
				"z": 1.2566915472,
				"element": "O" 
			},
			{
				"x": -2.4681635139,
				"y": 0.1783608455,
				"z": 0.4370108918,
				"element": "C" 
			},
			{
				"x": -2.0753880106,
				"y": 0.6635228481,
				"z": -0.7426487325,
				"element": "C" 
			},
			{
				"x": -0.6959023254,
				"y": 0.4060197171,
				"z": -1.2804449951,
				"element": "C" 
			},
			{
				"x": -0.1159342573,
				"y": 1.5423083612,
				"z": -1.9681313541,
				"element": "O" 
			},
			{
				"x": 0.1021055582,
				"y": 2.6971468618,
				"z": -1.278434613,
				"element": "C" 
			},
			{
				"x": 0.8579216635,
				"y": 3.6796150522,
				"z": -2.1379049905,
				"element": "C" 
			},
			{
				"x": -0.2412509875,
				"y": 2.8844952046,
				"z": -0.1341795066,
				"element": "O" 
			},
			{
				"x": 0.2218426775,
				"y": -0.1260372432,
				"z": -0.1740105071,
				"element": "C" 
			},
			{
				"x": 1.3421656443,
				"y": -0.8240278144,
				"z": -0.7625141922,
				"element": "O" 
			},
			{
				"x": 2.5007528782,
				"y": -0.1323395529,
				"z": -0.942922004,
				"element": "C" 
			},
			{
				"x": 3.5544197381,
				"y": -1.0278192019,
				"z": -1.5485724468,
				"element": "C" 
			},
			{
				"x": 2.6511994935,
				"y": 1.0323891326,
				"z": -0.6542905514,
				"element": "O" 
			},
			{
				"x": 0.4980130558,
				"y": 1.5904489915,
				"z": 4.0260882372,
				"element": "H" 
			},
			{
				"x": 0.6934220116,
				"y": 0.7372143504,
				"z": 5.5837976642,
				"element": "H" 
			},
			{
				"x": 2.0228958917,
				"y": 0.7824862316,
				"z": 4.3823666079,
				"element": "H" 
			},
			{
				"x": -0.3105438578,
				"y": -2.3720575498,
				"z": 2.4488195226,
				"element": "H" 
			},
			{
				"x": 1.1521302322,
				"y": -2.2859682443,
				"z": 1.4196185073,
				"element": "H" 
			},
			{
				"x": -0.8203833027,
				"y": -2.0054754041,
				"z": 0.0278708293,
				"element": "H" 
			},
			{
				"x": -3.4453077124,
				"y": 0.365003096,
				"z": 0.8695951082,
				"element": "H" 
			},
			{
				"x": -2.7555696703,
				"y": 1.2667850792,
				"z": -1.3324899128,
				"element": "H" 
			},
			{
				"x": -0.7256511484,
				"y": -0.3423128453,
				"z": -2.0815489543,
				"element": "H" 
			},
			{
				"x": 0.761193482,
				"y": 4.6801732592,
				"z": -1.7163856603,
				"element": "H" 
			},
			{
				"x": 1.9133019034,
				"y": 3.387890586,
				"z": -2.131880578,
				"element": "H" 
			},
			{
				"x": 0.5049701197,
				"y": 3.6586129173,
				"z": -3.1713021042,
				"element": "H" 
			},
			{
				"x": 0.5784261632,
				"y": 0.6893117616,
				"z": 0.4531766053,
				"element": "H" 
			},
			{
				"x": 4.4779040605,
				"y": -0.464343631,
				"z": -1.6763788205,
				"element": "H" 
			},
			{
				"x": 3.7309067015,
				"y": -1.8934747241,
				"z": -0.9035043615,
				"element": "H" 
			},
			{
				"x": 3.2112338131,
				"y": -1.4061815109,
				"z": -2.5160374896,
				"element": "H" 
			}
		],
		 "valence_orbital": [ 
			{
				"type": "occ",
				"energy": -0.28857,
				"method": "rhf"
			},
			{
				"type": "occ",
				"energy": -0.28076,
				"method": "rhf"
			},
			{
				"type": "occ",
				"energy": -0.27152,
				"method": "rhf"
			},
			{
				"type": "occ",
				"energy": -0.2682,
				"method": "rhf"
			},
			{
				"type": "occ",
				"energy": -0.22648,
				"method": "rhf"
			},
			{
				"type": "unocc",
				"energy": 0.00086,
				"method": "rhf"
			},
			{
				"type": "unocc",
				"energy": 0.01453,
				"method": "rhf"
			},
			{
				"type": "unocc",
				"energy": 0.01804,
				"method": "rhf"
			},
			{
				"type": "unocc",
				"energy": 0.01996,
				"method": "rhf"
			},
			{
				"type": "unocc",
				"energy": 0.07974,
				"method": "rhf"
			}
		],
		"cosmo_sigma_profile": { 
			"-0.025": 0.0,
			"-0.024": 0.0,
			"-0.023": 0.0,
			"-0.022": 0.0,
			"-0.021": 0.0,
			"-0.02": 0.0,
			"-0.019": 0.0,
			"-0.018": 0.0,
			"-0.017": 0.0,
			"-0.016": 0.0,
			"-0.015": 0.0,
			"-0.014": 0.0,
			"-0.013": 0.0,
			"-0.012": 0.0,
			"-0.011": 0.0,
			"-0.01": 0.0,
			"-0.009": 0.104268398324,
			"-0.008": 2.6194167517,
			"-0.007": 12.8957278637,
			"-0.006": 23.7587596544,
			"-0.005": 27.849319405,
			"-0.004": 27.9079386051,
			"-0.003": 28.2601039875,
			"-0.002": 33.8421724198,
			"-0.001": 22.0475124205,
			"0.0": 13.4564596982,
			"0.001": 13.8192423109,
			"0.002": 12.1661060013,
			"0.003": 13.0089622044,
			"0.004": 10.9844092429,
			"0.005": 9.29439016602,
			"0.006": 9.88860920025,
			"0.007": 8.17416488888,
			"0.008": 6.50793003541,
			"0.009": 6.29230731286,
			"0.01": 6.66854150663,
			"0.011": 9.39546458207,
			"0.012": 8.00696118287,
			"0.013": 1.68781739637,
			"0.014": 0.00211847204937,
			"0.015": 0.0,
			"0.016": 0.0,
			"0.017": 0.0,
			"0.018": 0.0,
			"0.019": 0.0,
			"0.02": 0.0,
			"0.021": 0.0,
			"0.022": 0.0,
			"0.023": 0.0,
			"0.024": 0.0,
			"0.025": 0.0
		}
	}
}
