{
	 "smiles": "OC(=O)CC(=O)CC(O)=O", 
	 "Tm": 406.15, 
	 "num_atms": 16, 
	 "gaussian": { 
		 "optdone": 1, 
		 "sigma_profile": "yes", 
		 "theory": "DFT", 
		 "functional": "B3LYP", 
		 "basiset": "6-31G**", 
		 "properties": { 
			 "R2extent": 2180.6865, 
			 "electric_dipole_moment_norm": 3.93192861838, 
			 "electric_quadrupole_moment_norm": 21.8292012692, 
			 "total_energy": -570.285554909, 
			 "HOMO_LUMO_gap": 0.20353, 
			 "cosmo_polarized_energy": -20.4, 
			 "cosmo_cavitation_energy": 21.47, 
			 "cosmo_dispersion_energy": -15.54, 
			 "cosmo_repulsion_energy": 1.31, 
			 "cosmo_total_nonelectrostatic_energy": 7.25, 
			 "SMD_solvation_energy": 6.92 
		},
		"coords": [
			{
				"x": 1.3003123317,
				"y": -2.1490316906,
				"z": 1.3586773845,
				"element": "O" 
			},
			{
				"x": 0.6409862404,
				"y": -1.2861052842,
				"z": 2.1654713491,
				"element": "C" 
			},
			{
				"x": 0.5296714255,
				"y": -1.434258161,
				"z": 3.3562455335,
				"element": "O" 
			},
			{
				"x": 0.0373050397,
				"y": -0.1283581554,
				"z": 1.3753971829,
				"element": "C" 
			},
			{
				"x": 0.8778732382,
				"y": 0.2889226049,
				"z": 0.1764154149,
				"element": "C" 
			},
			{
				"x": 1.6904735782,
				"y": 1.1968625298,
				"z": 0.2925239677,
				"element": "O" 
			},
			{
				"x": 0.6416980891,
				"y": -0.4223026614,
				"z": -1.1406147489,
				"element": "C" 
			},
			{
				"x": 1.7826087702,
				"y": -0.4228494117,
				"z": -2.1755226391,
				"element": "C" 
			},
			{
				"x": 2.6804720309,
				"y": 0.5641670095,
				"z": -2.0828493855,
				"element": "O" 
			},
			{
				"x": 1.8177975562,
				"y": -1.2587005106,
				"z": -3.0450232383,
				"element": "O" 
			},
			{
				"x": 1.6490895655,
				"y": -2.8600769362,
				"z": 1.9235221461,
				"element": "H" 
			},
			{
				"x": -0.0652137841,
				"y": 0.7153908976,
				"z": 2.0586728376,
				"element": "H" 
			},
			{
				"x": -0.9604875674,
				"y": -0.4475451557,
				"z": 1.0499380662,
				"element": "H" 
			},
			{
				"x": -0.2155322817,
				"y": 0.0803499012,
				"z": -1.6151009663,
				"element": "H" 
			},
			{
				"x": 0.3358476872,
				"y": -1.4570395616,
				"z": -0.9778817333,
				"element": "H" 
			},
			{
				"x": 2.5094980806,
				"y": 1.0784745855,
				"z": -1.2608711711,
				"element": "H" 
			}
		],
		 "valence_orbital": [ 
			{
				"type": "occ",
				"energy": -0.3513,
				"method": "rhf"
			},
			{
				"type": "occ",
				"energy": -0.31582,
				"method": "rhf"
			},
			{
				"type": "occ",
				"energy": -0.30868,
				"method": "rhf"
			},
			{
				"type": "occ",
				"energy": -0.29671,
				"method": "rhf"
			},
			{
				"type": "occ",
				"energy": -0.26928,
				"method": "rhf"
			},
			{
				"type": "unocc",
				"energy": -0.06575,
				"method": "rhf"
			},
			{
				"type": "unocc",
				"energy": -0.02157,
				"method": "rhf"
			},
			{
				"type": "unocc",
				"energy": 0.00988,
				"method": "rhf"
			},
			{
				"type": "unocc",
				"energy": 0.04791,
				"method": "rhf"
			},
			{
				"type": "unocc",
				"energy": 0.08468,
				"method": "rhf"
			}
		],
		"cosmo_sigma_profile": { 
			"-0.025": 0.0,
			"-0.024": 0.0,
			"-0.023": 0.0,
			"-0.022": 0.0,
			"-0.021": 0.0,
			"-0.02": 0.0,
			"-0.019": 0.68489228261,
			"-0.018": 1.15452399012,
			"-0.017": 0.750567742178,
			"-0.016": 0.749194281991,
			"-0.015": 0.694009276148,
			"-0.014": 0.365238348339,
			"-0.013": 1.49619740845,
			"-0.012": 0.967370694468,
			"-0.011": 2.65597945177,
			"-0.01": 7.56079868657,
			"-0.009": 7.43478352245,
			"-0.008": 7.96757000884,
			"-0.007": 8.46846107135,
			"-0.006": 8.50918746265,
			"-0.005": 8.55797822793,
			"-0.004": 8.6694298563,
			"-0.003": 7.61427371467,
			"-0.002": 5.97967358492,
			"-0.001": 6.1598932573,
			"0.0": 6.15855604568,
			"0.001": 5.59477401629,
			"0.002": 5.73220009254,
			"0.003": 5.53870065845,
			"0.004": 5.17717005933,
			"0.005": 5.52491913371,
			"0.006": 4.40586382338,
			"0.007": 4.19867085078,
			"0.008": 5.73422346905,
			"0.009": 6.91231700865,
			"0.01": 9.52633610453,
			"0.011": 9.9792275076,
			"0.012": 6.9937311594,
			"0.013": 2.26658863318,
			"0.014": 0.123349967372,
			"0.015": 0.0,
			"0.016": 0.0,
			"0.017": 0.0,
			"0.018": 0.0,
			"0.019": 0.0,
			"0.02": 0.0,
			"0.021": 0.0,
			"0.022": 0.0,
			"0.023": 0.0,
			"0.024": 0.0,
			"0.025": 0.0
		}
	}
}
