{
	 "smiles": "COC1=CC2=C(C=C1)N=C(O)C(=C2)C(O)=O", 
	 "Tm": 583.15, 
	 "num_atms": 25, 
	 "gaussian": { 
		 "optdone": 1, 
		 "sigma_profile": "yes", 
		 "theory": "DFT", 
		 "functional": "B3LYP", 
		 "basiset": "6-31G**", 
		 "properties": { 
			 "R2extent": 4775.541, 
			 "electric_dipole_moment_norm": 4.65828600346, 
			 "electric_quadrupole_moment_norm": 27.9941592183, 
			 "total_energy": -780.261645271, 
			 "HOMO_LUMO_gap": 0.15271, 
			 "cosmo_polarized_energy": -15.6, 
			 "cosmo_cavitation_energy": 29.69, 
			 "cosmo_dispersion_energy": -22.44, 
			 "cosmo_repulsion_energy": 1.72, 
			 "cosmo_total_nonelectrostatic_energy": 8.97, 
			 "SMD_solvation_energy": 5.81 
		},
		"coords": [
			{
				"x": 0.9048078688,
				"y": 4.4198042847,
				"z": 0.7171662843,
				"element": "C" 
			},
			{
				"x": 0.0719002229,
				"y": 3.6370011225,
				"z": 1.5605893283,
				"element": "O" 
			},
			{
				"x": 0.1158730665,
				"y": 2.2836705435,
				"z": 1.4247263305,
				"element": "C" 
			},
			{
				"x": 0.9091183111,
				"y": 1.5944564422,
				"z": 0.5279121004,
				"element": "C" 
			},
			{
				"x": 0.8586315095,
				"y": 0.1744515857,
				"z": 0.4888775688,
				"element": "C" 
			},
			{
				"x": -0.0085532273,
				"y": -0.5373443546,
				"z": 1.3730931138,
				"element": "C" 
			},
			{
				"x": -0.8097860915,
				"y": 0.2019249907,
				"z": 2.2818327879,
				"element": "C" 
			},
			{
				"x": -0.7479639603,
				"y": 1.572883567,
				"z": 2.3054897933,
				"element": "C" 
			},
			{
				"x": -0.0864470821,
				"y": -1.8993610274,
				"z": 1.3671351709,
				"element": "N" 
			},
			{
				"x": 0.6590993898,
				"y": -2.5610316139,
				"z": 0.5231119226,
				"element": "C" 
			},
			{
				"x": 0.5543048753,
				"y": -3.9236781626,
				"z": 0.5460032142,
				"element": "O" 
			},
			{
				"x": 1.565455869,
				"y": -1.9745160152,
				"z": -0.4113864163,
				"element": "C" 
			},
			{
				"x": 1.6413294946,
				"y": -0.5958993394,
				"z": -0.4021171699,
				"element": "C" 
			},
			{
				"x": 2.4339396079,
				"y": -2.7172613867,
				"z": -1.3927688819,
				"element": "C" 
			},
			{
				"x": 2.3613423618,
				"y": -4.0604058558,
				"z": -1.4046755591,
				"element": "O" 
			},
			{
				"x": 3.1748914891,
				"y": -2.1295395756,
				"z": -2.150826426,
				"element": "O" 
			},
			{
				"x": 1.9660784521,
				"y": 4.1899996493,
				"z": 0.8757795007,
				"element": "H" 
			},
			{
				"x": 0.7162371711,
				"y": 5.4594455077,
				"z": 0.9875507142,
				"element": "H" 
			},
			{
				"x": 0.6585867438,
				"y": 4.2694592337,
				"z": -0.341622143,
				"element": "H" 
			},
			{
				"x": 1.5760839312,
				"y": 2.1080967071,
				"z": -0.1545000188,
				"element": "H" 
			},
			{
				"x": -1.4661070051,
				"y": -0.344711664,
				"z": 2.9505531514,
				"element": "H" 
			},
			{
				"x": -1.3536351897,
				"y": 2.1534697883,
				"z": 2.9938462653,
				"element": "H" 
			},
			{
				"x": -0.0973547533,
				"y": -4.1427251406,
				"z": 1.2312692303,
				"element": "H" 
			},
			{
				"x": 2.3227048466,
				"y": -0.1223905924,
				"z": -1.1024968847,
				"element": "H" 
			},
			{
				"x": 1.7226620982,
				"y": -4.3757986941,
				"z": -0.7396429774,
				"element": "H" 
			}
		],
		 "valence_orbital": [ 
			{
				"type": "occ",
				"energy": -0.29863,
				"method": "rhf"
			},
			{
				"type": "occ",
				"energy": -0.29487,
				"method": "rhf"
			},
			{
				"type": "occ",
				"energy": -0.26466,
				"method": "rhf"
			},
			{
				"type": "occ",
				"energy": -0.25437,
				"method": "rhf"
			},
			{
				"type": "occ",
				"energy": -0.22556,
				"method": "rhf"
			},
			{
				"type": "unocc",
				"energy": -0.07285,
				"method": "rhf"
			},
			{
				"type": "unocc",
				"energy": -0.0258,
				"method": "rhf"
			},
			{
				"type": "unocc",
				"energy": 0.00717,
				"method": "rhf"
			},
			{
				"type": "unocc",
				"energy": 0.03544,
				"method": "rhf"
			},
			{
				"type": "unocc",
				"energy": 0.06175,
				"method": "rhf"
			}
		],
		"cosmo_sigma_profile": { 
			"-0.025": 0.0,
			"-0.024": 0.0,
			"-0.023": 0.0,
			"-0.022": 0.0,
			"-0.021": 0.0,
			"-0.02": 0.0,
			"-0.019": 0.10863849307,
			"-0.018": 0.663715861666,
			"-0.017": 0.843294666113,
			"-0.016": 0.788421477842,
			"-0.015": 1.05271246942,
			"-0.014": 0.494209822897,
			"-0.013": 0.466905306991,
			"-0.012": 0.341186755,
			"-0.011": 1.00070082073,
			"-0.01": 1.24718234071,
			"-0.009": 1.18453609066,
			"-0.008": 3.00550176911,
			"-0.007": 8.08872350642,
			"-0.006": 15.8536704166,
			"-0.005": 16.4924677998,
			"-0.004": 16.7646544141,
			"-0.003": 16.2747107605,
			"-0.002": 15.8797228759,
			"-0.001": 15.6606882113,
			"0.0": 17.2406505118,
			"0.001": 15.9502188706,
			"0.002": 23.3661123786,
			"0.003": 15.0910823952,
			"0.004": 6.15170485458,
			"0.005": 4.84950289181,
			"0.006": 4.67791532051,
			"0.007": 3.627996037,
			"0.008": 5.471654629,
			"0.009": 5.85083038737,
			"0.01": 5.52297472316,
			"0.011": 6.8636535516,
			"0.012": 4.84106864259,
			"0.013": 2.10747494472,
			"0.014": 0.232817198683,
			"0.015": 0.0,
			"0.016": 0.0,
			"0.017": 0.0,
			"0.018": 0.0,
			"0.019": 0.0,
			"0.02": 0.0,
			"0.021": 0.0,
			"0.022": 0.0,
			"0.023": 0.0,
			"0.024": 0.0,
			"0.025": 0.0
		}
	}
}
