{
	 "smiles": "ClC1=CC(=C(Cl)C(Cl)=C1Cl)C1=CC=CC=C1", 
	 "Tm": 364.15, 
	 "num_atms": 22, 
	 "gaussian": { 
		 "optdone": 1, 
		 "sigma_profile": "yes", 
		 "theory": "DFT", 
		 "functional": "B3LYP", 
		 "basiset": "6-31G**", 
		 "properties": { 
			 "R2extent": 6135.5765, 
			 "electric_dipole_moment_norm": 2.91586004465, 
			 "electric_quadrupole_moment_norm": 6.07243285348, 
			 "total_energy": -2301.65080486, 
			 "HOMO_LUMO_gap": 0.21185, 
			 "cosmo_polarized_energy": -5.31, 
			 "cosmo_cavitation_energy": 33.71, 
			 "cosmo_dispersion_energy": -24.4, 
			 "cosmo_repulsion_energy": 1.92, 
			 "cosmo_total_nonelectrostatic_energy": 11.23, 
			 "SMD_solvation_energy": 4.65 
		},
		"coords": [
			{
				"x": -2.4237803554,
				"y": 0.8470589519,
				"z": 3.1067938001,
				"element": "Cl" 
			},
			{
				"x": -0.9776184477,
				"y": 0.551896443,
				"z": 2.1774802637,
				"element": "C" 
			},
			{
				"x": -1.1096123555,
				"y": 0.2363287842,
				"z": 0.828118548,
				"element": "C" 
			},
			{
				"x": 0.0053820371,
				"y": -0.0121063144,
				"z": 0.024431787,
				"element": "C" 
			},
			{
				"x": 1.2795426132,
				"y": 0.063336957,
				"z": 0.6109079869,
				"element": "C" 
			},
			{
				"x": 2.6887451284,
				"y": -0.2424926167,
				"z": -0.3702269062,
				"element": "Cl" 
			},
			{
				"x": 1.4285345481,
				"y": 0.3809743101,
				"z": 1.9722617496,
				"element": "C" 
			},
			{
				"x": 3.0119311394,
				"y": 0.4701719926,
				"z": 2.6815439001,
				"element": "Cl" 
			},
			{
				"x": 0.2924913735,
				"y": 0.6281897593,
				"z": 2.7661231119,
				"element": "C" 
			},
			{
				"x": 0.4605880165,
				"y": 1.0216385941,
				"z": 4.4485962491,
				"element": "Cl" 
			},
			{
				"x": -0.1991976582,
				"y": -0.3463275546,
				"z": -1.4191343656,
				"element": "C" 
			},
			{
				"x": -0.2551500374,
				"y": 0.6715321709,
				"z": -2.380503895,
				"element": "C" 
			},
			{
				"x": -0.4812374931,
				"y": 0.3615203208,
				"z": -3.7219922055,
				"element": "C" 
			},
			{
				"x": -0.6552955542,
				"y": -0.9666113458,
				"z": -4.1150786284,
				"element": "C" 
			},
			{
				"x": -0.6029936232,
				"y": -1.9848327325,
				"z": -3.1615483822,
				"element": "C" 
			},
			{
				"x": -0.377048064,
				"y": -1.6773102648,
				"z": -1.8194556891,
				"element": "C" 
			},
			{
				"x": -2.1004270014,
				"y": 0.182501037,
				"z": 0.3924102544,
				"element": "H" 
			},
			{
				"x": -0.1194426819,
				"y": 1.7049403289,
				"z": -2.0750477926,
				"element": "H" 
			},
			{
				"x": -0.5223051392,
				"y": 1.1585221724,
				"z": -4.4586958157,
				"element": "H" 
			},
			{
				"x": -0.8317707718,
				"y": -1.2069043609,
				"z": -5.1594135478,
				"element": "H" 
			},
			{
				"x": -0.7391249108,
				"y": -3.0200431568,
				"z": -3.4606116191,
				"element": "H" 
			},
			{
				"x": -0.3361107625,
				"y": -2.4697834758,
				"z": -1.0778588039,
				"element": "H" 
			}
		],
		 "valence_orbital": [ 
			{
				"type": "occ",
				"energy": -0.3068,
				"method": "rhf"
			},
			{
				"type": "occ",
				"energy": -0.26489,
				"method": "rhf"
			},
			{
				"type": "occ",
				"energy": -0.26127,
				"method": "rhf"
			},
			{
				"type": "occ",
				"energy": -0.25992,
				"method": "rhf"
			},
			{
				"type": "occ",
				"energy": -0.2549,
				"method": "rhf"
			},
			{
				"type": "unocc",
				"energy": -0.04305,
				"method": "rhf"
			},
			{
				"type": "unocc",
				"energy": -0.04137,
				"method": "rhf"
			},
			{
				"type": "unocc",
				"energy": -0.0315,
				"method": "rhf"
			},
			{
				"type": "unocc",
				"energy": -0.01702,
				"method": "rhf"
			},
			{
				"type": "unocc",
				"energy": -0.01095,
				"method": "rhf"
			}
		],
		"cosmo_sigma_profile": { 
			"-0.025": 0.0,
			"-0.024": 0.0,
			"-0.023": 0.0,
			"-0.022": 0.0,
			"-0.021": 0.0,
			"-0.02": 0.0,
			"-0.019": 0.0,
			"-0.018": 0.0,
			"-0.017": 0.0,
			"-0.016": 0.0,
			"-0.015": 0.0,
			"-0.014": 0.0,
			"-0.013": 0.0,
			"-0.012": 0.0,
			"-0.011": 0.0,
			"-0.01": 0.0,
			"-0.009": 0.421912535021,
			"-0.008": 1.48800956945,
			"-0.007": 2.05452031318,
			"-0.006": 10.1245556238,
			"-0.005": 12.9237212088,
			"-0.004": 18.4916581043,
			"-0.003": 16.5913804968,
			"-0.002": 29.3049400566,
			"-0.001": 34.4473152843,
			"0.0": 24.6887876892,
			"0.001": 23.8408152645,
			"0.002": 24.8078180878,
			"0.003": 39.274983993,
			"0.004": 27.6699675571,
			"0.005": 12.4852305153,
			"0.006": 1.78935391892,
			"0.007": 0.0,
			"0.008": 0.0,
			"0.009": 0.0,
			"0.01": 0.0,
			"0.011": 0.0,
			"0.012": 0.0,
			"0.013": 0.0,
			"0.014": 0.0,
			"0.015": 0.0,
			"0.016": 0.0,
			"0.017": 0.0,
			"0.018": 0.0,
			"0.019": 0.0,
			"0.02": 0.0,
			"0.021": 0.0,
			"0.022": 0.0,
			"0.023": 0.0,
			"0.024": 0.0,
			"0.025": 0.0
		}
	}
}
