{
	 "smiles": "CN1C(=O)N(C)C2=NC=C(C(O)=O)C(C)=C2C1=O", 
	 "Tm": 553.15, 
	 "num_atms": 29, 
	 "gaussian": { 
		 "optdone": 1, 
		 "sigma_profile": "yes", 
		 "theory": "DFT", 
		 "functional": "B3LYP", 
		 "basiset": "6-31G**", 
		 "properties": { 
			 "R2extent": 5628.8723, 
			 "electric_dipole_moment_norm": 2.5235210223, 
			 "electric_quadrupole_moment_norm": 19.7936469358, 
			 "total_energy": -891.011887696, 
			 "HOMO_LUMO_gap": 0.1768, 
			 "cosmo_polarized_energy": -18.47, 
			 "cosmo_cavitation_energy": 32.44, 
			 "cosmo_dispersion_energy": -24.08, 
			 "cosmo_repulsion_energy": 1.8, 
			 "cosmo_total_nonelectrostatic_energy": 10.16, 
			 "SMD_solvation_energy": 6.96 
		},
		"coords": [
			{
				"x": -2.9955512583,
				"y": 1.2512250642,
				"z": -1.645527998,
				"element": "C" 
			},
			{
				"x": -1.7013096674,
				"y": 1.5643066603,
				"z": -1.024366515,
				"element": "N" 
			},
			{
				"x": -1.2126409162,
				"y": 2.8467220854,
				"z": -1.2793151684,
				"element": "C" 
			},
			{
				"x": -1.8401793129,
				"y": 3.6366560103,
				"z": -1.9656761948,
				"element": "O" 
			},
			{
				"x": 0.0218377784,
				"y": 3.1584066514,
				"z": -0.7101081731,
				"element": "N" 
			},
			{
				"x": 0.5692714483,
				"y": 4.5010663417,
				"z": -0.9527972752,
				"element": "C" 
			},
			{
				"x": 0.7296586317,
				"y": 2.2679069014,
				"z": 0.075763349,
				"element": "C" 
			},
			{
				"x": 1.8896123631,
				"y": 2.7287422431,
				"z": 0.5675527666,
				"element": "N" 
			},
			{
				"x": 2.5965412303,
				"y": 1.898778095,
				"z": 1.3203260517,
				"element": "C" 
			},
			{
				"x": 2.2246809753,
				"y": 0.5784555802,
				"z": 1.6229447553,
				"element": "C" 
			},
			{
				"x": 3.2120328766,
				"y": -0.1702612564,
				"z": 2.4727595393,
				"element": "C" 
			},
			{
				"x": 3.4170425813,
				"y": -1.4854499903,
				"z": 2.1920357055,
				"element": "O" 
			},
			{
				"x": 3.8566082781,
				"y": 0.3634255586,
				"z": 3.3436071883,
				"element": "O" 
			},
			{
				"x": 0.9851569106,
				"y": 0.0987472884,
				"z": 1.1538901879,
				"element": "C" 
			},
			{
				"x": 0.4584866936,
				"y": -1.2595105952,
				"z": 1.5580962331,
				"element": "C" 
			},
			{
				"x": 0.2272170712,
				"y": 0.9713570008,
				"z": 0.3343422999,
				"element": "C" 
			},
			{
				"x": -1.0632050143,
				"y": 0.5739421076,
				"z": -0.2636377638,
				"element": "C" 
			},
			{
				"x": -1.5708652674,
				"y": -0.5345287786,
				"z": -0.1380343511,
				"element": "O" 
			},
			{
				"x": -2.9148303792,
				"y": 1.3317915436,
				"z": -2.7313716994,
				"element": "H" 
			},
			{
				"x": -3.2602151248,
				"y": 0.2379400886,
				"z": -1.3556377436,
				"element": "H" 
			},
			{
				"x": -3.7489037198,
				"y": 1.9625374808,
				"z": -1.302664259,
				"element": "H" 
			},
			{
				"x": 0.6957850713,
				"y": 5.0294914332,
				"z": -0.0063532417,
				"element": "H" 
			},
			{
				"x": 1.5438235778,
				"y": 4.4233973317,
				"z": -1.4374798767,
				"element": "H" 
			},
			{
				"x": -0.1372454167,
				"y": 5.0237322228,
				"z": -1.5921488511,
				"element": "H" 
			},
			{
				"x": 3.5304694126,
				"y": 2.2810411786,
				"z": 1.7247885907,
				"element": "H" 
			},
			{
				"x": 2.9323957208,
				"y": -1.7415109284,
				"z": 1.3951233851,
				"element": "H" 
			},
			{
				"x": -0.5789033168,
				"y": -1.1819527623,
				"z": 1.8837786613,
				"element": "H" 
			},
			{
				"x": 0.4337141688,
				"y": -1.9470230737,
				"z": 0.7056199318,
				"element": "H" 
			},
			{
				"x": 1.0508146038,
				"y": -1.6960314826,
				"z": 2.3616904653,
				"element": "H" 
			}
		],
		 "valence_orbital": [ 
			{
				"type": "occ",
				"energy": -0.30127,
				"method": "rhf"
			},
			{
				"type": "occ",
				"energy": -0.28558,
				"method": "rhf"
			},
			{
				"type": "occ",
				"energy": -0.28411,
				"method": "rhf"
			},
			{
				"type": "occ",
				"energy": -0.27053,
				"method": "rhf"
			},
			{
				"type": "occ",
				"energy": -0.2529,
				"method": "rhf"
			},
			{
				"type": "unocc",
				"energy": -0.0761,
				"method": "rhf"
			},
			{
				"type": "unocc",
				"energy": -0.06065,
				"method": "rhf"
			},
			{
				"type": "unocc",
				"energy": 0.00013,
				"method": "rhf"
			},
			{
				"type": "unocc",
				"energy": 0.00987,
				"method": "rhf"
			},
			{
				"type": "unocc",
				"energy": 0.0524,
				"method": "rhf"
			}
		],
		"cosmo_sigma_profile": { 
			"-0.025": 0.0,
			"-0.024": 0.0,
			"-0.023": 0.0,
			"-0.022": 0.0,
			"-0.021": 0.0,
			"-0.02": 0.0,
			"-0.019": 0.307538427357,
			"-0.018": 0.60653928132,
			"-0.017": 0.86953553362,
			"-0.016": 1.13698756941,
			"-0.015": 1.03678539483,
			"-0.014": 0.339962712339,
			"-0.013": 0.783905830738,
			"-0.012": 1.825304156,
			"-0.011": 0.790197489327,
			"-0.01": 0.487359001318,
			"-0.009": 0.54195363651,
			"-0.008": 3.12793788412,
			"-0.007": 4.79254307132,
			"-0.006": 10.8100527625,
			"-0.005": 20.0024755726,
			"-0.004": 26.9064060698,
			"-0.003": 36.0998590694,
			"-0.002": 29.616025509,
			"-0.001": 15.5187969609,
			"0.0": 9.26504363175,
			"0.001": 9.83164840095,
			"0.002": 7.77319661131,
			"0.003": 7.2762970093,
			"0.004": 5.88020158288,
			"0.005": 6.96724759114,
			"0.006": 6.23022089503,
			"0.007": 6.63825178454,
			"0.008": 6.84796189568,
			"0.009": 6.94680730222,
			"0.01": 8.78298621266,
			"0.011": 11.7899100566,
			"0.012": 8.4956867889,
			"0.013": 0.758116398532,
			"0.014": 0.0,
			"0.015": 0.0,
			"0.016": 0.0,
			"0.017": 0.0,
			"0.018": 0.0,
			"0.019": 0.0,
			"0.02": 0.0,
			"0.021": 0.0,
			"0.022": 0.0,
			"0.023": 0.0,
			"0.024": 0.0,
			"0.025": 0.0
		}
	}
}
