{
	 "smiles": "CC1=CC=C(NC(=O)C(C(F)(F)F)C(F)(F)F)C=C1", 
	 "Tm": 469.15, 
	 "num_atms": 28, 
	 "gaussian": { 
		 "optdone": 1, 
		 "sigma_profile": "yes", 
		 "theory": "DFT", 
		 "functional": "B3LYP", 
		 "basiset": "6-31G**", 
		 "properties": { 
			 "R2extent": 6225.259, 
			 "electric_dipole_moment_norm": 5.74780975416, 
			 "electric_quadrupole_moment_norm": 10.3988862731, 
			 "total_energy": -1153.63899312, 
			 "HOMO_LUMO_gap": 0.21531, 
			 "cosmo_polarized_energy": -11.76, 
			 "cosmo_cavitation_energy": 34.63, 
			 "cosmo_dispersion_energy": -23.23, 
			 "cosmo_repulsion_energy": 1.7, 
			 "cosmo_total_nonelectrostatic_energy": 13.1, 
			 "SMD_solvation_energy": 8.6 
		},
		"coords": [
			{
				"x": 0.4827095347,
				"y": -2.2251119596,
				"z": 4.1894944039,
				"element": "C" 
			},
			{
				"x": -0.3282903555,
				"y": -1.6298880469,
				"z": 3.0632004748,
				"element": "C" 
			},
			{
				"x": -0.8984247652,
				"y": -0.3537786552,
				"z": 3.1831325814,
				"element": "C" 
			},
			{
				"x": -1.6576620785,
				"y": 0.1983158601,
				"z": 2.1552539106,
				"element": "C" 
			},
			{
				"x": -1.8802681049,
				"y": -0.5266137333,
				"z": 0.9777220875,
				"element": "C" 
			},
			{
				"x": -2.7001835047,
				"y": 0.0410754459,
				"z": -0.0409465447,
				"element": "N" 
			},
			{
				"x": -2.4614577142,
				"y": 0.2602085285,
				"z": -1.3739539588,
				"element": "C" 
			},
			{
				"x": -3.3111601797,
				"y": 0.7326215996,
				"z": -2.1088990475,
				"element": "O" 
			},
			{
				"x": -1.0535591861,
				"y": -0.0733994779,
				"z": -1.9037049854,
				"element": "C" 
			},
			{
				"x": -0.3760589116,
				"y": 1.202521938,
				"z": -2.4147007859,
				"element": "C" 
			},
			{
				"x": 0.9153457461,
				"y": 0.960234945,
				"z": -2.7193013513,
				"element": "F" 
			},
			{
				"x": -0.3950903359,
				"y": 2.1356451384,
				"z": -1.4373004005,
				"element": "F" 
			},
			{
				"x": -0.9626062468,
				"y": 1.7214218703,
				"z": -3.4973435512,
				"element": "F" 
			},
			{
				"x": -1.1259159025,
				"y": -1.1717137186,
				"z": -2.9660524057,
				"element": "C" 
			},
			{
				"x": -1.7690942551,
				"y": -0.7957231718,
				"z": -4.0741061872,
				"element": "F" 
			},
			{
				"x": 0.1081047272,
				"y": -1.5815900611,
				"z": -3.3180590264,
				"element": "F" 
			},
			{
				"x": -1.7774620696,
				"y": -2.248120009,
				"z": -2.4551945749,
				"element": "F" 
			},
			{
				"x": -1.3391265156,
				"y": -1.8111006938,
				"z": 0.8514990902,
				"element": "C" 
			},
			{
				"x": -0.5572677208,
				"y": -2.3403743407,
				"z": 1.8789049001,
				"element": "C" 
			},
			{
				"x": 1.1181953457,
				"y": -1.4720571792,
				"z": 4.6660231066,
				"element": "H" 
			},
			{
				"x": -0.1681038438,
				"y": -2.6395191907,
				"z": 4.9693459751,
				"element": "H" 
			},
			{
				"x": 1.1256635106,
				"y": -3.0353758715,
				"z": 3.8349010332,
				"element": "H" 
			},
			{
				"x": -0.7337021733,
				"y": 0.222889641,
				"z": 4.0897457031,
				"element": "H" 
			},
			{
				"x": -2.0711965385,
				"y": 1.197949962,
				"z": 2.2533403202,
				"element": "H" 
			},
			{
				"x": -3.60775215,
				"y": 0.3962635358,
				"z": 0.2380898633,
				"element": "H" 
			},
			{
				"x": -0.409703553,
				"y": -0.4544504291,
				"z": -1.1097926218,
				"element": "H" 
			},
			{
				"x": -1.5360091554,
				"y": -2.3919497404,
				"z": -0.0429731318,
				"element": "H" 
			},
			{
				"x": -0.1343236036,
				"y": -3.3345821858,
				"z": 1.7611751233,
				"element": "H" 
			}
		],
		 "valence_orbital": [ 
			{
				"type": "occ",
				"energy": -0.35913,
				"method": "rhf"
			},
			{
				"type": "occ",
				"energy": -0.2983,
				"method": "rhf"
			},
			{
				"type": "occ",
				"energy": -0.27415,
				"method": "rhf"
			},
			{
				"type": "occ",
				"energy": -0.27116,
				"method": "rhf"
			},
			{
				"type": "occ",
				"energy": -0.2444,
				"method": "rhf"
			},
			{
				"type": "unocc",
				"energy": -0.02909,
				"method": "rhf"
			},
			{
				"type": "unocc",
				"energy": -0.02401,
				"method": "rhf"
			},
			{
				"type": "unocc",
				"energy": 0.00342,
				"method": "rhf"
			},
			{
				"type": "unocc",
				"energy": 0.08103,
				"method": "rhf"
			},
			{
				"type": "unocc",
				"energy": 0.08303,
				"method": "rhf"
			}
		],
		"cosmo_sigma_profile": { 
			"-0.025": 0.0,
			"-0.024": 0.0,
			"-0.023": 0.0,
			"-0.022": 0.0,
			"-0.021": 0.0,
			"-0.02": 0.0,
			"-0.019": 0.0,
			"-0.018": 0.0,
			"-0.017": 0.0,
			"-0.016": 0.035528175656,
			"-0.015": 0.902211803797,
			"-0.014": 0.918922003465,
			"-0.013": 1.27011329734,
			"-0.012": 0.628930335573,
			"-0.011": 1.19215187102,
			"-0.01": 2.19162584414,
			"-0.009": 3.10340465837,
			"-0.008": 2.5583967932,
			"-0.007": 3.76369385499,
			"-0.006": 7.81849059603,
			"-0.005": 12.4439744981,
			"-0.004": 18.8356487799,
			"-0.003": 15.4660835955,
			"-0.002": 17.274523474,
			"-0.001": 21.0861689972,
			"0.0": 26.031373157,
			"0.001": 31.9466285304,
			"0.002": 56.429892828,
			"0.003": 17.5175682315,
			"0.004": 11.0758250082,
			"0.005": 6.28898700733,
			"0.006": 1.18610664972,
			"0.007": 1.90665202569,
			"0.008": 1.92241175147,
			"0.009": 1.54513910956,
			"0.01": 2.75341201504,
			"0.011": 2.95494996542,
			"0.012": 4.63969989681,
			"0.013": 0.694348580571,
			"0.014": 0.0,
			"0.015": 0.0,
			"0.016": 0.0,
			"0.017": 0.0,
			"0.018": 0.0,
			"0.019": 0.0,
			"0.02": 0.0,
			"0.021": 0.0,
			"0.022": 0.0,
			"0.023": 0.0,
			"0.024": 0.0,
			"0.025": 0.0
		}
	}
}
