{
	 "smiles": "NC(=O)CC1=C(F)C=CC=C1", 
	 "Tm": 432.15, 
	 "num_atms": 19, 
	 "gaussian": { 
		 "optdone": 1, 
		 "sigma_profile": "yes", 
		 "theory": "DFT", 
		 "functional": "B3LYP", 
		 "basiset": "6-31G**", 
		 "properties": { 
			 "R2extent": 2365.0688, 
			 "electric_dipole_moment_norm": 3.25022247546, 
			 "electric_quadrupole_moment_norm": 8.45131539762, 
			 "total_energy": -539.50539693, 
			 "HOMO_LUMO_gap": 0.21755, 
			 "cosmo_polarized_energy": -11.46, 
			 "cosmo_cavitation_energy": 23.33, 
			 "cosmo_dispersion_energy": -16.99, 
			 "cosmo_repulsion_energy": 1.36, 
			 "cosmo_total_nonelectrostatic_energy": 7.69, 
			 "SMD_solvation_energy": 5.06 
		},
		"coords": [
			{
				"x": 0.121160222,
				"y": -1.9454426242,
				"z": -2.4299315749,
				"element": "N" 
			},
			{
				"x": 0.9555687471,
				"y": -0.8714413796,
				"z": -2.300079618,
				"element": "C" 
			},
			{
				"x": 0.8650381597,
				"y": 0.1328962235,
				"z": -2.9880161663,
				"element": "O" 
			},
			{
				"x": 2.0409992103,
				"y": -1.030988553,
				"z": -1.2186080512,
				"element": "C" 
			},
			{
				"x": 1.4919735528,
				"y": -0.8981695618,
				"z": 0.1854234243,
				"element": "C" 
			},
			{
				"x": 0.9293401934,
				"y": -1.9884860586,
				"z": 0.8503513223,
				"element": "C" 
			},
			{
				"x": 0.8848699472,
				"y": -3.1887955659,
				"z": 0.197497405,
				"element": "F" 
			},
			{
				"x": 0.4066660122,
				"y": -1.9210648402,
				"z": 2.1331900993,
				"element": "C" 
			},
			{
				"x": 0.4379886676,
				"y": -0.6944073451,
				"z": 2.799071924,
				"element": "C" 
			},
			{
				"x": 0.9845410622,
				"y": 0.4254441168,
				"z": 2.1694348139,
				"element": "C" 
			},
			{
				"x": 1.5044207327,
				"y": 0.3195422592,
				"z": 0.8784014949,
				"element": "C" 
			},
			{
				"x": 0.1332776948,
				"y": -2.6991055097,
				"z": -1.7597779144,
				"element": "H" 
			},
			{
				"x": -0.6723149008,
				"y": -1.8472590811,
				"z": -3.0452811782,
				"element": "H" 
			},
			{
				"x": 2.7767093122,
				"y": -0.2481774796,
				"z": -1.4074199569,
				"element": "H" 
			},
			{
				"x": 2.5295484909,
				"y": -2.003758522,
				"z": -1.3379188402,
				"element": "H" 
			},
			{
				"x": -0.0103107595,
				"y": -2.8135501536,
				"z": 2.5870818144,
				"element": "H" 
			},
			{
				"x": 0.0348470467,
				"y": -0.6181683954,
				"z": 3.804149576,
				"element": "H" 
			},
			{
				"x": 1.0090571493,
				"y": 1.3812260317,
				"z": 2.6834758737,
				"element": "H" 
			},
			{
				"x": 1.9296194592,
				"y": 1.1915064389,
				"z": 0.3895555525,
				"element": "H" 
			}
		],
		 "valence_orbital": [ 
			{
				"type": "occ",
				"energy": -0.3492,
				"method": "rhf"
			},
			{
				"type": "occ",
				"energy": -0.26973,
				"method": "rhf"
			},
			{
				"type": "occ",
				"energy": -0.2637,
				"method": "rhf"
			},
			{
				"type": "occ",
				"energy": -0.25544,
				"method": "rhf"
			},
			{
				"type": "occ",
				"energy": -0.23614,
				"method": "rhf"
			},
			{
				"type": "unocc",
				"energy": -0.01859,
				"method": "rhf"
			},
			{
				"type": "unocc",
				"energy": -0.00816,
				"method": "rhf"
			},
			{
				"type": "unocc",
				"energy": 0.03518,
				"method": "rhf"
			},
			{
				"type": "unocc",
				"energy": 0.07875,
				"method": "rhf"
			},
			{
				"type": "unocc",
				"energy": 0.09299,
				"method": "rhf"
			}
		],
		"cosmo_sigma_profile": { 
			"-0.025": 0.0,
			"-0.024": 0.0,
			"-0.023": 0.0,
			"-0.022": 0.0,
			"-0.021": 0.0,
			"-0.02": 0.0,
			"-0.019": 0.0,
			"-0.018": 0.0,
			"-0.017": 0.0,
			"-0.016": 0.0,
			"-0.015": 0.0,
			"-0.014": 0.492992137754,
			"-0.013": 1.15536165347,
			"-0.012": 1.31784406446,
			"-0.011": 1.31795895522,
			"-0.01": 2.21067668987,
			"-0.009": 1.40825659976,
			"-0.008": 2.02114220989,
			"-0.007": 4.90886155708,
			"-0.006": 12.8990727827,
			"-0.005": 15.3000266476,
			"-0.004": 13.5732948051,
			"-0.003": 11.8094641153,
			"-0.002": 12.0739473781,
			"-0.001": 10.1698899684,
			"0.0": 12.2206277361,
			"0.001": 14.1453996062,
			"0.002": 12.7674747049,
			"0.003": 13.7707895423,
			"0.004": 15.0822113639,
			"0.005": 5.820764221,
			"0.006": 2.07316994156,
			"0.007": 1.20864714075,
			"0.008": 1.66622083412,
			"0.009": 1.13565252123,
			"0.01": 1.15708655888,
			"0.011": 1.68945791767,
			"0.012": 1.6974149732,
			"0.013": 4.30933375912,
			"0.014": 5.26273355572,
			"0.015": 1.18612749847,
			"0.016": 0.0,
			"0.017": 0.0,
			"0.018": 0.0,
			"0.019": 0.0,
			"0.02": 0.0,
			"0.021": 0.0,
			"0.022": 0.0,
			"0.023": 0.0,
			"0.024": 0.0,
			"0.025": 0.0
		}
	}
}
