{
	 "smiles": "CC(=O)CCC(C)=O", 
	 "Tm": 266.9, 
	 "num_atms": 18, 
	 "gaussian": { 
		 "optdone": 1, 
		 "sigma_profile": "yes", 
		 "theory": "DFT", 
		 "functional": "B3LYP", 
		 "basiset": "6-31G**", 
		 "properties": { 
			 "R2extent": 1428.0041, 
			 "electric_dipole_moment_norm": 2.69663530348, 
			 "electric_quadrupole_moment_norm": 10.1265199733, 
			 "total_energy": -385.119687625, 
			 "HOMO_LUMO_gap": 0.23295, 
			 "cosmo_polarized_energy": -10.85, 
			 "cosmo_cavitation_energy": 21.67, 
			 "cosmo_dispersion_energy": -15.24, 
			 "cosmo_repulsion_energy": 1.3, 
			 "cosmo_total_nonelectrostatic_energy": 7.73, 
			 "SMD_solvation_energy": 5.17 
		},
		"coords": [
			{
				"x": 1.6018162886,
				"y": -0.8721446896,
				"z": -0.7729313953,
				"element": "C" 
			},
			{
				"x": 0.5600498857,
				"y": 0.217321946,
				"z": -0.61315584,
				"element": "C" 
			},
			{
				"x": 0.7612232845,
				"y": 1.3595859269,
				"z": -0.9824222536,
				"element": "O" 
			},
			{
				"x": -0.7608835614,
				"y": -0.1907207978,
				"z": 0.0351005158,
				"element": "C" 
			},
			{
				"x": -1.5869681953,
				"y": 1.0151050469,
				"z": 0.4658532544,
				"element": "C" 
			},
			{
				"x": -0.969893316,
				"y": 1.7398083368,
				"z": 1.6598931163,
				"element": "C" 
			},
			{
				"x": -1.5017914227,
				"y": 3.127214311,
				"z": 1.9596455489,
				"element": "C" 
			},
			{
				"x": -0.0971346238,
				"y": 1.2252485703,
				"z": 2.3345090735,
				"element": "O" 
			},
			{
				"x": 1.1608163097,
				"y": -1.7942234842,
				"z": -1.1670890673,
				"element": "H" 
			},
			{
				"x": 2.0185683424,
				"y": -1.1106969503,
				"z": 0.2131755514,
				"element": "H" 
			},
			{
				"x": 2.4051883449,
				"y": -0.5286080651,
				"z": -1.4261424562,
				"element": "H" 
			},
			{
				"x": -0.5502714197,
				"y": -0.8396904026,
				"z": 0.8914950945,
				"element": "H" 
			},
			{
				"x": -1.3118476219,
				"y": -0.8009111439,
				"z": -0.6940801002,
				"element": "H" 
			},
			{
				"x": -1.6959539124,
				"y": 1.7235886159,
				"z": -0.3618329048,
				"element": "H" 
			},
			{
				"x": -2.6023690972,
				"y": 0.7094727137,
				"z": 0.7542486605,
				"element": "H" 
			},
			{
				"x": -1.1522822059,
				"y": 3.4584431672,
				"z": 2.9385458365,
				"element": "H" 
			},
			{
				"x": -2.596138919,
				"y": 3.1549385601,
				"z": 1.9184170603,
				"element": "H" 
			},
			{
				"x": -1.1332281604,
				"y": 3.8204683387,
				"z": 1.1937703055,
				"element": "H" 
			}
		],
		 "valence_orbital": [ 
			{
				"type": "occ",
				"energy": -0.36013,
				"method": "rhf"
			},
			{
				"type": "occ",
				"energy": -0.34711,
				"method": "rhf"
			},
			{
				"type": "occ",
				"energy": -0.34118,
				"method": "rhf"
			},
			{
				"type": "occ",
				"energy": -0.24742,
				"method": "rhf"
			},
			{
				"type": "occ",
				"energy": -0.2444,
				"method": "rhf"
			},
			{
				"type": "unocc",
				"energy": -0.01145,
				"method": "rhf"
			},
			{
				"type": "unocc",
				"energy": -0.00761,
				"method": "rhf"
			},
			{
				"type": "unocc",
				"energy": 0.08699,
				"method": "rhf"
			},
			{
				"type": "unocc",
				"energy": 0.10299,
				"method": "rhf"
			},
			{
				"type": "unocc",
				"energy": 0.13741,
				"method": "rhf"
			}
		],
		"cosmo_sigma_profile": { 
			"-0.025": 0.0,
			"-0.024": 0.0,
			"-0.023": 0.0,
			"-0.022": 0.0,
			"-0.021": 0.0,
			"-0.02": 0.0,
			"-0.019": 0.0,
			"-0.018": 0.0,
			"-0.017": 0.0,
			"-0.016": 0.0,
			"-0.015": 0.0,
			"-0.014": 0.0,
			"-0.013": 0.0,
			"-0.012": 0.0,
			"-0.011": 0.0,
			"-0.01": 0.0,
			"-0.009": 0.0,
			"-0.008": 0.0,
			"-0.007": 1.07255625226,
			"-0.006": 13.7988683481,
			"-0.005": 18.2537601199,
			"-0.004": 20.7987222568,
			"-0.003": 20.5855956007,
			"-0.002": 19.1287279711,
			"-0.001": 17.067993774,
			"0.0": 8.36554040118,
			"0.001": 2.85778044831,
			"0.002": 3.35722521577,
			"0.003": 3.14527877059,
			"0.004": 3.81144798418,
			"0.005": 4.01934429486,
			"0.006": 4.0755686803,
			"0.007": 3.2309820582,
			"0.008": 2.8961843118,
			"0.009": 2.88897410144,
			"0.01": 3.60006865062,
			"0.011": 5.74819363733,
			"0.012": 6.96567857107,
			"0.013": 3.34151655776,
			"0.014": 0.394313862745,
			"0.015": 0.0,
			"0.016": 0.0,
			"0.017": 0.0,
			"0.018": 0.0,
			"0.019": 0.0,
			"0.02": 0.0,
			"0.021": 0.0,
			"0.022": 0.0,
			"0.023": 0.0,
			"0.024": 0.0,
			"0.025": 0.0
		}
	}
}
