{
	 "smiles": "OC(=O)CCC1=CC(F)=C(F)C=C1", 
	 "Tm": 324.15, 
	 "num_atms": 21, 
	 "gaussian": { 
		 "optdone": 1, 
		 "sigma_profile": "yes", 
		 "theory": "DFT", 
		 "functional": "B3LYP", 
		 "basiset": "6-31G**", 
		 "properties": { 
			 "R2extent": 3063.3486, 
			 "electric_dipole_moment_norm": 3.29954073319, 
			 "electric_quadrupole_moment_norm": 11.1526067442, 
			 "total_energy": -697.908817176, 
			 "HOMO_LUMO_gap": 0.22588, 
			 "cosmo_polarized_energy": -10.88, 
			 "cosmo_cavitation_energy": 26.72, 
			 "cosmo_dispersion_energy": -18.54, 
			 "cosmo_repulsion_energy": 1.45, 
			 "cosmo_total_nonelectrostatic_energy": 9.62, 
			 "SMD_solvation_energy": 6.54 
		},
		"coords": [
			{
				"x": 2.2730486765,
				"y": 1.8099183629,
				"z": -1.0871114035,
				"element": "O" 
			},
			{
				"x": 2.2812626123,
				"y": 1.4704778316,
				"z": 0.2296906731,
				"element": "C" 
			},
			{
				"x": 3.2690433134,
				"y": 1.0382012808,
				"z": 0.7779398327,
				"element": "O" 
			},
			{
				"x": 0.9483592768,
				"y": 1.7396333649,
				"z": 0.8971145928,
				"element": "C" 
			},
			{
				"x": -0.2859466491,
				"y": 1.2523846869,
				"z": 0.1057476367,
				"element": "C" 
			},
			{
				"x": -0.341231779,
				"y": -0.2515874235,
				"z": -0.0692844193,
				"element": "C" 
			},
			{
				"x": -0.8666226304,
				"y": -1.0623325791,
				"z": 0.9479915905,
				"element": "C" 
			},
			{
				"x": -0.8957786002,
				"y": -2.4406807595,
				"z": 0.7982083722,
				"element": "C" 
			},
			{
				"x": -1.4039747992,
				"y": -3.2199870923,
				"z": 1.768819833,
				"element": "F" 
			},
			{
				"x": -0.4057755006,
				"y": -3.0381843324,
				"z": -0.3628228671,
				"element": "C" 
			},
			{
				"x": -0.4527604741,
				"y": -4.3765184876,
				"z": -0.4811537433,
				"element": "F" 
			},
			{
				"x": 0.1162048292,
				"y": -2.252976931,
				"z": -1.3800654048,
				"element": "C" 
			},
			{
				"x": 0.1467131477,
				"y": -0.864307149,
				"z": -1.230507615,
				"element": "C" 
			},
			{
				"x": 3.1691913786,
				"y": 1.6228130377,
				"z": -1.4140995243,
				"element": "H" 
			},
			{
				"x": 0.9926378322,
				"y": 1.2806694896,
				"z": 1.8872929004,
				"element": "H" 
			},
			{
				"x": 0.8742760599,
				"y": 2.8259589944,
				"z": 1.0382075501,
				"element": "H" 
			},
			{
				"x": -1.1801455244,
				"y": 1.592273409,
				"z": 0.639941885,
				"element": "H" 
			},
			{
				"x": -0.294828793,
				"y": 1.740566239,
				"z": -0.8727180699,
				"element": "H" 
			},
			{
				"x": -1.2634823899,
				"y": -0.6348455675,
				"z": 1.8639615621,
				"element": "H" 
			},
			{
				"x": 0.4884445453,
				"y": -2.7372611919,
				"z": -2.2765801661,
				"element": "H" 
			},
			{
				"x": 0.5578654679,
				"y": -0.250315183,
				"z": -2.0253732154,
				"element": "H" 
			}
		],
		 "valence_orbital": [ 
			{
				"type": "occ",
				"energy": -0.3505,
				"method": "rhf"
			},
			{
				"type": "occ",
				"energy": -0.32357,
				"method": "rhf"
			},
			{
				"type": "occ",
				"energy": -0.27822,
				"method": "rhf"
			},
			{
				"type": "occ",
				"energy": -0.26107,
				"method": "rhf"
			},
			{
				"type": "occ",
				"energy": -0.24271,
				"method": "rhf"
			},
			{
				"type": "unocc",
				"energy": -0.01683,
				"method": "rhf"
			},
			{
				"type": "unocc",
				"energy": -0.00623,
				"method": "rhf"
			},
			{
				"type": "unocc",
				"energy": 0.00442,
				"method": "rhf"
			},
			{
				"type": "unocc",
				"energy": 0.06218,
				"method": "rhf"
			},
			{
				"type": "unocc",
				"energy": 0.07624,
				"method": "rhf"
			}
		],
		"cosmo_sigma_profile": { 
			"-0.025": 0.0,
			"-0.024": 0.0,
			"-0.023": 0.0,
			"-0.022": 0.0,
			"-0.021": 0.0,
			"-0.02": 0.0,
			"-0.019": 0.0159219179403,
			"-0.018": 0.592482640475,
			"-0.017": 0.932953488801,
			"-0.016": 0.781849508731,
			"-0.015": 1.06187174321,
			"-0.014": 0.627682493942,
			"-0.013": 0.361216806873,
			"-0.012": 0.354271221513,
			"-0.011": 1.0620422283,
			"-0.01": 0.726423613043,
			"-0.009": 0.550838366279,
			"-0.008": 1.93223945442,
			"-0.007": 6.3667809314,
			"-0.006": 8.69228079761,
			"-0.005": 14.3751512392,
			"-0.004": 14.3321873909,
			"-0.003": 14.5947740873,
			"-0.002": 12.7644982111,
			"-0.001": 13.5823821984,
			"0.0": 17.5054220542,
			"0.001": 17.7172082619,
			"0.002": 16.7656884368,
			"0.003": 18.1751617496,
			"0.004": 23.8346423112,
			"0.005": 4.37654660528,
			"0.006": 2.38447247986,
			"0.007": 1.96705443008,
			"0.008": 2.35538272001,
			"0.009": 2.41637408502,
			"0.01": 1.76359680183,
			"0.011": 4.02941861153,
			"0.012": 4.55054670856,
			"0.013": 0.990902425704,
			"0.014": 0.0,
			"0.015": 0.0,
			"0.016": 0.0,
			"0.017": 0.0,
			"0.018": 0.0,
			"0.019": 0.0,
			"0.02": 0.0,
			"0.021": 0.0,
			"0.022": 0.0,
			"0.023": 0.0,
			"0.024": 0.0,
			"0.025": 0.0
		}
	}
}
