{
	 "smiles": "CC1=NN(C(NC(=O)CCl)=C1)C1=NC(C)=CC(C)=N1", 
	 "Tm": 459.15, 
	 "num_atms": 33, 
	 "gaussian": { 
		 "optdone": 1, 
		 "sigma_profile": "yes", 
		 "theory": "DFT", 
		 "functional": "B3LYP", 
		 "basiset": "6-31G**", 
		 "properties": { 
			 "R2extent": 7808.1267, 
			 "electric_dipole_moment_norm": 4.1850182867, 
			 "electric_quadrupole_moment_norm": 21.7789404499, 
			 "total_energy": -1274.9036517, 
			 "HOMO_LUMO_gap": 0.17091, 
			 "cosmo_polarized_energy": -17.31, 
			 "cosmo_cavitation_energy": 39.13, 
			 "cosmo_dispersion_energy": -27.73, 
			 "cosmo_repulsion_energy": 2.18, 
			 "cosmo_total_nonelectrostatic_energy": 13.58, 
			 "SMD_solvation_energy": 4.74 
		},
		"coords": [
			{
				"x": -4.4715821883,
				"y": -0.7121634712,
				"z": 1.8324054225,
				"element": "C" 
			},
			{
				"x": -2.9971432159,
				"y": -0.8440063906,
				"z": 1.6087666452,
				"element": "C" 
			},
			{
				"x": -2.2279909392,
				"y": 0.2288655924,
				"z": 1.584031671,
				"element": "N" 
			},
			{
				"x": -0.9544157191,
				"y": -0.2442966798,
				"z": 1.3726260462,
				"element": "N" 
			},
			{
				"x": -0.9447372032,
				"y": -1.6357957861,
				"z": 1.271391843,
				"element": "C" 
			},
			{
				"x": 0.2398372803,
				"y": -2.324808862,
				"z": 1.0505328156,
				"element": "N" 
			},
			{
				"x": 0.4896444113,
				"y": -3.5295849882,
				"z": 0.4268507303,
				"element": "C" 
			},
			{
				"x": 1.6370529784,
				"y": -3.9229615861,
				"z": 0.2849644724,
				"element": "O" 
			},
			{
				"x": -0.6816210385,
				"y": -4.3379657691,
				"z": -0.1168976878,
				"element": "C" 
			},
			{
				"x": -1.3547614385,
				"y": -5.4584934276,
				"z": 1.1439942291,
				"element": "Cl" 
			},
			{
				"x": -2.2511915278,
				"y": -2.0437777762,
				"z": 1.4264130401,
				"element": "C" 
			},
			{
				"x": 0.1234696729,
				"y": 0.6621231789,
				"z": 1.333184555,
				"element": "C" 
			},
			{
				"x": 1.3497776842,
				"y": 0.1287414163,
				"z": 1.4163051222,
				"element": "N" 
			},
			{
				"x": 2.3883350299,
				"y": 0.9804326771,
				"z": 1.3798388704,
				"element": "C" 
			},
			{
				"x": 3.7614375038,
				"y": 0.3735861473,
				"z": 1.464854976,
				"element": "C" 
			},
			{
				"x": 2.1748321497,
				"y": 2.3544698069,
				"z": 1.2790339566,
				"element": "C" 
			},
			{
				"x": 0.8518157337,
				"y": 2.8064883492,
				"z": 1.2046219711,
				"element": "C" 
			},
			{
				"x": 0.5086031501,
				"y": 4.2667187563,
				"z": 1.0924824927,
				"element": "C" 
			},
			{
				"x": -0.1809068568,
				"y": 1.9531489216,
				"z": 1.2238500129,
				"element": "N" 
			},
			{
				"x": -4.7321877793,
				"y": 0.3394918651,
				"z": 1.9667318382,
				"element": "H" 
			},
			{
				"x": -4.7881404495,
				"y": -1.2686540617,
				"z": 2.7213932507,
				"element": "H" 
			},
			{
				"x": -5.0380942691,
				"y": -1.1070311925,
				"z": 0.9816738676,
				"element": "H" 
			},
			{
				"x": 1.0767183253,
				"y": -1.7734656976,
				"z": 1.2555489497,
				"element": "H" 
			},
			{
				"x": -0.2966710411,
				"y": -4.9663564532,
				"z": -0.9172163045,
				"element": "H" 
			},
			{
				"x": -1.5054480201,
				"y": -3.7161084736,
				"z": -0.4674387686,
				"element": "H" 
			},
			{
				"x": -2.6155343198,
				"y": -3.0578250291,
				"z": 1.4656403943,
				"element": "H" 
			},
			{
				"x": 4.5427183215,
				"y": 1.1331577008,
				"z": 1.3927318468,
				"element": "H" 
			},
			{
				"x": 3.9021123813,
				"y": -0.3587258347,
				"z": 0.663436036,
				"element": "H" 
			},
			{
				"x": 3.8783028013,
				"y": -0.1629816129,
				"z": 2.4122420385,
				"element": "H" 
			},
			{
				"x": 3.0073159689,
				"y": 3.048474939,
				"z": 1.2564388634,
				"element": "H" 
			},
			{
				"x": -0.0877318212,
				"y": 4.441174884,
				"z": 0.1915743502,
				"element": "H" 
			},
			{
				"x": 1.4019696046,
				"y": 4.894333471,
				"z": 1.0576439576,
				"element": "H" 
			},
			{
				"x": -0.10778517,
				"y": 4.5699953863,
				"z": 1.9447484958,
				"element": "H" 
			}
		],
		 "valence_orbital": [ 
			{
				"type": "occ",
				"energy": -0.2906,
				"method": "rhf"
			},
			{
				"type": "occ",
				"energy": -0.26709,
				"method": "rhf"
			},
			{
				"type": "occ",
				"energy": -0.25734,
				"method": "rhf"
			},
			{
				"type": "occ",
				"energy": -0.24356,
				"method": "rhf"
			},
			{
				"type": "occ",
				"energy": -0.22214,
				"method": "rhf"
			},
			{
				"type": "unocc",
				"energy": -0.05123,
				"method": "rhf"
			},
			{
				"type": "unocc",
				"energy": -0.04641,
				"method": "rhf"
			},
			{
				"type": "unocc",
				"energy": -0.02371,
				"method": "rhf"
			},
			{
				"type": "unocc",
				"energy": 0.03292,
				"method": "rhf"
			},
			{
				"type": "unocc",
				"energy": 0.05703,
				"method": "rhf"
			}
		],
		"cosmo_sigma_profile": { 
			"-0.025": 0.0,
			"-0.024": 0.0,
			"-0.023": 0.0,
			"-0.022": 0.0,
			"-0.021": 0.0,
			"-0.02": 0.0,
			"-0.019": 0.0,
			"-0.018": 0.0,
			"-0.017": 0.0,
			"-0.016": 0.0,
			"-0.015": 0.0,
			"-0.014": 0.0,
			"-0.013": 0.0,
			"-0.012": 0.0,
			"-0.011": 0.0,
			"-0.01": 0.0,
			"-0.009": 1.07511665444,
			"-0.008": 4.80209369785,
			"-0.007": 9.05985994107,
			"-0.006": 12.7262252446,
			"-0.005": 21.9880114801,
			"-0.004": 21.8128887041,
			"-0.003": 30.5480138269,
			"-0.002": 39.3810125677,
			"-0.001": 41.6967463876,
			"0.0": 25.1771868347,
			"0.001": 19.12697333,
			"0.002": 14.3940631173,
			"0.003": 12.8458888811,
			"0.004": 11.6892886499,
			"0.005": 10.715787178,
			"0.006": 4.03755894258,
			"0.007": 3.12631058761,
			"0.008": 3.0392248812,
			"0.009": 3.09660167655,
			"0.01": 3.36494736755,
			"0.011": 3.59362222688,
			"0.012": 6.67129856489,
			"0.013": 3.62774499379,
			"0.014": 1.40114672416,
			"0.015": 0.861638087346,
			"0.016": 1.03737580337,
			"0.017": 0.857488375979,
			"0.018": 1.03849888706,
			"0.019": 0.824598975971,
			"0.02": 0.538165676446,
			"0.021": 0.00215496721379,
			"0.022": 0.0,
			"0.023": 0.0,
			"0.024": 0.0,
			"0.025": 0.0
		}
	}
}
