{
	 "smiles": "NC1=CC(=CC=C1)N1C=CN=C1S", 
	 "Tm": 450.15, 
	 "num_atms": 22, 
	 "gaussian": { 
		 "optdone": 1, 
		 "sigma_profile": "yes", 
		 "theory": "DFT", 
		 "functional": "B3LYP", 
		 "basiset": "6-31G**", 
		 "properties": { 
			 "R2extent": 2943.0753, 
			 "electric_dipole_moment_norm": 4.2924360566, 
			 "electric_quadrupole_moment_norm": 7.86502818558, 
			 "total_energy": -910.811649041, 
			 "HOMO_LUMO_gap": 0.1863, 
			 "cosmo_polarized_energy": -13.89, 
			 "cosmo_cavitation_energy": 27.78, 
			 "cosmo_dispersion_energy": -20.66, 
			 "cosmo_repulsion_energy": 1.59, 
			 "cosmo_total_nonelectrostatic_energy": 8.71, 
			 "SMD_solvation_energy": 3.19 
		},
		"coords": [
			{
				"x": -1.8127134327,
				"y": -2.2370564598,
				"z": 1.587260581,
				"element": "N" 
			},
			{
				"x": -0.7924292303,
				"y": -1.3151563101,
				"z": 1.381511384,
				"element": "C" 
			},
			{
				"x": -0.8420683742,
				"y": -0.4283923605,
				"z": 0.2922118172,
				"element": "C" 
			},
			{
				"x": 0.2170404061,
				"y": 0.4484254494,
				"z": 0.0534799416,
				"element": "C" 
			},
			{
				"x": 1.3298011119,
				"y": 0.4846902799,
				"z": 0.8996989831,
				"element": "C" 
			},
			{
				"x": 1.3625356936,
				"y": -0.3809164483,
				"z": 1.9932744219,
				"element": "C" 
			},
			{
				"x": 0.3242104393,
				"y": -1.2749782896,
				"z": 2.2363202299,
				"element": "C" 
			},
			{
				"x": 0.1546494455,
				"y": 1.3425157654,
				"z": -1.056365308,
				"element": "N" 
			},
			{
				"x": 0.3968291579,
				"y": 2.7140023657,
				"z": -1.0033812882,
				"element": "C" 
			},
			{
				"x": 0.2608506294,
				"y": 3.1663516908,
				"z": -2.2855738139,
				"element": "C" 
			},
			{
				"x": -0.0491491701,
				"y": 2.1291752868,
				"z": -3.1417129442,
				"element": "N" 
			},
			{
				"x": -0.1038888341,
				"y": 1.0596482229,
				"z": -2.380017398,
				"element": "C" 
			},
			{
				"x": -0.4047326922,
				"y": -0.588666185,
				"z": -2.9701899897,
				"element": "S" 
			},
			{
				"x": -1.9166186325,
				"y": -2.5780083649,
				"z": 2.5321289305,
				"element": "H" 
			},
			{
				"x": -2.6977674644,
				"y": -2.0249652485,
				"z": 1.1494563461,
				"element": "H" 
			},
			{
				"x": -1.7113357402,
				"y": -0.4135007315,
				"z": -0.3577135186,
				"element": "H" 
			},
			{
				"x": 2.151750843,
				"y": 1.1592227566,
				"z": 0.6888698488,
				"element": "H" 
			},
			{
				"x": 2.218763416,
				"y": -0.3662599627,
				"z": 2.6613381976,
				"element": "H" 
			},
			{
				"x": 0.3731833829,
				"y": -1.9517545161,
				"z": 3.0852075277,
				"element": "H" 
			},
			{
				"x": 0.5978395376,
				"y": 3.2063624507,
				"z": -0.0652691741,
				"element": "H" 
			},
			{
				"x": 0.3608811952,
				"y": 4.1796034403,
				"z": -2.6490765209,
				"element": "H" 
			},
			{
				"x": -0.3729316877,
				"y": -0.1867428315,
				"z": -4.2544582538,
				"element": "H" 
			}
		],
		 "valence_orbital": [ 
			{
				"type": "occ",
				"energy": -0.27988,
				"method": "rhf"
			},
			{
				"type": "occ",
				"energy": -0.26728,
				"method": "rhf"
			},
			{
				"type": "occ",
				"energy": -0.24538,
				"method": "rhf"
			},
			{
				"type": "occ",
				"energy": -0.21408,
				"method": "rhf"
			},
			{
				"type": "occ",
				"energy": -0.20314,
				"method": "rhf"
			},
			{
				"type": "unocc",
				"energy": -0.01684,
				"method": "rhf"
			},
			{
				"type": "unocc",
				"energy": -0.002,
				"method": "rhf"
			},
			{
				"type": "unocc",
				"energy": 0.02921,
				"method": "rhf"
			},
			{
				"type": "unocc",
				"energy": 0.04102,
				"method": "rhf"
			},
			{
				"type": "unocc",
				"energy": 0.0682,
				"method": "rhf"
			}
		],
		"cosmo_sigma_profile": { 
			"-0.025": 0.0,
			"-0.024": 0.0,
			"-0.023": 0.0,
			"-0.022": 0.0,
			"-0.021": 0.0,
			"-0.02": 0.0,
			"-0.019": 0.0,
			"-0.018": 0.0,
			"-0.017": 0.0,
			"-0.016": 0.0,
			"-0.015": 0.0,
			"-0.014": 0.0,
			"-0.013": 1.21336729067,
			"-0.012": 3.22443174229,
			"-0.011": 3.9710549946,
			"-0.01": 4.74494952917,
			"-0.009": 4.76244102068,
			"-0.008": 4.74624817536,
			"-0.007": 7.25152189431,
			"-0.006": 11.1613717236,
			"-0.005": 13.3817792694,
			"-0.004": 13.7821954235,
			"-0.003": 12.0054297382,
			"-0.002": 10.7939924629,
			"-0.001": 8.42655770509,
			"0.0": 13.442251278,
			"0.001": 14.0314286689,
			"0.002": 13.0239528456,
			"0.003": 18.0383853298,
			"0.004": 17.9262438958,
			"0.005": 19.2849367978,
			"0.006": 8.30621446218,
			"0.007": 5.15904300583,
			"0.008": 2.89844392638,
			"0.009": 2.04772049821,
			"0.01": 1.90598353723,
			"0.011": 1.83173652825,
			"0.012": 2.05859135321,
			"0.013": 1.44845793493,
			"0.014": 1.36161869443,
			"0.015": 0.93089665508,
			"0.016": 0.816502411662,
			"0.017": 0.483603427936,
			"0.018": 0.0,
			"0.019": 0.0,
			"0.02": 0.0,
			"0.021": 0.0,
			"0.022": 0.0,
			"0.023": 0.0,
			"0.024": 0.0,
			"0.025": 0.0
		}
	}
}
