{
	 "smiles": "CCCCCCCCI", 
	 "Tm": 228.15, 
	 "num_atms": 26, 
	 "gaussian": { 
		 "optdone": 1, 
		 "sigma_profile": "no", 
		 "theory": "DFT", 
		 "functional": "B3LYP", 
		 "basiset": "6-31G**", 
		 "properties": { 
			 "R2extent": 2426.7731, 
			 "electric_dipole_moment_norm": 2.5428673363, 
			 "electric_quadrupole_moment_norm": 11.6380442893, 
			 "total_energy": -326.51177933, 
			 "HOMO_LUMO_gap": 0.21474, 
			 "cosmo_polarized_energy": -112030.49, 
			 "cosmo_cavitation_energy": 29.95, 
			 "cosmo_dispersion_energy": -22.46, 
			 "cosmo_repulsion_energy": 1.86, 
			 "cosmo_total_nonelectrostatic_energy": 9.36, 
			 "SMD_solvation_energy": 3.42 
		},
		"coords": [
			{
				"x": 0.2196118793,
				"y": 1.9374399405,
				"z": -2.2715832594,
				"element": "C" 
			},
			{
				"x": -0.650203267,
				"y": 1.1753288518,
				"z": -1.2663827392,
				"element": "C" 
			},
			{
				"x": -1.6044207683,
				"y": 0.1767629077,
				"z": -1.9407605113,
				"element": "C" 
			},
			{
				"x": -2.550733665,
				"y": -0.5921848056,
				"z": -0.9929655198,
				"element": "C" 
			},
			{
				"x": -2.0267714126,
				"y": -1.9358368468,
				"z": -0.449530908,
				"element": "C" 
			},
			{
				"x": -0.8002701975,
				"y": -1.9000542711,
				"z": 0.4801481492,
				"element": "C" 
			},
			{
				"x": -1.0402514498,
				"y": -1.1474423128,
				"z": 1.8019499451,
				"element": "C" 
			},
			{
				"x": 0.1833750051,
				"y": -1.2280377951,
				"z": 2.7037904724,
				"element": "C" 
			},
			{
				"x": -0.0939925601,
				"y": -0.1762442297,
				"z": 4.6068310718,
				"element": "I" 
			},
			{
				"x": 0.8511728475,
				"y": 1.2525654298,
				"z": -2.8491311881,
				"element": "H" 
			},
			{
				"x": -0.3975027025,
				"y": 2.4958650438,
				"z": -2.9848493632,
				"element": "H" 
			},
			{
				"x": 0.8783766913,
				"y": 2.6537146503,
				"z": -1.769882164,
				"element": "H" 
			},
			{
				"x": -1.2423564569,
				"y": 1.8910838262,
				"z": -0.6799835134,
				"element": "H" 
			},
			{
				"x": -0.0018019579,
				"y": 0.6598806579,
				"z": -0.5478163206,
				"element": "H" 
			},
			{
				"x": -2.2123782165,
				"y": 0.7370121522,
				"z": -2.6636943152,
				"element": "H" 
			},
			{
				"x": -1.0227080298,
				"y": -0.5403763367,
				"z": -2.5381717398,
				"element": "H" 
			},
			{
				"x": -3.4780358478,
				"y": -0.8148007043,
				"z": -1.535344517,
				"element": "H" 
			},
			{
				"x": -2.8499116362,
				"y": 0.0633978263,
				"z": -0.1641076191,
				"element": "H" 
			},
			{
				"x": -2.8475392146,
				"y": -2.4348689584,
				"z": 0.0837172253,
				"element": "H" 
			},
			{
				"x": -1.7874566543,
				"y": -2.5825938049,
				"z": -1.3044271714,
				"element": "H" 
			},
			{
				"x": -0.5151839822,
				"y": -2.9357793188,
				"z": 0.7092673891,
				"element": "H" 
			},
			{
				"x": 0.0581591026,
				"y": -1.4618099752,
				"z": -0.0441862723,
				"element": "H" 
			},
			{
				"x": -1.9077430913,
				"y": -1.5769022067,
				"z": 2.3167007458,
				"element": "H" 
			},
			{
				"x": -1.2790590219,
				"y": -0.0976161767,
				"z": 1.6049506177,
				"element": "H" 
			},
			{
				"x": 1.0623374596,
				"y": -0.759412475,
				"z": 2.2609742357,
				"element": "H" 
			},
			{
				"x": 0.4263871471,
				"y": -2.2507910689,
				"z": 2.9919872696,
				"element": "H" 
			}
		],
		 "valence_orbital": [ 
			{
				"type": "occ",
				"energy": -0.31574,
				"method": "rhf"
			},
			{
				"type": "occ",
				"energy": -0.31137,
				"method": "rhf"
			},
			{
				"type": "occ",
				"energy": -0.30965,
				"method": "rhf"
			},
			{
				"type": "occ",
				"energy": -0.25466,
				"method": "rhf"
			},
			{
				"type": "occ",
				"energy": -0.25418,
				"method": "rhf"
			},
			{
				"type": "unocc",
				"energy": -0.03944,
				"method": "rhf"
			},
			{
				"type": "unocc",
				"energy": 0.04177,
				"method": "rhf"
			},
			{
				"type": "unocc",
				"energy": 0.04186,
				"method": "rhf"
			},
			{
				"type": "unocc",
				"energy": 0.05506,
				"method": "rhf"
			},
			{
				"type": "unocc",
				"energy": 0.0842,
				"method": "rhf"
			}
		],
		"cosmo_sigma_profile": { 
			"0.0": 0.0,
			"0.0": 0.0,
			"0.0": 0.0,
			"0.0": 0.0,
			"0.0": 0.0,
			"0.0": 0.0,
			"0.0": 0.0,
			"0.0": 0.0,
			"0.0": 0.0,
			"0.0": 0.0,
			"0.0": 0.0,
			"0.0": 0.0,
			"0.0": 0.0,
			"0.0": 0.0,
			"0.0": 0.0,
			"0.0": 0.0,
			"0.0": 0.0,
			"0.0": 0.0,
			"0.0": 0.0,
			"0.0": 0.0,
			"0.0": 0.0,
			"0.0": 0.0,
			"0.0": 0.0,
			"0.0": 0.0,
			"0.0": 0.0,
			"0.0": 0.0,
			"0.0": 0.0,
			"0.0": 0.0,
			"0.0": 0.0,
			"0.0": 0.0,
			"0.0": 0.0,
			"0.0": 0.0,
			"0.0": 0.0,
			"0.0": 0.0,
			"0.0": 0.0,
			"0.0": 0.0,
			"0.0": 0.0,
			"0.0": 0.0,
			"0.0": 0.0,
			"0.0": 0.0,
			"0.0": 0.0,
			"0.0": 0.0,
			"0.0": 0.0,
			"0.0": 0.0,
			"0.0": 0.0,
			"0.0": 0.0,
			"0.0": 0.0,
			"0.0": 0.0,
			"0.0": 0.0,
			"0.0": 0.0,
			"0.0": 0.0
		}
	}
}
