{
	 "smiles": "CC(C)(C)C1=CC=C(CC(C#N)C(N)=O)C=C1", 
	 "Tm": 417.15, 
	 "num_atms": 35, 
	 "gaussian": { 
		 "optdone": 1, 
		 "sigma_profile": "yes", 
		 "theory": "DFT", 
		 "functional": "B3LYP", 
		 "basiset": "6-31G**", 
		 "properties": { 
			 "R2extent": 5191.2441, 
			 "electric_dipole_moment_norm": 6.12089861213, 
			 "electric_quadrupole_moment_norm": 30.6125624114, 
			 "total_energy": -729.074726173, 
			 "HOMO_LUMO_gap": 0.2297, 
			 "cosmo_polarized_energy": -24.28, 
			 "cosmo_cavitation_energy": 38.1, 
			 "cosmo_dispersion_energy": -25.12, 
			 "cosmo_repulsion_energy": 1.98, 
			 "cosmo_total_nonelectrostatic_energy": 14.96, 
			 "SMD_solvation_energy": 8.38 
		},
		"coords": [
			{
				"x": -3.1730002782,
				"y": -1.4523097876,
				"z": -1.785222803,
				"element": "C" 
			},
			{
				"x": -1.8669363163,
				"y": -2.2277124297,
				"z": -1.4892094932,
				"element": "C" 
			},
			{
				"x": -2.2036565068,
				"y": -3.5195979239,
				"z": -0.7069082324,
				"element": "C" 
			},
			{
				"x": -1.233235524,
				"y": -2.6318156269,
				"z": -2.8338788491,
				"element": "C" 
			},
			{
				"x": -0.9310890845,
				"y": -1.3450652138,
				"z": -0.643667913,
				"element": "C" 
			},
			{
				"x": 0.3485048027,
				"y": -0.9635200813,
				"z": -1.0685388822,
				"element": "C" 
			},
			{
				"x": 1.1714104962,
				"y": -0.1600965851,
				"z": -0.277094956,
				"element": "C" 
			},
			{
				"x": 0.7439200626,
				"y": 0.2980433513,
				"z": 0.9723783389,
				"element": "C" 
			},
			{
				"x": 1.6289795048,
				"y": 1.175789242,
				"z": 1.827872146,
				"element": "C" 
			},
			{
				"x": 1.5183154883,
				"y": 2.7133045429,
				"z": 1.5382299423,
				"element": "C" 
			},
			{
				"x": 1.9954260446,
				"y": 3.0406856412,
				"z": 0.1916522811,
				"element": "C" 
			},
			{
				"x": 2.4403060957,
				"y": 3.271908305,
				"z": -0.8543123748,
				"element": "N" 
			},
			{
				"x": 0.0826956617,
				"y": 3.2460258136,
				"z": 1.753055623,
				"element": "C" 
			},
			{
				"x": -0.2866212924,
				"y": 3.3073049123,
				"z": 3.0712575016,
				"element": "N" 
			},
			{
				"x": -0.6633365101,
				"y": 3.5397225286,
				"z": 0.8399478385,
				"element": "O" 
			},
			{
				"x": -0.532354115,
				"y": -0.0817183367,
				"z": 1.4080426156,
				"element": "C" 
			},
			{
				"x": -1.3487445443,
				"y": -0.8842118911,
				"z": 0.6165307132,
				"element": "C" 
			},
			{
				"x": -2.9645920166,
				"y": -0.533410105,
				"z": -2.342486328,
				"element": "H" 
			},
			{
				"x": -3.8538886521,
				"y": -2.0677586351,
				"z": -2.3842127958,
				"element": "H" 
			},
			{
				"x": -3.6978999858,
				"y": -1.1726655964,
				"z": -0.8669543876,
				"element": "H" 
			},
			{
				"x": -1.2969032358,
				"y": -4.0937036403,
				"z": -0.4892097564,
				"element": "H" 
			},
			{
				"x": -2.6978474747,
				"y": -3.3027076033,
				"z": 0.2448245601,
				"element": "H" 
			},
			{
				"x": -2.8760433737,
				"y": -4.1559966276,
				"z": -1.2933847671,
				"element": "H" 
			},
			{
				"x": -1.9341795823,
				"y": -3.255031198,
				"z": -3.3986763895,
				"element": "H" 
			},
			{
				"x": -0.315183445,
				"y": -3.212245782,
				"z": -2.694413028,
				"element": "H" 
			},
			{
				"x": -0.9965910169,
				"y": -1.7593027598,
				"z": -3.4514034365,
				"element": "H" 
			},
			{
				"x": 0.7249808412,
				"y": -1.2908644299,
				"z": -2.0306193989,
				"element": "H" 
			},
			{
				"x": 2.1555771223,
				"y": 0.1170216073,
				"z": -0.644987546,
				"element": "H" 
			},
			{
				"x": 1.3899898942,
				"y": 1.0295626278,
				"z": 2.8863586689,
				"element": "H" 
			},
			{
				"x": 2.6798584409,
				"y": 0.8985979868,
				"z": 1.6961828862,
				"element": "H" 
			},
			{
				"x": 2.1875830854,
				"y": 3.2248830608,
				"z": 2.2440656405,
				"element": "H" 
			},
			{
				"x": 0.3809076967,
				"y": 3.2392719138,
				"z": 3.8228546451,
				"element": "H" 
			},
			{
				"x": -1.1920228267,
				"y": 3.7046065037,
				"z": 3.2742029946,
				"element": "H" 
			},
			{
				"x": -0.8924705517,
				"y": 0.2563751449,
				"z": 2.3767185517,
				"element": "H" 
			},
			{
				"x": -2.3308589045,
				"y": -1.1549689285,
				"z": 0.99300639,
				"element": "H" 
			}
		],
		 "valence_orbital": [ 
			{
				"type": "occ",
				"energy": -0.31116,
				"method": "rhf"
			},
			{
				"type": "occ",
				"energy": -0.28607,
				"method": "rhf"
			},
			{
				"type": "occ",
				"energy": -0.26577,
				"method": "rhf"
			},
			{
				"type": "occ",
				"energy": -0.24595,
				"method": "rhf"
			},
			{
				"type": "occ",
				"energy": -0.23523,
				"method": "rhf"
			},
			{
				"type": "unocc",
				"energy": -0.00553,
				"method": "rhf"
			},
			{
				"type": "unocc",
				"energy": -0.00201,
				"method": "rhf"
			},
			{
				"type": "unocc",
				"energy": 0.00628,
				"method": "rhf"
			},
			{
				"type": "unocc",
				"energy": 0.03404,
				"method": "rhf"
			},
			{
				"type": "unocc",
				"energy": 0.04082,
				"method": "rhf"
			}
		],
		"cosmo_sigma_profile": { 
			"-0.025": 0.0,
			"-0.024": 0.0,
			"-0.023": 0.0,
			"-0.022": 0.0,
			"-0.021": 0.0,
			"-0.02": 0.0,
			"-0.019": 0.0,
			"-0.018": 0.0,
			"-0.017": 0.0,
			"-0.016": 0.0629614045431,
			"-0.015": 1.96575371901,
			"-0.014": 3.08305151539,
			"-0.013": 3.17713981266,
			"-0.012": 3.29508452435,
			"-0.011": 2.67733659639,
			"-0.01": 4.40965614454,
			"-0.009": 4.2900174246,
			"-0.008": 4.19499456428,
			"-0.007": 4.42661334901,
			"-0.006": 7.26008078032,
			"-0.005": 13.6708503059,
			"-0.004": 15.3605785646,
			"-0.003": 24.3511504731,
			"-0.002": 30.4109534569,
			"-0.001": 24.5324466883,
			"0.0": 24.1662096794,
			"0.001": 28.7569127684,
			"0.002": 16.7961860982,
			"0.003": 9.77086881962,
			"0.004": 9.60473922631,
			"0.005": 10.7817993393,
			"0.006": 10.3656403418,
			"0.007": 6.73990072752,
			"0.008": 5.95507516784,
			"0.009": 5.57749253683,
			"0.01": 4.77987533294,
			"0.011": 5.17290267205,
			"0.012": 5.64244214028,
			"0.013": 6.72931994202,
			"0.014": 0.857644632762,
			"0.015": 0.0,
			"0.016": 0.0,
			"0.017": 0.0,
			"0.018": 0.0,
			"0.019": 0.0,
			"0.02": 0.0,
			"0.021": 0.0,
			"0.022": 0.0,
			"0.023": 0.0,
			"0.024": 0.0,
			"0.025": 0.0
		}
	}
}
