{
	 "smiles": "NC1=CC(=NO1)C1CCCCC1", 
	 "Tm": 401.15, 
	 "num_atms": 26, 
	 "gaussian": { 
		 "optdone": 1, 
		 "sigma_profile": "yes", 
		 "theory": "DFT", 
		 "functional": "B3LYP", 
		 "basiset": "6-31G**", 
		 "properties": { 
			 "R2extent": 3052.4663, 
			 "electric_dipole_moment_norm": 3.58936575734, 
			 "electric_quadrupole_moment_norm": 16.4229873354, 
			 "total_energy": -536.08322265, 
			 "HOMO_LUMO_gap": 0.23156, 
			 "cosmo_polarized_energy": -12.64, 
			 "cosmo_cavitation_energy": 27.63, 
			 "cosmo_dispersion_energy": -20.48, 
			 "cosmo_repulsion_energy": 1.66, 
			 "cosmo_total_nonelectrostatic_energy": 8.82, 
			 "SMD_solvation_energy": 3.83 
		},
		"coords": [
			{
				"x": 0.1107224227,
				"y": 2.9716055995,
				"z": 2.9434569902,
				"element": "N" 
			},
			{
				"x": 0.3416538701,
				"y": 1.6943592359,
				"z": 2.4870488155,
				"element": "C" 
			},
			{
				"x": 0.0986953714,
				"y": 1.0609363772,
				"z": 1.2966382938,
				"element": "C" 
			},
			{
				"x": 0.6642008096,
				"y": -0.2343052969,
				"z": 1.4900112371,
				"element": "C" 
			},
			{
				"x": 1.1981476624,
				"y": -0.3760234505,
				"z": 2.6841373286,
				"element": "N" 
			},
			{
				"x": 0.9881937483,
				"y": 0.875071828,
				"z": 3.3315650356,
				"element": "O" 
			},
			{
				"x": 0.7053099176,
				"y": -1.3903973718,
				"z": 0.5287516029,
				"element": "C" 
			},
			{
				"x": 1.5568784965,
				"y": -1.0635177372,
				"z": -0.7318803629,
				"element": "C" 
			},
			{
				"x": 1.1820651594,
				"y": -1.9457391352,
				"z": -1.9464263366,
				"element": "C" 
			},
			{
				"x": 0.6697152774,
				"y": -3.3209075907,
				"z": -1.4996407551,
				"element": "C" 
			},
			{
				"x": -0.6362936014,
				"y": -3.1856974233,
				"z": -0.6805339671,
				"element": "C" 
			},
			{
				"x": -0.7044636238,
				"y": -1.8565082414,
				"z": 0.1091622813,
				"element": "C" 
			},
			{
				"x": 0.1191136076,
				"y": 3.0599684956,
				"z": 3.9510049708,
				"element": "H" 
			},
			{
				"x": -0.666447271,
				"y": 3.446885384,
				"z": 2.5078901825,
				"element": "H" 
			},
			{
				"x": -0.3956637246,
				"y": 1.455550208,
				"z": 0.4229548942,
				"element": "H" 
			},
			{
				"x": 1.182855117,
				"y": -2.214579886,
				"z": 1.0720894789,
				"element": "H" 
			},
			{
				"x": 1.4335181111,
				"y": -0.006473332,
				"z": -0.9945470251,
				"element": "H" 
			},
			{
				"x": 2.6152090599,
				"y": -1.1933226397,
				"z": -0.4788248821,
				"element": "H" 
			},
			{
				"x": 2.0464994005,
				"y": -2.0498355259,
				"z": -2.6116123793,
				"element": "H" 
			},
			{
				"x": 0.4001722513,
				"y": -1.4525621025,
				"z": -2.5389943254,
				"element": "H" 
			},
			{
				"x": 0.5071120354,
				"y": -3.9742039505,
				"z": -2.3640949895,
				"element": "H" 
			},
			{
				"x": 1.4434358842,
				"y": -3.807426948,
				"z": -0.8915626445,
				"element": "H" 
			},
			{
				"x": -1.5033999758,
				"y": -3.2486004773,
				"z": -1.3488053757,
				"element": "H" 
			},
			{
				"x": -0.7207576893,
				"y": -4.0314465815,
				"z": 0.0118341437,
				"element": "H" 
			},
			{
				"x": -1.16669002,
				"y": -1.0743205422,
				"z": -0.5072739871,
				"element": "H" 
			},
			{
				"x": -1.3442822965,
				"y": -1.9704088956,
				"z": 0.9904517755,
				"element": "H" 
			}
		],
		 "valence_orbital": [ 
			{
				"type": "occ",
				"energy": -0.30325,
				"method": "rhf"
			},
			{
				"type": "occ",
				"energy": -0.29689,
				"method": "rhf"
			},
			{
				"type": "occ",
				"energy": -0.28816,
				"method": "rhf"
			},
			{
				"type": "occ",
				"energy": -0.26731,
				"method": "rhf"
			},
			{
				"type": "occ",
				"energy": -0.21251,
				"method": "rhf"
			},
			{
				"type": "unocc",
				"energy": 0.01905,
				"method": "rhf"
			},
			{
				"type": "unocc",
				"energy": 0.06177,
				"method": "rhf"
			},
			{
				"type": "unocc",
				"energy": 0.07905,
				"method": "rhf"
			},
			{
				"type": "unocc",
				"energy": 0.08521,
				"method": "rhf"
			},
			{
				"type": "unocc",
				"energy": 0.10184,
				"method": "rhf"
			}
		],
		"cosmo_sigma_profile": { 
			"-0.025": 0.0,
			"-0.024": 0.0,
			"-0.023": 0.0,
			"-0.022": 0.0,
			"-0.021": 0.0,
			"-0.02": 0.0,
			"-0.019": 0.0,
			"-0.018": 0.0,
			"-0.017": 0.0,
			"-0.016": 0.0,
			"-0.015": 0.176005410801,
			"-0.014": 2.75598732812,
			"-0.013": 2.38012450177,
			"-0.012": 2.48323082723,
			"-0.011": 2.69474097001,
			"-0.01": 2.95117666848,
			"-0.009": 1.75841091724,
			"-0.008": 1.97635395062,
			"-0.007": 3.54662509491,
			"-0.006": 2.78079887928,
			"-0.005": 2.96394133594,
			"-0.004": 3.56979935342,
			"-0.003": 14.1013420363,
			"-0.002": 30.0304489543,
			"-0.001": 32.8012047161,
			"0.0": 25.8551514703,
			"0.001": 24.8364359956,
			"0.002": 10.0429341798,
			"0.003": 6.52191942786,
			"0.004": 7.01952341068,
			"0.005": 5.27064435549,
			"0.006": 3.58204481154,
			"0.007": 2.56882837946,
			"0.008": 3.68902061915,
			"0.009": 5.83358240368,
			"0.01": 3.09821053133,
			"0.011": 2.17036484586,
			"0.012": 2.20579756989,
			"0.013": 1.3622154677,
			"0.014": 1.67573512535,
			"0.015": 1.31561071011,
			"0.016": 0.854063196721,
			"0.017": 0.0,
			"0.018": 0.0,
			"0.019": 0.0,
			"0.02": 0.0,
			"0.021": 0.0,
			"0.022": 0.0,
			"0.023": 0.0,
			"0.024": 0.0,
			"0.025": 0.0
		}
	}
}
