{
	 "smiles": "OC(=O)C1=C(OCC2=CC=CC=C2)C=CC(Br)=C1", 
	 "Tm": 601.15, 
	 "num_atms": 29, 
	 "gaussian": { 
		 "optdone": 1, 
		 "sigma_profile": "yes", 
		 "theory": "DFT", 
		 "functional": "B3LYP", 
		 "basiset": "6-31G**", 
		 "properties": { 
			 "R2extent": 9580.9675, 
			 "electric_dipole_moment_norm": 1.34128899943, 
			 "electric_quadrupole_moment_norm": 15.1993546636, 
			 "total_energy": -3337.19612955, 
			 "HOMO_LUMO_gap": 0.18339, 
			 "cosmo_polarized_energy": -11.46, 
			 "cosmo_cavitation_energy": 36.27, 
			 "cosmo_dispersion_energy": -25.68, 
			 "cosmo_repulsion_energy": 2.0, 
			 "cosmo_total_nonelectrostatic_energy": 12.59, 
			 "SMD_solvation_energy": 6.1 
		},
		"coords": [
			{
				"x": 0.8197086226,
				"y": 2.1455319428,
				"z": 3.5404073606,
				"element": "O" 
			},
			{
				"x": 0.573467838,
				"y": 1.3460495449,
				"z": 2.4697001171,
				"element": "C" 
			},
			{
				"x": 1.1410777112,
				"y": 0.2803834909,
				"z": 2.33424307,
				"element": "O" 
			},
			{
				"x": -0.424706342,
				"y": 1.9440631354,
				"z": 1.540172849,
				"element": "C" 
			},
			{
				"x": -1.1012417661,
				"y": 1.1661621618,
				"z": 0.5712552855,
				"element": "C" 
			},
			{
				"x": -0.9395702238,
				"y": -0.1871349768,
				"z": 0.4747637573,
				"element": "O" 
			},
			{
				"x": 0.172469199,
				"y": -0.6662516975,
				"z": -0.3211869145,
				"element": "C" 
			},
			{
				"x": -0.0885581757,
				"y": -0.5632483922,
				"z": -1.8060471208,
				"element": "C" 
			},
			{
				"x": 0.7380052907,
				"y": 0.2103189928,
				"z": -2.6274089331,
				"element": "C" 
			},
			{
				"x": 0.5012898095,
				"y": 0.2937821107,
				"z": -4.0020925975,
				"element": "C" 
			},
			{
				"x": -0.5737339796,
				"y": -0.3916978029,
				"z": -4.5672560242,
				"element": "C" 
			},
			{
				"x": -1.4098610714,
				"y": -1.1635245581,
				"z": -3.7542021472,
				"element": "C" 
			},
			{
				"x": -1.1664053788,
				"y": -1.2500071517,
				"z": -2.384782873,
				"element": "C" 
			},
			{
				"x": -2.0489118009,
				"y": 1.7793852045,
				"z": -0.2573395938,
				"element": "C" 
			},
			{
				"x": -2.3259679692,
				"y": 3.1389239622,
				"z": -0.1544688916,
				"element": "C" 
			},
			{
				"x": -1.6507026945,
				"y": 3.8997418633,
				"z": 0.7998572802,
				"element": "C" 
			},
			{
				"x": -2.0209794963,
				"y": 5.7682443804,
				"z": 0.9519171233,
				"element": "Br" 
			},
			{
				"x": -0.7194141664,
				"y": 3.3144933446,
				"z": 1.646324351,
				"element": "C" 
			},
			{
				"x": 1.4945278557,
				"y": 1.6801484033,
				"z": 4.0614480762,
				"element": "H" 
			},
			{
				"x": 0.2802497155,
				"y": -1.7091133957,
				"z": -0.0117647469,
				"element": "H" 
			},
			{
				"x": 1.0852218449,
				"y": -0.1385625546,
				"z": -0.0352453314,
				"element": "H" 
			},
			{
				"x": 1.5740462716,
				"y": 0.7493761391,
				"z": -2.1885214888,
				"element": "H" 
			},
			{
				"x": 1.1533299652,
				"y": 0.8968122424,
				"z": -4.6276009538,
				"element": "H" 
			},
			{
				"x": -0.7610067266,
				"y": -0.3273682895,
				"z": -5.6353382846,
				"element": "H" 
			},
			{
				"x": -2.2468093661,
				"y": -1.7014629799,
				"z": -4.1906871119,
				"element": "H" 
			},
			{
				"x": -1.8159604713,
				"y": -1.8493139466,
				"z": -1.7519600983,
				"element": "H" 
			},
			{
				"x": -2.5668342617,
				"y": 1.1631396381,
				"z": -0.98319058,
				"element": "H" 
			},
			{
				"x": -3.0578593082,
				"y": 3.6023859345,
				"z": -0.8064017372,
				"element": "H" 
			},
			{
				"x": -0.2131709253,
				"y": 3.9085432536,
				"z": 2.3956061584,
				"element": "H" 
			}
		],
		 "valence_orbital": [ 
			{
				"type": "occ",
				"energy": -0.27581,
				"method": "rhf"
			},
			{
				"type": "occ",
				"energy": -0.27217,
				"method": "rhf"
			},
			{
				"type": "occ",
				"energy": -0.25497,
				"method": "rhf"
			},
			{
				"type": "occ",
				"energy": -0.25055,
				"method": "rhf"
			},
			{
				"type": "occ",
				"energy": -0.23999,
				"method": "rhf"
			},
			{
				"type": "unocc",
				"energy": -0.0566,
				"method": "rhf"
			},
			{
				"type": "unocc",
				"energy": -0.02068,
				"method": "rhf"
			},
			{
				"type": "unocc",
				"energy": -0.01092,
				"method": "rhf"
			},
			{
				"type": "unocc",
				"energy": -0.00424,
				"method": "rhf"
			},
			{
				"type": "unocc",
				"energy": 0.0035,
				"method": "rhf"
			}
		],
		"cosmo_sigma_profile": { 
			"-0.025": 0.0,
			"-0.024": 0.0,
			"-0.023": 0.0,
			"-0.022": 0.0,
			"-0.021": 0.0,
			"-0.02": 0.0,
			"-0.019": 0.0755904605841,
			"-0.018": 0.78403376766,
			"-0.017": 1.11226710782,
			"-0.016": 0.640872824322,
			"-0.015": 0.587960385153,
			"-0.014": 0.653310965159,
			"-0.013": 0.79926529231,
			"-0.012": 0.685085421671,
			"-0.011": 0.969453567162,
			"-0.01": 0.828630211858,
			"-0.009": 0.0895481104003,
			"-0.008": 1.63946219456,
			"-0.007": 3.97437554119,
			"-0.006": 13.3719178695,
			"-0.005": 20.8969697752,
			"-0.004": 21.3352559302,
			"-0.003": 22.0907585349,
			"-0.002": 21.0319941464,
			"-0.001": 19.2716219266,
			"0.0": 22.7658081763,
			"0.001": 29.16938518,
			"0.002": 25.3985502295,
			"0.003": 20.7738383624,
			"0.004": 23.2606692367,
			"0.005": 14.7597931949,
			"0.006": 7.71931438663,
			"0.007": 2.74610348297,
			"0.008": 2.57259430741,
			"0.009": 3.23892443377,
			"0.01": 3.46407067698,
			"0.011": 5.07600531868,
			"0.012": 1.91658650018,
			"0.013": 0.0,
			"0.014": 0.0,
			"0.015": 0.0,
			"0.016": 0.0,
			"0.017": 0.0,
			"0.018": 0.0,
			"0.019": 0.0,
			"0.02": 0.0,
			"0.021": 0.0,
			"0.022": 0.0,
			"0.023": 0.0,
			"0.024": 0.0,
			"0.025": 0.0
		}
	}
}
