{
	 "smiles": "COC(=O)C1CC2(CC1C=C2)C(=O)OC", 
	 "Tm": 311.15, 
	 "num_atms": 29, 
	 "gaussian": { 
		 "optdone": 1, 
		 "sigma_profile": "yes", 
		 "theory": "DFT", 
		 "functional": "B3LYP", 
		 "basiset": "6-31G**", 
		 "properties": { 
			 "R2extent": 3666.2593, 
			 "electric_dipole_moment_norm": 2.09730827968, 
			 "electric_quadrupole_moment_norm": 11.0155039095, 
			 "total_energy": -728.483374701, 
			 "HOMO_LUMO_gap": 0.24299, 
			 "cosmo_polarized_energy": -11.2, 
			 "cosmo_cavitation_energy": 31.77, 
			 "cosmo_dispersion_energy": -22.51, 
			 "cosmo_repulsion_energy": 1.79, 
			 "cosmo_total_nonelectrostatic_energy": 11.06, 
			 "SMD_solvation_energy": 8.09 
		},
		"coords": [
			{
				"x": 2.3798301968,
				"y": -1.4601125987,
				"z": -3.3217803585,
				"element": "C" 
			},
			{
				"x": 2.0494719091,
				"y": -1.6530589209,
				"z": -1.9364924819,
				"element": "O" 
			},
			{
				"x": 0.9909198418,
				"y": -0.9392785316,
				"z": -1.4886778141,
				"element": "C" 
			},
			{
				"x": 0.348676379,
				"y": -0.1915922151,
				"z": -2.1981059655,
				"element": "O" 
			},
			{
				"x": 0.7784791954,
				"y": -1.1691998348,
				"z": -0.0052809599,
				"element": "C" 
			},
			{
				"x": -0.6863022214,
				"y": -0.912441567,
				"z": 0.448928033,
				"element": "C" 
			},
			{
				"x": -0.5319133799,
				"y": 0.2227381328,
				"z": 1.5361243493,
				"element": "C" 
			},
			{
				"x": 0.5812474569,
				"y": 1.070832855,
				"z": 0.8628844544,
				"element": "C" 
			},
			{
				"x": 1.5892504239,
				"y": -0.0996763649,
				"z": 0.8450343593,
				"element": "C" 
			},
			{
				"x": 1.4987955393,
				"y": -0.5761734058,
				"z": 2.2871233326,
				"element": "C" 
			},
			{
				"x": 0.238377886,
				"y": -0.3870515271,
				"z": 2.6969400371,
				"element": "C" 
			},
			{
				"x": -1.828793147,
				"y": 0.9002382528,
				"z": 1.9043958525,
				"element": "C" 
			},
			{
				"x": -2.382967828,
				"y": 0.8139771233,
				"z": 2.9808677301,
				"element": "O" 
			},
			{
				"x": -2.3224177741,
				"y": 1.6177782667,
				"z": 0.8704527379,
				"element": "O" 
			},
			{
				"x": -3.5710319178,
				"y": 2.2822178771,
				"z": 1.1213276541,
				"element": "C" 
			},
			{
				"x": 3.2386762471,
				"y": -2.1035992216,
				"z": -3.5125279069,
				"element": "H" 
			},
			{
				"x": 1.5393585228,
				"y": -1.7422003548,
				"z": -3.9608076371,
				"element": "H" 
			},
			{
				"x": 2.6326116865,
				"y": -0.4147135341,
				"z": -3.5165500464,
				"element": "H" 
			},
			{
				"x": 1.1297373404,
				"y": -2.1744276175,
				"z": 0.2349774545,
				"element": "H" 
			},
			{
				"x": -1.2860994104,
				"y": -0.546773537,
				"z": -0.3869930397,
				"element": "H" 
			},
			{
				"x": -1.1580077857,
				"y": -1.8057414829,
				"z": 0.8642443871,
				"element": "H" 
			},
			{
				"x": 0.9139299987,
				"y": 1.9000727359,
				"z": 1.4927841447,
				"element": "H" 
			},
			{
				"x": 0.3009706961,
				"y": 1.4327300795,
				"z": -0.1289771101,
				"element": "H" 
			},
			{
				"x": 2.5908517409,
				"y": 0.1007580206,
				"z": 0.4599685564,
				"element": "H" 
			},
			{
				"x": 2.2979063378,
				"y": -1.0774750146,
				"z": 2.82218666,
				"element": "H" 
			},
			{
				"x": -0.2225838336,
				"y": -0.6769771058,
				"z": 3.6330685519,
				"element": "H" 
			},
			{
				"x": -3.8179667867,
				"y": 2.803743187,
				"z": 0.1967221418,
				"element": "H" 
			},
			{
				"x": -3.4710808093,
				"y": 2.9907518995,
				"z": 1.9474833959,
				"element": "H" 
			},
			{
				"x": -4.3495265046,
				"y": 1.5575544041,
				"z": 1.3732794875,
				"element": "H" 
			}
		],
		 "valence_orbital": [ 
			{
				"type": "occ",
				"energy": -0.30313,
				"method": "rhf"
			},
			{
				"type": "occ",
				"energy": -0.29816,
				"method": "rhf"
			},
			{
				"type": "occ",
				"energy": -0.27319,
				"method": "rhf"
			},
			{
				"type": "occ",
				"energy": -0.26629,
				"method": "rhf"
			},
			{
				"type": "occ",
				"energy": -0.24366,
				"method": "rhf"
			},
			{
				"type": "unocc",
				"energy": -0.00067,
				"method": "rhf"
			},
			{
				"type": "unocc",
				"energy": 0.00948,
				"method": "rhf"
			},
			{
				"type": "unocc",
				"energy": 0.02307,
				"method": "rhf"
			},
			{
				"type": "unocc",
				"energy": 0.09911,
				"method": "rhf"
			},
			{
				"type": "unocc",
				"energy": 0.10844,
				"method": "rhf"
			}
		],
		"cosmo_sigma_profile": { 
			"-0.025": 0.0,
			"-0.024": 0.0,
			"-0.023": 0.0,
			"-0.022": 0.0,
			"-0.021": 0.0,
			"-0.02": 0.0,
			"-0.019": 0.0,
			"-0.018": 0.0,
			"-0.017": 0.0,
			"-0.016": 0.0,
			"-0.015": 0.0,
			"-0.014": 0.0,
			"-0.013": 0.0,
			"-0.012": 0.0,
			"-0.011": 0.0,
			"-0.01": 0.0,
			"-0.009": 0.0,
			"-0.008": 0.0,
			"-0.007": 1.32566645555,
			"-0.006": 10.5677090107,
			"-0.005": 20.9620407167,
			"-0.004": 29.8762536901,
			"-0.003": 36.0495575896,
			"-0.002": 26.7335771461,
			"-0.001": 21.6987260291,
			"0.0": 15.9023618339,
			"0.001": 12.0371803064,
			"0.002": 9.46044154569,
			"0.003": 10.7425062284,
			"0.004": 8.59908261455,
			"0.005": 8.73708394144,
			"0.006": 5.99817696836,
			"0.007": 5.30849276961,
			"0.008": 4.32617767427,
			"0.009": 3.81790194997,
			"0.01": 3.68910083045,
			"0.011": 5.40844468606,
			"0.012": 8.06254942817,
			"0.013": 0.469474759867,
			"0.014": 0.0,
			"0.015": 0.0,
			"0.016": 0.0,
			"0.017": 0.0,
			"0.018": 0.0,
			"0.019": 0.0,
			"0.02": 0.0,
			"0.021": 0.0,
			"0.022": 0.0,
			"0.023": 0.0,
			"0.024": 0.0,
			"0.025": 0.0
		}
	}
}
