{
	 "smiles": "COC(=O)CC1=NNN=N1", 
	 "Tm": 428.15, 
	 "num_atms": 16, 
	 "gaussian": { 
		 "optdone": 1, 
		 "sigma_profile": "yes", 
		 "theory": "DFT", 
		 "functional": "B3LYP", 
		 "basiset": "6-31G**", 
		 "properties": { 
			 "R2extent": 1896.3168, 
			 "electric_dipole_moment_norm": 2.40394860386, 
			 "electric_quadrupole_moment_norm": 18.2335790091, 
			 "total_energy": -525.446339242, 
			 "HOMO_LUMO_gap": 0.24903, 
			 "cosmo_polarized_energy": -16.19, 
			 "cosmo_cavitation_energy": 21.67, 
			 "cosmo_dispersion_energy": -15.9, 
			 "cosmo_repulsion_energy": 1.33, 
			 "cosmo_total_nonelectrostatic_energy": 7.09, 
			 "SMD_solvation_energy": 2.81 
		},
		"coords": [
			{
				"x": 2.6228791843,
				"y": -1.321213942,
				"z": 2.2485889106,
				"element": "C" 
			},
			{
				"x": 2.0571821888,
				"y": -0.3529977902,
				"z": 1.3471320386,
				"element": "O" 
			},
			{
				"x": 1.0086964622,
				"y": -0.7888901987,
				"z": 0.6187257973,
				"element": "C" 
			},
			{
				"x": 0.5487853963,
				"y": -1.9045551039,
				"z": 0.6866554997,
				"element": "O" 
			},
			{
				"x": 0.4980487682,
				"y": 0.3378357415,
				"z": -0.2748722416,
				"element": "C" 
			},
			{
				"x": -0.5526081544,
				"y": -0.1146027823,
				"z": -1.2302705612,
				"element": "C" 
			},
			{
				"x": -1.8573420492,
				"y": -0.0949178855,
				"z": -0.9697708383,
				"element": "N" 
			},
			{
				"x": -2.3451415431,
				"y": -0.5971047684,
				"z": -2.0984100686,
				"element": "N" 
			},
			{
				"x": -1.4323796484,
				"y": -0.9079798058,
				"z": -3.0132304031,
				"element": "N" 
			},
			{
				"x": -0.2814698831,
				"y": -0.6030062918,
				"z": -2.4709201989,
				"element": "N" 
			},
			{
				"x": 3.4446842106,
				"y": -0.8105288554,
				"z": 2.7499449373,
				"element": "H" 
			},
			{
				"x": 1.8760280244,
				"y": -1.6527181554,
				"z": 2.9741365333,
				"element": "H" 
			},
			{
				"x": 2.9894302169,
				"y": -2.1900136843,
				"z": 1.6966171336,
				"element": "H" 
			},
			{
				"x": 1.3455901605,
				"y": 0.7574971736,
				"z": -0.8238299834,
				"element": "H" 
			},
			{
				"x": 0.1052978274,
				"y": 1.1293977826,
				"z": 0.3710841322,
				"element": "H" 
			},
			{
				"x": -3.3348811614,
				"y": -0.7306014339,
				"z": -2.2557806876,
				"element": "H" 
			}
		],
		 "valence_orbital": [ 
			{
				"type": "occ",
				"energy": -0.3216,
				"method": "rhf"
			},
			{
				"type": "occ",
				"energy": -0.30842,
				"method": "rhf"
			},
			{
				"type": "occ",
				"energy": -0.298,
				"method": "rhf"
			},
			{
				"type": "occ",
				"energy": -0.2941,
				"method": "rhf"
			},
			{
				"type": "occ",
				"energy": -0.27908,
				"method": "rhf"
			},
			{
				"type": "unocc",
				"energy": -0.03005,
				"method": "rhf"
			},
			{
				"type": "unocc",
				"energy": 0.00712,
				"method": "rhf"
			},
			{
				"type": "unocc",
				"energy": 0.02389,
				"method": "rhf"
			},
			{
				"type": "unocc",
				"energy": 0.06511,
				"method": "rhf"
			},
			{
				"type": "unocc",
				"energy": 0.10321,
				"method": "rhf"
			}
		],
		"cosmo_sigma_profile": { 
			"-0.025": 0.0,
			"-0.024": 0.0,
			"-0.023": 0.0,
			"-0.022": 0.0,
			"-0.021": 0.0,
			"-0.02": 0.609117376478,
			"-0.019": 2.04100676739,
			"-0.018": 0.990957932149,
			"-0.017": 1.65439734278,
			"-0.016": 0.635128612004,
			"-0.015": 1.07083591542,
			"-0.014": 0.987661200621,
			"-0.013": 0.397582477377,
			"-0.012": 0.670186280449,
			"-0.011": 0.752080032653,
			"-0.01": 0.883591341028,
			"-0.009": 1.68404972694,
			"-0.008": 4.89667652372,
			"-0.007": 4.90543206622,
			"-0.006": 10.8602522859,
			"-0.005": 12.0553111086,
			"-0.004": 15.3363596602,
			"-0.003": 14.4172804838,
			"-0.002": 9.99432189876,
			"-0.001": 6.58040597407,
			"0.0": 5.54490651901,
			"0.001": 6.71663582795,
			"0.002": 5.35253868422,
			"0.003": 5.03683782346,
			"0.004": 6.08708311768,
			"0.005": 5.60910163099,
			"0.006": 6.60299077718,
			"0.007": 7.09716215183,
			"0.008": 7.47120228916,
			"0.009": 5.99292666714,
			"0.01": 5.96487886949,
			"0.011": 7.89117192386,
			"0.012": 3.96854654475,
			"0.013": 1.14085546285,
			"0.014": 0.797891198782,
			"0.015": 0.129720614095,
			"0.016": 0.0,
			"0.017": 0.0,
			"0.018": 0.0,
			"0.019": 0.0,
			"0.02": 0.0,
			"0.021": 0.0,
			"0.022": 0.0,
			"0.023": 0.0,
			"0.024": 0.0,
			"0.025": 0.0
		}
	}
}
