{
	 "smiles": "COC(=O)C1CCCN1C(=O)C1=CC=C(S1)[N+]([O-])=O", 
	 "Tm": 393.15, 
	 "num_atms": 31, 
	 "gaussian": { 
		 "optdone": 1, 
		 "sigma_profile": "yes", 
		 "theory": "DFT", 
		 "functional": "B3LYP", 
		 "basiset": "6-31G**", 
		 "properties": { 
			 "R2extent": 7697.5154, 
			 "electric_dipole_moment_norm": 8.39494484854, 
			 "electric_quadrupole_moment_norm": 25.7817690766, 
			 "total_energy": -1310.10818882, 
			 "HOMO_LUMO_gap": 0.15499, 
			 "cosmo_polarized_energy": -17.55, 
			 "cosmo_cavitation_energy": 36.79, 
			 "cosmo_dispersion_energy": -26.32, 
			 "cosmo_repulsion_energy": 1.99, 
			 "cosmo_total_nonelectrostatic_energy": 12.47, 
			 "SMD_solvation_energy": 9.82 
		},
		"coords": [
			{
				"x": -1.4031467656,
				"y": -1.7220152742,
				"z": -2.374009871,
				"element": "C" 
			},
			{
				"x": -0.5390853839,
				"y": -1.5963463896,
				"z": -1.2262891064,
				"element": "O" 
			},
			{
				"x": -1.1605855341,
				"y": -1.5312419372,
				"z": -0.037663519,
				"element": "C" 
			},
			{
				"x": -2.3654790443,
				"y": -1.584612131,
				"z": 0.1035929114,
				"element": "O" 
			},
			{
				"x": -0.180651464,
				"y": -1.4161063342,
				"z": 1.1362026528,
				"element": "C" 
			},
			{
				"x": 0.5355303349,
				"y": -2.7635643118,
				"z": 1.4023872565,
				"element": "C" 
			},
			{
				"x": 1.7987160327,
				"y": -2.6833466875,
				"z": 0.5300658757,
				"element": "C" 
			},
			{
				"x": 2.195348625,
				"y": -1.201429281,
				"z": 0.5899879741,
				"element": "C" 
			},
			{
				"x": 0.93173591,
				"y": -0.4984748719,
				"z": 0.8968507664,
				"element": "N" 
			},
			{
				"x": 0.9999829464,
				"y": 0.8467673779,
				"z": 1.1334198898,
				"element": "C" 
			},
			{
				"x": 2.0771651609,
				"y": 1.4409954641,
				"z": 1.0395286744,
				"element": "O" 
			},
			{
				"x": -0.2072119822,
				"y": 1.6314209049,
				"z": 1.5332151478,
				"element": "C" 
			},
			{
				"x": -1.5730504222,
				"y": 1.3998346183,
				"z": 1.5435814602,
				"element": "C" 
			},
			{
				"x": -2.3157648765,
				"y": 2.5141945475,
				"z": 2.0042206997,
				"element": "C" 
			},
			{
				"x": -1.490190733,
				"y": 3.561593313,
				"z": 2.3276861068,
				"element": "C" 
			},
			{
				"x": 0.1899071663,
				"y": 3.2428470815,
				"z": 2.0737572703,
				"element": "S" 
			},
			{
				"x": -1.9174994527,
				"y": 4.8414835041,
				"z": 2.8290863968,
				"element": "N" 
			},
			{
				"x": -3.1268732906,
				"y": 5.0125192362,
				"z": 2.9873078489,
				"element": "O" 
			},
			{
				"x": -1.0381748416,
				"y": 5.6745427799,
				"z": 3.0643427553,
				"element": "O" 
			},
			{
				"x": -0.7400371539,
				"y": -1.7406675308,
				"z": -3.2378553136,
				"element": "H" 
			},
			{
				"x": -2.0854350599,
				"y": -0.8710558694,
				"z": -2.4292119004,
				"element": "H" 
			},
			{
				"x": -1.9869410877,
				"y": -2.6433377025,
				"z": -2.3133656867,
				"element": "H" 
			},
			{
				"x": -0.7735054912,
				"y": -1.1071474533,
				"z": 1.9987097153,
				"element": "H" 
			},
			{
				"x": -0.099745479,
				"y": -3.6253316816,
				"z": 1.1816469623,
				"element": "H" 
			},
			{
				"x": 0.8000511675,
				"y": -2.8065094692,
				"z": 2.4639439603,
				"element": "H" 
			},
			{
				"x": 1.5658489082,
				"y": -2.9727328105,
				"z": -0.4975164412,
				"element": "H" 
			},
			{
				"x": 2.5972694911,
				"y": -3.3347947374,
				"z": 0.8935821254,
				"element": "H" 
			},
			{
				"x": 2.9216791877,
				"y": -0.9885361443,
				"z": 1.3819976759,
				"element": "H" 
			},
			{
				"x": 2.6185343429,
				"y": -0.827843274,
				"z": -0.345826419,
				"element": "H" 
			},
			{
				"x": -2.0533208256,
				"y": 0.487174675,
				"z": 1.2176074121,
				"element": "H" 
			},
			{
				"x": -3.3930703857,
				"y": 2.5593203888,
				"z": 2.0945167194,
				"element": "H" 
			}
		],
		 "valence_orbital": [ 
			{
				"type": "occ",
				"energy": -0.29236,
				"method": "rhf"
			},
			{
				"type": "occ",
				"energy": -0.27939,
				"method": "rhf"
			},
			{
				"type": "occ",
				"energy": -0.2732,
				"method": "rhf"
			},
			{
				"type": "occ",
				"energy": -0.26507,
				"method": "rhf"
			},
			{
				"type": "occ",
				"energy": -0.25707,
				"method": "rhf"
			},
			{
				"type": "unocc",
				"energy": -0.10208,
				"method": "rhf"
			},
			{
				"type": "unocc",
				"energy": -0.03612,
				"method": "rhf"
			},
			{
				"type": "unocc",
				"energy": -0.0209,
				"method": "rhf"
			},
			{
				"type": "unocc",
				"energy": 0.01983,
				"method": "rhf"
			},
			{
				"type": "unocc",
				"energy": 0.03418,
				"method": "rhf"
			}
		],
		"cosmo_sigma_profile": { 
			"-0.025": 0.0,
			"-0.024": 0.0,
			"-0.023": 0.0,
			"-0.022": 0.0,
			"-0.021": 0.0,
			"-0.02": 0.0,
			"-0.019": 0.0,
			"-0.018": 0.0,
			"-0.017": 0.0,
			"-0.016": 0.0,
			"-0.015": 0.0,
			"-0.014": 0.0,
			"-0.013": 0.0,
			"-0.012": 0.0,
			"-0.011": 0.0,
			"-0.01": 0.4890877187,
			"-0.009": 1.31405832091,
			"-0.008": 2.30421965018,
			"-0.007": 7.49341845012,
			"-0.006": 17.7937841652,
			"-0.005": 25.7789434787,
			"-0.004": 31.529181766,
			"-0.003": 29.9762892362,
			"-0.002": 27.8087650154,
			"-0.001": 24.6309605188,
			"0.0": 20.1584239816,
			"0.001": 15.2253024971,
			"0.002": 10.2617626327,
			"0.003": 8.20826373473,
			"0.004": 7.06270794757,
			"0.005": 7.47094020823,
			"0.006": 7.77061481714,
			"0.007": 13.6568260177,
			"0.008": 9.79240428278,
			"0.009": 6.81290773099,
			"0.01": 5.02834178256,
			"0.011": 6.23456358507,
			"0.012": 4.16162607062,
			"0.013": 3.42581322539,
			"0.014": 0.120106723681,
			"0.015": 0.0,
			"0.016": 0.0,
			"0.017": 0.0,
			"0.018": 0.0,
			"0.019": 0.0,
			"0.02": 0.0,
			"0.021": 0.0,
			"0.022": 0.0,
			"0.023": 0.0,
			"0.024": 0.0,
			"0.025": 0.0
		}
	}
}
