{
	 "smiles": "OC(=O)C1=CC(Cl)=C(C=C1Cl)C(O)=O", 
	 "Tm": 579.15, 
	 "num_atms": 18, 
	 "gaussian": { 
		 "optdone": 1, 
		 "sigma_profile": "yes", 
		 "theory": "DFT", 
		 "functional": "B3LYP", 
		 "basiset": "6-31G**", 
		 "properties": { 
			 "R2extent": 3920.5695, 
			 "electric_dipole_moment_norm": 4.789334673, 
			 "electric_quadrupole_moment_norm": 7.94036421457, 
			 "total_energy": -1528.55278724, 
			 "HOMO_LUMO_gap": 0.17395, 
			 "cosmo_polarized_energy": -15.62, 
			 "cosmo_cavitation_energy": 27.0, 
			 "cosmo_dispersion_energy": -20.44, 
			 "cosmo_repulsion_energy": 1.59, 
			 "cosmo_total_nonelectrostatic_energy": 8.16, 
			 "SMD_solvation_energy": 6.56 
		},
		"coords": [
			{
				"x": 3.5370960573,
				"y": 0.0867148535,
				"z": -0.9735582563,
				"element": "O" 
			},
			{
				"x": 2.3701150844,
				"y": -0.3902029663,
				"z": -1.4299430278,
				"element": "C" 
			},
			{
				"x": 2.2819153282,
				"y": -0.7985983603,
				"z": -2.5648396622,
				"element": "O" 
			},
			{
				"x": 1.1575980656,
				"y": -0.4172118127,
				"z": -0.5070487075,
				"element": "C" 
			},
			{
				"x": 0.0108844461,
				"y": -0.9679201899,
				"z": -1.0936484244,
				"element": "C" 
			},
			{
				"x": -1.1998683962,
				"y": -1.0833476563,
				"z": -0.4164692024,
				"element": "C" 
			},
			{
				"x": -2.5222119852,
				"y": -1.7931896659,
				"z": -1.3002261484,
				"element": "Cl" 
			},
			{
				"x": -1.3070028662,
				"y": -0.6348480314,
				"z": 0.9151549189,
				"element": "C" 
			},
			{
				"x": -0.164998238,
				"y": -0.0806970088,
				"z": 1.5104410069,
				"element": "C" 
			},
			{
				"x": 1.0363533153,
				"y": 0.0263409392,
				"z": 0.8213507837,
				"element": "C" 
			},
			{
				"x": 2.3724122354,
				"y": 0.7521632836,
				"z": 1.7276792196,
				"element": "Cl" 
			},
			{
				"x": -2.5669801422,
				"y": -0.7196076743,
				"z": 1.7205638504,
				"element": "C" 
			},
			{
				"x": -2.4004630368,
				"y": -0.2076265503,
				"z": 2.9673257747,
				"element": "O" 
			},
			{
				"x": -3.62339592,
				"y": -1.1780738014,
				"z": 1.3504035445,
				"element": "O" 
			},
			{
				"x": 3.4753730109,
				"y": 0.3839881741,
				"z": -0.0505652763,
				"element": "H" 
			},
			{
				"x": 0.0962093328,
				"y": -1.3100097966,
				"z": -2.1177640687,
				"element": "H" 
			},
			{
				"x": -0.226428364,
				"y": 0.2704992694,
				"z": 2.5316364609,
				"element": "H" 
			},
			{
				"x": -3.2598079275,
				"y": -0.3063730054,
				"z": 3.4091072144,
				"element": "H" 
			}
		],
		 "valence_orbital": [ 
			{
				"type": "occ",
				"energy": -0.3284,
				"method": "rhf"
			},
			{
				"type": "occ",
				"energy": -0.29982,
				"method": "rhf"
			},
			{
				"type": "occ",
				"energy": -0.29321,
				"method": "rhf"
			},
			{
				"type": "occ",
				"energy": -0.28938,
				"method": "rhf"
			},
			{
				"type": "occ",
				"energy": -0.27353,
				"method": "rhf"
			},
			{
				"type": "unocc",
				"energy": -0.09958,
				"method": "rhf"
			},
			{
				"type": "unocc",
				"energy": -0.05041,
				"method": "rhf"
			},
			{
				"type": "unocc",
				"energy": -0.01577,
				"method": "rhf"
			},
			{
				"type": "unocc",
				"energy": -0.01162,
				"method": "rhf"
			},
			{
				"type": "unocc",
				"energy": 0.01717,
				"method": "rhf"
			}
		],
		"cosmo_sigma_profile": { 
			"-0.025": 0.0,
			"-0.024": 0.0,
			"-0.023": 0.0,
			"-0.022": 0.0,
			"-0.021": 0.0,
			"-0.02": 0.0,
			"-0.019": 0.575395490838,
			"-0.018": 1.1052768519,
			"-0.017": 0.549625940415,
			"-0.016": 1.04088270995,
			"-0.015": 0.840979707417,
			"-0.014": 0.375972773215,
			"-0.013": 0.546942984634,
			"-0.012": 1.7976989936,
			"-0.011": 2.03073899565,
			"-0.01": 2.53658254475,
			"-0.009": 2.34967732224,
			"-0.008": 4.17831503363,
			"-0.007": 5.36112038347,
			"-0.006": 5.92199236955,
			"-0.005": 9.24488779864,
			"-0.004": 12.7237931744,
			"-0.003": 18.236669961,
			"-0.002": 28.3343467999,
			"-0.001": 19.7270904137,
			"0.0": 12.4906710416,
			"0.001": 13.8826438808,
			"0.002": 12.7345809841,
			"0.003": 11.5368629213,
			"0.004": 7.69957642707,
			"0.005": 6.04273120634,
			"0.006": 4.72140511827,
			"0.007": 4.35981084714,
			"0.008": 5.28044356587,
			"0.009": 6.33867687686,
			"0.01": 8.4145497677,
			"0.011": 8.7749455185,
			"0.012": 2.26685231292,
			"0.013": 0.235572912562,
			"0.014": 0.0,
			"0.015": 0.0,
			"0.016": 0.0,
			"0.017": 0.0,
			"0.018": 0.0,
			"0.019": 0.0,
			"0.02": 0.0,
			"0.021": 0.0,
			"0.022": 0.0,
			"0.023": 0.0,
			"0.024": 0.0,
			"0.025": 0.0
		}
	}
}
