{
	 "smiles": "OC(=O)C1=CC(=CC=C1)C1=CC=C(C=O)C=C1", 
	 "Tm": 439.15, 
	 "num_atms": 27, 
	 "gaussian": { 
		 "optdone": 1, 
		 "sigma_profile": "yes", 
		 "theory": "DFT", 
		 "functional": "B3LYP", 
		 "basiset": "6-31G**", 
		 "properties": { 
			 "R2extent": 6024.7414, 
			 "electric_dipole_moment_norm": 1.89530372764, 
			 "electric_quadrupole_moment_norm": 30.289774149, 
			 "total_energy": -765.207988799, 
			 "HOMO_LUMO_gap": 0.17028, 
			 "cosmo_polarized_energy": -14.49, 
			 "cosmo_cavitation_energy": 32.77, 
			 "cosmo_dispersion_energy": -23.54, 
			 "cosmo_repulsion_energy": 1.8, 
			 "cosmo_total_nonelectrostatic_energy": 11.02, 
			 "SMD_solvation_energy": 7.66 
		},
		"coords": [
			{
				"x": -3.0116316623,
				"y": -3.6602484652,
				"z": -1.4227095509,
				"element": "O" 
			},
			{
				"x": -3.3616330367,
				"y": -3.4817493126,
				"z": -0.1241208316,
				"element": "C" 
			},
			{
				"x": -4.2487153595,
				"y": -4.1257963199,
				"z": 0.3995318184,
				"element": "O" 
			},
			{
				"x": -2.5558500046,
				"y": -2.4340042438,
				"z": 0.5600036287,
				"element": "C" 
			},
			{
				"x": -1.5424315102,
				"y": -1.7302661028,
				"z": -0.0997311686,
				"element": "C" 
			},
			{
				"x": -0.7938151186,
				"y": -0.7525712264,
				"z": 0.5725209639,
				"element": "C" 
			},
			{
				"x": -1.0885610053,
				"y": -0.4996028391,
				"z": 1.9239367899,
				"element": "C" 
			},
			{
				"x": -2.0988497178,
				"y": -1.2000733659,
				"z": 2.5831416955,
				"element": "C" 
			},
			{
				"x": -2.8355585999,
				"y": -2.1683951644,
				"z": 1.9067713974,
				"element": "C" 
			},
			{
				"x": 0.2819735359,
				"y": -0.0056141033,
				"z": -0.1265238059,
				"element": "C" 
			},
			{
				"x": 0.134167801,
				"y": 0.3790805329,
				"z": -1.4708550771,
				"element": "C" 
			},
			{
				"x": 1.1442728318,
				"y": 1.078632759,
				"z": -2.1237699909,
				"element": "C" 
			},
			{
				"x": 2.3254387137,
				"y": 1.4129000425,
				"z": -1.4495416148,
				"element": "C" 
			},
			{
				"x": 3.3954101887,
				"y": 2.1576492004,
				"z": -2.1483607925,
				"element": "C" 
			},
			{
				"x": 4.4516748782,
				"y": 2.4878107392,
				"z": -1.6425847216,
				"element": "O" 
			},
			{
				"x": 2.4827327025,
				"y": 1.0337773645,
				"z": -0.1076512149,
				"element": "C" 
			},
			{
				"x": 1.475422038,
				"y": 0.3345202101,
				"z": 0.5421725651,
				"element": "C" 
			},
			{
				"x": -3.595685147,
				"y": -4.3594809062,
				"z": -1.7594479582,
				"element": "H" 
			},
			{
				"x": -1.3226530191,
				"y": -1.9662718548,
				"z": -1.1343763533,
				"element": "H" 
			},
			{
				"x": -0.5371437554,
				"y": 0.2707617697,
				"z": 2.4545807476,
				"element": "H" 
			},
			{
				"x": -2.3146461398,
				"y": -0.9820896159,
				"z": 3.6246829778,
				"element": "H" 
			},
			{
				"x": -3.6259332222,
				"y": -2.7270087708,
				"z": 2.3960316619,
				"element": "H" 
			},
			{
				"x": -0.7880385229,
				"y": 0.1488910175,
				"z": -1.9951845164,
				"element": "H" 
			},
			{
				"x": 1.0154679515,
				"y": 1.3776787485,
				"z": -3.1615946233,
				"element": "H" 
			},
			{
				"x": 3.167271421,
				"y": 2.4085532294,
				"z": -3.2086363388,
				"element": "H" 
			},
			{
				"x": 3.4077921969,
				"y": 1.291812802,
				"z": 0.3982631288,
				"element": "H" 
			},
			{
				"x": 1.6171215623,
				"y": 0.0209038756,
				"z": 1.5719511838,
				"element": "H" 
			}
		],
		 "valence_orbital": [ 
			{
				"type": "occ",
				"energy": -0.28318,
				"method": "rhf"
			},
			{
				"type": "occ",
				"energy": -0.27243,
				"method": "rhf"
			},
			{
				"type": "occ",
				"energy": -0.27087,
				"method": "rhf"
			},
			{
				"type": "occ",
				"energy": -0.25701,
				"method": "rhf"
			},
			{
				"type": "occ",
				"energy": -0.24482,
				"method": "rhf"
			},
			{
				"type": "unocc",
				"energy": -0.07454,
				"method": "rhf"
			},
			{
				"type": "unocc",
				"energy": -0.05561,
				"method": "rhf"
			},
			{
				"type": "unocc",
				"energy": -0.02042,
				"method": "rhf"
			},
			{
				"type": "unocc",
				"energy": -0.01757,
				"method": "rhf"
			},
			{
				"type": "unocc",
				"energy": 0.03275,
				"method": "rhf"
			}
		],
		"cosmo_sigma_profile": { 
			"-0.025": 0.0,
			"-0.024": 0.0,
			"-0.023": 0.0,
			"-0.022": 0.0,
			"-0.021": 0.0,
			"-0.02": 0.0,
			"-0.019": 0.0113225318185,
			"-0.018": 0.872656357385,
			"-0.017": 0.972385775282,
			"-0.016": 0.696035837083,
			"-0.015": 1.15167949544,
			"-0.014": 0.387658832093,
			"-0.013": 0.338670636519,
			"-0.012": 0.911343646891,
			"-0.011": 0.599776494027,
			"-0.01": 1.26978646568,
			"-0.009": 0.468204568977,
			"-0.008": 1.27050936292,
			"-0.007": 10.6368526877,
			"-0.006": 19.4373732648,
			"-0.005": 18.8274071205,
			"-0.004": 15.0795181545,
			"-0.003": 14.2571014027,
			"-0.002": 16.3178525029,
			"-0.001": 16.8167730879,
			"0.0": 19.547379815,
			"0.001": 23.8559570251,
			"0.002": 24.384743016,
			"0.003": 27.2596397258,
			"0.004": 6.55054675797,
			"0.005": 5.64637113292,
			"0.006": 4.20866214564,
			"0.007": 4.04260524583,
			"0.008": 3.88324377823,
			"0.009": 3.62443741575,
			"0.01": 4.39967497514,
			"0.011": 8.03026076546,
			"0.012": 6.75359283655,
			"0.013": 0.914789925672,
			"0.014": 0.0,
			"0.015": 0.0,
			"0.016": 0.0,
			"0.017": 0.0,
			"0.018": 0.0,
			"0.019": 0.0,
			"0.02": 0.0,
			"0.021": 0.0,
			"0.022": 0.0,
			"0.023": 0.0,
			"0.024": 0.0,
			"0.025": 0.0
		}
	}
}
