{
	 "smiles": "CCC(=O)OCN1C(=O)NC(C1=O)(C1=CC=CC=C1)C1=CC=CC=C1", 
	 "Tm": 444.15, 
	 "num_atms": 43, 
	 "gaussian": { 
		 "optdone": 1, 
		 "sigma_profile": "yes", 
		 "theory": "DFT", 
		 "functional": "B3LYP", 
		 "basiset": "6-31G**", 
		 "properties": { 
			 "R2extent": 9276.0424, 
			 "electric_dipole_moment_norm": 4.51317424215, 
			 "electric_quadrupole_moment_norm": 18.879898367, 
			 "total_energy": -1145.32196001, 
			 "HOMO_LUMO_gap": 0.21915, 
			 "cosmo_polarized_energy": -18.87, 
			 "cosmo_cavitation_energy": 47.89, 
			 "cosmo_dispersion_energy": -31.1, 
			 "cosmo_repulsion_energy": 2.41, 
			 "cosmo_total_nonelectrostatic_energy": 19.2, 
			 "SMD_solvation_energy": 10.34 
		},
		"coords": [
			{
				"x": -4.3642369329,
				"y": -2.3043065979,
				"z": -1.9176885018,
				"element": "C" 
			},
			{
				"x": -4.7437037542,
				"y": -0.8793115921,
				"z": -1.4823374956,
				"element": "C" 
			},
			{
				"x": -4.2725840831,
				"y": -0.5440952313,
				"z": -0.0830076159,
				"element": "C" 
			},
			{
				"x": -4.9802986636,
				"y": -0.2568115879,
				"z": 0.8574579226,
				"element": "O" 
			},
			{
				"x": -2.9181224571,
				"y": -0.6071215248,
				"z": 0.0088170615,
				"element": "O" 
			},
			{
				"x": -2.3863243063,
				"y": -0.3194385981,
				"z": 1.3180768054,
				"element": "C" 
			},
			{
				"x": -0.9622855525,
				"y": -0.4238602241,
				"z": 1.2384513128,
				"element": "N" 
			},
			{
				"x": -0.2667800103,
				"y": -1.6441527864,
				"z": 1.4337872215,
				"element": "C" 
			},
			{
				"x": -0.7782018314,
				"y": -2.7040566654,
				"z": 1.725417096,
				"element": "O" 
			},
			{
				"x": 1.0608723047,
				"y": -1.3543153335,
				"z": 1.2480932178,
				"element": "N" 
			},
			{
				"x": 1.3055901864,
				"y": 0.0001643315,
				"z": 0.7322228513,
				"element": "C" 
			},
			{
				"x": -0.1336621148,
				"y": 0.5884219417,
				"z": 0.7837865706,
				"element": "C" 
			},
			{
				"x": -0.4758966016,
				"y": 1.7114715914,
				"z": 0.4882732981,
				"element": "O" 
			},
			{
				"x": 2.2049803948,
				"y": 0.8334839132,
				"z": 1.6547777422,
				"element": "C" 
			},
			{
				"x": 2.5056088963,
				"y": 2.1578770684,
				"z": 1.3022690613,
				"element": "C" 
			},
			{
				"x": 3.3015322743,
				"y": 2.943059361,
				"z": 2.1335452532,
				"element": "C" 
			},
			{
				"x": 3.8113645681,
				"y": 2.4174180302,
				"z": 3.3238516685,
				"element": "C" 
			},
			{
				"x": 3.5117535457,
				"y": 1.1034228939,
				"z": 3.6800414145,
				"element": "C" 
			},
			{
				"x": 2.7073963567,
				"y": 0.3156046336,
				"z": 2.8521214975,
				"element": "C" 
			},
			{
				"x": 1.8285682041,
				"y": -0.0753498869,
				"z": -0.7121992122,
				"element": "C" 
			},
			{
				"x": 3.2049911763,
				"y": -0.1986773469,
				"z": -0.9449333048,
				"element": "C" 
			},
			{
				"x": 3.693526496,
				"y": -0.3699172704,
				"z": -2.2406395175,
				"element": "C" 
			},
			{
				"x": 2.8129785731,
				"y": -0.4135914112,
				"z": -3.3223027725,
				"element": "C" 
			},
			{
				"x": 1.4409583663,
				"y": -0.2898474211,
				"z": -3.0989253025,
				"element": "C" 
			},
			{
				"x": 0.9501335289,
				"y": -0.126070884,
				"z": -1.8032390264,
				"element": "C" 
			},
			{
				"x": -4.8051788513,
				"y": -3.0505157017,
				"z": -1.2497773212,
				"element": "H" 
			},
			{
				"x": -4.7299535936,
				"y": -2.5004839486,
				"z": -2.9296911866,
				"element": "H" 
			},
			{
				"x": -3.2801690136,
				"y": -2.4407728138,
				"z": -1.9099277278,
				"element": "H" 
			},
			{
				"x": -4.2998763294,
				"y": -0.1516264702,
				"z": -2.1721868712,
				"element": "H" 
			},
			{
				"x": -5.8266769968,
				"y": -0.7379527108,
				"z": -1.4925622996,
				"element": "H" 
			},
			{
				"x": -2.7598921643,
				"y": -1.0484010948,
				"z": 2.037511176,
				"element": "H" 
			},
			{
				"x": -2.6610951887,
				"y": 0.6943119213,
				"z": 1.6113617342,
				"element": "H" 
			},
			{
				"x": 1.6965668514,
				"y": -2.1158772426,
				"z": 1.0603880866,
				"element": "H" 
			},
			{
				"x": 2.1033524557,
				"y": 2.5719904592,
				"z": 0.384257182,
				"element": "H" 
			},
			{
				"x": 3.5234068201,
				"y": 3.9681112118,
				"z": 1.85118576,
				"element": "H" 
			},
			{
				"x": 4.4347891137,
				"y": 3.0301587962,
				"z": 3.9685396277,
				"element": "H" 
			},
			{
				"x": 3.8988105152,
				"y": 0.6861880165,
				"z": 4.6052510163,
				"element": "H" 
			},
			{
				"x": 2.4638841705,
				"y": -0.7010032254,
				"z": 3.1411279667,
				"element": "H" 
			},
			{
				"x": 3.8976907859,
				"y": -0.1497943626,
				"z": -0.1105279679,
				"element": "H" 
			},
			{
				"x": 4.7634613182,
				"y": -0.4627922879,
				"z": -2.4030808667,
				"element": "H" 
			},
			{
				"x": 3.1929488258,
				"y": -0.5394719584,
				"z": -4.3318912964,
				"element": "H" 
			},
			{
				"x": 0.7476728167,
				"y": -0.3179256552,
				"z": -3.9344520504,
				"element": "H" 
			},
			{
				"x": -0.1206000993,
				"y": -0.0316423361,
				"z": -1.6512422074,
				"element": "H" 
			}
		],
		 "valence_orbital": [ 
			{
				"type": "occ",
				"energy": -0.26826,
				"method": "rhf"
			},
			{
				"type": "occ",
				"energy": -0.2649,
				"method": "rhf"
			},
			{
				"type": "occ",
				"energy": -0.25951,
				"method": "rhf"
			},
			{
				"type": "occ",
				"energy": -0.25563,
				"method": "rhf"
			},
			{
				"type": "occ",
				"energy": -0.2482,
				"method": "rhf"
			},
			{
				"type": "unocc",
				"energy": -0.02905,
				"method": "rhf"
			},
			{
				"type": "unocc",
				"energy": -0.02176,
				"method": "rhf"
			},
			{
				"type": "unocc",
				"energy": -0.01824,
				"method": "rhf"
			},
			{
				"type": "unocc",
				"energy": -0.00351,
				"method": "rhf"
			},
			{
				"type": "unocc",
				"energy": -0.00088,
				"method": "rhf"
			}
		],
		"cosmo_sigma_profile": { 
			"-0.025": 0.0,
			"-0.024": 0.0,
			"-0.023": 0.0,
			"-0.022": 0.0,
			"-0.021": 0.0,
			"-0.02": 0.0,
			"-0.019": 0.0,
			"-0.018": 0.0,
			"-0.017": 0.0,
			"-0.016": 0.265006631039,
			"-0.015": 0.995914567835,
			"-0.014": 1.119015895,
			"-0.013": 0.527187541128,
			"-0.012": 0.726204957493,
			"-0.011": 1.22985763363,
			"-0.01": 1.46120326535,
			"-0.009": 0.953959637168,
			"-0.008": 3.31449082666,
			"-0.007": 5.00523027092,
			"-0.006": 18.8849028259,
			"-0.005": 31.2796004404,
			"-0.004": 40.0921811541,
			"-0.003": 34.1281812788,
			"-0.002": 34.3043876598,
			"-0.001": 26.5194933838,
			"0.0": 25.8589011195,
			"0.001": 20.153255791,
			"0.002": 20.896064272,
			"0.003": 21.7734361626,
			"0.004": 23.3278291921,
			"0.005": 21.1132564232,
			"0.006": 6.01790629782,
			"0.007": 4.33674756281,
			"0.008": 4.27330689502,
			"0.009": 4.80314359289,
			"0.01": 7.14972356753,
			"0.011": 10.3128220863,
			"0.012": 8.81150796966,
			"0.013": 1.45447620644,
			"0.014": 0.0,
			"0.015": 0.0,
			"0.016": 0.0,
			"0.017": 0.0,
			"0.018": 0.0,
			"0.019": 0.0,
			"0.02": 0.0,
			"0.021": 0.0,
			"0.022": 0.0,
			"0.023": 0.0,
			"0.024": 0.0,
			"0.025": 0.0
		}
	}
}
