{
	 "smiles": "ClCC1=NC2=C(C3=C(CCCC3)S2)C(Cl)=N1", 
	 "Tm": 363.15, 
	 "num_atms": 26, 
	 "gaussian": { 
		 "optdone": 1, 
		 "sigma_profile": "yes", 
		 "theory": "DFT", 
		 "functional": "B3LYP", 
		 "basiset": "6-31G**", 
		 "properties": { 
			 "R2extent": 7336.295, 
			 "electric_dipole_moment_norm": 5.11358657793, 
			 "electric_quadrupole_moment_norm": 17.3980526925, 
			 "total_energy": -1853.29437403, 
			 "HOMO_LUMO_gap": 0.17265, 
			 "cosmo_polarized_energy": -8.51, 
			 "cosmo_cavitation_energy": 33.66, 
			 "cosmo_dispersion_energy": -25.68, 
			 "cosmo_repulsion_energy": 1.98, 
			 "cosmo_total_nonelectrostatic_energy": 9.95, 
			 "SMD_solvation_energy": 0.62 
		},
		"coords": [
			{
				"x": 3.7323742022,
				"y": 1.8088899032,
				"z": -5.2006912832,
				"element": "Cl" 
			},
			{
				"x": 3.4226838353,
				"y": 2.7374071325,
				"z": -3.6611433931,
				"element": "C" 
			},
			{
				"x": 2.3935888641,
				"y": 2.0474154936,
				"z": -2.8132547585,
				"element": "C" 
			},
			{
				"x": 2.8316368256,
				"y": 1.1936548021,
				"z": -1.8876011451,
				"element": "N" 
			},
			{
				"x": 1.8767862723,
				"y": 0.6024978807,
				"z": -1.1760640812,
				"element": "C" 
			},
			{
				"x": 0.4776798116,
				"y": 0.8148209307,
				"z": -1.3226704158,
				"element": "C" 
			},
			{
				"x": -0.3034328789,
				"y": 0.0280574071,
				"z": -0.3927702267,
				"element": "C" 
			},
			{
				"x": 0.4953275465,
				"y": -0.7530118912,
				"z": 0.3971814216,
				"element": "C" 
			},
			{
				"x": 0.0131611105,
				"y": -1.7070046965,
				"z": 1.455460733,
				"element": "C" 
			},
			{
				"x": -1.4886656489,
				"y": -1.9898324001,
				"z": 1.2822795469,
				"element": "C" 
			},
			{
				"x": -2.2605571291,
				"y": -0.6873422732,
				"z": 1.0401339348,
				"element": "C" 
			},
			{
				"x": -1.8104977793,
				"y": 0.0111741882,
				"z": -0.2546806721,
				"element": "C" 
			},
			{
				"x": 2.2168478753,
				"y": -0.5640051621,
				"z": 0.0810388729,
				"element": "S" 
			},
			{
				"x": 0.1818410167,
				"y": 1.7410752345,
				"z": -2.3410517299,
				"element": "C" 
			},
			{
				"x": -1.4809748277,
				"y": 2.165542613,
				"z": -2.7314094291,
				"element": "Cl" 
			},
			{
				"x": 1.103117211,
				"y": 2.341994217,
				"z": -3.0628182173,
				"element": "N" 
			},
			{
				"x": 3.0754949683,
				"y": 3.7235102993,
				"z": -3.964613951,
				"element": "H" 
			},
			{
				"x": 4.3752578793,
				"y": 2.7918116534,
				"z": -3.13753292,
				"element": "H" 
			},
			{
				"x": 0.5878600717,
				"y": -2.6400367496,
				"z": 1.4157460758,
				"element": "H" 
			},
			{
				"x": 0.201492515,
				"y": -1.2751316532,
				"z": 2.4489366824,
				"element": "H" 
			},
			{
				"x": -1.868807048,
				"y": -2.5070639901,
				"z": 2.16957558,
				"element": "H" 
			},
			{
				"x": -1.6350289655,
				"y": -2.666719624,
				"z": 0.4309077043,
				"element": "H" 
			},
			{
				"x": -2.1005529032,
				"y": -0.0124552642,
				"z": 1.891402168,
				"element": "H" 
			},
			{
				"x": -3.3370966401,
				"y": -0.8821820381,
				"z": 0.9919223997,
				"element": "H" 
			},
			{
				"x": -2.2485932951,
				"y": -0.4940011265,
				"z": -1.1261623824,
				"element": "H" 
			},
			{
				"x": -2.1998428896,
				"y": 1.0327351137,
				"z": -0.2790205139,
				"element": "H" 
			}
		],
		 "valence_orbital": [ 
			{
				"type": "occ",
				"energy": -0.29537,
				"method": "rhf"
			},
			{
				"type": "occ",
				"energy": -0.29296,
				"method": "rhf"
			},
			{
				"type": "occ",
				"energy": -0.27374,
				"method": "rhf"
			},
			{
				"type": "occ",
				"energy": -0.27323,
				"method": "rhf"
			},
			{
				"type": "occ",
				"energy": -0.23724,
				"method": "rhf"
			},
			{
				"type": "unocc",
				"energy": -0.06459,
				"method": "rhf"
			},
			{
				"type": "unocc",
				"energy": -0.04742,
				"method": "rhf"
			},
			{
				"type": "unocc",
				"energy": -0.00232,
				"method": "rhf"
			},
			{
				"type": "unocc",
				"energy": 0.00664,
				"method": "rhf"
			},
			{
				"type": "unocc",
				"energy": 0.03286,
				"method": "rhf"
			}
		],
		"cosmo_sigma_profile": { 
			"-0.025": 0.0,
			"-0.024": 0.0,
			"-0.023": 0.0,
			"-0.022": 0.0,
			"-0.021": 0.0,
			"-0.02": 0.0,
			"-0.019": 0.0,
			"-0.018": 0.0,
			"-0.017": 0.0,
			"-0.016": 0.0,
			"-0.015": 0.0,
			"-0.014": 0.0,
			"-0.013": 0.0,
			"-0.012": 0.0,
			"-0.011": 0.0,
			"-0.01": 0.0,
			"-0.009": 0.380357350041,
			"-0.008": 3.23678172184,
			"-0.007": 3.15552229506,
			"-0.006": 4.83234059661,
			"-0.005": 10.5614934941,
			"-0.004": 16.9185819372,
			"-0.003": 31.6883187312,
			"-0.002": 35.6882732752,
			"-0.001": 33.5635478732,
			"0.0": 28.5011831391,
			"0.001": 22.6281143714,
			"0.002": 17.0506631924,
			"0.003": 16.8678776849,
			"0.004": 13.4937911651,
			"0.005": 11.3854138303,
			"0.006": 12.9910111516,
			"0.007": 3.39139500361,
			"0.008": 1.89190343559,
			"0.009": 1.41268701471,
			"0.01": 1.81494574058,
			"0.011": 1.69689278487,
			"0.012": 1.11100717418,
			"0.013": 0.0891501844236,
			"0.014": 0.0,
			"0.015": 0.0,
			"0.016": 0.0,
			"0.017": 0.0,
			"0.018": 0.0,
			"0.019": 0.0,
			"0.02": 0.0,
			"0.021": 0.0,
			"0.022": 0.0,
			"0.023": 0.0,
			"0.024": 0.0,
			"0.025": 0.0
		}
	}
}
