{
	 "smiles": "ClC1=C(I)C=C(I)C=N1", 
	 "Tm": 345.65, 
	 "num_atms": 11, 
	 "gaussian": { 
		 "optdone": 1, 
		 "sigma_profile": "no", 
		 "theory": "DFT", 
		 "functional": "B3LYP", 
		 "basiset": "6-31G**", 
		 "properties": { 
			 "R2extent": 3791.8978, 
			 "electric_dipole_moment_norm": 1.98224687918, 
			 "electric_quadrupole_moment_norm": 7.01551575296, 
			 "total_energy": -729.436949827, 
			 "HOMO_LUMO_gap": 0.18589, 
			 "cosmo_polarized_energy": -187976.41, 
			 "cosmo_cavitation_energy": 23.87, 
			 "cosmo_dispersion_energy": -20.67, 
			 "cosmo_repulsion_energy": 1.62, 
			 "cosmo_total_nonelectrostatic_energy": 4.82, 
			 "SMD_solvation_energy": 0.81 
		},
		"coords": [
			{
				"x": -2.1144298562,
				"y": 0.7074677251,
				"z": -4.026264453,
				"element": "Cl" 
			},
			{
				"x": -1.5185352616,
				"y": -0.433804249,
				"z": -2.844370558,
				"element": "C" 
			},
			{
				"x": -1.2579547117,
				"y": -1.7729575604,
				"z": -3.1840678949,
				"element": "C" 
			},
			{
				"x": -1.5448823697,
				"y": -2.5624877192,
				"z": -5.1177281666,
				"element": "I" 
			},
			{
				"x": -0.7832392795,
				"y": -2.6199881003,
				"z": -2.1793924329,
				"element": "C" 
			},
			{
				"x": -0.5909549022,
				"y": -2.1048561432,
				"z": -0.897482173,
				"element": "C" 
			},
			{
				"x": 0.1236046554,
				"y": -3.3323998595,
				"z": 0.6633441937,
				"element": "I" 
			},
			{
				"x": -0.8793455472,
				"y": -0.7593855692,
				"z": -0.6608801492,
				"element": "C" 
			},
			{
				"x": -1.3322369147,
				"y": 0.0437406002,
				"z": -1.6244870118,
				"element": "N" 
			},
			{
				"x": -0.5701416024,
				"y": -3.6587242956,
				"z": -2.3997364558,
				"element": "H" 
			},
			{
				"x": -0.7446842102,
				"y": -0.3158048288,
				"z": 0.3213651016,
				"element": "H" 
			}
		],
		 "valence_orbital": [ 
			{
				"type": "occ",
				"energy": -0.30115,
				"method": "rhf"
			},
			{
				"type": "occ",
				"energy": -0.28711,
				"method": "rhf"
			},
			{
				"type": "occ",
				"energy": -0.27823,
				"method": "rhf"
			},
			{
				"type": "occ",
				"energy": -0.27478,
				"method": "rhf"
			},
			{
				"type": "occ",
				"energy": -0.2573,
				"method": "rhf"
			},
			{
				"type": "unocc",
				"energy": -0.07141,
				"method": "rhf"
			},
			{
				"type": "unocc",
				"energy": -0.06164,
				"method": "rhf"
			},
			{
				"type": "unocc",
				"energy": -0.05216,
				"method": "rhf"
			},
			{
				"type": "unocc",
				"energy": -0.04656,
				"method": "rhf"
			},
			{
				"type": "unocc",
				"energy": 0.02129,
				"method": "rhf"
			}
		],
		"cosmo_sigma_profile": { 
			"0.0": 0.0,
			"0.0": 0.0,
			"0.0": 0.0,
			"0.0": 0.0,
			"0.0": 0.0,
			"0.0": 0.0,
			"0.0": 0.0,
			"0.0": 0.0,
			"0.0": 0.0,
			"0.0": 0.0,
			"0.0": 0.0,
			"0.0": 0.0,
			"0.0": 0.0,
			"0.0": 0.0,
			"0.0": 0.0,
			"0.0": 0.0,
			"0.0": 0.0,
			"0.0": 0.0,
			"0.0": 0.0,
			"0.0": 0.0,
			"0.0": 0.0,
			"0.0": 0.0,
			"0.0": 0.0,
			"0.0": 0.0,
			"0.0": 0.0,
			"0.0": 0.0,
			"0.0": 0.0,
			"0.0": 0.0,
			"0.0": 0.0,
			"0.0": 0.0,
			"0.0": 0.0,
			"0.0": 0.0,
			"0.0": 0.0,
			"0.0": 0.0,
			"0.0": 0.0,
			"0.0": 0.0,
			"0.0": 0.0,
			"0.0": 0.0,
			"0.0": 0.0,
			"0.0": 0.0,
			"0.0": 0.0,
			"0.0": 0.0,
			"0.0": 0.0,
			"0.0": 0.0,
			"0.0": 0.0,
			"0.0": 0.0,
			"0.0": 0.0,
			"0.0": 0.0,
			"0.0": 0.0,
			"0.0": 0.0,
			"0.0": 0.0
		}
	}
}
