{
	 "smiles": "CC1(C)C(C=C/C(=O)OC(C(F)(F)F)C(F)(F)F)C1C(=O)OC(C#N)C1=CC=CC(OC2=CC=CC=C2)=C1", 
	 "Tm": 354.65, 
	 "num_atms": 59, 
	 "gaussian": { 
		 "optdone": 1, 
		 "sigma_profile": "yes", 
		 "theory": "DFT", 
		 "functional": "B3LYP", 
		 "basiset": "6-31G**", 
		 "properties": { 
			 "R2extent": 18758.0227, 
			 "electric_dipole_moment_norm": 3.67429829763, 
			 "electric_quadrupole_moment_norm": 35.3217910286, 
			 "total_energy": -2033.28887146, 
			 "HOMO_LUMO_gap": 0.15307, 
			 "cosmo_polarized_energy": -20.84, 
			 "cosmo_cavitation_energy": 67.69, 
			 "cosmo_dispersion_energy": -39.09, 
			 "cosmo_repulsion_energy": 2.83, 
			 "cosmo_total_nonelectrostatic_energy": 31.43, 
			 "SMD_solvation_energy": 16.0 
		},
		"coords": [
			{
				"x": -4.3341030954,
				"y": 1.4525748297,
				"z": 2.2518509791,
				"element": "C" 
			},
			{
				"x": -3.9693799123,
				"y": -0.0137092933,
				"z": 2.0811651518,
				"element": "C" 
			},
			{
				"x": -5.1310369434,
				"y": -0.9545856436,
				"z": 2.3658222664,
				"element": "C" 
			},
			{
				"x": -2.9583985148,
				"y": -0.3444207728,
				"z": 0.9898285597,
				"element": "C" 
			},
			{
				"x": -3.0872352898,
				"y": -1.5384942523,
				"z": 0.1432102751,
				"element": "C" 
			},
			{
				"x": -2.7393361042,
				"y": -1.7310113311,
				"z": -1.1465834147,
				"element": "C" 
			},
			{
				"x": -2.0958341335,
				"y": -0.8114069676,
				"z": -2.094390634,
				"element": "C" 
			},
			{
				"x": -2.0094450579,
				"y": -1.007804486,
				"z": -3.2861581996,
				"element": "O" 
			},
			{
				"x": -1.567775978,
				"y": 0.3152676975,
				"z": -1.4921111979,
				"element": "O" 
			},
			{
				"x": -0.9445617988,
				"y": 1.2603934375,
				"z": -2.3407431585,
				"element": "C" 
			},
			{
				"x": 0.565605424,
				"y": 1.2120062846,
				"z": -2.0845111108,
				"element": "C" 
			},
			{
				"x": 1.0142795224,
				"y": -0.0376642176,
				"z": -2.3287560775,
				"element": "F" 
			},
			{
				"x": 1.2170560068,
				"y": 2.0568674229,
				"z": -2.9002920285,
				"element": "F" 
			},
			{
				"x": 0.8787892306,
				"y": 1.5190615781,
				"z": -0.8162704346,
				"element": "F" 
			},
			{
				"x": -1.5855273421,
				"y": 2.6184107125,
				"z": -2.0424490417,
				"element": "C" 
			},
			{
				"x": -1.4949957407,
				"y": 2.9397110701,
				"z": -0.7427420136,
				"element": "F" 
			},
			{
				"x": -1.000377948,
				"y": 3.5902691228,
				"z": -2.763161184,
				"element": "F" 
			},
			{
				"x": -2.8893182426,
				"y": 2.5738747923,
				"z": -2.3715701232,
				"element": "F" 
			},
			{
				"x": -2.5888542337,
				"y": -0.5185478104,
				"z": 2.4770838181,
				"element": "C" 
			},
			{
				"x": -1.5422795485,
				"y": 0.3797866447,
				"z": 3.0316944277,
				"element": "C" 
			},
			{
				"x": -1.3005683792,
				"y": 1.5138207287,
				"z": 2.6827256497,
				"element": "O" 
			},
			{
				"x": -0.8646333001,
				"y": -0.2576184411,
				"z": 4.0325773783,
				"element": "O" 
			},
			{
				"x": 0.2245080452,
				"y": 0.4683196056,
				"z": 4.6612938919,
				"element": "C" 
			},
			{
				"x": -0.2683656619,
				"y": 1.6773941365,
				"z": 5.3460494617,
				"element": "C" 
			},
			{
				"x": -0.6361000272,
				"y": 2.5959384863,
				"z": 5.9513484891,
				"element": "N" 
			},
			{
				"x": 1.4011976887,
				"y": 0.7114552167,
				"z": 3.7277142191,
				"element": "C" 
			},
			{
				"x": 1.8045771697,
				"y": 1.9914900666,
				"z": 3.3414524168,
				"element": "C" 
			},
			{
				"x": 2.8984154411,
				"y": 2.1387727643,
				"z": 2.4869376317,
				"element": "C" 
			},
			{
				"x": 3.5860487389,
				"y": 1.0270209527,
				"z": 2.0049514361,
				"element": "C" 
			},
			{
				"x": 3.1653242354,
				"y": -0.2524146718,
				"z": 2.3846956861,
				"element": "C" 
			},
			{
				"x": 3.8311884971,
				"y": -1.3972958072,
				"z": 2.0047637622,
				"element": "O" 
			},
			{
				"x": 4.2811764079,
				"y": -1.5463605574,
				"z": 0.7027673759,
				"element": "C" 
			},
			{
				"x": 3.5586923343,
				"y": -1.0832149536,
				"z": -0.4000765774,
				"element": "C" 
			},
			{
				"x": 4.0436886408,
				"y": -1.3361992213,
				"z": -1.6838931028,
				"element": "C" 
			},
			{
				"x": 5.2294494954,
				"y": -2.0497065646,
				"z": -1.8698736162,
				"element": "C" 
			},
			{
				"x": 5.9354987239,
				"y": -2.5139942456,
				"z": -0.7575923289,
				"element": "C" 
			},
			{
				"x": 5.46738861,
				"y": -2.2624054078,
				"z": 0.5319357296,
				"element": "C" 
			},
			{
				"x": 2.0837255355,
				"y": -0.4123335613,
				"z": 3.2496876562,
				"element": "C" 
			},
			{
				"x": -5.1522192369,
				"y": 1.7077023576,
				"z": 1.5692958829,
				"element": "H" 
			},
			{
				"x": -3.4904808696,
				"y": 2.1125871849,
				"z": 2.0504771218,
				"element": "H" 
			},
			{
				"x": -4.680230242,
				"y": 1.6436457453,
				"z": 3.2740221241,
				"element": "H" 
			},
			{
				"x": -4.8511719985,
				"y": -2.0104769399,
				"z": 2.3276212773,
				"element": "H" 
			},
			{
				"x": -5.9432638091,
				"y": -0.7920557669,
				"z": 1.6486917888,
				"element": "H" 
			},
			{
				"x": -5.5272362081,
				"y": -0.7584522086,
				"z": 3.367800556,
				"element": "H" 
			},
			{
				"x": -2.4918137927,
				"y": 0.5225401792,
				"z": 0.5399074619,
				"element": "H" 
			},
			{
				"x": -3.5629913964,
				"y": -2.3940808242,
				"z": 0.6190636489,
				"element": "H" 
			},
			{
				"x": -2.9762009746,
				"y": -2.6814254308,
				"z": -1.6133440328,
				"element": "H" 
			},
			{
				"x": -1.1176288204,
				"y": 1.0085974915,
				"z": -3.3903558979,
				"element": "H" 
			},
			{
				"x": -2.5460039518,
				"y": -1.5336357933,
				"z": 2.8581543532,
				"element": "H" 
			},
			{
				"x": 0.5351794556,
				"y": -0.2278614406,
				"z": 5.4470819033,
				"element": "H" 
			},
			{
				"x": 1.2652765959,
				"y": 2.8622454317,
				"z": 3.6966588116,
				"element": "H" 
			},
			{
				"x": 3.2180475074,
				"y": 3.1333467275,
				"z": 2.1913080843,
				"element": "H" 
			},
			{
				"x": 4.4370359139,
				"y": 1.142134287,
				"z": 1.3427767427,
				"element": "H" 
			},
			{
				"x": 2.6350345002,
				"y": -0.5340824338,
				"z": -0.2603122266,
				"element": "H" 
			},
			{
				"x": 3.4781336281,
				"y": -0.9762874947,
				"z": -2.5377143526,
				"element": "H" 
			},
			{
				"x": 5.5987561358,
				"y": -2.2441896372,
				"z": -2.8720896239,
				"element": "H" 
			},
			{
				"x": 6.8582730731,
				"y": -3.0713436039,
				"z": -0.8907365713,
				"element": "H" 
			},
			{
				"x": 6.0007237108,
				"y": -2.6129818422,
				"z": 1.4093935528,
				"element": "H" 
			},
			{
				"x": 1.7846982839,
				"y": -1.4171733323,
				"z": 3.5315173774,
				"element": "H" 
			}
		],
		 "valence_orbital": [ 
			{
				"type": "occ",
				"energy": -0.27133,
				"method": "rhf"
			},
			{
				"type": "occ",
				"energy": -0.26287,
				"method": "rhf"
			},
			{
				"type": "occ",
				"energy": -0.25631,
				"method": "rhf"
			},
			{
				"type": "occ",
				"energy": -0.25262,
				"method": "rhf"
			},
			{
				"type": "occ",
				"energy": -0.22294,
				"method": "rhf"
			},
			{
				"type": "unocc",
				"energy": -0.06987,
				"method": "rhf"
			},
			{
				"type": "unocc",
				"energy": -0.03263,
				"method": "rhf"
			},
			{
				"type": "unocc",
				"energy": -0.013,
				"method": "rhf"
			},
			{
				"type": "unocc",
				"energy": -0.01013,
				"method": "rhf"
			},
			{
				"type": "unocc",
				"energy": -0.00405,
				"method": "rhf"
			}
		],
		"cosmo_sigma_profile": { 
			"-0.025": 0.0,
			"-0.024": 0.0,
			"-0.023": 0.0,
			"-0.022": 0.0,
			"-0.021": 0.0,
			"-0.02": 0.0,
			"-0.019": 0.0,
			"-0.018": 0.0,
			"-0.017": 0.0,
			"-0.016": 0.0,
			"-0.015": 0.0,
			"-0.014": 0.0,
			"-0.013": 0.0,
			"-0.012": 1.080270596,
			"-0.011": 3.93549692358,
			"-0.01": 4.25719087115,
			"-0.009": 4.5855334094,
			"-0.008": 6.31090252924,
			"-0.007": 12.884345368,
			"-0.006": 18.2627990239,
			"-0.005": 21.7253516556,
			"-0.004": 31.3910341278,
			"-0.003": 38.849093744,
			"-0.002": 47.1514536567,
			"-0.001": 50.5926035831,
			"0.0": 53.0514275703,
			"0.001": 56.8166031057,
			"0.002": 67.4105844312,
			"0.003": 32.6210365217,
			"0.004": 21.8964024134,
			"0.005": 18.412014379,
			"0.006": 11.5001437907,
			"0.007": 9.06655247595,
			"0.008": 8.14586580758,
			"0.009": 7.12835794882,
			"0.01": 7.27418366603,
			"0.011": 5.01503105805,
			"0.012": 2.24216829209,
			"0.013": 0.134040742229,
			"0.014": 0.0,
			"0.015": 0.0,
			"0.016": 0.0,
			"0.017": 0.0,
			"0.018": 0.0,
			"0.019": 0.0,
			"0.02": 0.0,
			"0.021": 0.0,
			"0.022": 0.0,
			"0.023": 0.0,
			"0.024": 0.0,
			"0.025": 0.0
		}
	}
}
