{
	 "smiles": "CC1CCN(CC2=C(CN)C=CC=C2)CC1", 
	 "Tm": 435.15, 
	 "num_atms": 38, 
	 "gaussian": { 
		 "optdone": 1, 
		 "sigma_profile": "yes", 
		 "theory": "DFT", 
		 "functional": "B3LYP", 
		 "basiset": "6-31G**", 
		 "properties": { 
			 "R2extent": 4767.1759, 
			 "electric_dipole_moment_norm": 1.8456296622, 
			 "electric_quadrupole_moment_norm": 8.5885027467, 
			 "total_energy": -656.251035361, 
			 "HOMO_LUMO_gap": 0.20395, 
			 "cosmo_polarized_energy": -7.89, 
			 "cosmo_cavitation_energy": 36.77, 
			 "cosmo_dispersion_energy": -26.0, 
			 "cosmo_repulsion_energy": 2.03, 
			 "cosmo_total_nonelectrostatic_energy": 12.8, 
			 "SMD_solvation_energy": 4.06 
		},
		"coords": [
			{
				"x": 3.3424307073,
				"y": -3.1285078616,
				"z": 0.9911022865,
				"element": "C" 
			},
			{
				"x": 2.1324689827,
				"y": -2.401236669,
				"z": 1.6019421873,
				"element": "C" 
			},
			{
				"x": 0.84138145,
				"y": -2.6093604604,
				"z": 0.7769517382,
				"element": "C" 
			},
			{
				"x": 0.8306071948,
				"y": -1.7738544531,
				"z": -0.5185255604,
				"element": "C" 
			},
			{
				"x": 1.0684842349,
				"y": -0.3386550028,
				"z": -0.3071007583,
				"element": "N" 
			},
			{
				"x": -0.0844274769,
				"y": 0.3955000771,
				"z": 0.232424397,
				"element": "C" 
			},
			{
				"x": -1.2441232091,
				"y": 0.4706559815,
				"z": -0.7440275735,
				"element": "C" 
			},
			{
				"x": -1.1294762375,
				"y": 1.1263287313,
				"z": -1.9914886542,
				"element": "C" 
			},
			{
				"x": 0.1724981466,
				"y": 1.7867080604,
				"z": -2.4171986634,
				"element": "C" 
			},
			{
				"x": -0.0124233309,
				"y": 2.7160726607,
				"z": -3.5364143983,
				"element": "N" 
			},
			{
				"x": -2.2386519415,
				"y": 1.156137322,
				"z": -2.8441895422,
				"element": "C" 
			},
			{
				"x": -3.449381783,
				"y": 0.5619495065,
				"z": -2.4825244952,
				"element": "C" 
			},
			{
				"x": -3.5678852299,
				"y": -0.076704418,
				"z": -1.2505456581,
				"element": "C" 
			},
			{
				"x": -2.4651458989,
				"y": -0.1186935834,
				"z": -0.3958645135,
				"element": "C" 
			},
			{
				"x": 2.3129845877,
				"y": -0.1272044681,
				"z": 0.4408314797,
				"element": "C" 
			},
			{
				"x": 2.3837699941,
				"y": -0.8859726223,
				"z": 1.7802415054,
				"element": "C" 
			},
			{
				"x": 3.5870857667,
				"y": -2.7682195342,
				"z": -0.0133627361,
				"element": "H" 
			},
			{
				"x": 4.2339127929,
				"y": -2.9925501887,
				"z": 1.6134866736,
				"element": "H" 
			},
			{
				"x": 3.1507031111,
				"y": -4.2044543423,
				"z": 0.9138628352,
				"element": "H" 
			},
			{
				"x": 1.9696547151,
				"y": -2.8346539256,
				"z": 2.598182544,
				"element": "H" 
			},
			{
				"x": 0.7147326192,
				"y": -3.6710035846,
				"z": 0.5286799506,
				"element": "H" 
			},
			{
				"x": -0.0243382092,
				"y": -2.3323003496,
				"z": 1.392433171,
				"element": "H" 
			},
			{
				"x": -0.1229811896,
				"y": -1.8949517602,
				"z": -1.0408234542,
				"element": "H" 
			},
			{
				"x": 1.6100392155,
				"y": -2.1390981157,
				"z": -1.2004319706,
				"element": "H" 
			},
			{
				"x": 0.2703453602,
				"y": 1.4097907743,
				"z": 0.4598243639,
				"element": "H" 
			},
			{
				"x": -0.4617664021,
				"y": -0.0131840175,
				"z": 1.1861220844,
				"element": "H" 
			},
			{
				"x": 0.6403103973,
				"y": 2.2528233531,
				"z": -1.5335062676,
				"element": "H" 
			},
			{
				"x": 0.8759927928,
				"y": 1.008158987,
				"z": -2.7325984563,
				"element": "H" 
			},
			{
				"x": -0.5195532351,
				"y": 3.5409090595,
				"z": -3.2231067309,
				"element": "H" 
			},
			{
				"x": 0.8939065488,
				"y": 3.0392245221,
				"z": -3.8627029684,
				"element": "H" 
			},
			{
				"x": -2.1329669082,
				"y": 1.6542284535,
				"z": -3.8019981578,
				"element": "H" 
			},
			{
				"x": -4.2946094255,
				"y": 0.5998708442,
				"z": -3.1645818931,
				"element": "H" 
			},
			{
				"x": -4.5047104147,
				"y": -0.5408897354,
				"z": -0.9552316266,
				"element": "H" 
			},
			{
				"x": -2.5503336263,
				"y": -0.6177341923,
				"z": 0.5669509084,
				"element": "H" 
			},
			{
				"x": 3.1435329053,
				"y": -0.4441238306,
				"z": -0.2045693069,
				"element": "H" 
			},
			{
				"x": 2.4412892744,
				"y": 0.9489390957,
				"z": 0.6068010954,
				"element": "H" 
			},
			{
				"x": 1.6319186312,
				"y": -0.4753530648,
				"z": 2.4668758795,
				"element": "H" 
			},
			{
				"x": 3.3605250899,
				"y": -0.7141912482,
				"z": 2.2509802858,
				"element": "H" 
			}
		],
		 "valence_orbital": [ 
			{
				"type": "occ",
				"energy": -0.3019,
				"method": "rhf"
			},
			{
				"type": "occ",
				"energy": -0.23798,
				"method": "rhf"
			},
			{
				"type": "occ",
				"energy": -0.23434,
				"method": "rhf"
			},
			{
				"type": "occ",
				"energy": -0.22368,
				"method": "rhf"
			},
			{
				"type": "occ",
				"energy": -0.19862,
				"method": "rhf"
			},
			{
				"type": "unocc",
				"energy": 0.00533,
				"method": "rhf"
			},
			{
				"type": "unocc",
				"energy": 0.01281,
				"method": "rhf"
			},
			{
				"type": "unocc",
				"energy": 0.07143,
				"method": "rhf"
			},
			{
				"type": "unocc",
				"energy": 0.08905,
				"method": "rhf"
			},
			{
				"type": "unocc",
				"energy": 0.0938,
				"method": "rhf"
			}
		],
		"cosmo_sigma_profile": { 
			"-0.025": 0.0,
			"-0.024": 0.0,
			"-0.023": 0.0,
			"-0.022": 0.0,
			"-0.021": 0.0,
			"-0.02": 0.0,
			"-0.019": 0.0,
			"-0.018": 0.0,
			"-0.017": 0.0,
			"-0.016": 0.0,
			"-0.015": 0.0,
			"-0.014": 0.0,
			"-0.013": 0.0,
			"-0.012": 0.0,
			"-0.011": 0.0,
			"-0.01": 1.07535093669,
			"-0.009": 2.74453642426,
			"-0.008": 2.11408370119,
			"-0.007": 3.05417472438,
			"-0.006": 2.74513901538,
			"-0.005": 6.96383764817,
			"-0.004": 14.0353926489,
			"-0.003": 27.3414849275,
			"-0.002": 40.1918750541,
			"-0.001": 43.4293173443,
			"0.0": 40.7960457576,
			"0.001": 28.1194451674,
			"0.002": 16.6605310054,
			"0.003": 9.80224792731,
			"0.004": 10.2704802083,
			"0.005": 10.094994837,
			"0.006": 9.8467965318,
			"0.007": 6.64537049726,
			"0.008": 2.34897231659,
			"0.009": 1.36693403164,
			"0.01": 0.725454516257,
			"0.011": 0.697210184723,
			"0.012": 1.04775013298,
			"0.013": 0.781445234835,
			"0.014": 0.272351244758,
			"0.015": 0.821268765873,
			"0.016": 0.234674900323,
			"0.017": 0.61923408201,
			"0.018": 0.105841153035,
			"0.019": 0.0,
			"0.02": 0.0,
			"0.021": 0.0,
			"0.022": 0.0,
			"0.023": 0.0,
			"0.024": 0.0,
			"0.025": 0.0
		}
	}
}
