{
	 "smiles": "CCCCCCCCCC(C)O", 
	 "Tm": 274.15, 
	 "num_atms": 36, 
	 "gaussian": { 
		 "optdone": 1, 
		 "sigma_profile": "yes", 
		 "theory": "DFT", 
		 "functional": "B3LYP", 
		 "basiset": "6-31G**", 
		 "properties": { 
			 "R2extent": 4128.082, 
			 "electric_dipole_moment_norm": 1.69430197427, 
			 "electric_quadrupole_moment_norm": 8.37476796574, 
			 "total_energy": -508.881842244, 
			 "HOMO_LUMO_gap": 0.33066, 
			 "cosmo_polarized_energy": -5.31, 
			 "cosmo_cavitation_energy": 35.22, 
			 "cosmo_dispersion_energy": -24.21, 
			 "cosmo_repulsion_energy": 2.01, 
			 "cosmo_total_nonelectrostatic_energy": 13.02, 
			 "SMD_solvation_energy": 5.15 
		},
		"coords": [
			{
				"x": 0.8823383947,
				"y": 1.2996204955,
				"z": 3.274318887,
				"element": "C" 
			},
			{
				"x": 0.3136309223,
				"y": 2.4829646816,
				"z": 2.4817517155,
				"element": "C" 
			},
			{
				"x": -1.0634886151,
				"y": 2.2237376492,
				"z": 1.848285363,
				"element": "C" 
			},
			{
				"x": -1.0746579685,
				"y": 1.1546256825,
				"z": 0.7462626867,
				"element": "C" 
			},
			{
				"x": -2.453289671,
				"y": 0.9929687162,
				"z": 0.0857890473,
				"element": "C" 
			},
			{
				"x": -2.53019829,
				"y": -0.0222983086,
				"z": -1.0751858082,
				"element": "C" 
			},
			{
				"x": -2.8554833848,
				"y": -1.4798697496,
				"z": -0.6975052352,
				"element": "C" 
			},
			{
				"x": -1.8219430149,
				"y": -2.2433052155,
				"z": 0.1514459085,
				"element": "C" 
			},
			{
				"x": -0.40867091,
				"y": -2.4061314765,
				"z": -0.4380191321,
				"element": "C" 
			},
			{
				"x": -0.3049091032,
				"y": -3.2561615739,
				"z": -1.7076653148,
				"element": "C" 
			},
			{
				"x": 1.1417349195,
				"y": -3.6434719763,
				"z": -2.0258140242,
				"element": "C" 
			},
			{
				"x": -0.8632083836,
				"y": -2.4921574447,
				"z": -2.7828155252,
				"element": "O" 
			},
			{
				"x": 0.1944277483,
				"y": 0.9922537694,
				"z": 4.0709506298,
				"element": "H" 
			},
			{
				"x": 1.8367260263,
				"y": 1.5611559359,
				"z": 3.7435109601,
				"element": "H" 
			},
			{
				"x": 1.0595218953,
				"y": 0.4275797808,
				"z": 2.6365290355,
				"element": "H" 
			},
			{
				"x": 0.2353822664,
				"y": 3.3512936466,
				"z": 3.1487123783,
				"element": "H" 
			},
			{
				"x": 1.0242525383,
				"y": 2.7699505873,
				"z": 1.6942576934,
				"element": "H" 
			},
			{
				"x": -1.441357003,
				"y": 3.166022849,
				"z": 1.4278965153,
				"element": "H" 
			},
			{
				"x": -1.7751961268,
				"y": 1.9387908797,
				"z": 2.6370209122,
				"element": "H" 
			},
			{
				"x": -0.339954263,
				"y": 1.426963848,
				"z": -0.025708432,
				"element": "H" 
			},
			{
				"x": -0.7398009278,
				"y": 0.1966852297,
				"z": 1.1588035944,
				"element": "H" 
			},
			{
				"x": -3.1969938186,
				"y": 0.7289414999,
				"z": 0.85216605,
				"element": "H" 
			},
			{
				"x": -2.7572919942,
				"y": 1.9793057654,
				"z": -0.2909289845,
				"element": "H" 
			},
			{
				"x": -3.3210640182,
				"y": 0.305640423,
				"z": -1.762043917,
				"element": "H" 
			},
			{
				"x": -1.604655925,
				"y": 0.0086118365,
				"z": -1.663079879,
				"element": "H" 
			},
			{
				"x": -3.0205653888,
				"y": -2.0343611925,
				"z": -1.626412257,
				"element": "H" 
			},
			{
				"x": -3.8095608602,
				"y": -1.490868266,
				"z": -0.1509609685,
				"element": "H" 
			},
			{
				"x": -1.7277749764,
				"y": -1.7619436152,
				"z": 1.1330742206,
				"element": "H" 
			},
			{
				"x": -2.2249898187,
				"y": -3.2453365479,
				"z": 0.3573568516,
				"element": "H" 
			},
			{
				"x": 0.0400571979,
				"y": -1.4286834753,
				"z": -0.6535087369,
				"element": "H" 
			},
			{
				"x": 0.2247300355,
				"y": -2.874617334,
				"z": 0.3262462629,
				"element": "H" 
			},
			{
				"x": -0.8944029793,
				"y": -4.1785000428,
				"z": -1.5608636411,
				"element": "H" 
			},
			{
				"x": 1.7577205509,
				"y": -2.7464517014,
				"z": -2.1478988214,
				"element": "H" 
			},
			{
				"x": 1.196392074,
				"y": -4.2209837698,
				"z": -2.9567427769,
				"element": "H" 
			},
			{
				"x": 1.5745998463,
				"y": -4.2586386377,
				"z": -1.2298431147,
				"element": "H" 
			},
			{
				"x": -0.8278569746,
				"y": -3.0334329487,
				"z": -3.5819821434,
				"element": "H" 
			}
		],
		 "valence_orbital": [ 
			{
				"type": "occ",
				"energy": -0.3056,
				"method": "rhf"
			},
			{
				"type": "occ",
				"energy": -0.30234,
				"method": "rhf"
			},
			{
				"type": "occ",
				"energy": -0.29437,
				"method": "rhf"
			},
			{
				"type": "occ",
				"energy": -0.286,
				"method": "rhf"
			},
			{
				"type": "occ",
				"energy": -0.26115,
				"method": "rhf"
			},
			{
				"type": "unocc",
				"energy": 0.06951,
				"method": "rhf"
			},
			{
				"type": "unocc",
				"energy": 0.08811,
				"method": "rhf"
			},
			{
				"type": "unocc",
				"energy": 0.10666,
				"method": "rhf"
			},
			{
				"type": "unocc",
				"energy": 0.11273,
				"method": "rhf"
			},
			{
				"type": "unocc",
				"energy": 0.11486,
				"method": "rhf"
			}
		],
		"cosmo_sigma_profile": { 
			"-0.025": 0.0,
			"-0.024": 0.0,
			"-0.023": 0.0,
			"-0.022": 0.0,
			"-0.021": 0.0,
			"-0.02": 0.0,
			"-0.019": 0.0,
			"-0.018": 0.0,
			"-0.017": 0.0,
			"-0.016": 0.0,
			"-0.015": 0.483434864096,
			"-0.014": 1.04538657288,
			"-0.013": 0.664209199798,
			"-0.012": 1.24411839609,
			"-0.011": 0.836433523372,
			"-0.01": 0.932552980257,
			"-0.009": 0.707292429702,
			"-0.008": 0.583227241642,
			"-0.007": 0.784659931196,
			"-0.006": 1.77035276598,
			"-0.005": 1.25587583109,
			"-0.004": 2.5656577976,
			"-0.003": 9.04308400193,
			"-0.002": 31.2924139057,
			"-0.001": 51.5486546506,
			"0.0": 61.4898140815,
			"0.001": 54.9739502574,
			"0.002": 27.0052847928,
			"0.003": 3.56857719156,
			"0.004": 2.78960818268,
			"0.005": 1.47676534356,
			"0.006": 2.52793629442,
			"0.007": 1.47624676355,
			"0.008": 1.88605159344,
			"0.009": 1.47515490136,
			"0.01": 1.93111243886,
			"0.011": 1.78834727179,
			"0.012": 0.778943406737,
			"0.013": 0.545506310749,
			"0.014": 0.27788697364,
			"0.015": 0.0,
			"0.016": 0.0,
			"0.017": 0.0,
			"0.018": 0.0,
			"0.019": 0.0,
			"0.02": 0.0,
			"0.021": 0.0,
			"0.022": 0.0,
			"0.023": 0.0,
			"0.024": 0.0,
			"0.025": 0.0
		}
	}
}
