{
	 "smiles": "CC1=C(SC(=N1)C1CCCC1)C(O)=O", 
	 "Tm": 459.15, 
	 "num_atms": 27, 
	 "gaussian": { 
		 "optdone": 1, 
		 "sigma_profile": "yes", 
		 "theory": "DFT", 
		 "functional": "B3LYP", 
		 "basiset": "6-31G**", 
		 "properties": { 
			 "R2extent": 5290.3884, 
			 "electric_dipole_moment_norm": 4.71891012629, 
			 "electric_quadrupole_moment_norm": 27.0997969863, 
			 "total_energy": -992.302499098, 
			 "HOMO_LUMO_gap": 0.18926, 
			 "cosmo_polarized_energy": -13.93, 
			 "cosmo_cavitation_energy": 30.99, 
			 "cosmo_dispersion_energy": -23.18, 
			 "cosmo_repulsion_energy": 1.81, 
			 "cosmo_total_nonelectrostatic_energy": 9.63, 
			 "SMD_solvation_energy": 4.2 
		},
		"coords": [
			{
				"x": 1.4343315254,
				"y": 3.9468015824,
				"z": -0.4116754675,
				"element": "C" 
			},
			{
				"x": 0.7610263375,
				"y": 2.953667765,
				"z": 0.4997698187,
				"element": "C" 
			},
			{
				"x": 0.1505408767,
				"y": 3.2092238721,
				"z": 1.7156771559,
				"element": "C" 
			},
			{
				"x": -0.5106348011,
				"y": 1.7284430852,
				"z": 2.356208378,
				"element": "S" 
			},
			{
				"x": 0.0991176145,
				"y": 0.8816274902,
				"z": 0.9614924013,
				"element": "C" 
			},
			{
				"x": 0.7243676053,
				"y": 1.643605159,
				"z": 0.0956569346,
				"element": "N" 
			},
			{
				"x": -0.0843152014,
				"y": -0.5976539311,
				"z": 0.7836101557,
				"element": "C" 
			},
			{
				"x": -0.8044991906,
				"y": -0.9818073522,
				"z": -0.5330616511,
				"element": "C" 
			},
			{
				"x": -0.4423411155,
				"y": -2.4702975089,
				"z": -0.7654390212,
				"element": "C" 
			},
			{
				"x": 0.8141062481,
				"y": -2.7516601236,
				"z": 0.1120259699,
				"element": "C" 
			},
			{
				"x": 1.2440522402,
				"y": -1.3833043661,
				"z": 0.6754526514,
				"element": "C" 
			},
			{
				"x": -0.0601342675,
				"y": 4.4455311655,
				"z": 2.4969480923,
				"element": "C" 
			},
			{
				"x": 0.6011379307,
				"y": 5.5626570949,
				"z": 2.0906188539,
				"element": "O" 
			},
			{
				"x": -0.7867868648,
				"y": 4.4923880003,
				"z": 3.4642799113,
				"element": "O" 
			},
			{
				"x": 0.8321889307,
				"y": 4.8499261595,
				"z": -0.5582043813,
				"element": "H" 
			},
			{
				"x": 1.5879724773,
				"y": 3.4810547859,
				"z": -1.3863178642,
				"element": "H" 
			},
			{
				"x": 2.4249496879,
				"y": 4.241467621,
				"z": -0.0386489584,
				"element": "H" 
			},
			{
				"x": -0.6572329211,
				"y": -0.9866103898,
				"z": 1.6352302574,
				"element": "H" 
			},
			{
				"x": -1.8828394417,
				"y": -0.8031887464,
				"z": -0.4840951398,
				"element": "H" 
			},
			{
				"x": -0.4034132526,
				"y": -0.3540601564,
				"z": -1.3349070477,
				"element": "H" 
			},
			{
				"x": -1.2691992202,
				"y": -3.1251563429,
				"z": -0.4730583377,
				"element": "H" 
			},
			{
				"x": -0.2511388977,
				"y": -2.6630364119,
				"z": -1.8252850508,
				"element": "H" 
			},
			{
				"x": 1.6203048721,
				"y": -3.2322998664,
				"z": -0.4500281979,
				"element": "H" 
			},
			{
				"x": 0.5556553864,
				"y": -3.4287900029,
				"z": 0.9336399452,
				"element": "H" 
			},
			{
				"x": 1.8980836779,
				"y": -0.8566151758,
				"z": -0.0280529667,
				"element": "H" 
			},
			{
				"x": 1.7722762079,
				"y": -1.4547478615,
				"z": 1.6313211281,
				"element": "H" 
			},
			{
				"x": 1.2293235557,
				"y": 5.3595344548,
				"z": 1.3851424304,
				"element": "H" 
			}
		],
		 "valence_orbital": [ 
			{
				"type": "occ",
				"energy": -0.31722,
				"method": "rhf"
			},
			{
				"type": "occ",
				"energy": -0.2962,
				"method": "rhf"
			},
			{
				"type": "occ",
				"energy": -0.28791,
				"method": "rhf"
			},
			{
				"type": "occ",
				"energy": -0.26598,
				"method": "rhf"
			},
			{
				"type": "occ",
				"energy": -0.25045,
				"method": "rhf"
			},
			{
				"type": "unocc",
				"energy": -0.06119,
				"method": "rhf"
			},
			{
				"type": "unocc",
				"energy": 0.00513,
				"method": "rhf"
			},
			{
				"type": "unocc",
				"energy": 0.01188,
				"method": "rhf"
			},
			{
				"type": "unocc",
				"energy": 0.06403,
				"method": "rhf"
			},
			{
				"type": "unocc",
				"energy": 0.07829,
				"method": "rhf"
			}
		],
		"cosmo_sigma_profile": { 
			"-0.025": 0.0,
			"-0.024": 0.0,
			"-0.023": 0.0,
			"-0.022": 0.0,
			"-0.021": 0.0,
			"-0.02": 0.0,
			"-0.019": 0.0,
			"-0.018": 0.0,
			"-0.017": 0.0,
			"-0.016": 0.386530906417,
			"-0.015": 1.33651511868,
			"-0.014": 1.48987641473,
			"-0.013": 0.961320386494,
			"-0.012": 0.857339218492,
			"-0.011": 1.54511251633,
			"-0.01": 1.35909577293,
			"-0.009": 1.05483957377,
			"-0.008": 2.75034809298,
			"-0.007": 3.44285926912,
			"-0.006": 6.46155101397,
			"-0.005": 8.59970319149,
			"-0.004": 9.79287625339,
			"-0.003": 22.8274519364,
			"-0.002": 33.7409633644,
			"-0.001": 33.271370836,
			"0.0": 27.2060080981,
			"0.001": 25.4589474657,
			"0.002": 11.784308917,
			"0.003": 7.44164877869,
			"0.004": 4.53233340985,
			"0.005": 4.12676880292,
			"0.006": 5.41691471006,
			"0.007": 3.16274085097,
			"0.008": 4.16935463216,
			"0.009": 4.33707019856,
			"0.01": 5.40124843585,
			"0.011": 5.96388235327,
			"0.012": 5.05604079131,
			"0.013": 1.99057799569,
			"0.014": 0.109341202234,
			"0.015": 0.0,
			"0.016": 0.0,
			"0.017": 0.0,
			"0.018": 0.0,
			"0.019": 0.0,
			"0.02": 0.0,
			"0.021": 0.0,
			"0.022": 0.0,
			"0.023": 0.0,
			"0.024": 0.0,
			"0.025": 0.0
		}
	}
}
