{
	 "smiles": "ClCC(=O)C1=NN=C(O1)C1=CC=CC=C1", 
	 "Tm": 397.15, 
	 "num_atms": 22, 
	 "gaussian": { 
		 "optdone": 1, 
		 "sigma_profile": "yes", 
		 "theory": "DFT", 
		 "functional": "B3LYP", 
		 "basiset": "6-31G**", 
		 "properties": { 
			 "R2extent": 5263.4972, 
			 "electric_dipole_moment_norm": 5.74671943721, 
			 "electric_quadrupole_moment_norm": 17.2676840407, 
			 "total_energy": -1105.38325587, 
			 "HOMO_LUMO_gap": 0.15805, 
			 "cosmo_polarized_energy": -14.3, 
			 "cosmo_cavitation_energy": 30.04, 
			 "cosmo_dispersion_energy": -21.47, 
			 "cosmo_repulsion_energy": 1.68, 
			 "cosmo_total_nonelectrostatic_energy": 10.24, 
			 "SMD_solvation_energy": 3.99 
		},
		"coords": [
			{
				"x": 2.407094982,
				"y": -1.8077016221,
				"z": 3.3616737136,
				"element": "Cl" 
			},
			{
				"x": 3.617503489,
				"y": -1.5200464573,
				"z": 2.0443973445,
				"element": "C" 
			},
			{
				"x": 3.9187915987,
				"y": -0.0300817789,
				"z": 1.9074791863,
				"element": "C" 
			},
			{
				"x": 4.9923818839,
				"y": 0.4314209349,
				"z": 2.2334547337,
				"element": "O" 
			},
			{
				"x": 2.8532715435,
				"y": 0.8309991462,
				"z": 1.3401454465,
				"element": "C" 
			},
			{
				"x": 2.8574184613,
				"y": 2.12416101,
				"z": 1.1889703322,
				"element": "N" 
			},
			{
				"x": 1.6583298747,
				"y": 2.455599363,
				"z": 0.599942871,
				"element": "N" 
			},
			{
				"x": 0.9968773298,
				"y": 1.3375008238,
				"z": 0.424543872,
				"element": "C" 
			},
			{
				"x": 1.7000317374,
				"y": 0.262915102,
				"z": 0.8715239473,
				"element": "O" 
			},
			{
				"x": -0.3224628916,
				"y": 1.1523056142,
				"z": -0.161302549,
				"element": "C" 
			},
			{
				"x": -1.0068990972,
				"y": 2.2730957853,
				"z": -0.6617375678,
				"element": "C" 
			},
			{
				"x": -2.2694783656,
				"y": 2.1163881171,
				"z": -1.2245439356,
				"element": "C" 
			},
			{
				"x": -2.8570418072,
				"y": 0.8495208394,
				"z": -1.2927314743,
				"element": "C" 
			},
			{
				"x": -2.1781042703,
				"y": -0.2648879752,
				"z": -0.7941716204,
				"element": "C" 
			},
			{
				"x": -0.913695626,
				"y": -0.1192589416,
				"z": -0.2286028368,
				"element": "C" 
			},
			{
				"x": 3.1983164872,
				"y": -1.9381798934,
				"z": 1.1275423439,
				"element": "H" 
			},
			{
				"x": 4.5385647439,
				"y": -2.0300159051,
				"z": 2.3210452199,
				"element": "H" 
			},
			{
				"x": -0.5372041438,
				"y": 3.2488452567,
				"z": -0.600983084,
				"element": "H" 
			},
			{
				"x": -2.7971184408,
				"y": 2.9828925905,
				"z": -1.6110556089,
				"element": "H" 
			},
			{
				"x": -3.8428575804,
				"y": 0.7316199849,
				"z": -1.7327195976,
				"element": "H" 
			},
			{
				"x": -2.6346813392,
				"y": -1.2486034085,
				"z": -0.8441405853,
				"element": "H" 
			},
			{
				"x": -0.3858385693,
				"y": -0.9813885861,
				"z": 0.1648698487,
				"element": "H" 
			}
		],
		 "valence_orbital": [ 
			{
				"type": "occ",
				"energy": -0.31553,
				"method": "rhf"
			},
			{
				"type": "occ",
				"energy": -0.29455,
				"method": "rhf"
			},
			{
				"type": "occ",
				"energy": -0.28092,
				"method": "rhf"
			},
			{
				"type": "occ",
				"energy": -0.27522,
				"method": "rhf"
			},
			{
				"type": "occ",
				"energy": -0.25698,
				"method": "rhf"
			},
			{
				"type": "unocc",
				"energy": -0.09893,
				"method": "rhf"
			},
			{
				"type": "unocc",
				"energy": -0.05567,
				"method": "rhf"
			},
			{
				"type": "unocc",
				"energy": -0.02395,
				"method": "rhf"
			},
			{
				"type": "unocc",
				"energy": 0.00025,
				"method": "rhf"
			},
			{
				"type": "unocc",
				"energy": 0.04055,
				"method": "rhf"
			}
		],
		"cosmo_sigma_profile": { 
			"-0.025": 0.0,
			"-0.024": 0.0,
			"-0.023": 0.0,
			"-0.022": 0.0,
			"-0.021": 0.0,
			"-0.02": 0.0,
			"-0.019": 0.0,
			"-0.018": 0.0,
			"-0.017": 0.0,
			"-0.016": 0.0,
			"-0.015": 0.0,
			"-0.014": 0.0,
			"-0.013": 0.0,
			"-0.012": 0.184638608084,
			"-0.011": 0.902219265134,
			"-0.01": 2.43583795751,
			"-0.009": 4.24531690831,
			"-0.008": 4.2480579943,
			"-0.007": 11.2341248452,
			"-0.006": 17.1122054617,
			"-0.005": 17.8535087106,
			"-0.004": 13.7953561724,
			"-0.003": 13.7041033605,
			"-0.002": 17.9604561543,
			"-0.001": 14.4551103417,
			"0.0": 16.1717388224,
			"0.001": 14.7477051222,
			"0.002": 16.5912580123,
			"0.003": 21.6903150542,
			"0.004": 12.991281136,
			"0.005": 10.508294347,
			"0.006": 3.45859782473,
			"0.007": 3.8384157866,
			"0.008": 5.01328887141,
			"0.009": 6.96927649111,
			"0.01": 7.0059981658,
			"0.011": 3.44419757942,
			"0.012": 2.44893427206,
			"0.013": 1.52216103815,
			"0.014": 0.148841192867,
			"0.015": 0.0,
			"0.016": 0.0,
			"0.017": 0.0,
			"0.018": 0.0,
			"0.019": 0.0,
			"0.02": 0.0,
			"0.021": 0.0,
			"0.022": 0.0,
			"0.023": 0.0,
			"0.024": 0.0,
			"0.025": 0.0
		}
	}
}
