{
	 "smiles": "CCCCCCCC(=O)OC1CCC2(C)C3CCC4(C)C(CCC4C3CC=C2C1)C(C)CCCC(C)C", 
	 "Tm": 383.15, 
	 "num_atms": 97, 
	 "gaussian": { 
		 "optdone": 1, 
		 "sigma_profile": "yes", 
		 "theory": "DFT", 
		 "functional": "B3LYP", 
		 "basiset": "6-31G**", 
		 "properties": { 
			 "R2extent": 42724.2677, 
			 "electric_dipole_moment_norm": 1.84785441256, 
			 "electric_quadrupole_moment_norm": 17.3510246349, 
			 "total_energy": -1520.41269807, 
			 "HOMO_LUMO_gap": 0.24695, 
			 "cosmo_polarized_energy": -8.04, 
			 "cosmo_cavitation_energy": 85.14, 
			 "cosmo_dispersion_energy": -56.35, 
			 "cosmo_repulsion_energy": 4.27, 
			 "cosmo_total_nonelectrostatic_energy": 33.06, 
			 "SMD_solvation_energy": 12.18 
		},
		"coords": [
			{
				"x": -8.1074592818,
				"y": -7.5126375573,
				"z": -1.5154949347,
				"element": "C" 
			},
			{
				"x": -8.5075210739,
				"y": -6.5360997715,
				"z": -0.404877064,
				"element": "C" 
			},
			{
				"x": -7.3966158319,
				"y": -5.542076738,
				"z": -0.0428841774,
				"element": "C" 
			},
			{
				"x": -7.7882427164,
				"y": -4.5602501706,
				"z": 1.0684278461,
				"element": "C" 
			},
			{
				"x": -6.6765717959,
				"y": -3.5653777779,
				"z": 1.4242897271,
				"element": "C" 
			},
			{
				"x": -7.0745578951,
				"y": -2.5875580712,
				"z": 2.5376023099,
				"element": "C" 
			},
			{
				"x": -5.9674491914,
				"y": -1.5965849852,
				"z": 2.9111704954,
				"element": "C" 
			},
			{
				"x": -5.6964462675,
				"y": -0.5603351846,
				"z": 1.8338898575,
				"element": "C" 
			},
			{
				"x": -6.4470025588,
				"y": -0.2906243946,
				"z": 0.9178350483,
				"element": "O" 
			},
			{
				"x": -4.5133508208,
				"y": 0.0558089906,
				"z": 2.0475663358,
				"element": "O" 
			},
			{
				"x": -4.14959916,
				"y": 1.1252750886,
				"z": 1.129114014,
				"element": "C" 
			},
			{
				"x": -3.5249100833,
				"y": 0.5351809927,
				"z": -0.1434089159,
				"element": "C" 
			},
			{
				"x": -2.5940117626,
				"y": 1.5586308469,
				"z": -0.8075809355,
				"element": "C" 
			},
			{
				"x": -1.3372023935,
				"y": 1.8832060817,
				"z": 0.0708373514,
				"element": "C" 
			},
			{
				"x": -0.9498168146,
				"y": 3.3661040438,
				"z": -0.152657379,
				"element": "C" 
			},
			{
				"x": -0.1628087114,
				"y": 0.9112837385,
				"z": -0.2852090712,
				"element": "C" 
			},
			{
				"x": 0.3545340066,
				"y": 1.0613122699,
				"z": -1.7478078884,
				"element": "C" 
			},
			{
				"x": 1.8553252698,
				"y": 1.3787320937,
				"z": -1.847040495,
				"element": "C" 
			},
			{
				"x": 2.7431825112,
				"y": 0.3488514105,
				"z": -1.1140866637,
				"element": "C" 
			},
			{
				"x": 2.7007596379,
				"y": -1.0071281182,
				"z": -1.8498861574,
				"element": "C" 
			},
			{
				"x": 4.2272891909,
				"y": 0.8506086229,
				"z": -0.919787228,
				"element": "C" 
			},
			{
				"x": 4.6492057448,
				"y": 0.2075462993,
				"z": 0.4164440304,
				"element": "C" 
			},
			{
				"x": 3.4124598625,
				"y": 0.3634586984,
				"z": 1.3030173929,
				"element": "C" 
			},
			{
				"x": 2.202759817,
				"y": 0.1412281841,
				"z": 0.3618649716,
				"element": "C" 
			},
			{
				"x": 0.9908731682,
				"y": 1.0183126649,
				"z": 0.7402749069,
				"element": "C" 
			},
			{
				"x": 0.4919789583,
				"y": 0.6694166637,
				"z": 2.1549027894,
				"element": "C" 
			},
			{
				"x": -0.8979614387,
				"y": 1.1600241115,
				"z": 2.4468996167,
				"element": "C" 
			},
			{
				"x": -1.7268591243,
				"y": 1.6878333122,
				"z": 1.5399927774,
				"element": "C" 
			},
			{
				"x": -3.1556946724,
				"y": 2.0454665949,
				"z": 1.872426327,
				"element": "C" 
			},
			{
				"x": 5.2421125973,
				"y": 0.6226076806,
				"z": -2.0703744891,
				"element": "C" 
			},
			{
				"x": 4.8674882415,
				"y": 1.3493483867,
				"z": -3.3753444142,
				"element": "C" 
			},
			{
				"x": 6.6968337975,
				"y": 0.9754997227,
				"z": -1.6622956027,
				"element": "C" 
			},
			{
				"x": 6.9675772373,
				"y": 2.4382046831,
				"z": -1.2759977402,
				"element": "C" 
			},
			{
				"x": 8.4427697445,
				"y": 2.685395328,
				"z": -0.9273622841,
				"element": "C" 
			},
			{
				"x": 8.8140860348,
				"y": 4.1504892095,
				"z": -0.6228157538,
				"element": "C" 
			},
			{
				"x": 10.3361843985,
				"y": 4.3010771859,
				"z": -0.4798109919,
				"element": "C" 
			},
			{
				"x": 8.1012310537,
				"y": 4.692331449,
				"z": 0.6258709362,
				"element": "C" 
			},
			{
				"x": -7.2345807392,
				"y": -8.1082486272,
				"z": -1.224120332,
				"element": "H" 
			},
			{
				"x": -8.9201086483,
				"y": -8.2078317846,
				"z": -1.7509870156,
				"element": "H" 
			},
			{
				"x": -7.8486579677,
				"y": -6.9793645467,
				"z": -2.4374745698,
				"element": "H" 
			},
			{
				"x": -8.7945910436,
				"y": -7.1004758504,
				"z": 0.4930169813,
				"element": "H" 
			},
			{
				"x": -9.4038113145,
				"y": -5.9799116701,
				"z": -0.7116998056,
				"element": "H" 
			},
			{
				"x": -6.498927089,
				"y": -6.0988922948,
				"z": 0.2629787282,
				"element": "H" 
			},
			{
				"x": -7.1098073856,
				"y": -4.9768990378,
				"z": -0.9412386339,
				"element": "H" 
			},
			{
				"x": -8.0744698532,
				"y": -5.1252742453,
				"z": 1.9675220462,
				"element": "H" 
			},
			{
				"x": -8.6851754755,
				"y": -4.0040216204,
				"z": 0.7614564647,
				"element": "H" 
			},
			{
				"x": -5.7776797827,
				"y": -4.1198497596,
				"z": 1.7316894853,
				"element": "H" 
			},
			{
				"x": -6.4012239855,
				"y": -2.9946526559,
				"z": 0.5289016389,
				"element": "H" 
			},
			{
				"x": -7.3546428334,
				"y": -3.1515992129,
				"z": 3.4363886815,
				"element": "H" 
			},
			{
				"x": -7.9606342904,
				"y": -2.0228129503,
				"z": 2.2265304531,
				"element": "H" 
			},
			{
				"x": -5.0266732378,
				"y": -2.1073025643,
				"z": 3.1457196098,
				"element": "H" 
			},
			{
				"x": -6.2386414884,
				"y": -1.0401340437,
				"z": 3.8185241031,
				"element": "H" 
			},
			{
				"x": -5.0674675518,
				"y": 1.6663088749,
				"z": 0.882940343,
				"element": "H" 
			},
			{
				"x": -4.3141569819,
				"y": 0.2059210004,
				"z": -0.8246641446,
				"element": "H" 
			},
			{
				"x": -2.9506312193,
				"y": -0.3536153569,
				"z": 0.144809683,
				"element": "H" 
			},
			{
				"x": -2.2796758392,
				"y": 1.196906827,
				"z": -1.7912514981,
				"element": "H" 
			},
			{
				"x": -3.1586517253,
				"y": 2.4808906951,
				"z": -0.9985170104,
				"element": "H" 
			},
			{
				"x": -0.7811374569,
				"y": 3.5845738347,
				"z": -1.2123967174,
				"element": "H" 
			},
			{
				"x": -0.0486496523,
				"y": 3.6421825362,
				"z": 0.4013076955,
				"element": "H" 
			},
			{
				"x": -1.7546898321,
				"y": 4.0271126523,
				"z": 0.1855930534,
				"element": "H" 
			},
			{
				"x": -0.5738942729,
				"y": -0.1032865414,
				"z": -0.176761166,
				"element": "H" 
			},
			{
				"x": -0.1959101759,
				"y": 1.8463476844,
				"z": -2.2760724035,
				"element": "H" 
			},
			{
				"x": 0.1463256516,
				"y": 0.1415614409,
				"z": -2.3054015509,
				"element": "H" 
			},
			{
				"x": 2.1323145003,
				"y": 1.4406721022,
				"z": -2.9041236152,
				"element": "H" 
			},
			{
				"x": 2.0425090196,
				"y": 2.3760443584,
				"z": -1.4286045502,
				"element": "H" 
			},
			{
				"x": 3.0168187692,
				"y": -0.9226257141,
				"z": -2.8946106761,
				"element": "H" 
			},
			{
				"x": 3.3475040627,
				"y": -1.745497406,
				"z": -1.3635865507,
				"element": "H" 
			},
			{
				"x": 1.6877295765,
				"y": -1.4220018806,
				"z": -1.846754094,
				"element": "H" 
			},
			{
				"x": 4.1635666765,
				"y": 1.9360838997,
				"z": -0.7466233977,
				"element": "H" 
			},
			{
				"x": 4.8882704565,
				"y": -0.854100368,
				"z": 0.2645516955,
				"element": "H" 
			},
			{
				"x": 5.5358756532,
				"y": 0.6733423916,
				"z": 0.8566363058,
				"element": "H" 
			},
			{
				"x": 3.4110869255,
				"y": -0.3137374321,
				"z": 2.1631165446,
				"element": "H" 
			},
			{
				"x": 3.3859895603,
				"y": 1.3856296173,
				"z": 1.70494461,
				"element": "H" 
			},
			{
				"x": 1.8765381654,
				"y": -0.9046381868,
				"z": 0.4535111581,
				"element": "H" 
			},
			{
				"x": 1.3348737158,
				"y": 2.0616369577,
				"z": 0.7605284703,
				"element": "H" 
			},
			{
				"x": 1.1914967157,
				"y": 1.0554610764,
				"z": 2.9083532101,
				"element": "H" 
			},
			{
				"x": 0.5058104255,
				"y": -0.4253439446,
				"z": 2.2867801488,
				"element": "H" 
			},
			{
				"x": -1.2538744593,
				"y": 1.026815099,
				"z": 3.4686783707,
				"element": "H" 
			},
			{
				"x": -3.3452955201,
				"y": 1.9827488609,
				"z": 2.9475508572,
				"element": "H" 
			},
			{
				"x": -3.3664516553,
				"y": 3.0801195695,
				"z": 1.571331553,
				"element": "H" 
			},
			{
				"x": 5.2552728622,
				"y": -0.4542061606,
				"z": -2.2885608563,
				"element": "H" 
			},
			{
				"x": 5.6753762723,
				"y": 1.2589958956,
				"z": -4.110488531,
				"element": "H" 
			},
			{
				"x": 3.9664252007,
				"y": 0.9352525106,
				"z": -3.8340389325,
				"element": "H" 
			},
			{
				"x": 4.6893525662,
				"y": 2.4175073358,
				"z": -3.2100277042,
				"element": "H" 
			},
			{
				"x": 7.3500039291,
				"y": 0.7119867657,
				"z": -2.5060732924,
				"element": "H" 
			},
			{
				"x": 7.0104458083,
				"y": 0.3274325765,
				"z": -0.834754921,
				"element": "H" 
			},
			{
				"x": 6.6811911816,
				"y": 3.1024789683,
				"z": -2.1023416614,
				"element": "H" 
			},
			{
				"x": 6.3348538347,
				"y": 2.7184687686,
				"z": -0.4254204611,
				"element": "H" 
			},
			{
				"x": 9.0630328566,
				"y": 2.3367248111,
				"z": -1.7652618195,
				"element": "H" 
			},
			{
				"x": 8.7236905099,
				"y": 2.0607645147,
				"z": -0.065792162,
				"element": "H" 
			},
			{
				"x": 8.4962376069,
				"y": 4.7591721357,
				"z": -1.4832625919,
				"element": "H" 
			},
			{
				"x": 10.6187840725,
				"y": 5.3446910155,
				"z": -0.3031709779,
				"element": "H" 
			},
			{
				"x": 10.7101075667,
				"y": 3.7095881486,
				"z": 0.365156584,
				"element": "H" 
			},
			{
				"x": 10.8586651204,
				"y": 3.9597515236,
				"z": -1.3802857147,
				"element": "H" 
			},
			{
				"x": 8.3925548581,
				"y": 5.7296278104,
				"z": 0.8243010534,
				"element": "H" 
			},
			{
				"x": 8.3637664728,
				"y": 4.0999484728,
				"z": 1.5115251882,
				"element": "H" 
			},
			{
				"x": 7.0121712057,
				"y": 4.6712115385,
				"z": 0.5217180929,
				"element": "H" 
			}
		],
		 "valence_orbital": [ 
			{
				"type": "occ",
				"energy": -0.2814,
				"method": "rhf"
			},
			{
				"type": "occ",
				"energy": -0.27587,
				"method": "rhf"
			},
			{
				"type": "occ",
				"energy": -0.26892,
				"method": "rhf"
			},
			{
				"type": "occ",
				"energy": -0.26292,
				"method": "rhf"
			},
			{
				"type": "occ",
				"energy": -0.22829,
				"method": "rhf"
			},
			{
				"type": "unocc",
				"energy": 0.01866,
				"method": "rhf"
			},
			{
				"type": "unocc",
				"energy": 0.02974,
				"method": "rhf"
			},
			{
				"type": "unocc",
				"energy": 0.07013,
				"method": "rhf"
			},
			{
				"type": "unocc",
				"energy": 0.07862,
				"method": "rhf"
			},
			{
				"type": "unocc",
				"energy": 0.08263,
				"method": "rhf"
			}
		],
		"cosmo_sigma_profile": { 
			"-0.025": 0.0,
			"-0.024": 0.0,
			"-0.023": 0.0,
			"-0.022": 0.0,
			"-0.021": 0.0,
			"-0.02": 0.0,
			"-0.019": 0.0,
			"-0.018": 0.0,
			"-0.017": 0.0,
			"-0.016": 0.0,
			"-0.015": 0.0,
			"-0.014": 0.0,
			"-0.013": 0.0,
			"-0.012": 0.0,
			"-0.011": 0.0,
			"-0.01": 0.0,
			"-0.009": 0.0,
			"-0.008": 0.0,
			"-0.007": 0.0,
			"-0.006": 1.79895108271,
			"-0.005": 4.11050533695,
			"-0.004": 14.3626078265,
			"-0.003": 30.8166272144,
			"-0.002": 91.6189113622,
			"-0.001": 153.957520733,
			"0.0": 140.398694865,
			"0.001": 105.115470597,
			"0.002": 60.5696511776,
			"0.003": 12.0649135202,
			"0.004": 6.1991904094,
			"0.005": 5.65322449271,
			"0.006": 5.73901857013,
			"0.007": 3.41531131699,
			"0.008": 3.16117332458,
			"0.009": 2.66163627424,
			"0.01": 1.49390633197,
			"0.011": 1.81750812351,
			"0.012": 3.73202929156,
			"0.013": 1.56494473511,
			"0.014": 0.0,
			"0.015": 0.0,
			"0.016": 0.0,
			"0.017": 0.0,
			"0.018": 0.0,
			"0.019": 0.0,
			"0.02": 0.0,
			"0.021": 0.0,
			"0.022": 0.0,
			"0.023": 0.0,
			"0.024": 0.0,
			"0.025": 0.0
		}
	}
}
