{
	 "smiles": "[O-][N+](=O)C1=C(Cl)C=C(F)C=C1", 
	 "Tm": 308.15, 
	 "num_atms": 14, 
	 "gaussian": { 
		 "optdone": 1, 
		 "sigma_profile": "yes", 
		 "theory": "DFT", 
		 "functional": "B3LYP", 
		 "basiset": "6-31G**", 
		 "properties": { 
			 "R2extent": 2764.8489, 
			 "electric_dipole_moment_norm": 3.70812913206, 
			 "electric_quadrupole_moment_norm": 11.5175907342, 
			 "total_energy": -995.555854878, 
			 "HOMO_LUMO_gap": 0.18417, 
			 "cosmo_polarized_energy": -8.16, 
			 "cosmo_cavitation_energy": 21.7, 
			 "cosmo_dispersion_energy": -16.07, 
			 "cosmo_repulsion_energy": 1.26, 
			 "cosmo_total_nonelectrostatic_energy": 6.89, 
			 "SMD_solvation_energy": 6.3 
		},
		"coords": [
			{
				"x": 0.604566852,
				"y": 0.7872198741,
				"z": -3.0694328987,
				"element": "O" 
			},
			{
				"x": -0.3127810777,
				"y": 0.6180867594,
				"z": -2.2649189346,
				"element": "N" 
			},
			{
				"x": -1.3309054588,
				"y": -0.0295277946,
				"z": -2.4831416651,
				"element": "O" 
			},
			{
				"x": -0.1394868235,
				"y": 1.2186215072,
				"z": -0.9324412628,
				"element": "C" 
			},
			{
				"x": -1.2118636209,
				"y": 1.6039977617,
				"z": -0.1086814786,
				"element": "C" 
			},
			{
				"x": -2.8838212911,
				"y": 1.5146713547,
				"z": -0.5809334474,
				"element": "Cl" 
			},
			{
				"x": -0.9375761534,
				"y": 2.1470795394,
				"z": 1.1479174933,
				"element": "C" 
			},
			{
				"x": 0.3820978765,
				"y": 2.2812724046,
				"z": 1.5613671405,
				"element": "C" 
			},
			{
				"x": 0.621553133,
				"y": 2.7945296005,
				"z": 2.77621197,
				"element": "F" 
			},
			{
				"x": 1.4555492761,
				"y": 1.9112629388,
				"z": 0.7565789999,
				"element": "C" 
			},
			{
				"x": 1.1790985755,
				"y": 1.3880880093,
				"z": -0.4984747149,
				"element": "C" 
			},
			{
				"x": -1.7433483507,
				"y": 2.4672770733,
				"z": 1.7967021677,
				"element": "H" 
			},
			{
				"x": 2.4715219344,
				"y": 2.035867333,
				"z": 1.1119817503,
				"element": "H" 
			},
			{
				"x": 1.9756951284,
				"y": 1.0964536387,
				"z": -1.1714351196,
				"element": "H" 
			}
		],
		 "valence_orbital": [ 
			{
				"type": "occ",
				"energy": -0.31586,
				"method": "rhf"
			},
			{
				"type": "occ",
				"energy": -0.31302,
				"method": "rhf"
			},
			{
				"type": "occ",
				"energy": -0.30081,
				"method": "rhf"
			},
			{
				"type": "occ",
				"energy": -0.28536,
				"method": "rhf"
			},
			{
				"type": "occ",
				"energy": -0.27862,
				"method": "rhf"
			},
			{
				"type": "unocc",
				"energy": -0.09445,
				"method": "rhf"
			},
			{
				"type": "unocc",
				"energy": -0.04993,
				"method": "rhf"
			},
			{
				"type": "unocc",
				"energy": -0.01654,
				"method": "rhf"
			},
			{
				"type": "unocc",
				"energy": 0.00227,
				"method": "rhf"
			},
			{
				"type": "unocc",
				"energy": 0.08591,
				"method": "rhf"
			}
		],
		"cosmo_sigma_profile": { 
			"-0.025": 0.0,
			"-0.024": 0.0,
			"-0.023": 0.0,
			"-0.022": 0.0,
			"-0.021": 0.0,
			"-0.02": 0.0,
			"-0.019": 0.0,
			"-0.018": 0.0,
			"-0.017": 0.0,
			"-0.016": 0.0,
			"-0.015": 0.0,
			"-0.014": 0.0,
			"-0.013": 0.0,
			"-0.012": 0.0,
			"-0.011": 0.0,
			"-0.01": 0.679024267453,
			"-0.009": 4.7476449968,
			"-0.008": 5.03219115841,
			"-0.007": 6.95141845948,
			"-0.006": 6.31585460881,
			"-0.005": 6.87187557631,
			"-0.004": 7.23368941948,
			"-0.003": 10.3005910312,
			"-0.002": 21.0695258171,
			"-0.001": 20.7039101128,
			"0.0": 12.5227374534,
			"0.001": 9.93250277382,
			"0.002": 11.5607063016,
			"0.003": 17.4267979376,
			"0.004": 4.86656337643,
			"0.005": 3.72925701173,
			"0.006": 4.63249954891,
			"0.007": 9.83604934584,
			"0.008": 8.1975176947,
			"0.009": 3.89104376364,
			"0.01": 1.12561827742,
			"0.011": 0.0,
			"0.012": 0.0,
			"0.013": 0.0,
			"0.014": 0.0,
			"0.015": 0.0,
			"0.016": 0.0,
			"0.017": 0.0,
			"0.018": 0.0,
			"0.019": 0.0,
			"0.02": 0.0,
			"0.021": 0.0,
			"0.022": 0.0,
			"0.023": 0.0,
			"0.024": 0.0,
			"0.025": 0.0
		}
	}
}
