{
	 "smiles": "CC1=NC(C)=C(C)C=C1", 
	 "Tm": 310.15, 
	 "num_atms": 20, 
	 "gaussian": { 
		 "optdone": 1, 
		 "sigma_profile": "yes", 
		 "theory": "DFT", 
		 "functional": "B3LYP", 
		 "basiset": "6-31G**", 
		 "properties": { 
			 "R2extent": 1348.8717, 
			 "electric_dipole_moment_norm": 1.69192420043, 
			 "electric_quadrupole_moment_norm": 4.95883971812, 
			 "total_energy": -366.251957036, 
			 "HOMO_LUMO_gap": 0.22388, 
			 "cosmo_polarized_energy": -5.54, 
			 "cosmo_cavitation_energy": 22.75, 
			 "cosmo_dispersion_energy": -16.76, 
			 "cosmo_repulsion_energy": 1.38, 
			 "cosmo_total_nonelectrostatic_energy": 7.37, 
			 "SMD_solvation_energy": 2.88 
		},
		"coords": [
			{
				"x": 2.3193087468,
				"y": 1.9769278738,
				"z": -0.6247584106,
				"element": "C" 
			},
			{
				"x": 0.9833763359,
				"y": 1.3179530455,
				"z": -0.3755203613,
				"element": "C" 
			},
			{
				"x": 0.8474009827,
				"y": 0.0467141737,
				"z": -0.7829000995,
				"element": "N" 
			},
			{
				"x": -0.3181164084,
				"y": -0.5907572911,
				"z": -0.587904408,
				"element": "C" 
			},
			{
				"x": -0.3830511794,
				"y": -2.0174190213,
				"z": -1.0769109995,
				"element": "C" 
			},
			{
				"x": -1.4265043572,
				"y": 0.018427272,
				"z": 0.0342899931,
				"element": "C" 
			},
			{
				"x": -2.7240580977,
				"y": -0.7232300392,
				"z": 0.2398647637,
				"element": "C" 
			},
			{
				"x": -1.270450933,
				"y": 1.3422178684,
				"z": 0.4532569997,
				"element": "C" 
			},
			{
				"x": -0.0631916399,
				"y": 2.0032255044,
				"z": 0.2515474998,
				"element": "C" 
			},
			{
				"x": 2.2139840374,
				"y": 2.865957429,
				"z": -1.2574400252,
				"element": "H" 
			},
			{
				"x": 2.7852411223,
				"y": 2.3017629524,
				"z": 0.3128664613,
				"element": "H" 
			},
			{
				"x": 2.9878022243,
				"y": 1.2717917572,
				"z": -1.121300214,
				"element": "H" 
			},
			{
				"x": -1.1723293429,
				"y": -2.1519845022,
				"z": -1.8268297678,
				"element": "H" 
			},
			{
				"x": 0.5746099272,
				"y": -2.28902197,
				"z": -1.5228198697,
				"element": "H" 
			},
			{
				"x": -0.6021832466,
				"y": -2.7151901386,
				"z": -0.2592649447,
				"element": "H" 
			},
			{
				"x": -3.1555269074,
				"y": -1.057621854,
				"z": -0.7113106585,
				"element": "H" 
			},
			{
				"x": -2.5856029448,
				"y": -1.6205526724,
				"z": 0.8549751557,
				"element": "H" 
			},
			{
				"x": -3.4640537668,
				"y": -0.0896466706,
				"z": 0.73682609,
				"element": "H" 
			},
			{
				"x": -2.0990475312,
				"y": 1.8533490896,
				"z": 0.9384064177,
				"element": "H" 
			},
			{
				"x": 0.0683929786,
				"y": 3.0323971934,
				"z": 0.5735263777,
				"element": "H" 
			}
		],
		 "valence_orbital": [ 
			{
				"type": "occ",
				"energy": -0.35079,
				"method": "rhf"
			},
			{
				"type": "occ",
				"energy": -0.34109,
				"method": "rhf"
			},
			{
				"type": "occ",
				"energy": -0.27029,
				"method": "rhf"
			},
			{
				"type": "occ",
				"energy": -0.2405,
				"method": "rhf"
			},
			{
				"type": "occ",
				"energy": -0.23175,
				"method": "rhf"
			},
			{
				"type": "unocc",
				"energy": -0.00787,
				"method": "rhf"
			},
			{
				"type": "unocc",
				"energy": -0.00083,
				"method": "rhf"
			},
			{
				"type": "unocc",
				"energy": 0.09535,
				"method": "rhf"
			},
			{
				"type": "unocc",
				"energy": 0.11037,
				"method": "rhf"
			},
			{
				"type": "unocc",
				"energy": 0.12889,
				"method": "rhf"
			}
		],
		"cosmo_sigma_profile": { 
			"-0.025": 0.0,
			"-0.024": 0.0,
			"-0.023": 0.0,
			"-0.022": 0.0,
			"-0.021": 0.0,
			"-0.02": 0.0,
			"-0.019": 0.0,
			"-0.018": 0.0,
			"-0.017": 0.0,
			"-0.016": 0.0,
			"-0.015": 0.0,
			"-0.014": 0.0,
			"-0.013": 0.0,
			"-0.012": 0.0,
			"-0.011": 0.0,
			"-0.01": 0.0,
			"-0.009": 0.0,
			"-0.008": 0.0,
			"-0.007": 0.0,
			"-0.006": 2.56304100238,
			"-0.005": 7.18457666614,
			"-0.004": 20.2740590835,
			"-0.003": 20.9261068964,
			"-0.002": 19.9846251211,
			"-0.001": 21.001709976,
			"0.0": 24.5978894955,
			"0.001": 15.528185295,
			"0.002": 9.13316435664,
			"0.003": 9.70841597191,
			"0.004": 10.6797178091,
			"0.005": 4.38773448152,
			"0.006": 2.12722900826,
			"0.007": 2.0931783841,
			"0.008": 1.16790369442,
			"0.009": 1.86957703164,
			"0.01": 1.2939233385,
			"0.011": 0.951047656964,
			"0.012": 0.650532347948,
			"0.013": 0.325073542531,
			"0.014": 1.59341473012,
			"0.015": 0.543992883103,
			"0.016": 0.475352925927,
			"0.017": 0.035461642207,
			"0.018": 0.0,
			"0.019": 0.0,
			"0.02": 0.0,
			"0.021": 0.0,
			"0.022": 0.0,
			"0.023": 0.0,
			"0.024": 0.0,
			"0.025": 0.0
		}
	}
}
