{
	 "smiles": "CC1CCN(CC1)C(=O)C1=C(N)C=CC=C1", 
	 "Tm": 333.15, 
	 "num_atms": 34, 
	 "gaussian": { 
		 "optdone": 1, 
		 "sigma_profile": "yes", 
		 "theory": "DFT", 
		 "functional": "B3LYP", 
		 "basiset": "6-31G**", 
		 "properties": { 
			 "R2extent": 4328.4397, 
			 "electric_dipole_moment_norm": 2.03250560147, 
			 "electric_quadrupole_moment_norm": 11.5813842433, 
			 "total_energy": -690.987017973, 
			 "HOMO_LUMO_gap": 0.17638, 
			 "cosmo_polarized_energy": -10.93, 
			 "cosmo_cavitation_energy": 34.08, 
			 "cosmo_dispersion_energy": -24.6, 
			 "cosmo_repulsion_energy": 1.91, 
			 "cosmo_total_nonelectrostatic_energy": 11.38, 
			 "SMD_solvation_energy": 5.43 
		},
		"coords": [
			{
				"x": -4.096660915,
				"y": -0.3845173832,
				"z": -0.7729694969,
				"element": "C" 
			},
			{
				"x": -3.1593352959,
				"y": -1.383756065,
				"z": -1.4695576425,
				"element": "C" 
			},
			{
				"x": -2.6123358057,
				"y": -0.8326972341,
				"z": -2.8016691859,
				"element": "C" 
			},
			{
				"x": -1.7166292917,
				"y": 0.4024509185,
				"z": -2.6072343437,
				"element": "C" 
			},
			{
				"x": -0.8848738567,
				"y": 0.2585983218,
				"z": -1.3996204539,
				"element": "N" 
			},
			{
				"x": -0.6521764517,
				"y": -1.1229983259,
				"z": -0.9709550617,
				"element": "C" 
			},
			{
				"x": -1.9689110432,
				"y": -1.8000576328,
				"z": -0.5533301255,
				"element": "C" 
			},
			{
				"x": -0.1362848025,
				"y": 1.3528577916,
				"z": -1.0432933942,
				"element": "C" 
			},
			{
				"x": -0.1375967663,
				"y": 2.3598419237,
				"z": -1.7677056362,
				"element": "O" 
			},
			{
				"x": 0.6360415865,
				"y": 1.3321957758,
				"z": 0.2410057664,
				"element": "C" 
			},
			{
				"x": 1.9039013034,
				"y": 1.9742823245,
				"z": 0.2995813698,
				"element": "C" 
			},
			{
				"x": 2.4701496336,
				"y": 2.5418391543,
				"z": -0.8264391894,
				"element": "N" 
			},
			{
				"x": 2.5994973356,
				"y": 1.9699967921,
				"z": 1.5254256901,
				"element": "C" 
			},
			{
				"x": 2.0463444265,
				"y": 1.4027997559,
				"z": 2.666222615,
				"element": "C" 
			},
			{
				"x": 0.7751938004,
				"y": 0.8212396657,
				"z": 2.6265490448,
				"element": "C" 
			},
			{
				"x": 0.0897808156,
				"y": 0.7931116388,
				"z": 1.4156263742,
				"element": "C" 
			},
			{
				"x": -4.5292460108,
				"y": -0.8258452732,
				"z": 0.1315632563,
				"element": "H" 
			},
			{
				"x": -3.5665698641,
				"y": 0.5255228074,
				"z": -0.4739898283,
				"element": "H" 
			},
			{
				"x": -4.9241635242,
				"y": -0.0927637531,
				"z": -1.4295915448,
				"element": "H" 
			},
			{
				"x": -3.7487766097,
				"y": -2.2799148224,
				"z": -1.6993593809,
				"element": "H" 
			},
			{
				"x": -2.0515949569,
				"y": -1.6251189395,
				"z": -3.3122599093,
				"element": "H" 
			},
			{
				"x": -3.4361030979,
				"y": -0.5630605674,
				"z": -3.4721371748,
				"element": "H" 
			},
			{
				"x": -2.3140739917,
				"y": 1.3103049471,
				"z": -2.491108334,
				"element": "H" 
			},
			{
				"x": -1.0807329472,
				"y": 0.5667791497,
				"z": -3.4873958656,
				"element": "H" 
			},
			{
				"x": -0.2006760205,
				"y": -1.6734644669,
				"z": -1.8095261147,
				"element": "H" 
			},
			{
				"x": 0.0766055547,
				"y": -1.1352284768,
				"z": -0.1628221381,
				"element": "H" 
			},
			{
				"x": -2.2006126837,
				"y": -1.545312978,
				"z": 0.4876325117,
				"element": "H" 
			},
			{
				"x": -1.8197456736,
				"y": -2.8857481659,
				"z": -0.5821011437,
				"element": "H" 
			},
			{
				"x": 3.2241008719,
				"y": 3.1901623705,
				"z": -0.6524430455,
				"element": "H" 
			},
			{
				"x": 1.7888220437,
				"y": 2.8541014677,
				"z": -1.5100673994,
				"element": "H" 
			},
			{
				"x": 3.5801914633,
				"y": 2.4377114355,
				"z": 1.5705406181,
				"element": "H" 
			},
			{
				"x": 2.6047006938,
				"y": 1.4299506809,
				"z": 3.598123005,
				"element": "H" 
			},
			{
				"x": 0.3268729224,
				"y": 0.4038569935,
				"z": 3.5222820089,
				"element": "H" 
			},
			{
				"x": -0.9077028424,
				"y": 0.3653801691,
				"z": 1.3758241485,
				"element": "H" 
			}
		],
		 "valence_orbital": [ 
			{
				"type": "occ",
				"energy": -0.30334,
				"method": "rhf"
			},
			{
				"type": "occ",
				"energy": -0.25428,
				"method": "rhf"
			},
			{
				"type": "occ",
				"energy": -0.23906,
				"method": "rhf"
			},
			{
				"type": "occ",
				"energy": -0.23076,
				"method": "rhf"
			},
			{
				"type": "occ",
				"energy": -0.19687,
				"method": "rhf"
			},
			{
				"type": "unocc",
				"energy": -0.02049,
				"method": "rhf"
			},
			{
				"type": "unocc",
				"energy": 0.01573,
				"method": "rhf"
			},
			{
				"type": "unocc",
				"energy": 0.05351,
				"method": "rhf"
			},
			{
				"type": "unocc",
				"energy": 0.07298,
				"method": "rhf"
			},
			{
				"type": "unocc",
				"energy": 0.09743,
				"method": "rhf"
			}
		],
		"cosmo_sigma_profile": { 
			"-0.025": 0.0,
			"-0.024": 0.0,
			"-0.023": 0.0,
			"-0.022": 0.0,
			"-0.021": 0.0,
			"-0.02": 0.0,
			"-0.019": 0.0,
			"-0.018": 0.0,
			"-0.017": 0.0,
			"-0.016": 0.0,
			"-0.015": 0.0,
			"-0.014": 0.0,
			"-0.013": 0.0990354133881,
			"-0.012": 1.30806441439,
			"-0.011": 1.35524243014,
			"-0.01": 1.47393173197,
			"-0.009": 1.4514603897,
			"-0.008": 2.22889888849,
			"-0.007": 2.12865562126,
			"-0.006": 3.85161695495,
			"-0.005": 9.67902077831,
			"-0.004": 16.9843436725,
			"-0.003": 33.8840825045,
			"-0.002": 41.3848107381,
			"-0.001": 33.5009568441,
			"0.0": 27.1413590633,
			"0.001": 16.9159034679,
			"0.002": 11.3152714549,
			"0.003": 9.15983284943,
			"0.004": 9.70112410714,
			"0.005": 11.8616824549,
			"0.006": 10.0217998746,
			"0.007": 4.32512912833,
			"0.008": 1.85922432271,
			"0.009": 1.85614774138,
			"0.01": 1.55726270158,
			"0.011": 3.20239030733,
			"0.012": 2.03910458726,
			"0.013": 3.09830537814,
			"0.014": 3.08207390236,
			"0.015": 0.104394772062,
			"0.016": 0.0,
			"0.017": 0.0,
			"0.018": 0.0,
			"0.019": 0.0,
			"0.02": 0.0,
			"0.021": 0.0,
			"0.022": 0.0,
			"0.023": 0.0,
			"0.024": 0.0,
			"0.025": 0.0
		}
	}
}
