{
	 "smiles": "COC(=O)C1=C(Br)C=CC(=C1)S(Cl)(=O)=O", 
	 "Tm": 363.15, 
	 "num_atms": 21, 
	 "gaussian": { 
		 "optdone": 1, 
		 "sigma_profile": "yes", 
		 "theory": "DFT", 
		 "functional": "B3LYP", 
		 "basiset": "6-31G**", 
		 "properties": { 
			 "R2extent": 6165.2574, 
			 "electric_dipole_moment_norm": 5.54198174212, 
			 "electric_quadrupole_moment_norm": 11.7165081189, 
			 "total_energy": -4039.074407, 
			 "HOMO_LUMO_gap": 0.1819, 
			 "cosmo_polarized_energy": -11.77, 
			 "cosmo_cavitation_energy": 32.13, 
			 "cosmo_dispersion_energy": -23.85, 
			 "cosmo_repulsion_energy": 1.83, 
			 "cosmo_total_nonelectrostatic_energy": 10.11, 
			 "SMD_solvation_energy": 4.79 
		},
		"coords": [
			{
				"x": 0.1720553789,
				"y": 0.2569885029,
				"z": 4.9025764391,
				"element": "C" 
			},
			{
				"x": -0.0551372725,
				"y": -0.2350843462,
				"z": 3.5676084262,
				"element": "O" 
			},
			{
				"x": 0.5698709011,
				"y": 0.4378531513,
				"z": 2.5950214272,
				"element": "C" 
			},
			{
				"x": 1.2630287597,
				"y": 1.4166912875,
				"z": 2.7866081814,
				"element": "O" 
			},
			{
				"x": 0.2976292321,
				"y": -0.092498742,
				"z": 1.2121122287,
				"element": "C" 
			},
			{
				"x": -0.1409174565,
				"y": -1.3797396511,
				"z": 0.8442658803,
				"element": "C" 
			},
			{
				"x": -0.4271113918,
				"y": -2.8017791578,
				"z": 2.0755378179,
				"element": "Br" 
			},
			{
				"x": -0.3591675704,
				"y": -1.7038440892,
				"z": -0.5013858307,
				"element": "C" 
			},
			{
				"x": -0.1462418558,
				"y": -0.7653067633,
				"z": -1.5027896286,
				"element": "C" 
			},
			{
				"x": 0.3047561917,
				"y": 0.5028648779,
				"z": -1.1347279464,
				"element": "C" 
			},
			{
				"x": 0.5320712221,
				"y": 0.841867484,
				"z": 0.1911426458,
				"element": "C" 
			},
			{
				"x": 0.5746957127,
				"y": 1.7308780981,
				"z": -2.405882545,
				"element": "S" 
			},
			{
				"x": 2.6170278558,
				"y": 1.3778923383,
				"z": -2.8959982553,
				"element": "Cl" 
			},
			{
				"x": -0.196809861,
				"y": 1.363342945,
				"z": -3.5865133798,
				"element": "O" 
			},
			{
				"x": 0.5174941782,
				"y": 3.0601325943,
				"z": -1.8138928913,
				"element": "O" 
			},
			{
				"x": -0.1881933227,
				"y": 1.2840802109,
				"z": 4.9944453649,
				"element": "H" 
			},
			{
				"x": 1.2372583333,
				"y": 0.2301219261,
				"z": 5.1422626713,
				"element": "H" 
			},
			{
				"x": -0.389153045,
				"y": -0.4102361128,
				"z": 5.5553380065,
				"element": "H" 
			},
			{
				"x": -0.6969584487,
				"y": -2.7012854785,
				"z": -0.7556090686,
				"element": "H" 
			},
			{
				"x": -0.3281174444,
				"y": -1.0078986364,
				"z": -2.5436723352,
				"element": "H" 
			},
			{
				"x": 0.8873199031,
				"y": 1.827959561,
				"z": 0.4674527917,
				"element": "H" 
			}
		],
		 "valence_orbital": [ 
			{
				"type": "occ",
				"energy": -0.31829,
				"method": "rhf"
			},
			{
				"type": "occ",
				"energy": -0.30807,
				"method": "rhf"
			},
			{
				"type": "occ",
				"energy": -0.3029,
				"method": "rhf"
			},
			{
				"type": "occ",
				"energy": -0.29378,
				"method": "rhf"
			},
			{
				"type": "occ",
				"energy": -0.28009,
				"method": "rhf"
			},
			{
				"type": "unocc",
				"energy": -0.09819,
				"method": "rhf"
			},
			{
				"type": "unocc",
				"energy": -0.07806,
				"method": "rhf"
			},
			{
				"type": "unocc",
				"energy": -0.05501,
				"method": "rhf"
			},
			{
				"type": "unocc",
				"energy": -0.02006,
				"method": "rhf"
			},
			{
				"type": "unocc",
				"energy": 0.01281,
				"method": "rhf"
			}
		],
		"cosmo_sigma_profile": { 
			"-0.025": 0.0,
			"-0.024": 0.0,
			"-0.023": 0.0,
			"-0.022": 0.0,
			"-0.021": 0.0,
			"-0.02": 0.0,
			"-0.019": 0.0,
			"-0.018": 0.0,
			"-0.017": 0.0,
			"-0.016": 0.0,
			"-0.015": 0.0,
			"-0.014": 0.0,
			"-0.013": 0.0,
			"-0.012": 0.0,
			"-0.011": 0.0,
			"-0.01": 0.784289820008,
			"-0.009": 3.38412877072,
			"-0.008": 4.02485689131,
			"-0.007": 6.86743148396,
			"-0.006": 12.9890597509,
			"-0.005": 17.0862059132,
			"-0.004": 20.7544249786,
			"-0.003": 20.1751756635,
			"-0.002": 26.7315117487,
			"-0.001": 22.4347690429,
			"0.0": 15.394253743,
			"0.001": 15.8850985069,
			"0.002": 18.1750163643,
			"0.003": 25.3593993691,
			"0.004": 10.9542264464,
			"0.005": 5.7954152918,
			"0.006": 5.37876957077,
			"0.007": 10.7908500762,
			"0.008": 10.4359025049,
			"0.009": 3.99076427638,
			"0.01": 2.30465061344,
			"0.011": 4.10437725899,
			"0.012": 0.365826746201,
			"0.013": 0.0,
			"0.014": 0.0,
			"0.015": 0.0,
			"0.016": 0.0,
			"0.017": 0.0,
			"0.018": 0.0,
			"0.019": 0.0,
			"0.02": 0.0,
			"0.021": 0.0,
			"0.022": 0.0,
			"0.023": 0.0,
			"0.024": 0.0,
			"0.025": 0.0
		}
	}
}
