{
	 "smiles": "CCCCCCCCCCCCC(C)=C", 
	 "Tm": 258.15, 
	 "num_atms": 45, 
	 "gaussian": { 
		 "optdone": 1, 
		 "sigma_profile": "yes", 
		 "theory": "DFT", 
		 "functional": "B3LYP", 
		 "basiset": "6-31G**", 
		 "properties": { 
			 "R2extent": 6336.3773, 
			 "electric_dipole_moment_norm": 0.536941449322, 
			 "electric_quadrupole_moment_norm": 2.4597148412, 
			 "total_energy": -589.689242238, 
			 "HOMO_LUMO_gap": 0.26693, 
			 "cosmo_polarized_energy": -2.0, 
			 "cosmo_cavitation_energy": 42.96, 
			 "cosmo_dispersion_energy": -28.56, 
			 "cosmo_repulsion_energy": 2.31, 
			 "cosmo_total_nonelectrostatic_energy": 16.71, 
			 "SMD_solvation_energy": 6.48 
		},
		"coords": [
			{
				"x": -3.9276193812,
				"y": -3.5593158366,
				"z": -0.270537988,
				"element": "C" 
			},
			{
				"x": -3.1977797406,
				"y": -2.9390073929,
				"z": -1.4683625799,
				"element": "C" 
			},
			{
				"x": -1.919800337,
				"y": -2.164032652,
				"z": -1.1046254666,
				"element": "C" 
			},
			{
				"x": -0.7823195951,
				"y": -3.0440897834,
				"z": -0.5601019645,
				"element": "C" 
			},
			{
				"x": 0.5572105204,
				"y": -2.3200111489,
				"z": -0.2991873067,
				"element": "C" 
			},
			{
				"x": 0.741891538,
				"y": -1.7048787749,
				"z": 1.1022829397,
				"element": "C" 
			},
			{
				"x": -0.1633401006,
				"y": -0.5192798722,
				"z": 1.4850473913,
				"element": "C" 
			},
			{
				"x": -0.0517634289,
				"y": 0.7360450877,
				"z": 0.6016442691,
				"element": "C" 
			},
			{
				"x": 1.3424327178,
				"y": 1.3817641907,
				"z": 0.5942662602,
				"element": "C" 
			},
			{
				"x": 1.4592551396,
				"y": 2.6787161917,
				"z": -0.234137245,
				"element": "C" 
			},
			{
				"x": 1.0827549279,
				"y": 4.0150181239,
				"z": 0.4388179506,
				"element": "C" 
			},
			{
				"x": -0.3988219377,
				"y": 4.2391638661,
				"z": 0.7999517988,
				"element": "C" 
			},
			{
				"x": -0.9032227846,
				"y": 3.8145603528,
				"z": 2.1684793334,
				"element": "C" 
			},
			{
				"x": -2.4064132261,
				"y": 3.8677999624,
				"z": 2.3122509765,
				"element": "C" 
			},
			{
				"x": -0.1238140148,
				"y": 3.4683954246,
				"z": 3.1985105557,
				"element": "C" 
			},
			{
				"x": -4.194225069,
				"y": -2.7936589597,
				"z": 0.4676577081,
				"element": "H" 
			},
			{
				"x": -4.8533653221,
				"y": -4.0526852129,
				"z": -0.5849972707,
				"element": "H" 
			},
			{
				"x": -3.314094503,
				"y": -4.3093641233,
				"z": 0.2389066432,
				"element": "H" 
			},
			{
				"x": -3.88458616,
				"y": -2.2587308447,
				"z": -1.988399653,
				"element": "H" 
			},
			{
				"x": -2.9476840619,
				"y": -3.7276148656,
				"z": -2.1918006976,
				"element": "H" 
			},
			{
				"x": -2.1744806194,
				"y": -1.3770156955,
				"z": -0.3839958407,
				"element": "H" 
			},
			{
				"x": -1.5560086394,
				"y": -1.645850002,
				"z": -2.002643643,
				"element": "H" 
			},
			{
				"x": -1.1009124114,
				"y": -3.547299667,
				"z": 0.3626412099,
				"element": "H" 
			},
			{
				"x": -0.6081317844,
				"y": -3.8461413311,
				"z": -1.2908777401,
				"element": "H" 
			},
			{
				"x": 0.7160578687,
				"y": -1.5565106899,
				"z": -1.0730160267,
				"element": "H" 
			},
			{
				"x": 1.3689088609,
				"y": -3.0460657287,
				"z": -0.4352260159,
				"element": "H" 
			},
			{
				"x": 0.596297516,
				"y": -2.4998799573,
				"z": 1.846904573,
				"element": "H" 
			},
			{
				"x": 1.7911532258,
				"y": -1.3987172854,
				"z": 1.2032712073,
				"element": "H" 
			},
			{
				"x": 0.0697372971,
				"y": -0.2336665453,
				"z": 2.5202109482,
				"element": "H" 
			},
			{
				"x": -1.209369276,
				"y": -0.849517056,
				"z": 1.5006877642,
				"element": "H" 
			},
			{
				"x": -0.3367666386,
				"y": 0.4957463261,
				"z": -0.4316256385,
				"element": "H" 
			},
			{
				"x": -0.787566674,
				"y": 1.4626027271,
				"z": 0.9609567333,
				"element": "H" 
			},
			{
				"x": 1.6627893156,
				"y": 1.5728599926,
				"z": 1.6272552489,
				"element": "H" 
			},
			{
				"x": 2.0600048414,
				"y": 0.6580817307,
				"z": 0.1876942423,
				"element": "H" 
			},
			{
				"x": 2.5015815952,
				"y": 2.7797986254,
				"z": -0.5634732482,
				"element": "H" 
			},
			{
				"x": 0.8701006466,
				"y": 2.567649328,
				"z": -1.1563786737,
				"element": "H" 
			},
			{
				"x": 1.3692367191,
				"y": 4.8085572522,
				"z": -0.2627560217,
				"element": "H" 
			},
			{
				"x": 1.7139720165,
				"y": 4.172907583,
				"z": 1.3217829295,
				"element": "H" 
			},
			{
				"x": -1.0298994537,
				"y": 3.7641148035,
				"z": 0.0342979521,
				"element": "H" 
			},
			{
				"x": -0.6243557745,
				"y": 5.313161427,
				"z": 0.7096849418,
				"element": "H" 
			},
			{
				"x": -2.8927290803,
				"y": 3.1689129198,
				"z": 1.619074852,
				"element": "H" 
			},
			{
				"x": -2.790153852,
				"y": 4.8665236516,
				"z": 2.0653248615,
				"element": "H" 
			},
			{
				"x": -2.7285744738,
				"y": 3.6206933993,
				"z": 3.3271859458,
				"element": "H" 
			},
			{
				"x": -0.5531391973,
				"y": 3.2117603041,
				"z": 4.16299093,
				"element": "H" 
			},
			{
				"x": 0.957752791,
				"y": 3.4298001554,
				"z": 3.129562854,
				"element": "H" 
			}
		],
		 "valence_orbital": [ 
			{
				"type": "occ",
				"energy": -0.30575,
				"method": "rhf"
			},
			{
				"type": "occ",
				"energy": -0.29775,
				"method": "rhf"
			},
			{
				"type": "occ",
				"energy": -0.29469,
				"method": "rhf"
			},
			{
				"type": "occ",
				"energy": -0.28888,
				"method": "rhf"
			},
			{
				"type": "occ",
				"energy": -0.23948,
				"method": "rhf"
			},
			{
				"type": "unocc",
				"energy": 0.02745,
				"method": "rhf"
			},
			{
				"type": "unocc",
				"energy": 0.07801,
				"method": "rhf"
			},
			{
				"type": "unocc",
				"energy": 0.08987,
				"method": "rhf"
			},
			{
				"type": "unocc",
				"energy": 0.09779,
				"method": "rhf"
			},
			{
				"type": "unocc",
				"energy": 0.1062,
				"method": "rhf"
			}
		],
		"cosmo_sigma_profile": { 
			"-0.025": 0.0,
			"-0.024": 0.0,
			"-0.023": 0.0,
			"-0.022": 0.0,
			"-0.021": 0.0,
			"-0.02": 0.0,
			"-0.019": 0.0,
			"-0.018": 0.0,
			"-0.017": 0.0,
			"-0.016": 0.0,
			"-0.015": 0.0,
			"-0.014": 0.0,
			"-0.013": 0.0,
			"-0.012": 0.0,
			"-0.011": 0.0,
			"-0.01": 0.0,
			"-0.009": 0.0,
			"-0.008": 0.0,
			"-0.007": 0.0,
			"-0.006": 0.0,
			"-0.005": 0.0,
			"-0.004": 3.57069605754,
			"-0.003": 15.9062160504,
			"-0.002": 41.1961929062,
			"-0.001": 71.0759167691,
			"0.0": 78.1483337172,
			"0.001": 68.6282265797,
			"0.002": 31.988743017,
			"0.003": 6.38575458533,
			"0.004": 4.32617264111,
			"0.005": 3.47981709511,
			"0.006": 2.77099958593,
			"0.007": 1.16763156751,
			"0.008": 0.44775754077,
			"0.009": 0.0,
			"0.01": 0.0,
			"0.011": 0.0,
			"0.012": 0.0,
			"0.013": 0.0,
			"0.014": 0.0,
			"0.015": 0.0,
			"0.016": 0.0,
			"0.017": 0.0,
			"0.018": 0.0,
			"0.019": 0.0,
			"0.02": 0.0,
			"0.021": 0.0,
			"0.022": 0.0,
			"0.023": 0.0,
			"0.024": 0.0,
			"0.025": 0.0
		}
	}
}
