{
	 "smiles": "CC1=CC=C(C=C1Cl)S(Cl)(=O)=O", 
	 "Tm": 309.15, 
	 "num_atms": 18, 
	 "gaussian": { 
		 "optdone": 1, 
		 "sigma_profile": "yes", 
		 "theory": "DFT", 
		 "functional": "B3LYP", 
		 "basiset": "6-31G**", 
		 "properties": { 
			 "R2extent": 5118.4934, 
			 "electric_dipole_moment_norm": 5.41082761322, 
			 "electric_quadrupole_moment_norm": 14.052527905, 
			 "total_energy": -1739.31868116, 
			 "HOMO_LUMO_gap": 0.1827, 
			 "cosmo_polarized_energy": -8.67, 
			 "cosmo_cavitation_energy": 27.5, 
			 "cosmo_dispersion_energy": -20.64, 
			 "cosmo_repulsion_energy": 1.6, 
			 "cosmo_total_nonelectrostatic_energy": 8.46, 
			 "SMD_solvation_energy": 3.19 
		},
		"coords": [
			{
				"x": 1.6789088824,
				"y": 1.0586571035,
				"z": 0.4791520447,
				"element": "C" 
			},
			{
				"x": 0.5167763485,
				"y": 0.1241040845,
				"z": 0.2778508694,
				"element": "C" 
			},
			{
				"x": -0.7427078363,
				"y": 0.6136281241,
				"z": -0.0997489825,
				"element": "C" 
			},
			{
				"x": -1.8357103123,
				"y": -0.2264283885,
				"z": -0.2941806064,
				"element": "C" 
			},
			{
				"x": -1.6552511505,
				"y": -1.5945273933,
				"z": -0.10125901,
				"element": "C" 
			},
			{
				"x": -0.4282831543,
				"y": -2.1369786408,
				"z": 0.2766276601,
				"element": "C" 
			},
			{
				"x": 0.6413427901,
				"y": -1.2654729454,
				"z": 0.4611159448,
				"element": "C" 
			},
			{
				"x": 2.1848522793,
				"y": -1.9466018453,
				"z": 0.9431846364,
				"element": "Cl" 
			},
			{
				"x": -3.0435163861,
				"y": -2.6957731527,
				"z": -0.3251354744,
				"element": "S" 
			},
			{
				"x": -2.8682017983,
				"y": -3.1750948128,
				"z": -2.396892152,
				"element": "Cl" 
			},
			{
				"x": -4.2817211543,
				"y": -1.9398425341,
				"z": -0.1878881236,
				"element": "O" 
			},
			{
				"x": -2.7985748289,
				"y": -3.9356301708,
				"z": 0.400086496,
				"element": "O" 
			},
			{
				"x": 2.5083509697,
				"y": 0.8050322257,
				"z": -0.1892781179,
				"element": "H" 
			},
			{
				"x": 1.3841179833,
				"y": 2.0926311378,
				"z": 0.2879980198,
				"element": "H" 
			},
			{
				"x": 2.0657122266,
				"y": 0.9915242857,
				"z": 1.5014539968,
				"element": "H" 
			},
			{
				"x": -0.8643413031,
				"y": 1.6834000107,
				"z": -0.2406338468,
				"element": "H" 
			},
			{
				"x": -2.8053354848,
				"y": 0.165985286,
				"z": -0.5777978216,
				"element": "H" 
			},
			{
				"x": -0.313518071,
				"y": -3.2029123744,
				"z": 0.4320444672,
				"element": "H" 
			}
		],
		 "valence_orbital": [ 
			{
				"type": "occ",
				"energy": -0.33493,
				"method": "rhf"
			},
			{
				"type": "occ",
				"energy": -0.32985,
				"method": "rhf"
			},
			{
				"type": "occ",
				"energy": -0.31588,
				"method": "rhf"
			},
			{
				"type": "occ",
				"energy": -0.29137,
				"method": "rhf"
			},
			{
				"type": "occ",
				"energy": -0.2762,
				"method": "rhf"
			},
			{
				"type": "unocc",
				"energy": -0.0935,
				"method": "rhf"
			},
			{
				"type": "unocc",
				"energy": -0.04915,
				"method": "rhf"
			},
			{
				"type": "unocc",
				"energy": -0.04561,
				"method": "rhf"
			},
			{
				"type": "unocc",
				"energy": 0.00694,
				"method": "rhf"
			},
			{
				"type": "unocc",
				"energy": 0.05435,
				"method": "rhf"
			}
		],
		"cosmo_sigma_profile": { 
			"-0.025": 0.0,
			"-0.024": 0.0,
			"-0.023": 0.0,
			"-0.022": 0.0,
			"-0.021": 0.0,
			"-0.02": 0.0,
			"-0.019": 0.0,
			"-0.018": 0.0,
			"-0.017": 0.0,
			"-0.016": 0.0,
			"-0.015": 0.0,
			"-0.014": 0.0,
			"-0.013": 0.0,
			"-0.012": 0.0,
			"-0.011": 0.0,
			"-0.01": 0.0,
			"-0.009": 1.11294675277,
			"-0.008": 5.0725522944,
			"-0.007": 7.45519956618,
			"-0.006": 8.31910717237,
			"-0.005": 11.0829941272,
			"-0.004": 11.4617624618,
			"-0.003": 13.9356773719,
			"-0.002": 21.2678879919,
			"-0.001": 24.9135206617,
			"0.0": 26.2923537432,
			"0.001": 16.689679879,
			"0.002": 15.2525225777,
			"0.003": 22.3865455837,
			"0.004": 13.9317123983,
			"0.005": 2.61390969419,
			"0.006": 3.54698606752,
			"0.007": 6.90169389256,
			"0.008": 9.17903601856,
			"0.009": 3.88322888094,
			"0.01": 0.0,
			"0.011": 0.0,
			"0.012": 0.0,
			"0.013": 0.0,
			"0.014": 0.0,
			"0.015": 0.0,
			"0.016": 0.0,
			"0.017": 0.0,
			"0.018": 0.0,
			"0.019": 0.0,
			"0.02": 0.0,
			"0.021": 0.0,
			"0.022": 0.0,
			"0.023": 0.0,
			"0.024": 0.0,
			"0.025": 0.0
		}
	}
}
