{
	 "smiles": "CS(=O)(=O)C1=CC=C(C(O)=O)C(Cl)=C1", 
	 "Tm": 466.65, 
	 "num_atms": 21, 
	 "gaussian": { 
		 "optdone": 1, 
		 "sigma_profile": "yes", 
		 "theory": "DFT", 
		 "functional": "B3LYP", 
		 "basiset": "6-31G**", 
		 "properties": { 
			 "R2extent": 4291.1123, 
			 "electric_dipole_moment_norm": 3.49151744804, 
			 "electric_quadrupole_moment_norm": 29.3235049186, 
			 "total_energy": -1468.2820985, 
			 "HOMO_LUMO_gap": 0.20091, 
			 "cosmo_polarized_energy": -19.97, 
			 "cosmo_cavitation_energy": 28.89, 
			 "cosmo_dispersion_energy": -21.72, 
			 "cosmo_repulsion_energy": 1.65, 
			 "cosmo_total_nonelectrostatic_energy": 8.82, 
			 "SMD_solvation_energy": 5.66 
		},
		"coords": [
			{
				"x": 2.7333984908,
				"y": 1.0659271839,
				"z": 2.9119645861,
				"element": "C" 
			},
			{
				"x": 0.9509402528,
				"y": 0.9010364978,
				"z": 3.1641458437,
				"element": "S" 
			},
			{
				"x": 0.4144876325,
				"y": 2.2354450951,
				"z": 3.4671240707,
				"element": "O" 
			},
			{
				"x": 0.7280134693,
				"y": -0.2419428461,
				"z": 4.0596181428,
				"element": "O" 
			},
			{
				"x": 0.3395015953,
				"y": 0.431965567,
				"z": 1.5272349112,
				"element": "C" 
			},
			{
				"x": 0.3179041869,
				"y": -0.9108515407,
				"z": 1.1512175168,
				"element": "C" 
			},
			{
				"x": -0.1528596548,
				"y": -1.2406992881,
				"z": -0.1131244435,
				"element": "C" 
			},
			{
				"x": -0.6231259382,
				"y": -0.268428708,
				"z": -1.014757665,
				"element": "C" 
			},
			{
				"x": -1.0880061422,
				"y": -0.8348096347,
				"z": -2.3490244595,
				"element": "C" 
			},
			{
				"x": -1.7989988576,
				"y": -0.0634188632,
				"z": -3.1854238615,
				"element": "O" 
			},
			{
				"x": -0.8378098613,
				"y": -1.9807549568,
				"z": -2.6444705797,
				"element": "O" 
			},
			{
				"x": -0.597625079,
				"y": 1.0712902576,
				"z": -0.5863191903,
				"element": "C" 
			},
			{
				"x": -1.1492475811,
				"y": 2.4142223532,
				"z": -1.5980767084,
				"element": "Cl" 
			},
			{
				"x": -0.1197152186,
				"y": 1.429807599,
				"z": 0.6740291335,
				"element": "C" 
			},
			{
				"x": 2.9223037037,
				"y": 1.8498025687,
				"z": 2.1773116661,
				"element": "H" 
			},
			{
				"x": 3.1499642218,
				"y": 1.3457234003,
				"z": 3.8819588545,
				"element": "H" 
			},
			{
				"x": 3.1417850866,
				"y": 0.1084651003,
				"z": 2.585910291,
				"element": "H" 
			},
			{
				"x": 0.6463779963,
				"y": -1.6777307564,
				"z": 1.8441600679,
				"element": "H" 
			},
			{
				"x": -0.174175188,
				"y": -2.2705711545,
				"z": -0.4502955619,
				"element": "H" 
			},
			{
				"x": -1.920855929,
				"y": 0.8351528121,
				"z": -2.8378527503,
				"element": "H" 
			},
			{
				"x": -0.1233571863,
				"y": 2.4650693133,
				"z": 0.9952701358,
				"element": "H" 
			}
		],
		 "valence_orbital": [ 
			{
				"type": "occ",
				"energy": -0.31394,
				"method": "rhf"
			},
			{
				"type": "occ",
				"energy": -0.30909,
				"method": "rhf"
			},
			{
				"type": "occ",
				"energy": -0.3003,
				"method": "rhf"
			},
			{
				"type": "occ",
				"energy": -0.29171,
				"method": "rhf"
			},
			{
				"type": "occ",
				"energy": -0.29067,
				"method": "rhf"
			},
			{
				"type": "unocc",
				"energy": -0.08976,
				"method": "rhf"
			},
			{
				"type": "unocc",
				"energy": -0.05306,
				"method": "rhf"
			},
			{
				"type": "unocc",
				"energy": -0.01787,
				"method": "rhf"
			},
			{
				"type": "unocc",
				"energy": 0.01181,
				"method": "rhf"
			},
			{
				"type": "unocc",
				"energy": 0.05594,
				"method": "rhf"
			}
		],
		"cosmo_sigma_profile": { 
			"-0.025": 0.0,
			"-0.024": 0.0,
			"-0.023": 0.0,
			"-0.022": 0.0,
			"-0.021": 0.0,
			"-0.02": 0.0,
			"-0.019": 0.0,
			"-0.018": 0.0,
			"-0.017": 0.0,
			"-0.016": 0.0,
			"-0.015": 0.0,
			"-0.014": 0.109998942498,
			"-0.013": 0.578980578711,
			"-0.012": 1.66918444801,
			"-0.011": 1.12616163063,
			"-0.01": 1.48087646343,
			"-0.009": 7.5110530902,
			"-0.008": 11.4484821114,
			"-0.007": 13.0718554153,
			"-0.006": 13.1615734339,
			"-0.005": 15.6529119856,
			"-0.004": 14.5350026525,
			"-0.003": 13.3687469327,
			"-0.002": 19.1807863549,
			"-0.001": 17.891354046,
			"0.0": 14.4791162792,
			"0.001": 10.4133603768,
			"0.002": 8.76461910787,
			"0.003": 5.42377493357,
			"0.004": 4.85469695613,
			"0.005": 4.40107758478,
			"0.006": 4.21691214224,
			"0.007": 4.1843556072,
			"0.008": 6.22239180843,
			"0.009": 7.7407607936,
			"0.01": 12.0684089043,
			"0.011": 14.2558628463,
			"0.012": 6.02617976937,
			"0.013": 0.424459329304,
			"0.014": 0.0,
			"0.015": 0.0,
			"0.016": 0.0,
			"0.017": 0.0,
			"0.018": 0.0,
			"0.019": 0.0,
			"0.02": 0.0,
			"0.021": 0.0,
			"0.022": 0.0,
			"0.023": 0.0,
			"0.024": 0.0,
			"0.025": 0.0
		}
	}
}
