{
	 "smiles": "COC(=O)C1=CC=C(NS(C)(=O)=O)C=C1", 
	 "Tm": 421.15, 
	 "num_atms": 26, 
	 "gaussian": { 
		 "optdone": 1, 
		 "sigma_profile": "yes", 
		 "theory": "DFT", 
		 "functional": "B3LYP", 
		 "basiset": "6-31G**", 
		 "properties": { 
			 "R2extent": 5604.7464, 
			 "electric_dipole_moment_norm": 5.0569724233, 
			 "electric_quadrupole_moment_norm": 15.2598928918, 
			 "total_energy": -1103.36891224, 
			 "HOMO_LUMO_gap": 0.19184, 
			 "cosmo_polarized_energy": -19.73, 
			 "cosmo_cavitation_energy": 31.9, 
			 "cosmo_dispersion_energy": -23.69, 
			 "cosmo_repulsion_energy": 1.8, 
			 "cosmo_total_nonelectrostatic_energy": 10.02, 
			 "SMD_solvation_energy": 6.73 
		},
		"coords": [
			{
				"x": -3.4670134435,
				"y": 1.5618507112,
				"z": -3.586641786,
				"element": "C" 
			},
			{
				"x": -2.3745283772,
				"y": 1.2676758282,
				"z": -2.703132722,
				"element": "O" 
			},
			{
				"x": -2.7029464272,
				"y": 0.5528878872,
				"z": -1.6003386484,
				"element": "C" 
			},
			{
				"x": -3.8375128577,
				"y": 0.1840319642,
				"z": -1.363698462,
				"element": "O" 
			},
			{
				"x": -1.5293204893,
				"y": 0.2811056933,
				"z": -0.7302031539,
				"element": "C" 
			},
			{
				"x": -0.238345927,
				"y": 0.7360399874,
				"z": -1.0331197337,
				"element": "C" 
			},
			{
				"x": 0.8200603155,
				"y": 0.4633395888,
				"z": -0.1759880198,
				"element": "C" 
			},
			{
				"x": 0.6126775613,
				"y": -0.2886129861,
				"z": 0.9930458329,
				"element": "C" 
			},
			{
				"x": 1.7241276609,
				"y": -0.5658750536,
				"z": 1.8154560115,
				"element": "N" 
			},
			{
				"x": 1.7133617365,
				"y": -0.7393227297,
				"z": 3.499573362,
				"element": "S" 
			},
			{
				"x": 1.039918393,
				"y": 0.8177702426,
				"z": 4.1143061617,
				"element": "C" 
			},
			{
				"x": 0.7675887443,
				"y": -1.7935382785,
				"z": 3.8575325563,
				"element": "O" 
			},
			{
				"x": 3.1294812925,
				"y": -0.8151199348,
				"z": 3.8523356247,
				"element": "O" 
			},
			{
				"x": -0.6754796534,
				"y": -0.7645435151,
				"z": 1.2925729225,
				"element": "C" 
			},
			{
				"x": -1.7300336792,
				"y": -0.4667178344,
				"z": 0.4375749174,
				"element": "C" 
			},
			{
				"x": -4.2319597204,
				"y": 2.1488441746,
				"z": -3.0720079607,
				"element": "H" 
			},
			{
				"x": -3.9225957169,
				"y": 0.6398036067,
				"z": -3.9563722811,
				"element": "H" 
			},
			{
				"x": -3.0352386538,
				"y": 2.132221296,
				"z": -4.40909217,
				"element": "H" 
			},
			{
				"x": -0.0704068163,
				"y": 1.3126689924,
				"z": -1.9353182932,
				"element": "H" 
			},
			{
				"x": 1.8159123376,
				"y": 0.8313671084,
				"z": -0.4096815656,
				"element": "H" 
			},
			{
				"x": 2.6262818083,
				"y": -0.2315339917,
				"z": 1.4968450219,
				"element": "H" 
			},
			{
				"x": 0.0569746662,
				"y": 0.9786523843,
				"z": 3.6689661965,
				"element": "H" 
			},
			{
				"x": 1.7265990191,
				"y": 1.6255273067,
				"z": 3.8590049047,
				"element": "H" 
			},
			{
				"x": 0.9520234587,
				"y": 0.7170511626,
				"z": 5.1974079406,
				"element": "H" 
			},
			{
				"x": -0.8341672005,
				"y": -1.3771330574,
				"z": 2.171780305,
				"element": "H" 
			},
			{
				"x": -2.7304580317,
				"y": -0.8253405532,
				"z": 0.6551930388,
				"element": "H" 
			}
		],
		 "valence_orbital": [ 
			{
				"type": "occ",
				"energy": -0.31206,
				"method": "rhf"
			},
			{
				"type": "occ",
				"energy": -0.30371,
				"method": "rhf"
			},
			{
				"type": "occ",
				"energy": -0.27572,
				"method": "rhf"
			},
			{
				"type": "occ",
				"energy": -0.27072,
				"method": "rhf"
			},
			{
				"type": "occ",
				"energy": -0.24083,
				"method": "rhf"
			},
			{
				"type": "unocc",
				"energy": -0.04899,
				"method": "rhf"
			},
			{
				"type": "unocc",
				"energy": -0.0204,
				"method": "rhf"
			},
			{
				"type": "unocc",
				"energy": 0.04013,
				"method": "rhf"
			},
			{
				"type": "unocc",
				"energy": 0.05378,
				"method": "rhf"
			},
			{
				"type": "unocc",
				"energy": 0.06429,
				"method": "rhf"
			}
		],
		"cosmo_sigma_profile": { 
			"-0.025": 0.0,
			"-0.024": 0.0,
			"-0.023": 0.0,
			"-0.022": 0.0,
			"-0.021": 0.0,
			"-0.02": 0.0,
			"-0.019": 0.0,
			"-0.018": 0.0,
			"-0.017": 0.0218269537198,
			"-0.016": 0.879994160516,
			"-0.015": 1.08509776636,
			"-0.014": 1.65342637293,
			"-0.013": 0.759604998727,
			"-0.012": 1.23077752175,
			"-0.011": 1.73840184012,
			"-0.01": 1.88980943546,
			"-0.009": 5.21318258547,
			"-0.008": 6.11416881855,
			"-0.007": 8.82367042358,
			"-0.006": 14.5539205816,
			"-0.005": 20.9163034238,
			"-0.004": 20.292943237,
			"-0.003": 17.5895324704,
			"-0.002": 12.4169700814,
			"-0.001": 11.3613643364,
			"0.0": 12.0571820608,
			"0.001": 15.755590542,
			"0.002": 15.6914124078,
			"0.003": 19.9949825436,
			"0.004": 9.43039070525,
			"0.005": 5.97088649726,
			"0.006": 5.93844327033,
			"0.007": 5.3700946419,
			"0.008": 4.23248200906,
			"0.009": 4.79413533814,
			"0.01": 11.1144146168,
			"0.011": 11.2293141397,
			"0.012": 5.48612129874,
			"0.013": 0.727189530852,
			"0.014": 0.0,
			"0.015": 0.0,
			"0.016": 0.0,
			"0.017": 0.0,
			"0.018": 0.0,
			"0.019": 0.0,
			"0.02": 0.0,
			"0.021": 0.0,
			"0.022": 0.0,
			"0.023": 0.0,
			"0.024": 0.0,
			"0.025": 0.0
		}
	}
}
