{
	 "smiles": "FC(F)(F)C1=CC(=CC=C1)C1=NC=CN1", 
	 "Tm": 425.15, 
	 "num_atms": 22, 
	 "gaussian": { 
		 "optdone": 1, 
		 "sigma_profile": "yes", 
		 "theory": "DFT", 
		 "functional": "B3LYP", 
		 "basiset": "6-31G**", 
		 "properties": { 
			 "R2extent": 3797.4913, 
			 "electric_dipole_moment_norm": 5.59267539823, 
			 "electric_quadrupole_moment_norm": 11.7301667209, 
			 "total_energy": -794.316171905, 
			 "HOMO_LUMO_gap": 0.17421, 
			 "cosmo_polarized_energy": -13.74, 
			 "cosmo_cavitation_energy": 28.1, 
			 "cosmo_dispersion_energy": -20.3, 
			 "cosmo_repulsion_energy": 1.5, 
			 "cosmo_total_nonelectrostatic_energy": 9.31, 
			 "SMD_solvation_energy": 4.77 
		},
		"coords": [
			{
				"x": 0.2818244201,
				"y": -0.4430731552,
				"z": 3.0007837506,
				"element": "F" 
			},
			{
				"x": 0.6880686229,
				"y": 0.7182650756,
				"z": 2.4473901808,
				"element": "C" 
			},
			{
				"x": 1.9832809289,
				"y": 0.9033102702,
				"z": 2.7927759378,
				"element": "F" 
			},
			{
				"x": -0.0178498886,
				"y": 1.7090234297,
				"z": 3.0413723643,
				"element": "F" 
			},
			{
				"x": 0.5053993971,
				"y": 0.7311182073,
				"z": 0.9522651077,
				"element": "C" 
			},
			{
				"x": -0.4752368128,
				"y": -0.063570255,
				"z": 0.3667913925,
				"element": "C" 
			},
			{
				"x": -0.6891049256,
				"y": -0.0179504052,
				"z": -1.0209653581,
				"element": "C" 
			},
			{
				"x": 0.1033286512,
				"y": 0.842650924,
				"z": -1.7969290259,
				"element": "C" 
			},
			{
				"x": 1.0853466663,
				"y": 1.6350713348,
				"z": -1.2036938793,
				"element": "C" 
			},
			{
				"x": 1.2934271011,
				"y": 1.585598423,
				"z": 0.1725904466,
				"element": "C" 
			},
			{
				"x": -1.7287805822,
				"y": -0.8753958173,
				"z": -1.5952266917,
				"element": "C" 
			},
			{
				"x": -2.5067698064,
				"y": -1.6945729498,
				"z": -0.9026474757,
				"element": "N" 
			},
			{
				"x": -3.3289265977,
				"y": -2.2998724553,
				"z": -1.8160351043,
				"element": "C" 
			},
			{
				"x": -3.0565104908,
				"y": -1.8499710185,
				"z": -3.0862634553,
				"element": "C" 
			},
			{
				"x": -2.0335050874,
				"y": -0.9408568163,
				"z": -2.9335658037,
				"element": "N" 
			},
			{
				"x": -1.0828858565,
				"y": -0.7322806186,
				"z": 0.9645500077,
				"element": "H" 
			},
			{
				"x": -0.0349236157,
				"y": 0.9038152768,
				"z": -2.8731732595,
				"element": "H" 
			},
			{
				"x": 1.6921182359,
				"y": 2.2914688225,
				"z": -1.8198667331,
				"element": "H" 
			},
			{
				"x": 2.0613104095,
				"y": 2.1930209007,
				"z": 0.6387801249,
				"element": "H" 
			},
			{
				"x": -4.071753315,
				"y": -3.0250119312,
				"z": -1.5143165019,
				"element": "H" 
			},
			{
				"x": -3.4793521745,
				"y": -2.082636824,
				"z": -4.0512731697,
				"element": "H" 
			},
			{
				"x": -1.5929052798,
				"y": -0.4250504182,
				"z": -3.6788428548,
				"element": "H" 
			}
		],
		 "valence_orbital": [ 
			{
				"type": "occ",
				"energy": -0.29566,
				"method": "rhf"
			},
			{
				"type": "occ",
				"energy": -0.28332,
				"method": "rhf"
			},
			{
				"type": "occ",
				"energy": -0.27412,
				"method": "rhf"
			},
			{
				"type": "occ",
				"energy": -0.26936,
				"method": "rhf"
			},
			{
				"type": "occ",
				"energy": -0.21732,
				"method": "rhf"
			},
			{
				"type": "unocc",
				"energy": -0.04311,
				"method": "rhf"
			},
			{
				"type": "unocc",
				"energy": -0.02371,
				"method": "rhf"
			},
			{
				"type": "unocc",
				"energy": 0.04149,
				"method": "rhf"
			},
			{
				"type": "unocc",
				"energy": 0.05046,
				"method": "rhf"
			},
			{
				"type": "unocc",
				"energy": 0.06963,
				"method": "rhf"
			}
		],
		"cosmo_sigma_profile": { 
			"-0.025": 0.0,
			"-0.024": 0.0,
			"-0.023": 0.0,
			"-0.022": 0.0,
			"-0.021": 0.0,
			"-0.02": 0.0,
			"-0.019": 0.0,
			"-0.018": 0.0,
			"-0.017": 0.77290279789,
			"-0.016": 1.70083155617,
			"-0.015": 1.36891718533,
			"-0.014": 1.38238226958,
			"-0.013": 1.34532521689,
			"-0.012": 1.50667370856,
			"-0.011": 1.43718951464,
			"-0.01": 1.14223109249,
			"-0.009": 2.0432464908,
			"-0.008": 4.73568457014,
			"-0.007": 5.75951654773,
			"-0.006": 10.4207896136,
			"-0.005": 9.41376408037,
			"-0.004": 9.6656973871,
			"-0.003": 10.2344568912,
			"-0.002": 9.38330774746,
			"-0.001": 11.0070514281,
			"0.0": 13.987096288,
			"0.001": 18.2876952487,
			"0.002": 33.5161585587,
			"0.003": 45.4120427205,
			"0.004": 10.4972712135,
			"0.005": 5.73427442898,
			"0.006": 2.80995757177,
			"0.007": 2.21857331697,
			"0.008": 1.71882781901,
			"0.009": 1.9021533386,
			"0.01": 1.41684297771,
			"0.011": 1.01353599474,
			"0.012": 1.36340363434,
			"0.013": 1.03367765292,
			"0.014": 1.14111571269,
			"0.015": 0.833718661852,
			"0.016": 0.37200998396,
			"0.017": 0.0,
			"0.018": 0.0,
			"0.019": 0.0,
			"0.02": 0.0,
			"0.021": 0.0,
			"0.022": 0.0,
			"0.023": 0.0,
			"0.024": 0.0,
			"0.025": 0.0
		}
	}
}
