{
	 "smiles": "CCOC1=C(C)C=CC(=C1)C(O)=O", 
	 "Tm": 447.15, 
	 "num_atms": 25, 
	 "gaussian": { 
		 "optdone": 1, 
		 "sigma_profile": "yes", 
		 "theory": "DFT", 
		 "functional": "B3LYP", 
		 "basiset": "6-31G**", 
		 "properties": { 
			 "R2extent": 3374.6835, 
			 "electric_dipole_moment_norm": 4.23897883104, 
			 "electric_quadrupole_moment_norm": 20.0921677671, 
			 "total_energy": -613.983468475, 
			 "HOMO_LUMO_gap": 0.18739, 
			 "cosmo_polarized_energy": -13.94, 
			 "cosmo_cavitation_energy": 28.86, 
			 "cosmo_dispersion_energy": -20.79, 
			 "cosmo_repulsion_energy": 1.67, 
			 "cosmo_total_nonelectrostatic_energy": 9.73, 
			 "SMD_solvation_energy": 6.5 
		},
		"coords": [
			{
				"x": -2.0057614651,
				"y": -2.6283932594,
				"z": 1.8466095124,
				"element": "C" 
			},
			{
				"x": -1.2607844017,
				"y": -1.9893119466,
				"z": 0.6883490771,
				"element": "C" 
			},
			{
				"x": -1.5013175077,
				"y": -0.5801622418,
				"z": 0.7467197691,
				"element": "O" 
			},
			{
				"x": -0.9298652458,
				"y": 0.2246365698,
				"z": -0.1921952102,
				"element": "C" 
			},
			{
				"x": -1.2063733484,
				"y": 1.6054390571,
				"z": -0.0494782642,
				"element": "C" 
			},
			{
				"x": -2.0767659133,
				"y": 2.081415511,
				"z": 1.0826960256,
				"element": "C" 
			},
			{
				"x": -0.6453200179,
				"y": 2.485799263,
				"z": -0.9728851249,
				"element": "C" 
			},
			{
				"x": 0.1573964168,
				"y": 2.0360139376,
				"z": -2.0243841242,
				"element": "C" 
			},
			{
				"x": 0.4116355967,
				"y": 0.6688212784,
				"z": -2.1616286351,
				"element": "C" 
			},
			{
				"x": -0.1243503271,
				"y": -0.2353459006,
				"z": -1.2324957373,
				"element": "C" 
			},
			{
				"x": 1.2673558329,
				"y": 0.0961432811,
				"z": -3.249808628,
				"element": "C" 
			},
			{
				"x": 1.4689538987,
				"y": 0.878610543,
				"z": -4.3445149891,
				"element": "O" 
			},
			{
				"x": 1.7675657549,
				"y": -1.0040490624,
				"z": -3.1970284111,
				"element": "O" 
			},
			{
				"x": -1.6487798073,
				"y": -2.2322898917,
				"z": 2.8013569552,
				"element": "H" 
			},
			{
				"x": -3.079052503,
				"y": -2.432706369,
				"z": 1.7711064787,
				"element": "H" 
			},
			{
				"x": -1.8491430617,
				"y": -3.7112595477,
				"z": 1.8399541373,
				"element": "H" 
			},
			{
				"x": -0.182066588,
				"y": -2.1841990693,
				"z": 0.7574759135,
				"element": "H" 
			},
			{
				"x": -1.6132563399,
				"y": -2.3857826245,
				"z": -0.2736151501,
				"element": "H" 
			},
			{
				"x": -3.0713661803,
				"y": 1.624788024,
				"z": 1.033913001,
				"element": "H" 
			},
			{
				"x": -1.6535533291,
				"y": 1.7959979054,
				"z": 2.0519187311,
				"element": "H" 
			},
			{
				"x": -2.191449922,
				"y": 3.1679383699,
				"z": 1.0594529841,
				"element": "H" 
			},
			{
				"x": -0.835080668,
				"y": 3.5500216609,
				"z": -0.8619947472,
				"element": "H" 
			},
			{
				"x": 0.6090902777,
				"y": 2.7658175184,
				"z": -2.6913886366,
				"element": "H" 
			},
			{
				"x": 0.1131216854,
				"y": -1.2838406673,
				"z": -1.3572173416,
				"element": "H" 
			},
			{
				"x": 0.8839671632,
				"y": 1.6480976609,
				"z": -4.3107175853,
				"element": "H" 
			}
		],
		 "valence_orbital": [ 
			{
				"type": "occ",
				"energy": -0.3274,
				"method": "rhf"
			},
			{
				"type": "occ",
				"energy": -0.30949,
				"method": "rhf"
			},
			{
				"type": "occ",
				"energy": -0.27001,
				"method": "rhf"
			},
			{
				"type": "occ",
				"energy": -0.25551,
				"method": "rhf"
			},
			{
				"type": "occ",
				"energy": -0.23087,
				"method": "rhf"
			},
			{
				"type": "unocc",
				"energy": -0.04348,
				"method": "rhf"
			},
			{
				"type": "unocc",
				"energy": -0.00457,
				"method": "rhf"
			},
			{
				"type": "unocc",
				"energy": 0.05652,
				"method": "rhf"
			},
			{
				"type": "unocc",
				"energy": 0.06763,
				"method": "rhf"
			},
			{
				"type": "unocc",
				"energy": 0.09355,
				"method": "rhf"
			}
		],
		"cosmo_sigma_profile": { 
			"-0.025": 0.0,
			"-0.024": 0.0,
			"-0.023": 0.0,
			"-0.022": 0.0,
			"-0.021": 0.0,
			"-0.02": 0.0,
			"-0.019": 0.0,
			"-0.018": 0.731219546433,
			"-0.017": 0.871352760748,
			"-0.016": 0.990959605573,
			"-0.015": 0.972417788936,
			"-0.014": 0.740451587372,
			"-0.013": 0.890891652622,
			"-0.012": 1.14668202202,
			"-0.011": 1.16597299022,
			"-0.01": 0.928707542655,
			"-0.009": 1.35381270615,
			"-0.008": 1.73575597978,
			"-0.007": 2.01946344167,
			"-0.006": 4.92181274928,
			"-0.005": 14.6551045462,
			"-0.004": 22.3043652895,
			"-0.003": 20.7998655668,
			"-0.002": 19.5534788207,
			"-0.001": 18.6721388326,
			"0.0": 22.1227880986,
			"0.001": 15.0171607769,
			"0.002": 13.2843345723,
			"0.003": 13.696728102,
			"0.004": 11.1344057775,
			"0.005": 5.07243146106,
			"0.006": 4.63871959745,
			"0.007": 3.98023492222,
			"0.008": 4.64653233008,
			"0.009": 2.80089153962,
			"0.01": 4.13483956142,
			"0.011": 5.33635258786,
			"0.012": 5.43200308584,
			"0.013": 2.13315155441,
			"0.014": 0.238966012391,
			"0.015": 0.0,
			"0.016": 0.0,
			"0.017": 0.0,
			"0.018": 0.0,
			"0.019": 0.0,
			"0.02": 0.0,
			"0.021": 0.0,
			"0.022": 0.0,
			"0.023": 0.0,
			"0.024": 0.0,
			"0.025": 0.0
		}
	}
}
