{
	 "smiles": "OC1CCC2=C(C1)NN=C2", 
	 "Tm": 428.15, 
	 "num_atms": 20, 
	 "gaussian": { 
		 "optdone": 1, 
		 "sigma_profile": "yes", 
		 "theory": "DFT", 
		 "functional": "B3LYP", 
		 "basiset": "6-31G**", 
		 "properties": { 
			 "R2extent": 2181.2541, 
			 "electric_dipole_moment_norm": 1.91134388847, 
			 "electric_quadrupole_moment_norm": 15.2137505274, 
			 "total_energy": -457.478333455, 
			 "HOMO_LUMO_gap": 0.25011, 
			 "cosmo_polarized_energy": -13.54, 
			 "cosmo_cavitation_energy": 22.2, 
			 "cosmo_dispersion_energy": -16.97, 
			 "cosmo_repulsion_energy": 1.39, 
			 "cosmo_total_nonelectrostatic_energy": 6.62, 
			 "SMD_solvation_energy": 2.28 
		},
		"coords": [
			{
				"x": -0.5155117889,
				"y": 0.6927705099,
				"z": -2.5859249633,
				"element": "O" 
			},
			{
				"x": -0.1237461194,
				"y": -0.0369844645,
				"z": -1.4302798536,
				"element": "C" 
			},
			{
				"x": 1.3082717843,
				"y": 0.3051882465,
				"z": -0.9845147227,
				"element": "C" 
			},
			{
				"x": 1.6711606602,
				"y": -0.3258964722,
				"z": 0.3765507617,
				"element": "C" 
			},
			{
				"x": 1.2258710343,
				"y": -1.7612237451,
				"z": 0.4151300864,
				"element": "C" 
			},
			{
				"x": 0.3261508916,
				"y": -2.2859348546,
				"z": -0.4960049562,
				"element": "C" 
			},
			{
				"x": -0.2996937986,
				"y": -1.5566705661,
				"z": -1.6437358031,
				"element": "C" 
			},
			{
				"x": 0.1457510263,
				"y": -3.5883412345,
				"z": -0.1458205476,
				"element": "N" 
			},
			{
				"x": 0.8714666636,
				"y": -3.9533083549,
				"z": 0.9377922076,
				"element": "N" 
			},
			{
				"x": 1.5257208106,
				"y": -2.8436151963,
				"z": 1.2784082309,
				"element": "C" 
			},
			{
				"x": 0.1228384599,
				"y": 0.4975177837,
				"z": -3.2859067164,
				"element": "H" 
			},
			{
				"x": -0.8208639148,
				"y": 0.2855658469,
				"z": -0.6471243943,
				"element": "H" 
			},
			{
				"x": 1.4092744087,
				"y": 1.3945089788,
				"z": -0.9447284423,
				"element": "H" 
			},
			{
				"x": 2.0074673912,
				"y": -0.0574477792,
				"z": -1.7530614163,
				"element": "H" 
			},
			{
				"x": 1.1882676786,
				"y": 0.2456997338,
				"z": 1.1819338207,
				"element": "H" 
			},
			{
				"x": 2.7501876579,
				"y": -0.2397581391,
				"z": 0.551396126,
				"element": "H" 
			},
			{
				"x": 0.1853211972,
				"y": -1.8365451532,
				"z": -2.592172861,
				"element": "H" 
			},
			{
				"x": -1.3646853264,
				"y": -1.7916225346,
				"z": -1.7563955048,
				"element": "H" 
			},
			{
				"x": -0.442814416,
				"y": -4.2748226247,
				"z": -0.5913877802,
				"element": "H" 
			},
			{
				"x": 2.1904656998,
				"y": -2.8601799806,
				"z": 2.1328467287,
				"element": "H" 
			}
		],
		 "valence_orbital": [ 
			{
				"type": "occ",
				"energy": -0.32044,
				"method": "rhf"
			},
			{
				"type": "occ",
				"energy": -0.28277,
				"method": "rhf"
			},
			{
				"type": "occ",
				"energy": -0.26668,
				"method": "rhf"
			},
			{
				"type": "occ",
				"energy": -0.24646,
				"method": "rhf"
			},
			{
				"type": "occ",
				"energy": -0.2267,
				"method": "rhf"
			},
			{
				"type": "unocc",
				"energy": 0.02341,
				"method": "rhf"
			},
			{
				"type": "unocc",
				"energy": 0.06321,
				"method": "rhf"
			},
			{
				"type": "unocc",
				"energy": 0.08103,
				"method": "rhf"
			},
			{
				"type": "unocc",
				"energy": 0.08616,
				"method": "rhf"
			},
			{
				"type": "unocc",
				"energy": 0.09844,
				"method": "rhf"
			}
		],
		"cosmo_sigma_profile": { 
			"-0.025": 0.0,
			"-0.024": 0.0,
			"-0.023": 0.0,
			"-0.022": 0.0,
			"-0.021": 0.0,
			"-0.02": 0.0,
			"-0.019": 0.0,
			"-0.018": 0.0,
			"-0.017": 0.0,
			"-0.016": 0.534117460817,
			"-0.015": 2.11423683761,
			"-0.014": 2.41914337073,
			"-0.013": 2.34876841931,
			"-0.012": 1.53606106905,
			"-0.011": 1.67879432364,
			"-0.01": 2.26963090433,
			"-0.009": 2.80866526551,
			"-0.008": 1.60311461292,
			"-0.007": 2.30477467741,
			"-0.006": 4.35512166505,
			"-0.005": 8.25867309622,
			"-0.004": 11.4281328791,
			"-0.003": 17.9455383082,
			"-0.002": 17.9370924501,
			"-0.001": 17.0834736085,
			"0.0": 13.2108174338,
			"0.001": 7.08695863053,
			"0.002": 4.67432066115,
			"0.003": 4.63876473094,
			"0.004": 6.27546724487,
			"0.005": 6.47079889196,
			"0.006": 6.9261967651,
			"0.007": 3.57251071471,
			"0.008": 3.17842506847,
			"0.009": 2.98539084908,
			"0.01": 2.40274031583,
			"0.011": 2.4726960383,
			"0.012": 3.04836769088,
			"0.013": 2.65325043656,
			"0.014": 3.62246288863,
			"0.015": 2.08332230276,
			"0.016": 1.07072575639,
			"0.017": 0.526829672693,
			"0.018": 0.0,
			"0.019": 0.0,
			"0.02": 0.0,
			"0.021": 0.0,
			"0.022": 0.0,
			"0.023": 0.0,
			"0.024": 0.0,
			"0.025": 0.0
		}
	}
}
