{
	 "smiles": "CC(=C/C=C/C1=CC=CC=C1)C(=O)OC(=O)C(C)=CC=CC1=CC=CC=C1", 
	 "Tm": 385.15, 
	 "num_atms": 49, 
	 "gaussian": { 
		 "optdone": 1, 
		 "sigma_profile": "yes", 
		 "theory": "DFT", 
		 "functional": "B3LYP", 
		 "basiset": "6-31G**", 
		 "properties": { 
			 "R2extent": 20596.6049, 
			 "electric_dipole_moment_norm": 5.98648390376, 
			 "electric_quadrupole_moment_norm": 36.7604525832, 
			 "total_energy": -1153.46406097, 
			 "HOMO_LUMO_gap": 0.13561, 
			 "cosmo_polarized_energy": -18.11, 
			 "cosmo_cavitation_energy": 55.54, 
			 "cosmo_dispersion_energy": -38.44, 
			 "cosmo_repulsion_energy": 2.9, 
			 "cosmo_total_nonelectrostatic_energy": 20.0, 
			 "SMD_solvation_energy": 11.22 
		},
		"coords": [
			{
				"x": -2.699832216,
				"y": 1.7676961001,
				"z": 3.1056044023,
				"element": "C" 
			},
			{
				"x": -2.4002406328,
				"y": 0.906151448,
				"z": 1.9079392213,
				"element": "C" 
			},
			{
				"x": -2.2271516178,
				"y": 1.3458922932,
				"z": 0.6331994421,
				"element": "C" 
			},
			{
				"x": -2.2310534511,
				"y": 2.7016130448,
				"z": 0.1144243144,
				"element": "C" 
			},
			{
				"x": -1.9459362104,
				"y": 3.8463650949,
				"z": 0.7810630279,
				"element": "C" 
			},
			{
				"x": -1.9389705775,
				"y": 5.2017751098,
				"z": 0.2266256143,
				"element": "C" 
			},
			{
				"x": -2.4405897702,
				"y": 5.5208508598,
				"z": -1.0514460822,
				"element": "C" 
			},
			{
				"x": -2.4009869038,
				"y": 6.8274505709,
				"z": -1.5267251707,
				"element": "C" 
			},
			{
				"x": -1.8648530581,
				"y": 7.8517947797,
				"z": -0.7393754611,
				"element": "C" 
			},
			{
				"x": -1.3717135558,
				"y": 7.5561449303,
				"z": 0.5322974067,
				"element": "C" 
			},
			{
				"x": -1.4117467315,
				"y": 6.2474889872,
				"z": 1.0084995759,
				"element": "C" 
			},
			{
				"x": -2.3527038058,
				"y": -0.5494038405,
				"z": 2.1952818596,
				"element": "C" 
			},
			{
				"x": -2.5940159353,
				"y": -1.0492179767,
				"z": 3.2678139695,
				"element": "O" 
			},
			{
				"x": -1.9238944855,
				"y": -1.3106682386,
				"z": 1.1081743391,
				"element": "O" 
			},
			{
				"x": -2.3839885223,
				"y": -2.6233259804,
				"z": 0.9640733916,
				"element": "C" 
			},
			{
				"x": -3.5014597933,
				"y": -2.9482777711,
				"z": 1.2857397184,
				"element": "O" 
			},
			{
				"x": -1.4013334459,
				"y": -3.5219112068,
				"z": 0.321203553,
				"element": "C" 
			},
			{
				"x": -1.939198009,
				"y": -4.8990546577,
				"z": 0.0352862995,
				"element": "C" 
			},
			{
				"x": -0.1407275868,
				"y": -3.0864121627,
				"z": 0.0584865569,
				"element": "C" 
			},
			{
				"x": 0.9306249529,
				"y": -3.8375033463,
				"z": -0.5470913186,
				"element": "C" 
			},
			{
				"x": 2.1555997619,
				"y": -3.2976572719,
				"z": -0.7580837603,
				"element": "C" 
			},
			{
				"x": 3.3250808025,
				"y": -3.9367841547,
				"z": -1.3572899823,
				"element": "C" 
			},
			{
				"x": 4.5125684168,
				"y": -3.1901227931,
				"z": -1.4836738002,
				"element": "C" 
			},
			{
				"x": 5.6589164035,
				"y": -3.7463716378,
				"z": -2.0466551085,
				"element": "C" 
			},
			{
				"x": 5.644906372,
				"y": -5.0668771104,
				"z": -2.498186804,
				"element": "C" 
			},
			{
				"x": 4.4744352823,
				"y": -5.8240983387,
				"z": -2.3809757898,
				"element": "C" 
			},
			{
				"x": 3.3299075817,
				"y": -5.2690886951,
				"z": -1.818985523,
				"element": "C" 
			},
			{
				"x": -1.7806948827,
				"y": 2.1297708742,
				"z": 3.5845366369,
				"element": "H" 
			},
			{
				"x": -3.2926640576,
				"y": 2.6418910203,
				"z": 2.8222860454,
				"element": "H" 
			},
			{
				"x": -3.2412729043,
				"y": 1.1862139744,
				"z": 3.8535777195,
				"element": "H" 
			},
			{
				"x": -2.0987442043,
				"y": 0.577122568,
				"z": -0.1234059745,
				"element": "H" 
			},
			{
				"x": -2.4380336688,
				"y": 2.7672766056,
				"z": -0.9524513017,
				"element": "H" 
			},
			{
				"x": -1.6453286285,
				"y": 3.7827895218,
				"z": 1.822768281,
				"element": "H" 
			},
			{
				"x": -2.8771833799,
				"y": 4.7441930187,
				"z": -1.6715138273,
				"element": "H" 
			},
			{
				"x": -2.7955197366,
				"y": 7.0518733604,
				"z": -2.5136268205,
				"element": "H" 
			},
			{
				"x": -1.8381973878,
				"y": 8.8709125563,
				"z": -1.1136664518,
				"element": "H" 
			},
			{
				"x": -0.957237446,
				"y": 8.3444412185,
				"z": 1.1540291539,
				"element": "H" 
			},
			{
				"x": -1.0257262857,
				"y": 6.0223515614,
				"z": 1.9995439895,
				"element": "H" 
			},
			{
				"x": -1.2030517227,
				"y": -5.5409711324,
				"z": -0.4499781249,
				"element": "H" 
			},
			{
				"x": -2.2644084471,
				"y": -5.3821821747,
				"z": 0.9625644436,
				"element": "H" 
			},
			{
				"x": -2.8247388161,
				"y": -4.840281243,
				"z": -0.6062249112,
				"element": "H" 
			},
			{
				"x": 0.0971317824,
				"y": -2.0619287064,
				"z": 0.3324104085,
				"element": "H" 
			},
			{
				"x": 0.7366800385,
				"y": -4.8659295618,
				"z": -0.8374077713,
				"element": "H" 
			},
			{
				"x": 2.3064565706,
				"y": -2.2629200106,
				"z": -0.4497754428,
				"element": "H" 
			},
			{
				"x": 4.5283245553,
				"y": -2.1612487748,
				"z": -1.1330230856,
				"element": "H" 
			},
			{
				"x": 6.5623506032,
				"y": -3.1496065705,
				"z": -2.1325813359,
				"element": "H" 
			},
			{
				"x": 6.5363212367,
				"y": -5.5046737255,
				"z": -2.9375894654,
				"element": "H" 
			},
			{
				"x": 4.4566413582,
				"y": -6.8525513526,
				"z": -2.7301205785,
				"element": "H" 
			},
			{
				"x": 2.4327521586,
				"y": -5.8746910636,
				"z": -1.7374754784,
				"element": "H" 
			}
		],
		 "valence_orbital": [ 
			{
				"type": "occ",
				"energy": -0.26381,
				"method": "rhf"
			},
			{
				"type": "occ",
				"energy": -0.26078,
				"method": "rhf"
			},
			{
				"type": "occ",
				"energy": -0.25982,
				"method": "rhf"
			},
			{
				"type": "occ",
				"energy": -0.21859,
				"method": "rhf"
			},
			{
				"type": "occ",
				"energy": -0.21623,
				"method": "rhf"
			},
			{
				"type": "unocc",
				"energy": -0.08062,
				"method": "rhf"
			},
			{
				"type": "unocc",
				"energy": -0.07387,
				"method": "rhf"
			},
			{
				"type": "unocc",
				"energy": -0.01414,
				"method": "rhf"
			},
			{
				"type": "unocc",
				"energy": -0.01005,
				"method": "rhf"
			},
			{
				"type": "unocc",
				"energy": -0.0081,
				"method": "rhf"
			}
		],
		"cosmo_sigma_profile": { 
			"-0.025": 0.0,
			"-0.024": 0.0,
			"-0.023": 0.0,
			"-0.022": 0.0,
			"-0.021": 0.0,
			"-0.02": 0.0,
			"-0.019": 0.0,
			"-0.018": 0.0,
			"-0.017": 0.0,
			"-0.016": 0.0,
			"-0.015": 0.0,
			"-0.014": 0.0,
			"-0.013": 0.0,
			"-0.012": 0.0,
			"-0.011": 0.0,
			"-0.01": 0.0,
			"-0.009": 0.0684357909472,
			"-0.008": 2.22737722353,
			"-0.007": 9.94979647333,
			"-0.006": 28.2980038236,
			"-0.005": 32.3888801932,
			"-0.004": 36.7865815665,
			"-0.003": 32.758837984,
			"-0.002": 33.8073338246,
			"-0.001": 39.0696410371,
			"0.0": 40.3525544728,
			"0.001": 32.1224828521,
			"0.002": 35.6076899497,
			"0.003": 35.4920933804,
			"0.004": 28.8148278227,
			"0.005": 23.2938565328,
			"0.006": 3.49689925177,
			"0.007": 2.63276752557,
			"0.008": 2.97482377005,
			"0.009": 3.30348569509,
			"0.01": 5.01173172579,
			"0.011": 9.74015433106,
			"0.012": 5.86253098966,
			"0.013": 0.521009479641,
			"0.014": 0.0,
			"0.015": 0.0,
			"0.016": 0.0,
			"0.017": 0.0,
			"0.018": 0.0,
			"0.019": 0.0,
			"0.02": 0.0,
			"0.021": 0.0,
			"0.022": 0.0,
			"0.023": 0.0,
			"0.024": 0.0,
			"0.025": 0.0
		}
	}
}
