{
	 "smiles": "NC1=C(F)C(F)=C(F)C=C1[N+]([O-])=O", 
	 "Tm": 320.15, 
	 "num_atms": 16, 
	 "gaussian": { 
		 "optdone": 1, 
		 "sigma_profile": "yes", 
		 "theory": "DFT", 
		 "functional": "B3LYP", 
		 "basiset": "6-31G**", 
		 "properties": { 
			 "R2extent": 2760.9488, 
			 "electric_dipole_moment_norm": 2.81560096782, 
			 "electric_quadrupole_moment_norm": 11.0204070864, 
			 "total_energy": -789.786274023, 
			 "HOMO_LUMO_gap": 0.14009, 
			 "cosmo_polarized_energy": -8.78, 
			 "cosmo_cavitation_energy": 22.72, 
			 "cosmo_dispersion_energy": -16.8, 
			 "cosmo_repulsion_energy": 1.25, 
			 "cosmo_total_nonelectrostatic_energy": 7.17, 
			 "SMD_solvation_energy": 7.38 
		},
		"coords": [
			{
				"x": -1.8266901555,
				"y": -1.1269743683,
				"z": -0.9331759704,
				"element": "N" 
			},
			{
				"x": -1.0963847851,
				"y": 0.0081318429,
				"z": -0.8447731116,
				"element": "C" 
			},
			{
				"x": -1.1602204196,
				"y": 0.9323037855,
				"z": -1.9156512168,
				"element": "C" 
			},
			{
				"x": -1.9516518326,
				"y": 0.616698191,
				"z": -2.961740353,
				"element": "F" 
			},
			{
				"x": -0.4574801685,
				"y": 2.1176933755,
				"z": -1.9271008495,
				"element": "C" 
			},
			{
				"x": -0.5601134546,
				"y": 2.9462843063,
				"z": -2.9659354549,
				"element": "F" 
			},
			{
				"x": 0.3675628052,
				"y": 2.4468291607,
				"z": -0.8369153132,
				"element": "C" 
			},
			{
				"x": 1.0402934965,
				"y": 3.6076891675,
				"z": -0.8752340589,
				"element": "F" 
			},
			{
				"x": 0.4696192125,
				"y": 1.5903725062,
				"z": 0.2300009569,
				"element": "C" 
			},
			{
				"x": -0.2515120765,
				"y": 0.381501842,
				"z": 0.2340720948,
				"element": "C" 
			},
			{
				"x": -0.0946912164,
				"y": -0.4710098975,
				"z": 1.392068171,
				"element": "N" 
			},
			{
				"x": -0.7190744881,
				"y": -1.5474818087,
				"z": 1.4260558151,
				"element": "O" 
			},
			{
				"x": 0.6501856403,
				"y": -0.0972284713,
				"z": 2.2973755028,
				"element": "O" 
			},
			{
				"x": -1.7809140564,
				"y": -1.785555456,
				"z": -0.1705382533,
				"element": "H" 
			},
			{
				"x": -2.3905519273,
				"y": -1.2822813566,
				"z": -1.75160668,
				"element": "H" 
			},
			{
				"x": 1.1001234261,
				"y": 1.8299271807,
				"z": 1.0755987211,
				"element": "H" 
			}
		],
		 "valence_orbital": [ 
			{
				"type": "occ",
				"energy": -0.31773,
				"method": "rhf"
			},
			{
				"type": "occ",
				"energy": -0.31449,
				"method": "rhf"
			},
			{
				"type": "occ",
				"energy": -0.29877,
				"method": "rhf"
			},
			{
				"type": "occ",
				"energy": -0.28152,
				"method": "rhf"
			},
			{
				"type": "occ",
				"energy": -0.2356,
				"method": "rhf"
			},
			{
				"type": "unocc",
				"energy": -0.09551,
				"method": "rhf"
			},
			{
				"type": "unocc",
				"energy": -0.01891,
				"method": "rhf"
			},
			{
				"type": "unocc",
				"energy": -0.00098,
				"method": "rhf"
			},
			{
				"type": "unocc",
				"energy": 0.02626,
				"method": "rhf"
			},
			{
				"type": "unocc",
				"energy": 0.08392,
				"method": "rhf"
			}
		],
		"cosmo_sigma_profile": { 
			"-0.025": 0.0,
			"-0.024": 0.0,
			"-0.023": 0.0,
			"-0.022": 0.0,
			"-0.021": 0.0,
			"-0.02": 0.0,
			"-0.019": 0.0,
			"-0.018": 0.0,
			"-0.017": 0.0,
			"-0.016": 0.0,
			"-0.015": 0.538765666528,
			"-0.014": 0.879313140228,
			"-0.013": 0.868700095265,
			"-0.012": 1.27497131288,
			"-0.011": 1.43829876697,
			"-0.01": 2.30819353499,
			"-0.009": 1.9358874626,
			"-0.008": 2.76064591736,
			"-0.007": 3.13530497529,
			"-0.006": 3.85047801184,
			"-0.005": 4.68797475255,
			"-0.004": 10.2198251026,
			"-0.003": 19.5682093427,
			"-0.002": 15.6689109694,
			"-0.001": 17.0505997739,
			"0.0": 12.4803545389,
			"0.001": 11.2463132469,
			"0.002": 21.6594737317,
			"0.003": 21.8149376407,
			"0.004": 4.64990967256,
			"0.005": 2.90696217411,
			"0.006": 3.40113119172,
			"0.007": 4.19765278669,
			"0.008": 6.16578489796,
			"0.009": 4.39535906392,
			"0.01": 3.62980758556,
			"0.011": 1.02840819221,
			"0.012": 0.0,
			"0.013": 0.0,
			"0.014": 0.0,
			"0.015": 0.0,
			"0.016": 0.0,
			"0.017": 0.0,
			"0.018": 0.0,
			"0.019": 0.0,
			"0.02": 0.0,
			"0.021": 0.0,
			"0.022": 0.0,
			"0.023": 0.0,
			"0.024": 0.0,
			"0.025": 0.0
		}
	}
}
