{
	 "smiles": "CC1CCCC(=O)O1", 
	 "Tm": 291.15, 
	 "num_atms": 18, 
	 "gaussian": { 
		 "optdone": 1, 
		 "sigma_profile": "yes", 
		 "theory": "DFT", 
		 "functional": "B3LYP", 
		 "basiset": "6-31G**", 
		 "properties": { 
			 "R2extent": 1002.8562, 
			 "electric_dipole_moment_norm": 4.62728741057, 
			 "electric_quadrupole_moment_norm": 6.93611752063, 
			 "total_energy": -385.128065511, 
			 "HOMO_LUMO_gap": 0.27101, 
			 "cosmo_polarized_energy": -10.71, 
			 "cosmo_cavitation_energy": 19.92, 
			 "cosmo_dispersion_energy": -15.11, 
			 "cosmo_repulsion_energy": 1.27, 
			 "cosmo_total_nonelectrostatic_energy": 6.08, 
			 "SMD_solvation_energy": 4.2 
		},
		"coords": [
			{
				"x": -0.7160070935,
				"y": 1.1747149717,
				"z": 2.3018456793,
				"element": "C" 
			},
			{
				"x": -1.418608363,
				"y": 0.4023144956,
				"z": 1.1860491497,
				"element": "C" 
			},
			{
				"x": -1.1032479158,
				"y": -1.0958967757,
				"z": 1.1622614845,
				"element": "C" 
			},
			{
				"x": 0.3044050758,
				"y": -1.3520591155,
				"z": 0.6222465342,
				"element": "C" 
			},
			{
				"x": 0.4042514251,
				"y": -0.7675552766,
				"z": -0.7894157336,
				"element": "C" 
			},
			{
				"x": -0.1663295546,
				"y": 0.6359119372,
				"z": -0.9502414504,
				"element": "C" 
			},
			{
				"x": 0.1427136723,
				"y": 1.3574636755,
				"z": -1.8686944201,
				"element": "O" 
			},
			{
				"x": -1.117615311,
				"y": 1.0594001024,
				"z": -0.0764599096,
				"element": "O" 
			},
			{
				"x": -1.0459369511,
				"y": 0.8126138171,
				"z": 3.2811990426,
				"element": "H" 
			},
			{
				"x": -0.9560427905,
				"y": 2.2381608596,
				"z": 2.2261661798,
				"element": "H" 
			},
			{
				"x": 0.3718167295,
				"y": 1.0698736687,
				"z": 2.2448533867,
				"element": "H" 
			},
			{
				"x": -2.4996479644,
				"y": 0.5401727415,
				"z": 1.2952297335,
				"element": "H" 
			},
			{
				"x": -1.8349589979,
				"y": -1.6082142491,
				"z": 0.5248341828,
				"element": "H" 
			},
			{
				"x": -1.2254451991,
				"y": -1.4966277132,
				"z": 2.1745097912,
				"element": "H" 
			},
			{
				"x": 0.5262225063,
				"y": -2.4241408653,
				"z": 0.6043962292,
				"element": "H" 
			},
			{
				"x": 1.0533138444,
				"y": -0.8908829744,
				"z": 1.2766208269,
				"element": "H" 
			},
			{
				"x": 1.4297111716,
				"y": -0.7380833063,
				"z": -1.165504521,
				"element": "H" 
			},
			{
				"x": -0.1628942842,
				"y": -1.3961659932,
				"z": -1.4897961857,
				"element": "H" 
			}
		],
		 "valence_orbital": [ 
			{
				"type": "occ",
				"energy": -0.35336,
				"method": "rhf"
			},
			{
				"type": "occ",
				"energy": -0.34933,
				"method": "rhf"
			},
			{
				"type": "occ",
				"energy": -0.31704,
				"method": "rhf"
			},
			{
				"type": "occ",
				"energy": -0.28315,
				"method": "rhf"
			},
			{
				"type": "occ",
				"energy": -0.25499,
				"method": "rhf"
			},
			{
				"type": "unocc",
				"energy": 0.01602,
				"method": "rhf"
			},
			{
				"type": "unocc",
				"energy": 0.07056,
				"method": "rhf"
			},
			{
				"type": "unocc",
				"energy": 0.09878,
				"method": "rhf"
			},
			{
				"type": "unocc",
				"energy": 0.11361,
				"method": "rhf"
			},
			{
				"type": "unocc",
				"energy": 0.1187,
				"method": "rhf"
			}
		],
		"cosmo_sigma_profile": { 
			"-0.025": 0.0,
			"-0.024": 0.0,
			"-0.023": 0.0,
			"-0.022": 0.0,
			"-0.021": 0.0,
			"-0.02": 0.0,
			"-0.019": 0.0,
			"-0.018": 0.0,
			"-0.017": 0.0,
			"-0.016": 0.0,
			"-0.015": 0.0,
			"-0.014": 0.0,
			"-0.013": 0.0,
			"-0.012": 0.0,
			"-0.011": 0.0,
			"-0.01": 0.0,
			"-0.009": 0.0,
			"-0.008": 0.0,
			"-0.007": 0.471493705027,
			"-0.006": 5.81088888755,
			"-0.005": 13.946845495,
			"-0.004": 24.6858072695,
			"-0.003": 22.300519943,
			"-0.002": 20.6488801913,
			"-0.001": 16.0916815456,
			"0.0": 10.7943567987,
			"0.001": 4.86110004255,
			"0.002": 1.72650669931,
			"0.003": 2.35600519037,
			"0.004": 1.85485768473,
			"0.005": 1.29105923226,
			"0.006": 2.71431736488,
			"0.007": 2.27552180674,
			"0.008": 1.32791070326,
			"0.009": 1.98743376153,
			"0.01": 2.98358516829,
			"0.011": 3.26672643927,
			"0.012": 5.86618490658,
			"0.013": 5.77888616413,
			"0.014": 1.99553370065,
			"0.015": 0.0791611296704,
			"0.016": 0.0,
			"0.017": 0.0,
			"0.018": 0.0,
			"0.019": 0.0,
			"0.02": 0.0,
			"0.021": 0.0,
			"0.022": 0.0,
			"0.023": 0.0,
			"0.024": 0.0,
			"0.025": 0.0
		}
	}
}
