{
	 "smiles": "O=P(N1CCOCC1)(N1CCOCC1)N1CCOCC1", 
	 "Tm": 463.15, 
	 "num_atms": 44, 
	 "gaussian": { 
		 "optdone": 1, 
		 "sigma_profile": "yes", 
		 "theory": "DFT", 
		 "functional": "B3LYP", 
		 "basiset": "6-31G**", 
		 "properties": { 
			 "R2extent": 6259.3969, 
			 "electric_dipole_moment_norm": 2.51306500911, 
			 "electric_quadrupole_moment_norm": 10.9701011171, 
			 "total_energy": -1278.2133699, 
			 "HOMO_LUMO_gap": 0.27378, 
			 "cosmo_polarized_energy": -18.99, 
			 "cosmo_cavitation_energy": 42.78, 
			 "cosmo_dispersion_energy": -29.44, 
			 "cosmo_repulsion_energy": 2.22, 
			 "cosmo_total_nonelectrostatic_energy": 15.57, 
			 "SMD_solvation_energy": 6.52 
		},
		"coords": [
			{
				"x": 1.564994901,
				"y": -1.5320943415,
				"z": 0.3845389867,
				"element": "O" 
			},
			{
				"x": 0.6274053407,
				"y": -0.3900282793,
				"z": 0.159697574,
				"element": "P" 
			},
			{
				"x": 1.2539762216,
				"y": 1.1811021044,
				"z": 0.083740499,
				"element": "N" 
			},
			{
				"x": 1.8906276155,
				"y": 1.6076262128,
				"z": -1.1835379445,
				"element": "C" 
			},
			{
				"x": 2.5912674749,
				"y": 2.9461848853,
				"z": -0.9765234013,
				"element": "C" 
			},
			{
				"x": 3.6444996255,
				"y": 2.8773203163,
				"z": -0.0215386738,
				"element": "O" 
			},
			{
				"x": 3.4302113658,
				"y": 1.9194305059,
				"z": 1.0155813865,
				"element": "C" 
			},
			{
				"x": 1.9476572591,
				"y": 1.6884016231,
				"z": 1.2911866318,
				"element": "C" 
			},
			{
				"x": -0.1476782307,
				"y": -0.5488766721,
				"z": -1.3284145128,
				"element": "N" 
			},
			{
				"x": 0.1835173059,
				"y": -1.6650047883,
				"z": -2.2289458625,
				"element": "C" 
			},
			{
				"x": -1.0909385688,
				"y": -2.3407297129,
				"z": -2.7216601854,
				"element": "C" 
			},
			{
				"x": -1.979403134,
				"y": -1.4374065934,
				"z": -3.3904798014,
				"element": "O" 
			},
			{
				"x": -1.7516768052,
				"y": -0.06385356,
				"z": -3.1111302865,
				"element": "C" 
			},
			{
				"x": -1.380119669,
				"y": 0.1826994448,
				"z": -1.6506326483,
				"element": "C" 
			},
			{
				"x": -0.4747979686,
				"y": -0.2572207235,
				"z": 1.4240423417,
				"element": "N" 
			},
			{
				"x": -0.7069046232,
				"y": -1.4346510559,
				"z": 2.2863742337,
				"element": "C" 
			},
			{
				"x": -2.135362417,
				"y": -1.4123649072,
				"z": 2.8183796906,
				"element": "C" 
			},
			{
				"x": -2.4234077362,
				"y": -0.2433400214,
				"z": 3.5844842042,
				"element": "O" 
			},
			{
				"x": -1.6978705435,
				"y": 0.9169190493,
				"z": 3.1865798524,
				"element": "C" 
			},
			{
				"x": -1.3341667586,
				"y": 0.9018658965,
				"z": 1.7045323058,
				"element": "C" 
			},
			{
				"x": 2.6273888371,
				"y": 0.8735289819,
				"z": -1.5396872086,
				"element": "H" 
			},
			{
				"x": 1.1286634841,
				"y": 1.712693689,
				"z": -1.9614990513,
				"element": "H" 
			},
			{
				"x": 1.8489584158,
				"y": 3.7036925091,
				"z": -0.67712159,
				"element": "H" 
			},
			{
				"x": 3.0395818306,
				"y": 3.2766876609,
				"z": -1.9192942918,
				"element": "H" 
			},
			{
				"x": 3.902100055,
				"y": 0.9610478817,
				"z": 0.7538934083,
				"element": "H" 
			},
			{
				"x": 3.9255075249,
				"y": 2.3069896706,
				"z": 1.9126718029,
				"element": "H" 
			},
			{
				"x": 1.4879041992,
				"y": 2.6311957943,
				"z": 1.6191295923,
				"element": "H" 
			},
			{
				"x": 1.8373709312,
				"y": 0.9708076244,
				"z": 2.1082973751,
				"element": "H" 
			},
			{
				"x": 0.805811562,
				"y": -2.3779659545,
				"z": -1.6845991867,
				"element": "H" 
			},
			{
				"x": 0.7663703521,
				"y": -1.3088229183,
				"z": -3.0912712161,
				"element": "H" 
			},
			{
				"x": -1.6142208443,
				"y": -2.7986215572,
				"z": -1.8688351392,
				"element": "H" 
			},
			{
				"x": -0.8438071412,
				"y": -3.1381699289,
				"z": -3.4322429796,
				"element": "H" 
			},
			{
				"x": -0.9632336244,
				"y": 0.3443042157,
				"z": -3.763910367,
				"element": "H" 
			},
			{
				"x": -2.6825434894,
				"y": 0.4598277313,
				"z": -3.3505550916,
				"element": "H" 
			},
			{
				"x": -1.2416351647,
				"y": 1.2595254594,
				"z": -1.4864086786,
				"element": "H" 
			},
			{
				"x": -2.2172698813,
				"y": -0.1426980365,
				"z": -1.0153864702,
				"element": "H" 
			},
			{
				"x": -0.0025596489,
				"y": -1.4426761732,
				"z": 3.1292869797,
				"element": "H" 
			},
			{
				"x": -0.5335421062,
				"y": -2.3536788413,
				"z": 1.721050924,
				"element": "H" 
			},
			{
				"x": -2.3001157338,
				"y": -2.2695969112,
				"z": 3.4794703005,
				"element": "H" 
			},
			{
				"x": -2.8421154716,
				"y": -1.497605547,
				"z": 1.9776600671,
				"element": "H" 
			},
			{
				"x": -2.33493643,
				"y": 1.7806956911,
				"z": 3.406125201,
				"element": "H" 
			},
			{
				"x": -0.7789677202,
				"y": 1.0151106435,
				"z": 3.7857781732,
				"element": "H" 
			},
			{
				"x": -2.2631213106,
				"y": 0.8766230888,
				"z": 1.1157226322,
				"element": "H" 
			},
			{
				"x": -0.8090192806,
				"y": 1.8234258437,
				"z": 1.4407504246,
				"element": "H" 
			}
		],
		 "valence_orbital": [ 
			{
				"type": "occ",
				"energy": -0.25297,
				"method": "rhf"
			},
			{
				"type": "occ",
				"energy": -0.25199,
				"method": "rhf"
			},
			{
				"type": "occ",
				"energy": -0.24529,
				"method": "rhf"
			},
			{
				"type": "occ",
				"energy": -0.23492,
				"method": "rhf"
			},
			{
				"type": "occ",
				"energy": -0.22217,
				"method": "rhf"
			},
			{
				"type": "unocc",
				"energy": 0.05161,
				"method": "rhf"
			},
			{
				"type": "unocc",
				"energy": 0.07247,
				"method": "rhf"
			},
			{
				"type": "unocc",
				"energy": 0.07724,
				"method": "rhf"
			},
			{
				"type": "unocc",
				"energy": 0.08036,
				"method": "rhf"
			},
			{
				"type": "unocc",
				"energy": 0.08782,
				"method": "rhf"
			}
		],
		"cosmo_sigma_profile": { 
			"-0.025": 0.0,
			"-0.024": 0.0,
			"-0.023": 0.0,
			"-0.022": 0.0,
			"-0.021": 0.0,
			"-0.02": 0.0,
			"-0.019": 0.0,
			"-0.018": 0.0,
			"-0.017": 0.0,
			"-0.016": 0.0,
			"-0.015": 0.0,
			"-0.014": 0.0,
			"-0.013": 0.0,
			"-0.012": 0.0,
			"-0.011": 0.0,
			"-0.01": 0.0,
			"-0.009": 0.0,
			"-0.008": 0.0,
			"-0.007": 0.0,
			"-0.006": 2.02065718065,
			"-0.005": 25.8004291011,
			"-0.004": 56.822659909,
			"-0.003": 65.8975707629,
			"-0.002": 43.4390480779,
			"-0.001": 25.549219175,
			"0.0": 17.4823623743,
			"0.001": 11.31135408,
			"0.002": 8.36884629688,
			"0.003": 7.03257341679,
			"0.004": 5.62289876685,
			"0.005": 6.11244359743,
			"0.006": 5.54991097907,
			"0.007": 5.25230546519,
			"0.008": 4.89717938257,
			"0.009": 4.70126868816,
			"0.01": 3.80983249602,
			"0.011": 5.92781061971,
			"0.012": 5.41469536862,
			"0.013": 6.54613024159,
			"0.014": 3.26175145796,
			"0.015": 2.12395689858,
			"0.016": 4.42707006563,
			"0.017": 1.42444763418,
			"0.018": 0.0,
			"0.019": 0.0,
			"0.02": 0.0,
			"0.021": 0.0,
			"0.022": 0.0,
			"0.023": 0.0,
			"0.024": 0.0,
			"0.025": 0.0
		}
	}
}
