{
	 "smiles": "CC(O)CC1=CC(F)=C(Br)C=C1", 
	 "Tm": 310.15, 
	 "num_atms": 22, 
	 "gaussian": { 
		 "optdone": 1, 
		 "sigma_profile": "yes", 
		 "theory": "DFT", 
		 "functional": "B3LYP", 
		 "basiset": "6-31G**", 
		 "properties": { 
			 "R2extent": 6196.6346, 
			 "electric_dipole_moment_norm": 2.76645025439, 
			 "electric_quadrupole_moment_norm": 7.27275378863, 
			 "total_energy": -3095.4476418, 
			 "HOMO_LUMO_gap": 0.21533, 
			 "cosmo_polarized_energy": -7.93, 
			 "cosmo_cavitation_energy": 27.81, 
			 "cosmo_dispersion_energy": -20.21, 
			 "cosmo_repulsion_energy": 1.6, 
			 "cosmo_total_nonelectrostatic_energy": 9.2, 
			 "SMD_solvation_energy": 3.82 
		},
		"coords": [
			{
				"x": -1.7418072422,
				"y": -0.0648578452,
				"z": 1.8398048387,
				"element": "C" 
			},
			{
				"x": -0.8433811181,
				"y": 1.0790796978,
				"z": 1.3680035314,
				"element": "C" 
			},
			{
				"x": -1.5990761531,
				"y": 2.1057135521,
				"z": 0.7318775872,
				"element": "O" 
			},
			{
				"x": 0.3382255149,
				"y": 0.6134872498,
				"z": 0.4746438831,
				"element": "C" 
			},
			{
				"x": -0.0836677934,
				"y": 0.0273681146,
				"z": -0.8533633672,
				"element": "C" 
			},
			{
				"x": -0.4596046547,
				"y": 0.8718692243,
				"z": -1.9089295276,
				"element": "C" 
			},
			{
				"x": -0.8727748631,
				"y": 0.3360533803,
				"z": -3.123272231,
				"element": "C" 
			},
			{
				"x": -1.2215673116,
				"y": 1.1700341253,
				"z": -4.1157717458,
				"element": "F" 
			},
			{
				"x": -0.9261181935,
				"y": -1.0426683649,
				"z": -3.323022016,
				"element": "C" 
			},
			{
				"x": -1.4908061772,
				"y": -1.737936578,
				"z": -4.998591125,
				"element": "Br" 
			},
			{
				"x": -0.5533177996,
				"y": -1.8911598721,
				"z": -2.2817177519,
				"element": "C" 
			},
			{
				"x": -0.1382710618,
				"y": -1.3585787492,
				"z": -1.0613138772,
				"element": "C" 
			},
			{
				"x": -2.1945157403,
				"y": -0.5890080475,
				"z": 0.9901876428,
				"element": "H" 
			},
			{
				"x": -2.5461006295,
				"y": 0.3294965505,
				"z": 2.4669224859,
				"element": "H" 
			},
			{
				"x": -1.1776092926,
				"y": -0.8004100334,
				"z": 2.4234055342,
				"element": "H" 
			},
			{
				"x": -0.4032479724,
				"y": 1.5662022292,
				"z": 2.246012169,
				"element": "H" 
			},
			{
				"x": -2.0948665122,
				"y": 1.6968253125,
				"z": 0.0086961836,
				"element": "H" 
			},
			{
				"x": 0.9777837331,
				"y": 1.4857512363,
				"z": 0.3022684072,
				"element": "H" 
			},
			{
				"x": 0.9326351803,
				"y": -0.1191120728,
				"z": 1.0326676366,
				"element": "H" 
			},
			{
				"x": -0.4211515825,
				"y": 1.9511204523,
				"z": -1.8032808879,
				"element": "H" 
			},
			{
				"x": -0.5870064553,
				"y": -2.9642703127,
				"z": -2.4333708439,
				"element": "H" 
			},
			{
				"x": 0.1546461247,
				"y": -2.0334992494,
				"z": -0.2623565264,
				"element": "H" 
			}
		],
		 "valence_orbital": [ 
			{
				"type": "occ",
				"energy": -0.31633,
				"method": "rhf"
			},
			{
				"type": "occ",
				"energy": -0.29184,
				"method": "rhf"
			},
			{
				"type": "occ",
				"energy": -0.27478,
				"method": "rhf"
			},
			{
				"type": "occ",
				"energy": -0.26408,
				"method": "rhf"
			},
			{
				"type": "occ",
				"energy": -0.24216,
				"method": "rhf"
			},
			{
				"type": "unocc",
				"energy": -0.02683,
				"method": "rhf"
			},
			{
				"type": "unocc",
				"energy": -0.01493,
				"method": "rhf"
			},
			{
				"type": "unocc",
				"energy": -0.00048,
				"method": "rhf"
			},
			{
				"type": "unocc",
				"energy": 0.07898,
				"method": "rhf"
			},
			{
				"type": "unocc",
				"energy": 0.10237,
				"method": "rhf"
			}
		],
		"cosmo_sigma_profile": { 
			"-0.025": 0.0,
			"-0.024": 0.0,
			"-0.023": 0.0,
			"-0.022": 0.0,
			"-0.021": 0.0,
			"-0.02": 0.0,
			"-0.019": 0.0,
			"-0.018": 0.0,
			"-0.017": 0.0,
			"-0.016": 0.0,
			"-0.015": 0.0,
			"-0.014": 0.0300502924178,
			"-0.013": 0.507123312774,
			"-0.012": 0.885306811217,
			"-0.011": 0.519020987962,
			"-0.01": 0.654023205006,
			"-0.009": 1.06840094516,
			"-0.008": 1.93916287956,
			"-0.007": 4.13419528912,
			"-0.006": 5.74695635454,
			"-0.005": 11.3854126008,
			"-0.004": 18.0540369199,
			"-0.003": 20.9213107148,
			"-0.002": 17.2225952998,
			"-0.001": 18.8439509633,
			"0.0": 23.0869431462,
			"0.001": 21.0732713645,
			"0.002": 17.6678231216,
			"0.003": 18.7667057992,
			"0.004": 21.0256158594,
			"0.005": 7.38312609871,
			"0.006": 1.17583769819,
			"0.007": 0.87792606497,
			"0.008": 1.40235276271,
			"0.009": 1.0422369734,
			"0.01": 1.3721516173,
			"0.011": 1.13012857133,
			"0.012": 0.607993725915,
			"0.013": 1.90231672114,
			"0.014": 2.18985419517,
			"0.015": 0.457398515909,
			"0.016": 0.0,
			"0.017": 0.0,
			"0.018": 0.0,
			"0.019": 0.0,
			"0.02": 0.0,
			"0.021": 0.0,
			"0.022": 0.0,
			"0.023": 0.0,
			"0.024": 0.0,
			"0.025": 0.0
		}
	}
}
