{
	 "smiles": "NC1=NC(=CS1)C(=O)NC1=CC=CC=C1", 
	 "Tm": 443.15, 
	 "num_atms": 24, 
	 "gaussian": { 
		 "optdone": 1, 
		 "sigma_profile": "yes", 
		 "theory": "DFT", 
		 "functional": "B3LYP", 
		 "basiset": "6-31G**", 
		 "properties": { 
			 "R2extent": 3962.2067, 
			 "electric_dipole_moment_norm": 4.42601140758, 
			 "electric_quadrupole_moment_norm": 15.766781683, 
			 "total_energy": -1024.15702766, 
			 "HOMO_LUMO_gap": 0.18116, 
			 "cosmo_polarized_energy": -17.71, 
			 "cosmo_cavitation_energy": 30.67, 
			 "cosmo_dispersion_energy": -22.24, 
			 "cosmo_repulsion_energy": 1.72, 
			 "cosmo_total_nonelectrostatic_energy": 10.15, 
			 "SMD_solvation_energy": 4.87 
		},
		"coords": [
			{
				"x": 2.9672288472,
				"y": 1.4531574976,
				"z": -1.1259114106,
				"element": "N" 
			},
			{
				"x": 1.6569938684,
				"y": 1.5174066882,
				"z": -1.5388375546,
				"element": "C" 
			},
			{
				"x": 0.8059527912,
				"y": 0.5433378088,
				"z": -1.420824515,
				"element": "N" 
			},
			{
				"x": -0.4046570052,
				"y": 0.8776332283,
				"z": -2.0003828813,
				"element": "C" 
			},
			{
				"x": -0.4832291021,
				"y": 2.1192887404,
				"z": -2.5638574718,
				"element": "C" 
			},
			{
				"x": 1.0321436686,
				"y": 2.9512842959,
				"z": -2.3837017389,
				"element": "S" 
			},
			{
				"x": -1.5572924059,
				"y": -0.0663186097,
				"z": -2.0829496312,
				"element": "C" 
			},
			{
				"x": -2.4348716777,
				"y": 0.0938637974,
				"z": -2.9267310652,
				"element": "O" 
			},
			{
				"x": -1.596107803,
				"y": -1.1656000686,
				"z": -1.2469142071,
				"element": "N" 
			},
			{
				"x": -1.0196164912,
				"y": -1.4052172674,
				"z": 0.0259152197,
				"element": "C" 
			},
			{
				"x": -0.6759980544,
				"y": -2.7204629168,
				"z": 0.3635617879,
				"element": "C" 
			},
			{
				"x": -0.170023716,
				"y": -3.0123396989,
				"z": 1.6296213612,
				"element": "C" 
			},
			{
				"x": 0.0115123964,
				"y": -1.9944926349,
				"z": 2.5673105388,
				"element": "C" 
			},
			{
				"x": -0.3336987987,
				"y": -0.6832257772,
				"z": 2.2313170558,
				"element": "C" 
			},
			{
				"x": -0.8605681925,
				"y": -0.3873509514,
				"z": 0.9758039947,
				"element": "C" 
			},
			{
				"x": 3.4073673091,
				"y": 2.3199652591,
				"z": -0.8530077313,
				"element": "H" 
			},
			{
				"x": 3.1446301448,
				"y": 0.6824355679,
				"z": -0.4947269423,
				"element": "H" 
			},
			{
				"x": -1.3273526889,
				"y": 2.5582808269,
				"z": -3.0732213693,
				"element": "H" 
			},
			{
				"x": -2.3367463599,
				"y": -1.7983777694,
				"z": -1.5256433037,
				"element": "H" 
			},
			{
				"x": -0.7989550553,
				"y": -3.5075787588,
				"z": -0.3751640434,
				"element": "H" 
			},
			{
				"x": 0.090149661,
				"y": -4.0372206603,
				"z": 1.8784385516,
				"element": "H" 
			},
			{
				"x": 0.4095551678,
				"y": -2.2209819557,
				"z": 3.5518857984,
				"element": "H" 
			},
			{
				"x": -0.2127094825,
				"y": 0.1144568549,
				"z": 2.9589708621,
				"element": "H" 
			},
			{
				"x": -1.1582070215,
				"y": 0.6264565036,
				"z": 0.7315486954,
				"element": "H" 
			}
		],
		 "valence_orbital": [ 
			{
				"type": "occ",
				"energy": -0.27966,
				"method": "rhf"
			},
			{
				"type": "occ",
				"energy": -0.25264,
				"method": "rhf"
			},
			{
				"type": "occ",
				"energy": -0.25027,
				"method": "rhf"
			},
			{
				"type": "occ",
				"energy": -0.22105,
				"method": "rhf"
			},
			{
				"type": "occ",
				"energy": -0.21785,
				"method": "rhf"
			},
			{
				"type": "unocc",
				"energy": -0.03669,
				"method": "rhf"
			},
			{
				"type": "unocc",
				"energy": -0.00547,
				"method": "rhf"
			},
			{
				"type": "unocc",
				"energy": -0.00096,
				"method": "rhf"
			},
			{
				"type": "unocc",
				"energy": 0.00764,
				"method": "rhf"
			},
			{
				"type": "unocc",
				"energy": 0.02296,
				"method": "rhf"
			}
		],
		"cosmo_sigma_profile": { 
			"-0.025": 0.0,
			"-0.024": 0.0,
			"-0.023": 0.0,
			"-0.022": 0.0,
			"-0.021": 0.0,
			"-0.02": 0.0,
			"-0.019": 0.0,
			"-0.018": 0.0,
			"-0.017": 0.0,
			"-0.016": 0.0,
			"-0.015": 0.878688633651,
			"-0.014": 2.80719619552,
			"-0.013": 3.58207565034,
			"-0.012": 3.98037924374,
			"-0.011": 4.32776517309,
			"-0.01": 2.53441947698,
			"-0.009": 3.17980852358,
			"-0.008": 4.75597975184,
			"-0.007": 5.69433829716,
			"-0.006": 10.4828991472,
			"-0.005": 13.9399106571,
			"-0.004": 15.3127091333,
			"-0.003": 14.6025277143,
			"-0.002": 10.7921011659,
			"-0.001": 13.8515029991,
			"0.0": 16.2208169354,
			"0.001": 19.5270618697,
			"0.002": 19.6440602934,
			"0.003": 16.7803797602,
			"0.004": 12.6231470989,
			"0.005": 12.3176759881,
			"0.006": 8.49368480694,
			"0.007": 5.14705481456,
			"0.008": 3.80695504069,
			"0.009": 3.29152697235,
			"0.01": 3.29504559394,
			"0.011": 3.30523377125,
			"0.012": 3.70910259046,
			"0.013": 6.26128489392,
			"0.014": 2.43593033468,
			"0.015": 0.00209629948394,
			"0.016": 0.0,
			"0.017": 0.0,
			"0.018": 0.0,
			"0.019": 0.0,
			"0.02": 0.0,
			"0.021": 0.0,
			"0.022": 0.0,
			"0.023": 0.0,
			"0.024": 0.0,
			"0.025": 0.0
		}
	}
}
