{
	 "smiles": "CC(COC1=CC=CC=C1)N(CCCl)CC1=CC=CC=C1", 
	 "Tm": 312.15, 
	 "num_atms": 43, 
	 "gaussian": { 
		 "optdone": 1, 
		 "sigma_profile": "yes", 
		 "theory": "DFT", 
		 "functional": "B3LYP", 
		 "basiset": "6-31G**", 
		 "properties": { 
			 "R2extent": 8198.2489, 
			 "electric_dipole_moment_norm": 3.37483344033, 
			 "electric_quadrupole_moment_norm": 4.66633341608, 
			 "total_energy": -1289.32440312, 
			 "HOMO_LUMO_gap": 0.19205, 
			 "cosmo_polarized_energy": -11.0, 
			 "cosmo_cavitation_energy": 45.26, 
			 "cosmo_dispersion_energy": -29.95, 
			 "cosmo_repulsion_energy": 2.29, 
			 "cosmo_total_nonelectrostatic_energy": 17.6, 
			 "SMD_solvation_energy": 6.99 
		},
		"coords": [
			{
				"x": -1.7323828392,
				"y": 1.1561023006,
				"z": -1.6989307024,
				"element": "C" 
			},
			{
				"x": -0.618632191,
				"y": 0.3709356386,
				"z": -1.0010407052,
				"element": "C" 
			},
			{
				"x": -0.2840629482,
				"y": 1.0008654429,
				"z": 0.3727989282,
				"element": "C" 
			},
			{
				"x": 0.0636989645,
				"y": 2.3839986322,
				"z": 0.2644781648,
				"element": "O" 
			},
			{
				"x": 1.347767182,
				"y": 2.7623120508,
				"z": -0.0184736572,
				"element": "C" 
			},
			{
				"x": 1.5815789632,
				"y": 4.1461283955,
				"z": 0.0157966905,
				"element": "C" 
			},
			{
				"x": 2.8511471518,
				"y": 4.6475729239,
				"z": -0.2497340751,
				"element": "C" 
			},
			{
				"x": 3.9084486183,
				"y": 3.7826774671,
				"z": -0.5524529831,
				"element": "C" 
			},
			{
				"x": 3.6708213255,
				"y": 2.4104146705,
				"z": -0.5878114524,
				"element": "C" 
			},
			{
				"x": 2.3996431289,
				"y": 1.8901437823,
				"z": -0.3246678927,
				"element": "C" 
			},
			{
				"x": -0.895211429,
				"y": -1.0744943727,
				"z": -0.9373356196,
				"element": "N" 
			},
			{
				"x": -2.2218013658,
				"y": -1.6105704034,
				"z": -0.7082081794,
				"element": "C" 
			},
			{
				"x": -2.6900869656,
				"y": -1.9046662298,
				"z": 0.7301080648,
				"element": "C" 
			},
			{
				"x": -3.339828485,
				"y": -0.4573706195,
				"z": 1.6274550631,
				"element": "Cl" 
			},
			{
				"x": 0.210428679,
				"y": -1.9459656875,
				"z": -0.5584648183,
				"element": "C" 
			},
			{
				"x": 1.4032577468,
				"y": -1.8959106802,
				"z": -1.5039652779,
				"element": "C" 
			},
			{
				"x": 1.219210104,
				"y": -1.839994235,
				"z": -2.8917964739,
				"element": "C" 
			},
			{
				"x": 2.3144963962,
				"y": -1.8551189068,
				"z": -3.7545031827,
				"element": "C" 
			},
			{
				"x": 3.6126725503,
				"y": -1.9321036415,
				"z": -3.2426358043,
				"element": "C" 
			},
			{
				"x": 3.8067907637,
				"y": -1.9899570791,
				"z": -1.8623606081,
				"element": "C" 
			},
			{
				"x": 2.7071433908,
				"y": -1.9687751249,
				"z": -1.00035895,
				"element": "C" 
			},
			{
				"x": -2.6495327335,
				"y": 1.1913260033,
				"z": -1.102120633,
				"element": "H" 
			},
			{
				"x": -1.9625666174,
				"y": 0.7193422349,
				"z": -2.675591179,
				"element": "H" 
			},
			{
				"x": -1.4028343697,
				"y": 2.1861796789,
				"z": -1.8488801332,
				"element": "H" 
			},
			{
				"x": 0.2782681436,
				"y": 0.467396226,
				"z": -1.6247842106,
				"element": "H" 
			},
			{
				"x": 0.5174492765,
				"y": 0.4501696804,
				"z": 0.8791260467,
				"element": "H" 
			},
			{
				"x": -1.1656712866,
				"y": 0.981358322,
				"z": 1.0161062916,
				"element": "H" 
			},
			{
				"x": 0.751926315,
				"y": 4.8027040985,
				"z": 0.2575517421,
				"element": "H" 
			},
			{
				"x": 3.0170825881,
				"y": 5.7209518876,
				"z": -0.2174588303,
				"element": "H" 
			},
			{
				"x": 4.8988101565,
				"y": 4.1757760538,
				"z": -0.7604598898,
				"element": "H" 
			},
			{
				"x": 4.4763589209,
				"y": 1.7227900962,
				"z": -0.8306844882,
				"element": "H" 
			},
			{
				"x": 2.2470767405,
				"y": 0.8192969744,
				"z": -0.3790787012,
				"element": "H" 
			},
			{
				"x": -2.9657074889,
				"y": -0.9780230215,
				"z": -1.1967834771,
				"element": "H" 
			},
			{
				"x": -2.2709801408,
				"y": -2.5872362616,
				"z": -1.2156300469,
				"element": "H" 
			},
			{
				"x": -3.515490382,
				"y": -2.6192181133,
				"z": 0.7091489964,
				"element": "H" 
			},
			{
				"x": -1.887940095,
				"y": -2.3118725385,
				"z": 1.3479452593,
				"element": "H" 
			},
			{
				"x": -0.1805387826,
				"y": -2.9728433876,
				"z": -0.5625120062,
				"element": "H" 
			},
			{
				"x": 0.5754158659,
				"y": -1.7781103344,
				"z": 0.4697045298,
				"element": "H" 
			},
			{
				"x": 0.2083836592,
				"y": -1.7718766259,
				"z": -3.2837488346,
				"element": "H" 
			},
			{
				"x": 2.1563106839,
				"y": -1.8069001108,
				"z": -4.828364506,
				"element": "H" 
			},
			{
				"x": 4.4653223497,
				"y": -1.9428008797,
				"z": -3.9154290745,
				"element": "H" 
			},
			{
				"x": 4.8120254755,
				"y": -2.0471352556,
				"z": -1.454215842,
				"element": "H" 
			},
			{
				"x": 2.8639329798,
				"y": -2.0125990511,
				"z": 0.0753624572,
				"element": "H" 
			}
		],
		 "valence_orbital": [ 
			{
				"type": "occ",
				"energy": -0.25374,
				"method": "rhf"
			},
			{
				"type": "occ",
				"energy": -0.24765,
				"method": "rhf"
			},
			{
				"type": "occ",
				"energy": -0.2411,
				"method": "rhf"
			},
			{
				"type": "occ",
				"energy": -0.22094,
				"method": "rhf"
			},
			{
				"type": "occ",
				"energy": -0.20072,
				"method": "rhf"
			},
			{
				"type": "unocc",
				"energy": -0.00867,
				"method": "rhf"
			},
			{
				"type": "unocc",
				"energy": -0.00601,
				"method": "rhf"
			},
			{
				"type": "unocc",
				"energy": 0.00747,
				"method": "rhf"
			},
			{
				"type": "unocc",
				"energy": 0.02138,
				"method": "rhf"
			},
			{
				"type": "unocc",
				"energy": 0.02266,
				"method": "rhf"
			}
		],
		"cosmo_sigma_profile": { 
			"-0.025": 0.0,
			"-0.024": 0.0,
			"-0.023": 0.0,
			"-0.022": 0.0,
			"-0.021": 0.0,
			"-0.02": 0.0,
			"-0.019": 0.0,
			"-0.018": 0.0,
			"-0.017": 0.0,
			"-0.016": 0.0,
			"-0.015": 0.0,
			"-0.014": 0.0,
			"-0.013": 0.0,
			"-0.012": 0.0,
			"-0.011": 0.0,
			"-0.01": 0.0,
			"-0.009": 0.0387231644218,
			"-0.008": 0.225555177106,
			"-0.007": 2.35502749529,
			"-0.006": 12.882545222,
			"-0.005": 30.6833288499,
			"-0.004": 33.2148723124,
			"-0.003": 34.7827064137,
			"-0.002": 29.0676116016,
			"-0.001": 31.2057279041,
			"0.0": 30.2355507827,
			"0.001": 29.1422670827,
			"0.002": 24.4998655843,
			"0.003": 21.5069715435,
			"0.004": 21.979156146,
			"0.005": 22.2301216417,
			"0.006": 23.4287349868,
			"0.007": 8.44627822612,
			"0.008": 0.967899803356,
			"0.009": 1.48427022114,
			"0.01": 0.991636578945,
			"0.011": 0.502775508247,
			"0.012": 0.0,
			"0.013": 0.0,
			"0.014": 0.0,
			"0.015": 0.0,
			"0.016": 0.0,
			"0.017": 0.0,
			"0.018": 0.0,
			"0.019": 0.0,
			"0.02": 0.0,
			"0.021": 0.0,
			"0.022": 0.0,
			"0.023": 0.0,
			"0.024": 0.0,
			"0.025": 0.0
		}
	}
}
