{
	 "smiles": "CCNC1=NC(NC(C)C)=NC(SC)=N1", 
	 "Tm": 361.15, 
	 "num_atms": 32, 
	 "gaussian": { 
		 "optdone": 1, 
		 "sigma_profile": "yes", 
		 "theory": "DFT", 
		 "functional": "B3LYP", 
		 "basiset": "6-31G**", 
		 "properties": { 
			 "R2extent": 5034.875, 
			 "electric_dipole_moment_norm": 3.05913124269, 
			 "electric_quadrupole_moment_norm": 13.2015755147, 
			 "total_energy": -1025.20545701, 
			 "HOMO_LUMO_gap": 0.21824, 
			 "cosmo_polarized_energy": -11.89, 
			 "cosmo_cavitation_energy": 36.26, 
			 "cosmo_dispersion_energy": -25.69, 
			 "cosmo_repulsion_energy": 2.03, 
			 "cosmo_total_nonelectrostatic_energy": 12.61, 
			 "SMD_solvation_energy": 2.98 
		},
		"coords": [
			{
				"x": 1.3298098023,
				"y": -4.1117689302,
				"z": -1.5952717712,
				"element": "C" 
			},
			{
				"x": 1.0951896809,
				"y": -3.7821343741,
				"z": -0.1167990048,
				"element": "C" 
			},
			{
				"x": 1.948049893,
				"y": -2.7159924409,
				"z": 0.3841874418,
				"element": "N" 
			},
			{
				"x": 1.6590797508,
				"y": -1.3910110921,
				"z": 0.3279869321,
				"element": "C" 
			},
			{
				"x": 0.4432047089,
				"y": -1.014372015,
				"z": -0.0970532344,
				"element": "N" 
			},
			{
				"x": 0.2461830872,
				"y": 0.3176820163,
				"z": -0.0899068662,
				"element": "C" 
			},
			{
				"x": -0.9464109337,
				"y": 0.8201363904,
				"z": -0.4927980139,
				"element": "N" 
			},
			{
				"x": -2.1455397968,
				"y": 0.0923746623,
				"z": -0.9282311276,
				"element": "C" 
			},
			{
				"x": -2.7388202601,
				"y": -0.7752060115,
				"z": 0.1920641851,
				"element": "C" 
			},
			{
				"x": -1.9085058558,
				"y": -0.7011427815,
				"z": -2.2216215145,
				"element": "C" 
			},
			{
				"x": 1.1573523565,
				"y": 1.243534323,
				"z": 0.2892182084,
				"element": "N" 
			},
			{
				"x": 2.3211906506,
				"y": 0.7267485792,
				"z": 0.6805459908,
				"element": "C" 
			},
			{
				"x": 3.5146684805,
				"y": 1.9452746727,
				"z": 1.1734954214,
				"element": "S" 
			},
			{
				"x": 4.9369488964,
				"y": 0.8998984658,
				"z": 1.6342299421,
				"element": "C" 
			},
			{
				"x": 2.6524461309,
				"y": -0.562272021,
				"z": 0.7316606798,
				"element": "N" 
			},
			{
				"x": 0.6697222363,
				"y": -4.9249256143,
				"z": -1.9162006391,
				"element": "H" 
			},
			{
				"x": 1.1269297475,
				"y": -3.2367783728,
				"z": -2.2193027488,
				"element": "H" 
			},
			{
				"x": 2.3640999129,
				"y": -4.425578346,
				"z": -1.7724542896,
				"element": "H" 
			},
			{
				"x": 0.059556123,
				"y": -3.4742686279,
				"z": 0.0399496657,
				"element": "H" 
			},
			{
				"x": 1.272217558,
				"y": -4.6688446824,
				"z": 0.5023303748,
				"element": "H" 
			},
			{
				"x": 2.9042600368,
				"y": -2.9202797983,
				"z": 0.634734713,
				"element": "H" 
			},
			{
				"x": -0.9873671456,
				"y": 1.82686914,
				"z": -0.438643879,
				"element": "H" 
			},
			{
				"x": -2.8684367968,
				"y": 0.8855900945,
				"z": -1.1534024937,
				"element": "H" 
			},
			{
				"x": -2.045527396,
				"y": -1.572585108,
				"z": 0.4673380424,
				"element": "H" 
			},
			{
				"x": -2.9437239251,
				"y": -0.1717824898,
				"z": 1.081662486,
				"element": "H" 
			},
			{
				"x": -3.6792505221,
				"y": -1.2275330887,
				"z": -0.1401376869,
				"element": "H" 
			},
			{
				"x": -1.5243596824,
				"y": -0.0478668099,
				"z": -3.0109639895,
				"element": "H" 
			},
			{
				"x": -1.1864910483,
				"y": -1.5022693095,
				"z": -2.0523905283,
				"element": "H" 
			},
			{
				"x": -2.8487775328,
				"y": -1.1428270053,
				"z": -2.5683175007,
				"element": "H" 
			},
			{
				"x": 4.6741496529,
				"y": 0.2261303132,
				"z": 2.4501110448,
				"element": "H" 
			},
			{
				"x": 5.283463427,
				"y": 0.3178679552,
				"z": 0.7798665383,
				"element": "H" 
			},
			{
				"x": 5.7201887632,
				"y": 1.5893323067,
				"z": 1.9576136216,
				"element": "H" 
			}
		],
		 "valence_orbital": [ 
			{
				"type": "occ",
				"energy": -0.2558,
				"method": "rhf"
			},
			{
				"type": "occ",
				"energy": -0.24993,
				"method": "rhf"
			},
			{
				"type": "occ",
				"energy": -0.23704,
				"method": "rhf"
			},
			{
				"type": "occ",
				"energy": -0.22632,
				"method": "rhf"
			},
			{
				"type": "occ",
				"energy": -0.22046,
				"method": "rhf"
			},
			{
				"type": "unocc",
				"energy": -0.00222,
				"method": "rhf"
			},
			{
				"type": "unocc",
				"energy": 0.01309,
				"method": "rhf"
			},
			{
				"type": "unocc",
				"energy": 0.04966,
				"method": "rhf"
			},
			{
				"type": "unocc",
				"energy": 0.07787,
				"method": "rhf"
			},
			{
				"type": "unocc",
				"energy": 0.08589,
				"method": "rhf"
			}
		],
		"cosmo_sigma_profile": { 
			"-0.025": 0.0,
			"-0.024": 0.0,
			"-0.023": 0.0,
			"-0.022": 0.0,
			"-0.021": 0.0,
			"-0.02": 0.0,
			"-0.019": 0.0,
			"-0.018": 0.0,
			"-0.017": 0.0,
			"-0.016": 0.0,
			"-0.015": 0.0,
			"-0.014": 0.342569271621,
			"-0.013": 1.62846160199,
			"-0.012": 2.13453803865,
			"-0.011": 2.04825483198,
			"-0.01": 1.73643809473,
			"-0.009": 1.83913400375,
			"-0.008": 2.14864497862,
			"-0.007": 3.14120193045,
			"-0.006": 5.49842132572,
			"-0.005": 10.5535513873,
			"-0.004": 14.6003066691,
			"-0.003": 26.9875105175,
			"-0.002": 31.0964103396,
			"-0.001": 30.8899340624,
			"0.0": 28.8073535829,
			"0.001": 33.6237351717,
			"0.002": 19.9535612438,
			"0.003": 14.9164174726,
			"0.004": 12.7908486195,
			"0.005": 12.0337697086,
			"0.006": 7.92892445398,
			"0.007": 7.30921361852,
			"0.008": 5.91647965841,
			"0.009": 3.23876070788,
			"0.01": 1.59973496434,
			"0.011": 0.842857196904,
			"0.012": 1.23652767595,
			"0.013": 0.990406891847,
			"0.014": 0.491237694722,
			"0.015": 0.0,
			"0.016": 0.0,
			"0.017": 0.0,
			"0.018": 0.0,
			"0.019": 0.0,
			"0.02": 0.0,
			"0.021": 0.0,
			"0.022": 0.0,
			"0.023": 0.0,
			"0.024": 0.0,
			"0.025": 0.0
		}
	}
}
