{
	 "smiles": "CN1C(=O)CCC2=C1C=CC(N)=C2", 
	 "Tm": 375.15, 
	 "num_atms": 25, 
	 "gaussian": { 
		 "optdone": 1, 
		 "sigma_profile": "yes", 
		 "theory": "DFT", 
		 "functional": "B3LYP", 
		 "basiset": "6-31G**", 
		 "properties": { 
			 "R2extent": 2806.6423, 
			 "electric_dipole_moment_norm": 4.33891806214, 
			 "electric_quadrupole_moment_norm": 15.8094024311, 
			 "total_energy": -573.052474743, 
			 "HOMO_LUMO_gap": 0.18316, 
			 "cosmo_polarized_energy": -13.64, 
			 "cosmo_cavitation_energy": 27.22, 
			 "cosmo_dispersion_energy": -20.42, 
			 "cosmo_repulsion_energy": 1.6, 
			 "cosmo_total_nonelectrostatic_energy": 8.41, 
			 "SMD_solvation_energy": 4.75 
		},
		"coords": [
			{
				"x": -2.2252408735,
				"y": 0.9898649571,
				"z": 1.9423995836,
				"element": "C" 
			},
			{
				"x": -1.5149825066,
				"y": 1.4039820608,
				"z": 0.7371142495,
				"element": "N" 
			},
			{
				"x": -1.7790868636,
				"y": 2.6701655014,
				"z": 0.2359156423,
				"element": "C" 
			},
			{
				"x": -2.6025398109,
				"y": 3.4185824594,
				"z": 0.7480789531,
				"element": "O" 
			},
			{
				"x": -0.9623005264,
				"y": 3.0764719355,
				"z": -0.9817862937,
				"element": "C" 
			},
			{
				"x": -0.6962285837,
				"y": 1.8958099289,
				"z": -1.9190710993,
				"element": "C" 
			},
			{
				"x": -0.0794844789,
				"y": 0.7602429563,
				"z": -1.1410723716,
				"element": "C" 
			},
			{
				"x": -0.5203151994,
				"y": 0.5522372606,
				"z": 0.1809554695,
				"element": "C" 
			},
			{
				"x": 0.0219598366,
				"y": -0.5114501505,
				"z": 0.9118766282,
				"element": "C" 
			},
			{
				"x": 0.9817617066,
				"y": -1.35094669,
				"z": 0.34913159,
				"element": "C" 
			},
			{
				"x": 1.4352705414,
				"y": -1.1480223748,
				"z": -0.9609950353,
				"element": "C" 
			},
			{
				"x": 2.3584948271,
				"y": -2.0190946131,
				"z": -1.5524821182,
				"element": "N" 
			},
			{
				"x": 0.8886310373,
				"y": -0.0768143484,
				"z": -1.6872555139,
				"element": "C" 
			},
			{
				"x": -1.5732687826,
				"y": 1.016939866,
				"z": 2.8240964721,
				"element": "H" 
			},
			{
				"x": -2.6114201226,
				"y": -0.0263251558,
				"z": 1.819975216,
				"element": "H" 
			},
			{
				"x": -3.0460521667,
				"y": 1.6882967859,
				"z": 2.0943456025,
				"element": "H" 
			},
			{
				"x": -0.0092553588,
				"y": 3.4870881564,
				"z": -0.6207261772,
				"element": "H" 
			},
			{
				"x": -1.5037573107,
				"y": 3.8879429462,
				"z": -1.4717668138,
				"element": "H" 
			},
			{
				"x": -1.6467585411,
				"y": 1.5654402238,
				"z": -2.3631691286,
				"element": "H" 
			},
			{
				"x": -0.0495772813,
				"y": 2.195252013,
				"z": -2.7499502008,
				"element": "H" 
			},
			{
				"x": -0.2926112797,
				"y": -0.6919446237,
				"z": 1.9330861388,
				"element": "H" 
			},
			{
				"x": 1.3832951194,
				"y": -2.1718992128,
				"z": 0.9377546627,
				"element": "H" 
			},
			{
				"x": 2.8937140458,
				"y": -1.6154223833,
				"z": -2.3095019622,
				"element": "H" 
			},
			{
				"x": 2.9580581762,
				"y": -2.5042129649,
				"z": -0.8984258119,
				"element": "H" 
			},
			{
				"x": 1.2196943961,
				"y": 0.1002154659,
				"z": -2.7087276818,
				"element": "H" 
			}
		],
		 "valence_orbital": [ 
			{
				"type": "occ",
				"energy": -0.31691,
				"method": "rhf"
			},
			{
				"type": "occ",
				"energy": -0.25935,
				"method": "rhf"
			},
			{
				"type": "occ",
				"energy": -0.24549,
				"method": "rhf"
			},
			{
				"type": "occ",
				"energy": -0.2429,
				"method": "rhf"
			},
			{
				"type": "occ",
				"energy": -0.18653,
				"method": "rhf"
			},
			{
				"type": "unocc",
				"energy": -0.00337,
				"method": "rhf"
			},
			{
				"type": "unocc",
				"energy": 0.00487,
				"method": "rhf"
			},
			{
				"type": "unocc",
				"energy": 0.04443,
				"method": "rhf"
			},
			{
				"type": "unocc",
				"energy": 0.07892,
				"method": "rhf"
			},
			{
				"type": "unocc",
				"energy": 0.10169,
				"method": "rhf"
			}
		],
		"cosmo_sigma_profile": { 
			"-0.025": 0.0,
			"-0.024": 0.0,
			"-0.023": 0.0,
			"-0.022": 0.0,
			"-0.021": 0.0,
			"-0.02": 0.0,
			"-0.019": 0.0,
			"-0.018": 0.0,
			"-0.017": 0.0,
			"-0.016": 0.0,
			"-0.015": 0.0,
			"-0.014": 0.0,
			"-0.013": 0.0275913755239,
			"-0.012": 1.88474347592,
			"-0.011": 2.83679700536,
			"-0.01": 2.68341966434,
			"-0.009": 3.21845366052,
			"-0.008": 2.86975930191,
			"-0.007": 3.45468700115,
			"-0.006": 6.64513675087,
			"-0.005": 17.4958741403,
			"-0.004": 22.4969221679,
			"-0.003": 20.3943003269,
			"-0.002": 21.4999886182,
			"-0.001": 17.3398618093,
			"0.0": 11.0693596315,
			"0.001": 9.27778500239,
			"0.002": 8.36911223762,
			"0.003": 6.9778319343,
			"0.004": 7.73162631319,
			"0.005": 9.3713239918,
			"0.006": 11.296410094,
			"0.007": 4.96242013152,
			"0.008": 3.11022828955,
			"0.009": 2.19142284429,
			"0.01": 1.89415246579,
			"0.011": 1.98133651633,
			"0.012": 2.43566984862,
			"0.013": 5.1642897027,
			"0.014": 4.29489546152,
			"0.015": 1.51837528751,
			"0.016": 0.0666322791688,
			"0.017": 0.0,
			"0.018": 0.0,
			"0.019": 0.0,
			"0.02": 0.0,
			"0.021": 0.0,
			"0.022": 0.0,
			"0.023": 0.0,
			"0.024": 0.0,
			"0.025": 0.0
		}
	}
}
