{
	 "smiles": "CC1=CC=C(C=C1)C1=CC=C(S1)C=O", 
	 "Tm": 361.15, 
	 "num_atms": 24, 
	 "gaussian": { 
		 "optdone": 1, 
		 "sigma_profile": "yes", 
		 "theory": "DFT", 
		 "functional": "B3LYP", 
		 "basiset": "6-31G**", 
		 "properties": { 
			 "R2extent": 4651.4974, 
			 "electric_dipole_moment_norm": 4.90179126137, 
			 "electric_quadrupole_moment_norm": 16.7393582565, 
			 "total_energy": -936.706897482, 
			 "HOMO_LUMO_gap": 0.14813, 
			 "cosmo_polarized_energy": -9.12, 
			 "cosmo_cavitation_energy": 30.17, 
			 "cosmo_dispersion_energy": -22.33, 
			 "cosmo_repulsion_energy": 1.69, 
			 "cosmo_total_nonelectrostatic_energy": 9.54, 
			 "SMD_solvation_energy": 5.84 
		},
		"coords": [
			{
				"x": -4.4792411613,
				"y": 0.8959401317,
				"z": -2.0357718564,
				"element": "C" 
			},
			{
				"x": -3.0645191715,
				"y": 0.6927284609,
				"z": -1.550313239,
				"element": "C" 
			},
			{
				"x": -2.7857908543,
				"y": 0.5030896945,
				"z": -0.1894603404,
				"element": "C" 
			},
			{
				"x": -1.4807317373,
				"y": 0.3491147113,
				"z": 0.2671429781,
				"element": "C" 
			},
			{
				"x": -0.3960001022,
				"y": 0.3668492185,
				"z": -0.6286707761,
				"element": "C" 
			},
			{
				"x": -0.6748377848,
				"y": 0.5524642593,
				"z": -1.9942501674,
				"element": "C" 
			},
			{
				"x": -1.9827447065,
				"y": 0.7136728561,
				"z": -2.4411697394,
				"element": "C" 
			},
			{
				"x": 0.9741295748,
				"y": 0.1866636382,
				"z": -0.1370061843,
				"element": "C" 
			},
			{
				"x": 1.3913483499,
				"y": -0.4767238945,
				"z": 1.0060220685,
				"element": "C" 
			},
			{
				"x": 2.7906001876,
				"y": -0.4643523023,
				"z": 1.1896952032,
				"element": "C" 
			},
			{
				"x": 3.464064128,
				"y": 0.2092161723,
				"z": 0.1905784912,
				"element": "C" 
			},
			{
				"x": 2.3447554152,
				"y": 0.8469150869,
				"z": -0.9922115946,
				"element": "S" 
			},
			{
				"x": 4.907186146,
				"y": 0.4042070575,
				"z": 0.0726722394,
				"element": "C" 
			},
			{
				"x": 5.7132814577,
				"y": -0.0189367331,
				"z": 0.8847300306,
				"element": "O" 
			},
			{
				"x": -5.2004193279,
				"y": 0.3758460457,
				"z": -1.3982684225,
				"element": "H" 
			},
			{
				"x": -4.6070281283,
				"y": 0.5331733314,
				"z": -3.0599974436,
				"element": "H" 
			},
			{
				"x": -4.7493103363,
				"y": 1.9595994092,
				"z": -2.0316394329,
				"element": "H" 
			},
			{
				"x": -3.6042101359,
				"y": 0.4852771147,
				"z": 0.5259594976,
				"element": "H" 
			},
			{
				"x": -1.2966458182,
				"y": 0.2330064485,
				"z": 1.3306500259,
				"element": "H" 
			},
			{
				"x": 0.1375626444,
				"y": 0.5452685866,
				"z": -2.7154160147,
				"element": "H" 
			},
			{
				"x": -2.1680698454,
				"y": 0.8474901024,
				"z": -3.503946588,
				"element": "H" 
			},
			{
				"x": 0.7017313181,
				"y": -0.9828363292,
				"z": 1.671461768,
				"element": "H" 
			},
			{
				"x": 3.3152010067,
				"y": -0.9356289503,
				"z": 2.012355254,
				"element": "H" 
			},
			{
				"x": 5.2400888816,
				"y": 0.9748558837,
				"z": -0.8213457572,
				"element": "H" 
			}
		],
		 "valence_orbital": [ 
			{
				"type": "occ",
				"energy": -0.27768,
				"method": "rhf"
			},
			{
				"type": "occ",
				"energy": -0.26694,
				"method": "rhf"
			},
			{
				"type": "occ",
				"energy": -0.26181,
				"method": "rhf"
			},
			{
				"type": "occ",
				"energy": -0.25288,
				"method": "rhf"
			},
			{
				"type": "occ",
				"energy": -0.22197,
				"method": "rhf"
			},
			{
				"type": "unocc",
				"energy": -0.07384,
				"method": "rhf"
			},
			{
				"type": "unocc",
				"energy": -0.0176,
				"method": "rhf"
			},
			{
				"type": "unocc",
				"energy": -0.01462,
				"method": "rhf"
			},
			{
				"type": "unocc",
				"energy": 0.01792,
				"method": "rhf"
			},
			{
				"type": "unocc",
				"energy": 0.03688,
				"method": "rhf"
			}
		],
		"cosmo_sigma_profile": { 
			"-0.025": 0.0,
			"-0.024": 0.0,
			"-0.023": 0.0,
			"-0.022": 0.0,
			"-0.021": 0.0,
			"-0.02": 0.0,
			"-0.019": 0.0,
			"-0.018": 0.0,
			"-0.017": 0.0,
			"-0.016": 0.0,
			"-0.015": 0.0,
			"-0.014": 0.0,
			"-0.013": 0.0,
			"-0.012": 0.0,
			"-0.011": 0.0,
			"-0.01": 0.0,
			"-0.009": 0.0,
			"-0.008": 1.7241662431,
			"-0.007": 8.92103613383,
			"-0.006": 11.2614786155,
			"-0.005": 16.1590410081,
			"-0.004": 22.2088358383,
			"-0.003": 17.6995104576,
			"-0.002": 16.5651098151,
			"-0.001": 20.5762867559,
			"0.0": 21.5921557713,
			"0.001": 21.7037206922,
			"0.002": 25.1895881149,
			"0.003": 19.7954432223,
			"0.004": 11.8381178619,
			"0.005": 10.0543036453,
			"0.006": 1.38329711107,
			"0.007": 1.87368505605,
			"0.008": 1.78137694546,
			"0.009": 1.6115756992,
			"0.01": 2.13744535035,
			"0.011": 3.99595821713,
			"0.012": 4.21597830102,
			"0.013": 1.49194907685,
			"0.014": 0.100532775497,
			"0.015": 0.0,
			"0.016": 0.0,
			"0.017": 0.0,
			"0.018": 0.0,
			"0.019": 0.0,
			"0.02": 0.0,
			"0.021": 0.0,
			"0.022": 0.0,
			"0.023": 0.0,
			"0.024": 0.0,
			"0.025": 0.0
		}
	}
}
