{
	 "smiles": "CCC1CSC(NC2=CC(Cl)=C(Cl)C=C2)=N1", 
	 "Tm": 381.15, 
	 "num_atms": 28, 
	 "gaussian": { 
		 "optdone": 1, 
		 "sigma_profile": "yes", 
		 "theory": "DFT", 
		 "functional": "B3LYP", 
		 "basiset": "6-31G**", 
		 "properties": { 
			 "R2extent": 9236.0956, 
			 "electric_dipole_moment_norm": 3.50559421924, 
			 "electric_quadrupole_moment_norm": 11.2910655108, 
			 "total_energy": -1854.48119091, 
			 "HOMO_LUMO_gap": 0.18881, 
			 "cosmo_polarized_energy": -9.67, 
			 "cosmo_cavitation_energy": 36.01, 
			 "cosmo_dispersion_energy": -27.07, 
			 "cosmo_repulsion_energy": 2.09, 
			 "cosmo_total_nonelectrostatic_energy": 11.03, 
			 "SMD_solvation_energy": 2.65 
		},
		"coords": [
			{
				"x": -3.5229505542,
				"y": 1.6240643074,
				"z": -0.8412490695,
				"element": "C" 
			},
			{
				"x": -2.6392626877,
				"y": 1.6909989833,
				"z": -2.0904841945,
				"element": "C" 
			},
			{
				"x": -1.1722397535,
				"y": 1.2810828507,
				"z": -1.8678419698,
				"element": "C" 
			},
			{
				"x": -0.3820233599,
				"y": 2.2717865819,
				"z": -0.9683732737,
				"element": "C" 
			},
			{
				"x": 0.9268115652,
				"y": 1.265653995,
				"z": -0.1653563034,
				"element": "S" 
			},
			{
				"x": -0.0708173473,
				"y": -0.2011308202,
				"z": -0.526175173,
				"element": "C" 
			},
			{
				"x": 0.2925125792,
				"y": -1.4446180198,
				"z": -0.0581913379,
				"element": "N" 
			},
			{
				"x": 1.1896846897,
				"y": -1.83664743,
				"z": 0.945043121,
				"element": "C" 
			},
			{
				"x": 1.7377601586,
				"y": -3.1252387193,
				"z": 0.8538252636,
				"element": "C" 
			},
			{
				"x": 2.6068875966,
				"y": -3.6026677674,
				"z": 1.831495866,
				"element": "C" 
			},
			{
				"x": 3.2440712238,
				"y": -5.2198487141,
				"z": 1.6561701244,
				"element": "Cl" 
			},
			{
				"x": 2.9638824726,
				"y": -2.7895960976,
				"z": 2.9153207283,
				"element": "C" 
			},
			{
				"x": 4.0602560444,
				"y": -3.3385316281,
				"z": 4.1588495915,
				"element": "Cl" 
			},
			{
				"x": 2.4180033183,
				"y": -1.5081209836,
				"z": 3.0032837202,
				"element": "C" 
			},
			{
				"x": 1.5290874022,
				"y": -1.0329524914,
				"z": 2.0445375812,
				"element": "C" 
			},
			{
				"x": -1.0723455738,
				"y": -0.0627168772,
				"z": -1.3070664318,
				"element": "N" 
			},
			{
				"x": -3.2077779579,
				"y": 2.3334289786,
				"z": -0.0682911567,
				"element": "H" 
			},
			{
				"x": -3.4946252214,
				"y": 0.6205359606,
				"z": -0.4075274173,
				"element": "H" 
			},
			{
				"x": -4.5618124619,
				"y": 1.8595922724,
				"z": -1.0925323279,
				"element": "H" 
			},
			{
				"x": -3.0506672498,
				"y": 1.0228524466,
				"z": -2.8557395098,
				"element": "H" 
			},
			{
				"x": -2.6571584338,
				"y": 2.701655459,
				"z": -2.5189288023,
				"element": "H" 
			},
			{
				"x": -0.6808729387,
				"y": 1.2621025077,
				"z": -2.8536221454,
				"element": "H" 
			},
			{
				"x": 0.0835298722,
				"y": 3.0713469943,
				"z": -1.5473241312,
				"element": "H" 
			},
			{
				"x": -1.0084981029,
				"y": 2.7146733248,
				"z": -0.1902229015,
				"element": "H" 
			},
			{
				"x": -0.186833818,
				"y": -2.1857944783,
				"z": -0.5520242972,
				"element": "H" 
			},
			{
				"x": 1.4952589555,
				"y": -3.7623368323,
				"z": 0.0098685655,
				"element": "H" 
			},
			{
				"x": 2.6807572929,
				"y": -0.8841039833,
				"z": 3.8503181932,
				"element": "H" 
			},
			{
				"x": 1.0947822896,
				"y": -0.0486698195,
				"z": 2.1614376882,
				"element": "H" 
			}
		],
		 "valence_orbital": [ 
			{
				"type": "occ",
				"energy": -0.28667,
				"method": "rhf"
			},
			{
				"type": "occ",
				"energy": -0.27001,
				"method": "rhf"
			},
			{
				"type": "occ",
				"energy": -0.26253,
				"method": "rhf"
			},
			{
				"type": "occ",
				"energy": -0.23844,
				"method": "rhf"
			},
			{
				"type": "occ",
				"energy": -0.21843,
				"method": "rhf"
			},
			{
				"type": "unocc",
				"energy": -0.02962,
				"method": "rhf"
			},
			{
				"type": "unocc",
				"energy": -0.02747,
				"method": "rhf"
			},
			{
				"type": "unocc",
				"energy": 0.00144,
				"method": "rhf"
			},
			{
				"type": "unocc",
				"energy": 0.0092,
				"method": "rhf"
			},
			{
				"type": "unocc",
				"energy": 0.02974,
				"method": "rhf"
			}
		],
		"cosmo_sigma_profile": { 
			"-0.025": 0.0,
			"-0.024": 0.0,
			"-0.023": 0.0,
			"-0.022": 0.0,
			"-0.021": 0.0,
			"-0.02": 0.0,
			"-0.019": 0.0,
			"-0.018": 0.0,
			"-0.017": 0.0,
			"-0.016": 0.0353516316356,
			"-0.015": 0.868045920236,
			"-0.014": 1.38548278351,
			"-0.013": 0.893680941894,
			"-0.012": 1.55200101749,
			"-0.011": 1.13190470241,
			"-0.01": 1.10822620163,
			"-0.009": 1.42288672401,
			"-0.008": 3.08991451148,
			"-0.007": 3.8401410893,
			"-0.006": 7.74987432385,
			"-0.005": 10.0975872319,
			"-0.004": 15.4318498319,
			"-0.003": 22.7051730029,
			"-0.002": 24.0296068944,
			"-0.001": 22.623354432,
			"0.0": 31.106962541,
			"0.001": 39.0798889384,
			"0.002": 33.5837276249,
			"0.003": 23.1740823709,
			"0.004": 21.5191368812,
			"0.005": 10.8310524289,
			"0.006": 4.29540841993,
			"0.007": 3.0931842798,
			"0.008": 1.93738684381,
			"0.009": 1.32171479836,
			"0.01": 1.1231103357,
			"0.011": 0.386910264326,
			"0.012": 0.540800655303,
			"0.013": 1.0759691576,
			"0.014": 0.520026738225,
			"0.015": 0.758172090221,
			"0.016": 0.0544525217745,
			"0.017": 0.0,
			"0.018": 0.0,
			"0.019": 0.0,
			"0.02": 0.0,
			"0.021": 0.0,
			"0.022": 0.0,
			"0.023": 0.0,
			"0.024": 0.0,
			"0.025": 0.0
		}
	}
}
