{
	 "smiles": "OC(=O)C1CCCN(C1)C(=O)C1=CC=CC=C1", 
	 "Tm": 463.15, 
	 "num_atms": 32, 
	 "gaussian": { 
		 "optdone": 1, 
		 "sigma_profile": "yes", 
		 "theory": "DFT", 
		 "functional": "B3LYP", 
		 "basiset": "6-31G**", 
		 "properties": { 
			 "R2extent": 4946.2965, 
			 "electric_dipole_moment_norm": 2.48970040165, 
			 "electric_quadrupole_moment_norm": 31.1263238514, 
			 "total_energy": -784.866086152, 
			 "HOMO_LUMO_gap": 0.20758, 
			 "cosmo_polarized_energy": -21.6, 
			 "cosmo_cavitation_energy": 34.46, 
			 "cosmo_dispersion_energy": -24.46, 
			 "cosmo_repulsion_energy": 1.9, 
			 "cosmo_total_nonelectrostatic_energy": 11.91, 
			 "SMD_solvation_energy": 6.16 
		},
		"coords": [
			{
				"x": -4.6405967186,
				"y": -0.9202977874,
				"z": 0.3876875781,
				"element": "O" 
			},
			{
				"x": -3.6357311677,
				"y": -0.0784553931,
				"z": 0.023356134,
				"element": "C" 
			},
			{
				"x": -3.8400289047,
				"y": 0.7846186621,
				"z": -0.7937769209,
				"element": "O" 
			},
			{
				"x": -2.2972434323,
				"y": -0.3151005182,
				"z": 0.7155206651,
				"element": "C" 
			},
			{
				"x": -2.4313060163,
				"y": -0.3037602453,
				"z": 2.2691668024,
				"element": "C" 
			},
			{
				"x": -1.1530023591,
				"y": 0.2527210107,
				"z": 2.9297148838,
				"element": "C" 
			},
			{
				"x": 0.1072959789,
				"y": -0.1464985375,
				"z": 2.1653755479,
				"element": "C" 
			},
			{
				"x": 0.0618210287,
				"y": 0.3862853217,
				"z": 0.7925166803,
				"element": "N" 
			},
			{
				"x": -1.2568117844,
				"y": 0.7090029771,
				"z": 0.2365058335,
				"element": "C" 
			},
			{
				"x": 1.2131042125,
				"y": 0.216882011,
				"z": 0.0538850036,
				"element": "C" 
			},
			{
				"x": 2.1711353781,
				"y": -0.3962240928,
				"z": 0.5247702127,
				"element": "O" 
			},
			{
				"x": 1.3057748707,
				"y": 0.8223755132,
				"z": -1.3202691149,
				"element": "C" 
			},
			{
				"x": 0.8173396874,
				"y": 2.0985079603,
				"z": -1.6343078996,
				"element": "C" 
			},
			{
				"x": 1.0193894909,
				"y": 2.6372964164,
				"z": -2.9057646678,
				"element": "C" 
			},
			{
				"x": 1.7033947653,
				"y": 1.903688566,
				"z": -3.8762469488,
				"element": "C" 
			},
			{
				"x": 2.2041606864,
				"y": 0.6362947276,
				"z": -3.5660321182,
				"element": "C" 
			},
			{
				"x": 2.0189921957,
				"y": 0.105432022,
				"z": -2.2917668423,
				"element": "C" 
			},
			{
				"x": -4.3255828106,
				"y": -1.5579216832,
				"z": 1.0441473656,
				"element": "H" 
			},
			{
				"x": -1.9456250295,
				"y": -1.3088350316,
				"z": 0.402965253,
				"element": "H" 
			},
			{
				"x": -2.6183418671,
				"y": -1.3224828232,
				"z": 2.6317935756,
				"element": "H" 
			},
			{
				"x": -3.2913382068,
				"y": 0.3022798684,
				"z": 2.5746836976,
				"element": "H" 
			},
			{
				"x": -1.2086153278,
				"y": 1.3460334519,
				"z": 2.9817196656,
				"element": "H" 
			},
			{
				"x": -1.0777997523,
				"y": -0.1033069727,
				"z": 3.9619674586,
				"element": "H" 
			},
			{
				"x": 0.2190356676,
				"y": -1.2401813421,
				"z": 2.1421390549,
				"element": "H" 
			},
			{
				"x": 1.0064310517,
				"y": 0.23825881,
				"z": 2.653159849,
				"element": "H" 
			},
			{
				"x": -1.2083629498,
				"y": 0.6971557601,
				"z": -0.8503242443,
				"element": "H" 
			},
			{
				"x": -1.5821332244,
				"y": 1.7163871649,
				"z": 0.526640553,
				"element": "H" 
			},
			{
				"x": 0.2994137361,
				"y": 2.6831454692,
				"z": -0.8804241938,
				"element": "H" 
			},
			{
				"x": 0.6449468126,
				"y": 3.6304911873,
				"z": -3.1357875479,
				"element": "H" 
			},
			{
				"x": 1.853335042,
				"y": 2.3209785044,
				"z": -4.8678816691,
				"element": "H" 
			},
			{
				"x": 2.746422234,
				"y": 0.0669390266,
				"z": -4.3154258512,
				"element": "H" 
			},
			{
				"x": 2.4302267129,
				"y": -0.8624100038,
				"z": -2.0247077953,
				"element": "H" 
			}
		],
		 "valence_orbital": [ 
			{
				"type": "occ",
				"energy": -0.27914,
				"method": "rhf"
			},
			{
				"type": "occ",
				"energy": -0.2616,
				"method": "rhf"
			},
			{
				"type": "occ",
				"energy": -0.25483,
				"method": "rhf"
			},
			{
				"type": "occ",
				"energy": -0.24288,
				"method": "rhf"
			},
			{
				"type": "occ",
				"energy": -0.2361,
				"method": "rhf"
			},
			{
				"type": "unocc",
				"energy": -0.02852,
				"method": "rhf"
			},
			{
				"type": "unocc",
				"energy": -0.00511,
				"method": "rhf"
			},
			{
				"type": "unocc",
				"energy": 0.00063,
				"method": "rhf"
			},
			{
				"type": "unocc",
				"energy": 0.04007,
				"method": "rhf"
			},
			{
				"type": "unocc",
				"energy": 0.05222,
				"method": "rhf"
			}
		],
		"cosmo_sigma_profile": { 
			"-0.025": 0.0,
			"-0.024": 0.0,
			"-0.023": 0.0,
			"-0.022": 0.0,
			"-0.021": 0.0,
			"-0.02": 0.0,
			"-0.019": 0.0,
			"-0.018": 0.600387472364,
			"-0.017": 1.00012848989,
			"-0.016": 1.18763967457,
			"-0.015": 1.14952765729,
			"-0.014": 0.988982905522,
			"-0.013": 1.44373054114,
			"-0.012": 1.0068960864,
			"-0.011": 0.834689359724,
			"-0.01": 1.13861019539,
			"-0.009": 1.28297258988,
			"-0.008": 2.06732819246,
			"-0.007": 4.43228869831,
			"-0.006": 14.2878819636,
			"-0.005": 25.0301288877,
			"-0.004": 29.9591672118,
			"-0.003": 26.6252159145,
			"-0.002": 21.9011891469,
			"-0.001": 18.5056889605,
			"0.0": 12.6529667598,
			"0.001": 11.6936402282,
			"0.002": 11.2289910377,
			"0.003": 11.4135692195,
			"0.004": 12.8469356329,
			"0.005": 10.8985046823,
			"0.006": 4.15711070963,
			"0.007": 4.41251378027,
			"0.008": 4.5115950541,
			"0.009": 4.67901712184,
			"0.01": 6.3193588593,
			"0.011": 7.04794265051,
			"0.012": 6.08585030891,
			"0.013": 3.76010823117,
			"0.014": 5.05006550349,
			"0.015": 1.23612094355,
			"0.016": 0.0,
			"0.017": 0.0,
			"0.018": 0.0,
			"0.019": 0.0,
			"0.02": 0.0,
			"0.021": 0.0,
			"0.022": 0.0,
			"0.023": 0.0,
			"0.024": 0.0,
			"0.025": 0.0
		}
	}
}
