{
	 "smiles": "CCOC1=C(O)C(Br)=CC(=C1)C(N)=NO", 
	 "Tm": 431.15, 
	 "num_atms": 26, 
	 "gaussian": { 
		 "optdone": 1, 
		 "sigma_profile": "yes", 
		 "theory": "DFT", 
		 "functional": "B3LYP", 
		 "basiset": "6-31G**", 
		 "properties": { 
			 "R2extent": 7254.0272, 
			 "electric_dipole_moment_norm": 5.08547038532, 
			 "electric_quadrupole_moment_norm": 13.2915532396, 
			 "total_energy": -3256.10964693, 
			 "HOMO_LUMO_gap": 0.18042, 
			 "cosmo_polarized_energy": -16.67, 
			 "cosmo_cavitation_energy": 32.66, 
			 "cosmo_dispersion_energy": -24.34, 
			 "cosmo_repulsion_energy": 1.96, 
			 "cosmo_total_nonelectrostatic_energy": 10.29, 
			 "SMD_solvation_energy": 5.23 
		},
		"coords": [
			{
				"x": -1.0270648927,
				"y": 0.3542319751,
				"z": 3.4031414317,
				"element": "C" 
			},
			{
				"x": -0.4937006105,
				"y": 0.5964002606,
				"z": 2.0028352272,
				"element": "C" 
			},
			{
				"x": -1.3105329705,
				"y": -0.1431219372,
				"z": 1.0912221498,
				"element": "O" 
			},
			{
				"x": -1.0169785254,
				"y": -0.0959400175,
				"z": -0.248660667,
				"element": "C" 
			},
			{
				"x": -1.8750372209,
				"y": -0.9011394828,
				"z": -1.0295945639,
				"element": "C" 
			},
			{
				"x": -2.8679444785,
				"y": -1.6060845557,
				"z": -0.4385417955,
				"element": "O" 
			},
			{
				"x": -1.6700258205,
				"y": -0.9458819251,
				"z": -2.4088143401,
				"element": "C" 
			},
			{
				"x": -2.8206434411,
				"y": -2.0203027204,
				"z": -3.4807232664,
				"element": "Br" 
			},
			{
				"x": -0.6498293417,
				"y": -0.2122049239,
				"z": -3.0100442632,
				"element": "C" 
			},
			{
				"x": 0.1942890297,
				"y": 0.5829472969,
				"z": -2.2297160365,
				"element": "C" 
			},
			{
				"x": 0.0064332862,
				"y": 0.637531257,
				"z": -0.8355154763,
				"element": "C" 
			},
			{
				"x": 1.2824621404,
				"y": 1.3611368326,
				"z": -2.863836747,
				"element": "C" 
			},
			{
				"x": 1.7477828447,
				"y": 2.4863750913,
				"z": -2.2004875365,
				"element": "N" 
			},
			{
				"x": 1.7769637482,
				"y": 0.9194515502,
				"z": -3.9745763321,
				"element": "N" 
			},
			{
				"x": 2.7619947743,
				"y": 1.8285428057,
				"z": -4.4546112938,
				"element": "O" 
			},
			{
				"x": -2.0648229823,
				"y": 0.6893285562,
				"z": 3.486037674,
				"element": "H" 
			},
			{
				"x": -0.983538979,
				"y": -0.7089788931,
				"z": 3.655469009,
				"element": "H" 
			},
			{
				"x": -0.4264323852,
				"y": 0.9067118284,
				"z": 4.1318339722,
				"element": "H" 
			},
			{
				"x": 0.548869444,
				"y": 0.2629624713,
				"z": 1.9128894131,
				"element": "H" 
			},
			{
				"x": -0.5319527465,
				"y": 1.6636576578,
				"z": 1.74491826,
				"element": "H" 
			},
			{
				"x": -2.8101598761,
				"y": -1.4253299953,
				"z": 0.5132116508,
				"element": "H" 
			},
			{
				"x": -0.5066546438,
				"y": -0.2522063372,
				"z": -4.0819572174,
				"element": "H" 
			},
			{
				"x": 0.6847285336,
				"y": 1.2243358113,
				"z": -0.2289611958,
				"element": "H" 
			},
			{
				"x": 1.0355171287,
				"y": 3.0329307845,
				"z": -1.7363522631,
				"element": "H" 
			},
			{
				"x": 2.3815703104,
				"y": 3.0380614597,
				"z": -2.7644630197,
				"element": "H" 
			},
			{
				"x": 3.0572076743,
				"y": 1.3916851497,
				"z": -5.2623027735,
				"element": "H" 
			}
		],
		 "valence_orbital": [ 
			{
				"type": "occ",
				"energy": -0.27563,
				"method": "rhf"
			},
			{
				"type": "occ",
				"energy": -0.272,
				"method": "rhf"
			},
			{
				"type": "occ",
				"energy": -0.23389,
				"method": "rhf"
			},
			{
				"type": "occ",
				"energy": -0.23109,
				"method": "rhf"
			},
			{
				"type": "occ",
				"energy": -0.20175,
				"method": "rhf"
			},
			{
				"type": "unocc",
				"energy": -0.02133,
				"method": "rhf"
			},
			{
				"type": "unocc",
				"energy": -0.00281,
				"method": "rhf"
			},
			{
				"type": "unocc",
				"energy": 0.01537,
				"method": "rhf"
			},
			{
				"type": "unocc",
				"energy": 0.05993,
				"method": "rhf"
			},
			{
				"type": "unocc",
				"energy": 0.07759,
				"method": "rhf"
			}
		],
		"cosmo_sigma_profile": { 
			"-0.025": 0.0,
			"-0.024": 0.0,
			"-0.023": 0.0,
			"-0.022": 0.0,
			"-0.021": 0.0,
			"-0.02": 0.0,
			"-0.019": 0.0,
			"-0.018": 0.0,
			"-0.017": 0.377413299452,
			"-0.016": 1.29197115822,
			"-0.015": 0.481515533068,
			"-0.014": 1.47404432091,
			"-0.013": 2.61216448861,
			"-0.012": 2.976591703,
			"-0.011": 2.8884767727,
			"-0.01": 3.08758247529,
			"-0.009": 4.00232327046,
			"-0.008": 3.01859123377,
			"-0.007": 5.23998988473,
			"-0.006": 7.4362776952,
			"-0.005": 14.3772094464,
			"-0.004": 17.8402557816,
			"-0.003": 16.476381795,
			"-0.002": 16.8939016103,
			"-0.001": 15.556795805,
			"0.0": 17.2199492232,
			"0.001": 20.2536835198,
			"0.002": 22.4483088761,
			"0.003": 19.5326013901,
			"0.004": 17.7263730814,
			"0.005": 11.2849311328,
			"0.006": 5.96537564477,
			"0.007": 7.71064815705,
			"0.008": 7.00681698075,
			"0.009": 5.95638227833,
			"0.01": 5.09831230897,
			"0.011": 2.69317449529,
			"0.012": 1.57695507086,
			"0.013": 0.712980028971,
			"0.014": 0.59640749844,
			"0.015": 0.00915959257171,
			"0.016": 0.0,
			"0.017": 0.0,
			"0.018": 0.0,
			"0.019": 0.0,
			"0.02": 0.0,
			"0.021": 0.0,
			"0.022": 0.0,
			"0.023": 0.0,
			"0.024": 0.0,
			"0.025": 0.0
		}
	}
}
