{
	 "smiles": "ClC(=O)C1=CC2=C(OCCO2)C=C1", 
	 "Tm": 373.15, 
	 "num_atms": 20, 
	 "gaussian": { 
		 "optdone": 1, 
		 "sigma_profile": "yes", 
		 "theory": "DFT", 
		 "functional": "B3LYP", 
		 "basiset": "6-31G**", 
		 "properties": { 
			 "R2extent": 4568.6588, 
			 "electric_dipole_moment_norm": 6.3956771088, 
			 "electric_quadrupole_moment_norm": 19.3870849753, 
			 "total_energy": -1033.03053556, 
			 "HOMO_LUMO_gap": 0.16812, 
			 "cosmo_polarized_energy": -9.63, 
			 "cosmo_cavitation_energy": 25.93, 
			 "cosmo_dispersion_energy": -19.83, 
			 "cosmo_repulsion_energy": 1.56, 
			 "cosmo_total_nonelectrostatic_energy": 7.66, 
			 "SMD_solvation_energy": 5.39 
		},
		"coords": [
			{
				"x": 4.4198530417,
				"y": 0.3084976907,
				"z": -3.3083346766,
				"element": "Cl" 
			},
			{
				"x": 3.0807040741,
				"y": -0.8918928706,
				"z": -2.9179348983,
				"element": "C" 
			},
			{
				"x": 3.1117500245,
				"y": -1.9655586346,
				"z": -3.4418165827,
				"element": "O" 
			},
			{
				"x": 2.0625846646,
				"y": -0.4088868855,
				"z": -1.9664067618,
				"element": "C" 
			},
			{
				"x": 2.070019817,
				"y": 0.8723630404,
				"z": -1.3988893208,
				"element": "C" 
			},
			{
				"x": 1.0706212951,
				"y": 1.2459144385,
				"z": -0.5083675778,
				"element": "C" 
			},
			{
				"x": 0.0545777834,
				"y": 0.3311086871,
				"z": -0.1658612694,
				"element": "C" 
			},
			{
				"x": -0.9304224158,
				"y": 0.6462411132,
				"z": 0.7216094667,
				"element": "O" 
			},
			{
				"x": -0.6877074776,
				"y": 1.832746262,
				"z": 1.4873810504,
				"element": "C" 
			},
			{
				"x": -0.132597515,
				"y": 2.9288035873,
				"z": 0.594349281,
				"element": "C" 
			},
			{
				"x": 1.1067327567,
				"y": 2.5111961039,
				"z": 0.0203369784,
				"element": "O" 
			},
			{
				"x": 0.0381358634,
				"y": -0.9413869249,
				"z": -0.7478003173,
				"element": "C" 
			},
			{
				"x": 1.0302514313,
				"y": -1.3112945491,
				"z": -1.6418981979,
				"element": "C" 
			},
			{
				"x": 2.8415030877,
				"y": 1.5913885892,
				"z": -1.6436430892,
				"element": "H" 
			},
			{
				"x": 0.0211502356,
				"y": 1.6079807536,
				"z": 2.2945120522,
				"element": "H" 
			},
			{
				"x": -1.647999141,
				"y": 2.1179846299,
				"z": 1.9231147621,
				"element": "H" 
			},
			{
				"x": 0.0800432812,
				"y": 3.8350525791,
				"z": 1.1660910568,
				"element": "H" 
			},
			{
				"x": -0.8514856857,
				"y": 3.1672658904,
				"z": -0.2011646823,
				"element": "H" 
			},
			{
				"x": -0.7596297263,
				"y": -1.6226912788,
				"z": -0.4715787639,
				"element": "H" 
			},
			{
				"x": 1.0307146049,
				"y": -2.2964322218,
				"z": -2.0931985095,
				"element": "H" 
			}
		],
		 "valence_orbital": [ 
			{
				"type": "occ",
				"energy": -0.31195,
				"method": "rhf"
			},
			{
				"type": "occ",
				"energy": -0.31085,
				"method": "rhf"
			},
			{
				"type": "occ",
				"energy": -0.28508,
				"method": "rhf"
			},
			{
				"type": "occ",
				"energy": -0.25909,
				"method": "rhf"
			},
			{
				"type": "occ",
				"energy": -0.23459,
				"method": "rhf"
			},
			{
				"type": "unocc",
				"energy": -0.06647,
				"method": "rhf"
			},
			{
				"type": "unocc",
				"energy": -0.01542,
				"method": "rhf"
			},
			{
				"type": "unocc",
				"energy": 0.02541,
				"method": "rhf"
			},
			{
				"type": "unocc",
				"energy": 0.03951,
				"method": "rhf"
			},
			{
				"type": "unocc",
				"energy": 0.06823,
				"method": "rhf"
			}
		],
		"cosmo_sigma_profile": { 
			"-0.025": 0.0,
			"-0.024": 0.0,
			"-0.023": 0.0,
			"-0.022": 0.0,
			"-0.021": 0.0,
			"-0.02": 0.0,
			"-0.019": 0.0,
			"-0.018": 0.0,
			"-0.017": 0.0,
			"-0.016": 0.0,
			"-0.015": 0.0,
			"-0.014": 0.0,
			"-0.013": 0.0,
			"-0.012": 0.0,
			"-0.011": 0.0,
			"-0.01": 0.0,
			"-0.009": 0.0,
			"-0.008": 2.99682966315,
			"-0.007": 13.8070897779,
			"-0.006": 16.3118324891,
			"-0.005": 14.1317238685,
			"-0.004": 10.3780318856,
			"-0.003": 10.0608685972,
			"-0.002": 11.3831901165,
			"-0.001": 14.4078186331,
			"0.0": 17.145716783,
			"0.001": 19.9510113084,
			"0.002": 19.2366927042,
			"0.003": 12.6857661311,
			"0.004": 10.3596955792,
			"0.005": 10.5565104109,
			"0.006": 7.64400512898,
			"0.007": 4.06682333968,
			"0.008": 5.72532731242,
			"0.009": 7.28657628911,
			"0.01": 1.95024273696,
			"0.011": 0.0,
			"0.012": 0.0,
			"0.013": 0.0,
			"0.014": 0.0,
			"0.015": 0.0,
			"0.016": 0.0,
			"0.017": 0.0,
			"0.018": 0.0,
			"0.019": 0.0,
			"0.02": 0.0,
			"0.021": 0.0,
			"0.022": 0.0,
			"0.023": 0.0,
			"0.024": 0.0,
			"0.025": 0.0
		}
	}
}
