{
	 "smiles": "OC(=O)CCC1=CC=C2CCC(=O)NC2=C1", 
	 "Tm": 513.15, 
	 "num_atms": 29, 
	 "gaussian": { 
		 "optdone": 1, 
		 "sigma_profile": "yes", 
		 "theory": "DFT", 
		 "functional": "B3LYP", 
		 "basiset": "6-31G**", 
		 "properties": { 
			 "R2extent": 4967.7676, 
			 "electric_dipole_moment_norm": 4.08189720718, 
			 "electric_quadrupole_moment_norm": 37.2845537132, 
			 "total_energy": -745.580727612, 
			 "HOMO_LUMO_gap": 0.20269, 
			 "cosmo_polarized_energy": -20.87, 
			 "cosmo_cavitation_energy": 32.22, 
			 "cosmo_dispersion_energy": -23.28, 
			 "cosmo_repulsion_energy": 1.82, 
			 "cosmo_total_nonelectrostatic_energy": 10.77, 
			 "SMD_solvation_energy": 6.45 
		},
		"coords": [
			{
				"x": 3.1750024242,
				"y": -0.4032618126,
				"z": -1.4944965595,
				"element": "O" 
			},
			{
				"x": 3.4248542383,
				"y": -1.6224514306,
				"z": -0.9549630992,
				"element": "C" 
			},
			{
				"x": 4.2514318011,
				"y": -2.3470827451,
				"z": -1.4520982423,
				"element": "O" 
			},
			{
				"x": 2.5967274889,
				"y": -2.019199262,
				"z": 0.2659704843,
				"element": "C" 
			},
			{
				"x": 2.5199039045,
				"y": -0.9743538678,
				"z": 1.4082098526,
				"element": "C" 
			},
			{
				"x": 1.6344196032,
				"y": 0.2270225304,
				"z": 1.1308481398,
				"element": "C" 
			},
			{
				"x": 2.1792414621,
				"y": 1.4972618566,
				"z": 0.8954244793,
				"element": "C" 
			},
			{
				"x": 1.3435435645,
				"y": 2.5900198409,
				"z": 0.6393927563,
				"element": "C" 
			},
			{
				"x": -0.0412469224,
				"y": 2.4542758031,
				"z": 0.6155298889,
				"element": "C" 
			},
			{
				"x": -0.9938863237,
				"y": 3.6093325551,
				"z": 0.4141249712,
				"element": "C" 
			},
			{
				"x": -2.2533845825,
				"y": 3.160935953,
				"z": -0.3418219471,
				"element": "C" 
			},
			{
				"x": -2.8873148713,
				"y": 1.9181057168,
				"z": 0.2647989594,
				"element": "C" 
			},
			{
				"x": -4.0828218017,
				"y": 1.6807673937,
				"z": 0.2520703572,
				"element": "O" 
			},
			{
				"x": -1.9840026382,
				"y": 1.0227620041,
				"z": 0.8150998915,
				"element": "N" 
			},
			{
				"x": -0.5898513714,
				"y": 1.1741805281,
				"z": 0.8369210495,
				"element": "C" 
			},
			{
				"x": 0.2401678962,
				"y": 0.0795811137,
				"z": 1.0912450029,
				"element": "C" 
			},
			{
				"x": 2.5113866135,
				"y": 0.079843154,
				"z": -0.9747885691,
				"element": "H" 
			},
			{
				"x": 1.5820392331,
				"y": -2.2608866465,
				"z": -0.0775048088,
				"element": "H" 
			},
			{
				"x": 3.0396274981,
				"y": -2.9452812582,
				"z": 0.6375659388,
				"element": "H" 
			},
			{
				"x": 2.140381627,
				"y": -1.4927678046,
				"z": 2.2962592079,
				"element": "H" 
			},
			{
				"x": 3.5309670751,
				"y": -0.6360706009,
				"z": 1.6589884957,
				"element": "H" 
			},
			{
				"x": 3.2562667287,
				"y": 1.636091255,
				"z": 0.9234662588,
				"element": "H" 
			},
			{
				"x": 1.7808673513,
				"y": 3.5702739856,
				"z": 0.4679752296,
				"element": "H" 
			},
			{
				"x": -0.4995793332,
				"y": 4.4283595348,
				"z": -0.1173256115,
				"element": "H" 
			},
			{
				"x": -1.2887283806,
				"y": 4.0078310221,
				"z": 1.3958377015,
				"element": "H" 
			},
			{
				"x": -3.0180484216,
				"y": 3.939512077,
				"z": -0.3699286974,
				"element": "H" 
			},
			{
				"x": -1.9995721035,
				"y": 2.9157071772,
				"z": -1.3822614185,
				"element": "H" 
			},
			{
				"x": -2.3915596411,
				"y": 0.1508864388,
				"z": 1.1288068064,
				"element": "H" 
			},
			{
				"x": -0.2060321187,
				"y": -0.8974945117,
				"z": 1.265353482,
				"element": "H" 
			}
		],
		 "valence_orbital": [ 
			{
				"type": "occ",
				"energy": -0.30679,
				"method": "rhf"
			},
			{
				"type": "occ",
				"energy": -0.27039,
				"method": "rhf"
			},
			{
				"type": "occ",
				"energy": -0.26414,
				"method": "rhf"
			},
			{
				"type": "occ",
				"energy": -0.25908,
				"method": "rhf"
			},
			{
				"type": "occ",
				"energy": -0.23522,
				"method": "rhf"
			},
			{
				"type": "unocc",
				"energy": -0.03253,
				"method": "rhf"
			},
			{
				"type": "unocc",
				"energy": -0.02956,
				"method": "rhf"
			},
			{
				"type": "unocc",
				"energy": 0.01398,
				"method": "rhf"
			},
			{
				"type": "unocc",
				"energy": 0.0216,
				"method": "rhf"
			},
			{
				"type": "unocc",
				"energy": 0.0744,
				"method": "rhf"
			}
		],
		"cosmo_sigma_profile": { 
			"-0.025": 0.0,
			"-0.024": 0.0,
			"-0.023": 0.0,
			"-0.022": 0.0,
			"-0.021": 0.0,
			"-0.02": 0.0,
			"-0.019": 0.0,
			"-0.018": 0.0,
			"-0.017": 0.0,
			"-0.016": 0.0,
			"-0.015": 0.32059896321,
			"-0.014": 1.16544674202,
			"-0.013": 1.11924015348,
			"-0.012": 1.29993850419,
			"-0.011": 1.00961147449,
			"-0.01": 1.29556398661,
			"-0.009": 2.98240805367,
			"-0.008": 2.12556187768,
			"-0.007": 5.87496298429,
			"-0.006": 17.8863130477,
			"-0.005": 28.6265291227,
			"-0.004": 26.577726368,
			"-0.003": 23.0025590856,
			"-0.002": 22.9543699298,
			"-0.001": 14.607994935,
			"0.0": 10.3792957916,
			"0.001": 10.3946304713,
			"0.002": 11.1146409022,
			"0.003": 9.24278713644,
			"0.004": 7.9331280412,
			"0.005": 5.8152783601,
			"0.006": 2.98070960229,
			"0.007": 3.84816680466,
			"0.008": 3.83642460884,
			"0.009": 3.55531359503,
			"0.01": 5.53267402381,
			"0.011": 7.1879349079,
			"0.012": 9.05226132058,
			"0.013": 9.12717648717,
			"0.014": 3.34770543518,
			"0.015": 0.268208527289,
			"0.016": 0.0,
			"0.017": 0.0,
			"0.018": 0.0,
			"0.019": 0.0,
			"0.02": 0.0,
			"0.021": 0.0,
			"0.022": 0.0,
			"0.023": 0.0,
			"0.024": 0.0,
			"0.025": 0.0
		}
	}
}
