{
	 "smiles": "COC1=CC=C(OCC(O)=O)C=C1", 
	 "Tm": 386.15, 
	 "num_atms": 23, 
	 "gaussian": { 
		 "optdone": 1, 
		 "sigma_profile": "yes", 
		 "theory": "DFT", 
		 "functional": "B3LYP", 
		 "basiset": "6-31G**", 
		 "properties": { 
			 "R2extent": 4852.8554, 
			 "electric_dipole_moment_norm": 5.47184248037, 
			 "electric_quadrupole_moment_norm": 29.3654704781, 
			 "total_energy": -649.861164911, 
			 "HOMO_LUMO_gap": 0.19772, 
			 "cosmo_polarized_energy": -14.23, 
			 "cosmo_cavitation_energy": 27.63, 
			 "cosmo_dispersion_energy": -20.47, 
			 "cosmo_repulsion_energy": 1.63, 
			 "cosmo_total_nonelectrostatic_energy": 8.79, 
			 "SMD_solvation_energy": 7.13 
		},
		"coords": [
			{
				"x": 2.8573635477,
				"y": -0.0623889391,
				"z": 1.5032329171,
				"element": "C" 
			},
			{
				"x": 2.3395395785,
				"y": -0.6060669027,
				"z": 0.3003465341,
				"element": "O" 
			},
			{
				"x": 0.9981289966,
				"y": -0.4923371811,
				"z": 0.0664137681,
				"element": "C" 
			},
			{
				"x": 0.0847055567,
				"y": 0.1260036549,
				"z": 0.9308979693,
				"element": "C" 
			},
			{
				"x": -1.2660030714,
				"y": 0.1845804954,
				"z": 0.5897270075,
				"element": "C" 
			},
			{
				"x": -1.7193178247,
				"y": -0.3682149846,
				"z": -0.6081341074,
				"element": "C" 
			},
			{
				"x": -3.0739651976,
				"y": -0.2594678895,
				"z": -0.8555874255,
				"element": "O" 
			},
			{
				"x": -3.6050592585,
				"y": -0.7995529978,
				"z": -2.0555943444,
				"element": "C" 
			},
			{
				"x": -5.1142816707,
				"y": -0.5494069547,
				"z": -2.0845741096,
				"element": "C" 
			},
			{
				"x": -5.6117811373,
				"y": 0.0997566816,
				"z": -1.0195914369,
				"element": "O" 
			},
			{
				"x": -5.793688112,
				"y": -0.9178280762,
				"z": -3.0095185223,
				"element": "O" 
			},
			{
				"x": -0.8123544634,
				"y": -0.9867351476,
				"z": -1.4752923389,
				"element": "C" 
			},
			{
				"x": 0.5368470041,
				"y": -1.0448917701,
				"z": -1.1337974536,
				"element": "C" 
			},
			{
				"x": 3.9300706552,
				"y": -0.2608564113,
				"z": 1.487104715,
				"element": "H" 
			},
			{
				"x": 2.4166663851,
				"y": -0.5402868308,
				"z": 2.3881198534,
				"element": "H" 
			},
			{
				"x": 2.6932580668,
				"y": 1.0216356552,
				"z": 1.5631362945,
				"element": "H" 
			},
			{
				"x": 0.4088829226,
				"y": 0.563520167,
				"z": 1.8674241187,
				"element": "H" 
			},
			{
				"x": -1.9801012267,
				"y": 0.661569253,
				"z": 1.2533945004,
				"element": "H" 
			},
			{
				"x": -3.4361424873,
				"y": -1.8818761302,
				"z": -2.1219864369,
				"element": "H" 
			},
			{
				"x": -3.1627005338,
				"y": -0.3279831745,
				"z": -2.9423304167,
				"element": "H" 
			},
			{
				"x": -4.871093479,
				"y": 0.2882545476,
				"z": -0.4152746997,
				"element": "H" 
			},
			{
				"x": -1.1381947268,
				"y": -1.423873066,
				"z": -2.4118183953,
				"element": "H" 
			},
			{
				"x": 1.2535204759,
				"y": -1.5208539983,
				"z": -1.794697991,
				"element": "H" 
			}
		],
		 "valence_orbital": [ 
			{
				"type": "occ",
				"energy": -0.31632,
				"method": "rhf"
			},
			{
				"type": "occ",
				"energy": -0.30268,
				"method": "rhf"
			},
			{
				"type": "occ",
				"energy": -0.27411,
				"method": "rhf"
			},
			{
				"type": "occ",
				"energy": -0.2657,
				"method": "rhf"
			},
			{
				"type": "occ",
				"energy": -0.2153,
				"method": "rhf"
			},
			{
				"type": "unocc",
				"energy": -0.01758,
				"method": "rhf"
			},
			{
				"type": "unocc",
				"energy": 0.00688,
				"method": "rhf"
			},
			{
				"type": "unocc",
				"energy": 0.01418,
				"method": "rhf"
			},
			{
				"type": "unocc",
				"energy": 0.07732,
				"method": "rhf"
			},
			{
				"type": "unocc",
				"energy": 0.08136,
				"method": "rhf"
			}
		],
		"cosmo_sigma_profile": { 
			"-0.025": 0.0,
			"-0.024": 0.0,
			"-0.023": 0.0,
			"-0.022": 0.0,
			"-0.021": 0.0,
			"-0.02": 0.0,
			"-0.019": 0.0,
			"-0.018": 0.0,
			"-0.017": 0.0,
			"-0.016": 0.0,
			"-0.015": 0.291221579409,
			"-0.014": 0.549170167618,
			"-0.013": 0.459619475305,
			"-0.012": 0.276602467192,
			"-0.011": 0.855043437971,
			"-0.01": 0.823451933608,
			"-0.009": 1.17069058073,
			"-0.008": 9.047557932,
			"-0.007": 9.61257899143,
			"-0.006": 16.6747553127,
			"-0.005": 19.4338072286,
			"-0.004": 17.4572605593,
			"-0.003": 16.97910151,
			"-0.002": 12.0514575693,
			"-0.001": 7.73329280164,
			"0.0": 9.02820638775,
			"0.001": 9.2216150099,
			"0.002": 10.040433585,
			"0.003": 12.4765207106,
			"0.004": 16.2967504332,
			"0.005": 13.2276324725,
			"0.006": 4.56213715856,
			"0.007": 3.81748355456,
			"0.008": 3.52986419981,
			"0.009": 5.59380319003,
			"0.01": 6.93924567143,
			"0.011": 5.31621102934,
			"0.012": 5.1438303019,
			"0.013": 1.22626005975,
			"0.014": 0.0,
			"0.015": 0.0,
			"0.016": 0.0,
			"0.017": 0.0,
			"0.018": 0.0,
			"0.019": 0.0,
			"0.02": 0.0,
			"0.021": 0.0,
			"0.022": 0.0,
			"0.023": 0.0,
			"0.024": 0.0,
			"0.025": 0.0
		}
	}
}
