{
	 "smiles": "NC1=NC=CC(Br)=C1", 
	 "Tm": 418.65, 
	 "num_atms": 13, 
	 "gaussian": { 
		 "optdone": 1, 
		 "sigma_profile": "yes", 
		 "theory": "DFT", 
		 "functional": "B3LYP", 
		 "basiset": "6-31G**", 
		 "properties": { 
			 "R2extent": 3645.9568, 
			 "electric_dipole_moment_norm": 1.7452412412, 
			 "electric_quadrupole_moment_norm": 8.57928882426, 
			 "total_energy": -2874.43718519, 
			 "HOMO_LUMO_gap": 0.22259, 
			 "cosmo_polarized_energy": -11.49, 
			 "cosmo_cavitation_energy": 19.64, 
			 "cosmo_dispersion_energy": -15.18, 
			 "cosmo_repulsion_energy": 1.27, 
			 "cosmo_total_nonelectrostatic_energy": 5.74, 
			 "SMD_solvation_energy": 0.79 
		},
		"coords": [
			{
				"x": 1.0021677614,
				"y": 0.6052524553,
				"z": -0.5841508461,
				"element": "N" 
			},
			{
				"x": -0.419826777,
				"y": 0.4303839608,
				"z": -0.5139554912,
				"element": "C" 
			},
			{
				"x": -1.0383353436,
				"y": 1.0381325809,
				"z": 0.5029512147,
				"element": "N" 
			},
			{
				"x": -2.3653253737,
				"y": 0.8975922464,
				"z": 0.6011428866,
				"element": "C" 
			},
			{
				"x": -3.1490018031,
				"y": 0.1596424676,
				"z": -0.2855897355,
				"element": "C" 
			},
			{
				"x": -2.4882173246,
				"y": -0.4667768995,
				"z": -1.3389348278,
				"element": "C" 
			},
			{
				"x": -3.4713903831,
				"y": -1.5003682728,
				"z": -2.6061475187,
				"element": "Br" 
			},
			{
				"x": -1.1105702393,
				"y": -0.3388560777,
				"z": -1.4668400646,
				"element": "C" 
			},
			{
				"x": 1.2629392963,
				"y": 1.0347777603,
				"z": -1.4681704323,
				"element": "H" 
			},
			{
				"x": 1.4720976262,
				"y": -0.2956740887,
				"z": -0.5456218781,
				"element": "H" 
			},
			{
				"x": -2.839591846,
				"y": 1.4044681902,
				"z": 1.4398852813,
				"element": "H" 
			},
			{
				"x": -4.2217027955,
				"y": 0.0790575187,
				"z": -0.1585197717,
				"element": "H" 
			},
			{
				"x": -0.5791427979,
				"y": -0.8194318415,
				"z": -2.2804488165,
				"element": "H" 
			}
		],
		 "valence_orbital": [ 
			{
				"type": "occ",
				"energy": -0.29955,
				"method": "rhf"
			},
			{
				"type": "occ",
				"energy": -0.27042,
				"method": "rhf"
			},
			{
				"type": "occ",
				"energy": -0.26838,
				"method": "rhf"
			},
			{
				"type": "occ",
				"energy": -0.26681,
				"method": "rhf"
			},
			{
				"type": "occ",
				"energy": -0.2566,
				"method": "rhf"
			},
			{
				"type": "unocc",
				"energy": -0.03401,
				"method": "rhf"
			},
			{
				"type": "unocc",
				"energy": -0.02527,
				"method": "rhf"
			},
			{
				"type": "unocc",
				"energy": -0.00397,
				"method": "rhf"
			},
			{
				"type": "unocc",
				"energy": 0.0825,
				"method": "rhf"
			},
			{
				"type": "unocc",
				"energy": 0.11754,
				"method": "rhf"
			}
		],
		"cosmo_sigma_profile": { 
			"-0.025": 0.0,
			"-0.024": 0.0,
			"-0.023": 0.0,
			"-0.022": 0.0,
			"-0.021": 0.0,
			"-0.02": 0.0,
			"-0.019": 0.0,
			"-0.018": 0.0,
			"-0.017": 0.0,
			"-0.016": 0.0,
			"-0.015": 0.0,
			"-0.014": 0.0,
			"-0.013": 0.0,
			"-0.012": 1.22197655009,
			"-0.011": 3.13352721463,
			"-0.01": 2.7843842426,
			"-0.009": 3.18139489868,
			"-0.008": 5.50431353648,
			"-0.007": 9.45520582947,
			"-0.006": 8.00255494934,
			"-0.005": 6.93613202045,
			"-0.004": 7.27092942677,
			"-0.003": 7.86218409469,
			"-0.002": 6.6283090586,
			"-0.001": 8.74809415953,
			"0.0": 15.2935941143,
			"0.001": 19.1086055509,
			"0.002": 11.7319430432,
			"0.003": 10.7636066903,
			"0.004": 12.0901433736,
			"0.005": 2.08697309555,
			"0.006": 0.556917428877,
			"0.007": 1.53043852688,
			"0.008": 1.75945555228,
			"0.009": 1.42948614104,
			"0.01": 1.23238463662,
			"0.011": 1.21142849662,
			"0.012": 0.978205150496,
			"0.013": 1.95806672904,
			"0.014": 0.849944953444,
			"0.015": 1.45846461135,
			"0.016": 1.18491618539,
			"0.017": 1.54211489019,
			"0.018": 1.2216362109,
			"0.019": 1.20433409105,
			"0.02": 0.495858691647,
			"0.021": 0.0,
			"0.022": 0.0,
			"0.023": 0.0,
			"0.024": 0.0,
			"0.025": 0.0
		}
	}
}
