{
	 "smiles": "FC1=CC(=CC=C1)C#N", 
	 "Tm": 257.15, 
	 "num_atms": 13, 
	 "gaussian": { 
		 "optdone": 1, 
		 "sigma_profile": "yes", 
		 "theory": "DFT", 
		 "functional": "B3LYP", 
		 "basiset": "6-31G**", 
		 "properties": { 
			 "R2extent": 1495.4847, 
			 "electric_dipole_moment_norm": 3.94079274893, 
			 "electric_quadrupole_moment_norm": 9.53593241482, 
			 "total_energy": -423.721696687, 
			 "HOMO_LUMO_gap": 0.20781, 
			 "cosmo_polarized_energy": -8.0, 
			 "cosmo_cavitation_energy": 19.15, 
			 "cosmo_dispersion_energy": -13.48, 
			 "cosmo_repulsion_energy": 1.08, 
			 "cosmo_total_nonelectrostatic_energy": 6.76, 
			 "SMD_solvation_energy": 5.34 
		},
		"coords": [
			{
				"x": 3.4442446888,
				"y": 0.1609701093,
				"z": 0.259690094,
				"element": "F" 
			},
			{
				"x": 2.1497675847,
				"y": 0.1887129916,
				"z": -0.1057489514,
				"element": "C" 
			},
			{
				"x": 1.6110274479,
				"y": -0.9240055799,
				"z": -0.7363638577,
				"element": "C" 
			},
			{
				"x": 0.2589584261,
				"y": -0.8851977309,
				"z": -1.1138966564,
				"element": "C" 
			},
			{
				"x": -0.5214540234,
				"y": 0.2546848676,
				"z": -0.8561485158,
				"element": "C" 
			},
			{
				"x": 0.055657666,
				"y": 1.3524072641,
				"z": -0.2207349255,
				"element": "C" 
			},
			{
				"x": 1.398118877,
				"y": 1.3293499651,
				"z": 0.1606851604,
				"element": "C" 
			},
			{
				"x": -0.3263555489,
				"y": -2.0205460245,
				"z": -1.7677515363,
				"element": "C" 
			},
			{
				"x": -0.8051572003,
				"y": -2.9382811308,
				"z": -2.297942585,
				"element": "N" 
			},
			{
				"x": 2.2269196935,
				"y": -1.7946981587,
				"z": -0.9274505742,
				"element": "H" 
			},
			{
				"x": -1.5637790678,
				"y": 0.2694447439,
				"z": -1.1536474339,
				"element": "H" 
			},
			{
				"x": -0.5433213819,
				"y": 2.2348082964,
				"z": -0.0197229439,
				"element": "H" 
			},
			{
				"x": 1.8664728382,
				"y": 2.1726503868,
				"z": 0.6561327259,
				"element": "H" 
			}
		],
		 "valence_orbital": [ 
			{
				"type": "occ",
				"energy": -0.36221,
				"method": "rhf"
			},
			{
				"type": "occ",
				"energy": -0.34999,
				"method": "rhf"
			},
			{
				"type": "occ",
				"energy": -0.33789,
				"method": "rhf"
			},
			{
				"type": "occ",
				"energy": -0.28109,
				"method": "rhf"
			},
			{
				"type": "occ",
				"energy": -0.26927,
				"method": "rhf"
			},
			{
				"type": "unocc",
				"energy": -0.06146,
				"method": "rhf"
			},
			{
				"type": "unocc",
				"energy": -0.02709,
				"method": "rhf"
			},
			{
				"type": "unocc",
				"energy": 0.03011,
				"method": "rhf"
			},
			{
				"type": "unocc",
				"energy": 0.06612,
				"method": "rhf"
			},
			{
				"type": "unocc",
				"energy": 0.07361,
				"method": "rhf"
			}
		],
		"cosmo_sigma_profile": { 
			"-0.025": 0.0,
			"-0.024": 0.0,
			"-0.023": 0.0,
			"-0.022": 0.0,
			"-0.021": 0.0,
			"-0.02": 0.0,
			"-0.019": 0.0,
			"-0.018": 0.0,
			"-0.017": 0.0,
			"-0.016": 0.0,
			"-0.015": 0.0,
			"-0.014": 0.0,
			"-0.013": 0.0,
			"-0.012": 0.0,
			"-0.011": 0.0,
			"-0.01": 0.112759305185,
			"-0.009": 2.31663983859,
			"-0.008": 6.35642002223,
			"-0.007": 8.89164481051,
			"-0.006": 8.65815833788,
			"-0.005": 7.39379829488,
			"-0.004": 6.31036634278,
			"-0.003": 7.29534293513,
			"-0.002": 10.6228427971,
			"-0.001": 15.7423995327,
			"0.0": 15.5395710565,
			"0.001": 14.8005985446,
			"0.002": 9.99358239078,
			"0.003": 8.75477873074,
			"0.004": 9.12853084337,
			"0.005": 2.57402818956,
			"0.006": 2.45247147548,
			"0.007": 3.0235521722,
			"0.008": 3.39476090062,
			"0.009": 3.70279463101,
			"0.01": 2.65134905642,
			"0.011": 2.91363901169,
			"0.012": 2.17179526446,
			"0.013": 1.11592805157,
			"0.014": 0.0,
			"0.015": 0.0,
			"0.016": 0.0,
			"0.017": 0.0,
			"0.018": 0.0,
			"0.019": 0.0,
			"0.02": 0.0,
			"0.021": 0.0,
			"0.022": 0.0,
			"0.023": 0.0,
			"0.024": 0.0,
			"0.025": 0.0
		}
	}
}
