{
	 "smiles": "NCCC(O)=O", 
	 "Tm": 471.15, 
	 "num_atms": 13, 
	 "gaussian": { 
		 "optdone": 1, 
		 "sigma_profile": "yes", 
		 "theory": "DFT", 
		 "functional": "B3LYP", 
		 "basiset": "6-31G**", 
		 "properties": { 
			 "R2extent": 1091.0982, 
			 "electric_dipole_moment_norm": 6.63698628671, 
			 "electric_quadrupole_moment_norm": 15.7747140998, 
			 "total_energy": -323.751836912, 
			 "HOMO_LUMO_gap": 0.27401, 
			 "cosmo_polarized_energy": -16.03, 
			 "cosmo_cavitation_energy": 16.07, 
			 "cosmo_dispersion_energy": -12.36, 
			 "cosmo_repulsion_energy": 1.11, 
			 "cosmo_total_nonelectrostatic_energy": 4.81, 
			 "SMD_solvation_energy": 3.86 
		},
		"coords": [
			{
				"x": 1.6806790389,
				"y": 0.9768038612,
				"z": -1.233469983,
				"element": "N" 
			},
			{
				"x": 0.2620241051,
				"y": 0.7565944289,
				"z": -0.8815872721,
				"element": "C" 
			},
			{
				"x": 0.0346722388,
				"y": -0.7107222624,
				"z": -0.4923856363,
				"element": "C" 
			},
			{
				"x": 0.3460260519,
				"y": -1.7353748705,
				"z": -1.5935782717,
				"element": "C" 
			},
			{
				"x": 1.3889468255,
				"y": -1.4402333633,
				"z": -2.3857426123,
				"element": "O" 
			},
			{
				"x": -0.2909302715,
				"y": -2.7558754907,
				"z": -1.7206161632,
				"element": "O" 
			},
			{
				"x": 1.8100587325,
				"y": 1.8698611453,
				"z": -1.7003315854,
				"element": "H" 
			},
			{
				"x": 2.2609310121,
				"y": 0.9866196908,
				"z": -0.3975952655,
				"element": "H" 
			},
			{
				"x": -0.0842077736,
				"y": 1.4120451812,
				"z": -0.0701918862,
				"element": "H" 
			},
			{
				"x": -0.3357593937,
				"y": 0.9988941972,
				"z": -1.7667862377,
				"element": "H" 
			},
			{
				"x": 0.6590458395,
				"y": -0.9587761747,
				"z": 0.3779943373,
				"element": "H" 
			},
			{
				"x": -1.0021470816,
				"y": -0.8701536422,
				"z": -0.1887144665,
				"element": "H" 
			},
			{
				"x": 1.7523606762,
				"y": -0.5518827008,
				"z": -2.1192949576,
				"element": "H" 
			}
		],
		 "valence_orbital": [ 
			{
				"type": "occ",
				"energy": -0.36857,
				"method": "rhf"
			},
			{
				"type": "occ",
				"energy": -0.35578,
				"method": "rhf"
			},
			{
				"type": "occ",
				"energy": -0.28677,
				"method": "rhf"
			},
			{
				"type": "occ",
				"energy": -0.28207,
				"method": "rhf"
			},
			{
				"type": "occ",
				"energy": -0.2463,
				"method": "rhf"
			},
			{
				"type": "unocc",
				"energy": 0.02771,
				"method": "rhf"
			},
			{
				"type": "unocc",
				"energy": 0.05321,
				"method": "rhf"
			},
			{
				"type": "unocc",
				"energy": 0.10281,
				"method": "rhf"
			},
			{
				"type": "unocc",
				"energy": 0.11075,
				"method": "rhf"
			},
			{
				"type": "unocc",
				"energy": 0.14124,
				"method": "rhf"
			}
		],
		"cosmo_sigma_profile": { 
			"-0.025": 0.0,
			"-0.024": 0.0,
			"-0.023": 0.0,
			"-0.022": 0.0,
			"-0.021": 0.0,
			"-0.02": 0.0,
			"-0.019": 0.0,
			"-0.018": 0.0,
			"-0.017": 0.0,
			"-0.016": 0.0,
			"-0.015": 0.0,
			"-0.014": 0.0,
			"-0.013": 0.0,
			"-0.012": 1.1825114572,
			"-0.011": 3.49982655776,
			"-0.01": 3.72637165361,
			"-0.009": 3.38972521836,
			"-0.008": 3.69639185062,
			"-0.007": 4.26161348823,
			"-0.006": 6.70302972629,
			"-0.005": 11.4724433801,
			"-0.004": 13.405881936,
			"-0.003": 11.5640148746,
			"-0.002": 8.76165907662,
			"-0.001": 5.41189602458,
			"0.0": 3.6737753391,
			"0.001": 2.72516473226,
			"0.002": 2.7194313937,
			"0.003": 2.54905387489,
			"0.004": 2.52685159826,
			"0.005": 1.76116683915,
			"0.006": 1.70287563024,
			"0.007": 2.38986764025,
			"0.008": 2.22647551172,
			"0.009": 2.19850932264,
			"0.01": 3.37525653345,
			"0.011": 3.78529115734,
			"0.012": 6.27468758564,
			"0.013": 6.86757897943,
			"0.014": 3.12872391899,
			"0.015": 0.294234621984,
			"0.016": 0.0,
			"0.017": 0.0,
			"0.018": 0.0,
			"0.019": 0.0,
			"0.02": 0.0,
			"0.021": 0.0,
			"0.022": 0.0,
			"0.023": 0.0,
			"0.024": 0.0,
			"0.025": 0.0
		}
	}
}
