{
	 "smiles": "CC(O)C1=C(Cl)N=C2SC=CN12", 
	 "Tm": 381.15, 
	 "num_atms": 19, 
	 "gaussian": { 
		 "optdone": 1, 
		 "sigma_profile": "yes", 
		 "theory": "DFT", 
		 "functional": "B3LYP", 
		 "basiset": "6-31G**", 
		 "properties": { 
			 "R2extent": 3055.5317, 
			 "electric_dipole_moment_norm": 5.3063322493, 
			 "electric_quadrupole_moment_norm": 8.48835357593, 
			 "total_energy": -1314.03083089, 
			 "HOMO_LUMO_gap": 0.19547, 
			 "cosmo_polarized_energy": -14.98, 
			 "cosmo_cavitation_energy": 26.51, 
			 "cosmo_dispersion_energy": -19.83, 
			 "cosmo_repulsion_energy": 1.53, 
			 "cosmo_total_nonelectrostatic_energy": 8.21, 
			 "SMD_solvation_energy": 2.66 
		},
		"coords": [
			{
				"x": 0.6833468043,
				"y": -1.0745191712,
				"z": 2.4089547625,
				"element": "C" 
			},
			{
				"x": 0.482246168,
				"y": -1.5437876882,
				"z": 0.9662731355,
				"element": "C" 
			},
			{
				"x": 0.2239203885,
				"y": -2.9412888983,
				"z": 1.0296064472,
				"element": "O" 
			},
			{
				"x": -0.6119320193,
				"y": -0.7983861176,
				"z": 0.2482637307,
				"element": "C" 
			},
			{
				"x": -1.9968012303,
				"y": -0.8371855034,
				"z": 0.2999738884,
				"element": "C" 
			},
			{
				"x": -2.94926518,
				"y": -1.8786150012,
				"z": 1.3060872299,
				"element": "Cl" 
			},
			{
				"x": -2.6072307142,
				"y": 0.0459767857,
				"z": -0.5473162865,
				"element": "N" 
			},
			{
				"x": -1.5964189159,
				"y": 0.6510580322,
				"z": -1.1277824127,
				"element": "C" 
			},
			{
				"x": -1.4145312828,
				"y": 1.9078267718,
				"z": -2.333623632,
				"element": "S" 
			},
			{
				"x": 0.3363710132,
				"y": 1.7582110033,
				"z": -2.1981137976,
				"element": "C" 
			},
			{
				"x": 0.7211513229,
				"y": 0.8222899618,
				"z": -1.3023529735,
				"element": "C" 
			},
			{
				"x": -0.3663180973,
				"y": 0.1952330482,
				"z": -0.7002288174,
				"element": "N" 
			},
			{
				"x": 1.4781745786,
				"y": -1.6611161681,
				"z": 2.8783864925,
				"element": "H" 
			},
			{
				"x": -0.2378673353,
				"y": -1.2145693032,
				"z": 2.9795533346,
				"element": "H" 
			},
			{
				"x": 0.9599117266,
				"y": -0.0164611419,
				"z": 2.437178552,
				"element": "H" 
			},
			{
				"x": 1.419556823,
				"y": -1.3601198051,
				"z": 0.4103955745,
				"element": "H" 
			},
			{
				"x": -0.1050028906,
				"y": -3.2271426052,
				"z": 0.1672302536,
				"element": "H" 
			},
			{
				"x": 0.9807897877,
				"y": 2.3846347157,
				"z": -2.7964380149,
				"element": "H" 
			},
			{
				"x": 1.7314990531,
				"y": 0.5479610847,
				"z": -1.0357474667,
				"element": "H" 
			}
		],
		 "valence_orbital": [ 
			{
				"type": "occ",
				"energy": -0.31452,
				"method": "rhf"
			},
			{
				"type": "occ",
				"energy": -0.29799,
				"method": "rhf"
			},
			{
				"type": "occ",
				"energy": -0.27742,
				"method": "rhf"
			},
			{
				"type": "occ",
				"energy": -0.24076,
				"method": "rhf"
			},
			{
				"type": "occ",
				"energy": -0.22246,
				"method": "rhf"
			},
			{
				"type": "unocc",
				"energy": -0.02699,
				"method": "rhf"
			},
			{
				"type": "unocc",
				"energy": -0.00283,
				"method": "rhf"
			},
			{
				"type": "unocc",
				"energy": 0.02625,
				"method": "rhf"
			},
			{
				"type": "unocc",
				"energy": 0.0431,
				"method": "rhf"
			},
			{
				"type": "unocc",
				"energy": 0.04652,
				"method": "rhf"
			}
		],
		"cosmo_sigma_profile": { 
			"-0.025": 0.0,
			"-0.024": 0.0,
			"-0.023": 0.0,
			"-0.022": 0.0,
			"-0.021": 0.0,
			"-0.02": 0.0,
			"-0.019": 0.0,
			"-0.018": 0.0,
			"-0.017": 0.0,
			"-0.016": 0.096444923185,
			"-0.015": 0.905960511755,
			"-0.014": 0.643386045386,
			"-0.013": 1.15842651763,
			"-0.012": 0.744754713013,
			"-0.011": 0.795057533595,
			"-0.01": 5.91574471102,
			"-0.009": 6.24789211678,
			"-0.008": 5.80056948879,
			"-0.007": 5.88914344153,
			"-0.006": 6.55880955666,
			"-0.005": 6.27761360171,
			"-0.004": 9.77312901277,
			"-0.003": 10.7395102804,
			"-0.002": 16.7005179962,
			"-0.001": 20.1054314451,
			"0.0": 21.4805959188,
			"0.001": 18.616151988,
			"0.002": 15.4669018533,
			"0.003": 14.6113198335,
			"0.004": 12.5094943442,
			"0.005": 7.35751145903,
			"0.006": 4.19475698252,
			"0.007": 3.38825386347,
			"0.008": 3.3414640293,
			"0.009": 2.56613925493,
			"0.01": 2.91613344678,
			"0.011": 2.96237701648,
			"0.012": 2.55648777942,
			"0.013": 2.66682906565,
			"0.014": 1.82049968154,
			"0.015": 1.27268566322,
			"0.016": 0.190498323384,
			"0.017": 0.0,
			"0.018": 0.0,
			"0.019": 0.0,
			"0.02": 0.0,
			"0.021": 0.0,
			"0.022": 0.0,
			"0.023": 0.0,
			"0.024": 0.0,
			"0.025": 0.0
		}
	}
}
