{
	 "smiles": "OC(=O)C(F)(F)C(F)(F)C(F)(F)C(F)(F)C(F)(C(F)(F)F)C(F)(F)F", 
	 "Tm": 286.15, 
	 "num_atms": 26, 
	 "gaussian": { 
		 "optdone": 1, 
		 "sigma_profile": "yes", 
		 "theory": "DFT", 
		 "functional": "B3LYP", 
		 "basiset": "6-31G**", 
		 "properties": { 
			 "R2extent": 6786.9389, 
			 "electric_dipole_moment_norm": 2.97284569899, 
			 "electric_quadrupole_moment_norm": 12.8847349468, 
			 "total_energy": -1953.4407409, 
			 "HOMO_LUMO_gap": 0.26354, 
			 "cosmo_polarized_energy": -8.5, 
			 "cosmo_cavitation_energy": 34.37, 
			 "cosmo_dispersion_energy": -23.08, 
			 "cosmo_repulsion_energy": 1.47, 
			 "cosmo_total_nonelectrostatic_energy": 12.76, 
			 "SMD_solvation_energy": 11.42 
		},
		"coords": [
			{
				"x": 2.0782635877,
				"y": 0.4486755805,
				"z": -3.6649718812,
				"element": "O" 
			},
			{
				"x": 1.7492829003,
				"y": 1.6971197115,
				"z": -3.3133659084,
				"element": "C" 
			},
			{
				"x": 2.3643744322,
				"y": 2.6725973052,
				"z": -3.6425533294,
				"element": "O" 
			},
			{
				"x": 0.4490595517,
				"y": 1.8161803453,
				"z": -2.4666267141,
				"element": "C" 
			},
			{
				"x": -0.420123953,
				"y": 2.6018121853,
				"z": -3.1347885459,
				"element": "F" 
			},
			{
				"x": -0.1213961313,
				"y": 0.5717848586,
				"z": -2.3286441377,
				"element": "F" 
			},
			{
				"x": 0.6283320737,
				"y": 2.4361889936,
				"z": -1.0512293473,
				"element": "C" 
			},
			{
				"x": 1.2683876595,
				"y": 3.6102731029,
				"z": -1.2038440191,
				"element": "F" 
			},
			{
				"x": -0.5969336042,
				"y": 2.6865154545,
				"z": -0.5329471079,
				"element": "F" 
			},
			{
				"x": 1.4578652576,
				"y": 1.558228199,
				"z": -0.0494834449,
				"element": "C" 
			},
			{
				"x": 2.278842182,
				"y": 2.3850508962,
				"z": 0.631119141,
				"element": "F" 
			},
			{
				"x": 2.2406428064,
				"y": 0.7139678656,
				"z": -0.7723848139,
				"element": "F" 
			},
			{
				"x": 0.7135795669,
				"y": 0.7648394432,
				"z": 1.0913527847,
				"element": "C" 
			},
			{
				"x": 1.6967069076,
				"y": 0.1040822983,
				"z": 1.7543553166,
				"element": "F" 
			},
			{
				"x": 0.211948429,
				"y": 1.7268971464,
				"z": 1.904613143,
				"element": "F" 
			},
			{
				"x": -0.4279017225,
				"y": -0.2723992427,
				"z": 0.8217865091,
				"element": "C" 
			},
			{
				"x": -1.3219007556,
				"y": 0.2376490384,
				"z": -0.0802132948,
				"element": "F" 
			},
			{
				"x": 0.0758935949,
				"y": -1.6315754313,
				"z": 0.2508584006,
				"element": "C" 
			},
			{
				"x": 0.953159054,
				"y": -1.4502997105,
				"z": -0.7525609283,
				"element": "F" 
			},
			{
				"x": 0.673860701,
				"y": -2.3500685419,
				"z": 1.207738931,
				"element": "F" 
			},
			{
				"x": -0.9555517652,
				"y": -2.3229314703,
				"z": -0.2407609676,
				"element": "F" 
			},
			{
				"x": -1.2402820809,
				"y": -0.5146014221,
				"z": 2.1424295546,
				"element": "C" 
			},
			{
				"x": -0.422022768,
				"y": -0.6982578234,
				"z": 3.1852028324,
				"element": "F" 
			},
			{
				"x": -2.0353398483,
				"y": 0.5299872017,
				"z": 2.3812294371,
				"element": "F" 
			},
			{
				"x": -2.015339107,
				"y": -1.6021546652,
				"z": 2.0158678019,
				"element": "F" 
			},
			{
				"x": 1.4559930316,
				"y": -0.1831613188,
				"z": -3.2701794113,
				"element": "H" 
			}
		],
		 "valence_orbital": [ 
			{
				"type": "occ",
				"energy": -0.39413,
				"method": "rhf"
			},
			{
				"type": "occ",
				"energy": -0.39143,
				"method": "rhf"
			},
			{
				"type": "occ",
				"energy": -0.36789,
				"method": "rhf"
			},
			{
				"type": "occ",
				"energy": -0.3496,
				"method": "rhf"
			},
			{
				"type": "occ",
				"energy": -0.30685,
				"method": "rhf"
			},
			{
				"type": "unocc",
				"energy": -0.04331,
				"method": "rhf"
			},
			{
				"type": "unocc",
				"energy": -0.00527,
				"method": "rhf"
			},
			{
				"type": "unocc",
				"energy": 0.00895,
				"method": "rhf"
			},
			{
				"type": "unocc",
				"energy": 0.03063,
				"method": "rhf"
			},
			{
				"type": "unocc",
				"energy": 0.04909,
				"method": "rhf"
			}
		],
		"cosmo_sigma_profile": { 
			"-0.025": 0.0,
			"-0.024": 0.0,
			"-0.023": 0.0,
			"-0.022": 0.0,
			"-0.021": 0.0,
			"-0.02": 0.0,
			"-0.019": 0.0,
			"-0.018": 0.0555970679667,
			"-0.017": 0.414166611067,
			"-0.016": 0.740486739981,
			"-0.015": 0.858643386897,
			"-0.014": 0.620352090488,
			"-0.013": 1.12213189597,
			"-0.012": 1.4492542937,
			"-0.011": 2.0392875349,
			"-0.01": 1.3188526393,
			"-0.009": 1.52687094399,
			"-0.008": 1.80787824433,
			"-0.007": 1.78440035547,
			"-0.006": 2.35347197184,
			"-0.005": 3.94441110802,
			"-0.004": 5.28945727553,
			"-0.003": 8.81632093791,
			"-0.002": 15.0649621205,
			"-0.001": 32.3897799792,
			"0.0": 72.5450845912,
			"0.001": 85.5802543315,
			"0.002": 7.65733586499,
			"0.003": 3.07813959905,
			"0.004": 2.81310278153,
			"0.005": 3.1701244338,
			"0.006": 3.92216321395,
			"0.007": 4.65839374036,
			"0.008": 4.12398354821,
			"0.009": 4.91183650034,
			"0.01": 2.34258302061,
			"0.011": 0.163959010342,
			"0.012": 0.0,
			"0.013": 0.0,
			"0.014": 0.0,
			"0.015": 0.0,
			"0.016": 0.0,
			"0.017": 0.0,
			"0.018": 0.0,
			"0.019": 0.0,
			"0.02": 0.0,
			"0.021": 0.0,
			"0.022": 0.0,
			"0.023": 0.0,
			"0.024": 0.0,
			"0.025": 0.0
		}
	}
}
