{
	 "smiles": "CC1=CC(C)=C(C=C1)C1=NC(=CS1)C(O)=O", 
	 "Tm": 403.15, 
	 "num_atms": 27, 
	 "gaussian": { 
		 "optdone": 1, 
		 "sigma_profile": "yes", 
		 "theory": "DFT", 
		 "functional": "B3LYP", 
		 "basiset": "6-31G**", 
		 "properties": { 
			 "R2extent": 5453.5926, 
			 "electric_dipole_moment_norm": 6.43367881931, 
			 "electric_quadrupole_moment_norm": 25.2025812021, 
			 "total_energy": -1067.31864237, 
			 "HOMO_LUMO_gap": 0.16972, 
			 "cosmo_polarized_energy": -11.97, 
			 "cosmo_cavitation_energy": 32.88, 
			 "cosmo_dispersion_energy": -24.14, 
			 "cosmo_repulsion_energy": 1.82, 
			 "cosmo_total_nonelectrostatic_energy": 10.56, 
			 "SMD_solvation_energy": 6.28 
		},
		"coords": [
			{
				"x": -0.8286988887,
				"y": 1.9242940347,
				"z": -4.0498324928,
				"element": "C" 
			},
			{
				"x": -0.733010995,
				"y": 1.0464216831,
				"z": -2.8260912213,
				"element": "C" 
			},
			{
				"x": 0.3067183095,
				"y": 1.2057218885,
				"z": -1.9038277422,
				"element": "C" 
			},
			{
				"x": 0.4239427327,
				"y": 0.439288714,
				"z": -0.7386072369,
				"element": "C" 
			},
			{
				"x": 1.595199779,
				"y": 0.6917831464,
				"z": 0.1799881816,
				"element": "C" 
			},
			{
				"x": -0.561395675,
				"y": -0.5500247322,
				"z": -0.4913183358,
				"element": "C" 
			},
			{
				"x": -1.6064594795,
				"y": -0.7164781458,
				"z": -1.4187679238,
				"element": "C" 
			},
			{
				"x": -1.6939086862,
				"y": 0.0622166318,
				"z": -2.5647950192,
				"element": "C" 
			},
			{
				"x": -0.5232066644,
				"y": -1.4213299164,
				"z": 0.6918400367,
				"element": "C" 
			},
			{
				"x": -0.018047935,
				"y": -1.1310373585,
				"z": 1.8631051578,
				"element": "N" 
			},
			{
				"x": -0.1564552608,
				"y": -2.1662262613,
				"z": 2.7599450881,
				"element": "C" 
			},
			{
				"x": -0.774564515,
				"y": -3.289724583,
				"z": 2.286844331,
				"element": "C" 
			},
			{
				"x": -1.2028448783,
				"y": -3.0644581387,
				"z": 0.6344602896,
				"element": "S" 
			},
			{
				"x": 0.3510967612,
				"y": -1.9972055538,
				"z": 4.1526534384,
				"element": "C" 
			},
			{
				"x": 0.9018793119,
				"y": -0.7879883512,
				"z": 4.3857095386,
				"element": "O" 
			},
			{
				"x": 0.2796315039,
				"y": -2.856653774,
				"z": 5.0004573695,
				"element": "O" 
			},
			{
				"x": -1.2438654914,
				"y": 1.3781579985,
				"z": -4.9023244312,
				"element": "H" 
			},
			{
				"x": 0.1502072496,
				"y": 2.3166392263,
				"z": -4.3395484581,
				"element": "H" 
			},
			{
				"x": -1.4843499724,
				"y": 2.7846046585,
				"z": -3.8655542817,
				"element": "H" 
			},
			{
				"x": 1.0685228273,
				"y": 1.9566522204,
				"z": -2.1007238456,
				"element": "H" 
			},
			{
				"x": 2.3367166696,
				"y": 1.3227242184,
				"z": -0.3170381595,
				"element": "H" 
			},
			{
				"x": 1.27892972,
				"y": 1.1976968029,
				"z": 1.0976357692,
				"element": "H" 
			},
			{
				"x": 2.0809562153,
				"y": -0.2375664675,
				"z": 0.4893908524,
				"element": "H" 
			},
			{
				"x": -2.3765767957,
				"y": -1.4576701191,
				"z": -1.2250766435,
				"element": "H" 
			},
			{
				"x": -2.5170386683,
				"y": -0.0911238812,
				"z": -3.2574021851,
				"element": "H" 
			},
			{
				"x": -0.9806948381,
				"y": -4.2007506383,
				"z": 2.8292299853,
				"element": "H" 
			},
			{
				"x": 0.835617664,
				"y": -0.2739633024,
				"z": 3.5593479385,
				"element": "H" 
			}
		],
		 "valence_orbital": [ 
			{
				"type": "occ",
				"energy": -0.30097,
				"method": "rhf"
			},
			{
				"type": "occ",
				"energy": -0.28468,
				"method": "rhf"
			},
			{
				"type": "occ",
				"energy": -0.26896,
				"method": "rhf"
			},
			{
				"type": "occ",
				"energy": -0.25952,
				"method": "rhf"
			},
			{
				"type": "occ",
				"energy": -0.23647,
				"method": "rhf"
			},
			{
				"type": "unocc",
				"energy": -0.06675,
				"method": "rhf"
			},
			{
				"type": "unocc",
				"energy": -0.03482,
				"method": "rhf"
			},
			{
				"type": "unocc",
				"energy": -0.01864,
				"method": "rhf"
			},
			{
				"type": "unocc",
				"energy": 0.00532,
				"method": "rhf"
			},
			{
				"type": "unocc",
				"energy": 0.02075,
				"method": "rhf"
			}
		],
		"cosmo_sigma_profile": { 
			"-0.025": 0.0,
			"-0.024": 0.0,
			"-0.023": 0.0,
			"-0.022": 0.0,
			"-0.021": 0.0,
			"-0.02": 0.0,
			"-0.019": 0.0,
			"-0.018": 0.0,
			"-0.017": 0.0,
			"-0.016": 0.0,
			"-0.015": 0.0,
			"-0.014": 0.0,
			"-0.013": 0.0418772468098,
			"-0.012": 0.36819536348,
			"-0.011": 1.29743624722,
			"-0.01": 2.30835885626,
			"-0.009": 2.05394296352,
			"-0.008": 2.16049087267,
			"-0.007": 2.94689064888,
			"-0.006": 6.96312910761,
			"-0.005": 14.5056605196,
			"-0.004": 22.7783392219,
			"-0.003": 21.0878626993,
			"-0.002": 26.1177126048,
			"-0.001": 31.8203940674,
			"0.0": 34.403412503,
			"0.001": 21.9888423192,
			"0.002": 13.4653293123,
			"0.003": 11.6217054169,
			"0.004": 13.3287145796,
			"0.005": 7.54721826157,
			"0.006": 2.54479687904,
			"0.007": 1.99422450962,
			"0.008": 2.98179122858,
			"0.009": 4.13802125566,
			"0.01": 4.6493818851,
			"0.011": 5.03521427251,
			"0.012": 4.95813944437,
			"0.013": 1.64887634934,
			"0.014": 0.0131796268268,
			"0.015": 0.0,
			"0.016": 0.0,
			"0.017": 0.0,
			"0.018": 0.0,
			"0.019": 0.0,
			"0.02": 0.0,
			"0.021": 0.0,
			"0.022": 0.0,
			"0.023": 0.0,
			"0.024": 0.0,
			"0.025": 0.0
		}
	}
}
