{
	 "smiles": "OC(=O)C1CCCCC1NC(=O)OCC1=CC=CC=C1", 
	 "Tm": 406.15, 
	 "num_atms": 39, 
	 "gaussian": { 
		 "optdone": 1, 
		 "sigma_profile": "yes", 
		 "theory": "DFT", 
		 "functional": "B3LYP", 
		 "basiset": "6-31G**", 
		 "properties": { 
			 "R2extent": 8084.7517, 
			 "electric_dipole_moment_norm": 6.24323259298, 
			 "electric_quadrupole_moment_norm": 27.6791790753, 
			 "total_energy": -938.72906473, 
			 "HOMO_LUMO_gap": 0.23489, 
			 "cosmo_polarized_energy": -22.05, 
			 "cosmo_cavitation_energy": 41.44, 
			 "cosmo_dispersion_energy": -28.27, 
			 "cosmo_repulsion_energy": 2.22, 
			 "cosmo_total_nonelectrostatic_energy": 15.39, 
			 "SMD_solvation_energy": 8.2 
		},
		"coords": [
			{
				"x": 2.1070550487,
				"y": -2.5829738073,
				"z": -3.1635381686,
				"element": "O" 
			},
			{
				"x": 0.9231814514,
				"y": -2.0440552394,
				"z": -3.5474803016,
				"element": "C" 
			},
			{
				"x": 0.8071890774,
				"y": -1.5765535181,
				"z": -4.6567079721,
				"element": "O" 
			},
			{
				"x": -0.1847159642,
				"y": -2.0048718537,
				"z": -2.4954765003,
				"element": "C" 
			},
			{
				"x": -1.5779406878,
				"y": -2.2182150659,
				"z": -3.1433386148,
				"element": "C" 
			},
			{
				"x": -2.7205851107,
				"y": -1.5615368773,
				"z": -2.3410956859,
				"element": "C" 
			},
			{
				"x": -2.3976655178,
				"y": -1.5454576875,
				"z": -0.8424957513,
				"element": "C" 
			},
			{
				"x": -1.1478611285,
				"y": -0.6875188958,
				"z": -0.5473871512,
				"element": "C" 
			},
			{
				"x": -0.1027655823,
				"y": -0.6729140827,
				"z": -1.6987617061,
				"element": "C" 
			},
			{
				"x": -0.2895770002,
				"y": 0.4436773691,
				"z": -2.6316732885,
				"element": "N" 
			},
			{
				"x": 0.0668443118,
				"y": 1.741953808,
				"z": -2.3734978515,
				"element": "C" 
			},
			{
				"x": 0.0847448406,
				"y": 2.6320112503,
				"z": -3.2033851316,
				"element": "O" 
			},
			{
				"x": 0.3828687513,
				"y": 1.9152402499,
				"z": -1.0592960779,
				"element": "O" 
			},
			{
				"x": 0.7407505347,
				"y": 3.272805407,
				"z": -0.6993116934,
				"element": "C" 
			},
			{
				"x": 1.1625017906,
				"y": 3.2725756631,
				"z": 0.7453465772,
				"element": "C" 
			},
			{
				"x": 2.4650372531,
				"y": 2.9004329579,
				"z": 1.1030398127,
				"element": "C" 
			},
			{
				"x": 2.856773563,
				"y": 2.8835520251,
				"z": 2.4412396312,
				"element": "C" 
			},
			{
				"x": 1.9480052261,
				"y": 3.242164483,
				"z": 3.4399822652,
				"element": "C" 
			},
			{
				"x": 0.6484141217,
				"y": 3.6160063145,
				"z": 3.0941494151,
				"element": "C" 
			},
			{
				"x": 0.2596139447,
				"y": 3.6291344107,
				"z": 1.7535943653,
				"element": "C" 
			},
			{
				"x": 2.041746671,
				"y": -2.9253437262,
				"z": -2.2609992358,
				"element": "H" 
			},
			{
				"x": -0.0074606251,
				"y": -2.7993652257,
				"z": -1.7586304243,
				"element": "H" 
			},
			{
				"x": -1.5530347235,
				"y": -1.83305612,
				"z": -4.1660825364,
				"element": "H" 
			},
			{
				"x": -1.7479419438,
				"y": -3.2980807752,
				"z": -3.2251512443,
				"element": "H" 
			},
			{
				"x": -3.6570597389,
				"y": -2.0967632719,
				"z": -2.53084881,
				"element": "H" 
			},
			{
				"x": -2.8692902319,
				"y": -0.5317128052,
				"z": -2.683991018,
				"element": "H" 
			},
			{
				"x": -2.2371404375,
				"y": -2.5772808711,
				"z": -0.5004969931,
				"element": "H" 
			},
			{
				"x": -3.248453544,
				"y": -1.1656828724,
				"z": -0.2668707057,
				"element": "H" 
			},
			{
				"x": -1.4298138408,
				"y": 0.3488012597,
				"z": -0.3507221786,
				"element": "H" 
			},
			{
				"x": -0.6552105228,
				"y": -1.0478975943,
				"z": 0.3631081257,
				"element": "H" 
			},
			{
				"x": 0.8959112935,
				"y": -0.5900467861,
				"z": -1.2509133098,
				"element": "H" 
			},
			{
				"x": -0.2908502606,
				"y": 0.23320571,
				"z": -3.6225268449,
				"element": "H" 
			},
			{
				"x": 1.5445797828,
				"y": 3.6090294735,
				"z": -1.3599801074,
				"element": "H" 
			},
			{
				"x": -0.1221039294,
				"y": 3.92342389,
				"z": -0.8692049266,
				"element": "H" 
			},
			{
				"x": 3.1739829397,
				"y": 2.625745915,
				"z": 0.3259643222,
				"element": "H" 
			},
			{
				"x": 3.8708923361,
				"y": 2.5972490222,
				"z": 2.7052173411,
				"element": "H" 
			},
			{
				"x": 2.2536496327,
				"y": 3.2348027083,
				"z": 4.4823699191,
				"element": "H" 
			},
			{
				"x": -0.060912309,
				"y": 3.8997046144,
				"z": 3.8663808498,
				"element": "H" 
			},
			{
				"x": -0.7524594724,
				"y": 3.9218105444,
				"z": 1.485271605,
				"element": "H" 
			}
		],
		 "valence_orbital": [ 
			{
				"type": "occ",
				"energy": -0.28085,
				"method": "rhf"
			},
			{
				"type": "occ",
				"energy": -0.26961,
				"method": "rhf"
			},
			{
				"type": "occ",
				"energy": -0.25597,
				"method": "rhf"
			},
			{
				"type": "occ",
				"energy": -0.2515,
				"method": "rhf"
			},
			{
				"type": "occ",
				"energy": -0.24904,
				"method": "rhf"
			},
			{
				"type": "unocc",
				"energy": -0.01415,
				"method": "rhf"
			},
			{
				"type": "unocc",
				"energy": -0.00699,
				"method": "rhf"
			},
			{
				"type": "unocc",
				"energy": -0.00379,
				"method": "rhf"
			},
			{
				"type": "unocc",
				"energy": 0.03468,
				"method": "rhf"
			},
			{
				"type": "unocc",
				"energy": 0.05502,
				"method": "rhf"
			}
		],
		"cosmo_sigma_profile": { 
			"-0.025": 0.0,
			"-0.024": 0.0,
			"-0.023": 0.0,
			"-0.022": 0.0,
			"-0.021": 0.0,
			"-0.02": 0.102379811996,
			"-0.019": 0.836899161191,
			"-0.018": 0.978474925104,
			"-0.017": 1.46069155368,
			"-0.016": 1.00626701738,
			"-0.015": 0.998492356604,
			"-0.014": 1.23194211875,
			"-0.013": 0.825865150869,
			"-0.012": 1.28237144938,
			"-0.011": 2.0116975225,
			"-0.01": 0.757106974736,
			"-0.009": 1.23972565669,
			"-0.008": 2.46027631414,
			"-0.007": 2.90911770058,
			"-0.006": 15.2292614861,
			"-0.005": 21.5754030237,
			"-0.004": 24.8703784388,
			"-0.003": 29.8849022024,
			"-0.002": 29.1818758672,
			"-0.001": 32.4164937217,
			"0.0": 27.1591640706,
			"0.001": 21.8828516055,
			"0.002": 12.0402764768,
			"0.003": 13.9213899891,
			"0.004": 13.917089105,
			"0.005": 14.5943115381,
			"0.006": 10.547518568,
			"0.007": 4.93794757199,
			"0.008": 4.1434672344,
			"0.009": 4.97537473103,
			"0.01": 5.92965261338,
			"0.011": 6.22722195953,
			"0.012": 4.78550764772,
			"0.013": 6.966518663,
			"0.014": 2.00657619045,
			"0.015": 0.0,
			"0.016": 0.0,
			"0.017": 0.0,
			"0.018": 0.0,
			"0.019": 0.0,
			"0.02": 0.0,
			"0.021": 0.0,
			"0.022": 0.0,
			"0.023": 0.0,
			"0.024": 0.0,
			"0.025": 0.0
		}
	}
}
