{
	 "smiles": "CN1C=C(C=CC1=O)[N+]([O-])=O", 
	 "Tm": 446.15, 
	 "num_atms": 17, 
	 "gaussian": { 
		 "optdone": 1, 
		 "sigma_profile": "yes", 
		 "theory": "DFT", 
		 "functional": "B3LYP", 
		 "basiset": "6-31G**", 
		 "properties": { 
			 "R2extent": 2397.7114, 
			 "electric_dipole_moment_norm": 2.56899399376, 
			 "electric_quadrupole_moment_norm": 20.3408417926, 
			 "total_energy": -567.329712872, 
			 "HOMO_LUMO_gap": 0.15678, 
			 "cosmo_polarized_energy": -13.73, 
			 "cosmo_cavitation_energy": 22.08, 
			 "cosmo_dispersion_energy": -16.37, 
			 "cosmo_repulsion_energy": 1.3, 
			 "cosmo_total_nonelectrostatic_energy": 7.01, 
			 "SMD_solvation_energy": 7.27 
		},
		"coords": [
			{
				"x": 2.6699541509,
				"y": -0.9011140102,
				"z": -2.3399664326,
				"element": "C" 
			},
			{
				"x": 1.3356003919,
				"y": -0.3541364275,
				"z": -2.0586392349,
				"element": "N" 
			},
			{
				"x": 1.1613755225,
				"y": 0.4702736236,
				"z": -1.0044796486,
				"element": "C" 
			},
			{
				"x": -0.0701225182,
				"y": 0.9978683205,
				"z": -0.7142420731,
				"element": "C" 
			},
			{
				"x": -1.1929616796,
				"y": 0.6814128794,
				"z": -1.5273125645,
				"element": "C" 
			},
			{
				"x": -1.0259144089,
				"y": -0.148803008,
				"z": -2.5918367429,
				"element": "C" 
			},
			{
				"x": 0.2591387113,
				"y": -0.7315759375,
				"z": -2.9377654638,
				"element": "C" 
			},
			{
				"x": 0.4717888086,
				"y": -1.4821117915,
				"z": -3.8802053077,
				"element": "O" 
			},
			{
				"x": -0.2017015946,
				"y": 1.8770430166,
				"z": 0.4284372765,
				"element": "N" 
			},
			{
				"x": -1.3222673897,
				"y": 2.3340193899,
				"z": 0.6624969158,
				"element": "O" 
			},
			{
				"x": 0.8097264303,
				"y": 2.1139834237,
				"z": 1.0966648208,
				"element": "O" 
			},
			{
				"x": 3.3753215981,
				"y": -0.0890496279,
				"z": -2.5333781558,
				"element": "H" 
			},
			{
				"x": 2.5795536466,
				"y": -1.5313537332,
				"z": -3.222457746,
				"element": "H" 
			},
			{
				"x": 3.0180795801,
				"y": -1.4961276228,
				"z": -1.4919298004,
				"element": "H" 
			},
			{
				"x": 2.0244466454,
				"y": 0.7038824056,
				"z": -0.3926803498,
				"element": "H" 
			},
			{
				"x": -2.1555800784,
				"y": 1.1113587584,
				"z": -1.276855557,
				"element": "H" 
			},
			{
				"x": -1.8496378163,
				"y": -0.4198696591,
				"z": -3.2410499358,
				"element": "H" 
			}
		],
		 "valence_orbital": [ 
			{
				"type": "occ",
				"energy": -0.31325,
				"method": "rhf"
			},
			{
				"type": "occ",
				"energy": -0.31156,
				"method": "rhf"
			},
			{
				"type": "occ",
				"energy": -0.29693,
				"method": "rhf"
			},
			{
				"type": "occ",
				"energy": -0.27811,
				"method": "rhf"
			},
			{
				"type": "occ",
				"energy": -0.24719,
				"method": "rhf"
			},
			{
				"type": "unocc",
				"energy": -0.09041,
				"method": "rhf"
			},
			{
				"type": "unocc",
				"energy": -0.06514,
				"method": "rhf"
			},
			{
				"type": "unocc",
				"energy": 0.0111,
				"method": "rhf"
			},
			{
				"type": "unocc",
				"energy": 0.06978,
				"method": "rhf"
			},
			{
				"type": "unocc",
				"energy": 0.09198,
				"method": "rhf"
			}
		],
		"cosmo_sigma_profile": { 
			"-0.025": 0.0,
			"-0.024": 0.0,
			"-0.023": 0.0,
			"-0.022": 0.0,
			"-0.021": 0.0,
			"-0.02": 0.0,
			"-0.019": 0.0,
			"-0.018": 0.0,
			"-0.017": 0.0,
			"-0.016": 0.0,
			"-0.015": 0.0,
			"-0.014": 0.0,
			"-0.013": 0.0,
			"-0.012": 0.0,
			"-0.011": 0.684653788301,
			"-0.01": 2.39557687489,
			"-0.009": 2.77418410928,
			"-0.008": 5.75252230301,
			"-0.007": 10.7889250229,
			"-0.006": 9.35113252841,
			"-0.005": 13.8907977658,
			"-0.004": 18.3447222119,
			"-0.003": 16.5567226047,
			"-0.002": 11.7451782199,
			"-0.001": 9.23722971795,
			"0.0": 8.50512330642,
			"0.001": 6.85377309681,
			"0.002": 5.05427191171,
			"0.003": 3.27825874885,
			"0.004": 3.84348422922,
			"0.005": 4.33662314844,
			"0.006": 3.90172978129,
			"0.007": 7.7642248293,
			"0.008": 9.47021244541,
			"0.009": 6.87316856893,
			"0.01": 5.19206589388,
			"0.011": 2.46386094748,
			"0.012": 4.23439347503,
			"0.013": 3.1371018762,
			"0.014": 0.626366185018,
			"0.015": 0.0,
			"0.016": 0.0,
			"0.017": 0.0,
			"0.018": 0.0,
			"0.019": 0.0,
			"0.02": 0.0,
			"0.021": 0.0,
			"0.022": 0.0,
			"0.023": 0.0,
			"0.024": 0.0,
			"0.025": 0.0
		}
	}
}
