{
	 "smiles": "CC1CC2C3CCC(O)(C(C)=O)C3(C)CC(O)C2(F)C2(C)C=CC(=O)C=C12", 
	 "Tm": 570.15, 
	 "num_atms": 56, 
	 "gaussian": { 
		 "optdone": 1, 
		 "sigma_profile": "yes", 
		 "theory": "DFT", 
		 "functional": "B3LYP", 
		 "basiset": "6-31G**", 
		 "properties": { 
			 "R2extent": 9480.5666, 
			 "electric_dipole_moment_norm": 4.2287915366, 
			 "electric_quadrupole_moment_norm": 31.2921499944, 
			 "total_energy": -1256.51780049, 
			 "HOMO_LUMO_gap": 0.178, 
			 "cosmo_polarized_energy": -22.37, 
			 "cosmo_cavitation_energy": 48.55, 
			 "cosmo_dispersion_energy": -33.34, 
			 "cosmo_repulsion_energy": 2.41, 
			 "cosmo_total_nonelectrostatic_energy": 17.62, 
			 "SMD_solvation_energy": 9.12 
		},
		"coords": [
			{
				"x": 1.5356369971,
				"y": 2.4163448662,
				"z": 2.891890289,
				"element": "C" 
			},
			{
				"x": 0.9603942792,
				"y": 1.0809765187,
				"z": 2.4072320195,
				"element": "C" 
			},
			{
				"x": 1.5950211437,
				"y": 0.6694022884,
				"z": 1.0544961914,
				"element": "C" 
			},
			{
				"x": 1.0991700661,
				"y": -0.7141240921,
				"z": 0.5861210607,
				"element": "C" 
			},
			{
				"x": 1.7580090218,
				"y": -1.3685893984,
				"z": -0.6687934731,
				"element": "C" 
			},
			{
				"x": 3.2927277266,
				"y": -1.2150963171,
				"z": -0.7770306877,
				"element": "C" 
			},
			{
				"x": 3.5895406412,
				"y": -1.4013203492,
				"z": -2.267197431,
				"element": "C" 
			},
			{
				"x": 2.433013609,
				"y": -0.7168721116,
				"z": -3.0244314759,
				"element": "C" 
			},
			{
				"x": 2.2900987721,
				"y": -1.3257994259,
				"z": -4.2896274012,
				"element": "O" 
			},
			{
				"x": 2.6757667397,
				"y": 0.7907452783,
				"z": -3.3103311919,
				"element": "C" 
			},
			{
				"x": 3.4138984635,
				"y": 1.696219241,
				"z": -2.349181707,
				"element": "C" 
			},
			{
				"x": 2.2779230738,
				"y": 1.2307059388,
				"z": -4.3794922403,
				"element": "O" 
			},
			{
				"x": 1.1553120978,
				"y": -0.9741788898,
				"z": -2.0712835784,
				"element": "C" 
			},
			{
				"x": 0.364952934,
				"y": -2.1598790855,
				"z": -2.6635630387,
				"element": "C" 
			},
			{
				"x": 0.2235591673,
				"y": 0.2446695594,
				"z": -1.9386890495,
				"element": "C" 
			},
			{
				"x": -0.8614091314,
				"y": 0.1520941382,
				"z": -0.8381524454,
				"element": "C" 
			},
			{
				"x": -1.2117060613,
				"y": 1.4739237068,
				"z": -0.4377551893,
				"element": "O" 
			},
			{
				"x": -0.4270797151,
				"y": -0.658583231,
				"z": 0.4233918497,
				"element": "C" 
			},
			{
				"x": -0.8622600344,
				"y": -1.9850171518,
				"z": 0.1590482991,
				"element": "F" 
			},
			{
				"x": -1.1581708955,
				"y": -0.2375071457,
				"z": 1.7493320756,
				"element": "C" 
			},
			{
				"x": -0.9879263843,
				"y": -1.373929796,
				"z": 2.8159329724,
				"element": "C" 
			},
			{
				"x": -2.6488747472,
				"y": -0.1527876747,
				"z": 1.5261541395,
				"element": "C" 
			},
			{
				"x": -3.414399574,
				"y": 0.8476182745,
				"z": 1.9788216476,
				"element": "C" 
			},
			{
				"x": -2.8223108162,
				"y": 2.0173093194,
				"z": 2.6572282825,
				"element": "C" 
			},
			{
				"x": -3.5135178732,
				"y": 2.9377569889,
				"z": 3.0911812794,
				"element": "O" 
			},
			{
				"x": -1.3512583077,
				"y": 2.0322001171,
				"z": 2.7696565721,
				"element": "C" 
			},
			{
				"x": -0.5580304211,
				"y": 1.0413838165,
				"z": 2.320775025,
				"element": "C" 
			},
			{
				"x": 1.1835444954,
				"y": 2.6692068659,
				"z": 3.8958764175,
				"element": "H" 
			},
			{
				"x": 1.2603188512,
				"y": 3.2360318736,
				"z": 2.2200925036,
				"element": "H" 
			},
			{
				"x": 2.6283863031,
				"y": 2.3623298893,
				"z": 2.9291547207,
				"element": "H" 
			},
			{
				"x": 1.2620725596,
				"y": 0.3128832038,
				"z": 3.1371260734,
				"element": "H" 
			},
			{
				"x": 2.6816355118,
				"y": 0.6503765086,
				"z": 1.1845277583,
				"element": "H" 
			},
			{
				"x": 1.3686647494,
				"y": 1.4498365069,
				"z": 0.3205769566,
				"element": "H" 
			},
			{
				"x": 1.310254724,
				"y": -1.404957751,
				"z": 1.4108841368,
				"element": "H" 
			},
			{
				"x": 1.5577897267,
				"y": -2.4381713813,
				"z": -0.552734199,
				"element": "H" 
			},
			{
				"x": 3.6235799537,
				"y": -0.2266594042,
				"z": -0.4478016664,
				"element": "H" 
			},
			{
				"x": 3.8221397112,
				"y": -1.9419552968,
				"z": -0.1520892481,
				"element": "H" 
			},
			{
				"x": 3.5501318961,
				"y": -2.4613321856,
				"z": -2.5393274813,
				"element": "H" 
			},
			{
				"x": 4.5742822374,
				"y": -1.0336758608,
				"z": -2.5733987727,
				"element": "H" 
			},
			{
				"x": 2.02271977,
				"y": -0.6077427817,
				"z": -4.891550516,
				"element": "H" 
			},
			{
				"x": 4.442363162,
				"y": 1.3434597253,
				"z": -2.215047827,
				"element": "H" 
			},
			{
				"x": 2.9505399841,
				"y": 1.7144374309,
				"z": -1.3600589045,
				"element": "H" 
			},
			{
				"x": 3.4311806852,
				"y": 2.7048805334,
				"z": -2.7642719319,
				"element": "H" 
			},
			{
				"x": 1.0099067122,
				"y": -3.0297932547,
				"z": -2.8128643607,
				"element": "H" 
			},
			{
				"x": -0.4421362729,
				"y": -2.4461164593,
				"z": -1.9879242558,
				"element": "H" 
			},
			{
				"x": -0.0563372045,
				"y": -1.9033026948,
				"z": -3.6383016886,
				"element": "H" 
			},
			{
				"x": 0.7955716004,
				"y": 1.1439269953,
				"z": -1.6970108957,
				"element": "H" 
			},
			{
				"x": -0.2653078996,
				"y": 0.4495318167,
				"z": -2.8995527248,
				"element": "H" 
			},
			{
				"x": -1.7456413899,
				"y": -0.376163287,
				"z": -1.217607415,
				"element": "H" 
			},
			{
				"x": -1.6593913045,
				"y": 1.9023043646,
				"z": -1.1782900514,
				"element": "H" 
			},
			{
				"x": -1.400314344,
				"y": -2.3113570929,
				"z": 2.4394821668,
				"element": "H" 
			},
			{
				"x": 0.057522054,
				"y": -1.5458899457,
				"z": 3.0805824321,
				"element": "H" 
			},
			{
				"x": -1.5254946115,
				"y": -1.0891432708,
				"z": 3.7231303,
				"element": "H" 
			},
			{
				"x": -3.0931256847,
				"y": -1.0132568146,
				"z": 1.0299696562,
				"element": "H" 
			},
			{
				"x": -4.4940174858,
				"y": 0.8510267029,
				"z": 1.8586746513,
				"element": "H" 
			},
			{
				"x": -0.9443192615,
				"y": 2.9298196804,
				"z": 3.2227213716,
				"element": "H" 
			}
		],
		 "valence_orbital": [ 
			{
				"type": "occ",
				"energy": -0.27257,
				"method": "rhf"
			},
			{
				"type": "occ",
				"energy": -0.2622,
				"method": "rhf"
			},
			{
				"type": "occ",
				"energy": -0.25478,
				"method": "rhf"
			},
			{
				"type": "occ",
				"energy": -0.24723,
				"method": "rhf"
			},
			{
				"type": "occ",
				"energy": -0.22866,
				"method": "rhf"
			},
			{
				"type": "unocc",
				"energy": -0.05066,
				"method": "rhf"
			},
			{
				"type": "unocc",
				"energy": -0.03614,
				"method": "rhf"
			},
			{
				"type": "unocc",
				"energy": 0.00058,
				"method": "rhf"
			},
			{
				"type": "unocc",
				"energy": 0.04977,
				"method": "rhf"
			},
			{
				"type": "unocc",
				"energy": 0.06184,
				"method": "rhf"
			}
		],
		"cosmo_sigma_profile": { 
			"-0.025": 0.0,
			"-0.024": 0.0,
			"-0.023": 0.0,
			"-0.022": 0.0,
			"-0.021": 0.0,
			"-0.02": 0.0,
			"-0.019": 0.0,
			"-0.018": 0.0,
			"-0.017": 0.0,
			"-0.016": 0.704183131367,
			"-0.015": 0.963230247249,
			"-0.014": 1.3121833805,
			"-0.013": 1.09242471963,
			"-0.012": 1.37383500177,
			"-0.011": 0.654462498426,
			"-0.01": 0.922179886716,
			"-0.009": 1.31155086883,
			"-0.008": 1.80066822728,
			"-0.007": 5.27402735299,
			"-0.006": 11.9679173883,
			"-0.005": 19.4084191244,
			"-0.004": 31.0739749482,
			"-0.003": 46.7079872921,
			"-0.002": 50.2361343138,
			"-0.001": 39.1357403649,
			"0.0": 32.7684544939,
			"0.001": 24.3052729218,
			"0.002": 18.1699194179,
			"0.003": 14.1403264791,
			"0.004": 9.27528372614,
			"0.005": 8.96768671069,
			"0.006": 7.70020836521,
			"0.007": 6.35532483379,
			"0.008": 4.96941383504,
			"0.009": 5.57897780409,
			"0.01": 6.09455605154,
			"0.011": 5.83203687838,
			"0.012": 5.20904031392,
			"0.013": 5.3582674917,
			"0.014": 5.53299902724,
			"0.015": 1.86084971851,
			"0.016": 0.019856971616,
			"0.017": 0.0,
			"0.018": 0.0,
			"0.019": 0.0,
			"0.02": 0.0,
			"0.021": 0.0,
			"0.022": 0.0,
			"0.023": 0.0,
			"0.024": 0.0,
			"0.025": 0.0
		}
	}
}
