{
	 "smiles": "FC1=CC=C(C=C1)C1=NN=C(Cl)C=C1", 
	 "Tm": 433.15, 
	 "num_atms": 20, 
	 "gaussian": { 
		 "optdone": 1, 
		 "sigma_profile": "yes", 
		 "theory": "DFT", 
		 "functional": "B3LYP", 
		 "basiset": "6-31G**", 
		 "properties": { 
			 "R2extent": 6132.4445, 
			 "electric_dipole_moment_norm": 3.99413208845, 
			 "electric_quadrupole_moment_norm": 18.7578948806, 
			 "total_energy": -1054.17101008, 
			 "HOMO_LUMO_gap": 0.17534, 
			 "cosmo_polarized_energy": -11.47, 
			 "cosmo_cavitation_energy": 27.43, 
			 "cosmo_dispersion_energy": -20.46, 
			 "cosmo_repulsion_energy": 1.56, 
			 "cosmo_total_nonelectrostatic_energy": 8.53, 
			 "SMD_solvation_energy": 3.25 
		},
		"coords": [
			{
				"x": 1.6263848595,
				"y": 3.6169770525,
				"z": 0.158648682,
				"element": "F" 
			},
			{
				"x": 1.3128616008,
				"y": 2.3884909104,
				"z": -0.2952247367,
				"element": "C" 
			},
			{
				"x": 2.1995908985,
				"y": 1.7333066095,
				"z": -1.1443241338,
				"element": "C" 
			},
			{
				"x": 1.8703537898,
				"y": 0.464394632,
				"z": -1.6085157724,
				"element": "C" 
			},
			{
				"x": 0.6667975075,
				"y": -0.1559686842,
				"z": -1.2274335749,
				"element": "C" 
			},
			{
				"x": -0.2068107989,
				"y": 0.5401831313,
				"z": -0.3757099785,
				"element": "C" 
			},
			{
				"x": 0.1094550104,
				"y": 1.8123234369,
				"z": 0.0954112238,
				"element": "C" 
			},
			{
				"x": 0.3450358059,
				"y": -1.5114911047,
				"z": -1.7347839247,
				"element": "C" 
			},
			{
				"x": 1.0347594605,
				"y": -1.9173257799,
				"z": -2.814887638,
				"element": "N" 
			},
			{
				"x": 0.8258855743,
				"y": -3.1190181979,
				"z": -3.3484439436,
				"element": "N" 
			},
			{
				"x": -0.082832249,
				"y": -3.9162157089,
				"z": -2.8107629534,
				"element": "C" 
			},
			{
				"x": -0.3064914021,
				"y": -5.4710666487,
				"z": -3.582358831,
				"element": "Cl" 
			},
			{
				"x": -0.843882052,
				"y": -3.590333138,
				"z": -1.6811679132,
				"element": "C" 
			},
			{
				"x": -0.612431219,
				"y": -2.3500174478,
				"z": -1.1256282102,
				"element": "C" 
			},
			{
				"x": 3.1278437633,
				"y": 2.2177798836,
				"z": -1.4269566252,
				"element": "H" 
			},
			{
				"x": 2.5399247666,
				"y": -0.0662608695,
				"z": -2.2750094582,
				"element": "H" 
			},
			{
				"x": -1.1590632894,
				"y": 0.1058080792,
				"z": -0.0887821402,
				"element": "H" 
			},
			{
				"x": -0.5617610585,
				"y": 2.3603242801,
				"z": 0.7473615701,
				"element": "H" 
			},
			{
				"x": -1.561701158,
				"y": -4.2893927187,
				"z": -1.2678596947,
				"element": "H" 
			},
			{
				"x": -1.1416198102,
				"y": -2.0418977172,
				"z": -0.2308719473,
				"element": "H" 
			}
		],
		 "valence_orbital": [ 
			{
				"type": "occ",
				"energy": -0.32248,
				"method": "rhf"
			},
			{
				"type": "occ",
				"energy": -0.29525,
				"method": "rhf"
			},
			{
				"type": "occ",
				"energy": -0.2726,
				"method": "rhf"
			},
			{
				"type": "occ",
				"energy": -0.24796,
				"method": "rhf"
			},
			{
				"type": "occ",
				"energy": -0.24269,
				"method": "rhf"
			},
			{
				"type": "unocc",
				"energy": -0.06735,
				"method": "rhf"
			},
			{
				"type": "unocc",
				"energy": -0.05998,
				"method": "rhf"
			},
			{
				"type": "unocc",
				"energy": -0.02079,
				"method": "rhf"
			},
			{
				"type": "unocc",
				"energy": 0.012,
				"method": "rhf"
			},
			{
				"type": "unocc",
				"energy": 0.02266,
				"method": "rhf"
			}
		],
		"cosmo_sigma_profile": { 
			"-0.025": 0.0,
			"-0.024": 0.0,
			"-0.023": 0.0,
			"-0.022": 0.0,
			"-0.021": 0.0,
			"-0.02": 0.0,
			"-0.019": 0.0,
			"-0.018": 0.0,
			"-0.017": 0.0,
			"-0.016": 0.0,
			"-0.015": 0.0,
			"-0.014": 0.0,
			"-0.013": 0.0,
			"-0.012": 0.0,
			"-0.011": 0.12649087677,
			"-0.01": 2.71669347269,
			"-0.009": 5.15763294349,
			"-0.008": 6.69883554458,
			"-0.007": 7.77491098681,
			"-0.006": 10.0548569266,
			"-0.005": 9.04757669095,
			"-0.004": 9.20182524839,
			"-0.003": 14.3109651516,
			"-0.002": 17.8911978897,
			"-0.001": 17.7590563613,
			"0.0": 18.6647674258,
			"0.001": 17.1237084921,
			"0.002": 18.6467787767,
			"0.003": 26.4154548154,
			"0.004": 19.5288555957,
			"0.005": 4.39171780443,
			"0.006": 2.45727013281,
			"0.007": 2.40228383528,
			"0.008": 2.42338359127,
			"0.009": 1.89843335501,
			"0.01": 1.8845286382,
			"0.011": 2.28896573352,
			"0.012": 2.63783036257,
			"0.013": 2.08718984855,
			"0.014": 0.831307020488,
			"0.015": 0.231001237089,
			"0.016": 0.0,
			"0.017": 0.0,
			"0.018": 0.0,
			"0.019": 0.0,
			"0.02": 0.0,
			"0.021": 0.0,
			"0.022": 0.0,
			"0.023": 0.0,
			"0.024": 0.0,
			"0.025": 0.0
		}
	}
}
