{
	 "smiles": "ClC1=CC=C(CC2CCC(=O)NC2=O)C=C1", 
	 "Tm": 424.15, 
	 "num_atms": 28, 
	 "gaussian": { 
		 "optdone": 1, 
		 "sigma_profile": "yes", 
		 "theory": "DFT", 
		 "functional": "B3LYP", 
		 "basiset": "6-31G**", 
		 "properties": { 
			 "R2extent": 5944.5522, 
			 "electric_dipole_moment_norm": 3.75917278799, 
			 "electric_quadrupole_moment_norm": 17.0190859978, 
			 "total_energy": -1129.94111294, 
			 "HOMO_LUMO_gap": 0.20838, 
			 "cosmo_polarized_energy": -17.21, 
			 "cosmo_cavitation_energy": 33.42, 
			 "cosmo_dispersion_energy": -23.69, 
			 "cosmo_repulsion_energy": 1.86, 
			 "cosmo_total_nonelectrostatic_energy": 11.58, 
			 "SMD_solvation_energy": 6.07 
		},
		"coords": [
			{
				"x": -4.7633815792,
				"y": -1.112101629,
				"z": -3.1703106272,
				"element": "Cl" 
			},
			{
				"x": -3.219697425,
				"y": -1.0139533473,
				"z": -2.3338016714,
				"element": "C" 
			},
			{
				"x": -3.0671294013,
				"y": -0.1206071272,
				"z": -1.27541009,
				"element": "C" 
			},
			{
				"x": -1.8404354508,
				"y": -0.0543699312,
				"z": -0.6153297492,
				"element": "C" 
			},
			{
				"x": -0.764943821,
				"y": -0.8654495852,
				"z": -0.9957978074,
				"element": "C" 
			},
			{
				"x": 0.5681365097,
				"y": -0.7916333641,
				"z": -0.2831530889,
				"element": "C" 
			},
			{
				"x": 1.637054181,
				"y": 0.0971085878,
				"z": -0.9924489341,
				"element": "C" 
			},
			{
				"x": 3.0464063813,
				"y": -0.0969529545,
				"z": -0.4041563262,
				"element": "C" 
			},
			{
				"x": 3.165879025,
				"y": 0.4876918965,
				"z": 1.008537639,
				"element": "C" 
			},
			{
				"x": 2.6767199206,
				"y": 1.9223486195,
				"z": 1.0995269348,
				"element": "C" 
			},
			{
				"x": 3.0347445908,
				"y": 2.709857586,
				"z": 1.9537234226,
				"element": "O" 
			},
			{
				"x": 1.7479822682,
				"y": 2.3033321924,
				"z": 0.1280810732,
				"element": "N" 
			},
			{
				"x": 1.2282909533,
				"y": 1.5637242709,
				"z": -0.940693101,
				"element": "C" 
			},
			{
				"x": 0.4753270508,
				"y": 2.0897783375,
				"z": -1.737326241,
				"element": "O" 
			},
			{
				"x": -0.9508596129,
				"y": -1.7556980129,
				"z": -2.061792438,
				"element": "C" 
			},
			{
				"x": -2.1681823702,
				"y": -1.8366869687,
				"z": -2.7358108051,
				"element": "C" 
			},
			{
				"x": -3.8942083862,
				"y": 0.5120549311,
				"z": -0.9732266446,
				"element": "H" 
			},
			{
				"x": -1.7239340944,
				"y": 0.6434392893,
				"z": 0.2093526215,
				"element": "H" 
			},
			{
				"x": 0.4160193522,
				"y": -0.4378655098,
				"z": 0.7426513599,
				"element": "H" 
			},
			{
				"x": 0.9930529647,
				"y": -1.7998172238,
				"z": -0.2051466332,
				"element": "H" 
			},
			{
				"x": 1.6390574771,
				"y": -0.1682941035,
				"z": -2.0538037656,
				"element": "H" 
			},
			{
				"x": 3.7766019001,
				"y": 0.3922930673,
				"z": -1.0598401969,
				"element": "H" 
			},
			{
				"x": 3.3000471296,
				"y": -1.1622116414,
				"z": -0.392672879,
				"element": "H" 
			},
			{
				"x": 4.1960768587,
				"y": 0.4781078193,
				"z": 1.3725238937,
				"element": "H" 
			},
			{
				"x": 2.579452644,
				"y": -0.0990337092,
				"z": 1.7272819372,
				"element": "H" 
			},
			{
				"x": 1.4420367454,
				"y": 3.2706024436,
				"z": 0.1743311714,
				"element": "H" 
			},
			{
				"x": -0.1339132036,
				"y": -2.4035602758,
				"z": -2.370986359,
				"element": "H" 
			},
			{
				"x": -2.3037006082,
				"y": -2.5313036578,
				"z": -3.5574026955,
				"element": "H" 
			}
		],
		 "valence_orbital": [ 
			{
				"type": "occ",
				"energy": -0.28927,
				"method": "rhf"
			},
			{
				"type": "occ",
				"energy": -0.28385,
				"method": "rhf"
			},
			{
				"type": "occ",
				"energy": -0.26416,
				"method": "rhf"
			},
			{
				"type": "occ",
				"energy": -0.26321,
				"method": "rhf"
			},
			{
				"type": "occ",
				"energy": -0.2416,
				"method": "rhf"
			},
			{
				"type": "unocc",
				"energy": -0.03322,
				"method": "rhf"
			},
			{
				"type": "unocc",
				"energy": -0.01692,
				"method": "rhf"
			},
			{
				"type": "unocc",
				"energy": -0.01472,
				"method": "rhf"
			},
			{
				"type": "unocc",
				"energy": 0.02714,
				"method": "rhf"
			},
			{
				"type": "unocc",
				"energy": 0.03072,
				"method": "rhf"
			}
		],
		"cosmo_sigma_profile": { 
			"-0.025": 0.0,
			"-0.024": 0.0,
			"-0.023": 0.0,
			"-0.022": 0.0,
			"-0.021": 0.0,
			"-0.02": 0.0,
			"-0.019": 0.0,
			"-0.018": 0.0,
			"-0.017": 0.0,
			"-0.016": 0.0,
			"-0.015": 0.558439664367,
			"-0.014": 0.868885299041,
			"-0.013": 0.64357880269,
			"-0.012": 1.16390192779,
			"-0.011": 0.511759708078,
			"-0.01": 0.733844613201,
			"-0.009": 0.736649355778,
			"-0.008": 1.63766400195,
			"-0.007": 8.56095213749,
			"-0.006": 21.1406113172,
			"-0.005": 29.5102663722,
			"-0.004": 24.4739018858,
			"-0.003": 20.3584200042,
			"-0.002": 17.2426703447,
			"-0.001": 14.0690733071,
			"0.0": 10.6827304477,
			"0.001": 11.9359337627,
			"0.002": 16.7092333205,
			"0.003": 15.9212862012,
			"0.004": 17.7925233921,
			"0.005": 14.0079074759,
			"0.006": 3.8409009907,
			"0.007": 2.77642548193,
			"0.008": 2.75409288456,
			"0.009": 3.39248811299,
			"0.01": 4.16941533065,
			"0.011": 5.78188223283,
			"0.012": 10.1492591458,
			"0.013": 4.28642885481,
			"0.014": 0.286653174986,
			"0.015": 0.0,
			"0.016": 0.0,
			"0.017": 0.0,
			"0.018": 0.0,
			"0.019": 0.0,
			"0.02": 0.0,
			"0.021": 0.0,
			"0.022": 0.0,
			"0.023": 0.0,
			"0.024": 0.0,
			"0.025": 0.0
		}
	}
}
