{
	 "smiles": "COC(=O)C1=CC=C(C=C1[N+]([O-])=O)C(O)=O", 
	 "Tm": 448.15, 
	 "num_atms": 23, 
	 "gaussian": { 
		 "optdone": 1, 
		 "sigma_profile": "yes", 
		 "theory": "DFT", 
		 "functional": "B3LYP", 
		 "basiset": "6-31G**", 
		 "properties": { 
			 "R2extent": 4412.4508, 
			 "electric_dipole_moment_norm": 4.70136018829, 
			 "electric_quadrupole_moment_norm": 20.6512225001, 
			 "total_energy": -853.170955625, 
			 "HOMO_LUMO_gap": 0.18023, 
			 "cosmo_polarized_energy": -21.36, 
			 "cosmo_cavitation_energy": 29.82, 
			 "cosmo_dispersion_energy": -21.03, 
			 "cosmo_repulsion_energy": 1.64, 
			 "cosmo_total_nonelectrostatic_energy": 10.42, 
			 "SMD_solvation_energy": 10.05 
		},
		"coords": [
			{
				"x": 0.2341337918,
				"y": -3.1419290601,
				"z": -1.9539838873,
				"element": "C" 
			},
			{
				"x": 0.5307794502,
				"y": -1.9879629939,
				"z": -1.1433919377,
				"element": "O" 
			},
			{
				"x": -0.4244308818,
				"y": -1.0490416539,
				"z": -1.1059700298,
				"element": "C" 
			},
			{
				"x": -1.5291058287,
				"y": -1.1560921412,
				"z": -1.590877119,
				"element": "O" 
			},
			{
				"x": -0.0040078096,
				"y": 0.1362518114,
				"z": -0.2801426434,
				"element": "C" 
			},
			{
				"x": -0.9048711948,
				"y": 0.5899266742,
				"z": 0.6869965018,
				"element": "C" 
			},
			{
				"x": -0.5757054526,
				"y": 1.6487431824,
				"z": 1.5311280262,
				"element": "C" 
			},
			{
				"x": 0.671814199,
				"y": 2.27693695,
				"z": 1.4288792902,
				"element": "C" 
			},
			{
				"x": 1.5875738677,
				"y": 1.8273454451,
				"z": 0.4715483375,
				"element": "C" 
			},
			{
				"x": 1.2324086165,
				"y": 0.7910312359,
				"z": -0.3803635024,
				"element": "C" 
			},
			{
				"x": 2.1801446795,
				"y": 0.4567462981,
				"z": -1.4619919255,
				"element": "N" 
			},
			{
				"x": 1.7002357586,
				"y": 0.1037068732,
				"z": -2.5365584471,
				"element": "O" 
			},
			{
				"x": 3.3759719103,
				"y": 0.5973785798,
				"z": -1.2247966869,
				"element": "O" 
			},
			{
				"x": 1.1085722243,
				"y": 3.4046755491,
				"z": 2.3235791095,
				"element": "C" 
			},
			{
				"x": 0.1290463599,
				"y": 4.1137928129,
				"z": 2.938528005,
				"element": "O" 
			},
			{
				"x": 2.2694108169,
				"y": 3.6791945297,
				"z": 2.5047915694,
				"element": "O" 
			},
			{
				"x": -0.6889408005,
				"y": -3.6182714305,
				"z": -1.6168710682,
				"element": "H" 
			},
			{
				"x": 0.128365305,
				"y": -2.8453382679,
				"z": -2.9999651487,
				"element": "H" 
			},
			{
				"x": 1.0846975333,
				"y": -3.810520317,
				"z": -1.8292340293,
				"element": "H" 
			},
			{
				"x": -1.8645737973,
				"y": 0.0922815259,
				"z": 0.7730131802,
				"element": "H" 
			},
			{
				"x": -1.2897229983,
				"y": 1.948453581,
				"z": 2.2935972866,
				"element": "H" 
			},
			{
				"x": 2.5598889734,
				"y": 2.2972438099,
				"z": 0.3878855242,
				"element": "H" 
			},
			{
				"x": -0.7374847228,
				"y": 3.900747006,
				"z": 2.5655995947,
				"element": "H" 
			}
		],
		 "valence_orbital": [ 
			{
				"type": "occ",
				"energy": -0.31468,
				"method": "rhf"
			},
			{
				"type": "occ",
				"energy": -0.31018,
				"method": "rhf"
			},
			{
				"type": "occ",
				"energy": -0.29793,
				"method": "rhf"
			},
			{
				"type": "occ",
				"energy": -0.29415,
				"method": "rhf"
			},
			{
				"type": "occ",
				"energy": -0.28699,
				"method": "rhf"
			},
			{
				"type": "unocc",
				"energy": -0.10676,
				"method": "rhf"
			},
			{
				"type": "unocc",
				"energy": -0.0814,
				"method": "rhf"
			},
			{
				"type": "unocc",
				"energy": -0.03778,
				"method": "rhf"
			},
			{
				"type": "unocc",
				"energy": -0.00994,
				"method": "rhf"
			},
			{
				"type": "unocc",
				"energy": 0.03831,
				"method": "rhf"
			}
		],
		"cosmo_sigma_profile": { 
			"-0.025": 0.0,
			"-0.024": 0.0,
			"-0.023": 0.0,
			"-0.022": 0.0,
			"-0.021": 0.0144536461051,
			"-0.02": 0.652848749077,
			"-0.019": 1.00400025782,
			"-0.018": 0.984021853805,
			"-0.017": 1.18378080397,
			"-0.016": 0.735460255845,
			"-0.015": 0.999882548247,
			"-0.014": 1.00194718217,
			"-0.013": 1.41257503547,
			"-0.012": 1.52375390382,
			"-0.011": 1.40161069694,
			"-0.01": 1.97587706667,
			"-0.009": 3.72498416324,
			"-0.008": 5.48759403088,
			"-0.007": 8.77758164604,
			"-0.006": 12.8326145022,
			"-0.005": 13.2911027382,
			"-0.004": 18.5285558239,
			"-0.003": 15.9789642231,
			"-0.002": 18.6363213264,
			"-0.001": 16.4699541406,
			"0.0": 10.2665986846,
			"0.001": 8.42029167932,
			"0.002": 8.00448271542,
			"0.003": 9.11113838225,
			"0.004": 7.55935200439,
			"0.005": 9.19884616573,
			"0.006": 10.1212613328,
			"0.007": 12.5241932139,
			"0.008": 8.60439005057,
			"0.009": 8.89450895443,
			"0.01": 8.4691812037,
			"0.011": 9.01521572411,
			"0.012": 2.20547768376,
			"0.013": 0.155705554557,
			"0.014": 0.0,
			"0.015": 0.0,
			"0.016": 0.0,
			"0.017": 0.0,
			"0.018": 0.0,
			"0.019": 0.0,
			"0.02": 0.0,
			"0.021": 0.0,
			"0.022": 0.0,
			"0.023": 0.0,
			"0.024": 0.0,
			"0.025": 0.0
		}
	}
}
