{
	 "smiles": "CC(=O)C1(C)CCC2C3CCC4=CC(=O)CCC4=C3CCC12C", 
	 "Tm": 379.15, 
	 "num_atms": 51, 
	 "gaussian": { 
		 "optdone": 1, 
		 "sigma_profile": "yes", 
		 "theory": "DFT", 
		 "functional": "B3LYP", 
		 "basiset": "6-31G**", 
		 "properties": { 
			 "R2extent": 9486.5314, 
			 "electric_dipole_moment_norm": 3.65267665966, 
			 "electric_quadrupole_moment_norm": 42.5599483665, 
			 "total_energy": -967.558352891, 
			 "HOMO_LUMO_gap": 0.16288, 
			 "cosmo_polarized_energy": -16.02, 
			 "cosmo_cavitation_energy": 45.42, 
			 "cosmo_dispersion_energy": -32.22, 
			 "cosmo_repulsion_energy": 2.38, 
			 "cosmo_total_nonelectrostatic_energy": 15.58, 
			 "SMD_solvation_energy": 7.28 
		},
		"coords": [
			{
				"x": -0.2885302145,
				"y": 3.4606242146,
				"z": -3.7358784141,
				"element": "C" 
			},
			{
				"x": 0.8892661295,
				"y": 2.9910981305,
				"z": -2.8919073531,
				"element": "C" 
			},
			{
				"x": 1.7838903212,
				"y": 3.7748205034,
				"z": -2.6284911084,
				"element": "O" 
			},
			{
				"x": 0.9167528537,
				"y": 1.5245020513,
				"z": -2.4013240392,
				"element": "C" 
			},
			{
				"x": 0.5199705981,
				"y": 0.6009505675,
				"z": -3.5758844277,
				"element": "C" 
			},
			{
				"x": 2.3420901163,
				"y": 1.1412614539,
				"z": -1.8795840159,
				"element": "C" 
			},
			{
				"x": 2.1684357257,
				"y": 0.3610894347,
				"z": -0.5493466545,
				"element": "C" 
			},
			{
				"x": 0.6624021958,
				"y": 0.0738540084,
				"z": -0.4713947379,
				"element": "C" 
			},
			{
				"x": 0.0816877848,
				"y": -0.3477379466,
				"z": 0.8928479931,
				"element": "C" 
			},
			{
				"x": 0.7538252649,
				"y": -1.6409520462,
				"z": 1.3754026106,
				"element": "C" 
			},
			{
				"x": 0.0749401818,
				"y": -2.172874334,
				"z": 2.631380702,
				"element": "C" 
			},
			{
				"x": -1.4087092058,
				"y": -2.3692624998,
				"z": 2.4301824949,
				"element": "C" 
			},
			{
				"x": -2.0608374398,
				"y": -3.3288180624,
				"z": 3.1399971209,
				"element": "C" 
			},
			{
				"x": -3.5207988905,
				"y": -3.4474935104,
				"z": 3.2064710604,
				"element": "C" 
			},
			{
				"x": -4.0817484267,
				"y": -4.3685314555,
				"z": 3.7880376667,
				"element": "O" 
			},
			{
				"x": -4.2856654021,
				"y": -2.2885244462,
				"z": 2.5882207662,
				"element": "C" 
			},
			{
				"x": -3.5986082947,
				"y": -1.7484498586,
				"z": 1.3270535881,
				"element": "C" 
			},
			{
				"x": -2.1095150004,
				"y": -1.468008649,
				"z": 1.5045965914,
				"element": "C" 
			},
			{
				"x": -1.4421378978,
				"y": -0.497887533,
				"z": 0.8156017446,
				"element": "C" 
			},
			{
				"x": -2.1703476652,
				"y": 0.544532097,
				"z": -0.0206955399,
				"element": "C" 
			},
			{
				"x": -1.4780227603,
				"y": 0.9673027176,
				"z": -1.3362638809,
				"element": "C" 
			},
			{
				"x": -0.0004627154,
				"y": 1.3212157622,
				"z": -1.1091359907,
				"element": "C" 
			},
			{
				"x": 0.1154937427,
				"y": 2.5700066678,
				"z": -0.2026791557,
				"element": "C" 
			},
			{
				"x": -0.2953581207,
				"y": 4.5514600131,
				"z": -3.7515094964,
				"element": "H" 
			},
			{
				"x": -1.2469570589,
				"y": 3.0819625006,
				"z": -3.3705007574,
				"element": "H" 
			},
			{
				"x": -0.1728898458,
				"y": 3.1004943901,
				"z": -4.7647560936,
				"element": "H" 
			},
			{
				"x": 1.2256473321,
				"y": 0.7282315504,
				"z": -4.4043213502,
				"element": "H" 
			},
			{
				"x": -0.4834389214,
				"y": 0.8001013345,
				"z": -3.9601970323,
				"element": "H" 
			},
			{
				"x": 0.559812495,
				"y": -0.4520299442,
				"z": -3.2830317423,
				"element": "H" 
			},
			{
				"x": 2.8570259999,
				"y": 0.5329036081,
				"z": -2.6298203587,
				"element": "H" 
			},
			{
				"x": 2.9372554114,
				"y": 2.045115584,
				"z": -1.7423230634,
				"element": "H" 
			},
			{
				"x": 2.485925269,
				"y": 0.9692225162,
				"z": 0.3063276919,
				"element": "H" 
			},
			{
				"x": 2.7707571956,
				"y": -0.5515961128,
				"z": -0.5266582927,
				"element": "H" 
			},
			{
				"x": 0.453127991,
				"y": -0.7646730752,
				"z": -1.1523885628,
				"element": "H" 
			},
			{
				"x": 0.3117935633,
				"y": 0.444026608,
				"z": 1.6252985583,
				"element": "H" 
			},
			{
				"x": 1.8171164379,
				"y": -1.46278214,
				"z": 1.5650791968,
				"element": "H" 
			},
			{
				"x": 0.6916628523,
				"y": -2.394506816,
				"z": 0.5787268824,
				"element": "H" 
			},
			{
				"x": 0.5326575281,
				"y": -3.1077098195,
				"z": 2.9711057231,
				"element": "H" 
			},
			{
				"x": 0.2134281051,
				"y": -1.4473971106,
				"z": 3.4476381488,
				"element": "H" 
			},
			{
				"x": -1.5033012046,
				"y": -4.0216627188,
				"z": 3.7657306207,
				"element": "H" 
			},
			{
				"x": -5.3099540586,
				"y": -2.6088863597,
				"z": 2.3802538513,
				"element": "H" 
			},
			{
				"x": -4.3418234054,
				"y": -1.4982156732,
				"z": 3.350440723,
				"element": "H" 
			},
			{
				"x": -4.1363675077,
				"y": -0.8617065379,
				"z": 0.9893853637,
				"element": "H" 
			},
			{
				"x": -3.706455082,
				"y": -2.496966729,
				"z": 0.5280248923,
				"element": "H" 
			},
			{
				"x": -3.1803818359,
				"y": 0.2130210363,
				"z": -0.2648075849,
				"element": "H" 
			},
			{
				"x": -2.2998849938,
				"y": 1.4385697087,
				"z": 0.6075294775,
				"element": "H" 
			},
			{
				"x": -2.0405598373,
				"y": 1.8078934813,
				"z": -1.760856016,
				"element": "H" 
			},
			{
				"x": -1.5551979481,
				"y": 0.1404551202,
				"z": -2.0504129133,
				"element": "H" 
			},
			{
				"x": -0.4429352945,
				"y": 3.4103436283,
				"z": -0.6290159082,
				"element": "H" 
			},
			{
				"x": 1.1496839871,
				"y": 2.9015190238,
				"z": -0.0884066908,
				"element": "H" 
			},
			{
				"x": -0.2880600541,
				"y": 2.393095666,
				"z": 0.7967577119,
				"element": "H" 
			}
		],
		 "valence_orbital": [ 
			{
				"type": "occ",
				"energy": -0.2921,
				"method": "rhf"
			},
			{
				"type": "occ",
				"energy": -0.28629,
				"method": "rhf"
			},
			{
				"type": "occ",
				"energy": -0.24366,
				"method": "rhf"
			},
			{
				"type": "occ",
				"energy": -0.22737,
				"method": "rhf"
			},
			{
				"type": "occ",
				"energy": -0.22211,
				"method": "rhf"
			},
			{
				"type": "unocc",
				"energy": -0.05923,
				"method": "rhf"
			},
			{
				"type": "unocc",
				"energy": -0.01749,
				"method": "rhf"
			},
			{
				"type": "unocc",
				"energy": 0.0175,
				"method": "rhf"
			},
			{
				"type": "unocc",
				"energy": 0.06379,
				"method": "rhf"
			},
			{
				"type": "unocc",
				"energy": 0.07311,
				"method": "rhf"
			}
		],
		"cosmo_sigma_profile": { 
			"-0.025": 0.0,
			"-0.024": 0.0,
			"-0.023": 0.0,
			"-0.022": 0.0,
			"-0.021": 0.0,
			"-0.02": 0.0,
			"-0.019": 0.0,
			"-0.018": 0.0,
			"-0.017": 0.0,
			"-0.016": 0.0,
			"-0.015": 0.0,
			"-0.014": 0.0,
			"-0.013": 0.0,
			"-0.012": 0.0,
			"-0.011": 0.0,
			"-0.01": 0.0,
			"-0.009": 0.0,
			"-0.008": 0.0,
			"-0.007": 0.0,
			"-0.006": 1.6895394605,
			"-0.005": 13.4257757359,
			"-0.004": 35.0611076234,
			"-0.003": 49.8484146875,
			"-0.002": 62.4065747556,
			"-0.001": 57.288178222,
			"0.0": 35.0153085291,
			"0.001": 22.1008087883,
			"0.002": 15.6155313627,
			"0.003": 9.88431663924,
			"0.004": 5.85487426818,
			"0.005": 4.23734391219,
			"0.006": 3.40473185808,
			"0.007": 3.17799390495,
			"0.008": 3.80187466891,
			"0.009": 2.47542001409,
			"0.01": 3.22101765268,
			"0.011": 4.27181889525,
			"0.012": 6.70695201398,
			"0.013": 6.58578668061,
			"0.014": 4.2554337919,
			"0.015": 1.40267594991,
			"0.016": 0.0,
			"0.017": 0.0,
			"0.018": 0.0,
			"0.019": 0.0,
			"0.02": 0.0,
			"0.021": 0.0,
			"0.022": 0.0,
			"0.023": 0.0,
			"0.024": 0.0,
			"0.025": 0.0
		}
	}
}
