{
	 "smiles": "[N-]=[N+]=NC1=C2N=CC=CC2=CC=C1", 
	 "Tm": 316.15, 
	 "num_atms": 19, 
	 "gaussian": { 
		 "optdone": 1, 
		 "sigma_profile": "yes", 
		 "theory": "DFT", 
		 "functional": "B3LYP", 
		 "basiset": "6-31G**", 
		 "properties": { 
			 "R2extent": 2573.2572, 
			 "electric_dipole_moment_norm": 3.70443601915, 
			 "electric_quadrupole_moment_norm": 6.25232877095, 
			 "total_energy": -565.51605508, 
			 "HOMO_LUMO_gap": 0.15004, 
			 "cosmo_polarized_energy": -6.86, 
			 "cosmo_cavitation_energy": 24.57, 
			 "cosmo_dispersion_energy": -17.95, 
			 "cosmo_repulsion_energy": 1.4, 
			 "cosmo_total_nonelectrostatic_energy": 8.02, 
			 "SMD_solvation_energy": 1.54 
		},
		"coords": [
			{
				"x": -2.2442055488,
				"y": -1.7314745297,
				"z": -1.8259767824,
				"element": "N" 
			},
			{
				"x": -1.1726600417,
				"y": -2.0055445896,
				"z": -1.5546417855,
				"element": "N" 
			},
			{
				"x": -0.0558094802,
				"y": -2.5343681211,
				"z": -1.4189944656,
				"element": "N" 
			},
			{
				"x": 0.9756564518,
				"y": -1.9690644083,
				"z": -0.6562569659,
				"element": "C" 
			},
			{
				"x": 0.8815302323,
				"y": -0.7270220768,
				"z": 0.0562896747,
				"element": "C" 
			},
			{
				"x": -0.2831986701,
				"y": -0.0326268049,
				"z": 0.0008851311,
				"element": "N" 
			},
			{
				"x": -0.3679559284,
				"y": 1.1083718166,
				"z": 0.6561594052,
				"element": "C" 
			},
			{
				"x": 0.6924398719,
				"y": 1.6542702229,
				"z": 1.4189275266,
				"element": "C" 
			},
			{
				"x": 1.8796310474,
				"y": 0.9634576141,
				"z": 1.4856802884,
				"element": "C" 
			},
			{
				"x": 2.0191605842,
				"y": -0.2694780133,
				"z": 0.7971396235,
				"element": "C" 
			},
			{
				"x": 3.2102030681,
				"y": -1.0382790281,
				"z": 0.8183021417,
				"element": "C" 
			},
			{
				"x": 3.2682581146,
				"y": -2.2268131866,
				"z": 0.123457487,
				"element": "C" 
			},
			{
				"x": 2.158371346,
				"y": -2.6918958148,
				"z": -0.6106076401,
				"element": "C" 
			},
			{
				"x": -1.317607635,
				"y": 1.6370120469,
				"z": 0.5882932853,
				"element": "H" 
			},
			{
				"x": 0.5577870527,
				"y": 2.5992278701,
				"z": 1.9353656356,
				"element": "H" 
			},
			{
				"x": 2.719364159,
				"y": 1.3465333123,
				"z": 2.0599487141,
				"element": "H" 
			},
			{
				"x": 4.0646059142,
				"y": -0.6785662055,
				"z": 1.384425048,
				"element": "H" 
			},
			{
				"x": 4.1769141766,
				"y": -2.8211304893,
				"z": 0.13493152,
				"element": "H" 
			},
			{
				"x": 2.2112152853,
				"y": -3.628409615,
				"z": -1.1552278417,
				"element": "H" 
			}
		],
		 "valence_orbital": [ 
			{
				"type": "occ",
				"energy": -0.30734,
				"method": "rhf"
			},
			{
				"type": "occ",
				"energy": -0.28522,
				"method": "rhf"
			},
			{
				"type": "occ",
				"energy": -0.26312,
				"method": "rhf"
			},
			{
				"type": "occ",
				"energy": -0.26065,
				"method": "rhf"
			},
			{
				"type": "occ",
				"energy": -0.21358,
				"method": "rhf"
			},
			{
				"type": "unocc",
				"energy": -0.06354,
				"method": "rhf"
			},
			{
				"type": "unocc",
				"energy": -0.02534,
				"method": "rhf"
			},
			{
				"type": "unocc",
				"energy": -0.02303,
				"method": "rhf"
			},
			{
				"type": "unocc",
				"energy": -0.00538,
				"method": "rhf"
			},
			{
				"type": "unocc",
				"energy": 0.04748,
				"method": "rhf"
			}
		],
		"cosmo_sigma_profile": { 
			"-0.025": 0.0,
			"-0.024": 0.0,
			"-0.023": 0.0,
			"-0.022": 0.0,
			"-0.021": 0.0,
			"-0.02": 0.0,
			"-0.019": 0.0,
			"-0.018": 0.0,
			"-0.017": 0.0,
			"-0.016": 0.0,
			"-0.015": 0.0,
			"-0.014": 0.0,
			"-0.013": 0.0,
			"-0.012": 0.0,
			"-0.011": 0.0,
			"-0.01": 0.0,
			"-0.009": 0.0,
			"-0.008": 0.92083777852,
			"-0.007": 9.09734902833,
			"-0.006": 14.1591524882,
			"-0.005": 12.4727257852,
			"-0.004": 10.9317524526,
			"-0.003": 12.7450804458,
			"-0.002": 12.2943557278,
			"-0.001": 11.7487038049,
			"0.0": 14.2550890769,
			"0.001": 22.3605846136,
			"0.002": 23.7283268706,
			"0.003": 16.4892117635,
			"0.004": 10.9095102625,
			"0.005": 7.50337540606,
			"0.006": 7.51067305423,
			"0.007": 7.88323691997,
			"0.008": 3.9421169779,
			"0.009": 0.577900979275,
			"0.01": 0.0,
			"0.011": 0.0,
			"0.012": 0.0,
			"0.013": 0.0,
			"0.014": 0.0,
			"0.015": 0.0,
			"0.016": 0.0,
			"0.017": 0.0,
			"0.018": 0.0,
			"0.019": 0.0,
			"0.02": 0.0,
			"0.021": 0.0,
			"0.022": 0.0,
			"0.023": 0.0,
			"0.024": 0.0,
			"0.025": 0.0
		}
	}
}
