{
	 "smiles": "CC1=CC=C(C=C1)S(=O)(=O)CCO", 
	 "Tm": 329.15, 
	 "num_atms": 25, 
	 "gaussian": { 
		 "optdone": 1, 
		 "sigma_profile": "yes", 
		 "theory": "DFT", 
		 "functional": "B3LYP", 
		 "basiset": "6-31G**", 
		 "properties": { 
			 "R2extent": 3718.2861, 
			 "electric_dipole_moment_norm": 5.05891584631, 
			 "electric_quadrupole_moment_norm": 22.1438655693, 
			 "total_energy": -973.980126982, 
			 "HOMO_LUMO_gap": 0.22579, 
			 "cosmo_polarized_energy": -17.65, 
			 "cosmo_cavitation_energy": 29.44, 
			 "cosmo_dispersion_energy": -21.63, 
			 "cosmo_repulsion_energy": 1.69, 
			 "cosmo_total_nonelectrostatic_energy": 9.49, 
			 "SMD_solvation_energy": 4.54 
		},
		"coords": [
			{
				"x": 2.5715841067,
				"y": 2.0666058352,
				"z": 0.6324391205,
				"element": "C" 
			},
			{
				"x": 1.3198528327,
				"y": 1.2415929457,
				"z": 0.8111537411,
				"element": "C" 
			},
			{
				"x": 1.3275645387,
				"y": -0.1361315936,
				"z": 0.5439076186,
				"element": "C" 
			},
			{
				"x": 0.1734507535,
				"y": -0.9031613719,
				"z": 0.6773406849,
				"element": "C" 
			},
			{
				"x": -1.0073789858,
				"y": -0.2831329267,
				"z": 1.0878265046,
				"element": "C" 
			},
			{
				"x": -1.0429346812,
				"y": 1.0816004943,
				"z": 1.3747581814,
				"element": "C" 
			},
			{
				"x": 0.121669484,
				"y": 1.8347221674,
				"z": 1.231814474,
				"element": "C" 
			},
			{
				"x": -2.5022754794,
				"y": -1.2562488716,
				"z": 1.3080052822,
				"element": "S" 
			},
			{
				"x": -2.1101345034,
				"y": -2.6446040559,
				"z": 1.611959441,
				"element": "O" 
			},
			{
				"x": -3.3831523419,
				"y": -0.4997369054,
				"z": 2.2161620935,
				"element": "O" 
			},
			{
				"x": -3.3665594924,
				"y": -1.2721445019,
				"z": -0.3095307313,
				"element": "C" 
			},
			{
				"x": -2.8867683149,
				"y": -2.3466005356,
				"z": -1.2671624136,
				"element": "C" 
			},
			{
				"x": -1.605028487,
				"y": -1.9778089702,
				"z": -1.7557367466,
				"element": "O" 
			},
			{
				"x": 3.4667643028,
				"y": 1.4997480457,
				"z": 0.9055125161,
				"element": "H" 
			},
			{
				"x": 2.5438168625,
				"y": 2.9746371099,
				"z": 1.2411959692,
				"element": "H" 
			},
			{
				"x": 2.6902391272,
				"y": 2.3764318326,
				"z": -0.4133852031,
				"element": "H" 
			},
			{
				"x": 2.2528313541,
				"y": -0.6141453252,
				"z": 0.232601856,
				"element": "H" 
			},
			{
				"x": 0.1804881278,
				"y": -1.9673975078,
				"z": 0.4755668109,
				"element": "H" 
			},
			{
				"x": -1.9633362512,
				"y": 1.5336151275,
				"z": 1.728483384,
				"element": "H" 
			},
			{
				"x": 0.1018036396,
				"y": 2.8969100549,
				"z": 1.4609952659,
				"element": "H" 
			},
			{
				"x": -3.2747402725,
				"y": -0.2711915015,
				"z": -0.7391860597,
				"element": "H" 
			},
			{
				"x": -4.4092769754,
				"y": -1.4417407676,
				"z": -0.0253938922,
				"element": "H" 
			},
			{
				"x": -2.8613882938,
				"y": -3.3078104976,
				"z": -0.7373682006,
				"element": "H" 
			},
			{
				"x": -3.6209894624,
				"y": -2.4247150629,
				"z": -2.0853682738,
				"element": "H" 
			},
			{
				"x": -1.2310015882,
				"y": -2.7356932178,
				"z": -2.2211914232,
				"element": "H" 
			}
		],
		 "valence_orbital": [ 
			{
				"type": "occ",
				"energy": -0.2897,
				"method": "rhf"
			},
			{
				"type": "occ",
				"energy": -0.28711,
				"method": "rhf"
			},
			{
				"type": "occ",
				"energy": -0.27432,
				"method": "rhf"
			},
			{
				"type": "occ",
				"energy": -0.26093,
				"method": "rhf"
			},
			{
				"type": "occ",
				"energy": -0.25594,
				"method": "rhf"
			},
			{
				"type": "unocc",
				"energy": -0.03015,
				"method": "rhf"
			},
			{
				"type": "unocc",
				"energy": -0.01272,
				"method": "rhf"
			},
			{
				"type": "unocc",
				"energy": 0.05826,
				"method": "rhf"
			},
			{
				"type": "unocc",
				"energy": 0.06836,
				"method": "rhf"
			},
			{
				"type": "unocc",
				"energy": 0.08515,
				"method": "rhf"
			}
		],
		"cosmo_sigma_profile": { 
			"-0.025": 0.0,
			"-0.024": 0.0,
			"-0.023": 0.0,
			"-0.022": 0.0,
			"-0.021": 0.0,
			"-0.02": 0.0,
			"-0.019": 0.0,
			"-0.018": 0.0,
			"-0.017": 0.06148859134,
			"-0.016": 1.23414908908,
			"-0.015": 0.773409235845,
			"-0.014": 0.779589486228,
			"-0.013": 1.17773224008,
			"-0.012": 1.16216634828,
			"-0.011": 0.769049135199,
			"-0.01": 0.496340270951,
			"-0.009": 1.56169221151,
			"-0.008": 4.60548959805,
			"-0.007": 7.24737295141,
			"-0.006": 13.0833412389,
			"-0.005": 22.773583622,
			"-0.004": 22.3580947161,
			"-0.003": 16.5564320796,
			"-0.002": 14.8558214194,
			"-0.001": 15.5146161781,
			"0.0": 13.3641140488,
			"0.001": 9.714766729,
			"0.002": 12.5235306725,
			"0.003": 14.0365228477,
			"0.004": 9.88768608429,
			"0.005": 4.62642966692,
			"0.006": 4.45558358987,
			"0.007": 4.10061661174,
			"0.008": 3.53520698562,
			"0.009": 4.52845911612,
			"0.01": 5.53618337263,
			"0.011": 8.59263471269,
			"0.012": 9.1088419813,
			"0.013": 3.12146801914,
			"0.014": 0.195893539679,
			"0.015": 0.0,
			"0.016": 0.0,
			"0.017": 0.0,
			"0.018": 0.0,
			"0.019": 0.0,
			"0.02": 0.0,
			"0.021": 0.0,
			"0.022": 0.0,
			"0.023": 0.0,
			"0.024": 0.0,
			"0.025": 0.0
		}
	}
}
