{
	 "smiles": "CC(C)(C)C1=CC=C(C=C1)C1=CC=C(O1)C(O)=O", 
	 "Tm": 487.15, 
	 "num_atms": 34, 
	 "gaussian": { 
		 "optdone": 1, 
		 "sigma_profile": "yes", 
		 "theory": "DFT", 
		 "functional": "B3LYP", 
		 "basiset": "6-31G**", 
		 "properties": { 
			 "R2extent": 7975.3115, 
			 "electric_dipole_moment_norm": 2.75437219344, 
			 "electric_quadrupole_moment_norm": 11.5843368882, 
			 "total_energy": -806.926973501, 
			 "HOMO_LUMO_gap": 0.15761, 
			 "cosmo_polarized_energy": -12.27, 
			 "cosmo_cavitation_energy": 37.55, 
			 "cosmo_dispersion_energy": -26.61, 
			 "cosmo_repulsion_energy": 2.03, 
			 "cosmo_total_nonelectrostatic_energy": 12.97, 
			 "SMD_solvation_energy": 8.17 
		},
		"coords": [
			{
				"x": 2.6012278292,
				"y": -3.4386810048,
				"z": -1.6869108068,
				"element": "C" 
			},
			{
				"x": 2.531886554,
				"y": -2.3320554108,
				"z": -0.6174997482,
				"element": "C" 
			},
			{
				"x": 3.8990791349,
				"y": -1.6074973081,
				"z": -0.5829235272,
				"element": "C" 
			},
			{
				"x": 2.271749514,
				"y": -3.000961138,
				"z": 0.7537237254,
				"element": "C" 
			},
			{
				"x": 1.4193845652,
				"y": -1.3091001704,
				"z": -0.9053829576,
				"element": "C" 
			},
			{
				"x": 0.574588558,
				"y": -1.3925964397,
				"z": -2.0222731268,
				"element": "C" 
			},
			{
				"x": -0.4240109367,
				"y": -0.449783392,
				"z": -2.2548781899,
				"element": "C" 
			},
			{
				"x": -0.6200495827,
				"y": 0.6234342524,
				"z": -1.373112395,
				"element": "C" 
			},
			{
				"x": 0.2202149284,
				"y": 0.718593166,
				"z": -0.2495898431,
				"element": "C" 
			},
			{
				"x": 1.2124457131,
				"y": -0.2285091491,
				"z": -0.0291916786,
				"element": "C" 
			},
			{
				"x": -1.664135093,
				"y": 1.6102111872,
				"z": -1.6152267548,
				"element": "C" 
			},
			{
				"x": -2.610631742,
				"y": 1.7640389776,
				"z": -2.6081569504,
				"element": "C" 
			},
			{
				"x": -3.3488458415,
				"y": 2.9314540485,
				"z": -2.2886475714,
				"element": "C" 
			},
			{
				"x": -2.8135340732,
				"y": 3.422157835,
				"z": -1.1237322622,
				"element": "C" 
			},
			{
				"x": -1.7875825624,
				"y": 2.6197710786,
				"z": -0.7114479918,
				"element": "O" 
			},
			{
				"x": -3.1215605747,
				"y": 4.579823461,
				"z": -0.2901716356,
				"element": "C" 
			},
			{
				"x": -4.1573496143,
				"y": 5.2934827516,
				"z": -0.80942922,
				"element": "O" 
			},
			{
				"x": -2.5475885963,
				"y": 4.8917742434,
				"z": 0.7334293256,
				"element": "O" 
			},
			{
				"x": 3.4050708551,
				"y": -4.1395000559,
				"z": -1.4396976093,
				"element": "H" 
			},
			{
				"x": 2.8132629484,
				"y": -3.0325474126,
				"z": -2.6814946522,
				"element": "H" 
			},
			{
				"x": 1.6700902625,
				"y": -4.0123240779,
				"z": -1.7418135538,
				"element": "H" 
			},
			{
				"x": 4.70274105,
				"y": -2.3220181263,
				"z": -0.3721535121,
				"element": "H" 
			},
			{
				"x": 3.9311741896,
				"y": -0.8336656453,
				"z": 0.1896181769,
				"element": "H" 
			},
			{
				"x": 4.1133733011,
				"y": -1.1288978698,
				"z": -1.5441098432,
				"element": "H" 
			},
			{
				"x": 1.3121890051,
				"y": -3.5283123438,
				"z": 0.7568301006,
				"element": "H" 
			},
			{
				"x": 3.0602461449,
				"y": -3.7282651616,
				"z": 0.9776365194,
				"element": "H" 
			},
			{
				"x": 2.2531830418,
				"y": -2.2697402954,
				"z": 1.5671398338,
				"element": "H" 
			},
			{
				"x": 0.6875235242,
				"y": -2.2038795118,
				"z": -2.7319178212,
				"element": "H" 
			},
			{
				"x": -1.0551064987,
				"y": -0.5536892595,
				"z": -3.1325976025,
				"element": "H" 
			},
			{
				"x": 0.0878984969,
				"y": 1.5397161752,
				"z": 0.4465740275,
				"element": "H" 
			},
			{
				"x": 1.8404799203,
				"y": -0.1197653013,
				"z": 0.850006978,
				"element": "H" 
			},
			{
				"x": -2.7564753244,
				"y": 1.1177331413,
				"z": -3.4609000087,
				"element": "H" 
			},
			{
				"x": -4.1713529926,
				"y": 3.3665286629,
				"z": -2.8366741182,
				"element": "H" 
			},
			{
				"x": -4.2916861041,
				"y": 6.0363700933,
				"z": -0.1987253066,
				"element": "H" 
			}
		],
		 "valence_orbital": [ 
			{
				"type": "occ",
				"energy": -0.29204,
				"method": "rhf"
			},
			{
				"type": "occ",
				"energy": -0.27609,
				"method": "rhf"
			},
			{
				"type": "occ",
				"energy": -0.27438,
				"method": "rhf"
			},
			{
				"type": "occ",
				"energy": -0.2546,
				"method": "rhf"
			},
			{
				"type": "occ",
				"energy": -0.21269,
				"method": "rhf"
			},
			{
				"type": "unocc",
				"energy": -0.05508,
				"method": "rhf"
			},
			{
				"type": "unocc",
				"energy": -0.00962,
				"method": "rhf"
			},
			{
				"type": "unocc",
				"energy": -0.00104,
				"method": "rhf"
			},
			{
				"type": "unocc",
				"energy": 0.06792,
				"method": "rhf"
			},
			{
				"type": "unocc",
				"energy": 0.07805,
				"method": "rhf"
			}
		],
		"cosmo_sigma_profile": { 
			"-0.025": 0.0,
			"-0.024": 0.0,
			"-0.023": 0.0,
			"-0.022": 0.0,
			"-0.021": 0.0,
			"-0.02": 0.0,
			"-0.019": 0.0479081734406,
			"-0.018": 0.884000498214,
			"-0.017": 0.912017540443,
			"-0.016": 0.716255961319,
			"-0.015": 0.641443897347,
			"-0.014": 0.731327741907,
			"-0.013": 0.74164874333,
			"-0.012": 0.38737686626,
			"-0.011": 1.01664957407,
			"-0.01": 0.991736008782,
			"-0.009": 0.881766074266,
			"-0.008": 5.00510273265,
			"-0.007": 4.59271065131,
			"-0.006": 6.36152810857,
			"-0.005": 11.7499932768,
			"-0.004": 14.2622365932,
			"-0.003": 25.3116933772,
			"-0.002": 31.2436051929,
			"-0.001": 27.3902992557,
			"0.0": 29.2640192631,
			"0.001": 40.8769571,
			"0.002": 25.8412893458,
			"0.003": 16.4414313954,
			"0.004": 13.09091613,
			"0.005": 11.8092893803,
			"0.006": 3.59309160972,
			"0.007": 2.98163659887,
			"0.008": 4.19712174579,
			"0.009": 2.05426872684,
			"0.01": 2.24564038087,
			"0.011": 3.71442394958,
			"0.012": 5.69583804347,
			"0.013": 1.37465896143,
			"0.014": 0.0,
			"0.015": 0.0,
			"0.016": 0.0,
			"0.017": 0.0,
			"0.018": 0.0,
			"0.019": 0.0,
			"0.02": 0.0,
			"0.021": 0.0,
			"0.022": 0.0,
			"0.023": 0.0,
			"0.024": 0.0,
			"0.025": 0.0
		}
	}
}
