{
	 "smiles": "C[Si](C)(C)C1C2=CC=CC=C2C2=C1C=CC=C2", 
	 "Tm": 369.65, 
	 "num_atms": 35, 
	 "gaussian": { 
		 "optdone": 1, 
		 "sigma_profile": "yes", 
		 "theory": "DFT", 
		 "functional": "B3LYP", 
		 "basiset": "6-31G**", 
		 "properties": { 
			 "R2extent": 4287.0556, 
			 "electric_dipole_moment_norm": 0.924456975743, 
			 "electric_quadrupole_moment_norm": 6.71285252706, 
			 "total_energy": -910.112190538, 
			 "HOMO_LUMO_gap": 0.18403, 
			 "cosmo_polarized_energy": -5.79, 
			 "cosmo_cavitation_energy": 37.62, 
			 "cosmo_dispersion_energy": -23.89, 
			 "cosmo_repulsion_energy": 1.91, 
			 "cosmo_total_nonelectrostatic_energy": 15.64, 
			 "SMD_solvation_energy": 7.07 
		},
		"coords": [
			{
				"x": -0.2888068833,
				"y": 3.3787353149,
				"z": -0.0278307811,
				"element": "C" 
			},
			{
				"x": -0.1975661169,
				"y": 1.6876109459,
				"z": -0.8765860293,
				"element": "Si" 
			},
			{
				"x": -1.9368196187,
				"y": 1.0489621803,
				"z": -1.2406986551,
				"element": "C" 
			},
			{
				"x": 0.7719292046,
				"y": 1.8962813242,
				"z": -2.4906596599,
				"element": "C" 
			},
			{
				"x": 0.7242604204,
				"y": 0.4287252318,
				"z": 0.2770387453,
				"element": "C" 
			},
			{
				"x": -0.0320654173,
				"y": 0.1929181728,
				"z": 1.5675892962,
				"element": "C" 
			},
			{
				"x": -0.2991056679,
				"y": 1.0642305728,
				"z": 2.6236156232,
				"element": "C" 
			},
			{
				"x": -1.0531676076,
				"y": 0.6111572641,
				"z": 3.7108804924,
				"element": "C" 
			},
			{
				"x": -1.5421689348,
				"y": -0.7002516941,
				"z": 3.7448100083,
				"element": "C" 
			},
			{
				"x": -1.2677917321,
				"y": -1.5844392928,
				"z": 2.7010263295,
				"element": "C" 
			},
			{
				"x": -0.5049297413,
				"y": -1.1392475651,
				"z": 1.6175699802,
				"element": "C" 
			},
			{
				"x": -0.0071859066,
				"y": -1.8526918649,
				"z": 0.4398929088,
				"element": "C" 
			},
			{
				"x": 0.7705534534,
				"y": -0.9573839266,
				"z": -0.3310897352,
				"element": "C" 
			},
			{
				"x": 1.4307078806,
				"y": -1.4160223725,
				"z": -1.4710651648,
				"element": "C" 
			},
			{
				"x": 1.2948974455,
				"y": -2.7559837314,
				"z": -1.8481137014,
				"element": "C" 
			},
			{
				"x": 0.5031399322,
				"y": -3.6331815259,
				"z": -1.0973108081,
				"element": "C" 
			},
			{
				"x": -0.1491467439,
				"y": -3.1884034115,
				"z": 0.0530161927,
				"element": "C" 
			},
			{
				"x": 0.7016703439,
				"y": 3.7368334482,
				"z": 0.2750525225,
				"element": "H" 
			},
			{
				"x": -0.7075996986,
				"y": 4.1207128184,
				"z": -0.7175083236,
				"element": "H" 
			},
			{
				"x": -0.9266224745,
				"y": 3.3576742497,
				"z": 0.8605508409,
				"element": "H" 
			},
			{
				"x": -2.4762793751,
				"y": 1.7471339048,
				"z": -1.8905754262,
				"element": "H" 
			},
			{
				"x": -2.5182709593,
				"y": 0.9307879469,
				"z": -0.3209063755,
				"element": "H" 
			},
			{
				"x": -1.9068855511,
				"y": 0.0777711012,
				"z": -1.7445870902,
				"element": "H" 
			},
			{
				"x": 0.3180091704,
				"y": 2.6865451004,
				"z": -3.0997542066,
				"element": "H" 
			},
			{
				"x": 1.8132004256,
				"y": 2.1837322745,
				"z": -2.3058794241,
				"element": "H" 
			},
			{
				"x": 0.7753369642,
				"y": 0.9804922798,
				"z": -3.0888649098,
				"element": "H" 
			},
			{
				"x": 1.7272134153,
				"y": 0.8432179476,
				"z": 0.4500329955,
				"element": "H" 
			},
			{
				"x": 0.0827259492,
				"y": 2.080945839,
				"z": 2.615433897,
				"element": "H" 
			},
			{
				"x": -1.2586784295,
				"y": 1.28384056,
				"z": 4.5388227685,
				"element": "H" 
			},
			{
				"x": -2.1298076533,
				"y": -1.0343210385,
				"z": 4.5951946121,
				"element": "H" 
			},
			{
				"x": -1.6331108947,
				"y": -2.6072499471,
				"z": 2.7388268832,
				"element": "H" 
			},
			{
				"x": 2.0563575238,
				"y": -0.7491271446,
				"z": -2.0571181866,
				"element": "H" 
			},
			{
				"x": 1.8119371469,
				"y": -3.1198318392,
				"z": -2.7315771831,
				"element": "H" 
			},
			{
				"x": 0.4052755961,
				"y": -4.6698180638,
				"z": -1.4069601852,
				"element": "H" 
			},
			{
				"x": -0.7483054658,
				"y": -3.8760550593,
				"z": 0.6439317498,
				"element": "H" 
			}
		],
		 "valence_orbital": [ 
			{
				"type": "occ",
				"energy": -0.2951,
				"method": "rhf"
			},
			{
				"type": "occ",
				"energy": -0.27437,
				"method": "rhf"
			},
			{
				"type": "occ",
				"energy": -0.24517,
				"method": "rhf"
			},
			{
				"type": "occ",
				"energy": -0.22582,
				"method": "rhf"
			},
			{
				"type": "occ",
				"energy": -0.20912,
				"method": "rhf"
			},
			{
				"type": "unocc",
				"energy": -0.02509,
				"method": "rhf"
			},
			{
				"type": "unocc",
				"energy": -0.00254,
				"method": "rhf"
			},
			{
				"type": "unocc",
				"energy": 0.01131,
				"method": "rhf"
			},
			{
				"type": "unocc",
				"energy": 0.0439,
				"method": "rhf"
			},
			{
				"type": "unocc",
				"energy": 0.07678,
				"method": "rhf"
			}
		],
		"cosmo_sigma_profile": { 
			"-0.025": 0.0,
			"-0.024": 0.0,
			"-0.023": 0.0,
			"-0.022": 0.0,
			"-0.021": 0.0,
			"-0.02": 0.0,
			"-0.019": 0.0,
			"-0.018": 0.0,
			"-0.017": 0.0,
			"-0.016": 0.0,
			"-0.015": 0.0,
			"-0.014": 0.0,
			"-0.013": 0.0,
			"-0.012": 0.0,
			"-0.011": 0.0,
			"-0.01": 0.0,
			"-0.009": 0.0,
			"-0.008": 0.0,
			"-0.007": 0.0,
			"-0.006": 3.45243081595,
			"-0.005": 15.9087242365,
			"-0.004": 21.5702299443,
			"-0.003": 40.1528477548,
			"-0.002": 33.3333847023,
			"-0.001": 27.8322434904,
			"0.0": 25.4834792712,
			"0.001": 29.5950045809,
			"0.002": 25.7485103711,
			"0.003": 20.1276120659,
			"0.004": 17.0456743796,
			"0.005": 15.7012517719,
			"0.006": 14.9246556438,
			"0.007": 3.17919811629,
			"0.008": 0.0,
			"0.009": 0.0,
			"0.01": 0.0,
			"0.011": 0.0,
			"0.012": 0.0,
			"0.013": 0.0,
			"0.014": 0.0,
			"0.015": 0.0,
			"0.016": 0.0,
			"0.017": 0.0,
			"0.018": 0.0,
			"0.019": 0.0,
			"0.02": 0.0,
			"0.021": 0.0,
			"0.022": 0.0,
			"0.023": 0.0,
			"0.024": 0.0,
			"0.025": 0.0
		}
	}
}
