{
	 "smiles": "CC(C)(C)C1=CC(=CC(=C1O)C(C)(C)C)C(=S)NC1CCCCC1", 
	 "Tm": 491.15, 
	 "num_atms": 57, 
	 "gaussian": { 
		 "optdone": 1, 
		 "sigma_profile": "yes", 
		 "theory": "DFT", 
		 "functional": "B3LYP", 
		 "basiset": "6-31G**", 
		 "properties": { 
			 "R2extent": 10808.1415, 
			 "electric_dipole_moment_norm": 6.52896525646, 
			 "electric_quadrupole_moment_norm": 23.6465424263, 
			 "total_energy": -1348.33276321, 
			 "HOMO_LUMO_gap": 0.15088, 
			 "cosmo_polarized_energy": -16.62, 
			 "cosmo_cavitation_energy": 54.57, 
			 "cosmo_dispersion_energy": -35.6, 
			 "cosmo_repulsion_energy": 2.71, 
			 "cosmo_total_nonelectrostatic_energy": 21.68, 
			 "SMD_solvation_energy": 7.26 
		},
		"coords": [
			{
				"x": -3.1122346946,
				"y": -0.2842868474,
				"z": 0.8119260994,
				"element": "C" 
			},
			{
				"x": -2.3966369259,
				"y": 1.0403888465,
				"z": 1.1948034656,
				"element": "C" 
			},
			{
				"x": -3.0582208586,
				"y": 1.6962370415,
				"z": 2.4379823686,
				"element": "C" 
			},
			{
				"x": -2.6427600097,
				"y": 2.0123270694,
				"z": 0.0208373004,
				"element": "C" 
			},
			{
				"x": -0.8852111152,
				"y": 0.7989786232,
				"z": 1.4402215789,
				"element": "C" 
			},
			{
				"x": 0.0763209263,
				"y": 1.4216730237,
				"z": 0.6373232379,
				"element": "C" 
			},
			{
				"x": 1.4487355337,
				"y": 1.2556704243,
				"z": 0.8527502947,
				"element": "C" 
			},
			{
				"x": 1.8683912386,
				"y": 0.4407285351,
				"z": 1.9102803626,
				"element": "C" 
			},
			{
				"x": 0.9699979039,
				"y": -0.236877522,
				"z": 2.7334543329,
				"element": "C" 
			},
			{
				"x": -0.4112953642,
				"y": -0.0416905429,
				"z": 2.4782874839,
				"element": "C" 
			},
			{
				"x": -1.2751699478,
				"y": -0.713676947,
				"z": 3.3060772311,
				"element": "O" 
			},
			{
				"x": 1.4712639016,
				"y": -1.1477078242,
				"z": 3.8786677904,
				"element": "C" 
			},
			{
				"x": 3.0127584447,
				"y": -1.1849926843,
				"z": 3.9415274144,
				"element": "C" 
			},
			{
				"x": 0.9716183764,
				"y": -0.6165954667,
				"z": 5.2456035095,
				"element": "C" 
			},
			{
				"x": 0.9865924107,
				"y": -2.6029434727,
				"z": 3.6615566336,
				"element": "C" 
			},
			{
				"x": 2.4485054177,
				"y": 1.9920921702,
				"z": 0.034213186,
				"element": "C" 
			},
			{
				"x": 3.726500376,
				"y": 2.8178237241,
				"z": 0.7413741659,
				"element": "S" 
			},
			{
				"x": 2.2699759659,
				"y": 2.0296155858,
				"z": -1.3112888313,
				"element": "N" 
			},
			{
				"x": 1.5850836935,
				"y": 1.0614391976,
				"z": -2.1787943232,
				"element": "C" 
			},
			{
				"x": 2.6069594168,
				"y": 0.1348793817,
				"z": -2.8671297734,
				"element": "C" 
			},
			{
				"x": 1.9190165504,
				"y": -0.8529554255,
				"z": -3.8230764625,
				"element": "C" 
			},
			{
				"x": 1.0492587714,
				"y": -0.1244377349,
				"z": -4.858148107,
				"element": "C" 
			},
			{
				"x": 0.0302948122,
				"y": 0.7999866414,
				"z": -4.1752746069,
				"element": "C" 
			},
			{
				"x": 0.7143790766,
				"y": 1.7887264029,
				"z": -3.2176018522,
				"element": "C" 
			},
			{
				"x": -3.0280854765,
				"y": -1.0802733531,
				"z": 1.5584664545,
				"element": "H" 
			},
			{
				"x": -2.6905468151,
				"y": -0.6848328125,
				"z": -0.115180803,
				"element": "H" 
			},
			{
				"x": -4.1801816586,
				"y": -0.103575362,
				"z": 0.6490408981,
				"element": "H" 
			},
			{
				"x": -2.9687526711,
				"y": 1.1148532488,
				"z": 3.3607819269,
				"element": "H" 
			},
			{
				"x": -4.1264903878,
				"y": 1.856602778,
				"z": 2.2567954537,
				"element": "H" 
			},
			{
				"x": -2.5973141402,
				"y": 2.6679950986,
				"z": 2.6387478773,
				"element": "H" 
			},
			{
				"x": -2.2454379579,
				"y": 1.6251830655,
				"z": -0.9226496834,
				"element": "H" 
			},
			{
				"x": -3.7202227041,
				"y": 2.1535018806,
				"z": -0.1106085559,
				"element": "H" 
			},
			{
				"x": -2.2015791353,
				"y": 2.9964954215,
				"z": 0.2045578918,
				"element": "H" 
			},
			{
				"x": -0.2382392132,
				"y": 2.0894638318,
				"z": -0.1535721279,
				"element": "H" 
			},
			{
				"x": 2.9332527634,
				"y": 0.3533929939,
				"z": 2.0752144437,
				"element": "H" 
			},
			{
				"x": -2.1837950441,
				"y": -0.5096550938,
				"z": 3.0653309965,
				"element": "H" 
			},
			{
				"x": 3.3201155929,
				"y": -1.8392271177,
				"z": 4.7636033497,
				"element": "H" 
			},
			{
				"x": 3.4435992824,
				"y": -0.1964166544,
				"z": 4.1288629807,
				"element": "H" 
			},
			{
				"x": 3.4544855966,
				"y": -1.5839427745,
				"z": 3.0224180136,
				"element": "H" 
			},
			{
				"x": -0.1168394487,
				"y": -0.6044810519,
				"z": 5.3054911563,
				"element": "H" 
			},
			{
				"x": 1.3390473866,
				"y": 0.4002714027,
				"z": 5.4204401152,
				"element": "H" 
			},
			{
				"x": 1.3522878956,
				"y": -1.2536591078,
				"z": 6.0522166889,
				"element": "H" 
			},
			{
				"x": -0.1012527361,
				"y": -2.6741288595,
				"z": 3.6526035327,
				"element": "H" 
			},
			{
				"x": 1.3654752238,
				"y": -3.2438165202,
				"z": 4.4659484966,
				"element": "H" 
			},
			{
				"x": 1.3666210843,
				"y": -2.9984148662,
				"z": 2.7130301714,
				"element": "H" 
			},
			{
				"x": 2.9732781154,
				"y": 2.5958431793,
				"z": -1.7758790165,
				"element": "H" 
			},
			{
				"x": 0.9411288016,
				"y": 0.4530036509,
				"z": -1.5392430549,
				"element": "H" 
			},
			{
				"x": 3.3216567588,
				"y": 0.7521815609,
				"z": -3.4310439063,
				"element": "H" 
			},
			{
				"x": 3.1848462466,
				"y": -0.3989048005,
				"z": -2.1045870306,
				"element": "H" 
			},
			{
				"x": 2.6732200223,
				"y": -1.4717001776,
				"z": -4.3226376503,
				"element": "H" 
			},
			{
				"x": 1.2900091639,
				"y": -1.5406509371,
				"z": -3.2403635466,
				"element": "H" 
			},
			{
				"x": 0.5336719072,
				"y": -0.8491378543,
				"z": -5.4989518208,
				"element": "H" 
			},
			{
				"x": 1.6944473055,
				"y": 0.4728923189,
				"z": -5.5177864154,
				"element": "H" 
			},
			{
				"x": -0.6893820391,
				"y": 0.1898393695,
				"z": -3.6108246647,
				"element": "H" 
			},
			{
				"x": -0.5509130404,
				"y": 1.3502550241,
				"z": -4.92410404,
				"element": "H" 
			},
			{
				"x": 1.351332302,
				"y": 2.474915121,
				"z": -3.7947348512,
				"element": "H" 
			},
			{
				"x": -0.0281668809,
				"y": 2.4110251973,
				"z": -2.7050557791,
				"element": "H" 
			}
		],
		 "valence_orbital": [ 
			{
				"type": "occ",
				"energy": -0.30311,
				"method": "rhf"
			},
			{
				"type": "occ",
				"energy": -0.24467,
				"method": "rhf"
			},
			{
				"type": "occ",
				"energy": -0.2247,
				"method": "rhf"
			},
			{
				"type": "occ",
				"energy": -0.21127,
				"method": "rhf"
			},
			{
				"type": "occ",
				"energy": -0.19022,
				"method": "rhf"
			},
			{
				"type": "unocc",
				"energy": -0.03934,
				"method": "rhf"
			},
			{
				"type": "unocc",
				"energy": -0.00197,
				"method": "rhf"
			},
			{
				"type": "unocc",
				"energy": 0.02425,
				"method": "rhf"
			},
			{
				"type": "unocc",
				"energy": 0.05136,
				"method": "rhf"
			},
			{
				"type": "unocc",
				"energy": 0.06542,
				"method": "rhf"
			}
		],
		"cosmo_sigma_profile": { 
			"-0.025": 0.0,
			"-0.024": 0.0,
			"-0.023": 0.0,
			"-0.022": 0.0,
			"-0.021": 0.0,
			"-0.02": 0.0,
			"-0.019": 0.0,
			"-0.018": 0.0,
			"-0.017": 0.0,
			"-0.016": 0.0,
			"-0.015": 0.280847487671,
			"-0.014": 0.522775209589,
			"-0.013": 0.588748007179,
			"-0.012": 1.53287115266,
			"-0.011": 2.29507811152,
			"-0.01": 2.48841852243,
			"-0.009": 1.44844546874,
			"-0.008": 1.44996276019,
			"-0.007": 1.67467725565,
			"-0.006": 3.78518872615,
			"-0.005": 4.65976349887,
			"-0.004": 14.5468018818,
			"-0.003": 50.6723144727,
			"-0.002": 69.5337400468,
			"-0.001": 59.951594467,
			"0.0": 63.5775122226,
			"0.001": 46.8512847929,
			"0.002": 26.8897076166,
			"0.003": 13.9203884262,
			"0.004": 12.2766201512,
			"0.005": 9.19700659344,
			"0.006": 4.72876280496,
			"0.007": 5.43245873889,
			"0.008": 5.00387336789,
			"0.009": 5.61885167703,
			"0.01": 6.19944847402,
			"0.011": 5.19705587472,
			"0.012": 3.09955210847,
			"0.013": 1.81723330229,
			"0.014": 0.151097448839,
			"0.015": 0.0,
			"0.016": 0.0,
			"0.017": 0.0,
			"0.018": 0.0,
			"0.019": 0.0,
			"0.02": 0.0,
			"0.021": 0.0,
			"0.022": 0.0,
			"0.023": 0.0,
			"0.024": 0.0,
			"0.025": 0.0
		}
	}
}
