{
	 "smiles": "OC(=O)C1=CC(=CC=C1)S(=O)(=O)N1CCC2=C(C1)C=CC=C2", 
	 "Tm": 329.65, 
	 "num_atms": 37, 
	 "gaussian": { 
		 "optdone": 1, 
		 "sigma_profile": "yes", 
		 "theory": "DFT", 
		 "functional": "B3LYP", 
		 "basiset": "6-31G**", 
		 "properties": { 
			 "R2extent": 6062.6372, 
			 "electric_dipole_moment_norm": 5.90326516514, 
			 "electric_quadrupole_moment_norm": 27.5789917437, 
			 "total_energy": -1372.519618, 
			 "HOMO_LUMO_gap": 0.19533, 
			 "cosmo_polarized_energy": -21.5, 
			 "cosmo_cavitation_energy": 39.59, 
			 "cosmo_dispersion_energy": -27.59, 
			 "cosmo_repulsion_energy": 2.01, 
			 "cosmo_total_nonelectrostatic_energy": 14.02, 
			 "SMD_solvation_energy": 5.12 
		},
		"coords": [
			{
				"x": 2.1655926712,
				"y": 2.4143794908,
				"z": -2.0022582934,
				"element": "O" 
			},
			{
				"x": 2.8391245924,
				"y": 2.3177963007,
				"z": -0.8294550535,
				"element": "C" 
			},
			{
				"x": 3.734085206,
				"y": 3.087605284,
				"z": -0.5707338842,
				"element": "O" 
			},
			{
				"x": 2.4159365343,
				"y": 1.2202819224,
				"z": 0.1053384329,
				"element": "C" 
			},
			{
				"x": 1.8183268793,
				"y": 0.0419529221,
				"z": -0.3508130301,
				"element": "C" 
			},
			{
				"x": 1.430216322,
				"y": -0.9332949924,
				"z": 0.5702632461,
				"element": "C" 
			},
			{
				"x": 1.657050988,
				"y": -0.7653777721,
				"z": 1.9368361978,
				"element": "C" 
			},
			{
				"x": 2.2905575915,
				"y": 0.3983225131,
				"z": 2.3833020243,
				"element": "C" 
			},
			{
				"x": 2.6699478701,
				"y": 1.3832627483,
				"z": 1.4753124148,
				"element": "C" 
			},
			{
				"x": 0.6091933525,
				"y": -2.430382216,
				"z": -0.0173267427,
				"element": "S" 
			},
			{
				"x": 0.4253221447,
				"y": -3.291189065,
				"z": 1.1523975092,
				"element": "O" 
			},
			{
				"x": 1.3301134358,
				"y": -2.8662276323,
				"z": -1.214912346,
				"element": "O" 
			},
			{
				"x": -0.9364749672,
				"y": -2.0234953639,
				"z": -0.541126669,
				"element": "N" 
			},
			{
				"x": -1.9615822268,
				"y": -1.6382985131,
				"z": 0.4381505761,
				"element": "C" 
			},
			{
				"x": -1.9775341372,
				"y": -0.1254081335,
				"z": 0.7098901956,
				"element": "C" 
			},
			{
				"x": -1.7523120337,
				"y": 0.7143880313,
				"z": -0.5365071859,
				"element": "C" 
			},
			{
				"x": -1.2945270031,
				"y": 0.1363177465,
				"z": -1.7327843325,
				"element": "C" 
			},
			{
				"x": -1.1025592241,
				"y": -1.3674004284,
				"z": -1.8406736759,
				"element": "C" 
			},
			{
				"x": -1.0345684044,
				"y": 0.9523501911,
				"z": -2.8439008116,
				"element": "C" 
			},
			{
				"x": -1.2245150665,
				"y": 2.3332138204,
				"z": -2.7795540025,
				"element": "C" 
			},
			{
				"x": -1.6851402127,
				"y": 2.9100106573,
				"z": -1.5917450567,
				"element": "C" 
			},
			{
				"x": -1.9442253828,
				"y": 2.1027696739,
				"z": -0.4868115829,
				"element": "C" 
			},
			{
				"x": 1.3378985979,
				"y": 1.9077989113,
				"z": -1.9834304435,
				"element": "H" 
			},
			{
				"x": 1.6865360277,
				"y": -0.1382266156,
				"z": -1.4119598509,
				"element": "H" 
			},
			{
				"x": 1.3575473913,
				"y": -1.5475282851,
				"z": 2.6256225205,
				"element": "H" 
			},
			{
				"x": 2.4890598922,
				"y": 0.5304048819,
				"z": 3.4423865572,
				"element": "H" 
			},
			{
				"x": 3.1678929934,
				"y": 2.28966053,
				"z": 1.8026575662,
				"element": "H" 
			},
			{
				"x": -1.8038993336,
				"y": -2.2119294813,
				"z": 1.35251327,
				"element": "H" 
			},
			{
				"x": -2.9214248992,
				"y": -1.9589877792,
				"z": 0.0148758162,
				"element": "H" 
			},
			{
				"x": -1.1983416646,
				"y": 0.1217042798,
				"z": 1.4421544691,
				"element": "H" 
			},
			{
				"x": -2.9306896453,
				"y": 0.1480453362,
				"z": 1.1784969631,
				"element": "H" 
			},
			{
				"x": -0.2498173258,
				"y": -1.6227129755,
				"z": -2.4725024235,
				"element": "H" 
			},
			{
				"x": -1.9844775081,
				"y": -1.8204919737,
				"z": -2.3162718064,
				"element": "H" 
			},
			{
				"x": -0.684726033,
				"y": 0.4972460493,
				"z": -3.7682464999,
				"element": "H" 
			},
			{
				"x": -1.0137656527,
				"y": 2.9532403211,
				"z": -3.6456449145,
				"element": "H" 
			},
			{
				"x": -1.8366456468,
				"y": 3.9833092612,
				"z": -1.5288736735,
				"element": "H" 
			},
			{
				"x": -2.2952761229,
				"y": 2.5538903545,
				"z": 0.4384345201,
				"element": "H" 
			}
		],
		 "valence_orbital": [ 
			{
				"type": "occ",
				"energy": -0.28861,
				"method": "rhf"
			},
			{
				"type": "occ",
				"energy": -0.27504,
				"method": "rhf"
			},
			{
				"type": "occ",
				"energy": -0.27092,
				"method": "rhf"
			},
			{
				"type": "occ",
				"energy": -0.26186,
				"method": "rhf"
			},
			{
				"type": "occ",
				"energy": -0.25887,
				"method": "rhf"
			},
			{
				"type": "unocc",
				"energy": -0.06354,
				"method": "rhf"
			},
			{
				"type": "unocc",
				"energy": -0.05053,
				"method": "rhf"
			},
			{
				"type": "unocc",
				"energy": -0.02995,
				"method": "rhf"
			},
			{
				"type": "unocc",
				"energy": -0.02413,
				"method": "rhf"
			},
			{
				"type": "unocc",
				"energy": 0.0292,
				"method": "rhf"
			}
		],
		"cosmo_sigma_profile": { 
			"-0.025": 0.0,
			"-0.024": 0.0,
			"-0.023": 0.0,
			"-0.022": 0.0,
			"-0.021": 0.0,
			"-0.02": 0.0,
			"-0.019": 0.0,
			"-0.018": 0.0,
			"-0.017": 0.0,
			"-0.016": 0.00234061305067,
			"-0.015": 0.0685787751728,
			"-0.014": 0.113440669316,
			"-0.013": 0.309365271869,
			"-0.012": 0.464784332776,
			"-0.011": 0.550783007864,
			"-0.01": 1.07019171695,
			"-0.009": 2.29212818825,
			"-0.008": 4.00600192685,
			"-0.007": 11.0759165994,
			"-0.006": 23.1700413081,
			"-0.005": 27.8650115185,
			"-0.004": 31.5405149475,
			"-0.003": 29.2974575048,
			"-0.002": 20.4355562621,
			"-0.001": 18.6643685605,
			"0.0": 20.6965382239,
			"0.001": 21.1309430191,
			"0.002": 13.0341507166,
			"0.003": 10.407299675,
			"0.004": 10.075709066,
			"0.005": 10.3550133261,
			"0.006": 7.951601854,
			"0.007": 6.88697329427,
			"0.008": 5.2377356908,
			"0.009": 8.15561312434,
			"0.01": 11.878017385,
			"0.011": 13.0808702048,
			"0.012": 5.04204860971,
			"0.013": 0.847914847295,
			"0.014": 0.0,
			"0.015": 0.0,
			"0.016": 0.0,
			"0.017": 0.0,
			"0.018": 0.0,
			"0.019": 0.0,
			"0.02": 0.0,
			"0.021": 0.0,
			"0.022": 0.0,
			"0.023": 0.0,
			"0.024": 0.0,
			"0.0": 0.0
		}
	}
}
