{
	 "smiles": "FC(F)(F)C1=C(Br)C=CC(=C1)S(Cl)(=O)=O", 
	 "Tm": 303.15, 
	 "num_atms": 18, 
	 "gaussian": { 
		 "optdone": 1, 
		 "sigma_profile": "yes", 
		 "theory": "DFT", 
		 "functional": "B3LYP", 
		 "basiset": "6-31G**", 
		 "properties": { 
			 "R2extent": 7540.3151, 
			 "electric_dipole_moment_norm": 3.56878084645, 
			 "electric_quadrupole_moment_norm": 14.3466165168, 
			 "total_energy": -4148.2322002, 
			 "HOMO_LUMO_gap": 0.18305, 
			 "cosmo_polarized_energy": -8.76, 
			 "cosmo_cavitation_energy": 29.98, 
			 "cosmo_dispersion_energy": -22.16, 
			 "cosmo_repulsion_energy": 1.64, 
			 "cosmo_total_nonelectrostatic_energy": 9.46, 
			 "SMD_solvation_energy": 3.91 
		},
		"coords": [
			{
				"x": 3.1170177902,
				"y": -2.5080183367,
				"z": 0.8754615976,
				"element": "F" 
			},
			{
				"x": 2.3516913376,
				"y": -1.9919034106,
				"z": -0.104141762,
				"element": "C" 
			},
			{
				"x": 2.6171451089,
				"y": -2.671021002,
				"z": -1.2354962187,
				"element": "F" 
			},
			{
				"x": 2.7487760289,
				"y": -0.7171881726,
				"z": -0.2965689059,
				"element": "F" 
			},
			{
				"x": 0.8784756378,
				"y": -2.0540902323,
				"z": 0.2500295882,
				"element": "C" 
			},
			{
				"x": 0.2107987556,
				"y": -3.2654372417,
				"z": 0.4997608567,
				"element": "C" 
			},
			{
				"x": 1.1031409995,
				"y": -4.9397569897,
				"z": 0.4230535835,
				"element": "Br" 
			},
			{
				"x": -1.1505429347,
				"y": -3.2810064749,
				"z": 0.8140176455,
				"element": "C" 
			},
			{
				"x": -1.8671173844,
				"y": -2.0906344682,
				"z": 0.8890810902,
				"element": "C" 
			},
			{
				"x": -1.1952908524,
				"y": -0.8949072797,
				"z": 0.6436343544,
				"element": "C" 
			},
			{
				"x": 0.1592228702,
				"y": -0.8604228801,
				"z": 0.3249813982,
				"element": "C" 
			},
			{
				"x": -2.1037492835,
				"y": 0.6438681527,
				"z": 0.7144259283,
				"element": "S" 
			},
			{
				"x": -1.8606099255,
				"y": 1.1708132752,
				"z": 2.7613466117,
				"element": "Cl" 
			},
			{
				"x": -1.3931799841,
				"y": 1.6539419141,
				"z": -0.0575810066,
				"element": "O" 
			},
			{
				"x": -3.5211779232,
				"y": 0.3634536709,
				"z": 0.5286613286,
				"element": "O" 
			},
			{
				"x": -1.6443038144,
				"y": -4.2281252531,
				"z": 0.9955411217,
				"element": "H" 
			},
			{
				"x": -2.9257285299,
				"y": -2.090793615,
				"z": 1.1231976648,
				"element": "H" 
			},
			{
				"x": 0.6520321034,
				"y": 0.0831283437,
				"z": 0.1269951239,
				"element": "H" 
			}
		],
		 "valence_orbital": [ 
			{
				"type": "occ",
				"energy": -0.33795,
				"method": "rhf"
			},
			{
				"type": "occ",
				"energy": -0.32503,
				"method": "rhf"
			},
			{
				"type": "occ",
				"energy": -0.31732,
				"method": "rhf"
			},
			{
				"type": "occ",
				"energy": -0.31469,
				"method": "rhf"
			},
			{
				"type": "occ",
				"energy": -0.28776,
				"method": "rhf"
			},
			{
				"type": "unocc",
				"energy": -0.10471,
				"method": "rhf"
			},
			{
				"type": "unocc",
				"energy": -0.0707,
				"method": "rhf"
			},
			{
				"type": "unocc",
				"energy": -0.06303,
				"method": "rhf"
			},
			{
				"type": "unocc",
				"energy": -0.02652,
				"method": "rhf"
			},
			{
				"type": "unocc",
				"energy": 0.03574,
				"method": "rhf"
			}
		],
		"cosmo_sigma_profile": { 
			"-0.025": 0.0,
			"-0.024": 0.0,
			"-0.023": 0.0,
			"-0.022": 0.0,
			"-0.021": 0.0,
			"-0.02": 0.0,
			"-0.019": 0.0,
			"-0.018": 0.0,
			"-0.017": 0.0,
			"-0.016": 0.0,
			"-0.015": 0.0,
			"-0.014": 0.0,
			"-0.013": 0.0,
			"-0.012": 0.0,
			"-0.011": 0.00424902734905,
			"-0.01": 1.50356810457,
			"-0.009": 4.15483017233,
			"-0.008": 4.5645139457,
			"-0.007": 6.78157291478,
			"-0.006": 7.99962719839,
			"-0.005": 9.53133571254,
			"-0.004": 11.7008550884,
			"-0.003": 16.7771691191,
			"-0.002": 25.0979768361,
			"-0.001": 20.9300380922,
			"0.0": 13.9632472242,
			"0.001": 21.9256886921,
			"0.002": 40.9574502188,
			"0.003": 31.4457944238,
			"0.004": 5.52359488506,
			"0.005": 3.29611743505,
			"0.006": 3.91599055133,
			"0.007": 7.42169888118,
			"0.008": 8.71556373414,
			"0.009": 1.76004374878,
			"0.01": 0.0,
			"0.011": 0.0,
			"0.012": 0.0,
			"0.013": 0.0,
			"0.014": 0.0,
			"0.015": 0.0,
			"0.016": 0.0,
			"0.017": 0.0,
			"0.018": 0.0,
			"0.019": 0.0,
			"0.02": 0.0,
			"0.021": 0.0,
			"0.022": 0.0,
			"0.023": 0.0,
			"0.024": 0.0,
			"0.025": 0.0
		}
	}
}
