{
	 "smiles": "CN1N=C(C)C(CO)=C1Cl", 
	 "Tm": 366.15, 
	 "num_atms": 19, 
	 "gaussian": { 
		 "optdone": 1, 
		 "sigma_profile": "yes", 
		 "theory": "DFT", 
		 "functional": "B3LYP", 
		 "basiset": "6-31G**", 
		 "properties": { 
			 "R2extent": 2751.06, 
			 "electric_dipole_moment_norm": 2.08488893469, 
			 "electric_quadrupole_moment_norm": 5.22385599725, 
			 "total_energy": -878.953610906, 
			 "HOMO_LUMO_gap": 0.25162, 
			 "cosmo_polarized_energy": -9.07, 
			 "cosmo_cavitation_energy": 24.37, 
			 "cosmo_dispersion_energy": -17.73, 
			 "cosmo_repulsion_energy": 1.46, 
			 "cosmo_total_nonelectrostatic_energy": 8.11, 
			 "SMD_solvation_energy": 3.34 
		},
		"coords": [
			{
				"x": -2.5614742984,
				"y": 0.3280475811,
				"z": -2.0749438337,
				"element": "C" 
			},
			{
				"x": -1.7637128094,
				"y": -0.3819808397,
				"z": -1.0929609543,
				"element": "N" 
			},
			{
				"x": -0.4176284773,
				"y": -0.4855622564,
				"z": -1.2484533307,
				"element": "N" 
			},
			{
				"x": 0.0139384637,
				"y": -1.1820159934,
				"z": -0.1972264943,
				"element": "C" 
			},
			{
				"x": 1.4672304953,
				"y": -1.5027618176,
				"z": -0.0292955385,
				"element": "C" 
			},
			{
				"x": -1.0550818877,
				"y": -1.5420459322,
				"z": 0.6707412765,
				"element": "C" 
			},
			{
				"x": -0.976839261,
				"y": -2.2854856949,
				"z": 1.9687444245,
				"element": "C" 
			},
			{
				"x": -0.1419090909,
				"y": -1.6402311672,
				"z": 2.932725392,
				"element": "O" 
			},
			{
				"x": -2.1655189071,
				"y": -0.9988435857,
				"z": 0.0472620215,
				"element": "C" 
			},
			{
				"x": -3.8309029978,
				"y": -1.0276577427,
				"z": 0.5224246751,
				"element": "Cl" 
			},
			{
				"x": -3.0702702019,
				"y": 1.1842715842,
				"z": -1.622351627,
				"element": "H" 
			},
			{
				"x": -1.871895657,
				"y": 0.6760003463,
				"z": -2.8426749453,
				"element": "H" 
			},
			{
				"x": -3.308416814,
				"y": -0.3332030143,
				"z": -2.5237236551,
				"element": "H" 
			},
			{
				"x": 1.6645578927,
				"y": -2.5648104988,
				"z": -0.2198122011,
				"element": "H" 
			},
			{
				"x": 1.7902765778,
				"y": -1.2917403905,
				"z": 0.9937547986,
				"element": "H" 
			},
			{
				"x": 2.0635988983,
				"y": -0.9155948118,
				"z": -0.7311189801,
				"element": "H" 
			},
			{
				"x": -1.9906032096,
				"y": -2.4504418089,
				"z": 2.3619048137,
				"element": "H" 
			},
			{
				"x": -0.5245166478,
				"y": -3.2722109554,
				"z": 1.8220238749,
				"element": "H" 
			},
			{
				"x": -0.4684320678,
				"y": -0.7360330023,
				"z": 3.0319802835,
				"element": "H" 
			}
		],
		 "valence_orbital": [ 
			{
				"type": "occ",
				"energy": -0.33388,
				"method": "rhf"
			},
			{
				"type": "occ",
				"energy": -0.29072,
				"method": "rhf"
			},
			{
				"type": "occ",
				"energy": -0.27243,
				"method": "rhf"
			},
			{
				"type": "occ",
				"energy": -0.24133,
				"method": "rhf"
			},
			{
				"type": "occ",
				"energy": -0.23931,
				"method": "rhf"
			},
			{
				"type": "unocc",
				"energy": 0.01231,
				"method": "rhf"
			},
			{
				"type": "unocc",
				"energy": 0.02799,
				"method": "rhf"
			},
			{
				"type": "unocc",
				"energy": 0.04463,
				"method": "rhf"
			},
			{
				"type": "unocc",
				"energy": 0.0975,
				"method": "rhf"
			},
			{
				"type": "unocc",
				"energy": 0.10706,
				"method": "rhf"
			}
		],
		"cosmo_sigma_profile": { 
			"-0.025": 0.0,
			"-0.024": 0.0,
			"-0.023": 0.0,
			"-0.022": 0.0,
			"-0.021": 0.0,
			"-0.02": 0.0,
			"-0.019": 0.0,
			"-0.018": 0.0,
			"-0.017": 0.0,
			"-0.016": 0.0542641846154,
			"-0.015": 0.860351586627,
			"-0.014": 0.824907073822,
			"-0.013": 0.743255199066,
			"-0.012": 0.90412817748,
			"-0.011": 0.790662349206,
			"-0.01": 0.667744662071,
			"-0.009": 0.536998503276,
			"-0.008": 1.26217586843,
			"-0.007": 2.2372451676,
			"-0.006": 7.10068658607,
			"-0.005": 10.310630242,
			"-0.004": 16.2677101471,
			"-0.003": 22.7014048588,
			"-0.002": 17.4244556587,
			"-0.001": 16.7333954525,
			"0.0": 17.4497562086,
			"0.001": 14.6670831829,
			"0.002": 15.7229606642,
			"0.003": 13.438351684,
			"0.004": 6.06475928571,
			"0.005": 4.2570270388,
			"0.006": 2.98850041405,
			"0.007": 2.84796516596,
			"0.008": 2.76282446041,
			"0.009": 2.1685930104,
			"0.01": 1.45074157956,
			"0.011": 2.73991705823,
			"0.012": 2.76228360311,
			"0.013": 2.07295929028,
			"0.014": 2.47839613858,
			"0.015": 1.09543643137,
			"0.016": 0.168039385578,
			"0.017": 0.0,
			"0.018": 0.0,
			"0.019": 0.0,
			"0.02": 0.0,
			"0.021": 0.0,
			"0.022": 0.0,
			"0.023": 0.0,
			"0.024": 0.0,
			"0.025": 0.0
		}
	}
}
