{
	 "smiles": "OC(=O)C1=CSC(=C1)[N+]([O-])=O", 
	 "Tm": 421.15, 
	 "num_atms": 14, 
	 "gaussian": { 
		 "optdone": 1, 
		 "sigma_profile": "yes", 
		 "theory": "DFT", 
		 "functional": "B3LYP", 
		 "basiset": "6-31G**", 
		 "properties": { 
			 "R2extent": 2988.2613, 
			 "electric_dipole_moment_norm": 4.97031219442, 
			 "electric_quadrupole_moment_norm": 10.0597479263, 
			 "total_energy": -946.065675523, 
			 "HOMO_LUMO_gap": 0.17824, 
			 "cosmo_polarized_energy": -13.05, 
			 "cosmo_cavitation_energy": 22.13, 
			 "cosmo_dispersion_energy": -16.76, 
			 "cosmo_repulsion_energy": 1.31, 
			 "cosmo_total_nonelectrostatic_energy": 6.67, 
			 "SMD_solvation_energy": 7.57 
		},
		"coords": [
			{
				"x": -1.3202983681,
				"y": -0.6236964627,
				"z": -1.8947527527,
				"element": "O" 
			},
			{
				"x": -0.950983137,
				"y": -0.416618037,
				"z": -0.6085785883,
				"element": "C" 
			},
			{
				"x": -1.4088644331,
				"y": -1.0425654009,
				"z": 0.3239917795,
				"element": "O" 
			},
			{
				"x": 0.0659446626,
				"y": 0.6501416032,
				"z": -0.4773526685,
				"element": "C" 
			},
			{
				"x": 0.6013066468,
				"y": 1.3746548322,
				"z": -1.5228542346,
				"element": "C" 
			},
			{
				"x": 1.7592206576,
				"y": 2.5354169486,
				"z": -1.0041748908,
				"element": "S" 
			},
			{
				"x": 1.517140778,
				"y": 2.0355989289,
				"z": 0.6466157957,
				"element": "C" 
			},
			{
				"x": 0.5983177042,
				"y": 1.0338840703,
				"z": 0.7867395778,
				"element": "C" 
			},
			{
				"x": 2.2600991666,
				"y": 2.675265918,
				"z": 1.6990532094,
				"element": "N" 
			},
			{
				"x": 3.0472009026,
				"y": 3.5648425129,
				"z": 1.363005465,
				"element": "O" 
			},
			{
				"x": 2.0572358951,
				"y": 2.290239087,
				"z": 2.8489587925,
				"element": "O" 
			},
			{
				"x": -1.9826795903,
				"y": -1.3342199409,
				"z": -1.8766384954,
				"element": "H" 
			},
			{
				"x": 0.3613960476,
				"y": 1.2718228558,
				"z": -2.5720420599,
				"element": "H" 
			},
			{
				"x": 0.3154630674,
				"y": 0.5935330847,
				"z": 1.7331290705,
				"element": "H" 
			}
		],
		 "valence_orbital": [ 
			{
				"type": "occ",
				"energy": -0.32031,
				"method": "rhf"
			},
			{
				"type": "occ",
				"energy": -0.30417,
				"method": "rhf"
			},
			{
				"type": "occ",
				"energy": -0.29768,
				"method": "rhf"
			},
			{
				"type": "occ",
				"energy": -0.29528,
				"method": "rhf"
			},
			{
				"type": "occ",
				"energy": -0.28458,
				"method": "rhf"
			},
			{
				"type": "unocc",
				"energy": -0.10634,
				"method": "rhf"
			},
			{
				"type": "unocc",
				"energy": -0.06206,
				"method": "rhf"
			},
			{
				"type": "unocc",
				"energy": -0.00637,
				"method": "rhf"
			},
			{
				"type": "unocc",
				"energy": 0.00674,
				"method": "rhf"
			},
			{
				"type": "unocc",
				"energy": 0.05841,
				"method": "rhf"
			}
		],
		"cosmo_sigma_profile": { 
			"-0.025": 0.0,
			"-0.024": 0.0,
			"-0.023": 0.0,
			"-0.022": 0.0,
			"-0.021": 0.0,
			"-0.02": 0.0,
			"-0.019": 0.519440493382,
			"-0.018": 0.961898650067,
			"-0.017": 1.11945627009,
			"-0.016": 0.897628967532,
			"-0.015": 0.24939022893,
			"-0.014": 0.515668573489,
			"-0.013": 0.376918441422,
			"-0.012": 1.75274762427,
			"-0.011": 2.48036738535,
			"-0.01": 2.04063632425,
			"-0.009": 2.94932128608,
			"-0.008": 3.79523385841,
			"-0.007": 4.17092833538,
			"-0.006": 5.04910685661,
			"-0.005": 6.06824425508,
			"-0.004": 8.91437642795,
			"-0.003": 14.5997164651,
			"-0.002": 20.3519322675,
			"-0.001": 19.2543105614,
			"0.0": 11.741212906,
			"0.001": 8.62081566551,
			"0.002": 4.44923935401,
			"0.003": 5.47379335532,
			"0.004": 5.57986151258,
			"0.005": 5.53430138123,
			"0.006": 7.58524035574,
			"0.007": 13.4825346055,
			"0.008": 6.47318438509,
			"0.009": 5.41839552024,
			"0.01": 4.18780463,
			"0.011": 4.91625474147,
			"0.012": 0.841759695977,
			"0.013": 0.0,
			"0.014": 0.0,
			"0.015": 0.0,
			"0.016": 0.0,
			"0.017": 0.0,
			"0.018": 0.0,
			"0.019": 0.0,
			"0.02": 0.0,
			"0.021": 0.0,
			"0.022": 0.0,
			"0.023": 0.0,
			"0.024": 0.0,
			"0.025": 0.0
		}
	}
}
