{
	 "smiles": "CC(C)=C", 
	 "Tm": 133.15, 
	 "num_atms": 12, 
	 "gaussian": { 
		 "optdone": 1, 
		 "sigma_profile": "yes", 
		 "theory": "DFT", 
		 "functional": "B3LYP", 
		 "basiset": "6-31G**", 
		 "properties": { 
			 "R2extent": 592.046, 
			 "electric_dipole_moment_norm": 0.525813446005, 
			 "electric_quadrupole_moment_norm": 1.81499672727, 
			 "total_energy": -157.23559064, 
			 "HOMO_LUMO_gap": 0.27018, 
			 "cosmo_polarized_energy": -1.54, 
			 "cosmo_cavitation_energy": 14.71, 
			 "cosmo_dispersion_energy": -10.67, 
			 "cosmo_repulsion_energy": 0.96, 
			 "cosmo_total_nonelectrostatic_energy": 5.01, 
			 "SMD_solvation_energy": 3.62 
		},
		"coords": [
			{
				"x": 0.59352929,
				"y": 2.3575212284,
				"z": -0.2423207807,
				"element": "C" 
			},
			{
				"x": -0.4802670491,
				"y": 1.3130776173,
				"z": -0.4227329895,
				"element": "C" 
			},
			{
				"x": -1.7186418055,
				"y": 1.4944641924,
				"z": 0.4198716938,
				"element": "C" 
			},
			{
				"x": -0.3432292909,
				"y": 0.2923185224,
				"z": -1.2745965251,
				"element": "C" 
			},
			{
				"x": 0.2111661399,
				"y": 3.3596957514,
				"z": -0.4765070858,
				"element": "H" 
			},
			{
				"x": 1.4598935504,
				"y": 2.1656310823,
				"z": -0.8810930518,
				"element": "H" 
			},
			{
				"x": 0.93779307,
				"y": 2.3922213371,
				"z": 0.7996384847,
				"element": "H" 
			},
			{
				"x": -2.4532136756,
				"y": 0.7049217413,
				"z": 0.2397084308,
				"element": "H" 
			},
			{
				"x": -2.1973287611,
				"y": 2.4606585282,
				"z": 0.2131497373,
				"element": "H" 
			},
			{
				"x": -1.4706471488,
				"y": 1.4933681592,
				"z": 1.4894049727,
				"element": "H" 
			},
			{
				"x": -1.1217947706,
				"y": -0.4555229232,
				"z": -1.3982299747,
				"element": "H" 
			},
			{
				"x": 0.5522404512,
				"y": 0.1693447633,
				"z": -1.8776929118,
				"element": "H" 
			}
		],
		 "valence_orbital": [ 
			{
				"type": "occ",
				"energy": -0.38243,
				"method": "rhf"
			},
			{
				"type": "occ",
				"energy": -0.36691,
				"method": "rhf"
			},
			{
				"type": "occ",
				"energy": -0.36043,
				"method": "rhf"
			},
			{
				"type": "occ",
				"energy": -0.33423,
				"method": "rhf"
			},
			{
				"type": "occ",
				"energy": -0.23957,
				"method": "rhf"
			},
			{
				"type": "unocc",
				"energy": 0.03061,
				"method": "rhf"
			},
			{
				"type": "unocc",
				"energy": 0.09702,
				"method": "rhf"
			},
			{
				"type": "unocc",
				"energy": 0.13947,
				"method": "rhf"
			},
			{
				"type": "unocc",
				"energy": 0.15152,
				"method": "rhf"
			},
			{
				"type": "unocc",
				"energy": 0.15686,
				"method": "rhf"
			}
		],
		"cosmo_sigma_profile": { 
			"-0.025": 0.0,
			"-0.024": 0.0,
			"-0.023": 0.0,
			"-0.022": 0.0,
			"-0.021": 0.0,
			"-0.02": 0.0,
			"-0.019": 0.0,
			"-0.018": 0.0,
			"-0.017": 0.0,
			"-0.016": 0.0,
			"-0.015": 0.0,
			"-0.014": 0.0,
			"-0.013": 0.0,
			"-0.012": 0.0,
			"-0.011": 0.0,
			"-0.01": 0.0,
			"-0.009": 0.0,
			"-0.008": 0.0,
			"-0.007": 0.0,
			"-0.006": 0.0,
			"-0.005": 0.0112064894188,
			"-0.004": 6.01697935032,
			"-0.003": 18.6911437526,
			"-0.002": 14.8034076484,
			"-0.001": 15.8498007644,
			"0.0": 18.4354233917,
			"0.001": 15.1756490809,
			"0.002": 6.01159134558,
			"0.003": 4.62932214304,
			"0.004": 4.54712679758,
			"0.005": 3.30209042978,
			"0.006": 3.40969056152,
			"0.007": 2.84889165148,
			"0.008": 1.12789266035,
			"0.009": 0.0,
			"0.01": 0.0,
			"0.011": 0.0,
			"0.012": 0.0,
			"0.013": 0.0,
			"0.014": 0.0,
			"0.015": 0.0,
			"0.016": 0.0,
			"0.017": 0.0,
			"0.018": 0.0,
			"0.019": 0.0,
			"0.02": 0.0,
			"0.021": 0.0,
			"0.022": 0.0,
			"0.023": 0.0,
			"0.024": 0.0,
			"0.025": 0.0
		}
	}
}
