{
	 "smiles": "CN1C(=O)C(C2=NNC(=O)C2=C/C2=CC=CC(O)=C2)=C(O)C2=CC=CC=C12", 
	 "Tm": 563.15, 
	 "num_atms": 42, 
	 "gaussian": { 
		 "optdone": 1, 
		 "sigma_profile": "yes", 
		 "theory": "DFT", 
		 "functional": "B3LYP", 
		 "basiset": "6-31G**", 
		 "properties": { 
			 "R2extent": 12080.5211, 
			 "electric_dipole_moment_norm": 7.11290537615, 
			 "electric_quadrupole_moment_norm": 12.686633879, 
			 "total_energy": -1236.30470825, 
			 "HOMO_LUMO_gap": 0.12672, 
			 "cosmo_polarized_energy": -28.83, 
			 "cosmo_cavitation_energy": 46.56, 
			 "cosmo_dispersion_energy": -33.2, 
			 "cosmo_repulsion_energy": 2.46, 
			 "cosmo_total_nonelectrostatic_energy": 15.82, 
			 "SMD_solvation_energy": 8.27 
		},
		"coords": [
			{
				"x": 0.9034946905,
				"y": -3.7205021979,
				"z": 2.5339099365,
				"element": "C" 
			},
			{
				"x": 0.8511123337,
				"y": -2.2691649305,
				"z": 2.3578831892,
				"element": "N" 
			},
			{
				"x": -0.0392660253,
				"y": -1.781038764,
				"z": 1.3740124858,
				"element": "C" 
			},
			{
				"x": -0.7041800602,
				"y": -2.5615398606,
				"z": 0.6948027685,
				"element": "O" 
			},
			{
				"x": -0.1271601066,
				"y": -0.3299125403,
				"z": 1.2318146362,
				"element": "C" 
			},
			{
				"x": -1.1353794039,
				"y": 0.2017565993,
				"z": 0.2878943811,
				"element": "C" 
			},
			{
				"x": -2.134371312,
				"y": 0.915459573,
				"z": 0.7261273677,
				"element": "N" 
			},
			{
				"x": -2.8667978023,
				"y": 1.2813283807,
				"z": -0.3815726322,
				"element": "N" 
			},
			{
				"x": -2.3807719194,
				"y": 0.8172491645,
				"z": -1.5841973353,
				"element": "C" 
			},
			{
				"x": -2.9015594574,
				"y": 1.0351586165,
				"z": -2.6778508535,
				"element": "O" 
			},
			{
				"x": -1.1581507157,
				"y": 0.0590521891,
				"z": -1.1722240231,
				"element": "C" 
			},
			{
				"x": -0.2191722248,
				"y": -0.6240053998,
				"z": -1.8856164767,
				"element": "C" 
			},
			{
				"x": -0.0258541073,
				"y": -0.8828419293,
				"z": -3.3022476632,
				"element": "C" 
			},
			{
				"x": 1.1076587598,
				"y": -1.6459616512,
				"z": -3.6611858207,
				"element": "C" 
			},
			{
				"x": 1.367626374,
				"y": -1.9360623899,
				"z": -4.9969918449,
				"element": "C" 
			},
			{
				"x": 0.5138863534,
				"y": -1.4787271798,
				"z": -5.9994354144,
				"element": "C" 
			},
			{
				"x": -0.6138566184,
				"y": -0.722217661,
				"z": -5.6520353335,
				"element": "C" 
			},
			{
				"x": -1.419242958,
				"y": -0.298906474,
				"z": -6.6692561072,
				"element": "O" 
			},
			{
				"x": -0.8871886649,
				"y": -0.4229115293,
				"z": -4.3187710866,
				"element": "C" 
			},
			{
				"x": 0.6581769026,
				"y": 0.4993336612,
				"z": 1.9865704214,
				"element": "C" 
			},
			{
				"x": 0.5578677473,
				"y": 1.8349690188,
				"z": 1.7997515005,
				"element": "O" 
			},
			{
				"x": 1.6012657772,
				"y": -0.0356596098,
				"z": 2.9501396443,
				"element": "C" 
			},
			{
				"x": 2.4644254587,
				"y": 0.7806874202,
				"z": 3.7051150517,
				"element": "C" 
			},
			{
				"x": 3.3405331214,
				"y": 0.2464504084,
				"z": 4.6363278479,
				"element": "C" 
			},
			{
				"x": 3.3705559948,
				"y": -1.1408487151,
				"z": 4.8240047958,
				"element": "C" 
			},
			{
				"x": 2.5479420423,
				"y": -1.975890204,
				"z": 4.0815190629,
				"element": "C" 
			},
			{
				"x": 1.6564324482,
				"y": -1.4448625862,
				"z": 3.1258893311,
				"element": "C" 
			},
			{
				"x": 1.9060488013,
				"y": -4.1024754,
				"z": 2.3164734758,
				"element": "H" 
			},
			{
				"x": 0.1903850943,
				"y": -4.1497572012,
				"z": 1.8337241396,
				"element": "H" 
			},
			{
				"x": 0.6271918058,
				"y": -3.9956047954,
				"z": 3.5564560884,
				"element": "H" 
			},
			{
				"x": -3.7104106429,
				"y": 1.8202455112,
				"z": -0.2664685052,
				"element": "H" 
			},
			{
				"x": 0.5537556453,
				"y": -1.0759405256,
				"z": -1.2666820575,
				"element": "H" 
			},
			{
				"x": 1.7749725885,
				"y": -2.0083960065,
				"z": -2.884989269,
				"element": "H" 
			},
			{
				"x": 2.2406578322,
				"y": -2.5240552893,
				"z": -5.2641845508,
				"element": "H" 
			},
			{
				"x": 0.6998048104,
				"y": -1.6957219446,
				"z": -7.0462380657,
				"element": "H" 
			},
			{
				"x": -2.1566817852,
				"y": 0.2011623677,
				"z": -6.2938294819,
				"element": "H" 
			},
			{
				"x": -1.7616032116,
				"y": 0.1621301197,
				"z": -4.0476155536,
				"element": "H" 
			},
			{
				"x": 1.0090376232,
				"y": 2.3078090526,
				"z": 2.5095132379,
				"element": "H" 
			},
			{
				"x": 2.4723554953,
				"y": 1.857535638,
				"z": 3.5533827657,
				"element": "H" 
			},
			{
				"x": 3.9964224934,
				"y": 0.8956101288,
				"z": 5.2065337829,
				"element": "H" 
			},
			{
				"x": 4.048610486,
				"y": -1.5759822717,
				"z": 5.552033083,
				"element": "H" 
			},
			{
				"x": 2.5992263362,
				"y": -3.0451507927,
				"z": 4.2388130809,
				"element": "H" 
			}
		],
		 "valence_orbital": [ 
			{
				"type": "occ",
				"energy": -0.24397,
				"method": "rhf"
			},
			{
				"type": "occ",
				"energy": -0.24005,
				"method": "rhf"
			},
			{
				"type": "occ",
				"energy": -0.22692,
				"method": "rhf"
			},
			{
				"type": "occ",
				"energy": -0.22214,
				"method": "rhf"
			},
			{
				"type": "occ",
				"energy": -0.20739,
				"method": "rhf"
			},
			{
				"type": "unocc",
				"energy": -0.08067,
				"method": "rhf"
			},
			{
				"type": "unocc",
				"energy": -0.06014,
				"method": "rhf"
			},
			{
				"type": "unocc",
				"energy": -0.01944,
				"method": "rhf"
			},
			{
				"type": "unocc",
				"energy": 0.00897,
				"method": "rhf"
			},
			{
				"type": "unocc",
				"energy": 0.01342,
				"method": "rhf"
			}
		],
		"cosmo_sigma_profile": { 
			"-0.025": 0.0,
			"-0.024": 0.0,
			"-0.023": 0.0,
			"-0.022": 0.0,
			"-0.021": 0.0,
			"-0.02": 0.0,
			"-0.019": 0.271757625296,
			"-0.018": 1.38960671288,
			"-0.017": 1.73238533877,
			"-0.016": 3.22498302815,
			"-0.015": 2.95112851675,
			"-0.014": 2.57755454436,
			"-0.013": 2.33567240526,
			"-0.012": 3.02076302038,
			"-0.011": 3.25708792305,
			"-0.01": 2.52116666673,
			"-0.009": 2.90200403381,
			"-0.008": 3.6562488522,
			"-0.007": 11.757981369,
			"-0.006": 22.154252719,
			"-0.005": 23.2786057555,
			"-0.004": 19.3871059245,
			"-0.003": 19.8524452122,
			"-0.002": 20.8088263961,
			"-0.001": 24.3624551177,
			"0.0": 26.1587747497,
			"0.001": 26.5890024747,
			"0.002": 25.6234046116,
			"0.003": 32.0636839405,
			"0.004": 22.4947846391,
			"0.005": 9.34550427582,
			"0.006": 6.90882526028,
			"0.007": 7.87831074478,
			"0.008": 5.94141596978,
			"0.009": 6.84131209712,
			"0.01": 7.75884630623,
			"0.011": 7.17520390137,
			"0.012": 6.15846284588,
			"0.013": 7.74893626521,
			"0.014": 3.71095308442,
			"0.015": 0.330214906769,
			"0.016": 0.0,
			"0.017": 0.0,
			"0.018": 0.0,
			"0.019": 0.0,
			"0.02": 0.0,
			"0.021": 0.0,
			"0.022": 0.0,
			"0.023": 0.0,
			"0.024": 0.0,
			"0.025": 0.0
		}
	}
}
