{
	 "smiles": "CCCCC(=O)NN", 
	 "Tm": 333.15, 
	 "num_atms": 20, 
	 "gaussian": { 
		 "optdone": 1, 
		 "sigma_profile": "yes", 
		 "theory": "DFT", 
		 "functional": "B3LYP", 
		 "basiset": "6-31G**", 
		 "properties": { 
			 "R2extent": 1588.5047, 
			 "electric_dipole_moment_norm": 2.1515328373, 
			 "electric_quadrupole_moment_norm": 5.11876919874, 
			 "total_energy": -382.484777197, 
			 "HOMO_LUMO_gap": 0.27742, 
			 "cosmo_polarized_energy": -11.45, 
			 "cosmo_cavitation_energy": 22.49, 
			 "cosmo_dispersion_energy": -16.09, 
			 "cosmo_repulsion_energy": 1.37, 
			 "cosmo_total_nonelectrostatic_energy": 7.78, 
			 "SMD_solvation_energy": 4.63 
		},
		"coords": [
			{
				"x": 0.9702708218,
				"y": 2.440773249,
				"z": -0.6063876713,
				"element": "C" 
			},
			{
				"x": 0.5830501075,
				"y": 1.3118917332,
				"z": -1.5695736206,
				"element": "C" 
			},
			{
				"x": 0.9890069406,
				"y": -0.1017575811,
				"z": -1.1213143595,
				"element": "C" 
			},
			{
				"x": 0.342306654,
				"y": -0.583221342,
				"z": 0.1888722948,
				"element": "C" 
			},
			{
				"x": 1.0540400131,
				"y": -0.0632230231,
				"z": 1.4343365804,
				"element": "C" 
			},
			{
				"x": 2.2738480269,
				"y": 0.0194114979,
				"z": 1.5247563049,
				"element": "O" 
			},
			{
				"x": 0.2360845115,
				"y": 0.2682586331,
				"z": 2.4810399475,
				"element": "N" 
			},
			{
				"x": 0.7424270993,
				"y": 0.800544673,
				"z": 3.6828189152,
				"element": "N" 
			},
			{
				"x": 2.0411113686,
				"y": 2.41972962,
				"z": -0.3803987224,
				"element": "H" 
			},
			{
				"x": 0.7319562161,
				"y": 3.4187372254,
				"z": -1.0377296178,
				"element": "H" 
			},
			{
				"x": 0.4328564533,
				"y": 2.3671396045,
				"z": 0.3451407753,
				"element": "H" 
			},
			{
				"x": -0.5024187458,
				"y": 1.3370578546,
				"z": -1.7423705375,
				"element": "H" 
			},
			{
				"x": 1.0459777747,
				"y": 1.5029511724,
				"z": -2.546164834,
				"element": "H" 
			},
			{
				"x": 2.0760053656,
				"y": -0.1580124089,
				"z": -0.9944104479,
				"element": "H" 
			},
			{
				"x": 0.7238517109,
				"y": -0.8073645184,
				"z": -1.9174433717,
				"element": "H" 
			},
			{
				"x": -0.7276379831,
				"y": -0.3377722642,
				"z": 0.2135211613,
				"element": "H" 
			},
			{
				"x": 0.4103632589,
				"y": -1.6774652698,
				"z": 0.2409486872,
				"element": "H" 
			},
			{
				"x": -0.7628407616,
				"y": 0.3458296444,
				"z": 2.3643798137,
				"element": "H" 
			},
			{
				"x": 1.2479623309,
				"y": 0.0531317652,
				"z": 4.1583616796,
				"element": "H" 
			},
			{
				"x": 1.4581788367,
				"y": 1.4816597346,
				"z": 3.4268170228,
				"element": "H" 
			}
		],
		 "valence_orbital": [ 
			{
				"type": "occ",
				"energy": -0.324,
				"method": "rhf"
			},
			{
				"type": "occ",
				"energy": -0.31845,
				"method": "rhf"
			},
			{
				"type": "occ",
				"energy": -0.27996,
				"method": "rhf"
			},
			{
				"type": "occ",
				"energy": -0.25675,
				"method": "rhf"
			},
			{
				"type": "occ",
				"energy": -0.25036,
				"method": "rhf"
			},
			{
				"type": "unocc",
				"energy": 0.02706,
				"method": "rhf"
			},
			{
				"type": "unocc",
				"energy": 0.07308,
				"method": "rhf"
			},
			{
				"type": "unocc",
				"energy": 0.08654,
				"method": "rhf"
			},
			{
				"type": "unocc",
				"energy": 0.10621,
				"method": "rhf"
			},
			{
				"type": "unocc",
				"energy": 0.1356,
				"method": "rhf"
			}
		],
		"cosmo_sigma_profile": { 
			"-0.025": 0.0,
			"-0.024": 0.0,
			"-0.023": 0.0,
			"-0.022": 0.0,
			"-0.021": 0.0,
			"-0.02": 0.0,
			"-0.019": 0.0,
			"-0.018": 0.0,
			"-0.017": 0.0,
			"-0.016": 0.0,
			"-0.015": 0.045496499233,
			"-0.014": 0.750090007355,
			"-0.013": 1.29454260168,
			"-0.012": 0.770716253883,
			"-0.011": 2.78059762723,
			"-0.01": 3.51317803572,
			"-0.009": 3.83436569581,
			"-0.008": 3.59396653067,
			"-0.007": 2.72166449128,
			"-0.006": 2.97571737181,
			"-0.005": 6.02083083434,
			"-0.004": 6.261153577,
			"-0.003": 11.6813570011,
			"-0.002": 21.0190779623,
			"-0.001": 22.4511251864,
			"0.0": 21.4146555087,
			"0.001": 19.3594720666,
			"0.002": 8.02092920012,
			"0.003": 3.49534636175,
			"0.004": 2.78112865827,
			"0.005": 3.00091869581,
			"0.006": 2.73919744023,
			"0.007": 1.63166122509,
			"0.008": 2.25369360472,
			"0.009": 1.45282114916,
			"0.01": 2.7803655815,
			"0.011": 2.12723559576,
			"0.012": 2.10037693876,
			"0.013": 2.97053274181,
			"0.014": 5.3687656989,
			"0.015": 1.11572102928,
			"0.016": 1.01911926281,
			"0.017": 0.235351390992,
			"0.018": 0.0,
			"0.019": 0.0,
			"0.02": 0.0,
			"0.021": 0.0,
			"0.022": 0.0,
			"0.023": 0.0,
			"0.024": 0.0,
			"0.025": 0.0
		}
	}
}
