{
	 "smiles": "CC(=O)C1=CC=C(NS(C)(=O)=O)C=C1", 
	 "Tm": 429.15, 
	 "num_atms": 25, 
	 "gaussian": { 
		 "optdone": 1, 
		 "sigma_profile": "yes", 
		 "theory": "DFT", 
		 "functional": "B3LYP", 
		 "basiset": "6-31G**", 
		 "properties": { 
			 "R2extent": 4519.7401, 
			 "electric_dipole_moment_norm": 5.20561026778, 
			 "electric_quadrupole_moment_norm": 23.1481948475, 
			 "total_energy": -1028.13737168, 
			 "HOMO_LUMO_gap": 0.18306, 
			 "cosmo_polarized_energy": -20.7, 
			 "cosmo_cavitation_energy": 30.52, 
			 "cosmo_dispersion_energy": -22.51, 
			 "cosmo_repulsion_energy": 1.71, 
			 "cosmo_total_nonelectrostatic_energy": 9.73, 
			 "SMD_solvation_energy": 5.59 
		},
		"coords": [
			{
				"x": 2.8158911909,
				"y": -3.4744506406,
				"z": 0.8560359446,
				"element": "C" 
			},
			{
				"x": 2.8232671231,
				"y": -1.9779639005,
				"z": 0.5879558412,
				"element": "C" 
			},
			{
				"x": 3.8792631145,
				"y": -1.3773135982,
				"z": 0.4507295781,
				"element": "O" 
			},
			{
				"x": 1.5175104411,
				"y": -1.2550598818,
				"z": 0.4952760826,
				"element": "C" 
			},
			{
				"x": 1.5328872972,
				"y": 0.1217569852,
				"z": 0.2206928849,
				"element": "C" 
			},
			{
				"x": 0.3596937485,
				"y": 0.8562497908,
				"z": 0.1122819018,
				"element": "C" 
			},
			{
				"x": -0.8779154509,
				"y": 0.215613029,
				"z": 0.3036723787,
				"element": "C" 
			},
			{
				"x": -2.1034615798,
				"y": 0.9029073561,
				"z": 0.1984592514,
				"element": "N" 
			},
			{
				"x": -2.3902771752,
				"y": 2.5278182887,
				"z": 0.5788972492,
				"element": "S" 
			},
			{
				"x": -1.9193069968,
				"y": 2.6780991413,
				"z": 2.3140668502,
				"element": "C" 
			},
			{
				"x": -1.4737185475,
				"y": 3.3614162227,
				"z": -0.1948245616,
				"element": "O" 
			},
			{
				"x": -3.8413114803,
				"y": 2.6603228646,
				"z": 0.468067966,
				"element": "O" 
			},
			{
				"x": -0.9079109183,
				"y": -1.1610333406,
				"z": 0.5806365093,
				"element": "C" 
			},
			{
				"x": 0.2755411037,
				"y": -1.8853945204,
				"z": 0.6638928742,
				"element": "C" 
			},
			{
				"x": 3.8470497736,
				"y": -3.8268664621,
				"z": 0.8894278569,
				"element": "H" 
			},
			{
				"x": 2.3241457432,
				"y": -3.7026002168,
				"z": 1.8083010648,
				"element": "H" 
			},
			{
				"x": 2.2737913984,
				"y": -4.0127876535,
				"z": 0.0706429774,
				"element": "H" 
			},
			{
				"x": 2.4959173603,
				"y": 0.6005854621,
				"z": 0.0776812783,
				"element": "H" 
			},
			{
				"x": 0.3888368705,
				"y": 1.9092819034,
				"z": -0.1408658527,
				"element": "H" 
			},
			{
				"x": -2.9504195684,
				"y": 0.3559379675,
				"z": 0.3007954084,
				"element": "H" 
			},
			{
				"x": -0.8812795357,
				"y": 2.3619379594,
				"z": 2.4279865438,
				"element": "H" 
			},
			{
				"x": -2.588520763,
				"y": 2.0631650012,
				"z": 2.9166879252,
				"element": "H" 
			},
			{
				"x": -2.0242169047,
				"y": 3.7316769655,
				"z": 2.5786243368,
				"element": "H" 
			},
			{
				"x": -1.8622191088,
				"y": -1.6602873222,
				"z": 0.7281994681,
				"element": "H" 
			},
			{
				"x": 0.2216628642,
				"y": -2.9487114008,
				"z": 0.8737782424,
				"element": "H" 
			}
		],
		 "valence_orbital": [ 
			{
				"type": "occ",
				"energy": -0.31922,
				"method": "rhf"
			},
			{
				"type": "occ",
				"energy": -0.31339,
				"method": "rhf"
			},
			{
				"type": "occ",
				"energy": -0.27282,
				"method": "rhf"
			},
			{
				"type": "occ",
				"energy": -0.25038,
				"method": "rhf"
			},
			{
				"type": "occ",
				"energy": -0.24153,
				"method": "rhf"
			},
			{
				"type": "unocc",
				"energy": -0.05847,
				"method": "rhf"
			},
			{
				"type": "unocc",
				"energy": -0.02263,
				"method": "rhf"
			},
			{
				"type": "unocc",
				"energy": 0.02704,
				"method": "rhf"
			},
			{
				"type": "unocc",
				"energy": 0.04974,
				"method": "rhf"
			},
			{
				"type": "unocc",
				"energy": 0.06153,
				"method": "rhf"
			}
		],
		"cosmo_sigma_profile": { 
			"-0.025": 0.0,
			"-0.024": 0.0,
			"-0.023": 0.0,
			"-0.022": 0.0,
			"-0.021": 0.0,
			"-0.02": 0.0,
			"-0.019": 0.0,
			"-0.018": 0.0,
			"-0.017": 0.0207450750217,
			"-0.016": 0.872711673109,
			"-0.015": 1.06550945682,
			"-0.014": 1.05867970073,
			"-0.013": 1.71993689682,
			"-0.012": 1.26260432208,
			"-0.011": 0.85341260804,
			"-0.01": 2.55812125996,
			"-0.009": 5.57689688152,
			"-0.008": 6.11460633851,
			"-0.007": 9.12993133101,
			"-0.006": 15.7202949648,
			"-0.005": 19.7816129462,
			"-0.004": 18.9898009001,
			"-0.003": 15.8268854654,
			"-0.002": 11.4816811819,
			"-0.001": 14.5174069412,
			"0.0": 10.7652335854,
			"0.001": 10.1560019284,
			"0.002": 14.7699220843,
			"0.003": 16.6130160665,
			"0.004": 9.3645450774,
			"0.005": 4.76687674379,
			"0.006": 5.67715403502,
			"0.007": 4.5809291378,
			"0.008": 4.56507641903,
			"0.009": 5.18955114201,
			"0.01": 11.046013382,
			"0.011": 11.1503660942,
			"0.012": 5.22040788199,
			"0.013": 2.14889397838,
			"0.014": 0.367376468378,
			"0.015": 0.0,
			"0.016": 0.0,
			"0.017": 0.0,
			"0.018": 0.0,
			"0.019": 0.0,
			"0.02": 0.0,
			"0.021": 0.0,
			"0.022": 0.0,
			"0.023": 0.0,
			"0.024": 0.0,
			"0.025": 0.0
		}
	}
}
