{
	 "smiles": "NC(=O)C1=CC(F)=C(F)C=C1", 
	 "Tm": 407.15, 
	 "num_atms": 16, 
	 "gaussian": { 
		 "optdone": 1, 
		 "sigma_profile": "yes", 
		 "theory": "DFT", 
		 "functional": "B3LYP", 
		 "basiset": "6-31G**", 
		 "properties": { 
			 "R2extent": 4616.879, 
			 "electric_dipole_moment_norm": 4.24681979133, 
			 "electric_quadrupole_moment_norm": 10.3431911613, 
			 "total_energy": -599.412337919, 
			 "HOMO_LUMO_gap": 0.20988, 
			 "cosmo_polarized_energy": -12.63, 
			 "cosmo_cavitation_energy": 21.88, 
			 "cosmo_dispersion_energy": -15.95, 
			 "cosmo_repulsion_energy": 1.24, 
			 "cosmo_total_nonelectrostatic_energy": 7.17, 
			 "SMD_solvation_energy": 5.63 
		},
		"coords": [
			{
				"x": -1.045493574,
				"y": -0.7646534328,
				"z": -0.8378977078,
				"element": "N" 
			},
			{
				"x": -0.3974756944,
				"y": -1.9738919592,
				"z": -0.9238333139,
				"element": "C" 
			},
			{
				"x": -1.0084529877,
				"y": -3.0324569279,
				"z": -0.9943073773,
				"element": "O" 
			},
			{
				"x": 1.1047804667,
				"y": -1.927753463,
				"z": -0.8986731021,
				"element": "C" 
			},
			{
				"x": 1.7781975815,
				"y": -3.0810527391,
				"z": -1.3255403466,
				"element": "C" 
			},
			{
				"x": 3.1612772591,
				"y": -3.1060711591,
				"z": -1.3275308978,
				"element": "C" 
			},
			{
				"x": 3.8282783918,
				"y": -4.1950177197,
				"z": -1.7419842556,
				"element": "F" 
			},
			{
				"x": 3.8902345781,
				"y": -1.9953687863,
				"z": -0.8949458877,
				"element": "C" 
			},
			{
				"x": 5.2302638143,
				"y": -2.0513514928,
				"z": -0.906562334,
				"element": "F" 
			},
			{
				"x": 3.2360740231,
				"y": -0.8539226954,
				"z": -0.4521029433,
				"element": "C" 
			},
			{
				"x": 1.8407512243,
				"y": -0.8213334352,
				"z": -0.4543927875,
				"element": "C" 
			},
			{
				"x": -0.5829744799,
				"y": 0.0842636991,
				"z": -1.1233232737,
				"element": "H" 
			},
			{
				"x": -2.0457762521,
				"y": -0.8043294754,
				"z": -0.9723949014,
				"element": "H" 
			},
			{
				"x": 1.210803025,
				"y": -3.9467275853,
				"z": -1.6473784392,
				"element": "H" 
			},
			{
				"x": 3.8263372556,
				"y": -0.0132383187,
				"z": -0.1040732923,
				"element": "H" 
			},
			{
				"x": 1.3363753685,
				"y": 0.0598054906,
				"z": -0.0717591396,
				"element": "H" 
			}
		],
		 "valence_orbital": [ 
			{
				"type": "occ",
				"energy": -0.3616,
				"method": "rhf"
			},
			{
				"type": "occ",
				"energy": -0.28166,
				"method": "rhf"
			},
			{
				"type": "occ",
				"energy": -0.27211,
				"method": "rhf"
			},
			{
				"type": "occ",
				"energy": -0.25971,
				"method": "rhf"
			},
			{
				"type": "occ",
				"energy": -0.25547,
				"method": "rhf"
			},
			{
				"type": "unocc",
				"energy": -0.04559,
				"method": "rhf"
			},
			{
				"type": "unocc",
				"energy": -0.02194,
				"method": "rhf"
			},
			{
				"type": "unocc",
				"energy": 0.05082,
				"method": "rhf"
			},
			{
				"type": "unocc",
				"energy": 0.06319,
				"method": "rhf"
			},
			{
				"type": "unocc",
				"energy": 0.08552,
				"method": "rhf"
			}
		],
		"cosmo_sigma_profile": { 
			"-0.025": 0.0,
			"-0.024": 0.0,
			"-0.023": 0.0,
			"-0.022": 0.0,
			"-0.021": 0.0,
			"-0.02": 0.0,
			"-0.019": 0.0,
			"-0.018": 0.0,
			"-0.017": 0.0,
			"-0.016": 0.0,
			"-0.015": 0.237596131265,
			"-0.014": 1.93358084947,
			"-0.013": 2.14397733188,
			"-0.012": 3.21425588576,
			"-0.011": 2.54136445906,
			"-0.01": 2.55673274675,
			"-0.009": 2.76289381985,
			"-0.008": 4.45467502516,
			"-0.007": 5.94759961441,
			"-0.006": 6.58309333257,
			"-0.005": 4.72315228573,
			"-0.004": 4.90170987776,
			"-0.003": 5.52379724951,
			"-0.002": 10.0035054701,
			"-0.001": 15.1628595567,
			"0.0": 18.0118291929,
			"0.001": 14.0077706841,
			"0.002": 14.5436540899,
			"0.003": 20.4003206091,
			"0.004": 13.5226327156,
			"0.005": 2.00963988846,
			"0.006": 2.41664878013,
			"0.007": 1.71071582227,
			"0.008": 2.13397748313,
			"0.009": 1.51180758731,
			"0.01": 1.17063747641,
			"0.011": 1.81634064369,
			"0.012": 2.35886958123,
			"0.013": 5.17179091724,
			"0.014": 2.20505776177,
			"0.015": 0.071797044714,
			"0.016": 0.0,
			"0.017": 0.0,
			"0.018": 0.0,
			"0.019": 0.0,
			"0.02": 0.0,
			"0.021": 0.0,
			"0.022": 0.0,
			"0.023": 0.0,
			"0.024": 0.0,
			"0.025": 0.0
		}
	}
}
