{
	 "smiles": "CC(=O)NC1=CC(C(O)=O)=C(F)C=C1", 
	 "Tm": 533.15, 
	 "num_atms": 22, 
	 "gaussian": { 
		 "optdone": 1, 
		 "sigma_profile": "yes", 
		 "theory": "DFT", 
		 "functional": "B3LYP", 
		 "basiset": "6-31G**", 
		 "properties": { 
			 "R2extent": 3843.9552, 
			 "electric_dipole_moment_norm": 3.11076591212, 
			 "electric_quadrupole_moment_norm": 10.3450467515, 
			 "total_energy": -728.064874584, 
			 "HOMO_LUMO_gap": 0.17265, 
			 "cosmo_polarized_energy": -17.0, 
			 "cosmo_cavitation_energy": 27.68, 
			 "cosmo_dispersion_energy": -20.01, 
			 "cosmo_repulsion_energy": 1.56, 
			 "cosmo_total_nonelectrostatic_energy": 9.23, 
			 "SMD_solvation_energy": 7.39 
		},
		"coords": [
			{
				"x": -0.6350832037,
				"y": -2.7266732607,
				"z": 1.0646528979,
				"element": "C" 
			},
			{
				"x": 0.4556046779,
				"y": -2.0214943245,
				"z": 1.8489752686,
				"element": "C" 
			},
			{
				"x": 1.2470592199,
				"y": -2.6321048026,
				"z": 2.5505387113,
				"element": "O" 
			},
			{
				"x": 0.5590500199,
				"y": -0.6406220331,
				"z": 1.7527696289,
				"element": "N" 
			},
			{
				"x": -0.1813673605,
				"y": 0.3017634307,
				"z": 1.0058553793,
				"element": "C" 
			},
			{
				"x": 0.4997412636,
				"y": 1.3336636296,
				"z": 0.3560793828,
				"element": "C" 
			},
			{
				"x": -0.1751959699,
				"y": 2.3300159372,
				"z": -0.3629552507,
				"element": "C" 
			},
			{
				"x": 0.6734684686,
				"y": 3.3781986841,
				"z": -1.0004466624,
				"element": "C" 
			},
			{
				"x": -0.0164301847,
				"y": 4.3039246346,
				"z": -1.6974974562,
				"element": "O" 
			},
			{
				"x": 1.8854051844,
				"y": 3.405494437,
				"z": -0.905794606,
				"element": "O" 
			},
			{
				"x": -1.5729831861,
				"y": 2.255345542,
				"z": -0.4358947825,
				"element": "C" 
			},
			{
				"x": -2.2848281264,
				"y": 3.1657255506,
				"z": -1.116930135,
				"element": "F" 
			},
			{
				"x": -2.2716661239,
				"y": 1.2383522571,
				"z": 0.2068315443,
				"element": "C" 
			},
			{
				"x": -1.5846624483,
				"y": 0.277074779,
				"z": 0.9410390908,
				"element": "C" 
			},
			{
				"x": -0.2969238333,
				"y": -3.7486812145,
				"z": 0.8907514869,
				"element": "H" 
			},
			{
				"x": -0.8645691375,
				"y": -2.2410479857,
				"z": 0.1135850208,
				"element": "H" 
			},
			{
				"x": -1.5558256326,
				"y": -2.7762535773,
				"z": 1.6558320343,
				"element": "H" 
			},
			{
				"x": 1.3933655701,
				"y": -0.2999060389,
				"z": 2.2153942321,
				"element": "H" 
			},
			{
				"x": 1.5829335648,
				"y": 1.3893429482,
				"z": 0.3887920051,
				"element": "H" 
			},
			{
				"x": 0.6527335985,
				"y": 4.9137409469,
				"z": -2.0517722459,
				"element": "H" 
			},
			{
				"x": -3.3541917339,
				"y": 1.2295828917,
				"z": 0.1435545765,
				"element": "H" 
			},
			{
				"x": -2.1416346267,
				"y": -0.4806424314,
				"z": 1.479139879,
				"element": "H" 
			}
		],
		 "valence_orbital": [ 
			{
				"type": "occ",
				"energy": -0.30308,
				"method": "rhf"
			},
			{
				"type": "occ",
				"energy": -0.28984,
				"method": "rhf"
			},
			{
				"type": "occ",
				"energy": -0.28271,
				"method": "rhf"
			},
			{
				"type": "occ",
				"energy": -0.25917,
				"method": "rhf"
			},
			{
				"type": "occ",
				"energy": -0.23667,
				"method": "rhf"
			},
			{
				"type": "unocc",
				"energy": -0.06402,
				"method": "rhf"
			},
			{
				"type": "unocc",
				"energy": -0.02661,
				"method": "rhf"
			},
			{
				"type": "unocc",
				"energy": 0.0193,
				"method": "rhf"
			},
			{
				"type": "unocc",
				"energy": 0.04543,
				"method": "rhf"
			},
			{
				"type": "unocc",
				"energy": 0.06966,
				"method": "rhf"
			}
		],
		"cosmo_sigma_profile": { 
			"-0.025": 0.0,
			"-0.024": 0.0,
			"-0.023": 0.0,
			"-0.022": 0.0,
			"-0.021": 0.0,
			"-0.02": 0.0,
			"-0.019": 0.0393103793663,
			"-0.018": 1.02283712592,
			"-0.017": 0.83158042954,
			"-0.016": 0.642755465342,
			"-0.015": 1.14834066532,
			"-0.014": 1.54259132752,
			"-0.013": 1.85734523375,
			"-0.012": 2.28147150571,
			"-0.011": 2.01382660681,
			"-0.01": 2.01999769048,
			"-0.009": 2.75253017163,
			"-0.008": 6.20394404831,
			"-0.007": 7.67366747307,
			"-0.006": 8.32900566243,
			"-0.005": 10.079846433,
			"-0.004": 10.9369947234,
			"-0.003": 14.3924555819,
			"-0.002": 18.0000140931,
			"-0.001": 17.4100360403,
			"0.0": 17.8760815886,
			"0.001": 18.6107782402,
			"0.002": 12.3065799498,
			"0.003": 7.91670574602,
			"0.004": 8.98036494038,
			"0.005": 4.54579356129,
			"0.006": 3.47931515018,
			"0.007": 5.26529360328,
			"0.008": 5.01227605511,
			"0.009": 4.65268564765,
			"0.01": 3.32267786357,
			"0.011": 6.27713245949,
			"0.012": 4.28154498515,
			"0.013": 5.89673517534,
			"0.014": 3.0715366586,
			"0.015": 0.350407311514,
			"0.016": 0.0,
			"0.017": 0.0,
			"0.018": 0.0,
			"0.019": 0.0,
			"0.02": 0.0,
			"0.021": 0.0,
			"0.022": 0.0,
			"0.023": 0.0,
			"0.024": 0.0,
			"0.025": 0.0
		}
	}
}
