{
	 "smiles": "CC1=NNC(=O)C1", 
	 "Tm": 495.15, 
	 "num_atms": 13, 
	 "gaussian": { 
		 "optdone": 1, 
		 "sigma_profile": "yes", 
		 "theory": "DFT", 
		 "functional": "B3LYP", 
		 "basiset": "6-31G**", 
		 "properties": { 
			 "R2extent": 1146.4858, 
			 "electric_dipole_moment_norm": 2.80963382846, 
			 "electric_quadrupole_moment_norm": 14.4356595426, 
			 "total_energy": -340.750156612, 
			 "HOMO_LUMO_gap": 0.21215, 
			 "cosmo_polarized_energy": -11.81, 
			 "cosmo_cavitation_energy": 16.97, 
			 "cosmo_dispersion_energy": -12.89, 
			 "cosmo_repulsion_energy": 1.12, 
			 "cosmo_total_nonelectrostatic_energy": 5.2, 
			 "SMD_solvation_energy": 3.11 
		},
		"coords": [
			{
				"x": -1.6052216114,
				"y": -1.3712361243,
				"z": -0.5043449965,
				"element": "C" 
			},
			{
				"x": -1.127208663,
				"y": -0.2203286173,
				"z": 0.3172423971,
				"element": "C" 
			},
			{
				"x": -0.1233240629,
				"y": 0.5048833061,
				"z": -0.0463838837,
				"element": "N" 
			},
			{
				"x": 0.060814737,
				"y": 1.4802391388,
				"z": 0.9270145039,
				"element": "N" 
			},
			{
				"x": -0.8276484955,
				"y": 1.4313506427,
				"z": 1.9808733767,
				"element": "C" 
			},
			{
				"x": -0.8638753894,
				"y": 2.1735977426,
				"z": 2.9429401674,
				"element": "O" 
			},
			{
				"x": -1.7218084589,
				"y": 0.2351625728,
				"z": 1.625442222,
				"element": "C" 
			},
			{
				"x": -0.9891079467,
				"y": -1.4710347305,
				"z": -1.4004450958,
				"element": "H" 
			},
			{
				"x": -1.5583016427,
				"y": -2.3084357382,
				"z": 0.0635605108,
				"element": "H" 
			},
			{
				"x": -2.6504084527,
				"y": -1.2333193201,
				"z": -0.8070377393,
				"element": "H" 
			},
			{
				"x": 0.807113746,
				"y": 2.1491487556,
				"z": 0.8170021712,
				"element": "H" 
			},
			{
				"x": -1.6775311021,
				"y": -0.5277569298,
				"z": 2.4110046301,
				"element": "H" 
			},
			{
				"x": -2.7690926577,
				"y": 0.5468293017,
				"z": 1.5407317363,
				"element": "H" 
			}
		],
		 "valence_orbital": [ 
			{
				"type": "occ",
				"energy": -0.39193,
				"method": "rhf"
			},
			{
				"type": "occ",
				"energy": -0.35043,
				"method": "rhf"
			},
			{
				"type": "occ",
				"energy": -0.31267,
				"method": "rhf"
			},
			{
				"type": "occ",
				"energy": -0.25099,
				"method": "rhf"
			},
			{
				"type": "occ",
				"energy": -0.23602,
				"method": "rhf"
			},
			{
				"type": "unocc",
				"energy": -0.02387,
				"method": "rhf"
			},
			{
				"type": "unocc",
				"energy": 0.04581,
				"method": "rhf"
			},
			{
				"type": "unocc",
				"energy": 0.08926,
				"method": "rhf"
			},
			{
				"type": "unocc",
				"energy": 0.09649,
				"method": "rhf"
			},
			{
				"type": "unocc",
				"energy": 0.12743,
				"method": "rhf"
			}
		],
		"cosmo_sigma_profile": { 
			"-0.025": 0.0,
			"-0.024": 0.0,
			"-0.023": 0.0,
			"-0.022": 0.0,
			"-0.021": 0.0,
			"-0.02": 0.0,
			"-0.019": 0.0,
			"-0.018": 0.0,
			"-0.017": 0.0,
			"-0.016": 0.415911434019,
			"-0.015": 1.28504295985,
			"-0.014": 1.23811850406,
			"-0.013": 0.994941625949,
			"-0.012": 1.01035781382,
			"-0.011": 0.645346820632,
			"-0.01": 0.358619449871,
			"-0.009": 1.61814576973,
			"-0.008": 4.09846480791,
			"-0.007": 5.72741315381,
			"-0.006": 7.69515932833,
			"-0.005": 13.0697592105,
			"-0.004": 10.6404745425,
			"-0.003": 10.197244767,
			"-0.002": 9.61037636384,
			"-0.001": 10.0094891465,
			"0.0": 6.57140247331,
			"0.001": 5.09781185257,
			"0.002": 4.36294611355,
			"0.003": 3.36462066401,
			"0.004": 2.86406185408,
			"0.005": 3.06357180046,
			"0.006": 2.81860921016,
			"0.007": 2.32042377395,
			"0.008": 2.67057115174,
			"0.009": 1.36457724289,
			"0.01": 2.60474387655,
			"0.011": 3.84073631896,
			"0.012": 3.33131482068,
			"0.013": 7.18058033042,
			"0.014": 3.89078290047,
			"0.015": 0.3283255379,
			"0.016": 0.0,
			"0.017": 0.0,
			"0.018": 0.0,
			"0.019": 0.0,
			"0.02": 0.0,
			"0.021": 0.0,
			"0.022": 0.0,
			"0.023": 0.0,
			"0.024": 0.0,
			"0.025": 0.0
		}
	}
}
