{
	 "smiles": "C1NC2=C(CC1N1C=CC=N1)C=CC=C2", 
	 "Tm": 376.15, 
	 "num_atms": 28, 
	 "gaussian": { 
		 "optdone": 1, 
		 "sigma_profile": "yes", 
		 "theory": "DFT", 
		 "functional": "B3LYP", 
		 "basiset": "6-31G**", 
		 "properties": { 
			 "R2extent": 3873.3277, 
			 "electric_dipole_moment_norm": 2.02635121339, 
			 "electric_quadrupole_moment_norm": 12.0024423573, 
			 "total_energy": -629.347879622, 
			 "HOMO_LUMO_gap": 0.19392, 
			 "cosmo_polarized_energy": -10.95, 
			 "cosmo_cavitation_energy": 29.98, 
			 "cosmo_dispersion_energy": -21.9, 
			 "cosmo_repulsion_energy": 1.69, 
			 "cosmo_total_nonelectrostatic_energy": 9.77, 
			 "SMD_solvation_energy": 3.45 
		},
		"coords": [
			{
				"x": 2.7058181415,
				"y": 0.9239487181,
				"z": -0.7003615047,
				"element": "C" 
			},
			{
				"x": 2.1230246816,
				"y": -0.3095174462,
				"z": -0.2061632309,
				"element": "N" 
			},
			{
				"x": 0.8404353598,
				"y": -0.3047530869,
				"z": 0.3334845138,
				"element": "C" 
			},
			{
				"x": -0.0592674367,
				"y": 0.7363770741,
				"z": 0.0117623078,
				"element": "C" 
			},
			{
				"x": 0.3937304749,
				"y": 1.9067671558,
				"z": -0.8447559381,
				"element": "C" 
			},
			{
				"x": 1.7018467479,
				"y": 1.650532199,
				"z": -1.6114399792,
				"element": "C" 
			},
			{
				"x": 1.4990873876,
				"y": 0.9244459888,
				"z": -2.8644566676,
				"element": "N" 
			},
			{
				"x": 0.6046034916,
				"y": -0.0555878565,
				"z": -3.1694154415,
				"element": "C" 
			},
			{
				"x": 0.8933625804,
				"y": -0.4739887066,
				"z": -4.4549765725,
				"element": "C" 
			},
			{
				"x": 1.9992145328,
				"y": 0.3131381196,
				"z": -4.841032117,
				"element": "C" 
			},
			{
				"x": 2.3692918304,
				"y": 1.1562274653,
				"z": -3.8772589372,
				"element": "N" 
			},
			{
				"x": -1.3637324432,
				"y": 0.6785467802,
				"z": 0.5116424681,
				"element": "C" 
			},
			{
				"x": -1.7944143655,
				"y": -0.370433351,
				"z": 1.3230138661,
				"element": "C" 
			},
			{
				"x": -0.8974791901,
				"y": -1.3947552272,
				"z": 1.6383108799,
				"element": "C" 
			},
			{
				"x": 0.4039829613,
				"y": -1.3646072054,
				"z": 1.1493331085,
				"element": "C" 
			},
			{
				"x": 3.60674117,
				"y": 0.6890499148,
				"z": -1.2728640715,
				"element": "H" 
			},
			{
				"x": 2.9877307885,
				"y": 1.6160785275,
				"z": 0.1121898284,
				"element": "H" 
			},
			{
				"x": 2.767377664,
				"y": -0.968681171,
				"z": 0.2050336759,
				"element": "H" 
			},
			{
				"x": 0.5632564562,
				"y": 2.7813233642,
				"z": -0.2029897442,
				"element": "H" 
			},
			{
				"x": -0.3932087677,
				"y": 2.1972411073,
				"z": -1.5494167182,
				"element": "H" 
			},
			{
				"x": 2.1428590526,
				"y": 2.6030790925,
				"z": -1.913987051,
				"element": "H" 
			},
			{
				"x": -0.1480158088,
				"y": -0.3739365147,
				"z": -2.4644565492,
				"element": "H" 
			},
			{
				"x": 0.3767717699,
				"y": -1.2310591005,
				"z": -5.025861734,
				"element": "H" 
			},
			{
				"x": 2.5354209659,
				"y": 0.309430321,
				"z": -5.7810579985,
				"element": "H" 
			},
			{
				"x": -2.0539883646,
				"y": 1.4800461715,
				"z": 0.2561979798,
				"element": "H" 
			},
			{
				"x": -2.8120059033,
				"y": -0.3906080608,
				"z": 1.6999128237,
				"element": "H" 
			},
			{
				"x": -1.2116303054,
				"y": -2.2223919195,
				"z": 2.2681471499,
				"element": "H" 
			},
			{
				"x": 1.0977865282,
				"y": -2.1670123535,
				"z": 1.3901656536,
				"element": "H" 
			}
		],
		 "valence_orbital": [ 
			{
				"type": "occ",
				"energy": -0.27711,
				"method": "rhf"
			},
			{
				"type": "occ",
				"energy": -0.2441,
				"method": "rhf"
			},
			{
				"type": "occ",
				"energy": -0.23743,
				"method": "rhf"
			},
			{
				"type": "occ",
				"energy": -0.23228,
				"method": "rhf"
			},
			{
				"type": "occ",
				"energy": -0.19581,
				"method": "rhf"
			},
			{
				"type": "unocc",
				"energy": -0.00189,
				"method": "rhf"
			},
			{
				"type": "unocc",
				"energy": 0.01536,
				"method": "rhf"
			},
			{
				"type": "unocc",
				"energy": 0.02927,
				"method": "rhf"
			},
			{
				"type": "unocc",
				"energy": 0.07824,
				"method": "rhf"
			},
			{
				"type": "unocc",
				"energy": 0.08186,
				"method": "rhf"
			}
		],
		"cosmo_sigma_profile": { 
			"-0.025": 0.0,
			"-0.024": 0.0,
			"-0.023": 0.0,
			"-0.022": 0.0,
			"-0.021": 0.0,
			"-0.02": 0.0,
			"-0.019": 0.0,
			"-0.018": 0.0,
			"-0.017": 0.0,
			"-0.016": 0.0,
			"-0.015": 0.0,
			"-0.014": 0.0,
			"-0.013": 0.526822464718,
			"-0.012": 1.48281168115,
			"-0.011": 1.51120191502,
			"-0.01": 1.0858181494,
			"-0.009": 1.60483069628,
			"-0.008": 1.14637482833,
			"-0.007": 3.05340334942,
			"-0.006": 9.72832687052,
			"-0.005": 21.6610019518,
			"-0.004": 24.0357629203,
			"-0.003": 25.5053346756,
			"-0.002": 22.2516768881,
			"-0.001": 13.258934121,
			"0.0": 11.3331309613,
			"0.001": 13.7970961601,
			"0.002": 8.9840231289,
			"0.003": 11.1064771297,
			"0.004": 13.3668725143,
			"0.005": 13.7366806544,
			"0.006": 14.7794992568,
			"0.007": 9.86700887187,
			"0.008": 4.68288931024,
			"0.009": 2.23681623126,
			"0.01": 1.72484547286,
			"0.011": 0.654769997397,
			"0.012": 1.14760417409,
			"0.013": 1.08523280279,
			"0.014": 0.920049817152,
			"0.015": 0.889539202115,
			"0.016": 0.651616966855,
			"0.017": 0.0511573150194,
			"0.018": 0.0,
			"0.019": 0.0,
			"0.02": 0.0,
			"0.021": 0.0,
			"0.022": 0.0,
			"0.023": 0.0,
			"0.024": 0.0,
			"0.025": 0.0
		}
	}
}
