{
	 "smiles": "OC(=O)CN1C2=C(CCCC1=O)SC=C2", 
	 "Tm": 412.15, 
	 "num_atms": 26, 
	 "gaussian": { 
		 "optdone": 1, 
		 "sigma_profile": "yes", 
		 "theory": "DFT", 
		 "functional": "B3LYP", 
		 "basiset": "6-31G**", 
		 "properties": { 
			 "R2extent": 3448.4124, 
			 "electric_dipole_moment_norm": 5.70680251192, 
			 "electric_quadrupole_moment_norm": 12.0733432321, 
			 "total_energy": -1066.31891015, 
			 "HOMO_LUMO_gap": 0.19927, 
			 "cosmo_polarized_energy": -13.75, 
			 "cosmo_cavitation_energy": 29.45, 
			 "cosmo_dispersion_energy": -22.41, 
			 "cosmo_repulsion_energy": 1.68, 
			 "cosmo_total_nonelectrostatic_energy": 8.72, 
			 "SMD_solvation_energy": 5.82 
		},
		"coords": [
			{
				"x": 1.8216064098,
				"y": 2.7140608891,
				"z": -1.4369138577,
				"element": "O" 
			},
			{
				"x": 1.9715267783,
				"y": 2.234464248,
				"z": -0.1989876624,
				"element": "C" 
			},
			{
				"x": 2.1745876589,
				"y": 2.947634382,
				"z": 0.7587737303,
				"element": "O" 
			},
			{
				"x": 1.8746909902,
				"y": 0.7017189617,
				"z": -0.0756277145,
				"element": "C" 
			},
			{
				"x": 0.5245539149,
				"y": 0.1654099289,
				"z": -0.3416186642,
				"element": "N" 
			},
			{
				"x": -0.3228609466,
				"y": -0.075319501,
				"z": 0.7846865003,
				"element": "C" 
			},
			{
				"x": -1.2395859919,
				"y": -1.0949393303,
				"z": 0.93166517,
				"element": "C" 
			},
			{
				"x": -1.6725025036,
				"y": -2.2131888408,
				"z": 0.0175786689,
				"element": "C" 
			},
			{
				"x": -1.075987019,
				"y": -2.1627132063,
				"z": -1.3947426121,
				"element": "C" 
			},
			{
				"x": -1.0884041984,
				"y": -0.7426507289,
				"z": -1.996796914,
				"element": "C" 
			},
			{
				"x": 0.1704102427,
				"y": 0.0239481398,
				"z": -1.6590510106,
				"element": "C" 
			},
			{
				"x": 0.9101104526,
				"y": 0.4577270769,
				"z": -2.5556873091,
				"element": "O" 
			},
			{
				"x": -2.0275340836,
				"y": -0.9633453513,
				"z": 2.4876345094,
				"element": "S" 
			},
			{
				"x": -1.1021597613,
				"y": 0.4339282097,
				"z": 2.9228048663,
				"element": "C" 
			},
			{
				"x": -0.2493423577,
				"y": 0.7988496633,
				"z": 1.9277534782,
				"element": "C" 
			},
			{
				"x": 1.6133401442,
				"y": 1.9636356272,
				"z": -2.0475129163,
				"element": "H" 
			},
			{
				"x": 2.5595959153,
				"y": 0.2400573362,
				"z": -0.7933075294,
				"element": "H" 
			},
			{
				"x": 2.1661139292,
				"y": 0.4216957776,
				"z": 0.9343942581,
				"element": "H" 
			},
			{
				"x": -2.7671238042,
				"y": -2.1811177108,
				"z": -0.0666651353,
				"element": "H" 
			},
			{
				"x": -1.4375840392,
				"y": -3.1818754774,
				"z": 0.477363334,
				"element": "H" 
			},
			{
				"x": -1.6522035215,
				"y": -2.8362854507,
				"z": -2.0369294007,
				"element": "H" 
			},
			{
				"x": -0.0498468203,
				"y": -2.5469909842,
				"z": -1.3917465187,
				"element": "H" 
			},
			{
				"x": -1.9682432989,
				"y": -0.1886505557,
				"z": -1.645136677,
				"element": "H" 
			},
			{
				"x": -1.1270739981,
				"y": -0.7704717699,
				"z": -3.0868810858,
				"element": "H" 
			},
			{
				"x": -1.2512727467,
				"y": 0.9117107594,
				"z": 3.8807074344,
				"element": "H" 
			},
			{
				"x": 0.4085886547,
				"y": 1.6586079076,
				"z": 1.9810430578,
				"element": "H" 
			}
		],
		 "valence_orbital": [ 
			{
				"type": "occ",
				"energy": -0.30407,
				"method": "rhf"
			},
			{
				"type": "occ",
				"energy": -0.28638,
				"method": "rhf"
			},
			{
				"type": "occ",
				"energy": -0.2653,
				"method": "rhf"
			},
			{
				"type": "occ",
				"energy": -0.25143,
				"method": "rhf"
			},
			{
				"type": "occ",
				"energy": -0.23063,
				"method": "rhf"
			},
			{
				"type": "unocc",
				"energy": -0.03136,
				"method": "rhf"
			},
			{
				"type": "unocc",
				"energy": -0.00973,
				"method": "rhf"
			},
			{
				"type": "unocc",
				"energy": 0.00184,
				"method": "rhf"
			},
			{
				"type": "unocc",
				"energy": 0.01757,
				"method": "rhf"
			},
			{
				"type": "unocc",
				"energy": 0.05677,
				"method": "rhf"
			}
		],
		"cosmo_sigma_profile": { 
			"-0.025": 0.0,
			"-0.024": 0.0,
			"-0.023": 0.0,
			"-0.022": 0.0,
			"-0.021": 0.0,
			"-0.02": 0.0,
			"-0.019": 0.0,
			"-0.018": 0.0,
			"-0.017": 0.0,
			"-0.016": 0.0,
			"-0.015": 0.0,
			"-0.014": 0.0,
			"-0.013": 0.0,
			"-0.012": 0.0,
			"-0.011": 0.0,
			"-0.01": 0.0,
			"-0.009": 1.58836889302,
			"-0.008": 4.45090273435,
			"-0.007": 6.06926029456,
			"-0.006": 10.877560749,
			"-0.005": 20.8538275108,
			"-0.004": 30.0624037946,
			"-0.003": 26.9770894189,
			"-0.002": 20.447236585,
			"-0.001": 13.3127021766,
			"0.0": 8.95370419429,
			"0.001": 10.9797515421,
			"0.002": 11.3438383465,
			"0.003": 13.3333537197,
			"0.004": 13.7348930989,
			"0.005": 7.67276286974,
			"0.006": 2.107423985,
			"0.007": 3.90805821321,
			"0.008": 3.71520507772,
			"0.009": 4.22042373713,
			"0.01": 5.69846681586,
			"0.011": 7.32367854971,
			"0.012": 5.82243157593,
			"0.013": 2.34163803285,
			"0.014": 0.0499591684816,
			"0.015": 0.0,
			"0.016": 0.0,
			"0.017": 0.0,
			"0.018": 0.0,
			"0.019": 0.0,
			"0.02": 0.0,
			"0.021": 0.0,
			"0.022": 0.0,
			"0.023": 0.0,
			"0.024": 0.0,
			"0.025": 0.0
		}
	}
}
