{
	 "smiles": "O=C(NC1=CC(=CC=C1)N=NC1=CC=CC(NC(=O)C2=CC=CC=C2)=C1)C1=CC=CC=C1", 
	 "Tm": 558.15, 
	 "num_atms": 52, 
	 "gaussian": { 
		 "optdone": 1, 
		 "sigma_profile": "yes", 
		 "theory": "DFT", 
		 "functional": "B3LYP", 
		 "basiset": "6-31G**", 
		 "properties": { 
			 "R2extent": 21363.6123, 
			 "electric_dipole_moment_norm": 4.89207427887, 
			 "electric_quadrupole_moment_norm": 18.5729388509, 
			 "total_energy": -1372.26079197, 
			 "HOMO_LUMO_gap": 0.13624, 
			 "cosmo_polarized_energy": -22.42, 
			 "cosmo_cavitation_energy": 58.68, 
			 "cosmo_dispersion_energy": -39.79, 
			 "cosmo_repulsion_energy": 3.02, 
			 "cosmo_total_nonelectrostatic_energy": 21.91, 
			 "SMD_solvation_energy": 9.64 
		},
		"coords": [
			{
				"x": 1.9134290745,
				"y": 6.0249814742,
				"z": -2.0088804482,
				"element": "O" 
			},
			{
				"x": 1.6082741208,
				"y": 4.9088707812,
				"z": -2.4125231158,
				"element": "C" 
			},
			{
				"x": 0.4035319634,
				"y": 4.7353020676,
				"z": -3.0820542445,
				"element": "N" 
			},
			{
				"x": -0.4189997362,
				"y": 3.5943731171,
				"z": -3.2408333934,
				"element": "C" 
			},
			{
				"x": -0.4400457792,
				"y": 2.5459289503,
				"z": -2.3131818417,
				"element": "C" 
			},
			{
				"x": -1.2919993466,
				"y": 1.452545949,
				"z": -2.5053480142,
				"element": "C" 
			},
			{
				"x": -2.1577602235,
				"y": 1.4060105903,
				"z": -3.6109953516,
				"element": "C" 
			},
			{
				"x": -2.1512836641,
				"y": 2.4618153851,
				"z": -4.5141808752,
				"element": "C" 
			},
			{
				"x": -1.2849091591,
				"y": 3.5454745169,
				"z": -4.3425511209,
				"element": "C" 
			},
			{
				"x": -1.2116992011,
				"y": 0.4537821221,
				"z": -1.500017028,
				"element": "N" 
			},
			{
				"x": -1.9779565564,
				"y": -0.5311781497,
				"z": -1.6727195472,
				"element": "N" 
			},
			{
				"x": -1.8952319826,
				"y": -1.5312597277,
				"z": -0.669656481,
				"element": "C" 
			},
			{
				"x": -2.7422404166,
				"y": -2.6322377769,
				"z": -0.8443495925,
				"element": "C" 
			},
			{
				"x": -2.723817064,
				"y": -3.6682219345,
				"z": 0.088397699,
				"element": "C" 
			},
			{
				"x": -1.8666540232,
				"y": -3.619305201,
				"z": 1.1853483341,
				"element": "C" 
			},
			{
				"x": -1.0324872998,
				"y": -2.5012425752,
				"z": 1.3775798882,
				"element": "C" 
			},
			{
				"x": -0.1225732608,
				"y": -2.417172078,
				"z": 2.4591663772,
				"element": "N" 
			},
			{
				"x": -0.1474310438,
				"y": -2.9874651675,
				"z": 3.7243735788,
				"element": "C" 
			},
			{
				"x": 0.9056084377,
				"y": -3.1577331126,
				"z": 4.3278832933,
				"element": "O" 
			},
			{
				"x": -1.4660723798,
				"y": -3.3095270109,
				"z": 4.360973793,
				"element": "C" 
			},
			{
				"x": -1.4963201567,
				"y": -4.3659032576,
				"z": 5.2822083031,
				"element": "C" 
			},
			{
				"x": -2.6732585593,
				"y": -4.6727127326,
				"z": 5.9615052177,
				"element": "C" 
			},
			{
				"x": -3.8229215502,
				"y": -3.907756249,
				"z": 5.7478075769,
				"element": "C" 
			},
			{
				"x": -3.7911291088,
				"y": -2.8357836242,
				"z": 4.8531615965,
				"element": "C" 
			},
			{
				"x": -2.6198958702,
				"y": -2.5389360378,
				"z": 4.1566873289,
				"element": "C" 
			},
			{
				"x": -1.0480997371,
				"y": -1.4620708536,
				"z": 0.4465715147,
				"element": "C" 
			},
			{
				"x": 2.5459810765,
				"y": 3.7486024938,
				"z": -2.2697971818,
				"element": "C" 
			},
			{
				"x": 2.6715425856,
				"y": 2.7445143255,
				"z": -3.2407596741,
				"element": "C" 
			},
			{
				"x": 3.6308337948,
				"y": 1.743503241,
				"z": -3.09129347,
				"element": "C" 
			},
			{
				"x": 4.4624101836,
				"y": 1.7306400062,
				"z": -1.9693127358,
				"element": "C" 
			},
			{
				"x": 4.347141524,
				"y": 2.7339031385,
				"z": -1.0036110178,
				"element": "C" 
			},
			{
				"x": 3.4030851034,
				"y": 3.746234726,
				"z": -1.1603280192,
				"element": "C" 
			},
			{
				"x": -0.0430899573,
				"y": 5.6288405152,
				"z": -3.2525186081,
				"element": "H" 
			},
			{
				"x": 0.1902641479,
				"y": 2.5571924111,
				"z": -1.4324833633,
				"element": "H" 
			},
			{
				"x": -2.8141231444,
				"y": 0.5528699084,
				"z": -3.7316740679,
				"element": "H" 
			},
			{
				"x": -2.8171889957,
				"y": 2.4449814996,
				"z": -5.3720513658,
				"element": "H" 
			},
			{
				"x": -1.272126729,
				"y": 4.3564673289,
				"z": -5.0653995206,
				"element": "H" 
			},
			{
				"x": -3.3914482414,
				"y": -2.6550399067,
				"z": -1.7129901779,
				"element": "H" 
			},
			{
				"x": -3.3659701291,
				"y": -4.5330133798,
				"z": -0.0475101466,
				"element": "H" 
			},
			{
				"x": -1.8342849392,
				"y": -4.4432101402,
				"z": 1.8884755755,
				"element": "H" 
			},
			{
				"x": 0.806154168,
				"y": -2.0829754894,
				"z": 2.2301990971,
				"element": "H" 
			},
			{
				"x": -0.5850646248,
				"y": -4.9278768555,
				"z": 5.4577957892,
				"element": "H" 
			},
			{
				"x": -2.6922561688,
				"y": -5.5003170613,
				"z": 6.6645424017,
				"element": "H" 
			},
			{
				"x": -4.7387710967,
				"y": -4.1409576771,
				"z": 6.2834456337,
				"element": "H" 
			},
			{
				"x": -4.6778970426,
				"y": -2.2279233443,
				"z": 4.6994259169,
				"element": "H" 
			},
			{
				"x": -2.5986675364,
				"y": -1.7001125455,
				"z": 3.4693107726,
				"element": "H" 
			},
			{
				"x": -0.4145073134,
				"y": -0.5909044137,
				"z": 0.5714433394,
				"element": "H" 
			},
			{
				"x": 2.0337592336,
				"y": 2.7537809523,
				"z": -4.1180613069,
				"element": "H" 
			},
			{
				"x": 3.730392149,
				"y": 0.9748618386,
				"z": -3.8520256324,
				"element": "H" 
			},
			{
				"x": 5.2036286685,
				"y": 0.9452425972,
				"z": -1.8518887078,
				"element": "H" 
			},
			{
				"x": 4.9991036366,
				"y": 2.7318081449,
				"z": -0.1350315197,
				"element": "H" 
			},
			{
				"x": 3.3187421702,
				"y": 4.5506082213,
				"z": -0.437275458,
				"element": "H" 
			}
		],
		 "valence_orbital": [ 
			{
				"type": "occ",
				"energy": -0.24956,
				"method": "rhf"
			},
			{
				"type": "occ",
				"energy": -0.24511,
				"method": "rhf"
			},
			{
				"type": "occ",
				"energy": -0.23532,
				"method": "rhf"
			},
			{
				"type": "occ",
				"energy": -0.23334,
				"method": "rhf"
			},
			{
				"type": "occ",
				"energy": -0.22741,
				"method": "rhf"
			},
			{
				"type": "unocc",
				"energy": -0.09117,
				"method": "rhf"
			},
			{
				"type": "unocc",
				"energy": -0.04401,
				"method": "rhf"
			},
			{
				"type": "unocc",
				"energy": -0.04338,
				"method": "rhf"
			},
			{
				"type": "unocc",
				"energy": -0.0162,
				"method": "rhf"
			},
			{
				"type": "unocc",
				"energy": -0.0125,
				"method": "rhf"
			}
		],
		"cosmo_sigma_profile": { 
			"-0.025": 0.0,
			"-0.024": 0.0,
			"-0.023": 0.0,
			"-0.022": 0.0,
			"-0.021": 0.0,
			"-0.02": 0.0,
			"-0.019": 0.0,
			"-0.018": 0.0,
			"-0.017": 0.0,
			"-0.016": 0.0,
			"-0.015": 0.250939551889,
			"-0.014": 1.99864408138,
			"-0.013": 2.1451035785,
			"-0.012": 2.18186219274,
			"-0.011": 1.52294605563,
			"-0.01": 2.20668254518,
			"-0.009": 2.79501054851,
			"-0.008": 2.46366044416,
			"-0.007": 7.97085574153,
			"-0.006": 32.0876989145,
			"-0.005": 36.3561534883,
			"-0.004": 35.9620377236,
			"-0.003": 28.774893582,
			"-0.002": 28.7705637273,
			"-0.001": 28.8799841222,
			"0.0": 32.6935950964,
			"0.001": 38.7175804064,
			"0.002": 48.7833323191,
			"0.003": 45.5807946817,
			"0.004": 34.8377608827,
			"0.005": 13.1277514195,
			"0.006": 5.65781792639,
			"0.007": 6.25618223955,
			"0.008": 3.08758497124,
			"0.009": 2.38047277354,
			"0.01": 2.80391083085,
			"0.011": 4.49206327008,
			"0.012": 6.23120739917,
			"0.013": 10.1043717596,
			"0.014": 2.23473853908,
			"0.015": 0.0,
			"0.016": 0.0,
			"0.017": 0.0,
			"0.018": 0.0,
			"0.019": 0.0,
			"0.02": 0.0,
			"0.021": 0.0,
			"0.022": 0.0,
			"0.023": 0.0,
			"0.024": 0.0,
			"0.025": 0.0
		}
	}
}
