{
	 "smiles": "FC1=C(Cl)C=CC=C1Cl", 
	 "Tm": 311.15, 
	 "num_atms": 12, 
	 "gaussian": { 
		 "optdone": 1, 
		 "sigma_profile": "yes", 
		 "theory": "DFT", 
		 "functional": "B3LYP", 
		 "basiset": "6-31G**", 
		 "properties": { 
			 "R2extent": 1931.2738, 
			 "electric_dipole_moment_norm": 2.78683859597, 
			 "electric_quadrupole_moment_norm": 2.80764846624, 
			 "total_energy": -1250.6577449, 
			 "HOMO_LUMO_gap": 0.22665, 
			 "cosmo_polarized_energy": -4.02, 
			 "cosmo_cavitation_energy": 20.41, 
			 "cosmo_dispersion_energy": -15.47, 
			 "cosmo_repulsion_energy": 1.25, 
			 "cosmo_total_nonelectrostatic_energy": 6.2, 
			 "SMD_solvation_energy": 3.49 
		},
		"coords": [
			{
				"x": -0.7827075044,
				"y": 0.6574639823,
				"z": 2.340068477,
				"element": "F" 
			},
			{
				"x": -0.389658391,
				"y": 0.7061843871,
				"z": 1.0651043408,
				"element": "C" 
			},
			{
				"x": 0.4004478801,
				"y": 1.7677675047,
				"z": 0.6175661928,
				"element": "C" 
			},
			{
				"x": 0.8590359173,
				"y": 3.016260522,
				"z": 1.7459451283,
				"element": "Cl" 
			},
			{
				"x": 0.8120588837,
				"y": 1.8205469887,
				"z": -0.7138104735,
				"element": "C" 
			},
			{
				"x": 0.4296988383,
				"y": 0.8077455431,
				"z": -1.5929379403,
				"element": "C" 
			},
			{
				"x": -0.3589175159,
				"y": -0.2554167401,
				"z": -1.154092045,
				"element": "C" 
			},
			{
				"x": -0.768358906,
				"y": -0.304415771,
				"z": 0.178094324,
				"element": "C" 
			},
			{
				"x": -1.7550421079,
				"y": -1.6184346426,
				"z": 0.7630071428,
				"element": "Cl" 
			},
			{
				"x": 1.4248763935,
				"y": 2.6505783508,
				"z": -1.0462816758,
				"element": "H" 
			},
			{
				"x": 0.7491064562,
				"y": 0.8473312894,
				"z": -2.629106815,
				"element": "H" 
			},
			{
				"x": -0.6607399438,
				"y": -1.0469114143,
				"z": -1.8304566561,
				"element": "H" 
			}
		],
		 "valence_orbital": [ 
			{
				"type": "occ",
				"energy": -0.33252,
				"method": "rhf"
			},
			{
				"type": "occ",
				"energy": -0.32885,
				"method": "rhf"
			},
			{
				"type": "occ",
				"energy": -0.32372,
				"method": "rhf"
			},
			{
				"type": "occ",
				"energy": -0.26094,
				"method": "rhf"
			},
			{
				"type": "occ",
				"energy": -0.26084,
				"method": "rhf"
			},
			{
				"type": "unocc",
				"energy": -0.03419,
				"method": "rhf"
			},
			{
				"type": "unocc",
				"energy": -0.02349,
				"method": "rhf"
			},
			{
				"type": "unocc",
				"energy": -0.00531,
				"method": "rhf"
			},
			{
				"type": "unocc",
				"energy": 0.04415,
				"method": "rhf"
			},
			{
				"type": "unocc",
				"energy": 0.10503,
				"method": "rhf"
			}
		],
		"cosmo_sigma_profile": { 
			"-0.025": 0.0,
			"-0.024": 0.0,
			"-0.023": 0.0,
			"-0.022": 0.0,
			"-0.021": 0.0,
			"-0.02": 0.0,
			"-0.019": 0.0,
			"-0.018": 0.0,
			"-0.017": 0.0,
			"-0.016": 0.0,
			"-0.015": 0.0,
			"-0.014": 0.0,
			"-0.013": 0.0,
			"-0.012": 0.0,
			"-0.011": 0.0,
			"-0.01": 0.0,
			"-0.009": 0.243385792455,
			"-0.008": 4.1725821698,
			"-0.007": 6.55926407307,
			"-0.006": 6.92050297808,
			"-0.005": 4.68366147998,
			"-0.004": 4.94712941936,
			"-0.003": 7.22358991509,
			"-0.002": 12.8446761635,
			"-0.001": 14.9779073043,
			"0.0": 19.7283005628,
			"0.001": 19.2080953619,
			"0.002": 20.5867424587,
			"0.003": 24.0108360779,
			"0.004": 21.477894655,
			"0.005": 1.9286597022,
			"0.006": 0.0,
			"0.007": 0.0,
			"0.008": 0.0,
			"0.009": 0.0,
			"0.01": 0.0,
			"0.011": 0.0,
			"0.012": 0.0,
			"0.013": 0.0,
			"0.014": 0.0,
			"0.015": 0.0,
			"0.016": 0.0,
			"0.017": 0.0,
			"0.018": 0.0,
			"0.019": 0.0,
			"0.02": 0.0,
			"0.021": 0.0,
			"0.022": 0.0,
			"0.023": 0.0,
			"0.024": 0.0,
			"0.025": 0.0
		}
	}
}
