{
	 "smiles": "CC(C)C1=C(C)C=C(O)C=C1", 
	 "Tm": 385.15, 
	 "num_atms": 25, 
	 "gaussian": { 
		 "optdone": 1, 
		 "sigma_profile": "yes", 
		 "theory": "DFT", 
		 "functional": "B3LYP", 
		 "basiset": "6-31G**", 
		 "properties": { 
			 "R2extent": 2200.8943, 
			 "electric_dipole_moment_norm": 1.05623289572, 
			 "electric_quadrupole_moment_norm": 8.94116721072, 
			 "total_energy": -464.739276813, 
			 "HOMO_LUMO_gap": 0.21441, 
			 "cosmo_polarized_energy": -7.79, 
			 "cosmo_cavitation_energy": 26.98, 
			 "cosmo_dispersion_energy": -19.27, 
			 "cosmo_repulsion_energy": 1.55, 
			 "cosmo_total_nonelectrostatic_energy": 9.27, 
			 "SMD_solvation_energy": 5.08 
		},
		"coords": [
			{
				"x": 1.5681650086,
				"y": -0.9573920072,
				"z": -2.1742092441,
				"element": "C" 
			},
			{
				"x": 0.3020239762,
				"y": -0.3410904526,
				"z": -1.5475646702,
				"element": "C" 
			},
			{
				"x": -0.2618735484,
				"y": 0.7834227937,
				"z": -2.4381172863,
				"element": "C" 
			},
			{
				"x": 0.5485837689,
				"y": 0.1349128442,
				"z": -0.1176762835,
				"element": "C" 
			},
			{
				"x": -0.1341692347,
				"y": -0.4139597989,
				"z": 0.9918568248,
				"element": "C" 
			},
			{
				"x": -1.1617110417,
				"y": -1.5163599645,
				"z": 0.8387653995,
				"element": "C" 
			},
			{
				"x": 0.1379173694,
				"y": 0.0667435711,
				"z": 2.2767285594,
				"element": "C" 
			},
			{
				"x": 1.0730129647,
				"y": 1.0814093766,
				"z": 2.4906860749,
				"element": "C" 
			},
			{
				"x": 1.2774511586,
				"y": 1.4917832401,
				"z": 3.7806215138,
				"element": "O" 
			},
			{
				"x": 1.7525335741,
				"y": 1.6301116012,
				"z": 1.4019201311,
				"element": "C" 
			},
			{
				"x": 1.4817701967,
				"y": 1.151499277,
				"z": 0.1213618284,
				"element": "C" 
			},
			{
				"x": 2.3696108033,
				"y": -0.216005771,
				"z": -2.2656319636,
				"element": "H" 
			},
			{
				"x": 1.9498251129,
				"y": -1.7834124694,
				"z": -1.5657284801,
				"element": "H" 
			},
			{
				"x": 1.3569803668,
				"y": -1.342227735,
				"z": -3.1783416266,
				"element": "H" 
			},
			{
				"x": -0.4544308603,
				"y": -1.1315340167,
				"z": -1.5160385996,
				"element": "H" 
			},
			{
				"x": 0.4531482058,
				"y": 1.6070485007,
				"z": -2.5415210334,
				"element": "H" 
			},
			{
				"x": -0.4830513818,
				"y": 0.4086644388,
				"z": -3.4439029675,
				"element": "H" 
			},
			{
				"x": -1.1840745089,
				"y": 1.1971257257,
				"z": -2.0178588261,
				"element": "H" 
			},
			{
				"x": -1.5715354826,
				"y": -1.7991202734,
				"z": 1.8118514725,
				"element": "H" 
			},
			{
				"x": -0.731761667,
				"y": -2.4179469959,
				"z": 0.3875310396,
				"element": "H" 
			},
			{
				"x": -2.0009916267,
				"y": -1.2093962582,
				"z": 0.2041730111,
				"element": "H" 
			},
			{
				"x": -0.3789951058,
				"y": -0.3455084444,
				"z": 3.1381015802,
				"element": "H" 
			},
			{
				"x": 1.9431340487,
				"y": 2.191520443,
				"z": 3.783510434,
				"element": "H" 
			},
			{
				"x": 2.4845756465,
				"y": 2.4216206432,
				"z": 1.5504803777,
				"element": "H" 
			},
			{
				"x": 2.0187622566,
				"y": 1.588591732,
				"z": -0.7163972659,
				"element": "H" 
			}
		],
		 "valence_orbital": [ 
			{
				"type": "occ",
				"energy": -0.31848,
				"method": "rhf"
			},
			{
				"type": "occ",
				"energy": -0.31445,
				"method": "rhf"
			},
			{
				"type": "occ",
				"energy": -0.30969,
				"method": "rhf"
			},
			{
				"type": "occ",
				"energy": -0.23789,
				"method": "rhf"
			},
			{
				"type": "occ",
				"energy": -0.20785,
				"method": "rhf"
			},
			{
				"type": "unocc",
				"energy": 0.00656,
				"method": "rhf"
			},
			{
				"type": "unocc",
				"energy": 0.01797,
				"method": "rhf"
			},
			{
				"type": "unocc",
				"energy": 0.07569,
				"method": "rhf"
			},
			{
				"type": "unocc",
				"energy": 0.08855,
				"method": "rhf"
			},
			{
				"type": "unocc",
				"energy": 0.10599,
				"method": "rhf"
			}
		],
		"cosmo_sigma_profile": { 
			"-0.025": 0.0,
			"-0.024": 0.0,
			"-0.023": 0.0,
			"-0.022": 0.0,
			"-0.021": 0.0,
			"-0.02": 0.0,
			"-0.019": 0.0,
			"-0.018": 0.114079780354,
			"-0.017": 1.01480982453,
			"-0.016": 0.926965430122,
			"-0.015": 1.15060103794,
			"-0.014": 1.12983688412,
			"-0.013": 0.766974059223,
			"-0.012": 0.687331294389,
			"-0.011": 0.630370151896,
			"-0.01": 1.19657461391,
			"-0.009": 1.39226907125,
			"-0.008": 1.01263356909,
			"-0.007": 1.00736211955,
			"-0.006": 1.98186826149,
			"-0.005": 4.91331247129,
			"-0.004": 12.2511987047,
			"-0.003": 18.2735712474,
			"-0.002": 24.1179666871,
			"-0.001": 25.1205187194,
			"0.0": 24.2511797579,
			"0.001": 23.5619131579,
			"0.002": 15.9087748828,
			"0.003": 7.09320295869,
			"0.004": 9.03242993659,
			"0.005": 9.85444007132,
			"0.006": 9.28692698458,
			"0.007": 6.1103381553,
			"0.008": 1.50603625108,
			"0.009": 1.64413322641,
			"0.01": 1.34680262791,
			"0.011": 1.97145611912,
			"0.012": 1.62994000096,
			"0.013": 0.0675768616477,
			"0.014": 0.0,
			"0.015": 0.0,
			"0.016": 0.0,
			"0.017": 0.0,
			"0.018": 0.0,
			"0.019": 0.0,
			"0.02": 0.0,
			"0.021": 0.0,
			"0.022": 0.0,
			"0.023": 0.0,
			"0.024": 0.0,
			"0.025": 0.0
		}
	}
}
