{
	 "smiles": "ClN=C1C=C(Br)C(=O)C(Br)=C1", 
	 "Tm": 354.65, 
	 "num_atms": 13, 
	 "gaussian": { 
		 "optdone": 1, 
		 "sigma_profile": "yes", 
		 "theory": "DFT", 
		 "functional": "B3LYP", 
		 "basiset": "6-31G**", 
		 "properties": { 
			 "R2extent": 7332.3007, 
			 "electric_dipole_moment_norm": 1.44627876635, 
			 "electric_quadrupole_moment_norm": 11.4782212189, 
			 "total_energy": -5962.73476152, 
			 "HOMO_LUMO_gap": 0.13154, 
			 "cosmo_polarized_energy": -8.48, 
			 "cosmo_cavitation_energy": 25.14, 
			 "cosmo_dispersion_energy": -19.42, 
			 "cosmo_repulsion_energy": 1.57, 
			 "cosmo_total_nonelectrostatic_energy": 7.29, 
			 "SMD_solvation_energy": 1.45 
		},
		"coords": [
			{
				"x": 0.5642938161,
				"y": -3.4876122876,
				"z": 2.6890070689,
				"element": "Cl" 
			},
			{
				"x": 0.8674360086,
				"y": -1.7838658385,
				"z": 2.453477063,
				"element": "N" 
			},
			{
				"x": -0.167080956,
				"y": -1.0390549599,
				"z": 2.1888448989,
				"element": "C" 
			},
			{
				"x": -1.5629301664,
				"y": -1.4424631219,
				"z": 2.0611962957,
				"element": "C" 
			},
			{
				"x": -2.5100260902,
				"y": -0.5270596516,
				"z": 1.7808769407,
				"element": "C" 
			},
			{
				"x": -4.3235544391,
				"y": -1.0210981701,
				"z": 1.6101047207,
				"element": "Br" 
			},
			{
				"x": -2.2076282381,
				"y": 0.9296428164,
				"z": 1.585375014,
				"element": "C" 
			},
			{
				"x": -3.0724559866,
				"y": 1.7457618584,
				"z": 1.3330689858,
				"element": "O" 
			},
			{
				"x": -0.7662881348,
				"y": 1.2880914065,
				"z": 1.7267230282,
				"element": "C" 
			},
			{
				"x": -0.3317399413,
				"y": 3.111619489,
				"z": 1.4896881937,
				"element": "Br" 
			},
			{
				"x": 0.1796474136,
				"y": 0.3731619948,
				"z": 2.0068250104,
				"element": "C" 
			},
			{
				"x": -1.8138454199,
				"y": -2.4865479995,
				"z": 2.1965215492,
				"element": "H" 
			},
			{
				"x": 1.2257721342,
				"y": 0.636124464,
				"z": 2.1088912307,
				"element": "H" 
			}
		],
		 "valence_orbital": [ 
			{
				"type": "occ",
				"energy": -0.30568,
				"method": "rhf"
			},
			{
				"type": "occ",
				"energy": -0.3027,
				"method": "rhf"
			},
			{
				"type": "occ",
				"energy": -0.29178,
				"method": "rhf"
			},
			{
				"type": "occ",
				"energy": -0.28216,
				"method": "rhf"
			},
			{
				"type": "occ",
				"energy": -0.27386,
				"method": "rhf"
			},
			{
				"type": "unocc",
				"energy": -0.14232,
				"method": "rhf"
			},
			{
				"type": "unocc",
				"energy": -0.04683,
				"method": "rhf"
			},
			{
				"type": "unocc",
				"energy": -0.04672,
				"method": "rhf"
			},
			{
				"type": "unocc",
				"energy": -0.02703,
				"method": "rhf"
			},
			{
				"type": "unocc",
				"energy": -0.00731,
				"method": "rhf"
			}
		],
		"cosmo_sigma_profile": { 
			"-0.025": 0.0,
			"-0.024": 0.0,
			"-0.023": 0.0,
			"-0.022": 0.0,
			"-0.021": 0.0,
			"-0.02": 0.0,
			"-0.019": 0.0,
			"-0.018": 0.0,
			"-0.017": 0.0,
			"-0.016": 0.0,
			"-0.015": 0.0,
			"-0.014": 0.0,
			"-0.013": 0.0,
			"-0.012": 0.0,
			"-0.011": 0.0,
			"-0.01": 0.820483008824,
			"-0.009": 2.42484471119,
			"-0.008": 3.56423073832,
			"-0.007": 5.34676313923,
			"-0.006": 9.53315522769,
			"-0.005": 14.1119825521,
			"-0.004": 15.4855733721,
			"-0.003": 17.1270461608,
			"-0.002": 16.7679588824,
			"-0.001": 16.2942242996,
			"0.0": 13.3836208726,
			"0.001": 15.1552365983,
			"0.002": 20.9454264083,
			"0.003": 23.9656764169,
			"0.004": 10.4598139826,
			"0.005": 3.82813821103,
			"0.006": 4.20979673948,
			"0.007": 3.47558759024,
			"0.008": 4.44841310897,
			"0.009": 4.56317543198,
			"0.01": 5.50933581861,
			"0.011": 1.30209445372,
			"0.012": 0.0,
			"0.013": 0.0,
			"0.014": 0.0,
			"0.015": 0.0,
			"0.016": 0.0,
			"0.017": 0.0,
			"0.018": 0.0,
			"0.019": 0.0,
			"0.02": 0.0,
			"0.021": 0.0,
			"0.022": 0.0,
			"0.023": 0.0,
			"0.024": 0.0,
			"0.025": 0.0
		}
	}
}
