{
	 "smiles": "COC(=O)C1=CC(N)=CC=C1", 
	 "Tm": 326.65, 
	 "num_atms": 20, 
	 "gaussian": { 
		 "optdone": 1, 
		 "sigma_profile": "yes", 
		 "theory": "DFT", 
		 "functional": "B3LYP", 
		 "basiset": "6-31G**", 
		 "properties": { 
			 "R2extent": 2178.8737, 
			 "electric_dipole_moment_norm": 1.94467746169, 
			 "electric_quadrupole_moment_norm": 13.5468236417, 
			 "total_energy": -515.489460477, 
			 "HOMO_LUMO_gap": 0.17039, 
			 "cosmo_polarized_energy": -11.63, 
			 "cosmo_cavitation_energy": 24.35, 
			 "cosmo_dispersion_energy": -18.05, 
			 "cosmo_repulsion_energy": 1.46, 
			 "cosmo_total_nonelectrostatic_energy": 7.75, 
			 "SMD_solvation_energy": 5.77 
		},
		"coords": [
			{
				"x": -2.1296239723,
				"y": -2.1929105586,
				"z": -2.5222715008,
				"element": "C" 
			},
			{
				"x": -1.8579531302,
				"y": -1.6139289972,
				"z": -1.238254612,
				"element": "O" 
			},
			{
				"x": -0.9387344408,
				"y": -0.6198277481,
				"z": -1.2387471544,
				"element": "C" 
			},
			{
				"x": -0.3809340326,
				"y": -0.2395792474,
				"z": -2.2509058062,
				"element": "O" 
			},
			{
				"x": -0.7000731758,
				"y": -0.0607969804,
				"z": 0.1227494902,
				"element": "C" 
			},
			{
				"x": 0.2415654878,
				"y": 0.9665478001,
				"z": 0.2324990484,
				"element": "C" 
			},
			{
				"x": 0.5217330434,
				"y": 1.5497741632,
				"z": 1.4761100317,
				"element": "C" 
			},
			{
				"x": 1.502416617,
				"y": 2.5348340517,
				"z": 1.5973901048,
				"element": "N" 
			},
			{
				"x": -0.1678692094,
				"y": 1.0774215301,
				"z": 2.6080629043,
				"element": "C" 
			},
			{
				"x": -1.1055356575,
				"y": 0.053585721,
				"z": 2.491457704,
				"element": "C" 
			},
			{
				"x": -1.3830035572,
				"y": -0.5268792907,
				"z": 1.2545210678,
				"element": "C" 
			},
			{
				"x": -2.8784306129,
				"y": -2.9650607153,
				"z": -2.3449352901,
				"element": "H" 
			},
			{
				"x": -2.5133117453,
				"y": -1.437846303,
				"z": -3.2133451658,
				"element": "H" 
			},
			{
				"x": -1.2226566531,
				"y": -2.6288054338,
				"z": -2.9491777169,
				"element": "H" 
			},
			{
				"x": 0.7513041204,
				"y": 1.2995266837,
				"z": -0.666471783,
				"element": "H" 
			},
			{
				"x": 1.401989183,
				"y": 3.1501804356,
				"z": 2.3926779053,
				"element": "H" 
			},
			{
				"x": 1.708532422,
				"y": 3.0429012602,
				"z": 0.7484235278,
				"element": "H" 
			},
			{
				"x": 0.0400944924,
				"y": 1.5159942348,
				"z": 3.5812103493,
				"element": "H" 
			},
			{
				"x": -1.6262512868,
				"y": -0.2927447217,
				"z": 3.3797180104,
				"element": "H" 
			},
			{
				"x": -2.1119578922,
				"y": -1.3219858843,
				"z": 1.1602888853,
				"element": "H" 
			}
		],
		 "valence_orbital": [ 
			{
				"type": "occ",
				"energy": -0.30964,
				"method": "rhf"
			},
			{
				"type": "occ",
				"energy": -0.29575,
				"method": "rhf"
			},
			{
				"type": "occ",
				"energy": -0.26716,
				"method": "rhf"
			},
			{
				"type": "occ",
				"energy": -0.25137,
				"method": "rhf"
			},
			{
				"type": "occ",
				"energy": -0.20719,
				"method": "rhf"
			},
			{
				"type": "unocc",
				"energy": -0.0368,
				"method": "rhf"
			},
			{
				"type": "unocc",
				"energy": 0.01093,
				"method": "rhf"
			},
			{
				"type": "unocc",
				"energy": 0.06668,
				"method": "rhf"
			},
			{
				"type": "unocc",
				"energy": 0.08287,
				"method": "rhf"
			},
			{
				"type": "unocc",
				"energy": 0.10438,
				"method": "rhf"
			}
		],
		"cosmo_sigma_profile": { 
			"-0.025": 0.0,
			"-0.024": 0.0,
			"-0.023": 0.0,
			"-0.022": 0.0,
			"-0.021": 0.0,
			"-0.02": 0.0,
			"-0.019": 0.0,
			"-0.018": 0.0,
			"-0.017": 0.0,
			"-0.016": 0.0,
			"-0.015": 0.0,
			"-0.014": 0.0,
			"-0.013": 0.606561332639,
			"-0.012": 2.80366953635,
			"-0.011": 2.93634149121,
			"-0.01": 3.10666744568,
			"-0.009": 3.30526198437,
			"-0.008": 3.20384929358,
			"-0.007": 4.03548268502,
			"-0.006": 9.33881038637,
			"-0.005": 12.19672348,
			"-0.004": 15.9950906566,
			"-0.003": 15.3358591631,
			"-0.002": 11.9647370202,
			"-0.001": 9.20434883656,
			"0.0": 9.10236791949,
			"0.001": 10.1802237402,
			"0.002": 11.607094706,
			"0.003": 13.0808073837,
			"0.004": 14.508583442,
			"0.005": 14.3303459245,
			"0.006": 6.42344138722,
			"0.007": 2.77599033268,
			"0.008": 2.24869176255,
			"0.009": 2.2435456819,
			"0.01": 2.20913985169,
			"0.011": 3.3009128921,
			"0.012": 5.32214332083,
			"0.013": 1.54339633947,
			"0.014": 0.384595827338,
			"0.015": 0.105002758608,
			"0.016": 0.0,
			"0.017": 0.0,
			"0.018": 0.0,
			"0.019": 0.0,
			"0.02": 0.0,
			"0.021": 0.0,
			"0.022": 0.0,
			"0.023": 0.0,
			"0.024": 0.0,
			"0.025": 0.0
		}
	}
}
