{
	 "smiles": "OC(=O)CS(=O)(=O)CC1=CC(Br)=CC=C1", 
	 "Tm": 447.15, 
	 "num_atms": 24, 
	 "gaussian": { 
		 "optdone": 1, 
		 "sigma_profile": "yes", 
		 "theory": "DFT", 
		 "functional": "B3LYP", 
		 "basiset": "6-31G**", 
		 "properties": { 
			 "R2extent": 7126.7406, 
			 "electric_dipole_moment_norm": 4.87098592895, 
			 "electric_quadrupole_moment_norm": 24.7206995047, 
			 "total_energy": -3618.81153888, 
			 "HOMO_LUMO_gap": 0.20279, 
			 "cosmo_polarized_energy": -25.14, 
			 "cosmo_cavitation_energy": 33.33, 
			 "cosmo_dispersion_energy": -23.89, 
			 "cosmo_repulsion_energy": 1.85, 
			 "cosmo_total_nonelectrostatic_energy": 11.29, 
			 "SMD_solvation_energy": 4.93 
		},
		"coords": [
			{
				"x": -5.0127398075,
				"y": 0.8545684517,
				"z": -1.5739199365,
				"element": "O" 
			},
			{
				"x": -4.0358596272,
				"y": 1.774551592,
				"z": -1.7014167295,
				"element": "C" 
			},
			{
				"x": -3.8322086362,
				"y": 2.4172778459,
				"z": -2.7026101987,
				"element": "O" 
			},
			{
				"x": -3.2268182573,
				"y": 1.8871935462,
				"z": -0.4234133103,
				"element": "C" 
			},
			{
				"x": -1.6805652587,
				"y": 0.8874879504,
				"z": -0.5770876721,
				"element": "S" 
			},
			{
				"x": -0.6460654624,
				"y": 1.7317953312,
				"z": -1.185275104,
				"element": "O" 
			},
			{
				"x": -2.0459506785,
				"y": -0.4104333,
				"z": -1.1582753871,
				"element": "O" 
			},
			{
				"x": -1.2396709413,
				"y": 0.6221756787,
				"z": 1.1933102176,
				"element": "C" 
			},
			{
				"x": 0.0446267883,
				"y": -0.1501979958,
				"z": 1.3085554109,
				"element": "C" 
			},
			{
				"x": 0.010947025,
				"y": -1.5481118851,
				"z": 1.3940315209,
				"element": "C" 
			},
			{
				"x": 1.205671401,
				"y": -2.2569907456,
				"z": 1.4865592023,
				"element": "C" 
			},
			{
				"x": 1.1522005378,
				"y": -4.161753803,
				"z": 1.622900045,
				"element": "Br" 
			},
			{
				"x": 2.4377972733,
				"y": -1.6052056567,
				"z": 1.4845685984,
				"element": "C" 
			},
			{
				"x": 2.4641028073,
				"y": -0.2133442208,
				"z": 1.3846035904,
				"element": "C" 
			},
			{
				"x": 1.2781910329,
				"y": 0.5132944297,
				"z": 1.2950857118,
				"element": "C" 
			},
			{
				"x": -5.4527240095,
				"y": 0.794294086,
				"z": -2.4391027205,
				"element": "H" 
			},
			{
				"x": -3.7869753067,
				"y": 1.4981533086,
				"z": 0.42857265,
				"element": "H" 
			},
			{
				"x": -2.9204212966,
				"y": 2.9214928136,
				"z": -0.265746003,
				"element": "H" 
			},
			{
				"x": -2.0842980311,
				"y": 0.0882250332,
				"z": 1.6357223852,
				"element": "H" 
			},
			{
				"x": -1.1624657237,
				"y": 1.6191582709,
				"z": 1.6359067988,
				"element": "H" 
			},
			{
				"x": -0.9355719351,
				"y": -2.0765977642,
				"z": 1.3847651444,
				"element": "H" 
			},
			{
				"x": 3.3566819626,
				"y": -2.175248584,
				"z": 1.5588707435,
				"element": "H" 
			},
			{
				"x": 3.4185692811,
				"y": 0.3038900031,
				"z": 1.3761890893,
				"element": "H" 
			},
			{
				"x": 1.3069468624,
				"y": 1.594625614,
				"z": 1.2064059533,
				"element": "H" 
			}
		],
		 "valence_orbital": [ 
			{
				"type": "occ",
				"energy": -0.30327,
				"method": "rhf"
			},
			{
				"type": "occ",
				"energy": -0.29348,
				"method": "rhf"
			},
			{
				"type": "occ",
				"energy": -0.29117,
				"method": "rhf"
			},
			{
				"type": "occ",
				"energy": -0.2674,
				"method": "rhf"
			},
			{
				"type": "occ",
				"energy": -0.24952,
				"method": "rhf"
			},
			{
				"type": "unocc",
				"energy": -0.04673,
				"method": "rhf"
			},
			{
				"type": "unocc",
				"energy": -0.02346,
				"method": "rhf"
			},
			{
				"type": "unocc",
				"energy": -0.01526,
				"method": "rhf"
			},
			{
				"type": "unocc",
				"energy": 0.00161,
				"method": "rhf"
			},
			{
				"type": "unocc",
				"energy": 0.04758,
				"method": "rhf"
			}
		],
		"cosmo_sigma_profile": { 
			"-0.025": 0.0,
			"-0.024": 0.0,
			"-0.023": 0.0,
			"-0.022": 0.0,
			"-0.021": 0.0,
			"-0.02": 0.0122126305021,
			"-0.019": 0.692285467058,
			"-0.018": 1.33707079188,
			"-0.017": 0.449280230913,
			"-0.016": 1.09946674541,
			"-0.015": 0.675239173677,
			"-0.014": 0.675995020028,
			"-0.013": 1.22943357907,
			"-0.012": 2.6022666346,
			"-0.011": 4.27056897357,
			"-0.01": 6.90680748206,
			"-0.009": 8.90286189136,
			"-0.008": 9.25830593651,
			"-0.007": 13.3051939052,
			"-0.006": 14.1031634956,
			"-0.005": 11.5043468597,
			"-0.004": 10.2786797629,
			"-0.003": 9.95150536525,
			"-0.002": 9.65788951201,
			"-0.001": 10.4491582497,
			"0.0": 11.359448168,
			"0.001": 17.3321255826,
			"0.002": 19.7010541767,
			"0.003": 21.5138590035,
			"0.004": 18.2013081404,
			"0.005": 9.9909686258,
			"0.006": 4.89010672289,
			"0.007": 6.06310552395,
			"0.008": 8.2606350467,
			"0.009": 5.90059811919,
			"0.01": 13.075398902,
			"0.011": 12.8566955984,
			"0.012": 2.25338116086,
			"0.013": 0.0,
			"0.014": 0.0,
			"0.015": 0.0,
			"0.016": 0.0,
			"0.017": 0.0,
			"0.018": 0.0,
			"0.019": 0.0,
			"0.02": 0.0,
			"0.021": 0.0,
			"0.022": 0.0,
			"0.023": 0.0,
			"0.024": 0.0,
			"0.025": 0.0
		}
	}
}
