{
	 "smiles": "CC(C)N1C(S)=NC=C1C(C)C", 
	 "Tm": 451.15, 
	 "num_atms": 28, 
	 "gaussian": { 
		 "optdone": 1, 
		 "sigma_profile": "yes", 
		 "theory": "DFT", 
		 "functional": "B3LYP", 
		 "basiset": "6-31G**", 
		 "properties": { 
			 "R2extent": 2755.0339, 
			 "electric_dipole_moment_norm": 3.35463514708, 
			 "electric_quadrupole_moment_norm": 4.97503341396, 
			 "total_energy": -860.298327668, 
			 "HOMO_LUMO_gap": 0.21112, 
			 "cosmo_polarized_energy": -9.38, 
			 "cosmo_cavitation_energy": 30.82, 
			 "cosmo_dispersion_energy": -21.49, 
			 "cosmo_repulsion_energy": 1.67, 
			 "cosmo_total_nonelectrostatic_energy": 11.0, 
			 "SMD_solvation_energy": 3.54 
		},
		"coords": [
			{
				"x": -0.803072372,
				"y": -1.7779516118,
				"z": -1.9364495731,
				"element": "C" 
			},
			{
				"x": -0.6930070843,
				"y": -0.3089455438,
				"z": -1.50432645,
				"element": "C" 
			},
			{
				"x": -1.9504212458,
				"y": 0.2239448594,
				"z": -0.8030753455,
				"element": "C" 
			},
			{
				"x": 0.532968295,
				"y": -0.0460358598,
				"z": -0.7273907437,
				"element": "N" 
			},
			{
				"x": 1.5561120981,
				"y": 0.7749983438,
				"z": -1.1394377324,
				"element": "C" 
			},
			{
				"x": 1.5242420938,
				"y": 1.6400294471,
				"z": -2.6964192165,
				"element": "S" 
			},
			{
				"x": 2.5400561145,
				"y": 0.8495636498,
				"z": -0.2748525097,
				"element": "N" 
			},
			{
				"x": 2.1473731852,
				"y": 0.0351352368,
				"z": 0.7638663056,
				"element": "C" 
			},
			{
				"x": 0.9206183782,
				"y": -0.5361419302,
				"z": 0.5295699722,
				"element": "C" 
			},
			{
				"x": 0.1306176839,
				"y": -1.4845721361,
				"z": 1.4020643721,
				"element": "C" 
			},
			{
				"x": -0.2369191205,
				"y": -0.8285931034,
				"z": 2.748484837,
				"element": "C" 
			},
			{
				"x": 0.8953300797,
				"y": -2.8050494898,
				"z": 1.6251993272,
				"element": "C" 
			},
			{
				"x": 0.1082646682,
				"y": -2.0952387085,
				"z": -2.450580714,
				"element": "H" 
			},
			{
				"x": -1.6446537002,
				"y": -1.895580734,
				"z": -2.6264467987,
				"element": "H" 
			},
			{
				"x": -0.9703978941,
				"y": -2.448915958,
				"z": -1.090084271,
				"element": "H" 
			},
			{
				"x": -0.5705477714,
				"y": 0.2790772655,
				"z": -2.4191425783,
				"element": "H" 
			},
			{
				"x": -1.8253383587,
				"y": 1.2782028761,
				"z": -0.5414819556,
				"element": "H" 
			},
			{
				"x": -2.1837653134,
				"y": -0.3302508114,
				"z": 0.1095681083,
				"element": "H" 
			},
			{
				"x": -2.8102364999,
				"y": 0.1370366284,
				"z": -1.4749048127,
				"element": "H" 
			},
			{
				"x": 2.7258153082,
				"y": 2.2008669912,
				"z": -2.4706549261,
				"element": "H" 
			},
			{
				"x": 2.7782475365,
				"y": -0.0955709632,
				"z": 1.6329451047,
				"element": "H" 
			},
			{
				"x": -0.8061189351,
				"y": -1.7337050737,
				"z": 0.896260049,
				"element": "H" 
			},
			{
				"x": -0.831080843,
				"y": -1.5126924078,
				"z": 3.3646303288,
				"element": "H" 
			},
			{
				"x": -0.8139925011,
				"y": 0.0890227883,
				"z": 2.5990667932,
				"element": "H" 
			},
			{
				"x": 0.6641150917,
				"y": -0.5649947789,
				"z": 3.3117744383,
				"element": "H" 
			},
			{
				"x": 1.8432186016,
				"y": -2.6231968355,
				"z": 2.1419894802,
				"element": "H" 
			},
			{
				"x": 0.3056540255,
				"y": -3.4970180582,
				"z": 2.2368497711,
				"element": "H" 
			},
			{
				"x": 1.1255184793,
				"y": -3.2964240821,
				"z": 0.6749787395,
				"element": "H" 
			}
		],
		 "valence_orbital": [ 
			{
				"type": "occ",
				"energy": -0.33327,
				"method": "rhf"
			},
			{
				"type": "occ",
				"energy": -0.2818,
				"method": "rhf"
			},
			{
				"type": "occ",
				"energy": -0.26124,
				"method": "rhf"
			},
			{
				"type": "occ",
				"energy": -0.26039,
				"method": "rhf"
			},
			{
				"type": "occ",
				"energy": -0.19481,
				"method": "rhf"
			},
			{
				"type": "unocc",
				"energy": 0.01631,
				"method": "rhf"
			},
			{
				"type": "unocc",
				"energy": 0.03583,
				"method": "rhf"
			},
			{
				"type": "unocc",
				"energy": 0.06658,
				"method": "rhf"
			},
			{
				"type": "unocc",
				"energy": 0.07164,
				"method": "rhf"
			},
			{
				"type": "unocc",
				"energy": 0.07282,
				"method": "rhf"
			}
		],
		"cosmo_sigma_profile": { 
			"-0.025": 0.0,
			"-0.024": 0.0,
			"-0.023": 0.0,
			"-0.022": 0.0,
			"-0.021": 0.0,
			"-0.02": 0.0,
			"-0.019": 0.0,
			"-0.018": 0.0,
			"-0.017": 0.0,
			"-0.016": 0.0,
			"-0.015": 0.0,
			"-0.014": 0.0,
			"-0.013": 0.0,
			"-0.012": 0.013181739373,
			"-0.011": 1.05264291148,
			"-0.01": 1.538560872,
			"-0.009": 0.924831323164,
			"-0.008": 0.814657284698,
			"-0.007": 1.41143406511,
			"-0.006": 3.93481331503,
			"-0.005": 8.66180224158,
			"-0.004": 19.0948360667,
			"-0.003": 30.8075228298,
			"-0.002": 32.8591931021,
			"-0.001": 28.7422903422,
			"0.0": 30.7333249786,
			"0.001": 22.7498948799,
			"0.002": 10.694580692,
			"0.003": 7.62490691817,
			"0.004": 8.26068072557,
			"0.005": 7.45329636378,
			"0.006": 6.27796901877,
			"0.007": 5.13286043948,
			"0.008": 3.65246494558,
			"0.009": 1.62121014024,
			"0.01": 2.09595620522,
			"0.011": 1.02360435723,
			"0.012": 1.40180432535,
			"0.013": 0.841352352326,
			"0.014": 1.18869122288,
			"0.015": 1.20792847179,
			"0.016": 0.733260832008,
			"0.017": 0.94481561511,
			"0.018": 0.107609278752,
			"0.019": 0.0,
			"0.02": 0.0,
			"0.021": 0.0,
			"0.022": 0.0,
			"0.023": 0.0,
			"0.024": 0.0,
			"0.025": 0.0
		}
	}
}
