{
	 "smiles": "COC1=CC=C(C=C1)C(CNC(=O)CCl)C1=CNC2=C1C=CC=C2", 
	 "Tm": 431.15, 
	 "num_atms": 43, 
	 "gaussian": { 
		 "optdone": 1, 
		 "sigma_profile": "yes", 
		 "theory": "DFT", 
		 "functional": "B3LYP", 
		 "basiset": "6-31G**", 
		 "properties": { 
			 "R2extent": 9560.508, 
			 "electric_dipole_moment_norm": 1.68588850758, 
			 "electric_quadrupole_moment_norm": 9.93245092915, 
			 "total_energy": -1455.63452685, 
			 "HOMO_LUMO_gap": 0.18982, 
			 "cosmo_polarized_energy": -17.4, 
			 "cosmo_cavitation_energy": 47.33, 
			 "cosmo_dispersion_energy": -32.01, 
			 "cosmo_repulsion_energy": 2.47, 
			 "cosmo_total_nonelectrostatic_energy": 17.8, 
			 "SMD_solvation_energy": 8.22 
		},
		"coords": [
			{
				"x": -2.1469432249,
				"y": 3.2431276645,
				"z": -4.3383419604,
				"element": "C" 
			},
			{
				"x": -1.1859227937,
				"y": 2.2579724229,
				"z": -4.6824014246,
				"element": "O" 
			},
			{
				"x": -0.6437507406,
				"y": 1.5080245496,
				"z": -3.6788732473,
				"element": "C" 
			},
			{
				"x": -0.9621397668,
				"y": 1.638001246,
				"z": -2.3225604524,
				"element": "C" 
			},
			{
				"x": -0.3438353405,
				"y": 0.8074095278,
				"z": -1.3826024008,
				"element": "C" 
			},
			{
				"x": 0.5949957356,
				"y": -0.1572911901,
				"z": -1.7603906277,
				"element": "C" 
			},
			{
				"x": 0.8984929134,
				"y": -0.2716862597,
				"z": -3.1276991846,
				"element": "C" 
			},
			{
				"x": 0.2932325146,
				"y": 0.5424332934,
				"z": -4.0765209852,
				"element": "C" 
			},
			{
				"x": 1.3274470871,
				"y": -1.0233969487,
				"z": -0.7347067025,
				"element": "C" 
			},
			{
				"x": 2.6546304134,
				"y": -0.3395735589,
				"z": -0.3078115941,
				"element": "C" 
			},
			{
				"x": 2.4934442252,
				"y": 1.0088239726,
				"z": 0.2210272643,
				"element": "N" 
			},
			{
				"x": 2.8528471043,
				"y": 1.3658461693,
				"z": 1.4697946712,
				"element": "C" 
			},
			{
				"x": 3.3139255615,
				"y": 0.6079990072,
				"z": 2.322287038,
				"element": "O" 
			},
			{
				"x": 2.6752219592,
				"y": 2.828167666,
				"z": 1.8869830998,
				"element": "C" 
			},
			{
				"x": 2.0271238852,
				"y": 3.9729323177,
				"z": 0.6350306461,
				"element": "Cl" 
			},
			{
				"x": 0.4695373728,
				"y": -1.4660549782,
				"z": 0.4273443275,
				"element": "C" 
			},
			{
				"x": 0.742120375,
				"y": -1.3518278937,
				"z": 1.7706407711,
				"element": "C" 
			},
			{
				"x": -0.2641687598,
				"y": -1.9492942797,
				"z": 2.5063352655,
				"element": "N" 
			},
			{
				"x": -1.2108129697,
				"y": -2.4735199911,
				"z": 1.6511097508,
				"element": "C" 
			},
			{
				"x": -0.7815717223,
				"y": -2.1863700991,
				"z": 0.3258844952,
				"element": "C" 
			},
			{
				"x": -1.5748675875,
				"y": -2.6258754937,
				"z": -0.749500038,
				"element": "C" 
			},
			{
				"x": -2.747293448,
				"y": -3.3233670902,
				"z": -0.4846570968,
				"element": "C" 
			},
			{
				"x": -3.1530021502,
				"y": -3.5930985688,
				"z": 0.8383187664,
				"element": "C" 
			},
			{
				"x": -2.3920368022,
				"y": -3.171890496,
				"z": 1.9229752816,
				"element": "C" 
			},
			{
				"x": -1.7256422127,
				"y": 4.0051336328,
				"z": -3.6698068665,
				"element": "H" 
			},
			{
				"x": -2.4445973604,
				"y": 3.7147615409,
				"z": -5.2761790344,
				"element": "H" 
			},
			{
				"x": -3.0304668076,
				"y": 2.7988891197,
				"z": -3.8619063834,
				"element": "H" 
			},
			{
				"x": -1.688151189,
				"y": 2.3687967551,
				"z": -1.9864282599,
				"element": "H" 
			},
			{
				"x": -0.6134435219,
				"y": 0.903283718,
				"z": -0.3351750622,
				"element": "H" 
			},
			{
				"x": 1.6192837695,
				"y": -1.0181273097,
				"z": -3.4549711427,
				"element": "H" 
			},
			{
				"x": 0.5237135386,
				"y": 0.4473932634,
				"z": -5.1327173803,
				"element": "H" 
			},
			{
				"x": 1.6497087124,
				"y": -1.930525134,
				"z": -1.2683123977,
				"element": "H" 
			},
			{
				"x": 3.3088146746,
				"y": -0.2888091394,
				"z": -1.1858258967,
				"element": "H" 
			},
			{
				"x": 3.1645545989,
				"y": -0.9253434379,
				"z": 0.4592158603,
				"element": "H" 
			},
			{
				"x": 2.0921778981,
				"y": 1.7128211773,
				"z": -0.3843422341,
				"element": "H" 
			},
			{
				"x": 1.9920321875,
				"y": 2.8613232796,
				"z": 2.7359823485,
				"element": "H" 
			},
			{
				"x": 3.6458910228,
				"y": 3.2112583292,
				"z": 2.2020421789,
				"element": "H" 
			},
			{
				"x": 1.5868529384,
				"y": -0.89681741,
				"z": 2.2704638655,
				"element": "H" 
			},
			{
				"x": -0.2864996083,
				"y": -2.0059859195,
				"z": 3.5110522921,
				"element": "H" 
			},
			{
				"x": -1.2785284473,
				"y": -2.416577135,
				"z": -1.7727099935,
				"element": "H" 
			},
			{
				"x": -3.3654170782,
				"y": -3.6661473456,
				"z": -1.3094587813,
				"element": "H" 
			},
			{
				"x": -4.0753920152,
				"y": -4.1392344055,
				"z": 1.0137480756,
				"element": "H" 
			},
			{
				"x": -2.7024649414,
				"y": -3.3803845682,
				"z": 2.9432631488,
				"element": "H" 
			}
		],
		 "valence_orbital": [ 
			{
				"type": "occ",
				"energy": -0.26137,
				"method": "rhf"
			},
			{
				"type": "occ",
				"energy": -0.25104,
				"method": "rhf"
			},
			{
				"type": "occ",
				"energy": -0.21715,
				"method": "rhf"
			},
			{
				"type": "occ",
				"energy": -0.2129,
				"method": "rhf"
			},
			{
				"type": "occ",
				"energy": -0.19498,
				"method": "rhf"
			},
			{
				"type": "unocc",
				"energy": -0.00516,
				"method": "rhf"
			},
			{
				"type": "unocc",
				"energy": -0.0024,
				"method": "rhf"
			},
			{
				"type": "unocc",
				"energy": 0.00835,
				"method": "rhf"
			},
			{
				"type": "unocc",
				"energy": 0.0146,
				"method": "rhf"
			},
			{
				"type": "unocc",
				"energy": 0.01661,
				"method": "rhf"
			}
		],
		"cosmo_sigma_profile": { 
			"-0.025": 0.0,
			"-0.024": 0.0,
			"-0.023": 0.0,
			"-0.022": 0.0,
			"-0.021": 0.0,
			"-0.02": 0.0,
			"-0.019": 0.0,
			"-0.018": 0.0,
			"-0.017": 0.0,
			"-0.016": 0.12388057707,
			"-0.015": 1.46778212375,
			"-0.014": 1.03236542342,
			"-0.013": 1.73000991077,
			"-0.012": 0.958804568267,
			"-0.011": 1.09150783821,
			"-0.01": 1.39934623798,
			"-0.009": 4.32020246971,
			"-0.008": 5.93203308857,
			"-0.007": 5.656625684,
			"-0.006": 13.9050071294,
			"-0.005": 30.5684150054,
			"-0.004": 32.7296160605,
			"-0.003": 34.7780034894,
			"-0.002": 28.9379808044,
			"-0.001": 22.4801532996,
			"0.0": 22.8993416001,
			"0.001": 20.2188258672,
			"0.002": 22.1845671773,
			"0.003": 21.5493298574,
			"0.004": 25.5836065702,
			"0.005": 30.7702031877,
			"0.006": 18.9900346761,
			"0.007": 9.83192195174,
			"0.008": 4.08254906116,
			"0.009": 2.53962470903,
			"0.01": 3.45025670817,
			"0.011": 2.10396750764,
			"0.012": 1.66779160615,
			"0.013": 4.18834984892,
			"0.014": 1.29904395075,
			"0.015": 0.0,
			"0.016": 0.0,
			"0.017": 0.0,
			"0.018": 0.0,
			"0.019": 0.0,
			"0.02": 0.0,
			"0.021": 0.0,
			"0.022": 0.0,
			"0.023": 0.0,
			"0.024": 0.0,
			"0.025": 0.0
		}
	}
}
