{
	 "smiles": "CC1=CC=C(O1)C(=O)C=CC1=CC=C(O1)C1=CC=C(C)C=C1", 
	 "Tm": 416.15, 
	 "num_atms": 38, 
	 "gaussian": { 
		 "optdone": 1, 
		 "sigma_profile": "yes", 
		 "theory": "DFT", 
		 "functional": "B3LYP", 
		 "basiset": "6-31G**", 
		 "properties": { 
			 "R2extent": 10869.3518, 
			 "electric_dipole_moment_norm": 4.7974960198, 
			 "electric_quadrupole_moment_norm": 23.3555649529, 
			 "total_energy": -959.293203769, 
			 "HOMO_LUMO_gap": 0.1309, 
			 "cosmo_polarized_energy": -14.45, 
			 "cosmo_cavitation_energy": 43.68, 
			 "cosmo_dispersion_energy": -30.37, 
			 "cosmo_repulsion_energy": 2.34, 
			 "cosmo_total_nonelectrostatic_energy": 15.65, 
			 "SMD_solvation_energy": 8.83 
		},
		"coords": [
			{
				"x": -0.1284073781,
				"y": -4.7822678553,
				"z": 5.1263693796,
				"element": "C" 
			},
			{
				"x": 0.4204772277,
				"y": -3.550081636,
				"z": 4.4982557792,
				"element": "C" 
			},
			{
				"x": 0.0513369815,
				"y": -2.2289414868,
				"z": 4.5444054659,
				"element": "C" 
			},
			{
				"x": 0.9739220672,
				"y": -1.5248997713,
				"z": 3.7232081375,
				"element": "C" 
			},
			{
				"x": 1.8503967026,
				"y": -2.4589497665,
				"z": 3.2249453513,
				"element": "C" 
			},
			{
				"x": 1.5105107435,
				"y": -3.7006445834,
				"z": 3.7053201078,
				"element": "O" 
			},
			{
				"x": 3.0503462509,
				"y": -2.3673554546,
				"z": 2.3883043551,
				"element": "C" 
			},
			{
				"x": 3.8198343451,
				"y": -3.3131088618,
				"z": 2.2518229188,
				"element": "O" 
			},
			{
				"x": 3.3642042262,
				"y": -1.0408902011,
				"z": 1.7696267811,
				"element": "C" 
			},
			{
				"x": 2.6307293016,
				"y": -0.3255487431,
				"z": 0.8901771584,
				"element": "C" 
			},
			{
				"x": 1.3646231316,
				"y": -0.6466372382,
				"z": 0.2753324477,
				"element": "C" 
			},
			{
				"x": 0.5848083995,
				"y": -1.7721473966,
				"z": 0.1300039285,
				"element": "C" 
			},
			{
				"x": -0.530602474,
				"y": -1.4027681092,
				"z": -0.6640452656,
				"element": "C" 
			},
			{
				"x": -0.3798960239,
				"y": -0.0688993874,
				"z": -0.9739239083,
				"element": "C" 
			},
			{
				"x": 0.7739164378,
				"y": 0.3917072407,
				"z": -0.4090391069,
				"element": "O" 
			},
			{
				"x": -1.1745923107,
				"y": 0.8759923258,
				"z": -1.7451403647,
				"element": "C" 
			},
			{
				"x": -0.756304966,
				"y": 2.2068243867,
				"z": -1.9181407471,
				"element": "C" 
			},
			{
				"x": -1.5233013962,
				"y": 3.0999400098,
				"z": -2.660897228,
				"element": "C" 
			},
			{
				"x": -2.7298657201,
				"y": 2.708462563,
				"z": -3.2556965787,
				"element": "C" 
			},
			{
				"x": -3.5734169986,
				"y": 3.6882396288,
				"z": -4.0351551282,
				"element": "C" 
			},
			{
				"x": -3.1412941441,
				"y": 1.3781939722,
				"z": -3.0830341854,
				"element": "C" 
			},
			{
				"x": -2.384335245,
				"y": 0.4774716796,
				"z": -2.3429844378,
				"element": "C" 
			},
			{
				"x": -0.9970529669,
				"y": -4.5349928095,
				"z": 5.7402680066,
				"element": "H" 
			},
			{
				"x": 0.6201728719,
				"y": -5.2683252532,
				"z": 5.761803095,
				"element": "H" 
			},
			{
				"x": -0.4353338096,
				"y": -5.5103891307,
				"z": 4.3672050096,
				"element": "H" 
			},
			{
				"x": -0.7785573103,
				"y": -1.8188607818,
				"z": 5.1019503146,
				"element": "H" 
			},
			{
				"x": 1.0004568004,
				"y": -0.4646651102,
				"z": 3.5202538718,
				"element": "H" 
			},
			{
				"x": 4.3658637645,
				"y": -0.6858404272,
				"z": 1.9996922688,
				"element": "H" 
			},
			{
				"x": 3.0510361986,
				"y": 0.6133669867,
				"z": 0.5338141266,
				"element": "H" 
			},
			{
				"x": 0.7995382144,
				"y": -2.7504585397,
				"z": 0.5327728441,
				"element": "H" 
			},
			{
				"x": -1.3396872757,
				"y": -2.0462810911,
				"z": -0.9769410407,
				"element": "H" 
			},
			{
				"x": 0.1756913757,
				"y": 2.5336145502,
				"z": -1.4701098899,
				"element": "H" 
			},
			{
				"x": -1.1760180761,
				"y": 4.1230176168,
				"z": -2.7831368212,
				"element": "H" 
			},
			{
				"x": -4.0705339838,
				"y": 3.2044568673,
				"z": -4.8819202675,
				"element": "H" 
			},
			{
				"x": -4.3594521993,
				"y": 4.1247785547,
				"z": -3.4056576071,
				"element": "H" 
			},
			{
				"x": -2.971054116,
				"y": 4.5148881195,
				"z": -4.4231050224,
				"element": "H" 
			},
			{
				"x": -4.0703828169,
				"y": 1.0433540655,
				"z": -3.5380143371,
				"element": "H" 
			},
			{
				"x": -2.7321758295,
				"y": -0.5450549328,
				"z": -2.2306894112,
				"element": "H" 
			}
		],
		 "valence_orbital": [ 
			{
				"type": "occ",
				"energy": -0.25986,
				"method": "rhf"
			},
			{
				"type": "occ",
				"energy": -0.25352,
				"method": "rhf"
			},
			{
				"type": "occ",
				"energy": -0.24275,
				"method": "rhf"
			},
			{
				"type": "occ",
				"energy": -0.22907,
				"method": "rhf"
			},
			{
				"type": "occ",
				"energy": -0.19471,
				"method": "rhf"
			},
			{
				"type": "unocc",
				"energy": -0.06381,
				"method": "rhf"
			},
			{
				"type": "unocc",
				"energy": -0.037,
				"method": "rhf"
			},
			{
				"type": "unocc",
				"energy": -0.00673,
				"method": "rhf"
			},
			{
				"type": "unocc",
				"energy": -0.00188,
				"method": "rhf"
			},
			{
				"type": "unocc",
				"energy": 0.04315,
				"method": "rhf"
			}
		],
		"cosmo_sigma_profile": { 
			"-0.025": 0.0,
			"-0.024": 0.0,
			"-0.023": 0.0,
			"-0.022": 0.0,
			"-0.021": 0.0,
			"-0.02": 0.0,
			"-0.019": 0.0,
			"-0.018": 0.0,
			"-0.017": 0.0,
			"-0.016": 0.0,
			"-0.015": 0.0,
			"-0.014": 0.0,
			"-0.013": 0.0,
			"-0.012": 0.0,
			"-0.011": 0.0,
			"-0.01": 0.0,
			"-0.009": 0.0,
			"-0.008": 2.70001672637,
			"-0.007": 10.0144723913,
			"-0.006": 16.7224445033,
			"-0.005": 25.2522897463,
			"-0.004": 31.3519434913,
			"-0.003": 27.5801787003,
			"-0.002": 29.9560870243,
			"-0.001": 30.2398425564,
			"0.0": 28.6699855923,
			"0.001": 23.9826063771,
			"0.002": 30.7315783273,
			"0.003": 25.8756000841,
			"0.004": 22.7102755374,
			"0.005": 15.371572713,
			"0.006": 5.07315990575,
			"0.007": 2.21380546933,
			"0.008": 2.03866107599,
			"0.009": 2.43575325807,
			"0.01": 2.32020522328,
			"0.011": 3.11703747631,
			"0.012": 4.87064544358,
			"0.013": 4.7977151829,
			"0.014": 1.5499909069,
			"0.015": 0.0,
			"0.016": 0.0,
			"0.017": 0.0,
			"0.018": 0.0,
			"0.019": 0.0,
			"0.02": 0.0,
			"0.021": 0.0,
			"0.022": 0.0,
			"0.023": 0.0,
			"0.024": 0.0,
			"0.025": 0.0
		}
	}
}
