{
	 "smiles": "[O-][N+](=O)C1=CC(Cl)=NC=C1", 
	 "Tm": 325.15, 
	 "num_atms": 13, 
	 "gaussian": { 
		 "optdone": 1, 
		 "sigma_profile": "yes", 
		 "theory": "DFT", 
		 "functional": "B3LYP", 
		 "basiset": "6-31G**", 
		 "properties": { 
			 "R2extent": 2535.1616, 
			 "electric_dipole_moment_norm": 1.7167224266, 
			 "electric_quadrupole_moment_norm": 9.22634429446, 
			 "total_energy": -912.369147289, 
			 "HOMO_LUMO_gap": 0.16977, 
			 "cosmo_polarized_energy": -8.29, 
			 "cosmo_cavitation_energy": 20.54, 
			 "cosmo_dispersion_energy": -15.44, 
			 "cosmo_repulsion_energy": 1.25, 
			 "cosmo_total_nonelectrostatic_energy": 6.35, 
			 "SMD_solvation_energy": 4.33 
		},
		"coords": [
			{
				"x": 1.8683446904,
				"y": 2.5909921581,
				"z": -0.6883506412,
				"element": "O" 
			},
			{
				"x": 1.4109706161,
				"y": 1.6900722317,
				"z": 0.0083497624,
				"element": "N" 
			},
			{
				"x": 1.4766326185,
				"y": 1.6304162405,
				"z": 1.2326785344,
				"element": "O" 
			},
			{
				"x": 0.7200255031,
				"y": 0.5786416445,
				"z": -0.6855843073,
				"element": "C" 
			},
			{
				"x": 0.6248412289,
				"y": 0.6086485826,
				"z": -2.0691517407,
				"element": "C" 
			},
			{
				"x": -0.0401785095,
				"y": -0.4726124037,
				"z": -2.6562929171,
				"element": "C" 
			},
			{
				"x": -0.1995247396,
				"y": -0.5034949618,
				"z": -4.4019872137,
				"element": "Cl" 
			},
			{
				"x": -0.5648798564,
				"y": -1.486433121,
				"z": -1.9888977905,
				"element": "N" 
			},
			{
				"x": -0.452149913,
				"y": -1.478859638,
				"z": -0.6531329032,
				"element": "C" 
			},
			{
				"x": 0.1843419784,
				"y": -0.4656777592,
				"z": 0.061097895,
				"element": "C" 
			},
			{
				"x": 1.0428276262,
				"y": 1.422591002,
				"z": -2.6452020347,
				"element": "H" 
			},
			{
				"x": -0.8931661807,
				"y": -2.3251609773,
				"z": -0.1330794908,
				"element": "H" 
			},
			{
				"x": 0.2656149376,
				"y": -0.4767229985,
				"z": 1.1398528476,
				"element": "H" 
			}
		],
		 "valence_orbital": [ 
			{
				"type": "occ",
				"energy": -0.33147,
				"method": "rhf"
			},
			{
				"type": "occ",
				"energy": -0.3273,
				"method": "rhf"
			},
			{
				"type": "occ",
				"energy": -0.3158,
				"method": "rhf"
			},
			{
				"type": "occ",
				"energy": -0.30331,
				"method": "rhf"
			},
			{
				"type": "occ",
				"energy": -0.28704,
				"method": "rhf"
			},
			{
				"type": "unocc",
				"energy": -0.11727,
				"method": "rhf"
			},
			{
				"type": "unocc",
				"energy": -0.05413,
				"method": "rhf"
			},
			{
				"type": "unocc",
				"energy": -0.03071,
				"method": "rhf"
			},
			{
				"type": "unocc",
				"energy": 0.0128,
				"method": "rhf"
			},
			{
				"type": "unocc",
				"energy": 0.08334,
				"method": "rhf"
			}
		],
		"cosmo_sigma_profile": { 
			"-0.025": 0.0,
			"-0.024": 0.0,
			"-0.023": 0.0,
			"-0.022": 0.0,
			"-0.021": 0.0,
			"-0.02": 0.0,
			"-0.019": 0.0,
			"-0.018": 0.0,
			"-0.017": 0.0,
			"-0.016": 0.0,
			"-0.015": 0.0,
			"-0.014": 0.0,
			"-0.013": 0.0,
			"-0.012": 0.0,
			"-0.011": 0.0,
			"-0.01": 0.419822516106,
			"-0.009": 5.38159759817,
			"-0.008": 6.57834305348,
			"-0.007": 6.52417103715,
			"-0.006": 6.68385040095,
			"-0.005": 5.99630098468,
			"-0.004": 10.8988431353,
			"-0.003": 17.3602112503,
			"-0.002": 15.9212635818,
			"-0.001": 10.5267784973,
			"0.0": 7.62861175189,
			"0.001": 7.66448680099,
			"0.002": 9.01294057564,
			"0.003": 11.9280226474,
			"0.004": 9.14072778731,
			"0.005": 7.53937493731,
			"0.006": 9.37745906912,
			"0.007": 8.28275346288,
			"0.008": 5.07665789392,
			"0.009": 3.29080603825,
			"0.01": 0.92817418316,
			"0.011": 0.871809351276,
			"0.012": 0.982981110641,
			"0.013": 0.490095382245,
			"0.014": 0.0509791937409,
			"0.015": 0.0,
			"0.016": 0.0,
			"0.017": 0.0,
			"0.018": 0.0,
			"0.019": 0.0,
			"0.02": 0.0,
			"0.021": 0.0,
			"0.022": 0.0,
			"0.023": 0.0,
			"0.024": 0.0,
			"0.025": 0.0
		}
	}
}
