{
	 "smiles": "FC(F)(F)C(F)(F)C(F)(F)C(F)(F)C(F)(F)C(F)(F)C(F)(F)C(F)(F)C(=O)NC1=C(Cl)C=C(Cl)C=C1Cl", 
	 "Tm": 388.15, 
	 "num_atms": 40, 
	 "gaussian": { 
		 "optdone": 1, 
		 "sigma_profile": "yes", 
		 "theory": "DFT", 
		 "functional": "B3LYP", 
		 "basiset": "6-31G**", 
		 "properties": { 
			 "R2extent": 25891.5806, 
			 "electric_dipole_moment_norm": 3.01413457729, 
			 "electric_quadrupole_moment_norm": 12.1117868921, 
			 "total_energy": -3781.16818213, 
			 "HOMO_LUMO_gap": 0.20639, 
			 "cosmo_polarized_energy": -10.24, 
			 "cosmo_cavitation_energy": 56.44, 
			 "cosmo_dispersion_energy": -36.3, 
			 "cosmo_repulsion_energy": 2.41, 
			 "cosmo_total_nonelectrostatic_energy": 22.55, 
			 "SMD_solvation_energy": 14.26 
		},
		"coords": [
			{
				"x": 0.6713236773,
				"y": -5.5363487682,
				"z": 1.1204087042,
				"element": "F" 
			},
			{
				"x": 1.1148817968,
				"y": -5.9266940105,
				"z": -0.081082585,
				"element": "C" 
			},
			{
				"x": 2.3064080433,
				"y": -6.5202421865,
				"z": 0.0572834849,
				"element": "F" 
			},
			{
				"x": 0.2472274035,
				"y": -6.8090388287,
				"z": -0.5894238553,
				"element": "F" 
			},
			{
				"x": 1.2119765882,
				"y": -4.7136409403,
				"z": -1.039943724,
				"element": "C" 
			},
			{
				"x": 0.0504444197,
				"y": -4.0289884447,
				"z": -0.9614767962,
				"element": "F" 
			},
			{
				"x": 1.3535897082,
				"y": -5.2028907454,
				"z": -2.2936256397,
				"element": "F" 
			},
			{
				"x": 2.3950611445,
				"y": -3.7140414596,
				"z": -0.8442672045,
				"element": "C" 
			},
			{
				"x": 3.5477835822,
				"y": -4.3616806797,
				"z": -1.117922368,
				"element": "F" 
			},
			{
				"x": 2.2010198156,
				"y": -2.743767383,
				"z": -1.7682473684,
				"element": "F" 
			},
			{
				"x": 2.5188945964,
				"y": -3.0567266662,
				"z": 0.5529827648,
				"element": "C" 
			},
			{
				"x": 2.8332279624,
				"y": -4.0434698897,
				"z": 1.4302634931,
				"element": "F" 
			},
			{
				"x": 1.3247490057,
				"y": -2.5261234682,
				"z": 0.9028804331,
				"element": "F" 
			},
			{
				"x": 3.6270569093,
				"y": -1.9737386535,
				"z": 0.7488336767,
				"element": "C" 
			},
			{
				"x": 3.6205417631,
				"y": -1.6853815144,
				"z": 2.070854492,
				"element": "F" 
			},
			{
				"x": 4.813114278,
				"y": -2.5432512593,
				"z": 0.4316096314,
				"element": "F" 
			},
			{
				"x": 3.5843437962,
				"y": -0.6120417053,
				"z": -0.0197466521,
				"element": "C" 
			},
			{
				"x": 3.8806609594,
				"y": -0.8346397579,
				"z": -1.3158634122,
				"element": "F" 
			},
			{
				"x": 4.5776917598,
				"y": 0.1323564233,
				"z": 0.5290750609,
				"element": "F" 
			},
			{
				"x": 2.268428505,
				"y": 0.2075828484,
				"z": 0.0658297732,
				"element": "C" 
			},
			{
				"x": 1.3485816775,
				"y": -0.373120815,
				"z": -0.7387667448,
				"element": "F" 
			},
			{
				"x": 1.8128971635,
				"y": 0.182713191,
				"z": 1.3448884836,
				"element": "F" 
			},
			{
				"x": 2.4100293739,
				"y": 1.6992356406,
				"z": -0.3492734133,
				"element": "C" 
			},
			{
				"x": 3.1518917378,
				"y": 1.7837568905,
				"z": -1.4687291501,
				"element": "F" 
			},
			{
				"x": 3.0561774916,
				"y": 2.3563888965,
				"z": 0.6630126218,
				"element": "F" 
			},
			{
				"x": 1.0282657235,
				"y": 2.3650798774,
				"z": -0.6092448059,
				"element": "C" 
			},
			{
				"x": 0.5580937658,
				"y": 2.4105918661,
				"z": -1.7225339737,
				"element": "O" 
			},
			{
				"x": 0.4460064509,
				"y": 2.8244826623,
				"z": 0.5469179589,
				"element": "N" 
			},
			{
				"x": -0.7931307158,
				"y": 3.5006267217,
				"z": 0.5707583046,
				"element": "C" 
			},
			{
				"x": -0.872851103,
				"y": 4.8342482956,
				"z": 1.0087414853,
				"element": "C" 
			},
			{
				"x": 0.5877407322,
				"y": 5.6582888232,
				"z": 1.5142318394,
				"element": "Cl" 
			},
			{
				"x": -2.0780512507,
				"y": 5.5277240324,
				"z": 1.0614385874,
				"element": "C" 
			},
			{
				"x": -3.2375715397,
				"y": 4.8732236029,
				"z": 0.6516675487,
				"element": "C" 
			},
			{
				"x": -4.7617102455,
				"y": 5.7300898142,
				"z": 0.6913733041,
				"element": "Cl" 
			},
			{
				"x": -3.2105945545,
				"y": 3.548887559,
				"z": 0.222990581,
				"element": "C" 
			},
			{
				"x": -1.9943617469,
				"y": 2.8677562356,
				"z": 0.2022781511,
				"element": "C" 
			},
			{
				"x": -2.0032757252,
				"y": 1.1840771238,
				"z": -0.2434569787,
				"element": "Cl" 
			},
			{
				"x": 1.0558829852,
				"y": 2.9403839433,
				"z": 1.3461545602,
				"element": "H" 
			},
			{
				"x": -2.1062092643,
				"y": 6.5547568642,
				"z": 1.4021386407,
				"element": "H" 
			},
			{
				"x": -4.1203366708,
				"y": 3.0427758641,
				"z": -0.0737089094,
				"element": "H" 
			}
		],
		 "valence_orbital": [ 
			{
				"type": "occ",
				"energy": -0.33009,
				"method": "rhf"
			},
			{
				"type": "occ",
				"energy": -0.31652,
				"method": "rhf"
			},
			{
				"type": "occ",
				"energy": -0.29248,
				"method": "rhf"
			},
			{
				"type": "occ",
				"energy": -0.27551,
				"method": "rhf"
			},
			{
				"type": "occ",
				"energy": -0.26521,
				"method": "rhf"
			},
			{
				"type": "unocc",
				"energy": -0.05882,
				"method": "rhf"
			},
			{
				"type": "unocc",
				"energy": -0.05002,
				"method": "rhf"
			},
			{
				"type": "unocc",
				"energy": -0.02849,
				"method": "rhf"
			},
			{
				"type": "unocc",
				"energy": -0.0265,
				"method": "rhf"
			},
			{
				"type": "unocc",
				"energy": 0.00842,
				"method": "rhf"
			}
		],
		"cosmo_sigma_profile": { 
			"-0.025": 0.0,
			"-0.024": 0.0,
			"-0.023": 0.0,
			"-0.022": 0.0,
			"-0.021": 0.0,
			"-0.02": 0.0,
			"-0.019": 0.0,
			"-0.018": 0.0,
			"-0.017": 0.0,
			"-0.016": 0.124216576222,
			"-0.015": 0.540449817153,
			"-0.014": 0.83417762013,
			"-0.013": 0.407991266735,
			"-0.012": 1.01874379188,
			"-0.011": 0.936513686417,
			"-0.01": 1.42566395935,
			"-0.009": 4.05057680239,
			"-0.008": 4.14478861811,
			"-0.007": 5.35011892666,
			"-0.006": 4.66439506739,
			"-0.005": 7.04395725846,
			"-0.004": 10.125477717,
			"-0.003": 20.0850176193,
			"-0.002": 29.2140219769,
			"-0.001": 55.6830393115,
			"0.0": 103.275732976,
			"0.001": 130.309299701,
			"0.002": 30.3157718757,
			"0.003": 24.0601303702,
			"0.004": 8.98915966147,
			"0.005": 2.68771932071,
			"0.006": 2.14288424752,
			"0.007": 2.38552754991,
			"0.008": 2.31019474202,
			"0.009": 2.79107379003,
			"0.01": 4.37072210326,
			"0.011": 2.18977413304,
			"0.012": 0.0,
			"0.013": 0.0,
			"0.014": 0.0,
			"0.015": 0.0,
			"0.016": 0.0,
			"0.017": 0.0,
			"0.018": 0.0,
			"0.019": 0.0,
			"0.02": 0.0,
			"0.021": 0.0,
			"0.022": 0.0,
			"0.023": 0.0,
			"0.024": 0.0,
			"0.025": 0.0
		}
	}
}
