{
	 "smiles": "FC1=CC(Br)=CC=C1C1=CC=CC=C1", 
	 "Tm": 313.15, 
	 "num_atms": 22, 
	 "gaussian": { 
		 "optdone": 1, 
		 "sigma_profile": "yes", 
		 "theory": "DFT", 
		 "functional": "B3LYP", 
		 "basiset": "6-31G**", 
		 "properties": { 
			 "R2extent": 5932.8332, 
			 "electric_dipole_moment_norm": 1.77200979117, 
			 "electric_quadrupole_moment_norm": 5.92294806916, 
			 "total_energy": -3133.34299589, 
			 "HOMO_LUMO_gap": 0.18851, 
			 "cosmo_polarized_energy": -5.1, 
			 "cosmo_cavitation_energy": 28.9, 
			 "cosmo_dispersion_energy": -21.59, 
			 "cosmo_repulsion_energy": 1.66, 
			 "cosmo_total_nonelectrostatic_energy": 8.96, 
			 "SMD_solvation_energy": 3.98 
		},
		"coords": [
			{
				"x": 0.9914787636,
				"y": -1.589692795,
				"z": 1.1594409549,
				"element": "F" 
			},
			{
				"x": -0.0297392694,
				"y": -1.5267636386,
				"z": 0.2772014725,
				"element": "C" 
			},
			{
				"x": -0.8538297779,
				"y": -2.641584273,
				"z": 0.1851535621,
				"element": "C" 
			},
			{
				"x": -1.9068906845,
				"y": -2.6122828134,
				"z": -0.7248873524,
				"element": "C" 
			},
			{
				"x": -3.058534455,
				"y": -4.1269485,
				"z": -0.8692876022,
				"element": "Br" 
			},
			{
				"x": -2.131126789,
				"y": -1.4928593067,
				"z": -1.5238824252,
				"element": "C" 
			},
			{
				"x": -1.2813780403,
				"y": -0.3954291418,
				"z": -1.4015329186,
				"element": "C" 
			},
			{
				"x": -0.201955342,
				"y": -0.3726362541,
				"z": -0.5008935512,
				"element": "C" 
			},
			{
				"x": 0.6968838126,
				"y": 0.8053999825,
				"z": -0.405871173,
				"element": "C" 
			},
			{
				"x": 1.0626384613,
				"y": 1.5040490269,
				"z": -1.5693225153,
				"element": "C" 
			},
			{
				"x": 1.8774410723,
				"y": 2.6330153805,
				"z": -1.5006720081,
				"element": "C" 
			},
			{
				"x": 2.3454373311,
				"y": 3.0860044166,
				"z": -0.2662771559,
				"element": "C" 
			},
			{
				"x": 1.9943851931,
				"y": 2.3978872115,
				"z": 0.8967252484,
				"element": "C" 
			},
			{
				"x": 1.1811773102,
				"y": 1.2679781588,
				"z": 0.8301518802,
				"element": "C" 
			},
			{
				"x": -0.6587604529,
				"y": -3.5040056937,
				"z": 0.8102743299,
				"element": "H" 
			},
			{
				"x": -2.9593630503,
				"y": -1.4747081366,
				"z": -2.222200725,
				"element": "H" 
			},
			{
				"x": -1.4704876212,
				"y": 0.4853002525,
				"z": -2.0070041624,
				"element": "H" 
			},
			{
				"x": 0.723713581,
				"y": 1.1454661761,
				"z": -2.5368212662,
				"element": "H" 
			},
			{
				"x": 2.1528730234,
				"y": 3.1535309253,
				"z": -2.4134558791,
				"element": "H" 
			},
			{
				"x": 2.9813863993,
				"y": 3.9647304816,
				"z": -0.2111710885,
				"element": "H" 
			},
			{
				"x": 2.3525600044,
				"y": 2.7432099648,
				"z": 1.8623627404,
				"element": "H" 
			},
			{
				"x": 0.9129905303,
				"y": 0.744738576,
				"z": 1.7405696346,
				"element": "H" 
			}
		],
		 "valence_orbital": [ 
			{
				"type": "occ",
				"energy": -0.29212,
				"method": "rhf"
			},
			{
				"type": "occ",
				"energy": -0.27064,
				"method": "rhf"
			},
			{
				"type": "occ",
				"energy": -0.26198,
				"method": "rhf"
			},
			{
				"type": "occ",
				"energy": -0.25492,
				"method": "rhf"
			},
			{
				"type": "occ",
				"energy": -0.22899,
				"method": "rhf"
			},
			{
				"type": "unocc",
				"energy": -0.04048,
				"method": "rhf"
			},
			{
				"type": "unocc",
				"energy": -0.01521,
				"method": "rhf"
			},
			{
				"type": "unocc",
				"energy": -0.00562,
				"method": "rhf"
			},
			{
				"type": "unocc",
				"energy": 0.00144,
				"method": "rhf"
			},
			{
				"type": "unocc",
				"energy": 0.01563,
				"method": "rhf"
			}
		],
		"cosmo_sigma_profile": { 
			"-0.025": 0.0,
			"-0.024": 0.0,
			"-0.023": 0.0,
			"-0.022": 0.0,
			"-0.021": 0.0,
			"-0.02": 0.0,
			"-0.019": 0.0,
			"-0.018": 0.0,
			"-0.017": 0.0,
			"-0.016": 0.0,
			"-0.015": 0.0,
			"-0.014": 0.0,
			"-0.013": 0.0,
			"-0.012": 0.0,
			"-0.011": 0.0,
			"-0.01": 0.0,
			"-0.009": 0.151364838517,
			"-0.008": 1.66977220569,
			"-0.007": 4.34067813368,
			"-0.006": 11.6559754455,
			"-0.005": 15.5934565301,
			"-0.004": 18.2182477218,
			"-0.003": 15.0272963171,
			"-0.002": 14.4730984085,
			"-0.001": 14.6223262775,
			"0.0": 18.1525492357,
			"0.001": 25.8939724989,
			"0.002": 27.7510238089,
			"0.003": 24.0989296706,
			"0.004": 27.1736130993,
			"0.005": 14.7313172151,
			"0.006": 2.70266072105,
			"0.007": 0.0,
			"0.008": 0.0,
			"0.009": 0.0,
			"0.01": 0.0,
			"0.011": 0.0,
			"0.012": 0.0,
			"0.013": 0.0,
			"0.014": 0.0,
			"0.015": 0.0,
			"0.016": 0.0,
			"0.017": 0.0,
			"0.018": 0.0,
			"0.019": 0.0,
			"0.02": 0.0,
			"0.021": 0.0,
			"0.022": 0.0,
			"0.023": 0.0,
			"0.024": 0.0,
			"0.025": 0.0
		}
	}
}
