{
	 "smiles": "OC(=O)C1=C2N=CNC2=CC(F)=C1", 
	 "Tm": 613.15, 
	 "num_atms": 18, 
	 "gaussian": { 
		 "optdone": 1, 
		 "sigma_profile": "yes", 
		 "theory": "DFT", 
		 "functional": "B3LYP", 
		 "basiset": "6-31G**", 
		 "properties": { 
			 "R2extent": 2593.9171, 
			 "electric_dipole_moment_norm": 5.23878688534, 
			 "electric_quadrupole_moment_norm": 7.57244013512, 
			 "total_energy": -667.667517029, 
			 "HOMO_LUMO_gap": 0.17723, 
			 "cosmo_polarized_energy": -20.12, 
			 "cosmo_cavitation_energy": 23.77, 
			 "cosmo_dispersion_energy": -17.77, 
			 "cosmo_repulsion_energy": 1.37, 
			 "cosmo_total_nonelectrostatic_energy": 7.37, 
			 "SMD_solvation_energy": 4.64 
		},
		"coords": [
			{
				"x": 2.1560457063,
				"y": 3.0500948821,
				"z": 1.1270347007,
				"element": "O" 
			},
			{
				"x": 1.5838296947,
				"y": 2.7525245578,
				"z": -0.0553721446,
				"element": "C" 
			},
			{
				"x": 1.533352452,
				"y": 3.5511018816,
				"z": -0.9730189694,
				"element": "O" 
			},
			{
				"x": 1.026367203,
				"y": 1.3716865677,
				"z": -0.1315109119,
				"element": "C" 
			},
			{
				"x": 1.0609634264,
				"y": 0.4111197924,
				"z": 0.9044906299,
				"element": "C" 
			},
			{
				"x": 1.5811849352,
				"y": 0.4681429649,
				"z": 2.1894976795,
				"element": "N" 
			},
			{
				"x": 1.3329111157,
				"y": -0.7056946213,
				"z": 2.7065206689,
				"element": "C" 
			},
			{
				"x": 0.6740979124,
				"y": -1.5592283327,
				"z": 1.8498558235,
				"element": "N" 
			},
			{
				"x": 0.4818383586,
				"y": -0.86647845,
				"z": 0.6710297988,
				"element": "C" 
			},
			{
				"x": -0.1241557014,
				"y": -1.2327997292,
				"z": -0.5300991619,
				"element": "C" 
			},
			{
				"x": -0.1324002265,
				"y": -0.255317938,
				"z": -1.5150491405,
				"element": "C" 
			},
			{
				"x": -0.7043740854,
				"y": -0.546799104,
				"z": -2.702452941,
				"element": "F" 
			},
			{
				"x": 0.4212037512,
				"y": 1.0141818844,
				"z": -1.3392347189,
				"element": "C" 
			},
			{
				"x": 2.4715431315,
				"y": 3.965156657,
				"z": 1.0383346653,
				"element": "H" 
			},
			{
				"x": 1.6036567472,
				"y": -1.0138435277,
				"z": 3.7083266575,
				"element": "H" 
			},
			{
				"x": 0.3891524188,
				"y": -2.5060988237,
				"z": 2.0459584153,
				"element": "H" 
			},
			{
				"x": -0.5662949009,
				"y": -2.206234659,
				"z": -0.7103622431,
				"element": "H" 
			},
			{
				"x": 0.3842780612,
				"y": 1.7361859978,
				"z": -2.1460488081,
				"element": "H" 
			}
		],
		 "valence_orbital": [ 
			{
				"type": "occ",
				"energy": -0.30948,
				"method": "rhf"
			},
			{
				"type": "occ",
				"energy": -0.27958,
				"method": "rhf"
			},
			{
				"type": "occ",
				"energy": -0.27205,
				"method": "rhf"
			},
			{
				"type": "occ",
				"energy": -0.24764,
				"method": "rhf"
			},
			{
				"type": "occ",
				"energy": -0.23451,
				"method": "rhf"
			},
			{
				"type": "unocc",
				"energy": -0.05728,
				"method": "rhf"
			},
			{
				"type": "unocc",
				"energy": 0.0057,
				"method": "rhf"
			},
			{
				"type": "unocc",
				"energy": 0.03494,
				"method": "rhf"
			},
			{
				"type": "unocc",
				"energy": 0.06237,
				"method": "rhf"
			},
			{
				"type": "unocc",
				"energy": 0.06599,
				"method": "rhf"
			}
		],
		"cosmo_sigma_profile": { 
			"-0.025": 0.0,
			"-0.024": 0.0,
			"-0.023": 0.0,
			"-0.022": 0.0,
			"-0.021": 0.0,
			"-0.02": 0.0,
			"-0.019": 0.0597325179451,
			"-0.018": 0.89934190307,
			"-0.017": 2.35388822277,
			"-0.016": 3.38269790441,
			"-0.015": 1.54890168992,
			"-0.014": 1.87214425947,
			"-0.013": 2.08788706535,
			"-0.012": 2.4080152665,
			"-0.011": 2.45583724922,
			"-0.01": 4.06792082868,
			"-0.009": 5.3199158776,
			"-0.008": 4.63563897789,
			"-0.007": 4.08431493203,
			"-0.006": 5.58904397856,
			"-0.005": 5.13208516826,
			"-0.004": 4.06029697638,
			"-0.003": 6.13281548014,
			"-0.002": 7.39347160572,
			"-0.001": 10.6428623216,
			"0.0": 17.8256413013,
			"0.001": 24.0976205747,
			"0.002": 14.3852470641,
			"0.003": 8.80465342618,
			"0.004": 13.1407273348,
			"0.005": 6.51379492574,
			"0.006": 2.28374241216,
			"0.007": 2.91825450703,
			"0.008": 3.67099104451,
			"0.009": 2.37672541271,
			"0.01": 4.00524681152,
			"0.011": 4.6887327968,
			"0.012": 5.53076127394,
			"0.013": 1.49838214735,
			"0.014": 1.31554046458,
			"0.015": 1.23241163672,
			"0.016": 0.824496373839,
			"0.017": 1.41608728186,
			"0.018": 0.906876853999,
			"0.019": 0.0574725856241,
			"0.02": 0.0,
			"0.021": 0.0,
			"0.022": 0.0,
			"0.023": 0.0,
			"0.024": 0.0,
			"0.025": 0.0
		}
	}
}
