{
	 "smiles": "OCC(N1CCNCC1)C1=CC=C(Br)C=C1", 
	 "Tm": 383.15, 
	 "num_atms": 33, 
	 "gaussian": { 
		 "optdone": 1, 
		 "sigma_profile": "yes", 
		 "theory": "DFT", 
		 "functional": "B3LYP", 
		 "basiset": "6-31G**", 
		 "properties": { 
			 "R2extent": 7254.5657, 
			 "electric_dipole_moment_norm": 3.15479135443, 
			 "electric_quadrupole_moment_norm": 12.4677958621, 
			 "total_energy": -3223.60835811, 
			 "HOMO_LUMO_gap": 0.17296, 
			 "cosmo_polarized_energy": -12.86, 
			 "cosmo_cavitation_energy": 35.24, 
			 "cosmo_dispersion_energy": -25.38, 
			 "cosmo_repulsion_energy": 2.0, 
			 "cosmo_total_nonelectrostatic_energy": 11.86, 
			 "SMD_solvation_energy": 0.35 
		},
		"coords": [
			{
				"x": -2.089377328,
				"y": 0.0416061868,
				"z": -1.9122163386,
				"element": "O" 
			},
			{
				"x": -0.7375923863,
				"y": -0.3726946342,
				"z": -1.7830404404,
				"element": "C" 
			},
			{
				"x": -0.0261418277,
				"y": 0.5823696854,
				"z": -0.8131963769,
				"element": "C" 
			},
			{
				"x": 1.3941966957,
				"y": 0.215575329,
				"z": -0.7513785341,
				"element": "N" 
			},
			{
				"x": 1.782726184,
				"y": -1.008208377,
				"z": -0.039243071,
				"element": "C" 
			},
			{
				"x": 2.834042031,
				"y": -0.7297436412,
				"z": 1.0669759765,
				"element": "C" 
			},
			{
				"x": 2.6265905505,
				"y": 0.5507570372,
				"z": 1.7374248128,
				"element": "N" 
			},
			{
				"x": 2.7681229765,
				"y": 1.6690303946,
				"z": 0.7935247226,
				"element": "C" 
			},
			{
				"x": 2.389923483,
				"y": 1.2760583157,
				"z": -0.6640824115,
				"element": "C" 
			},
			{
				"x": -0.744430171,
				"y": 0.7276549084,
				"z": 0.5338058855,
				"element": "C" 
			},
			{
				"x": -0.7428857766,
				"y": 1.9695428197,
				"z": 1.1856733452,
				"element": "C" 
			},
			{
				"x": -1.3344819083,
				"y": 2.1450357834,
				"z": 2.4366288949,
				"element": "C" 
			},
			{
				"x": -1.9511897694,
				"y": 1.0562554448,
				"z": 3.0502245706,
				"element": "C" 
			},
			{
				"x": -2.7676464544,
				"y": 1.2765280042,
				"z": 4.7654185757,
				"element": "Br" 
			},
			{
				"x": -1.9925635729,
				"y": -0.1863383415,
				"z": 2.4228942542,
				"element": "C" 
			},
			{
				"x": -1.3961090433,
				"y": -0.3386921634,
				"z": 1.1699445206,
				"element": "C" 
			},
			{
				"x": -2.5249383986,
				"y": -0.5419059435,
				"z": -2.5451321613,
				"element": "H" 
			},
			{
				"x": -0.6657832709,
				"y": -1.4108135317,
				"z": -1.4195799101,
				"element": "H" 
			},
			{
				"x": -0.1952790306,
				"y": -0.3277741034,
				"z": -2.7379348221,
				"element": "H" 
			},
			{
				"x": -0.0595338315,
				"y": 1.5687926993,
				"z": -1.289420031,
				"element": "H" 
			},
			{
				"x": 0.8963635703,
				"y": -1.4448857951,
				"z": 0.4325609484,
				"element": "H" 
			},
			{
				"x": 2.1731229205,
				"y": -1.7668271146,
				"z": -0.7390341863,
				"element": "H" 
			},
			{
				"x": 2.8140263436,
				"y": -1.5389081046,
				"z": 1.8053415358,
				"element": "H" 
			},
			{
				"x": 3.8448151586,
				"y": -0.7262919541,
				"z": 0.6398257294,
				"element": "H" 
			},
			{
				"x": 1.6878439716,
				"y": 0.5666144198,
				"z": 2.1276721812,
				"element": "H" 
			},
			{
				"x": 2.1450222463,
				"y": 2.4940708093,
				"z": 1.1518065054,
				"element": "H" 
			},
			{
				"x": 3.8075303042,
				"y": 2.0292954321,
				"z": 0.8060964095,
				"element": "H" 
			},
			{
				"x": 3.2950578154,
				"y": 0.931757304,
				"z": -1.1851815954,
				"element": "H" 
			},
			{
				"x": 2.0348659788,
				"y": 2.1484458598,
				"z": -1.2225895185,
				"element": "H" 
			},
			{
				"x": -0.2794528034,
				"y": 2.8259435646,
				"z": 0.7020742032,
				"element": "H" 
			},
			{
				"x": -1.3252628622,
				"y": 3.1141016845,
				"z": 2.9226961202,
				"element": "H" 
			},
			{
				"x": -2.4921067004,
				"y": -1.0216945882,
				"z": 2.9005786098,
				"element": "H" 
			},
			{
				"x": -1.4683750947,
				"y": -1.3043573901,
				"z": 0.6800615954,
				"element": "H" 
			}
		],
		 "valence_orbital": [ 
			{
				"type": "occ",
				"energy": -0.27257,
				"method": "rhf"
			},
			{
				"type": "occ",
				"energy": -0.26156,
				"method": "rhf"
			},
			{
				"type": "occ",
				"energy": -0.23991,
				"method": "rhf"
			},
			{
				"type": "occ",
				"energy": -0.22905,
				"method": "rhf"
			},
			{
				"type": "occ",
				"energy": -0.18874,
				"method": "rhf"
			},
			{
				"type": "unocc",
				"energy": -0.01578,
				"method": "rhf"
			},
			{
				"type": "unocc",
				"energy": -0.01414,
				"method": "rhf"
			},
			{
				"type": "unocc",
				"energy": 0.00903,
				"method": "rhf"
			},
			{
				"type": "unocc",
				"energy": 0.07006,
				"method": "rhf"
			},
			{
				"type": "unocc",
				"energy": 0.0749,
				"method": "rhf"
			}
		],
		"cosmo_sigma_profile": { 
			"-0.025": 0.0,
			"-0.024": 0.0,
			"-0.023": 0.0,
			"-0.022": 0.0,
			"-0.021": 0.0,
			"-0.02": 0.0,
			"-0.019": 0.0,
			"-0.018": 0.0,
			"-0.017": 0.0,
			"-0.016": 0.264847592982,
			"-0.015": 1.17702782065,
			"-0.014": 1.08100929425,
			"-0.013": 0.808699785058,
			"-0.012": 1.01480683945,
			"-0.011": 0.93733311644,
			"-0.01": 0.670544193486,
			"-0.009": 0.624281402538,
			"-0.008": 0.582646352573,
			"-0.007": 3.80765131928,
			"-0.006": 10.9286922479,
			"-0.005": 16.871463861,
			"-0.004": 18.6464769182,
			"-0.003": 30.3544376966,
			"-0.002": 31.8607292728,
			"-0.001": 29.9582523856,
			"0.0": 22.4029897526,
			"0.001": 13.91891762,
			"0.002": 18.1574157421,
			"0.003": 16.4424175151,
			"0.004": 16.7633516554,
			"0.005": 13.2615061795,
			"0.006": 4.09652048861,
			"0.007": 2.95034871044,
			"0.008": 2.97391424001,
			"0.009": 3.35331023157,
			"0.01": 2.89593758152,
			"0.011": 2.3617381925,
			"0.012": 2.39053615261,
			"0.013": 2.32397543846,
			"0.014": 2.27258231441,
			"0.015": 0.551918525174,
			"0.016": 0.616796205103,
			"0.017": 0.582878557525,
			"0.018": 0.481871252447,
			"0.019": 0.390001202093,
			"0.02": 0.0,
			"0.021": 0.0,
			"0.022": 0.0,
			"0.023": 0.0,
			"0.024": 0.0,
			"0.025": 0.0
		}
	}
}
