{
	 "smiles": "OC1=CC(=O)C2=C(C=CC=C2)C1=O", 
	 "Tm": 466.15, 
	 "num_atms": 19, 
	 "gaussian": { 
		 "optdone": 1, 
		 "sigma_profile": "yes", 
		 "theory": "DFT", 
		 "functional": "B3LYP", 
		 "basiset": "6-31G**", 
		 "properties": { 
			 "R2extent": 3063.6909, 
			 "electric_dipole_moment_norm": 3.01579260726, 
			 "electric_quadrupole_moment_norm": 10.4493854834, 
			 "total_energy": -610.347985045, 
			 "HOMO_LUMO_gap": 0.14038, 
			 "cosmo_polarized_energy": -10.01, 
			 "cosmo_cavitation_energy": 23.84, 
			 "cosmo_dispersion_energy": -17.95, 
			 "cosmo_repulsion_energy": 1.38, 
			 "cosmo_total_nonelectrostatic_energy": 7.27, 
			 "SMD_solvation_energy": 5.47 
		},
		"coords": [
			{
				"x": 0.7302759155,
				"y": -4.3094131861,
				"z": 0.2808823108,
				"element": "O" 
			},
			{
				"x": 0.2641200968,
				"y": -3.1593653317,
				"z": 0.7755979241,
				"element": "C" 
			},
			{
				"x": -0.8590119971,
				"y": -3.0551597156,
				"z": 1.5233729567,
				"element": "C" 
			},
			{
				"x": -1.3124218441,
				"y": -1.7593141145,
				"z": 2.0341428363,
				"element": "C" 
			},
			{
				"x": -2.3308053948,
				"y": -1.6566432631,
				"z": 2.7130308719,
				"element": "O" 
			},
			{
				"x": -0.4907997405,
				"y": -0.5433744909,
				"z": 1.701879226,
				"element": "C" 
			},
			{
				"x": 0.6793384098,
				"y": -0.6469553269,
				"z": 0.9236476978,
				"element": "C" 
			},
			{
				"x": 1.4330818655,
				"y": 0.4937686198,
				"z": 0.6231210566,
				"element": "C" 
			},
			{
				"x": 1.0220302296,
				"y": 1.7377805748,
				"z": 1.0972936865,
				"element": "C" 
			},
			{
				"x": -0.1394230434,
				"y": 1.8426908247,
				"z": 1.870078314,
				"element": "C" 
			},
			{
				"x": -0.893196598,
				"y": 0.7070208368,
				"z": 2.1714753443,
				"element": "C" 
			},
			{
				"x": 1.1043662853,
				"y": -1.9666563875,
				"z": 0.4278242439,
				"element": "C" 
			},
			{
				"x": 2.1075689044,
				"y": -2.1651085078,
				"z": -0.2577993509,
				"element": "O" 
			},
			{
				"x": 1.5448430008,
				"y": -4.0659709517,
				"z": -0.2082622144,
				"element": "H" 
			},
			{
				"x": -1.4582778986,
				"y": -3.9250315441,
				"z": 1.7681778009,
				"element": "H" 
			},
			{
				"x": 2.3296000351,
				"y": 0.3840858654,
				"z": 0.0218605928,
				"element": "H" 
			},
			{
				"x": 1.6037090851,
				"y": 2.6250581422,
				"z": 0.8665532016,
				"element": "H" 
			},
			{
				"x": -0.4573509654,
				"y": 2.8137379165,
				"z": 2.2383185426,
				"element": "H" 
			},
			{
				"x": -1.7969463457,
				"y": 0.7645500396,
				"z": 2.7688049584,
				"element": "H" 
			}
		],
		 "valence_orbital": [ 
			{
				"type": "occ",
				"energy": -0.29546,
				"method": "rhf"
			},
			{
				"type": "occ",
				"energy": -0.28404,
				"method": "rhf"
			},
			{
				"type": "occ",
				"energy": -0.27577,
				"method": "rhf"
			},
			{
				"type": "occ",
				"energy": -0.26136,
				"method": "rhf"
			},
			{
				"type": "occ",
				"energy": -0.25719,
				"method": "rhf"
			},
			{
				"type": "unocc",
				"energy": -0.11681,
				"method": "rhf"
			},
			{
				"type": "unocc",
				"energy": -0.04633,
				"method": "rhf"
			},
			{
				"type": "unocc",
				"energy": -0.01852,
				"method": "rhf"
			},
			{
				"type": "unocc",
				"energy": 0.03764,
				"method": "rhf"
			},
			{
				"type": "unocc",
				"energy": 0.08508,
				"method": "rhf"
			}
		],
		"cosmo_sigma_profile": { 
			"-0.025": 0.0,
			"-0.024": 0.0,
			"-0.023": 0.0,
			"-0.022": 0.0,
			"-0.021": 0.0,
			"-0.02": 0.0,
			"-0.019": 0.0,
			"-0.018": 0.0,
			"-0.017": 0.0,
			"-0.016": 0.0,
			"-0.015": 0.131551188413,
			"-0.014": 0.556641924345,
			"-0.013": 0.579616855128,
			"-0.012": 0.782228447968,
			"-0.011": 0.597695562452,
			"-0.01": 0.877615658543,
			"-0.009": 0.547409886537,
			"-0.008": 1.9761013957,
			"-0.007": 9.72436208523,
			"-0.006": 14.7242920121,
			"-0.005": 14.0610185573,
			"-0.004": 10.9500280551,
			"-0.003": 11.019263368,
			"-0.002": 11.1094921902,
			"-0.001": 13.9961389292,
			"0.0": 16.7657476125,
			"0.001": 20.3659090722,
			"0.002": 16.62881407,
			"0.003": 5.86478052811,
			"0.004": 4.76410581866,
			"0.005": 4.53579896987,
			"0.006": 3.77480335845,
			"0.007": 3.93809271936,
			"0.008": 5.81020340572,
			"0.009": 5.77936561551,
			"0.01": 4.57576857963,
			"0.011": 3.58999029631,
			"0.012": 3.59995430329,
			"0.013": 0.910445771591,
			"0.014": 0.0107370936303,
			"0.015": 0.0,
			"0.016": 0.0,
			"0.017": 0.0,
			"0.018": 0.0,
			"0.019": 0.0,
			"0.02": 0.0,
			"0.021": 0.0,
			"0.022": 0.0,
			"0.023": 0.0,
			"0.024": 0.0,
			"0.025": 0.0
		}
	}
}
