{
	 "smiles": "CC1=NC(S)=NC(N)=C1", 
	 "Tm": 569.15, 
	 "num_atms": 16, 
	 "gaussian": { 
		 "optdone": 1, 
		 "sigma_profile": "yes", 
		 "theory": "DFT", 
		 "functional": "B3LYP", 
		 "basiset": "6-31G**", 
		 "properties": { 
			 "R2extent": 2241.6417, 
			 "electric_dipole_moment_norm": 3.93310742416, 
			 "electric_quadrupole_moment_norm": 12.4786474824, 
			 "total_energy": -757.211467868, 
			 "HOMO_LUMO_gap": 0.20461, 
			 "cosmo_polarized_energy": -12.3, 
			 "cosmo_cavitation_energy": 21.89, 
			 "cosmo_dispersion_energy": -17.03, 
			 "cosmo_repulsion_energy": 1.38, 
			 "cosmo_total_nonelectrostatic_energy": 6.24, 
			 "SMD_solvation_energy": 0.73 
		},
		"coords": [
			{
				"x": 0.7128581608,
				"y": -1.7203383218,
				"z": 1.1280732899,
				"element": "C" 
			},
			{
				"x": -0.2822346108,
				"y": -1.0295215452,
				"z": 0.2306888583,
				"element": "C" 
			},
			{
				"x": -0.5698408004,
				"y": -1.6412437368,
				"z": -0.937262642,
				"element": "N" 
			},
			{
				"x": -1.4541608465,
				"y": -1.0109092861,
				"z": -1.7145370126,
				"element": "C" 
			},
			{
				"x": -1.8769889932,
				"y": -1.7654800996,
				"z": -3.2741314954,
				"element": "S" 
			},
			{
				"x": -2.0800873594,
				"y": 0.1412925425,
				"z": -1.4816321099,
				"element": "N" 
			},
			{
				"x": -1.7900097936,
				"y": 0.7403646532,
				"z": -0.3132253424,
				"element": "C" 
			},
			{
				"x": -2.4581697195,
				"y": 1.9026370513,
				"z": -0.0482481085,
				"element": "N" 
			},
			{
				"x": -0.8725727347,
				"y": 0.1755261354,
				"z": 0.5932139525,
				"element": "C" 
			},
			{
				"x": 0.2563580611,
				"y": -1.9825914865,
				"z": 2.088957058,
				"element": "H" 
			},
			{
				"x": 1.5679940542,
				"y": -1.0695796837,
				"z": 1.3410847396,
				"element": "H" 
			},
			{
				"x": 1.0716236263,
				"y": -2.6316307652,
				"z": 0.6479596344,
				"element": "H" 
			},
			{
				"x": -1.0651802557,
				"y": -2.8265620619,
				"z": -3.1066761851,
				"element": "H" 
			},
			{
				"x": -2.9528038925,
				"y": 2.3171619415,
				"z": -0.8238408299,
				"element": "H" 
			},
			{
				"x": -2.1070649874,
				"y": 2.5243738614,
				"z": 0.6618647116,
				"element": "H" 
			},
			{
				"x": -0.6405199087,
				"y": 0.6579008016,
				"z": 1.5372114815,
				"element": "H" 
			}
		],
		 "valence_orbital": [ 
			{
				"type": "occ",
				"energy": -0.29464,
				"method": "rhf"
			},
			{
				"type": "occ",
				"energy": -0.29376,
				"method": "rhf"
			},
			{
				"type": "occ",
				"energy": -0.25128,
				"method": "rhf"
			},
			{
				"type": "occ",
				"energy": -0.24902,
				"method": "rhf"
			},
			{
				"type": "occ",
				"energy": -0.22415,
				"method": "rhf"
			},
			{
				"type": "unocc",
				"energy": -0.01954,
				"method": "rhf"
			},
			{
				"type": "unocc",
				"energy": -0.00307,
				"method": "rhf"
			},
			{
				"type": "unocc",
				"energy": 0.0329,
				"method": "rhf"
			},
			{
				"type": "unocc",
				"energy": 0.07572,
				"method": "rhf"
			},
			{
				"type": "unocc",
				"energy": 0.09269,
				"method": "rhf"
			}
		],
		"cosmo_sigma_profile": { 
			"-0.025": 0.0,
			"-0.024": 0.0,
			"-0.023": 0.0,
			"-0.022": 0.0,
			"-0.021": 0.0,
			"-0.02": 0.0,
			"-0.019": 0.0,
			"-0.018": 0.0,
			"-0.017": 0.0,
			"-0.016": 0.0,
			"-0.015": 0.152748096254,
			"-0.014": 1.61096528379,
			"-0.013": 2.56539723487,
			"-0.012": 1.99931233689,
			"-0.011": 2.98162767971,
			"-0.01": 4.12605795301,
			"-0.009": 3.33832654159,
			"-0.008": 3.69714642281,
			"-0.007": 4.14495371608,
			"-0.006": 4.32529370547,
			"-0.005": 7.40171357755,
			"-0.004": 8.85177929486,
			"-0.003": 11.1699473907,
			"-0.002": 9.57619724117,
			"-0.001": 11.0329521846,
			"0.0": 12.7330357145,
			"0.001": 14.1616882539,
			"0.002": 11.7749203456,
			"0.003": 11.2630456946,
			"0.004": 9.90107159265,
			"0.005": 9.91572395429,
			"0.006": 7.24241111135,
			"0.007": 7.21691238526,
			"0.008": 4.84185621949,
			"0.009": 2.58740014066,
			"0.01": 2.2859011527,
			"0.011": 2.409215659,
			"0.012": 1.73505389165,
			"0.013": 1.22257258664,
			"0.014": 0.14559717038,
			"0.015": 0.0,
			"0.016": 0.0,
			"0.017": 0.0,
			"0.018": 0.0,
			"0.019": 0.0,
			"0.02": 0.0,
			"0.021": 0.0,
			"0.022": 0.0,
			"0.023": 0.0,
			"0.024": 0.0,
			"0.025": 0.0
		}
	}
}
