{
	 "smiles": "SC1=NC2=C(C=CC=C2)N1CCC#N", 
	 "Tm": 429.15, 
	 "num_atms": 23, 
	 "gaussian": { 
		 "optdone": 1, 
		 "sigma_profile": "yes", 
		 "theory": "DFT", 
		 "functional": "B3LYP", 
		 "basiset": "6-31G**", 
		 "properties": { 
			 "R2extent": 4283.8264, 
			 "electric_dipole_moment_norm": 1.70814913283, 
			 "electric_quadrupole_moment_norm": 22.4494093194, 
			 "total_energy": -948.917387302, 
			 "HOMO_LUMO_gap": 0.19944, 
			 "cosmo_polarized_energy": -16.4, 
			 "cosmo_cavitation_energy": 29.94, 
			 "cosmo_dispersion_energy": -21.29, 
			 "cosmo_repulsion_energy": 1.62, 
			 "cosmo_total_nonelectrostatic_energy": 10.27, 
			 "SMD_solvation_energy": 3.86 
		},
		"coords": [
			{
				"x": 1.7867495994,
				"y": 3.5254340074,
				"z": 1.1919955043,
				"element": "S" 
			},
			{
				"x": 1.0630982289,
				"y": 2.0930547108,
				"z": 0.4420361027,
				"element": "C" 
			},
			{
				"x": 0.1052300593,
				"y": 2.1116714544,
				"z": -0.4466233985,
				"element": "N" 
			},
			{
				"x": -0.1344655489,
				"y": 0.7714587405,
				"z": -0.731537457,
				"element": "C" 
			},
			{
				"x": 0.7236918551,
				"y": -0.0554065732,
				"z": 0.0287248295,
				"element": "C" 
			},
			{
				"x": 0.698045727,
				"y": -1.4474606679,
				"z": -0.0571536209,
				"element": "C" 
			},
			{
				"x": -0.2256206367,
				"y": -2.0025202928,
				"z": -0.9430474087,
				"element": "C" 
			},
			{
				"x": -1.0865913337,
				"y": -1.1941646659,
				"z": -1.7088426145,
				"element": "C" 
			},
			{
				"x": -1.0529070865,
				"y": 0.1951136526,
				"z": -1.6155992006,
				"element": "C" 
			},
			{
				"x": 1.5047261011,
				"y": 0.8239017657,
				"z": 0.7795950413,
				"element": "N" 
			},
			{
				"x": 2.4928584897,
				"y": 0.4593251045,
				"z": 1.7749951951,
				"element": "C" 
			},
			{
				"x": 1.8483657176,
				"y": 0.2033846393,
				"z": 3.1599567668,
				"element": "C" 
			},
			{
				"x": 2.8414986467,
				"y": -0.2198705964,
				"z": 4.1481443898,
				"element": "C" 
			},
			{
				"x": 3.6508727496,
				"y": -0.5557276499,
				"z": 4.9089666303,
				"element": "N" 
			},
			{
				"x": 1.0147417017,
				"y": 4.3684248427,
				"z": 0.4829154182,
				"element": "H" 
			},
			{
				"x": 1.3601398338,
				"y": -2.0779638685,
				"z": 0.5289122049,
				"element": "H" 
			},
			{
				"x": -0.2803971127,
				"y": -3.0823124592,
				"z": -1.0423834471,
				"element": "H" 
			},
			{
				"x": -1.7909852527,
				"y": -1.6673474305,
				"z": -2.386285722,
				"element": "H" 
			},
			{
				"x": -1.7128572631,
				"y": 0.8236017349,
				"z": -2.2043560935,
				"element": "H" 
			},
			{
				"x": 3.2384310889,
				"y": 1.2555026222,
				"z": 1.8484835113,
				"element": "H" 
			},
			{
				"x": 3.0151646679,
				"y": -0.438126484,
				"z": 1.4325580258,
				"element": "H" 
			},
			{
				"x": 1.0781112857,
				"y": -0.5704511108,
				"z": 3.0711438176,
				"element": "H" 
			},
			{
				"x": 1.3549984818,
				"y": 1.1149785243,
				"z": 3.5143015253,
				"element": "H" 
			}
		],
		 "valence_orbital": [ 
			{
				"type": "occ",
				"energy": -0.31199,
				"method": "rhf"
			},
			{
				"type": "occ",
				"energy": -0.29287,
				"method": "rhf"
			},
			{
				"type": "occ",
				"energy": -0.28597,
				"method": "rhf"
			},
			{
				"type": "occ",
				"energy": -0.2364,
				"method": "rhf"
			},
			{
				"type": "occ",
				"energy": -0.22381,
				"method": "rhf"
			},
			{
				"type": "unocc",
				"energy": -0.02437,
				"method": "rhf"
			},
			{
				"type": "unocc",
				"energy": -0.00652,
				"method": "rhf"
			},
			{
				"type": "unocc",
				"energy": 0.00567,
				"method": "rhf"
			},
			{
				"type": "unocc",
				"energy": 0.02024,
				"method": "rhf"
			},
			{
				"type": "unocc",
				"energy": 0.02513,
				"method": "rhf"
			}
		],
		"cosmo_sigma_profile": { 
			"-0.025": 0.0,
			"-0.024": 0.0,
			"-0.023": 0.0,
			"-0.022": 0.0,
			"-0.021": 0.0,
			"-0.02": 0.0,
			"-0.019": 0.0,
			"-0.018": 0.0,
			"-0.017": 0.0,
			"-0.016": 0.0,
			"-0.015": 0.0,
			"-0.014": 0.0,
			"-0.013": 0.0623410190022,
			"-0.012": 1.19171105017,
			"-0.011": 1.50002559363,
			"-0.01": 1.4647174457,
			"-0.009": 4.46716219665,
			"-0.008": 13.2455855094,
			"-0.007": 13.0345716661,
			"-0.006": 17.3821485045,
			"-0.005": 17.8111399943,
			"-0.004": 13.3340113063,
			"-0.003": 13.9711895546,
			"-0.002": 10.2822325721,
			"-0.001": 11.1468182903,
			"0.0": 10.9997913404,
			"0.001": 12.4346542625,
			"0.002": 14.7889461441,
			"0.003": 12.949471081,
			"0.004": 14.8257268945,
			"0.005": 15.1918844362,
			"0.006": 12.4686832062,
			"0.007": 4.44263349296,
			"0.008": 5.02350888523,
			"0.009": 4.59016389111,
			"0.01": 5.06009219538,
			"0.011": 3.00534746922,
			"0.012": 3.08195808329,
			"0.013": 2.935668778,
			"0.014": 0.753853371875,
			"0.015": 0.953082528749,
			"0.016": 0.656699798606,
			"0.017": 0.0980290819759,
			"0.018": 0.0,
			"0.019": 0.0,
			"0.02": 0.0,
			"0.021": 0.0,
			"0.022": 0.0,
			"0.023": 0.0,
			"0.024": 0.0,
			"0.025": 0.0
		}
	}
}
