{
	 "smiles": "CC(C)(C)OC(=O)NC(C)(C)CC(O)=O", 
	 "Tm": 363.15, 
	 "num_atms": 34, 
	 "gaussian": { 
		 "optdone": 1, 
		 "sigma_profile": "yes", 
		 "theory": "DFT", 
		 "functional": "B3LYP", 
		 "basiset": "6-31G**", 
		 "properties": { 
			 "R2extent": 4177.0599, 
			 "electric_dipole_moment_norm": 2.35263538611, 
			 "electric_quadrupole_moment_norm": 21.5672167432, 
			 "total_energy": -748.217753287, 
			 "HOMO_LUMO_gap": 0.25747, 
			 "cosmo_polarized_energy": -18.09, 
			 "cosmo_cavitation_energy": 35.19, 
			 "cosmo_dispersion_energy": -23.49, 
			 "cosmo_repulsion_energy": 1.85, 
			 "cosmo_total_nonelectrostatic_energy": 13.55, 
			 "SMD_solvation_energy": 8.13 
		},
		"coords": [
			{
				"x": -2.2854257838,
				"y": -1.5861472768,
				"z": 0.5327908502,
				"element": "C" 
			},
			{
				"x": -1.8882199931,
				"y": -0.7190551226,
				"z": -0.6649029828,
				"element": "C" 
			},
			{
				"x": -2.6539908589,
				"y": 0.6082119395,
				"z": -0.6507129025,
				"element": "C" 
			},
			{
				"x": -2.0817270085,
				"y": -1.4881901364,
				"z": -1.9759577233,
				"element": "C" 
			},
			{
				"x": -0.4527007847,
				"y": -0.4764519749,
				"z": -0.4274067696,
				"element": "O" 
			},
			{
				"x": 0.276829729,
				"y": 0.259840213,
				"z": -1.3058879603,
				"element": "C" 
			},
			{
				"x": -0.157281533,
				"y": 0.7989924121,
				"z": -2.3122965738,
				"element": "O" 
			},
			{
				"x": 1.5890694808,
				"y": 0.365079585,
				"z": -0.9262418126,
				"element": "N" 
			},
			{
				"x": 2.3538198587,
				"y": -0.3216357316,
				"z": 0.1402902464,
				"element": "C" 
			},
			{
				"x": 2.2816622235,
				"y": -1.8509858686,
				"z": -0.0221941662,
				"element": "C" 
			},
			{
				"x": 3.8073384867,
				"y": 0.1558715948,
				"z": -0.0198649497,
				"element": "C" 
			},
			{
				"x": 1.7848933312,
				"y": 0.139171735,
				"z": 1.5069281659,
				"element": "C" 
			},
			{
				"x": 2.4740286618,
				"y": -0.3897868508,
				"z": 2.7580734797,
				"element": "C" 
			},
			{
				"x": 1.9094898635,
				"y": 0.0332958419,
				"z": 3.9227540915,
				"element": "O" 
			},
			{
				"x": 3.4380757642,
				"y": -1.115148785,
				"z": 2.8003698765,
				"element": "O" 
			},
			{
				"x": -3.3467413024,
				"y": -1.8442653615,
				"z": 0.471727853,
				"element": "H" 
			},
			{
				"x": -2.1172759942,
				"y": -1.0529659565,
				"z": 1.4736393561,
				"element": "H" 
			},
			{
				"x": -1.7060497016,
				"y": -2.5138282822,
				"z": 0.5517527949,
				"element": "H" 
			},
			{
				"x": -2.3592059754,
				"y": 1.2367876969,
				"z": -1.4907344287,
				"element": "H" 
			},
			{
				"x": -3.7292957716,
				"y": 0.4116670325,
				"z": -0.7126194371,
				"element": "H" 
			},
			{
				"x": -2.4623925618,
				"y": 1.1483927888,
				"z": 0.2822613572,
				"element": "H" 
			},
			{
				"x": -3.1359261425,
				"y": -1.7621227732,
				"z": -2.0870020025,
				"element": "H" 
			},
			{
				"x": -1.7817362841,
				"y": -0.8830705816,
				"z": -2.8312939626,
				"element": "H" 
			},
			{
				"x": -1.4913304432,
				"y": -2.4099413559,
				"z": -1.966912959,
				"element": "H" 
			},
			{
				"x": 2.1254565299,
				"y": 0.8809809811,
				"z": -1.6086124289,
				"element": "H" 
			},
			{
				"x": 2.8832588289,
				"y": -2.3374008864,
				"z": 0.7478017506,
				"element": "H" 
			},
			{
				"x": 2.6692039771,
				"y": -2.1357592852,
				"z": -1.0052635407,
				"element": "H" 
			},
			{
				"x": 1.2511360195,
				"y": -2.2030630564,
				"z": 0.0545444848,
				"element": "H" 
			},
			{
				"x": 4.4344306173,
				"y": -0.2948917383,
				"z": 0.7493570013,
				"element": "H" 
			},
			{
				"x": 4.1967298598,
				"y": -0.1360175609,
				"z": -1.0012426979,
				"element": "H" 
			},
			{
				"x": 3.8737291431,
				"y": 1.2464886591,
				"z": 0.0676185958,
				"element": "H" 
			},
			{
				"x": 1.8177140943,
				"y": 1.2366996837,
				"z": 1.5455441045,
				"element": "H" 
			},
			{
				"x": 0.726441034,
				"y": -0.1385023979,
				"z": 1.557022355,
				"element": "H" 
			},
			{
				"x": 1.1458926355,
				"y": 0.5990508194,
				"z": 3.7391709347,
				"element": "H" 
			}
		],
		 "valence_orbital": [ 
			{
				"type": "occ",
				"energy": -0.31996,
				"method": "rhf"
			},
			{
				"type": "occ",
				"energy": -0.29328,
				"method": "rhf"
			},
			{
				"type": "occ",
				"energy": -0.27679,
				"method": "rhf"
			},
			{
				"type": "occ",
				"energy": -0.26492,
				"method": "rhf"
			},
			{
				"type": "occ",
				"energy": -0.25334,
				"method": "rhf"
			},
			{
				"type": "unocc",
				"energy": 0.00413,
				"method": "rhf"
			},
			{
				"type": "unocc",
				"energy": 0.04647,
				"method": "rhf"
			},
			{
				"type": "unocc",
				"energy": 0.05333,
				"method": "rhf"
			},
			{
				"type": "unocc",
				"energy": 0.07089,
				"method": "rhf"
			},
			{
				"type": "unocc",
				"energy": 0.08294,
				"method": "rhf"
			}
		],
		"cosmo_sigma_profile": { 
			"-0.025": 0.0,
			"-0.024": 0.0,
			"-0.023": 0.0,
			"-0.022": 0.0,
			"-0.021": 0.0,
			"-0.02": 0.0,
			"-0.019": 0.587775317727,
			"-0.018": 0.973179903672,
			"-0.017": 0.721883255467,
			"-0.016": 1.24188632827,
			"-0.015": 1.37856315358,
			"-0.014": 0.87593067785,
			"-0.013": 1.01756321771,
			"-0.012": 2.17307412,
			"-0.011": 2.31401707558,
			"-0.01": 2.1572095983,
			"-0.009": 1.62842005779,
			"-0.008": 2.43138546376,
			"-0.007": 4.42212739334,
			"-0.006": 4.21068879284,
			"-0.005": 6.3938440679,
			"-0.004": 18.4941333276,
			"-0.003": 24.256862337,
			"-0.002": 25.1947385661,
			"-0.001": 28.772349484,
			"0.0": 40.9478962297,
			"0.001": 35.6458261716,
			"0.002": 11.0551982693,
			"0.003": 5.90001682387,
			"0.004": 4.53030441218,
			"0.005": 4.81835394832,
			"0.006": 3.86940673607,
			"0.007": 4.15714906184,
			"0.008": 4.31320844308,
			"0.009": 3.86847081998,
			"0.01": 5.87784041409,
			"0.011": 7.15216415672,
			"0.012": 4.04803825294,
			"0.013": 4.83584449393,
			"0.014": 2.72604104613,
			"0.015": 0.112093173817,
			"0.016": 0.0,
			"0.017": 0.0,
			"0.018": 0.0,
			"0.019": 0.0,
			"0.02": 0.0,
			"0.021": 0.0,
			"0.022": 0.0,
			"0.023": 0.0,
			"0.024": 0.0,
			"0.025": 0.0
		}
	}
}
