{
	 "smiles": "ClCC1=NN=C(O1)C1=CC=C(C=C1)C#N", 
	 "Tm": 417.15, 
	 "num_atms": 21, 
	 "gaussian": { 
		 "optdone": 1, 
		 "sigma_profile": "yes", 
		 "theory": "DFT", 
		 "functional": "B3LYP", 
		 "basiset": "6-31G**", 
		 "properties": { 
			 "R2extent": 5671.6451, 
			 "electric_dipole_moment_norm": 3.43993892533, 
			 "electric_quadrupole_moment_norm": 22.4171947679, 
			 "total_energy": -1084.30744828, 
			 "HOMO_LUMO_gap": 0.17192, 
			 "cosmo_polarized_energy": -15.67, 
			 "cosmo_cavitation_energy": 30.09, 
			 "cosmo_dispersion_energy": -21.45, 
			 "cosmo_repulsion_energy": 1.69, 
			 "cosmo_total_nonelectrostatic_energy": 10.33, 
			 "SMD_solvation_energy": 4.65 
		},
		"coords": [
			{
				"x": -4.1854235916,
				"y": 0.1906932317,
				"z": -2.6980076563,
				"element": "Cl" 
			},
			{
				"x": -3.0708101894,
				"y": -1.1449754703,
				"z": -2.1651887922,
				"element": "C" 
			},
			{
				"x": -2.3363027388,
				"y": -0.7977976107,
				"z": -0.9291119544,
				"element": "C" 
			},
			{
				"x": -2.4741101714,
				"y": -1.3222156818,
				"z": 0.2495031172,
				"element": "N" 
			},
			{
				"x": -1.5612039075,
				"y": -0.6796473736,
				"z": 1.0739171531,
				"element": "N" 
			},
			{
				"x": -0.9393578826,
				"y": 0.1928401226,
				"z": 0.3321767452,
				"element": "C" 
			},
			{
				"x": -1.3787117552,
				"y": 0.1703760651,
				"z": -0.9603035325,
				"element": "O" 
			},
			{
				"x": 0.1097257508,
				"y": 1.1260922206,
				"z": 0.7221671644,
				"element": "C" 
			},
			{
				"x": 0.5665136014,
				"y": 1.1198834332,
				"z": 2.0512173006,
				"element": "C" 
			},
			{
				"x": 1.564473134,
				"y": 1.9987093686,
				"z": 2.447468095,
				"element": "C" 
			},
			{
				"x": 2.1196876792,
				"y": 2.8971519994,
				"z": 1.5179221522,
				"element": "C" 
			},
			{
				"x": 1.6621785651,
				"y": 2.9043124639,
				"z": 0.1893886605,
				"element": "C" 
			},
			{
				"x": 0.6625910601,
				"y": 2.0232722361,
				"z": -0.2049770986,
				"element": "C" 
			},
			{
				"x": 3.1518690219,
				"y": 3.8050813371,
				"z": 1.9252220551,
				"element": "C" 
			},
			{
				"x": 3.989815896,
				"y": 4.5414238668,
				"z": 2.254936791,
				"element": "N" 
			},
			{
				"x": -3.6798120485,
				"y": -2.0263649559,
				"z": -1.9724958348,
				"element": "H" 
			},
			{
				"x": -2.3903627927,
				"y": -1.327727556,
				"z": -2.9976371435,
				"element": "H" 
			},
			{
				"x": 0.1295122063,
				"y": 0.4221656623,
				"z": 2.7568902006,
				"element": "H" 
			},
			{
				"x": 1.9210724373,
				"y": 1.9982499131,
				"z": 3.4716440333,
				"element": "H" 
			},
			{
				"x": 2.0923909287,
				"y": 3.5999587768,
				"z": -0.5226839987,
				"element": "H" 
			},
			{
				"x": 0.3068647971,
				"y": 2.0294179509,
				"z": -1.2292474571,
				"element": "H" 
			}
		],
		 "valence_orbital": [ 
			{
				"type": "occ",
				"energy": -0.31965,
				"method": "rhf"
			},
			{
				"type": "occ",
				"energy": -0.31585,
				"method": "rhf"
			},
			{
				"type": "occ",
				"energy": -0.29976,
				"method": "rhf"
			},
			{
				"type": "occ",
				"energy": -0.2931,
				"method": "rhf"
			},
			{
				"type": "occ",
				"energy": -0.26449,
				"method": "rhf"
			},
			{
				"type": "unocc",
				"energy": -0.09257,
				"method": "rhf"
			},
			{
				"type": "unocc",
				"energy": -0.04505,
				"method": "rhf"
			},
			{
				"type": "unocc",
				"energy": -0.03846,
				"method": "rhf"
			},
			{
				"type": "unocc",
				"energy": 0.00667,
				"method": "rhf"
			},
			{
				"type": "unocc",
				"energy": 0.0252,
				"method": "rhf"
			}
		],
		"cosmo_sigma_profile": { 
			"-0.025": 0.0,
			"-0.024": 0.0,
			"-0.023": 0.0,
			"-0.022": 0.0,
			"-0.021": 0.0,
			"-0.02": 0.0,
			"-0.019": 0.0,
			"-0.018": 0.0,
			"-0.017": 0.0,
			"-0.016": 0.0,
			"-0.015": 0.0,
			"-0.014": 0.0,
			"-0.013": 0.0,
			"-0.012": 0.0,
			"-0.011": 0.454025876496,
			"-0.01": 4.00005321146,
			"-0.009": 5.79617096037,
			"-0.008": 11.8232361973,
			"-0.007": 13.4659890081,
			"-0.006": 12.3144742641,
			"-0.005": 11.0348355175,
			"-0.004": 12.5370403255,
			"-0.003": 14.7313952154,
			"-0.002": 17.20228468,
			"-0.001": 18.2292406219,
			"0.0": 22.6130864467,
			"0.001": 17.1558647583,
			"0.002": 11.2535001098,
			"0.003": 9.58258943591,
			"0.004": 9.11346339315,
			"0.005": 13.8504289402,
			"0.006": 5.85896336419,
			"0.007": 5.18671362426,
			"0.008": 5.2958572233,
			"0.009": 5.56613767266,
			"0.01": 6.6844594965,
			"0.011": 5.02962366926,
			"0.012": 4.54319152895,
			"0.013": 2.70252673755,
			"0.014": 0.606109214956,
			"0.015": 0.0,
			"0.016": 0.0,
			"0.017": 0.0,
			"0.018": 0.0,
			"0.019": 0.0,
			"0.02": 0.0,
			"0.021": 0.0,
			"0.022": 0.0,
			"0.023": 0.0,
			"0.024": 0.0,
			"0.025": 0.0
		}
	}
}
