{
	 "smiles": "CSCCC(NS(=O)(=O)C1=CC=CC=C1)C(O)=O", 
	 "Tm": 377.15, 
	 "num_atms": 33, 
	 "gaussian": { 
		 "optdone": 1, 
		 "sigma_profile": "yes", 
		 "theory": "DFT", 
		 "functional": "B3LYP", 
		 "basiset": "6-31G**", 
		 "properties": { 
			 "R2extent": 8166.6458, 
			 "electric_dipole_moment_norm": 6.33165837992, 
			 "electric_quadrupole_moment_norm": 31.3483181954, 
			 "total_energy": -1580.17494938, 
			 "HOMO_LUMO_gap": 0.15889, 
			 "cosmo_polarized_energy": -23.3, 
			 "cosmo_cavitation_energy": 40.06, 
			 "cosmo_dispersion_energy": -28.07, 
			 "cosmo_repulsion_energy": 2.1, 
			 "cosmo_total_nonelectrostatic_energy": 14.08, 
			 "SMD_solvation_energy": 7.02 
		},
		"coords": [
			{
				"x": 2.4947184129,
				"y": -1.1269944039,
				"z": 4.0491651932,
				"element": "C" 
			},
			{
				"x": 0.6872064021,
				"y": -1.048171933,
				"z": 3.7901531896,
				"element": "S" 
			},
			{
				"x": 0.5803101051,
				"y": -1.4997690909,
				"z": 2.0160174882,
				"element": "C" 
			},
			{
				"x": 0.9461741055,
				"y": -0.3552710522,
				"z": 1.0616294934,
				"element": "C" 
			},
			{
				"x": 0.843002936,
				"y": -0.7448249302,
				"z": -0.4277848367,
				"element": "C" 
			},
			{
				"x": 0.7569070319,
				"y": 0.4177031064,
				"z": -1.3455128807,
				"element": "N" 
			},
			{
				"x": -0.8136137412,
				"y": 1.058914241,
				"z": -1.6654688635,
				"element": "S" 
			},
			{
				"x": -1.7361340119,
				"y": -0.0736039948,
				"z": -1.5557183213,
				"element": "O" 
			},
			{
				"x": -0.9875378485,
				"y": 2.2809955495,
				"z": -0.8749457083,
				"element": "O" 
			},
			{
				"x": -0.6668880529,
				"y": 1.5261837093,
				"z": -3.3883371664,
				"element": "C" 
			},
			{
				"x": -0.4254194386,
				"y": 2.8622696472,
				"z": -3.710465029,
				"element": "C" 
			},
			{
				"x": -0.3105054057,
				"y": 3.217883896,
				"z": -5.0554987862,
				"element": "C" 
			},
			{
				"x": -0.4408966111,
				"y": 2.2475182864,
				"z": -6.0507393135,
				"element": "C" 
			},
			{
				"x": -0.6951054237,
				"y": 0.9151995843,
				"z": -5.7111258666,
				"element": "C" 
			},
			{
				"x": -0.8129554639,
				"y": 0.5448599306,
				"z": -4.3727182533,
				"element": "C" 
			},
			{
				"x": 2.0048592283,
				"y": -1.6478286156,
				"z": -0.8985491915,
				"element": "C" 
			},
			{
				"x": 2.3526760421,
				"y": -1.4952324592,
				"z": -2.1870331222,
				"element": "O" 
			},
			{
				"x": 2.5421604794,
				"y": -2.4551251472,
				"z": -0.1778350876,
				"element": "O" 
			},
			{
				"x": 3.0264775459,
				"y": -0.3743225108,
				"z": 3.4618688141,
				"element": "H" 
			},
			{
				"x": 2.8804067575,
				"y": -2.1210817853,
				"z": 3.8092656115,
				"element": "H" 
			},
			{
				"x": 2.6666870271,
				"y": -0.9259639847,
				"z": 5.1089375171,
				"element": "H" 
			},
			{
				"x": 1.2082127213,
				"y": -2.3728201225,
				"z": 1.8292486768,
				"element": "H" 
			},
			{
				"x": -0.4630891651,
				"y": -1.7949983739,
				"z": 1.8613487442,
				"element": "H" 
			},
			{
				"x": 1.9637077865,
				"y": -0.0039773192,
				"z": 1.2702007438,
				"element": "H" 
			},
			{
				"x": 0.2689007007,
				"y": 0.485855122,
				"z": 1.2411040267,
				"element": "H" 
			},
			{
				"x": -0.0757584248,
				"y": -1.3223513663,
				"z": -0.5896012712,
				"element": "H" 
			},
			{
				"x": 1.3407738618,
				"y": 1.1934299511,
				"z": -1.0321596571,
				"element": "H" 
			},
			{
				"x": -0.3466625217,
				"y": 3.6023560176,
				"z": -2.9217918213,
				"element": "H" 
			},
			{
				"x": -0.1254105061,
				"y": 4.2533919198,
				"z": -5.3236083542,
				"element": "H" 
			},
			{
				"x": -0.3520099193,
				"y": 2.5300214636,
				"z": -7.0954319039,
				"element": "H" 
			},
			{
				"x": -0.8089671445,
				"y": 0.1662354286,
				"z": -6.4886005625,
				"element": "H" 
			},
			{
				"x": -1.0321494737,
				"y": -0.4799824835,
				"z": -4.0924124943,
				"element": "H" 
			},
			{
				"x": 1.8274220087,
				"y": -0.7436982799,
				"z": -2.5282010072,
				"element": "H" 
			}
		],
		 "valence_orbital": [ 
			{
				"type": "occ",
				"energy": -0.30584,
				"method": "rhf"
			},
			{
				"type": "occ",
				"energy": -0.28752,
				"method": "rhf"
			},
			{
				"type": "occ",
				"energy": -0.28564,
				"method": "rhf"
			},
			{
				"type": "occ",
				"energy": -0.26736,
				"method": "rhf"
			},
			{
				"type": "occ",
				"energy": -0.21673,
				"method": "rhf"
			},
			{
				"type": "unocc",
				"energy": -0.05784,
				"method": "rhf"
			},
			{
				"type": "unocc",
				"energy": -0.03743,
				"method": "rhf"
			},
			{
				"type": "unocc",
				"energy": -0.00089,
				"method": "rhf"
			},
			{
				"type": "unocc",
				"energy": 0.03751,
				"method": "rhf"
			},
			{
				"type": "unocc",
				"energy": 0.04361,
				"method": "rhf"
			}
		],
		"cosmo_sigma_profile": { 
			"-0.025": 0.0,
			"-0.024": 0.0,
			"-0.023": 0.0,
			"-0.022": 0.0,
			"-0.021": 0.0,
			"-0.02": 0.0,
			"-0.019": 0.0,
			"-0.018": 0.0,
			"-0.017": 0.0,
			"-0.016": 0.277341360231,
			"-0.015": 1.79544412217,
			"-0.014": 1.29470517335,
			"-0.013": 1.30294317234,
			"-0.012": 1.60748921679,
			"-0.011": 1.82952467932,
			"-0.01": 2.12143193743,
			"-0.009": 4.13124164715,
			"-0.008": 6.37048284364,
			"-0.007": 14.3250747759,
			"-0.006": 20.6902915004,
			"-0.005": 26.6508709545,
			"-0.004": 21.1137603614,
			"-0.003": 19.4833218608,
			"-0.002": 21.5950985589,
			"-0.001": 22.2481858337,
			"0.0": 18.1012767674,
			"0.001": 16.0033429253,
			"0.002": 18.0478647952,
			"0.003": 19.1125282405,
			"0.004": 6.89898570464,
			"0.005": 7.02832494125,
			"0.006": 8.84420171714,
			"0.007": 8.62996047051,
			"0.008": 9.51267582947,
			"0.009": 10.1398376738,
			"0.01": 15.6564676445,
			"0.011": 10.3157080436,
			"0.012": 3.43133295984,
			"0.013": 0.984163649769,
			"0.014": 0.0,
			"0.015": 0.0,
			"0.016": 0.0,
			"0.017": 0.0,
			"0.018": 0.0,
			"0.019": 0.0,
			"0.02": 0.0,
			"0.021": 0.0,
			"0.022": 0.0,
			"0.023": 0.0,
			"0.024": 0.0,
			"0.025": 0.0
		}
	}
}
