{
	 "smiles": "BrC1=CC=CC=C1C1=CC=CC=C1", 
	 "Tm": 274.65, 
	 "num_atms": 22, 
	 "gaussian": { 
		 "optdone": 1, 
		 "sigma_profile": "yes", 
		 "theory": "DFT", 
		 "functional": "B3LYP", 
		 "basiset": "6-31G**", 
		 "properties": { 
			 "R2extent": 4106.3172, 
			 "electric_dipole_moment_norm": 1.61391283841, 
			 "electric_quadrupole_moment_norm": 9.11810703271, 
			 "total_energy": -3034.10772329, 
			 "HOMO_LUMO_gap": 0.22392, 
			 "cosmo_polarized_energy": -5.66, 
			 "cosmo_cavitation_energy": 28.38, 
			 "cosmo_dispersion_energy": -20.48, 
			 "cosmo_repulsion_energy": 1.63, 
			 "cosmo_total_nonelectrostatic_energy": 9.53, 
			 "SMD_solvation_energy": 3.69 
		},
		"coords": [
			{
				"x": 2.5291060397,
				"y": 1.8706580927,
				"z": 0.8790274076,
				"element": "Br" 
			},
			{
				"x": 2.2012013864,
				"y": 0.2427638916,
				"z": 1.8329504219,
				"element": "C" 
			},
			{
				"x": 2.9905380424,
				"y": -0.0252186669,
				"z": 2.9517457517,
				"element": "C" 
			},
			{
				"x": 2.7849731307,
				"y": -1.1991993067,
				"z": 3.6749964814,
				"element": "C" 
			},
			{
				"x": 1.7938405374,
				"y": -2.0965083333,
				"z": 3.2766789266,
				"element": "C" 
			},
			{
				"x": 1.0141398408,
				"y": -1.813414905,
				"z": 2.1565144447,
				"element": "C" 
			},
			{
				"x": 1.1968035509,
				"y": -0.6395992884,
				"z": 1.4072721116,
				"element": "C" 
			},
			{
				"x": 0.3318884121,
				"y": -0.3867428078,
				"z": 0.2144625721,
				"element": "C" 
			},
			{
				"x": -0.8887252634,
				"y": 0.2884463352,
				"z": 0.3511085541,
				"element": "C" 
			},
			{
				"x": -1.7122866225,
				"y": 0.4938462586,
				"z": -0.7564274762,
				"element": "C" 
			},
			{
				"x": -1.3266760348,
				"y": 0.0252646738,
				"z": -2.0136191643,
				"element": "C" 
			},
			{
				"x": -0.1134419249,
				"y": -0.650005096,
				"z": -2.1580959906,
				"element": "C" 
			},
			{
				"x": 0.7105271403,
				"y": -0.8556746191,
				"z": -1.0509163367,
				"element": "C" 
			},
			{
				"x": 3.7566931163,
				"y": 0.6819022079,
				"z": 3.2486386575,
				"element": "H" 
			},
			{
				"x": 3.3999530425,
				"y": -1.4067483648,
				"z": 4.5456606092,
				"element": "H" 
			},
			{
				"x": 1.6273163563,
				"y": -3.0130804629,
				"z": 3.8344909866,
				"element": "H" 
			},
			{
				"x": 0.2411499264,
				"y": -2.5084156741,
				"z": 1.8418977352,
				"element": "H" 
			},
			{
				"x": -1.1890377472,
				"y": 0.6543447191,
				"z": 1.3287342163,
				"element": "H" 
			},
			{
				"x": -2.6553255527,
				"y": 1.0195505911,
				"z": -0.6361032231,
				"element": "H" 
			},
			{
				"x": -1.9680528899,
				"y": 0.1850432598,
				"z": -2.8756118155,
				"element": "H" 
			},
			{
				"x": 0.1929433539,
				"y": -1.0182014789,
				"z": -3.1331480143,
				"element": "H" 
			},
			{
				"x": 1.6548721592,
				"y": -1.3802110262,
				"z": -1.164456856,
				"element": "H" 
			}
		],
		 "valence_orbital": [ 
			{
				"type": "occ",
				"energy": -0.28214,
				"method": "rhf"
			},
			{
				"type": "occ",
				"energy": -0.25846,
				"method": "rhf"
			},
			{
				"type": "occ",
				"energy": -0.24968,
				"method": "rhf"
			},
			{
				"type": "occ",
				"energy": -0.24566,
				"method": "rhf"
			},
			{
				"type": "occ",
				"energy": -0.23963,
				"method": "rhf"
			},
			{
				"type": "unocc",
				"energy": -0.01571,
				"method": "rhf"
			},
			{
				"type": "unocc",
				"energy": -0.01275,
				"method": "rhf"
			},
			{
				"type": "unocc",
				"energy": -0.00393,
				"method": "rhf"
			},
			{
				"type": "unocc",
				"energy": 0.00327,
				"method": "rhf"
			},
			{
				"type": "unocc",
				"energy": 0.01351,
				"method": "rhf"
			}
		],
		"cosmo_sigma_profile": { 
			"-0.025": 0.0,
			"-0.024": 0.0,
			"-0.023": 0.0,
			"-0.022": 0.0,
			"-0.021": 0.0,
			"-0.02": 0.0,
			"-0.019": 0.0,
			"-0.018": 0.0,
			"-0.017": 0.0,
			"-0.016": 0.0,
			"-0.015": 0.0,
			"-0.014": 0.0,
			"-0.013": 0.0,
			"-0.012": 0.0,
			"-0.011": 0.0,
			"-0.01": 0.0,
			"-0.009": 0.0,
			"-0.008": 0.0,
			"-0.007": 2.45698541137,
			"-0.006": 12.9933541443,
			"-0.005": 19.4398760967,
			"-0.004": 20.0962813961,
			"-0.003": 17.7054204983,
			"-0.002": 15.2620383641,
			"-0.001": 13.8613201838,
			"0.0": 17.7918746265,
			"0.001": 17.3971520531,
			"0.002": 19.5363472356,
			"0.003": 22.0804739824,
			"0.004": 24.7493855847,
			"0.005": 18.4939496485,
			"0.006": 8.02439270103,
			"0.007": 1.25950626948,
			"0.008": 0.0,
			"0.009": 0.0,
			"0.01": 0.0,
			"0.011": 0.0,
			"0.012": 0.0,
			"0.013": 0.0,
			"0.014": 0.0,
			"0.015": 0.0,
			"0.016": 0.0,
			"0.017": 0.0,
			"0.018": 0.0,
			"0.019": 0.0,
			"0.02": 0.0,
			"0.021": 0.0,
			"0.022": 0.0,
			"0.023": 0.0,
			"0.024": 0.0,
			"0.025": 0.0
		}
	}
}
