{
	 "smiles": "[O-][P+](C1SC(=CC(=C1)C1=CC=CC=C1)C1=CC=CC=C1)(C1=CC=CC=C1)C1=CC=CC=C1", 
	 "Tm": 447.15, 
	 "num_atms": 55, 
	 "gaussian": { 
		 "optdone": 1, 
		 "sigma_profile": "yes", 
		 "theory": "DFT", 
		 "functional": "B3LYP", 
		 "basiset": "6-31G**", 
		 "properties": { 
			 "R2extent": 16453.1219, 
			 "electric_dipole_moment_norm": 2.89236542297, 
			 "electric_quadrupole_moment_norm": 22.572311754, 
			 "total_energy": -1933.71374249, 
			 "HOMO_LUMO_gap": 0.13752, 
			 "cosmo_polarized_energy": -22.68, 
			 "cosmo_cavitation_energy": 61.23, 
			 "cosmo_dispersion_energy": -39.75, 
			 "cosmo_repulsion_energy": 2.93, 
			 "cosmo_total_nonelectrostatic_energy": 24.41, 
			 "SMD_solvation_energy": 9.93 
		},
		"coords": [
			{
				"x": -0.3527593269,
				"y": 1.8031220388,
				"z": -0.2024417382,
				"element": "O" 
			},
			{
				"x": 0.4059019481,
				"y": 1.3225798609,
				"z": 1.0005695088,
				"element": "P" 
			},
			{
				"x": 0.018524162,
				"y": -0.4319445341,
				"z": 1.5583932495,
				"element": "C" 
			},
			{
				"x": 0.4028657684,
				"y": -1.6683211867,
				"z": 0.2491748342,
				"element": "S" 
			},
			{
				"x": -1.104665891,
				"y": -1.6274334706,
				"z": -0.6948748104,
				"element": "C" 
			},
			{
				"x": -2.2719139969,
				"y": -1.2272968145,
				"z": -0.1373526209,
				"element": "C" 
			},
			{
				"x": -2.4463379335,
				"y": -0.8633901246,
				"z": 1.2668501038,
				"element": "C" 
			},
			{
				"x": -1.3900722523,
				"y": -0.5687114281,
				"z": 2.0617771075,
				"element": "C" 
			},
			{
				"x": -3.8267254894,
				"y": -0.8633457539,
				"z": 1.8221511548,
				"element": "C" 
			},
			{
				"x": -4.2301713584,
				"y": 0.1068932363,
				"z": 2.7557347078,
				"element": "C" 
			},
			{
				"x": -5.5174629485,
				"y": 0.0924924026,
				"z": 3.2906020128,
				"element": "C" 
			},
			{
				"x": -6.4321997375,
				"y": -0.8867593771,
				"z": 2.8978841371,
				"element": "C" 
			},
			{
				"x": -6.0488626874,
				"y": -1.8504122984,
				"z": 1.963208476,
				"element": "C" 
			},
			{
				"x": -4.7611684002,
				"y": -1.8364619849,
				"z": 1.4287392786,
				"element": "C" 
			},
			{
				"x": -0.9893971902,
				"y": -2.1113625696,
				"z": -2.0871976835,
				"element": "C" 
			},
			{
				"x": -2.0170637281,
				"y": -2.8904593692,
				"z": -2.6514598819,
				"element": "C" 
			},
			{
				"x": -1.9331553365,
				"y": -3.3360560352,
				"z": -3.9679848701,
				"element": "C" 
			},
			{
				"x": -0.8146853363,
				"y": -3.0253931612,
				"z": -4.7456199235,
				"element": "C" 
			},
			{
				"x": 0.2171900153,
				"y": -2.2641887449,
				"z": -4.194519958,
				"element": "C" 
			},
			{
				"x": 0.1343015924,
				"y": -1.8121259957,
				"z": -2.8782877325,
				"element": "C" 
			},
			{
				"x": 2.2174850312,
				"y": 1.356327218,
				"z": 0.7367143769,
				"element": "C" 
			},
			{
				"x": 3.1585967071,
				"y": 0.7164432382,
				"z": 1.5582045158,
				"element": "C" 
			},
			{
				"x": 4.5217921584,
				"y": 0.8144965879,
				"z": 1.2776065441,
				"element": "C" 
			},
			{
				"x": 4.9571516828,
				"y": 1.5487303629,
				"z": 0.172302921,
				"element": "C" 
			},
			{
				"x": 4.026836364,
				"y": 2.1792787511,
				"z": -0.6557570482,
				"element": "C" 
			},
			{
				"x": 2.6630394302,
				"y": 2.0814772079,
				"z": -0.3781712346,
				"element": "C" 
			},
			{
				"x": 0.0320069545,
				"y": 2.3331360504,
				"z": 2.4846294157,
				"element": "C" 
			},
			{
				"x": 0.7603724031,
				"y": 2.2766908343,
				"z": 3.6819795555,
				"element": "C" 
			},
			{
				"x": 0.3791304659,
				"y": 3.0563211986,
				"z": 4.7742884267,
				"element": "C" 
			},
			{
				"x": -0.7315142267,
				"y": 3.8985660571,
				"z": 4.6795889926,
				"element": "C" 
			},
			{
				"x": -1.4572689353,
				"y": 3.9646549448,
				"z": 3.488761474,
				"element": "C" 
			},
			{
				"x": -1.0779828402,
				"y": 3.1860473091,
				"z": 2.3938194771,
				"element": "C" 
			},
			{
				"x": 0.7205077305,
				"y": -0.6685719529,
				"z": 2.3648350562,
				"element": "H" 
			},
			{
				"x": -3.1472712938,
				"y": -1.1780356171,
				"z": -0.7776609346,
				"element": "H" 
			},
			{
				"x": -1.547906534,
				"y": -0.3820306582,
				"z": 3.1196600705,
				"element": "H" 
			},
			{
				"x": -3.5353651671,
				"y": 0.8922496939,
				"z": 3.0379921778,
				"element": "H" 
			},
			{
				"x": -5.8110884926,
				"y": 0.856129655,
				"z": 4.0055349724,
				"element": "H" 
			},
			{
				"x": -7.4367883253,
				"y": -0.8944641024,
				"z": 3.3109700191,
				"element": "H" 
			},
			{
				"x": -6.7522838665,
				"y": -2.6177730989,
				"z": 1.6521761876,
				"element": "H" 
			},
			{
				"x": -4.4665561084,
				"y": -2.6005060277,
				"z": 0.7153506456,
				"element": "H" 
			},
			{
				"x": -2.8720856918,
				"y": -3.1629329354,
				"z": -2.0408354484,
				"element": "H" 
			},
			{
				"x": -2.7352851296,
				"y": -3.9394716049,
				"z": -4.3835006485,
				"element": "H" 
			},
			{
				"x": -0.7468881723,
				"y": -3.3785714229,
				"z": -5.7705676785,
				"element": "H" 
			},
			{
				"x": 1.0884294949,
				"y": -2.0135845287,
				"z": -4.7929728975,
				"element": "H" 
			},
			{
				"x": 0.9274702055,
				"y": -1.2001363816,
				"z": -2.4624383116,
				"element": "H" 
			},
			{
				"x": 2.842399921,
				"y": 0.1279016384,
				"z": 2.414948939,
				"element": "H" 
			},
			{
				"x": 5.2421650474,
				"y": 0.3130720519,
				"z": 1.9174550299,
				"element": "H" 
			},
			{
				"x": 6.0188285926,
				"y": 1.6228813095,
				"z": -0.0453331008,
				"element": "H" 
			},
			{
				"x": 4.3623909418,
				"y": 2.7437937433,
				"z": -1.5209879765,
				"element": "H" 
			},
			{
				"x": 1.9264421371,
				"y": 2.5527021909,
				"z": -1.0214249099,
				"element": "H" 
			},
			{
				"x": 1.6375287825,
				"y": 1.6418374607,
				"z": 3.7654154064,
				"element": "H" 
			},
			{
				"x": 0.9513015825,
				"y": 3.0108160161,
				"z": 5.6965392307,
				"element": "H" 
			},
			{
				"x": -1.0255365114,
				"y": 4.50595182,
				"z": 5.5309320348,
				"element": "H" 
			},
			{
				"x": -2.3154933677,
				"y": 4.6259019327,
				"z": 3.409675161,
				"element": "H" 
			},
			{
				"x": -1.6230028437,
				"y": 3.2342463685,
				"z": 1.4562242067,
				"element": "H" 
			}
		],
		 "valence_orbital": [ 
			{
				"type": "occ",
				"energy": -0.24819,
				"method": "rhf"
			},
			{
				"type": "occ",
				"energy": -0.24798,
				"method": "rhf"
			},
			{
				"type": "occ",
				"energy": -0.24295,
				"method": "rhf"
			},
			{
				"type": "occ",
				"energy": -0.23286,
				"method": "rhf"
			},
			{
				"type": "occ",
				"energy": -0.19057,
				"method": "rhf"
			},
			{
				"type": "unocc",
				"energy": -0.05305,
				"method": "rhf"
			},
			{
				"type": "unocc",
				"energy": -0.03479,
				"method": "rhf"
			},
			{
				"type": "unocc",
				"energy": -0.01614,
				"method": "rhf"
			},
			{
				"type": "unocc",
				"energy": -0.0132,
				"method": "rhf"
			},
			{
				"type": "unocc",
				"energy": -0.01192,
				"method": "rhf"
			}
		],
		"cosmo_sigma_profile": { 
			"-0.025": 0.0,
			"-0.024": 0.0,
			"-0.023": 0.0,
			"-0.022": 0.0,
			"-0.021": 0.0,
			"-0.02": 0.0,
			"-0.019": 0.0,
			"-0.018": 0.0,
			"-0.017": 0.0,
			"-0.016": 0.00970324074824,
			"-0.015": 0.125467632518,
			"-0.014": 0.207982443354,
			"-0.013": 0.358741850807,
			"-0.012": 0.687237541026,
			"-0.011": 0.558372752,
			"-0.01": 1.98126891752,
			"-0.009": 2.663463241,
			"-0.008": 3.04535237277,
			"-0.007": 5.58227770527,
			"-0.006": 29.4384061599,
			"-0.005": 43.9224956904,
			"-0.004": 45.9452310172,
			"-0.003": 34.8724142227,
			"-0.002": 29.7728436768,
			"-0.001": 30.1985313356,
			"0.0": 32.6769667601,
			"0.001": 36.3392268911,
			"0.002": 37.6842147179,
			"0.003": 42.6262303526,
			"0.004": 47.8286420013,
			"0.005": 32.6347010688,
			"0.006": 9.82055722749,
			"0.007": 3.31403355813,
			"0.008": 2.22640984997,
			"0.009": 1.91714988316,
			"0.01": 2.38695208571,
			"0.011": 1.46640731731,
			"0.012": 2.28740525387,
			"0.013": 2.05523693371,
			"0.014": 1.63725852949,
			"0.015": 4.46318229329,
			"0.016": 0.802141577657,
			"0.017": 0.0,
			"0.018": 0.0,
			"0.019": 0.0,
			"0.02": 0.0,
			"0.021": 0.0,
			"0.022": 0.0,
			"0.023": 0.0,
			"0.024": 0.0,
			"0.025": 0.0
		}
	}
}
