{
	 "smiles": "CCOC(=O)NC1=CC2=NC3=C(C=CC(NC)=C3CO)C=C2C=C1", 
	 "Tm": 418.15, 
	 "num_atms": 43, 
	 "gaussian": { 
		 "optdone": 1, 
		 "sigma_profile": "yes", 
		 "theory": "DFT", 
		 "functional": "B3LYP", 
		 "basiset": "6-31G**", 
		 "properties": { 
			 "R2extent": 13702.2654, 
			 "electric_dipole_moment_norm": 3.98605540604, 
			 "electric_quadrupole_moment_norm": 21.1553640888, 
			 "total_energy": -1087.33253472, 
			 "HOMO_LUMO_gap": 0.11953, 
			 "cosmo_polarized_energy": -17.78, 
			 "cosmo_cavitation_energy": 46.13, 
			 "cosmo_dispersion_energy": -33.53, 
			 "cosmo_repulsion_energy": 2.53, 
			 "cosmo_total_nonelectrostatic_energy": 15.12, 
			 "SMD_solvation_energy": 6.91 
		},
		"coords": [
			{
				"x": -1.4525392232,
				"y": -3.5836818821,
				"z": 7.2094574071,
				"element": "C" 
			},
			{
				"x": -2.333280778,
				"y": -2.501080439,
				"z": 6.6062027929,
				"element": "C" 
			},
			{
				"x": -1.9208240154,
				"y": -2.1716448394,
				"z": 5.256130305,
				"element": "O" 
			},
			{
				"x": -2.404035241,
				"y": -2.9776581898,
				"z": 4.2863190809,
				"element": "C" 
			},
			{
				"x": -3.1499664371,
				"y": -3.9223181877,
				"z": 4.4764226459,
				"element": "O" 
			},
			{
				"x": -1.9785876628,
				"y": -2.635033553,
				"z": 3.0206655837,
				"element": "N" 
			},
			{
				"x": -1.177770318,
				"y": -1.6026964386,
				"z": 2.4948490914,
				"element": "C" 
			},
			{
				"x": -1.1570741566,
				"y": -1.4615847906,
				"z": 1.1210225381,
				"element": "C" 
			},
			{
				"x": -0.3609611719,
				"y": -0.4688683523,
				"z": 0.4844452472,
				"element": "C" 
			},
			{
				"x": -0.3863026917,
				"y": -0.3842434555,
				"z": -0.8566436476,
				"element": "N" 
			},
			{
				"x": 0.3581376584,
				"y": 0.5575086486,
				"z": -1.4710437953,
				"element": "C" 
			},
			{
				"x": 1.1887440372,
				"y": 1.4806860539,
				"z": -0.7214309124,
				"element": "C" 
			},
			{
				"x": 1.9559424242,
				"y": 2.4482896274,
				"z": -1.4323204341,
				"element": "C" 
			},
			{
				"x": 1.9084694483,
				"y": 2.5240849178,
				"z": -2.7952695617,
				"element": "C" 
			},
			{
				"x": 1.0882313241,
				"y": 1.622343256,
				"z": -3.555074221,
				"element": "C" 
			},
			{
				"x": 1.0522203985,
				"y": 1.7014226813,
				"z": -4.9295178484,
				"element": "N" 
			},
			{
				"x": 1.694956055,
				"y": 2.7525282538,
				"z": -5.6907861111,
				"element": "C" 
			},
			{
				"x": 0.3340903886,
				"y": 0.6403547713,
				"z": -2.8985757275,
				"element": "C" 
			},
			{
				"x": -0.4609723174,
				"y": -0.3592667959,
				"z": -3.7019197307,
				"element": "C" 
			},
			{
				"x": -1.3497035335,
				"y": 0.2522978551,
				"z": -4.66553149,
				"element": "O" 
			},
			{
				"x": 1.2030792042,
				"y": 1.3774577864,
				"z": 0.6692542488,
				"element": "C" 
			},
			{
				"x": 0.4334943373,
				"y": 0.4047315074,
				"z": 1.3132774161,
				"element": "C" 
			},
			{
				"x": 0.391803443,
				"y": 0.230037533,
				"z": 2.7262248088,
				"element": "C" 
			},
			{
				"x": -0.3794885496,
				"y": -0.7380148479,
				"z": 3.3123748217,
				"element": "C" 
			},
			{
				"x": -0.3992754193,
				"y": -3.2881769572,
				"z": 7.1894150742,
				"element": "H" 
			},
			{
				"x": -1.5706214936,
				"y": -4.520709863,
				"z": 6.6604157555,
				"element": "H" 
			},
			{
				"x": -1.7408190368,
				"y": -3.7568404236,
				"z": 8.2517317847,
				"element": "H" 
			},
			{
				"x": -3.3807501996,
				"y": -2.8085695645,
				"z": 6.5862575861,
				"element": "H" 
			},
			{
				"x": -2.2408372863,
				"y": -1.5572781523,
				"z": 7.1487395717,
				"element": "H" 
			},
			{
				"x": -2.4045655479,
				"y": -3.2421803323,
				"z": 2.334007275,
				"element": "H" 
			},
			{
				"x": -1.7516647345,
				"y": -2.1062270145,
				"z": 0.4799388478,
				"element": "H" 
			},
			{
				"x": 2.5810895068,
				"y": 3.1365173481,
				"z": -0.8686231311,
				"element": "H" 
			},
			{
				"x": 2.4943933898,
				"y": 3.2750139882,
				"z": -3.3127514263,
				"element": "H" 
			},
			{
				"x": 0.2188672162,
				"y": 1.2872183767,
				"z": -5.3340205821,
				"element": "H" 
			},
			{
				"x": 1.3379187414,
				"y": 3.7624720889,
				"z": -5.4350029792,
				"element": "H" 
			},
			{
				"x": 2.7823350479,
				"y": 2.7338789274,
				"z": -5.5553679849,
				"element": "H" 
			},
			{
				"x": 1.4943592874,
				"y": 2.5818926119,
				"z": -6.7507775126,
				"element": "H" 
			},
			{
				"x": -1.0122081893,
				"y": -1.0146347432,
				"z": -3.0240647163,
				"element": "H" 
			},
			{
				"x": 0.2088061793,
				"y": -0.9759209344,
				"z": -4.3134120511,
				"element": "H" 
			},
			{
				"x": -1.9529101784,
				"y": 0.8201953967,
				"z": -4.1667728,
				"element": "H" 
			},
			{
				"x": 1.8180366499,
				"y": 2.0587028898,
				"z": 1.2547802076,
				"element": "H" 
			},
			{
				"x": 0.9963138621,
				"y": 0.8841242047,
				"z": 3.3499468775,
				"element": "H" 
			},
			{
				"x": -0.3924304175,
				"y": -0.8576289675,
				"z": 4.3850276957,
				"element": "H" 
			}
		],
		 "valence_orbital": [ 
			{
				"type": "occ",
				"energy": -0.25283,
				"method": "rhf"
			},
			{
				"type": "occ",
				"energy": -0.24923,
				"method": "rhf"
			},
			{
				"type": "occ",
				"energy": -0.23768,
				"method": "rhf"
			},
			{
				"type": "occ",
				"energy": -0.20614,
				"method": "rhf"
			},
			{
				"type": "occ",
				"energy": -0.18525,
				"method": "rhf"
			},
			{
				"type": "unocc",
				"energy": -0.06572,
				"method": "rhf"
			},
			{
				"type": "unocc",
				"energy": -0.00791,
				"method": "rhf"
			},
			{
				"type": "unocc",
				"energy": 0.00389,
				"method": "rhf"
			},
			{
				"type": "unocc",
				"energy": 0.03359,
				"method": "rhf"
			},
			{
				"type": "unocc",
				"energy": 0.04559,
				"method": "rhf"
			}
		],
		"cosmo_sigma_profile": { 
			"-0.025": 0.0,
			"-0.024": 0.0,
			"-0.023": 0.0,
			"-0.022": 0.0,
			"-0.021": 0.0,
			"-0.02": 0.0,
			"-0.019": 0.0,
			"-0.018": 0.0,
			"-0.017": 0.0,
			"-0.016": 0.131752851364,
			"-0.015": 1.42217433692,
			"-0.014": 1.9318610679,
			"-0.013": 2.1201338506,
			"-0.012": 1.86948558419,
			"-0.011": 1.47521115758,
			"-0.01": 1.55296766758,
			"-0.009": 1.63302709639,
			"-0.008": 2.56803698247,
			"-0.007": 6.67823831376,
			"-0.006": 16.4627673735,
			"-0.005": 21.0308789789,
			"-0.004": 27.9825525613,
			"-0.003": 30.5405327872,
			"-0.002": 30.4026802327,
			"-0.001": 31.5884803633,
			"0.0": 28.5215092981,
			"0.001": 21.5783202843,
			"0.002": 24.9089307205,
			"0.003": 34.6034605133,
			"0.004": 26.4327690306,
			"0.005": 11.8763481779,
			"0.006": 5.76142477415,
			"0.007": 4.97094841419,
			"0.008": 4.15251677512,
			"0.009": 4.64110269563,
			"0.01": 3.53409331597,
			"0.011": 4.66156671588,
			"0.012": 5.66871951508,
			"0.013": 4.46289302399,
			"0.014": 1.04914770672,
			"0.015": 0.0430421829006,
			"0.016": 0.0,
			"0.017": 0.0,
			"0.018": 0.0,
			"0.019": 0.0,
			"0.02": 0.0,
			"0.021": 0.0,
			"0.022": 0.0,
			"0.023": 0.0,
			"0.024": 0.0,
			"0.025": 0.0
		}
	}
}
