{
	 "smiles": "OC1OCC=C2OC(=O)C=C12", 
	 "Tm": 384.15, 
	 "num_atms": 17, 
	 "gaussian": { 
		 "optdone": 1, 
		 "sigma_profile": "yes", 
		 "theory": "DFT", 
		 "functional": "B3LYP", 
		 "basiset": "6-31G**", 
		 "properties": { 
			 "R2extent": 2527.1284, 
			 "electric_dipole_moment_norm": 5.3705887033, 
			 "electric_quadrupole_moment_norm": 20.9537925701, 
			 "total_energy": -571.207641598, 
			 "HOMO_LUMO_gap": 0.16951, 
			 "cosmo_polarized_energy": -15.13, 
			 "cosmo_cavitation_energy": 21.44, 
			 "cosmo_dispersion_energy": -16.41, 
			 "cosmo_repulsion_energy": 1.33, 
			 "cosmo_total_nonelectrostatic_energy": 6.36, 
			 "SMD_solvation_energy": 5.03 
		},
		"coords": [
			{
				"x": 0.1135317975,
				"y": 0.3098960913,
				"z": 0.9924842545,
				"element": "O" 
			},
			{
				"x": -0.2708153655,
				"y": -0.8527209518,
				"z": 0.3429935151,
				"element": "C" 
			},
			{
				"x": -1.4160797687,
				"y": -1.3919630903,
				"z": 0.9963053109,
				"element": "O" 
			},
			{
				"x": -1.9411350403,
				"y": -2.5709730444,
				"z": 0.3895711909,
				"element": "C" 
			},
			{
				"x": -2.2213413299,
				"y": -2.4048263509,
				"z": -1.0855622997,
				"element": "C" 
			},
			{
				"x": -1.5861346769,
				"y": -1.4181815354,
				"z": -1.7298006674,
				"element": "C" 
			},
			{
				"x": -1.7196769918,
				"y": -1.0597026674,
				"z": -3.0439134735,
				"element": "O" 
			},
			{
				"x": -0.8608974207,
				"y": 0.0398033708,
				"z": -3.2755002907,
				"element": "C" 
			},
			{
				"x": -0.7899731425,
				"y": 0.5599275116,
				"z": -4.3558200031,
				"element": "O" 
			},
			{
				"x": -0.1661852633,
				"y": 0.3263151442,
				"z": -2.0019552785,
				"element": "C" 
			},
			{
				"x": -0.6116263659,
				"y": -0.5526177379,
				"z": -1.0872496493,
				"element": "C" 
			},
			{
				"x": 0.3055097548,
				"y": 0.082181122,
				"z": 1.9127391135,
				"element": "H" 
			},
			{
				"x": 0.5334041351,
				"y": -1.617753876,
				"z": 0.3630113334,
				"element": "H" 
			},
			{
				"x": -2.86491893,
				"y": -2.7948408459,
				"z": 0.9316640228,
				"element": "H" 
			},
			{
				"x": -1.2552713733,
				"y": -3.4229059381,
				"z": 0.5533119886,
				"element": "H" 
			},
			{
				"x": -2.9167957465,
				"y": -3.0734156648,
				"z": -1.5810953928,
				"element": "H" 
			},
			{
				"x": 0.5617057277,
				"y": 1.1170784629,
				"z": -1.8957836747,
				"element": "H" 
			}
		],
		 "valence_orbital": [ 
			{
				"type": "occ",
				"energy": -0.3222,
				"method": "rhf"
			},
			{
				"type": "occ",
				"energy": -0.30536,
				"method": "rhf"
			},
			{
				"type": "occ",
				"energy": -0.29174,
				"method": "rhf"
			},
			{
				"type": "occ",
				"energy": -0.27489,
				"method": "rhf"
			},
			{
				"type": "occ",
				"energy": -0.24745,
				"method": "rhf"
			},
			{
				"type": "unocc",
				"energy": -0.07794,
				"method": "rhf"
			},
			{
				"type": "unocc",
				"energy": 0.0397,
				"method": "rhf"
			},
			{
				"type": "unocc",
				"energy": 0.06069,
				"method": "rhf"
			},
			{
				"type": "unocc",
				"energy": 0.07938,
				"method": "rhf"
			},
			{
				"type": "unocc",
				"energy": 0.088,
				"method": "rhf"
			}
		],
		"cosmo_sigma_profile": { 
			"-0.025": 0.0,
			"-0.024": 0.0,
			"-0.023": 0.0,
			"-0.022": 0.0,
			"-0.021": 0.0,
			"-0.02": 0.0,
			"-0.019": 0.0,
			"-0.018": 0.128037369219,
			"-0.017": 1.13719354206,
			"-0.016": 0.880008203694,
			"-0.015": 0.700110424503,
			"-0.014": 0.837164683871,
			"-0.013": 1.13388152509,
			"-0.012": 0.472962335793,
			"-0.011": 0.589379122048,
			"-0.01": 0.577696195096,
			"-0.009": 3.11871860464,
			"-0.008": 5.78726418022,
			"-0.007": 10.6502646512,
			"-0.006": 14.7815996046,
			"-0.005": 10.0464582296,
			"-0.004": 10.1304876634,
			"-0.003": 9.49018534146,
			"-0.002": 9.4587791703,
			"-0.001": 9.21583752891,
			"0.0": 8.71006466039,
			"0.001": 9.22055349938,
			"0.002": 6.22641206296,
			"0.003": 4.77258655553,
			"0.004": 4.51365483276,
			"0.005": 5.51599356035,
			"0.006": 4.89896950518,
			"0.007": 5.10690080559,
			"0.008": 6.09464905985,
			"0.009": 6.776120913,
			"0.01": 7.35118264984,
			"0.011": 9.04807571512,
			"0.012": 3.56421524451,
			"0.013": 0.0586635738843,
			"0.014": 0.0,
			"0.015": 0.0,
			"0.016": 0.0,
			"0.017": 0.0,
			"0.018": 0.0,
			"0.019": 0.0,
			"0.02": 0.0,
			"0.021": 0.0,
			"0.022": 0.0,
			"0.023": 0.0,
			"0.024": 0.0,
			"0.025": 0.0
		}
	}
}
