{
	 "smiles": "ClCC(=O)NC1=CC=C(C=C1)C1=CC=CC=C1", 
	 "Tm": 395.15, 
	 "num_atms": 29, 
	 "gaussian": { 
		 "optdone": 1, 
		 "sigma_profile": "yes", 
		 "theory": "DFT", 
		 "functional": "B3LYP", 
		 "basiset": "6-31G**", 
		 "properties": { 
			 "R2extent": 7004.5803, 
			 "electric_dipole_moment_norm": 4.37717899337, 
			 "electric_quadrupole_moment_norm": 17.9817077821, 
			 "total_energy": -1130.90810733, 
			 "HOMO_LUMO_gap": 0.17918, 
			 "cosmo_polarized_energy": -13.57, 
			 "cosmo_cavitation_energy": 34.97, 
			 "cosmo_dispersion_energy": -25.36, 
			 "cosmo_repulsion_energy": 1.96, 
			 "cosmo_total_nonelectrostatic_energy": 11.58, 
			 "SMD_solvation_energy": 6.11 
		},
		"coords": [
			{
				"x": 1.146184904,
				"y": 1.5027582029,
				"z": 4.2128314976,
				"element": "Cl" 
			},
			{
				"x": 0.487072519,
				"y": -0.1854633843,
				"z": 4.1236543563,
				"element": "C" 
			},
			{
				"x": 1.6017635,
				"y": -1.1982934898,
				"z": 3.8761731226,
				"element": "C" 
			},
			{
				"x": 2.2842887819,
				"y": -1.6143986158,
				"z": 4.7987673325,
				"element": "O" 
			},
			{
				"x": 1.7848331652,
				"y": -1.6718621805,
				"z": 2.5945668705,
				"element": "N" 
			},
			{
				"x": 1.1287679009,
				"y": -1.3826449772,
				"z": 1.3716585995,
				"element": "C" 
			},
			{
				"x": 0.8123398851,
				"y": -2.4475585085,
				"z": 0.5155482616,
				"element": "C" 
			},
			{
				"x": 0.204028843,
				"y": -2.2098921493,
				"z": -0.7118557788,
				"element": "C" 
			},
			{
				"x": -0.1264758626,
				"y": -0.9066258868,
				"z": -1.1225582239,
				"element": "C" 
			},
			{
				"x": 0.2015373857,
				"y": 0.1489120083,
				"z": -0.2567328755,
				"element": "C" 
			},
			{
				"x": 0.8360964712,
				"y": -0.0748032693,
				"z": 0.9633149595,
				"element": "C" 
			},
			{
				"x": -0.7894521674,
				"y": -0.6567909566,
				"z": -2.4271946416,
				"element": "C" 
			},
			{
				"x": -0.4544946388,
				"y": 0.4648538183,
				"z": -3.2051874544,
				"element": "C" 
			},
			{
				"x": -1.0785267968,
				"y": 0.6992933108,
				"z": -4.4295381354,
				"element": "C" 
			},
			{
				"x": -2.0501499901,
				"y": -0.1836649373,
				"z": -4.9045952434,
				"element": "C" 
			},
			{
				"x": -2.3925612488,
				"y": -1.3028534685,
				"z": -4.1434504267,
				"element": "C" 
			},
			{
				"x": -1.7697719762,
				"y": -1.5362235491,
				"z": -2.9182092761,
				"element": "C" 
			},
			{
				"x": 0.0658542724,
				"y": -0.4028507701,
				"z": 5.1036728802,
				"element": "H" 
			},
			{
				"x": -0.2877079057,
				"y": -0.1888511473,
				"z": 3.3583275757,
				"element": "H" 
			},
			{
				"x": 2.4594630918,
				"y": -2.4280246876,
				"z": 2.5781243089,
				"element": "H" 
			},
			{
				"x": 1.0469913513,
				"y": -3.4646421132,
				"z": 0.8180801094,
				"element": "H" 
			},
			{
				"x": -0.0062484858,
				"y": -3.0479507345,
				"z": -1.3691779999,
				"element": "H" 
			},
			{
				"x": -0.0449129971,
				"y": 1.167871363,
				"z": -0.5389575676,
				"element": "H" 
			},
			{
				"x": 1.1149279233,
				"y": 0.7664556968,
				"z": 1.5880273616,
				"element": "H" 
			},
			{
				"x": 0.3197177291,
				"y": 1.1433612182,
				"z": -2.8591770402,
				"element": "H" 
			},
			{
				"x": -0.7981293628,
				"y": 1.5685166661,
				"z": -5.0177168633,
				"element": "H" 
			},
			{
				"x": -2.5357433868,
				"y": -0.0013138724,
				"z": -5.8587700003,
				"element": "H" 
			},
			{
				"x": -3.1533787823,
				"y": -1.9917535731,
				"z": -4.4994655676,
				"element": "H" 
			},
			{
				"x": -2.0641141226,
				"y": -2.3949600131,
				"z": -2.3218601413,
				"element": "H" 
			}
		],
		 "valence_orbital": [ 
			{
				"type": "occ",
				"energy": -0.26716,
				"method": "rhf"
			},
			{
				"type": "occ",
				"energy": -0.26587,
				"method": "rhf"
			},
			{
				"type": "occ",
				"energy": -0.26333,
				"method": "rhf"
			},
			{
				"type": "occ",
				"energy": -0.25673,
				"method": "rhf"
			},
			{
				"type": "occ",
				"energy": -0.2233,
				"method": "rhf"
			},
			{
				"type": "unocc",
				"energy": -0.04412,
				"method": "rhf"
			},
			{
				"type": "unocc",
				"energy": -0.02119,
				"method": "rhf"
			},
			{
				"type": "unocc",
				"energy": -0.01967,
				"method": "rhf"
			},
			{
				"type": "unocc",
				"energy": -0.00781,
				"method": "rhf"
			},
			{
				"type": "unocc",
				"energy": 0.01873,
				"method": "rhf"
			}
		],
		"cosmo_sigma_profile": { 
			"-0.025": 0.0,
			"-0.024": 0.0,
			"-0.023": 0.0,
			"-0.022": 0.0,
			"-0.021": 0.0,
			"-0.02": 0.0,
			"-0.019": 0.0,
			"-0.018": 0.0,
			"-0.017": 0.0,
			"-0.016": 0.0,
			"-0.015": 0.349347205594,
			"-0.014": 1.05814721743,
			"-0.013": 1.49783031946,
			"-0.012": 0.771289772583,
			"-0.011": 1.005170864,
			"-0.01": 1.27698218651,
			"-0.009": 2.19481869964,
			"-0.008": 4.23097578086,
			"-0.007": 7.52914741826,
			"-0.006": 15.8714985291,
			"-0.005": 20.8793311689,
			"-0.004": 21.9660863955,
			"-0.003": 20.1109427029,
			"-0.002": 17.288346672,
			"-0.001": 17.5340878855,
			"0.0": 15.4821358116,
			"0.001": 17.8375888664,
			"0.002": 20.7637390166,
			"0.003": 22.6839455939,
			"0.004": 24.4553658086,
			"0.005": 20.4919002606,
			"0.006": 10.1364236131,
			"0.007": 1.68878169751,
			"0.008": 0.828745118334,
			"0.009": 1.43076094695,
			"0.01": 1.51155887643,
			"0.011": 1.77867178194,
			"0.012": 4.4583523074,
			"0.013": 4.48241340747,
			"0.014": 0.658587836873,
			"0.015": 0.0,
			"0.016": 0.0,
			"0.017": 0.0,
			"0.018": 0.0,
			"0.019": 0.0,
			"0.02": 0.0,
			"0.021": 0.0,
			"0.022": 0.0,
			"0.023": 0.0,
			"0.024": 0.0,
			"0.025": 0.0
		}
	}
}
