{
	 "smiles": "FC1=CC2=C(C=C1)C(CC#N)=CN2", 
	 "Tm": 326.15, 
	 "num_atms": 20, 
	 "gaussian": { 
		 "optdone": 1, 
		 "sigma_profile": "yes", 
		 "theory": "DFT", 
		 "functional": "B3LYP", 
		 "basiset": "6-31G**", 
		 "properties": { 
			 "R2extent": 2654.9221, 
			 "electric_dipole_moment_norm": 5.36233054744, 
			 "electric_quadrupole_moment_norm": 20.511602442, 
			 "total_energy": -594.604869731, 
			 "HOMO_LUMO_gap": 0.19286, 
			 "cosmo_polarized_energy": -15.7, 
			 "cosmo_cavitation_energy": 25.98, 
			 "cosmo_dispersion_energy": -18.22, 
			 "cosmo_repulsion_energy": 1.42, 
			 "cosmo_total_nonelectrostatic_energy": 9.17, 
			 "SMD_solvation_energy": 6.16 
		},
		"coords": [
			{
				"x": 3.0188648907,
				"y": 2.1030444694,
				"z": 1.0969942417,
				"element": "F" 
			},
			{
				"x": 2.0998906568,
				"y": 1.2538254777,
				"z": 0.5855094511,
				"element": "C" 
			},
			{
				"x": 2.5272618028,
				"y": 0.2667122313,
				"z": -0.2855374946,
				"element": "C" 
			},
			{
				"x": 1.5336528453,
				"y": -0.5840958188,
				"z": -0.783536671,
				"element": "C" 
			},
			{
				"x": 0.1642064332,
				"y": -0.4541839828,
				"z": -0.4229885258,
				"element": "C" 
			},
			{
				"x": -0.2128851782,
				"y": 0.570751434,
				"z": 0.4621948968,
				"element": "C" 
			},
			{
				"x": 0.7593520855,
				"y": 1.4234630279,
				"z": 0.9667794384,
				"element": "C" 
			},
			{
				"x": -0.5511692348,
				"y": -1.4955999029,
				"z": -1.1188394068,
				"element": "C" 
			},
			{
				"x": -2.0257028749,
				"y": -1.7925490697,
				"z": -1.0416044815,
				"element": "C" 
			},
			{
				"x": -2.8727611128,
				"y": -0.7139431847,
				"z": -1.5764321785,
				"element": "C" 
			},
			{
				"x": -3.5397188433,
				"y": 0.1412102681,
				"z": -1.9897954829,
				"element": "N" 
			},
			{
				"x": 0.3734754137,
				"y": -2.19076131,
				"z": -1.8537528453,
				"element": "C" 
			},
			{
				"x": 1.6296383269,
				"y": -1.6480681478,
				"z": -1.6546457125,
				"element": "N" 
			},
			{
				"x": 3.5749480651,
				"y": 0.1797816922,
				"z": -0.5512087599,
				"element": "H" 
			},
			{
				"x": -1.2527270835,
				"y": 0.7065548628,
				"z": 0.7433730206,
				"element": "H" 
			},
			{
				"x": 0.5101771305,
				"y": 2.2280354539,
				"z": 1.6494666006,
				"element": "H" 
			},
			{
				"x": -2.3356966831,
				"y": -1.9712472626,
				"z": -0.0030833052,
				"element": "H" 
			},
			{
				"x": -2.2558275664,
				"y": -2.7098005999,
				"z": -1.5950819495,
				"element": "H" 
			},
			{
				"x": 0.2372752134,
				"y": -3.0394274571,
				"z": -2.5092531379,
				"element": "H" 
			},
			{
				"x": 2.4792457133,
				"y": -1.9794021811,
				"z": -2.0811576978,
				"element": "H" 
			}
		],
		 "valence_orbital": [ 
			{
				"type": "occ",
				"energy": -0.32218,
				"method": "rhf"
			},
			{
				"type": "occ",
				"energy": -0.32075,
				"method": "rhf"
			},
			{
				"type": "occ",
				"energy": -0.28457,
				"method": "rhf"
			},
			{
				"type": "occ",
				"energy": -0.2337,
				"method": "rhf"
			},
			{
				"type": "occ",
				"energy": -0.21474,
				"method": "rhf"
			},
			{
				"type": "unocc",
				"energy": -0.02188,
				"method": "rhf"
			},
			{
				"type": "unocc",
				"energy": 0.01631,
				"method": "rhf"
			},
			{
				"type": "unocc",
				"energy": 0.03266,
				"method": "rhf"
			},
			{
				"type": "unocc",
				"energy": 0.04114,
				"method": "rhf"
			},
			{
				"type": "unocc",
				"energy": 0.06163,
				"method": "rhf"
			}
		],
		"cosmo_sigma_profile": { 
			"-0.025": 0.0,
			"-0.024": 0.0,
			"-0.023": 0.0,
			"-0.022": 0.0,
			"-0.021": 0.0,
			"-0.02": 0.0,
			"-0.019": 0.0,
			"-0.018": 0.0,
			"-0.017": 0.0,
			"-0.016": 1.15547082684,
			"-0.015": 1.36283835311,
			"-0.014": 1.82094109981,
			"-0.013": 1.4955976779,
			"-0.012": 1.00269400338,
			"-0.011": 1.01226731198,
			"-0.01": 1.37096524022,
			"-0.009": 3.98778980522,
			"-0.008": 10.4411890599,
			"-0.007": 10.8725869664,
			"-0.006": 11.5819889384,
			"-0.005": 10.5834864414,
			"-0.004": 9.62971653859,
			"-0.003": 8.17637738977,
			"-0.002": 7.75828281897,
			"-0.001": 7.29853123768,
			"0.0": 6.75253062941,
			"0.001": 9.39206933514,
			"0.002": 17.1693630056,
			"0.003": 17.4740551941,
			"0.004": 26.3887709554,
			"0.005": 18.8358733997,
			"0.006": 3.05439454445,
			"0.007": 2.81173045253,
			"0.008": 3.17592458415,
			"0.009": 3.58030356394,
			"0.01": 3.42444427166,
			"0.011": 2.83692756877,
			"0.012": 2.61549168777,
			"0.013": 2.02725638626,
			"0.014": 0.487780463504,
			"0.015": 0.0,
			"0.016": 0.0,
			"0.017": 0.0,
			"0.018": 0.0,
			"0.019": 0.0,
			"0.02": 0.0,
			"0.021": 0.0,
			"0.022": 0.0,
			"0.023": 0.0,
			"0.024": 0.0,
			"0.025": 0.0
		}
	}
}
