{
	 "smiles": "OC[C@H]1O[C@H](C[C@@H]1O)N1N=CC2=C1C=CC=C2[N+]([O-])=O", 
	 "Tm": 413.0, 
	 "num_atms": 33, 
	 "gaussian": { 
		 "optdone": 1, 
		 "sigma_profile": "yes", 
		 "theory": "DFT", 
		 "functional": "B3LYP", 
		 "basiset": "6-31G**", 
		 "properties": { 
			 "R2extent": 7485.5424, 
			 "electric_dipole_moment_norm": 5.84998510938, 
			 "electric_quadrupole_moment_norm": 29.0435444528, 
			 "total_energy": -1005.35073588, 
			 "HOMO_LUMO_gap": 0.14559, 
			 "cosmo_polarized_energy": -19.28, 
			 "cosmo_cavitation_energy": 35.89, 
			 "cosmo_dispersion_energy": -26.42, 
			 "cosmo_repulsion_energy": 2.0, 
			 "cosmo_total_nonelectrostatic_energy": 11.47, 
			 "SMD_solvation_energy": 7.1 
		},
		"coords": [
			{
				"x": 0.1683345996,
				"y": -0.3022701523,
				"z": 3.0001356357,
				"element": "O" 
			},
			{
				"x": -0.7052932213,
				"y": -1.3565411716,
				"z": 2.6512748459,
				"element": "C" 
			},
			{
				"x": -0.3939144918,
				"y": -2.0027638631,
				"z": 1.2990896308,
				"element": "C" 
			},
			{
				"x": -0.7545630701,
				"y": -1.1073782776,
				"z": 0.2226846177,
				"element": "O" 
			},
			{
				"x": 0.3911939918,
				"y": -0.560589067,
				"z": -0.3938893418,
				"element": "C" 
			},
			{
				"x": 1.6126983824,
				"y": -1.0578877971,
				"z": 0.401680599,
				"element": "C" 
			},
			{
				"x": 1.0881003632,
				"y": -2.3321821496,
				"z": 1.0734910777,
				"element": "C" 
			},
			{
				"x": 1.1355874495,
				"y": -3.4604497666,
				"z": 0.2026388087,
				"element": "O" 
			},
			{
				"x": 0.2779244414,
				"y": 0.8957337973,
				"z": -0.431629226,
				"element": "N" 
			},
			{
				"x": 0.2094602606,
				"y": 1.5958148688,
				"z": 0.7298791091,
				"element": "N" 
			},
			{
				"x": 0.0052637756,
				"y": 2.8635241081,
				"z": 0.4199716136,
				"element": "C" 
			},
			{
				"x": -0.0801464973,
				"y": 3.0281384497,
				"z": -0.99283661,
				"element": "C" 
			},
			{
				"x": 0.0881411946,
				"y": 1.7170196675,
				"z": -1.513672285,
				"element": "C" 
			},
			{
				"x": 0.0545301754,
				"y": 1.4460873146,
				"z": -2.8923650919,
				"element": "C" 
			},
			{
				"x": -0.1490204539,
				"y": 2.5146033626,
				"z": -3.7521142971,
				"element": "C" 
			},
			{
				"x": -0.3126535835,
				"y": 3.8295053362,
				"z": -3.2712297924,
				"element": "C" 
			},
			{
				"x": -0.2777065986,
				"y": 4.0796939384,
				"z": -1.9108506564,
				"element": "C" 
			},
			{
				"x": -0.4513568764,
				"y": 5.4552403435,
				"z": -1.4384706283,
				"element": "N" 
			},
			{
				"x": -0.6221258777,
				"y": 6.3388995944,
				"z": -2.2775860287,
				"element": "O" 
			},
			{
				"x": -0.4147369649,
				"y": 5.6430828603,
				"z": -0.2208080811,
				"element": "O" 
			},
			{
				"x": 0.0418710859,
				"y": 0.430918701,
				"z": 2.3687171772,
				"element": "H" 
			},
			{
				"x": -0.608338789,
				"y": -2.1198136295,
				"z": 3.4331226232,
				"element": "H" 
			},
			{
				"x": -1.7576014345,
				"y": -1.0333860151,
				"z": 2.6353165277,
				"element": "H" 
			},
			{
				"x": -0.9945185051,
				"y": -2.9115548995,
				"z": 1.1798893697,
				"element": "H" 
			},
			{
				"x": 0.4310342218,
				"y": -0.8798880108,
				"z": -1.4411142813,
				"element": "H" 
			},
			{
				"x": 2.4766772974,
				"y": -1.2413920218,
				"z": -0.2435084973,
				"element": "H" 
			},
			{
				"x": 1.8819234876,
				"y": -0.3246544818,
				"z": 1.1629850425,
				"element": "H" 
			},
			{
				"x": 1.6033427335,
				"y": -2.5346130707,
				"z": 2.0211583953,
				"element": "H" 
			},
			{
				"x": 2.0635280134,
				"y": -3.6889887679,
				"z": 0.0619284581,
				"element": "H" 
			},
			{
				"x": -0.077534519,
				"y": 3.6161664428,
				"z": 1.1873948983,
				"element": "H" 
			},
			{
				"x": 0.1781006356,
				"y": 0.4402496491,
				"z": -3.2785211602,
				"element": "H" 
			},
			{
				"x": -0.184299551,
				"y": 2.3396022296,
				"z": -4.8223602634,
				"element": "H" 
			},
			{
				"x": -0.467901675,
				"y": 4.6584724783,
				"z": -3.9499021892,
				"element": "H" 
			}
		],
		 "valence_orbital": [ 
			{
				"type": "occ",
				"energy": -0.28831,
				"method": "rhf"
			},
			{
				"type": "occ",
				"energy": -0.28379,
				"method": "rhf"
			},
			{
				"type": "occ",
				"energy": -0.27195,
				"method": "rhf"
			},
			{
				"type": "occ",
				"energy": -0.25584,
				"method": "rhf"
			},
			{
				"type": "occ",
				"energy": -0.2459,
				"method": "rhf"
			},
			{
				"type": "unocc",
				"energy": -0.10031,
				"method": "rhf"
			},
			{
				"type": "unocc",
				"energy": -0.0352,
				"method": "rhf"
			},
			{
				"type": "unocc",
				"energy": -0.00279,
				"method": "rhf"
			},
			{
				"type": "unocc",
				"energy": 0.02787,
				"method": "rhf"
			},
			{
				"type": "unocc",
				"energy": 0.06211,
				"method": "rhf"
			}
		],
		"cosmo_sigma_profile": { 
			"-0.025": 0.0,
			"-0.024": 0.0,
			"-0.023": 0.0,
			"-0.022": 0.0,
			"-0.021": 0.0,
			"-0.02": 0.0,
			"-0.019": 0.0,
			"-0.018": 0.0,
			"-0.017": 0.0196127467317,
			"-0.016": 0.693722650721,
			"-0.015": 1.0774410224,
			"-0.014": 1.26808256872,
			"-0.013": 0.620047607564,
			"-0.012": 1.00858298384,
			"-0.011": 1.28983691576,
			"-0.01": 2.89608978584,
			"-0.009": 3.9098923394,
			"-0.008": 6.49005420504,
			"-0.007": 10.6275726013,
			"-0.006": 14.9667090307,
			"-0.005": 18.3951952249,
			"-0.004": 19.3999188435,
			"-0.003": 20.0155128258,
			"-0.002": 18.8555219217,
			"-0.001": 21.9214485313,
			"0.0": 26.6333465779,
			"0.001": 20.5516195535,
			"0.002": 15.0661382952,
			"0.003": 8.43174235849,
			"0.004": 6.74455849971,
			"0.005": 8.73020266576,
			"0.006": 8.27512073146,
			"0.007": 8.47641856977,
			"0.008": 10.8977344326,
			"0.009": 7.62178846516,
			"0.01": 5.9562145175,
			"0.011": 3.56437172944,
			"0.012": 3.82180327267,
			"0.013": 3.37447812703,
			"0.014": 2.09350289501,
			"0.015": 1.16742302671,
			"0.016": 0.0,
			"0.017": 0.0,
			"0.018": 0.0,
			"0.019": 0.0,
			"0.02": 0.0,
			"0.021": 0.0,
			"0.022": 0.0,
			"0.023": 0.0,
			"0.024": 0.0,
			"0.025": 0.0
		}
	}
}
