{
	 "smiles": "OC(C1=CC=CC=C1)(C1=CC=CC=C1)C(O)(C1=CC=CC=C1)C1=CC=CC=C1", 
	 "Tm": 458.15, 
	 "num_atms": 50, 
	 "gaussian": { 
		 "optdone": 1, 
		 "sigma_profile": "yes", 
		 "theory": "DFT", 
		 "functional": "B3LYP", 
		 "basiset": "6-31G**", 
		 "properties": { 
			 "R2extent": 8777.7162, 
			 "electric_dipole_moment_norm": 2.44569430019, 
			 "electric_quadrupole_moment_norm": 4.1248552314, 
			 "total_energy": -1154.4459392, 
			 "HOMO_LUMO_gap": 0.21087, 
			 "cosmo_polarized_energy": -12.82, 
			 "cosmo_cavitation_energy": 49.06, 
			 "cosmo_dispersion_energy": -32.78, 
			 "cosmo_repulsion_energy": 2.48, 
			 "cosmo_total_nonelectrostatic_energy": 18.76, 
			 "SMD_solvation_energy": 8.27 
		},
		"coords": [
			{
				"x": -1.0152100162,
				"y": -0.6724418209,
				"z": 2.3920073774,
				"element": "O" 
			},
			{
				"x": -0.5564772086,
				"y": -0.8193354732,
				"z": 1.0505430953,
				"element": "C" 
			},
			{
				"x": -1.7707478124,
				"y": -1.3115059626,
				"z": 0.2400257762,
				"element": "C" 
			},
			{
				"x": -1.8937495706,
				"y": -1.1894794579,
				"z": -1.1502752814,
				"element": "C" 
			},
			{
				"x": -3.0003473929,
				"y": -1.7131638065,
				"z": -1.823859132,
				"element": "C" 
			},
			{
				"x": -4.0043176641,
				"y": -2.3797790985,
				"z": -1.1245120354,
				"element": "C" 
			},
			{
				"x": -3.8862561754,
				"y": -2.5219420589,
				"z": 0.2589527173,
				"element": "C" 
			},
			{
				"x": -2.7835275865,
				"y": -1.9978757722,
				"z": 0.9318764703,
				"element": "C" 
			},
			{
				"x": 0.5471769041,
				"y": -1.9124732246,
				"z": 1.0094120793,
				"element": "C" 
			},
			{
				"x": 0.9160570843,
				"y": -2.5601728604,
				"z": -0.178361611,
				"element": "C" 
			},
			{
				"x": 1.9011887299,
				"y": -3.5478705888,
				"z": -0.1838896269,
				"element": "C" 
			},
			{
				"x": 2.5387118299,
				"y": -3.9143196331,
				"z": 1.0017842213,
				"element": "C" 
			},
			{
				"x": 2.1736071296,
				"y": -3.2860600117,
				"z": 2.192219007,
				"element": "C" 
			},
			{
				"x": 1.1858162445,
				"y": -2.2998838986,
				"z": 2.1946264817,
				"element": "C" 
			},
			{
				"x": 0.0547638426,
				"y": 0.6304693475,
				"z": 0.6665949766,
				"element": "C" 
			},
			{
				"x": 0.9409196361,
				"y": 0.8378896722,
				"z": 1.8070994717,
				"element": "O" 
			},
			{
				"x": 0.9166747068,
				"y": 0.6764448107,
				"z": -0.607879466,
				"element": "C" 
			},
			{
				"x": 2.267068329,
				"y": 0.3010548574,
				"z": -0.5455433664,
				"element": "C" 
			},
			{
				"x": 3.0791071498,
				"y": 0.3520065668,
				"z": -1.6791247527,
				"element": "C" 
			},
			{
				"x": 2.5602303499,
				"y": 0.7822931336,
				"z": -2.900639748,
				"element": "C" 
			},
			{
				"x": 1.2226988999,
				"y": 1.1728881283,
				"z": -2.9748821131,
				"element": "C" 
			},
			{
				"x": 0.4133765836,
				"y": 1.1282781121,
				"z": -1.8384594084,
				"element": "C" 
			},
			{
				"x": -0.9645669347,
				"y": 1.7919757332,
				"z": 0.6974328717,
				"element": "C" 
			},
			{
				"x": -2.30207032,
				"y": 1.6735076066,
				"z": 1.0982836821,
				"element": "C" 
			},
			{
				"x": -3.1248692923,
				"y": 2.7996997309,
				"z": 1.1826623326,
				"element": "C" 
			},
			{
				"x": -2.6307193591,
				"y": 4.0691879067,
				"z": 0.8876466503,
				"element": "C" 
			},
			{
				"x": -1.2969004189,
				"y": 4.2070390302,
				"z": 0.5015266102,
				"element": "C" 
			},
			{
				"x": -0.4794010472,
				"y": 3.0819992558,
				"z": 0.4052392745,
				"element": "C" 
			},
			{
				"x": -0.3658247329,
				"y": -0.0795218722,
				"z": 2.8064419407,
				"element": "H" 
			},
			{
				"x": -1.1290907676,
				"y": -0.6875864776,
				"z": -1.7264717337,
				"element": "H" 
			},
			{
				"x": -3.0705948479,
				"y": -1.5959275581,
				"z": -2.9018419608,
				"element": "H" 
			},
			{
				"x": -4.8642080781,
				"y": -2.7863635629,
				"z": -1.6491913996,
				"element": "H" 
			},
			{
				"x": -4.6547938247,
				"y": -3.0456591236,
				"z": 0.8209829636,
				"element": "H" 
			},
			{
				"x": -2.7014618719,
				"y": -2.1112847461,
				"z": 2.0054961656,
				"element": "H" 
			},
			{
				"x": 0.4274139304,
				"y": -2.3056395797,
				"z": -1.1112153858,
				"element": "H" 
			},
			{
				"x": 2.1648516097,
				"y": -4.0340804007,
				"z": -1.1190671866,
				"element": "H" 
			},
			{
				"x": 3.3030805958,
				"y": -4.6863812586,
				"z": 0.9990665545,
				"element": "H" 
			},
			{
				"x": 2.6508492264,
				"y": -3.5675684016,
				"z": 3.1270267,
				"element": "H" 
			},
			{
				"x": 0.893840875,
				"y": -1.8423759675,
				"z": 3.1313864247,
				"element": "H" 
			},
			{
				"x": 1.0833875377,
				"y": 1.7903674855,
				"z": 1.8887156352,
				"element": "H" 
			},
			{
				"x": 2.6788665669,
				"y": -0.0256226669,
				"z": 0.4011892005,
				"element": "H" 
			},
			{
				"x": 4.1210585638,
				"y": 0.0539897704,
				"z": -1.603583935,
				"element": "H" 
			},
			{
				"x": 3.1929930497,
				"y": 0.8231117854,
				"z": -3.7826894266,
				"element": "H" 
			},
			{
				"x": 0.8074608142,
				"y": 1.5273226798,
				"z": -3.9141309208,
				"element": "H" 
			},
			{
				"x": -0.6146748198,
				"y": 1.4669871201,
				"z": -1.9083823296,
				"element": "H" 
			},
			{
				"x": -2.7057075517,
				"y": 0.7075261085,
				"z": 1.3626981495,
				"element": "H" 
			},
			{
				"x": -4.1596722486,
				"y": 2.6763730284,
				"z": 1.4894824,
				"element": "H" 
			},
			{
				"x": -3.2753218453,
				"y": 4.9406666402,
				"z": 0.9577320006,
				"element": "H" 
			},
			{
				"x": -0.8918504933,
				"y": 5.1871391885,
				"z": 0.26584258,
				"element": "H" 
			},
			{
				"x": 0.548061691,
				"y": 3.2083975846,
				"z": 0.0743070097,
				"element": "H" 
			}
		],
		 "valence_orbital": [ 
			{
				"type": "occ",
				"energy": -0.24353,
				"method": "rhf"
			},
			{
				"type": "occ",
				"energy": -0.24154,
				"method": "rhf"
			},
			{
				"type": "occ",
				"energy": -0.23904,
				"method": "rhf"
			},
			{
				"type": "occ",
				"energy": -0.2356,
				"method": "rhf"
			},
			{
				"type": "occ",
				"energy": -0.22521,
				"method": "rhf"
			},
			{
				"type": "unocc",
				"energy": -0.01434,
				"method": "rhf"
			},
			{
				"type": "unocc",
				"energy": -0.01248,
				"method": "rhf"
			},
			{
				"type": "unocc",
				"energy": -0.00746,
				"method": "rhf"
			},
			{
				"type": "unocc",
				"energy": -0.00401,
				"method": "rhf"
			},
			{
				"type": "unocc",
				"energy": 0.00277,
				"method": "rhf"
			}
		],
		"cosmo_sigma_profile": { 
			"-0.025": 0.0,
			"-0.024": 0.0,
			"-0.023": 0.0,
			"-0.022": 0.0,
			"-0.021": 0.0,
			"-0.02": 0.0,
			"-0.019": 0.0,
			"-0.018": 0.0,
			"-0.017": 0.0,
			"-0.016": 0.0,
			"-0.015": 0.144054315823,
			"-0.014": 1.07004051719,
			"-0.013": 0.635760253152,
			"-0.012": 0.687881377871,
			"-0.011": 1.2782227468,
			"-0.01": 1.40822052992,
			"-0.009": 1.02302838431,
			"-0.008": 1.31551328687,
			"-0.007": 2.24120393933,
			"-0.006": 13.2249385631,
			"-0.005": 30.7241149115,
			"-0.004": 37.1999561087,
			"-0.003": 41.5239831283,
			"-0.002": 28.2724944275,
			"-0.001": 27.1127529984,
			"0.0": 22.5450291487,
			"0.001": 24.8905892827,
			"0.002": 26.455149361,
			"0.003": 28.6745536476,
			"0.004": 32.979307664,
			"0.005": 38.9796169532,
			"0.006": 19.6385008666,
			"0.007": 3.2730082475,
			"0.008": 1.93595514597,
			"0.009": 2.4268770646,
			"0.01": 1.5226454454,
			"0.011": 0.505965289099,
			"0.012": 0.0,
			"0.013": 0.0,
			"0.014": 0.0,
			"0.015": 0.0,
			"0.016": 0.0,
			"0.017": 0.0,
			"0.018": 0.0,
			"0.019": 0.0,
			"0.02": 0.0,
			"0.021": 0.0,
			"0.022": 0.0,
			"0.023": 0.0,
			"0.024": 0.0,
			"0.025": 0.0
		}
	}
}
