{
	 "smiles": "CC1=C(C)C(OCC(=O)N2CCNCC2)=CC=C1", 
	 "Tm": 360.15, 
	 "num_atms": 38, 
	 "gaussian": { 
		 "optdone": 1, 
		 "sigma_profile": "yes", 
		 "theory": "DFT", 
		 "functional": "B3LYP", 
		 "basiset": "6-31G**", 
		 "properties": { 
			 "R2extent": 4954.3211, 
			 "electric_dipole_moment_norm": 2.36464252689, 
			 "electric_quadrupole_moment_norm": 9.74434045228, 
			 "total_energy": -805.491946428, 
			 "HOMO_LUMO_gap": 0.21553, 
			 "cosmo_polarized_energy": -13.04, 
			 "cosmo_cavitation_energy": 38.48, 
			 "cosmo_dispersion_energy": -26.28, 
			 "cosmo_repulsion_energy": 2.02, 
			 "cosmo_total_nonelectrostatic_energy": 14.21, 
			 "SMD_solvation_energy": 3.76 
		},
		"coords": [
			{
				"x": 2.1187802072,
				"y": -0.3076322309,
				"z": 4.048471455,
				"element": "C" 
			},
			{
				"x": 1.5145425152,
				"y": -0.7731738288,
				"z": 2.7439046866,
				"element": "C" 
			},
			{
				"x": 1.5438050399,
				"y": 0.0604345955,
				"z": 1.6098829989,
				"element": "C" 
			},
			{
				"x": 2.1851139357,
				"y": 1.4276195374,
				"z": 1.6684456814,
				"element": "C" 
			},
			{
				"x": 0.9610000283,
				"y": -0.4080165107,
				"z": 0.4143014415,
				"element": "C" 
			},
			{
				"x": 1.007739354,
				"y": 0.4672913156,
				"z": -0.6528950712,
				"element": "O" 
			},
			{
				"x": 0.5955256251,
				"y": 0.0139758947,
				"z": -1.9366524801,
				"element": "C" 
			},
			{
				"x": -0.9203459295,
				"y": -0.1797145941,
				"z": -2.132162819,
				"element": "C" 
			},
			{
				"x": -1.3272540851,
				"y": -1.2342567075,
				"z": -2.6200959503,
				"element": "O" 
			},
			{
				"x": -1.7624689059,
				"y": 0.829875995,
				"z": -1.7724436507,
				"element": "N" 
			},
			{
				"x": -3.2097985373,
				"y": 0.5954504542,
				"z": -1.8689527561,
				"element": "C" 
			},
			{
				"x": -3.9438131066,
				"y": 1.4179188504,
				"z": -0.7816124071,
				"element": "C" 
			},
			{
				"x": -3.1565165761,
				"y": 1.5737417124,
				"z": 0.4393818121,
				"element": "N" 
			},
			{
				"x": -1.9196431483,
				"y": 2.3251738998,
				"z": 0.1838791765,
				"element": "C" 
			},
			{
				"x": -1.3859140894,
				"y": 2.1462136537,
				"z": -1.2630504081,
				"element": "C" 
			},
			{
				"x": 0.37685979,
				"y": -1.6770865136,
				"z": 0.3347900981,
				"element": "C" 
			},
			{
				"x": 0.3672310485,
				"y": -2.4889768074,
				"z": 1.4692535377,
				"element": "C" 
			},
			{
				"x": 0.9262779861,
				"y": -2.0423845301,
				"z": 2.6621713182,
				"element": "C" 
			},
			{
				"x": 1.9713718516,
				"y": -1.0518753105,
				"z": 4.8352316872,
				"element": "H" 
			},
			{
				"x": 3.1975057703,
				"y": -0.1303888214,
				"z": 3.9565747927,
				"element": "H" 
			},
			{
				"x": 1.6737095691,
				"y": 0.6343557418,
				"z": 4.3901861524,
				"element": "H" 
			},
			{
				"x": 1.5852396567,
				"y": 2.1289004425,
				"z": 2.2635448917,
				"element": "H" 
			},
			{
				"x": 2.3028993356,
				"y": 1.8520983549,
				"z": 0.671770904,
				"element": "H" 
			},
			{
				"x": 3.1730522366,
				"y": 1.3818056406,
				"z": 2.1390363921,
				"element": "H" 
			},
			{
				"x": 1.0556675528,
				"y": -0.9455232157,
				"z": -2.1893435198,
				"element": "H" 
			},
			{
				"x": 0.9656636326,
				"y": 0.7695437572,
				"z": -2.6377214025,
				"element": "H" 
			},
			{
				"x": -3.5771135777,
				"y": 0.8483831726,
				"z": -2.8746061719,
				"element": "H" 
			},
			{
				"x": -3.3688333236,
				"y": -0.4768366132,
				"z": -1.7327533025,
				"element": "H" 
			},
			{
				"x": -4.1882852209,
				"y": 2.4203629348,
				"z": -1.1538772108,
				"element": "H" 
			},
			{
				"x": -4.897209053,
				"y": 0.9345382132,
				"z": -0.5454002051,
				"element": "H" 
			},
			{
				"x": -2.9137062381,
				"y": 0.6514997432,
				"z": 0.7920969303,
				"element": "H" 
			},
			{
				"x": -1.1635725446,
				"y": 1.9938374792,
				"z": 0.9010996543,
				"element": "H" 
			},
			{
				"x": -2.0942773239,
				"y": 3.3951694182,
				"z": 0.3628762703,
				"element": "H" 
			},
			{
				"x": -1.8225780035,
				"y": 2.905623775,
				"z": -1.9260055685,
				"element": "H" 
			},
			{
				"x": -0.3055419228,
				"y": 2.2708083846,
				"z": -1.2870836903,
				"element": "H" 
			},
			{
				"x": -0.0772633668,
				"y": -2.0295465751,
				"z": -0.5836059175,
				"element": "H" 
			},
			{
				"x": -0.086629432,
				"y": -3.4742494302,
				"z": 1.4136622352,
				"element": "H" 
			},
			{
				"x": 0.9095792496,
				"y": -2.6788612775,
				"z": 3.5426004152,
				"element": "H" 
			}
		],
		 "valence_orbital": [ 
			{
				"type": "occ",
				"energy": -0.25166,
				"method": "rhf"
			},
			{
				"type": "occ",
				"energy": -0.24711,
				"method": "rhf"
			},
			{
				"type": "occ",
				"energy": -0.23385,
				"method": "rhf"
			},
			{
				"type": "occ",
				"energy": -0.22107,
				"method": "rhf"
			},
			{
				"type": "occ",
				"energy": -0.21495,
				"method": "rhf"
			},
			{
				"type": "unocc",
				"energy": 0.00058,
				"method": "rhf"
			},
			{
				"type": "unocc",
				"energy": 0.01453,
				"method": "rhf"
			},
			{
				"type": "unocc",
				"energy": 0.01709,
				"method": "rhf"
			},
			{
				"type": "unocc",
				"energy": 0.06903,
				"method": "rhf"
			},
			{
				"type": "unocc",
				"energy": 0.09144,
				"method": "rhf"
			}
		],
		"cosmo_sigma_profile": { 
			"-0.025": 0.0,
			"-0.024": 0.0,
			"-0.023": 0.0,
			"-0.022": 0.0,
			"-0.021": 0.0,
			"-0.02": 0.0,
			"-0.019": 0.0,
			"-0.018": 0.0,
			"-0.017": 0.0,
			"-0.016": 0.0,
			"-0.015": 0.0,
			"-0.014": 0.0,
			"-0.013": 0.0,
			"-0.012": 0.0,
			"-0.011": 0.0,
			"-0.01": 0.344338549483,
			"-0.009": 0.945033845285,
			"-0.008": 2.56841026718,
			"-0.007": 5.69229673221,
			"-0.006": 5.76977010675,
			"-0.005": 15.7755986924,
			"-0.004": 37.1938971293,
			"-0.003": 37.2198001009,
			"-0.002": 33.9091591861,
			"-0.001": 28.769102738,
			"0.0": 27.5843356963,
			"0.001": 21.3394598273,
			"0.002": 14.8113013402,
			"0.003": 11.4132969075,
			"0.004": 11.0446501373,
			"0.005": 10.4074841879,
			"0.006": 9.39511329867,
			"0.007": 5.01792748936,
			"0.008": 2.3947969363,
			"0.009": 1.84324686986,
			"0.01": 2.51567540892,
			"0.011": 2.00187876883,
			"0.012": 2.21927553001,
			"0.013": 3.99221186513,
			"0.014": 4.23174289402,
			"0.015": 0.984952101033,
			"0.016": 0.921358586943,
			"0.017": 0.410371882177,
			"0.018": 0.52407167948,
			"0.019": 0.0869375961351,
			"0.02": 0.0,
			"0.021": 0.0,
			"0.022": 0.0,
			"0.023": 0.0,
			"0.024": 0.0,
			"0.025": 0.0
		}
	}
}
