{
	 "smiles": "CC1CNCCN1", 
	 "Tm": 361.65, 
	 "num_atms": 19, 
	 "gaussian": { 
		 "optdone": 1, 
		 "sigma_profile": "yes", 
		 "theory": "DFT", 
		 "functional": "B3LYP", 
		 "basiset": "6-31G**", 
		 "properties": { 
			 "R2extent": 906.1342, 
			 "electric_dipole_moment_norm": 0.127609129767, 
			 "electric_quadrupole_moment_norm": 8.22535893503, 
			 "total_energy": -307.258185163, 
			 "HOMO_LUMO_gap": 0.27474, 
			 "cosmo_polarized_energy": -6.96, 
			 "cosmo_cavitation_energy": 19.73, 
			 "cosmo_dispersion_energy": -15.1, 
			 "cosmo_repulsion_energy": 1.27, 
			 "cosmo_total_nonelectrostatic_energy": 5.9, 
			 "SMD_solvation_energy": -1.8 
		},
		"coords": [
			{
				"x": -0.6790623612,
				"y": 2.6517014125,
				"z": -0.0974098727,
				"element": "C" 
			},
			{
				"x": -0.391494921,
				"y": 1.3734749111,
				"z": 0.6875952181,
				"element": "C" 
			},
			{
				"x": 1.017096091,
				"y": 0.8125315352,
				"z": 0.4001883891,
				"element": "C" 
			},
			{
				"x": 1.2919517676,
				"y": -0.4745784155,
				"z": 1.0500405863,
				"element": "N" 
			},
			{
				"x": 0.229140913,
				"y": -1.4519407662,
				"z": 0.7860178302,
				"element": "C" 
			},
			{
				"x": -1.1784372607,
				"y": -0.9071033701,
				"z": 1.078849253,
				"element": "C" 
			},
			{
				"x": -1.4482967702,
				"y": 0.3805911347,
				"z": 0.4271725922,
				"element": "N" 
			},
			{
				"x": -1.6844773433,
				"y": 3.0198269856,
				"z": 0.1247097769,
				"element": "H" 
			},
			{
				"x": -0.6161636071,
				"y": 2.4688622438,
				"z": -1.177846352,
				"element": "H" 
			},
			{
				"x": 0.0440516893,
				"y": 3.4366205946,
				"z": 0.1468419823,
				"element": "H" 
			},
			{
				"x": -0.4443842589,
				"y": 1.6021360344,
				"z": 1.7644148887,
				"element": "H" 
			},
			{
				"x": 1.1246702679,
				"y": 0.6698735611,
				"z": -0.6863001605,
				"element": "H" 
			},
			{
				"x": 1.7901776321,
				"y": 1.5290273666,
				"z": 0.7050516525,
				"element": "H" 
			},
			{
				"x": 1.3595737613,
				"y": -0.3268961124,
				"z": 2.0560516243,
				"element": "H" 
			},
			{
				"x": 0.2932345263,
				"y": -1.7361253063,
				"z": -0.274862104,
				"element": "H" 
			},
			{
				"x": 0.4301037302,
				"y": -2.3574588085,
				"z": 1.3715692576,
				"element": "H" 
			},
			{
				"x": -1.9495094344,
				"y": -1.6242819124,
				"z": 0.7711283776,
				"element": "H" 
			},
			{
				"x": -1.2918807932,
				"y": -0.7631078199,
				"z": 2.1634806811,
				"element": "H" 
			},
			{
				"x": -1.5102936289,
				"y": 0.2330467315,
				"z": -0.5805936208,
				"element": "H" 
			}
		],
		 "valence_orbital": [ 
			{
				"type": "occ",
				"energy": -0.33731,
				"method": "rhf"
			},
			{
				"type": "occ",
				"energy": -0.33066,
				"method": "rhf"
			},
			{
				"type": "occ",
				"energy": -0.33035,
				"method": "rhf"
			},
			{
				"type": "occ",
				"energy": -0.25141,
				"method": "rhf"
			},
			{
				"type": "occ",
				"energy": -0.19086,
				"method": "rhf"
			},
			{
				"type": "unocc",
				"energy": 0.08388,
				"method": "rhf"
			},
			{
				"type": "unocc",
				"energy": 0.09397,
				"method": "rhf"
			},
			{
				"type": "unocc",
				"energy": 0.11218,
				"method": "rhf"
			},
			{
				"type": "unocc",
				"energy": 0.13151,
				"method": "rhf"
			},
			{
				"type": "unocc",
				"energy": 0.14449,
				"method": "rhf"
			}
		],
		"cosmo_sigma_profile": { 
			"-0.025": 0.0,
			"-0.024": 0.0,
			"-0.023": 0.0,
			"-0.022": 0.0,
			"-0.021": 0.0,
			"-0.02": 0.0,
			"-0.019": 0.0,
			"-0.018": 0.0,
			"-0.017": 0.0,
			"-0.016": 0.0,
			"-0.015": 0.0,
			"-0.014": 0.0,
			"-0.013": 0.0,
			"-0.012": 0.0,
			"-0.011": 0.0,
			"-0.01": 0.135264263259,
			"-0.009": 1.79122688483,
			"-0.008": 2.62054113882,
			"-0.007": 2.79898558889,
			"-0.006": 3.4133530136,
			"-0.005": 4.86657175828,
			"-0.004": 6.89979844011,
			"-0.003": 23.8221465626,
			"-0.002": 23.3789905133,
			"-0.001": 20.7586534942,
			"0.0": 15.4458960359,
			"0.001": 13.2543385123,
			"0.002": 6.42713588508,
			"0.003": 3.01770676497,
			"0.004": 1.81833138109,
			"0.005": 1.97454159171,
			"0.006": 2.18138437335,
			"0.007": 1.77517056779,
			"0.008": 1.45852261386,
			"0.009": 1.75166906356,
			"0.01": 1.71583840916,
			"0.011": 0.672269349108,
			"0.012": 1.23970743762,
			"0.013": 1.859974625,
			"0.014": 1.54380653909,
			"0.015": 0.94563248957,
			"0.016": 0.661771883462,
			"0.017": 0.798278006437,
			"0.018": 1.61806602294,
			"0.019": 0.601343711147,
			"0.02": 0.0,
			"0.021": 0.0,
			"0.022": 0.0,
			"0.023": 0.0,
			"0.024": 0.0,
			"0.025": 0.0
		}
	}
}
