{
	 "smiles": "OC(=O)CCCCC1=CC=C(Br)C=C1", 
	 "Tm": 364.15, 
	 "num_atms": 27, 
	 "gaussian": { 
		 "optdone": 1, 
		 "sigma_profile": "yes", 
		 "theory": "DFT", 
		 "functional": "B3LYP", 
		 "basiset": "6-31G**", 
		 "properties": { 
			 "R2extent": 8137.7079, 
			 "electric_dipole_moment_norm": 3.83609164776, 
			 "electric_quadrupole_moment_norm": 16.8388620373, 
			 "total_energy": -3148.87666122, 
			 "HOMO_LUMO_gap": 0.21836, 
			 "cosmo_polarized_energy": -14.17, 
			 "cosmo_cavitation_energy": 31.81, 
			 "cosmo_dispersion_energy": -22.55, 
			 "cosmo_repulsion_energy": 1.79, 
			 "cosmo_total_nonelectrostatic_energy": 11.05, 
			 "SMD_solvation_energy": 4.52 
		},
		"coords": [
			{
				"x": -2.9085433745,
				"y": 2.2293560073,
				"z": 0.8778882764,
				"element": "O" 
			},
			{
				"x": -2.6680606129,
				"y": 0.900072224,
				"z": 0.7392330297,
				"element": "C" 
			},
			{
				"x": -1.9725877312,
				"y": 0.3315968961,
				"z": 1.5465640341,
				"element": "O" 
			},
			{
				"x": -3.3670353554,
				"y": 0.2270913098,
				"z": -0.437945387,
				"element": "C" 
			},
			{
				"x": -2.9150819405,
				"y": -1.222211452,
				"z": -0.6785899463,
				"element": "C" 
			},
			{
				"x": -1.7479302369,
				"y": -1.423920338,
				"z": -1.6616492073,
				"element": "C" 
			},
			{
				"x": -0.3997161469,
				"y": -0.7547807711,
				"z": -1.2997189852,
				"element": "C" 
			},
			{
				"x": -0.2588344165,
				"y": 0.7064366545,
				"z": -1.691402558,
				"element": "C" 
			},
			{
				"x": -0.4074975408,
				"y": 1.1090145723,
				"z": -3.0286315356,
				"element": "C" 
			},
			{
				"x": -0.2544571782,
				"y": 2.440705476,
				"z": -3.4116799889,
				"element": "C" 
			},
			{
				"x": 0.0571261862,
				"y": 3.3933513372,
				"z": -2.4420227083,
				"element": "C" 
			},
			{
				"x": 0.2604774742,
				"y": 5.2263638676,
				"z": -2.9547117985,
				"element": "Br" 
			},
			{
				"x": 0.2218062199,
				"y": 3.0280425072,
				"z": -1.1091837075,
				"element": "C" 
			},
			{
				"x": 0.0660635843,
				"y": 1.6881261762,
				"z": -0.7456265618,
				"element": "C" 
			},
			{
				"x": -3.4330670913,
				"y": 2.5549580881,
				"z": 0.1324635495,
				"element": "H" 
			},
			{
				"x": -3.233615142,
				"y": 0.843142552,
				"z": -1.3366044074,
				"element": "H" 
			},
			{
				"x": -4.4414534527,
				"y": 0.2527235479,
				"z": -0.2073978658,
				"element": "H" 
			},
			{
				"x": -2.6552916227,
				"y": -1.6553718807,
				"z": 0.2929871862,
				"element": "H" 
			},
			{
				"x": -3.7695454491,
				"y": -1.7923032491,
				"z": -1.0608117435,
				"element": "H" 
			},
			{
				"x": -2.0574508243,
				"y": -1.1003659655,
				"z": -2.6642865255,
				"element": "H" 
			},
			{
				"x": -1.5785689325,
				"y": -2.5048198716,
				"z": -1.7379821887,
				"element": "H" 
			},
			{
				"x": -0.2165813667,
				"y": -0.8636545648,
				"z": -0.2262268441,
				"element": "H" 
			},
			{
				"x": 0.3958344417,
				"y": -1.315168939,
				"z": -1.8086338283,
				"element": "H" 
			},
			{
				"x": -0.637294304,
				"y": 0.370320835,
				"z": -3.7925167586,
				"element": "H" 
			},
			{
				"x": -0.3695762293,
				"y": 2.7348844189,
				"z": -4.4489523128,
				"element": "H" 
			},
			{
				"x": 0.465555875,
				"y": 3.7747961291,
				"z": -0.362063654,
				"element": "H" 
			},
			{
				"x": 0.1842251671,
				"y": 1.4084144328,
				"z": 0.2967024373,
				"element": "H" 
			}
		],
		 "valence_orbital": [ 
			{
				"type": "occ",
				"energy": -0.3029,
				"method": "rhf"
			},
			{
				"type": "occ",
				"energy": -0.28531,
				"method": "rhf"
			},
			{
				"type": "occ",
				"energy": -0.27521,
				"method": "rhf"
			},
			{
				"type": "occ",
				"energy": -0.26119,
				"method": "rhf"
			},
			{
				"type": "occ",
				"energy": -0.23579,
				"method": "rhf"
			},
			{
				"type": "unocc",
				"energy": -0.01743,
				"method": "rhf"
			},
			{
				"type": "unocc",
				"energy": -0.01146,
				"method": "rhf"
			},
			{
				"type": "unocc",
				"energy": 0.00796,
				"method": "rhf"
			},
			{
				"type": "unocc",
				"energy": 0.01096,
				"method": "rhf"
			},
			{
				"type": "unocc",
				"energy": 0.05507,
				"method": "rhf"
			}
		],
		"cosmo_sigma_profile": { 
			"-0.025": 0.0,
			"-0.024": 0.0,
			"-0.023": 0.0,
			"-0.022": 0.0,
			"-0.021": 0.0,
			"-0.02": 0.0,
			"-0.019": 0.270612270436,
			"-0.018": 1.05041958649,
			"-0.017": 1.05465578693,
			"-0.016": 0.921968299255,
			"-0.015": 0.85805182165,
			"-0.014": 1.01783125052,
			"-0.013": 1.05831686918,
			"-0.012": 1.42524890299,
			"-0.011": 0.818157533138,
			"-0.01": 0.698524272331,
			"-0.009": 0.545329243014,
			"-0.008": 1.96896803765,
			"-0.007": 4.51299370975,
			"-0.006": 9.03443564377,
			"-0.005": 10.2611306594,
			"-0.004": 16.1390004506,
			"-0.003": 22.0366138613,
			"-0.002": 25.5656525247,
			"-0.001": 24.9382075493,
			"0.0": 21.3655691951,
			"0.001": 14.1570259233,
			"0.002": 17.9756203861,
			"0.003": 16.8965269146,
			"0.004": 19.3646809916,
			"0.005": 14.5537617426,
			"0.006": 3.22163559739,
			"0.007": 2.08474561113,
			"0.008": 2.56972776736,
			"0.009": 2.93898968665,
			"0.01": 3.53730447816,
			"0.011": 4.43937809671,
			"0.012": 4.31377454223,
			"0.013": 1.89064850846,
			"0.014": 0.168421474234,
			"0.015": 0.0,
			"0.016": 0.0,
			"0.017": 0.0,
			"0.018": 0.0,
			"0.019": 0.0,
			"0.02": 0.0,
			"0.021": 0.0,
			"0.022": 0.0,
			"0.023": 0.0,
			"0.024": 0.0,
			"0.025": 0.0
		}
	}
}
