{
	 "smiles": "FC1=CC2=C(C=CN2)C=C1", 
	 "Tm": 349.15, 
	 "num_atms": 16, 
	 "gaussian": { 
		 "optdone": 1, 
		 "sigma_profile": "yes", 
		 "theory": "DFT", 
		 "functional": "B3LYP", 
		 "basiset": "6-31G**", 
		 "properties": { 
			 "R2extent": 1390.8408, 
			 "electric_dipole_moment_norm": 2.82383406382, 
			 "electric_quadrupole_moment_norm": 13.481954619, 
			 "total_energy": -463.053079733, 
			 "HOMO_LUMO_gap": 0.19274, 
			 "cosmo_polarized_energy": -8.3, 
			 "cosmo_cavitation_energy": 20.37, 
			 "cosmo_dispersion_energy": -15.38, 
			 "cosmo_repulsion_energy": 1.21, 
			 "cosmo_total_nonelectrostatic_energy": 6.2, 
			 "SMD_solvation_energy": 4.01 
		},
		"coords": [
			{
				"x": -1.0848054017,
				"y": 0.6497338554,
				"z": 2.8538227722,
				"element": "F" 
			},
			{
				"x": -0.5406816981,
				"y": 0.3619383407,
				"z": 1.6482998392,
				"element": "C" 
			},
			{
				"x": -0.5118030222,
				"y": -0.9586076345,
				"z": 1.2351717636,
				"element": "C" 
			},
			{
				"x": 0.0621176586,
				"y": -1.1982307156,
				"z": -0.0192424253,
				"element": "C" 
			},
			{
				"x": 0.5896004394,
				"y": -0.1555659551,
				"z": -0.8342919611,
				"element": "C" 
			},
			{
				"x": 1.0874356572,
				"y": -0.7758463021,
				"z": -2.0326755625,
				"element": "C" 
			},
			{
				"x": 0.85803641,
				"y": -2.1196585151,
				"z": -1.9164521255,
				"element": "C" 
			},
			{
				"x": 0.2395990386,
				"y": -2.3807391022,
				"z": -0.7037215407,
				"element": "N" 
			},
			{
				"x": 0.5313891838,
				"y": 1.166527478,
				"z": -0.3599680522,
				"element": "C" 
			},
			{
				"x": -0.0342183135,
				"y": 1.4235809237,
				"z": 0.8818307072,
				"element": "C" 
			},
			{
				"x": -0.9167998811,
				"y": -1.7429511857,
				"z": 1.8652393444,
				"element": "H" 
			},
			{
				"x": 1.5558889948,
				"y": -0.2825770009,
				"z": -2.8722462163,
				"element": "H" 
			},
			{
				"x": 1.0832047644,
				"y": -2.9262462212,
				"z": -2.5992562483,
				"element": "H" 
			},
			{
				"x": -0.03611964,
				"y": -3.2914748443,
				"z": -0.3754135895,
				"element": "H" 
			},
			{
				"x": 0.9248871995,
				"y": 1.9837462083,
				"z": -0.9574543027,
				"element": "H" 
			},
			{
				"x": -0.0969313898,
				"y": 2.4298706706,
				"z": 1.2810575975,
				"element": "H" 
			}
		],
		 "valence_orbital": [ 
			{
				"type": "occ",
				"energy": -0.33837,
				"method": "rhf"
			},
			{
				"type": "occ",
				"energy": -0.32408,
				"method": "rhf"
			},
			{
				"type": "occ",
				"energy": -0.27604,
				"method": "rhf"
			},
			{
				"type": "occ",
				"energy": -0.22239,
				"method": "rhf"
			},
			{
				"type": "occ",
				"energy": -0.2021,
				"method": "rhf"
			},
			{
				"type": "unocc",
				"energy": -0.00936,
				"method": "rhf"
			},
			{
				"type": "unocc",
				"energy": 0.02885,
				"method": "rhf"
			},
			{
				"type": "unocc",
				"energy": 0.07108,
				"method": "rhf"
			},
			{
				"type": "unocc",
				"energy": 0.07714,
				"method": "rhf"
			},
			{
				"type": "unocc",
				"energy": 0.10412,
				"method": "rhf"
			}
		],
		"cosmo_sigma_profile": { 
			"-0.025": 0.0,
			"-0.024": 0.0,
			"-0.023": 0.0,
			"-0.022": 0.0,
			"-0.021": 0.0,
			"-0.02": 0.0,
			"-0.019": 0.0,
			"-0.018": 0.0,
			"-0.017": 0.0,
			"-0.016": 0.61593092144,
			"-0.015": 1.66609145449,
			"-0.014": 1.33439384156,
			"-0.013": 1.08965593388,
			"-0.012": 1.31338628971,
			"-0.011": 1.14154306222,
			"-0.01": 1.37554328496,
			"-0.009": 1.69109240658,
			"-0.008": 3.57124616498,
			"-0.007": 5.05644049322,
			"-0.006": 5.91923444632,
			"-0.005": 9.63062381262,
			"-0.004": 7.85857617299,
			"-0.003": 9.20567262455,
			"-0.002": 8.03047784394,
			"-0.001": 6.87306889116,
			"0.0": 7.47226235083,
			"0.001": 8.13160065265,
			"0.002": 11.4639185947,
			"0.003": 13.713459426,
			"0.004": 18.8529368962,
			"0.005": 24.7536319007,
			"0.006": 9.7944352221,
			"0.007": 3.19618820787,
			"0.008": 0.144269179376,
			"0.009": 0.0,
			"0.01": 0.0,
			"0.011": 0.0,
			"0.012": 0.0,
			"0.013": 0.0,
			"0.014": 0.0,
			"0.015": 0.0,
			"0.016": 0.0,
			"0.017": 0.0,
			"0.018": 0.0,
			"0.019": 0.0,
			"0.02": 0.0,
			"0.021": 0.0,
			"0.022": 0.0,
			"0.023": 0.0,
			"0.024": 0.0,
			"0.025": 0.0
		}
	}
}
