{
	 "smiles": "CC1=NC(=NN1C1=CC=CC=C1)C(O)=O", 
	 "Tm": 446.15, 
	 "num_atms": 24, 
	 "gaussian": { 
		 "optdone": 1, 
		 "sigma_profile": "yes", 
		 "theory": "DFT", 
		 "functional": "B3LYP", 
		 "basiset": "6-31G**", 
		 "properties": { 
			 "R2extent": 3732.2232, 
			 "electric_dipole_moment_norm": 8.11104100039, 
			 "electric_quadrupole_moment_norm": 16.8076613739, 
			 "total_energy": -701.195912074, 
			 "HOMO_LUMO_gap": 0.20705, 
			 "cosmo_polarized_energy": -17.1, 
			 "cosmo_cavitation_energy": 29.14, 
			 "cosmo_dispersion_energy": -21.33, 
			 "cosmo_repulsion_energy": 1.67, 
			 "cosmo_total_nonelectrostatic_energy": 9.49, 
			 "SMD_solvation_energy": 4.37 
		},
		"coords": [
			{
				"x": 0.1777134926,
				"y": -2.3230521122,
				"z": -0.6686562687,
				"element": "C" 
			},
			{
				"x": 0.5457456555,
				"y": -1.1161025748,
				"z": 0.1292682191,
				"element": "C" 
			},
			{
				"x": 1.6213961561,
				"y": -1.0053446332,
				"z": 0.8918184039,
				"element": "N" 
			},
			{
				"x": 1.551571301,
				"y": 0.271888097,
				"z": 1.3703080069,
				"element": "C" 
			},
			{
				"x": 0.5048758926,
				"y": 0.9645145612,
				"z": 0.9564414966,
				"element": "N" 
			},
			{
				"x": -0.1454979825,
				"y": 0.0685425775,
				"z": 0.1673248363,
				"element": "N" 
			},
			{
				"x": -1.3320192853,
				"y": 0.4666538051,
				"z": -0.521037888,
				"element": "C" 
			},
			{
				"x": -1.393554151,
				"y": 1.7562123013,
				"z": -1.0586376465,
				"element": "C" 
			},
			{
				"x": -2.5454504121,
				"y": 2.160316956,
				"z": -1.7293302832,
				"element": "C" 
			},
			{
				"x": -3.6260781179,
				"y": 1.2856974139,
				"z": -1.8706137634,
				"element": "C" 
			},
			{
				"x": -3.5579932415,
				"y": 0.0046696903,
				"z": -1.322360777,
				"element": "C" 
			},
			{
				"x": -2.4150820896,
				"y": -0.4084984216,
				"z": -0.6361732245,
				"element": "C" 
			},
			{
				"x": 2.6052108221,
				"y": 0.8067959318,
				"z": 2.2854994999,
				"element": "C" 
			},
			{
				"x": 3.5625466467,
				"y": -0.1065369418,
				"z": 2.556560728,
				"element": "O" 
			},
			{
				"x": 2.6175931352,
				"y": 1.9236609912,
				"z": 2.7389482854,
				"element": "O" 
			},
			{
				"x": 1.0835579486,
				"y": -2.9034482523,
				"z": -0.8507906846,
				"element": "H" 
			},
			{
				"x": -0.2758307609,
				"y": -2.0512245439,
				"z": -1.6249369043,
				"element": "H" 
			},
			{
				"x": -0.5282234612,
				"y": -2.9645741592,
				"z": -0.1298514131,
				"element": "H" 
			},
			{
				"x": -0.5479374634,
				"y": 2.4224755558,
				"z": -0.9346367362,
				"element": "H" 
			},
			{
				"x": -2.596204949,
				"y": 3.1614121387,
				"z": -2.1462518513,
				"element": "H" 
			},
			{
				"x": -4.5195834095,
				"y": 1.6048104151,
				"z": -2.3982499922,
				"element": "H" 
			},
			{
				"x": -4.4007032718,
				"y": -0.6739093183,
				"z": -1.4118593077,
				"element": "H" 
			},
			{
				"x": -2.3800452898,
				"y": -1.388531093,
				"z": -0.1743845179,
				"element": "H" 
			},
			{
				"x": 3.338392835,
				"y": -0.9260283848,
				"z": 2.0774017827,
				"element": "H" 
			}
		],
		 "valence_orbital": [ 
			{
				"type": "occ",
				"energy": -0.30207,
				"method": "rhf"
			},
			{
				"type": "occ",
				"energy": -0.28484,
				"method": "rhf"
			},
			{
				"type": "occ",
				"energy": -0.2766,
				"method": "rhf"
			},
			{
				"type": "occ",
				"energy": -0.26633,
				"method": "rhf"
			},
			{
				"type": "occ",
				"energy": -0.25832,
				"method": "rhf"
			},
			{
				"type": "unocc",
				"energy": -0.05127,
				"method": "rhf"
			},
			{
				"type": "unocc",
				"energy": -0.02744,
				"method": "rhf"
			},
			{
				"type": "unocc",
				"energy": -0.02227,
				"method": "rhf"
			},
			{
				"type": "unocc",
				"energy": 0.0085,
				"method": "rhf"
			},
			{
				"type": "unocc",
				"energy": 0.06683,
				"method": "rhf"
			}
		],
		"cosmo_sigma_profile": { 
			"-0.025": 0.0,
			"-0.024": 0.0,
			"-0.023": 0.0,
			"-0.022": 0.0,
			"-0.021": 0.0,
			"-0.02": 0.0,
			"-0.019": 0.0,
			"-0.018": 0.0,
			"-0.017": 0.0,
			"-0.016": 0.0,
			"-0.015": 0.0961703515348,
			"-0.014": 0.509411106905,
			"-0.013": 0.301448237018,
			"-0.012": 0.82663608924,
			"-0.011": 0.603952578095,
			"-0.01": 0.571733771255,
			"-0.009": 1.4673707016,
			"-0.008": 3.90113661899,
			"-0.007": 8.45211740605,
			"-0.006": 18.0631154099,
			"-0.005": 21.5486845114,
			"-0.004": 18.9382014748,
			"-0.003": 21.1217085154,
			"-0.002": 18.501372657,
			"-0.001": 11.3200893429,
			"0.0": 10.5290958824,
			"0.001": 11.366381378,
			"0.002": 12.0247757556,
			"0.003": 15.7089900053,
			"0.004": 13.3292528442,
			"0.005": 4.37612758271,
			"0.006": 3.96449520026,
			"0.007": 4.68899538912,
			"0.008": 5.44239834631,
			"0.009": 5.6145124944,
			"0.01": 6.24780043921,
			"0.011": 7.08800713623,
			"0.012": 6.06449393857,
			"0.013": 1.40743748261,
			"0.014": 0.0,
			"0.015": 0.0,
			"0.016": 0.0,
			"0.017": 0.0,
			"0.018": 0.0,
			"0.019": 0.0,
			"0.02": 0.0,
			"0.021": 0.0,
			"0.022": 0.0,
			"0.023": 0.0,
			"0.024": 0.0,
			"0.025": 0.0
		}
	}
}
