{
	 "smiles": "ClCC1=CC=C(OC2=C(Cl)C(Cl)=CC=C2)C=C1", 
	 "Tm": 336.15, 
	 "num_atms": 26, 
	 "gaussian": { 
		 "optdone": 1, 
		 "sigma_profile": "yes", 
		 "theory": "DFT", 
		 "functional": "B3LYP", 
		 "basiset": "6-31G**", 
		 "properties": { 
			 "R2extent": 8802.8619, 
			 "electric_dipole_moment_norm": 4.4481435386, 
			 "electric_quadrupole_moment_norm": 12.5058523856, 
			 "total_energy": -1956.59865764, 
			 "HOMO_LUMO_gap": 0.19819, 
			 "cosmo_polarized_energy": -10.35, 
			 "cosmo_cavitation_energy": 36.25, 
			 "cosmo_dispersion_energy": -26.09, 
			 "cosmo_repulsion_energy": 2.05, 
			 "cosmo_total_nonelectrostatic_energy": 12.21, 
			 "SMD_solvation_energy": 5.42 
		},
		"coords": [
			{
				"x": -2.4459862816,
				"y": -0.3489970001,
				"z": -5.2716093828,
				"element": "Cl" 
			},
			{
				"x": -2.8043158609,
				"y": 0.4439393222,
				"z": -3.6498194396,
				"element": "C" 
			},
			{
				"x": -1.6180291735,
				"y": 0.4466368813,
				"z": -2.7359710561,
				"element": "C" 
			},
			{
				"x": -0.7090802637,
				"y": 1.5131621467,
				"z": -2.745897376,
				"element": "C" 
			},
			{
				"x": 0.3908312534,
				"y": 1.5249029074,
				"z": -1.8927436292,
				"element": "C" 
			},
			{
				"x": 0.5939524511,
				"y": 0.4537460963,
				"z": -1.0210429235,
				"element": "C" 
			},
			{
				"x": 1.7450407572,
				"y": 0.4895921773,
				"z": -0.2561636641,
				"element": "O" 
			},
			{
				"x": 1.744625667,
				"y": 0.0500213214,
				"z": 1.0419218364,
				"element": "C" 
			},
			{
				"x": 2.9123309419,
				"y": -0.5862655296,
				"z": 1.5018779234,
				"element": "C" 
			},
			{
				"x": 4.2226088704,
				"y": -0.8588682423,
				"z": 0.3923156916,
				"element": "Cl" 
			},
			{
				"x": 2.9874314157,
				"y": -0.9803072047,
				"z": 2.8456981563,
				"element": "C" 
			},
			{
				"x": 4.4159365994,
				"y": -1.7717084659,
				"z": 3.4654271951,
				"element": "Cl" 
			},
			{
				"x": 1.9191706257,
				"y": -0.7546945971,
				"z": 3.7154196095,
				"element": "C" 
			},
			{
				"x": 0.7707926575,
				"y": -0.123629231,
				"z": 3.2433028019,
				"element": "C" 
			},
			{
				"x": 0.6796885476,
				"y": 0.2843712264,
				"z": 1.91502689,
				"element": "C" 
			},
			{
				"x": -0.291122421,
				"y": -0.627842108,
				"z": -1.0007623687,
				"element": "C" 
			},
			{
				"x": -1.3907177745,
				"y": -0.6195853858,
				"z": -1.8555508429,
				"element": "C" 
			},
			{
				"x": -3.6398571792,
				"y": -0.1203725248,
				"z": -3.2355617218,
				"element": "H" 
			},
			{
				"x": -3.1359471523,
				"y": 1.4533250397,
				"z": -3.8934893755,
				"element": "H" 
			},
			{
				"x": -0.8643608796,
				"y": 2.3453305625,
				"z": -3.4272026267,
				"element": "H" 
			},
			{
				"x": 1.0985700144,
				"y": 2.3468007094,
				"z": -1.8909795542,
				"element": "H" 
			},
			{
				"x": 2.0009100059,
				"y": -1.0717277448,
				"z": 4.7483823867,
				"element": "H" 
			},
			{
				"x": -0.0573991203,
				"y": 0.0604833282,
				"z": 3.9201457584,
				"element": "H" 
			},
			{
				"x": -0.206389929,
				"y": 0.7877479038,
				"z": 1.5456087095,
				"element": "H" 
			},
			{
				"x": -0.1181144103,
				"y": -1.4626603129,
				"z": -0.3305772219,
				"element": "H" 
			},
			{
				"x": -2.0765693613,
				"y": -1.4625012757,
				"z": -1.8455557757,
				"element": "H" 
			}
		],
		 "valence_orbital": [ 
			{
				"type": "occ",
				"energy": -0.29537,
				"method": "rhf"
			},
			{
				"type": "occ",
				"energy": -0.27142,
				"method": "rhf"
			},
			{
				"type": "occ",
				"energy": -0.26397,
				"method": "rhf"
			},
			{
				"type": "occ",
				"energy": -0.25489,
				"method": "rhf"
			},
			{
				"type": "occ",
				"energy": -0.23521,
				"method": "rhf"
			},
			{
				"type": "unocc",
				"energy": -0.03702,
				"method": "rhf"
			},
			{
				"type": "unocc",
				"energy": -0.0323,
				"method": "rhf"
			},
			{
				"type": "unocc",
				"energy": -0.01849,
				"method": "rhf"
			},
			{
				"type": "unocc",
				"energy": -0.01801,
				"method": "rhf"
			},
			{
				"type": "unocc",
				"energy": -0.00146,
				"method": "rhf"
			}
		],
		"cosmo_sigma_profile": { 
			"-0.025": 0.0,
			"-0.024": 0.0,
			"-0.023": 0.0,
			"-0.022": 0.0,
			"-0.021": 0.0,
			"-0.02": 0.0,
			"-0.019": 0.0,
			"-0.018": 0.0,
			"-0.017": 0.0,
			"-0.016": 0.0,
			"-0.015": 0.0,
			"-0.014": 0.0,
			"-0.013": 0.0,
			"-0.012": 0.0,
			"-0.011": 0.0,
			"-0.01": 0.0,
			"-0.009": 0.0,
			"-0.008": 4.57380654514,
			"-0.007": 17.0806019241,
			"-0.006": 19.0821769613,
			"-0.005": 17.0272278582,
			"-0.004": 14.9936132514,
			"-0.003": 15.495700066,
			"-0.002": 14.7724854764,
			"-0.001": 16.9660413672,
			"0.0": 25.4005904757,
			"0.001": 29.2661428767,
			"0.002": 27.9647779343,
			"0.003": 30.3356829992,
			"0.004": 28.8949136411,
			"0.005": 13.303389291,
			"0.006": 10.4008105837,
			"0.007": 10.4616944079,
			"0.008": 1.45548945344,
			"0.009": 0.267667193113,
			"0.01": 0.0,
			"0.011": 0.0,
			"0.012": 0.0,
			"0.013": 0.0,
			"0.014": 0.0,
			"0.015": 0.0,
			"0.016": 0.0,
			"0.017": 0.0,
			"0.018": 0.0,
			"0.019": 0.0,
			"0.02": 0.0,
			"0.021": 0.0,
			"0.022": 0.0,
			"0.023": 0.0,
			"0.024": 0.0,
			"0.025": 0.0
		}
	}
}
