{
	 "smiles": "COCC(=O)OCCCS(=O)(=O)C1=CC=C(S1)S(N)(=O)=O", 
	 "Tm": 367.15, 
	 "num_atms": 36, 
	 "gaussian": { 
		 "optdone": 1, 
		 "sigma_profile": "yes", 
		 "theory": "DFT", 
		 "functional": "B3LYP", 
		 "basiset": "6-31G**", 
		 "properties": { 
			 "R2extent": 9488.5381, 
			 "electric_dipole_moment_norm": 1.24487535922, 
			 "electric_quadrupole_moment_norm": 34.4862721279, 
			 "total_energy": -2165.81382303, 
			 "HOMO_LUMO_gap": 0.18811, 
			 "cosmo_polarized_energy": -28.28, 
			 "cosmo_cavitation_energy": 43.47, 
			 "cosmo_dispersion_energy": -31.01, 
			 "cosmo_repulsion_energy": 2.28, 
			 "cosmo_total_nonelectrostatic_energy": 14.74, 
			 "SMD_solvation_energy": 7.29 
		},
		"coords": [
			{
				"x": -1.891659917,
				"y": -2.2039320251,
				"z": 2.4973228386,
				"element": "C" 
			},
			{
				"x": -2.7099564317,
				"y": -1.6810220793,
				"z": 1.4510015301,
				"element": "O" 
			},
			{
				"x": -3.5889415798,
				"y": -0.6758098507,
				"z": 1.8894362043,
				"element": "C" 
			},
			{
				"x": -2.9642811848,
				"y": 0.697110532,
				"z": 2.1507791559,
				"element": "C" 
			},
			{
				"x": -3.4235817675,
				"y": 1.4969396988,
				"z": 2.936231682,
				"element": "O" 
			},
			{
				"x": -1.9016772534,
				"y": 0.9372734962,
				"z": 1.3585396469,
				"element": "O" 
			},
			{
				"x": -1.2971494708,
				"y": 2.2402615842,
				"z": 1.5102068578,
				"element": "C" 
			},
			{
				"x": -0.2700891652,
				"y": 2.4385430907,
				"z": 0.3954498922,
				"element": "C" 
			},
			{
				"x": 1.1793962271,
				"y": 2.0362724544,
				"z": 0.6861395184,
				"element": "C" 
			},
			{
				"x": 1.5675820845,
				"y": 0.2770456813,
				"z": 0.9685884674,
				"element": "S" 
			},
			{
				"x": 0.7674118747,
				"y": -0.2055426141,
				"z": 2.1024857241,
				"element": "O" 
			},
			{
				"x": 3.0352174752,
				"y": 0.1840114846,
				"z": 0.9822132779,
				"element": "O" 
			},
			{
				"x": 1.0159458026,
				"y": -0.5651365445,
				"z": -0.5061962399,
				"element": "C" 
			},
			{
				"x": -0.2336034653,
				"y": -1.0861604555,
				"z": -0.7437779241,
				"element": "C" 
			},
			{
				"x": -0.3155392686,
				"y": -1.6819880603,
				"z": -2.0324140069,
				"element": "C" 
			},
			{
				"x": 0.8682844741,
				"y": -1.5946576548,
				"z": -2.7225958346,
				"element": "C" 
			},
			{
				"x": 2.1207683981,
				"y": -0.7891139088,
				"z": -1.8325804138,
				"element": "S" 
			},
			{
				"x": 1.1325911109,
				"y": -2.2181274107,
				"z": -4.3660453946,
				"element": "S" 
			},
			{
				"x": 2.0411198492,
				"y": -3.6139404739,
				"z": -4.1042853978,
				"element": "N" 
			},
			{
				"x": 2.0161609069,
				"y": -1.2856936406,
				"z": -5.065497516,
				"element": "O" 
			},
			{
				"x": -0.1874501494,
				"y": -2.593493702,
				"z": -4.8744090996,
				"element": "O" 
			},
			{
				"x": -1.3142635702,
				"y": -3.0222777513,
				"z": 2.0628577814,
				"element": "H" 
			},
			{
				"x": -2.5119786233,
				"y": -2.5968748187,
				"z": 3.3154238326,
				"element": "H" 
			},
			{
				"x": -1.1955694351,
				"y": -1.4518099744,
				"z": 2.8837438753,
				"element": "H" 
			},
			{
				"x": -4.1203547414,
				"y": -0.9593491086,
				"z": 2.8081120086,
				"element": "H" 
			},
			{
				"x": -4.337547793,
				"y": -0.5401506384,
				"z": 1.0991566175,
				"element": "H" 
			},
			{
				"x": -0.8513418076,
				"y": 2.3122117038,
				"z": 2.5068731469,
				"element": "H" 
			},
			{
				"x": -2.0880283521,
				"y": 2.9921159601,
				"z": 1.4437174656,
				"element": "H" 
			},
			{
				"x": -0.6317888295,
				"y": 1.9462440003,
				"z": -0.5133000744,
				"element": "H" 
			},
			{
				"x": -0.2327525275,
				"y": 3.5099925179,
				"z": 0.1645914559,
				"element": "H" 
			},
			{
				"x": 1.5543788613,
				"y": 2.5073434923,
				"z": 1.6017252079,
				"element": "H" 
			},
			{
				"x": 1.8365425171,
				"y": 2.3340957154,
				"z": -0.1354418993,
				"element": "H" 
			},
			{
				"x": -1.0508200052,
				"y": -1.0488751493,
				"z": -0.030681707,
				"element": "H" 
			},
			{
				"x": -1.2009086668,
				"y": -2.1514531028,
				"z": -2.442812543,
				"element": "H" 
			},
			{
				"x": 2.8471927791,
				"y": -3.6107180141,
				"z": -4.7236678829,
				"element": "H" 
			},
			{
				"x": 1.4691916445,
				"y": -4.4453344342,
				"z": -4.2253902535,
				"element": "H" 
			}
		],
		 "valence_orbital": [ 
			{
				"type": "occ",
				"energy": -0.30018,
				"method": "rhf"
			},
			{
				"type": "occ",
				"energy": -0.29695,
				"method": "rhf"
			},
			{
				"type": "occ",
				"energy": -0.28431,
				"method": "rhf"
			},
			{
				"type": "occ",
				"energy": -0.27236,
				"method": "rhf"
			},
			{
				"type": "occ",
				"energy": -0.26248,
				"method": "rhf"
			},
			{
				"type": "unocc",
				"energy": -0.07437,
				"method": "rhf"
			},
			{
				"type": "unocc",
				"energy": -0.00371,
				"method": "rhf"
			},
			{
				"type": "unocc",
				"energy": 0.00016,
				"method": "rhf"
			},
			{
				"type": "unocc",
				"energy": 0.01281,
				"method": "rhf"
			},
			{
				"type": "unocc",
				"energy": 0.01887,
				"method": "rhf"
			}
		],
		"cosmo_sigma_profile": { 
			"-0.025": 0.0,
			"-0.024": 0.0,
			"-0.023": 0.0,
			"-0.022": 0.0,
			"-0.021": 0.0,
			"-0.02": 0.0,
			"-0.019": 0.0,
			"-0.018": 0.0,
			"-0.017": 0.0,
			"-0.016": 0.339533964459,
			"-0.015": 2.28234471259,
			"-0.014": 2.44766292967,
			"-0.013": 2.74123262113,
			"-0.012": 3.04922966366,
			"-0.011": 1.50460698853,
			"-0.01": 2.20222787416,
			"-0.009": 6.29717678098,
			"-0.008": 12.6436646695,
			"-0.007": 13.8959701548,
			"-0.006": 21.755106164,
			"-0.005": 24.3188055839,
			"-0.004": 23.6340112961,
			"-0.003": 21.425832139,
			"-0.002": 21.9420123241,
			"-0.001": 22.7975562094,
			"0.0": 20.9104368608,
			"0.001": 16.6836894763,
			"0.002": 13.8790690285,
			"0.003": 10.9037588934,
			"0.004": 10.5946063756,
			"0.005": 9.04767200982,
			"0.006": 9.2135075637,
			"0.007": 9.74075686769,
			"0.008": 8.06948991672,
			"0.009": 12.2400799222,
			"0.01": 18.8040772079,
			"0.011": 16.2223305636,
			"0.012": 6.61453159778,
			"0.013": 0.392341814927,
			"0.014": 0.0,
			"0.015": 0.0,
			"0.016": 0.0,
			"0.017": 0.0,
			"0.018": 0.0,
			"0.019": 0.0,
			"0.02": 0.0,
			"0.021": 0.0,
			"0.022": 0.0,
			"0.023": 0.0,
			"0.024": 0.0,
			"0.025": 0.0
		}
	}
}
