{
	 "smiles": "CN(C)S(=O)(=O)C1=CC(N)=C(N)C=C1", 
	 "Tm": 467.15, 
	 "num_atms": 27, 
	 "gaussian": { 
		 "optdone": 1, 
		 "sigma_profile": "yes", 
		 "theory": "DFT", 
		 "functional": "B3LYP", 
		 "basiset": "6-31G**", 
		 "properties": { 
			 "R2extent": 4034.271, 
			 "electric_dipole_moment_norm": 7.04645626822, 
			 "electric_quadrupole_moment_norm": 30.2391829532, 
			 "total_energy": -1025.51061648, 
			 "HOMO_LUMO_gap": 0.19105, 
			 "cosmo_polarized_energy": -21.25, 
			 "cosmo_cavitation_energy": 30.82, 
			 "cosmo_dispersion_energy": -22.67, 
			 "cosmo_repulsion_energy": 1.74, 
			 "cosmo_total_nonelectrostatic_energy": 9.89, 
			 "SMD_solvation_energy": 3.64 
		},
		"coords": [
			{
				"x": 0.7954962368,
				"y": 3.3783745208,
				"z": -0.0855178512,
				"element": "C" 
			},
			{
				"x": 1.6135234914,
				"y": 2.9265420293,
				"z": 1.0404700646,
				"element": "N" 
			},
			{
				"x": 0.9342937949,
				"y": 2.9452573243,
				"z": 2.336888495,
				"element": "C" 
			},
			{
				"x": 2.6034222168,
				"y": 1.5798105749,
				"z": 0.7424094582,
				"element": "S" 
			},
			{
				"x": 3.24074369,
				"y": 1.8339252399,
				"z": -0.5529951258,
				"element": "O" 
			},
			{
				"x": 3.3827089614,
				"y": 1.3804098704,
				"z": 1.9669027968,
				"element": "O" 
			},
			{
				"x": 1.5260419115,
				"y": 0.1648065644,
				"z": 0.5463496015,
				"element": "C" 
			},
			{
				"x": 1.0514895359,
				"y": -0.1617878804,
				"z": -0.7303765803,
				"element": "C" 
			},
			{
				"x": 0.1832658308,
				"y": -1.23750558,
				"z": -0.9002055321,
				"element": "C" 
			},
			{
				"x": -0.287153197,
				"y": -1.6515629272,
				"z": -2.1613080696,
				"element": "N" 
			},
			{
				"x": -0.2073393129,
				"y": -2.0026752754,
				"z": 0.2292246062,
				"element": "C" 
			},
			{
				"x": -1.0835840776,
				"y": -3.0708909118,
				"z": 0.0207342794,
				"element": "N" 
			},
			{
				"x": 0.2644987982,
				"y": -1.6470352146,
				"z": 1.4973452545,
				"element": "C" 
			},
			{
				"x": 1.1270292242,
				"y": -0.5649788239,
				"z": 1.6668508924,
				"element": "C" 
			},
			{
				"x": 1.4051287904,
				"y": 3.398214483,
				"z": -0.9885756231,
				"element": "H" 
			},
			{
				"x": -0.0906653918,
				"y": 2.7453748019,
				"z": -0.2520396599,
				"element": "H" 
			},
			{
				"x": 0.4575367996,
				"y": 4.3968543222,
				"z": 0.1281392554,
				"element": "H" 
			},
			{
				"x": 0.0584318878,
				"y": 2.2782133907,
				"z": 2.3704759746,
				"element": "H" 
			},
			{
				"x": 1.639670618,
				"y": 2.6605838168,
				"z": 3.1171622277,
				"element": "H" 
			},
			{
				"x": 0.5982168594,
				"y": 3.9687570324,
				"z": 2.5284313178,
				"element": "H" 
			},
			{
				"x": 1.3872576048,
				"y": 0.4115252394,
				"z": -1.5888749344,
				"element": "H" 
			},
			{
				"x": -1.291080375,
				"y": -1.8074798291,
				"z": -2.1703031679,
				"element": "H" 
			},
			{
				"x": -0.0249060941,
				"y": -1.0240223156,
				"z": -2.9115711233,
				"element": "H" 
			},
			{
				"x": -1.1691130856,
				"y": -3.6979598516,
				"z": 0.81024447,
				"element": "H" 
			},
			{
				"x": -0.8880238745,
				"y": -3.5787834896,
				"z": -0.8361780033,
				"element": "H" 
			},
			{
				"x": -0.0294188592,
				"y": -2.2434534888,
				"z": 2.3574817125,
				"element": "H" 
			},
			{
				"x": 1.5225280159,
				"y": -0.3191136223,
				"z": 2.6454352644,
				"element": "H" 
			}
		],
		 "valence_orbital": [ 
			{
				"type": "occ",
				"energy": -0.28913,
				"method": "rhf"
			},
			{
				"type": "occ",
				"energy": -0.28802,
				"method": "rhf"
			},
			{
				"type": "occ",
				"energy": -0.25348,
				"method": "rhf"
			},
			{
				"type": "occ",
				"energy": -0.23943,
				"method": "rhf"
			},
			{
				"type": "occ",
				"energy": -0.20788,
				"method": "rhf"
			},
			{
				"type": "unocc",
				"energy": -0.01683,
				"method": "rhf"
			},
			{
				"type": "unocc",
				"energy": -0.00314,
				"method": "rhf"
			},
			{
				"type": "unocc",
				"energy": 0.06075,
				"method": "rhf"
			},
			{
				"type": "unocc",
				"energy": 0.07151,
				"method": "rhf"
			},
			{
				"type": "unocc",
				"energy": 0.09071,
				"method": "rhf"
			}
		],
		"cosmo_sigma_profile": { 
			"-0.025": 0.0,
			"-0.024": 0.0,
			"-0.023": 0.0,
			"-0.022": 0.0,
			"-0.021": 0.0,
			"-0.02": 0.0,
			"-0.019": 0.0,
			"-0.018": 0.0,
			"-0.017": 0.0,
			"-0.016": 0.0,
			"-0.015": 0.0,
			"-0.014": 0.0,
			"-0.013": 0.898410339835,
			"-0.012": 3.64514088947,
			"-0.011": 5.01726102772,
			"-0.01": 6.35801740311,
			"-0.009": 6.0172063635,
			"-0.008": 4.9435241565,
			"-0.007": 5.55595825397,
			"-0.006": 10.6746822245,
			"-0.005": 12.4267084587,
			"-0.004": 17.6312782786,
			"-0.003": 22.328398804,
			"-0.002": 24.6189792245,
			"-0.001": 11.0489073348,
			"0.0": 9.70525063787,
			"0.001": 8.64308803752,
			"0.002": 9.32314160106,
			"0.003": 10.8400720713,
			"0.004": 14.451609454,
			"0.005": 9.11311010781,
			"0.006": 6.54309449506,
			"0.007": 5.76650497777,
			"0.008": 5.89256659072,
			"0.009": 5.01752227235,
			"0.01": 7.59891135191,
			"0.011": 8.11314169326,
			"0.012": 8.43032535554,
			"0.013": 1.79798541146,
			"0.014": 0.270468703148,
			"0.015": 0.0,
			"0.016": 0.0,
			"0.017": 0.0,
			"0.018": 0.0,
			"0.019": 0.0,
			"0.02": 0.0,
			"0.021": 0.0,
			"0.022": 0.0,
			"0.023": 0.0,
			"0.024": 0.0,
			"0.025": 0.0
		}
	}
}
