{
	 "smiles": "CSC1=NC(Cl)=C(C(Cl)=N1)C1=CC=CC=C1", 
	 "Tm": 387.0, 
	 "num_atms": 24, 
	 "gaussian": { 
		 "optdone": 1, 
		 "sigma_profile": "yes", 
		 "theory": "DFT", 
		 "functional": "B3LYP", 
		 "basiset": "6-31G**", 
		 "properties": { 
			 "R2extent": 5659.279, 
			 "electric_dipole_moment_norm": 1.99158316422, 
			 "electric_quadrupole_moment_norm": 18.5528138246, 
			 "total_energy": -1852.06780487, 
			 "HOMO_LUMO_gap": 0.18402, 
			 "cosmo_polarized_energy": -8.26, 
			 "cosmo_cavitation_energy": 34.27, 
			 "cosmo_dispersion_energy": -24.64, 
			 "cosmo_repulsion_energy": 1.92, 
			 "cosmo_total_nonelectrostatic_energy": 11.55, 
			 "SMD_solvation_energy": 2.98 
		},
		"coords": [
			{
				"x": 0.8381167232,
				"y": -0.7095197709,
				"z": -5.3669413461,
				"element": "C" 
			},
			{
				"x": -0.8473409309,
				"y": -0.5064112647,
				"z": -4.6988871172,
				"element": "S" 
			},
			{
				"x": -0.5377723213,
				"y": -0.5214426439,
				"z": -2.9617934191,
				"element": "C" 
			},
			{
				"x": 0.7126419226,
				"y": -0.6608489412,
				"z": -2.511209285,
				"element": "N" 
			},
			{
				"x": 0.8613932165,
				"y": -0.6621794211,
				"z": -1.1956536584,
				"element": "C" 
			},
			{
				"x": 2.5059539084,
				"y": -0.8457103754,
				"z": -0.61979173,
				"element": "Cl" 
			},
			{
				"x": -0.1855984272,
				"y": -0.529709607,
				"z": -0.2686811633,
				"element": "C" 
			},
			{
				"x": -1.4410572689,
				"y": -0.3919440119,
				"z": -0.8972201965,
				"element": "C" 
			},
			{
				"x": -2.8776641154,
				"y": -0.2137794491,
				"z": 0.0877109952,
				"element": "Cl" 
			},
			{
				"x": -1.6334542338,
				"y": -0.3854152229,
				"z": -2.2014553439,
				"element": "N" 
			},
			{
				"x": 0.0066662398,
				"y": -0.53400703,
				"z": 1.2080304897,
				"element": "C" 
			},
			{
				"x": 0.2375513491,
				"y": 0.6653323982,
				"z": 1.8952213972,
				"element": "C" 
			},
			{
				"x": 0.4172141759,
				"y": 0.6599577962,
				"z": 3.2783109132,
				"element": "C" 
			},
			{
				"x": 0.3678698006,
				"y": -0.5419324007,
				"z": 3.9866964521,
				"element": "C" 
			},
			{
				"x": 0.1380962813,
				"y": -1.7398561441,
				"z": 3.3077554622,
				"element": "C" 
			},
			{
				"x": -0.0419183837,
				"y": -1.7373266862,
				"z": 1.924701351,
				"element": "C" 
			},
			{
				"x": 1.2741790425,
				"y": -1.6532065181,
				"z": -5.038515603,
				"element": "H" 
			},
			{
				"x": 1.4791891153,
				"y": 0.1169175492,
				"z": -5.0594013545,
				"element": "H" 
			},
			{
				"x": 0.7238779104,
				"y": -0.7091125395,
				"z": -6.4530456431,
				"element": "H" 
			},
			{
				"x": 0.2755667254,
				"y": 1.6002842797,
				"z": 1.3440216279,
				"element": "H" 
			},
			{
				"x": 0.5954363433,
				"y": 1.5948336141,
				"z": 3.8014928573,
				"element": "H" 
			},
			{
				"x": 0.507752353,
				"y": -0.5449841338,
				"z": 5.063737519,
				"element": "H" 
			},
			{
				"x": 0.098494226,
				"y": -2.6777386351,
				"z": 3.853908085,
				"element": "H" 
			},
			{
				"x": -0.221093652,
				"y": -2.6691008417,
				"z": 1.3964087103,
				"element": "H" 
			}
		],
		 "valence_orbital": [ 
			{
				"type": "occ",
				"energy": -0.29516,
				"method": "rhf"
			},
			{
				"type": "occ",
				"energy": -0.28853,
				"method": "rhf"
			},
			{
				"type": "occ",
				"energy": -0.26035,
				"method": "rhf"
			},
			{
				"type": "occ",
				"energy": -0.2543,
				"method": "rhf"
			},
			{
				"type": "occ",
				"energy": -0.24132,
				"method": "rhf"
			},
			{
				"type": "unocc",
				"energy": -0.0573,
				"method": "rhf"
			},
			{
				"type": "unocc",
				"energy": -0.04641,
				"method": "rhf"
			},
			{
				"type": "unocc",
				"energy": -0.01776,
				"method": "rhf"
			},
			{
				"type": "unocc",
				"energy": -0.01041,
				"method": "rhf"
			},
			{
				"type": "unocc",
				"energy": 0.00209,
				"method": "rhf"
			}
		],
		"cosmo_sigma_profile": { 
			"-0.025": 0.0,
			"-0.024": 0.0,
			"-0.023": 0.0,
			"-0.022": 0.0,
			"-0.021": 0.0,
			"-0.02": 0.0,
			"-0.019": 0.0,
			"-0.018": 0.0,
			"-0.017": 0.0,
			"-0.016": 0.0,
			"-0.015": 0.0,
			"-0.014": 0.0,
			"-0.013": 0.0,
			"-0.012": 0.0,
			"-0.011": 0.0,
			"-0.01": 0.0,
			"-0.009": 0.0,
			"-0.008": 0.843576549563,
			"-0.007": 4.35914577289,
			"-0.006": 16.0998650721,
			"-0.005": 21.3344361075,
			"-0.004": 24.9087302568,
			"-0.003": 22.6263659994,
			"-0.002": 23.71736044,
			"-0.001": 17.130655326,
			"0.0": 19.3667953548,
			"0.001": 17.0420756008,
			"0.002": 21.7131850272,
			"0.003": 32.0196946342,
			"0.004": 23.9615825086,
			"0.005": 20.9800977728,
			"0.006": 6.36471849291,
			"0.007": 3.92460589829,
			"0.008": 2.2419916161,
			"0.009": 1.36296284962,
			"0.01": 1.16359109587,
			"0.011": 0.820377725756,
			"0.012": 0.209782319717,
			"0.013": 0.0,
			"0.014": 0.0,
			"0.015": 0.0,
			"0.016": 0.0,
			"0.017": 0.0,
			"0.018": 0.0,
			"0.019": 0.0,
			"0.02": 0.0,
			"0.021": 0.0,
			"0.022": 0.0,
			"0.023": 0.0,
			"0.024": 0.0,
			"0.025": 0.0
		}
	}
}
