{
	 "smiles": "CC1CN(CC(C)N1)C(=O)OC(C)(C)C", 
	 "Tm": 338.15, 
	 "num_atms": 37, 
	 "gaussian": { 
		 "optdone": 1, 
		 "sigma_profile": "yes", 
		 "theory": "DFT", 
		 "functional": "B3LYP", 
		 "basiset": "6-31G**", 
		 "properties": { 
			 "R2extent": 4194.8539, 
			 "electric_dipole_moment_norm": 2.03653869347, 
			 "electric_quadrupole_moment_norm": 10.2192907464, 
			 "total_energy": -692.423361843, 
			 "HOMO_LUMO_gap": 0.26403, 
			 "cosmo_polarized_energy": -9.88, 
			 "cosmo_cavitation_energy": 36.37, 
			 "cosmo_dispersion_energy": -24.93, 
			 "cosmo_repulsion_energy": 1.97, 
			 "cosmo_total_nonelectrostatic_energy": 13.4, 
			 "SMD_solvation_energy": 5.12 
		},
		"coords": [
			{
				"x": 0.4216051876,
				"y": 2.7266379512,
				"z": -3.545940105,
				"element": "C" 
			},
			{
				"x": 0.5145075936,
				"y": 1.636328712,
				"z": -2.4802193965,
				"element": "C" 
			},
			{
				"x": -0.5873922219,
				"y": 1.791556799,
				"z": -1.4160600839,
				"element": "C" 
			},
			{
				"x": -0.3924373443,
				"y": 0.8268085476,
				"z": -0.3371937408,
				"element": "N" 
			},
			{
				"x": 0.9232141993,
				"y": 0.8674097406,
				"z": 0.2953259795,
				"element": "C" 
			},
			{
				"x": 2.033099063,
				"y": 0.6986035415,
				"z": -0.7670872662,
				"element": "C" 
			},
			{
				"x": 2.1364626656,
				"y": -0.7481044626,
				"z": -1.2650502437,
				"element": "C" 
			},
			{
				"x": 1.8669280797,
				"y": 1.6327950733,
				"z": -1.897134435,
				"element": "N" 
			},
			{
				"x": -1.4544804216,
				"y": 0.068560643,
				"z": 0.0853445677,
				"element": "C" 
			},
			{
				"x": -2.5642494373,
				"y": 0.1081042823,
				"z": -0.4301299957,
				"element": "O" 
			},
			{
				"x": -1.1057824892,
				"y": -0.7247378936,
				"z": 1.13007259,
				"element": "O" 
			},
			{
				"x": -2.0815882932,
				"y": -1.6403511118,
				"z": 1.7385105165,
				"element": "C" 
			},
			{
				"x": -1.2607918901,
				"y": -2.3122032154,
				"z": 2.8431666583,
				"element": "C" 
			},
			{
				"x": -2.5507579113,
				"y": -2.6738773251,
				"z": 0.708547226,
				"element": "C" 
			},
			{
				"x": -3.2477993925,
				"y": -0.8466050002,
				"z": 2.3378167805,
				"element": "C" 
			},
			{
				"x": 0.5385913139,
				"y": 3.7226896422,
				"z": -3.1000209291,
				"element": "H" 
			},
			{
				"x": 1.2100048299,
				"y": 2.5954399869,
				"z": -4.2917336304,
				"element": "H" 
			},
			{
				"x": -0.5484335727,
				"y": 2.701519436,
				"z": -4.0521532562,
				"element": "H" 
			},
			{
				"x": 0.3688605185,
				"y": 0.6619675582,
				"z": -2.9640582914,
				"element": "H" 
			},
			{
				"x": -0.5497962629,
				"y": 2.8142523503,
				"z": -1.0026885599,
				"element": "H" 
			},
			{
				"x": -1.5815195743,
				"y": 1.630635915,
				"z": -1.8345111442,
				"element": "H" 
			},
			{
				"x": 1.0500504876,
				"y": 1.8418859935,
				"z": 0.7950833632,
				"element": "H" 
			},
			{
				"x": 0.9787546182,
				"y": 0.0904726742,
				"z": 1.0559342186,
				"element": "H" 
			},
			{
				"x": 2.9859183106,
				"y": 0.9601764733,
				"z": -0.2892357116,
				"element": "H" 
			},
			{
				"x": 2.8836724673,
				"y": -0.8175426104,
				"z": -2.0597791647,
				"element": "H" 
			},
			{
				"x": 1.1820253253,
				"y": -1.111350782,
				"z": -1.6573715097,
				"element": "H" 
			},
			{
				"x": 2.4306292512,
				"y": -1.4139986624,
				"z": -0.4472102002,
				"element": "H" 
			},
			{
				"x": 2.0749068477,
				"y": 2.5766958746,
				"z": -1.5718389047,
				"element": "H" 
			},
			{
				"x": -0.8882579314,
				"y": -1.5688885006,
				"z": 3.554250738,
				"element": "H" 
			},
			{
				"x": -0.404093707,
				"y": -2.8443001682,
				"z": 2.4190106306,
				"element": "H" 
			},
			{
				"x": -1.8799485463,
				"y": -3.0316502888,
				"z": 3.3872529661,
				"element": "H" 
			},
			{
				"x": -3.1190060453,
				"y": -2.1972484029,
				"z": -0.0901465585,
				"element": "H" 
			},
			{
				"x": -1.6905312789,
				"y": -3.1923082252,
				"z": 0.2728720685,
				"element": "H" 
			},
			{
				"x": -3.1838277434,
				"y": -3.420566734,
				"z": 1.1991585133,
				"element": "H" 
			},
			{
				"x": -3.8220575494,
				"y": -0.3488388603,
				"z": 1.5565356116,
				"element": "H" 
			},
			{
				"x": -2.873242557,
				"y": -0.0934765121,
				"z": 3.0385764738,
				"element": "H" 
			},
			{
				"x": -3.9087365889,
				"y": -1.5237924393,
				"z": 2.8888042255,
				"element": "H" 
			}
		],
		 "valence_orbital": [ 
			{
				"type": "occ",
				"energy": -0.32513,
				"method": "rhf"
			},
			{
				"type": "occ",
				"energy": -0.28267,
				"method": "rhf"
			},
			{
				"type": "occ",
				"energy": -0.25514,
				"method": "rhf"
			},
			{
				"type": "occ",
				"energy": -0.24852,
				"method": "rhf"
			},
			{
				"type": "occ",
				"energy": -0.20987,
				"method": "rhf"
			},
			{
				"type": "unocc",
				"energy": 0.05416,
				"method": "rhf"
			},
			{
				"type": "unocc",
				"energy": 0.08016,
				"method": "rhf"
			},
			{
				"type": "unocc",
				"energy": 0.09097,
				"method": "rhf"
			},
			{
				"type": "unocc",
				"energy": 0.1022,
				"method": "rhf"
			},
			{
				"type": "unocc",
				"energy": 0.10765,
				"method": "rhf"
			}
		],
		"cosmo_sigma_profile": { 
			"-0.025": 0.0,
			"-0.024": 0.0,
			"-0.023": 0.0,
			"-0.022": 0.0,
			"-0.021": 0.0,
			"-0.02": 0.0,
			"-0.019": 0.0,
			"-0.018": 0.0,
			"-0.017": 0.0,
			"-0.016": 0.0,
			"-0.015": 0.0,
			"-0.014": 0.0,
			"-0.013": 0.0,
			"-0.012": 0.0,
			"-0.011": 0.0,
			"-0.01": 0.0944029934261,
			"-0.009": 1.34795549692,
			"-0.008": 1.65049030885,
			"-0.007": 2.08491369895,
			"-0.006": 2.9698750147,
			"-0.005": 3.43415865559,
			"-0.004": 22.3593674264,
			"-0.003": 42.146788344,
			"-0.002": 33.6616823509,
			"-0.001": 34.1065271917,
			"0.0": 39.8126398518,
			"0.001": 39.7812969378,
			"0.002": 14.1602798738,
			"0.003": 6.13707406896,
			"0.004": 5.00882872421,
			"0.005": 6.67920818243,
			"0.006": 3.96225442347,
			"0.007": 2.59338122003,
			"0.008": 3.12279189332,
			"0.009": 1.71365034087,
			"0.01": 1.93956737855,
			"0.011": 2.62711503782,
			"0.012": 2.2765338222,
			"0.013": 2.94909033257,
			"0.014": 2.25377985171,
			"0.015": 0.61700329628,
			"0.016": 0.352808803552,
			"0.017": 0.515278012504,
			"0.018": 0.191126118857,
			"0.019": 0.0307790828255,
			"0.02": 0.0,
			"0.021": 0.0,
			"0.022": 0.0,
			"0.023": 0.0,
			"0.024": 0.0,
			"0.025": 0.0
		}
	}
}
