{
	 "smiles": "OCC(=O)NC1CCCC2=C1C=CC=C2", 
	 "Tm": 388.15, 
	 "num_atms": 30, 
	 "gaussian": { 
		 "optdone": 1, 
		 "sigma_profile": "yes", 
		 "theory": "DFT", 
		 "functional": "B3LYP", 
		 "basiset": "6-31G**", 
		 "properties": { 
			 "R2extent": 3575.9494, 
			 "electric_dipole_moment_norm": 2.85300077287, 
			 "electric_quadrupole_moment_norm": 13.4018180651, 
			 "total_energy": -671.539289446, 
			 "HOMO_LUMO_gap": 0.22355, 
			 "cosmo_polarized_energy": -14.37, 
			 "cosmo_cavitation_energy": 32.18, 
			 "cosmo_dispersion_energy": -22.74, 
			 "cosmo_repulsion_energy": 1.81, 
			 "cosmo_total_nonelectrostatic_energy": 11.24, 
			 "SMD_solvation_energy": 5.37 
		},
		"coords": [
			{
				"x": 2.5455937479,
				"y": -2.5367660064,
				"z": -0.8796212009,
				"element": "O" 
			},
			{
				"x": 3.0087275027,
				"y": -1.8912837505,
				"z": 0.3013904665,
				"element": "C" 
			},
			{
				"x": 1.9917007775,
				"y": -0.9455214943,
				"z": 0.9545313507,
				"element": "C" 
			},
			{
				"x": 2.1832705514,
				"y": -0.489327964,
				"z": 2.077205137,
				"element": "O" 
			},
			{
				"x": 0.9102308645,
				"y": -0.6677293094,
				"z": 0.1821116078,
				"element": "N" 
			},
			{
				"x": -0.1580992976,
				"y": 0.2403776466,
				"z": 0.618385715,
				"element": "C" 
			},
			{
				"x": 0.2039201081,
				"y": 1.7133607231,
				"z": 0.3577717517,
				"element": "C" 
			},
			{
				"x": 0.0542633821,
				"y": 2.0609051022,
				"z": -1.1250439759,
				"element": "C" 
			},
			{
				"x": -1.4077931445,
				"y": 1.8966342225,
				"z": -1.5560572957,
				"element": "C" 
			},
			{
				"x": -2.0266591055,
				"y": 0.5883017494,
				"z": -1.0947741563,
				"element": "C" 
			},
			{
				"x": -1.4608288611,
				"y": -0.1713769028,
				"z": -0.0552826971,
				"element": "C" 
			},
			{
				"x": -2.0917066672,
				"y": -1.3556751994,
				"z": 0.3560925115,
				"element": "C" 
			},
			{
				"x": -3.2687273605,
				"y": -1.792672675,
				"z": -0.2430649505,
				"element": "C" 
			},
			{
				"x": -3.8321209404,
				"y": -1.0405804346,
				"z": -1.2782558901,
				"element": "C" 
			},
			{
				"x": -3.2124321761,
				"y": 0.1340977738,
				"z": -1.693589191,
				"element": "C" 
			},
			{
				"x": 1.9722683965,
				"y": -3.2668635342,
				"z": -0.6127314561,
				"element": "H" 
			},
			{
				"x": 3.3430639902,
				"y": -2.5987404253,
				"z": 1.0701155955,
				"element": "H" 
			},
			{
				"x": 3.8799851607,
				"y": -1.2944697499,
				"z": 0.0121125525,
				"element": "H" 
			},
			{
				"x": 0.8899915993,
				"y": -1.072796754,
				"z": -0.7441185283,
				"element": "H" 
			},
			{
				"x": -0.2403295086,
				"y": 0.0922670964,
				"z": 1.7003268779,
				"element": "H" 
			},
			{
				"x": 1.2200339571,
				"y": 1.8916526211,
				"z": 0.7208564792,
				"element": "H" 
			},
			{
				"x": -0.4658569603,
				"y": 2.3488114821,
				"z": 0.9528556934,
				"element": "H" 
			},
			{
				"x": 0.3898357694,
				"y": 3.084971282,
				"z": -1.3209388311,
				"element": "H" 
			},
			{
				"x": 0.6984928513,
				"y": 1.4012326631,
				"z": -1.721434681,
				"element": "H" 
			},
			{
				"x": -1.9957713468,
				"y": 2.726281117,
				"z": -1.135867056,
				"element": "H" 
			},
			{
				"x": -1.5047159355,
				"y": 1.9835533833,
				"z": -2.6448673919,
				"element": "H" 
			},
			{
				"x": -1.6444979867,
				"y": -1.9347497182,
				"z": 1.1607855952,
				"element": "H" 
			},
			{
				"x": -3.7458088135,
				"y": -2.7087257937,
				"z": 0.093278304,
				"element": "H" 
			},
			{
				"x": -4.7491601372,
				"y": -1.3702815068,
				"z": -1.7584601605,
				"element": "H" 
			},
			{
				"x": -3.6506704173,
				"y": 0.7180143559,
				"z": -2.5000121754,
				"element": "H" 
			}
		],
		 "valence_orbital": [ 
			{
				"type": "occ",
				"energy": -0.30911,
				"method": "rhf"
			},
			{
				"type": "occ",
				"energy": -0.25716,
				"method": "rhf"
			},
			{
				"type": "occ",
				"energy": -0.24774,
				"method": "rhf"
			},
			{
				"type": "occ",
				"energy": -0.24189,
				"method": "rhf"
			},
			{
				"type": "occ",
				"energy": -0.2317,
				"method": "rhf"
			},
			{
				"type": "unocc",
				"energy": -0.00815,
				"method": "rhf"
			},
			{
				"type": "unocc",
				"energy": -0.00319,
				"method": "rhf"
			},
			{
				"type": "unocc",
				"energy": 0.03148,
				"method": "rhf"
			},
			{
				"type": "unocc",
				"energy": 0.06277,
				"method": "rhf"
			},
			{
				"type": "unocc",
				"energy": 0.09331,
				"method": "rhf"
			}
		],
		"cosmo_sigma_profile": { 
			"-0.025": 0.0,
			"-0.024": 0.0,
			"-0.023": 0.0,
			"-0.022": 0.0,
			"-0.021": 0.0,
			"-0.02": 0.0,
			"-0.019": 0.0,
			"-0.018": 0.0,
			"-0.017": 0.434416692231,
			"-0.016": 1.14335076406,
			"-0.015": 1.06028601993,
			"-0.014": 0.848936831669,
			"-0.013": 1.13092090339,
			"-0.012": 0.805955923162,
			"-0.011": 0.899687647822,
			"-0.01": 1.41242888927,
			"-0.009": 1.7567510137,
			"-0.008": 2.18303487103,
			"-0.007": 3.87317511001,
			"-0.006": 8.26930113949,
			"-0.005": 13.455500235,
			"-0.004": 18.5646601858,
			"-0.003": 29.8000273532,
			"-0.002": 26.3959968152,
			"-0.001": 25.8705881098,
			"0.0": 23.2162717718,
			"0.001": 15.4998050824,
			"0.002": 9.60752854475,
			"0.003": 9.74610324883,
			"0.004": 9.34050314981,
			"0.005": 9.60127910757,
			"0.006": 9.2264275227,
			"0.007": 3.99149513157,
			"0.008": 3.04318214195,
			"0.009": 1.82259128689,
			"0.01": 1.97256717366,
			"0.011": 2.60162747817,
			"0.012": 3.07262313288,
			"0.013": 3.64431679751,
			"0.014": 5.78481485696,
			"0.015": 2.18893294858,
			"0.016": 0.0613589680694,
			"0.017": 0.0,
			"0.018": 0.0,
			"0.019": 0.0,
			"0.02": 0.0,
			"0.021": 0.0,
			"0.022": 0.0,
			"0.023": 0.0,
			"0.024": 0.0,
			"0.025": 0.0
		}
	}
}
