{
	 "smiles": "CC(=O)C1=C(C)ON=C1C1=C(Cl)C(Cl)=CC=C1", 
	 "Tm": 336.15, 
	 "num_atms": 26, 
	 "gaussian": { 
		 "optdone": 1, 
		 "sigma_profile": "yes", 
		 "theory": "DFT", 
		 "functional": "B3LYP", 
		 "basiset": "6-31G**", 
		 "properties": { 
			 "R2extent": 5687.8559, 
			 "electric_dipole_moment_norm": 4.21411458553, 
			 "electric_quadrupole_moment_norm": 25.3934156631, 
			 "total_energy": -1588.23451217, 
			 "HOMO_LUMO_gap": 0.19606, 
			 "cosmo_polarized_energy": -14.85, 
			 "cosmo_cavitation_energy": 34.13, 
			 "cosmo_dispersion_energy": -24.02, 
			 "cosmo_repulsion_energy": 1.86, 
			 "cosmo_total_nonelectrostatic_energy": 11.98, 
			 "SMD_solvation_energy": 5.83 
		},
		"coords": [
			{
				"x": -0.2630991061,
				"y": 3.5611709994,
				"z": -2.639683077,
				"element": "C" 
			},
			{
				"x": 0.035652217,
				"y": 2.3758977444,
				"z": -1.7379006097,
				"element": "C" 
			},
			{
				"x": 0.8970701861,
				"y": 2.4497864991,
				"z": -0.8750902291,
				"element": "O" 
			},
			{
				"x": -0.7398245467,
				"y": 1.1284451874,
				"z": -1.9170221454,
				"element": "C" 
			},
			{
				"x": -1.8424771452,
				"y": 0.8635066322,
				"z": -2.69875008,
				"element": "C" 
			},
			{
				"x": -2.6594125273,
				"y": 1.6297464195,
				"z": -3.6858222397,
				"element": "C" 
			},
			{
				"x": -2.2564584896,
				"y": -0.3943879048,
				"z": -2.4759178274,
				"element": "O" 
			},
			{
				"x": -1.4253739558,
				"y": -1.0126605107,
				"z": -1.5304737282,
				"element": "N" 
			},
			{
				"x": -0.530102977,
				"y": -0.1092950252,
				"z": -1.2077926474,
				"element": "C" 
			},
			{
				"x": 0.4803662857,
				"y": -0.460559399,
				"z": -0.1784843771,
				"element": "C" 
			},
			{
				"x": 1.8469986748,
				"y": -0.5901809812,
				"z": -0.4825932281,
				"element": "C" 
			},
			{
				"x": 2.3988270765,
				"y": -0.3490025096,
				"z": -2.1196019064,
				"element": "Cl" 
			},
			{
				"x": 2.7529655167,
				"y": -0.9419523452,
				"z": 0.5262477715,
				"element": "C" 
			},
			{
				"x": 4.460435571,
				"y": -1.1114928964,
				"z": 0.1941580499,
				"element": "Cl" 
			},
			{
				"x": 2.3041720508,
				"y": -1.1757480938,
				"z": 1.8279541382,
				"element": "C" 
			},
			{
				"x": 0.9493643105,
				"y": -1.0677281974,
				"z": 2.1242473094,
				"element": "C" 
			},
			{
				"x": 0.0440054869,
				"y": -0.7167562494,
				"z": 1.1254981941,
				"element": "C" 
			},
			{
				"x": 0.4182497934,
				"y": 4.3719840214,
				"z": -2.380147561,
				"element": "H" 
			},
			{
				"x": -1.2957870542,
				"y": 3.9047383336,
				"z": -2.5145215139,
				"element": "H" 
			},
			{
				"x": -0.1292332788,
				"y": 3.2970693654,
				"z": -3.6944832876,
				"element": "H" 
			},
			{
				"x": -3.1534668226,
				"y": 2.48582723,
				"z": -3.2156486196,
				"element": "H" 
			},
			{
				"x": -2.0427944148,
				"y": 2.0094076026,
				"z": -4.5051512045,
				"element": "H" 
			},
			{
				"x": -3.4271451542,
				"y": 0.9743830986,
				"z": -4.1014152638,
				"element": "H" 
			},
			{
				"x": 3.0246136577,
				"y": -1.4451938648,
				"z": 2.5919980267,
				"element": "H" 
			},
			{
				"x": 0.6009508966,
				"y": -1.2584125458,
				"z": 3.1341131447,
				"element": "H" 
			},
			{
				"x": -1.0144962518,
				"y": -0.6320926102,
				"z": 1.3452829115,
				"element": "H" 
			}
		],
		 "valence_orbital": [ 
			{
				"type": "occ",
				"energy": -0.30104,
				"method": "rhf"
			},
			{
				"type": "occ",
				"energy": -0.27137,
				"method": "rhf"
			},
			{
				"type": "occ",
				"energy": -0.26529,
				"method": "rhf"
			},
			{
				"type": "occ",
				"energy": -0.25066,
				"method": "rhf"
			},
			{
				"type": "occ",
				"energy": -0.24664,
				"method": "rhf"
			},
			{
				"type": "unocc",
				"energy": -0.05058,
				"method": "rhf"
			},
			{
				"type": "unocc",
				"energy": -0.03575,
				"method": "rhf"
			},
			{
				"type": "unocc",
				"energy": -0.02064,
				"method": "rhf"
			},
			{
				"type": "unocc",
				"energy": -0.00648,
				"method": "rhf"
			},
			{
				"type": "unocc",
				"energy": 0.00529,
				"method": "rhf"
			}
		],
		"cosmo_sigma_profile": { 
			"-0.025": 0.0,
			"-0.024": 0.0,
			"-0.023": 0.0,
			"-0.022": 0.0,
			"-0.021": 0.0,
			"-0.02": 0.0,
			"-0.019": 0.0,
			"-0.018": 0.0,
			"-0.017": 0.0,
			"-0.016": 0.0,
			"-0.015": 0.0,
			"-0.014": 0.0,
			"-0.013": 0.0,
			"-0.012": 0.0,
			"-0.011": 0.0,
			"-0.01": 0.0,
			"-0.009": 0.557691393024,
			"-0.008": 6.96154650562,
			"-0.007": 15.1583201215,
			"-0.006": 15.4836962775,
			"-0.005": 15.72203286,
			"-0.004": 18.2607015343,
			"-0.003": 21.3637456307,
			"-0.002": 21.60190984,
			"-0.001": 18.8498613711,
			"0.0": 21.544110138,
			"0.001": 21.0837245177,
			"0.002": 22.0440124804,
			"0.003": 18.7809803605,
			"0.004": 17.6322350245,
			"0.005": 8.77348229849,
			"0.006": 6.18242780565,
			"0.007": 6.61002908092,
			"0.008": 3.78085007476,
			"0.009": 3.2146254097,
			"0.01": 4.03186443646,
			"0.011": 3.53010898594,
			"0.012": 4.04897564292,
			"0.013": 2.1635212617,
			"0.014": 0.242799415627,
			"0.015": 0.0,
			"0.016": 0.0,
			"0.017": 0.0,
			"0.018": 0.0,
			"0.019": 0.0,
			"0.02": 0.0,
			"0.021": 0.0,
			"0.022": 0.0,
			"0.023": 0.0,
			"0.024": 0.0,
			"0.025": 0.0
		}
	}
}
