{
	 "smiles": "COC(=O)NCC1=CC=C(N)C=C1", 
	 "Tm": 369.15, 
	 "num_atms": 25, 
	 "gaussian": { 
		 "optdone": 1, 
		 "sigma_profile": "yes", 
		 "theory": "DFT", 
		 "functional": "B3LYP", 
		 "basiset": "6-31G**", 
		 "properties": { 
			 "R2extent": 3377.6893, 
			 "electric_dipole_moment_norm": 4.15353445273, 
			 "electric_quadrupole_moment_norm": 14.8347782296, 
			 "total_energy": -610.16227357, 
			 "HOMO_LUMO_gap": 0.20202, 
			 "cosmo_polarized_energy": -15.14, 
			 "cosmo_cavitation_energy": 29.21, 
			 "cosmo_dispersion_energy": -21.0, 
			 "cosmo_repulsion_energy": 1.7, 
			 "cosmo_total_nonelectrostatic_energy": 9.91, 
			 "SMD_solvation_energy": 6.0 
		},
		"coords": [
			{
				"x": 1.7477185653,
				"y": 3.7979399168,
				"z": -0.1492993059,
				"element": "C" 
			},
			{
				"x": 0.6449121396,
				"y": 2.9128998522,
				"z": -0.3818535788,
				"element": "O" 
			},
			{
				"x": -0.2108032931,
				"y": 2.793544549,
				"z": 0.6740947494,
				"element": "C" 
			},
			{
				"x": -0.0449266788,
				"y": 3.3501684575,
				"z": 1.7451580138,
				"element": "O" 
			},
			{
				"x": -1.2792667196,
				"y": 1.9986122816,
				"z": 0.3734075781,
				"element": "N" 
			},
			{
				"x": -1.4451182727,
				"y": 1.166920497,
				"z": -0.8202593096,
				"element": "C" 
			},
			{
				"x": -1.0537694708,
				"y": -0.285326628,
				"z": -0.6266956866,
				"element": "C" 
			},
			{
				"x": -2.0161628079,
				"y": -1.2997998615,
				"z": -0.6144616527,
				"element": "C" 
			},
			{
				"x": -1.6648699344,
				"y": -2.6353955016,
				"z": -0.427228919,
				"element": "C" 
			},
			{
				"x": -0.321449843,
				"y": -2.9978751873,
				"z": -0.240418762,
				"element": "C" 
			},
			{
				"x": 0.0366265125,
				"y": -4.3242597387,
				"z": 0.0064553058,
				"element": "N" 
			},
			{
				"x": 0.6518028135,
				"y": -1.9809937509,
				"z": -0.2521917,
				"element": "C" 
			},
			{
				"x": 0.2872645275,
				"y": -0.6535651919,
				"z": -0.4425698107,
				"element": "C" 
			},
			{
				"x": 2.3434792906,
				"y": 3.7691681847,
				"z": -1.0624115787,
				"element": "H" 
			},
			{
				"x": 2.3409646675,
				"y": 3.4652959339,
				"z": 0.7059428133,
				"element": "H" 
			},
			{
				"x": 1.3963154769,
				"y": 4.8149911099,
				"z": 0.0432814487,
				"element": "H" 
			},
			{
				"x": -1.8431956911,
				"y": 1.7825269659,
				"z": 1.1828622123,
				"element": "H" 
			},
			{
				"x": -0.8516834508,
				"y": 1.6298071826,
				"z": -1.6105767263,
				"element": "H" 
			},
			{
				"x": -2.4951766406,
				"y": 1.2243071327,
				"z": -1.1294451327,
				"element": "H" 
			},
			{
				"x": -3.0641613925,
				"y": -1.0457548405,
				"z": -0.7598302119,
				"element": "H" 
			},
			{
				"x": -2.4341789996,
				"y": -3.4038829182,
				"z": -0.4197123079,
				"element": "H" 
			},
			{
				"x": -0.6132533353,
				"y": -5.0173410674,
				"z": -0.3381351888,
				"element": "H" 
			},
			{
				"x": 0.9934310924,
				"y": -4.5606348625,
				"z": -0.2173945971,
				"element": "H" 
			},
			{
				"x": 1.698038506,
				"y": -2.2415852698,
				"z": -0.1098826673,
				"element": "H" 
			},
			{
				"x": 1.0558629384,
				"y": 0.1148327547,
				"z": -0.4523349854,
				"element": "H" 
			}
		],
		 "valence_orbital": [ 
			{
				"type": "occ",
				"energy": -0.2886,
				"method": "rhf"
			},
			{
				"type": "occ",
				"energy": -0.26102,
				"method": "rhf"
			},
			{
				"type": "occ",
				"energy": -0.24926,
				"method": "rhf"
			},
			{
				"type": "occ",
				"energy": -0.24477,
				"method": "rhf"
			},
			{
				"type": "occ",
				"energy": -0.20132,
				"method": "rhf"
			},
			{
				"type": "unocc",
				"energy": 0.0007,
				"method": "rhf"
			},
			{
				"type": "unocc",
				"energy": 0.01201,
				"method": "rhf"
			},
			{
				"type": "unocc",
				"energy": 0.06513,
				"method": "rhf"
			},
			{
				"type": "unocc",
				"energy": 0.07903,
				"method": "rhf"
			},
			{
				"type": "unocc",
				"energy": 0.09315,
				"method": "rhf"
			}
		],
		"cosmo_sigma_profile": { 
			"-0.025": 0.0,
			"-0.024": 0.0,
			"-0.023": 0.0,
			"-0.022": 0.0,
			"-0.021": 0.0,
			"-0.02": 0.0,
			"-0.019": 0.0,
			"-0.018": 0.0,
			"-0.017": 0.0,
			"-0.016": 0.0,
			"-0.015": 0.0,
			"-0.014": 0.343311069391,
			"-0.013": 1.13439526896,
			"-0.012": 3.95203611086,
			"-0.011": 3.10613738305,
			"-0.01": 3.27008267205,
			"-0.009": 3.68596397046,
			"-0.008": 3.84844216844,
			"-0.007": 4.39914404416,
			"-0.006": 8.60175240986,
			"-0.005": 17.983738357,
			"-0.004": 17.8889546223,
			"-0.003": 21.282924454,
			"-0.002": 16.0304086307,
			"-0.001": 14.8140064753,
			"0.0": 12.1130833686,
			"0.001": 11.7211277769,
			"0.002": 11.9158436141,
			"0.003": 10.6359059162,
			"0.004": 10.4927553282,
			"0.005": 10.1561494986,
			"0.006": 12.6880317683,
			"0.007": 8.89192794695,
			"0.008": 2.72427748185,
			"0.009": 1.5041736545,
			"0.01": 2.455117661,
			"0.011": 2.41742124634,
			"0.012": 1.93110883978,
			"0.013": 5.88714629631,
			"0.014": 4.379652515,
			"0.015": 0.297068564734,
			"0.016": 0.0,
			"0.017": 0.0,
			"0.018": 0.0,
			"0.019": 0.0,
			"0.02": 0.0,
			"0.021": 0.0,
			"0.022": 0.0,
			"0.023": 0.0,
			"0.024": 0.0,
			"0.025": 0.0
		}
	}
}
