{
	 "smiles": "CCOC(=O)N1CCC2(CC1)N(CN(CO)C2=O)C1=CC=CC=C1", 
	 "Tm": 409.15, 
	 "num_atms": 47, 
	 "gaussian": { 
		 "optdone": 1, 
		 "sigma_profile": "yes", 
		 "theory": "DFT", 
		 "functional": "B3LYP", 
		 "basiset": "6-31G**", 
		 "properties": { 
			 "R2extent": 10563.3178, 
			 "electric_dipole_moment_norm": 3.19254251029, 
			 "electric_quadrupole_moment_norm": 4.61124286391, 
			 "total_energy": -1126.84217387, 
			 "HOMO_LUMO_gap": 0.19799, 
			 "cosmo_polarized_energy": -20.02, 
			 "cosmo_cavitation_energy": 46.84, 
			 "cosmo_dispersion_energy": -32.84, 
			 "cosmo_repulsion_energy": 2.51, 
			 "cosmo_total_nonelectrostatic_energy": 16.51, 
			 "SMD_solvation_energy": 7.44 
		},
		"coords": [
			{
				"x": 0.5159824726,
				"y": -4.6172215611,
				"z": 3.4111794143,
				"element": "C" 
			},
			{
				"x": -0.3313521214,
				"y": -4.2278850978,
				"z": 2.2088497605,
				"element": "C" 
			},
			{
				"x": -0.2581091519,
				"y": -2.8110399962,
				"z": 1.9449387924,
				"element": "O" 
			},
			{
				"x": 0.8056923326,
				"y": -2.4056548353,
				"z": 1.1977066975,
				"element": "C" 
			},
			{
				"x": 1.6605762416,
				"y": -3.1610665093,
				"z": 0.7566072726,
				"element": "O" 
			},
			{
				"x": 0.7813095909,
				"y": -1.0516747052,
				"z": 1.0201394598,
				"element": "N" 
			},
			{
				"x": -0.3115283496,
				"y": -0.2194587632,
				"z": 1.5421883032,
				"element": "C" 
			},
			{
				"x": -0.0894797411,
				"y": 1.2529791711,
				"z": 1.1782957474,
				"element": "C" 
			},
			{
				"x": 0.1490567099,
				"y": 1.4713047789,
				"z": -0.3445928524,
				"element": "C" 
			},
			{
				"x": 1.2197789278,
				"y": 0.466280267,
				"z": -0.8799025293,
				"element": "C" 
			},
			{
				"x": 1.8229635129,
				"y": -0.4293777767,
				"z": 0.2101433588,
				"element": "C" 
			},
			{
				"x": 0.4028573544,
				"y": 2.8834714721,
				"z": -0.6916936163,
				"element": "N" 
			},
			{
				"x": -0.7836599037,
				"y": 3.5276905614,
				"z": -1.2388385953,
				"element": "C" 
			},
			{
				"x": -1.7001335076,
				"y": 2.429212568,
				"z": -1.4510335944,
				"element": "N" 
			},
			{
				"x": -2.9001141706,
				"y": 2.5652978885,
				"z": -2.2504123858,
				"element": "C" 
			},
			{
				"x": -2.6353403334,
				"y": 2.8107149285,
				"z": -3.6140994687,
				"element": "O" 
			},
			{
				"x": -1.1853284727,
				"y": 1.221194544,
				"z": -1.0750176427,
				"element": "C" 
			},
			{
				"x": -1.707901584,
				"y": 0.1334337308,
				"z": -1.2666612689,
				"element": "O" 
			},
			{
				"x": 1.4577788705,
				"y": 3.6832072062,
				"z": -0.2497883804,
				"element": "C" 
			},
			{
				"x": 1.4329376488,
				"y": 5.0774291489,
				"z": -0.4804937512,
				"element": "C" 
			},
			{
				"x": 2.4886634655,
				"y": 5.8906637425,
				"z": -0.0730880233,
				"element": "C" 
			},
			{
				"x": 3.600428034,
				"y": 5.3566219913,
				"z": 0.5769391632,
				"element": "C" 
			},
			{
				"x": 3.6357467795,
				"y": 3.9812430952,
				"z": 0.8081791472,
				"element": "C" 
			},
			{
				"x": 2.590416836,
				"y": 3.154040303,
				"z": 0.404708789,
				"element": "C" 
			},
			{
				"x": 1.5735560149,
				"y": -4.4391968018,
				"z": 3.2023197041,
				"element": "H" 
			},
			{
				"x": 0.2254622326,
				"y": -4.0426569685,
				"z": 4.2961230878,
				"element": "H" 
			},
			{
				"x": 0.3829569632,
				"y": -5.6815273168,
				"z": 3.6336028374,
				"element": "H" 
			},
			{
				"x": -1.3929556964,
				"y": -4.4149822171,
				"z": 2.3905951753,
				"element": "H" 
			},
			{
				"x": -0.0154251235,
				"y": -4.7715397939,
				"z": 1.3155519744,
				"element": "H" 
			},
			{
				"x": -0.3696329596,
				"y": -0.3192134551,
				"z": 2.6320840806,
				"element": "H" 
			},
			{
				"x": -1.2621673248,
				"y": -0.5676534064,
				"z": 1.1292132178,
				"element": "H" 
			},
			{
				"x": 0.7660139919,
				"y": 1.6562089938,
				"z": 1.7277196628,
				"element": "H" 
			},
			{
				"x": -0.9642104767,
				"y": 1.8295584755,
				"z": 1.4980017593,
				"element": "H" 
			},
			{
				"x": 2.0136216743,
				"y": 1.0149670946,
				"z": -1.3935878209,
				"element": "H" 
			},
			{
				"x": 0.7364275899,
				"y": -0.1842898847,
				"z": -1.6141814395,
				"element": "H" 
			},
			{
				"x": 2.4030991184,
				"y": -1.2354854737,
				"z": -0.2397428953,
				"element": "H" 
			},
			{
				"x": 2.5105980343,
				"y": 0.1345828605,
				"z": 0.8565064096,
				"element": "H" 
			},
			{
				"x": -1.2169058441,
				"y": 4.2703825202,
				"z": -0.5458355233,
				"element": "H" 
			},
			{
				"x": -0.5693457285,
				"y": 4.0368778892,
				"z": -2.1891914435,
				"element": "H" 
			},
			{
				"x": -3.477234995,
				"y": 1.6496129375,
				"z": -2.0891416912,
				"element": "H" 
			},
			{
				"x": -3.4699766426,
				"y": 3.4290838546,
				"z": -1.8964251196,
				"element": "H" 
			},
			{
				"x": -2.3007225492,
				"y": 1.9906548615,
				"z": -4.0021182136,
				"element": "H" 
			},
			{
				"x": 0.5928160413,
				"y": 5.5385924052,
				"z": -0.9858073178,
				"element": "H" 
			},
			{
				"x": 2.4325556448,
				"y": 6.9579088631,
				"z": -0.2697015596,
				"element": "H" 
			},
			{
				"x": 4.4189835255,
				"y": 5.9947274219,
				"z": 0.8937472486,
				"element": "H" 
			},
			{
				"x": 4.4899381822,
				"y": 3.5349520166,
				"z": 1.3101598833,
				"element": "H" 
			},
			{
				"x": 2.665906886,
				"y": 2.0937289714,
				"z": 0.597354186,
				"element": "H" 
			}
		],
		 "valence_orbital": [ 
			{
				"type": "occ",
				"energy": -0.2636,
				"method": "rhf"
			},
			{
				"type": "occ",
				"energy": -0.25898,
				"method": "rhf"
			},
			{
				"type": "occ",
				"energy": -0.25067,
				"method": "rhf"
			},
			{
				"type": "occ",
				"energy": -0.22952,
				"method": "rhf"
			},
			{
				"type": "occ",
				"energy": -0.20137,
				"method": "rhf"
			},
			{
				"type": "unocc",
				"energy": -0.00338,
				"method": "rhf"
			},
			{
				"type": "unocc",
				"energy": 0.00373,
				"method": "rhf"
			},
			{
				"type": "unocc",
				"energy": 0.01487,
				"method": "rhf"
			},
			{
				"type": "unocc",
				"energy": 0.05959,
				"method": "rhf"
			},
			{
				"type": "unocc",
				"energy": 0.06695,
				"method": "rhf"
			}
		],
		"cosmo_sigma_profile": { 
			"-0.025": 0.0,
			"-0.024": 0.0,
			"-0.023": 0.0,
			"-0.022": 0.0,
			"-0.021": 0.0,
			"-0.02": 0.0,
			"-0.019": 0.0,
			"-0.018": 0.0,
			"-0.017": 0.0291046624908,
			"-0.016": 0.825758620982,
			"-0.015": 0.898991359266,
			"-0.014": 0.797447329515,
			"-0.013": 0.965762954615,
			"-0.012": 0.88459511187,
			"-0.011": 0.934944655923,
			"-0.01": 0.83831244597,
			"-0.009": 0.792839398825,
			"-0.008": 1.10529343379,
			"-0.007": 7.4982809672,
			"-0.006": 14.5233525269,
			"-0.005": 29.2403807073,
			"-0.004": 39.116491861,
			"-0.003": 43.799809364,
			"-0.002": 33.6853623089,
			"-0.001": 28.3484535213,
			"0.0": 27.1384826915,
			"0.001": 19.5004516556,
			"0.002": 15.1740322498,
			"0.003": 13.5519874348,
			"0.004": 15.0955706166,
			"0.005": 13.3123008473,
			"0.006": 13.5915588797,
			"0.007": 11.7327298803,
			"0.008": 5.55811903222,
			"0.009": 3.60293387914,
			"0.01": 3.63643291048,
			"0.011": 4.2440946493,
			"0.012": 6.34281021288,
			"0.013": 8.31993182329,
			"0.014": 2.86411869629,
			"0.015": 0.0,
			"0.016": 0.0,
			"0.017": 0.0,
			"0.018": 0.0,
			"0.019": 0.0,
			"0.02": 0.0,
			"0.021": 0.0,
			"0.022": 0.0,
			"0.023": 0.0,
			"0.024": 0.0,
			"0.025": 0.0
		}
	}
}
