{
	 "smiles": "CCC1=C(Cl)C=CC(OCC(O)=O)=C1", 
	 "Tm": 417.15, 
	 "num_atms": 25, 
	 "gaussian": { 
		 "optdone": 1, 
		 "sigma_profile": "yes", 
		 "theory": "DFT", 
		 "functional": "B3LYP", 
		 "basiset": "6-31G**", 
		 "properties": { 
			 "R2extent": 3838.6677, 
			 "electric_dipole_moment_norm": 1.55124076146, 
			 "electric_quadrupole_moment_norm": 7.34039249972, 
			 "total_energy": -1073.56511821, 
			 "HOMO_LUMO_gap": 0.20492, 
			 "cosmo_polarized_energy": -11.86, 
			 "cosmo_cavitation_energy": 30.85, 
			 "cosmo_dispersion_energy": -21.67, 
			 "cosmo_repulsion_energy": 1.74, 
			 "cosmo_total_nonelectrostatic_energy": 10.93, 
			 "SMD_solvation_energy": 6.48 
		},
		"coords": [
			{
				"x": 2.2844044297,
				"y": 1.8154171884,
				"z": -0.5791184656,
				"element": "C" 
			},
			{
				"x": 1.2445856959,
				"y": 1.1054400957,
				"z": -1.4652220734,
				"element": "C" 
			},
			{
				"x": 0.7682764246,
				"y": -0.2071761321,
				"z": -0.8815541075,
				"element": "C" 
			},
			{
				"x": 1.4655823537,
				"y": -1.4105045089,
				"z": -1.0376560948,
				"element": "C" 
			},
			{
				"x": 2.9560692853,
				"y": -1.4700544032,
				"z": -1.9832746268,
				"element": "Cl" 
			},
			{
				"x": 1.0123857411,
				"y": -2.5997087018,
				"z": -0.4608075463,
				"element": "C" 
			},
			{
				"x": -0.1544975611,
				"y": -2.6075240578,
				"z": 0.2903284417,
				"element": "C" 
			},
			{
				"x": -0.8727620775,
				"y": -1.4186344222,
				"z": 0.463826597,
				"element": "C" 
			},
			{
				"x": -2.0185615424,
				"y": -1.5274879618,
				"z": 1.2110277419,
				"element": "O" 
			},
			{
				"x": -2.8199865166,
				"y": -0.3813426968,
				"z": 1.3890915231,
				"element": "C" 
			},
			{
				"x": -2.2576848434,
				"y": 0.6727258045,
				"z": 2.3401149041,
				"element": "C" 
			},
			{
				"x": -1.4042041909,
				"y": 0.1591656471,
				"z": 3.2438528184,
				"element": "O" 
			},
			{
				"x": -2.5885142859,
				"y": 1.8368109816,
				"z": 2.3044005261,
				"element": "O" 
			},
			{
				"x": -0.411854085,
				"y": -0.2358310753,
				"z": -0.1180851639,
				"element": "C" 
			},
			{
				"x": 3.1771739245,
				"y": 1.1975541264,
				"z": -0.4482952886,
				"element": "H" 
			},
			{
				"x": 2.5913125057,
				"y": 2.7637679677,
				"z": -1.031847697,
				"element": "H" 
			},
			{
				"x": 1.8729506398,
				"y": 2.0299244099,
				"z": 0.4124439428,
				"element": "H" 
			},
			{
				"x": 1.6725562709,
				"y": 0.9325954021,
				"z": -2.4575530935,
				"element": "H" 
			},
			{
				"x": 0.3786252766,
				"y": 1.7622953724,
				"z": -1.6035180819,
				"element": "H" 
			},
			{
				"x": 1.5761841914,
				"y": -3.5145794006,
				"z": -0.6059371052,
				"element": "H" 
			},
			{
				"x": -0.5254808781,
				"y": -3.5194681306,
				"z": 0.7450891401,
				"element": "H" 
			},
			{
				"x": -3.059379546,
				"y": 0.1178006693,
				"z": 0.443671929,
				"element": "H" 
			},
			{
				"x": -3.7579611234,
				"y": -0.7417801396,
				"z": 1.8244410243,
				"element": "H" 
			},
			{
				"x": -1.1214694446,
				"y": 0.901141394,
				"z": 3.8053375303,
				"element": "H" 
			},
			{
				"x": -0.9528506441,
				"y": 0.6960525716,
				"z": 0.0067432256,
				"element": "H" 
			}
		],
		 "valence_orbital": [ 
			{
				"type": "occ",
				"energy": -0.31179,
				"method": "rhf"
			},
			{
				"type": "occ",
				"energy": -0.30745,
				"method": "rhf"
			},
			{
				"type": "occ",
				"energy": -0.28577,
				"method": "rhf"
			},
			{
				"type": "occ",
				"energy": -0.25737,
				"method": "rhf"
			},
			{
				"type": "occ",
				"energy": -0.22341,
				"method": "rhf"
			},
			{
				"type": "unocc",
				"energy": -0.01849,
				"method": "rhf"
			},
			{
				"type": "unocc",
				"energy": -0.00392,
				"method": "rhf"
			},
			{
				"type": "unocc",
				"energy": -0.00083,
				"method": "rhf"
			},
			{
				"type": "unocc",
				"energy": 0.03397,
				"method": "rhf"
			},
			{
				"type": "unocc",
				"energy": 0.06354,
				"method": "rhf"
			}
		],
		"cosmo_sigma_profile": { 
			"-0.025": 0.0,
			"-0.024": 0.0,
			"-0.023": 0.0,
			"-0.022": 0.0,
			"-0.021": 0.0,
			"-0.02": 0.0,
			"-0.019": 0.465345973096,
			"-0.018": 0.875449961556,
			"-0.017": 0.973025489297,
			"-0.016": 0.87740927159,
			"-0.015": 0.65630217099,
			"-0.014": 1.05719778614,
			"-0.013": 0.8089393234,
			"-0.012": 0.544430426194,
			"-0.011": 0.582931571409,
			"-0.01": 1.20033483786,
			"-0.009": 2.95467771645,
			"-0.008": 4.86789547217,
			"-0.007": 8.27750268671,
			"-0.006": 11.3079638239,
			"-0.005": 9.78623814354,
			"-0.004": 10.0214788974,
			"-0.003": 15.3343457795,
			"-0.002": 17.1079303439,
			"-0.001": 20.749439,
			"0.0": 20.9714545474,
			"0.001": 21.6923675379,
			"0.002": 17.1049566152,
			"0.003": 21.4525054298,
			"0.004": 18.7335763144,
			"0.005": 10.4463955078,
			"0.006": 3.94576870863,
			"0.007": 3.60739735979,
			"0.008": 4.15302742819,
			"0.009": 5.04942485118,
			"0.01": 3.32346306145,
			"0.011": 4.98147659296,
			"0.012": 2.5546225111,
			"0.013": 0.0397162601152,
			"0.014": 0.0,
			"0.015": 0.0,
			"0.016": 0.0,
			"0.017": 0.0,
			"0.018": 0.0,
			"0.019": 0.0,
			"0.02": 0.0,
			"0.021": 0.0,
			"0.022": 0.0,
			"0.023": 0.0,
			"0.024": 0.0,
			"0.025": 0.0
		}
	}
}
