{
	 "smiles": "CCOC(=O)C=C(C)N", 
	 "Tm": 307.15, 
	 "num_atms": 20, 
	 "gaussian": { 
		 "optdone": 1, 
		 "sigma_profile": "yes", 
		 "theory": "DFT", 
		 "functional": "B3LYP", 
		 "basiset": "6-31G**", 
		 "properties": { 
			 "R2extent": 2276.1123, 
			 "electric_dipole_moment_norm": 2.19358375268, 
			 "electric_quadrupole_moment_norm": 10.4901229859, 
			 "total_energy": -440.490188559, 
			 "HOMO_LUMO_gap": 0.19876, 
			 "cosmo_polarized_energy": -9.87, 
			 "cosmo_cavitation_energy": 23.48, 
			 "cosmo_dispersion_energy": -17.54, 
			 "cosmo_repulsion_energy": 1.49, 
			 "cosmo_total_nonelectrostatic_energy": 7.43, 
			 "SMD_solvation_energy": 5.36 
		},
		"coords": [
			{
				"x": -3.2823425512,
				"y": -2.3548297027,
				"z": -2.0848488397,
				"element": "C" 
			},
			{
				"x": -3.1230700527,
				"y": -1.5212421653,
				"z": -0.8261696539,
				"element": "C" 
			},
			{
				"x": -1.9345316258,
				"y": -0.7252983759,
				"z": -0.9839557479,
				"element": "O" 
			},
			{
				"x": -1.6232208629,
				"y": 0.0909225616,
				"z": 0.0581286443,
				"element": "C" 
			},
			{
				"x": -2.3251138066,
				"y": 0.1391879668,
				"z": 1.0734308071,
				"element": "O" 
			},
			{
				"x": -0.4200489414,
				"y": 0.8537058216,
				"z": -0.1838000708,
				"element": "C" 
			},
			{
				"x": 0.0722985558,
				"y": 1.7440428328,
				"z": 0.7368691495,
				"element": "C" 
			},
			{
				"x": 1.3196084631,
				"y": 2.5428569565,
				"z": 0.4618289716,
				"element": "C" 
			},
			{
				"x": -0.5119916038,
				"y": 1.9539920272,
				"z": 1.9405098368,
				"element": "N" 
			},
			{
				"x": -2.4178522237,
				"y": -3.008964853,
				"z": -2.2317718838,
				"element": "H" 
			},
			{
				"x": -3.3812944595,
				"y": -1.7151635123,
				"z": -2.9668199236,
				"element": "H" 
			},
			{
				"x": -4.1783349285,
				"y": -2.9792565039,
				"z": -2.0095662896,
				"element": "H" 
			},
			{
				"x": -3.9816781453,
				"y": -0.8607730944,
				"z": -0.6635682895,
				"element": "H" 
			},
			{
				"x": -3.0233293692,
				"y": -2.1469472615,
				"z": 0.0672981108,
				"element": "H" 
			},
			{
				"x": 0.0966205817,
				"y": 0.7128617204,
				"z": -1.1234687026,
				"element": "H" 
			},
			{
				"x": 1.7308827155,
				"y": 2.3076712769,
				"z": -0.5205342319,
				"element": "H" 
			},
			{
				"x": 2.0853937001,
				"y": 2.3347022119,
				"z": 1.2182500695,
				"element": "H" 
			},
			{
				"x": 1.1053512811,
				"y": 3.6177852515,
				"z": 0.4983361008,
				"element": "H" 
			},
			{
				"x": -0.1737969247,
				"y": 2.6681084941,
				"z": 2.5623726922,
				"element": "H" 
			},
			{
				"x": -1.3749498023,
				"y": 1.4516383479,
				"z": 2.1293792506,
				"element": "H" 
			}
		],
		 "valence_orbital": [ 
			{
				"type": "occ",
				"energy": -0.33114,
				"method": "rhf"
			},
			{
				"type": "occ",
				"energy": -0.3243,
				"method": "rhf"
			},
			{
				"type": "occ",
				"energy": -0.27741,
				"method": "rhf"
			},
			{
				"type": "occ",
				"energy": -0.25293,
				"method": "rhf"
			},
			{
				"type": "occ",
				"energy": -0.20571,
				"method": "rhf"
			},
			{
				"type": "unocc",
				"energy": -0.00695,
				"method": "rhf"
			},
			{
				"type": "unocc",
				"energy": 0.0817,
				"method": "rhf"
			},
			{
				"type": "unocc",
				"energy": 0.11296,
				"method": "rhf"
			},
			{
				"type": "unocc",
				"energy": 0.11469,
				"method": "rhf"
			},
			{
				"type": "unocc",
				"energy": 0.12616,
				"method": "rhf"
			}
		],
		"cosmo_sigma_profile": { 
			"-0.025": 0.0,
			"-0.024": 0.0,
			"-0.023": 0.0,
			"-0.022": 0.0,
			"-0.021": 0.0,
			"-0.02": 0.0,
			"-0.019": 0.0,
			"-0.018": 0.0,
			"-0.017": 0.0,
			"-0.016": 0.0,
			"-0.015": 0.0367422959955,
			"-0.014": 0.785260055775,
			"-0.013": 1.29836580464,
			"-0.012": 1.09102451186,
			"-0.011": 0.54110071416,
			"-0.01": 1.54758061387,
			"-0.009": 1.39189540856,
			"-0.008": 2.78424175094,
			"-0.007": 2.00024391034,
			"-0.006": 3.09513994735,
			"-0.005": 10.5901118103,
			"-0.004": 16.6740344053,
			"-0.003": 20.6561875299,
			"-0.002": 17.5553488141,
			"-0.001": 18.7120940032,
			"0.0": 14.6923821308,
			"0.001": 10.3828593053,
			"0.002": 7.90032815695,
			"0.003": 5.49059629877,
			"0.004": 10.2977568072,
			"0.005": 10.7080224877,
			"0.006": 6.72198006032,
			"0.007": 3.74525675092,
			"0.008": 2.55105625243,
			"0.009": 3.38559994927,
			"0.01": 2.76176901908,
			"0.011": 1.14031689867,
			"0.012": 2.14164556766,
			"0.013": 2.26070125677,
			"0.014": 1.03587338418,
			"0.015": 0.00161131761787,
			"0.016": 0.0,
			"0.017": 0.0,
			"0.018": 0.0,
			"0.019": 0.0,
			"0.02": 0.0,
			"0.021": 0.0,
			"0.022": 0.0,
			"0.023": 0.0,
			"0.024": 0.0,
			"0.025": 0.0
		}
	}
}
