{
	 "smiles": "CC1=C(C(=O)C=CC2=CC=CC=C2)C(=O)N(N1)C1=CC=CC=C1", 
	 "Tm": 441.15, 
	 "num_atms": 39, 
	 "gaussian": { 
		 "optdone": 1, 
		 "sigma_profile": "yes", 
		 "theory": "DFT", 
		 "functional": "B3LYP", 
		 "basiset": "6-31G**", 
		 "properties": { 
			 "R2extent": 10778.1031, 
			 "electric_dipole_moment_norm": 3.88676206758, 
			 "electric_quadrupole_moment_norm": 19.0225936115, 
			 "total_energy": -993.586935127, 
			 "HOMO_LUMO_gap": 0.15518, 
			 "cosmo_polarized_energy": -19.52, 
			 "cosmo_cavitation_energy": 43.59, 
			 "cosmo_dispersion_energy": -31.28, 
			 "cosmo_repulsion_energy": 2.32, 
			 "cosmo_total_nonelectrostatic_energy": 14.63, 
			 "SMD_solvation_energy": 8.32 
		},
		"coords": [
			{
				"x": -1.2207146113,
				"y": -1.2383687454,
				"z": 3.9546367995,
				"element": "C" 
			},
			{
				"x": -1.0297715617,
				"y": -0.8418047957,
				"z": 2.528531505,
				"element": "C" 
			},
			{
				"x": -0.1666737231,
				"y": 0.0566446423,
				"z": 1.9274480684,
				"element": "C" 
			},
			{
				"x": 0.8780945836,
				"y": 0.7510904948,
				"z": 2.7300220871,
				"element": "C" 
			},
			{
				"x": 1.0332304058,
				"y": 0.3781801546,
				"z": 3.9014914495,
				"element": "O" 
			},
			{
				"x": 1.7256893679,
				"y": 1.8679506949,
				"z": 2.2703267094,
				"element": "C" 
			},
			{
				"x": 1.7386989267,
				"y": 2.5068471109,
				"z": 1.0822864446,
				"element": "C" 
			},
			{
				"x": 2.6033118875,
				"y": 3.6357003677,
				"z": 0.7233650259,
				"element": "C" 
			},
			{
				"x": 2.5506373504,
				"y": 4.1174920913,
				"z": -0.5983122365,
				"element": "C" 
			},
			{
				"x": 3.348165716,
				"y": 5.183878976,
				"z": -1.0092715526,
				"element": "C" 
			},
			{
				"x": 4.215225233,
				"y": 5.7959255869,
				"z": -0.1030996323,
				"element": "C" 
			},
			{
				"x": 4.2771164067,
				"y": 5.3332054303,
				"z": 1.2157418443,
				"element": "C" 
			},
			{
				"x": 3.4821021907,
				"y": 4.2678089387,
				"z": 1.6252481661,
				"element": "C" 
			},
			{
				"x": -0.5062176339,
				"y": 0.0861199956,
				"z": 0.4962820687,
				"element": "C" 
			},
			{
				"x": -0.0316934422,
				"y": 0.6880088533,
				"z": -0.4639429868,
				"element": "O" 
			},
			{
				"x": -1.590001057,
				"y": -0.8153497746,
				"z": 0.3595686346,
				"element": "N" 
			},
			{
				"x": -1.8170317735,
				"y": -1.4407742012,
				"z": 1.5824667263,
				"element": "N" 
			},
			{
				"x": -2.0914003525,
				"y": -1.4037134604,
				"z": -0.8261981364,
				"element": "C" 
			},
			{
				"x": -2.1409079895,
				"y": -0.6506920135,
				"z": -2.009507281,
				"element": "C" 
			},
			{
				"x": -2.6659765156,
				"y": -1.2283788341,
				"z": -3.1632750841,
				"element": "C" 
			},
			{
				"x": -3.1580677425,
				"y": -2.535585839,
				"z": -3.1542784023,
				"element": "C" 
			},
			{
				"x": -3.108077472,
				"y": -3.2758325196,
				"z": -1.9733297689,
				"element": "C" 
			},
			{
				"x": -2.5718064616,
				"y": -2.7212873241,
				"z": -0.8113989243,
				"element": "C" 
			},
			{
				"x": -0.355595387,
				"y": -1.8058771781,
				"z": 4.306316372,
				"element": "H" 
			},
			{
				"x": -1.2819184791,
				"y": -0.3565953976,
				"z": 4.5944771617,
				"element": "H" 
			},
			{
				"x": -2.1221405562,
				"y": -1.849803222,
				"z": 4.0702761516,
				"element": "H" 
			},
			{
				"x": 2.3961130284,
				"y": 2.1696770538,
				"z": 3.0715753432,
				"element": "H" 
			},
			{
				"x": 1.0742437987,
				"y": 2.1589611577,
				"z": 0.2972074084,
				"element": "H" 
			},
			{
				"x": 1.8767084078,
				"y": 3.6393636431,
				"z": -1.3041208952,
				"element": "H" 
			},
			{
				"x": 3.2925464409,
				"y": 5.5367782265,
				"z": -2.0351127036,
				"element": "H" 
			},
			{
				"x": 4.8375564522,
				"y": 6.6285515196,
				"z": -0.418333655,
				"element": "H" 
			},
			{
				"x": 4.9475951178,
				"y": 5.8083325283,
				"z": 1.9263221286,
				"element": "H" 
			},
			{
				"x": 3.5391952818,
				"y": 3.9267225321,
				"z": 2.6540544162,
				"element": "H" 
			},
			{
				"x": -2.7925378196,
				"y": -1.6334235948,
				"z": 1.7896797976,
				"element": "H" 
			},
			{
				"x": -1.7548047412,
				"y": 0.3591083349,
				"z": -2.0134427911,
				"element": "H" 
			},
			{
				"x": -2.6965524167,
				"y": -0.6427613024,
				"z": -4.0774869602,
				"element": "H" 
			},
			{
				"x": -3.5719056919,
				"y": -2.9724424723,
				"z": -4.0578538531,
				"element": "H" 
			},
			{
				"x": -3.4759911695,
				"y": -4.2975574842,
				"z": -1.9520180596,
				"element": "H" 
			},
			{
				"x": -2.5009439981,
				"y": -3.3170001741,
				"z": 0.0920586142,
				"element": "H" 
			}
		],
		 "valence_orbital": [ 
			{
				"type": "occ",
				"energy": -0.24956,
				"method": "rhf"
			},
			{
				"type": "occ",
				"energy": -0.24346,
				"method": "rhf"
			},
			{
				"type": "occ",
				"energy": -0.23852,
				"method": "rhf"
			},
			{
				"type": "occ",
				"energy": -0.22184,
				"method": "rhf"
			},
			{
				"type": "occ",
				"energy": -0.21914,
				"method": "rhf"
			},
			{
				"type": "unocc",
				"energy": -0.06396,
				"method": "rhf"
			},
			{
				"type": "unocc",
				"energy": -0.03131,
				"method": "rhf"
			},
			{
				"type": "unocc",
				"energy": -0.00913,
				"method": "rhf"
			},
			{
				"type": "unocc",
				"energy": -0.00386,
				"method": "rhf"
			},
			{
				"type": "unocc",
				"energy": 0.00212,
				"method": "rhf"
			}
		],
		"cosmo_sigma_profile": { 
			"-0.025": 0.0,
			"-0.024": 0.0,
			"-0.023": 0.0,
			"-0.022": 0.0,
			"-0.021": 0.0,
			"-0.02": 0.0,
			"-0.019": 0.0,
			"-0.018": 0.0497498629409,
			"-0.017": 0.91277812969,
			"-0.016": 1.40133388912,
			"-0.015": 1.12963149919,
			"-0.014": 1.3958103011,
			"-0.013": 1.68002357946,
			"-0.012": 1.5945317479,
			"-0.011": 1.36928672915,
			"-0.01": 1.35866018405,
			"-0.009": 1.15236461328,
			"-0.008": 1.80459816698,
			"-0.007": 4.88646842651,
			"-0.006": 17.2547133767,
			"-0.005": 25.6035851571,
			"-0.004": 27.3553346521,
			"-0.003": 26.0239297641,
			"-0.002": 23.7244856812,
			"-0.001": 22.2696953636,
			"0.0": 27.906271712,
			"0.001": 25.6506368726,
			"0.002": 25.956627874,
			"0.003": 27.6888002494,
			"0.004": 25.6552448116,
			"0.005": 24.6746536751,
			"0.006": 4.71108725951,
			"0.007": 4.04855389787,
			"0.008": 3.26970156542,
			"0.009": 3.0884320633,
			"0.01": 3.95183906564,
			"0.011": 2.91510222597,
			"0.012": 3.87981653731,
			"0.013": 3.49483813676,
			"0.014": 1.79759285689,
			"0.015": 0.282593379431,
			"0.016": 0.0,
			"0.017": 0.0,
			"0.018": 0.0,
			"0.019": 0.0,
			"0.02": 0.0,
			"0.021": 0.0,
			"0.022": 0.0,
			"0.023": 0.0,
			"0.024": 0.0,
			"0.025": 0.0
		}
	}
}
