{
	 "smiles": "FC(F)(F)COC(=O)NC1=CC=C(C=C1)C#N", 
	 "Tm": 417.15, 
	 "num_atms": 24, 
	 "gaussian": { 
		 "optdone": 1, 
		 "sigma_profile": "yes", 
		 "theory": "DFT", 
		 "functional": "B3LYP", 
		 "basiset": "6-31G**", 
		 "properties": { 
			 "R2extent": 6481.2809, 
			 "electric_dipole_moment_norm": 3.89460727417, 
			 "electric_quadrupole_moment_norm": 30.4353053693, 
			 "total_energy": -944.762892502, 
			 "HOMO_LUMO_gap": 0.1899, 
			 "cosmo_polarized_energy": -16.32, 
			 "cosmo_cavitation_energy": 32.24, 
			 "cosmo_dispersion_energy": -21.82, 
			 "cosmo_repulsion_energy": 1.63, 
			 "cosmo_total_nonelectrostatic_energy": 12.04, 
			 "SMD_solvation_energy": 9.2 
		},
		"coords": [
			{
				"x": 3.5334414058,
				"y": -0.0940147389,
				"z": 2.4466121784,
				"element": "F" 
			},
			{
				"x": 2.5839690249,
				"y": -0.7356660715,
				"z": 3.1604652754,
				"element": "C" 
			},
			{
				"x": 1.899235443,
				"y": 0.1922377378,
				"z": 3.8526340461,
				"element": "F" 
			},
			{
				"x": 3.1996844601,
				"y": -1.5540700554,
				"z": 4.0346195605,
				"element": "F" 
			},
			{
				"x": 1.6671875054,
				"y": -1.5444099716,
				"z": 2.2590413364,
				"element": "C" 
			},
			{
				"x": 1.085835631,
				"y": -0.6670475218,
				"z": 1.2989282979,
				"element": "O" 
			},
			{
				"x": -0.2254677162,
				"y": -0.3502746373,
				"z": 1.48544418,
				"element": "C" 
			},
			{
				"x": -0.9588114678,
				"y": -0.8784143864,
				"z": 2.2945861271,
				"element": "O" 
			},
			{
				"x": -0.6505374419,
				"y": 0.6259185966,
				"z": 0.616044631,
				"element": "N" 
			},
			{
				"x": 0.014733136,
				"y": 1.4056473585,
				"z": -0.349390653,
				"element": "C" 
			},
			{
				"x": 1.4059179781,
				"y": 1.5997409122,
				"z": -0.3867528909,
				"element": "C" 
			},
			{
				"x": 1.9621622122,
				"y": 2.4140761842,
				"z": -1.3660818108,
				"element": "C" 
			},
			{
				"x": 1.1551405218,
				"y": 3.0591382023,
				"z": -2.3172886477,
				"element": "C" 
			},
			{
				"x": -0.2366774389,
				"y": 2.8738090245,
				"z": -2.2688525683,
				"element": "C" 
			},
			{
				"x": -0.7946959174,
				"y": 2.0558320028,
				"z": -1.2981039926,
				"element": "C" 
			},
			{
				"x": 1.7409025266,
				"y": 3.8967255813,
				"z": -3.3201758218,
				"element": "C" 
			},
			{
				"x": 2.2154875503,
				"y": 4.5772672097,
				"z": -4.1361356783,
				"element": "N" 
			},
			{
				"x": 2.2598055895,
				"y": -2.2857333231,
				"z": 1.7200592244,
				"element": "H" 
			},
			{
				"x": 0.8947832676,
				"y": -2.0283031228,
				"z": 2.8585082688,
				"element": "H" 
			},
			{
				"x": -1.6482808217,
				"y": 0.7679887897,
				"z": 0.6934189051,
				"element": "H" 
			},
			{
				"x": 2.0461356256,
				"y": 1.1247825555,
				"z": 0.3420964212,
				"element": "H" 
			},
			{
				"x": 3.0366665765,
				"y": 2.5612261195,
				"z": -1.3902899053,
				"element": "H" 
			},
			{
				"x": -0.8724697987,
				"y": 3.3673894738,
				"z": -2.9958710515,
				"element": "H" 
			},
			{
				"x": -1.8713478518,
				"y": 1.9101540804,
				"z": -1.2744154319,
				"element": "H" 
			}
		],
		 "valence_orbital": [ 
			{
				"type": "occ",
				"energy": -0.33002,
				"method": "rhf"
			},
			{
				"type": "occ",
				"energy": -0.31889,
				"method": "rhf"
			},
			{
				"type": "occ",
				"energy": -0.31061,
				"method": "rhf"
			},
			{
				"type": "occ",
				"energy": -0.28389,
				"method": "rhf"
			},
			{
				"type": "occ",
				"energy": -0.24623,
				"method": "rhf"
			},
			{
				"type": "unocc",
				"energy": -0.05633,
				"method": "rhf"
			},
			{
				"type": "unocc",
				"energy": -0.03209,
				"method": "rhf"
			},
			{
				"type": "unocc",
				"energy": 0.02218,
				"method": "rhf"
			},
			{
				"type": "unocc",
				"energy": 0.03545,
				"method": "rhf"
			},
			{
				"type": "unocc",
				"energy": 0.05302,
				"method": "rhf"
			}
		],
		"cosmo_sigma_profile": { 
			"-0.025": 0.0,
			"-0.024": 0.0,
			"-0.023": 0.0,
			"-0.022": 0.0,
			"-0.021": 0.0,
			"-0.02": 0.0,
			"-0.019": 0.0,
			"-0.018": 0.0,
			"-0.017": 0.0572359803592,
			"-0.016": 0.893906842893,
			"-0.015": 0.995902189337,
			"-0.014": 1.47868235783,
			"-0.013": 1.76585091242,
			"-0.012": 0.634321406059,
			"-0.011": 0.93680891638,
			"-0.01": 2.05009330756,
			"-0.009": 5.73794208597,
			"-0.008": 8.95787675653,
			"-0.007": 11.2536709734,
			"-0.006": 11.1601034229,
			"-0.005": 8.87739250159,
			"-0.004": 10.0674137516,
			"-0.003": 13.2187431406,
			"-0.002": 16.1156471074,
			"-0.001": 18.0382277783,
			"0.0": 19.9461052563,
			"0.001": 22.0399692779,
			"0.002": 41.3781535654,
			"0.003": 19.3583668237,
			"0.004": 4.92170746002,
			"0.005": 3.9545666641,
			"0.006": 3.17781802397,
			"0.007": 4.0163662836,
			"0.008": 4.71959703508,
			"0.009": 4.93664807443,
			"0.01": 5.48294931721,
			"0.011": 6.89542856533,
			"0.012": 4.99536216997,
			"0.013": 1.90409211217,
			"0.014": 0.197938826815,
			"0.015": 0.0,
			"0.016": 0.0,
			"0.017": 0.0,
			"0.018": 0.0,
			"0.019": 0.0,
			"0.02": 0.0,
			"0.021": 0.0,
			"0.022": 0.0,
			"0.023": 0.0,
			"0.024": 0.0,
			"0.025": 0.0
		}
	}
}
