{
	 "smiles": "CC(=O)OCC1=C(N2C(SC1)C(N)C2=O)C(O)=O", 
	 "Tm": 573.15, 
	 "num_atms": 30, 
	 "gaussian": { 
		 "optdone": 1, 
		 "sigma_profile": "yes", 
		 "theory": "DFT", 
		 "functional": "B3LYP", 
		 "basiset": "6-31G**", 
		 "properties": { 
			 "R2extent": 5860.4821, 
			 "electric_dipole_moment_norm": 3.0074917955, 
			 "electric_quadrupole_moment_norm": 12.2032245202, 
			 "total_energy": -1272.08483828, 
			 "HOMO_LUMO_gap": 0.18114, 
			 "cosmo_polarized_energy": -22.76, 
			 "cosmo_cavitation_energy": 36.3, 
			 "cosmo_dispersion_energy": -25.78, 
			 "cosmo_repulsion_energy": 2.02, 
			 "cosmo_total_nonelectrostatic_energy": 12.53, 
			 "SMD_solvation_energy": 7.19 
		},
		"coords": [
			{
				"x": -2.1163242167,
				"y": 4.811769895,
				"z": 0.6729287184,
				"element": "C" 
			},
			{
				"x": -2.0045921961,
				"y": 3.4966525138,
				"z": 1.4060108515,
				"element": "C" 
			},
			{
				"x": -2.4156841334,
				"y": 3.2704997837,
				"z": 2.522161475,
				"element": "O" 
			},
			{
				"x": -1.3827743085,
				"y": 2.5679828511,
				"z": 0.6367231113,
				"element": "O" 
			},
			{
				"x": -1.2772561347,
				"y": 1.2472432648,
				"z": 1.2256204905,
				"element": "C" 
			},
			{
				"x": -0.3368767185,
				"y": 0.446617119,
				"z": 0.3651491342,
				"element": "C" 
			},
			{
				"x": -0.7106264294,
				"y": -0.6722004979,
				"z": -0.2999946537,
				"element": "C" 
			},
			{
				"x": 0.234705499,
				"y": -1.4550230632,
				"z": -0.9735838604,
				"element": "N" 
			},
			{
				"x": 1.6901414523,
				"y": -1.3136153837,
				"z": -0.9227584818,
				"element": "C" 
			},
			{
				"x": 2.1846310463,
				"y": 0.4474781627,
				"z": -0.9825563365,
				"element": "S" 
			},
			{
				"x": 1.0842395451,
				"y": 0.9676238927,
				"z": 0.3919150901,
				"element": "C" 
			},
			{
				"x": 1.7742215809,
				"y": -2.114815136,
				"z": -2.2623166572,
				"element": "C" 
			},
			{
				"x": 2.4302351041,
				"y": -3.4028134629,
				"z": -2.2205714529,
				"element": "N" 
			},
			{
				"x": 0.2314750489,
				"y": -2.1635748382,
				"z": -2.1790287983,
				"element": "C" 
			},
			{
				"x": -0.6476743812,
				"y": -2.6216303351,
				"z": -2.8640911285,
				"element": "O" 
			},
			{
				"x": -2.1202323324,
				"y": -1.1918200542,
				"z": -0.3266801419,
				"element": "C" 
			},
			{
				"x": -2.1464025806,
				"y": -2.5380046474,
				"z": -0.2959747185,
				"element": "O" 
			},
			{
				"x": -3.1208088046,
				"y": -0.507119674,
				"z": -0.3541498808,
				"element": "O" 
			},
			{
				"x": -2.8094844784,
				"y": 4.7031231152,
				"z": -0.167191176,
				"element": "H" 
			},
			{
				"x": -1.1477514604,
				"y": 5.1072876497,
				"z": 0.2611112333,
				"element": "H" 
			},
			{
				"x": -2.4875466744,
				"y": 5.5756624279,
				"z": 1.3553868571,
				"element": "H" 
			},
			{
				"x": -2.269327285,
				"y": 0.8065473594,
				"z": 1.2912996504,
				"element": "H" 
			},
			{
				"x": -0.8733273512,
				"y": 1.3552153384,
				"z": 2.2393914292,
				"element": "H" 
			},
			{
				"x": 2.1376711067,
				"y": -1.8267169447,
				"z": -0.0686415368,
				"element": "H" 
			},
			{
				"x": 1.5536288247,
				"y": 0.7153122101,
				"z": 1.3517721426,
				"element": "H" 
			},
			{
				"x": 1.0479282518,
				"y": 2.0595534004,
				"z": 0.334024481,
				"element": "H" 
			},
			{
				"x": 2.0824194161,
				"y": -1.460281791,
				"z": -3.0906218991,
				"element": "H" 
			},
			{
				"x": 3.3327905453,
				"y": -3.3768794378,
				"z": -2.6833417418,
				"element": "H" 
			},
			{
				"x": 1.8610974706,
				"y": -4.0960877017,
				"z": -2.6978169303,
				"element": "H" 
			},
			{
				"x": -3.0792954061,
				"y": -2.7957860159,
				"z": -0.3849752702,
				"element": "H" 
			}
		],
		 "valence_orbital": [ 
			{
				"type": "occ",
				"energy": -0.27684,
				"method": "rhf"
			},
			{
				"type": "occ",
				"energy": -0.27556,
				"method": "rhf"
			},
			{
				"type": "occ",
				"energy": -0.26068,
				"method": "rhf"
			},
			{
				"type": "occ",
				"energy": -0.24625,
				"method": "rhf"
			},
			{
				"type": "occ",
				"energy": -0.23906,
				"method": "rhf"
			},
			{
				"type": "unocc",
				"energy": -0.05792,
				"method": "rhf"
			},
			{
				"type": "unocc",
				"energy": -0.00247,
				"method": "rhf"
			},
			{
				"type": "unocc",
				"energy": 0.01017,
				"method": "rhf"
			},
			{
				"type": "unocc",
				"energy": 0.01181,
				"method": "rhf"
			},
			{
				"type": "unocc",
				"energy": 0.04969,
				"method": "rhf"
			}
		],
		"cosmo_sigma_profile": { 
			"-0.025": 0.0,
			"-0.024": 0.0,
			"-0.023": 0.0,
			"-0.022": 0.0,
			"-0.021": 0.0,
			"-0.02": 0.0342955511063,
			"-0.019": 0.596420992459,
			"-0.018": 0.907169644278,
			"-0.017": 1.32352109413,
			"-0.016": 0.624923932725,
			"-0.015": 0.497883712834,
			"-0.014": 0.539870114683,
			"-0.013": 0.770484118643,
			"-0.012": 1.25900110297,
			"-0.011": 3.03729862604,
			"-0.01": 3.3645159821,
			"-0.009": 3.607810909,
			"-0.008": 5.47523068235,
			"-0.007": 17.8786561026,
			"-0.006": 19.9868891572,
			"-0.005": 20.7630938904,
			"-0.004": 20.276957454,
			"-0.003": 20.2184155809,
			"-0.002": 20.2031115244,
			"-0.001": 14.2694731162,
			"0.0": 11.953124758,
			"0.001": 10.6311282512,
			"0.002": 10.8892368926,
			"0.003": 10.3724195887,
			"0.004": 10.5296268408,
			"0.005": 10.7858699001,
			"0.006": 8.97772293198,
			"0.007": 9.49282807699,
			"0.008": 9.76539052317,
			"0.009": 8.17438089714,
			"0.01": 8.5323216131,
			"0.011": 13.001153921,
			"0.012": 7.21072800695,
			"0.013": 1.17981039567,
			"0.014": 0.56375692103,
			"0.015": 0.783673045314,
			"0.016": 0.262446776888,
			"0.017": 0.226167220278,
			"0.018": 0.0,
			"0.019": 0.0,
			"0.02": 0.0,
			"0.021": 0.0,
			"0.022": 0.0,
			"0.023": 0.0,
			"0.024": 0.0,
			"0.025": 0.0
		}
	}
}
