{
	 "smiles": "ClC1=C(C=C2CCCCC2=N1)C#N", 
	 "Tm": 402.15, 
	 "num_atms": 22, 
	 "gaussian": { 
		 "optdone": 1, 
		 "sigma_profile": "yes", 
		 "theory": "DFT", 
		 "functional": "B3LYP", 
		 "basiset": "6-31G**", 
		 "properties": { 
			 "R2extent": 3143.5615, 
			 "electric_dipole_moment_norm": 6.29917129391, 
			 "electric_quadrupole_moment_norm": 14.1949737629, 
			 "total_energy": -956.181965434, 
			 "HOMO_LUMO_gap": 0.19307, 
			 "cosmo_polarized_energy": -10.67, 
			 "cosmo_cavitation_energy": 27.62, 
			 "cosmo_dispersion_energy": -20.24, 
			 "cosmo_repulsion_energy": 1.62, 
			 "cosmo_total_nonelectrostatic_energy": 8.99, 
			 "SMD_solvation_energy": 3.57 
		},
		"coords": [
			{
				"x": -2.9180274241,
				"y": 1.9062908469,
				"z": 0.7150557771,
				"element": "Cl" 
			},
			{
				"x": -1.4357625673,
				"y": 0.970991753,
				"z": 0.6831866083,
				"element": "C" 
			},
			{
				"x": -1.0091814559,
				"y": 0.3064378825,
				"z": 1.8521898041,
				"element": "C" 
			},
			{
				"x": 0.1827015245,
				"y": -0.4233017083,
				"z": 1.7575347379,
				"element": "C" 
			},
			{
				"x": 0.8937236435,
				"y": -0.477605521,
				"z": 0.5587713397,
				"element": "C" 
			},
			{
				"x": 2.1737677894,
				"y": -1.2836031223,
				"z": 0.4448534324,
				"element": "C" 
			},
			{
				"x": 3.0184831195,
				"y": -0.8886584915,
				"z": -0.7742277131,
				"element": "C" 
			},
			{
				"x": 2.1427099376,
				"y": -0.8133701798,
				"z": -2.0307918967,
				"element": "C" 
			},
			{
				"x": 1.0655792995,
				"y": 0.268298498,
				"z": -1.8765014796,
				"element": "C" 
			},
			{
				"x": 0.3647347302,
				"y": 0.2290454072,
				"z": -0.5368345083,
				"element": "C" 
			},
			{
				"x": -0.7794159842,
				"y": 0.9340311163,
				"z": -0.4534469128,
				"element": "N" 
			},
			{
				"x": -1.7317091625,
				"y": 0.3582056413,
				"z": 3.0843323786,
				"element": "C" 
			},
			{
				"x": -2.2894937063,
				"y": 0.3748210874,
				"z": 4.1047923369,
				"element": "N" 
			},
			{
				"x": 0.5484781431,
				"y": -0.9473458942,
				"z": 2.6360044475,
				"element": "H" 
			},
			{
				"x": 2.7546237874,
				"y": -1.1806716016,
				"z": 1.3688609025,
				"element": "H" 
			},
			{
				"x": 1.9103948408,
				"y": -2.3484937016,
				"z": 0.3705755598,
				"element": "H" 
			},
			{
				"x": 3.4884575176,
				"y": 0.0879058498,
				"z": -0.5976740784,
				"element": "H" 
			},
			{
				"x": 3.8308090316,
				"y": -1.6107045655,
				"z": -0.9079483492,
				"element": "H" 
			},
			{
				"x": 1.6670541388,
				"y": -1.7886637786,
				"z": -2.1998504002,
				"element": "H" 
			},
			{
				"x": 2.7511697012,
				"y": -0.6041581492,
				"z": -2.9167397102,
				"element": "H" 
			},
			{
				"x": 0.3077150896,
				"y": 0.202563309,
				"z": -2.6637181081,
				"element": "H" 
			},
			{
				"x": 1.518888006,
				"y": 1.2642853222,
				"z": -1.9832241681,
				"element": "H" 
			}
		],
		 "valence_orbital": [ 
			{
				"type": "occ",
				"energy": -0.33702,
				"method": "rhf"
			},
			{
				"type": "occ",
				"energy": -0.32062,
				"method": "rhf"
			},
			{
				"type": "occ",
				"energy": -0.29786,
				"method": "rhf"
			},
			{
				"type": "occ",
				"energy": -0.28438,
				"method": "rhf"
			},
			{
				"type": "occ",
				"energy": -0.26115,
				"method": "rhf"
			},
			{
				"type": "unocc",
				"energy": -0.06808,
				"method": "rhf"
			},
			{
				"type": "unocc",
				"energy": -0.04527,
				"method": "rhf"
			},
			{
				"type": "unocc",
				"energy": 0.01757,
				"method": "rhf"
			},
			{
				"type": "unocc",
				"energy": 0.0357,
				"method": "rhf"
			},
			{
				"type": "unocc",
				"energy": 0.05393,
				"method": "rhf"
			}
		],
		"cosmo_sigma_profile": { 
			"-0.025": 0.0,
			"-0.024": 0.0,
			"-0.023": 0.0,
			"-0.022": 0.0,
			"-0.021": 0.0,
			"-0.02": 0.0,
			"-0.019": 0.0,
			"-0.018": 0.0,
			"-0.017": 0.0,
			"-0.016": 0.0,
			"-0.015": 0.0,
			"-0.014": 0.0,
			"-0.013": 0.0,
			"-0.012": 0.0,
			"-0.011": 0.0,
			"-0.01": 0.0625810641519,
			"-0.009": 1.92114010601,
			"-0.008": 2.58323092275,
			"-0.007": 2.75822790311,
			"-0.006": 2.97231945739,
			"-0.005": 7.38247566096,
			"-0.004": 18.9224914562,
			"-0.003": 33.945111176,
			"-0.002": 34.4417039417,
			"-0.001": 28.5494734853,
			"0.0": 16.3661469922,
			"0.001": 8.16877309027,
			"0.002": 8.12322818818,
			"0.003": 12.4281948233,
			"0.004": 8.8506555376,
			"0.005": 5.6602181365,
			"0.006": 4.470759741,
			"0.007": 4.57452594297,
			"0.008": 4.71058801834,
			"0.009": 4.48832527366,
			"0.01": 3.5452020421,
			"0.011": 3.74167556491,
			"0.012": 2.62731787274,
			"0.013": 1.15346346803,
			"0.014": 0.0505119955993,
			"0.015": 0.0,
			"0.016": 0.0,
			"0.017": 0.0,
			"0.018": 0.0,
			"0.019": 0.0,
			"0.02": 0.0,
			"0.021": 0.0,
			"0.022": 0.0,
			"0.023": 0.0,
			"0.024": 0.0,
			"0.025": 0.0
		}
	}
}
