{
	 "smiles": "OC(=O)C1=C(C=CS1)C(O)=O", 
	 "Tm": 542.15, 
	 "num_atms": 15, 
	 "gaussian": { 
		 "optdone": 1, 
		 "sigma_profile": "yes", 
		 "theory": "DFT", 
		 "functional": "B3LYP", 
		 "basiset": "6-31G**", 
		 "properties": { 
			 "R2extent": 1973.2952, 
			 "electric_dipole_moment_norm": 2.87365172907, 
			 "electric_quadrupole_moment_norm": 8.52914734367, 
			 "total_energy": -930.138266166, 
			 "HOMO_LUMO_gap": 0.18274, 
			 "cosmo_polarized_energy": -15.28, 
			 "cosmo_cavitation_energy": 22.36, 
			 "cosmo_dispersion_energy": -17.0, 
			 "cosmo_repulsion_energy": 1.33, 
			 "cosmo_total_nonelectrostatic_energy": 6.69, 
			 "SMD_solvation_energy": 6.4 
		},
		"coords": [
			{
				"x": -1.0658556932,
				"y": 0.5423656524,
				"z": -1.7291681962,
				"element": "O" 
			},
			{
				"x": -0.0852724784,
				"y": -0.3766625188,
				"z": -1.7693676423,
				"element": "C" 
			},
			{
				"x": 0.4759015602,
				"y": -0.7094319353,
				"z": -2.7964017706,
				"element": "O" 
			},
			{
				"x": 0.2037061674,
				"y": -0.996908493,
				"z": -0.4581868452,
				"element": "C" 
			},
			{
				"x": -0.0487005635,
				"y": -0.6125368234,
				"z": 0.850255172,
				"element": "C" 
			},
			{
				"x": 0.353491531,
				"y": -1.6074268925,
				"z": 1.7933858809,
				"element": "C" 
			},
			{
				"x": 0.914940254,
				"y": -2.7044923861,
				"z": 1.1988863971,
				"element": "C" 
			},
			{
				"x": 0.9616724958,
				"y": -2.5589453735,
				"z": -0.5179995585,
				"element": "S" 
			},
			{
				"x": -0.5614080149,
				"y": 0.7151945395,
				"z": 1.2883467636,
				"element": "C" 
			},
			{
				"x": -1.2132064494,
				"y": 0.615735324,
				"z": 2.476888222,
				"element": "O" 
			},
			{
				"x": -0.3987389403,
				"y": 1.7719775083,
				"z": 0.7219780838,
				"element": "O" 
			},
			{
				"x": -1.1450886083,
				"y": 0.8914517948,
				"z": -2.632645851,
				"element": "H" 
			},
			{
				"x": 0.2366821248,
				"y": -1.4866788899,
				"z": 2.8625634559,
				"element": "H" 
			},
			{
				"x": 1.3068793439,
				"y": -3.5908422524,
				"z": 1.6789276762,
				"element": "H" 
			},
			{
				"x": -1.4661027292,
				"y": 1.5236007457,
				"z": 2.7143382122,
				"element": "H" 
			}
		],
		 "valence_orbital": [ 
			{
				"type": "occ",
				"energy": -0.32115,
				"method": "rhf"
			},
			{
				"type": "occ",
				"energy": -0.2881,
				"method": "rhf"
			},
			{
				"type": "occ",
				"energy": -0.28472,
				"method": "rhf"
			},
			{
				"type": "occ",
				"energy": -0.2722,
				"method": "rhf"
			},
			{
				"type": "occ",
				"energy": -0.25894,
				"method": "rhf"
			},
			{
				"type": "unocc",
				"energy": -0.0762,
				"method": "rhf"
			},
			{
				"type": "unocc",
				"energy": -0.00419,
				"method": "rhf"
			},
			{
				"type": "unocc",
				"energy": 0.01626,
				"method": "rhf"
			},
			{
				"type": "unocc",
				"energy": 0.03077,
				"method": "rhf"
			},
			{
				"type": "unocc",
				"energy": 0.07318,
				"method": "rhf"
			}
		],
		"cosmo_sigma_profile": { 
			"-0.025": 0.0,
			"-0.024": 0.0,
			"-0.023": 0.0,
			"-0.022": 0.0,
			"-0.021": 0.0,
			"-0.02": 0.0,
			"-0.019": 0.460148319548,
			"-0.018": 2.41985538884,
			"-0.017": 1.59012452455,
			"-0.016": 1.5274967425,
			"-0.015": 1.55929665265,
			"-0.014": 1.3669165475,
			"-0.013": 1.18862713074,
			"-0.012": 0.94362504776,
			"-0.011": 1.8957666288,
			"-0.01": 3.53080492072,
			"-0.009": 3.39469520306,
			"-0.008": 4.03233978645,
			"-0.007": 5.44004083614,
			"-0.006": 5.81881832097,
			"-0.005": 4.57191301916,
			"-0.004": 6.21603651693,
			"-0.003": 7.74592382847,
			"-0.002": 11.0365916761,
			"-0.001": 11.2162064689,
			"0.0": 17.2402202941,
			"0.001": 18.5373300765,
			"0.002": 14.6569190394,
			"0.003": 6.82817124132,
			"0.004": 4.38276995866,
			"0.005": 5.33292710945,
			"0.006": 5.00886688223,
			"0.007": 4.4244836079,
			"0.008": 5.14431595942,
			"0.009": 3.98332280389,
			"0.01": 5.224129258,
			"0.011": 10.1661687062,
			"0.012": 4.57691545676,
			"0.013": 0.0341838605068,
			"0.014": 0.0,
			"0.015": 0.0,
			"0.016": 0.0,
			"0.017": 0.0,
			"0.018": 0.0,
			"0.019": 0.0,
			"0.02": 0.0,
			"0.021": 0.0,
			"0.022": 0.0,
			"0.023": 0.0,
			"0.024": 0.0,
			"0.025": 0.0
		}
	}
}
