{
	 "smiles": "[O-][N+](=O)C1=CC(Cl)=CN=C1Cl", 
	 "Tm": 313.15, 
	 "num_atms": 13, 
	 "gaussian": { 
		 "optdone": 1, 
		 "sigma_profile": "yes", 
		 "theory": "DFT", 
		 "functional": "B3LYP", 
		 "basiset": "6-31G**", 
		 "properties": { 
			 "R2extent": 2681.8329, 
			 "electric_dipole_moment_norm": 3.03863521667, 
			 "electric_quadrupole_moment_norm": 3.57871989823, 
			 "total_energy": -1371.94547245, 
			 "HOMO_LUMO_gap": 0.17229, 
			 "cosmo_polarized_energy": -8.74, 
			 "cosmo_cavitation_energy": 22.51, 
			 "cosmo_dispersion_energy": -16.97, 
			 "cosmo_repulsion_energy": 1.37, 
			 "cosmo_total_nonelectrostatic_energy": 6.92, 
			 "SMD_solvation_energy": 4.37 
		},
		"coords": [
			{
				"x": -0.4522404627,
				"y": 2.0614197897,
				"z": 0.4881875937,
				"element": "O" 
			},
			{
				"x": -0.8707174592,
				"y": 1.0276673345,
				"z": -0.031596115,
				"element": "N" 
			},
			{
				"x": -1.7922630323,
				"y": 0.9536478171,
				"z": -0.8337528908,
				"element": "O" 
			},
			{
				"x": -0.1617402805,
				"y": -0.2161570292,
				"z": 0.3272599177,
				"element": "C" 
			},
			{
				"x": 1.1906914607,
				"y": -0.0889103738,
				"z": 0.6340534398,
				"element": "C" 
			},
			{
				"x": 1.9107449677,
				"y": -1.2381610148,
				"z": 0.9355159031,
				"element": "C" 
			},
			{
				"x": 3.6102224261,
				"y": -1.1549370563,
				"z": 1.3092309734,
				"element": "Cl" 
			},
			{
				"x": 1.2456380859,
				"y": -2.4667846859,
				"z": 0.936087215,
				"element": "C" 
			},
			{
				"x": -0.0573105942,
				"y": -2.5710021925,
				"z": 0.6749732137,
				"element": "N" 
			},
			{
				"x": -0.7598552409,
				"y": -1.4888435863,
				"z": 0.3733122432,
				"element": "C" 
			},
			{
				"x": -2.4600376673,
				"y": -1.746344458,
				"z": 0.1152158775,
				"element": "Cl" 
			},
			{
				"x": 1.6473599008,
				"y": 0.8929785098,
				"z": 0.6299525576,
				"element": "H" 
			},
			{
				"x": 1.7787078959,
				"y": -3.3868730545,
				"z": 1.159560071,
				"element": "H" 
			}
		],
		 "valence_orbital": [ 
			{
				"type": "occ",
				"energy": -0.33122,
				"method": "rhf"
			},
			{
				"type": "occ",
				"energy": -0.32456,
				"method": "rhf"
			},
			{
				"type": "occ",
				"energy": -0.30824,
				"method": "rhf"
			},
			{
				"type": "occ",
				"energy": -0.30334,
				"method": "rhf"
			},
			{
				"type": "occ",
				"energy": -0.28398,
				"method": "rhf"
			},
			{
				"type": "unocc",
				"energy": -0.11169,
				"method": "rhf"
			},
			{
				"type": "unocc",
				"energy": -0.07179,
				"method": "rhf"
			},
			{
				"type": "unocc",
				"energy": -0.04267,
				"method": "rhf"
			},
			{
				"type": "unocc",
				"energy": -0.00326,
				"method": "rhf"
			},
			{
				"type": "unocc",
				"energy": 0.01107,
				"method": "rhf"
			}
		],
		"cosmo_sigma_profile": { 
			"-0.025": 0.0,
			"-0.024": 0.0,
			"-0.023": 0.0,
			"-0.022": 0.0,
			"-0.021": 0.0,
			"-0.02": 0.0,
			"-0.019": 0.0,
			"-0.018": 0.0,
			"-0.017": 0.0,
			"-0.016": 0.0,
			"-0.015": 0.0,
			"-0.014": 0.0,
			"-0.013": 0.0,
			"-0.012": 0.0,
			"-0.011": 0.246433838731,
			"-0.01": 3.22216163709,
			"-0.009": 4.5004968885,
			"-0.008": 5.12489965703,
			"-0.007": 4.80816957848,
			"-0.006": 6.6177759959,
			"-0.005": 9.89678447635,
			"-0.004": 14.3583661372,
			"-0.003": 17.2055829839,
			"-0.002": 11.4318618268,
			"-0.001": 10.0554708521,
			"0.0": 10.1791308737,
			"0.001": 12.3526977336,
			"0.002": 15.717347302,
			"0.003": 17.7962302828,
			"0.004": 6.74608589834,
			"0.005": 5.95170756919,
			"0.006": 9.40311917934,
			"0.007": 11.2123095539,
			"0.008": 4.8347095825,
			"0.009": 2.94744090385,
			"0.01": 0.992874972494,
			"0.011": 0.863700227566,
			"0.012": 0.472810366024,
			"0.013": 0.0260077636212,
			"0.014": 0.0,
			"0.015": 0.0,
			"0.016": 0.0,
			"0.017": 0.0,
			"0.018": 0.0,
			"0.019": 0.0,
			"0.02": 0.0,
			"0.021": 0.0,
			"0.022": 0.0,
			"0.023": 0.0,
			"0.024": 0.0,
			"0.025": 0.0
		}
	}
}
