{
	 "smiles": "CC(C)(C#N)N1CCN(CC1)C(C)(C)C#N", 
	 "Tm": 456.15, 
	 "num_atms": 36, 
	 "gaussian": { 
		 "optdone": 1, 
		 "sigma_profile": "yes", 
		 "theory": "DFT", 
		 "functional": "B3LYP", 
		 "basiset": "6-31G**", 
		 "properties": { 
			 "R2extent": 4527.8617, 
			 "electric_dipole_moment_norm": 5.02144170234, 
			 "electric_quadrupole_moment_norm": 30.9584511541, 
			 "total_energy": -688.270841248, 
			 "HOMO_LUMO_gap": 0.24089, 
			 "cosmo_polarized_energy": -17.39, 
			 "cosmo_cavitation_energy": 36.65, 
			 "cosmo_dispersion_energy": -24.39, 
			 "cosmo_repulsion_energy": 1.89, 
			 "cosmo_total_nonelectrostatic_energy": 14.15, 
			 "SMD_solvation_energy": 5.43 
		},
		"coords": [
			{
				"x": -2.2848192382,
				"y": 1.2913087747,
				"z": 1.9988678632,
				"element": "C" 
			},
			{
				"x": -1.5631216711,
				"y": 1.683149643,
				"z": 0.6865007392,
				"element": "C" 
			},
			{
				"x": -2.6076050121,
				"y": 2.016441835,
				"z": -0.4131823483,
				"element": "C" 
			},
			{
				"x": -0.8005137094,
				"y": 2.9235790089,
				"z": 0.9812491545,
				"element": "C" 
			},
			{
				"x": -0.24637769,
				"y": 3.9158411802,
				"z": 1.2160509934,
				"element": "N" 
			},
			{
				"x": -0.5879272098,
				"y": 0.6412683915,
				"z": 0.3057212156,
				"element": "N" 
			},
			{
				"x": -1.1368924655,
				"y": -0.6670350721,
				"z": -0.0335374697,
				"element": "C" 
			},
			{
				"x": -0.0387993014,
				"y": -1.7355941114,
				"z": 0.117424666,
				"element": "C" 
			},
			{
				"x": 1.2658245534,
				"y": -1.2135958109,
				"z": -0.3238012678,
				"element": "N" 
			},
			{
				"x": 1.1052538359,
				"y": -0.1607194825,
				"z": -1.320792668,
				"element": "C" 
			},
			{
				"x": 0.4337879206,
				"y": 1.0614522762,
				"z": -0.668295913,
				"element": "C" 
			},
			{
				"x": 2.2910996043,
				"y": -2.2374848563,
				"z": -0.610744063,
				"element": "C" 
			},
			{
				"x": 3.7007263496,
				"y": -1.5976615411,
				"z": -0.6275995399,
				"element": "C" 
			},
			{
				"x": 2.0540244091,
				"y": -3.0316202166,
				"z": -1.9238106501,
				"element": "C" 
			},
			{
				"x": 2.283427675,
				"y": -3.2062782283,
				"z": 0.5155024748,
				"element": "C" 
			},
			{
				"x": 2.3084417026,
				"y": -3.9900872402,
				"z": 1.3709554182,
				"element": "N" 
			},
			{
				"x": -1.5531860333,
				"y": 0.9995629391,
				"z": 2.7550657483,
				"element": "H" 
			},
			{
				"x": -2.8689164927,
				"y": 2.1353872266,
				"z": 2.3738041331,
				"element": "H" 
			},
			{
				"x": -2.974328854,
				"y": 0.460288115,
				"z": 1.8302863707,
				"element": "H" 
			},
			{
				"x": -3.2280463489,
				"y": 1.1372339949,
				"z": -0.6097810369,
				"element": "H" 
			},
			{
				"x": -2.1258686788,
				"y": 2.3191882874,
				"z": -1.3462828125,
				"element": "H" 
			},
			{
				"x": -3.261923096,
				"y": 2.8310900364,
				"z": -0.0913194745,
				"element": "H" 
			},
			{
				"x": -1.563262356,
				"y": -0.7008583719,
				"z": -1.0523546479,
				"element": "H" 
			},
			{
				"x": -1.9493349925,
				"y": -0.9230841261,
				"z": 0.6490207446,
				"element": "H" 
			},
			{
				"x": -0.3572036065,
				"y": -2.6265236391,
				"z": -0.4513901514,
				"element": "H" 
			},
			{
				"x": 0.0455375557,
				"y": -2.0317504178,
				"z": 1.1675671646,
				"element": "H" 
			},
			{
				"x": 0.5234564726,
				"y": -0.489990248,
				"z": -2.2005886368,
				"element": "H" 
			},
			{
				"x": 2.0805689857,
				"y": 0.153909729,
				"z": -1.696657254,
				"element": "H" 
			},
			{
				"x": 1.185611997,
				"y": 1.6588334089,
				"z": -0.1434071067,
				"element": "H" 
			},
			{
				"x": 0.0206556925,
				"y": 1.6889392318,
				"z": -1.4771568372,
				"element": "H" 
			},
			{
				"x": 3.831227924,
				"y": -0.9675732222,
				"z": -1.511014731,
				"element": "H" 
			},
			{
				"x": 4.4671382152,
				"y": -2.375986545,
				"z": -0.6597939036,
				"element": "H" 
			},
			{
				"x": 3.8462085877,
				"y": -0.9902337258,
				"z": 0.2680043757,
				"element": "H" 
			},
			{
				"x": 2.8132475555,
				"y": -3.808356147,
				"z": -2.0488955363,
				"element": "H" 
			},
			{
				"x": 2.1148305897,
				"y": -2.3533175142,
				"z": -2.7798331759,
				"element": "H" 
			},
			{
				"x": 1.07345713,
				"y": -3.514123562,
				"z": -1.9299818375,
				"element": "H" 
			}
		],
		 "valence_orbital": [ 
			{
				"type": "occ",
				"energy": -0.32616,
				"method": "rhf"
			},
			{
				"type": "occ",
				"energy": -0.32207,
				"method": "rhf"
			},
			{
				"type": "occ",
				"energy": -0.3211,
				"method": "rhf"
			},
			{
				"type": "occ",
				"energy": -0.23285,
				"method": "rhf"
			},
			{
				"type": "occ",
				"energy": -0.21492,
				"method": "rhf"
			},
			{
				"type": "unocc",
				"energy": 0.02597,
				"method": "rhf"
			},
			{
				"type": "unocc",
				"energy": 0.03497,
				"method": "rhf"
			},
			{
				"type": "unocc",
				"energy": 0.03695,
				"method": "rhf"
			},
			{
				"type": "unocc",
				"energy": 0.03758,
				"method": "rhf"
			},
			{
				"type": "unocc",
				"energy": 0.05568,
				"method": "rhf"
			}
		],
		"cosmo_sigma_profile": { 
			"-0.025": 0.0,
			"-0.024": 0.0,
			"-0.023": 0.0,
			"-0.022": 0.0,
			"-0.021": 0.0,
			"-0.02": 0.0,
			"-0.019": 0.0,
			"-0.018": 0.0,
			"-0.017": 0.0,
			"-0.016": 0.0,
			"-0.015": 0.0,
			"-0.014": 0.0,
			"-0.013": 0.0,
			"-0.012": 0.0,
			"-0.011": 0.0,
			"-0.01": 0.0,
			"-0.009": 0.0,
			"-0.008": 0.000265796670248,
			"-0.007": 2.52000539949,
			"-0.006": 10.1284424998,
			"-0.005": 25.4005788607,
			"-0.004": 32.1135582383,
			"-0.003": 47.1771068363,
			"-0.002": 36.1435636681,
			"-0.001": 33.0913623775,
			"0.0": 18.7571637403,
			"0.001": 6.70164952345,
			"0.002": 5.58227217499,
			"0.003": 6.12787727341,
			"0.004": 5.57142806224,
			"0.005": 5.48480419171,
			"0.006": 5.69107004924,
			"0.007": 5.14812454038,
			"0.008": 7.34647148827,
			"0.009": 7.81431582599,
			"0.01": 6.91887975443,
			"0.011": 6.47843662808,
			"0.012": 5.53714651332,
			"0.013": 4.24551579724,
			"0.014": 1.62179005029,
			"0.015": 0.518046435815,
			"0.016": 0.0,
			"0.017": 0.0,
			"0.018": 0.0,
			"0.019": 0.0,
			"0.02": 0.0,
			"0.021": 0.0,
			"0.022": 0.0,
			"0.023": 0.0,
			"0.024": 0.0,
			"0.025": 0.0
		}
	}
}
