{
	 "smiles": "CC1(C)C(=O)OOC1=O", 
	 "Tm": 317.65, 
	 "num_atms": 15, 
	 "gaussian": { 
		 "optdone": 1, 
		 "sigma_profile": "yes", 
		 "theory": "DFT", 
		 "functional": "B3LYP", 
		 "basiset": "6-31G**", 
		 "properties": { 
			 "R2extent": 1145.7165, 
			 "electric_dipole_moment_norm": 2.65559467728, 
			 "electric_quadrupole_moment_norm": 12.2267723435, 
			 "total_energy": -494.970050328, 
			 "HOMO_LUMO_gap": 0.24952, 
			 "cosmo_polarized_energy": -9.08, 
			 "cosmo_cavitation_energy": 19.59, 
			 "cosmo_dispersion_energy": -14.02, 
			 "cosmo_repulsion_energy": 1.16, 
			 "cosmo_total_nonelectrostatic_energy": 6.73, 
			 "SMD_solvation_energy": 5.27 
		},
		"coords": [
			{
				"x": 1.1274013254,
				"y": 2.2085770058,
				"z": -0.0751008979,
				"element": "C" 
			},
			{
				"x": 0.4414258721,
				"y": 0.8365123687,
				"z": 0.0923338846,
				"element": "C" 
			},
			{
				"x": -1.0362614145,
				"y": 0.9971183202,
				"z": 0.5069539076,
				"element": "C" 
			},
			{
				"x": 0.5542315401,
				"y": 0.0239693264,
				"z": -1.1795345127,
				"element": "C" 
			},
			{
				"x": 0.1351253006,
				"y": 0.2408748659,
				"z": -2.2816251703,
				"element": "O" 
			},
			{
				"x": 1.2672015409,
				"y": -1.1334046792,
				"z": -0.9336865767,
				"element": "O" 
			},
			{
				"x": 1.6613478019,
				"y": -1.1577269704,
				"z": 0.4795768767,
				"element": "O" 
			},
			{
				"x": 1.1884490973,
				"y": -0.0153679567,
				"z": 1.0957439497,
				"element": "C" 
			},
			{
				"x": 1.4021099108,
				"y": 0.1625664478,
				"z": 2.2619301678,
				"element": "O" 
			},
			{
				"x": 2.1754313862,
				"y": 2.1039524732,
				"z": -0.3691497041,
				"element": "H" 
			},
			{
				"x": 1.0855394785,
				"y": 2.7515248061,
				"z": 0.8722358774,
				"element": "H" 
			},
			{
				"x": 0.6064006792,
				"y": 2.781468269,
				"z": -0.8460329539,
				"element": "H" 
			},
			{
				"x": -1.0887672594,
				"y": 1.5344302971,
				"z": 1.456964924,
				"element": "H" 
			},
			{
				"x": -1.5302102383,
				"y": 0.0290532876,
				"z": 0.6279742115,
				"element": "H" 
			},
			{
				"x": -1.5676250207,
				"y": 1.5639521383,
				"z": -0.2613839836,
				"element": "H" 
			}
		],
		 "valence_orbital": [ 
			{
				"type": "occ",
				"energy": -0.39251,
				"method": "rhf"
			},
			{
				"type": "occ",
				"energy": -0.36957,
				"method": "rhf"
			},
			{
				"type": "occ",
				"energy": -0.32631,
				"method": "rhf"
			},
			{
				"type": "occ",
				"energy": -0.31204,
				"method": "rhf"
			},
			{
				"type": "occ",
				"energy": -0.29604,
				"method": "rhf"
			},
			{
				"type": "unocc",
				"energy": -0.04652,
				"method": "rhf"
			},
			{
				"type": "unocc",
				"energy": -0.0425,
				"method": "rhf"
			},
			{
				"type": "unocc",
				"energy": -0.01319,
				"method": "rhf"
			},
			{
				"type": "unocc",
				"energy": 0.07261,
				"method": "rhf"
			},
			{
				"type": "unocc",
				"energy": 0.11451,
				"method": "rhf"
			}
		],
		"cosmo_sigma_profile": { 
			"-0.025": 0.0,
			"-0.024": 0.0,
			"-0.023": 0.0,
			"-0.022": 0.0,
			"-0.021": 0.0,
			"-0.02": 0.0,
			"-0.019": 0.0,
			"-0.018": 0.0,
			"-0.017": 0.0,
			"-0.016": 0.0,
			"-0.015": 0.0,
			"-0.014": 0.0,
			"-0.013": 0.0691830656376,
			"-0.012": 0.787815882309,
			"-0.011": 1.26213291334,
			"-0.01": 1.2226792744,
			"-0.009": 2.54235174683,
			"-0.008": 2.42187454901,
			"-0.007": 3.69375674607,
			"-0.006": 11.0031979191,
			"-0.005": 12.56745471,
			"-0.004": 12.0969740149,
			"-0.003": 13.4618770935,
			"-0.002": 15.9691399983,
			"-0.001": 8.01490450592,
			"0.0": 4.56542516685,
			"0.001": 4.10636554814,
			"0.002": 5.57654073841,
			"0.003": 10.7903782538,
			"0.004": 8.38515850621,
			"0.005": 8.69774280265,
			"0.006": 2.963140559,
			"0.007": 4.02866625798,
			"0.008": 4.85577709565,
			"0.009": 10.1299982419,
			"0.01": 5.76455569237,
			"0.011": 0.0658500267288,
			"0.012": 0.0,
			"0.013": 0.0,
			"0.014": 0.0,
			"0.015": 0.0,
			"0.016": 0.0,
			"0.017": 0.0,
			"0.018": 0.0,
			"0.019": 0.0,
			"0.02": 0.0,
			"0.021": 0.0,
			"0.022": 0.0,
			"0.023": 0.0,
			"0.024": 0.0,
			"0.025": 0.0
		}
	}
}
