{
	 "smiles": "NS(=O)(=O)C1=CC(=C(NCCC(O)=O)C=C1)[N+]([O-])=O", 
	 "Tm": 449.15, 
	 "num_atms": 30, 
	 "gaussian": { 
		 "optdone": 1, 
		 "sigma_profile": "yes", 
		 "theory": "DFT", 
		 "functional": "B3LYP", 
		 "basiset": "6-31G**", 
		 "properties": { 
			 "R2extent": 6098.4719, 
			 "electric_dipole_moment_norm": 5.93605376829, 
			 "electric_quadrupole_moment_norm": 25.4005562396, 
			 "total_energy": -1363.20745408, 
			 "HOMO_LUMO_gap": 0.14819, 
			 "cosmo_polarized_energy": -29.89, 
			 "cosmo_cavitation_energy": 36.24, 
			 "cosmo_dispersion_energy": -25.49, 
			 "cosmo_repulsion_energy": 1.94, 
			 "cosmo_total_nonelectrostatic_energy": 12.69, 
			 "SMD_solvation_energy": 8.12 
		},
		"coords": [
			{
				"x": 4.1596226364,
				"y": 0.5367998412,
				"z": -1.8431466638,
				"element": "N" 
			},
			{
				"x": 2.9603256531,
				"y": 0.1469190766,
				"z": -2.9758678405,
				"element": "S" 
			},
			{
				"x": 3.0885799483,
				"y": 1.1575949128,
				"z": -4.0290095981,
				"element": "O" 
			},
			{
				"x": 3.0023812331,
				"y": -1.2896143779,
				"z": -3.2660076131,
				"element": "O" 
			},
			{
				"x": 1.4547386846,
				"y": 0.4625581747,
				"z": -2.0726284303,
				"element": "C" 
			},
			{
				"x": 0.675221026,
				"y": -0.5952990019,
				"z": -1.64378063,
				"element": "C" 
			},
			{
				"x": -0.5283494747,
				"y": -0.3577997282,
				"z": -0.9688347715,
				"element": "C" 
			},
			{
				"x": -0.9514311876,
				"y": 0.9599798144,
				"z": -0.6435112328,
				"element": "C" 
			},
			{
				"x": -2.0644518693,
				"y": 1.3359483041,
				"z": 0.0737944366,
				"element": "N" 
			},
			{
				"x": -2.6937423909,
				"y": 0.6724269484,
				"z": 1.215359375,
				"element": "C" 
			},
			{
				"x": -1.9016954788,
				"y": 0.7947943034,
				"z": 2.5361091721,
				"element": "C" 
			},
			{
				"x": -0.6001498823,
				"y": 0.0183609724,
				"z": 2.554895853,
				"element": "C" 
			},
			{
				"x": -0.8071594686,
				"y": -1.2842493325,
				"z": 2.2440810145,
				"element": "O" 
			},
			{
				"x": 0.4907328816,
				"y": 0.4730270097,
				"z": 2.8130470629,
				"element": "O" 
			},
			{
				"x": -0.1249694302,
				"y": 2.0098055309,
				"z": -1.1330423494,
				"element": "C" 
			},
			{
				"x": 1.0371432393,
				"y": 1.7816965941,
				"z": -1.8371459388,
				"element": "C" 
			},
			{
				"x": -1.3399267891,
				"y": -1.5509986655,
				"z": -0.7307196631,
				"element": "N" 
			},
			{
				"x": -2.5667187903,
				"y": -1.4330403091,
				"z": -0.7782777921,
				"element": "O" 
			},
			{
				"x": -0.7510591288,
				"y": -2.6176010893,
				"z": -0.551940397,
				"element": "O" 
			},
			{
				"x": 4.5072939377,
				"y": -0.3045834135,
				"z": -1.3891103354,
				"element": "H" 
			},
			{
				"x": 4.9079377152,
				"y": 1.0254930645,
				"z": -2.329360523,
				"element": "H" 
			},
			{
				"x": 0.9628837739,
				"y": -1.6172230988,
				"z": -1.8571042439,
				"element": "H" 
			},
			{
				"x": -2.1443841241,
				"y": 2.3427680351,
				"z": 0.1290700639,
				"element": "H" 
			},
			{
				"x": -2.8857734933,
				"y": -0.3715565652,
				"z": 0.9810018416,
				"element": "H" 
			},
			{
				"x": -3.6670057211,
				"y": 1.154001271,
				"z": 1.3491234803,
				"element": "H" 
			},
			{
				"x": -2.5350105147,
				"y": 0.4006765873,
				"z": 3.3407443486,
				"element": "H" 
			},
			{
				"x": -1.6680854087,
				"y": 1.836474504,
				"z": 2.7696792708,
				"element": "H" 
			},
			{
				"x": 0.0585682521,
				"y": -1.7257940569,
				"z": 2.237001463,
				"element": "H" 
			},
			{
				"x": -0.4225499394,
				"y": 3.0328075281,
				"z": -0.9180126311,
				"element": "H" 
			},
			{
				"x": 1.6319341107,
				"y": 2.6140271658,
				"z": -2.1971067283,
				"element": "H" 
			}
		],
		 "valence_orbital": [ 
			{
				"type": "occ",
				"energy": -0.30404,
				"method": "rhf"
			},
			{
				"type": "occ",
				"energy": -0.29331,
				"method": "rhf"
			},
			{
				"type": "occ",
				"energy": -0.28591,
				"method": "rhf"
			},
			{
				"type": "occ",
				"energy": -0.28256,
				"method": "rhf"
			},
			{
				"type": "occ",
				"energy": -0.23848,
				"method": "rhf"
			},
			{
				"type": "unocc",
				"energy": -0.09029,
				"method": "rhf"
			},
			{
				"type": "unocc",
				"energy": -0.04294,
				"method": "rhf"
			},
			{
				"type": "unocc",
				"energy": -0.02132,
				"method": "rhf"
			},
			{
				"type": "unocc",
				"energy": -0.00546,
				"method": "rhf"
			},
			{
				"type": "unocc",
				"energy": 0.04447,
				"method": "rhf"
			}
		],
		"cosmo_sigma_profile": { 
			"-0.025": 0.0,
			"-0.024": 0.0,
			"-0.023": 0.0,
			"-0.022": 0.0,
			"-0.021": 0.0,
			"-0.02": 0.0,
			"-0.019": 0.0,
			"-0.018": 0.568388458413,
			"-0.017": 0.668129940962,
			"-0.016": 0.734308410437,
			"-0.015": 4.03388083444,
			"-0.014": 4.28651248986,
			"-0.013": 4.5474518192,
			"-0.012": 6.00502697708,
			"-0.011": 4.47046904628,
			"-0.01": 4.30000132081,
			"-0.009": 4.90618077288,
			"-0.008": 6.57676263779,
			"-0.007": 13.5452950102,
			"-0.006": 14.7274297143,
			"-0.005": 13.0506129251,
			"-0.004": 16.0252750106,
			"-0.003": 11.4861215373,
			"-0.002": 12.279597024,
			"-0.001": 15.6406080577,
			"0.0": 16.6037204631,
			"0.001": 15.0768631737,
			"0.002": 11.9296485398,
			"0.003": 8.63960424528,
			"0.004": 8.02966879802,
			"0.005": 9.80250442105,
			"0.006": 8.80278196257,
			"0.007": 13.2742638315,
			"0.008": 12.546185779,
			"0.009": 11.9398726169,
			"0.01": 12.3443867115,
			"0.011": 13.4903617148,
			"0.012": 6.78189455344,
			"0.013": 0.459129211034,
			"0.014": 0.0,
			"0.015": 0.0,
			"0.016": 0.0,
			"0.017": 0.0,
			"0.018": 0.0,
			"0.019": 0.0,
			"0.02": 0.0,
			"0.021": 0.0,
			"0.022": 0.0,
			"0.023": 0.0,
			"0.024": 0.0,
			"0.025": 0.0
		}
	}
}
