{
	 "smiles": "CN1C=CN=C1SC1=C(N)C=CC=C1", 
	 "Tm": 395.15, 
	 "num_atms": 25, 
	 "gaussian": { 
		 "optdone": 1, 
		 "sigma_profile": "yes", 
		 "theory": "DFT", 
		 "functional": "B3LYP", 
		 "basiset": "6-31G**", 
		 "properties": { 
			 "R2extent": 3283.1471, 
			 "electric_dipole_moment_norm": 4.61388575281, 
			 "electric_quadrupole_moment_norm": 12.2035115053, 
			 "total_energy": -950.125819833, 
			 "HOMO_LUMO_gap": 0.19227, 
			 "cosmo_polarized_energy": -14.77, 
			 "cosmo_cavitation_energy": 29.87, 
			 "cosmo_dispersion_energy": -21.64, 
			 "cosmo_repulsion_energy": 1.65, 
			 "cosmo_total_nonelectrostatic_energy": 9.88, 
			 "SMD_solvation_energy": 3.43 
		},
		"coords": [
			{
				"x": -1.268687956,
				"y": -0.5857889761,
				"z": 1.3686752866,
				"element": "C" 
			},
			{
				"x": -1.7094956309,
				"y": 0.7674083394,
				"z": 1.0669037238,
				"element": "N" 
			},
			{
				"x": -2.1431090652,
				"y": 1.6914836236,
				"z": 1.9918637563,
				"element": "C" 
			},
			{
				"x": -2.395521465,
				"y": 2.8442995202,
				"z": 1.2885596051,
				"element": "C" 
			},
			{
				"x": -2.114692636,
				"y": 2.6674347548,
				"z": -0.0418814853,
				"element": "N" 
			},
			{
				"x": -1.7008636243,
				"y": 1.4167924176,
				"z": -0.149374696,
				"element": "C" 
			},
			{
				"x": -1.2886888423,
				"y": 0.6613693688,
				"z": -1.696043044,
				"element": "S" 
			},
			{
				"x": 0.4817617658,
				"y": 0.3590979708,
				"z": -1.5254104799,
				"element": "C" 
			},
			{
				"x": 0.9751749632,
				"y": -0.9652012167,
				"z": -1.5685488317,
				"element": "C" 
			},
			{
				"x": 0.1201470317,
				"y": -2.064494995,
				"z": -1.6255381803,
				"element": "N" 
			},
			{
				"x": 2.3676864879,
				"y": -1.1579315164,
				"z": -1.485654108,
				"element": "C" 
			},
			{
				"x": 3.2339416619,
				"y": -0.0785977038,
				"z": -1.3558523995,
				"element": "C" 
			},
			{
				"x": 2.7403188628,
				"y": 1.2288623326,
				"z": -1.3100726498,
				"element": "C" 
			},
			{
				"x": 1.366997292,
				"y": 1.4369745798,
				"z": -1.4066193833,
				"element": "C" 
			},
			{
				"x": -1.294350815,
				"y": -1.1915416706,
				"z": 0.4626768009,
				"element": "H" 
			},
			{
				"x": -1.9349561766,
				"y": -1.0256453562,
				"z": 2.1148199779,
				"element": "H" 
			},
			{
				"x": -0.2444094357,
				"y": -0.5875108914,
				"z": 1.7547616135,
				"element": "H" 
			},
			{
				"x": -2.2221055297,
				"y": 1.4460034587,
				"z": 3.0406232233,
				"element": "H" 
			},
			{
				"x": -2.7625905465,
				"y": 3.7886038896,
				"z": 1.6665599405,
				"element": "H" 
			},
			{
				"x": -0.8006144806,
				"y": -1.8740710025,
				"z": -1.9968514196,
				"element": "H" 
			},
			{
				"x": 0.5307582105,
				"y": -2.9098856439,
				"z": -1.9963065035,
				"element": "H" 
			},
			{
				"x": 2.7600288847,
				"y": -2.1718206863,
				"z": -1.5132341743,
				"element": "H" 
			},
			{
				"x": 4.3033183372,
				"y": -0.2602255444,
				"z": -1.293997661,
				"element": "H" 
			},
			{
				"x": 3.4157464632,
				"y": 2.0727600735,
				"z": -1.2131371231,
				"element": "H" 
			},
			{
				"x": 0.9583062429,
				"y": 2.4427248739,
				"z": -1.3866217887,
				"element": "H" 
			}
		],
		 "valence_orbital": [ 
			{
				"type": "occ",
				"energy": -0.26541,
				"method": "rhf"
			},
			{
				"type": "occ",
				"energy": -0.25831,
				"method": "rhf"
			},
			{
				"type": "occ",
				"energy": -0.24361,
				"method": "rhf"
			},
			{
				"type": "occ",
				"energy": -0.21798,
				"method": "rhf"
			},
			{
				"type": "occ",
				"energy": -0.20642,
				"method": "rhf"
			},
			{
				"type": "unocc",
				"energy": -0.01415,
				"method": "rhf"
			},
			{
				"type": "unocc",
				"energy": 0.00612,
				"method": "rhf"
			},
			{
				"type": "unocc",
				"energy": 0.01114,
				"method": "rhf"
			},
			{
				"type": "unocc",
				"energy": 0.05972,
				"method": "rhf"
			},
			{
				"type": "unocc",
				"energy": 0.07282,
				"method": "rhf"
			}
		],
		"cosmo_sigma_profile": { 
			"-0.025": 0.0,
			"-0.024": 0.0,
			"-0.023": 0.0,
			"-0.022": 0.0,
			"-0.021": 0.0,
			"-0.02": 0.0,
			"-0.019": 0.0,
			"-0.018": 0.0,
			"-0.017": 0.0,
			"-0.016": 0.0,
			"-0.015": 0.0,
			"-0.014": 0.0,
			"-0.013": 0.903365070907,
			"-0.012": 1.1593504983,
			"-0.011": 2.15298742647,
			"-0.01": 2.38880339913,
			"-0.009": 3.7338535218,
			"-0.008": 4.86314583657,
			"-0.007": 7.50078278075,
			"-0.006": 12.7313348592,
			"-0.005": 15.7519574455,
			"-0.004": 17.5952808788,
			"-0.003": 20.6624167821,
			"-0.002": 14.9387099385,
			"-0.001": 11.9309178393,
			"0.0": 13.5391876423,
			"0.001": 14.6792649159,
			"0.002": 15.7856225171,
			"0.003": 16.4752853121,
			"0.004": 16.0132883484,
			"0.005": 15.894289248,
			"0.006": 11.2311456341,
			"0.007": 3.97625523581,
			"0.008": 2.92224427973,
			"0.009": 2.6120929917,
			"0.01": 2.60931226551,
			"0.011": 1.21760488949,
			"0.012": 1.06837212139,
			"0.013": 1.38654830931,
			"0.014": 1.24773398914,
			"0.015": 0.714143022296,
			"0.016": 1.01339871193,
			"0.017": 1.11648533017,
			"0.018": 0.533481167851,
			"0.019": 0.0116374605052,
			"0.02": 0.0,
			"0.021": 0.0,
			"0.022": 0.0,
			"0.023": 0.0,
			"0.024": 0.0,
			"0.025": 0.0
		}
	}
}
