{
	 "smiles": "NC1=CC(=C(C=C1)N1CCCC1)S(=O)(=O)NC1=CC(=CC=C1)C(F)(F)F", 
	 "Tm": 425.15, 
	 "num_atms": 44, 
	 "gaussian": { 
		 "optdone": 1, 
		 "sigma_profile": "yes", 
		 "theory": "DFT", 
		 "functional": "B3LYP", 
		 "basiset": "6-31G**", 
		 "properties": { 
			 "R2extent": 10037.622, 
			 "electric_dipole_moment_norm": 3.95171370547, 
			 "electric_quadrupole_moment_norm": 35.5119813287, 
			 "total_energy": -1670.99868098, 
			 "HOMO_LUMO_gap": 0.16021, 
			 "cosmo_polarized_energy": -19.84, 
			 "cosmo_cavitation_energy": 47.64, 
			 "cosmo_dispersion_energy": -31.83, 
			 "cosmo_repulsion_energy": 2.28, 
			 "cosmo_total_nonelectrostatic_energy": 18.09, 
			 "SMD_solvation_energy": 7.84 
		},
		"coords": [
			{
				"x": 3.0119126388,
				"y": 0.341830658,
				"z": 4.4619870603,
				"element": "N" 
			},
			{
				"x": 2.3444878936,
				"y": 0.2189904892,
				"z": 3.2452283972,
				"element": "C" 
			},
			{
				"x": 1.3701978436,
				"y": 1.1525487983,
				"z": 2.8628089283,
				"element": "C" 
			},
			{
				"x": 0.7421385008,
				"y": 1.0643840876,
				"z": 1.6187080853,
				"element": "C" 
			},
			{
				"x": 1.0766127174,
				"y": 0.0611703052,
				"z": 0.6803873458,
				"element": "C" 
			},
			{
				"x": 2.0387360426,
				"y": -0.8742340917,
				"z": 1.0973688028,
				"element": "C" 
			},
			{
				"x": 2.6521634113,
				"y": -0.811215803,
				"z": 2.3436326579,
				"element": "C" 
			},
			{
				"x": 0.4715911124,
				"y": 0.0154717539,
				"z": -0.6028152238,
				"element": "N" 
			},
			{
				"x": 1.0779781334,
				"y": 0.8813199145,
				"z": -1.6393470519,
				"element": "C" 
			},
			{
				"x": 0.2671507119,
				"y": 0.5321142776,
				"z": -2.89541802,
				"element": "C" 
			},
			{
				"x": -0.2014181677,
				"y": -0.9326169992,
				"z": -2.6644193051,
				"element": "C" 
			},
			{
				"x": 0.310130333,
				"y": -1.2916489468,
				"z": -1.2541935496,
				"element": "C" 
			},
			{
				"x": -0.6000270002,
				"y": 2.2584062998,
				"z": 1.3694219253,
				"element": "S" 
			},
			{
				"x": -0.5455205814,
				"y": 2.8776736083,
				"z": 0.0458735744,
				"element": "O" 
			},
			{
				"x": -0.6395852155,
				"y": 3.0831482817,
				"z": 2.5785122264,
				"element": "O" 
			},
			{
				"x": -2.0440162665,
				"y": 1.3623842112,
				"z": 1.44338562,
				"element": "N" 
			},
			{
				"x": -2.658079725,
				"y": 0.6791261513,
				"z": 0.366052905,
				"element": "C" 
			},
			{
				"x": -2.957906806,
				"y": -0.6798473966,
				"z": 0.4922502239,
				"element": "C" 
			},
			{
				"x": -3.6431735239,
				"y": -1.3412937771,
				"z": -0.5287183411,
				"element": "C" 
			},
			{
				"x": -4.0320893534,
				"y": -0.6586768595,
				"z": -1.6821555987,
				"element": "C" 
			},
			{
				"x": -3.7300461687,
				"y": 0.7002052826,
				"z": -1.8008576711,
				"element": "C" 
			},
			{
				"x": -3.0549235732,
				"y": 1.3741321846,
				"z": -0.7868677928,
				"element": "C" 
			},
			{
				"x": -3.8604568356,
				"y": -2.8235666441,
				"z": -0.4062011906,
				"element": "C" 
			},
			{
				"x": -4.8407661475,
				"y": -3.2687659688,
				"z": -1.2187333253,
				"element": "F" 
			},
			{
				"x": -2.7348999884,
				"y": -3.5117830018,
				"z": -0.7306375016,
				"element": "F" 
			},
			{
				"x": -4.1799408153,
				"y": -3.1854513533,
				"z": 0.8570262144,
				"element": "F" 
			},
			{
				"x": 3.4065432963,
				"y": -0.5111030001,
				"z": 4.8325170755,
				"element": "H" 
			},
			{
				"x": 2.5352862708,
				"y": 0.8835351503,
				"z": 5.1692167554,
				"element": "H" 
			},
			{
				"x": 1.0823064789,
				"y": 1.9525887745,
				"z": 3.5355968747,
				"element": "H" 
			},
			{
				"x": 2.3216584444,
				"y": -1.6742659954,
				"z": 0.4227262484,
				"element": "H" 
			},
			{
				"x": 3.3933763769,
				"y": -1.5593421109,
				"z": 2.6142312902,
				"element": "H" 
			},
			{
				"x": 1.0043128607,
				"y": 1.9290812705,
				"z": -1.3510610287,
				"element": "H" 
			},
			{
				"x": 2.1438046428,
				"y": 0.62398594,
				"z": -1.7776670742,
				"element": "H" 
			},
			{
				"x": 0.864673072,
				"y": 0.646962436,
				"z": -3.8041305607,
				"element": "H" 
			},
			{
				"x": -0.5953125751,
				"y": 1.1985611632,
				"z": -2.9766712393,
				"element": "H" 
			},
			{
				"x": 0.1999593504,
				"y": -1.6235290135,
				"z": -3.411262711,
				"element": "H" 
			},
			{
				"x": -1.2905457888,
				"y": -1.0005217586,
				"z": -2.7058983537,
				"element": "H" 
			},
			{
				"x": -0.3834175523,
				"y": -1.9229416734,
				"z": -0.6914311638,
				"element": "H" 
			},
			{
				"x": 1.2670119286,
				"y": -1.8348439101,
				"z": -1.3459016673,
				"element": "H" 
			},
			{
				"x": -2.1311852551,
				"y": 0.9176303356,
				"z": 2.3509074642,
				"element": "H" 
			},
			{
				"x": -2.6547589108,
				"y": -1.2242157479,
				"z": 1.381340993,
				"element": "H" 
			},
			{
				"x": -4.5689586403,
				"y": -1.1799835437,
				"z": -2.4663280638,
				"element": "H" 
			},
			{
				"x": -4.041403779,
				"y": 1.2447147749,
				"z": -2.6870834385,
				"element": "H" 
			},
			{
				"x": -2.831499391,
				"y": 2.4303814465,
				"z": -0.8688807959,
				"element": "H" 
			}
		],
		 "valence_orbital": [ 
			{
				"type": "occ",
				"energy": -0.27005,
				"method": "rhf"
			},
			{
				"type": "occ",
				"energy": -0.26876,
				"method": "rhf"
			},
			{
				"type": "occ",
				"energy": -0.24171,
				"method": "rhf"
			},
			{
				"type": "occ",
				"energy": -0.23761,
				"method": "rhf"
			},
			{
				"type": "occ",
				"energy": -0.20014,
				"method": "rhf"
			},
			{
				"type": "unocc",
				"energy": -0.03993,
				"method": "rhf"
			},
			{
				"type": "unocc",
				"energy": -0.02954,
				"method": "rhf"
			},
			{
				"type": "unocc",
				"energy": -0.01463,
				"method": "rhf"
			},
			{
				"type": "unocc",
				"energy": -0.00252,
				"method": "rhf"
			},
			{
				"type": "unocc",
				"energy": 0.06018,
				"method": "rhf"
			}
		],
		"cosmo_sigma_profile": { 
			"-0.025": 0.0,
			"-0.024": 0.0,
			"-0.023": 0.0,
			"-0.022": 0.0,
			"-0.021": 0.0,
			"-0.02": 0.0,
			"-0.019": 0.0,
			"-0.018": 0.0,
			"-0.017": 0.0102053463122,
			"-0.016": 0.637140603099,
			"-0.015": 1.37512021283,
			"-0.014": 0.913690402415,
			"-0.013": 2.43342147921,
			"-0.012": 4.32414050467,
			"-0.011": 4.46004754253,
			"-0.01": 5.04888116677,
			"-0.009": 4.23980231354,
			"-0.008": 4.54209197349,
			"-0.007": 7.4926489404,
			"-0.006": 12.7785322096,
			"-0.005": 13.3830120382,
			"-0.004": 14.3495335603,
			"-0.003": 17.658497283,
			"-0.002": 28.9380039173,
			"-0.001": 36.2539171947,
			"0.0": 42.27080083,
			"0.001": 36.750249191,
			"0.002": 34.5563251915,
			"0.003": 40.8476647008,
			"0.004": 17.766508984,
			"0.005": 7.28179988656,
			"0.006": 6.2770668853,
			"0.007": 5.23368863781,
			"0.008": 6.08902335142,
			"0.009": 4.5135940685,
			"0.01": 6.33346404583,
			"0.011": 7.23050087103,
			"0.012": 3.41731876998,
			"0.013": 0.305051243627,
			"0.014": 0.465138412359,
			"0.015": 0.0,
			"0.016": 0.0,
			"0.017": 0.0,
			"0.018": 0.0,
			"0.019": 0.0,
			"0.02": 0.0,
			"0.021": 0.0,
			"0.022": 0.0,
			"0.023": 0.0,
			"0.024": 0.0,
			"0.025": 0.0
		}
	}
}
