{
	 "smiles": "CC1=C(N)C=C(O)C=C1", 
	 "Tm": 431.15, 
	 "num_atms": 18, 
	 "gaussian": { 
		 "optdone": 1, 
		 "sigma_profile": "yes", 
		 "theory": "DFT", 
		 "functional": "B3LYP", 
		 "basiset": "6-31G**", 
		 "properties": { 
			 "R2extent": 2376.6648, 
			 "electric_dipole_moment_norm": 1.28148602021, 
			 "electric_quadrupole_moment_norm": 13.7911882117, 
			 "total_energy": -402.149524958, 
			 "HOMO_LUMO_gap": 0.2096, 
			 "cosmo_polarized_energy": -11.63, 
			 "cosmo_cavitation_energy": 21.16, 
			 "cosmo_dispersion_energy": -15.98, 
			 "cosmo_repulsion_energy": 1.31, 
			 "cosmo_total_nonelectrostatic_energy": 6.49, 
			 "SMD_solvation_energy": 3.9 
		},
		"coords": [
			{
				"x": 0.9981357366,
				"y": -1.5302855322,
				"z": 0.06996351,
				"element": "C" 
			},
			{
				"x": 1.3063971164,
				"y": -0.2345775844,
				"z": -0.6385634736,
				"element": "C" 
			},
			{
				"x": 2.1944855734,
				"y": 0.7059958894,
				"z": -0.0617091361,
				"element": "C" 
			},
			{
				"x": 2.8258961372,
				"y": 0.4166038062,
				"z": 1.151624817,
				"element": "N" 
			},
			{
				"x": 2.485869251,
				"y": 1.8999504098,
				"z": -0.7333878126,
				"element": "C" 
			},
			{
				"x": 1.909224986,
				"y": 2.1717092921,
				"z": -1.9743070119,
				"element": "C" 
			},
			{
				"x": 2.2430862775,
				"y": 3.359140738,
				"z": -2.5695489312,
				"element": "O" 
			},
			{
				"x": 1.0277637025,
				"y": 1.2577923546,
				"z": -2.5571759222,
				"element": "C" 
			},
			{
				"x": 0.7438016856,
				"y": 0.0720007596,
				"z": -1.8773746109,
				"element": "C" 
			},
			{
				"x": 1.9090787848,
				"y": -2.1056567234,
				"z": 0.2790288322,
				"element": "H" 
			},
			{
				"x": 0.3385049701,
				"y": -2.1585135952,
				"z": -0.5344338685,
				"element": "H" 
			},
			{
				"x": 0.4925838927,
				"y": -1.3702601346,
				"z": 1.0339786285,
				"element": "H" 
			},
			{
				"x": 2.3043006604,
				"y": -0.1780381087,
				"z": 1.7803563127,
				"element": "H" 
			},
			{
				"x": 3.210981775,
				"y": 1.2197328192,
				"z": 1.629516282,
				"element": "H" 
			},
			{
				"x": 3.1666509237,
				"y": 2.6280321883,
				"z": -0.3019736311,
				"element": "H" 
			},
			{
				"x": 1.7804122535,
				"y": 3.4215381631,
				"z": -3.4148529218,
				"element": "H" 
			},
			{
				"x": 0.573112256,
				"y": 1.4650539878,
				"z": -3.5229713491,
				"element": "H" 
			},
			{
				"x": 0.0598140178,
				"y": -0.6424187296,
				"z": -2.3294697134,
				"element": "H" 
			}
		],
		 "valence_orbital": [ 
			{
				"type": "occ",
				"energy": -0.33956,
				"method": "rhf"
			},
			{
				"type": "occ",
				"energy": -0.33082,
				"method": "rhf"
			},
			{
				"type": "occ",
				"energy": -0.28726,
				"method": "rhf"
			},
			{
				"type": "occ",
				"energy": -0.21465,
				"method": "rhf"
			},
			{
				"type": "occ",
				"energy": -0.19201,
				"method": "rhf"
			},
			{
				"type": "unocc",
				"energy": 0.01759,
				"method": "rhf"
			},
			{
				"type": "unocc",
				"energy": 0.03188,
				"method": "rhf"
			},
			{
				"type": "unocc",
				"energy": 0.07973,
				"method": "rhf"
			},
			{
				"type": "unocc",
				"energy": 0.08066,
				"method": "rhf"
			},
			{
				"type": "unocc",
				"energy": 0.10989,
				"method": "rhf"
			}
		],
		"cosmo_sigma_profile": { 
			"-0.025": 0.0,
			"-0.024": 0.0,
			"-0.023": 0.0,
			"-0.022": 0.0,
			"-0.021": 0.0,
			"-0.02": 0.0,
			"-0.019": 0.0,
			"-0.018": 0.0396156674099,
			"-0.017": 0.756830299833,
			"-0.016": 1.00930307678,
			"-0.015": 1.14976033584,
			"-0.014": 0.588115378861,
			"-0.013": 1.38428679427,
			"-0.012": 1.59844914398,
			"-0.011": 3.78819682519,
			"-0.01": 2.52068804654,
			"-0.009": 4.76389187687,
			"-0.008": 4.35844455809,
			"-0.007": 3.46977282732,
			"-0.006": 4.75520606266,
			"-0.005": 5.94238287156,
			"-0.004": 11.1981211508,
			"-0.003": 11.2944122488,
			"-0.002": 9.53844457966,
			"-0.001": 10.0672162493,
			"0.0": 11.2430682619,
			"0.001": 9.37593157995,
			"0.002": 6.29862059907,
			"0.003": 6.28862073491,
			"0.004": 7.54605546664,
			"0.005": 9.63309723371,
			"0.006": 12.255612297,
			"0.007": 9.9023539944,
			"0.008": 4.69258285106,
			"0.009": 1.96719589517,
			"0.01": 2.41733154919,
			"0.011": 2.39941961013,
			"0.012": 2.83744715136,
			"0.013": 0.645009230428,
			"0.014": 0.458170550091,
			"0.015": 0.382455263587,
			"0.016": 0.0203137986054,
			"0.017": 0.0,
			"0.018": 0.0,
			"0.019": 0.0,
			"0.02": 0.0,
			"0.021": 0.0,
			"0.022": 0.0,
			"0.023": 0.0,
			"0.024": 0.0,
			"0.025": 0.0
		}
	}
}
