{
	 "smiles": "C(CC1=CC=NC=C1)C1=CC=NC=C1", 
	 "Tm": 383.15, 
	 "num_atms": 26, 
	 "gaussian": { 
		 "optdone": 1, 
		 "sigma_profile": "yes", 
		 "theory": "DFT", 
		 "functional": "B3LYP", 
		 "basiset": "6-31G**", 
		 "properties": { 
			 "R2extent": 3431.005, 
			 "electric_dipole_moment_norm": 3.64272950958, 
			 "electric_quadrupole_moment_norm": 10.7350484731, 
			 "total_energy": -574.009144834, 
			 "HOMO_LUMO_gap": 0.22479, 
			 "cosmo_polarized_energy": -11.71, 
			 "cosmo_cavitation_energy": 29.86, 
			 "cosmo_dispersion_energy": -20.61, 
			 "cosmo_repulsion_energy": 1.62, 
			 "cosmo_total_nonelectrostatic_energy": 10.87, 
			 "SMD_solvation_energy": 1.96 
		},
		"coords": [
			{
				"x": -0.0665563,
				"y": -0.9050778262,
				"z": -0.5622330598,
				"element": "C" 
			},
			{
				"x": 1.1039277106,
				"y": -0.1561548877,
				"z": 0.1342355969,
				"element": "C" 
			},
			{
				"x": 0.6775361757,
				"y": 0.6671996143,
				"z": 1.3280727679,
				"element": "C" 
			},
			{
				"x": 0.4312838448,
				"y": 2.041031772,
				"z": 1.2315877128,
				"element": "C" 
			},
			{
				"x": 0.0190317712,
				"y": 2.7436650239,
				"z": 2.3647937698,
				"element": "C" 
			},
			{
				"x": -0.1621801903,
				"y": 2.182657862,
				"z": 3.5665605587,
				"element": "N" 
			},
			{
				"x": 0.0746781406,
				"y": 0.8674160696,
				"z": 3.6566553644,
				"element": "C" 
			},
			{
				"x": 0.4894597809,
				"y": 0.0779309609,
				"z": 2.5848105423,
				"element": "C" 
			},
			{
				"x": -1.0587654377,
				"y": 0.0105562136,
				"z": -1.2419825126,
				"element": "C" 
			},
			{
				"x": -2.2524450824,
				"y": 0.3996102855,
				"z": -0.6246399903,
				"element": "C" 
			},
			{
				"x": -3.1190997051,
				"y": 1.2645084028,
				"z": -1.2944605581,
				"element": "C" 
			},
			{
				"x": -2.8833413904,
				"y": 1.760546054,
				"z": -2.5151786142,
				"element": "N" 
			},
			{
				"x": -1.7402139469,
				"y": 1.3862663879,
				"z": -3.1044695085,
				"element": "C" 
			},
			{
				"x": -0.8101703659,
				"y": 0.5275435299,
				"z": -2.5198443758,
				"element": "C" 
			},
			{
				"x": 0.3647058541,
				"y": -1.5856777744,
				"z": -1.3055547732,
				"element": "H" 
			},
			{
				"x": -0.5819526909,
				"y": -1.5262779742,
				"z": 0.1785196429,
				"element": "H" 
			},
			{
				"x": 1.8381317501,
				"y": -0.9042552022,
				"z": 0.4552056482,
				"element": "H" 
			},
			{
				"x": 1.6024207409,
				"y": 0.4858540227,
				"z": -0.6003206776,
				"element": "H" 
			},
			{
				"x": 0.5584186522,
				"y": 2.5607702541,
				"z": 0.2863726884,
				"element": "H" 
			},
			{
				"x": -0.1738458502,
				"y": 3.8134184753,
				"z": 2.3011400447,
				"element": "H" 
			},
			{
				"x": -0.0702727423,
				"y": 0.4205275208,
				"z": 4.6390956636,
				"element": "H" 
			},
			{
				"x": 0.6714291354,
				"y": -0.9837969915,
				"z": 2.7319206222,
				"element": "H" 
			},
			{
				"x": -2.5073057469,
				"y": 0.0347601164,
				"z": 0.366150127,
				"element": "H" 
			},
			{
				"x": -4.0514634806,
				"y": 1.5723733798,
				"z": -0.823778209,
				"element": "H" 
			},
			{
				"x": -1.5591829782,
				"y": 1.7904048644,
				"z": -4.0993603499,
				"element": "H" 
			},
			{
				"x": 0.0943723512,
				"y": 0.2590998464,
				"z": -3.0599981207,
				"element": "H" 
			}
		],
		 "valence_orbital": [ 
			{
				"type": "occ",
				"energy": -0.27405,
				"method": "rhf"
			},
			{
				"type": "occ",
				"energy": -0.26316,
				"method": "rhf"
			},
			{
				"type": "occ",
				"energy": -0.25971,
				"method": "rhf"
			},
			{
				"type": "occ",
				"energy": -0.2528,
				"method": "rhf"
			},
			{
				"type": "occ",
				"energy": -0.25233,
				"method": "rhf"
			},
			{
				"type": "unocc",
				"energy": -0.02754,
				"method": "rhf"
			},
			{
				"type": "unocc",
				"energy": -0.02231,
				"method": "rhf"
			},
			{
				"type": "unocc",
				"energy": -0.013,
				"method": "rhf"
			},
			{
				"type": "unocc",
				"energy": -0.00936,
				"method": "rhf"
			},
			{
				"type": "unocc",
				"energy": 0.0864,
				"method": "rhf"
			}
		],
		"cosmo_sigma_profile": { 
			"-0.025": 0.0,
			"-0.024": 0.0,
			"-0.023": 0.0,
			"-0.022": 0.0,
			"-0.021": 0.0,
			"-0.02": 0.0,
			"-0.019": 0.0,
			"-0.018": 0.0,
			"-0.017": 0.0,
			"-0.016": 0.0,
			"-0.015": 0.0,
			"-0.014": 0.0,
			"-0.013": 0.0,
			"-0.012": 0.0,
			"-0.011": 0.0,
			"-0.01": 0.0,
			"-0.009": 0.0,
			"-0.008": 0.0,
			"-0.007": 1.08776415049,
			"-0.006": 15.3518175012,
			"-0.005": 25.2714330787,
			"-0.004": 29.0651544602,
			"-0.003": 22.0976060162,
			"-0.002": 18.8332328079,
			"-0.001": 17.2394792243,
			"0.0": 12.5387582119,
			"0.001": 13.4334858729,
			"0.002": 17.9307352419,
			"0.003": 27.0799607894,
			"0.004": 6.87361481256,
			"0.005": 5.12490765092,
			"0.006": 3.06102291427,
			"0.007": 2.02280494611,
			"0.008": 3.73193894731,
			"0.009": 2.46478601546,
			"0.01": 1.84780126828,
			"0.011": 2.21972209791,
			"0.012": 2.09268399042,
			"0.013": 1.61262298013,
			"0.014": 1.66187489704,
			"0.015": 2.28552591045,
			"0.016": 1.52356567233,
			"0.017": 1.33931930725,
			"0.018": 0.100716217398,
			"0.019": 0.0,
			"0.02": 0.0,
			"0.021": 0.0,
			"0.022": 0.0,
			"0.023": 0.0,
			"0.024": 0.0,
			"0.025": 0.0
		}
	}
}
