{
	 "smiles": "COC(=O)C1=C(C)NC(=O)NC1C1=CC=C(Cl)C=C1", 
	 "Tm": 445.15, 
	 "num_atms": 32, 
	 "gaussian": { 
		 "optdone": 1, 
		 "sigma_profile": "yes", 
		 "theory": "DFT", 
		 "functional": "B3LYP", 
		 "basiset": "6-31G**", 
		 "properties": { 
			 "R2extent": 6541.7518, 
			 "electric_dipole_moment_norm": 2.23761729302, 
			 "electric_quadrupole_moment_norm": 20.935671914, 
			 "total_energy": -1298.61979602, 
			 "HOMO_LUMO_gap": 0.1858, 
			 "cosmo_polarized_energy": -17.66, 
			 "cosmo_cavitation_energy": 37.68, 
			 "cosmo_dispersion_energy": -26.31, 
			 "cosmo_repulsion_energy": 2.06, 
			 "cosmo_total_nonelectrostatic_energy": 13.43, 
			 "SMD_solvation_energy": 7.87 
		},
		"coords": [
			{
				"x": -1.0813216502,
				"y": 2.6533049647,
				"z": 1.8848980742,
				"element": "C" 
			},
			{
				"x": -0.6925243867,
				"y": 1.6941854027,
				"z": 0.8917767732,
				"element": "O" 
			},
			{
				"x": -1.479193891,
				"y": 0.5848953973,
				"z": 0.8180139677,
				"element": "C" 
			},
			{
				"x": -2.4513645199,
				"y": 0.4484949902,
				"z": 1.5440340723,
				"element": "O" 
			},
			{
				"x": -0.9846647905,
				"y": -0.3406132391,
				"z": -0.2167437372,
				"element": "C" 
			},
			{
				"x": -1.6403033696,
				"y": -1.4910970061,
				"z": -0.5431454761,
				"element": "C" 
			},
			{
				"x": -2.9056481694,
				"y": -2.0255426746,
				"z": 0.0684754582,
				"element": "C" 
			},
			{
				"x": -1.1319806579,
				"y": -2.2995561985,
				"z": -1.5462444385,
				"element": "N" 
			},
			{
				"x": -0.1455958816,
				"y": -1.919316357,
				"z": -2.4656151288,
				"element": "C" 
			},
			{
				"x": 0.131731379,
				"y": -2.6210561283,
				"z": -3.4259957404,
				"element": "O" 
			},
			{
				"x": 0.4119920576,
				"y": -0.70312133,
				"z": -2.196947789,
				"element": "N" 
			},
			{
				"x": 0.3259916757,
				"y": 0.0119163035,
				"z": -0.9152829832,
				"element": "C" 
			},
			{
				"x": 1.5618291573,
				"y": -0.2375935052,
				"z": -0.0444992535,
				"element": "C" 
			},
			{
				"x": 2.4516764511,
				"y": 0.804978948,
				"z": 0.229607196,
				"element": "C" 
			},
			{
				"x": 3.5995350957,
				"y": 0.5950761797,
				"z": 0.9959172242,
				"element": "C" 
			},
			{
				"x": 3.85523765,
				"y": -0.6811708748,
				"z": 1.4915130819,
				"element": "C" 
			},
			{
				"x": 5.2966541968,
				"y": -0.9628737473,
				"z": 2.4579121095,
				"element": "Cl" 
			},
			{
				"x": 2.984080067,
				"y": -1.7411362522,
				"z": 1.2341741699,
				"element": "C" 
			},
			{
				"x": 1.8430940807,
				"y": -1.5108343997,
				"z": 0.4690619889,
				"element": "C" 
			},
			{
				"x": -2.085294673,
				"y": 3.0348464805,
				"z": 1.682420848,
				"element": "H" 
			},
			{
				"x": -1.0718451904,
				"y": 2.2036329133,
				"z": 2.8807573428,
				"element": "H" 
			},
			{
				"x": -0.3466256304,
				"y": 3.4562042347,
				"z": 1.8207849922,
				"element": "H" 
			},
			{
				"x": -3.2350367187,
				"y": -1.4067704603,
				"z": 0.8976149798,
				"element": "H" 
			},
			{
				"x": -2.7377006572,
				"y": -3.0510738793,
				"z": 0.4192034853,
				"element": "H" 
			},
			{
				"x": -3.6949664771,
				"y": -2.0646132726,
				"z": -0.6922215544,
				"element": "H" 
			},
			{
				"x": -1.633281931,
				"y": -3.1347546998,
				"z": -1.8137521561,
				"element": "H" 
			},
			{
				"x": 1.1901388499,
				"y": -0.479666455,
				"z": -2.8019829953,
				"element": "H" 
			},
			{
				"x": 0.3089619497,
				"y": 1.0795079616,
				"z": -1.1505591417,
				"element": "H" 
			},
			{
				"x": 2.243631675,
				"y": 1.8008186437,
				"z": -0.1525270818,
				"element": "H" 
			},
			{
				"x": 4.2847969922,
				"y": 1.4088319164,
				"z": 1.2061951675,
				"element": "H" 
			},
			{
				"x": 3.1983299658,
				"y": -2.7281966863,
				"z": 1.6288146191,
				"element": "H" 
			},
			{
				"x": 1.1655673508,
				"y": -2.3366071704,
				"z": 0.2723419252,
				"element": "H" 
			}
		],
		 "valence_orbital": [ 
			{
				"type": "occ",
				"energy": -0.27155,
				"method": "rhf"
			},
			{
				"type": "occ",
				"energy": -0.26817,
				"method": "rhf"
			},
			{
				"type": "occ",
				"energy": -0.26347,
				"method": "rhf"
			},
			{
				"type": "occ",
				"energy": -0.24467,
				"method": "rhf"
			},
			{
				"type": "occ",
				"energy": -0.23177,
				"method": "rhf"
			},
			{
				"type": "unocc",
				"energy": -0.04597,
				"method": "rhf"
			},
			{
				"type": "unocc",
				"energy": -0.02036,
				"method": "rhf"
			},
			{
				"type": "unocc",
				"energy": -0.01392,
				"method": "rhf"
			},
			{
				"type": "unocc",
				"energy": 0.0269,
				"method": "rhf"
			},
			{
				"type": "unocc",
				"energy": 0.0536,
				"method": "rhf"
			}
		],
		"cosmo_sigma_profile": { 
			"-0.025": 0.0,
			"-0.024": 0.0,
			"-0.023": 0.0,
			"-0.022": 0.0,
			"-0.021": 0.0,
			"-0.02": 0.0,
			"-0.019": 0.0,
			"-0.018": 0.0,
			"-0.017": 0.0,
			"-0.016": 0.168670388951,
			"-0.015": 0.838636119398,
			"-0.014": 1.89798741641,
			"-0.013": 2.11405126428,
			"-0.012": 2.08823939891,
			"-0.011": 1.95309056541,
			"-0.01": 1.80562456918,
			"-0.009": 2.29385387254,
			"-0.008": 3.12193595174,
			"-0.007": 8.3040685903,
			"-0.006": 15.7562869971,
			"-0.005": 21.184381145,
			"-0.004": 18.5973419107,
			"-0.003": 21.7607020936,
			"-0.002": 21.1488542489,
			"-0.001": 23.5001864906,
			"0.0": 21.0678566403,
			"0.001": 21.1668669006,
			"0.002": 22.0587113679,
			"0.003": 22.9336443548,
			"0.004": 21.3509666354,
			"0.005": 12.9388929573,
			"0.006": 3.41716961113,
			"0.007": 3.20688566408,
			"0.008": 2.71667109872,
			"0.009": 2.50279342154,
			"0.01": 2.48663618971,
			"0.011": 3.64943290892,
			"0.012": 4.92903121854,
			"0.013": 6.91892107132,
			"0.014": 3.96174468837,
			"0.015": 0.124267176371,
			"0.016": 0.0,
			"0.017": 0.0,
			"0.018": 0.0,
			"0.019": 0.0,
			"0.02": 0.0,
			"0.021": 0.0,
			"0.022": 0.0,
			"0.023": 0.0,
			"0.024": 0.0,
			"0.025": 0.0
		}
	}
}
