{
	 "smiles": "COC1=CC(=CC=C1O)C(O)C(O)=O", 
	 "Tm": 405.15, 
	 "num_atms": 24, 
	 "gaussian": { 
		 "optdone": 1, 
		 "sigma_profile": "yes", 
		 "theory": "DFT", 
		 "functional": "B3LYP", 
		 "basiset": "6-31G**", 
		 "properties": { 
			 "R2extent": 3265.8996, 
			 "electric_dipole_moment_norm": 6.0982201428, 
			 "electric_quadrupole_moment_norm": 8.88394131172, 
			 "total_energy": -725.088479879, 
			 "HOMO_LUMO_gap": 0.20403, 
			 "cosmo_polarized_energy": -19.34, 
			 "cosmo_cavitation_energy": 28.16, 
			 "cosmo_dispersion_energy": -20.75, 
			 "cosmo_repulsion_energy": 1.66, 
			 "cosmo_total_nonelectrostatic_energy": 9.06, 
			 "SMD_solvation_energy": 7.21 
		},
		"coords": [
			{
				"x": 3.837679363,
				"y": 0.8201205305,
				"z": -0.668224257,
				"element": "C" 
			},
			{
				"x": 3.0152159658,
				"y": 0.2674567664,
				"z": -1.6838752949,
				"element": "O" 
			},
			{
				"x": 1.6621499677,
				"y": 0.1821795876,
				"z": -1.4508334293,
				"element": "C" 
			},
			{
				"x": 1.0069116741,
				"y": 0.6056573598,
				"z": -0.2990022922,
				"element": "C" 
			},
			{
				"x": -0.3841059675,
				"y": 0.4535919085,
				"z": -0.1946265346,
				"element": "C" 
			},
			{
				"x": -1.0994609619,
				"y": -0.1180023727,
				"z": -1.2499756542,
				"element": "C" 
			},
			{
				"x": -0.4378741892,
				"y": -0.5375221672,
				"z": -2.4056840792,
				"element": "C" 
			},
			{
				"x": 0.941213715,
				"y": -0.3928923454,
				"z": -2.5160929988,
				"element": "C" 
			},
			{
				"x": 1.5888249502,
				"y": -0.8023897114,
				"z": -3.6405298694,
				"element": "O" 
			},
			{
				"x": -1.1127998871,
				"y": 0.9411195985,
				"z": 1.0529423021,
				"element": "C" 
			},
			{
				"x": -0.1555325396,
				"y": 1.3349907083,
				"z": 2.0488446721,
				"element": "O" 
			},
			{
				"x": -2.02953643,
				"y": -0.1611745938,
				"z": 1.6284349429,
				"element": "C" 
			},
			{
				"x": -1.534347724,
				"y": -0.7637147658,
				"z": 2.722715923,
				"element": "O" 
			},
			{
				"x": -3.0902162153,
				"y": -0.4600804193,
				"z": 1.1351330616,
				"element": "O" 
			},
			{
				"x": 3.7763961381,
				"y": 0.2352529515,
				"z": 0.2579720304,
				"element": "H" 
			},
			{
				"x": 3.5644312201,
				"y": 1.8611133029,
				"z": -0.454754651,
				"element": "H" 
			},
			{
				"x": 4.8590234019,
				"y": 0.7862055003,
				"z": -1.0503625461,
				"element": "H" 
			},
			{
				"x": 1.5527587427,
				"y": 1.0535021596,
				"z": 0.5204911508,
				"element": "H" 
			},
			{
				"x": -2.1729264217,
				"y": -0.2461560315,
				"z": -1.1651728371,
				"element": "H" 
			},
			{
				"x": -0.9811202728,
				"y": -0.9838906902,
				"z": -3.2319021748,
				"element": "H" 
			},
			{
				"x": 2.5312369073,
				"y": -0.6167412427,
				"z": -3.5082170042,
				"element": "H" 
			},
			{
				"x": -1.7642138959,
				"y": 1.7855854177,
				"z": 0.7952235641,
				"element": "H" 
			},
			{
				"x": -0.5398144964,
				"y": 2.0513952843,
				"z": 2.569719543,
				"element": "H" 
			},
			{
				"x": -0.6932930444,
				"y": -0.3096067359,
				"z": 2.9259764327,
				"element": "H" 
			}
		],
		 "valence_orbital": [ 
			{
				"type": "occ",
				"energy": -0.31984,
				"method": "rhf"
			},
			{
				"type": "occ",
				"energy": -0.31197,
				"method": "rhf"
			},
			{
				"type": "occ",
				"energy": -0.26423,
				"method": "rhf"
			},
			{
				"type": "occ",
				"energy": -0.24019,
				"method": "rhf"
			},
			{
				"type": "occ",
				"energy": -0.20667,
				"method": "rhf"
			},
			{
				"type": "unocc",
				"energy": -0.00264,
				"method": "rhf"
			},
			{
				"type": "unocc",
				"energy": 0.00671,
				"method": "rhf"
			},
			{
				"type": "unocc",
				"energy": 0.01773,
				"method": "rhf"
			},
			{
				"type": "unocc",
				"energy": 0.04239,
				"method": "rhf"
			},
			{
				"type": "unocc",
				"energy": 0.0783,
				"method": "rhf"
			}
		],
		"cosmo_sigma_profile": { 
			"-0.025": 0.0,
			"-0.024": 0.0,
			"-0.023": 0.0,
			"-0.022": 0.0,
			"-0.021": 0.0,
			"-0.02": 0.0,
			"-0.019": 0.0319268235715,
			"-0.018": 1.10132342203,
			"-0.017": 1.33777611834,
			"-0.016": 1.65521352701,
			"-0.015": 1.04533849933,
			"-0.014": 1.44228986689,
			"-0.013": 2.71214768671,
			"-0.012": 1.90415151654,
			"-0.011": 3.67613847606,
			"-0.01": 3.15207589629,
			"-0.009": 2.97940325508,
			"-0.008": 3.59143958712,
			"-0.007": 4.44824392464,
			"-0.006": 8.8067965877,
			"-0.005": 15.6992391746,
			"-0.004": 15.8787021081,
			"-0.003": 14.9805439999,
			"-0.002": 9.00161193701,
			"-0.001": 9.93410453043,
			"0.0": 10.316055607,
			"0.001": 10.6886458206,
			"0.002": 12.9568964274,
			"0.003": 15.4460511018,
			"0.004": 16.2387087238,
			"0.005": 13.7376861342,
			"0.006": 6.80277567781,
			"0.007": 4.27444336551,
			"0.008": 4.38709086242,
			"0.009": 5.85182222766,
			"0.01": 6.51876392298,
			"0.011": 6.09761116285,
			"0.012": 5.16500932145,
			"0.013": 1.29636929133,
			"0.014": 0.0265926279974,
			"0.015": 0.0,
			"0.016": 0.0,
			"0.017": 0.0,
			"0.018": 0.0,
			"0.019": 0.0,
			"0.02": 0.0,
			"0.021": 0.0,
			"0.022": 0.0,
			"0.023": 0.0,
			"0.024": 0.0,
			"0.025": 0.0
		}
	}
}
