{
	 "smiles": "CC(C)(C)NC(=O)COC(=O)C1=CC=CC=C1", 
	 "Tm": 385.15, 
	 "num_atms": 34, 
	 "gaussian": { 
		 "optdone": 1, 
		 "sigma_profile": "yes", 
		 "theory": "DFT", 
		 "functional": "B3LYP", 
		 "basiset": "6-31G**", 
		 "properties": { 
			 "R2extent": 5303.1988, 
			 "electric_dipole_moment_norm": 4.40395571049, 
			 "electric_quadrupole_moment_norm": 15.5970823775, 
			 "total_energy": -786.082133198, 
			 "HOMO_LUMO_gap": 0.19431, 
			 "cosmo_polarized_energy": -13.81, 
			 "cosmo_cavitation_energy": 36.63, 
			 "cosmo_dispersion_energy": -24.95, 
			 "cosmo_repulsion_energy": 1.94, 
			 "cosmo_total_nonelectrostatic_energy": 13.62, 
			 "SMD_solvation_energy": 7.7 
		},
		"coords": [
			{
				"x": 0.2118064199,
				"y": 1.0394242288,
				"z": 1.5717411661,
				"element": "C" 
			},
			{
				"x": -0.862464351,
				"y": 1.6833492399,
				"z": 0.6728746271,
				"element": "C" 
			},
			{
				"x": -1.2960363356,
				"y": 3.0316515908,
				"z": 1.2817246113,
				"element": "C" 
			},
			{
				"x": -2.1017183995,
				"y": 0.777639294,
				"z": 0.5682001719,
				"element": "C" 
			},
			{
				"x": -0.2956614883,
				"y": 2.0253750877,
				"z": -0.6555711922,
				"element": "N" 
			},
			{
				"x": -0.0165696927,
				"y": 1.3520037095,
				"z": -1.8152690022,
				"element": "C" 
			},
			{
				"x": 0.5171709091,
				"y": 1.9365752487,
				"z": -2.7537383358,
				"element": "O" 
			},
			{
				"x": -0.4145710212,
				"y": -0.111745263,
				"z": -1.995371098,
				"element": "C" 
			},
			{
				"x": 0.3363829687,
				"y": -0.9385097099,
				"z": -1.0836462318,
				"element": "O" 
			},
			{
				"x": -0.1531091847,
				"y": -2.1885557481,
				"z": -0.8686183875,
				"element": "C" 
			},
			{
				"x": -1.2205194058,
				"y": -2.5666715912,
				"z": -1.3098201898,
				"element": "O" 
			},
			{
				"x": 0.7566911355,
				"y": -3.0169064898,
				"z": -0.0302057675,
				"element": "C" 
			},
			{
				"x": 0.3023760025,
				"y": -4.2817942855,
				"z": 0.3695007045,
				"element": "C" 
			},
			{
				"x": 1.1147173487,
				"y": -5.0993852773,
				"z": 1.1505676652,
				"element": "C" 
			},
			{
				"x": 2.3861735355,
				"y": -4.6611307907,
				"z": 1.531805494,
				"element": "C" 
			},
			{
				"x": 2.8447621162,
				"y": -3.404439459,
				"z": 1.1293417341,
				"element": "C" 
			},
			{
				"x": 2.0344586966,
				"y": -2.5807257684,
				"z": 0.3493449894,
				"element": "C" 
			},
			{
				"x": 1.0732573169,
				"y": 1.7068504788,
				"z": 1.6776267498,
				"element": "H" 
			},
			{
				"x": -0.1913699518,
				"y": 0.843013344,
				"z": 2.5711890028,
				"element": "H" 
			},
			{
				"x": 0.5595138928,
				"y": 0.0964130862,
				"z": 1.1472533249,
				"element": "H" 
			},
			{
				"x": -0.4455833518,
				"y": 3.7187117894,
				"z": 1.3626357303,
				"element": "H" 
			},
			{
				"x": -1.6968958531,
				"y": 2.8817955662,
				"z": 2.2879743779,
				"element": "H" 
			},
			{
				"x": -2.0680782081,
				"y": 3.5082235003,
				"z": 0.6695889836,
				"element": "H" 
			},
			{
				"x": -2.8294230521,
				"y": 1.1920031113,
				"z": -0.1363956058,
				"element": "H" 
			},
			{
				"x": -2.5812377454,
				"y": 0.7135081074,
				"z": 1.5498504939,
				"element": "H" 
			},
			{
				"x": -1.8607089387,
				"y": -0.24210106,
				"z": 0.2642895829,
				"element": "H" 
			},
			{
				"x": 0.0718224336,
				"y": 2.9673389194,
				"z": -0.7237765354,
				"element": "H" 
			},
			{
				"x": -0.1464433848,
				"y": -0.377539385,
				"z": -3.0192926335,
				"element": "H" 
			},
			{
				"x": -1.4837976549,
				"y": -0.2788707678,
				"z": -1.8539400138,
				"element": "H" 
			},
			{
				"x": -0.6860658336,
				"y": -4.6010066491,
				"z": 0.0569280944,
				"element": "H" 
			},
			{
				"x": 0.7599563931,
				"y": -6.0775603932,
				"z": 1.4612555363,
				"element": "H" 
			},
			{
				"x": 3.0203756662,
				"y": -5.300197341,
				"z": 2.139652775,
				"element": "H" 
			},
			{
				"x": 3.8351787017,
				"y": -3.0675124638,
				"z": 1.4204892577,
				"element": "H" 
			},
			{
				"x": 2.3868103163,
				"y": -1.6084238595,
				"z": 0.0248099197,
				"element": "H" 
			}
		],
		 "valence_orbital": [ 
			{
				"type": "occ",
				"energy": -0.2827,
				"method": "rhf"
			},
			{
				"type": "occ",
				"energy": -0.26566,
				"method": "rhf"
			},
			{
				"type": "occ",
				"energy": -0.26395,
				"method": "rhf"
			},
			{
				"type": "occ",
				"energy": -0.24852,
				"method": "rhf"
			},
			{
				"type": "occ",
				"energy": -0.24684,
				"method": "rhf"
			},
			{
				"type": "unocc",
				"energy": -0.05253,
				"method": "rhf"
			},
			{
				"type": "unocc",
				"energy": -0.01409,
				"method": "rhf"
			},
			{
				"type": "unocc",
				"energy": 0.01198,
				"method": "rhf"
			},
			{
				"type": "unocc",
				"energy": 0.05008,
				"method": "rhf"
			},
			{
				"type": "unocc",
				"energy": 0.0671,
				"method": "rhf"
			}
		],
		"cosmo_sigma_profile": { 
			"-0.025": 0.0,
			"-0.024": 0.0,
			"-0.023": 0.0,
			"-0.022": 0.0,
			"-0.021": 0.0,
			"-0.02": 0.0,
			"-0.019": 0.0,
			"-0.018": 0.0,
			"-0.017": 0.0,
			"-0.016": 0.0,
			"-0.015": 0.0,
			"-0.014": 0.0,
			"-0.013": 0.103435226278,
			"-0.012": 0.634047618765,
			"-0.011": 0.580421430884,
			"-0.01": 1.38450044047,
			"-0.009": 0.941718746748,
			"-0.008": 0.955086246718,
			"-0.007": 5.13170139675,
			"-0.006": 14.2477054228,
			"-0.005": 17.4165074458,
			"-0.004": 26.5928271744,
			"-0.003": 28.6876804839,
			"-0.002": 24.7038044175,
			"-0.001": 27.147592411,
			"0.0": 32.5155891396,
			"0.001": 25.4403608166,
			"0.002": 17.5074690914,
			"0.003": 16.5283180061,
			"0.004": 12.8841863799,
			"0.005": 3.57272804469,
			"0.006": 2.86571228754,
			"0.007": 1.73674051736,
			"0.008": 2.94358201326,
			"0.009": 2.38535620668,
			"0.01": 3.25296099234,
			"0.011": 5.53640781865,
			"0.012": 3.72734876393,
			"0.013": 3.94160528274,
			"0.014": 4.99651362018,
			"0.015": 0.653217180031,
			"0.016": 0.0,
			"0.017": 0.0,
			"0.018": 0.0,
			"0.019": 0.0,
			"0.02": 0.0,
			"0.021": 0.0,
			"0.022": 0.0,
			"0.023": 0.0,
			"0.024": 0.0,
			"0.025": 0.0
		}
	}
}
