{
	 "smiles": "CC1=CC(C(=O)NCC(O)=O)=C(C)O1", 
	 "Tm": 453.15, 
	 "num_atms": 25, 
	 "gaussian": { 
		 "optdone": 1, 
		 "sigma_profile": "yes", 
		 "theory": "DFT", 
		 "functional": "B3LYP", 
		 "basiset": "6-31G**", 
		 "properties": { 
			 "R2extent": 3458.2806, 
			 "electric_dipole_moment_norm": 4.66035473864, 
			 "electric_quadrupole_moment_norm": 12.8294724611, 
			 "total_energy": -705.240438847, 
			 "HOMO_LUMO_gap": 0.20454, 
			 "cosmo_polarized_energy": -18.4, 
			 "cosmo_cavitation_energy": 29.28, 
			 "cosmo_dispersion_energy": -20.67, 
			 "cosmo_repulsion_energy": 1.66, 
			 "cosmo_total_nonelectrostatic_energy": 10.27, 
			 "SMD_solvation_energy": 6.87 
		},
		"coords": [
			{
				"x": -1.7626227348,
				"y": 0.6845647303,
				"z": -2.5867643948,
				"element": "C" 
			},
			{
				"x": -1.5443671891,
				"y": -0.0298264275,
				"z": -1.3005947635,
				"element": "C" 
			},
			{
				"x": -0.6224854919,
				"y": -0.9276225247,
				"z": -0.8639401938,
				"element": "C" 
			},
			{
				"x": -0.9753451995,
				"y": -1.2604694635,
				"z": 0.4999186349,
				"element": "C" 
			},
			{
				"x": -0.3758794084,
				"y": -2.2550599044,
				"z": 1.43206047,
				"element": "C" 
			},
			{
				"x": -1.0646002156,
				"y": -2.9282213046,
				"z": 2.1930488567,
				"element": "O" 
			},
			{
				"x": 0.997189278,
				"y": -2.4154645757,
				"z": 1.4136533279,
				"element": "N" 
			},
			{
				"x": 2.0073703264,
				"y": -1.4422508735,
				"z": 1.0115086611,
				"element": "C" 
			},
			{
				"x": 2.2167334797,
				"y": -0.2862681561,
				"z": 2.0067393822,
				"element": "C" 
			},
			{
				"x": 1.1215351268,
				"y": 0.4551234721,
				"z": 2.2904460248,
				"element": "O" 
			},
			{
				"x": 3.2858747531,
				"y": -0.0352709097,
				"z": 2.5035755377,
				"element": "O" 
			},
			{
				"x": -2.110493281,
				"y": -0.5344526362,
				"z": 0.7862712403,
				"element": "C" 
			},
			{
				"x": -2.9895329672,
				"y": -0.4335388782,
				"z": 1.9813455114,
				"element": "C" 
			},
			{
				"x": -2.4447591217,
				"y": 0.2248716931,
				"z": -0.2927550108,
				"element": "O" 
			},
			{
				"x": -1.7152308447,
				"y": 1.7711855535,
				"z": -2.4529071065,
				"element": "H" 
			},
			{
				"x": -0.9954460048,
				"y": 0.3940039253,
				"z": -3.3077693143,
				"element": "H" 
			},
			{
				"x": -2.7439369883,
				"y": 0.4475453871,
				"z": -3.01265895,
				"element": "H" 
			},
			{
				"x": 0.1771412963,
				"y": -1.3487195545,
				"z": -1.4557074112,
				"element": "H" 
			},
			{
				"x": 1.2881258002,
				"y": -3.0735038435,
				"z": 2.1279371977,
				"element": "H" 
			},
			{
				"x": 2.9659177292,
				"y": -1.9527797372,
				"z": 0.912531744,
				"element": "H" 
			},
			{
				"x": 1.7533506558,
				"y": -1.0174259493,
				"z": 0.0375549977,
				"element": "H" 
			},
			{
				"x": 0.3536906674,
				"y": 0.1600783429,
				"z": 1.770347613,
				"element": "H" 
			},
			{
				"x": -2.638297556,
				"y": -1.1234695377,
				"z": 2.7482083807,
				"element": "H" 
			},
			{
				"x": -4.0186660534,
				"y": -0.7033978938,
				"z": 1.719946489,
				"element": "H" 
			},
			{
				"x": -3.0072660562,
				"y": 0.587769066,
				"z": 2.3781030758,
				"element": "H" 
			}
		],
		 "valence_orbital": [ 
			{
				"type": "occ",
				"energy": -0.29973,
				"method": "rhf"
			},
			{
				"type": "occ",
				"energy": -0.29881,
				"method": "rhf"
			},
			{
				"type": "occ",
				"energy": -0.26624,
				"method": "rhf"
			},
			{
				"type": "occ",
				"energy": -0.25424,
				"method": "rhf"
			},
			{
				"type": "occ",
				"energy": -0.23627,
				"method": "rhf"
			},
			{
				"type": "unocc",
				"energy": -0.03173,
				"method": "rhf"
			},
			{
				"type": "unocc",
				"energy": -0.00648,
				"method": "rhf"
			},
			{
				"type": "unocc",
				"energy": 0.01338,
				"method": "rhf"
			},
			{
				"type": "unocc",
				"energy": 0.06663,
				"method": "rhf"
			},
			{
				"type": "unocc",
				"energy": 0.08208,
				"method": "rhf"
			}
		],
		"cosmo_sigma_profile": { 
			"-0.025": 0.0,
			"-0.024": 0.0,
			"-0.023": 0.0,
			"-0.022": 0.0,
			"-0.021": 0.0,
			"-0.02": 0.0,
			"-0.019": 0.0,
			"-0.018": 0.0,
			"-0.017": 0.0,
			"-0.016": 0.0,
			"-0.015": 0.110112056633,
			"-0.014": 1.30020659866,
			"-0.013": 1.36095609078,
			"-0.012": 0.993162964911,
			"-0.011": 1.56595062664,
			"-0.01": 2.94299160017,
			"-0.009": 6.16546841767,
			"-0.008": 7.25527133222,
			"-0.007": 6.89264895241,
			"-0.006": 11.1573284226,
			"-0.005": 18.8698518725,
			"-0.004": 16.9081270697,
			"-0.003": 16.3585293031,
			"-0.002": 19.2126212092,
			"-0.001": 18.1535341111,
			"0.0": 12.7547894784,
			"0.001": 10.8485358036,
			"0.002": 9.20341497767,
			"0.003": 9.36212437342,
			"0.004": 7.95376075391,
			"0.005": 4.83177799097,
			"0.006": 4.75582967689,
			"0.007": 4.50475004619,
			"0.008": 5.57635505585,
			"0.009": 5.52129901068,
			"0.01": 6.68613925474,
			"0.011": 7.09279982015,
			"0.012": 7.53223710237,
			"0.013": 5.36702395023,
			"0.014": 1.05317792551,
			"0.015": 0.0,
			"0.016": 0.0,
			"0.017": 0.0,
			"0.018": 0.0,
			"0.019": 0.0,
			"0.02": 0.0,
			"0.021": 0.0,
			"0.022": 0.0,
			"0.023": 0.0,
			"0.024": 0.0,
			"0.025": 0.0
		}
	}
}
