{
	 "smiles": "CN1C(=O)C2=C(C=C(C=C2)C(O)=O)S1(=O)=O", 
	 "Tm": 523.15, 
	 "num_atms": 23, 
	 "gaussian": { 
		 "optdone": 1, 
		 "sigma_profile": "yes", 
		 "theory": "DFT", 
		 "functional": "B3LYP", 
		 "basiset": "6-31G**", 
		 "properties": { 
			 "R2extent": 4440.0381, 
			 "electric_dipole_moment_norm": 1.95105990938, 
			 "electric_quadrupole_moment_norm": 7.79460271727, 
			 "total_energy": -1176.17405088, 
			 "HOMO_LUMO_gap": 0.18433, 
			 "cosmo_polarized_energy": -22.5, 
			 "cosmo_cavitation_energy": 30.01, 
			 "cosmo_dispersion_energy": -22.11, 
			 "cosmo_repulsion_energy": 1.64, 
			 "cosmo_total_nonelectrostatic_energy": 9.54, 
			 "SMD_solvation_energy": 6.27 
		},
		"coords": [
			{
				"x": -3.7402885434,
				"y": 1.0927140612,
				"z": 0.7104347093,
				"element": "C" 
			},
			{
				"x": -2.4221273883,
				"y": 0.6533039542,
				"z": 0.2660110301,
				"element": "N" 
			},
			{
				"x": -1.5933259714,
				"y": -0.1848602508,
				"z": 1.0025474728,
				"element": "C" 
			},
			{
				"x": -1.8625357401,
				"y": -0.6442851784,
				"z": 2.096327403,
				"element": "O" 
			},
			{
				"x": -0.3343809013,
				"y": -0.4211924957,
				"z": 0.2327939535,
				"element": "C" 
			},
			{
				"x": -0.2944256625,
				"y": 0.2334148324,
				"z": -0.9945108563,
				"element": "C" 
			},
			{
				"x": 0.7904771415,
				"y": 0.1433344138,
				"z": -1.8535310497,
				"element": "C" 
			},
			{
				"x": 1.8769740388,
				"y": -0.6456613633,
				"z": -1.4437603345,
				"element": "C" 
			},
			{
				"x": 1.8342786775,
				"y": -1.3299036048,
				"z": -0.21644302,
				"element": "C" 
			},
			{
				"x": 0.7363605526,
				"y": -1.2166034296,
				"z": 0.6341311312,
				"element": "C" 
			},
			{
				"x": 3.1019835095,
				"y": -0.8380047864,
				"z": -2.2981190165,
				"element": "C" 
			},
			{
				"x": 3.3629206907,
				"y": 0.1181781498,
				"z": -3.2228896035,
				"element": "O" 
			},
			{
				"x": 3.8282952049,
				"y": -1.7947802323,
				"z": -2.1834068351,
				"element": "O" 
			},
			{
				"x": -1.8008898218,
				"y": 1.1586253871,
				"z": -1.2558641015,
				"element": "S" 
			},
			{
				"x": -1.5534440031,
				"y": 2.5997484719,
				"z": -1.2304587367,
				"element": "O" 
			},
			{
				"x": -2.6100209367,
				"y": 0.5862825278,
				"z": -2.3304552233,
				"element": "O" 
			},
			{
				"x": -4.5097814707,
				"y": 0.7524007387,
				"z": 0.0123616178,
				"element": "H" 
			},
			{
				"x": -3.7696394667,
				"y": 2.182382,
				"z": 0.7939242641,
				"element": "H" 
			},
			{
				"x": -3.9036429633,
				"y": 0.6418029924,
				"z": 1.6901558087,
				"element": "H" 
			},
			{
				"x": 0.7703847162,
				"y": 0.6377514482,
				"z": -2.8202118538,
				"element": "H" 
			},
			{
				"x": 2.6834068354,
				"y": -1.9509019385,
				"z": 0.0468649635,
				"element": "H" 
			},
			{
				"x": 0.6960368231,
				"y": -1.7312250853,
				"z": 1.5881646387,
				"element": "H" 
			},
			{
				"x": 2.8148846791,
				"y": 0.9021793877,
				"z": -3.0790663618,
				"element": "H" 
			}
		],
		 "valence_orbital": [ 
			{
				"type": "occ",
				"energy": -0.31053,
				"method": "rhf"
			},
			{
				"type": "occ",
				"energy": -0.30543,
				"method": "rhf"
			},
			{
				"type": "occ",
				"energy": -0.2977,
				"method": "rhf"
			},
			{
				"type": "occ",
				"energy": -0.29502,
				"method": "rhf"
			},
			{
				"type": "occ",
				"energy": -0.2873,
				"method": "rhf"
			},
			{
				"type": "unocc",
				"energy": -0.10297,
				"method": "rhf"
			},
			{
				"type": "unocc",
				"energy": -0.07141,
				"method": "rhf"
			},
			{
				"type": "unocc",
				"energy": -0.01821,
				"method": "rhf"
			},
			{
				"type": "unocc",
				"energy": 0.0184,
				"method": "rhf"
			},
			{
				"type": "unocc",
				"energy": 0.02994,
				"method": "rhf"
			}
		],
		"cosmo_sigma_profile": { 
			"-0.025": 0.0,
			"-0.024": 0.0,
			"-0.023": 0.0,
			"-0.022": 0.0,
			"-0.021": 0.035656847878,
			"-0.02": 0.660459075223,
			"-0.019": 1.16747289056,
			"-0.018": 1.00284925414,
			"-0.017": 1.31077963089,
			"-0.016": 1.13579266828,
			"-0.015": 1.13104148276,
			"-0.014": 0.83952557563,
			"-0.013": 1.91344716833,
			"-0.012": 2.4109020415,
			"-0.011": 1.9297512685,
			"-0.01": 1.37932258881,
			"-0.009": 3.07743069616,
			"-0.008": 6.24798008936,
			"-0.007": 9.75817843786,
			"-0.006": 12.6954460596,
			"-0.005": 15.968257527,
			"-0.004": 18.118089135,
			"-0.003": 20.0256010498,
			"-0.002": 19.8226529548,
			"-0.001": 15.1048584105,
			"0.0": 8.61988945018,
			"0.001": 6.54416583502,
			"0.002": 6.55847356568,
			"0.003": 4.70310236443,
			"0.004": 5.73165308007,
			"0.005": 4.9180899366,
			"0.006": 6.07466249312,
			"0.007": 6.98766671378,
			"0.008": 10.1208017885,
			"0.009": 18.6055744834,
			"0.01": 15.5064020107,
			"0.011": 9.3185600756,
			"0.012": 1.92652411936,
			"0.013": 0.110354089053,
			"0.014": 0.0,
			"0.015": 0.0,
			"0.016": 0.0,
			"0.017": 0.0,
			"0.018": 0.0,
			"0.019": 0.0,
			"0.02": 0.0,
			"0.021": 0.0,
			"0.022": 0.0,
			"0.023": 0.0,
			"0.024": 0.0,
			"0.025": 0.0
		}
	}
}
