{
	 "smiles": "OC(=O)C1=CC=C(C=C1)N1C(=O)C2C(C1=O)C(=NN2C1=CC=CC=C1)C(=O)C1=CC=C(Cl)C=C1", 
	 "Tm": 558.15, 
	 "num_atms": 50, 
	 "gaussian": { 
		 "optdone": 1, 
		 "sigma_profile": "yes", 
		 "theory": "DFT", 
		 "functional": "B3LYP", 
		 "basiset": "6-31G**", 
		 "properties": { 
			 "R2extent": 22282.1202, 
			 "electric_dipole_moment_norm": 4.34647887491, 
			 "electric_quadrupole_moment_norm": 32.4436865284, 
			 "total_energy": -1962.86734269, 
			 "HOMO_LUMO_gap": 0.1316, 
			 "cosmo_polarized_energy": -29.15, 
			 "cosmo_cavitation_energy": 58.12, 
			 "cosmo_dispersion_energy": -40.49, 
			 "cosmo_repulsion_energy": 2.98, 
			 "cosmo_total_nonelectrostatic_energy": 20.62, 
			 "SMD_solvation_energy": 10.98 
		},
		"coords": [
			{
				"x": -1.3020989862,
				"y": -2.0879236765,
				"z": -6.8988726316,
				"element": "O" 
			},
			{
				"x": -2.0264371601,
				"y": -2.3132457863,
				"z": -5.7706706465,
				"element": "C" 
			},
			{
				"x": -3.1710550497,
				"y": -2.6913725623,
				"z": -5.8506822738,
				"element": "O" 
			},
			{
				"x": -1.3333212805,
				"y": -2.0694197211,
				"z": -4.4629010532,
				"element": "C" 
			},
			{
				"x": 0.0606216999,
				"y": -2.0703176065,
				"z": -4.3219121695,
				"element": "C" 
			},
			{
				"x": 0.651321539,
				"y": -1.8549942527,
				"z": -3.0797178588,
				"element": "C" 
			},
			{
				"x": -0.1596878626,
				"y": -1.6250169664,
				"z": -1.9634391814,
				"element": "C" 
			},
			{
				"x": -1.5550742952,
				"y": -1.6326902637,
				"z": -2.0876633689,
				"element": "C" 
			},
			{
				"x": -2.1318017814,
				"y": -1.8674436477,
				"z": -3.3298583359,
				"element": "C" 
			},
			{
				"x": 0.438364314,
				"y": -1.3829154251,
				"z": -0.6864062934,
				"element": "N" 
			},
			{
				"x": -0.043996244,
				"y": -1.9296931567,
				"z": 0.5083197259,
				"element": "C" 
			},
			{
				"x": -0.9759725392,
				"y": -2.6972266554,
				"z": 0.6049365916,
				"element": "O" 
			},
			{
				"x": 0.821073199,
				"y": -1.3975399735,
				"z": 1.6671439999,
				"element": "C" 
			},
			{
				"x": 1.9215092189,
				"y": -0.560403518,
				"z": 0.9937640934,
				"element": "C" 
			},
			{
				"x": 1.5969816464,
				"y": -0.5903819542,
				"z": -0.5046216989,
				"element": "C" 
			},
			{
				"x": 2.2076774367,
				"y": -0.0445586867,
				"z": -1.3894732873,
				"element": "O" 
			},
			{
				"x": 1.6945379825,
				"y": 0.8080279576,
				"z": 1.6116922431,
				"element": "C" 
			},
			{
				"x": 0.6880345149,
				"y": 0.8181853057,
				"z": 2.4291135511,
				"element": "N" 
			},
			{
				"x": 0.1083873281,
				"y": -0.3972403896,
				"z": 2.4976912068,
				"element": "N" 
			},
			{
				"x": -0.730299699,
				"y": -0.7110543398,
				"z": 3.5955023822,
				"element": "C" 
			},
			{
				"x": -1.3318496563,
				"y": -1.9747144146,
				"z": 3.6796557162,
				"element": "C" 
			},
			{
				"x": -2.1416296506,
				"y": -2.2789932929,
				"z": 4.7748865068,
				"element": "C" 
			},
			{
				"x": -2.3717923824,
				"y": -1.3390463968,
				"z": 5.7782662289,
				"element": "C" 
			},
			{
				"x": -1.7778589939,
				"y": -0.0779928551,
				"z": 5.6792654303,
				"element": "C" 
			},
			{
				"x": -0.9566765706,
				"y": 0.2419813818,
				"z": 4.6021788695,
				"element": "C" 
			},
			{
				"x": 2.6613674074,
				"y": 1.9127225691,
				"z": 1.4263885149,
				"element": "C" 
			},
			{
				"x": 3.7670167708,
				"y": 1.6124993307,
				"z": 0.9783036243,
				"element": "O" 
			},
			{
				"x": 2.3369284511,
				"y": 3.3230315484,
				"z": 1.7973945348,
				"element": "C" 
			},
			{
				"x": 3.4112400885,
				"y": 4.227347645,
				"z": 1.8451066188,
				"element": "C" 
			},
			{
				"x": 3.2070151358,
				"y": 5.5658648625,
				"z": 2.1572163093,
				"element": "C" 
			},
			{
				"x": 1.9072805978,
				"y": 6.0094411206,
				"z": 2.4134185415,
				"element": "C" 
			},
			{
				"x": 1.6360254018,
				"y": 7.6973640593,
				"z": 2.8049744736,
				"element": "Cl" 
			},
			{
				"x": 0.8210242568,
				"y": 5.1362401976,
				"z": 2.3595636069,
				"element": "C" 
			},
			{
				"x": 1.0395440365,
				"y": 3.7948505167,
				"z": 2.051906721,
				"element": "C" 
			},
			{
				"x": -0.4773917519,
				"y": -1.6306371346,
				"z": -6.6839743744,
				"element": "H" 
			},
			{
				"x": 0.7075114699,
				"y": -2.2806099803,
				"z": -5.1697420275,
				"element": "H" 
			},
			{
				"x": 1.7285148359,
				"y": -1.8572741032,
				"z": -2.9804197899,
				"element": "H" 
			},
			{
				"x": -2.179306134,
				"y": -1.4709338365,
				"z": -1.2183631877,
				"element": "H" 
			},
			{
				"x": -3.2097703553,
				"y": -1.8918501951,
				"z": -3.4445794675,
				"element": "H" 
			},
			{
				"x": 1.1555713084,
				"y": -2.2381401242,
				"z": 2.2832015897,
				"element": "H" 
			},
			{
				"x": 2.9521589091,
				"y": -0.8959778367,
				"z": 1.1329200063,
				"element": "H" 
			},
			{
				"x": -1.2046667237,
				"y": -2.6982001621,
				"z": 2.8833800722,
				"element": "H" 
			},
			{
				"x": -2.6032911945,
				"y": -3.2604746471,
				"z": 4.8297963105,
				"element": "H" 
			},
			{
				"x": -3.0070144464,
				"y": -1.5819047643,
				"z": 6.6242945387,
				"element": "H" 
			},
			{
				"x": -1.9450242669,
				"y": 0.6651290262,
				"z": 6.4536282327,
				"element": "H" 
			},
			{
				"x": -0.4828658806,
				"y": 1.2130579121,
				"z": 4.5355012581,
				"element": "H" 
			},
			{
				"x": 4.4070599159,
				"y": 3.8553862712,
				"z": 1.6302725694,
				"element": "H" 
			},
			{
				"x": 4.0375184071,
				"y": 6.2615757116,
				"z": 2.2002962964,
				"element": "H" 
			},
			{
				"x": -0.1807985683,
				"y": 5.5033949787,
				"z": 2.5520382171,
				"element": "H" 
			},
			{
				"x": 0.1959956012,
				"y": 3.1178879309,
				"z": 2.0110790643,
				"element": "H" 
			}
		],
		 "valence_orbital": [ 
			{
				"type": "occ",
				"energy": -0.2706,
				"method": "rhf"
			},
			{
				"type": "occ",
				"energy": -0.26625,
				"method": "rhf"
			},
			{
				"type": "occ",
				"energy": -0.2624,
				"method": "rhf"
			},
			{
				"type": "occ",
				"energy": -0.25792,
				"method": "rhf"
			},
			{
				"type": "occ",
				"energy": -0.22224,
				"method": "rhf"
			},
			{
				"type": "unocc",
				"energy": -0.09064,
				"method": "rhf"
			},
			{
				"type": "unocc",
				"energy": -0.06843,
				"method": "rhf"
			},
			{
				"type": "unocc",
				"energy": -0.0556,
				"method": "rhf"
			},
			{
				"type": "unocc",
				"energy": -0.03613,
				"method": "rhf"
			},
			{
				"type": "unocc",
				"energy": -0.03212,
				"method": "rhf"
			}
		],
		"cosmo_sigma_profile": { 
			"-0.025": 0.0,
			"-0.024": 0.0,
			"-0.023": 0.0,
			"-0.022": 0.0,
			"-0.021": 0.0,
			"-0.02": 0.0,
			"-0.019": 0.257865160001,
			"-0.018": 1.14746687428,
			"-0.017": 1.07051899404,
			"-0.016": 1.07543391732,
			"-0.015": 0.724513289337,
			"-0.014": 0.776237666714,
			"-0.013": 1.17904753993,
			"-0.012": 2.03871061996,
			"-0.011": 2.8688228114,
			"-0.01": 5.85082436031,
			"-0.009": 9.84623002548,
			"-0.008": 8.94469710974,
			"-0.007": 18.6418102838,
			"-0.006": 23.9933779799,
			"-0.005": 24.2987580523,
			"-0.004": 27.7163027085,
			"-0.003": 26.5791877837,
			"-0.002": 25.392154654,
			"-0.001": 27.7799790179,
			"0.0": 31.0045816274,
			"0.001": 40.7073945175,
			"0.002": 46.6786782502,
			"0.003": 29.817357664,
			"0.004": 26.7891802475,
			"0.005": 19.4503551697,
			"0.006": 9.81127378517,
			"0.007": 5.31397875219,
			"0.008": 8.51386943438,
			"0.009": 11.2981235842,
			"0.01": 11.9287435751,
			"0.011": 11.4315646088,
			"0.012": 7.09027307974,
			"0.013": 1.18677881957,
			"0.014": 0.0005210886351,
			"0.015": 0.0,
			"0.016": 0.0,
			"0.017": 0.0,
			"0.018": 0.0,
			"0.019": 0.0,
			"0.02": 0.0,
			"0.021": 0.0,
			"0.022": 0.0,
			"0.023": 0.0,
			"0.024": 0.0,
			"0.025": 0.0
		}
	}
}
