{
	 "smiles": "CCC1=NC(C)=C(S1)C(O)=O", 
	 "Tm": 439.15, 
	 "num_atms": 20, 
	 "gaussian": { 
		 "optdone": 1, 
		 "sigma_profile": "yes", 
		 "theory": "DFT", 
		 "functional": "B3LYP", 
		 "basiset": "6-31G**", 
		 "properties": { 
			 "R2extent": 2953.0665, 
			 "electric_dipole_moment_norm": 4.70376118654, 
			 "electric_quadrupole_moment_norm": 13.7002943844, 
			 "total_energy": -875.570338348, 
			 "HOMO_LUMO_gap": 0.18988, 
			 "cosmo_polarized_energy": -12.79, 
			 "cosmo_cavitation_energy": 25.53, 
			 "cosmo_dispersion_energy": -19.19, 
			 "cosmo_repulsion_energy": 1.53, 
			 "cosmo_total_nonelectrostatic_energy": 7.87, 
			 "SMD_solvation_energy": 3.87 
		},
		"coords": [
			{
				"x": 2.5039945129,
				"y": 2.9997270297,
				"z": 2.3737915053,
				"element": "C" 
			},
			{
				"x": 1.1557526116,
				"y": 2.9058619564,
				"z": 1.6368218541,
				"element": "C" 
			},
			{
				"x": 1.0889288498,
				"y": 1.718829963,
				"z": 0.7178162894,
				"element": "C" 
			},
			{
				"x": 0.9861642266,
				"y": 0.4851993846,
				"z": 1.1218685271,
				"element": "N" 
			},
			{
				"x": 1.0030853597,
				"y": -0.4192913592,
				"z": 0.0838775217,
				"element": "C" 
			},
			{
				"x": 0.8834507723,
				"y": -1.8755815326,
				"z": 0.4145698854,
				"element": "C" 
			},
			{
				"x": 1.1198299023,
				"y": 0.1420515406,
				"z": -1.1748952295,
				"element": "C" 
			},
			{
				"x": 1.2285673901,
				"y": 1.8865397319,
				"z": -1.0240346231,
				"element": "S" 
			},
			{
				"x": 1.1449673292,
				"y": -0.5611262572,
				"z": -2.4773217009,
				"element": "C" 
			},
			{
				"x": 0.9470703256,
				"y": 0.1991288351,
				"z": -3.5897672861,
				"element": "O" 
			},
			{
				"x": 1.3357553389,
				"y": -1.7504548505,
				"z": -2.5984737094,
				"element": "O" 
			},
			{
				"x": 2.6890518151,
				"y": 2.0867781646,
				"z": 2.9454746737,
				"element": "H" 
			},
			{
				"x": 2.5006284469,
				"y": 3.848070368,
				"z": 3.0647168083,
				"element": "H" 
			},
			{
				"x": 3.3303871351,
				"y": 3.1360262038,
				"z": 1.6695303394,
				"element": "H" 
			},
			{
				"x": 0.3453155959,
				"y": 2.7998189891,
				"z": 2.3663984717,
				"element": "H" 
			},
			{
				"x": 0.9664522135,
				"y": 3.8246864381,
				"z": 1.0724616952,
				"element": "H" 
			},
			{
				"x": 0.7831710374,
				"y": -2.4804228285,
				"z": -0.4842008787,
				"element": "H" 
			},
			{
				"x": 1.7773289606,
				"y": -2.2033310231,
				"z": 0.9576878633,
				"element": "H" 
			},
			{
				"x": 0.0286339866,
				"y": -2.0318529227,
				"z": 1.0800093767,
				"element": "H" 
			},
			{
				"x": 0.6631641899,
				"y": 1.0958421688,
				"z": -3.3610313837,
				"element": "H" 
			}
		],
		 "valence_orbital": [ 
			{
				"type": "occ",
				"energy": -0.31956,
				"method": "rhf"
			},
			{
				"type": "occ",
				"energy": -0.29719,
				"method": "rhf"
			},
			{
				"type": "occ",
				"energy": -0.28582,
				"method": "rhf"
			},
			{
				"type": "occ",
				"energy": -0.27768,
				"method": "rhf"
			},
			{
				"type": "occ",
				"energy": -0.25239,
				"method": "rhf"
			},
			{
				"type": "unocc",
				"energy": -0.06251,
				"method": "rhf"
			},
			{
				"type": "unocc",
				"energy": -0.01479,
				"method": "rhf"
			},
			{
				"type": "unocc",
				"energy": 0.00584,
				"method": "rhf"
			},
			{
				"type": "unocc",
				"energy": 0.05726,
				"method": "rhf"
			},
			{
				"type": "unocc",
				"energy": 0.08699,
				"method": "rhf"
			}
		],
		"cosmo_sigma_profile": { 
			"-0.025": 0.0,
			"-0.024": 0.0,
			"-0.023": 0.0,
			"-0.022": 0.0,
			"-0.021": 0.0,
			"-0.02": 0.0,
			"-0.019": 0.0,
			"-0.018": 0.302842145263,
			"-0.017": 0.82711486221,
			"-0.016": 0.979002321292,
			"-0.015": 0.823611851418,
			"-0.014": 0.688456977779,
			"-0.013": 0.952817133369,
			"-0.012": 1.18057007927,
			"-0.011": 0.987633593683,
			"-0.01": 0.529241022968,
			"-0.009": 0.908593766008,
			"-0.008": 1.36640694387,
			"-0.007": 2.49310116058,
			"-0.006": 5.25289375441,
			"-0.005": 9.74170363042,
			"-0.004": 15.3725578138,
			"-0.003": 20.0536347923,
			"-0.002": 22.0410544976,
			"-0.001": 25.4381947729,
			"0.0": 25.5040815353,
			"0.001": 13.963712837,
			"0.002": 7.4719550885,
			"0.003": 6.18515316042,
			"0.004": 3.84241271855,
			"0.005": 3.44039650822,
			"0.006": 4.01267468328,
			"0.007": 4.06770661172,
			"0.008": 4.22673516993,
			"0.009": 3.73257735804,
			"0.01": 5.8784380802,
			"0.011": 5.87961619123,
			"0.012": 3.62398806824,
			"0.013": 1.97980235899,
			"0.014": 0.673042105945,
			"0.015": 0.119016227371,
			"0.016": 0.0,
			"0.017": 0.0,
			"0.018": 0.0,
			"0.019": 0.0,
			"0.02": 0.0,
			"0.021": 0.0,
			"0.022": 0.0,
			"0.023": 0.0,
			"0.024": 0.0,
			"0.025": 0.0
		}
	}
}
