{
	 "smiles": "CC(C)C1=C(C)N(C)N(C1=O)C1=CC=CC=C1", 
	 "Tm": 376.15, 
	 "num_atms": 35, 
	 "gaussian": { 
		 "optdone": 1, 
		 "sigma_profile": "yes", 
		 "theory": "DFT", 
		 "functional": "B3LYP", 
		 "basiset": "6-31G**", 
		 "properties": { 
			 "R2extent": 5038.9146, 
			 "electric_dipole_moment_norm": 4.62904229944, 
			 "electric_quadrupole_moment_norm": 9.10412008983, 
			 "total_energy": -729.056673572, 
			 "HOMO_LUMO_gap": 0.18436, 
			 "cosmo_polarized_energy": -13.0, 
			 "cosmo_cavitation_energy": 36.44, 
			 "cosmo_dispersion_energy": -25.36, 
			 "cosmo_repulsion_energy": 1.97, 
			 "cosmo_total_nonelectrostatic_energy": 13.05, 
			 "SMD_solvation_energy": 6.79 
		},
		"coords": [
			{
				"x": -4.3556866573,
				"y": -0.5359900952,
				"z": 0.497587638,
				"element": "C" 
			},
			{
				"x": -2.9679862139,
				"y": -1.2034021446,
				"z": 0.5440626698,
				"element": "C" 
			},
			{
				"x": -2.8518554616,
				"y": -2.3445356524,
				"z": -0.4851617861,
				"element": "C" 
			},
			{
				"x": -1.8324870689,
				"y": -0.2121754287,
				"z": 0.4468047494,
				"element": "C" 
			},
			{
				"x": -1.454690232,
				"y": 0.6496281261,
				"z": -0.5352598748,
				"element": "C" 
			},
			{
				"x": -2.1128365226,
				"y": 0.9816827883,
				"z": -1.8392457668,
				"element": "C" 
			},
			{
				"x": -0.2532121884,
				"y": 1.2999661296,
				"z": -0.2087854294,
				"element": "N" 
			},
			{
				"x": -0.2044747611,
				"y": 2.7615739859,
				"z": -0.3756043234,
				"element": "C" 
			},
			{
				"x": 0.0657679333,
				"y": 0.8876038344,
				"z": 1.1052137132,
				"element": "N" 
			},
			{
				"x": -0.854788222,
				"y": -0.0973038648,
				"z": 1.5315369414,
				"element": "C" 
			},
			{
				"x": -0.7822852679,
				"y": -0.7156509929,
				"z": 2.5873274567,
				"element": "O" 
			},
			{
				"x": 1.4074187608,
				"y": 0.9840405353,
				"z": 1.5528739958,
				"element": "C" 
			},
			{
				"x": 2.462715634,
				"y": 1.1403824682,
				"z": 0.6427863785,
				"element": "C" 
			},
			{
				"x": 3.7713821751,
				"y": 1.2541262445,
				"z": 1.1120886135,
				"element": "C" 
			},
			{
				"x": 4.0418972267,
				"y": 1.1944456782,
				"z": 2.4795225644,
				"element": "C" 
			},
			{
				"x": 2.9873945195,
				"y": 1.0208456734,
				"z": 3.3790799241,
				"element": "C" 
			},
			{
				"x": 1.6720397643,
				"y": 0.925275097,
				"z": 2.92939749,
				"element": "C" 
			},
			{
				"x": -4.4419630855,
				"y": 0.2468612601,
				"z": 1.2573781103,
				"element": "H" 
			},
			{
				"x": -4.5579949813,
				"y": -0.0795519781,
				"z": -0.4778896737,
				"element": "H" 
			},
			{
				"x": -5.1424700988,
				"y": -1.2753726493,
				"z": 0.6834844062,
				"element": "H" 
			},
			{
				"x": -2.8528669463,
				"y": -1.65125105,
				"z": 1.5386949933,
				"element": "H" 
			},
			{
				"x": -1.8810893728,
				"y": -2.843396361,
				"z": -0.4102650274,
				"element": "H" 
			},
			{
				"x": -3.632336972,
				"y": -3.0943508568,
				"z": -0.3151860038,
				"element": "H" 
			},
			{
				"x": -2.963138287,
				"y": -1.9818238288,
				"z": -1.5133493378,
				"element": "H" 
			},
			{
				"x": -2.8595580528,
				"y": 0.2286827952,
				"z": -2.0906568969,
				"element": "H" 
			},
			{
				"x": -2.6212262301,
				"y": 1.9529285807,
				"z": -1.8036222199,
				"element": "H" 
			},
			{
				"x": -1.3781913736,
				"y": 1.0198249315,
				"z": -2.6501438895,
				"element": "H" 
			},
			{
				"x": 0.7937845326,
				"y": 3.1149848847,
				"z": -0.1149606728,
				"element": "H" 
			},
			{
				"x": -0.3904730213,
				"y": 3.0003485692,
				"z": -1.4238025497,
				"element": "H" 
			},
			{
				"x": -0.9439523761,
				"y": 3.2698710396,
				"z": 0.2573891099,
				"element": "H" 
			},
			{
				"x": 2.2541511166,
				"y": 1.1487846313,
				"z": -0.4211878082,
				"element": "H" 
			},
			{
				"x": 4.5824513639,
				"y": 1.3764738602,
				"z": 0.3996757575,
				"element": "H" 
			},
			{
				"x": 5.0625264064,
				"y": 1.2784648107,
				"z": 2.8404861182,
				"element": "H" 
			},
			{
				"x": 3.1861393703,
				"y": 0.967159838,
				"z": 4.4456544529,
				"element": "H" 
			},
			{
				"x": 0.8525945897,
				"y": 0.7833491407,
				"z": 3.6213761769,
				"element": "H" 
			}
		],
		 "valence_orbital": [ 
			{
				"type": "occ",
				"energy": -0.28351,
				"method": "rhf"
			},
			{
				"type": "occ",
				"energy": -0.25072,
				"method": "rhf"
			},
			{
				"type": "occ",
				"energy": -0.24084,
				"method": "rhf"
			},
			{
				"type": "occ",
				"energy": -0.22657,
				"method": "rhf"
			},
			{
				"type": "occ",
				"energy": -0.20465,
				"method": "rhf"
			},
			{
				"type": "unocc",
				"energy": -0.02029,
				"method": "rhf"
			},
			{
				"type": "unocc",
				"energy": 0.00192,
				"method": "rhf"
			},
			{
				"type": "unocc",
				"energy": 0.01289,
				"method": "rhf"
			},
			{
				"type": "unocc",
				"energy": 0.06987,
				"method": "rhf"
			},
			{
				"type": "unocc",
				"energy": 0.08752,
				"method": "rhf"
			}
		],
		"cosmo_sigma_profile": { 
			"-0.025": 0.0,
			"-0.024": 0.0,
			"-0.023": 0.0,
			"-0.022": 0.0,
			"-0.021": 0.0,
			"-0.02": 0.0,
			"-0.019": 0.0,
			"-0.018": 0.0,
			"-0.017": 0.0,
			"-0.016": 0.0,
			"-0.015": 0.0,
			"-0.014": 0.0,
			"-0.013": 0.0,
			"-0.012": 0.0,
			"-0.011": 0.0,
			"-0.01": 0.0,
			"-0.009": 0.0,
			"-0.008": 0.0,
			"-0.007": 0.423426944299,
			"-0.006": 9.92494696841,
			"-0.005": 23.4982233943,
			"-0.004": 25.5708436758,
			"-0.003": 30.7128814537,
			"-0.002": 31.536920291,
			"-0.001": 29.1292980194,
			"0.0": 26.4543732052,
			"0.001": 29.5367453769,
			"0.002": 20.0379743399,
			"0.003": 13.2989713609,
			"0.004": 9.07974248543,
			"0.005": 12.0002656051,
			"0.006": 7.0454166414,
			"0.007": 1.81601470794,
			"0.008": 1.74093955865,
			"0.009": 2.00620719659,
			"0.01": 1.70676207142,
			"0.011": 1.5956990491,
			"0.012": 1.8772633384,
			"0.013": 2.45154421336,
			"0.014": 4.94446066613,
			"0.015": 1.06247415852,
			"0.016": 0.0,
			"0.017": 0.0,
			"0.018": 0.0,
			"0.019": 0.0,
			"0.02": 0.0,
			"0.021": 0.0,
			"0.022": 0.0,
			"0.023": 0.0,
			"0.024": 0.0,
			"0.025": 0.0
		}
	}
}
