{
	 "smiles": "CC1CCC23CCC(=O)C2C1(C)C(CC(C)(C=C)C(O)C3C)OC(=O)CO", 
	 "Tm": 443.15, 
	 "num_atms": 61, 
	 "gaussian": { 
		 "optdone": 1, 
		 "sigma_profile": "yes", 
		 "theory": "DFT", 
		 "functional": "B3LYP", 
		 "basiset": "6-31G**", 
		 "properties": { 
			 "R2extent": 9214.3272, 
			 "electric_dipole_moment_norm": 3.7403412478, 
			 "electric_quadrupole_moment_norm": 17.9179051781, 
			 "total_energy": -1234.9083896, 
			 "HOMO_LUMO_gap": 0.2164, 
			 "cosmo_polarized_energy": -18.5, 
			 "cosmo_cavitation_energy": 52.06, 
			 "cosmo_dispersion_energy": -34.41, 
			 "cosmo_repulsion_energy": 2.52, 
			 "cosmo_total_nonelectrostatic_energy": 20.17, 
			 "SMD_solvation_energy": 10.06 
		},
		"coords": [
			{
				"x": -3.1471612909,
				"y": -0.2778507015,
				"z": -2.580621334,
				"element": "C" 
			},
			{
				"x": -1.7743800169,
				"y": 0.1626872277,
				"z": -2.0481826169,
				"element": "C" 
			},
			{
				"x": -0.8102835405,
				"y": 0.3698413596,
				"z": -3.2362646198,
				"element": "C" 
			},
			{
				"x": 0.6161139324,
				"y": 0.7488976828,
				"z": -2.8134549564,
				"element": "C" 
			},
			{
				"x": 1.3024493899,
				"y": -0.2725262104,
				"z": -1.8382546044,
				"element": "C" 
			},
			{
				"x": 2.3215193724,
				"y": -1.1729331786,
				"z": -2.6023042574,
				"element": "C" 
			},
			{
				"x": 1.4877165631,
				"y": -2.2123187158,
				"z": -3.3541618835,
				"element": "C" 
			},
			{
				"x": 0.1979570624,
				"y": -2.3449932278,
				"z": -2.5463459922,
				"element": "C" 
			},
			{
				"x": -0.6711261579,
				"y": -3.1566909759,
				"z": -2.7868833872,
				"element": "O" 
			},
			{
				"x": 0.2272339333,
				"y": -1.3175334709,
				"z": -1.3902884578,
				"element": "C" 
			},
			{
				"x": -1.1476220249,
				"y": -0.7622237994,
				"z": -0.9169014603,
				"element": "C" 
			},
			{
				"x": -2.0723923488,
				"y": -1.9303114961,
				"z": -0.4977744102,
				"element": "C" 
			},
			{
				"x": -0.8794022545,
				"y": 0.1282969058,
				"z": 0.3386145276,
				"element": "C" 
			},
			{
				"x": -0.0899537632,
				"y": -0.5405351274,
				"z": 1.4852902026,
				"element": "C" 
			},
			{
				"x": 1.3788504276,
				"y": -0.0910058976,
				"z": 1.7934765311,
				"element": "C" 
			},
			{
				"x": 1.3970368737,
				"y": 1.3798926732,
				"z": 2.275743717,
				"element": "C" 
			},
			{
				"x": 1.7623810793,
				"y": -0.9702764257,
				"z": 2.9841956166,
				"element": "C" 
			},
			{
				"x": 2.7413246851,
				"y": -1.8653310236,
				"z": 3.1096114958,
				"element": "C" 
			},
			{
				"x": 2.3665460812,
				"y": -0.2903799992,
				"z": 0.5995035512,
				"element": "C" 
			},
			{
				"x": 3.6533987347,
				"y": 0.0574435031,
				"z": 1.1199739621,
				"element": "O" 
			},
			{
				"x": 2.0228987446,
				"y": 0.5311305871,
				"z": -0.6947542028,
				"element": "C" 
			},
			{
				"x": 3.2581440359,
				"y": 1.2702754629,
				"z": -1.2538531154,
				"element": "C" 
			},
			{
				"x": -2.1943564217,
				"y": 0.5159056691,
				"z": 0.8705547357,
				"element": "O" 
			},
			{
				"x": -2.441736481,
				"y": 1.8134300286,
				"z": 1.0750745096,
				"element": "C" 
			},
			{
				"x": -1.6832006454,
				"y": 2.7348979901,
				"z": 0.8296328985,
				"element": "O" 
			},
			{
				"x": -3.8200672347,
				"y": 2.0476508034,
				"z": 1.673408276,
				"element": "C" 
			},
			{
				"x": -4.0675793987,
				"y": 3.4166961032,
				"z": 1.841913,
				"element": "O" 
			},
			{
				"x": -3.5075809455,
				"y": 0.4523518339,
				"z": -3.3137370585,
				"element": "H" 
			},
			{
				"x": -3.8968728193,
				"y": -0.3438885038,
				"z": -1.7880310477,
				"element": "H" 
			},
			{
				"x": -3.0950122539,
				"y": -1.2500187425,
				"z": -3.0802014533,
				"element": "H" 
			},
			{
				"x": -1.9172258542,
				"y": 1.1547173364,
				"z": -1.6010678896,
				"element": "H" 
			},
			{
				"x": -1.2116866421,
				"y": 1.1679547961,
				"z": -3.8726082309,
				"element": "H" 
			},
			{
				"x": -0.8072734982,
				"y": -0.5274439329,
				"z": -3.8669692029,
				"element": "H" 
			},
			{
				"x": 0.5673515719,
				"y": 1.7312405391,
				"z": -2.3276221119,
				"element": "H" 
			},
			{
				"x": 1.2349212591,
				"y": 0.8909042807,
				"z": -3.7075461039,
				"element": "H" 
			},
			{
				"x": 2.9752408109,
				"y": -1.6797053097,
				"z": -1.8807091113,
				"element": "H" 
			},
			{
				"x": 2.9657341245,
				"y": -0.5901874691,
				"z": -3.264922928,
				"element": "H" 
			},
			{
				"x": 1.9644483678,
				"y": -3.1901798941,
				"z": -3.4695306377,
				"element": "H" 
			},
			{
				"x": 1.2172790252,
				"y": -1.8760142214,
				"z": -4.3622915329,
				"element": "H" 
			},
			{
				"x": 0.6502587697,
				"y": -1.9162984138,
				"z": -0.5707353244,
				"element": "H" 
			},
			{
				"x": -1.5737832739,
				"y": -2.5781104745,
				"z": 0.2303088153,
				"element": "H" 
			},
			{
				"x": -2.3296277952,
				"y": -2.5565105189,
				"z": -1.3477399503,
				"element": "H" 
			},
			{
				"x": -2.9846270114,
				"y": -1.5547802038,
				"z": -0.0322086912,
				"element": "H" 
			},
			{
				"x": -0.4113178337,
				"y": 1.0595194696,
				"z": 0.0352318441,
				"element": "H" 
			},
			{
				"x": -0.6593395887,
				"y": -0.3572642739,
				"z": 2.4020379982,
				"element": "H" 
			},
			{
				"x": -0.0970260265,
				"y": -1.627355438,
				"z": 1.363520836,
				"element": "H" 
			},
			{
				"x": 2.4236621772,
				"y": 1.7011238348,
				"z": 2.4608389155,
				"element": "H" 
			},
			{
				"x": 0.9360197909,
				"y": 2.0668793812,
				"z": 1.560334893,
				"element": "H" 
			},
			{
				"x": 0.836123436,
				"y": 1.472849603,
				"z": 3.2118955559,
				"element": "H" 
			},
			{
				"x": 1.0818628482,
				"y": -0.8444664283,
				"z": 3.8287043104,
				"element": "H" 
			},
			{
				"x": 2.8427837718,
				"y": -2.4427486253,
				"z": 4.0243307501,
				"element": "H" 
			},
			{
				"x": 3.4864320931,
				"y": -2.0334456392,
				"z": 2.3412973568,
				"element": "H" 
			},
			{
				"x": 2.370850239,
				"y": -1.3644629153,
				"z": 0.3543824814,
				"element": "H" 
			},
			{
				"x": 4.3127064328,
				"y": -0.1224675199,
				"z": 0.4396193114,
				"element": "H" 
			},
			{
				"x": 1.3487720186,
				"y": 1.3352695897,
				"z": -0.3961030834,
				"element": "H" 
			},
			{
				"x": 3.6668951307,
				"y": 1.9502549123,
				"z": -0.5046588274,
				"element": "H" 
			},
			{
				"x": 4.0611191626,
				"y": 0.5926195064,
				"z": -1.5667367711,
				"element": "H" 
			},
			{
				"x": 2.9840305656,
				"y": 1.8623752344,
				"z": -2.1312898388,
				"element": "H" 
			},
			{
				"x": -4.5668799459,
				"y": 1.585138077,
				"z": 1.0113448916,
				"element": "H" 
			},
			{
				"x": -3.8690555094,
				"y": 1.5056231032,
				"z": 2.6307422667,
				"element": "H" 
			},
			{
				"x": -3.2534919338,
				"y": 3.8669912801,
				"z": 1.5610718431,
				"element": "H" 
			}
		],
		 "valence_orbital": [ 
			{
				"type": "occ",
				"energy": -0.29015,
				"method": "rhf"
			},
			{
				"type": "occ",
				"energy": -0.27024,
				"method": "rhf"
			},
			{
				"type": "occ",
				"energy": -0.26903,
				"method": "rhf"
			},
			{
				"type": "occ",
				"energy": -0.24955,
				"method": "rhf"
			},
			{
				"type": "occ",
				"energy": -0.24086,
				"method": "rhf"
			},
			{
				"type": "unocc",
				"energy": -0.02446,
				"method": "rhf"
			},
			{
				"type": "unocc",
				"energy": -0.00099,
				"method": "rhf"
			},
			{
				"type": "unocc",
				"energy": 0.02298,
				"method": "rhf"
			},
			{
				"type": "unocc",
				"energy": 0.05047,
				"method": "rhf"
			},
			{
				"type": "unocc",
				"energy": 0.0684,
				"method": "rhf"
			}
		],
		"cosmo_sigma_profile": { 
			"-0.025": 0.0,
			"-0.024": 0.0,
			"-0.023": 0.0,
			"-0.022": 0.0,
			"-0.021": 0.0,
			"-0.02": 0.0,
			"-0.019": 0.0,
			"-0.018": 0.0,
			"-0.017": 0.0,
			"-0.016": 0.0,
			"-0.015": 0.0,
			"-0.014": 0.691192830814,
			"-0.013": 0.908558595205,
			"-0.012": 0.737927805484,
			"-0.011": 1.48526789092,
			"-0.01": 1.64259416391,
			"-0.009": 1.70823457535,
			"-0.008": 1.81534782811,
			"-0.007": 6.20080941103,
			"-0.006": 12.241687575,
			"-0.005": 21.2563937101,
			"-0.004": 28.0827678604,
			"-0.003": 41.3257724569,
			"-0.002": 50.7735859536,
			"-0.001": 45.443132983,
			"0.0": 41.9243651802,
			"0.001": 37.7366869165,
			"0.002": 22.7764376443,
			"0.003": 14.1862821053,
			"0.004": 9.31406037773,
			"0.005": 9.05799270936,
			"0.006": 8.91399877269,
			"0.007": 6.56205845895,
			"0.008": 5.42656485547,
			"0.009": 5.22105580041,
			"0.01": 7.66704524313,
			"0.011": 5.94137850631,
			"0.012": 5.45071471126,
			"0.013": 4.63076896627,
			"0.014": 2.73695543808,
			"0.015": 0.0348457123747,
			"0.016": 0.0,
			"0.017": 0.0,
			"0.018": 0.0,
			"0.019": 0.0,
			"0.02": 0.0,
			"0.021": 0.0,
			"0.022": 0.0,
			"0.023": 0.0,
			"0.024": 0.0,
			"0.025": 0.0
		}
	}
}
