{
	 "smiles": "CC1CC(=O)C(=O)C1C", 
	 "Tm": 339.65, 
	 "num_atms": 19, 
	 "gaussian": { 
		 "optdone": 1, 
		 "sigma_profile": "yes", 
		 "theory": "DFT", 
		 "functional": "B3LYP", 
		 "basiset": "6-31G**", 
		 "properties": { 
			 "R2extent": 1574.729, 
			 "electric_dipole_moment_norm": 4.70594393826, 
			 "electric_quadrupole_moment_norm": 9.26076503805, 
			 "total_energy": -423.205748791, 
			 "HOMO_LUMO_gap": 0.14121, 
			 "cosmo_polarized_energy": -11.19, 
			 "cosmo_cavitation_energy": 21.97, 
			 "cosmo_dispersion_energy": -15.66, 
			 "cosmo_repulsion_energy": 1.31, 
			 "cosmo_total_nonelectrostatic_energy": 7.62, 
			 "SMD_solvation_energy": 5.14 
		},
		"coords": [
			{
				"x": -0.4502209333,
				"y": -0.391090524,
				"z": -1.9117861731,
				"element": "C" 
			},
			{
				"x": -0.4955201003,
				"y": 1.0992853125,
				"z": -1.5476818752,
				"element": "C" 
			},
			{
				"x": -1.4641462,
				"y": 1.3574568878,
				"z": -0.362539834,
				"element": "C" 
			},
			{
				"x": -0.6165157202,
				"y": 1.1965731493,
				"z": 0.8878492638,
				"element": "C" 
			},
			{
				"x": -0.9759300324,
				"y": 0.977317079,
				"z": 2.0206520004,
				"element": "O" 
			},
			{
				"x": 0.8698339635,
				"y": 1.3746994116,
				"z": 0.4535438778,
				"element": "C" 
			},
			{
				"x": 1.8095549983,
				"y": 1.3517721355,
				"z": 1.2141805628,
				"element": "O" 
			},
			{
				"x": 0.8911868114,
				"y": 1.6091036861,
				"z": -1.0533462312,
				"element": "C" 
			},
			{
				"x": 1.1393179389,
				"y": 3.1037906231,
				"z": -1.3415155919,
				"element": "C" 
			},
			{
				"x": -1.4346191514,
				"y": -0.7497158949,
				"z": -2.229810067,
				"element": "H" 
			},
			{
				"x": 0.2572155503,
				"y": -0.576348386,
				"z": -2.7266888991,
				"element": "H" 
			},
			{
				"x": -0.1367991818,
				"y": -1.0039724065,
				"z": -1.0572344064,
				"element": "H" 
			},
			{
				"x": -0.810790761,
				"y": 1.66804736,
				"z": -2.429058896,
				"element": "H" 
			},
			{
				"x": -1.8392873152,
				"y": 2.3903721385,
				"z": -0.3759861967,
				"element": "H" 
			},
			{
				"x": -2.3377738054,
				"y": 0.7002123909,
				"z": -0.3445673993,
				"element": "H" 
			},
			{
				"x": 1.7115131231,
				"y": 1.0302117542,
				"z": -1.4918765157,
				"element": "H" 
			},
			{
				"x": 0.3465476135,
				"y": 3.7352154666,
				"z": -0.9251371553,
				"element": "H" 
			},
			{
				"x": 2.0886757088,
				"y": 3.4244943332,
				"z": -0.903841871,
				"element": "H" 
			},
			{
				"x": 1.1752574933,
				"y": 3.2808754833,
				"z": -2.4208545929,
				"element": "H" 
			}
		],
		 "valence_orbital": [ 
			{
				"type": "occ",
				"energy": -0.35534,
				"method": "rhf"
			},
			{
				"type": "occ",
				"energy": -0.34517,
				"method": "rhf"
			},
			{
				"type": "occ",
				"energy": -0.34126,
				"method": "rhf"
			},
			{
				"type": "occ",
				"energy": -0.30081,
				"method": "rhf"
			},
			{
				"type": "occ",
				"energy": -0.23037,
				"method": "rhf"
			},
			{
				"type": "unocc",
				"energy": -0.08916,
				"method": "rhf"
			},
			{
				"type": "unocc",
				"energy": 0.03846,
				"method": "rhf"
			},
			{
				"type": "unocc",
				"energy": 0.07491,
				"method": "rhf"
			},
			{
				"type": "unocc",
				"energy": 0.10333,
				"method": "rhf"
			},
			{
				"type": "unocc",
				"energy": 0.11937,
				"method": "rhf"
			}
		],
		"cosmo_sigma_profile": { 
			"-0.025": 0.0,
			"-0.024": 0.0,
			"-0.023": 0.0,
			"-0.022": 0.0,
			"-0.021": 0.0,
			"-0.02": 0.0,
			"-0.019": 0.0,
			"-0.018": 0.0,
			"-0.017": 0.0,
			"-0.016": 0.0,
			"-0.015": 0.0,
			"-0.014": 0.0,
			"-0.013": 0.0,
			"-0.012": 0.0,
			"-0.011": 0.0,
			"-0.01": 0.110864309864,
			"-0.009": 0.860821275345,
			"-0.008": 2.22365564134,
			"-0.007": 4.5401850983,
			"-0.006": 6.84396383105,
			"-0.005": 10.7798036795,
			"-0.004": 20.7881595605,
			"-0.003": 24.1274536793,
			"-0.002": 21.2432176524,
			"-0.001": 15.4320173127,
			"0.0": 13.9283465589,
			"0.001": 6.863392238,
			"0.002": 2.31711867959,
			"0.003": 2.37323590774,
			"0.004": 2.46520363187,
			"0.005": 2.48628466964,
			"0.006": 2.56042889728,
			"0.007": 3.36150659813,
			"0.008": 3.45455951932,
			"0.009": 5.68576150209,
			"0.01": 8.42447855483,
			"0.011": 7.4680659452,
			"0.012": 3.27619791133,
			"0.013": 0.125410884695,
			"0.014": 0.0,
			"0.015": 0.0,
			"0.016": 0.0,
			"0.017": 0.0,
			"0.018": 0.0,
			"0.019": 0.0,
			"0.02": 0.0,
			"0.021": 0.0,
			"0.022": 0.0,
			"0.023": 0.0,
			"0.024": 0.0,
			"0.025": 0.0
		}
	}
}
