{
	 "smiles": "CC1=NC2=C(C=C(OC(F)F)C=C2)C(Cl)=C1", 
	 "Tm": 355.15, 
	 "num_atms": 24, 
	 "gaussian": { 
		 "optdone": 1, 
		 "sigma_profile": "yes", 
		 "theory": "DFT", 
		 "functional": "B3LYP", 
		 "basiset": "6-31G**", 
		 "properties": { 
			 "R2extent": 5685.2493, 
			 "electric_dipole_moment_norm": 2.30601443187, 
			 "electric_quadrupole_moment_norm": 4.61991191258, 
			 "total_energy": -1213.84917417, 
			 "HOMO_LUMO_gap": 0.17325, 
			 "cosmo_polarized_energy": -7.73, 
			 "cosmo_cavitation_energy": 31.1, 
			 "cosmo_dispersion_energy": -22.62, 
			 "cosmo_repulsion_energy": 1.71, 
			 "cosmo_total_nonelectrostatic_energy": 10.2, 
			 "SMD_solvation_energy": 4.78 
		},
		"coords": [
			{
				"x": -2.7777231895,
				"y": 2.773344901,
				"z": -1.4902152211,
				"element": "C" 
			},
			{
				"x": -1.9070346816,
				"y": 1.8985619743,
				"z": -0.6237174965,
				"element": "C" 
			},
			{
				"x": -2.4885784438,
				"y": 1.2132791545,
				"z": 0.3430239062,
				"element": "N" 
			},
			{
				"x": -1.7160809495,
				"y": 0.4177591635,
				"z": 1.135352182,
				"element": "C" 
			},
			{
				"x": -0.2984975376,
				"y": 0.2812895725,
				"z": 0.9830491513,
				"element": "C" 
			},
			{
				"x": 0.4304266181,
				"y": -0.5742300377,
				"z": 1.8476995008,
				"element": "C" 
			},
			{
				"x": -0.2379557825,
				"y": -1.2515856548,
				"z": 2.8453231872,
				"element": "C" 
			},
			{
				"x": 0.3783207276,
				"y": -2.103177525,
				"z": 3.7444278505,
				"element": "O" 
			},
			{
				"x": 1.7106882256,
				"y": -1.9058204004,
				"z": 4.0208834158,
				"element": "C" 
			},
			{
				"x": 2.4923487182,
				"y": -2.4163076523,
				"z": 3.0266736287,
				"element": "F" 
			},
			{
				"x": 1.9772182599,
				"y": -2.5954202583,
				"z": 5.1423185231,
				"element": "F" 
			},
			{
				"x": -1.6396186041,
				"y": -1.1325969309,
				"z": 3.0081159427,
				"element": "C" 
			},
			{
				"x": -2.3578946987,
				"y": -0.3191683753,
				"z": 2.1678757774,
				"element": "C" 
			},
			{
				"x": 0.2781564628,
				"y": 1.0395540708,
				"z": -0.0740617831,
				"element": "C" 
			},
			{
				"x": 2.0060995485,
				"y": 0.9643392164,
				"z": -0.3713478912,
				"element": "Cl" 
			},
			{
				"x": -0.5050987561,
				"y": 1.8371406086,
				"z": -0.8684671482,
				"element": "C" 
			},
			{
				"x": -2.4630187211,
				"y": 3.8218872673,
				"z": -1.435072186,
				"element": "H" 
			},
			{
				"x": -3.8147858897,
				"y": 2.6977400337,
				"z": -1.1609822497,
				"element": "H" 
			},
			{
				"x": -2.7163432869,
				"y": 2.4723029414,
				"z": -2.5424044617,
				"element": "H" 
			},
			{
				"x": 1.4923618514,
				"y": -0.710001377,
				"z": 1.6923105546,
				"element": "H" 
			},
			{
				"x": 1.9635715672,
				"y": -0.8466125797,
				"z": 4.150416245,
				"element": "H" 
			},
			{
				"x": -2.1161469198,
				"y": -1.6925909681,
				"z": 3.8055821444,
				"element": "H" 
			},
			{
				"x": -3.4319550784,
				"y": -0.2069354335,
				"z": 2.2682908656,
				"element": "H" 
			},
			{
				"x": -0.0647594402,
				"y": 2.4154482891,
				"z": -1.673074438,
				"element": "H" 
			}
		],
		 "valence_orbital": [ 
			{
				"type": "occ",
				"energy": -0.32508,
				"method": "rhf"
			},
			{
				"type": "occ",
				"energy": -0.29682,
				"method": "rhf"
			},
			{
				"type": "occ",
				"energy": -0.2659,
				"method": "rhf"
			},
			{
				"type": "occ",
				"energy": -0.25682,
				"method": "rhf"
			},
			{
				"type": "occ",
				"energy": -0.23743,
				"method": "rhf"
			},
			{
				"type": "unocc",
				"energy": -0.06418,
				"method": "rhf"
			},
			{
				"type": "unocc",
				"energy": -0.02871,
				"method": "rhf"
			},
			{
				"type": "unocc",
				"energy": 0.00867,
				"method": "rhf"
			},
			{
				"type": "unocc",
				"energy": 0.02021,
				"method": "rhf"
			},
			{
				"type": "unocc",
				"energy": 0.0712,
				"method": "rhf"
			}
		],
		"cosmo_sigma_profile": { 
			"-0.025": 0.0,
			"-0.024": 0.0,
			"-0.023": 0.0,
			"-0.022": 0.0,
			"-0.021": 0.0,
			"-0.02": 0.0,
			"-0.019": 0.0,
			"-0.018": 0.0,
			"-0.017": 0.0,
			"-0.016": 0.0,
			"-0.015": 0.0,
			"-0.014": 0.0,
			"-0.013": 0.0,
			"-0.012": 0.0,
			"-0.011": 0.513551901609,
			"-0.01": 2.79067523402,
			"-0.009": 2.40963954364,
			"-0.008": 4.05954338167,
			"-0.007": 6.37434858914,
			"-0.006": 7.31932484312,
			"-0.005": 13.1116729843,
			"-0.004": 12.5396515203,
			"-0.003": 13.71148143,
			"-0.002": 14.5180549109,
			"-0.001": 22.2229109859,
			"0.0": 29.3967495182,
			"0.001": 32.5750037892,
			"0.002": 24.2979585192,
			"0.003": 30.446327313,
			"0.004": 19.0163576182,
			"0.005": 3.55766680018,
			"0.006": 3.32930065016,
			"0.007": 3.03503227345,
			"0.008": 1.72770452496,
			"0.009": 0.825149419487,
			"0.01": 0.783899485077,
			"0.011": 0.647333350487,
			"0.012": 1.13618509754,
			"0.013": 0.844203521888,
			"0.014": 0.603427817491,
			"0.015": 0.293000556943,
			"0.016": 0.0,
			"0.017": 0.0,
			"0.018": 0.0,
			"0.019": 0.0,
			"0.02": 0.0,
			"0.021": 0.0,
			"0.022": 0.0,
			"0.023": 0.0,
			"0.024": 0.0,
			"0.025": 0.0
		}
	}
}
