{
	 "smiles": "CC(CO)NC(=O)C1=CC2=C(OC1)C=CC(Br)=C2", 
	 "Tm": 431.15, 
	 "num_atms": 32, 
	 "gaussian": { 
		 "optdone": 1, 
		 "sigma_profile": "yes", 
		 "theory": "DFT", 
		 "functional": "B3LYP", 
		 "basiset": "6-31G**", 
		 "properties": { 
			 "R2extent": 8633.3401, 
			 "electric_dipole_moment_norm": 3.58824508082, 
			 "electric_quadrupole_moment_norm": 22.8514567844, 
			 "total_energy": -3355.62600118, 
			 "HOMO_LUMO_gap": 0.15354, 
			 "cosmo_polarized_energy": -16.81, 
			 "cosmo_cavitation_energy": 37.59, 
			 "cosmo_dispersion_energy": -26.96, 
			 "cosmo_repulsion_energy": 2.11, 
			 "cosmo_total_nonelectrostatic_energy": 12.74, 
			 "SMD_solvation_energy": 5.54 
		},
		"coords": [
			{
				"x": -2.9214784507,
				"y": -0.4306752013,
				"z": 1.9142303672,
				"element": "C" 
			},
			{
				"x": -2.3746299091,
				"y": -1.7916289127,
				"z": 2.351012328,
				"element": "C" 
			},
			{
				"x": -2.8442800165,
				"y": -2.9237833611,
				"z": 1.4337226701,
				"element": "C" 
			},
			{
				"x": -2.4945592795,
				"y": -4.1466943953,
				"z": 2.0637955612,
				"element": "O" 
			},
			{
				"x": -0.9177612883,
				"y": -1.8689486142,
				"z": 2.5688026582,
				"element": "N" 
			},
			{
				"x": 0.1223932398,
				"y": -0.9991820909,
				"z": 2.3488724772,
				"element": "C" 
			},
			{
				"x": 1.1187180087,
				"y": -1.0130237818,
				"z": 3.0755508136,
				"element": "O" 
			},
			{
				"x": 0.1399214575,
				"y": -0.0878830954,
				"z": 1.1713703008,
				"element": "C" 
			},
			{
				"x": -0.2577050085,
				"y": -0.4250576664,
				"z": -0.0699364878,
				"element": "C" 
			},
			{
				"x": -0.0354397355,
				"y": 0.486557974,
				"z": -1.184083167,
				"element": "C" 
			},
			{
				"x": 0.3713345157,
				"y": 1.8046249281,
				"z": -0.8830872415,
				"element": "C" 
			},
			{
				"x": 0.5639159098,
				"y": 2.2014951419,
				"z": 0.4045712069,
				"element": "O" 
			},
			{
				"x": 0.9440556026,
				"y": 1.1816817993,
				"z": 1.3464543123,
				"element": "C" 
			},
			{
				"x": 0.5142386068,
				"y": 2.7504707019,
				"z": -1.8982953671,
				"element": "C" 
			},
			{
				"x": 0.2777327767,
				"y": 2.3900372593,
				"z": -3.2246976527,
				"element": "C" 
			},
			{
				"x": -0.1056592582,
				"y": 1.0821603453,
				"z": -3.5264696302,
				"element": "C" 
			},
			{
				"x": -0.4203889683,
				"y": 0.5877464666,
				"z": -5.3472297267,
				"element": "Br" 
			},
			{
				"x": -0.2699629845,
				"y": 0.1356904245,
				"z": -2.5208713602,
				"element": "C" 
			},
			{
				"x": -2.6947167415,
				"y": -0.1892787015,
				"z": 0.8750507689,
				"element": "H" 
			},
			{
				"x": -2.5222602892,
				"y": 0.3714165223,
				"z": 2.540909231,
				"element": "H" 
			},
			{
				"x": -4.0094212195,
				"y": -0.4381635836,
				"z": 2.03101459,
				"element": "H" 
			},
			{
				"x": -2.814847375,
				"y": -2.0103508397,
				"z": 3.3331299162,
				"element": "H" 
			},
			{
				"x": -2.3670456131,
				"y": -2.8227939148,
				"z": 0.4466663968,
				"element": "H" 
			},
			{
				"x": -3.9337951346,
				"y": -2.8405113798,
				"z": 1.2906939121,
				"element": "H" 
			},
			{
				"x": -2.6639780966,
				"y": -4.8711492378,
				"z": 1.4500500335,
				"element": "H" 
			},
			{
				"x": -0.6632937693,
				"y": -2.5324206485,
				"z": 3.2903649654,
				"element": "H" 
			},
			{
				"x": -0.7437704006,
				"y": -1.376168208,
				"z": -0.2666315343,
				"element": "H" 
			},
			{
				"x": 2.0180253586,
				"y": 0.9678630899,
				"z": 1.2415609436,
				"element": "H" 
			},
			{
				"x": 0.7925601866,
				"y": 1.6198731443,
				"z": 2.3341356003,
				"element": "H" 
			},
			{
				"x": 0.8128032786,
				"y": 3.7603686803,
				"z": -1.6383165987,
				"element": "H" 
			},
			{
				"x": 0.3973088234,
				"y": 3.1188713928,
				"z": -4.0180644713,
				"element": "H" 
			},
			{
				"x": -0.5840142266,
				"y": -0.8736442379,
				"z": -2.7655758158,
				"element": "H" 
			}
		],
		 "valence_orbital": [ 
			{
				"type": "occ",
				"energy": -0.28432,
				"method": "rhf"
			},
			{
				"type": "occ",
				"energy": -0.26059,
				"method": "rhf"
			},
			{
				"type": "occ",
				"energy": -0.25104,
				"method": "rhf"
			},
			{
				"type": "occ",
				"energy": -0.2429,
				"method": "rhf"
			},
			{
				"type": "occ",
				"energy": -0.21576,
				"method": "rhf"
			},
			{
				"type": "unocc",
				"energy": -0.06222,
				"method": "rhf"
			},
			{
				"type": "unocc",
				"energy": -0.00995,
				"method": "rhf"
			},
			{
				"type": "unocc",
				"energy": 0.00615,
				"method": "rhf"
			},
			{
				"type": "unocc",
				"energy": 0.01629,
				"method": "rhf"
			},
			{
				"type": "unocc",
				"energy": 0.05483,
				"method": "rhf"
			}
		],
		"cosmo_sigma_profile": { 
			"-0.025": 0.0,
			"-0.024": 0.0,
			"-0.023": 0.0,
			"-0.022": 0.0,
			"-0.021": 0.0,
			"-0.02": 0.0,
			"-0.019": 0.0,
			"-0.018": 0.0,
			"-0.017": 0.0,
			"-0.016": 0.541512972999,
			"-0.015": 1.27605834396,
			"-0.014": 0.91623460089,
			"-0.013": 0.898239795169,
			"-0.012": 1.78703846711,
			"-0.011": 0.97110074303,
			"-0.01": 1.72718611473,
			"-0.009": 1.89422496084,
			"-0.008": 3.87152381281,
			"-0.007": 10.9627139072,
			"-0.006": 12.4203898912,
			"-0.005": 17.9224026478,
			"-0.004": 26.5287214738,
			"-0.003": 23.3461721802,
			"-0.002": 22.294422207,
			"-0.001": 18.1532120745,
			"0.0": 20.9114099082,
			"0.001": 23.3848122791,
			"0.002": 25.6020382067,
			"0.003": 21.308565608,
			"0.004": 16.1096613597,
			"0.005": 11.9410935121,
			"0.006": 3.4065982241,
			"0.007": 3.31560191045,
			"0.008": 4.72779339439,
			"0.009": 3.9285246206,
			"0.01": 4.76000800013,
			"0.011": 2.59869969203,
			"0.012": 2.71035943738,
			"0.013": 5.02333247756,
			"0.014": 4.94808119477,
			"0.015": 0.273721974415,
			"0.016": 0.0,
			"0.017": 0.0,
			"0.018": 0.0,
			"0.019": 0.0,
			"0.02": 0.0,
			"0.021": 0.0,
			"0.022": 0.0,
			"0.023": 0.0,
			"0.024": 0.0,
			"0.025": 0.0
		}
	}
}
