{
	 "smiles": "CC1=CC(=CC(C)=C1S(=O)(=O)N1CCNCC1)C(C)(C)C", 
	 "Tm": 398.15, 
	 "num_atms": 47, 
	 "gaussian": { 
		 "optdone": 1, 
		 "sigma_profile": "yes", 
		 "theory": "DFT", 
		 "functional": "B3LYP", 
		 "basiset": "6-31G**", 
		 "properties": { 
			 "R2extent": 8230.5534, 
			 "electric_dipole_moment_norm": 4.0659161649, 
			 "electric_quadrupole_moment_norm": 13.3216086371, 
			 "total_energy": -1283.4434579, 
			 "HOMO_LUMO_gap": 0.19005, 
			 "cosmo_polarized_energy": -13.89, 
			 "cosmo_cavitation_energy": 45.74, 
			 "cosmo_dispersion_energy": -31.87, 
			 "cosmo_repulsion_energy": 2.38, 
			 "cosmo_total_nonelectrostatic_energy": 16.26, 
			 "SMD_solvation_energy": 4.24 
		},
		"coords": [
			{
				"x": -2.4350902611,
				"y": -0.253494348,
				"z": -1.5645264301,
				"element": "C" 
			},
			{
				"x": -0.9940032382,
				"y": 0.0489228239,
				"z": -1.2064889151,
				"element": "C" 
			},
			{
				"x": -0.2999481534,
				"y": 0.9056770242,
				"z": -2.0691179046,
				"element": "C" 
			},
			{
				"x": 1.0370217826,
				"y": 1.2719727226,
				"z": -1.8845133922,
				"element": "C" 
			},
			{
				"x": 1.6915422213,
				"y": 0.739715718,
				"z": -0.7721258669,
				"element": "C" 
			},
			{
				"x": 1.0654220182,
				"y": -0.1240747812,
				"z": 0.1348286425,
				"element": "C" 
			},
			{
				"x": 1.8897841065,
				"y": -0.6329327787,
				"z": 1.2960683765,
				"element": "C" 
			},
			{
				"x": -0.2908229827,
				"y": -0.4610824894,
				"z": -0.0873538223,
				"element": "C" 
			},
			{
				"x": -1.0795753335,
				"y": -1.6106431191,
				"z": 1.0699627969,
				"element": "S" 
			},
			{
				"x": -2.466510001,
				"y": -1.8567594999,
				"z": 0.6465975897,
				"element": "O" 
			},
			{
				"x": -0.200412531,
				"y": -2.7674226375,
				"z": 1.2874845702,
				"element": "O" 
			},
			{
				"x": -1.0630474128,
				"y": -0.7095185154,
				"z": 2.5124060514,
				"element": "N" 
			},
			{
				"x": -0.9214066882,
				"y": -1.4856314194,
				"z": 3.7706147407,
				"element": "C" 
			},
			{
				"x": -2.2284120215,
				"y": -1.5291022199,
				"z": 4.5586322685,
				"element": "C" 
			},
			{
				"x": -2.6329762538,
				"y": -0.1635366551,
				"z": 4.9422072486,
				"element": "N" 
			},
			{
				"x": -2.1770214544,
				"y": 0.8732785295,
				"z": 4.0076234896,
				"element": "C" 
			},
			{
				"x": -2.0607699866,
				"y": 0.3852243677,
				"z": 2.5590188196,
				"element": "C" 
			},
			{
				"x": 1.7218895955,
				"y": 2.2188281139,
				"z": -2.8859380306,
				"element": "C" 
			},
			{
				"x": 3.1896234054,
				"y": 2.5036142633,
				"z": -2.5147307008,
				"element": "C" 
			},
			{
				"x": 1.6950748011,
				"y": 1.5795775963,
				"z": -4.2950342877,
				"element": "C" 
			},
			{
				"x": 0.9615492206,
				"y": 3.5663479817,
				"z": -2.9184976151,
				"element": "C" 
			},
			{
				"x": -3.1283041723,
				"y": 0.0369815347,
				"z": -0.7722354884,
				"element": "H" 
			},
			{
				"x": -2.5987957097,
				"y": -1.3196929201,
				"z": -1.7322301404,
				"element": "H" 
			},
			{
				"x": -2.7013478783,
				"y": 0.2893649923,
				"z": -2.4751628857,
				"element": "H" 
			},
			{
				"x": -0.844598593,
				"y": 1.2939346589,
				"z": -2.9242650411,
				"element": "H" 
			},
			{
				"x": 2.7292283476,
				"y": 0.9879817869,
				"z": -0.5831762022,
				"element": "H" 
			},
			{
				"x": 1.4438580851,
				"y": -0.3423854362,
				"z": 2.2514943849,
				"element": "H" 
			},
			{
				"x": 2.8998366755,
				"y": -0.219626317,
				"z": 1.2449849645,
				"element": "H" 
			},
			{
				"x": 1.9520988244,
				"y": -1.7230199141,
				"z": 1.2930389638,
				"element": "H" 
			},
			{
				"x": -0.5822047958,
				"y": -2.4915473088,
				"z": 3.5218907998,
				"element": "H" 
			},
			{
				"x": -0.1375445308,
				"y": -1.0158010348,
				"z": 4.3770346315,
				"element": "H" 
			},
			{
				"x": -2.0824833407,
				"y": -2.1353003881,
				"z": 5.4622314196,
				"element": "H" 
			},
			{
				"x": -2.9844263722,
				"y": -2.0416124641,
				"z": 3.9430135513,
				"element": "H" 
			},
			{
				"x": -3.6426452137,
				"y": -0.1238808978,
				"z": 5.0302235067,
				"element": "H" 
			},
			{
				"x": -1.200372616,
				"y": 1.2586295703,
				"z": 4.3293031423,
				"element": "H" 
			},
			{
				"x": -2.8716429007,
				"y": 1.7178087487,
				"z": 4.0480208166,
				"element": "H" 
			},
			{
				"x": -3.0414274192,
				"y": 0.040248045,
				"z": 2.204759236,
				"element": "H" 
			},
			{
				"x": -1.7280511113,
				"y": 1.1971766818,
				"z": 1.9018998756,
				"element": "H" 
			},
			{
				"x": 3.2774448442,
				"y": 2.9851538137,
				"z": -1.5352723571,
				"element": "H" 
			},
			{
				"x": 3.7926258326,
				"y": 1.589849928,
				"z": -2.5031996734,
				"element": "H" 
			},
			{
				"x": 3.6306377038,
				"y": 3.1794832329,
				"z": -3.2543403746,
				"element": "H" 
			},
			{
				"x": 2.2297067569,
				"y": 0.6241943669,
				"z": -4.3023506457,
				"element": "H" 
			},
			{
				"x": 0.673833881,
				"y": 1.3933680002,
				"z": -4.6397327621,
				"element": "H" 
			},
			{
				"x": 2.1762448159,
				"y": 2.2439933766,
				"z": -5.0213975356,
				"element": "H" 
			},
			{
				"x": 0.9695253383,
				"y": 4.0451991354,
				"z": -1.9337821954,
				"element": "H" 
			},
			{
				"x": -0.0822352734,
				"y": 3.4393453449,
				"z": -3.2200551927,
				"element": "H" 
			},
			{
				"x": 1.4337279888,
				"y": 4.2504927863,
				"z": -3.6323124269,
				"element": "H" 
			}
		],
		 "valence_orbital": [ 
			{
				"type": "occ",
				"energy": -0.28682,
				"method": "rhf"
			},
			{
				"type": "occ",
				"energy": -0.2548,
				"method": "rhf"
			},
			{
				"type": "occ",
				"energy": -0.24419,
				"method": "rhf"
			},
			{
				"type": "occ",
				"energy": -0.2396,
				"method": "rhf"
			},
			{
				"type": "occ",
				"energy": -0.22072,
				"method": "rhf"
			},
			{
				"type": "unocc",
				"energy": -0.03067,
				"method": "rhf"
			},
			{
				"type": "unocc",
				"energy": -0.00455,
				"method": "rhf"
			},
			{
				"type": "unocc",
				"energy": 0.06333,
				"method": "rhf"
			},
			{
				"type": "unocc",
				"energy": 0.06691,
				"method": "rhf"
			},
			{
				"type": "unocc",
				"energy": 0.07945,
				"method": "rhf"
			}
		],
		"cosmo_sigma_profile": { 
			"-0.025": 0.0,
			"-0.024": 0.0,
			"-0.023": 0.0,
			"-0.022": 0.0,
			"-0.021": 0.0,
			"-0.02": 0.0,
			"-0.019": 0.0,
			"-0.018": 0.0,
			"-0.017": 0.0,
			"-0.016": 0.0,
			"-0.015": 0.0,
			"-0.014": 0.0,
			"-0.013": 0.0,
			"-0.012": 0.0,
			"-0.011": 0.243943900463,
			"-0.01": 1.52592997897,
			"-0.009": 0.902959280666,
			"-0.008": 1.80451335574,
			"-0.007": 2.0565862776,
			"-0.006": 4.91167850117,
			"-0.005": 14.0546259827,
			"-0.004": 26.9841179662,
			"-0.003": 48.1290739056,
			"-0.002": 53.280133009,
			"-0.001": 37.8709478992,
			"0.0": 39.8905150019,
			"0.001": 38.5772574048,
			"0.002": 17.5288936675,
			"0.003": 14.2395988775,
			"0.004": 12.9800880451,
			"0.005": 5.36782948052,
			"0.006": 3.96107104425,
			"0.007": 3.25558375509,
			"0.008": 3.26208768114,
			"0.009": 3.40309408957,
			"0.01": 5.88901430807,
			"0.011": 5.76686103986,
			"0.012": 5.96970868641,
			"0.013": 1.35744720014,
			"0.014": 0.528731853843,
			"0.015": 0.537226019235,
			"0.016": 0.542430015901,
			"0.017": 0.515627167838,
			"0.018": 0.430154104847,
			"0.019": 0.0259946751722,
			"0.02": 0.0,
			"0.021": 0.0,
			"0.022": 0.0,
			"0.023": 0.0,
			"0.024": 0.0,
			"0.025": 0.0
		}
	}
}
