{
	 "smiles": "ClC1=C(Cl)C=C(C=C1)N=[N+]=[N-]", 
	 "Tm": 306.15, 
	 "num_atms": 14, 
	 "gaussian": { 
		 "optdone": 1, 
		 "sigma_profile": "yes", 
		 "theory": "DFT", 
		 "functional": "B3LYP", 
		 "basiset": "6-31G**", 
		 "properties": { 
			 "R2extent": 3040.5603, 
			 "electric_dipole_moment_norm": 1.40552754864, 
			 "electric_quadrupole_moment_norm": 8.98146389126, 
			 "total_energy": -1315.01178448, 
			 "HOMO_LUMO_gap": 0.18671, 
			 "cosmo_polarized_energy": -5.6, 
			 "cosmo_cavitation_energy": 23.77, 
			 "cosmo_dispersion_energy": -17.43, 
			 "cosmo_repulsion_energy": 1.41, 
			 "cosmo_total_nonelectrostatic_energy": 7.74, 
			 "SMD_solvation_energy": 1.71 
		},
		"coords": [
			{
				"x": -3.4180887679,
				"y": 1.3257533814,
				"z": -1.3808656488,
				"element": "Cl" 
			},
			{
				"x": -1.9333105564,
				"y": 0.800850198,
				"z": -0.6306207064,
				"element": "C" 
			},
			{
				"x": -1.6319951125,
				"y": 1.1089526303,
				"z": 0.7045190182,
				"element": "C" 
			},
			{
				"x": -2.7298815512,
				"y": 2.0372630962,
				"z": 1.693181397,
				"element": "Cl" 
			},
			{
				"x": -0.4367260092,
				"y": 0.6728142829,
				"z": 1.2713882866,
				"element": "C" 
			},
			{
				"x": 0.4688830368,
				"y": -0.0740731028,
				"z": 0.5119881935,
				"element": "C" 
			},
			{
				"x": 0.1731341904,
				"y": -0.3846184849,
				"z": -0.8222637923,
				"element": "C" 
			},
			{
				"x": -1.0219314123,
				"y": 0.0538991532,
				"z": -1.381091716,
				"element": "C" 
			},
			{
				"x": 1.6533974972,
				"y": -0.4681456683,
				"z": 1.1803615146,
				"element": "N" 
			},
			{
				"x": 2.4893990836,
				"y": -1.1315126552,
				"z": 0.5515025343,
				"element": "N" 
			},
			{
				"x": 3.3396435663,
				"y": -1.7413493837,
				"z": 0.0978408286,
				"element": "N" 
			},
			{
				"x": -0.2033241999,
				"y": 0.9093766173,
				"z": 2.3024058559,
				"element": "H" 
			},
			{
				"x": 0.8673614855,
				"y": -0.9639229326,
				"z": -1.4228089548,
				"element": "H" 
			},
			{
				"x": -1.2594612503,
				"y": -0.181887132,
				"z": -2.4124368103,
				"element": "H" 
			}
		],
		 "valence_orbital": [ 
			{
				"type": "occ",
				"energy": -0.33217,
				"method": "rhf"
			},
			{
				"type": "occ",
				"energy": -0.31638,
				"method": "rhf"
			},
			{
				"type": "occ",
				"energy": -0.30892,
				"method": "rhf"
			},
			{
				"type": "occ",
				"energy": -0.27078,
				"method": "rhf"
			},
			{
				"type": "occ",
				"energy": -0.23958,
				"method": "rhf"
			},
			{
				"type": "unocc",
				"energy": -0.05287,
				"method": "rhf"
			},
			{
				"type": "unocc",
				"energy": -0.05207,
				"method": "rhf"
			},
			{
				"type": "unocc",
				"energy": -0.03565,
				"method": "rhf"
			},
			{
				"type": "unocc",
				"energy": -0.00303,
				"method": "rhf"
			},
			{
				"type": "unocc",
				"energy": 0.01817,
				"method": "rhf"
			}
		],
		"cosmo_sigma_profile": { 
			"-0.025": 0.0,
			"-0.024": 0.0,
			"-0.023": 0.0,
			"-0.022": 0.0,
			"-0.021": 0.0,
			"-0.02": 0.0,
			"-0.019": 0.0,
			"-0.018": 0.0,
			"-0.017": 0.0,
			"-0.016": 0.0,
			"-0.015": 0.0,
			"-0.014": 0.0,
			"-0.013": 0.0,
			"-0.012": 0.0,
			"-0.011": 0.0,
			"-0.01": 0.0,
			"-0.009": 1.22212999933,
			"-0.008": 8.11208027079,
			"-0.007": 7.32708544166,
			"-0.006": 5.5600149376,
			"-0.005": 8.09065256439,
			"-0.004": 9.08570979162,
			"-0.003": 9.59863535342,
			"-0.002": 11.7898882102,
			"-0.001": 11.9977998757,
			"0.0": 23.1986212764,
			"0.001": 28.4678278165,
			"0.002": 17.0152966296,
			"0.003": 19.278816383,
			"0.004": 19.591921675,
			"0.005": 8.52193971392,
			"0.006": 4.88162356888,
			"0.007": 2.64662316566,
			"0.008": 0.967234383564,
			"0.009": 0.144294058628,
			"0.01": 0.0,
			"0.011": 0.0,
			"0.012": 0.0,
			"0.013": 0.0,
			"0.014": 0.0,
			"0.015": 0.0,
			"0.016": 0.0,
			"0.017": 0.0,
			"0.018": 0.0,
			"0.019": 0.0,
			"0.02": 0.0,
			"0.021": 0.0,
			"0.022": 0.0,
			"0.023": 0.0,
			"0.024": 0.0,
			"0.025": 0.0
		}
	}
}
