{
	 "smiles": "NC1=CC(C#N)=C(C=C1)N1CCC(O)CC1", 
	 "Tm": 411.15, 
	 "num_atms": 31, 
	 "gaussian": { 
		 "optdone": 1, 
		 "sigma_profile": "yes", 
		 "theory": "DFT", 
		 "functional": "B3LYP", 
		 "basiset": "6-31G**", 
		 "properties": { 
			 "R2extent": 4366.0008, 
			 "electric_dipole_moment_norm": 3.82995249187, 
			 "electric_quadrupole_moment_norm": 25.4843775241, 
			 "total_energy": -705.763923693, 
			 "HOMO_LUMO_gap": 0.14734, 
			 "cosmo_polarized_energy": -18.7, 
			 "cosmo_cavitation_energy": 33.26, 
			 "cosmo_dispersion_energy": -23.69, 
			 "cosmo_repulsion_energy": 1.84, 
			 "cosmo_total_nonelectrostatic_energy": 11.41, 
			 "SMD_solvation_energy": 5.29 
		},
		"coords": [
			{
				"x": -1.3406728656,
				"y": -3.7674123641,
				"z": 1.3832612634,
				"element": "N" 
			},
			{
				"x": -0.6878938831,
				"y": -2.6335784826,
				"z": 0.8794002217,
				"element": "C" 
			},
			{
				"x": 0.6317892571,
				"y": -2.33964024,
				"z": 1.2193206974,
				"element": "C" 
			},
			{
				"x": 1.2683185459,
				"y": -1.1714149807,
				"z": 0.7568733875,
				"element": "C" 
			},
			{
				"x": 2.662922364,
				"y": -1.0356267789,
				"z": 1.0481832287,
				"element": "C" 
			},
			{
				"x": 3.8027915049,
				"y": -0.9677651539,
				"z": 1.2785594503,
				"element": "N" 
			},
			{
				"x": 0.575840119,
				"y": -0.2180503433,
				"z": -0.0399640761,
				"element": "C" 
			},
			{
				"x": -0.7540609361,
				"y": -0.5468194249,
				"z": -0.3804804285,
				"element": "C" 
			},
			{
				"x": -1.3626050281,
				"y": -1.7152800765,
				"z": 0.0547641998,
				"element": "C" 
			},
			{
				"x": 1.185629142,
				"y": 0.9553454585,
				"z": -0.4799273335,
				"element": "N" 
			},
			{
				"x": 2.0168723639,
				"y": 1.7666283246,
				"z": 0.4297142413,
				"element": "C" 
			},
			{
				"x": 1.6775291952,
				"y": 3.2681531109,
				"z": 0.3090337174,
				"element": "C" 
			},
			{
				"x": 0.1709478098,
				"y": 3.4754747978,
				"z": 0.1187620853,
				"element": "C" 
			},
			{
				"x": -0.1945275432,
				"y": 4.8514739113,
				"z": 0.0834426644,
				"element": "O" 
			},
			{
				"x": -0.2817849435,
				"y": 2.8544687094,
				"z": -1.2149872112,
				"element": "C" 
			},
			{
				"x": 0.6535971121,
				"y": 1.6939761437,
				"z": -1.6221798063,
				"element": "C" 
			},
			{
				"x": -0.7203050531,
				"y": -4.5155557299,
				"z": 1.6639605549,
				"element": "H" 
			},
			{
				"x": -2.0830761115,
				"y": -4.1176787151,
				"z": 0.7922571433,
				"element": "H" 
			},
			{
				"x": 1.2035779699,
				"y": -3.0294412606,
				"z": 1.8332170721,
				"element": "H" 
			},
			{
				"x": -1.3365044312,
				"y": 0.1428935592,
				"z": -0.9800291063,
				"element": "H" 
			},
			{
				"x": -2.3953395236,
				"y": -1.9088776254,
				"z": -0.2255004846,
				"element": "H" 
			},
			{
				"x": 3.0863880501,
				"y": 1.6082339989,
				"z": 0.2470400705,
				"element": "H" 
			},
			{
				"x": 1.8191388737,
				"y": 1.4348058017,
				"z": 1.4539141314,
				"element": "H" 
			},
			{
				"x": 2.207213974,
				"y": 3.7310770149,
				"z": -0.5318625757,
				"element": "H" 
			},
			{
				"x": 2.0259115857,
				"y": 3.7780111977,
				"z": 1.215563991,
				"element": "H" 
			},
			{
				"x": -0.3509679808,
				"y": 2.9667286707,
				"z": 0.9464853506,
				"element": "H" 
			},
			{
				"x": 0.0050573103,
				"y": 5.2355664737,
				"z": 0.9472768279,
				"element": "H" 
			},
			{
				"x": -0.2466136868,
				"y": 3.6395935592,
				"z": -1.9785151655,
				"element": "H" 
			},
			{
				"x": -1.3238784964,
				"y": 2.527293847,
				"z": -1.1383207403,
				"element": "H" 
			},
			{
				"x": 1.5104365114,
				"y": 2.0997930128,
				"z": -2.1747818065,
				"element": "H" 
			},
			{
				"x": 0.1615687938,
				"y": 0.996923584,
				"z": -2.3033815645,
				"element": "H" 
			}
		],
		 "valence_orbital": [ 
			{
				"type": "occ",
				"energy": -0.31082,
				"method": "rhf"
			},
			{
				"type": "occ",
				"energy": -0.27058,
				"method": "rhf"
			},
			{
				"type": "occ",
				"energy": -0.25368,
				"method": "rhf"
			},
			{
				"type": "occ",
				"energy": -0.24787,
				"method": "rhf"
			},
			{
				"type": "occ",
				"energy": -0.18313,
				"method": "rhf"
			},
			{
				"type": "unocc",
				"energy": -0.03579,
				"method": "rhf"
			},
			{
				"type": "unocc",
				"energy": 0.00919,
				"method": "rhf"
			},
			{
				"type": "unocc",
				"energy": 0.04641,
				"method": "rhf"
			},
			{
				"type": "unocc",
				"energy": 0.068,
				"method": "rhf"
			},
			{
				"type": "unocc",
				"energy": 0.07286,
				"method": "rhf"
			}
		],
		"cosmo_sigma_profile": { 
			"-0.025": 0.0,
			"-0.024": 0.0,
			"-0.023": 0.0,
			"-0.022": 0.0,
			"-0.021": 0.0,
			"-0.02": 0.0,
			"-0.019": 0.0,
			"-0.018": 0.0,
			"-0.017": 0.0,
			"-0.016": 0.12887730048,
			"-0.015": 0.740383581022,
			"-0.014": 1.00582502831,
			"-0.013": 1.37521677967,
			"-0.012": 3.15993261446,
			"-0.011": 4.31711364785,
			"-0.01": 3.59944175244,
			"-0.009": 4.9819462873,
			"-0.008": 4.34100962979,
			"-0.007": 6.48635788916,
			"-0.006": 9.21799078852,
			"-0.005": 12.4093263667,
			"-0.004": 21.5279411605,
			"-0.003": 26.6722407674,
			"-0.002": 23.032596724,
			"-0.001": 17.354621759,
			"0.0": 13.337401086,
			"0.001": 12.6255975596,
			"0.002": 10.5145690747,
			"0.003": 13.191177094,
			"0.004": 15.2681258649,
			"0.005": 12.5542694998,
			"0.006": 4.85879119137,
			"0.007": 5.26116431071,
			"0.008": 3.8822886886,
			"0.009": 5.41177414656,
			"0.01": 4.91095407046,
			"0.011": 4.90068851431,
			"0.012": 4.61028024925,
			"0.013": 4.89912313099,
			"0.014": 4.05225885128,
			"0.015": 0.73501803977,
			"0.016": 0.0367894750389,
			"0.017": 0.0,
			"0.018": 0.0,
			"0.019": 0.0,
			"0.02": 0.0,
			"0.021": 0.0,
			"0.022": 0.0,
			"0.023": 0.0,
			"0.024": 0.0,
			"0.025": 0.0
		}
	}
}
