{
	 "smiles": "NC1=NC=C(CC2=C(Cl)C(Cl)=CC=C2)S1", 
	 "Tm": 414.15, 
	 "num_atms": 23, 
	 "gaussian": { 
		 "optdone": 1, 
		 "sigma_profile": "yes", 
		 "theory": "DFT", 
		 "functional": "B3LYP", 
		 "basiset": "6-31G**", 
		 "properties": { 
			 "R2extent": 6231.8055, 
			 "electric_dipole_moment_norm": 3.11928409896, 
			 "electric_quadrupole_moment_norm": 14.743461034, 
			 "total_energy": -1813.95390036, 
			 "HOMO_LUMO_gap": 0.18165, 
			 "cosmo_polarized_energy": -13.11, 
			 "cosmo_cavitation_energy": 32.44, 
			 "cosmo_dispersion_energy": -23.83, 
			 "cosmo_repulsion_energy": 1.83, 
			 "cosmo_total_nonelectrostatic_energy": 10.44, 
			 "SMD_solvation_energy": 2.78 
		},
		"coords": [
			{
				"x": -3.5980814251,
				"y": -2.0774973824,
				"z": -2.6993660507,
				"element": "N" 
			},
			{
				"x": -2.8027964156,
				"y": -1.0339216378,
				"z": -2.2776144374,
				"element": "C" 
			},
			{
				"x": -2.915188883,
				"y": 0.188041808,
				"z": -2.7101589698,
				"element": "N" 
			},
			{
				"x": -2.0324601962,
				"y": 1.0149074463,
				"z": -2.0476661398,
				"element": "C" 
			},
			{
				"x": -1.2235898589,
				"y": 0.4548035858,
				"z": -1.1062671591,
				"element": "C" 
			},
			{
				"x": -0.1929606774,
				"y": 1.114828644,
				"z": -0.2308570727,
				"element": "C" 
			},
			{
				"x": 1.2176708273,
				"y": 0.5679057643,
				"z": -0.387708318,
				"element": "C" 
			},
			{
				"x": 2.0628829877,
				"y": 0.9512274292,
				"z": -1.4448329856,
				"element": "C" 
			},
			{
				"x": 1.5125181622,
				"y": 2.1301081915,
				"z": -2.6152196698,
				"element": "Cl" 
			},
			{
				"x": 3.3499313954,
				"y": 0.4041274751,
				"z": -1.5575912303,
				"element": "C" 
			},
			{
				"x": 4.425015467,
				"y": 0.8672174413,
				"z": -2.85707649,
				"element": "Cl" 
			},
			{
				"x": 3.8058063968,
				"y": -0.5278274985,
				"z": -0.62400671,
				"element": "C" 
			},
			{
				"x": 2.9778915686,
				"y": -0.9081301997,
				"z": 0.4274945944,
				"element": "C" 
			},
			{
				"x": 1.7018907712,
				"y": -0.3606704777,
				"z": 0.5411172919,
				"element": "C" 
			},
			{
				"x": -1.5926299,
				"y": -1.2696392367,
				"z": -1.0070127029,
				"element": "S" 
			},
			{
				"x": -3.1749360708,
				"y": -2.9948946523,
				"z": -2.7078374028,
				"element": "H" 
			},
			{
				"x": -4.1046843728,
				"y": -1.856845348,
				"z": -3.5475169019,
				"element": "H" 
			},
			{
				"x": -2.0071830084,
				"y": 2.0674566835,
				"z": -2.3084403358,
				"element": "H" 
			},
			{
				"x": -0.2092642123,
				"y": 2.1847147957,
				"z": -0.4596532465,
				"element": "H" 
			},
			{
				"x": -0.4763247339,
				"y": 1.0145687519,
				"z": 0.8241802203,
				"element": "H" 
			},
			{
				"x": 4.8034257053,
				"y": -0.9383138693,
				"z": -0.7310134844,
				"element": "H" 
			},
			{
				"x": 3.3313294808,
				"y": -1.6278356493,
				"z": 1.1591223115,
				"element": "H" 
			},
			{
				"x": 1.060036992,
				"y": -0.6532320648,
				"z": 1.3674248892,
				"element": "H" 
			}
		],
		 "valence_orbital": [ 
			{
				"type": "occ",
				"energy": -0.27388,
				"method": "rhf"
			},
			{
				"type": "occ",
				"energy": -0.27132,
				"method": "rhf"
			},
			{
				"type": "occ",
				"energy": -0.2554,
				"method": "rhf"
			},
			{
				"type": "occ",
				"energy": -0.25001,
				"method": "rhf"
			},
			{
				"type": "occ",
				"energy": -0.20755,
				"method": "rhf"
			},
			{
				"type": "unocc",
				"energy": -0.0259,
				"method": "rhf"
			},
			{
				"type": "unocc",
				"energy": -0.02511,
				"method": "rhf"
			},
			{
				"type": "unocc",
				"energy": -0.00533,
				"method": "rhf"
			},
			{
				"type": "unocc",
				"energy": 0.00574,
				"method": "rhf"
			},
			{
				"type": "unocc",
				"energy": 0.01414,
				"method": "rhf"
			}
		],
		"cosmo_sigma_profile": { 
			"-0.025": 0.0,
			"-0.024": 0.0,
			"-0.023": 0.0,
			"-0.022": 0.0,
			"-0.021": 0.0,
			"-0.02": 0.0,
			"-0.019": 0.0,
			"-0.018": 0.0,
			"-0.017": 0.0,
			"-0.016": 0.0,
			"-0.015": 0.232528802003,
			"-0.014": 1.496119784,
			"-0.013": 2.70728453796,
			"-0.012": 2.78129960007,
			"-0.011": 2.49472568674,
			"-0.01": 2.39037396679,
			"-0.009": 2.55273284609,
			"-0.008": 3.01339740292,
			"-0.007": 9.60722056345,
			"-0.006": 12.0119925255,
			"-0.005": 13.3773678824,
			"-0.004": 12.0137738294,
			"-0.003": 13.0454060047,
			"-0.002": 15.0628473377,
			"-0.001": 13.8820414251,
			"0.0": 18.6908008179,
			"0.001": 23.9728778675,
			"0.002": 27.5615031179,
			"0.003": 29.8480725529,
			"0.004": 24.468215819,
			"0.005": 15.2546686919,
			"0.006": 4.4492193536,
			"0.007": 2.09818833159,
			"0.008": 2.60601008694,
			"0.009": 1.73985209127,
			"0.01": 1.78041616634,
			"0.011": 1.84343626117,
			"0.012": 1.5667606694,
			"0.013": 0.638818369253,
			"0.014": 1.32607137474,
			"0.015": 1.07449094693,
			"0.016": 0.342253516753,
			"0.017": 0.0,
			"0.018": 0.0,
			"0.019": 0.0,
			"0.02": 0.0,
			"0.021": 0.0,
			"0.022": 0.0,
			"0.023": 0.0,
			"0.024": 0.0,
			"0.025": 0.0
		}
	}
}
