{
	 "smiles": "CC(O)CC1=C(C=CC=C1)S(C)(=O)=O", 
	 "Tm": 329.15, 
	 "num_atms": 28, 
	 "gaussian": { 
		 "optdone": 1, 
		 "sigma_profile": "yes", 
		 "theory": "DFT", 
		 "functional": "B3LYP", 
		 "basiset": "6-31G**", 
		 "properties": { 
			 "R2extent": 3296.6618, 
			 "electric_dipole_moment_norm": 4.3729176633, 
			 "electric_quadrupole_moment_norm": 16.3622366277, 
			 "total_energy": -1013.29953354, 
			 "HOMO_LUMO_gap": 0.21421, 
			 "cosmo_polarized_energy": -16.6, 
			 "cosmo_cavitation_energy": 31.24, 
			 "cosmo_dispersion_energy": -22.6, 
			 "cosmo_repulsion_energy": 1.73, 
			 "cosmo_total_nonelectrostatic_energy": 10.37, 
			 "SMD_solvation_energy": 5.03 
		},
		"coords": [
			{
				"x": -1.3656295041,
				"y": -2.206308546,
				"z": 2.2127477674,
				"element": "C" 
			},
			{
				"x": -0.9364882038,
				"y": -1.5761773725,
				"z": 0.894065942,
				"element": "C" 
			},
			{
				"x": -0.6761370932,
				"y": -2.6494004838,
				"z": -0.0101649344,
				"element": "O" 
			},
			{
				"x": 0.3193137957,
				"y": -0.6839213022,
				"z": 1.0834337274,
				"element": "C" 
			},
			{
				"x": 0.794620444,
				"y": -0.0556783407,
				"z": -0.2092229251,
				"element": "C" 
			},
			{
				"x": 0.4366963814,
				"y": 1.2280535858,
				"z": -0.6728803807,
				"element": "C" 
			},
			{
				"x": 0.867830476,
				"y": 1.711711794,
				"z": -1.9125456768,
				"element": "C" 
			},
			{
				"x": 1.6734399491,
				"y": 0.9208310155,
				"z": -2.7287685884,
				"element": "C" 
			},
			{
				"x": 2.0481597031,
				"y": -0.3499809694,
				"z": -2.2934846559,
				"element": "C" 
			},
			{
				"x": 1.6137681338,
				"y": -0.8235245971,
				"z": -1.0556724853,
				"element": "C" 
			},
			{
				"x": -0.5998804761,
				"y": 2.3669270475,
				"z": 0.2822080083,
				"element": "S" 
			},
			{
				"x": 0.5187281882,
				"y": 3.0140590154,
				"z": 1.5488312299,
				"element": "C" 
			},
			{
				"x": -0.9492591905,
				"y": 3.4930332663,
				"z": -0.5983940984,
				"element": "O" 
			},
			{
				"x": -1.661750174,
				"y": 1.6075894153,
				"z": 0.9654930282,
				"element": "O" 
			},
			{
				"x": -0.564819037,
				"y": -2.8354175388,
				"z": 2.6162193271,
				"element": "H" 
			},
			{
				"x": -2.2456792403,
				"y": -2.8355057689,
				"z": 2.0561253539,
				"element": "H" 
			},
			{
				"x": -1.6138776467,
				"y": -1.4350192328,
				"z": 2.9477163691,
				"element": "H" 
			},
			{
				"x": -1.7470432977,
				"y": -0.9397934374,
				"z": 0.5156305006,
				"element": "H" 
			},
			{
				"x": -0.6083419754,
				"y": -2.2782089044,
				"z": -0.8992824636,
				"element": "H" 
			},
			{
				"x": 0.0814915747,
				"y": 0.0669291841,
				"z": 1.8381158669,
				"element": "H" 
			},
			{
				"x": 1.1198236232,
				"y": -1.3189279479,
				"z": 1.4798376959,
				"element": "H" 
			},
			{
				"x": 0.5530485971,
				"y": 2.7013011797,
				"z": -2.2246941851,
				"element": "H" 
			},
			{
				"x": 2.0043544107,
				"y": 1.2959177859,
				"z": -3.6921753471,
				"element": "H" 
			},
			{
				"x": 2.6807125619,
				"y": -0.9763272464,
				"z": -2.9160035554,
				"element": "H" 
			},
			{
				"x": 1.9059980548,
				"y": -1.8154201196,
				"z": -0.7243461728,
				"element": "H" 
			},
			{
				"x": 0.8992048111,
				"y": 2.1962574638,
				"z": 2.16192768,
				"element": "H" 
			},
			{
				"x": -0.076205794,
				"y": 3.6992233827,
				"z": 2.1563729198,
				"element": "H" 
			},
			{
				"x": 1.332720928,
				"y": 3.5489776721,
				"z": 1.0580100527,
				"element": "H" 
			}
		],
		 "valence_orbital": [ 
			{
				"type": "occ",
				"energy": -0.29724,
				"method": "rhf"
			},
			{
				"type": "occ",
				"energy": -0.29017,
				"method": "rhf"
			},
			{
				"type": "occ",
				"energy": -0.27965,
				"method": "rhf"
			},
			{
				"type": "occ",
				"energy": -0.272,
				"method": "rhf"
			},
			{
				"type": "occ",
				"energy": -0.25693,
				"method": "rhf"
			},
			{
				"type": "unocc",
				"energy": -0.04272,
				"method": "rhf"
			},
			{
				"type": "unocc",
				"energy": -0.02496,
				"method": "rhf"
			},
			{
				"type": "unocc",
				"energy": 0.06214,
				"method": "rhf"
			},
			{
				"type": "unocc",
				"energy": 0.06925,
				"method": "rhf"
			},
			{
				"type": "unocc",
				"energy": 0.08636,
				"method": "rhf"
			}
		],
		"cosmo_sigma_profile": { 
			"-0.025": 0.0,
			"-0.024": 0.0,
			"-0.023": 0.0,
			"-0.022": 0.0,
			"-0.021": 0.0,
			"-0.02": 0.0,
			"-0.019": 0.0,
			"-0.018": 0.0,
			"-0.017": 0.0,
			"-0.016": 0.0,
			"-0.015": 0.0,
			"-0.014": 0.2140088129,
			"-0.013": 0.61381511945,
			"-0.012": 1.36130965797,
			"-0.011": 0.228469916236,
			"-0.01": 0.780777204518,
			"-0.009": 2.09730547198,
			"-0.008": 6.89325279688,
			"-0.007": 10.4495910136,
			"-0.006": 14.9918786832,
			"-0.005": 17.4319753313,
			"-0.004": 19.7787200431,
			"-0.003": 20.7533785569,
			"-0.002": 18.1999265077,
			"-0.001": 18.6484133521,
			"0.0": 16.9895952095,
			"0.001": 18.5875747987,
			"0.002": 12.6493266254,
			"0.003": 12.1894087048,
			"0.004": 6.86101205875,
			"0.005": 4.85896130514,
			"0.006": 2.5901591413,
			"0.007": 4.60386887929,
			"0.008": 3.16241272052,
			"0.009": 4.82111966232,
			"0.01": 5.18919004994,
			"0.011": 7.72000546167,
			"0.012": 8.92910886303,
			"0.013": 2.43254699199,
			"0.014": 2.01062838612,
			"0.015": 0.312953671564,
			"0.016": 0.0,
			"0.017": 0.0,
			"0.018": 0.0,
			"0.019": 0.0,
			"0.02": 0.0,
			"0.021": 0.0,
			"0.022": 0.0,
			"0.023": 0.0,
			"0.024": 0.0,
			"0.025": 0.0
		}
	}
}
