{
	 "smiles": "CN1N(C(=O)C(NN=C(C(=O)C2=CC=C(C=C2)[N+]([O-])=O)S(=O)(=O)C2=CC=CC=C2)=C1C)C1=CC=CC=C1", 
	 "Tm": 408.15, 
	 "num_atms": 58, 
	 "gaussian": { 
		 "optdone": 1, 
		 "sigma_profile": "yes", 
		 "theory": "DFT", 
		 "functional": "B3LYP", 
		 "basiset": "6-31G**", 
		 "properties": { 
			 "R2extent": 25077.6935, 
			 "electric_dipole_moment_norm": 4.31494071106, 
			 "electric_quadrupole_moment_norm": 52.6632835019, 
			 "total_energy": -2088.3705863, 
			 "HOMO_LUMO_gap": 0.11159, 
			 "cosmo_polarized_energy": -30.28, 
			 "cosmo_cavitation_energy": 65.41, 
			 "cosmo_dispersion_energy": -43.63, 
			 "cosmo_repulsion_energy": 3.2, 
			 "cosmo_total_nonelectrostatic_energy": 24.98, 
			 "SMD_solvation_energy": 13.15 
		},
		"coords": [
			{
				"x": 1.9316807384,
				"y": -3.6484333257,
				"z": -1.0090639389,
				"element": "C" 
			},
			{
				"x": 1.6158432168,
				"y": -2.4818176239,
				"z": -1.8508131808,
				"element": "N" 
			},
			{
				"x": 2.7163292768,
				"y": -1.6176459595,
				"z": -2.0480557994,
				"element": "N" 
			},
			{
				"x": 2.3080429242,
				"y": -0.2802899466,
				"z": -1.9152816339,
				"element": "C" 
			},
			{
				"x": 2.9830508437,
				"y": 0.7184297147,
				"z": -2.1285742516,
				"element": "O" 
			},
			{
				"x": 0.9050931858,
				"y": -0.3694953706,
				"z": -1.5199441126,
				"element": "C" 
			},
			{
				"x": 0.2005406616,
				"y": 0.8188779738,
				"z": -1.3555543572,
				"element": "N" 
			},
			{
				"x": -0.9533782066,
				"y": 0.8526944278,
				"z": -0.7454223607,
				"element": "N" 
			},
			{
				"x": -1.6950137912,
				"y": 1.9200036183,
				"z": -0.5918976382,
				"element": "C" 
			},
			{
				"x": -3.0159576547,
				"y": 1.7846697078,
				"z": 0.0500814712,
				"element": "C" 
			},
			{
				"x": -3.8473986567,
				"y": 2.6842707566,
				"z": -0.0414025896,
				"element": "O" 
			},
			{
				"x": -3.367745208,
				"y": 0.5397058157,
				"z": 0.8241293108,
				"element": "C" 
			},
			{
				"x": -2.4517906349,
				"y": -0.1709698394,
				"z": 1.6155764932,
				"element": "C" 
			},
			{
				"x": -2.870767048,
				"y": -1.2644660726,
				"z": 2.3686711899,
				"element": "C" 
			},
			{
				"x": -4.2097764258,
				"y": -1.6446873343,
				"z": 2.3106179256,
				"element": "C" 
			},
			{
				"x": -5.1450082265,
				"y": -0.9522166376,
				"z": 1.5430142472,
				"element": "C" 
			},
			{
				"x": -4.7167001191,
				"y": 0.1501470691,
				"z": 0.8121105447,
				"element": "C" 
			},
			{
				"x": -4.6508059,
				"y": -2.8142644486,
				"z": 3.0906282826,
				"element": "N" 
			},
			{
				"x": -5.8407565925,
				"y": -3.119905726,
				"z": 3.0359766813,
				"element": "O" 
			},
			{
				"x": -3.8001229292,
				"y": -3.4155500159,
				"z": 3.7461581819,
				"element": "O" 
			},
			{
				"x": -1.3051156992,
				"y": 3.5470568698,
				"z": -1.3330996018,
				"element": "S" 
			},
			{
				"x": 0.1538403762,
				"y": 3.4668930764,
				"z": -1.6107206282,
				"element": "O" 
			},
			{
				"x": -2.2382773591,
				"y": 3.8359905777,
				"z": -2.4266931574,
				"element": "O" 
			},
			{
				"x": -1.5095319994,
				"y": 4.7760728536,
				"z": -0.0399308762,
				"element": "C" 
			},
			{
				"x": -0.4220329724,
				"y": 5.0533566059,
				"z": 0.7924561824,
				"element": "C" 
			},
			{
				"x": -0.5603569133,
				"y": 6.0363809729,
				"z": 1.7721858891,
				"element": "C" 
			},
			{
				"x": -1.7669589255,
				"y": 6.7285115062,
				"z": 1.9022178962,
				"element": "C" 
			},
			{
				"x": -2.8403622688,
				"y": 6.4465542376,
				"z": 1.0530835622,
				"element": "C" 
			},
			{
				"x": -2.7196499771,
				"y": 5.4635189455,
				"z": 0.0715452746,
				"element": "C" 
			},
			{
				"x": 0.5301280288,
				"y": -1.6801429235,
				"z": -1.478463254,
				"element": "C" 
			},
			{
				"x": -0.776415204,
				"y": -2.3129877859,
				"z": -1.1267930764,
				"element": "C" 
			},
			{
				"x": 3.8158236116,
				"y": -2.050760842,
				"z": -2.8379353045,
				"element": "C" 
			},
			{
				"x": 5.049621298,
				"y": -1.4030257259,
				"z": -2.6918293771,
				"element": "C" 
			},
			{
				"x": 6.1324732542,
				"y": -1.8149519428,
				"z": -3.4664485158,
				"element": "C" 
			},
			{
				"x": 6.0049023322,
				"y": -2.8755981152,
				"z": -4.3660522313,
				"element": "C" 
			},
			{
				"x": 4.7730626057,
				"y": -3.516744111,
				"z": -4.5028406602,
				"element": "C" 
			},
			{
				"x": 3.6731329905,
				"y": -3.1034212181,
				"z": -3.7512861266,
				"element": "C" 
			},
			{
				"x": 1.0517103141,
				"y": -4.2909811145,
				"z": -0.9641101024,
				"element": "H" 
			},
			{
				"x": 2.2246022061,
				"y": -3.3480857163,
				"z": 0.0050345595,
				"element": "H" 
			},
			{
				"x": 2.745886655,
				"y": -4.2079389967,
				"z": -1.47001058,
				"element": "H" 
			},
			{
				"x": 0.638849943,
				"y": 1.6937280657,
				"z": -1.6759034369,
				"element": "H" 
			},
			{
				"x": -1.4143994944,
				"y": 0.1364607829,
				"z": 1.6533062284,
				"element": "H" 
			},
			{
				"x": -2.1866268899,
				"y": -1.8204646858,
				"z": 2.997299049,
				"element": "H" 
			},
			{
				"x": -6.177312283,
				"y": -1.278647133,
				"z": 1.5353975642,
				"element": "H" 
			},
			{
				"x": -5.420032978,
				"y": 0.7288564661,
				"z": 0.2237117288,
				"element": "H" 
			},
			{
				"x": 0.5146310181,
				"y": 4.5246475925,
				"z": 0.6544099868,
				"element": "H" 
			},
			{
				"x": 0.2755096565,
				"y": 6.2675370723,
				"z": 2.4253701802,
				"element": "H" 
			},
			{
				"x": -1.8692726685,
				"y": 7.4952788846,
				"z": 2.664698713,
				"element": "H" 
			},
			{
				"x": -3.7730156354,
				"y": 6.9930221249,
				"z": 1.1536185471,
				"element": "H" 
			},
			{
				"x": -3.5377851092,
				"y": 5.2224890988,
				"z": -0.5953228749,
				"element": "H" 
			},
			{
				"x": -0.9888053687,
				"y": -3.153813378,
				"z": -1.793798261,
				"element": "H" 
			},
			{
				"x": -1.5767549392,
				"y": -1.5779738972,
				"z": -1.2097979059,
				"element": "H" 
			},
			{
				"x": -0.7866269583,
				"y": -2.6867367019,
				"z": -0.0958045345,
				"element": "H" 
			},
			{
				"x": 5.1415855297,
				"y": -0.5786647341,
				"z": -1.9965697175,
				"element": "H" 
			},
			{
				"x": 7.0853093154,
				"y": -1.3055778883,
				"z": -3.3572806303,
				"element": "H" 
			},
			{
				"x": 6.8566806908,
				"y": -3.1963160895,
				"z": -4.9579028062,
				"element": "H" 
			},
			{
				"x": 4.6581285944,
				"y": -4.3346700133,
				"z": -5.2081171216,
				"element": "H" 
			},
			{
				"x": 2.7047957689,
				"y": -3.5738095037,
				"z": -3.8816790461,
				"element": "H" 
			}
		],
		 "valence_orbital": [ 
			{
				"type": "occ",
				"energy": -0.26862,
				"method": "rhf"
			},
			{
				"type": "occ",
				"energy": -0.26029,
				"method": "rhf"
			},
			{
				"type": "occ",
				"energy": -0.25924,
				"method": "rhf"
			},
			{
				"type": "occ",
				"energy": -0.23552,
				"method": "rhf"
			},
			{
				"type": "occ",
				"energy": -0.21807,
				"method": "rhf"
			},
			{
				"type": "unocc",
				"energy": -0.10648,
				"method": "rhf"
			},
			{
				"type": "unocc",
				"energy": -0.0823,
				"method": "rhf"
			},
			{
				"type": "unocc",
				"energy": -0.04336,
				"method": "rhf"
			},
			{
				"type": "unocc",
				"energy": -0.03584,
				"method": "rhf"
			},
			{
				"type": "unocc",
				"energy": -0.03385,
				"method": "rhf"
			}
		],
		"cosmo_sigma_profile": { 
			"-0.025": 0.0,
			"-0.024": 0.0,
			"-0.023": 0.0,
			"-0.022": 0.0,
			"-0.021": 0.0,
			"-0.02": 0.0,
			"-0.019": 0.0,
			"-0.018": 0.0,
			"-0.017": 0.0,
			"-0.016": 0.0,
			"-0.015": 0.0,
			"-0.014": 0.0,
			"-0.013": 0.0,
			"-0.012": 0.0,
			"-0.011": 0.0,
			"-0.01": 0.0,
			"-0.009": 0.0658900595096,
			"-0.008": 2.74926816584,
			"-0.007": 19.2449726677,
			"-0.006": 39.3777934012,
			"-0.005": 44.4136677272,
			"-0.004": 45.3469708028,
			"-0.003": 44.4647176128,
			"-0.002": 42.2274854732,
			"-0.001": 43.9137099317,
			"0.0": 39.0108816479,
			"0.001": 31.6965417994,
			"0.002": 28.4645270319,
			"0.003": 25.8279302167,
			"0.004": 19.8709325628,
			"0.005": 15.896684163,
			"0.006": 11.4319329046,
			"0.007": 16.2777052432,
			"0.008": 13.1712743884,
			"0.009": 10.0419075283,
			"0.01": 12.7809661122,
			"0.011": 10.8300587126,
			"0.012": 3.98468245152,
			"0.013": 4.51523596564,
			"0.014": 0.112253210813,
			"0.015": 0.0,
			"0.016": 0.0,
			"0.017": 0.0,
			"0.018": 0.0,
			"0.019": 0.0,
			"0.02": 0.0,
			"0.021": 0.0,
			"0.022": 0.0,
			"0.023": 0.0,
			"0.024": 0.0,
			"0.025": 0.0
		}
	}
}
