{
	 "smiles": "NC(=O)C1=CC(Br)=CN=C1", 
	 "Tm": 499.65, 
	 "num_atms": 15, 
	 "gaussian": { 
		 "optdone": 1, 
		 "sigma_profile": "yes", 
		 "theory": "DFT", 
		 "functional": "B3LYP", 
		 "basiset": "6-31G**", 
		 "properties": { 
			 "R2extent": 3945.3402, 
			 "electric_dipole_moment_norm": 2.89012519106, 
			 "electric_quadrupole_moment_norm": 9.16882920279, 
			 "total_energy": -2987.7906499, 
			 "HOMO_LUMO_gap": 0.20117, 
			 "cosmo_polarized_energy": -13.43, 
			 "cosmo_cavitation_energy": 22.3, 
			 "cosmo_dispersion_energy": -17.03, 
			 "cosmo_repulsion_energy": 1.38, 
			 "cosmo_total_nonelectrostatic_energy": 6.66, 
			 "SMD_solvation_energy": 2.12 
		},
		"coords": [
			{
				"x": -1.6856185203,
				"y": -0.5702420166,
				"z": 1.3336288857,
				"element": "N" 
			},
			{
				"x": -1.1564272945,
				"y": 0.0219866424,
				"z": 0.2172828683,
				"element": "C" 
			},
			{
				"x": -1.7393043619,
				"y": 0.0304648071,
				"z": -0.8588254897,
				"element": "O" 
			},
			{
				"x": 0.2041203711,
				"y": 0.6461512341,
				"z": 0.3746362621,
				"element": "C" 
			},
			{
				"x": 0.6300945336,
				"y": 1.5253606569,
				"z": -0.6272184454,
				"element": "C" 
			},
			{
				"x": 1.8821641805,
				"y": 2.1092470721,
				"z": -0.4982137658,
				"element": "C" 
			},
			{
				"x": 2.5295553881,
				"y": 3.3267910038,
				"z": -1.8122934255,
				"element": "Br" 
			},
			{
				"x": 2.6789995972,
				"y": 1.799632965,
				"z": 0.6088326719,
				"element": "C" 
			},
			{
				"x": 2.2880993731,
				"y": 0.9429915509,
				"z": 1.5555775984,
				"element": "N" 
			},
			{
				"x": 1.0802603123,
				"y": 0.3810836761,
				"z": 1.4338014172,
				"element": "C" 
			},
			{
				"x": -2.6354675902,
				"y": -0.9019265277,
				"z": 1.2476210806,
				"element": "H" 
			},
			{
				"x": -1.3591227744,
				"y": -0.3345811525,
				"z": 2.2572772513,
				"element": "H" 
			},
			{
				"x": -0.0206301947,
				"y": 1.723490517,
				"z": -1.4710573485,
				"element": "H" 
			},
			{
				"x": 3.6593011558,
				"y": 2.2544091422,
				"z": 0.7251473573,
				"element": "H" 
			},
			{
				"x": 0.8184758243,
				"y": -0.3360595709,
				"z": 2.2094030822,
				"element": "H" 
			}
		],
		 "valence_orbital": [ 
			{
				"type": "occ",
				"energy": -0.29897,
				"method": "rhf"
			},
			{
				"type": "occ",
				"energy": -0.28871,
				"method": "rhf"
			},
			{
				"type": "occ",
				"energy": -0.27936,
				"method": "rhf"
			},
			{
				"type": "occ",
				"energy": -0.26307,
				"method": "rhf"
			},
			{
				"type": "occ",
				"energy": -0.26224,
				"method": "rhf"
			},
			{
				"type": "unocc",
				"energy": -0.06107,
				"method": "rhf"
			},
			{
				"type": "unocc",
				"energy": -0.04329,
				"method": "rhf"
			},
			{
				"type": "unocc",
				"energy": -0.00294,
				"method": "rhf"
			},
			{
				"type": "unocc",
				"energy": 0.0381,
				"method": "rhf"
			},
			{
				"type": "unocc",
				"energy": 0.06628,
				"method": "rhf"
			}
		],
		"cosmo_sigma_profile": { 
			"-0.025": 0.0,
			"-0.024": 0.0,
			"-0.023": 0.0,
			"-0.022": 0.0,
			"-0.021": 0.0,
			"-0.02": 0.0,
			"-0.019": 0.0,
			"-0.018": 0.0,
			"-0.017": 0.0,
			"-0.016": 0.0435418207893,
			"-0.015": 1.0222621102,
			"-0.014": 2.29583384002,
			"-0.013": 2.71273944844,
			"-0.012": 2.45071008758,
			"-0.011": 3.58358482009,
			"-0.01": 2.15928974738,
			"-0.009": 2.84585376295,
			"-0.008": 3.93690655403,
			"-0.007": 4.58349438363,
			"-0.006": 5.39207230885,
			"-0.005": 6.95644766338,
			"-0.004": 6.89120539834,
			"-0.003": 9.26103604147,
			"-0.002": 12.3255046235,
			"-0.001": 19.2809677628,
			"0.0": 18.7384981499,
			"0.001": 10.6449910937,
			"0.002": 11.0284561979,
			"0.003": 13.6375427804,
			"0.004": 11.4802556761,
			"0.005": 2.7635183678,
			"0.006": 3.49652575906,
			"0.007": 3.46213522715,
			"0.008": 2.21060876985,
			"0.009": 1.80655681931,
			"0.01": 2.47470512257,
			"0.011": 2.67112627513,
			"0.012": 3.83648862819,
			"0.013": 5.66257032904,
			"0.014": 2.28027730266,
			"0.015": 0.459506444722,
			"0.016": 0.0251428021195,
			"0.017": 0.0,
			"0.018": 0.0,
			"0.019": 0.0,
			"0.02": 0.0,
			"0.021": 0.0,
			"0.022": 0.0,
			"0.023": 0.0,
			"0.024": 0.0,
			"0.025": 0.0
		}
	}
}
