{
	 "smiles": "FC(F)(F)C1=NC2=C(N1)C=CC(Cl)=C2Cl", 
	 "Tm": 487.15, 
	 "num_atms": 18, 
	 "gaussian": { 
		 "optdone": 1, 
		 "sigma_profile": "yes", 
		 "theory": "DFT", 
		 "functional": "B3LYP", 
		 "basiset": "6-31G**", 
		 "properties": { 
			 "R2extent": 6083.6326, 
			 "electric_dipole_moment_norm": 5.24739813717, 
			 "electric_quadrupole_moment_norm": 11.1297414714, 
			 "total_energy": -1636.07152576, 
			 "HOMO_LUMO_gap": 0.18869, 
			 "cosmo_polarized_energy": -13.32, 
			 "cosmo_cavitation_energy": 28.25, 
			 "cosmo_dispersion_energy": -20.77, 
			 "cosmo_repulsion_energy": 1.57, 
			 "cosmo_total_nonelectrostatic_energy": 9.04, 
			 "SMD_solvation_energy": 3.38 
		},
		"coords": [
			{
				"x": -1.5962270511,
				"y": -1.4957045071,
				"z": 3.3068382892,
				"element": "F" 
			},
			{
				"x": -0.4030786243,
				"y": -1.9689114718,
				"z": 2.862163383,
				"element": "C" 
			},
			{
				"x": 0.568849838,
				"y": -1.296824165,
				"z": 3.4949778458,
				"element": "F" 
			},
			{
				"x": -0.3132951794,
				"y": -3.2587341904,
				"z": 3.2158499157,
				"element": "F" 
			},
			{
				"x": -0.3243847528,
				"y": -1.7921179773,
				"z": 1.370926181,
				"element": "C" 
			},
			{
				"x": 0.6916473106,
				"y": -2.1432731303,
				"z": 0.628095375,
				"element": "N" 
			},
			{
				"x": 0.3155381363,
				"y": -1.7919258623,
				"z": -0.6528366137,
				"element": "C" 
			},
			{
				"x": -0.9762925679,
				"y": -1.210835241,
				"z": -0.6547232806,
				"element": "C" 
			},
			{
				"x": -1.3618492722,
				"y": -1.2260898237,
				"z": 0.6711854032,
				"element": "N" 
			},
			{
				"x": -1.601356357,
				"y": -0.7639379459,
				"z": -1.8210308972,
				"element": "C" 
			},
			{
				"x": -0.8920522786,
				"y": -0.9146852253,
				"z": -3.0031910383,
				"element": "C" 
			},
			{
				"x": 0.3972414418,
				"y": -1.4905942459,
				"z": -3.0293531565,
				"element": "C" 
			},
			{
				"x": 1.1936359661,
				"y": -1.6280777513,
				"z": -4.579802193,
				"element": "Cl" 
			},
			{
				"x": 1.0196643926,
				"y": -1.9363256895,
				"z": -1.8631448575,
				"element": "C" 
			},
			{
				"x": 2.5997088706,
				"y": -2.6482909217,
				"z": -1.8522716859,
				"element": "Cl" 
			},
			{
				"x": -2.2267458309,
				"y": -0.893911676,
				"z": 1.0702146783,
				"element": "H" 
			},
			{
				"x": -2.5908407946,
				"y": -0.3197219651,
				"z": -1.8166875976,
				"element": "H" 
			},
			{
				"x": -1.3236632473,
				"y": -0.5871382103,
				"z": -3.941909751,
				"element": "H" 
			}
		],
		 "valence_orbital": [ 
			{
				"type": "occ",
				"energy": -0.31966,
				"method": "rhf"
			},
			{
				"type": "occ",
				"energy": -0.3103,
				"method": "rhf"
			},
			{
				"type": "occ",
				"energy": -0.3053,
				"method": "rhf"
			},
			{
				"type": "occ",
				"energy": -0.25499,
				"method": "rhf"
			},
			{
				"type": "occ",
				"energy": -0.24434,
				"method": "rhf"
			},
			{
				"type": "unocc",
				"energy": -0.05565,
				"method": "rhf"
			},
			{
				"type": "unocc",
				"energy": -0.01309,
				"method": "rhf"
			},
			{
				"type": "unocc",
				"energy": 0.00161,
				"method": "rhf"
			},
			{
				"type": "unocc",
				"energy": 0.01312,
				"method": "rhf"
			},
			{
				"type": "unocc",
				"energy": 0.05575,
				"method": "rhf"
			}
		],
		"cosmo_sigma_profile": { 
			"-0.025": 0.0,
			"-0.024": 0.0,
			"-0.023": 0.0,
			"-0.022": 0.0,
			"-0.021": 0.0,
			"-0.02": 0.0,
			"-0.019": 0.0706182944533,
			"-0.018": 0.852144775877,
			"-0.017": 1.16413518159,
			"-0.016": 1.44357646697,
			"-0.015": 0.847824367423,
			"-0.014": 0.849191797241,
			"-0.013": 0.905199702769,
			"-0.012": 1.26618488507,
			"-0.011": 1.6456049473,
			"-0.01": 1.53038742565,
			"-0.009": 2.6774073763,
			"-0.008": 5.41434759626,
			"-0.007": 5.28119083777,
			"-0.006": 5.72652609115,
			"-0.005": 5.24936699728,
			"-0.004": 5.54493539045,
			"-0.003": 9.93147660863,
			"-0.002": 10.449775087,
			"-0.001": 13.8295467698,
			"0.0": 26.0038339061,
			"0.001": 32.986400057,
			"0.002": 42.8765394102,
			"0.003": 19.6649443305,
			"0.004": 17.241644778,
			"0.005": 8.07840957817,
			"0.006": 1.63819142309,
			"0.007": 1.52229916813,
			"0.008": 1.93323664507,
			"0.009": 1.18016143694,
			"0.01": 1.47615372348,
			"0.011": 0.89637565008,
			"0.012": 1.16547048748,
			"0.013": 0.810574149797,
			"0.014": 0.704841579961,
			"0.015": 0.0737458819959,
			"0.016": 0.0,
			"0.017": 0.0,
			"0.018": 0.0,
			"0.019": 0.0,
			"0.02": 0.0,
			"0.021": 0.0,
			"0.022": 0.0,
			"0.023": 0.0,
			"0.024": 0.0,
			"0.025": 0.0
		}
	}
}
