{
	 "smiles": "CC(=NO)C1=C(C)N=C(C)S1", 
	 "Tm": 405.15, 
	 "num_atms": 21, 
	 "gaussian": { 
		 "optdone": 1, 
		 "sigma_profile": "yes", 
		 "theory": "DFT", 
		 "functional": "B3LYP", 
		 "basiset": "6-31G**", 
		 "properties": { 
			 "R2extent": 2466.7088, 
			 "electric_dipole_moment_norm": 0.682151024334, 
			 "electric_quadrupole_moment_norm": 6.50840486294, 
			 "total_energy": -855.633659163, 
			 "HOMO_LUMO_gap": 0.18639, 
			 "cosmo_polarized_energy": -9.39, 
			 "cosmo_cavitation_energy": 26.2, 
			 "cosmo_dispersion_energy": -19.4, 
			 "cosmo_repulsion_energy": 1.55, 
			 "cosmo_total_nonelectrostatic_energy": 8.36, 
			 "SMD_solvation_energy": 2.91 
		},
		"coords": [
			{
				"x": 0.1150456007,
				"y": -3.5406736244,
				"z": 0.7606185318,
				"element": "C" 
			},
			{
				"x": 0.3506401928,
				"y": -2.7332858852,
				"z": -0.4932213615,
				"element": "C" 
			},
			{
				"x": 0.6318395907,
				"y": -3.4234447372,
				"z": -1.5451418472,
				"element": "N" 
			},
			{
				"x": 0.7711980037,
				"y": -2.643786377,
				"z": -2.7019710231,
				"element": "O" 
			},
			{
				"x": 0.2415807914,
				"y": -1.2671956282,
				"z": -0.4264601121,
				"element": "C" 
			},
			{
				"x": 1.1087118825,
				"y": -0.2930987886,
				"z": -0.8709699643,
				"element": "C" 
			},
			{
				"x": 2.426334794,
				"y": -0.514099536,
				"z": -1.5521068008,
				"element": "C" 
			},
			{
				"x": 0.7180151757,
				"y": 1.0056189364,
				"z": -0.6115936619,
				"element": "N" 
			},
			{
				"x": -0.4164131962,
				"y": 1.0667140008,
				"z": 0.0223854521,
				"element": "C" 
			},
			{
				"x": -1.0946004799,
				"y": 2.3437892634,
				"z": 0.4154082354,
				"element": "C" 
			},
			{
				"x": -1.1191949185,
				"y": -0.5035280686,
				"z": 0.3797099616,
				"element": "S" 
			},
			{
				"x": 0.8041781829,
				"y": -3.236350762,
				"z": 1.5558440007,
				"element": "H" 
			},
			{
				"x": 0.2518725486,
				"y": -4.6023975364,
				"z": 0.5480657381,
				"element": "H" 
			},
			{
				"x": -0.9028084282,
				"y": -3.3881278599,
				"z": 1.1389527719,
				"element": "H" 
			},
			{
				"x": 0.9616947858,
				"y": -3.3158484308,
				"z": -3.3698345567,
				"element": "H" 
			},
			{
				"x": 2.8246808544,
				"y": -1.5084909484,
				"z": -1.3434018804,
				"element": "H" 
			},
			{
				"x": 2.3188441467,
				"y": -0.4259756558,
				"z": -2.6383543957,
				"element": "H" 
			},
			{
				"x": 3.1408088408,
				"y": 0.2427233126,
				"z": -1.2173411687,
				"element": "H" 
			},
			{
				"x": -2.0536502276,
				"y": 2.463467447,
				"z": -0.1003059276,
				"element": "H" 
			},
			{
				"x": -0.4445367897,
				"y": 3.177086895,
				"z": 0.1426171819,
				"element": "H" 
			},
			{
				"x": -1.2896413506,
				"y": 2.3832039832,
				"z": 1.4922008266,
				"element": "H" 
			}
		],
		 "valence_orbital": [ 
			{
				"type": "occ",
				"energy": -0.2834,
				"method": "rhf"
			},
			{
				"type": "occ",
				"energy": -0.27514,
				"method": "rhf"
			},
			{
				"type": "occ",
				"energy": -0.26529,
				"method": "rhf"
			},
			{
				"type": "occ",
				"energy": -0.25558,
				"method": "rhf"
			},
			{
				"type": "occ",
				"energy": -0.22238,
				"method": "rhf"
			},
			{
				"type": "unocc",
				"energy": -0.03599,
				"method": "rhf"
			},
			{
				"type": "unocc",
				"energy": 0.00623,
				"method": "rhf"
			},
			{
				"type": "unocc",
				"energy": 0.02396,
				"method": "rhf"
			},
			{
				"type": "unocc",
				"energy": 0.06314,
				"method": "rhf"
			},
			{
				"type": "unocc",
				"energy": 0.07683,
				"method": "rhf"
			}
		],
		"cosmo_sigma_profile": { 
			"-0.025": 0.0,
			"-0.024": 0.0,
			"-0.023": 0.0,
			"-0.022": 0.0,
			"-0.021": 0.0,
			"-0.02": 0.0,
			"-0.019": 0.0,
			"-0.018": 0.0208452168293,
			"-0.017": 0.642649000178,
			"-0.016": 1.32979006076,
			"-0.015": 0.71110819001,
			"-0.014": 0.561337189707,
			"-0.013": 0.831933826121,
			"-0.012": 0.950847630004,
			"-0.011": 0.791947629932,
			"-0.01": 0.296974549656,
			"-0.009": 0.493751321865,
			"-0.008": 1.06413916847,
			"-0.007": 0.559264845843,
			"-0.006": 4.93668977039,
			"-0.005": 13.074222879,
			"-0.004": 16.768678088,
			"-0.003": 18.3351941724,
			"-0.002": 21.0197093176,
			"-0.001": 24.941109709,
			"0.0": 19.776568339,
			"0.001": 14.6779241054,
			"0.002": 13.7732068625,
			"0.003": 13.0026426202,
			"0.004": 8.13105538919,
			"0.005": 5.47960214,
			"0.006": 5.41938658805,
			"0.007": 4.34306991341,
			"0.008": 2.87386866975,
			"0.009": 3.08799064065,
			"0.01": 3.08739435149,
			"0.011": 2.96627817544,
			"0.012": 2.17897801867,
			"0.013": 1.43457099003,
			"0.014": 0.726282931082,
			"0.015": 0.542812296901,
			"0.016": 0.15833536151,
			"0.017": 0.0,
			"0.018": 0.0,
			"0.019": 0.0,
			"0.02": 0.0,
			"0.021": 0.0,
			"0.022": 0.0,
			"0.023": 0.0,
			"0.024": 0.0,
			"0.025": 0.0
		}
	}
}
