{
	 "smiles": "NC(=S)C1=CC=C2OCCC2=C1", 
	 "Tm": 423.15, 
	 "num_atms": 21, 
	 "gaussian": { 
		 "optdone": 1, 
		 "sigma_profile": "yes", 
		 "theory": "DFT", 
		 "functional": "B3LYP", 
		 "basiset": "6-31G**", 
		 "properties": { 
			 "R2extent": 3043.9228, 
			 "electric_dipole_moment_norm": 4.08851858012, 
			 "electric_quadrupole_moment_norm": 27.3090281982, 
			 "total_energy": -876.548721013, 
			 "HOMO_LUMO_gap": 0.14916, 
			 "cosmo_polarized_energy": -16.46, 
			 "cosmo_cavitation_energy": 26.06, 
			 "cosmo_dispersion_energy": -20.2, 
			 "cosmo_repulsion_energy": 1.57, 
			 "cosmo_total_nonelectrostatic_energy": 7.43, 
			 "SMD_solvation_energy": 3.58 
		},
		"coords": [
			{
				"x": 3.2270998176,
				"y": 2.3008676569,
				"z": 1.1174436896,
				"element": "N" 
			},
			{
				"x": 1.8845814923,
				"y": 2.184129956,
				"z": 1.26788536,
				"element": "C" 
			},
			{
				"x": 1.092369091,
				"y": 2.9793441313,
				"z": 2.5087097146,
				"element": "S" 
			},
			{
				"x": 1.2005165908,
				"y": 1.3426966208,
				"z": 0.2550846406,
				"element": "C" 
			},
			{
				"x": 1.7428921902,
				"y": 1.1653498382,
				"z": -1.033321317,
				"element": "C" 
			},
			{
				"x": 1.1149935561,
				"y": 0.3740209788,
				"z": -1.9962022711,
				"element": "C" 
			},
			{
				"x": -0.0765543504,
				"y": -0.2487540521,
				"z": -1.6365747761,
				"element": "C" 
			},
			{
				"x": -0.8024610098,
				"y": -1.050241376,
				"z": -2.4572091168,
				"element": "O" 
			},
			{
				"x": -1.8807688953,
				"y": -1.632464957,
				"z": -1.6726886721,
				"element": "C" 
			},
			{
				"x": -1.9546170406,
				"y": -0.8410617973,
				"z": -0.3429631051,
				"element": "C" 
			},
			{
				"x": -0.6467769048,
				"y": -0.0810573647,
				"z": -0.3682279555,
				"element": "C" 
			},
			{
				"x": -0.0234844477,
				"y": 0.7160462175,
				"z": 0.573086204,
				"element": "C" 
			},
			{
				"x": 3.7303186706,
				"y": 2.8391910883,
				"z": 1.8073000974,
				"element": "H" 
			},
			{
				"x": 3.7455993565,
				"y": 1.6487521831,
				"z": 0.5479892402,
				"element": "H" 
			},
			{
				"x": 2.6518695965,
				"y": 1.6905578656,
				"z": -1.3108144143,
				"element": "H" 
			},
			{
				"x": 1.5282522231,
				"y": 0.2528671957,
				"z": -2.9912773887,
				"element": "H" 
			},
			{
				"x": -2.7913461519,
				"y": -1.5721696335,
				"z": -2.2723697675,
				"element": "H" 
			},
			{
				"x": -1.6361619434,
				"y": -2.6876003346,
				"z": -1.5068322257,
				"element": "H" 
			},
			{
				"x": -2.8095365726,
				"y": -0.1547715544,
				"z": -0.3262042219,
				"element": "H" 
			},
			{
				"x": -2.0523917558,
				"y": -1.5059608032,
				"z": 0.5203972952,
				"element": "H" 
			},
			{
				"x": -0.4482935122,
				"y": 0.8759581404,
				"z": 1.5584889901,
				"element": "H" 
			}
		],
		 "valence_orbital": [ 
			{
				"type": "occ",
				"energy": -0.31795,
				"method": "rhf"
			},
			{
				"type": "occ",
				"energy": -0.25997,
				"method": "rhf"
			},
			{
				"type": "occ",
				"energy": -0.23459,
				"method": "rhf"
			},
			{
				"type": "occ",
				"energy": -0.21593,
				"method": "rhf"
			},
			{
				"type": "occ",
				"energy": -0.2002,
				"method": "rhf"
			},
			{
				"type": "unocc",
				"energy": -0.05104,
				"method": "rhf"
			},
			{
				"type": "unocc",
				"energy": -0.01511,
				"method": "rhf"
			},
			{
				"type": "unocc",
				"energy": 0.03542,
				"method": "rhf"
			},
			{
				"type": "unocc",
				"energy": 0.07581,
				"method": "rhf"
			},
			{
				"type": "unocc",
				"energy": 0.08687,
				"method": "rhf"
			}
		],
		"cosmo_sigma_profile": { 
			"-0.025": 0.0,
			"-0.024": 0.0,
			"-0.023": 0.0,
			"-0.022": 0.0,
			"-0.021": 0.0,
			"-0.02": 0.0,
			"-0.019": 0.0,
			"-0.018": 0.0,
			"-0.017": 0.0,
			"-0.016": 0.0,
			"-0.015": 1.19618787219,
			"-0.014": 2.49059627537,
			"-0.013": 2.22723808658,
			"-0.012": 3.04704265178,
			"-0.011": 2.05206153863,
			"-0.01": 2.00308164214,
			"-0.009": 2.37445744373,
			"-0.008": 1.69018361552,
			"-0.007": 3.93422437369,
			"-0.006": 10.8305682923,
			"-0.005": 18.130234386,
			"-0.004": 18.1470938102,
			"-0.003": 14.7360685466,
			"-0.002": 11.4426113639,
			"-0.001": 8.65975091769,
			"0.0": 9.21104654769,
			"0.001": 10.7106858756,
			"0.002": 12.5126377972,
			"0.003": 13.7562986164,
			"0.004": 13.4843714593,
			"0.005": 7.0914792627,
			"0.006": 4.33566554045,
			"0.007": 6.62603392324,
			"0.008": 6.73668993226,
			"0.009": 7.63188389208,
			"0.01": 7.50856713563,
			"0.011": 4.81059868973,
			"0.012": 2.67526877051,
			"0.013": 0.248972437966,
			"0.014": 0.0,
			"0.015": 0.0,
			"0.016": 0.0,
			"0.017": 0.0,
			"0.018": 0.0,
			"0.019": 0.0,
			"0.02": 0.0,
			"0.021": 0.0,
			"0.022": 0.0,
			"0.023": 0.0,
			"0.024": 0.0,
			"0.025": 0.0
		}
	}
}
