{
	 "smiles": "NC1=C(N=CC(Br)=C1)N1C=CC=N1", 
	 "Tm": 346.15, 
	 "num_atms": 20, 
	 "gaussian": { 
		 "optdone": 1, 
		 "sigma_profile": "yes", 
		 "theory": "DFT", 
		 "functional": "B3LYP", 
		 "basiset": "6-31G**", 
		 "properties": { 
			 "R2extent": 5494.9855, 
			 "electric_dipole_moment_norm": 1.9025731865, 
			 "electric_quadrupole_moment_norm": 9.70412071081, 
			 "total_energy": -3099.46069397, 
			 "HOMO_LUMO_gap": 0.16618, 
			 "cosmo_polarized_energy": -8.09, 
			 "cosmo_cavitation_energy": 26.64, 
			 "cosmo_dispersion_energy": -20.65, 
			 "cosmo_repulsion_energy": 1.61, 
			 "cosmo_total_nonelectrostatic_energy": 7.6, 
			 "SMD_solvation_energy": 2.56 
		},
		"coords": [
			{
				"x": 0.8585930206,
				"y": -0.6527136596,
				"z": -2.5468043836,
				"element": "N" 
			},
			{
				"x": 0.8704055355,
				"y": -1.2237219496,
				"z": -1.3025519132,
				"element": "C" 
			},
			{
				"x": 0.3172899593,
				"y": -0.6039032007,
				"z": -0.1443233605,
				"element": "C" 
			},
			{
				"x": 0.2740900288,
				"y": -1.1869287889,
				"z": 1.0467978766,
				"element": "N" 
			},
			{
				"x": 0.7703823144,
				"y": -2.4118768196,
				"z": 1.2192611918,
				"element": "C" 
			},
			{
				"x": 1.3517005668,
				"y": -3.09766972,
				"z": 0.1550468627,
				"element": "C" 
			},
			{
				"x": 2.0722695542,
				"y": -4.8415562517,
				"z": 0.4295663028,
				"element": "Br" 
			},
			{
				"x": 1.4039881691,
				"y": -2.5105413956,
				"z": -1.1002922722,
				"element": "C" 
			},
			{
				"x": -0.2431003433,
				"y": 0.7050366883,
				"z": -0.1742500611,
				"element": "N" 
			},
			{
				"x": -0.8885520409,
				"y": 1.3234795642,
				"z": 0.8605053204,
				"element": "C" 
			},
			{
				"x": -1.2353316829,
				"y": 2.5821979039,
				"z": 0.4203306748,
				"element": "C" 
			},
			{
				"x": -0.7551506007,
				"y": 2.6462811532,
				"z": -0.9061811981,
				"element": "C" 
			},
			{
				"x": -0.1553871783,
				"y": 1.5157891722,
				"z": -1.265851966,
				"element": "N" 
			},
			{
				"x": 1.4707978006,
				"y": -1.0412999582,
				"z": -3.2465249,
				"element": "H" 
			},
			{
				"x": 0.6356609393,
				"y": 0.3371826515,
				"z": -2.5830670812,
				"element": "H" 
			},
			{
				"x": 0.710103119,
				"y": -2.8456019918,
				"z": 2.2120441774,
				"element": "H" 
			},
			{
				"x": 1.8454679559,
				"y": -3.0408102194,
				"z": -1.937525097,
				"element": "H" 
			},
			{
				"x": -1.0294133822,
				"y": 0.811620142,
				"z": 1.7977432386,
				"element": "H" 
			},
			{
				"x": -1.7616055956,
				"y": 3.3438925837,
				"z": 0.9752450571,
				"element": "H" 
			},
			{
				"x": -0.8216081397,
				"y": 3.4621440961,
				"z": -1.6133684695,
				"element": "H" 
			}
		],
		 "valence_orbital": [ 
			{
				"type": "occ",
				"energy": -0.28296,
				"method": "rhf"
			},
			{
				"type": "occ",
				"energy": -0.27431,
				"method": "rhf"
			},
			{
				"type": "occ",
				"energy": -0.25626,
				"method": "rhf"
			},
			{
				"type": "occ",
				"energy": -0.2511,
				"method": "rhf"
			},
			{
				"type": "occ",
				"energy": -0.20719,
				"method": "rhf"
			},
			{
				"type": "unocc",
				"energy": -0.04101,
				"method": "rhf"
			},
			{
				"type": "unocc",
				"energy": -0.01012,
				"method": "rhf"
			},
			{
				"type": "unocc",
				"energy": 0.00521,
				"method": "rhf"
			},
			{
				"type": "unocc",
				"energy": 0.03024,
				"method": "rhf"
			},
			{
				"type": "unocc",
				"energy": 0.06616,
				"method": "rhf"
			}
		],
		"cosmo_sigma_profile": { 
			"-0.025": 0.0,
			"-0.024": 0.0,
			"-0.023": 0.0,
			"-0.022": 0.0,
			"-0.021": 0.0,
			"-0.02": 0.0,
			"-0.019": 0.0,
			"-0.018": 0.0,
			"-0.017": 0.0,
			"-0.016": 0.0,
			"-0.015": 0.0,
			"-0.014": 0.618824794645,
			"-0.013": 1.49602586062,
			"-0.012": 1.85344154131,
			"-0.011": 1.18147135014,
			"-0.01": 1.59253433551,
			"-0.009": 1.89169745788,
			"-0.008": 4.8656753249,
			"-0.007": 7.94142843975,
			"-0.006": 8.85129767279,
			"-0.005": 7.57981462024,
			"-0.004": 10.5530803876,
			"-0.003": 9.96095007005,
			"-0.002": 9.79917782115,
			"-0.001": 12.6519140179,
			"0.0": 19.670784916,
			"0.001": 25.5680053813,
			"0.002": 24.3457716885,
			"0.003": 19.9480394134,
			"0.004": 22.8049908064,
			"0.005": 9.99021070321,
			"0.006": 5.63082927254,
			"0.007": 3.76494884183,
			"0.008": 2.60728274388,
			"0.009": 1.65569280096,
			"0.01": 0.984561456977,
			"0.011": 0.284719429576,
			"0.012": 0.0,
			"0.013": 0.0,
			"0.014": 0.0,
			"0.015": 0.0,
			"0.016": 0.0,
			"0.017": 0.0,
			"0.018": 0.0,
			"0.019": 0.0,
			"0.02": 0.0,
			"0.021": 0.0,
			"0.022": 0.0,
			"0.023": 0.0,
			"0.024": 0.0,
			"0.025": 0.0
		}
	}
}
