{
	 "smiles": "OC(=O)C1=CC(CC2=CC=C(O)C(=C2)C(O)=O)=CC=C1O", 
	 "Tm": 517.15, 
	 "num_atms": 33, 
	 "gaussian": { 
		 "optdone": 1, 
		 "sigma_profile": "yes", 
		 "theory": "DFT", 
		 "functional": "B3LYP", 
		 "basiset": "6-31G**", 
		 "properties": { 
			 "R2extent": 8666.932, 
			 "electric_dipole_moment_norm": 6.88284778562, 
			 "electric_quadrupole_moment_norm": 28.9632683094, 
			 "total_energy": -1030.21073575, 
			 "HOMO_LUMO_gap": 0.17271, 
			 "cosmo_polarized_energy": -26.07, 
			 "cosmo_cavitation_energy": 38.45, 
			 "cosmo_dispersion_energy": -27.68, 
			 "cosmo_repulsion_energy": 2.12, 
			 "cosmo_total_nonelectrostatic_energy": 12.89, 
			 "SMD_solvation_energy": 9.1 
		},
		"coords": [
			{
				"x": -1.4984307622,
				"y": 2.7380776007,
				"z": -4.8546457789,
				"element": "O" 
			},
			{
				"x": -0.8545683328,
				"y": 2.2303711452,
				"z": -3.7486916318,
				"element": "C" 
			},
			{
				"x": 0.0072348539,
				"y": 2.8768378947,
				"z": -3.1930859082,
				"element": "O" 
			},
			{
				"x": -1.3255396113,
				"y": 0.8851589896,
				"z": -3.3600929195,
				"element": "C" 
			},
			{
				"x": -0.6989761188,
				"y": 0.3054778546,
				"z": -2.2416933289,
				"element": "C" 
			},
			{
				"x": -1.0438648677,
				"y": -0.9562603849,
				"z": -1.7686892518,
				"element": "C" 
			},
			{
				"x": -0.3353288215,
				"y": -1.5715222191,
				"z": -0.5737044052,
				"element": "C" 
			},
			{
				"x": -0.3989818921,
				"y": -0.7477491015,
				"z": 0.702921027,
				"element": "C" 
			},
			{
				"x": -1.6162301548,
				"y": -0.2358215282,
				"z": 1.1768440979,
				"element": "C" 
			},
			{
				"x": -1.6750056953,
				"y": 0.4882459536,
				"z": 2.3624706682,
				"element": "C" 
			},
			{
				"x": -0.5121616578,
				"y": 0.7198788204,
				"z": 3.1010578445,
				"element": "C" 
			},
			{
				"x": -0.5517107417,
				"y": 1.4359967778,
				"z": 4.2763777772,
				"element": "O" 
			},
			{
				"x": 0.7253317022,
				"y": 0.2250566293,
				"z": 2.6557234065,
				"element": "C" 
			},
			{
				"x": 0.7476352485,
				"y": -0.5021275257,
				"z": 1.4559246109,
				"element": "C" 
			},
			{
				"x": 2.0480899233,
				"y": 0.4088493734,
				"z": 3.3562129786,
				"element": "C" 
			},
			{
				"x": 2.0648412291,
				"y": 1.1159578145,
				"z": 4.5030098367,
				"element": "O" 
			},
			{
				"x": 3.0731766492,
				"y": -0.0608215442,
				"z": 2.9116947685,
				"element": "O" 
			},
			{
				"x": -2.0600517398,
				"y": -1.6491910998,
				"z": -2.4497506842,
				"element": "C" 
			},
			{
				"x": -2.6988576101,
				"y": -1.1054062096,
				"z": -3.5552061557,
				"element": "C" 
			},
			{
				"x": -2.3463323881,
				"y": 0.1656921893,
				"z": -4.0320923483,
				"element": "C" 
			},
			{
				"x": -3.0220230137,
				"y": 0.6126252505,
				"z": -5.1122907772,
				"element": "O" 
			},
			{
				"x": -1.1125482212,
				"y": 3.6141301424,
				"z": -5.0194119931,
				"element": "H" 
			},
			{
				"x": 0.0746404317,
				"y": 0.8878927313,
				"z": -1.7508665682,
				"element": "H" 
			},
			{
				"x": -0.7665403871,
				"y": -2.5633196649,
				"z": -0.385311176,
				"element": "H" 
			},
			{
				"x": 0.7186090967,
				"y": -1.7475728077,
				"z": -0.8196189244,
				"element": "H" 
			},
			{
				"x": -2.5277574545,
				"y": -0.3980562027,
				"z": 0.6085553793,
				"element": "H" 
			},
			{
				"x": -2.6259195255,
				"y": 0.8793464833,
				"z": 2.7185845793,
				"element": "H" 
			},
			{
				"x": -1.4489772858,
				"y": 1.7427373745,
				"z": 4.45737795,
				"element": "H" 
			},
			{
				"x": 1.7158276147,
				"y": -0.8722933958,
				"z": 1.1335699332,
				"element": "H" 
			},
			{
				"x": 1.169150725,
				"y": 1.4244853217,
				"z": 4.7273169651,
				"element": "H" 
			},
			{
				"x": -2.3526720489,
				"y": -2.6387044499,
				"z": -2.1062446252,
				"element": "H" 
			},
			{
				"x": -3.4819792495,
				"y": -1.6450100764,
				"z": -4.0769957408,
				"element": "H" 
			},
			{
				"x": -2.6890798941,
				"y": 1.4946378637,
				"z": -5.3523496057,
				"element": "H" 
			}
		],
		 "valence_orbital": [ 
			{
				"type": "occ",
				"energy": -0.26844,
				"method": "rhf"
			},
			{
				"type": "occ",
				"energy": -0.2665,
				"method": "rhf"
			},
			{
				"type": "occ",
				"energy": -0.26164,
				"method": "rhf"
			},
			{
				"type": "occ",
				"energy": -0.24492,
				"method": "rhf"
			},
			{
				"type": "occ",
				"energy": -0.22794,
				"method": "rhf"
			},
			{
				"type": "unocc",
				"energy": -0.05523,
				"method": "rhf"
			},
			{
				"type": "unocc",
				"energy": -0.04577,
				"method": "rhf"
			},
			{
				"type": "unocc",
				"energy": -0.00888,
				"method": "rhf"
			},
			{
				"type": "unocc",
				"energy": -0.00466,
				"method": "rhf"
			},
			{
				"type": "unocc",
				"energy": 0.03927,
				"method": "rhf"
			}
		],
		"cosmo_sigma_profile": { 
			"-0.025": 0.0,
			"-0.024": 0.0,
			"-0.023": 0.0,
			"-0.022": 0.0,
			"-0.021": 0.0,
			"-0.02": 0.26992882656,
			"-0.019": 1.90242721461,
			"-0.018": 1.65659208192,
			"-0.017": 2.18440646299,
			"-0.016": 2.09103583931,
			"-0.015": 1.82860972829,
			"-0.014": 0.932303552586,
			"-0.013": 1.1828996083,
			"-0.012": 2.06493951737,
			"-0.011": 2.55771866381,
			"-0.01": 1.91804492528,
			"-0.009": 2.56998195203,
			"-0.008": 4.04287038586,
			"-0.007": 5.79347395194,
			"-0.006": 13.0019395557,
			"-0.005": 17.4018314706,
			"-0.004": 20.8576225081,
			"-0.003": 21.9974073012,
			"-0.002": 20.8813913834,
			"-0.001": 18.7594505182,
			"0.0": 20.0726813909,
			"0.001": 21.7975372785,
			"0.002": 25.9880054165,
			"0.003": 26.1671599818,
			"0.004": 12.2544868929,
			"0.005": 4.99313536375,
			"0.006": 5.45132828119,
			"0.007": 4.52737582735,
			"0.008": 5.05778205461,
			"0.009": 6.75899391644,
			"0.01": 6.8712493969,
			"0.011": 11.3953008112,
			"0.012": 8.34018239215,
			"0.013": 2.85062636757,
			"0.014": 0.837425463195,
			"0.015": 0.0,
			"0.016": 0.0,
			"0.017": 0.0,
			"0.018": 0.0,
			"0.019": 0.0,
			"0.02": 0.0,
			"0.021": 0.0,
			"0.022": 0.0,
			"0.023": 0.0,
			"0.024": 0.0,
			"0.025": 0.0
		}
	}
}
