{
	 "smiles": "CN1C=NN=C1C1=CC=CC=C1", 
	 "Tm": 388.15, 
	 "num_atms": 21, 
	 "gaussian": { 
		 "optdone": 1, 
		 "sigma_profile": "yes", 
		 "theory": "DFT", 
		 "functional": "B3LYP", 
		 "basiset": "6-31G**", 
		 "properties": { 
			 "R2extent": 2241.3301, 
			 "electric_dipole_moment_norm": 5.7189307366, 
			 "electric_quadrupole_moment_norm": 19.7315518913, 
			 "total_energy": -512.613698693, 
			 "HOMO_LUMO_gap": 0.19918, 
			 "cosmo_polarized_energy": -17.51, 
			 "cosmo_cavitation_energy": 24.86, 
			 "cosmo_dispersion_energy": -18.35, 
			 "cosmo_repulsion_energy": 1.43, 
			 "cosmo_total_nonelectrostatic_energy": 7.94, 
			 "SMD_solvation_energy": 2.81 
		},
		"coords": [
			{
				"x": 1.0673277773,
				"y": 2.1116351307,
				"z": 1.1706302081,
				"element": "C" 
			},
			{
				"x": -0.3289587183,
				"y": 1.7520643359,
				"z": 1.3733635791,
				"element": "N" 
			},
			{
				"x": -1.262610225,
				"y": 2.5100541935,
				"z": 2.0286889218,
				"element": "C" 
			},
			{
				"x": -2.4504379613,
				"y": 1.9616147747,
				"z": 1.9647824978,
				"element": "N" 
			},
			{
				"x": -2.3166426695,
				"y": 0.7991086815,
				"z": 1.2441682285,
				"element": "N" 
			},
			{
				"x": -1.0480950304,
				"y": 0.6748234739,
				"z": 0.8930050303,
				"element": "C" 
			},
			{
				"x": -0.5283846872,
				"y": -0.4377596771,
				"z": 0.0852767965,
				"element": "C" 
			},
			{
				"x": 0.7727177178,
				"y": -0.947220852,
				"z": 0.2272456151,
				"element": "C" 
			},
			{
				"x": 1.2022526301,
				"y": -2.0187078479,
				"z": -0.5566756764,
				"element": "C" 
			},
			{
				"x": 0.3384065639,
				"y": -2.6025841621,
				"z": -1.4834276245,
				"element": "C" 
			},
			{
				"x": -0.9643135412,
				"y": -2.1140317166,
				"z": -1.6174370328,
				"element": "C" 
			},
			{
				"x": -1.3957870061,
				"y": -1.0414843474,
				"z": -0.8425538682,
				"element": "C" 
			},
			{
				"x": 1.1678196119,
				"y": 3.195363579,
				"z": 1.2571879078,
				"element": "H" 
			},
			{
				"x": 1.717400815,
				"y": 1.6386468365,
				"z": 1.9134293818,
				"element": "H" 
			},
			{
				"x": 1.3881503072,
				"y": 1.808214249,
				"z": 0.172765105,
				"element": "H" 
			},
			{
				"x": -1.0189949715,
				"y": 3.4409468616,
				"z": 2.5219535172,
				"element": "H" 
			},
			{
				"x": 1.445250493,
				"y": -0.5341086436,
				"z": 0.9713996475,
				"element": "H" 
			},
			{
				"x": 2.2102519739,
				"y": -2.4038055073,
				"z": -0.4324671624,
				"element": "H" 
			},
			{
				"x": 0.6747029666,
				"y": -3.4365823486,
				"z": -2.0924374185,
				"element": "H" 
			},
			{
				"x": -1.6450589444,
				"y": -2.5684327983,
				"z": -2.3314215401,
				"element": "H" 
			},
			{
				"x": -2.405097102,
				"y": -0.6558542154,
				"z": -0.9349761135,
				"element": "H" 
			}
		],
		 "valence_orbital": [ 
			{
				"type": "occ",
				"energy": -0.28765,
				"method": "rhf"
			},
			{
				"type": "occ",
				"energy": -0.28514,
				"method": "rhf"
			},
			{
				"type": "occ",
				"energy": -0.2589,
				"method": "rhf"
			},
			{
				"type": "occ",
				"energy": -0.24506,
				"method": "rhf"
			},
			{
				"type": "occ",
				"energy": -0.23055,
				"method": "rhf"
			},
			{
				"type": "unocc",
				"energy": -0.03137,
				"method": "rhf"
			},
			{
				"type": "unocc",
				"energy": -0.0095,
				"method": "rhf"
			},
			{
				"type": "unocc",
				"energy": 0.03186,
				"method": "rhf"
			},
			{
				"type": "unocc",
				"energy": 0.05907,
				"method": "rhf"
			},
			{
				"type": "unocc",
				"energy": 0.07564,
				"method": "rhf"
			}
		],
		"cosmo_sigma_profile": { 
			"-0.025": 0.0,
			"-0.024": 0.0,
			"-0.023": 0.0,
			"-0.022": 0.0,
			"-0.021": 0.0,
			"-0.02": 0.0,
			"-0.019": 0.0,
			"-0.018": 0.0,
			"-0.017": 0.0,
			"-0.016": 0.0,
			"-0.015": 0.0,
			"-0.014": 0.0,
			"-0.013": 0.0,
			"-0.012": 0.0,
			"-0.011": 0.13812860013,
			"-0.01": 2.77079148417,
			"-0.009": 2.82294612901,
			"-0.008": 4.97800907968,
			"-0.007": 8.70428716745,
			"-0.006": 15.2762950531,
			"-0.005": 19.4172353495,
			"-0.004": 21.6053858098,
			"-0.003": 12.743685624,
			"-0.002": 9.64985145304,
			"-0.001": 9.52591138826,
			"0.0": 10.077571672,
			"0.001": 10.3123777516,
			"0.002": 9.54565556925,
			"0.003": 10.559609003,
			"0.004": 13.1239233023,
			"0.005": 9.3617940275,
			"0.006": 2.22188886541,
			"0.007": 3.00907242418,
			"0.008": 1.59048653393,
			"0.009": 1.84041686586,
			"0.01": 2.28029979603,
			"0.011": 2.22759718968,
			"0.012": 2.39966083105,
			"0.013": 3.19023184531,
			"0.014": 3.71088403398,
			"0.015": 2.47267515577,
			"0.016": 2.37505164561,
			"0.017": 1.53953761179,
			"0.018": 0.0513462526164,
			"0.019": 0.0,
			"0.02": 0.0,
			"0.021": 0.0,
			"0.022": 0.0,
			"0.023": 0.0,
			"0.024": 0.0,
			"0.025": 0.0
		}
	}
}
