{
	 "smiles": "CC(=O)OCC1=CC=C(O1)C=O", 
	 "Tm": 327.15, 
	 "num_atms": 20, 
	 "gaussian": { 
		 "optdone": 1, 
		 "sigma_profile": "yes", 
		 "theory": "DFT", 
		 "functional": "B3LYP", 
		 "basiset": "6-31G**", 
		 "properties": { 
			 "R2extent": 3120.6424, 
			 "electric_dipole_moment_norm": 2.47816903984, 
			 "electric_quadrupole_moment_norm": 21.9269464507, 
			 "total_energy": -610.543340491, 
			 "HOMO_LUMO_gap": 0.18021, 
			 "cosmo_polarized_energy": -12.67, 
			 "cosmo_cavitation_energy": 26.31, 
			 "cosmo_dispersion_energy": -18.74, 
			 "cosmo_repulsion_energy": 1.54, 
			 "cosmo_total_nonelectrostatic_energy": 9.11, 
			 "SMD_solvation_energy": 7.55 
		},
		"coords": [
			{
				"x": 0.3196521164,
				"y": 3.7988543379,
				"z": 0.8354137203,
				"element": "C" 
			},
			{
				"x": 1.0162343023,
				"y": 2.4612288725,
				"z": 0.7791740858,
				"element": "C" 
			},
			{
				"x": 2.0699191133,
				"y": 2.1843029352,
				"z": 1.3076209697,
				"element": "O" 
			},
			{
				"x": 0.299385526,
				"y": 1.5749448789,
				"z": 0.0418322495,
				"element": "O" 
			},
			{
				"x": 0.8817925454,
				"y": 0.2531718564,
				"z": -0.0539734178,
				"element": "C" 
			},
			{
				"x": -0.0375682172,
				"y": -0.6123220487,
				"z": -0.8338408939,
				"element": "C" 
			},
			{
				"x": 0.0163664282,
				"y": -1.1122979495,
				"z": -2.1110486434,
				"element": "C" 
			},
			{
				"x": -1.1589232924,
				"y": -1.8890819094,
				"z": -2.2914090814,
				"element": "C" 
			},
			{
				"x": -1.8565564646,
				"y": -1.8128339154,
				"z": -1.110679213,
				"element": "C" 
			},
			{
				"x": -1.1702716836,
				"y": -1.0338739746,
				"z": -0.214231614,
				"element": "O" 
			},
			{
				"x": -3.1229893296,
				"y": -2.3842154416,
				"z": -0.6725159802,
				"element": "C" 
			},
			{
				"x": -3.8184407226,
				"y": -3.0948227287,
				"z": -1.3776135645,
				"element": "O" 
			},
			{
				"x": -0.668576485,
				"y": 3.6868375717,
				"z": 1.2910383679,
				"element": "H" 
			},
			{
				"x": 0.9215225084,
				"y": 4.4952680718,
				"z": 1.4181132226,
				"element": "H" 
			},
			{
				"x": 0.1699983044,
				"y": 4.1876719071,
				"z": -0.1759715387,
				"element": "H" 
			},
			{
				"x": 1.0421538381,
				"y": -0.1395818952,
				"z": 0.9545488442,
				"element": "H" 
			},
			{
				"x": 1.854063415,
				"y": 0.3140085252,
				"z": -0.549962875,
				"element": "H" 
			},
			{
				"x": 0.8061935592,
				"y": -0.9371396384,
				"z": -2.8275713195,
				"element": "H" 
			},
			{
				"x": -1.470046272,
				"y": -2.4400699566,
				"z": -3.16662731,
				"element": "H" 
			},
			{
				"x": -3.4084091897,
				"y": -2.1181494987,
				"z": 0.3667039915,
				"element": "H" 
			}
		],
		 "valence_orbital": [ 
			{
				"type": "occ",
				"energy": -0.31402,
				"method": "rhf"
			},
			{
				"type": "occ",
				"energy": -0.30328,
				"method": "rhf"
			},
			{
				"type": "occ",
				"energy": -0.28333,
				"method": "rhf"
			},
			{
				"type": "occ",
				"energy": -0.26144,
				"method": "rhf"
			},
			{
				"type": "occ",
				"energy": -0.24916,
				"method": "rhf"
			},
			{
				"type": "unocc",
				"energy": -0.06895,
				"method": "rhf"
			},
			{
				"type": "unocc",
				"energy": 0.00316,
				"method": "rhf"
			},
			{
				"type": "unocc",
				"energy": 0.01306,
				"method": "rhf"
			},
			{
				"type": "unocc",
				"energy": 0.08736,
				"method": "rhf"
			},
			{
				"type": "unocc",
				"energy": 0.09228,
				"method": "rhf"
			}
		],
		"cosmo_sigma_profile": { 
			"-0.025": 0.0,
			"-0.024": 0.0,
			"-0.023": 0.0,
			"-0.022": 0.0,
			"-0.021": 0.0,
			"-0.02": 0.0,
			"-0.019": 0.0,
			"-0.018": 0.0,
			"-0.017": 0.0,
			"-0.016": 0.0,
			"-0.015": 0.0,
			"-0.014": 0.0,
			"-0.013": 0.0,
			"-0.012": 0.0,
			"-0.011": 0.0,
			"-0.01": 0.0,
			"-0.009": 1.12512999929,
			"-0.008": 6.79264850987,
			"-0.007": 11.6466489021,
			"-0.006": 15.7592780113,
			"-0.005": 16.5017787925,
			"-0.004": 17.2145543886,
			"-0.003": 15.5465732867,
			"-0.002": 16.0499617443,
			"-0.001": 14.3602826817,
			"0.0": 12.0621626642,
			"0.001": 13.3270844939,
			"0.002": 11.6929182356,
			"0.003": 7.37094573067,
			"0.004": 4.91355399712,
			"0.005": 7.46233073884,
			"0.006": 5.11043896364,
			"0.007": 3.08471720321,
			"0.008": 5.06096807619,
			"0.009": 3.05560598958,
			"0.01": 4.74567251269,
			"0.011": 8.82521940382,
			"0.012": 7.00945561411,
			"0.013": 1.52190076197,
			"0.014": 0.0,
			"0.015": 0.0,
			"0.016": 0.0,
			"0.017": 0.0,
			"0.018": 0.0,
			"0.019": 0.0,
			"0.02": 0.0,
			"0.021": 0.0,
			"0.022": 0.0,
			"0.023": 0.0,
			"0.024": 0.0,
			"0.025": 0.0
		}
	}
}
