{
	 "smiles": "COC1=CC2=C(C(=O)C=C(O2)C2=CC=C(OC)C(OC)=C2)C(OC)=C1", 
	 "Tm": 469.15, 
	 "num_atms": 43, 
	 "gaussian": { 
		 "optdone": 1, 
		 "sigma_profile": "yes", 
		 "theory": "DFT", 
		 "functional": "B3LYP", 
		 "basiset": "6-31G**", 
		 "properties": { 
			 "R2extent": 12383.3717, 
			 "electric_dipole_moment_norm": 6.14201913136, 
			 "electric_quadrupole_moment_norm": 10.0330143063, 
			 "total_energy": -1186.14924326, 
			 "HOMO_LUMO_gap": 0.16298, 
			 "cosmo_polarized_energy": -17.18, 
			 "cosmo_cavitation_energy": 47.01, 
			 "cosmo_dispersion_energy": -33.62, 
			 "cosmo_repulsion_energy": 2.52, 
			 "cosmo_total_nonelectrostatic_energy": 15.92, 
			 "SMD_solvation_energy": 11.61 
		},
		"coords": [
			{
				"x": 3.5734343217,
				"y": 3.6810502237,
				"z": -2.2276395094,
				"element": "C" 
			},
			{
				"x": 2.2296362764,
				"y": 4.0303808496,
				"z": -2.532187146,
				"element": "O" 
			},
			{
				"x": 1.2392256857,
				"y": 3.1912677296,
				"z": -2.1360426149,
				"element": "C" 
			},
			{
				"x": 1.4459688907,
				"y": 2.0001400254,
				"z": -1.4451437961,
				"element": "C" 
			},
			{
				"x": 0.3286143054,
				"y": 1.2369262279,
				"z": -1.0942503143,
				"element": "C" 
			},
			{
				"x": -0.995213138,
				"y": 1.589849337,
				"z": -1.4156112838,
				"element": "C" 
			},
			{
				"x": -2.0980978618,
				"y": 0.7292879503,
				"z": -0.9303431168,
				"element": "C" 
			},
			{
				"x": -3.29554131,
				"y": 0.9328003296,
				"z": -1.1464508368,
				"element": "O" 
			},
			{
				"x": -1.662139761,
				"y": -0.4216885685,
				"z": -0.1432228655,
				"element": "C" 
			},
			{
				"x": -0.3585259705,
				"y": -0.7143481865,
				"z": 0.0759307895,
				"element": "C" 
			},
			{
				"x": 0.6319077906,
				"y": 0.0947663817,
				"z": -0.3974950659,
				"element": "O" 
			},
			{
				"x": 0.170644516,
				"y": -1.8682855913,
				"z": 0.8236788073,
				"element": "C" 
			},
			{
				"x": -0.6285130705,
				"y": -2.995800152,
				"z": 1.0760294707,
				"element": "C" 
			},
			{
				"x": -0.1168556359,
				"y": -4.0769814152,
				"z": 1.7853583529,
				"element": "C" 
			},
			{
				"x": 1.1965904914,
				"y": -4.0644673206,
				"z": 2.2620011272,
				"element": "C" 
			},
			{
				"x": 1.6516500881,
				"y": -5.1461519201,
				"z": 2.9743162775,
				"element": "O" 
			},
			{
				"x": 2.7139177145,
				"y": -5.8864453875,
				"z": 2.3556921798,
				"element": "C" 
			},
			{
				"x": 1.9986064094,
				"y": -2.9286520558,
				"z": 2.0340635838,
				"element": "C" 
			},
			{
				"x": 3.2999923109,
				"y": -2.8654832546,
				"z": 2.4795532223,
				"element": "O" 
			},
			{
				"x": 3.4421098547,
				"y": -2.7654765366,
				"z": 3.90295259,
				"element": "C" 
			},
			{
				"x": 1.4871639005,
				"y": -1.8533377884,
				"z": 1.3126776495,
				"element": "C" 
			},
			{
				"x": -1.1623994122,
				"y": 2.816324712,
				"z": -2.128896834,
				"element": "C" 
			},
			{
				"x": -2.3865268909,
				"y": 3.327631962,
				"z": -2.4464271735,
				"element": "O" 
			},
			{
				"x": -3.0990540602,
				"y": 2.6888232842,
				"z": -3.5126910316,
				"element": "C" 
			},
			{
				"x": -0.0654304721,
				"y": 3.5901874084,
				"z": -2.4751980288,
				"element": "C" 
			},
			{
				"x": 4.1910041889,
				"y": 4.4819712217,
				"z": -2.6358372877,
				"element": "H" 
			},
			{
				"x": 3.7356221456,
				"y": 3.6141775575,
				"z": -1.1447456715,
				"element": "H" 
			},
			{
				"x": 3.8571891934,
				"y": 2.7299202706,
				"z": -2.6948692382,
				"element": "H" 
			},
			{
				"x": 2.4261663323,
				"y": 1.6446208115,
				"z": -1.1577212507,
				"element": "H" 
			},
			{
				"x": -2.444368355,
				"y": -1.0474586046,
				"z": 0.2664501953,
				"element": "H" 
			},
			{
				"x": -1.6408162552,
				"y": -3.0449668454,
				"z": 0.6904093836,
				"element": "H" 
			},
			{
				"x": -0.7196929703,
				"y": -4.9599739733,
				"z": 1.971124552,
				"element": "H" 
			},
			{
				"x": 3.5924490496,
				"y": -5.2579036975,
				"z": 2.1846983189,
				"element": "H" 
			},
			{
				"x": 2.9625205261,
				"y": -6.6938010588,
				"z": 3.0469331489,
				"element": "H" 
			},
			{
				"x": 2.3792000497,
				"y": -6.3150006086,
				"z": 1.4031244817,
				"element": "H" 
			},
			{
				"x": 4.5152516378,
				"y": -2.7307767587,
				"z": 4.1004805489,
				"element": "H" 
			},
			{
				"x": 2.9996664966,
				"y": -3.6284246881,
				"z": 4.4101697084,
				"element": "H" 
			},
			{
				"x": 2.9750232887,
				"y": -1.8449826693,
				"z": 4.2742544668,
				"element": "H" 
			},
			{
				"x": 2.1293750942,
				"y": -0.9969701357,
				"z": 1.146738156,
				"element": "H" 
			},
			{
				"x": -2.4986723737,
				"y": 2.694988915,
				"z": -4.4317761874,
				"element": "H" 
			},
			{
				"x": -3.3841344535,
				"y": 1.6716605971,
				"z": -3.2384016052,
				"element": "H" 
			},
			{
				"x": -3.9989665941,
				"y": 3.2872155973,
				"z": -3.6660798646,
				"element": "H" 
			},
			{
				"x": -0.2191819741,
				"y": 4.5209858248,
				"z": -3.0079062884,
				"element": "H" 
			}
		],
		 "valence_orbital": [ 
			{
				"type": "occ",
				"energy": -0.25329,
				"method": "rhf"
			},
			{
				"type": "occ",
				"energy": -0.23762,
				"method": "rhf"
			},
			{
				"type": "occ",
				"energy": -0.23024,
				"method": "rhf"
			},
			{
				"type": "occ",
				"energy": -0.22909,
				"method": "rhf"
			},
			{
				"type": "occ",
				"energy": -0.22145,
				"method": "rhf"
			},
			{
				"type": "unocc",
				"energy": -0.05847,
				"method": "rhf"
			},
			{
				"type": "unocc",
				"energy": -0.02129,
				"method": "rhf"
			},
			{
				"type": "unocc",
				"energy": -0.01073,
				"method": "rhf"
			},
			{
				"type": "unocc",
				"energy": 0.00013,
				"method": "rhf"
			},
			{
				"type": "unocc",
				"energy": 0.03222,
				"method": "rhf"
			}
		],
		"cosmo_sigma_profile": { 
			"-0.025": 0.0,
			"-0.024": 0.0,
			"-0.023": 0.0,
			"-0.022": 0.0,
			"-0.021": 0.0,
			"-0.02": 0.0,
			"-0.019": 0.0,
			"-0.018": 0.0,
			"-0.017": 0.0,
			"-0.016": 0.0,
			"-0.015": 0.0,
			"-0.014": 0.0,
			"-0.013": 0.0,
			"-0.012": 0.0,
			"-0.011": 0.0,
			"-0.01": 0.0,
			"-0.009": 0.496924992038,
			"-0.008": 2.79788270249,
			"-0.007": 7.21874888817,
			"-0.006": 17.8306504286,
			"-0.005": 26.4799030511,
			"-0.004": 33.1864272235,
			"-0.003": 38.5394971843,
			"-0.002": 37.5588379092,
			"-0.001": 34.40585968,
			"0.0": 26.5801400174,
			"0.001": 33.0513212552,
			"0.002": 33.2874556846,
			"0.003": 21.3960136848,
			"0.004": 10.8129114858,
			"0.005": 7.39386772994,
			"0.006": 5.3441844754,
			"0.007": 5.00186521859,
			"0.008": 6.33386869477,
			"0.009": 5.77910724042,
			"0.01": 4.25514886282,
			"0.011": 5.38111558669,
			"0.012": 3.38481409192,
			"0.013": 3.99430637238,
			"0.014": 3.46547120528,
			"0.015": 1.18696742048,
			"0.016": 0.024945505221,
			"0.017": 0.0,
			"0.018": 0.0,
			"0.019": 0.0,
			"0.02": 0.0,
			"0.021": 0.0,
			"0.022": 0.0,
			"0.023": 0.0,
			"0.024": 0.0,
			"0.025": 0.0
		}
	}
}
