{
	 "smiles": "O=C(NCCC1=CN=CN1)C=CC1=NC=NC1", 
	 "Tm": 513.15, 
	 "num_atms": 30, 
	 "gaussian": { 
		 "optdone": 1, 
		 "sigma_profile": "yes", 
		 "theory": "DFT", 
		 "functional": "B3LYP", 
		 "basiset": "6-31G**", 
		 "properties": { 
			 "R2extent": 6663.6166, 
			 "electric_dipole_moment_norm": 4.62269506133, 
			 "electric_quadrupole_moment_norm": 18.9771640215, 
			 "total_energy": -775.949660183, 
			 "HOMO_LUMO_gap": 0.13247, 
			 "cosmo_polarized_energy": -28.29, 
			 "cosmo_cavitation_energy": 36.0, 
			 "cosmo_dispersion_energy": -25.02, 
			 "cosmo_repulsion_energy": 1.97, 
			 "cosmo_total_nonelectrostatic_energy": 12.95, 
			 "SMD_solvation_energy": -0.27 
		},
		"coords": [
			{
				"x": 2.4844930738,
				"y": -3.1593268964,
				"z": -1.1333120774,
				"element": "O" 
			},
			{
				"x": 1.5828732855,
				"y": -2.3480206461,
				"z": -0.9320137655,
				"element": "C" 
			},
			{
				"x": 0.3427141584,
				"y": -2.7664063005,
				"z": -0.5139062597,
				"element": "N" 
			},
			{
				"x": -0.8028797622,
				"y": -1.9721713008,
				"z": -0.0948672803,
				"element": "C" 
			},
			{
				"x": -0.7154253721,
				"y": -1.4692385396,
				"z": 1.3675552654,
				"element": "C" 
			},
			{
				"x": -1.9163341208,
				"y": -0.6859665741,
				"z": 1.7924523241,
				"element": "C" 
			},
			{
				"x": -2.1680627845,
				"y": 0.6659865232,
				"z": 1.8520362948,
				"element": "C" 
			},
			{
				"x": -3.456785761,
				"y": 0.9193590331,
				"z": 2.2665508632,
				"element": "N" 
			},
			{
				"x": -3.9943284749,
				"y": -0.2641751634,
				"z": 2.4583246363,
				"element": "C" 
			},
			{
				"x": -3.1112712193,
				"y": -1.2725106338,
				"z": 2.1816011469,
				"element": "N" 
			},
			{
				"x": 1.776570816,
				"y": -0.8841024359,
				"z": -1.1432056861,
				"element": "C" 
			},
			{
				"x": 2.9762480646,
				"y": -0.4224688898,
				"z": -1.5366531446,
				"element": "C" 
			},
			{
				"x": 3.2635180393,
				"y": 0.9855850502,
				"z": -1.7640397587,
				"element": "C" 
			},
			{
				"x": 2.4088319566,
				"y": 1.9549689984,
				"z": -1.5921602906,
				"element": "N" 
			},
			{
				"x": 3.1382059946,
				"y": 3.1182526816,
				"z": -1.9341205737,
				"element": "C" 
			},
			{
				"x": 4.365278675,
				"y": 2.977098077,
				"z": -2.3026435288,
				"element": "N" 
			},
			{
				"x": 4.5873057011,
				"y": 1.5407186722,
				"z": -2.2305266597,
				"element": "C" 
			},
			{
				"x": 0.3131676892,
				"y": -3.7644679892,
				"z": -0.3498363631,
				"element": "H" 
			},
			{
				"x": -1.6954499633,
				"y": -2.5940417731,
				"z": -0.2202847821,
				"element": "H" 
			},
			{
				"x": -0.9353920187,
				"y": -1.1197081931,
				"z": -0.7662696616,
				"element": "H" 
			},
			{
				"x": -0.5539195882,
				"y": -2.3306229882,
				"z": 2.0293116945,
				"element": "H" 
			},
			{
				"x": 0.1719701846,
				"y": -0.835707404,
				"z": 1.4682160795,
				"element": "H" 
			},
			{
				"x": -1.4821867366,
				"y": 1.4704226345,
				"z": 1.6213489213,
				"element": "H" 
			},
			{
				"x": -5.0037514747,
				"y": -0.456999046,
				"z": 2.795866287,
				"element": "H" 
			},
			{
				"x": -3.2833900539,
				"y": -2.2612717498,
				"z": 2.2848071863,
				"element": "H" 
			},
			{
				"x": 0.9661493432,
				"y": -0.1811179855,
				"z": -0.981626239,
				"element": "H" 
			},
			{
				"x": 3.7740606785,
				"y": -1.1444755781,
				"z": -1.6945644444,
				"element": "H" 
			},
			{
				"x": 2.6466898514,
				"y": 4.0849363868,
				"z": -1.8757711939,
				"element": "H" 
			},
			{
				"x": 5.408008569,
				"y": 1.3082692653,
				"z": -1.537656583,
				"element": "H" 
			},
			{
				"x": 4.8878912495,
				"y": 1.143902765,
				"z": -3.210212407,
				"element": "H" 
			}
		],
		 "valence_orbital": [ 
			{
				"type": "occ",
				"energy": -0.26945,
				"method": "rhf"
			},
			{
				"type": "occ",
				"energy": -0.26232,
				"method": "rhf"
			},
			{
				"type": "occ",
				"energy": -0.25874,
				"method": "rhf"
			},
			{
				"type": "occ",
				"energy": -0.25646,
				"method": "rhf"
			},
			{
				"type": "occ",
				"energy": -0.22605,
				"method": "rhf"
			},
			{
				"type": "unocc",
				"energy": -0.09358,
				"method": "rhf"
			},
			{
				"type": "unocc",
				"energy": -0.00791,
				"method": "rhf"
			},
			{
				"type": "unocc",
				"energy": 0.02031,
				"method": "rhf"
			},
			{
				"type": "unocc",
				"energy": 0.05095,
				"method": "rhf"
			},
			{
				"type": "unocc",
				"energy": 0.05423,
				"method": "rhf"
			}
		],
		"cosmo_sigma_profile": { 
			"-0.025": 0.0,
			"-0.024": 0.0,
			"-0.023": 0.0,
			"-0.022": 0.0,
			"-0.021": 0.0,
			"-0.02": 0.0,
			"-0.019": 0.0,
			"-0.018": 0.0,
			"-0.017": 0.129293382348,
			"-0.016": 1.21907991814,
			"-0.015": 1.8577522902,
			"-0.014": 1.31900972365,
			"-0.013": 2.71824931916,
			"-0.012": 2.22382342559,
			"-0.011": 2.64108431403,
			"-0.01": 2.72072867941,
			"-0.009": 3.93358226438,
			"-0.008": 15.6271941927,
			"-0.007": 16.3830802758,
			"-0.006": 17.1230538156,
			"-0.005": 19.7745008752,
			"-0.004": 16.6775756067,
			"-0.003": 15.2990736446,
			"-0.002": 16.7480796146,
			"-0.001": 15.6655981789,
			"0.0": 13.7618201948,
			"0.001": 16.155281604,
			"0.002": 12.8248518614,
			"0.003": 11.3559365915,
			"0.004": 10.2936955877,
			"0.005": 9.99155148015,
			"0.006": 6.66682408776,
			"0.007": 5.49086738152,
			"0.008": 6.08367913162,
			"0.009": 4.94503220691,
			"0.01": 5.39038132068,
			"0.011": 4.85463318209,
			"0.012": 4.81926069026,
			"0.013": 7.07747793891,
			"0.014": 7.36002790204,
			"0.015": 3.07624029711,
			"0.016": 1.71847648881,
			"0.017": 1.59744368051,
			"0.018": 1.04863703332,
			"0.019": 0.21649596997,
			"0.02": 0.0,
			"0.021": 0.0,
			"0.022": 0.0,
			"0.023": 0.0,
			"0.024": 0.0,
			"0.025": 0.0
		}
	}
}
