{
	 "smiles": "CC(=O)C1=CC(F)=C(N)C(F)=C1", 
	 "Tm": 343.15, 
	 "num_atms": 19, 
	 "gaussian": { 
		 "optdone": 1, 
		 "sigma_profile": "yes", 
		 "theory": "DFT", 
		 "functional": "B3LYP", 
		 "basiset": "6-31G**", 
		 "properties": { 
			 "R2extent": 2930.3337, 
			 "electric_dipole_moment_norm": 3.61230825927, 
			 "electric_quadrupole_moment_norm": 11.5102745806, 
			 "total_energy": -638.720492139, 
			 "HOMO_LUMO_gap": 0.16954, 
			 "cosmo_polarized_energy": -11.08, 
			 "cosmo_cavitation_energy": 24.36, 
			 "cosmo_dispersion_energy": -17.68, 
			 "cosmo_repulsion_energy": 1.36, 
			 "cosmo_total_nonelectrostatic_energy": 8.05, 
			 "SMD_solvation_energy": 5.77 
		},
		"coords": [
			{
				"x": 2.393202763,
				"y": 1.0212245536,
				"z": -1.3905344206,
				"element": "C" 
			},
			{
				"x": 1.9001492443,
				"y": 0.5811278213,
				"z": -0.0212537184,
				"element": "C" 
			},
			{
				"x": 2.6258776897,
				"y": -0.0633791764,
				"z": 0.7232683478,
				"element": "O" 
			},
			{
				"x": 0.5162131765,
				"y": 0.9501384237,
				"z": 0.3962307911,
				"element": "C" 
			},
			{
				"x": 0.0760326675,
				"y": 0.5330131507,
				"z": 1.6648722703,
				"element": "C" 
			},
			{
				"x": -1.1962853911,
				"y": 0.8538318173,
				"z": 2.0837125456,
				"element": "C" 
			},
			{
				"x": -1.6396290339,
				"y": 0.4733947695,
				"z": 3.3080034426,
				"element": "F" 
			},
			{
				"x": -2.09920705,
				"y": 1.591267215,
				"z": 1.2984700698,
				"element": "C" 
			},
			{
				"x": -3.384402004,
				"y": 1.8529970492,
				"z": 1.7144095884,
				"element": "N" 
			},
			{
				"x": -1.6229226238,
				"y": 1.9961882171,
				"z": 0.0429909042,
				"element": "C" 
			},
			{
				"x": -2.4742886851,
				"y": 2.7261772276,
				"z": -0.7218592475,
				"element": "F" 
			},
			{
				"x": -0.3547305754,
				"y": 1.6956821996,
				"z": -0.4165346146,
				"element": "C" 
			},
			{
				"x": 2.378428969,
				"y": 2.1129217752,
				"z": -1.4828728171,
				"element": "H" 
			},
			{
				"x": 3.4139903341,
				"y": 0.6623548439,
				"z": -1.523869829,
				"element": "H" 
			},
			{
				"x": 1.7595041991,
				"y": 0.6163333527,
				"z": -2.1872905794,
				"element": "H" 
			},
			{
				"x": 0.7430653042,
				"y": -0.0363214378,
				"z": 2.3015617898,
				"element": "H" 
			},
			{
				"x": -3.54920406,
				"y": 1.7847342863,
				"z": 2.707348877,
				"element": "H" 
			},
			{
				"x": -3.8572528773,
				"y": 2.6097488616,
				"z": 1.2439272328,
				"element": "H" 
			},
			{
				"x": -0.0660420468,
				"y": 2.0488650501,
				"z": -1.3993806329,
				"element": "H" 
			}
		],
		 "valence_orbital": [ 
			{
				"type": "occ",
				"energy": -0.36131,
				"method": "rhf"
			},
			{
				"type": "occ",
				"energy": -0.32246,
				"method": "rhf"
			},
			{
				"type": "occ",
				"energy": -0.2557,
				"method": "rhf"
			},
			{
				"type": "occ",
				"energy": -0.24684,
				"method": "rhf"
			},
			{
				"type": "occ",
				"energy": -0.22084,
				"method": "rhf"
			},
			{
				"type": "unocc",
				"energy": -0.0513,
				"method": "rhf"
			},
			{
				"type": "unocc",
				"energy": -0.00497,
				"method": "rhf"
			},
			{
				"type": "unocc",
				"energy": 0.04734,
				"method": "rhf"
			},
			{
				"type": "unocc",
				"energy": 0.05855,
				"method": "rhf"
			},
			{
				"type": "unocc",
				"energy": 0.09528,
				"method": "rhf"
			}
		],
		"cosmo_sigma_profile": { 
			"-0.025": 0.0,
			"-0.024": 0.0,
			"-0.023": 0.0,
			"-0.022": 0.0,
			"-0.021": 0.0,
			"-0.02": 0.0,
			"-0.019": 0.0,
			"-0.018": 0.0,
			"-0.017": 0.0,
			"-0.016": 0.0,
			"-0.015": 0.0,
			"-0.014": 0.539524308107,
			"-0.013": 1.9492114139,
			"-0.012": 1.86087875779,
			"-0.011": 2.30709308681,
			"-0.01": 2.3981049292,
			"-0.009": 1.66229548017,
			"-0.008": 2.55548144184,
			"-0.007": 5.28185738713,
			"-0.006": 10.1895304357,
			"-0.005": 10.0872938194,
			"-0.004": 9.63782160279,
			"-0.003": 10.1612047522,
			"-0.002": 10.5875950841,
			"-0.001": 14.579791841,
			"0.0": 18.8317996795,
			"0.001": 19.1801711123,
			"0.002": 16.1291864177,
			"0.003": 16.0560538018,
			"0.004": 15.8600698892,
			"0.005": 3.44903657704,
			"0.006": 2.43919995379,
			"0.007": 1.93927811336,
			"0.008": 2.44586377961,
			"0.009": 2.03889046623,
			"0.01": 2.74655533539,
			"0.011": 2.87082972567,
			"0.012": 4.04796151173,
			"0.013": 2.36924041099,
			"0.014": 0.422274323481,
			"0.015": 0.0,
			"0.016": 0.0,
			"0.017": 0.0,
			"0.018": 0.0,
			"0.019": 0.0,
			"0.02": 0.0,
			"0.021": 0.0,
			"0.022": 0.0,
			"0.023": 0.0,
			"0.024": 0.0,
			"0.025": 0.0
		}
	}
}
