{
	 "smiles": "COC(=O)C(CO)NC(=O)C1CCCCC1", 
	 "Tm": 383.15, 
	 "num_atms": 35, 
	 "gaussian": { 
		 "optdone": 1, 
		 "sigma_profile": "yes", 
		 "theory": "DFT", 
		 "functional": "B3LYP", 
		 "basiset": "6-31G**", 
		 "properties": { 
			 "R2extent": 5416.0844, 
			 "electric_dipole_moment_norm": 4.40906696025, 
			 "electric_quadrupole_moment_norm": 14.1753267655, 
			 "total_energy": -786.290735498, 
			 "HOMO_LUMO_gap": 0.25268, 
			 "cosmo_polarized_energy": -16.44, 
			 "cosmo_cavitation_energy": 36.21, 
			 "cosmo_dispersion_energy": -25.13, 
			 "cosmo_repulsion_energy": 2.0, 
			 "cosmo_total_nonelectrostatic_energy": 13.08, 
			 "SMD_solvation_energy": 7.22 
		},
		"coords": [
			{
				"x": 1.3824593686,
				"y": -1.5424011289,
				"z": 4.9476501449,
				"element": "C" 
			},
			{
				"x": 0.7358474329,
				"y": -0.9465938171,
				"z": 3.8066571497,
				"element": "O" 
			},
			{
				"x": -0.3988244967,
				"y": -0.2637951468,
				"z": 4.0783321535,
				"element": "C" 
			},
			{
				"x": -0.870244633,
				"y": -0.1594150183,
				"z": 5.187109592,
				"element": "O" 
			},
			{
				"x": -1.0229426268,
				"y": 0.3803651107,
				"z": 2.8460967464,
				"element": "C" 
			},
			{
				"x": -1.0892039437,
				"y": 1.9086544318,
				"z": 3.0525418357,
				"element": "C" 
			},
			{
				"x": 0.2031921483,
				"y": 2.4821806746,
				"z": 3.1257410706,
				"element": "O" 
			},
			{
				"x": -0.3115872246,
				"y": 0.0430881652,
				"z": 1.618075669,
				"element": "N" 
			},
			{
				"x": -0.9807814263,
				"y": -0.0315143578,
				"z": 0.4197261087,
				"element": "C" 
			},
			{
				"x": -2.1521249332,
				"y": 0.3209940485,
				"z": 0.3207621031,
				"element": "O" 
			},
			{
				"x": -0.1334809149,
				"y": -0.5309846246,
				"z": -0.759162765,
				"element": "C" 
			},
			{
				"x": -1.017853689,
				"y": -1.0815645978,
				"z": -1.9133102711,
				"element": "C" 
			},
			{
				"x": -1.0836409251,
				"y": -0.1402178032,
				"z": -3.1337531133,
				"element": "C" 
			},
			{
				"x": -1.2260660207,
				"y": 1.3216739016,
				"z": -2.6907365613,
				"element": "C" 
			},
			{
				"x": 0.0071724721,
				"y": 1.7863384625,
				"z": -1.8723080173,
				"element": "C" 
			},
			{
				"x": 0.7919177775,
				"y": 0.604665933,
				"z": -1.2656111707,
				"element": "C" 
			},
			{
				"x": 0.7146831605,
				"y": -2.258458925,
				"z": 5.4315858325,
				"element": "H" 
			},
			{
				"x": 2.2673006467,
				"y": -2.0436468938,
				"z": 4.556440576,
				"element": "H" 
			},
			{
				"x": 1.6611491862,
				"y": -0.7711742431,
				"z": 5.6689277501,
				"element": "H" 
			},
			{
				"x": -2.0520116509,
				"y": 0.0088044453,
				"z": 2.7689535313,
				"element": "H" 
			},
			{
				"x": -1.5859567611,
				"y": 2.1170108208,
				"z": 4.0029096282,
				"element": "H" 
			},
			{
				"x": -1.6876430405,
				"y": 2.3332239769,
				"z": 2.2359749953,
				"element": "H" 
			},
			{
				"x": 0.6254306361,
				"y": 2.3230702778,
				"z": 2.2703900571,
				"element": "H" 
			},
			{
				"x": 0.5732820383,
				"y": -0.4323899112,
				"z": 1.7207014803,
				"element": "H" 
			},
			{
				"x": 0.5072110836,
				"y": -1.3363030576,
				"z": -0.3759700708,
				"element": "H" 
			},
			{
				"x": -0.6388866912,
				"y": -2.0616052988,
				"z": -2.2235350607,
				"element": "H" 
			},
			{
				"x": -2.0303824489,
				"y": -1.2320396663,
				"z": -1.528295146,
				"element": "H" 
			},
			{
				"x": -0.1829773411,
				"y": -0.2547074711,
				"z": -3.752135112,
				"element": "H" 
			},
			{
				"x": -1.927339784,
				"y": -0.4314884278,
				"z": -3.7694258743,
				"element": "H" 
			},
			{
				"x": -1.3722303322,
				"y": 1.9756074899,
				"z": -3.5574752404,
				"element": "H" 
			},
			{
				"x": -2.1240798285,
				"y": 1.4038330957,
				"z": -2.0702216486,
				"element": "H" 
			},
			{
				"x": -0.319173763,
				"y": 2.4642019494,
				"z": -1.0752494607,
				"element": "H" 
			},
			{
				"x": 0.6914932817,
				"y": 2.3649055573,
				"z": -2.5039098638,
				"element": "H" 
			},
			{
				"x": 1.4452274144,
				"y": 0.9547809924,
				"z": -0.4578272422,
				"element": "H" 
			},
			{
				"x": 1.4537658286,
				"y": 0.1720010558,
				"z": -2.0249498061,
				"element": "H" 
			}
		],
		 "valence_orbital": [ 
			{
				"type": "occ",
				"energy": -0.29827,
				"method": "rhf"
			},
			{
				"type": "occ",
				"energy": -0.28975,
				"method": "rhf"
			},
			{
				"type": "occ",
				"energy": -0.28186,
				"method": "rhf"
			},
			{
				"type": "occ",
				"energy": -0.25666,
				"method": "rhf"
			},
			{
				"type": "occ",
				"energy": -0.25298,
				"method": "rhf"
			},
			{
				"type": "unocc",
				"energy": -0.0003,
				"method": "rhf"
			},
			{
				"type": "unocc",
				"energy": 0.01564,
				"method": "rhf"
			},
			{
				"type": "unocc",
				"energy": 0.04983,
				"method": "rhf"
			},
			{
				"type": "unocc",
				"energy": 0.08696,
				"method": "rhf"
			},
			{
				"type": "unocc",
				"energy": 0.0917,
				"method": "rhf"
			}
		],
		"cosmo_sigma_profile": { 
			"-0.025": 0.0,
			"-0.024": 0.0,
			"-0.023": 0.0,
			"-0.022": 0.0,
			"-0.021": 0.0,
			"-0.02": 0.0,
			"-0.019": 0.0,
			"-0.018": 0.0,
			"-0.017": 0.0,
			"-0.016": 0.0,
			"-0.015": 0.0,
			"-0.014": 0.0,
			"-0.013": 0.46234730549,
			"-0.012": 0.684765677089,
			"-0.011": 2.41031564591,
			"-0.01": 1.6472960833,
			"-0.009": 2.20860757293,
			"-0.008": 2.34543751539,
			"-0.007": 6.47481307037,
			"-0.006": 12.0068867361,
			"-0.005": 15.3422340816,
			"-0.004": 20.4701987083,
			"-0.003": 25.4669408775,
			"-0.002": 32.1638957838,
			"-0.001": 29.3513760857,
			"0.0": 30.0854048111,
			"0.001": 27.3724173591,
			"0.002": 12.5191929984,
			"0.003": 6.82463842403,
			"0.004": 6.6098688499,
			"0.005": 4.61723078192,
			"0.006": 3.73389034157,
			"0.007": 4.40202061703,
			"0.008": 4.52089064329,
			"0.009": 3.76722750774,
			"0.01": 5.79248261657,
			"0.011": 6.09166626095,
			"0.012": 5.71199819227,
			"0.013": 4.57970451237,
			"0.014": 3.08631052734,
			"0.015": 0.0184335358303,
			"0.016": 0.0,
			"0.017": 0.0,
			"0.018": 0.0,
			"0.019": 0.0,
			"0.02": 0.0,
			"0.021": 0.0,
			"0.022": 0.0,
			"0.023": 0.0,
			"0.024": 0.0,
			"0.025": 0.0
		}
	}
}
