{
	 "smiles": "CN(C)C1=NC2=C(C=CC=C2)C(=C1)C(O)=O", 
	 "Tm": 533.15, 
	 "num_atms": 28, 
	 "gaussian": { 
		 "optdone": 1, 
		 "sigma_profile": "yes", 
		 "theory": "DFT", 
		 "functional": "B3LYP", 
		 "basiset": "6-31G**", 
		 "properties": { 
			 "R2extent": 4453.8753, 
			 "electric_dipole_moment_norm": 3.54683386417, 
			 "electric_quadrupole_moment_norm": 26.4558000266, 
			 "total_energy": -724.475916698, 
			 "HOMO_LUMO_gap": 0.14007, 
			 "cosmo_polarized_energy": -13.82, 
			 "cosmo_cavitation_energy": 31.31, 
			 "cosmo_dispersion_energy": -23.01, 
			 "cosmo_repulsion_energy": 1.77, 
			 "cosmo_total_nonelectrostatic_energy": 10.07, 
			 "SMD_solvation_energy": 5.11 
		},
		"coords": [
			{
				"x": -0.4474753802,
				"y": 0.1900226213,
				"z": -4.2307327092,
				"element": "C" 
			},
			{
				"x": -1.3026992471,
				"y": -0.0258677049,
				"z": -3.0744716983,
				"element": "N" 
			},
			{
				"x": -2.3389382533,
				"y": -1.0433661893,
				"z": -3.1937119932,
				"element": "C" 
			},
			{
				"x": -0.9579794797,
				"y": 0.4615561146,
				"z": -1.8350171354,
				"element": "C" 
			},
			{
				"x": -1.7067280895,
				"y": 0.1151017741,
				"z": -0.7936556579,
				"element": "N" 
			},
			{
				"x": -1.4347121679,
				"y": 0.6428886392,
				"z": 0.427594266,
				"element": "C" 
			},
			{
				"x": -0.339149014,
				"y": 1.534904252,
				"z": 0.6798349015,
				"element": "C" 
			},
			{
				"x": -0.1916184726,
				"y": 2.0894101509,
				"z": 1.9806107007,
				"element": "C" 
			},
			{
				"x": -1.0524667211,
				"y": 1.7392121088,
				"z": 3.0008077296,
				"element": "C" 
			},
			{
				"x": -2.1017140865,
				"y": 0.8229336734,
				"z": 2.7629386737,
				"element": "C" 
			},
			{
				"x": -2.2916141702,
				"y": 0.292677052,
				"z": 1.5062503813,
				"element": "C" 
			},
			{
				"x": 0.5044117487,
				"y": 1.8178634149,
				"z": -0.4459969239,
				"element": "C" 
			},
			{
				"x": 0.1856696924,
				"y": 1.3148455021,
				"z": -1.6823351772,
				"element": "C" 
			},
			{
				"x": 1.7785879734,
				"y": 2.6211291502,
				"z": -0.3775393565,
				"element": "C" 
			},
			{
				"x": 2.5277929715,
				"y": 2.4734710032,
				"z": 0.7460280047,
				"element": "O" 
			},
			{
				"x": 2.1661285105,
				"y": 3.3289066274,
				"z": -1.2756608175,
				"element": "O" 
			},
			{
				"x": -0.2263678078,
				"y": 1.2523724104,
				"z": -4.3711195015,
				"element": "H" 
			},
			{
				"x": -0.9758298987,
				"y": -0.1547687161,
				"z": -5.1214746478,
				"element": "H" 
			},
			{
				"x": 0.5044689601,
				"y": -0.3580199717,
				"z": -4.1679781195,
				"element": "H" 
			},
			{
				"x": -1.9179795863,
				"y": -2.0597464564,
				"z": -3.1949075612,
				"element": "H" 
			},
			{
				"x": -3.0211878758,
				"y": -0.9564256908,
				"z": -2.3507027286,
				"element": "H" 
			},
			{
				"x": -2.8883093128,
				"y": -0.8942908135,
				"z": -4.128297762,
				"element": "H" 
			},
			{
				"x": 0.5793799732,
				"y": 2.8300125141,
				"z": 2.1692809105,
				"element": "H" 
			},
			{
				"x": -0.9298601351,
				"y": 2.1793193154,
				"z": 3.9856613283,
				"element": "H" 
			},
			{
				"x": -2.7711591463,
				"y": 0.5499614957,
				"z": 3.5736431838,
				"element": "H" 
			},
			{
				"x": -3.1048019471,
				"y": -0.3933428947,
				"z": 1.2931690901,
				"element": "H" 
			},
			{
				"x": 0.8328334438,
				"y": 1.5564657061,
				"z": -2.514517908,
				"element": "H" 
			},
			{
				"x": 2.1293175184,
				"y": 1.8042749115,
				"z": 1.3226005275,
				"element": "H" 
			}
		],
		 "valence_orbital": [ 
			{
				"type": "occ",
				"energy": -0.28236,
				"method": "rhf"
			},
			{
				"type": "occ",
				"energy": -0.27648,
				"method": "rhf"
			},
			{
				"type": "occ",
				"energy": -0.25995,
				"method": "rhf"
			},
			{
				"type": "occ",
				"energy": -0.24281,
				"method": "rhf"
			},
			{
				"type": "occ",
				"energy": -0.20698,
				"method": "rhf"
			},
			{
				"type": "unocc",
				"energy": -0.06691,
				"method": "rhf"
			},
			{
				"type": "unocc",
				"energy": -0.01415,
				"method": "rhf"
			},
			{
				"type": "unocc",
				"energy": -0.00822,
				"method": "rhf"
			},
			{
				"type": "unocc",
				"energy": 0.04557,
				"method": "rhf"
			},
			{
				"type": "unocc",
				"energy": 0.08609,
				"method": "rhf"
			}
		],
		"cosmo_sigma_profile": { 
			"-0.025": 0.0,
			"-0.024": 0.0,
			"-0.023": 0.0,
			"-0.022": 0.0,
			"-0.021": 0.0,
			"-0.02": 0.0,
			"-0.019": 0.0,
			"-0.018": 0.006204596225,
			"-0.017": 0.410307431248,
			"-0.016": 0.761631096949,
			"-0.015": 0.608329761038,
			"-0.014": 0.935520152383,
			"-0.013": 1.06450215192,
			"-0.012": 1.07834104982,
			"-0.011": 0.915547895687,
			"-0.01": 0.722204750836,
			"-0.009": 0.987689939552,
			"-0.008": 1.29122036076,
			"-0.007": 2.90503969006,
			"-0.006": 13.745361319,
			"-0.005": 17.4917571878,
			"-0.004": 24.0559133857,
			"-0.003": 22.8215384973,
			"-0.002": 23.5904471386,
			"-0.001": 18.1461849034,
			"0.0": 13.8470697866,
			"0.001": 15.0960580863,
			"0.002": 13.7587734673,
			"0.003": 13.5318793203,
			"0.004": 17.5018747425,
			"0.005": 8.89878198295,
			"0.006": 4.66611300765,
			"0.007": 4.09956129362,
			"0.008": 4.846038328,
			"0.009": 6.11757311715,
			"0.01": 6.18684684219,
			"0.011": 5.67784106365,
			"0.012": 3.74100937109,
			"0.013": 0.434541852359,
			"0.014": 0.0,
			"0.015": 0.0,
			"0.016": 0.0,
			"0.017": 0.0,
			"0.018": 0.0,
			"0.019": 0.0,
			"0.02": 0.0,
			"0.021": 0.0,
			"0.022": 0.0,
			"0.023": 0.0,
			"0.024": 0.0,
			"0.025": 0.0
		}
	}
}
