{
	 "smiles": "CCOC1=CC=C(C=C1)C(=O)NN", 
	 "Tm": 398.65, 
	 "num_atms": 25, 
	 "gaussian": { 
		 "optdone": 1, 
		 "sigma_profile": "yes", 
		 "theory": "DFT", 
		 "functional": "B3LYP", 
		 "basiset": "6-31G**", 
		 "properties": { 
			 "R2extent": 4103.1165, 
			 "electric_dipole_moment_norm": 4.27806202152, 
			 "electric_quadrupole_moment_norm": 23.5932127352, 
			 "total_energy": -610.111325434, 
			 "HOMO_LUMO_gap": 0.19653, 
			 "cosmo_polarized_energy": -15.31, 
			 "cosmo_cavitation_energy": 28.69, 
			 "cosmo_dispersion_energy": -20.94, 
			 "cosmo_repulsion_energy": 1.69, 
			 "cosmo_total_nonelectrostatic_energy": 9.43, 
			 "SMD_solvation_energy": 6.4 
		},
		"coords": [
			{
				"x": -1.064732851,
				"y": -3.4618429386,
				"z": 2.76570123,
				"element": "C" 
			},
			{
				"x": -1.0315849159,
				"y": -3.6475947385,
				"z": 1.2525775536,
				"element": "C" 
			},
			{
				"x": -1.0648304226,
				"y": -2.4015894177,
				"z": 0.5467328194,
				"element": "O" 
			},
			{
				"x": 0.0751977653,
				"y": -1.678421391,
				"z": 0.3807315648,
				"element": "C" 
			},
			{
				"x": 1.3485448791,
				"y": -2.0535208963,
				"z": 0.8353613544,
				"element": "C" 
			},
			{
				"x": 2.4416070084,
				"y": -1.2297064534,
				"z": 0.5771569087,
				"element": "C" 
			},
			{
				"x": 2.2987380963,
				"y": -0.0132354865,
				"z": -0.1006049519,
				"element": "C" 
			},
			{
				"x": 1.0191488952,
				"y": 0.3448373749,
				"z": -0.5602561787,
				"element": "C" 
			},
			{
				"x": -0.0759267649,
				"y": -0.4750445242,
				"z": -0.3287926296,
				"element": "C" 
			},
			{
				"x": 3.5443457613,
				"y": 0.7709801337,
				"z": -0.3724546878,
				"element": "C" 
			},
			{
				"x": 4.6290163239,
				"y": 0.2205922343,
				"z": -0.5343558039,
				"element": "O" 
			},
			{
				"x": 3.4579362379,
				"y": 2.1520937847,
				"z": -0.4558345867,
				"element": "N" 
			},
			{
				"x": 2.5284303379,
				"y": 2.9642379944,
				"z": 0.2358547167,
				"element": "N" 
			},
			{
				"x": -0.1787516848,
				"y": -2.9348563177,
				"z": 3.1299466391,
				"element": "H" 
			},
			{
				"x": -1.1096016969,
				"y": -4.4375240058,
				"z": 3.260941746,
				"element": "H" 
			},
			{
				"x": -1.9481359423,
				"y": -2.8867759743,
				"z": 3.0571997551,
				"element": "H" 
			},
			{
				"x": -1.9293272682,
				"y": -4.1725489458,
				"z": 0.9148646437,
				"element": "H" 
			},
			{
				"x": -0.1654656057,
				"y": -4.2406056298,
				"z": 0.9344688338,
				"element": "H" 
			},
			{
				"x": 1.4999654404,
				"y": -2.9780599632,
				"z": 1.3791530102,
				"element": "H" 
			},
			{
				"x": 3.4346811713,
				"y": -1.525871456,
				"z": 0.8988004572,
				"element": "H" 
			},
			{
				"x": 0.8801727149,
				"y": 1.2513140577,
				"z": -1.1402779742,
				"element": "H" 
			},
			{
				"x": -1.0627604662,
				"y": -0.2152539695,
				"z": -0.6973345343,
				"element": "H" 
			},
			{
				"x": 4.3751500386,
				"y": 2.5778844,
				"z": -0.5264184348,
				"element": "H" 
			},
			{
				"x": 1.7045135962,
				"y": 3.105902904,
				"z": -0.3410170208,
				"element": "H" 
			},
			{
				"x": 2.2314693514,
				"y": 2.5044092249,
				"z": 1.09355557,
				"element": "H" 
			}
		],
		 "valence_orbital": [ 
			{
				"type": "occ",
				"energy": -0.29285,
				"method": "rhf"
			},
			{
				"type": "occ",
				"energy": -0.2617,
				"method": "rhf"
			},
			{
				"type": "occ",
				"energy": -0.24744,
				"method": "rhf"
			},
			{
				"type": "occ",
				"energy": -0.24518,
				"method": "rhf"
			},
			{
				"type": "occ",
				"energy": -0.22435,
				"method": "rhf"
			},
			{
				"type": "unocc",
				"energy": -0.02782,
				"method": "rhf"
			},
			{
				"type": "unocc",
				"energy": -0.01098,
				"method": "rhf"
			},
			{
				"type": "unocc",
				"energy": 0.05574,
				"method": "rhf"
			},
			{
				"type": "unocc",
				"energy": 0.06946,
				"method": "rhf"
			},
			{
				"type": "unocc",
				"energy": 0.08564,
				"method": "rhf"
			}
		],
		"cosmo_sigma_profile": { 
			"-0.025": 0.0,
			"-0.024": 0.0,
			"-0.023": 0.0,
			"-0.022": 0.0,
			"-0.021": 0.0,
			"-0.02": 0.0,
			"-0.019": 0.0,
			"-0.018": 0.0,
			"-0.017": 0.0,
			"-0.016": 0.0,
			"-0.015": 0.0,
			"-0.014": 0.0,
			"-0.013": 0.439907727613,
			"-0.012": 2.14474007889,
			"-0.011": 3.36270592574,
			"-0.01": 4.36878426804,
			"-0.009": 3.51396990696,
			"-0.008": 3.57232867544,
			"-0.007": 5.92975843023,
			"-0.006": 10.4006475355,
			"-0.005": 14.6688917559,
			"-0.004": 19.1168158563,
			"-0.003": 18.1674508445,
			"-0.002": 16.9441817783,
			"-0.001": 14.2208962015,
			"0.0": 15.7121290027,
			"0.001": 11.8786818466,
			"0.002": 12.0609658446,
			"0.003": 13.4969302458,
			"0.004": 15.3063641824,
			"0.005": 7.6460806588,
			"0.006": 4.34470572553,
			"0.007": 2.94637474485,
			"0.008": 3.33809333484,
			"0.009": 3.20666725342,
			"0.01": 3.8586738044,
			"0.011": 2.09436631157,
			"0.012": 2.6101294394,
			"0.013": 4.93119393139,
			"0.014": 4.65136262304,
			"0.015": 1.19508721529,
			"0.016": 0.407997631321,
			"0.017": 0.0,
			"0.018": 0.0,
			"0.019": 0.0,
			"0.02": 0.0,
			"0.021": 0.0,
			"0.022": 0.0,
			"0.023": 0.0,
			"0.024": 0.0,
			"0.025": 0.0
		}
	}
}
