{
	 "smiles": "CC(C)[C@H](C)[C@@H](O)[C@H](O)[C@@H](C)[C@H]1CC[C@H]2[C@@H]3COC(=O)[C@H]4C[C@H](O)[C@H](O)C[C@]4(C)[C@H]3CC[C@]12C", 
	 "Tm": 528.15, 
	 "num_atms": 82, 
	 "gaussian": { 
		 "optdone": 1, 
		 "sigma_profile": "yes", 
		 "theory": "DFT", 
		 "functional": "B3LYP", 
		 "basiset": "6-31G**", 
		 "properties": { 
			 "R2extent": 23579.4935, 
			 "electric_dipole_moment_norm": 8.57196854579, 
			 "electric_quadrupole_moment_norm": 30.8350705232, 
			 "total_energy": -1547.25242061, 
			 "HOMO_LUMO_gap": 0.27077, 
			 "cosmo_polarized_energy": -24.26, 
			 "cosmo_cavitation_energy": 67.0, 
			 "cosmo_dispersion_energy": -45.01, 
			 "cosmo_repulsion_energy": 3.24, 
			 "cosmo_total_nonelectrostatic_energy": 25.23, 
			 "SMD_solvation_energy": 10.55 
		},
		"coords": [
			{
				"x": 1.3615121878,
				"y": 0.5611007441,
				"z": -3.307514766,
				"element": "C" 
			},
			{
				"x": 1.3435868221,
				"y": -0.4355148972,
				"z": -4.4780796469,
				"element": "C" 
			},
			{
				"x": 2.4935547011,
				"y": -1.4467230654,
				"z": -4.3367366179,
				"element": "C" 
			},
			{
				"x": -0.0393083383,
				"y": -1.0837398072,
				"z": -4.7958815186,
				"element": "C" 
			},
			{
				"x": -1.0925005793,
				"y": -0.0183032431,
				"z": -5.1549913264,
				"element": "C" 
			},
			{
				"x": -0.6066901832,
				"y": -2.1973153085,
				"z": -3.8683373177,
				"element": "C" 
			},
			{
				"x": 0.2375147144,
				"y": -3.3695116396,
				"z": -3.9440990931,
				"element": "O" 
			},
			{
				"x": -0.7703628488,
				"y": -2.0081243794,
				"z": -2.3323604443,
				"element": "C" 
			},
			{
				"x": -1.1675013716,
				"y": -3.271179574,
				"z": -1.8006909273,
				"element": "O" 
			},
			{
				"x": -1.7929542127,
				"y": -0.9458289135,
				"z": -1.8675319379,
				"element": "C" 
			},
			{
				"x": -3.1852318579,
				"y": -1.187506345,
				"z": -2.4888424854,
				"element": "C" 
			},
			{
				"x": -1.9764397038,
				"y": -0.7594261351,
				"z": -0.3271761327,
				"element": "C" 
			},
			{
				"x": -2.6895658597,
				"y": -1.9128941251,
				"z": 0.4465162514,
				"element": "C" 
			},
			{
				"x": -2.3343076671,
				"y": -1.7027258554,
				"z": 1.948177516,
				"element": "C" 
			},
			{
				"x": -1.5679759781,
				"y": -0.364147664,
				"z": 1.9731721442,
				"element": "C" 
			},
			{
				"x": -0.7117528227,
				"y": 0.0024018471,
				"z": 3.2063825142,
				"element": "C" 
			},
			{
				"x": -1.5816321428,
				"y": -0.1004170796,
				"z": 4.4637648388,
				"element": "C" 
			},
			{
				"x": -0.8250501638,
				"y": -0.3338527715,
				"z": 5.65981349,
				"element": "O" 
			},
			{
				"x": 0.0002705477,
				"y": 0.6097488938,
				"z": 6.1679282781,
				"element": "C" 
			},
			{
				"x": 0.6876351046,
				"y": 0.3094083984,
				"z": 7.1186130268,
				"element": "O" 
			},
			{
				"x": 0.0200458265,
				"y": 2.0006162051,
				"z": 5.5268075142,
				"element": "C" 
			},
			{
				"x": 0.5813619433,
				"y": 2.9642505768,
				"z": 6.5957566018,
				"element": "C" 
			},
			{
				"x": 0.7549119914,
				"y": 4.3915968362,
				"z": 6.1086555582,
				"element": "C" 
			},
			{
				"x": -0.5215117731,
				"y": 4.937330485,
				"z": 5.7907799334,
				"element": "O" 
			},
			{
				"x": 1.653874637,
				"y": 4.3982538004,
				"z": 4.876208548,
				"element": "C" 
			},
			{
				"x": 1.7116353327,
				"y": 5.762469298,
				"z": 4.4416350015,
				"element": "O" 
			},
			{
				"x": 1.0732951462,
				"y": 3.5056530023,
				"z": 3.7779114938,
				"element": "C" 
			},
			{
				"x": 0.8012543555,
				"y": 2.0147795132,
				"z": 4.1520929532,
				"element": "C" 
			},
			{
				"x": 2.1393540379,
				"y": 1.2561266659,
				"z": 4.2960156348,
				"element": "C" 
			},
			{
				"x": -0.090733218,
				"y": 1.4199104906,
				"z": 2.9869138355,
				"element": "C" 
			},
			{
				"x": 0.6313527843,
				"y": 1.480710337,
				"z": 1.6135767875,
				"element": "C" 
			},
			{
				"x": -0.2453895341,
				"y": 1.0541326654,
				"z": 0.4228763308,
				"element": "C" 
			},
			{
				"x": -0.7993501918,
				"y": -0.3619904094,
				"z": 0.6197354327,
				"element": "C" 
			},
			{
				"x": 0.3469076802,
				"y": -1.4059237902,
				"z": 0.6174694513,
				"element": "C" 
			},
			{
				"x": 0.5761658911,
				"y": 1.3183706794,
				"z": -3.3907775769,
				"element": "H" 
			},
			{
				"x": 2.3212883207,
				"y": 1.0888233553,
				"z": -3.2837838725,
				"element": "H" 
			},
			{
				"x": 1.2467519231,
				"y": 0.0595117077,
				"z": -2.3428099303,
				"element": "H" 
			},
			{
				"x": 1.5610295638,
				"y": 0.1557542949,
				"z": -5.3806855895,
				"element": "H" 
			},
			{
				"x": 2.5390588545,
				"y": -2.1257493405,
				"z": -5.1947498725,
				"element": "H" 
			},
			{
				"x": 3.4514011615,
				"y": -0.917172785,
				"z": -4.2803799389,
				"element": "H" 
			},
			{
				"x": 2.3912776426,
				"y": -2.0636511266,
				"z": -3.4410633208,
				"element": "H" 
			},
			{
				"x": 0.1363470617,
				"y": -1.6332439903,
				"z": -5.7362003188,
				"element": "H" 
			},
			{
				"x": -1.9983289794,
				"y": -0.4804753327,
				"z": -5.5609806951,
				"element": "H" 
			},
			{
				"x": -1.3905896638,
				"y": 0.5957053973,
				"z": -4.301953395,
				"element": "H" 
			},
			{
				"x": -0.6979171032,
				"y": 0.6564373455,
				"z": -5.9220212265,
				"element": "H" 
			},
			{
				"x": -1.5964777711,
				"y": -2.4660212599,
				"z": -4.2651296951,
				"element": "H" 
			},
			{
				"x": 0.1932674935,
				"y": -3.7191072121,
				"z": -4.8422895716,
				"element": "H" 
			},
			{
				"x": 0.2192804397,
				"y": -1.7466922576,
				"z": -1.9411072623,
				"element": "H" 
			},
			{
				"x": -0.6307345344,
				"y": -3.9218819945,
				"z": -2.2802892699,
				"element": "H" 
			},
			{
				"x": -1.4170913868,
				"y": 0.0167334673,
				"z": -2.2376447371,
				"element": "H" 
			},
			{
				"x": -3.1843383477,
				"y": -1.0563066416,
				"z": -3.5734208971,
				"element": "H" 
			},
			{
				"x": -3.9178992104,
				"y": -0.4841633634,
				"z": -2.079705946,
				"element": "H" 
			},
			{
				"x": -3.5300911572,
				"y": -2.2018395308,
				"z": -2.2726759791,
				"element": "H" 
			},
			{
				"x": -2.6543455076,
				"y": 0.1063775977,
				"z": -0.274828354,
				"element": "H" 
			},
			{
				"x": -3.7711032846,
				"y": -1.8733889629,
				"z": 0.2848746359,
				"element": "H" 
			},
			{
				"x": -2.3497973381,
				"y": -2.8844980985,
				"z": 0.0899347672,
				"element": "H" 
			},
			{
				"x": -1.6992864191,
				"y": -2.5166947443,
				"z": 2.3178449818,
				"element": "H" 
			},
			{
				"x": -3.2289371544,
				"y": -1.6895934734,
				"z": 2.5780776433,
				"element": "H" 
			},
			{
				"x": -2.3234202791,
				"y": 0.43383604,
				"z": 1.8838044186,
				"element": "H" 
			},
			{
				"x": 0.0828751029,
				"y": -0.7449265496,
				"z": 3.3275590951,
				"element": "H" 
			},
			{
				"x": -2.2313102882,
				"y": 0.7768094954,
				"z": 4.5778945927,
				"element": "H" 
			},
			{
				"x": -2.2242028944,
				"y": -0.978938918,
				"z": 4.4051725825,
				"element": "H" 
			},
			{
				"x": -1.0071438134,
				"y": 2.3173782721,
				"z": 5.3144299615,
				"element": "H" 
			},
			{
				"x": 1.5402259687,
				"y": 2.5891543648,
				"z": 6.9633754469,
				"element": "H" 
			},
			{
				"x": -0.0931622127,
				"y": 2.9579143915,
				"z": 7.4572331419,
				"element": "H" 
			},
			{
				"x": 1.2353887123,
				"y": 4.9916719653,
				"z": 6.897930711,
				"element": "H" 
			},
			{
				"x": -0.3363810175,
				"y": 5.7560149245,
				"z": 5.3060937064,
				"element": "H" 
			},
			{
				"x": 2.6576565519,
				"y": 4.0550969152,
				"z": 5.1698110041,
				"element": "H" 
			},
			{
				"x": 2.1080624892,
				"y": 5.7880514821,
				"z": 3.5614331176,
				"element": "H" 
			},
			{
				"x": 1.7543816684,
				"y": 3.5437576392,
				"z": 2.9201193686,
				"element": "H" 
			},
			{
				"x": 0.1311154218,
				"y": 3.9705373874,
				"z": 3.466375365,
				"element": "H" 
			},
			{
				"x": 2.7023484025,
				"y": 1.5979991533,
				"z": 5.1686756895,
				"element": "H" 
			},
			{
				"x": 1.9878390548,
				"y": 0.1799517631,
				"z": 4.4213743094,
				"element": "H" 
			},
			{
				"x": 2.7738378783,
				"y": 1.4038279006,
				"z": 3.4174633057,
				"element": "H" 
			},
			{
				"x": -0.9544935051,
				"y": 2.1013746373,
				"z": 2.9177681804,
				"element": "H" 
			},
			{
				"x": 0.9854331238,
				"y": 2.4967751851,
				"z": 1.4233302915,
				"element": "H" 
			},
			{
				"x": 1.5257265394,
				"y": 0.8479046329,
				"z": 1.641589244,
				"element": "H" 
			},
			{
				"x": 0.3417884449,
				"y": 1.1301875453,
				"z": -0.5002698763,
				"element": "H" 
			},
			{
				"x": -1.0838345856,
				"y": 1.7581964683,
				"z": 0.3195061897,
				"element": "H" 
			},
			{
				"x": -0.016798395,
				"y": -2.4139516815,
				"z": 0.4071807705,
				"element": "H" 
			},
			{
				"x": 0.8822094019,
				"y": -1.4382242661,
				"z": 1.5697474612,
				"element": "H" 
			},
			{
				"x": 1.09231837,
				"y": -1.1621972354,
				"z": -0.1459935786,
				"element": "H" 
			}
		],
		 "valence_orbital": [ 
			{
				"type": "occ",
				"energy": -0.27408,
				"method": "rhf"
			},
			{
				"type": "occ",
				"energy": -0.26906,
				"method": "rhf"
			},
			{
				"type": "occ",
				"energy": -0.25964,
				"method": "rhf"
			},
			{
				"type": "occ",
				"energy": -0.25787,
				"method": "rhf"
			},
			{
				"type": "occ",
				"energy": -0.25147,
				"method": "rhf"
			},
			{
				"type": "unocc",
				"energy": 0.0193,
				"method": "rhf"
			},
			{
				"type": "unocc",
				"energy": 0.04739,
				"method": "rhf"
			},
			{
				"type": "unocc",
				"energy": 0.06245,
				"method": "rhf"
			},
			{
				"type": "unocc",
				"energy": 0.06415,
				"method": "rhf"
			},
			{
				"type": "unocc",
				"energy": 0.0706,
				"method": "rhf"
			}
		],
		"cosmo_sigma_profile": { 
			"-0.025": 0.0,
			"-0.024": 0.0,
			"-0.023": 0.0,
			"-0.022": 0.0,
			"-0.021": 0.0,
			"-0.02": 0.0,
			"-0.019": 0.0,
			"-0.018": 0.0,
			"-0.017": 0.0,
			"-0.016": 0.321066248203,
			"-0.015": 1.62171817385,
			"-0.014": 2.16168994009,
			"-0.013": 2.18649926856,
			"-0.012": 1.07924953381,
			"-0.011": 3.16705261442,
			"-0.01": 2.86972035421,
			"-0.009": 2.63190745309,
			"-0.008": 2.68884613579,
			"-0.007": 4.70845374001,
			"-0.006": 7.45630997018,
			"-0.005": 12.6159364904,
			"-0.004": 29.7381610769,
			"-0.003": 49.3873458043,
			"-0.002": 68.3575139056,
			"-0.001": 74.2913541956,
			"0.0": 66.0223229991,
			"0.001": 52.4373659258,
			"0.002": 35.126511128,
			"0.003": 14.1640728475,
			"0.004": 9.17092582543,
			"0.005": 8.45806459211,
			"0.006": 7.99733862447,
			"0.007": 6.71302857044,
			"0.008": 6.21943678655,
			"0.009": 8.34674526931,
			"0.01": 6.78301020725,
			"0.011": 7.07057336308,
			"0.012": 8.23736836797,
			"0.013": 5.6228379736,
			"0.014": 3.1518100531,
			"0.015": 0.299610495382,
			"0.016": 0.0,
			"0.017": 0.0,
			"0.018": 0.0,
			"0.019": 0.0,
			"0.02": 0.0,
			"0.021": 0.0,
			"0.022": 0.0,
			"0.023": 0.0,
			"0.024": 0.0,
			"0.025": 0.0
		}
	}
}
