{
	 "smiles": "CC(C)=CC1C(C(=O)OCN2C(=O)C3=C(CCCC3)C2=O)C1(C)C", 
	 "Tm": 342.15, 
	 "num_atms": 49, 
	 "gaussian": { 
		 "optdone": 1, 
		 "sigma_profile": "yes", 
		 "theory": "DFT", 
		 "functional": "B3LYP", 
		 "basiset": "6-31G**", 
		 "properties": { 
			 "R2extent": 10602.8771, 
			 "electric_dipole_moment_norm": 4.99027023216, 
			 "electric_quadrupole_moment_norm": 19.8623186658, 
			 "total_energy": -1094.7514392, 
			 "HOMO_LUMO_gap": 0.12815, 
			 "cosmo_polarized_energy": -15.04, 
			 "cosmo_cavitation_energy": 51.58, 
			 "cosmo_dispersion_energy": -33.58, 
			 "cosmo_repulsion_energy": 2.66, 
			 "cosmo_total_nonelectrostatic_energy": 20.65, 
			 "SMD_solvation_energy": 10.17 
		},
		"coords": [
			{
				"x": -3.6532811125,
				"y": 2.3293401275,
				"z": -4.5854393344,
				"element": "C" 
			},
			{
				"x": -2.7408838026,
				"y": 2.0173370182,
				"z": -3.4237692866,
				"element": "C" 
			},
			{
				"x": -1.3111272729,
				"y": 1.7313208802,
				"z": -3.8109435072,
				"element": "C" 
			},
			{
				"x": -3.2147284668,
				"y": 2.007189064,
				"z": -2.1658072981,
				"element": "C" 
			},
			{
				"x": -2.4623959283,
				"y": 1.7114002109,
				"z": -0.9238321169,
				"element": "C" 
			},
			{
				"x": -3.1705127061,
				"y": 1.0260222597,
				"z": 0.2501138356,
				"element": "C" 
			},
			{
				"x": -2.5988632589,
				"y": -0.1412206074,
				"z": 0.9694117212,
				"element": "C" 
			},
			{
				"x": -3.2447623262,
				"y": -0.8909020767,
				"z": 1.6747309613,
				"element": "O" 
			},
			{
				"x": -1.2636815979,
				"y": -0.3080032453,
				"z": 0.7620215536,
				"element": "O" 
			},
			{
				"x": -0.6695608684,
				"y": -1.3935948142,
				"z": 1.5040096115,
				"element": "C" 
			},
			{
				"x": 0.7115349205,
				"y": -1.4676276649,
				"z": 1.152167975,
				"element": "N" 
			},
			{
				"x": 1.2365116383,
				"y": -2.2806762017,
				"z": 0.1272817574,
				"element": "C" 
			},
			{
				"x": 0.6041975332,
				"y": -3.0804027724,
				"z": -0.5299855014,
				"element": "O" 
			},
			{
				"x": 2.6946451446,
				"y": -1.9507521084,
				"z": 0.0491134502,
				"element": "C" 
			},
			{
				"x": 2.9742572828,
				"y": -0.9956806742,
				"z": 0.9532127909,
				"element": "C" 
			},
			{
				"x": 4.3273409248,
				"y": -0.4051402231,
				"z": 1.1871344389,
				"element": "C" 
			},
			{
				"x": 5.4034833839,
				"y": -1.2770113316,
				"z": 0.5075175749,
				"element": "C" 
			},
			{
				"x": 4.9786429816,
				"y": -1.7253990206,
				"z": -0.9042860252,
				"element": "C" 
			},
			{
				"x": 3.6881779597,
				"y": -2.5704567033,
				"z": -0.8797289175,
				"element": "C" 
			},
			{
				"x": 1.7171879096,
				"y": -0.6369243053,
				"z": 1.6824807604,
				"element": "C" 
			},
			{
				"x": 1.5579774676,
				"y": 0.185391368,
				"z": 2.5612164112,
				"element": "O" 
			},
			{
				"x": -2.6560910293,
				"y": 2.4652181121,
				"z": 0.3782628905,
				"element": "C" 
			},
			{
				"x": -3.7229895498,
				"y": 3.545256234,
				"z": 0.4749768932,
				"element": "C" 
			},
			{
				"x": -1.4292684218,
				"y": 2.7731401818,
				"z": 1.222111108,
				"element": "C" 
			},
			{
				"x": -3.2960145091,
				"y": 3.2039399404,
				"z": -5.1457703992,
				"element": "H" 
			},
			{
				"x": -3.6823429126,
				"y": 1.4954641271,
				"z": -5.2997227087,
				"element": "H" 
			},
			{
				"x": -4.6774440926,
				"y": 2.5310615733,
				"z": -4.2594515345,
				"element": "H" 
			},
			{
				"x": -0.8789453923,
				"y": 2.5872403421,
				"z": -4.3461655608,
				"element": "H" 
			},
			{
				"x": -0.6654538208,
				"y": 1.5112420781,
				"z": -2.9591660728,
				"element": "H" 
			},
			{
				"x": -1.2608894041,
				"y": 0.8780136051,
				"z": -4.5000190673,
				"element": "H" 
			},
			{
				"x": -4.272526037,
				"y": 2.2300423784,
				"z": -2.0336606433,
				"element": "H" 
			},
			{
				"x": -1.4468560189,
				"y": 1.3558831428,
				"z": -1.0649675252,
				"element": "H" 
			},
			{
				"x": -4.2507371681,
				"y": 0.9359214484,
				"z": 0.1846939166,
				"element": "H" 
			},
			{
				"x": -0.7703168123,
				"y": -1.1974368488,
				"z": 2.5725515671,
				"element": "H" 
			},
			{
				"x": -1.1574617345,
				"y": -2.3322705438,
				"z": 1.2397776924,
				"element": "H" 
			},
			{
				"x": 4.5141868266,
				"y": -0.3045620116,
				"z": 2.2625288074,
				"element": "H" 
			},
			{
				"x": 4.3480104923,
				"y": 0.6188644694,
				"z": 0.7876098834,
				"element": "H" 
			},
			{
				"x": 6.3494829957,
				"y": -0.7279183041,
				"z": 0.4596698836,
				"element": "H" 
			},
			{
				"x": 5.5863616015,
				"y": -2.1651070776,
				"z": 1.1263252835,
				"element": "H" 
			},
			{
				"x": 4.812221958,
				"y": -0.8376670547,
				"z": -1.5282602773,
				"element": "H" 
			},
			{
				"x": 5.7854263917,
				"y": -2.2945819581,
				"z": -1.3773707821,
				"element": "H" 
			},
			{
				"x": 3.9024717564,
				"y": -3.5961467033,
				"z": -0.5470750653,
				"element": "H" 
			},
			{
				"x": 3.2556008288,
				"y": -2.6709285885,
				"z": -1.8818868117,
				"element": "H" 
			},
			{
				"x": -4.0131439786,
				"y": 3.6987636291,
				"z": 1.5204299917,
				"element": "H" 
			},
			{
				"x": -4.6270533891,
				"y": 3.2999541687,
				"z": -0.0872482021,
				"element": "H" 
			},
			{
				"x": -3.3388822034,
				"y": 4.4977264105,
				"z": 0.0914838807,
				"element": "H" 
			},
			{
				"x": -1.706539229,
				"y": 2.899648543,
				"z": 2.2754797106,
				"element": "H" 
			},
			{
				"x": -0.6729100127,
				"y": 1.9893034196,
				"z": 1.1680537569,
				"element": "H" 
			},
			{
				"x": -0.9752569412,
				"y": 3.7129261069,
				"z": 0.8862885301,
				"element": "H" 
			}
		],
		 "valence_orbital": [ 
			{
				"type": "occ",
				"energy": -0.27933,
				"method": "rhf"
			},
			{
				"type": "occ",
				"energy": -0.27558,
				"method": "rhf"
			},
			{
				"type": "occ",
				"energy": -0.27049,
				"method": "rhf"
			},
			{
				"type": "occ",
				"energy": -0.26159,
				"method": "rhf"
			},
			{
				"type": "occ",
				"energy": -0.21786,
				"method": "rhf"
			},
			{
				"type": "unocc",
				"energy": -0.08971,
				"method": "rhf"
			},
			{
				"type": "unocc",
				"energy": 0.00452,
				"method": "rhf"
			},
			{
				"type": "unocc",
				"energy": 0.03291,
				"method": "rhf"
			},
			{
				"type": "unocc",
				"energy": 0.03772,
				"method": "rhf"
			},
			{
				"type": "unocc",
				"energy": 0.06294,
				"method": "rhf"
			}
		],
		"cosmo_sigma_profile": { 
			"-0.025": 0.0,
			"-0.024": 0.0,
			"-0.023": 0.0,
			"-0.022": 0.0,
			"-0.021": 0.0,
			"-0.02": 0.0,
			"-0.019": 0.0,
			"-0.018": 0.0,
			"-0.017": 0.0,
			"-0.016": 0.0,
			"-0.015": 0.0,
			"-0.014": 0.0,
			"-0.013": 0.0,
			"-0.012": 0.0,
			"-0.011": 0.0,
			"-0.01": 0.0,
			"-0.009": 0.0,
			"-0.008": 0.733913624614,
			"-0.007": 2.76825138447,
			"-0.006": 6.81730890927,
			"-0.005": 18.9287229274,
			"-0.004": 33.9319734599,
			"-0.003": 60.1373666417,
			"-0.002": 57.0396348222,
			"-0.001": 48.6171106679,
			"0.0": 43.8979624202,
			"0.001": 34.0004733077,
			"0.002": 17.8954177252,
			"0.003": 13.41431172,
			"0.004": 10.1248758072,
			"0.005": 6.63879973992,
			"0.006": 7.16774226897,
			"0.007": 6.0356800711,
			"0.008": 4.47123797183,
			"0.009": 5.69041919518,
			"0.01": 8.15635623619,
			"0.011": 10.8435624488,
			"0.012": 5.52390991824,
			"0.013": 1.3073109402,
			"0.014": 0.0512553318571,
			"0.015": 0.0,
			"0.016": 0.0,
			"0.017": 0.0,
			"0.018": 0.0,
			"0.019": 0.0,
			"0.02": 0.0,
			"0.021": 0.0,
			"0.022": 0.0,
			"0.023": 0.0,
			"0.024": 0.0,
			"0.025": 0.0
		}
	}
}
