{
	 "smiles": "COC1=CC=C(C=C1)C(C)(C)C", 
	 "Tm": 291.15, 
	 "num_atms": 28, 
	 "gaussian": { 
		 "optdone": 1, 
		 "sigma_profile": "yes", 
		 "theory": "DFT", 
		 "functional": "B3LYP", 
		 "basiset": "6-31G**", 
		 "properties": { 
			 "R2extent": 2761.6112, 
			 "electric_dipole_moment_norm": 1.19074805899, 
			 "electric_quadrupole_moment_norm": 8.40094999033, 
			 "total_energy": -504.039416579, 
			 "HOMO_LUMO_gap": 0.21335, 
			 "cosmo_polarized_energy": -5.3, 
			 "cosmo_cavitation_energy": 29.23, 
			 "cosmo_dispersion_energy": -21.05, 
			 "cosmo_repulsion_energy": 1.66, 
			 "cosmo_total_nonelectrostatic_energy": 9.84, 
			 "SMD_solvation_energy": 5.92 
		},
		"coords": [
			{
				"x": 0.9090329217,
				"y": 3.2171331352,
				"z": 2.4281300096,
				"element": "C" 
			},
			{
				"x": 1.1831707732,
				"y": 2.772998149,
				"z": 1.1103457286,
				"element": "O" 
			},
			{
				"x": 0.6954203151,
				"y": 1.5542457863,
				"z": 0.7288441669,
				"element": "C" 
			},
			{
				"x": -0.0580465176,
				"y": 0.7030672466,
				"z": 1.53930212,
				"element": "C" 
			},
			{
				"x": -0.5033404968,
				"y": -0.5251934611,
				"z": 1.0342514948,
				"element": "C" 
			},
			{
				"x": -0.2206351459,
				"y": -0.942488644,
				"z": -0.2693253899,
				"element": "C" 
			},
			{
				"x": 0.5413958821,
				"y": -0.0624556886,
				"z": -1.0630058003,
				"element": "C" 
			},
			{
				"x": 0.9927894991,
				"y": 1.1587668606,
				"z": -0.5835031293,
				"element": "C" 
			},
			{
				"x": -0.6975679672,
				"y": -2.2865179212,
				"z": -0.8479329079,
				"element": "C" 
			},
			{
				"x": -1.5909438993,
				"y": -2.0296198711,
				"z": -2.0849639642,
				"element": "C" 
			},
			{
				"x": -1.5143145069,
				"y": -3.1034117909,
				"z": 0.171248323,
				"element": "C" 
			},
			{
				"x": 0.5277208533,
				"y": -3.1317519352,
				"z": -1.2706213215,
				"element": "C" 
			},
			{
				"x": -0.1695456565,
				"y": 3.3197985389,
				"z": 2.6065029214,
				"element": "H" 
			},
			{
				"x": 1.3310656589,
				"y": 2.5391982108,
				"z": 3.181775078,
				"element": "H" 
			},
			{
				"x": 1.382043228,
				"y": 4.1960412458,
				"z": 2.5225874699,
				"element": "H" 
			},
			{
				"x": -0.3069850535,
				"y": 0.9754645347,
				"z": 2.5583763812,
				"element": "H" 
			},
			{
				"x": -1.0856395702,
				"y": -1.157797382,
				"z": 1.6948957556,
				"element": "H" 
			},
			{
				"x": 0.791045864,
				"y": -0.3354332968,
				"z": -2.0844939343,
				"element": "H" 
			},
			{
				"x": 1.5790675427,
				"y": 1.8264597087,
				"z": -1.206854366,
				"element": "H" 
			},
			{
				"x": -1.9326266823,
				"y": -2.9781586635,
				"z": -2.5152319885,
				"element": "H" 
			},
			{
				"x": -1.0548913001,
				"y": -1.4841017082,
				"z": -2.8674225825,
				"element": "H" 
			},
			{
				"x": -2.4738055255,
				"y": -1.4412501932,
				"z": -1.814042682,
				"element": "H" 
			},
			{
				"x": -1.8317077945,
				"y": -4.048476345,
				"z": -0.2816126397,
				"element": "H" 
			},
			{
				"x": -2.4167123594,
				"y": -2.5712937579,
				"z": 0.4902148243,
				"element": "H" 
			},
			{
				"x": -0.9269410293,
				"y": -3.3461057179,
				"z": 1.0630462775,
				"element": "H" 
			},
			{
				"x": 1.1323211086,
				"y": -2.6215447479,
				"z": -2.0264880566,
				"element": "H" 
			},
			{
				"x": 0.205298313,
				"y": -4.0901488453,
				"z": -1.6938465781,
				"element": "H" 
			},
			{
				"x": 1.1743315453,
				"y": -3.3394234464,
				"z": -0.4116752101,
				"element": "H" 
			}
		],
		 "valence_orbital": [ 
			{
				"type": "occ",
				"energy": -0.31712,
				"method": "rhf"
			},
			{
				"type": "occ",
				"energy": -0.3084,
				"method": "rhf"
			},
			{
				"type": "occ",
				"energy": -0.30321,
				"method": "rhf"
			},
			{
				"type": "occ",
				"energy": -0.24309,
				"method": "rhf"
			},
			{
				"type": "occ",
				"energy": -0.20848,
				"method": "rhf"
			},
			{
				"type": "unocc",
				"energy": 0.00487,
				"method": "rhf"
			},
			{
				"type": "unocc",
				"energy": 0.01935,
				"method": "rhf"
			},
			{
				"type": "unocc",
				"energy": 0.08366,
				"method": "rhf"
			},
			{
				"type": "unocc",
				"energy": 0.10218,
				"method": "rhf"
			},
			{
				"type": "unocc",
				"energy": 0.11532,
				"method": "rhf"
			}
		],
		"cosmo_sigma_profile": { 
			"-0.025": 0.0,
			"-0.024": 0.0,
			"-0.023": 0.0,
			"-0.022": 0.0,
			"-0.021": 0.0,
			"-0.02": 0.0,
			"-0.019": 0.0,
			"-0.018": 0.0,
			"-0.017": 0.0,
			"-0.016": 0.0,
			"-0.015": 0.0,
			"-0.014": 0.0,
			"-0.013": 0.0,
			"-0.012": 0.0,
			"-0.011": 0.0,
			"-0.01": 0.0,
			"-0.009": 0.0,
			"-0.008": 0.0,
			"-0.007": 0.00930183330111,
			"-0.006": 2.96567304069,
			"-0.005": 14.7139277578,
			"-0.004": 17.5135357531,
			"-0.003": 25.7246743623,
			"-0.002": 30.3910686486,
			"-0.001": 22.5133980557,
			"0.0": 21.7480715332,
			"0.001": 26.6073458411,
			"0.002": 17.9506964564,
			"0.003": 7.84949277808,
			"0.004": 10.6444423639,
			"0.005": 9.56812371368,
			"0.006": 10.2400201758,
			"0.007": 4.61576773371,
			"0.008": 1.37363935615,
			"0.009": 1.6187132006,
			"0.01": 1.12245538207,
			"0.011": 1.23323243557,
			"0.012": 0.00143447021943,
			"0.013": 0.0,
			"0.014": 0.0,
			"0.015": 0.0,
			"0.016": 0.0,
			"0.017": 0.0,
			"0.018": 0.0,
			"0.019": 0.0,
			"0.02": 0.0,
			"0.021": 0.0,
			"0.022": 0.0,
			"0.023": 0.0,
			"0.024": 0.0,
			"0.025": 0.0
		}
	}
}
