{
	 "smiles": "CN(C)C1=CC=C(CO)C=C1", 
	 "Tm": 342.15, 
	 "num_atms": 24, 
	 "gaussian": { 
		 "optdone": 1, 
		 "sigma_profile": "yes", 
		 "theory": "DFT", 
		 "functional": "B3LYP", 
		 "basiset": "6-31G**", 
		 "properties": { 
			 "R2extent": 2399.8927, 
			 "electric_dipole_moment_norm": 1.65941486675, 
			 "electric_quadrupole_moment_norm": 14.5039128652, 
			 "total_energy": -480.747040283, 
			 "HOMO_LUMO_gap": 0.1943, 
			 "cosmo_polarized_energy": -10.16, 
			 "cosmo_cavitation_energy": 26.21, 
			 "cosmo_dispersion_energy": -19.55, 
			 "cosmo_repulsion_energy": 1.57, 
			 "cosmo_total_nonelectrostatic_energy": 8.22, 
			 "SMD_solvation_energy": 4.11 
		},
		"coords": [
			{
				"x": -2.3310431856,
				"y": 1.746734185,
				"z": -1.0478696555,
				"element": "C" 
			},
			{
				"x": -0.9081274785,
				"y": 1.7808475136,
				"z": -0.7577264528,
				"element": "N" 
			},
			{
				"x": -0.0805434091,
				"y": 2.6831595931,
				"z": -1.5389580105,
				"element": "C" 
			},
			{
				"x": -0.3146169828,
				"y": 0.6763974766,
				"z": -0.1480426045,
				"element": "C" 
			},
			{
				"x": 1.0890859888,
				"y": 0.5528324565,
				"z": -0.0539334169,
				"element": "C" 
			},
			{
				"x": 1.6689339834,
				"y": -0.5350617703,
				"z": 0.594022184,
				"element": "C" 
			},
			{
				"x": 0.8964428183,
				"y": -1.5547076391,
				"z": 1.1551993283,
				"element": "C" 
			},
			{
				"x": 1.5369390836,
				"y": -2.7586653889,
				"z": 1.8005089239,
				"element": "C" 
			},
			{
				"x": 0.7663786496,
				"y": -3.1602736487,
				"z": 2.9307706107,
				"element": "O" 
			},
			{
				"x": -0.4943697543,
				"y": -1.4423808749,
				"z": 1.0538531741,
				"element": "C" 
			},
			{
				"x": -1.0925404861,
				"y": -0.3588716124,
				"z": 0.419521249,
				"element": "C" 
			},
			{
				"x": -2.6251685365,
				"y": 2.6932611849,
				"z": -1.5050109385,
				"element": "H" 
			},
			{
				"x": -2.6148228363,
				"y": 0.9310142415,
				"z": -1.7325836079,
				"element": "H" 
			},
			{
				"x": -2.9164267936,
				"y": 1.632380599,
				"z": -0.1287657163,
				"element": "H" 
			},
			{
				"x": 0.4175399273,
				"y": 2.1883170027,
				"z": -2.3886203434,
				"element": "H" 
			},
			{
				"x": 0.6955020163,
				"y": 3.1427888905,
				"z": -0.9165399303,
				"element": "H" 
			},
			{
				"x": -0.7025424924,
				"y": 3.4897001526,
				"z": -1.9313009575,
				"element": "H" 
			},
			{
				"x": 1.7371866592,
				"y": 1.3113667899,
				"z": -0.4753053133,
				"element": "H" 
			},
			{
				"x": 2.7540876422,
				"y": -0.5859940692,
				"z": 0.6579998317,
				"element": "H" 
			},
			{
				"x": 1.5996933191,
				"y": -3.5851013146,
				"z": 1.0710013163,
				"element": "H" 
			},
			{
				"x": 2.5720691095,
				"y": -2.5115463438,
				"z": 2.0874518186,
				"element": "H" 
			},
			{
				"x": 1.0819915238,
				"y": -4.0292890834,
				"z": 3.2076277229,
				"element": "H" 
			},
			{
				"x": -1.1180362465,
				"y": -2.2148268059,
				"z": 1.4928598018,
				"element": "H" 
			},
			{
				"x": -2.1739125195,
				"y": -0.3211815347,
				"z": 0.3693409863,
				"element": "H" 
			}
		],
		 "valence_orbital": [ 
			{
				"type": "occ",
				"energy": -0.318,
				"method": "rhf"
			},
			{
				"type": "occ",
				"energy": -0.2765,
				"method": "rhf"
			},
			{
				"type": "occ",
				"energy": -0.25652,
				"method": "rhf"
			},
			{
				"type": "occ",
				"energy": -0.23469,
				"method": "rhf"
			},
			{
				"type": "occ",
				"energy": -0.18066,
				"method": "rhf"
			},
			{
				"type": "unocc",
				"energy": 0.01364,
				"method": "rhf"
			},
			{
				"type": "unocc",
				"energy": 0.02308,
				"method": "rhf"
			},
			{
				"type": "unocc",
				"energy": 0.08613,
				"method": "rhf"
			},
			{
				"type": "unocc",
				"energy": 0.09124,
				"method": "rhf"
			},
			{
				"type": "unocc",
				"energy": 0.11251,
				"method": "rhf"
			}
		],
		"cosmo_sigma_profile": { 
			"-0.025": 0.0,
			"-0.024": 0.0,
			"-0.023": 0.0,
			"-0.022": 0.0,
			"-0.021": 0.0,
			"-0.02": 0.0,
			"-0.019": 0.0,
			"-0.018": 0.0,
			"-0.017": 0.0,
			"-0.016": 0.269752151726,
			"-0.015": 1.29638825306,
			"-0.014": 0.706627094722,
			"-0.013": 1.02325744857,
			"-0.012": 1.13923445448,
			"-0.011": 0.837901669849,
			"-0.01": 0.731551150771,
			"-0.009": 0.477105507943,
			"-0.008": 0.661653457939,
			"-0.007": 1.13174852382,
			"-0.006": 4.50206348991,
			"-0.005": 12.0473424689,
			"-0.004": 18.0458818798,
			"-0.003": 27.0401921154,
			"-0.002": 26.0142901771,
			"-0.001": 23.1795283941,
			"0.0": 10.9814543916,
			"0.001": 8.25680912656,
			"0.002": 8.71959973176,
			"0.003": 7.80628970363,
			"0.004": 6.45366197808,
			"0.005": 8.53880840533,
			"0.006": 9.5810354026,
			"0.007": 10.8762012155,
			"0.008": 5.81994652244,
			"0.009": 1.66154249947,
			"0.01": 2.03314822399,
			"0.011": 1.48904507072,
			"0.012": 1.12584404519,
			"0.013": 1.48156478711,
			"0.014": 1.33244806389,
			"0.015": 0.51457683207,
			"0.016": 0.0,
			"0.017": 0.0,
			"0.018": 0.0,
			"0.019": 0.0,
			"0.02": 0.0,
			"0.021": 0.0,
			"0.022": 0.0,
			"0.023": 0.0,
			"0.024": 0.0,
			"0.025": 0.0
		}
	}
}
