{
	 "smiles": "CC(C)(SC(=O)N1CCCCC1)C1=CC=CC=C1", 
	 "Tm": 312.25, 
	 "num_atms": 39, 
	 "gaussian": { 
		 "optdone": 1, 
		 "sigma_profile": "yes", 
		 "theory": "DFT", 
		 "functional": "B3LYP", 
		 "basiset": "6-31G**", 
		 "properties": { 
			 "R2extent": 5995.0096, 
			 "electric_dipole_moment_norm": 2.48170289318, 
			 "electric_quadrupole_moment_norm": 7.36891637081, 
			 "total_energy": -1112.44136793, 
			 "HOMO_LUMO_gap": 0.22011, 
			 "cosmo_polarized_energy": -10.13, 
			 "cosmo_cavitation_energy": 39.78, 
			 "cosmo_dispersion_energy": -28.56, 
			 "cosmo_repulsion_energy": 2.2, 
			 "cosmo_total_nonelectrostatic_energy": 13.42, 
			 "SMD_solvation_energy": 5.91 
		},
		"coords": [
			{
				"x": 1.5813532797,
				"y": 1.0474866331,
				"z": 3.0923224348,
				"element": "C" 
			},
			{
				"x": 1.3952382141,
				"y": 0.3340613845,
				"z": 1.7336096983,
				"element": "C" 
			},
			{
				"x": 2.7129665307,
				"y": 0.4173729247,
				"z": 0.9491761817,
				"element": "C" 
			},
			{
				"x": 0.0866057253,
				"y": 1.3858631549,
				"z": 0.8772282349,
				"element": "S" 
			},
			{
				"x": -0.1252785782,
				"y": 0.5271663077,
				"z": -0.7210443935,
				"element": "C" 
			},
			{
				"x": 0.526592627,
				"y": -0.460709441,
				"z": -1.0261496122,
				"element": "O" 
			},
			{
				"x": -1.0746297812,
				"y": 1.0862266748,
				"z": -1.5294399941,
				"element": "N" 
			},
			{
				"x": -1.3874480079,
				"y": 0.3991264197,
				"z": -2.7949303484,
				"element": "C" 
			},
			{
				"x": -2.8895756938,
				"y": 0.4733387407,
				"z": -3.077091402,
				"element": "C" 
			},
			{
				"x": -3.3852165195,
				"y": 1.9351229476,
				"z": -3.1959782347,
				"element": "C" 
			},
			{
				"x": -2.463564396,
				"y": 2.9063631048,
				"z": -2.4283779209,
				"element": "C" 
			},
			{
				"x": -1.8716756977,
				"y": 2.2676007627,
				"z": -1.1683101721,
				"element": "C" 
			},
			{
				"x": 0.8863822626,
				"y": -1.093698417,
				"z": 1.9646482777,
				"element": "C" 
			},
			{
				"x": -0.3116539502,
				"y": -1.3113375464,
				"z": 2.6651977737,
				"element": "C" 
			},
			{
				"x": -0.7605366266,
				"y": -2.5995364785,
				"z": 2.9471483113,
				"element": "C" 
			},
			{
				"x": -0.0192250224,
				"y": -3.7086146916,
				"z": 2.5332895639,
				"element": "C" 
			},
			{
				"x": 1.1674652648,
				"y": -3.5089394521,
				"z": 1.8309200228,
				"element": "C" 
			},
			{
				"x": 1.6138182268,
				"y": -2.2157168993,
				"z": 1.5483441029,
				"element": "C" 
			},
			{
				"x": 2.3372742517,
				"y": 0.5079991943,
				"z": 3.6723523993,
				"element": "H" 
			},
			{
				"x": 0.6604206028,
				"y": 1.0693155875,
				"z": 3.6797234454,
				"element": "H" 
			},
			{
				"x": 1.9259365833,
				"y": 2.076557908,
				"z": 2.9502459393,
				"element": "H" 
			},
			{
				"x": 3.5089209074,
				"y": -0.0986180494,
				"z": 1.4986131622,
				"element": "H" 
			},
			{
				"x": 3.0083210832,
				"y": 1.4639094302,
				"z": 0.8379836776,
				"element": "H" 
			},
			{
				"x": 2.6155873367,
				"y": -0.0274171007,
				"z": -0.0408247663,
				"element": "H" 
			},
			{
				"x": -1.0475054798,
				"y": -0.63199909,
				"z": -2.6945864275,
				"element": "H" 
			},
			{
				"x": -0.8166486908,
				"y": 0.8487970145,
				"z": -3.6201542567,
				"element": "H" 
			},
			{
				"x": -3.1120511886,
				"y": -0.0883135686,
				"z": -3.9905201444,
				"element": "H" 
			},
			{
				"x": -3.4148534492,
				"y": -0.0373345174,
				"z": -2.2616036049,
				"element": "H" 
			},
			{
				"x": -3.4295317682,
				"y": 2.2399915695,
				"z": -4.2473890042,
				"element": "H" 
			},
			{
				"x": -4.4088096934,
				"y": 2.0057802241,
				"z": -2.8113111304,
				"element": "H" 
			},
			{
				"x": -1.6359877613,
				"y": 3.2278050359,
				"z": -3.0714600699,
				"element": "H" 
			},
			{
				"x": -3.0067061734,
				"y": 3.8135500892,
				"z": -2.1440582668,
				"element": "H" 
			},
			{
				"x": -1.2290863524,
				"y": 2.9906034187,
				"z": -0.6569986779,
				"element": "H" 
			},
			{
				"x": -2.6745895762,
				"y": 1.994392456,
				"z": -0.4676848296,
				"element": "H" 
			},
			{
				"x": -0.9111532328,
				"y": -0.4614137331,
				"z": 2.9770652027,
				"element": "H" 
			},
			{
				"x": -1.6923648066,
				"y": -2.7369789425,
				"z": 3.4890183577,
				"element": "H" 
			},
			{
				"x": -0.3670688241,
				"y": -4.7144064143,
				"z": 2.7512428411,
				"element": "H" 
			},
			{
				"x": 1.7509794943,
				"y": -4.3606172806,
				"z": 1.4922076684,
				"element": "H" 
			},
			{
				"x": 2.53219888,
				"y": -2.0919793606,
				"z": 0.9875759607,
				"element": "H" 
			}
		],
		 "valence_orbital": [ 
			{
				"type": "occ",
				"energy": -0.24593,
				"method": "rhf"
			},
			{
				"type": "occ",
				"energy": -0.24557,
				"method": "rhf"
			},
			{
				"type": "occ",
				"energy": -0.23707,
				"method": "rhf"
			},
			{
				"type": "occ",
				"energy": -0.23535,
				"method": "rhf"
			},
			{
				"type": "occ",
				"energy": -0.2223,
				"method": "rhf"
			},
			{
				"type": "unocc",
				"energy": -0.00219,
				"method": "rhf"
			},
			{
				"type": "unocc",
				"energy": 0.01104,
				"method": "rhf"
			},
			{
				"type": "unocc",
				"energy": 0.03555,
				"method": "rhf"
			},
			{
				"type": "unocc",
				"energy": 0.04717,
				"method": "rhf"
			},
			{
				"type": "unocc",
				"energy": 0.06952,
				"method": "rhf"
			}
		],
		"cosmo_sigma_profile": { 
			"-0.025": 0.0,
			"-0.024": 0.0,
			"-0.023": 0.0,
			"-0.022": 0.0,
			"-0.021": 0.0,
			"-0.02": 0.0,
			"-0.019": 0.0,
			"-0.018": 0.0,
			"-0.017": 0.0,
			"-0.016": 0.0,
			"-0.015": 0.0,
			"-0.014": 0.0,
			"-0.013": 0.0,
			"-0.012": 0.0,
			"-0.011": 0.0,
			"-0.01": 0.0,
			"-0.009": 0.0,
			"-0.008": 0.0,
			"-0.007": 0.0,
			"-0.006": 1.54280728245,
			"-0.005": 10.920404348,
			"-0.004": 30.4271623738,
			"-0.003": 50.3896304597,
			"-0.002": 47.3999383337,
			"-0.001": 34.553616915,
			"0.0": 33.0489368187,
			"0.001": 20.8566163728,
			"0.002": 13.6266002383,
			"0.003": 12.6730904561,
			"0.004": 12.3491650291,
			"0.005": 12.1037287121,
			"0.006": 11.5320172723,
			"0.007": 6.11706593591,
			"0.008": 3.38824093785,
			"0.009": 1.79046252207,
			"0.01": 1.90454239317,
			"0.011": 2.52575986532,
			"0.012": 2.90293872267,
			"0.013": 2.345653879,
			"0.014": 0.234404729038,
			"0.015": 0.0,
			"0.016": 0.0,
			"0.017": 0.0,
			"0.018": 0.0,
			"0.019": 0.0,
			"0.02": 0.0,
			"0.021": 0.0,
			"0.022": 0.0,
			"0.023": 0.0,
			"0.024": 0.0,
			"0.025": 0.0
		}
	}
}
