{
	 "smiles": "CC(=O)NC1=CC=C(C)C(C)=C1", 
	 "Tm": 370.15, 
	 "num_atms": 25, 
	 "gaussian": { 
		 "optdone": 1, 
		 "sigma_profile": "yes", 
		 "theory": "DFT", 
		 "functional": "B3LYP", 
		 "basiset": "6-31G**", 
		 "properties": { 
			 "R2extent": 2894.8494, 
			 "electric_dipole_moment_norm": 4.05992037853, 
			 "electric_quadrupole_moment_norm": 14.0400326022, 
			 "total_energy": -518.90610112, 
			 "HOMO_LUMO_gap": 0.20669, 
			 "cosmo_polarized_energy": -10.88, 
			 "cosmo_cavitation_energy": 28.04, 
			 "cosmo_dispersion_energy": -20.09, 
			 "cosmo_repulsion_energy": 1.61, 
			 "cosmo_total_nonelectrostatic_energy": 9.56, 
			 "SMD_solvation_energy": 5.72 
		},
		"coords": [
			{
				"x": -3.0339837569,
				"y": -1.0132134134,
				"z": 1.7380021848,
				"element": "C" 
			},
			{
				"x": -1.7535451591,
				"y": -0.7460095016,
				"z": 2.5073351261,
				"element": "C" 
			},
			{
				"x": -1.7144438643,
				"y": -0.7842663476,
				"z": 3.7293833704,
				"element": "O" 
			},
			{
				"x": -0.6051409474,
				"y": -0.4369410026,
				"z": 1.7986763461,
				"element": "N" 
			},
			{
				"x": -0.365751994,
				"y": -0.2929420139,
				"z": 0.411221412,
				"element": "C" 
			},
			{
				"x": 0.4259877594,
				"y": 0.7727497507,
				"z": -0.0315652579,
				"element": "C" 
			},
			{
				"x": 0.7097939379,
				"y": 0.910146541,
				"z": -1.3879226699,
				"element": "C" 
			},
			{
				"x": 0.2108081024,
				"y": 0.0154013481,
				"z": -2.3406620348,
				"element": "C" 
			},
			{
				"x": 0.5258703641,
				"y": 0.2017118448,
				"z": -3.8053857775,
				"element": "C" 
			},
			{
				"x": -0.5820519493,
				"y": -1.0644300494,
				"z": -1.8969429659,
				"element": "C" 
			},
			{
				"x": -1.1281332491,
				"y": -2.0744992266,
				"z": -2.8783999083,
				"element": "C" 
			},
			{
				"x": -0.8444215923,
				"y": -1.2126276732,
				"z": -0.5315846009,
				"element": "C" 
			},
			{
				"x": -3.107817873,
				"y": -2.0761918583,
				"z": 1.4848472739,
				"element": "H" 
			},
			{
				"x": -3.8653277047,
				"y": -0.7701331089,
				"z": 2.4008265864,
				"element": "H" 
			},
			{
				"x": -3.1067494578,
				"y": -0.4377775452,
				"z": 0.8128016552,
				"element": "H" 
			},
			{
				"x": 0.1470491651,
				"y": -0.1638328211,
				"z": 2.4196564735,
				"element": "H" 
			},
			{
				"x": 0.8074187775,
				"y": 1.4949271292,
				"z": 0.6850738806,
				"element": "H" 
			},
			{
				"x": 1.3265281579,
				"y": 1.7428790701,
				"z": -1.7166543256,
				"element": "H" 
			},
			{
				"x": 1.0655631485,
				"y": -0.6592665439,
				"z": -4.2187885167,
				"element": "H" 
			},
			{
				"x": -0.3844999144,
				"y": 0.319213592,
				"z": -4.4059955393,
				"element": "H" 
			},
			{
				"x": 1.1451362396,
				"y": 1.0883946907,
				"z": -3.964509163,
				"element": "H" 
			},
			{
				"x": -1.7047714184,
				"y": -2.8512042032,
				"z": -2.3695902403,
				"element": "H" 
			},
			{
				"x": -1.7848757622,
				"y": -1.6019264208,
				"z": -3.6189037533,
				"element": "H" 
			},
			{
				"x": -0.3254418389,
				"y": -2.5673340654,
				"z": -3.4399820586,
				"element": "H" 
			},
			{
				"x": -1.4126991706,
				"y": -2.0735281714,
				"z": -0.196237497,
				"element": "H" 
			}
		],
		 "valence_orbital": [ 
			{
				"type": "occ",
				"energy": -0.34042,
				"method": "rhf"
			},
			{
				"type": "occ",
				"energy": -0.28445,
				"method": "rhf"
			},
			{
				"type": "occ",
				"energy": -0.24988,
				"method": "rhf"
			},
			{
				"type": "occ",
				"energy": -0.24686,
				"method": "rhf"
			},
			{
				"type": "occ",
				"energy": -0.21804,
				"method": "rhf"
			},
			{
				"type": "unocc",
				"energy": -0.01135,
				"method": "rhf"
			},
			{
				"type": "unocc",
				"energy": -0.0043,
				"method": "rhf"
			},
			{
				"type": "unocc",
				"energy": 0.03772,
				"method": "rhf"
			},
			{
				"type": "unocc",
				"energy": 0.08481,
				"method": "rhf"
			},
			{
				"type": "unocc",
				"energy": 0.09425,
				"method": "rhf"
			}
		],
		"cosmo_sigma_profile": { 
			"-0.025": 0.0,
			"-0.024": 0.0,
			"-0.023": 0.0,
			"-0.022": 0.0,
			"-0.021": 0.0,
			"-0.02": 0.0,
			"-0.019": 0.0,
			"-0.018": 0.0,
			"-0.017": 0.0,
			"-0.016": 0.0,
			"-0.015": 0.0,
			"-0.014": 0.197616367821,
			"-0.013": 1.36766771742,
			"-0.012": 0.349154041776,
			"-0.011": 1.16796089818,
			"-0.01": 1.24936280294,
			"-0.009": 1.37445736736,
			"-0.008": 0.770149680169,
			"-0.007": 3.59477667443,
			"-0.006": 6.42832716011,
			"-0.005": 10.5743044324,
			"-0.004": 22.1539520762,
			"-0.003": 24.9251436155,
			"-0.002": 22.2781838212,
			"-0.001": 21.8968695582,
			"0.0": 22.8317922419,
			"0.001": 16.6041803137,
			"0.002": 10.1573157559,
			"0.003": 10.1335635655,
			"0.004": 8.58539440963,
			"0.005": 8.87450978011,
			"0.006": 6.05740249262,
			"0.007": 1.18841275719,
			"0.008": 2.11668934595,
			"0.009": 0.973309942338,
			"0.01": 0.638298059314,
			"0.011": 1.59304736067,
			"0.012": 2.38379740538,
			"0.013": 3.81287352234,
			"0.014": 5.23435462273,
			"0.015": 1.30555418911,
			"0.016": 0.0,
			"0.017": 0.0,
			"0.018": 0.0,
			"0.019": 0.0,
			"0.02": 0.0,
			"0.021": 0.0,
			"0.022": 0.0,
			"0.023": 0.0,
			"0.024": 0.0,
			"0.025": 0.0
		}
	}
}
