{
	 "smiles": "CC1=CN=C(CO)C(C)=C1[N+]([O-])=O", 
	 "Tm": 340.15, 
	 "num_atms": 23, 
	 "gaussian": { 
		 "optdone": 1, 
		 "sigma_profile": "yes", 
		 "theory": "DFT", 
		 "functional": "B3LYP", 
		 "basiset": "6-31G**", 
		 "properties": { 
			 "R2extent": 2712.4742, 
			 "electric_dipole_moment_norm": 2.26535471174, 
			 "electric_quadrupole_moment_norm": 8.70149846061, 
			 "total_energy": -645.941505117, 
			 "HOMO_LUMO_gap": 0.17294, 
			 "cosmo_polarized_energy": -11.23, 
			 "cosmo_cavitation_energy": 26.85, 
			 "cosmo_dispersion_energy": -19.34, 
			 "cosmo_repulsion_energy": 1.53, 
			 "cosmo_total_nonelectrostatic_energy": 9.04, 
			 "SMD_solvation_energy": 5.7 
		},
		"coords": [
			{
				"x": 2.4829685103,
				"y": -0.9118496771,
				"z": 0.8018753793,
				"element": "C" 
			},
			{
				"x": 1.1086516621,
				"y": -0.4748547435,
				"z": 0.3655987228,
				"element": "C" 
			},
			{
				"x": 0.2340181652,
				"y": 0.135640205,
				"z": 1.2685679364,
				"element": "C" 
			},
			{
				"x": -1.0013804319,
				"y": 0.5426238754,
				"z": 0.9688768993,
				"element": "N" 
			},
			{
				"x": -1.4530402391,
				"y": 0.3755825137,
				"z": -0.2802575784,
				"element": "C" 
			},
			{
				"x": -2.8735369111,
				"y": 0.8533618198,
				"z": -0.5274601163,
				"element": "C" 
			},
			{
				"x": -3.7815860101,
				"y": -0.210518114,
				"z": -0.8083831291,
				"element": "O" 
			},
			{
				"x": -0.680775482,
				"y": -0.2144479482,
				"z": -1.3069654418,
				"element": "C" 
			},
			{
				"x": -1.2432117187,
				"y": -0.3840870881,
				"z": -2.6981855972,
				"element": "C" 
			},
			{
				"x": 0.6048425028,
				"y": -0.621172292,
				"z": -0.9348809563,
				"element": "C" 
			},
			{
				"x": 1.4840931647,
				"y": -1.2244122381,
				"z": -1.9568723755,
				"element": "N" 
			},
			{
				"x": 1.633860255,
				"y": -0.6070052082,
				"z": -3.0085350958,
				"element": "O" 
			},
			{
				"x": 2.0118310115,
				"y": -2.3008133865,
				"z": -1.6848181289,
				"element": "O" 
			},
			{
				"x": 3.2607939439,
				"y": -0.5642167389,
				"z": 0.1150318478,
				"element": "H" 
			},
			{
				"x": 2.7025213837,
				"y": -0.5120902023,
				"z": 1.794946992,
				"element": "H" 
			},
			{
				"x": 2.5561369079,
				"y": -2.0019918537,
				"z": 0.8389790554,
				"element": "H" 
			},
			{
				"x": 0.5595040006,
				"y": 0.2999009908,
				"z": 2.2945603254,
				"element": "H" 
			},
			{
				"x": -3.1816493246,
				"y": 1.4321126962,
				"z": 0.3514469198,
				"element": "H" 
			},
			{
				"x": -2.9162054443,
				"y": 1.5102242672,
				"z": -1.4020175821,
				"element": "H" 
			},
			{
				"x": -3.796383105,
				"y": -0.7900586623,
				"z": -0.0350326921,
				"element": "H" 
			},
			{
				"x": -0.7775670254,
				"y": -1.21231425,
				"z": -3.2340197803,
				"element": "H" 
			},
			{
				"x": -2.3173017758,
				"y": -0.5631163722,
				"z": -2.6417262419,
				"element": "H" 
			},
			{
				"x": -1.0667840398,
				"y": 0.5168024069,
				"z": -3.2967293625,
				"element": "H" 
			}
		],
		 "valence_orbital": [ 
			{
				"type": "occ",
				"energy": -0.31621,
				"method": "rhf"
			},
			{
				"type": "occ",
				"energy": -0.29019,
				"method": "rhf"
			},
			{
				"type": "occ",
				"energy": -0.28653,
				"method": "rhf"
			},
			{
				"type": "occ",
				"energy": -0.26929,
				"method": "rhf"
			},
			{
				"type": "occ",
				"energy": -0.26371,
				"method": "rhf"
			},
			{
				"type": "unocc",
				"energy": -0.09077,
				"method": "rhf"
			},
			{
				"type": "unocc",
				"energy": -0.03561,
				"method": "rhf"
			},
			{
				"type": "unocc",
				"energy": -0.0299,
				"method": "rhf"
			},
			{
				"type": "unocc",
				"energy": 0.0755,
				"method": "rhf"
			},
			{
				"type": "unocc",
				"energy": 0.10112,
				"method": "rhf"
			}
		],
		"cosmo_sigma_profile": { 
			"-0.025": 0.0,
			"-0.024": 0.0,
			"-0.023": 0.0,
			"-0.022": 0.0,
			"-0.021": 0.0,
			"-0.02": 0.0,
			"-0.019": 0.0,
			"-0.018": 0.0,
			"-0.017": 0.0,
			"-0.016": 0.581676131942,
			"-0.015": 1.01657866805,
			"-0.014": 0.706067454237,
			"-0.013": 1.03702430816,
			"-0.012": 1.01341690242,
			"-0.011": 0.756390783996,
			"-0.01": 0.441707820161,
			"-0.009": 1.50929750021,
			"-0.008": 2.38321060253,
			"-0.007": 6.36507406292,
			"-0.006": 9.54028037404,
			"-0.005": 14.6058170296,
			"-0.004": 15.0244349874,
			"-0.003": 16.4588475418,
			"-0.002": 19.8548812758,
			"-0.001": 27.5578970526,
			"0.0": 16.0976883938,
			"0.001": 9.05477354998,
			"0.002": 6.61309648761,
			"0.003": 6.25462721149,
			"0.004": 6.81137083481,
			"0.005": 6.99333853206,
			"0.006": 7.03279119316,
			"0.007": 11.8715527823,
			"0.008": 8.16547179615,
			"0.009": 4.87874698909,
			"0.01": 2.10241388781,
			"0.011": 1.85774634082,
			"0.012": 1.85099116218,
			"0.013": 2.46997992504,
			"0.014": 1.1004042314,
			"0.015": 0.394663947358,
			"0.016": 0.0,
			"0.017": 0.0,
			"0.018": 0.0,
			"0.019": 0.0,
			"0.02": 0.0,
			"0.021": 0.0,
			"0.022": 0.0,
			"0.023": 0.0,
			"0.024": 0.0,
			"0.025": 0.0
		}
	}
}
