{
	 "smiles": "COCCC1=NN=C(S)N1N", 
	 "Tm": 392.15, 
	 "num_atms": 21, 
	 "gaussian": { 
		 "optdone": 1, 
		 "sigma_profile": "yes", 
		 "theory": "DFT", 
		 "functional": "B3LYP", 
		 "basiset": "6-31G**", 
		 "properties": { 
			 "R2extent": 4568.1161, 
			 "electric_dipole_moment_norm": 5.48232765621, 
			 "electric_quadrupole_moment_norm": 18.0569730932, 
			 "total_energy": -888.896414759, 
			 "HOMO_LUMO_gap": 0.22769, 
			 "cosmo_polarized_energy": -22.13, 
			 "cosmo_cavitation_energy": 26.85, 
			 "cosmo_dispersion_energy": -19.64, 
			 "cosmo_repulsion_energy": 1.58, 
			 "cosmo_total_nonelectrostatic_energy": 8.79, 
			 "SMD_solvation_energy": 3.15 
		},
		"coords": [
			{
				"x": -0.7907358424,
				"y": 2.6500937757,
				"z": 0.6475670201,
				"element": "C" 
			},
			{
				"x": -0.2385397685,
				"y": 1.3551454131,
				"z": 0.5607831014,
				"element": "O" 
			},
			{
				"x": -1.2134616434,
				"y": 0.3370091949,
				"z": 0.6296946785,
				"element": "C" 
			},
			{
				"x": -0.517496811,
				"y": -1.0218540054,
				"z": 0.5145437074,
				"element": "C" 
			},
			{
				"x": 0.4892451303,
				"y": -1.3018295812,
				"z": 1.5820153935,
				"element": "C" 
			},
			{
				"x": 1.7788469718,
				"y": -1.4471752391,
				"z": 1.4070586609,
				"element": "N" 
			},
			{
				"x": 2.3626880322,
				"y": -1.7178963105,
				"z": 2.642185552,
				"element": "N" 
			},
			{
				"x": 1.3973995748,
				"y": -1.7270203891,
				"z": 3.5222668129,
				"element": "C" 
			},
			{
				"x": 1.5092359547,
				"y": -2.017924107,
				"z": 5.26177911,
				"element": "S" 
			},
			{
				"x": 0.186966897,
				"y": -1.4730999834,
				"z": 2.9198484641,
				"element": "N" 
			},
			{
				"x": -1.0907733327,
				"y": -1.4333183469,
				"z": 3.4881388967,
				"element": "N" 
			},
			{
				"x": -1.491633375,
				"y": 2.8539763098,
				"z": -0.1779944807,
				"element": "H" 
			},
			{
				"x": -1.3280411756,
				"y": 2.8055437859,
				"z": 1.5973716547,
				"element": "H" 
			},
			{
				"x": 0.0371926446,
				"y": 3.3605385882,
				"z": 0.5906558477,
				"element": "H" 
			},
			{
				"x": -1.7776813953,
				"y": 0.3973436451,
				"z": 1.5741770827,
				"element": "H" 
			},
			{
				"x": -1.9424894828,
				"y": 0.4363605155,
				"z": -0.1930436342,
				"element": "H" 
			},
			{
				"x": -1.2900082272,
				"y": -1.8004237592,
				"z": 0.5152627144,
				"element": "H" 
			},
			{
				"x": 0.0172857143,
				"y": -1.0766220474,
				"z": -0.4370157453,
				"element": "H" 
			},
			{
				"x": 2.8424490984,
				"y": -2.1970779585,
				"z": 5.2200505874,
				"element": "H" 
			},
			{
				"x": -1.2867442214,
				"y": -2.3250612813,
				"z": 3.9384832068,
				"element": "H" 
			},
			{
				"x": -1.1252047428,
				"y": -0.6954082192,
				"z": 4.1883713688,
				"element": "H" 
			}
		],
		 "valence_orbital": [ 
			{
				"type": "occ",
				"energy": -0.29893,
				"method": "rhf"
			},
			{
				"type": "occ",
				"energy": -0.291,
				"method": "rhf"
			},
			{
				"type": "occ",
				"energy": -0.25669,
				"method": "rhf"
			},
			{
				"type": "occ",
				"energy": -0.24606,
				"method": "rhf"
			},
			{
				"type": "occ",
				"energy": -0.2287,
				"method": "rhf"
			},
			{
				"type": "unocc",
				"energy": -0.00101,
				"method": "rhf"
			},
			{
				"type": "unocc",
				"energy": 0.01806,
				"method": "rhf"
			},
			{
				"type": "unocc",
				"energy": 0.04426,
				"method": "rhf"
			},
			{
				"type": "unocc",
				"energy": 0.04861,
				"method": "rhf"
			},
			{
				"type": "unocc",
				"energy": 0.07337,
				"method": "rhf"
			}
		],
		"cosmo_sigma_profile": { 
			"-0.025": 0.0,
			"-0.024": 0.0,
			"-0.023": 0.0,
			"-0.022": 0.0,
			"-0.021": 0.0,
			"-0.02": 0.0,
			"-0.019": 0.0,
			"-0.018": 0.0,
			"-0.017": 0.0,
			"-0.016": 0.0,
			"-0.015": 0.0,
			"-0.014": 1.27207702058,
			"-0.013": 4.07035786763,
			"-0.012": 4.838582601,
			"-0.011": 4.08189940602,
			"-0.01": 3.90072418847,
			"-0.009": 4.69295674741,
			"-0.008": 2.65626122763,
			"-0.007": 3.05317604747,
			"-0.006": 5.55164333345,
			"-0.005": 8.65062895666,
			"-0.004": 18.7588374197,
			"-0.003": 24.7410248594,
			"-0.002": 23.5757364196,
			"-0.001": 12.5618210239,
			"0.0": 8.1030906427,
			"0.001": 9.26382403212,
			"0.002": 9.02421925155,
			"0.003": 7.92979650454,
			"0.004": 6.85271314425,
			"0.005": 5.31190966004,
			"0.006": 6.1549744236,
			"0.007": 5.11109804554,
			"0.008": 3.44768024988,
			"0.009": 3.44737390433,
			"0.01": 4.00781222643,
			"0.011": 4.37397604151,
			"0.012": 4.03220302899,
			"0.013": 4.58825722898,
			"0.014": 3.46519297622,
			"0.015": 2.69719810793,
			"0.016": 2.33182257673,
			"0.017": 1.28690852146,
			"0.018": 0.0423725721528,
			"0.019": 0.0,
			"0.02": 0.0,
			"0.021": 0.0,
			"0.022": 0.0,
			"0.023": 0.0,
			"0.024": 0.0,
			"0.025": 0.0
		}
	}
}
