{
	 "smiles": "CCCCCCCCCCC#C", 
	 "Tm": 254.15, 
	 "num_atms": 34, 
	 "gaussian": { 
		 "optdone": 1, 
		 "sigma_profile": "yes", 
		 "theory": "DFT", 
		 "functional": "B3LYP", 
		 "basiset": "6-31G**", 
		 "properties": { 
			 "R2extent": 4330.2478, 
			 "electric_dipole_moment_norm": 0.645599581784, 
			 "electric_quadrupole_moment_norm": 2.8627090439, 
			 "total_energy": -470.493725777, 
			 "HOMO_LUMO_gap": 0.3098, 
			 "cosmo_polarized_energy": -3.84, 
			 "cosmo_cavitation_energy": 35.48, 
			 "cosmo_dispersion_energy": -23.84, 
			 "cosmo_repulsion_energy": 1.97, 
			 "cosmo_total_nonelectrostatic_energy": 13.62, 
			 "SMD_solvation_energy": 6.32 
		},
		"coords": [
			{
				"x": -1.2252058873,
				"y": -4.3963959209,
				"z": 1.6132821822,
				"element": "C" 
			},
			{
				"x": -0.5699463707,
				"y": -3.1375364728,
				"z": 1.0353819476,
				"element": "C" 
			},
			{
				"x": 0.6733863648,
				"y": -2.6961302224,
				"z": 1.8207266411,
				"element": "C" 
			},
			{
				"x": 1.4086906452,
				"y": -1.47888334,
				"z": 1.2352037498,
				"element": "C" 
			},
			{
				"x": 0.612154914,
				"y": -0.1662726449,
				"z": 1.2923355008,
				"element": "C" 
			},
			{
				"x": 1.4059644915,
				"y": 1.0774414156,
				"z": 0.8543041993,
				"element": "C" 
			},
			{
				"x": 1.8903672471,
				"y": 1.0842060847,
				"z": -0.6084294903,
				"element": "C" 
			},
			{
				"x": 0.792175827,
				"y": 0.9985338585,
				"z": -1.6824124816,
				"element": "C" 
			},
			{
				"x": -0.1880941402,
				"y": 2.1778646318,
				"z": -1.6799119658,
				"element": "C" 
			},
			{
				"x": -1.2210582186,
				"y": 2.1212711779,
				"z": -2.8285400187,
				"element": "C" 
			},
			{
				"x": -0.625401797,
				"y": 2.2097371508,
				"z": -4.1631349371,
				"element": "C" 
			},
			{
				"x": -0.122021762,
				"y": 2.2896561173,
				"z": -5.2587171923,
				"element": "C" 
			},
			{
				"x": -1.5457829674,
				"y": -4.2359857049,
				"z": 2.6491601856,
				"element": "H" 
			},
			{
				"x": -0.5278696555,
				"y": -5.2421121275,
				"z": 1.6124601126,
				"element": "H" 
			},
			{
				"x": -2.1069579447,
				"y": -4.6920144363,
				"z": 1.0351698423,
				"element": "H" 
			},
			{
				"x": -0.287775872,
				"y": -3.3190413287,
				"z": -0.0111669851,
				"element": "H" 
			},
			{
				"x": -1.3071786829,
				"y": -2.3251642286,
				"z": 1.0148757391,
				"element": "H" 
			},
			{
				"x": 1.3737486855,
				"y": -3.5412807437,
				"z": 1.869907829,
				"element": "H" 
			},
			{
				"x": 0.3864948074,
				"y": -2.4814111554,
				"z": 2.8605393771,
				"element": "H" 
			},
			{
				"x": 1.6920154895,
				"y": -1.7006775404,
				"z": 0.1973970075,
				"element": "H" 
			},
			{
				"x": 2.3515253744,
				"y": -1.3395721668,
				"z": 1.7823233687,
				"element": "H" 
			},
			{
				"x": 0.2679932293,
				"y": -0.0100353962,
				"z": 2.3242627187,
				"element": "H" 
			},
			{
				"x": -0.2979889993,
				"y": -0.2549457925,
				"z": 0.6859030059,
				"element": "H" 
			},
			{
				"x": 0.7926584406,
				"y": 1.9688648629,
				"z": 1.0386930767,
				"element": "H" 
			},
			{
				"x": 2.2838675001,
				"y": 1.1821602856,
				"z": 1.5065804737,
				"element": "H" 
			},
			{
				"x": 2.4726421984,
				"y": 2.0010224386,
				"z": -0.7738499153,
				"element": "H" 
			},
			{
				"x": 2.5929238629,
				"y": 0.2556865641,
				"z": -0.7621843905,
				"element": "H" 
			},
			{
				"x": 1.27037937,
				"y": 0.9455833327,
				"z": -2.6679027773,
				"element": "H" 
			},
			{
				"x": 0.2288707582,
				"y": 0.0618021528,
				"z": -1.5705931537,
				"element": "H" 
			},
			{
				"x": 0.3688705873,
				"y": 3.1208170855,
				"z": -1.7500157291,
				"element": "H" 
			},
			{
				"x": -0.7440445944,
				"y": 2.2106885932,
				"z": -0.7353932634,
				"element": "H" 
			},
			{
				"x": -1.7978135235,
				"y": 1.1890213852,
				"z": -2.7530944572,
				"element": "H" 
			},
			{
				"x": -1.9451917709,
				"y": 2.9372770389,
				"z": -2.7068165822,
				"element": "H" 
			},
			{
				"x": 0.3160023931,
				"y": 2.3597250461,
				"z": -6.2270436177,
				"element": "H" 
			}
		],
		 "valence_orbital": [ 
			{
				"type": "occ",
				"energy": -0.30692,
				"method": "rhf"
			},
			{
				"type": "occ",
				"energy": -0.3032,
				"method": "rhf"
			},
			{
				"type": "occ",
				"energy": -0.30093,
				"method": "rhf"
			},
			{
				"type": "occ",
				"energy": -0.25831,
				"method": "rhf"
			},
			{
				"type": "occ",
				"energy": -0.25693,
				"method": "rhf"
			},
			{
				"type": "unocc",
				"energy": 0.05287,
				"method": "rhf"
			},
			{
				"type": "unocc",
				"energy": 0.06199,
				"method": "rhf"
			},
			{
				"type": "unocc",
				"energy": 0.08546,
				"method": "rhf"
			},
			{
				"type": "unocc",
				"energy": 0.10029,
				"method": "rhf"
			},
			{
				"type": "unocc",
				"energy": 0.10546,
				"method": "rhf"
			}
		],
		"cosmo_sigma_profile": { 
			"-0.025": 0.0,
			"-0.024": 0.0,
			"-0.023": 0.0,
			"-0.022": 0.0,
			"-0.021": 0.0,
			"-0.02": 0.0,
			"-0.019": 0.0,
			"-0.018": 0.0,
			"-0.017": 0.0,
			"-0.016": 0.0,
			"-0.015": 0.0,
			"-0.014": 0.0,
			"-0.013": 0.0,
			"-0.012": 0.0,
			"-0.011": 0.681861291948,
			"-0.01": 1.22192366364,
			"-0.009": 1.35552038901,
			"-0.008": 0.676177609054,
			"-0.007": 1.32811800437,
			"-0.006": 1.12918364859,
			"-0.005": 4.10239413658,
			"-0.004": 6.11559613823,
			"-0.003": 11.4873513306,
			"-0.002": 37.6899940395,
			"-0.001": 54.7176436497,
			"0.0": 53.3995358766,
			"0.001": 48.3833866883,
			"0.002": 21.0787693272,
			"0.003": 4.79333611813,
			"0.004": 4.70978681548,
			"0.005": 4.96592924038,
			"0.006": 5.27653601539,
			"0.007": 7.04414680955,
			"0.008": 4.20204529179,
			"0.009": 0.0208189818496,
			"0.01": 0.0,
			"0.011": 0.0,
			"0.012": 0.0,
			"0.013": 0.0,
			"0.014": 0.0,
			"0.015": 0.0,
			"0.016": 0.0,
			"0.017": 0.0,
			"0.018": 0.0,
			"0.019": 0.0,
			"0.02": 0.0,
			"0.021": 0.0,
			"0.022": 0.0,
			"0.023": 0.0,
			"0.024": 0.0,
			"0.025": 0.0
		}
	}
}
