{
	 "smiles": "CCCCOC(=O)C1=CC=C(C=C1)N(=O)=O", 
	 "Tm": 308.65, 
	 "num_atms": 29, 
	 "gaussian": { 
		 "optdone": 1, 
		 "sigma_profile": "yes", 
		 "theory": "DFT", 
		 "functional": "B3LYP", 
		 "basiset": "6-31G**", 
		 "properties": { 
			 "R2extent": 7255.6027, 
			 "electric_dipole_moment_norm": 4.70711878541, 
			 "electric_quadrupole_moment_norm": 21.6181316195, 
			 "total_energy": -782.576411479, 
			 "HOMO_LUMO_gap": 0.1823, 
			 "cosmo_polarized_energy": -10.01, 
			 "cosmo_cavitation_energy": 33.97, 
			 "cosmo_dispersion_energy": -23.83, 
			 "cosmo_repulsion_energy": 1.87, 
			 "cosmo_total_nonelectrostatic_energy": 12.0, 
			 "SMD_solvation_energy": 8.82 
		},
		"coords": [
			{
				"x": -3.1269116454,
				"y": -1.3876398439,
				"z": -1.6310121924,
				"element": "C" 
			},
			{
				"x": -3.2801147239,
				"y": -0.2972264866,
				"z": -2.6980947456,
				"element": "C" 
			},
			{
				"x": -2.0888672242,
				"y": -0.136974395,
				"z": -3.6588996614,
				"element": "C" 
			},
			{
				"x": -0.8197062495,
				"y": 0.4569161453,
				"z": -3.0636773657,
				"element": "C" 
			},
			{
				"x": -0.1782554628,
				"y": -0.5335376448,
				"z": -2.2202784192,
				"element": "O" 
			},
			{
				"x": 0.966375635,
				"y": -0.1442090554,
				"z": -1.6256248844,
				"element": "C" 
			},
			{
				"x": 1.4528748131,
				"y": 0.9618998104,
				"z": -1.7544003206,
				"element": "O" 
			},
			{
				"x": 1.5716803852,
				"y": -1.2267606975,
				"z": -0.7874884113,
				"element": "C" 
			},
			{
				"x": 2.7529263319,
				"y": -0.9265064416,
				"z": -0.0948731619,
				"element": "C" 
			},
			{
				"x": 3.3640877704,
				"y": -1.88939042,
				"z": 0.7005404876,
				"element": "C" 
			},
			{
				"x": 2.775504057,
				"y": -3.1501837108,
				"z": 0.7879135432,
				"element": "C" 
			},
			{
				"x": 1.6029807203,
				"y": -3.475293964,
				"z": 0.1086034265,
				"element": "C" 
			},
			{
				"x": 1.0000759922,
				"y": -2.5029748456,
				"z": -0.6840942103,
				"element": "C" 
			},
			{
				"x": 3.4169320772,
				"y": -4.1779913564,
				"z": 1.629532327,
				"element": "N" 
			},
			{
				"x": 4.4502704917,
				"y": -3.866622902,
				"z": 2.2190627658,
				"element": "O" 
			},
			{
				"x": 2.8782534553,
				"y": -5.2821183841,
				"z": 1.6891875268,
				"element": "O" 
			},
			{
				"x": -2.3014303368,
				"y": -1.174622216,
				"z": -0.9472586737,
				"element": "H" 
			},
			{
				"x": -4.0422285537,
				"y": -1.478944107,
				"z": -1.0370712207,
				"element": "H" 
			},
			{
				"x": -2.9326503362,
				"y": -2.3630856118,
				"z": -2.0921567262,
				"element": "H" 
			},
			{
				"x": -4.1704506735,
				"y": -0.5151569012,
				"z": -3.3010747292,
				"element": "H" 
			},
			{
				"x": -3.4760848158,
				"y": 0.6684334621,
				"z": -2.2120904108,
				"element": "H" 
			},
			{
				"x": -2.3863830269,
				"y": 0.5337829952,
				"z": -4.4753003801,
				"element": "H" 
			},
			{
				"x": -1.844211811,
				"y": -1.0993264763,
				"z": -4.1268540645,
				"element": "H" 
			},
			{
				"x": -0.1097732533,
				"y": 0.746622376,
				"z": -3.8446821275,
				"element": "H" 
			},
			{
				"x": -1.0271019041,
				"y": 1.3475206003,
				"z": -2.460763356,
				"element": "H" 
			},
			{
				"x": 3.1748391221,
				"y": 0.0673404748,
				"z": -0.1937755423,
				"element": "H" 
			},
			{
				"x": 4.2758927359,
				"y": -1.6868269627,
				"z": 1.2478658239,
				"element": "H" 
			},
			{
				"x": 1.1871388548,
				"y": -4.4697208,
				"z": 0.209484166,
				"element": "H" 
			},
			{
				"x": 0.088637575,
				"y": -2.7280026415,
				"z": -1.224519463,
				"element": "H" 
			}
		],
		 "valence_orbital": [ 
			{
				"type": "occ",
				"energy": -0.31109,
				"method": "rhf"
			},
			{
				"type": "occ",
				"energy": -0.29682,
				"method": "rhf"
			},
			{
				"type": "occ",
				"energy": -0.28901,
				"method": "rhf"
			},
			{
				"type": "occ",
				"energy": -0.2882,
				"method": "rhf"
			},
			{
				"type": "occ",
				"energy": -0.28471,
				"method": "rhf"
			},
			{
				"type": "unocc",
				"energy": -0.10241,
				"method": "rhf"
			},
			{
				"type": "unocc",
				"energy": -0.03751,
				"method": "rhf"
			},
			{
				"type": "unocc",
				"energy": -0.03353,
				"method": "rhf"
			},
			{
				"type": "unocc",
				"energy": 0.04782,
				"method": "rhf"
			},
			{
				"type": "unocc",
				"energy": 0.07195,
				"method": "rhf"
			}
		],
		"cosmo_sigma_profile": { 
			"-0.025": 0.0,
			"-0.024": 0.0,
			"-0.023": 0.0,
			"-0.022": 0.0,
			"-0.021": 0.0,
			"-0.02": 0.0,
			"-0.019": 0.0,
			"-0.018": 0.0,
			"-0.017": 0.0,
			"-0.016": 0.0,
			"-0.015": 0.0,
			"-0.014": 0.0,
			"-0.013": 0.0,
			"-0.012": 0.0,
			"-0.011": 0.0,
			"-0.01": 0.0,
			"-0.009": 0.104789525938,
			"-0.008": 2.31696277566,
			"-0.007": 6.7177894673,
			"-0.006": 8.26241024726,
			"-0.005": 12.5281512756,
			"-0.004": 19.2477240727,
			"-0.003": 23.9130627323,
			"-0.002": 31.6386714201,
			"-0.001": 37.6317629388,
			"0.0": 37.8214364708,
			"0.001": 24.3087534794,
			"0.002": 9.71739607658,
			"0.003": 5.23699516648,
			"0.004": 5.98788505174,
			"0.005": 4.80424782488,
			"0.006": 5.65380371812,
			"0.007": 10.1864078774,
			"0.008": 7.86464445267,
			"0.009": 5.65708503622,
			"0.01": 3.68935996329,
			"0.011": 3.94560076548,
			"0.012": 1.88437108121,
			"0.013": 0.0,
			"0.014": 0.0,
			"0.015": 0.0,
			"0.016": 0.0,
			"0.017": 0.0,
			"0.018": 0.0,
			"0.019": 0.0,
			"0.02": 0.0,
			"0.021": 0.0,
			"0.022": 0.0,
			"0.023": 0.0,
			"0.024": 0.0,
			"0.025": 0.0
		}
	}
}
