{
	 "smiles": "N#CC1=CC=C(C=C1)C1=NC=CS1", 
	 "Tm": 375.15, 
	 "num_atms": 19, 
	 "gaussian": { 
		 "optdone": 1, 
		 "sigma_profile": "yes", 
		 "theory": "DFT", 
		 "functional": "B3LYP", 
		 "basiset": "6-31G**", 
		 "properties": { 
			 "R2extent": 3367.1202, 
			 "electric_dipole_moment_norm": 5.35179291546, 
			 "electric_quadrupole_moment_norm": 15.4601180633, 
			 "total_energy": -892.348367497, 
			 "HOMO_LUMO_gap": 0.15728, 
			 "cosmo_polarized_energy": -10.71, 
			 "cosmo_cavitation_energy": 26.54, 
			 "cosmo_dispersion_energy": -19.69, 
			 "cosmo_repulsion_energy": 1.48, 
			 "cosmo_total_nonelectrostatic_energy": 8.33, 
			 "SMD_solvation_energy": 4.78 
		},
		"coords": [
			{
				"x": -0.020273767,
				"y": -5.185512545,
				"z": 1.7351499759,
				"element": "N" 
			},
			{
				"x": -0.0663907495,
				"y": -4.0724198646,
				"z": 1.3993820158,
				"element": "C" 
			},
			{
				"x": -0.1232554047,
				"y": -2.7018804512,
				"z": 0.985191611,
				"element": "C" 
			},
			{
				"x": 0.4439921854,
				"y": -2.3108804314,
				"z": -0.2394725047,
				"element": "C" 
			},
			{
				"x": 0.3869600418,
				"y": -0.9814847801,
				"z": -0.6376343964,
				"element": "C" 
			},
			{
				"x": -0.2337493514,
				"y": -0.0145925028,
				"z": 0.1712314677,
				"element": "C" 
			},
			{
				"x": -0.7996185115,
				"y": -0.4140353588,
				"z": 1.3964864864,
				"element": "C" 
			},
			{
				"x": -0.7464917833,
				"y": -1.7401447162,
				"z": 1.8007819132,
				"element": "C" 
			},
			{
				"x": -0.3126755378,
				"y": 1.3988435475,
				"z": -0.2173540439,
				"element": "C" 
			},
			{
				"x": -0.8840176208,
				"y": 2.3222426603,
				"z": 0.5137729829,
				"element": "N" 
			},
			{
				"x": -0.8165739501,
				"y": 3.5526323018,
				"z": -0.082288092,
				"element": "C" 
			},
			{
				"x": -0.1857443253,
				"y": 3.5973220067,
				"z": -1.2944901121,
				"element": "C" 
			},
			{
				"x": 0.3617655751,
				"y": 2.0157577436,
				"z": -1.7302895897,
				"element": "S" 
			},
			{
				"x": 0.9248013574,
				"y": -3.0516080268,
				"z": -0.869194363,
				"element": "H" 
			},
			{
				"x": 0.8307472492,
				"y": -0.6978473559,
				"z": -1.5873417567,
				"element": "H" 
			},
			{
				"x": -1.2770511898,
				"y": 0.3359907119,
				"z": 2.0163218217,
				"element": "H" 
			},
			{
				"x": -1.1842544339,
				"y": -2.0425370209,
				"z": 2.7461650114,
				"element": "H" 
			},
			{
				"x": -1.2528199407,
				"y": 4.409026938,
				"z": 0.418428977,
				"element": "H" 
			},
			{
				"x": -0.0164498431,
				"y": 4.447927144,
				"z": -1.9389474046,
				"element": "H" 
			}
		],
		 "valence_orbital": [ 
			{
				"type": "occ",
				"energy": -0.30309,
				"method": "rhf"
			},
			{
				"type": "occ",
				"energy": -0.29075,
				"method": "rhf"
			},
			{
				"type": "occ",
				"energy": -0.28954,
				"method": "rhf"
			},
			{
				"type": "occ",
				"energy": -0.28014,
				"method": "rhf"
			},
			{
				"type": "occ",
				"energy": -0.23935,
				"method": "rhf"
			},
			{
				"type": "unocc",
				"energy": -0.08207,
				"method": "rhf"
			},
			{
				"type": "unocc",
				"energy": -0.02899,
				"method": "rhf"
			},
			{
				"type": "unocc",
				"energy": -0.01346,
				"method": "rhf"
			},
			{
				"type": "unocc",
				"energy": 0.00561,
				"method": "rhf"
			},
			{
				"type": "unocc",
				"energy": 0.03496,
				"method": "rhf"
			}
		],
		"cosmo_sigma_profile": { 
			"-0.025": 0.0,
			"-0.024": 0.0,
			"-0.023": 0.0,
			"-0.022": 0.0,
			"-0.021": 0.0,
			"-0.02": 0.0,
			"-0.019": 0.0,
			"-0.018": 0.0,
			"-0.017": 0.0,
			"-0.016": 0.0,
			"-0.015": 0.0,
			"-0.014": 0.0,
			"-0.013": 0.0,
			"-0.012": 0.0,
			"-0.011": 0.0,
			"-0.01": 0.876501243555,
			"-0.009": 2.49744857935,
			"-0.008": 8.18942751916,
			"-0.007": 11.8370724105,
			"-0.006": 12.3034223068,
			"-0.005": 10.6312933318,
			"-0.004": 9.76205665523,
			"-0.003": 11.0725691488,
			"-0.002": 13.688840845,
			"-0.001": 16.0210083592,
			"0.0": 20.2001076269,
			"0.001": 27.4312022597,
			"0.002": 24.279294592,
			"0.003": 10.627825932,
			"0.004": 4.34969910097,
			"0.005": 3.92886325445,
			"0.006": 4.83879487469,
			"0.007": 4.11951563514,
			"0.008": 4.43125566975,
			"0.009": 4.77039952443,
			"0.01": 4.34152323147,
			"0.011": 3.52529169864,
			"0.012": 3.18960622531,
			"0.013": 1.36006279714,
			"0.014": 0.0,
			"0.015": 0.0,
			"0.016": 0.0,
			"0.017": 0.0,
			"0.018": 0.0,
			"0.019": 0.0,
			"0.02": 0.0,
			"0.021": 0.0,
			"0.022": 0.0,
			"0.023": 0.0,
			"0.024": 0.0,
			"0.025": 0.0
		}
	}
}
