{
	 "smiles": "CC1=CC=C(C=C1C(O)=O)C(F)(F)F", 
	 "Tm": 397.15, 
	 "num_atms": 21, 
	 "gaussian": { 
		 "optdone": 1, 
		 "sigma_profile": "yes", 
		 "theory": "DFT", 
		 "functional": "B3LYP", 
		 "basiset": "6-31G**", 
		 "properties": { 
			 "R2extent": 3317.7161, 
			 "electric_dipole_moment_norm": 3.05136952531, 
			 "electric_quadrupole_moment_norm": 16.1619367113, 
			 "total_energy": -797.165923533, 
			 "HOMO_LUMO_gap": 0.21129, 
			 "cosmo_polarized_energy": -12.51, 
			 "cosmo_cavitation_energy": 26.86, 
			 "cosmo_dispersion_energy": -19.04, 
			 "cosmo_repulsion_energy": 1.43, 
			 "cosmo_total_nonelectrostatic_energy": 9.25, 
			 "SMD_solvation_energy": 6.85 
		},
		"coords": [
			{
				"x": 1.4795138219,
				"y": -2.2430555962,
				"z": 1.1381745073,
				"element": "C" 
			},
			{
				"x": 1.0468275481,
				"y": -1.1297512992,
				"z": 0.2166259244,
				"element": "C" 
			},
			{
				"x": 1.0759986688,
				"y": -1.3314985616,
				"z": -1.1699187301,
				"element": "C" 
			},
			{
				"x": 0.6684445942,
				"y": -0.3500357638,
				"z": -2.069456913,
				"element": "C" 
			},
			{
				"x": 0.2186117875,
				"y": 0.8813526633,
				"z": -1.5918619323,
				"element": "C" 
			},
			{
				"x": 0.1995041664,
				"y": 1.1172995593,
				"z": -0.2189845067,
				"element": "C" 
			},
			{
				"x": 0.6143130269,
				"y": 0.1324239531,
				"z": 0.6876894361,
				"element": "C" 
			},
			{
				"x": 0.5486659253,
				"y": 0.419169865,
				"z": 2.1609781874,
				"element": "C" 
			},
			{
				"x": 0.7665824302,
				"y": 1.7112080979,
				"z": 2.5286902047,
				"element": "O" 
			},
			{
				"x": 0.306149803,
				"y": -0.4106300746,
				"z": 3.0051018023,
				"element": "O" 
			},
			{
				"x": -0.2928416271,
				"y": 1.9238490497,
				"z": -2.5485859083,
				"element": "C" 
			},
			{
				"x": -1.5987777414,
				"y": 1.7350777625,
				"z": -2.842516507,
				"element": "F" 
			},
			{
				"x": 0.3814253359,
				"y": 1.8980005006,
				"z": -3.7187647907,
				"element": "F" 
			},
			{
				"x": -0.1797186617,
				"y": 3.1709962554,
				"z": -2.0382164396,
				"element": "F" 
			},
			{
				"x": 1.9121617298,
				"y": -3.0658710194,
				"z": 0.5635894365,
				"element": "H" 
			},
			{
				"x": 2.2160232668,
				"y": -1.9020161548,
				"z": 1.8710620158,
				"element": "H" 
			},
			{
				"x": 0.6314641016,
				"y": -2.6193527373,
				"z": 1.7160803709,
				"element": "H" 
			},
			{
				"x": 1.4268695833,
				"y": -2.2860755425,
				"z": -1.5511129613,
				"element": "H" 
			},
			{
				"x": 0.7033677226,
				"y": -0.5373073139,
				"z": -3.1374680012,
				"element": "H" 
			},
			{
				"x": -0.1728225871,
				"y": 2.0710989638,
				"z": 0.1416966078,
				"element": "H" 
			},
			{
				"x": 1.104037105,
				"y": 2.2203173924,
				"z": 1.7783981969,
				"element": "H" 
			}
		],
		 "valence_orbital": [ 
			{
				"type": "occ",
				"energy": -0.36974,
				"method": "rhf"
			},
			{
				"type": "occ",
				"energy": -0.32473,
				"method": "rhf"
			},
			{
				"type": "occ",
				"energy": -0.28866,
				"method": "rhf"
			},
			{
				"type": "occ",
				"energy": -0.27895,
				"method": "rhf"
			},
			{
				"type": "occ",
				"energy": -0.27318,
				"method": "rhf"
			},
			{
				"type": "unocc",
				"energy": -0.06189,
				"method": "rhf"
			},
			{
				"type": "unocc",
				"energy": -0.04136,
				"method": "rhf"
			},
			{
				"type": "unocc",
				"energy": 0.02778,
				"method": "rhf"
			},
			{
				"type": "unocc",
				"energy": 0.06242,
				"method": "rhf"
			},
			{
				"type": "unocc",
				"energy": 0.09119,
				"method": "rhf"
			}
		],
		"cosmo_sigma_profile": { 
			"-0.025": 0.0,
			"-0.024": 0.0,
			"-0.023": 0.0,
			"-0.022": 0.0,
			"-0.021": 0.0,
			"-0.02": 0.0,
			"-0.019": 0.13634290198,
			"-0.018": 1.11366773723,
			"-0.017": 0.733252087258,
			"-0.016": 0.998544648477,
			"-0.015": 0.75863841588,
			"-0.014": 0.989427559472,
			"-0.013": 1.37119080641,
			"-0.012": 1.0205064396,
			"-0.011": 0.810896222438,
			"-0.01": 0.987078876643,
			"-0.009": 1.87412387569,
			"-0.008": 2.34310429113,
			"-0.007": 5.76987399021,
			"-0.006": 8.4650004182,
			"-0.005": 10.7900537162,
			"-0.004": 10.4305443574,
			"-0.003": 11.2702096056,
			"-0.002": 13.2058154584,
			"-0.001": 16.5205990097,
			"0.0": 19.2888317253,
			"0.001": 20.1272033671,
			"0.002": 28.7116812844,
			"0.003": 26.5695468921,
			"0.004": 2.71244506814,
			"0.005": 2.80110004536,
			"0.006": 2.11392211406,
			"0.007": 2.55745353653,
			"0.008": 3.31972604166,
			"0.009": 2.87314547558,
			"0.01": 5.38616592871,
			"0.011": 4.51068317968,
			"0.012": 3.08462687792,
			"0.013": 1.12868568453,
			"0.014": 0.0,
			"0.015": 0.0,
			"0.016": 0.0,
			"0.017": 0.0,
			"0.018": 0.0,
			"0.019": 0.0,
			"0.02": 0.0,
			"0.021": 0.0,
			"0.022": 0.0,
			"0.023": 0.0,
			"0.024": 0.0,
			"0.025": 0.0
		}
	}
}
