{
	 "smiles": "OC(=O)C1=C(C=CS1)S(=O)(=O)N1CCCC1", 
	 "Tm": 402.15, 
	 "num_atms": 27, 
	 "gaussian": { 
		 "optdone": 1, 
		 "sigma_profile": "yes", 
		 "theory": "DFT", 
		 "functional": "B3LYP", 
		 "basiset": "6-31G**", 
		 "properties": { 
			 "R2extent": 4359.9182, 
			 "electric_dipole_moment_norm": 6.12863153404, 
			 "electric_quadrupole_moment_norm": 21.0105842894, 
			 "total_energy": -1501.53355605, 
			 "HOMO_LUMO_gap": 0.18619, 
			 "cosmo_polarized_energy": -16.93, 
			 "cosmo_cavitation_energy": 31.94, 
			 "cosmo_dispersion_energy": -24.09, 
			 "cosmo_repulsion_energy": 1.78, 
			 "cosmo_total_nonelectrostatic_energy": 9.63, 
			 "SMD_solvation_energy": 4.46 
		},
		"coords": [
			{
				"x": 2.3508804628,
				"y": -0.6074806521,
				"z": -2.7044825141,
				"element": "O" 
			},
			{
				"x": 2.910222846,
				"y": -0.9926677892,
				"z": -1.5585967694,
				"element": "C" 
			},
			{
				"x": 3.7361678102,
				"y": -1.8831112821,
				"z": -1.5197515503,
				"element": "O" 
			},
			{
				"x": 2.5114007198,
				"y": -0.3113140062,
				"z": -0.2812831883,
				"element": "C" 
			},
			{
				"x": 1.5218066499,
				"y": 0.5761992394,
				"z": 0.1224361686,
				"element": "C" 
			},
			{
				"x": 1.5962504929,
				"y": 0.9264558689,
				"z": 1.5038803471,
				"element": "C" 
			},
			{
				"x": 2.6386481328,
				"y": 0.302511449,
				"z": 2.1342051182,
				"element": "C" 
			},
			{
				"x": 3.5299896209,
				"y": -0.7178436177,
				"z": 1.07148852,
				"element": "S" 
			},
			{
				"x": 0.1578082893,
				"y": 1.2230477236,
				"z": -0.8481223922,
				"element": "S" 
			},
			{
				"x": -0.3609860808,
				"y": 2.3802626268,
				"z": -0.1257914528,
				"element": "O" 
			},
			{
				"x": 0.6357868078,
				"y": 1.3503801033,
				"z": -2.2412717413,
				"element": "O" 
			},
			{
				"x": -1.0316960489,
				"y": 0.0814103907,
				"z": -0.8666427011,
				"element": "N" 
			},
			{
				"x": -0.9123580694,
				"y": -1.1472419722,
				"z": -1.6823417326,
				"element": "C" 
			},
			{
				"x": -2.2121850515,
				"y": -1.8767143784,
				"z": -1.3299006802,
				"element": "C" 
			},
			{
				"x": -2.3860616592,
				"y": -1.5744858111,
				"z": 0.1692410903,
				"element": "C" 
			},
			{
				"x": -1.894981745,
				"y": -0.1219019727,
				"z": 0.3276459458,
				"element": "C" 
			},
			{
				"x": 1.7779998673,
				"y": 0.1921440459,
				"z": -2.6068141783,
				"element": "H" 
			},
			{
				"x": 0.918857759,
				"y": 1.6297657642,
				"z": 1.9704689037,
				"element": "H" 
			},
			{
				"x": 2.9343147389,
				"y": 0.4005728255,
				"z": 3.1701734309,
				"element": "H" 
			},
			{
				"x": -0.0379331743,
				"y": -1.7454433664,
				"z": -1.3886423677,
				"element": "H" 
			},
			{
				"x": -0.8203318384,
				"y": -0.8890641981,
				"z": -2.7381035061,
				"element": "H" 
			},
			{
				"x": -3.0411836072,
				"y": -1.4537404666,
				"z": -1.9067704486,
				"element": "H" 
			},
			{
				"x": -2.1546030445,
				"y": -2.9460505165,
				"z": -1.5475790451,
				"element": "H" 
			},
			{
				"x": -3.4155564405,
				"y": -1.6963453538,
				"z": 0.5148756746,
				"element": "H" 
			},
			{
				"x": -1.7549927167,
				"y": -2.2476231059,
				"z": 0.75930699,
				"element": "H" 
			},
			{
				"x": -1.3387303881,
				"y": 0.0232324842,
				"z": 1.259617719,
				"element": "H" 
			},
			{
				"x": -2.7109343331,
				"y": 0.6054459674,
				"z": 0.3042543601,
				"element": "H" 
			}
		],
		 "valence_orbital": [ 
			{
				"type": "occ",
				"energy": -0.31254,
				"method": "rhf"
			},
			{
				"type": "occ",
				"energy": -0.29471,
				"method": "rhf"
			},
			{
				"type": "occ",
				"energy": -0.281,
				"method": "rhf"
			},
			{
				"type": "occ",
				"energy": -0.26987,
				"method": "rhf"
			},
			{
				"type": "occ",
				"energy": -0.26502,
				"method": "rhf"
			},
			{
				"type": "unocc",
				"energy": -0.07883,
				"method": "rhf"
			},
			{
				"type": "unocc",
				"energy": -0.00033,
				"method": "rhf"
			},
			{
				"type": "unocc",
				"energy": 0.00296,
				"method": "rhf"
			},
			{
				"type": "unocc",
				"energy": 0.0414,
				"method": "rhf"
			},
			{
				"type": "unocc",
				"energy": 0.057,
				"method": "rhf"
			}
		],
		"cosmo_sigma_profile": { 
			"-0.025": 0.0,
			"-0.024": 0.0,
			"-0.023": 0.0,
			"-0.022": 0.0,
			"-0.021": 0.0,
			"-0.02": 0.0,
			"-0.019": 0.0,
			"-0.018": 0.0,
			"-0.017": 0.0,
			"-0.016": 0.0,
			"-0.015": 0.0,
			"-0.014": 0.0,
			"-0.013": 0.0,
			"-0.012": 0.0,
			"-0.011": 0.325845167125,
			"-0.01": 2.05904291818,
			"-0.009": 2.92185353555,
			"-0.008": 3.55824792567,
			"-0.007": 4.15571373837,
			"-0.006": 10.5084797626,
			"-0.005": 21.9341550633,
			"-0.004": 31.7076572956,
			"-0.003": 28.4385485205,
			"-0.002": 20.8632539219,
			"-0.001": 20.6489452977,
			"0.0": 15.8315717647,
			"0.001": 15.5771084022,
			"0.002": 10.097833267,
			"0.003": 6.5295252817,
			"0.004": 6.60622741581,
			"0.005": 5.96764925882,
			"0.006": 5.32685842679,
			"0.007": 4.9131771072,
			"0.008": 7.41034132316,
			"0.009": 7.58156948691,
			"0.01": 10.9960360061,
			"0.011": 7.58555942262,
			"0.012": 3.3939167151,
			"0.013": 1.20894431632,
			"0.014": 0.0,
			"0.015": 0.0,
			"0.016": 0.0,
			"0.017": 0.0,
			"0.018": 0.0,
			"0.019": 0.0,
			"0.02": 0.0,
			"0.021": 0.0,
			"0.022": 0.0,
			"0.023": 0.0,
			"0.024": 0.0,
			"0.025": 0.0
		}
	}
}
