{
	 "smiles": "COC1=C(C=C(C=CC(O)=O)C=C1)S(=O)(=O)N(C)C", 
	 "Tm": 503.15, 
	 "num_atms": 34, 
	 "gaussian": { 
		 "optdone": 1, 
		 "sigma_profile": "yes", 
		 "theory": "DFT", 
		 "functional": "B3LYP", 
		 "basiset": "6-31G**", 
		 "properties": { 
			 "R2extent": 7084.926, 
			 "electric_dipole_moment_norm": 3.48757281931, 
			 "electric_quadrupole_moment_norm": 22.0691959654, 
			 "total_energy": -1295.28393538, 
			 "HOMO_LUMO_gap": 0.1592, 
			 "cosmo_polarized_energy": -23.69, 
			 "cosmo_cavitation_energy": 39.92, 
			 "cosmo_dispersion_energy": -27.67, 
			 "cosmo_repulsion_energy": 2.1, 
			 "cosmo_total_nonelectrostatic_energy": 14.36, 
			 "SMD_solvation_energy": 8.9 
		},
		"coords": [
			{
				"x": -2.8235858102,
				"y": -3.0363573503,
				"z": 1.102722122,
				"element": "C" 
			},
			{
				"x": -2.0242468849,
				"y": -2.1772432952,
				"z": 0.2980219754,
				"element": "O" 
			},
			{
				"x": -1.3133041448,
				"y": -1.1959175842,
				"z": 0.8858771059,
				"element": "C" 
			},
			{
				"x": -0.5375179626,
				"y": -0.3747025535,
				"z": 0.0303327373,
				"element": "C" 
			},
			{
				"x": 0.2046925379,
				"y": 0.6741189438,
				"z": 0.5464471914,
				"element": "C" 
			},
			{
				"x": 0.2256924893,
				"y": 0.9442515533,
				"z": 1.9303991956,
				"element": "C" 
			},
			{
				"x": 0.9980924952,
				"y": 2.035526748,
				"z": 2.5178912889,
				"element": "C" 
			},
			{
				"x": 1.7841130707,
				"y": 2.9202394274,
				"z": 1.8731639334,
				"element": "C" 
			},
			{
				"x": 2.5315685879,
				"y": 3.9935563448,
				"z": 2.5442746226,
				"element": "C" 
			},
			{
				"x": 2.3612580367,
				"y": 4.0256057237,
				"z": 3.8951794112,
				"element": "O" 
			},
			{
				"x": 3.244954615,
				"y": 4.7931958423,
				"z": 1.9672352327,
				"element": "O" 
			},
			{
				"x": -0.5385653713,
				"y": 0.1156483761,
				"z": 2.7655650576,
				"element": "C" 
			},
			{
				"x": -1.2990504626,
				"y": -0.9362275649,
				"z": 2.2615605214,
				"element": "C" 
			},
			{
				"x": -0.573418148,
				"y": -0.7255731615,
				"z": -1.7431566099,
				"element": "S" 
			},
			{
				"x": -0.0534612241,
				"y": -2.0822825059,
				"z": -1.9386327927,
				"element": "O" 
			},
			{
				"x": -1.8907078393,
				"y": -0.3394051363,
				"z": -2.2565492418,
				"element": "O" 
			},
			{
				"x": 0.5555178453,
				"y": 0.3882738478,
				"z": -2.350263687,
				"element": "N" 
			},
			{
				"x": 1.9083570357,
				"y": -0.1421563174,
				"z": -2.5596889459,
				"element": "C" 
			},
			{
				"x": 0.078925732,
				"y": 1.285781787,
				"z": -3.4099841184,
				"element": "C" 
			},
			{
				"x": -2.2107862669,
				"y": -3.5902261079,
				"z": 1.8236405057,
				"element": "H" 
			},
			{
				"x": -3.6005069816,
				"y": -2.4746427334,
				"z": 1.6346970468,
				"element": "H" 
			},
			{
				"x": -3.2903875305,
				"y": -3.7357458913,
				"z": 0.4096188027,
				"element": "H" 
			},
			{
				"x": 0.7677930513,
				"y": 1.2863030706,
				"z": -0.1470770803,
				"element": "H" 
			},
			{
				"x": 0.9200745111,
				"y": 2.1316721359,
				"z": 3.5986978087,
				"element": "H" 
			},
			{
				"x": 1.9253967249,
				"y": 2.9054255466,
				"z": 0.7978148281,
				"element": "H" 
			},
			{
				"x": 2.9021194709,
				"y": 4.7698869431,
				"z": 4.2048486395,
				"element": "H" 
			},
			{
				"x": -0.5410081252,
				"y": 0.3003756866,
				"z": 3.8365081464,
				"element": "H" 
			},
			{
				"x": -1.8804663641,
				"y": -1.5488502904,
				"z": 2.9394026073,
				"element": "H" 
			},
			{
				"x": 2.5928785737,
				"y": 0.7067056341,
				"z": -2.6506723289,
				"element": "H" 
			},
			{
				"x": 2.2150171261,
				"y": -0.7450879025,
				"z": -1.7045403906,
				"element": "H" 
			},
			{
				"x": 1.9817231792,
				"y": -0.7607127812,
				"z": -3.463260422,
				"element": "H" 
			},
			{
				"x": 0.0704111948,
				"y": 0.8014149698,
				"z": -4.3960908827,
				"element": "H" 
			},
			{
				"x": -0.9286783565,
				"y": 1.6278992497,
				"z": -3.1807386512,
				"element": "H" 
			},
			{
				"x": 0.7510051949,
				"y": 2.1486493453,
				"z": -3.448143629,
				"element": "H" 
			}
		],
		 "valence_orbital": [ 
			{
				"type": "occ",
				"energy": -0.29348,
				"method": "rhf"
			},
			{
				"type": "occ",
				"energy": -0.273,
				"method": "rhf"
			},
			{
				"type": "occ",
				"energy": -0.27139,
				"method": "rhf"
			},
			{
				"type": "occ",
				"energy": -0.2543,
				"method": "rhf"
			},
			{
				"type": "occ",
				"energy": -0.22913,
				"method": "rhf"
			},
			{
				"type": "unocc",
				"energy": -0.06993,
				"method": "rhf"
			},
			{
				"type": "unocc",
				"energy": -0.03563,
				"method": "rhf"
			},
			{
				"type": "unocc",
				"energy": 0.01295,
				"method": "rhf"
			},
			{
				"type": "unocc",
				"energy": 0.04984,
				"method": "rhf"
			},
			{
				"type": "unocc",
				"energy": 0.06687,
				"method": "rhf"
			}
		],
		"cosmo_sigma_profile": { 
			"-0.025": 0.0,
			"-0.024": 0.0,
			"-0.023": 0.0,
			"-0.022": 0.0,
			"-0.021": 0.0,
			"-0.02": 0.0,
			"-0.019": 0.0,
			"-0.018": 0.351768449835,
			"-0.017": 0.893958156231,
			"-0.016": 0.875297533245,
			"-0.015": 0.882669644459,
			"-0.014": 0.809239386064,
			"-0.013": 0.555483385892,
			"-0.012": 0.701198581265,
			"-0.011": 0.365009107019,
			"-0.01": 0.781402573279,
			"-0.009": 1.55944196095,
			"-0.008": 6.54161548688,
			"-0.007": 12.0057782303,
			"-0.006": 21.9577439075,
			"-0.005": 25.0653016797,
			"-0.004": 28.2239090963,
			"-0.003": 26.567470206,
			"-0.002": 26.7184200999,
			"-0.001": 17.2748110949,
			"0.0": 18.2296888979,
			"0.001": 22.0024669845,
			"0.002": 20.0521385337,
			"0.003": 10.0864711201,
			"0.004": 6.72109972678,
			"0.005": 4.664389097,
			"0.006": 6.41947847665,
			"0.007": 6.03896357356,
			"0.008": 6.16353200917,
			"0.009": 5.43559796445,
			"0.01": 10.4917653086,
			"0.011": 13.5808106041,
			"0.012": 11.7436685467,
			"0.013": 2.94758273791,
			"0.014": 0.225103016198,
			"0.015": 0.0,
			"0.016": 0.0,
			"0.017": 0.0,
			"0.018": 0.0,
			"0.019": 0.0,
			"0.02": 0.0,
			"0.021": 0.0,
			"0.022": 0.0,
			"0.023": 0.0,
			"0.024": 0.0,
			"0.025": 0.0
		}
	}
}
