{
	 "smiles": "CC1=C(Cl)C(=O)N2N=C(N=C2N1)C(F)(F)F", 
	 "Tm": 488.15, 
	 "num_atms": 20, 
	 "gaussian": { 
		 "optdone": 1, 
		 "sigma_profile": "yes", 
		 "theory": "DFT", 
		 "functional": "B3LYP", 
		 "basiset": "6-31G**", 
		 "properties": { 
			 "R2extent": 5427.6288, 
			 "electric_dipole_moment_norm": 7.87473125002, 
			 "electric_quadrupole_moment_norm": 9.79267936522, 
			 "total_energy": -1323.08557394, 
			 "HOMO_LUMO_gap": 0.18641, 
			 "cosmo_polarized_energy": -22.34, 
			 "cosmo_cavitation_energy": 28.92, 
			 "cosmo_dispersion_energy": -21.27, 
			 "cosmo_repulsion_energy": 1.59, 
			 "cosmo_total_nonelectrostatic_energy": 9.24, 
			 "SMD_solvation_energy": 3.96 
		},
		"coords": [
			{
				"x": -2.4643447745,
				"y": 0.7922358242,
				"z": -1.021497791,
				"element": "C" 
			},
			{
				"x": -1.215043487,
				"y": 0.0614342101,
				"z": -0.6270389366,
				"element": "C" 
			},
			{
				"x": -1.0031041242,
				"y": -1.287253991,
				"z": -0.7374225582,
				"element": "C" 
			},
			{
				"x": -2.2247999889,
				"y": -2.3471742642,
				"z": -1.3800540594,
				"element": "Cl" 
			},
			{
				"x": 0.2432078278,
				"y": -1.9627473029,
				"z": -0.3361312201,
				"element": "C" 
			},
			{
				"x": 0.4917878162,
				"y": -3.1419428252,
				"z": -0.4074946927,
				"element": "O" 
			},
			{
				"x": 1.1831310316,
				"y": -1.0149933027,
				"z": 0.1772261481,
				"element": "N" 
			},
			{
				"x": 2.4339314143,
				"y": -1.3090132373,
				"z": 0.6353315969,
				"element": "N" 
			},
			{
				"x": 2.8765982249,
				"y": -0.1151658261,
				"z": 0.9853104966,
				"element": "C" 
			},
			{
				"x": 2.028881463,
				"y": 0.9417255052,
				"z": 0.7989970343,
				"element": "N" 
			},
			{
				"x": 0.9786613827,
				"y": 0.332449819,
				"z": 0.2903946082,
				"element": "C" 
			},
			{
				"x": -0.2123353967,
				"y": 0.858930999,
				"z": -0.1101514891,
				"element": "N" 
			},
			{
				"x": 4.2611004374,
				"y": 0.0521805702,
				"z": 1.5640379663,
				"element": "C" 
			},
			{
				"x": 5.198988076,
				"y": -0.3749097686,
				"z": 0.6983148717,
				"element": "F" 
			},
			{
				"x": 4.5048963493,
				"y": 1.3405579501,
				"z": 1.8460107168,
				"element": "F" 
			},
			{
				"x": 4.3978787025,
				"y": -0.660786338,
				"z": 2.6974103785,
				"element": "F" 
			},
			{
				"x": -2.8921667378,
				"y": 1.3090852302,
				"z": -0.1548747216,
				"element": "H" 
			},
			{
				"x": -3.2103295488,
				"y": 0.1077683912,
				"z": -1.4189300429,
				"element": "H" 
			},
			{
				"x": -2.2393276402,
				"y": 1.5446505483,
				"z": -1.7859871929,
				"element": "H" 
			},
			{
				"x": -0.3400110279,
				"y": 1.8568678085,
				"z": -0.0167511129,
				"element": "H" 
			}
		],
		 "valence_orbital": [ 
			{
				"type": "occ",
				"energy": -0.32706,
				"method": "rhf"
			},
			{
				"type": "occ",
				"energy": -0.31697,
				"method": "rhf"
			},
			{
				"type": "occ",
				"energy": -0.29425,
				"method": "rhf"
			},
			{
				"type": "occ",
				"energy": -0.29048,
				"method": "rhf"
			},
			{
				"type": "occ",
				"energy": -0.25434,
				"method": "rhf"
			},
			{
				"type": "unocc",
				"energy": -0.06793,
				"method": "rhf"
			},
			{
				"type": "unocc",
				"energy": -0.03777,
				"method": "rhf"
			},
			{
				"type": "unocc",
				"energy": 0.00184,
				"method": "rhf"
			},
			{
				"type": "unocc",
				"energy": 0.01422,
				"method": "rhf"
			},
			{
				"type": "unocc",
				"energy": 0.04679,
				"method": "rhf"
			}
		],
		"cosmo_sigma_profile": { 
			"-0.025": 0.0,
			"-0.024": 0.0,
			"-0.023": 0.0,
			"-0.022": 0.0,
			"-0.021": 0.0,
			"-0.02": 0.0593423969666,
			"-0.019": 1.05485829762,
			"-0.018": 1.13216294313,
			"-0.017": 0.945405483803,
			"-0.016": 0.768417340978,
			"-0.015": 1.46630419018,
			"-0.014": 1.51800185176,
			"-0.013": 1.28139463125,
			"-0.012": 1.40467850101,
			"-0.011": 1.61626101557,
			"-0.01": 1.45179798145,
			"-0.009": 2.65785214411,
			"-0.008": 5.46843226116,
			"-0.007": 8.38555565516,
			"-0.006": 9.19706566977,
			"-0.005": 11.0098054297,
			"-0.004": 13.8297423851,
			"-0.003": 17.0079469807,
			"-0.002": 11.6842073375,
			"-0.001": 10.2755067014,
			"0.0": 12.198259188,
			"0.001": 16.346573838,
			"0.002": 36.5981256396,
			"0.003": 17.0644811094,
			"0.004": 9.84034186321,
			"0.005": 4.97090532979,
			"0.006": 4.22738701748,
			"0.007": 3.88328258753,
			"0.008": 3.59344621464,
			"0.009": 4.0098037412,
			"0.01": 5.75132675738,
			"0.011": 7.49183163442,
			"0.012": 4.74487031267,
			"0.013": 2.53724458176,
			"0.014": 0.0840583426812,
			"0.015": 0.0,
			"0.016": 0.0,
			"0.017": 0.0,
			"0.018": 0.0,
			"0.019": 0.0,
			"0.02": 0.0,
			"0.021": 0.0,
			"0.022": 0.0,
			"0.023": 0.0,
			"0.024": 0.0,
			"0.025": 0.0
		}
	}
}
