{
	 "smiles": "NC1=CC(NC(=O)C2=CC=NC=C2)=CC=C1", 
	 "Tm": 459.15, 
	 "num_atms": 27, 
	 "gaussian": { 
		 "optdone": 1, 
		 "sigma_profile": "yes", 
		 "theory": "DFT", 
		 "functional": "B3LYP", 
		 "basiset": "6-31G**", 
		 "properties": { 
			 "R2extent": 4258.8536, 
			 "electric_dipole_moment_norm": 4.57952182766, 
			 "electric_quadrupole_moment_norm": 15.4595364119, 
			 "total_energy": -703.392303813, 
			 "HOMO_LUMO_gap": 0.1578, 
			 "cosmo_polarized_energy": -16.97, 
			 "cosmo_cavitation_energy": 31.65, 
			 "cosmo_dispersion_energy": -22.27, 
			 "cosmo_repulsion_energy": 1.75, 
			 "cosmo_total_nonelectrostatic_energy": 11.13, 
			 "SMD_solvation_energy": 4.59 
		},
		"coords": [
			{
				"x": 1.6853977907,
				"y": -2.1168350196,
				"z": 3.17523325,
				"element": "N" 
			},
			{
				"x": 0.9101040096,
				"y": -1.008453934,
				"z": 2.8463918153,
				"element": "C" 
			},
			{
				"x": 1.31514141,
				"y": -0.1371148391,
				"z": 1.8219535363,
				"element": "C" 
			},
			{
				"x": 0.5008598839,
				"y": 0.9326384464,
				"z": 1.4392086546,
				"element": "C" 
			},
			{
				"x": 0.897734119,
				"y": 1.8378884647,
				"z": 0.418666521,
				"element": "N" 
			},
			{
				"x": 1.6425994846,
				"y": 1.649480762,
				"z": -0.7276844778,
				"element": "C" 
			},
			{
				"x": 2.1903802225,
				"y": 2.6026842319,
				"z": -1.2704119223,
				"element": "O" 
			},
			{
				"x": 1.708428758,
				"y": 0.2819778769,
				"z": -1.3526784056,
				"element": "C" 
			},
			{
				"x": 0.6500284923,
				"y": -0.6328982873,
				"z": -1.341832837,
				"element": "C" 
			},
			{
				"x": 0.795370865,
				"y": -1.8285150398,
				"z": -2.0467019679,
				"element": "C" 
			},
			{
				"x": 1.8973789241,
				"y": -2.1653397386,
				"z": -2.7283440304,
				"element": "N" 
			},
			{
				"x": 2.9011523079,
				"y": -1.2777891878,
				"z": -2.7385330187,
				"element": "C" 
			},
			{
				"x": 2.8529189205,
				"y": -0.0471480286,
				"z": -2.0860951671,
				"element": "C" 
			},
			{
				"x": -0.7097280335,
				"y": 1.1730929342,
				"z": 2.1025241099,
				"element": "C" 
			},
			{
				"x": -1.0932548917,
				"y": 0.3234804807,
				"z": 3.139950081,
				"element": "C" 
			},
			{
				"x": -0.3059124806,
				"y": -0.7624658994,
				"z": 3.5099217756,
				"element": "C" 
			},
			{
				"x": 2.657253681,
				"y": -2.0717765557,
				"z": 2.9033605254,
				"element": "H" 
			},
			{
				"x": 1.5628174945,
				"y": -2.4751824366,
				"z": 4.1116532817,
				"element": "H" 
			},
			{
				"x": 2.2681178288,
				"y": -0.2955889528,
				"z": 1.3278145626,
				"element": "H" 
			},
			{
				"x": 0.8029588224,
				"y": 2.8232964401,
				"z": 0.6351639406,
				"element": "H" 
			},
			{
				"x": -0.2700747674,
				"y": -0.4237915429,
				"z": -0.8082802355,
				"element": "H" 
			},
			{
				"x": -0.0173338532,
				"y": -2.5524920202,
				"z": -2.0610018698,
				"element": "H" 
			},
			{
				"x": 3.7869082414,
				"y": -1.5625920406,
				"z": -3.3036009603,
				"element": "H" 
			},
			{
				"x": 3.675240536,
				"y": 0.6571500043,
				"z": -2.1467969607,
				"element": "H" 
			},
			{
				"x": -1.3373088344,
				"y": 2.0051386006,
				"z": 1.7994778403,
				"element": "H" 
			},
			{
				"x": -2.0281229601,
				"y": 0.5057541635,
				"z": 3.6621989798,
				"element": "H" 
			},
			{
				"x": -0.6251559713,
				"y": -1.4249988822,
				"z": 4.3098429789,
				"element": "H" 
			}
		],
		 "valence_orbital": [ 
			{
				"type": "occ",
				"energy": -0.26687,
				"method": "rhf"
			},
			{
				"type": "occ",
				"energy": -0.26108,
				"method": "rhf"
			},
			{
				"type": "occ",
				"energy": -0.25211,
				"method": "rhf"
			},
			{
				"type": "occ",
				"energy": -0.2351,
				"method": "rhf"
			},
			{
				"type": "occ",
				"energy": -0.21106,
				"method": "rhf"
			},
			{
				"type": "unocc",
				"energy": -0.05326,
				"method": "rhf"
			},
			{
				"type": "unocc",
				"energy": -0.01442,
				"method": "rhf"
			},
			{
				"type": "unocc",
				"energy": -0.00815,
				"method": "rhf"
			},
			{
				"type": "unocc",
				"energy": 0.00741,
				"method": "rhf"
			},
			{
				"type": "unocc",
				"energy": 0.04857,
				"method": "rhf"
			}
		],
		"cosmo_sigma_profile": { 
			"-0.025": 0.0,
			"-0.024": 0.0,
			"-0.023": 0.0,
			"-0.022": 0.0,
			"-0.021": 0.0,
			"-0.02": 0.0,
			"-0.019": 0.0,
			"-0.018": 0.0,
			"-0.017": 0.0,
			"-0.016": 0.0,
			"-0.015": 0.108998782933,
			"-0.014": 0.768846252374,
			"-0.013": 1.89323378344,
			"-0.012": 3.14552965654,
			"-0.011": 4.16129666179,
			"-0.01": 3.74662864919,
			"-0.009": 4.33821755566,
			"-0.008": 3.93962731405,
			"-0.007": 8.24073065677,
			"-0.006": 15.5824328821,
			"-0.005": 17.3068549563,
			"-0.004": 15.5405259897,
			"-0.003": 15.5806854315,
			"-0.002": 13.1537451499,
			"-0.001": 13.6110654243,
			"0.0": 15.5780938016,
			"0.001": 19.9983728449,
			"0.002": 18.9164823749,
			"0.003": 11.4807909202,
			"0.004": 10.4966725282,
			"0.005": 12.4562815409,
			"0.006": 9.25845933322,
			"0.007": 4.75142461638,
			"0.008": 3.79334258473,
			"0.009": 3.41664901851,
			"0.01": 3.10462942712,
			"0.011": 3.52799488606,
			"0.012": 4.43451516427,
			"0.013": 6.73591894783,
			"0.014": 2.00855640497,
			"0.015": 0.679961216484,
			"0.016": 0.878221101385,
			"0.017": 0.0993325719225,
			"0.018": 0.0,
			"0.019": 0.0,
			"0.02": 0.0,
			"0.021": 0.0,
			"0.022": 0.0,
			"0.023": 0.0,
			"0.024": 0.0,
			"0.025": 0.0
		}
	}
}
