{
	 "smiles": "NC1=CC=C(C=C1)[N+]([O-])=O", 
	 "Tm": 421.15, 
	 "num_atms": 16, 
	 "gaussian": { 
		 "optdone": 1, 
		 "sigma_profile": "yes", 
		 "theory": "DFT", 
		 "functional": "B3LYP", 
		 "basiset": "6-31G**", 
		 "properties": { 
			 "R2extent": 1679.7286, 
			 "electric_dipole_moment_norm": 7.1369761426, 
			 "electric_quadrupole_moment_norm": 8.50852148555, 
			 "total_energy": -492.112098068, 
			 "HOMO_LUMO_gap": 0.15788, 
			 "cosmo_polarized_energy": -15.15, 
			 "cosmo_cavitation_energy": 20.89, 
			 "cosmo_dispersion_energy": -15.66, 
			 "cosmo_repulsion_energy": 1.27, 
			 "cosmo_total_nonelectrostatic_energy": 6.5, 
			 "SMD_solvation_energy": 5.94 
		},
		"coords": [
			{
				"x": 2.6192337534,
				"y": 0.9102289452,
				"z": 0.3839291249,
				"element": "N" 
			},
			{
				"x": 1.3198975006,
				"y": 0.4820909695,
				"z": 0.2162408159,
				"element": "C" 
			},
			{
				"x": 1.0295985953,
				"y": -0.6278112373,
				"z": -0.6067954966,
				"element": "C" 
			},
			{
				"x": -0.2703465593,
				"y": -1.087230215,
				"z": -0.7399900991,
				"element": "C" 
			},
			{
				"x": -1.3010376814,
				"y": -0.4425611795,
				"z": -0.0514402357,
				"element": "C" 
			},
			{
				"x": -1.0399878189,
				"y": 0.6572496939,
				"z": 0.7697081104,
				"element": "C" 
			},
			{
				"x": 0.2604912968,
				"y": 1.115469295,
				"z": 0.9018410192,
				"element": "C" 
			},
			{
				"x": -2.6681175702,
				"y": -0.9223167139,
				"z": -0.1940495348,
				"element": "N" 
			},
			{
				"x": -3.5552132336,
				"y": -0.3298957728,
				"z": 0.4269447613,
				"element": "O" 
			},
			{
				"x": -2.8645850863,
				"y": -1.8951107135,
				"z": -0.9279536098,
				"element": "O" 
			},
			{
				"x": 2.7637192531,
				"y": 1.8389291988,
				"z": 0.7501148361,
				"element": "H" 
			},
			{
				"x": 3.3003123534,
				"y": 0.6226363353,
				"z": -0.3022729537,
				"element": "H" 
			},
			{
				"x": 1.8366678079,
				"y": -1.1260118769,
				"z": -1.1368516348,
				"element": "H" 
			},
			{
				"x": -0.5072284531,
				"y": -1.9359946496,
				"z": -1.3695077233,
				"element": "H" 
			},
			{
				"x": -1.8620744661,
				"y": 1.1349541127,
				"z": 1.2881512596,
				"element": "H" 
			},
			{
				"x": 0.4714703084,
				"y": 1.9683738079,
				"z": 1.5410313603,
				"element": "H" 
			}
		],
		 "valence_orbital": [ 
			{
				"type": "occ",
				"energy": -0.29348,
				"method": "rhf"
			},
			{
				"type": "occ",
				"energy": -0.29228,
				"method": "rhf"
			},
			{
				"type": "occ",
				"energy": -0.27401,
				"method": "rhf"
			},
			{
				"type": "occ",
				"energy": -0.27268,
				"method": "rhf"
			},
			{
				"type": "occ",
				"energy": -0.22918,
				"method": "rhf"
			},
			{
				"type": "unocc",
				"energy": -0.0713,
				"method": "rhf"
			},
			{
				"type": "unocc",
				"energy": -0.02009,
				"method": "rhf"
			},
			{
				"type": "unocc",
				"energy": 0.02096,
				"method": "rhf"
			},
			{
				"type": "unocc",
				"energy": 0.05933,
				"method": "rhf"
			},
			{
				"type": "unocc",
				"energy": 0.09093,
				"method": "rhf"
			}
		],
		"cosmo_sigma_profile": { 
			"-0.025": 0.0,
			"-0.024": 0.0,
			"-0.023": 0.0,
			"-0.022": 0.0,
			"-0.021": 0.0,
			"-0.02": 0.0,
			"-0.019": 0.0,
			"-0.018": 0.0,
			"-0.017": 0.0,
			"-0.016": 0.0,
			"-0.015": 0.0384962736155,
			"-0.014": 1.85326340488,
			"-0.013": 3.16964024801,
			"-0.012": 3.11625888719,
			"-0.011": 3.19635329959,
			"-0.01": 2.97812287444,
			"-0.009": 2.99374198545,
			"-0.008": 3.65659399733,
			"-0.007": 6.11706350423,
			"-0.006": 7.41418695033,
			"-0.005": 8.09109781753,
			"-0.004": 6.65369128535,
			"-0.003": 6.49807297144,
			"-0.002": 7.82843831453,
			"-0.001": 8.55140832361,
			"0.0": 11.2181811115,
			"0.001": 10.7863454801,
			"0.002": 13.5086502025,
			"0.003": 15.0448727718,
			"0.004": 6.64291095437,
			"0.005": 2.79551078585,
			"0.006": 3.78713998226,
			"0.007": 4.13195703332,
			"0.008": 7.59279487129,
			"0.009": 9.91079746576,
			"0.01": 4.89927848982,
			"0.011": 3.83923919701,
			"0.012": 0.479298715927,
			"0.013": 0.0,
			"0.014": 0.0,
			"0.015": 0.0,
			"0.016": 0.0,
			"0.017": 0.0,
			"0.018": 0.0,
			"0.019": 0.0,
			"0.02": 0.0,
			"0.021": 0.0,
			"0.022": 0.0,
			"0.023": 0.0,
			"0.024": 0.0,
			"0.025": 0.0
		}
	}
}
