{
	 "smiles": "NS(=O)(=O)C1=CC(=CC=C1)C1=NN=CO1", 
	 "Tm": 458.15, 
	 "num_atms": 22, 
	 "gaussian": { 
		 "optdone": 1, 
		 "sigma_profile": "yes", 
		 "theory": "DFT", 
		 "functional": "B3LYP", 
		 "basiset": "6-31G**", 
		 "properties": { 
			 "R2extent": 4335.9127, 
			 "electric_dipole_moment_norm": 7.24888335539, 
			 "electric_quadrupole_moment_norm": 16.6907516607, 
			 "total_energy": -1097.07590407, 
			 "HOMO_LUMO_gap": 0.1911, 
			 "cosmo_polarized_energy": -25.0, 
			 "cosmo_cavitation_energy": 29.15, 
			 "cosmo_dispersion_energy": -21.85, 
			 "cosmo_repulsion_energy": 1.64, 
			 "cosmo_total_nonelectrostatic_energy": 8.94, 
			 "SMD_solvation_energy": 3.94 
		},
		"coords": [
			{
				"x": -2.5414178651,
				"y": 2.4356749354,
				"z": 1.9476634733,
				"element": "N" 
			},
			{
				"x": -0.9797773426,
				"y": 2.5131142881,
				"z": 1.3405263242,
				"element": "S" 
			},
			{
				"x": -0.891003496,
				"y": 3.7872837159,
				"z": 0.6303478373,
				"element": "O" 
			},
			{
				"x": -0.1043790583,
				"y": 2.1504356835,
				"z": 2.4514426666,
				"element": "O" 
			},
			{
				"x": -0.840820025,
				"y": 1.210456299,
				"z": 0.0990569143,
				"element": "C" 
			},
			{
				"x": -0.5499792422,
				"y": -0.0883497949,
				"z": 0.5065509134,
				"element": "C" 
			},
			{
				"x": -0.4646344757,
				"y": -1.1015906479,
				"z": -0.460035283,
				"element": "C" 
			},
			{
				"x": -0.6570930976,
				"y": -0.7932938242,
				"z": -1.8158275888,
				"element": "C" 
			},
			{
				"x": -0.9315960298,
				"y": 0.5169646882,
				"z": -2.2034505058,
				"element": "C" 
			},
			{
				"x": -1.0266621917,
				"y": 1.530216047,
				"z": -1.2488909651,
				"element": "C" 
			},
			{
				"x": -0.1733861565,
				"y": -2.4647630359,
				"z": -0.027885757,
				"element": "C" 
			},
			{
				"x": -0.0444654619,
				"y": -2.9175052631,
				"z": 1.1846177199,
				"element": "N" 
			},
			{
				"x": 0.2249005935,
				"y": -4.2814754865,
				"z": 1.0745943034,
				"element": "N" 
			},
			{
				"x": 0.2340326313,
				"y": -4.5399125782,
				"z": -0.1908409481,
				"element": "C" 
			},
			{
				"x": -0.0096904936,
				"y": -3.4485778597,
				"z": -0.9635750903,
				"element": "O" 
			},
			{
				"x": -3.2546488705,
				"y": 2.6577936154,
				"z": 1.2611132828,
				"element": "H" 
			},
			{
				"x": -2.7285289499,
				"y": 1.588263214,
				"z": 2.4735628501,
				"element": "H" 
			},
			{
				"x": -0.3690204056,
				"y": -0.3195006546,
				"z": 1.5506950085,
				"element": "H" 
			},
			{
				"x": -0.5847304506,
				"y": -1.5794433922,
				"z": -2.5595354498,
				"element": "H" 
			},
			{
				"x": -1.0662269495,
				"y": 0.7511140814,
				"z": -3.254734716,
				"element": "H" 
			},
			{
				"x": -1.2187380164,
				"y": 2.55880332,
				"z": -1.5338975044,
				"element": "H" 
			},
			{
				"x": 0.4063653537,
				"y": -5.4833073507,
				"z": -0.6853974854,
				"element": "H" 
			}
		],
		 "valence_orbital": [ 
			{
				"type": "occ",
				"energy": -0.31034,
				"method": "rhf"
			},
			{
				"type": "occ",
				"energy": -0.3095,
				"method": "rhf"
			},
			{
				"type": "occ",
				"energy": -0.29292,
				"method": "rhf"
			},
			{
				"type": "occ",
				"energy": -0.28291,
				"method": "rhf"
			},
			{
				"type": "occ",
				"energy": -0.26464,
				"method": "rhf"
			},
			{
				"type": "unocc",
				"energy": -0.07354,
				"method": "rhf"
			},
			{
				"type": "unocc",
				"energy": -0.05044,
				"method": "rhf"
			},
			{
				"type": "unocc",
				"energy": -0.00634,
				"method": "rhf"
			},
			{
				"type": "unocc",
				"energy": 0.03193,
				"method": "rhf"
			},
			{
				"type": "unocc",
				"energy": 0.0448,
				"method": "rhf"
			}
		],
		"cosmo_sigma_profile": { 
			"-0.025": 0.0,
			"-0.024": 0.0,
			"-0.023": 0.0,
			"-0.022": 0.0,
			"-0.021": 0.0,
			"-0.02": 0.0,
			"-0.019": 0.0,
			"-0.018": 0.0,
			"-0.017": 0.0,
			"-0.016": 0.585802725341,
			"-0.015": 2.81711875082,
			"-0.014": 2.31988553955,
			"-0.013": 4.13431104313,
			"-0.012": 5.13046087375,
			"-0.011": 4.09725650818,
			"-0.01": 3.57035910174,
			"-0.009": 3.33153613405,
			"-0.008": 6.77986198686,
			"-0.007": 9.09474228439,
			"-0.006": 9.84960377823,
			"-0.005": 10.6130286495,
			"-0.004": 13.2710691982,
			"-0.003": 13.4089447292,
			"-0.002": 13.0990523241,
			"-0.001": 14.1439348196,
			"0.0": 16.712314729,
			"0.001": 17.0960465623,
			"0.002": 9.40469414429,
			"0.003": 6.04351723611,
			"0.004": 4.54311111764,
			"0.005": 5.4340776996,
			"0.006": 4.968346789,
			"0.007": 6.77126744466,
			"0.008": 6.60408541724,
			"0.009": 6.78519786044,
			"0.01": 11.4219301153,
			"0.011": 13.7365949249,
			"0.012": 5.61158242997,
			"0.013": 2.11606977819,
			"0.014": 1.28497654953,
			"0.015": 0.2011248422,
			"0.016": 0.0,
			"0.017": 0.0,
			"0.018": 0.0,
			"0.019": 0.0,
			"0.02": 0.0,
			"0.021": 0.0,
			"0.022": 0.0,
			"0.023": 0.0,
			"0.024": 0.0,
			"0.025": 0.0
		}
	}
}
