{
	 "smiles": "CC1=C(C=CC(=C1)C(O)=O)N1C=NC=N1", 
	 "Tm": 516.15, 
	 "num_atms": 24, 
	 "gaussian": { 
		 "optdone": 1, 
		 "sigma_profile": "yes", 
		 "theory": "DFT", 
		 "functional": "B3LYP", 
		 "basiset": "6-31G**", 
		 "properties": { 
			 "R2extent": 4672.9198, 
			 "electric_dipole_moment_norm": 3.70612351791, 
			 "electric_quadrupole_moment_norm": 33.5123157311, 
			 "total_energy": -701.182452914, 
			 "HOMO_LUMO_gap": 0.19168, 
			 "cosmo_polarized_energy": -20.15, 
			 "cosmo_cavitation_energy": 28.83, 
			 "cosmo_dispersion_energy": -21.01, 
			 "cosmo_repulsion_energy": 1.6, 
			 "cosmo_total_nonelectrostatic_energy": 9.42, 
			 "SMD_solvation_energy": 4.22 
		},
		"coords": [
			{
				"x": 3.1859284641,
				"y": 0.1292075526,
				"z": 0.4098200046,
				"element": "C" 
			},
			{
				"x": 1.9047324366,
				"y": -0.2490937615,
				"z": 1.1158851808,
				"element": "C" 
			},
			{
				"x": 0.6278036292,
				"y": 0.1523868159,
				"z": 0.6797270665,
				"element": "C" 
			},
			{
				"x": -0.5270016397,
				"y": -0.1964001991,
				"z": 1.3932422699,
				"element": "C" 
			},
			{
				"x": -0.4333573476,
				"y": -0.9662273378,
				"z": 2.5422456984,
				"element": "C" 
			},
			{
				"x": 0.8220370458,
				"y": -1.381699262,
				"z": 3.0040383019,
				"element": "C" 
			},
			{
				"x": 1.9648567057,
				"y": -1.0222928881,
				"z": 2.282637784,
				"element": "C" 
			},
			{
				"x": 0.8688124537,
				"y": -2.22464602,
				"z": 4.2438021689,
				"element": "C" 
			},
			{
				"x": 2.046865146,
				"y": -2.2533091567,
				"z": 4.9231846142,
				"element": "O" 
			},
			{
				"x": -0.0767489623,
				"y": -2.8605464386,
				"z": 4.6446463004,
				"element": "O" 
			},
			{
				"x": 0.4548771973,
				"y": 0.9410878021,
				"z": -0.4933773259,
				"element": "N" 
			},
			{
				"x": 1.0210790526,
				"y": 0.8293493174,
				"z": -1.7281608676,
				"element": "C" 
			},
			{
				"x": 0.503293594,
				"y": 1.7114600735,
				"z": -2.5591046859,
				"element": "N" 
			},
			{
				"x": -0.4086385991,
				"y": 2.3568809051,
				"z": -1.7752606767,
				"element": "C" 
			},
			{
				"x": -0.4878278436,
				"y": 1.9306973573,
				"z": -0.5264279398,
				"element": "N" 
			},
			{
				"x": 3.1445170239,
				"y": 1.145038866,
				"z": 0.0073690961,
				"element": "H" 
			},
			{
				"x": 3.4127149121,
				"y": -0.5459194907,
				"z": -0.4239223345,
				"element": "H" 
			},
			{
				"x": 4.0295342748,
				"y": 0.0744988047,
				"z": 1.102540741,
				"element": "H" 
			},
			{
				"x": -1.4858345434,
				"y": 0.1504903155,
				"z": 1.0270522409,
				"element": "H" 
			},
			{
				"x": -1.3189404478,
				"y": -1.2594872842,
				"z": 3.0946244599,
				"element": "H" 
			},
			{
				"x": 2.9461062016,
				"y": -1.3629746456,
				"z": 2.6059201729,
				"element": "H" 
			},
			{
				"x": 2.6423858708,
				"y": -1.5679326183,
				"z": 4.590263084,
				"element": "H" 
			},
			{
				"x": 1.7704245264,
				"y": 0.0910764768,
				"z": -1.9696266898,
				"element": "H" 
			},
			{
				"x": -1.0287191508,
				"y": 3.1664548157,
				"z": -2.1349186643,
				"element": "H" 
			}
		],
		 "valence_orbital": [ 
			{
				"type": "occ",
				"energy": -0.29141,
				"method": "rhf"
			},
			{
				"type": "occ",
				"energy": -0.28676,
				"method": "rhf"
			},
			{
				"type": "occ",
				"energy": -0.28171,
				"method": "rhf"
			},
			{
				"type": "occ",
				"energy": -0.27652,
				"method": "rhf"
			},
			{
				"type": "occ",
				"energy": -0.25901,
				"method": "rhf"
			},
			{
				"type": "unocc",
				"energy": -0.06733,
				"method": "rhf"
			},
			{
				"type": "unocc",
				"energy": -0.03447,
				"method": "rhf"
			},
			{
				"type": "unocc",
				"energy": -0.00613,
				"method": "rhf"
			},
			{
				"type": "unocc",
				"energy": 0.03808,
				"method": "rhf"
			},
			{
				"type": "unocc",
				"energy": 0.04028,
				"method": "rhf"
			}
		],
		"cosmo_sigma_profile": { 
			"-0.025": 0.0,
			"-0.024": 0.0,
			"-0.023": 0.0,
			"-0.022": 0.0,
			"-0.021": 0.0,
			"-0.02": 0.0,
			"-0.019": 0.232183901381,
			"-0.018": 0.979788446778,
			"-0.017": 0.956271265146,
			"-0.016": 1.00316050487,
			"-0.015": 0.766447538823,
			"-0.014": 1.27635637253,
			"-0.013": 0.998088208381,
			"-0.012": 1.19829712363,
			"-0.011": 1.8561863525,
			"-0.01": 3.96801201608,
			"-0.009": 4.62723474644,
			"-0.008": 6.27581532663,
			"-0.007": 6.9840119767,
			"-0.006": 11.0817327058,
			"-0.005": 12.8618512754,
			"-0.004": 14.5693573665,
			"-0.003": 15.9203806213,
			"-0.002": 17.9066512522,
			"-0.001": 16.18218938,
			"0.0": 13.1669469926,
			"0.001": 14.6591851405,
			"0.002": 16.662630232,
			"0.003": 8.05159504501,
			"0.004": 5.81269802859,
			"0.005": 5.20624081693,
			"0.006": 5.70838068735,
			"0.007": 5.19445578182,
			"0.008": 4.58716973776,
			"0.009": 5.94892074796,
			"0.01": 6.66567655315,
			"0.011": 7.7751149144,
			"0.012": 6.69828467954,
			"0.013": 2.76345544887,
			"0.014": 1.11139892843,
			"0.015": 1.36175145501,
			"0.016": 0.584303766068,
			"0.017": 0.0117801209326,
			"0.018": 0.0,
			"0.019": 0.0,
			"0.02": 0.0,
			"0.021": 0.0,
			"0.022": 0.0,
			"0.023": 0.0,
			"0.024": 0.0,
			"0.025": 0.0
		}
	}
}
