{
	 "smiles": "O=N(=O)C1=CC=CC=C1SC1=CC=CC=C1", 
	 "Tm": 355.15, 
	 "num_atms": 25, 
	 "gaussian": { 
		 "optdone": 1, 
		 "sigma_profile": "yes", 
		 "theory": "DFT", 
		 "functional": "B3LYP", 
		 "basiset": "6-31G**", 
		 "properties": { 
			 "R2extent": 5173.5751, 
			 "electric_dipole_moment_norm": 3.32802055583, 
			 "electric_quadrupole_moment_norm": 17.7501486405, 
			 "total_energy": -1065.97231549, 
			 "HOMO_LUMO_gap": 0.13857, 
			 "cosmo_polarized_energy": -10.66, 
			 "cosmo_cavitation_energy": 31.39, 
			 "cosmo_dispersion_energy": -22.31, 
			 "cosmo_repulsion_energy": 1.69, 
			 "cosmo_total_nonelectrostatic_energy": 10.77, 
			 "SMD_solvation_energy": 6.97 
		},
		"coords": [
			{
				"x": -2.1022560733,
				"y": -0.4798163372,
				"z": -2.2531305695,
				"element": "O" 
			},
			{
				"x": -1.8893956201,
				"y": -1.0801869387,
				"z": -1.2042055083,
				"element": "N" 
			},
			{
				"x": -1.0838141985,
				"y": -2.0021579523,
				"z": -1.0732395336,
				"element": "O" 
			},
			{
				"x": -2.6902353825,
				"y": -0.7185116119,
				"z": -0.0186530038,
				"element": "C" 
			},
			{
				"x": -3.0097819853,
				"y": -1.7802794244,
				"z": 0.8306341235,
				"element": "C" 
			},
			{
				"x": -3.8460747462,
				"y": -1.5741128885,
				"z": 1.9223631772,
				"element": "C" 
			},
			{
				"x": -4.3383929504,
				"y": -0.2925638178,
				"z": 2.1745611356,
				"element": "C" 
			},
			{
				"x": -3.9724451141,
				"y": 0.7717449271,
				"z": 1.3536782515,
				"element": "C" 
			},
			{
				"x": -3.1447846949,
				"y": 0.5909140226,
				"z": 0.2327753919,
				"element": "C" 
			},
			{
				"x": -2.8155668945,
				"y": 2.0630101983,
				"z": -0.7277986109,
				"element": "S" 
			},
			{
				"x": -1.038874226,
				"y": 2.0398182392,
				"z": -0.9815311369,
				"element": "C" 
			},
			{
				"x": -0.1514718043,
				"y": 1.9336221267,
				"z": 0.0975449732,
				"element": "C" 
			},
			{
				"x": 1.2233312103,
				"y": 1.9921422709,
				"z": -0.1282468474,
				"element": "C" 
			},
			{
				"x": 1.7168751454,
				"y": 2.1840682015,
				"z": -1.4211594031,
				"element": "C" 
			},
			{
				"x": 0.8305500922,
				"y": 2.3040616771,
				"z": -2.4921797825,
				"element": "C" 
			},
			{
				"x": -0.546403967,
				"y": 2.2200972213,
				"z": -2.2789991902,
				"element": "C" 
			},
			{
				"x": -2.6047199852,
				"y": -2.7589384607,
				"z": 0.6040181733,
				"element": "H" 
			},
			{
				"x": -4.1068099604,
				"y": -2.4055364136,
				"z": 2.5689822705,
				"element": "H" 
			},
			{
				"x": -4.9876035111,
				"y": -0.1126712001,
				"z": 3.0261559071,
				"element": "H" 
			},
			{
				"x": -4.3141613746,
				"y": 1.7761064113,
				"z": 1.5820574195,
				"element": "H" 
			},
			{
				"x": -0.5355410035,
				"y": 1.8081394843,
				"z": 1.1050694201,
				"element": "H" 
			},
			{
				"x": 1.9087910481,
				"y": 1.9011624028,
				"z": 0.7094422744,
				"element": "H" 
			},
			{
				"x": 2.7880064881,
				"y": 2.2375618731,
				"z": -1.5918627338,
				"element": "H" 
			},
			{
				"x": 1.2087611148,
				"y": 2.4444529715,
				"z": -3.5004989661,
				"element": "H" 
			},
			{
				"x": -1.237881607,
				"y": 2.2785730174,
				"z": -3.1125772319,
				"element": "H" 
			}
		],
		 "valence_orbital": [ 
			{
				"type": "occ",
				"energy": -0.28677,
				"method": "rhf"
			},
			{
				"type": "occ",
				"energy": -0.2735,
				"method": "rhf"
			},
			{
				"type": "occ",
				"energy": -0.26505,
				"method": "rhf"
			},
			{
				"type": "occ",
				"energy": -0.25581,
				"method": "rhf"
			},
			{
				"type": "occ",
				"energy": -0.22308,
				"method": "rhf"
			},
			{
				"type": "unocc",
				"energy": -0.08451,
				"method": "rhf"
			},
			{
				"type": "unocc",
				"energy": -0.03426,
				"method": "rhf"
			},
			{
				"type": "unocc",
				"energy": -0.01972,
				"method": "rhf"
			},
			{
				"type": "unocc",
				"energy": -0.01154,
				"method": "rhf"
			},
			{
				"type": "unocc",
				"energy": -0.00486,
				"method": "rhf"
			}
		],
		"cosmo_sigma_profile": { 
			"-0.025": 0.0,
			"-0.024": 0.0,
			"-0.023": 0.0,
			"-0.022": 0.0,
			"-0.021": 0.0,
			"-0.02": 0.0,
			"-0.019": 0.0,
			"-0.018": 0.0,
			"-0.017": 0.0,
			"-0.016": 0.0,
			"-0.015": 0.0,
			"-0.014": 0.0,
			"-0.013": 0.0,
			"-0.012": 0.0,
			"-0.011": 0.0,
			"-0.01": 0.0,
			"-0.009": 0.00335495847574,
			"-0.008": 2.71522683278,
			"-0.007": 10.5215197364,
			"-0.006": 18.9537564038,
			"-0.005": 17.7692029499,
			"-0.004": 18.1281336467,
			"-0.003": 17.063051641,
			"-0.002": 15.9250176389,
			"-0.001": 18.1941088134,
			"0.0": 18.4539954898,
			"0.001": 22.2633121653,
			"0.002": 20.7000024802,
			"0.003": 15.409948101,
			"0.004": 15.9139753524,
			"0.005": 10.5632100574,
			"0.006": 6.18068705245,
			"0.007": 9.20459891024,
			"0.008": 7.97303483787,
			"0.009": 5.34621352319,
			"0.01": 2.92100428746,
			"0.011": 0.0713269856324,
			"0.012": 0.0,
			"0.013": 0.0,
			"0.014": 0.0,
			"0.015": 0.0,
			"0.016": 0.0,
			"0.017": 0.0,
			"0.018": 0.0,
			"0.019": 0.0,
			"0.02": 0.0,
			"0.021": 0.0,
			"0.022": 0.0,
			"0.023": 0.0,
			"0.024": 0.0,
			"0.025": 0.0
		}
	}
}
