{
	 "smiles": "CC(C=CC1=CC=CC=C1)=NO", 
	 "Tm": 391.15, 
	 "num_atms": 23, 
	 "gaussian": { 
		 "optdone": 1, 
		 "sigma_profile": "yes", 
		 "theory": "DFT", 
		 "functional": "B3LYP", 
		 "basiset": "6-31G**", 
		 "properties": { 
			 "R2extent": 4187.9993, 
			 "electric_dipole_moment_norm": 0.392767959488, 
			 "electric_quadrupole_moment_norm": 9.09657512364, 
			 "total_energy": -517.602361576, 
			 "HOMO_LUMO_gap": 0.14946, 
			 "cosmo_polarized_energy": -9.14, 
			 "cosmo_cavitation_energy": 27.5, 
			 "cosmo_dispersion_energy": -20.07, 
			 "cosmo_repulsion_energy": 1.61, 
			 "cosmo_total_nonelectrostatic_energy": 9.04, 
			 "SMD_solvation_energy": 5.06 
		},
		"coords": [
			{
				"x": -0.6939665077,
				"y": 1.4371444298,
				"z": -4.8706439123,
				"element": "C" 
			},
			{
				"x": -1.3376645316,
				"y": 0.8494153138,
				"z": -3.6394036332,
				"element": "C" 
			},
			{
				"x": -0.5019385722,
				"y": 0.1513125596,
				"z": -2.6533156249,
				"element": "C" 
			},
			{
				"x": -0.9538568639,
				"y": -0.4486053844,
				"z": -1.5325815343,
				"element": "C" 
			},
			{
				"x": -0.162042792,
				"y": -1.1518168093,
				"z": -0.5222417434,
				"element": "C" 
			},
			{
				"x": -0.830455354,
				"y": -1.7329148713,
				"z": 0.5723215049,
				"element": "C" 
			},
			{
				"x": -0.1332581149,
				"y": -2.4167524458,
				"z": 1.5663790525,
				"element": "C" 
			},
			{
				"x": 1.2549233686,
				"y": -2.5364536596,
				"z": 1.4903969342,
				"element": "C" 
			},
			{
				"x": 1.9367203013,
				"y": -1.9648270962,
				"z": 0.410871847,
				"element": "C" 
			},
			{
				"x": 1.2403956858,
				"y": -1.2822343581,
				"z": -0.5809679497,
				"element": "C" 
			},
			{
				"x": -2.6058654794,
				"y": 0.9328063498,
				"z": -3.4102241982,
				"element": "N" 
			},
			{
				"x": -3.2643294002,
				"y": 1.6198001816,
				"z": -4.4430241459,
				"element": "O" 
			},
			{
				"x": 0.3856600878,
				"y": 1.2748696118,
				"z": -4.8730559008,
				"element": "H" 
			},
			{
				"x": -1.1229995368,
				"y": 0.9918496594,
				"z": -5.7742754446,
				"element": "H" 
			},
			{
				"x": -0.894402471,
				"y": 2.5117821272,
				"z": -4.9296803445,
				"element": "H" 
			},
			{
				"x": 0.5597049892,
				"y": 0.1399721055,
				"z": -2.8871452954,
				"element": "H" 
			},
			{
				"x": -2.0256570537,
				"y": -0.4142799284,
				"z": -1.3478086841,
				"element": "H" 
			},
			{
				"x": -1.911850959,
				"y": -1.6425489602,
				"z": 0.6360400841,
				"element": "H" 
			},
			{
				"x": -0.6741011889,
				"y": -2.855801269,
				"z": 2.3999581108,
				"element": "H" 
			},
			{
				"x": 1.8026252561,
				"y": -3.0682559405,
				"z": 2.2629131175,
				"element": "H" 
			},
			{
				"x": 3.0176223318,
				"y": -2.0523511084,
				"z": 0.3445347643,
				"element": "H" 
			},
			{
				"x": 1.7909696232,
				"y": -0.8449545125,
				"z": -1.4082303198,
				"element": "H" 
			},
			{
				"x": -4.1815328185,
				"y": 1.6091440056,
				"z": -4.1393166841,
				"element": "H" 
			}
		],
		 "valence_orbital": [ 
			{
				"type": "occ",
				"energy": -0.31133,
				"method": "rhf"
			},
			{
				"type": "occ",
				"energy": -0.26844,
				"method": "rhf"
			},
			{
				"type": "occ",
				"energy": -0.26204,
				"method": "rhf"
			},
			{
				"type": "occ",
				"energy": -0.25128,
				"method": "rhf"
			},
			{
				"type": "occ",
				"energy": -0.20415,
				"method": "rhf"
			},
			{
				"type": "unocc",
				"energy": -0.05469,
				"method": "rhf"
			},
			{
				"type": "unocc",
				"energy": -0.00033,
				"method": "rhf"
			},
			{
				"type": "unocc",
				"energy": 0.02215,
				"method": "rhf"
			},
			{
				"type": "unocc",
				"energy": 0.07853,
				"method": "rhf"
			},
			{
				"type": "unocc",
				"energy": 0.09391,
				"method": "rhf"
			}
		],
		"cosmo_sigma_profile": { 
			"-0.025": 0.0,
			"-0.024": 0.0,
			"-0.023": 0.0,
			"-0.022": 0.0,
			"-0.021": 0.0,
			"-0.02": 0.0,
			"-0.019": 0.0,
			"-0.018": 0.0588110331985,
			"-0.017": 0.950881112519,
			"-0.016": 0.736401069593,
			"-0.015": 1.02690825579,
			"-0.014": 0.603053157502,
			"-0.013": 0.458275472273,
			"-0.012": 0.695987778197,
			"-0.011": 1.15789377085,
			"-0.01": 0.701704489976,
			"-0.009": 0.49801247448,
			"-0.008": 1.09631994894,
			"-0.007": 2.52980410488,
			"-0.006": 11.2102008862,
			"-0.005": 15.706381254,
			"-0.004": 18.5268580555,
			"-0.003": 16.297449217,
			"-0.002": 15.1211729948,
			"-0.001": 17.183950145,
			"0.0": 14.333414733,
			"0.001": 11.9535362319,
			"0.002": 12.3845837055,
			"0.003": 14.1487141434,
			"0.004": 18.6185754547,
			"0.005": 18.3784627647,
			"0.006": 8.78109133236,
			"0.007": 4.00591270687,
			"0.008": 3.39941447856,
			"0.009": 3.6945341154,
			"0.01": 3.21986333633,
			"0.011": 1.17268100829,
			"0.012": 0.0596474413426,
			"0.013": 0.0,
			"0.014": 0.0,
			"0.015": 0.0,
			"0.016": 0.0,
			"0.017": 0.0,
			"0.018": 0.0,
			"0.019": 0.0,
			"0.02": 0.0,
			"0.021": 0.0,
			"0.022": 0.0,
			"0.023": 0.0,
			"0.024": 0.0,
			"0.025": 0.0
		}
	}
}
