{
	 "smiles": "NC1=C(O)C=CC(=C1)S(=O)(=O)N1CCOCC1", 
	 "Tm": 473.15, 
	 "num_atms": 31, 
	 "gaussian": { 
		 "optdone": 1, 
		 "sigma_profile": "yes", 
		 "theory": "DFT", 
		 "functional": "B3LYP", 
		 "basiset": "6-31G**", 
		 "properties": { 
			 "R2extent": 5184.1635, 
			 "electric_dipole_moment_norm": 6.15574357003, 
			 "electric_quadrupole_moment_norm": 25.3044368568, 
			 "total_energy": -1197.99016446, 
			 "HOMO_LUMO_gap": 0.1891, 
			 "cosmo_polarized_energy": -23.65, 
			 "cosmo_cavitation_energy": 34.37, 
			 "cosmo_dispersion_energy": -25.2, 
			 "cosmo_repulsion_energy": 1.93, 
			 "cosmo_total_nonelectrostatic_energy": 11.09, 
			 "SMD_solvation_energy": 3.97 
		},
		"coords": [
			{
				"x": -2.1756462197,
				"y": 0.4806482494,
				"z": -2.4523609515,
				"element": "N" 
			},
			{
				"x": -1.7853958706,
				"y": -0.1144339017,
				"z": -1.2619620767,
				"element": "C" 
			},
			{
				"x": -1.6376283549,
				"y": -1.5221148326,
				"z": -1.2122947628,
				"element": "C" 
			},
			{
				"x": -1.8245733402,
				"y": -2.1735956016,
				"z": -2.4026695707,
				"element": "O" 
			},
			{
				"x": -1.3312400185,
				"y": -2.1697380895,
				"z": -0.0205115519,
				"element": "C" 
			},
			{
				"x": -1.1442638916,
				"y": -1.4416285969,
				"z": 1.1577982808,
				"element": "C" 
			},
			{
				"x": -1.2692330331,
				"y": -0.0538644793,
				"z": 1.1084945181,
				"element": "C" 
			},
			{
				"x": -1.5901038963,
				"y": 0.6092669752,
				"z": -0.0821438425,
				"element": "C" 
			},
			{
				"x": -0.9656941018,
				"y": 0.9126749091,
				"z": 2.5885243517,
				"element": "S" 
			},
			{
				"x": -1.2203278211,
				"y": 0.0405508814,
				"z": 3.7374405804,
				"element": "O" 
			},
			{
				"x": -1.6333468506,
				"y": 2.2059807914,
				"z": 2.4152218747,
				"element": "O" 
			},
			{
				"x": 0.6824504095,
				"y": 1.2480431183,
				"z": 2.6373093882,
				"element": "N" 
			},
			{
				"x": 1.591302487,
				"y": 0.118626808,
				"z": 2.9051149557,
				"element": "C" 
			},
			{
				"x": 3.0259361679,
				"y": 0.6329596175,
				"z": 2.8439990241,
				"element": "C" 
			},
			{
				"x": 3.3774636461,
				"y": 1.1417840028,
				"z": 1.5602716227,
				"element": "O" 
			},
			{
				"x": 2.3036547073,
				"y": 1.7536020913,
				"z": 0.846254673,
				"element": "C" 
			},
			{
				"x": 1.2265723634,
				"y": 2.3125626987,
				"z": 1.7716125084,
				"element": "C" 
			},
			{
				"x": -1.9481653716,
				"y": 1.4579480698,
				"z": -2.5589014996,
				"element": "H" 
			},
			{
				"x": -2.0163138245,
				"y": -0.0726758752,
				"z": -3.2817853616,
				"element": "H" 
			},
			{
				"x": -1.7138520066,
				"y": -3.1239121588,
				"z": -2.2725133952,
				"element": "H" 
			},
			{
				"x": -1.2426441788,
				"y": -3.254014484,
				"z": -0.0092067859,
				"element": "H" 
			},
			{
				"x": -0.9406449051,
				"y": -1.9413486556,
				"z": 2.0968690665,
				"element": "H" 
			},
			{
				"x": -1.7341339005,
				"y": 1.6847508127,
				"z": -0.0756140355,
				"element": "H" 
			},
			{
				"x": 1.3738190655,
				"y": -0.2867443062,
				"z": 3.8961247928,
				"element": "H" 
			},
			{
				"x": 1.4661790554,
				"y": -0.688970249,
				"z": 2.1674906059,
				"element": "H" 
			},
			{
				"x": 3.7184791982,
				"y": -0.1872673571,
				"z": 3.0573294254,
				"element": "H" 
			},
			{
				"x": 3.1695789802,
				"y": 1.4036027972,
				"z": 3.6165743979,
				"element": "H" 
			},
			{
				"x": 1.850151035,
				"y": 1.0273171019,
				"z": 0.154395449,
				"element": "H" 
			},
			{
				"x": 2.7383689915,
				"y": 2.5612446142,
				"z": 0.2466714155,
				"element": "H" 
			},
			{
				"x": 1.647772197,
				"y": 3.1045175752,
				"z": 2.4028812522,
				"element": "H" 
			},
			{
				"x": 0.4180792817,
				"y": 2.7654274735,
				"z": 1.1944856508,
				"element": "H" 
			}
		],
		 "valence_orbital": [ 
			{
				"type": "occ",
				"energy": -0.29084,
				"method": "rhf"
			},
			{
				"type": "occ",
				"energy": -0.26293,
				"method": "rhf"
			},
			{
				"type": "occ",
				"energy": -0.25656,
				"method": "rhf"
			},
			{
				"type": "occ",
				"energy": -0.2398,
				"method": "rhf"
			},
			{
				"type": "occ",
				"energy": -0.21092,
				"method": "rhf"
			},
			{
				"type": "unocc",
				"energy": -0.02182,
				"method": "rhf"
			},
			{
				"type": "unocc",
				"energy": -0.00658,
				"method": "rhf"
			},
			{
				"type": "unocc",
				"energy": 0.04922,
				"method": "rhf"
			},
			{
				"type": "unocc",
				"energy": 0.06092,
				"method": "rhf"
			},
			{
				"type": "unocc",
				"energy": 0.07962,
				"method": "rhf"
			}
		],
		"cosmo_sigma_profile": { 
			"-0.025": 0.0,
			"-0.024": 0.0,
			"-0.023": 0.0,
			"-0.022": 0.0,
			"-0.021": 0.0,
			"-0.02": 0.0,
			"-0.019": 0.097852466722,
			"-0.018": 1.01532337129,
			"-0.017": 0.96739825447,
			"-0.016": 0.987612562525,
			"-0.015": 1.179873533,
			"-0.014": 1.66690457959,
			"-0.013": 1.93799720536,
			"-0.012": 1.79326411823,
			"-0.011": 3.45172013972,
			"-0.01": 4.13306004995,
			"-0.009": 3.44145044069,
			"-0.008": 2.95465091977,
			"-0.007": 5.05664834529,
			"-0.006": 14.6005740954,
			"-0.005": 23.3777990954,
			"-0.004": 25.100730396,
			"-0.003": 21.1528400995,
			"-0.002": 15.0852105225,
			"-0.001": 12.266523425,
			"0.0": 10.5468365907,
			"0.001": 11.0082492737,
			"0.002": 12.3286336514,
			"0.003": 14.6481759376,
			"0.004": 15.0276730054,
			"0.005": 8.99934701675,
			"0.006": 8.47615770405,
			"0.007": 7.91555440546,
			"0.008": 8.30699216839,
			"0.009": 4.29759685838,
			"0.01": 8.33941959319,
			"0.011": 9.73158391721,
			"0.012": 7.9763784662,
			"0.013": 2.58176842732,
			"0.014": 0.21829666983,
			"0.015": 0.0,
			"0.016": 0.0,
			"0.017": 0.0,
			"0.018": 0.0,
			"0.019": 0.0,
			"0.02": 0.0,
			"0.021": 0.0,
			"0.022": 0.0,
			"0.023": 0.0,
			"0.024": 0.0,
			"0.025": 0.0
		}
	}
}
