{
	 "smiles": "CC(=O)C1=CC=C(S1)C1=CC=C(Cl)C=C1", 
	 "Tm": 394.15, 
	 "num_atms": 24, 
	 "gaussian": { 
		 "optdone": 1, 
		 "sigma_profile": "yes", 
		 "theory": "DFT", 
		 "functional": "B3LYP", 
		 "basiset": "6-31G**", 
		 "properties": { 
			 "R2extent": 6244.9194, 
			 "electric_dipole_moment_norm": 1.51716789117, 
			 "electric_quadrupole_moment_norm": 20.7506619188, 
			 "total_energy": -1396.30352508, 
			 "HOMO_LUMO_gap": 0.15088, 
			 "cosmo_polarized_energy": -9.78, 
			 "cosmo_cavitation_energy": 32.16, 
			 "cosmo_dispersion_energy": -23.91, 
			 "cosmo_repulsion_energy": 1.81, 
			 "cosmo_total_nonelectrostatic_energy": 10.06, 
			 "SMD_solvation_energy": 5.53 
		},
		"coords": [
			{
				"x": -0.2911918508,
				"y": -1.7820398425,
				"z": 4.1412040886,
				"element": "C" 
			},
			{
				"x": -0.7607932042,
				"y": -2.6403740636,
				"z": 2.9804586432,
				"element": "C" 
			},
			{
				"x": -1.1039499567,
				"y": -3.8035536407,
				"z": 3.1395620414,
				"element": "O" 
			},
			{
				"x": -0.7993058246,
				"y": -2.0405014033,
				"z": 1.6284601999,
				"element": "C" 
			},
			{
				"x": -1.1948774002,
				"y": -2.69113977,
				"z": 0.4792354988,
				"element": "C" 
			},
			{
				"x": -1.1309048929,
				"y": -1.8815757182,
				"z": -0.6774875609,
				"element": "C" 
			},
			{
				"x": -0.6831415608,
				"y": -0.5966093653,
				"z": -0.4300353136,
				"element": "C" 
			},
			{
				"x": -0.346062059,
				"y": -0.3887048884,
				"z": 1.271590076,
				"element": "S" 
			},
			{
				"x": -0.4971574755,
				"y": 0.498014101,
				"z": -1.3889596854,
				"element": "C" 
			},
			{
				"x": 0.436412768,
				"y": 1.5260127375,
				"z": -1.1657669886,
				"element": "C" 
			},
			{
				"x": 0.6089327849,
				"y": 2.5573444905,
				"z": -2.0846196513,
				"element": "C" 
			},
			{
				"x": -0.1539957757,
				"y": 2.566071805,
				"z": -3.2520565379,
				"element": "C" 
			},
			{
				"x": 0.0605677779,
				"y": 3.8598453442,
				"z": -4.4183635933,
				"element": "Cl" 
			},
			{
				"x": -1.0879082915,
				"y": 1.5603543166,
				"z": -3.5031844922,
				"element": "C" 
			},
			{
				"x": -1.2576269144,
				"y": 0.5399616391,
				"z": -2.5724313025,
				"element": "C" 
			},
			{
				"x": 0.7313860462,
				"y": -1.4251545753,
				"z": 3.9735307271,
				"element": "H" 
			},
			{
				"x": -0.32323034,
				"y": -2.3745486418,
				"z": 5.056006575,
				"element": "H" 
			},
			{
				"x": -0.9301696697,
				"y": -0.8990487342,
				"z": 4.2565429345,
				"element": "H" 
			},
			{
				"x": -1.5083800791,
				"y": -3.7279200283,
				"z": 0.4981726891,
				"element": "H" 
			},
			{
				"x": -1.3750682496,
				"y": -2.235900588,
				"z": -1.6722787499,
				"element": "H" 
			},
			{
				"x": 1.0523572514,
				"y": 1.5104359841,
				"z": -0.2716046881,
				"element": "H" 
			},
			{
				"x": 1.3350438036,
				"y": 3.341876304,
				"z": -1.9032682594,
				"element": "H" 
			},
			{
				"x": -1.6822466773,
				"y": 1.5843442089,
				"z": -4.4097921445,
				"element": "H" 
			},
			{
				"x": -2.00699021,
				"y": -0.2228896712,
				"z": -2.7568145061,
				"element": "H" 
			}
		],
		 "valence_orbital": [ 
			{
				"type": "occ",
				"energy": -0.27869,
				"method": "rhf"
			},
			{
				"type": "occ",
				"energy": -0.27633,
				"method": "rhf"
			},
			{
				"type": "occ",
				"energy": -0.26822,
				"method": "rhf"
			},
			{
				"type": "occ",
				"energy": -0.25295,
				"method": "rhf"
			},
			{
				"type": "occ",
				"energy": -0.22695,
				"method": "rhf"
			},
			{
				"type": "unocc",
				"energy": -0.07607,
				"method": "rhf"
			},
			{
				"type": "unocc",
				"energy": -0.02717,
				"method": "rhf"
			},
			{
				"type": "unocc",
				"energy": -0.02297,
				"method": "rhf"
			},
			{
				"type": "unocc",
				"energy": 0.01446,
				"method": "rhf"
			},
			{
				"type": "unocc",
				"energy": 0.024,
				"method": "rhf"
			}
		],
		"cosmo_sigma_profile": { 
			"-0.025": 0.0,
			"-0.024": 0.0,
			"-0.023": 0.0,
			"-0.022": 0.0,
			"-0.021": 0.0,
			"-0.02": 0.0,
			"-0.019": 0.0,
			"-0.018": 0.0,
			"-0.017": 0.0,
			"-0.016": 0.0,
			"-0.015": 0.0,
			"-0.014": 0.0,
			"-0.013": 0.0,
			"-0.012": 0.0,
			"-0.011": 0.0,
			"-0.01": 0.0,
			"-0.009": 0.0,
			"-0.008": 3.19565644499,
			"-0.007": 10.91786141,
			"-0.006": 15.1953380878,
			"-0.005": 18.0631516928,
			"-0.004": 15.9916189114,
			"-0.003": 17.1221015436,
			"-0.002": 16.0814351965,
			"-0.001": 20.2214503256,
			"0.0": 19.0613945284,
			"0.001": 25.693401536,
			"0.002": 33.5695537134,
			"0.003": 30.2331523498,
			"0.004": 13.0877936836,
			"0.005": 5.94248070457,
			"0.006": 1.80559996968,
			"0.007": 1.53365390737,
			"0.008": 1.46125054552,
			"0.009": 1.90552455463,
			"0.01": 1.85983325956,
			"0.011": 3.21269070029,
			"0.012": 4.27743881711,
			"0.013": 1.85929873043,
			"0.014": 0.176682159923,
			"0.015": 0.0,
			"0.016": 0.0,
			"0.017": 0.0,
			"0.018": 0.0,
			"0.019": 0.0,
			"0.02": 0.0,
			"0.021": 0.0,
			"0.022": 0.0,
			"0.023": 0.0,
			"0.024": 0.0,
			"0.025": 0.0
		}
	}
}
