{
	 "smiles": "NC12CC3CC(CC(C3)C1)C2", 
	 "Tm": 453.15, 
	 "num_atms": 28, 
	 "gaussian": { 
		 "optdone": 1, 
		 "sigma_profile": "yes", 
		 "theory": "DFT", 
		 "functional": "B3LYP", 
		 "basiset": "6-31G**", 
		 "properties": { 
			 "R2extent": 1499.3013, 
			 "electric_dipole_moment_norm": 1.18463784761, 
			 "electric_quadrupole_moment_norm": 6.15353877537, 
			 "total_energy": -446.09192389, 
			 "HOMO_LUMO_gap": 0.29388, 
			 "cosmo_polarized_energy": -4.72, 
			 "cosmo_cavitation_energy": 25.19, 
			 "cosmo_dispersion_energy": -19.46, 
			 "cosmo_repulsion_energy": 1.52, 
			 "cosmo_total_nonelectrostatic_energy": 7.25, 
			 "SMD_solvation_energy": 1.98 
		},
		"coords": [
			{
				"x": 1.1522566545,
				"y": -2.8419591546,
				"z": -0.5126533996,
				"element": "N" 
			},
			{
				"x": 0.7037253793,
				"y": -1.4459812961,
				"z": -0.4250112554,
				"element": "C" 
			},
			{
				"x": 1.8521777596,
				"y": -0.4344319394,
				"z": -0.1759437242,
				"element": "C" 
			},
			{
				"x": 1.305008957,
				"y": 1.006776788,
				"z": -0.0962175697,
				"element": "C" 
			},
			{
				"x": 0.2894814531,
				"y": 1.0997533548,
				"z": 1.0616210499,
				"element": "C" 
			},
			{
				"x": -0.8690004633,
				"y": 0.1109141973,
				"z": 0.8142235492,
				"element": "C" 
			},
			{
				"x": -1.5693100816,
				"y": 0.4647808142,
				"z": -0.5144823199,
				"element": "C" 
			},
			{
				"x": -0.555468526,
				"y": 0.3675377532,
				"z": -1.673637561,
				"element": "C" 
			},
			{
				"x": 0.6026878259,
				"y": 1.3563731456,
				"z": -1.4249114056,
				"element": "C" 
			},
			{
				"x": -0.0015819273,
				"y": -1.0706477162,
				"z": -1.7458985895,
				"element": "C" 
			},
			{
				"x": -0.3138026478,
				"y": -1.3260929414,
				"z": 0.7295774493,
				"element": "C" 
			},
			{
				"x": 1.6387465445,
				"y": -3.0959680075,
				"z": 0.3464945999,
				"element": "H" 
			},
			{
				"x": 1.840880639,
				"y": -2.9301279801,
				"z": -1.2592179873,
				"element": "H" 
			},
			{
				"x": 2.5910790537,
				"y": -0.5163341355,
				"z": -0.9858508424,
				"element": "H" 
			},
			{
				"x": 2.3714206053,
				"y": -0.6961469898,
				"z": 0.7570796588,
				"element": "H" 
			},
			{
				"x": 2.1323635768,
				"y": 1.7061414106,
				"z": 0.0801876121,
				"element": "H" 
			},
			{
				"x": 0.7834105895,
				"y": 0.8718956895,
				"z": 2.0155619093,
				"element": "H" 
			},
			{
				"x": -0.09934709,
				"y": 2.1234565768,
				"z": 1.1409541286,
				"element": "H" 
			},
			{
				"x": -1.5899694693,
				"y": 0.1739709471,
				"z": 1.6391664215,
				"element": "H" 
			},
			{
				"x": -2.410302768,
				"y": -0.2183511593,
				"z": -0.6909140855,
				"element": "H" 
			},
			{
				"x": -1.9868416063,
				"y": 1.4789752415,
				"z": -0.4625235727,
				"element": "H" 
			},
			{
				"x": -1.0531160662,
				"y": 0.6133942265,
				"z": -2.6203181155,
				"element": "H" 
			},
			{
				"x": 1.3213541603,
				"y": 1.3127404428,
				"z": -2.2540626396,
				"element": "H" 
			},
			{
				"x": 0.2194198166,
				"y": 2.3846409325,
				"z": -1.3896077776,
				"element": "H" 
			},
			{
				"x": -0.8065407844,
				"y": -1.7904647146,
				"z": -1.9362168942,
				"element": "H" 
			},
			{
				"x": 0.710562485,
				"y": -1.1591459676,
				"z": -2.5791433003,
				"element": "H" 
			},
			{
				"x": -1.1225096365,
				"y": -2.0485672327,
				"z": 0.5672248316,
				"element": "H" 
			},
			{
				"x": 0.1735155667,
				"y": -1.5987322856,
				"z": 1.6769198298,
				"element": "H" 
			}
		],
		 "valence_orbital": [ 
			{
				"type": "occ",
				"energy": -0.31624,
				"method": "rhf"
			},
			{
				"type": "occ",
				"energy": -0.29219,
				"method": "rhf"
			},
			{
				"type": "occ",
				"energy": -0.27914,
				"method": "rhf"
			},
			{
				"type": "occ",
				"energy": -0.27507,
				"method": "rhf"
			},
			{
				"type": "occ",
				"energy": -0.22548,
				"method": "rhf"
			},
			{
				"type": "unocc",
				"energy": 0.0684,
				"method": "rhf"
			},
			{
				"type": "unocc",
				"energy": 0.09454,
				"method": "rhf"
			},
			{
				"type": "unocc",
				"energy": 0.11867,
				"method": "rhf"
			},
			{
				"type": "unocc",
				"energy": 0.12822,
				"method": "rhf"
			},
			{
				"type": "unocc",
				"energy": 0.13283,
				"method": "rhf"
			}
		],
		"cosmo_sigma_profile": { 
			"-0.025": 0.0,
			"-0.024": 0.0,
			"-0.023": 0.0,
			"-0.022": 0.0,
			"-0.021": 0.0,
			"-0.02": 0.0,
			"-0.019": 0.0,
			"-0.018": 0.0,
			"-0.017": 0.0,
			"-0.016": 0.0,
			"-0.015": 0.0,
			"-0.014": 0.0,
			"-0.013": 0.0,
			"-0.012": 0.0,
			"-0.011": 0.0,
			"-0.01": 0.0,
			"-0.009": 0.632035676311,
			"-0.008": 2.70270581082,
			"-0.007": 2.36727141202,
			"-0.006": 2.82163655681,
			"-0.005": 3.46255553423,
			"-0.004": 3.96768888947,
			"-0.003": 4.58413624369,
			"-0.002": 24.369949832,
			"-0.001": 45.3710383427,
			"0.0": 38.2291011564,
			"0.001": 33.9912428814,
			"0.002": 14.0876309171,
			"0.003": 1.68941213092,
			"0.004": 1.56654448748,
			"0.005": 0.850577072103,
			"0.006": 0.808348665064,
			"0.007": 1.22378026149,
			"0.008": 1.13351552728,
			"0.009": 0.501484754342,
			"0.01": 0.844505617098,
			"0.011": 0.57844978085,
			"0.012": 1.01241073307,
			"0.013": 1.09485580477,
			"0.014": 0.279974194972,
			"0.015": 0.264993159768,
			"0.016": 0.318682429803,
			"0.017": 1.09237604452,
			"0.018": 0.499400772471,
			"0.019": 0.434301347216,
			"0.02": 0.352019669829,
			"0.021": 0.0900450989548,
			"0.022": 0.0,
			"0.023": 0.0,
			"0.024": 0.0,
			"0.025": 0.0
		}
	}
}
