{
	 "smiles": "FC1=C(C=CC=C1)S(=O)(=O)NC1=CNN=C1", 
	 "Tm": 460.15, 
	 "num_atms": 24, 
	 "gaussian": { 
		 "optdone": 1, 
		 "sigma_profile": "yes", 
		 "theory": "DFT", 
		 "functional": "B3LYP", 
		 "basiset": "6-31G**", 
		 "properties": { 
			 "R2extent": 3573.0521, 
			 "electric_dipole_moment_norm": 7.42020534015, 
			 "electric_quadrupole_moment_norm": 9.93410872751, 
			 "total_energy": -1160.39252534, 
			 "HOMO_LUMO_gap": 0.18886, 
			 "cosmo_polarized_energy": -23.24, 
			 "cosmo_cavitation_energy": 30.37, 
			 "cosmo_dispersion_energy": -22.11, 
			 "cosmo_repulsion_energy": 1.66, 
			 "cosmo_total_nonelectrostatic_energy": 9.93, 
			 "SMD_solvation_energy": 4.18 
		},
		"coords": [
			{
				"x": 1.6028662344,
				"y": -0.0836919723,
				"z": -1.0286648395,
				"element": "F" 
			},
			{
				"x": 0.6907209208,
				"y": 0.6211066307,
				"z": -1.7133053537,
				"element": "C" 
			},
			{
				"x": -0.6683304738,
				"y": 0.3104552643,
				"z": -1.6066618326,
				"element": "C" 
			},
			{
				"x": -1.5975118546,
				"y": 1.0622296451,
				"z": -2.3341009374,
				"element": "C" 
			},
			{
				"x": -1.169484875,
				"y": 2.110786068,
				"z": -3.1467334317,
				"element": "C" 
			},
			{
				"x": 0.1920759806,
				"y": 2.4096861365,
				"z": -3.2380524492,
				"element": "C" 
			},
			{
				"x": 1.1283825059,
				"y": 1.6649525633,
				"z": -2.5209586811,
				"element": "C" 
			},
			{
				"x": -1.2714652568,
				"y": -1.0541659031,
				"z": -0.5938551986,
				"element": "S" 
			},
			{
				"x": -0.3744804114,
				"y": -2.188931826,
				"z": -0.7750931415,
				"element": "O" 
			},
			{
				"x": -2.7124932819,
				"y": -1.1404959556,
				"z": -0.8352630531,
				"element": "O" 
			},
			{
				"x": -1.158057088,
				"y": -0.5754184888,
				"z": 1.0235818453,
				"element": "N" 
			},
			{
				"x": 0.076148655,
				"y": -0.3459416688,
				"z": 1.6687190016,
				"element": "C" 
			},
			{
				"x": 0.5517057888,
				"y": 0.8447679675,
				"z": 2.1957104007,
				"element": "C" 
			},
			{
				"x": 1.7498216135,
				"y": 0.5415269805,
				"z": 2.7580874089,
				"element": "N" 
			},
			{
				"x": 2.0981616446,
				"y": -0.7549276191,
				"z": 2.6148914992,
				"element": "N" 
			},
			{
				"x": 1.0806168586,
				"y": -1.3033931604,
				"z": 1.9593312209,
				"element": "C" 
			},
			{
				"x": -2.6464272773,
				"y": 0.7978035389,
				"z": -2.2591569921,
				"element": "H" 
			},
			{
				"x": -1.8954486489,
				"y": 2.6860989354,
				"z": -3.7118868407,
				"element": "H" 
			},
			{
				"x": 0.5308240765,
				"y": 3.2235135226,
				"z": -3.8719095945,
				"element": "H" 
			},
			{
				"x": 2.191812948,
				"y": 1.870584229,
				"z": -2.5770831364,
				"element": "H" 
			},
			{
				"x": -1.9328123219,
				"y": 0.0292529154,
				"z": 1.2724412828,
				"element": "H" 
			},
			{
				"x": 0.1288956403,
				"y": 1.8383023426,
				"z": 2.2261073257,
				"element": "H" 
			},
			{
				"x": 2.3662073504,
				"y": 1.1590157996,
				"z": 3.2624763698,
				"element": "H" 
			},
			{
				"x": 1.0897712723,
				"y": -2.3496159452,
				"z": 1.6912791272,
				"element": "H" 
			}
		],
		 "valence_orbital": [ 
			{
				"type": "occ",
				"energy": -0.29211,
				"method": "rhf"
			},
			{
				"type": "occ",
				"energy": -0.27995,
				"method": "rhf"
			},
			{
				"type": "occ",
				"energy": -0.26753,
				"method": "rhf"
			},
			{
				"type": "occ",
				"energy": -0.26199,
				"method": "rhf"
			},
			{
				"type": "occ",
				"energy": -0.23465,
				"method": "rhf"
			},
			{
				"type": "unocc",
				"energy": -0.04579,
				"method": "rhf"
			},
			{
				"type": "unocc",
				"energy": -0.02209,
				"method": "rhf"
			},
			{
				"type": "unocc",
				"energy": 0.00815,
				"method": "rhf"
			},
			{
				"type": "unocc",
				"energy": 0.03638,
				"method": "rhf"
			},
			{
				"type": "unocc",
				"energy": 0.06157,
				"method": "rhf"
			}
		],
		"cosmo_sigma_profile": { 
			"-0.025": 0.0,
			"-0.024": 0.0,
			"-0.023": 0.0,
			"-0.022": 0.0,
			"-0.021": 0.0,
			"-0.02": 0.0,
			"-0.019": 0.0,
			"-0.018": 0.0,
			"-0.017": 1.03511028421,
			"-0.016": 2.49108863444,
			"-0.015": 2.95936971644,
			"-0.014": 1.97735886605,
			"-0.013": 1.6687087221,
			"-0.012": 2.02082496139,
			"-0.011": 2.91751461893,
			"-0.01": 3.23291222051,
			"-0.009": 4.73739572186,
			"-0.008": 6.26337161049,
			"-0.007": 10.8603108807,
			"-0.006": 13.6327759489,
			"-0.005": 11.0678047318,
			"-0.004": 8.91824024794,
			"-0.003": 9.4088398139,
			"-0.002": 11.9851339636,
			"-0.001": 13.559287547,
			"0.0": 16.1388244163,
			"0.001": 14.9542455071,
			"0.002": 16.3245689287,
			"0.003": 16.9575694261,
			"0.004": 13.605711905,
			"0.005": 9.01069256692,
			"0.006": 6.41827682944,
			"0.007": 7.08940943153,
			"0.008": 5.34255425072,
			"0.009": 6.52765854076,
			"0.01": 9.05152620555,
			"0.011": 8.28487660936,
			"0.012": 1.85386424265,
			"0.013": 1.13947443816,
			"0.014": 1.16622696985,
			"0.015": 1.1000528281,
			"0.016": 0.423175117403,
			"0.017": 0.0,
			"0.018": 0.0,
			"0.019": 0.0,
			"0.02": 0.0,
			"0.021": 0.0,
			"0.022": 0.0,
			"0.023": 0.0,
			"0.024": 0.0,
			"0.025": 0.0
		}
	}
}
