{
	 "smiles": "COC1=CC=CC=C1C1NN2C(S1)=NN=C2C1=CC=CC=C1", 
	 "Tm": 469.15, 
	 "num_atms": 36, 
	 "gaussian": { 
		 "optdone": 1, 
		 "sigma_profile": "yes", 
		 "theory": "DFT", 
		 "functional": "B3LYP", 
		 "basiset": "6-31G**", 
		 "properties": { 
			 "R2extent": 9144.4952, 
			 "electric_dipole_moment_norm": 8.20861462794, 
			 "electric_quadrupole_moment_norm": 21.3152299563, 
			 "total_energy": -1310.46986675, 
			 "HOMO_LUMO_gap": 0.17384, 
			 "cosmo_polarized_energy": -21.66, 
			 "cosmo_cavitation_energy": 41.69, 
			 "cosmo_dispersion_energy": -30.25, 
			 "cosmo_repulsion_energy": 2.24, 
			 "cosmo_total_nonelectrostatic_energy": 13.68, 
			 "SMD_solvation_energy": 4.59 
		},
		"coords": [
			{
				"x": 3.4904014949,
				"y": -1.4790271071,
				"z": 2.9406637361,
				"element": "C" 
			},
			{
				"x": 2.411677529,
				"y": -1.0582743379,
				"z": 2.1163779513,
				"element": "O" 
			},
			{
				"x": 1.1363467975,
				"y": -1.358873247,
				"z": 2.4984780349,
				"element": "C" 
			},
			{
				"x": 0.811685146,
				"y": -2.0652444797,
				"z": 3.6618230819,
				"element": "C" 
			},
			{
				"x": -0.5263577349,
				"y": -2.3335941421,
				"z": 3.9583020197,
				"element": "C" 
			},
			{
				"x": -1.5435610073,
				"y": -1.9055174996,
				"z": 3.1072493969,
				"element": "C" 
			},
			{
				"x": -1.2165039631,
				"y": -1.2008918931,
				"z": 1.9485304982,
				"element": "C" 
			},
			{
				"x": 0.1136122085,
				"y": -0.9117368869,
				"z": 1.6331485419,
				"element": "C" 
			},
			{
				"x": 0.4819885769,
				"y": -0.1503822161,
				"z": 0.3918241121,
				"element": "C" 
			},
			{
				"x": -0.5734517658,
				"y": 0.8380230711,
				"z": 0.0175325261,
				"element": "N" 
			},
			{
				"x": -0.3478070951,
				"y": 1.1231851104,
				"z": -1.3555659831,
				"element": "N" 
			},
			{
				"x": 0.2411989052,
				"y": 0.149921122,
				"z": -2.1014196324,
				"element": "C" 
			},
			{
				"x": 0.6727124238,
				"y": -1.2520560312,
				"z": -1.1263563555,
				"element": "S" 
			},
			{
				"x": 0.2695462926,
				"y": 0.4788632611,
				"z": -3.3709899522,
				"element": "N" 
			},
			{
				"x": -0.3432220102,
				"y": 1.7137653055,
				"z": -3.4582773941,
				"element": "N" 
			},
			{
				"x": -0.7355869746,
				"y": 2.0940899187,
				"z": -2.2491874813,
				"element": "C" 
			},
			{
				"x": -1.4091243964,
				"y": 3.3522958011,
				"z": -1.9232211396,
				"element": "C" 
			},
			{
				"x": -2.1857723706,
				"y": 3.5036275372,
				"z": -0.7621755945,
				"element": "C" 
			},
			{
				"x": -2.8137686977,
				"y": 4.7196908124,
				"z": -0.4905833765,
				"element": "C" 
			},
			{
				"x": -2.6839034872,
				"y": 5.791325999,
				"z": -1.3744764066,
				"element": "C" 
			},
			{
				"x": -1.9264073965,
				"y": 5.6398629944,
				"z": -2.540130796,
				"element": "C" 
			},
			{
				"x": -1.2910831134,
				"y": 4.4327815852,
				"z": -2.8147523089,
				"element": "C" 
			},
			{
				"x": 3.5206415789,
				"y": -2.5712865928,
				"z": 3.0338689261,
				"element": "H" 
			},
			{
				"x": 3.4316927402,
				"y": -1.0312817926,
				"z": 3.9404450178,
				"element": "H" 
			},
			{
				"x": 4.3980090226,
				"y": -1.1349509771,
				"z": 2.4434356447,
				"element": "H" 
			},
			{
				"x": 1.5889253549,
				"y": -2.4098551919,
				"z": 4.3329261708,
				"element": "H" 
			},
			{
				"x": -0.7667782016,
				"y": -2.8842469396,
				"z": 4.8631811929,
				"element": "H" 
			},
			{
				"x": -2.5818287155,
				"y": -2.11919472,
				"z": 3.3394868291,
				"element": "H" 
			},
			{
				"x": -1.9912217951,
				"y": -0.8547485579,
				"z": 1.2731619776,
				"element": "H" 
			},
			{
				"x": 1.4532995548,
				"y": 0.3369812861,
				"z": 0.5181499709,
				"element": "H" 
			},
			{
				"x": -0.3889633328,
				"y": 1.6973344766,
				"z": 0.5369980389,
				"element": "H" 
			},
			{
				"x": -2.3337474877,
				"y": 2.6621355133,
				"z": -0.0921102503,
				"element": "H" 
			},
			{
				"x": -3.4150741957,
				"y": 4.823758982,
				"z": 0.4080106858,
				"element": "H" 
			},
			{
				"x": -3.1740250221,
				"y": 6.7367149682,
				"z": -1.1610546885,
				"element": "H" 
			},
			{
				"x": -1.8269279752,
				"y": 6.4685977579,
				"z": -3.2351386675,
				"element": "H" 
			},
			{
				"x": -0.6995208876,
				"y": 4.3018071101,
				"z": -3.7142543267,
				"element": "H" 
			}
		],
		 "valence_orbital": [ 
			{
				"type": "occ",
				"energy": -0.25754,
				"method": "rhf"
			},
			{
				"type": "occ",
				"energy": -0.24692,
				"method": "rhf"
			},
			{
				"type": "occ",
				"energy": -0.24104,
				"method": "rhf"
			},
			{
				"type": "occ",
				"energy": -0.23691,
				"method": "rhf"
			},
			{
				"type": "occ",
				"energy": -0.21167,
				"method": "rhf"
			},
			{
				"type": "unocc",
				"energy": -0.03783,
				"method": "rhf"
			},
			{
				"type": "unocc",
				"energy": -0.02956,
				"method": "rhf"
			},
			{
				"type": "unocc",
				"energy": -0.00954,
				"method": "rhf"
			},
			{
				"type": "unocc",
				"energy": -0.00607,
				"method": "rhf"
			},
			{
				"type": "unocc",
				"energy": 0.00535,
				"method": "rhf"
			}
		],
		"cosmo_sigma_profile": { 
			"-0.025": 0.0,
			"-0.024": 0.0,
			"-0.023": 0.0,
			"-0.022": 0.0,
			"-0.021": 0.0,
			"-0.02": 0.0,
			"-0.019": 0.0,
			"-0.018": 0.0,
			"-0.017": 0.0,
			"-0.016": 0.316439588353,
			"-0.015": 1.1471292636,
			"-0.014": 1.81724192769,
			"-0.013": 1.30432501515,
			"-0.012": 1.7060810415,
			"-0.011": 1.74769733997,
			"-0.01": 1.69783243202,
			"-0.009": 1.81326284431,
			"-0.008": 1.74038047564,
			"-0.007": 4.26658686412,
			"-0.006": 21.4313026374,
			"-0.005": 27.8428049504,
			"-0.004": 28.306990731,
			"-0.003": 23.8336441525,
			"-0.002": 21.1973578361,
			"-0.001": 19.1721180953,
			"0.0": 21.6490670941,
			"0.001": 24.7254955482,
			"0.002": 25.0471734742,
			"0.003": 27.127093113,
			"0.004": 28.6282698116,
			"0.005": 18.7632553946,
			"0.006": 6.76017099934,
			"0.007": 2.69260757252,
			"0.008": 1.4467382421,
			"0.009": 1.96384191798,
			"0.01": 2.45411831011,
			"0.011": 2.41823323003,
			"0.012": 2.26150567944,
			"0.013": 3.71714849404,
			"0.014": 3.47298402058,
			"0.015": 2.37989249464,
			"0.016": 1.73404398029,
			"0.017": 0.234697002066,
			"0.018": 0.0,
			"0.019": 0.0,
			"0.02": 0.0,
			"0.021": 0.0,
			"0.022": 0.0,
			"0.023": 0.0,
			"0.024": 0.0,
			"0.025": 0.0
		}
	}
}
