{
	 "smiles": "CCCCCCCCC(C)CC", 
	 "Tm": 215.15, 
	 "num_atms": 38, 
	 "gaussian": { 
		 "optdone": 1, 
		 "sigma_profile": "yes", 
		 "theory": "DFT", 
		 "functional": "B3LYP", 
		 "basiset": "6-31G**", 
		 "properties": { 
			 "R2extent": 3770.0529, 
			 "electric_dipole_moment_norm": 0.150953436529, 
			 "electric_quadrupole_moment_norm": 0.596635332511, 
			 "total_energy": -472.970611068, 
			 "HOMO_LUMO_gap": 0.35728, 
			 "cosmo_polarized_energy": -0.87, 
			 "cosmo_cavitation_energy": 35.15, 
			 "cosmo_dispersion_energy": -24.53, 
			 "cosmo_repulsion_energy": 1.98, 
			 "cosmo_total_nonelectrostatic_energy": 12.59, 
			 "SMD_solvation_energy": 5.07 
		},
		"coords": [
			{
				"x": -3.2610328807,
				"y": 2.7022066988,
				"z": -0.0746197589,
				"element": "C" 
			},
			{
				"x": -2.0402622445,
				"y": 3.5188376621,
				"z": -0.5198889365,
				"element": "C" 
			},
			{
				"x": -0.8752086018,
				"y": 3.569439076,
				"z": 0.4930646389,
				"element": "C" 
			},
			{
				"x": 0.1944893774,
				"y": 2.4616985767,
				"z": 0.4118378666,
				"element": "C" 
			},
			{
				"x": -0.2561288774,
				"y": 1.0166346758,
				"z": 0.7325950331,
				"element": "C" 
			},
			{
				"x": -0.6406578348,
				"y": 0.1491734883,
				"z": -0.4829325673,
				"element": "C" 
			},
			{
				"x": 0.5224633268,
				"y": -0.2395273962,
				"z": -1.4173020833,
				"element": "C" 
			},
			{
				"x": 1.6983761119,
				"y": -1.0495785216,
				"z": -0.8320382956,
				"element": "C" 
			},
			{
				"x": 1.5062053273,
				"y": -2.5203873027,
				"z": -0.3732478356,
				"element": "C" 
			},
			{
				"x": 0.8104059967,
				"y": -2.6739667844,
				"z": 0.989960652,
				"element": "C" 
			},
			{
				"x": 0.9170027374,
				"y": -3.4610337477,
				"z": -1.456761677,
				"element": "C" 
			},
			{
				"x": -0.6121207042,
				"y": -3.526754723,
				"z": -1.586021674,
				"element": "C" 
			},
			{
				"x": -3.0222882491,
				"y": 1.6480444276,
				"z": 0.0907372813,
				"element": "H" 
			},
			{
				"x": -3.6695892157,
				"y": 3.0972569128,
				"z": 0.862741741,
				"element": "H" 
			},
			{
				"x": -4.0576342985,
				"y": 2.7453489991,
				"z": -0.8255006792,
				"element": "H" 
			},
			{
				"x": -1.6711813812,
				"y": 3.1459877946,
				"z": -1.4849416692,
				"element": "H" 
			},
			{
				"x": -2.3768546686,
				"y": 4.5459607194,
				"z": -0.7104689757,
				"element": "H" 
			},
			{
				"x": -0.3505597404,
				"y": 4.5248907547,
				"z": 0.3626229476,
				"element": "H" 
			},
			{
				"x": -1.2884677738,
				"y": 3.5965929949,
				"z": 1.5117854959,
				"element": "H" 
			},
			{
				"x": 0.6588018707,
				"y": 2.4931422646,
				"z": -0.583123289,
				"element": "H" 
			},
			{
				"x": 0.9924657567,
				"y": 2.7408337081,
				"z": 1.1116088186,
				"element": "H" 
			},
			{
				"x": -1.1033631229,
				"y": 1.0514295516,
				"z": 1.429303722,
				"element": "H" 
			},
			{
				"x": 0.5452511765,
				"y": 0.5074165593,
				"z": 1.2808190991,
				"element": "H" 
			},
			{
				"x": -1.1421042496,
				"y": -0.7566662871,
				"z": -0.1238088175,
				"element": "H" 
			},
			{
				"x": -1.3874086314,
				"y": 0.6791160009,
				"z": -1.0871633194,
				"element": "H" 
			},
			{
				"x": 0.1099205316,
				"y": -0.7759277576,
				"z": -2.2803951949,
				"element": "H" 
			},
			{
				"x": 0.9513384009,
				"y": 0.6806439988,
				"z": -1.8367120722,
				"element": "H" 
			},
			{
				"x": 2.4748675582,
				"y": -1.0646174166,
				"z": -1.6092313349,
				"element": "H" 
			},
			{
				"x": 2.1413079965,
				"y": -0.4924519488,
				"z": 0.0046763586,
				"element": "H" 
			},
			{
				"x": 2.5351253553,
				"y": -2.8770556381,
				"z": -0.2166959193,
				"element": "H" 
			},
			{
				"x": 0.8271709157,
				"y": -3.7203657953,
				"z": 1.3171845298,
				"element": "H" 
			},
			{
				"x": 1.3241148333,
				"y": -2.0820218559,
				"z": 1.7553978024,
				"element": "H" 
			},
			{
				"x": -0.2347248554,
				"y": -2.3546061734,
				"z": 0.9744615591,
				"element": "H" 
			},
			{
				"x": 1.3517154045,
				"y": -3.189546133,
				"z": -2.4283244029,
				"element": "H" 
			},
			{
				"x": 1.2750078441,
				"y": -4.4779200647,
				"z": -1.2468771844,
				"element": "H" 
			},
			{
				"x": -0.8935156325,
				"y": -4.2194415665,
				"z": -2.3866308813,
				"element": "H" 
			},
			{
				"x": -1.0784917592,
				"y": -3.8905577105,
				"z": -0.6648439563,
				"element": "H" 
			},
			{
				"x": -1.0592357997,
				"y": -2.5571280412,
				"z": -1.8206670216,
				"element": "H" 
			}
		],
		 "valence_orbital": [ 
			{
				"type": "occ",
				"energy": -0.30432,
				"method": "rhf"
			},
			{
				"type": "occ",
				"energy": -0.30206,
				"method": "rhf"
			},
			{
				"type": "occ",
				"energy": -0.30014,
				"method": "rhf"
			},
			{
				"type": "occ",
				"energy": -0.29059,
				"method": "rhf"
			},
			{
				"type": "occ",
				"energy": -0.28922,
				"method": "rhf"
			},
			{
				"type": "unocc",
				"energy": 0.06806,
				"method": "rhf"
			},
			{
				"type": "unocc",
				"energy": 0.09458,
				"method": "rhf"
			},
			{
				"type": "unocc",
				"energy": 0.10218,
				"method": "rhf"
			},
			{
				"type": "unocc",
				"energy": 0.10347,
				"method": "rhf"
			},
			{
				"type": "unocc",
				"energy": 0.11847,
				"method": "rhf"
			}
		],
		"cosmo_sigma_profile": { 
			"-0.025": 0.0,
			"-0.024": 0.0,
			"-0.023": 0.0,
			"-0.022": 0.0,
			"-0.021": 0.0,
			"-0.02": 0.0,
			"-0.019": 0.0,
			"-0.018": 0.0,
			"-0.017": 0.0,
			"-0.016": 0.0,
			"-0.015": 0.0,
			"-0.014": 0.0,
			"-0.013": 0.0,
			"-0.012": 0.0,
			"-0.011": 0.0,
			"-0.01": 0.0,
			"-0.009": 0.0,
			"-0.008": 0.0,
			"-0.007": 0.0,
			"-0.006": 0.0,
			"-0.005": 0.0,
			"-0.004": 0.0,
			"-0.003": 2.32904851198,
			"-0.002": 30.3455071972,
			"-0.001": 66.1294493425,
			"0.0": 73.3638145412,
			"0.001": 61.2130151899,
			"0.002": 33.0630145117,
			"0.003": 1.93562636542,
			"0.004": 0.0,
			"0.005": 0.0,
			"0.006": 0.0,
			"0.007": 0.0,
			"0.008": 0.0,
			"0.009": 0.0,
			"0.01": 0.0,
			"0.011": 0.0,
			"0.012": 0.0,
			"0.013": 0.0,
			"0.014": 0.0,
			"0.015": 0.0,
			"0.016": 0.0,
			"0.017": 0.0,
			"0.018": 0.0,
			"0.019": 0.0,
			"0.02": 0.0,
			"0.021": 0.0,
			"0.022": 0.0,
			"0.023": 0.0,
			"0.024": 0.0,
			"0.025": 0.0
		}
	}
}
