{
	 "smiles": "COC1=C(Br)C=C(C=C1)C(=O)CSC1=NC(C)=NN1", 
	 "Tm": 432.15, 
	 "num_atms": 31, 
	 "gaussian": { 
		 "optdone": 1, 
		 "sigma_profile": "yes", 
		 "theory": "DFT", 
		 "functional": "B3LYP", 
		 "basiset": "6-31G**", 
		 "properties": { 
			 "R2extent": 10591.649, 
			 "electric_dipole_moment_norm": 5.25910617596, 
			 "electric_quadrupole_moment_norm": 16.6619158748, 
			 "total_energy": -3748.77841302, 
			 "HOMO_LUMO_gap": 0.16462, 
			 "cosmo_polarized_energy": -20.9, 
			 "cosmo_cavitation_energy": 40.36, 
			 "cosmo_dispersion_energy": -29.48, 
			 "cosmo_repulsion_energy": 2.27, 
			 "cosmo_total_nonelectrostatic_energy": 13.16, 
			 "SMD_solvation_energy": 4.1 
		},
		"coords": [
			{
				"x": 2.7199517636,
				"y": 0.402183126,
				"z": 4.4872236672,
				"element": "C" 
			},
			{
				"x": 2.8247724554,
				"y": -0.3104023146,
				"z": 3.2598327043,
				"element": "O" 
			},
			{
				"x": 1.7259729934,
				"y": -0.4451907616,
				"z": 2.4880470497,
				"element": "C" 
			},
			{
				"x": 1.874168982,
				"y": -1.1561023073,
				"z": 1.2760771955,
				"element": "C" 
			},
			{
				"x": 3.5780824109,
				"y": -1.8680855159,
				"z": 0.8104001601,
				"element": "Br" 
			},
			{
				"x": 0.799191311,
				"y": -1.3388387287,
				"z": 0.4272303928,
				"element": "C" 
			},
			{
				"x": -0.4693390603,
				"y": -0.8239560119,
				"z": 0.7515986183,
				"element": "C" 
			},
			{
				"x": -0.6187073012,
				"y": -0.1186413634,
				"z": 1.9518161385,
				"element": "C" 
			},
			{
				"x": 0.4622249088,
				"y": 0.0705753462,
				"z": 2.8100026625,
				"element": "C" 
			},
			{
				"x": -1.5804066418,
				"y": -1.0645783554,
				"z": -0.2161103234,
				"element": "C" 
			},
			{
				"x": -1.3912147669,
				"y": -1.6564923648,
				"z": -1.2638559656,
				"element": "O" 
			},
			{
				"x": -2.9669397817,
				"y": -0.5240241023,
				"z": 0.1640278598,
				"element": "C" 
			},
			{
				"x": -4.2935939899,
				"y": -0.9471840869,
				"z": -1.011874703,
				"element": "S" 
			},
			{
				"x": -3.8884981711,
				"y": 0.2042916618,
				"z": -2.2845632227,
				"element": "C" 
			},
			{
				"x": -3.3355601393,
				"y": 1.3962281138,
				"z": -2.139709442,
				"element": "N" 
			},
			{
				"x": -3.2898165118,
				"y": 1.8763728066,
				"z": -3.4241409875,
				"element": "C" 
			},
			{
				"x": -2.7262983269,
				"y": 3.2155537985,
				"z": -3.7701311309,
				"element": "C" 
			},
			{
				"x": -3.7915634883,
				"y": 1.0580177716,
				"z": -4.3389204043,
				"element": "N" 
			},
			{
				"x": -4.1685808203,
				"y": -0.0157158305,
				"z": -3.5882259948,
				"element": "N" 
			},
			{
				"x": 2.0105773585,
				"y": -0.0795253569,
				"z": 5.1707151847,
				"element": "H" 
			},
			{
				"x": 3.717508888,
				"y": 0.3799558479,
				"z": 4.9263616428,
				"element": "H" 
			},
			{
				"x": 2.4183203599,
				"y": 1.4432527627,
				"z": 4.3213391058,
				"element": "H" 
			},
			{
				"x": 0.9158856552,
				"y": -1.8818778752,
				"z": -0.5031212763,
				"element": "H" 
			},
			{
				"x": -1.5787012684,
				"y": 0.3005507103,
				"z": 2.2334621296,
				"element": "H" 
			},
			{
				"x": 0.3193393045,
				"y": 0.6226665774,
				"z": 3.7307949864,
				"element": "H" 
			},
			{
				"x": -2.9292710672,
				"y": 0.5663936946,
				"z": 0.2428330506,
				"element": "H" 
			},
			{
				"x": -3.2844460117,
				"y": -0.9250658209,
				"z": 1.1313509895,
				"element": "H" 
			},
			{
				"x": -1.6744243047,
				"y": 3.2797763893,
				"z": -3.4737135523,
				"element": "H" 
			},
			{
				"x": -3.26424631,
				"y": 4.0107433225,
				"z": -3.2441875643,
				"element": "H" 
			},
			{
				"x": -2.8027614783,
				"y": 3.3856271151,
				"z": -4.8454937067,
				"element": "H" 
			},
			{
				"x": -4.5321269516,
				"y": -0.8470082481,
				"z": -4.0289652642,
				"element": "H" 
			}
		],
		 "valence_orbital": [ 
			{
				"type": "occ",
				"energy": -0.27248,
				"method": "rhf"
			},
			{
				"type": "occ",
				"energy": -0.26217,
				"method": "rhf"
			},
			{
				"type": "occ",
				"energy": -0.26029,
				"method": "rhf"
			},
			{
				"type": "occ",
				"energy": -0.23897,
				"method": "rhf"
			},
			{
				"type": "occ",
				"energy": -0.22576,
				"method": "rhf"
			},
			{
				"type": "unocc",
				"energy": -0.06114,
				"method": "rhf"
			},
			{
				"type": "unocc",
				"energy": -0.02533,
				"method": "rhf"
			},
			{
				"type": "unocc",
				"energy": -0.00092,
				"method": "rhf"
			},
			{
				"type": "unocc",
				"energy": 0.00766,
				"method": "rhf"
			},
			{
				"type": "unocc",
				"energy": 0.02751,
				"method": "rhf"
			}
		],
		"cosmo_sigma_profile": { 
			"-0.025": 0.0,
			"-0.024": 0.0,
			"-0.023": 0.0,
			"-0.022": 0.0,
			"-0.021": 0.0,
			"-0.02": 0.0,
			"-0.019": 0.0,
			"-0.018": 0.273211143355,
			"-0.017": 1.46410314102,
			"-0.016": 1.67547351764,
			"-0.015": 0.702382915679,
			"-0.014": 0.527022237853,
			"-0.013": 1.32283685067,
			"-0.012": 1.48644987787,
			"-0.011": 0.977231178821,
			"-0.01": 1.29504784037,
			"-0.009": 5.79856131479,
			"-0.008": 8.04786340063,
			"-0.007": 12.3608421617,
			"-0.006": 16.3299706925,
			"-0.005": 18.7202071733,
			"-0.004": 22.3621482953,
			"-0.003": 16.7689788203,
			"-0.002": 17.8019643283,
			"-0.001": 22.2721034295,
			"0.0": 23.6132517533,
			"0.001": 26.8023111006,
			"0.002": 26.7109500415,
			"0.003": 18.7389486518,
			"0.004": 19.2523705689,
			"0.005": 13.0386349726,
			"0.006": 10.3779988934,
			"0.007": 7.95574240423,
			"0.008": 5.00459079135,
			"0.009": 6.13139777628,
			"0.01": 5.23244025973,
			"0.011": 5.62072361939,
			"0.012": 4.33377191762,
			"0.013": 2.6052149889,
			"0.014": 1.29110667924,
			"0.015": 0.798110748259,
			"0.016": 0.0190283753629,
			"0.017": 0.0,
			"0.018": 0.0,
			"0.019": 0.0,
			"0.02": 0.0,
			"0.021": 0.0,
			"0.022": 0.0,
			"0.023": 0.0,
			"0.024": 0.0,
			"0.025": 0.0
		}
	}
}
