{
	 "smiles": "CC1OC(=O)C(C)C1C[C@@H](O)[C@](C)(O)C1CC[C@@]2(O)C3=CC(=O)C4CC(O)C(O)CC4(C)C3CCC12C", 
	 "Tm": 432.15, 
	 "num_atms": 81, 
	 "gaussian": { 
		 "optdone": 1, 
		 "sigma_profile": "yes", 
		 "theory": "DFT", 
		 "functional": "B3LYP", 
		 "basiset": "6-31G**", 
		 "properties": { 
			 "R2extent": 28934.8468, 
			 "electric_dipole_moment_norm": 3.4766783127, 
			 "electric_quadrupole_moment_norm": 43.6192811088, 
			 "total_energy": -1733.38278872, 
			 "HOMO_LUMO_gap": 0.18657, 
			 "cosmo_polarized_energy": -36.67, 
			 "cosmo_cavitation_energy": 69.92, 
			 "cosmo_dispersion_energy": -46.38, 
			 "cosmo_repulsion_energy": 3.36, 
			 "cosmo_total_nonelectrostatic_energy": 26.9, 
			 "SMD_solvation_energy": 11.93 
		},
		"coords": [
			{
				"x": 2.4284335919,
				"y": 6.4032586896,
				"z": -0.0812535412,
				"element": "C" 
			},
			{
				"x": 1.279623339,
				"y": 6.8262519566,
				"z": 0.8311267871,
				"element": "C" 
			},
			{
				"x": 1.833024888,
				"y": 7.5045113015,
				"z": 1.9867436742,
				"element": "O" 
			},
			{
				"x": 1.826246775,
				"y": 6.6901850727,
				"z": 3.077827205,
				"element": "C" 
			},
			{
				"x": 2.2758498387,
				"y": 7.0331123654,
				"z": 4.1410465499,
				"element": "O" 
			},
			{
				"x": 1.1755857926,
				"y": 5.3480631,
				"z": 2.7246390823,
				"element": "C" 
			},
			{
				"x": 0.3890661595,
				"y": 4.7929064789,
				"z": 3.9146506666,
				"element": "C" 
			},
			{
				"x": 0.4091357074,
				"y": 5.6893147614,
				"z": 1.430890069,
				"element": "C" 
			},
			{
				"x": 0.1149511942,
				"y": 4.5458867392,
				"z": 0.4475690231,
				"element": "C" 
			},
			{
				"x": -1.0345937829,
				"y": 3.6259819744,
				"z": 0.876970437,
				"element": "C" 
			},
			{
				"x": -2.2552030065,
				"y": 4.3751148197,
				"z": 1.0261463038,
				"element": "O" 
			},
			{
				"x": -1.3114219853,
				"y": 2.3830185203,
				"z": -0.0418854024,
				"element": "C" 
			},
			{
				"x": -1.5376037514,
				"y": 2.8266672943,
				"z": -1.4977087436,
				"element": "C" 
			},
			{
				"x": -2.5283492398,
				"y": 1.8090979001,
				"z": 0.4487154229,
				"element": "O" 
			},
			{
				"x": -0.163975391,
				"y": 1.3448771756,
				"z": 0.1247170061,
				"element": "C" 
			},
			{
				"x": -0.0984367361,
				"y": 0.7728722062,
				"z": 1.5741292726,
				"element": "C" 
			},
			{
				"x": 0.3579253981,
				"y": -0.6978129223,
				"z": 1.4499724156,
				"element": "C" 
			},
			{
				"x": 0.8979108555,
				"y": -0.8210390016,
				"z": 0.0066868038,
				"element": "C" 
			},
			{
				"x": 2.1804858914,
				"y": -0.1780137863,
				"z": -0.038498959,
				"element": "O" 
			},
			{
				"x": 0.9916619938,
				"y": -2.2616828453,
				"z": -0.4897622468,
				"element": "C" 
			},
			{
				"x": 2.130116451,
				"y": -2.966784726,
				"z": -0.3406453319,
				"element": "C" 
			},
			{
				"x": 2.2580595501,
				"y": -4.3789359311,
				"z": -0.7336659726,
				"element": "C" 
			},
			{
				"x": 3.2590664821,
				"y": -5.0297515798,
				"z": -0.458459033,
				"element": "O" 
			},
			{
				"x": 1.09810842,
				"y": -4.975722038,
				"z": -1.5269980111,
				"element": "C" 
			},
			{
				"x": 1.1832005185,
				"y": -6.5158727401,
				"z": -1.5854477772,
				"element": "C" 
			},
			{
				"x": -0.1373260802,
				"y": -7.1735632875,
				"z": -2.0276198357,
				"element": "C" 
			},
			{
				"x": 0.0729248125,
				"y": -8.3093999363,
				"z": -2.8770830993,
				"element": "O" 
			},
			{
				"x": -0.9860798115,
				"y": -6.2044794414,
				"z": -2.8444006699,
				"element": "C" 
			},
			{
				"x": -2.1694698027,
				"y": -6.8335393674,
				"z": -3.3067807804,
				"element": "O" 
			},
			{
				"x": -1.3956472626,
				"y": -4.9801821772,
				"z": -2.0131580409,
				"element": "C" 
			},
			{
				"x": -0.2840761888,
				"y": -4.4265348455,
				"z": -1.0599467732,
				"element": "C" 
			},
			{
				"x": -0.5735432308,
				"y": -4.8663251396,
				"z": 0.3932633143,
				"element": "C" 
			},
			{
				"x": -0.2261467374,
				"y": -2.869121155,
				"z": -1.1702342911,
				"element": "C" 
			},
			{
				"x": -1.5059091371,
				"y": -2.1348006087,
				"z": -0.746912375,
				"element": "C" 
			},
			{
				"x": -1.4467222129,
				"y": -0.6274421527,
				"z": -1.0657072995,
				"element": "C" 
			},
			{
				"x": -0.0689380398,
				"y": 0.0885554499,
				"z": -0.8279689224,
				"element": "C" 
			},
			{
				"x": 0.5891348659,
				"y": 0.4165080887,
				"z": -2.185073642,
				"element": "C" 
			},
			{
				"x": 2.0546429646,
				"y": 5.9957849896,
				"z": -1.0252664704,
				"element": "H" 
			},
			{
				"x": 3.0501929178,
				"y": 7.2730084112,
				"z": -0.3089439486,
				"element": "H" 
			},
			{
				"x": 3.0653276271,
				"y": 5.6490731107,
				"z": 0.3919303373,
				"element": "H" 
			},
			{
				"x": 0.6574496656,
				"y": 7.5648161577,
				"z": 0.3150528092,
				"element": "H" 
			},
			{
				"x": 2.004158458,
				"y": 4.6615254165,
				"z": 2.491964581,
				"element": "H" 
			},
			{
				"x": 0.1102767599,
				"y": 3.7463843003,
				"z": 3.7682576895,
				"element": "H" 
			},
			{
				"x": -0.526432177,
				"y": 5.3688462587,
				"z": 4.0831452026,
				"element": "H" 
			},
			{
				"x": 1.0022777852,
				"y": 4.8634227667,
				"z": 4.8168924191,
				"element": "H" 
			},
			{
				"x": -0.5487956273,
				"y": 6.1365110703,
				"z": 1.7247818359,
				"element": "H" 
			},
			{
				"x": 1.0208465691,
				"y": 3.9524933206,
				"z": 0.283489606,
				"element": "H" 
			},
			{
				"x": -0.1424058853,
				"y": 4.9799992506,
				"z": -0.5297023455,
				"element": "H" 
			},
			{
				"x": -0.848944633,
				"y": 3.2412740934,
				"z": 1.8814182569,
				"element": "H" 
			},
			{
				"x": -2.3926442925,
				"y": 4.8907074844,
				"z": 0.2186846338,
				"element": "H" 
			},
			{
				"x": -1.9478086866,
				"y": 2.0003766177,
				"z": -2.0793585017,
				"element": "H" 
			},
			{
				"x": -2.2762878752,
				"y": 3.6364583667,
				"z": -1.5409339713,
				"element": "H" 
			},
			{
				"x": -0.6213866442,
				"y": 3.1752035499,
				"z": -1.98274731,
				"element": "H" 
			},
			{
				"x": -3.0686541128,
				"y": 2.5635628474,
				"z": 0.7368536082,
				"element": "H" 
			},
			{
				"x": 0.7681227946,
				"y": 1.8872522246,
				"z": -0.0574949916,
				"element": "H" 
			},
			{
				"x": -1.0793961709,
				"y": 0.8338726905,
				"z": 2.0491743076,
				"element": "H" 
			},
			{
				"x": 0.6034121712,
				"y": 1.3476390969,
				"z": 2.1863156359,
				"element": "H" 
			},
			{
				"x": 1.1369644119,
				"y": -0.9774890387,
				"z": 2.1696190712,
				"element": "H" 
			},
			{
				"x": -0.4753286375,
				"y": -1.3815682965,
				"z": 1.6229726672,
				"element": "H" 
			},
			{
				"x": 2.7054203708,
				"y": -0.5060286692,
				"z": 0.7022353801,
				"element": "H" 
			},
			{
				"x": 3.0215586972,
				"y": -2.5364972445,
				"z": 0.1051836712,
				"element": "H" 
			},
			{
				"x": 1.2434386066,
				"y": -4.5866348284,
				"z": -2.5485262956,
				"element": "H" 
			},
			{
				"x": 1.514391627,
				"y": -6.9059192446,
				"z": -0.6180902262,
				"element": "H" 
			},
			{
				"x": 1.9562488972,
				"y": -6.7967647059,
				"z": -2.3065221196,
				"element": "H" 
			},
			{
				"x": -0.7341535158,
				"y": -7.4835412378,
				"z": -1.1561796473,
				"element": "H" 
			},
			{
				"x": 0.4484107503,
				"y": -9.0235139675,
				"z": -2.3475563458,
				"element": "H" 
			},
			{
				"x": -0.3719492356,
				"y": -5.8838760014,
				"z": -3.7043304828,
				"element": "H" 
			},
			{
				"x": -1.8825118331,
				"y": -7.6964054101,
				"z": -3.6424469921,
				"element": "H" 
			},
			{
				"x": -1.7311821962,
				"y": -4.2035939335,
				"z": -2.7087644829,
				"element": "H" 
			},
			{
				"x": -2.278220663,
				"y": -5.2730748814,
				"z": -1.4343920868,
				"element": "H" 
			},
			{
				"x": 0.1670568429,
				"y": -4.4715228833,
				"z": 1.095239072,
				"element": "H" 
			},
			{
				"x": -1.561217989,
				"y": -4.5244507592,
				"z": 0.7159162407,
				"element": "H" 
			},
			{
				"x": -0.567482549,
				"y": -5.955651734,
				"z": 0.4860477119,
				"element": "H" 
			},
			{
				"x": -0.0940100329,
				"y": -2.6585557071,
				"z": -2.2464277763,
				"element": "H" 
			},
			{
				"x": -2.369164862,
				"y": -2.5639828464,
				"z": -1.2652958712,
				"element": "H" 
			},
			{
				"x": -1.6929074319,
				"y": -2.2944709042,
				"z": 0.319222525,
				"element": "H" 
			},
			{
				"x": -1.7019485611,
				"y": -0.5022927156,
				"z": -2.1247201481,
				"element": "H" 
			},
			{
				"x": -2.2334360308,
				"y": -0.1224791383,
				"z": -0.5049718621,
				"element": "H" 
			},
			{
				"x": -0.0698673681,
				"y": 1.0169135613,
				"z": -2.8152835136,
				"element": "H" 
			},
			{
				"x": 0.8103572881,
				"y": -0.5033946158,
				"z": -2.7372305892,
				"element": "H" 
			},
			{
				"x": 1.5322116776,
				"y": 0.9505029654,
				"z": -2.0526945686,
				"element": "H" 
			}
		],
		 "valence_orbital": [ 
			{
				"type": "occ",
				"energy": -0.26878,
				"method": "rhf"
			},
			{
				"type": "occ",
				"energy": -0.26552,
				"method": "rhf"
			},
			{
				"type": "occ",
				"energy": -0.25685,
				"method": "rhf"
			},
			{
				"type": "occ",
				"energy": -0.25424,
				"method": "rhf"
			},
			{
				"type": "occ",
				"energy": -0.2365,
				"method": "rhf"
			},
			{
				"type": "unocc",
				"energy": -0.04993,
				"method": "rhf"
			},
			{
				"type": "unocc",
				"energy": 0.00875,
				"method": "rhf"
			},
			{
				"type": "unocc",
				"energy": 0.03695,
				"method": "rhf"
			},
			{
				"type": "unocc",
				"energy": 0.04627,
				"method": "rhf"
			},
			{
				"type": "unocc",
				"energy": 0.05365,
				"method": "rhf"
			}
		],
		"cosmo_sigma_profile": { 
			"-0.025": 0.0,
			"-0.024": 0.0,
			"-0.023": 0.0,
			"-0.022": 0.0,
			"-0.021": 0.0,
			"-0.02": 0.0,
			"-0.019": 0.0,
			"-0.018": 0.0,
			"-0.017": 0.0,
			"-0.016": 0.750011759725,
			"-0.015": 2.30552602859,
			"-0.014": 3.31357508075,
			"-0.013": 2.27748470315,
			"-0.012": 3.1793820861,
			"-0.011": 3.6451145824,
			"-0.01": 3.96513721158,
			"-0.009": 4.11432581526,
			"-0.008": 5.22239787501,
			"-0.007": 6.20826304617,
			"-0.006": 15.2486284963,
			"-0.005": 34.1030272625,
			"-0.004": 47.6359851323,
			"-0.003": 58.6462420792,
			"-0.002": 57.8241037082,
			"-0.001": 52.7336039218,
			"0.0": 47.4233153143,
			"0.001": 36.250850777,
			"0.002": 20.4653775703,
			"0.003": 14.4074424198,
			"0.004": 12.3047140137,
			"0.005": 10.4523204259,
			"0.006": 11.1643933635,
			"0.007": 9.91048694827,
			"0.008": 10.2487814074,
			"0.009": 9.93583880638,
			"0.01": 12.4721103023,
			"0.011": 12.9933324323,
			"0.012": 13.1251011512,
			"0.013": 10.0724629135,
			"0.014": 4.72824269893,
			"0.015": 0.618646844225,
			"0.016": 0.0,
			"0.017": 0.0,
			"0.018": 0.0,
			"0.019": 0.0,
			"0.02": 0.0,
			"0.021": 0.0,
			"0.022": 0.0,
			"0.023": 0.0,
			"0.024": 0.0,
			"0.025": 0.0
		}
	}
}
