{
	 "smiles": "OC(=O)CCNC1=NC=CC=C1", 
	 "Tm": 443.15, 
	 "num_atms": 22, 
	 "gaussian": { 
		 "optdone": 1, 
		 "sigma_profile": "yes", 
		 "theory": "DFT", 
		 "functional": "B3LYP", 
		 "basiset": "6-31G**", 
		 "properties": { 
			 "R2extent": 3570.3926, 
			 "electric_dipole_moment_norm": 4.67113337639, 
			 "electric_quadrupole_moment_norm": 15.7557920788, 
			 "total_energy": -570.840194128, 
			 "HOMO_LUMO_gap": 0.1925, 
			 "cosmo_polarized_energy": -17.65, 
			 "cosmo_cavitation_energy": 26.39, 
			 "cosmo_dispersion_energy": -19.34, 
			 "cosmo_repulsion_energy": 1.57, 
			 "cosmo_total_nonelectrostatic_energy": 8.61, 
			 "SMD_solvation_energy": 4.34 
		},
		"coords": [
			{
				"x": -1.4427329884,
				"y": -0.493113184,
				"z": 3.3880565428,
				"element": "O" 
			},
			{
				"x": -2.2076259948,
				"y": -0.5029124796,
				"z": 2.2619490283,
				"element": "C" 
			},
			{
				"x": -3.1436437473,
				"y": -1.2595798914,
				"z": 2.1764528387,
				"element": "O" 
			},
			{
				"x": -1.8045162939,
				"y": 0.4966659797,
				"z": 1.1905111349,
				"element": "C" 
			},
			{
				"x": -2.572237843,
				"y": 0.2745551708,
				"z": -0.1177821886,
				"element": "C" 
			},
			{
				"x": -2.3301162479,
				"y": 1.3293421115,
				"z": -1.0927880159,
				"element": "N" 
			},
			{
				"x": -1.1951065429,
				"y": 1.3662505355,
				"z": -1.8737359948,
				"element": "C" 
			},
			{
				"x": -0.1839651094,
				"y": 0.5545014487,
				"z": -1.5232041561,
				"element": "N" 
			},
			{
				"x": 0.9345460203,
				"y": 0.5925407132,
				"z": -2.2622140328,
				"element": "C" 
			},
			{
				"x": 1.116439767,
				"y": 1.4184931564,
				"z": -3.3646913751,
				"element": "C" 
			},
			{
				"x": 0.0563131359,
				"y": 2.2633711806,
				"z": -3.7216819449,
				"element": "C" 
			},
			{
				"x": -1.1116532226,
				"y": 2.2456537052,
				"z": -2.9792016725,
				"element": "C" 
			},
			{
				"x": -0.722397823,
				"y": 0.1460434649,
				"z": 3.2915166231,
				"element": "H" 
			},
			{
				"x": -1.9949341596,
				"y": 1.5096884434,
				"z": 1.5705757676,
				"element": "H" 
			},
			{
				"x": -0.7296635193,
				"y": 0.4268876624,
				"z": 0.9891536272,
				"element": "H" 
			},
			{
				"x": -2.2935577661,
				"y": -0.7015828083,
				"z": -0.5298353067,
				"element": "H" 
			},
			{
				"x": -3.6429536987,
				"y": 0.2459703375,
				"z": 0.0951279875,
				"element": "H" 
			},
			{
				"x": -3.1415786715,
				"y": 1.7912174811,
				"z": -1.4717575306,
				"element": "H" 
			},
			{
				"x": 1.7278076694,
				"y": -0.0829485448,
				"z": -1.9450302056,
				"element": "H" 
			},
			{
				"x": 2.04592781,
				"y": 1.4041046196,
				"z": -3.9229234348,
				"element": "H" 
			},
			{
				"x": 0.1440783256,
				"y": 2.9280246043,
				"z": -4.5767829989,
				"element": "H" 
			},
			{
				"x": -1.9502290998,
				"y": 2.8877262932,
				"z": -3.2341146928,
				"element": "H" 
			}
		],
		 "valence_orbital": [ 
			{
				"type": "occ",
				"energy": -0.30557,
				"method": "rhf"
			},
			{
				"type": "occ",
				"energy": -0.28142,
				"method": "rhf"
			},
			{
				"type": "occ",
				"energy": -0.26954,
				"method": "rhf"
			},
			{
				"type": "occ",
				"energy": -0.25766,
				"method": "rhf"
			},
			{
				"type": "occ",
				"energy": -0.2105,
				"method": "rhf"
			},
			{
				"type": "unocc",
				"energy": -0.018,
				"method": "rhf"
			},
			{
				"type": "unocc",
				"energy": 0.00739,
				"method": "rhf"
			},
			{
				"type": "unocc",
				"energy": 0.01535,
				"method": "rhf"
			},
			{
				"type": "unocc",
				"energy": 0.06137,
				"method": "rhf"
			},
			{
				"type": "unocc",
				"energy": 0.07365,
				"method": "rhf"
			}
		],
		"cosmo_sigma_profile": { 
			"-0.025": 0.0,
			"-0.024": 0.0,
			"-0.023": 0.0,
			"-0.022": 0.0,
			"-0.021": 0.0,
			"-0.02": 0.0,
			"-0.019": 0.530982157073,
			"-0.018": 1.02297968199,
			"-0.017": 1.05285936016,
			"-0.016": 1.23508952674,
			"-0.015": 0.93176575843,
			"-0.014": 0.726337391862,
			"-0.013": 2.57692648249,
			"-0.012": 2.51095855846,
			"-0.011": 3.03056814638,
			"-0.01": 2.69047141234,
			"-0.009": 2.61599356752,
			"-0.008": 3.2097833368,
			"-0.007": 5.2429363667,
			"-0.006": 10.4080433903,
			"-0.005": 13.175721499,
			"-0.004": 13.9982492059,
			"-0.003": 13.5867257882,
			"-0.002": 11.0882016684,
			"-0.001": 9.81457548724,
			"0.0": 9.3784789988,
			"0.001": 10.6714463428,
			"0.002": 10.2764048338,
			"0.003": 11.7897466171,
			"0.004": 16.5365527129,
			"0.005": 12.4283459265,
			"0.006": 4.71181995745,
			"0.007": 5.20894983624,
			"0.008": 4.42167087843,
			"0.009": 4.19023354215,
			"0.01": 4.93786474478,
			"0.011": 6.79910537982,
			"0.012": 5.92201553484,
			"0.013": 2.12434640294,
			"0.014": 0.102126827528,
			"0.015": 0.0,
			"0.016": 0.0,
			"0.017": 0.0,
			"0.018": 0.0,
			"0.019": 0.0,
			"0.02": 0.0,
			"0.021": 0.0,
			"0.022": 0.0,
			"0.023": 0.0,
			"0.024": 0.0,
			"0.025": 0.0
		}
	}
}
