{
	 "smiles": "CCOC(=O)C1=C(CBr)C2=C(S1)C=CS2", 
	 "Tm": 372.15, 
	 "num_atms": 24, 
	 "gaussian": { 
		 "optdone": 1, 
		 "sigma_profile": "yes", 
		 "theory": "DFT", 
		 "functional": "B3LYP", 
		 "basiset": "6-31G**", 
		 "properties": { 
			 "R2extent": 5674.9888, 
			 "electric_dipole_moment_norm": 1.97046246856, 
			 "electric_quadrupole_moment_norm": 24.1358870657, 
			 "total_energy": -3904.71694031, 
			 "HOMO_LUMO_gap": 0.15765, 
			 "cosmo_polarized_energy": -10.28, 
			 "cosmo_cavitation_energy": 33.67, 
			 "cosmo_dispersion_energy": -24.96, 
			 "cosmo_repulsion_energy": 1.88, 
			 "cosmo_total_nonelectrostatic_energy": 10.59, 
			 "SMD_solvation_energy": 5.06 
		},
		"coords": [
			{
				"x": 2.8615090212,
				"y": 1.5170871925,
				"z": 4.0899034233,
				"element": "C" 
			},
			{
				"x": 1.4132870663,
				"y": 1.1929472144,
				"z": 3.7582979026,
				"element": "C" 
			},
			{
				"x": 1.2876158728,
				"y": 0.6332274008,
				"z": 2.4248003005,
				"element": "O" 
			},
			{
				"x": 1.1935248307,
				"y": 1.5197740944,
				"z": 1.4088125016,
				"element": "C" 
			},
			{
				"x": 1.2194420134,
				"y": 2.7289052476,
				"z": 1.5579419695,
				"element": "O" 
			},
			{
				"x": 1.0446936558,
				"y": 0.8838121645,
				"z": 0.0885962537,
				"element": "C" 
			},
			{
				"x": 0.9905505709,
				"y": -0.4468764332,
				"z": -0.3067104638,
				"element": "C" 
			},
			{
				"x": 1.1193931151,
				"y": -1.6410641628,
				"z": 0.571514338,
				"element": "C" 
			},
			{
				"x": -0.6628338181,
				"y": -2.4725036775,
				"z": 0.9607016795,
				"element": "Br" 
			},
			{
				"x": 0.8186753231,
				"y": -0.5317356538,
				"z": -1.7183993877,
				"element": "C" 
			},
			{
				"x": 0.7564748389,
				"y": 0.6951072444,
				"z": -2.374226203,
				"element": "C" 
			},
			{
				"x": 0.8991269477,
				"y": 2.0117425348,
				"z": -1.2529412718,
				"element": "S" 
			},
			{
				"x": 0.5973473329,
				"y": 0.589365117,
				"z": -3.7867498316,
				"element": "C" 
			},
			{
				"x": 0.5380154259,
				"y": -0.7199861584,
				"z": -4.1759160131,
				"element": "C" 
			},
			{
				"x": 0.6640464024,
				"y": -1.8519515569,
				"z": -2.8499093763,
				"element": "S" 
			},
			{
				"x": 3.4955146651,
				"y": 0.6318838827,
				"z": 3.9825745909,
				"element": "H" 
			},
			{
				"x": 3.2386250816,
				"y": 2.3064189316,
				"z": 3.4354395467,
				"element": "H" 
			},
			{
				"x": 2.9332303279,
				"y": 1.866032665,
				"z": 5.1253888454,
				"element": "H" 
			},
			{
				"x": 1.0130742577,
				"y": 0.4143486922,
				"z": 4.4113595132,
				"element": "H" 
			},
			{
				"x": 0.7830692381,
				"y": 2.0823544633,
				"z": 3.8224296277,
				"element": "H" 
			},
			{
				"x": 1.5329270257,
				"y": -1.4034469975,
				"z": 1.5438749851,
				"element": "H" 
			},
			{
				"x": 1.6825126919,
				"y": -2.4373157747,
				"z": 0.086673227,
				"element": "H" 
			},
			{
				"x": 0.5296595367,
				"y": 1.4255099059,
				"z": -4.471609318,
				"element": "H" 
			},
			{
				"x": 0.4168185766,
				"y": -1.1017363363,
				"z": -5.1806468394,
				"element": "H" 
			}
		],
		 "valence_orbital": [ 
			{
				"type": "occ",
				"energy": -0.28388,
				"method": "rhf"
			},
			{
				"type": "occ",
				"energy": -0.27354,
				"method": "rhf"
			},
			{
				"type": "occ",
				"energy": -0.27083,
				"method": "rhf"
			},
			{
				"type": "occ",
				"energy": -0.24176,
				"method": "rhf"
			},
			{
				"type": "occ",
				"energy": -0.23098,
				"method": "rhf"
			},
			{
				"type": "unocc",
				"energy": -0.07333,
				"method": "rhf"
			},
			{
				"type": "unocc",
				"energy": -0.02054,
				"method": "rhf"
			},
			{
				"type": "unocc",
				"energy": 0.00659,
				"method": "rhf"
			},
			{
				"type": "unocc",
				"energy": 0.01883,
				"method": "rhf"
			},
			{
				"type": "unocc",
				"energy": 0.02609,
				"method": "rhf"
			}
		],
		"cosmo_sigma_profile": { 
			"-0.025": 0.0,
			"-0.024": 0.0,
			"-0.023": 0.0,
			"-0.022": 0.0,
			"-0.021": 0.0,
			"-0.02": 0.0,
			"-0.019": 0.0,
			"-0.018": 0.0,
			"-0.017": 0.0,
			"-0.016": 0.0,
			"-0.015": 0.0,
			"-0.014": 0.0,
			"-0.013": 0.0,
			"-0.012": 0.0,
			"-0.011": 0.0,
			"-0.01": 0.5263874518,
			"-0.009": 2.59131529764,
			"-0.008": 6.69651851557,
			"-0.007": 7.79821944843,
			"-0.006": 10.418995449,
			"-0.005": 13.5664883359,
			"-0.004": 19.3297254826,
			"-0.003": 20.0270442733,
			"-0.002": 21.5692397672,
			"-0.001": 19.9238010785,
			"0.0": 25.5886544181,
			"0.001": 25.7077734965,
			"0.002": 26.1920009428,
			"0.003": 25.4321100617,
			"0.004": 16.0210267617,
			"0.005": 12.0202897182,
			"0.006": 10.5834096993,
			"0.007": 2.1267320931,
			"0.008": 1.30829311058,
			"0.009": 1.72343565843,
			"0.01": 2.44363928761,
			"0.011": 3.30819753394,
			"0.012": 2.04558584126,
			"0.013": 0.0,
			"0.014": 0.0,
			"0.015": 0.0,
			"0.016": 0.0,
			"0.017": 0.0,
			"0.018": 0.0,
			"0.019": 0.0,
			"0.02": 0.0,
			"0.021": 0.0,
			"0.022": 0.0,
			"0.023": 0.0,
			"0.024": 0.0,
			"0.025": 0.0
		}
	}
}
