{
	 "smiles": "CC(C)=C[C@H]1[C@H](C(=O)O[C@H]2CC(=O)C(CC#C)=C2C)C1(C)C", 
	 "Tm": 248.15, 
	 "num_atms": 46, 
	 "gaussian": { 
		 "optdone": 1, 
		 "sigma_profile": "yes", 
		 "theory": "DFT", 
		 "functional": "B3LYP", 
		 "basiset": "6-31G**", 
		 "properties": { 
			 "R2extent": 11007.0781, 
			 "electric_dipole_moment_norm": 4.0027234541, 
			 "electric_quadrupole_moment_norm": 19.6791292447, 
			 "total_energy": -964.071015616, 
			 "HOMO_LUMO_gap": 0.17415, 
			 "cosmo_polarized_energy": -14.11, 
			 "cosmo_cavitation_energy": 49.62, 
			 "cosmo_dispersion_energy": -32.34, 
			 "cosmo_repulsion_energy": 2.58, 
			 "cosmo_total_nonelectrostatic_energy": 19.86, 
			 "SMD_solvation_energy": 11.04 
		},
		"coords": [
			{
				"x": 2.0321386211,
				"y": 4.0346514242,
				"z": -2.9534672328,
				"element": "C" 
			},
			{
				"x": 2.4865033822,
				"y": 3.1528393432,
				"z": -1.8154389358,
				"element": "C" 
			},
			{
				"x": 3.2145334492,
				"y": 3.8803927332,
				"z": -0.7126318438,
				"element": "C" 
			},
			{
				"x": 2.2373185901,
				"y": 1.8317135521,
				"z": -1.834151478,
				"element": "C" 
			},
			{
				"x": 2.6083451887,
				"y": 0.8357642187,
				"z": -0.8030835862,
				"element": "C" 
			},
			{
				"x": 1.6677217743,
				"y": -0.3418823749,
				"z": -0.497565693,
				"element": "C" 
			},
			{
				"x": 1.3621668536,
				"y": -0.6450422262,
				"z": 0.9202697127,
				"element": "C" 
			},
			{
				"x": 2.0703927402,
				"y": -0.4065404097,
				"z": 1.8808550225,
				"element": "O" 
			},
			{
				"x": 0.1400682503,
				"y": -1.2363421244,
				"z": 1.0300135363,
				"element": "O" 
			},
			{
				"x": -0.2862583953,
				"y": -1.5767569191,
				"z": 2.3711148012,
				"element": "C" 
			},
			{
				"x": -1.0228530725,
				"y": -0.4300529464,
				"z": 3.0760677853,
				"element": "C" 
			},
			{
				"x": -2.3494819128,
				"y": -1.0490285085,
				"z": 3.5180328549,
				"element": "C" 
			},
			{
				"x": -3.1928114506,
				"y": -0.5219775304,
				"z": 4.2211947002,
				"element": "O" 
			},
			{
				"x": -2.4302034003,
				"y": -2.4140615029,
				"z": 2.9413689849,
				"element": "C" 
			},
			{
				"x": -3.6640983017,
				"y": -3.2536154972,
				"z": 3.1843535603,
				"element": "C" 
			},
			{
				"x": -4.2863121039,
				"y": -3.8017480246,
				"z": 1.977032916,
				"element": "C" 
			},
			{
				"x": -4.8029894804,
				"y": -4.2624208934,
				"z": 0.9873255334,
				"element": "C" 
			},
			{
				"x": -1.2948161644,
				"y": -2.7074078459,
				"z": 2.2732699409,
				"element": "C" 
			},
			{
				"x": -0.9418798668,
				"y": -3.9605689805,
				"z": 1.5409309317,
				"element": "C" 
			},
			{
				"x": 3.0537779451,
				"y": -0.5763939829,
				"z": -1.1114993954,
				"element": "C" 
			},
			{
				"x": 4.1688189175,
				"y": -1.1705255283,
				"z": -0.2664537885,
				"element": "C" 
			},
			{
				"x": 3.0664922962,
				"y": -1.0689474938,
				"z": -2.5504776085,
				"element": "C" 
			},
			{
				"x": 1.5106437564,
				"y": 3.4673756504,
				"z": -3.7294328442,
				"element": "H" 
			},
			{
				"x": 2.883891312,
				"y": 4.5469436163,
				"z": -3.420696166,
				"element": "H" 
			},
			{
				"x": 1.3560143168,
				"y": 4.8227951176,
				"z": -2.5958956988,
				"element": "H" 
			},
			{
				"x": 4.1065074824,
				"y": 4.3838833406,
				"z": -1.108097831,
				"element": "H" 
			},
			{
				"x": 3.5335865981,
				"y": 3.2301011853,
				"z": 0.1033694611,
				"element": "H" 
			},
			{
				"x": 2.5792916535,
				"y": 4.6675693025,
				"z": -0.2859079342,
				"element": "H" 
			},
			{
				"x": 1.6979146739,
				"y": 1.4413357529,
				"z": -2.6958000102,
				"element": "H" 
			},
			{
				"x": 3.056929973,
				"y": 1.2337980575,
				"z": 0.1025155085,
				"element": "H" 
			},
			{
				"x": 0.8269911375,
				"y": -0.4865822024,
				"z": -1.1686284028,
				"element": "H" 
			},
			{
				"x": 0.6029904286,
				"y": -1.8871845752,
				"z": 2.9297529564,
				"element": "H" 
			},
			{
				"x": -1.2224395365,
				"y": 0.385546184,
				"z": 2.3734826785,
				"element": "H" 
			},
			{
				"x": -0.4786764954,
				"y": -0.0103623737,
				"z": 3.9254210687,
				"element": "H" 
			},
			{
				"x": -4.3808643056,
				"y": -2.614951721,
				"z": 3.7161814241,
				"element": "H" 
			},
			{
				"x": -3.4226870574,
				"y": -4.0768783903,
				"z": 3.8713945866,
				"element": "H" 
			},
			{
				"x": -5.2669405177,
				"y": -4.6562811056,
				"z": 0.113099705,
				"element": "H" 
			},
			{
				"x": -0.6005823321,
				"y": -3.717107947,
				"z": 0.52906835,
				"element": "H" 
			},
			{
				"x": -1.7858207049,
				"y": -4.6478566614,
				"z": 1.4716705647,
				"element": "H" 
			},
			{
				"x": -0.1069564714,
				"y": -4.4700563018,
				"z": 2.0403234347,
				"element": "H" 
			},
			{
				"x": 5.1411646834,
				"y": -0.8839567305,
				"z": -0.6836425936,
				"element": "H" 
			},
			{
				"x": 4.1172198859,
				"y": -2.2661005968,
				"z": -0.2709858951,
				"element": "H" 
			},
			{
				"x": 4.1198407843,
				"y": -0.8330156644,
				"z": 0.7695233325,
				"element": "H" 
			},
			{
				"x": 3.0206920001,
				"y": -2.163508617,
				"z": -2.5771055176,
				"element": "H" 
			},
			{
				"x": 3.9918910006,
				"y": -0.7616596261,
				"z": -3.0510786038,
				"element": "H" 
			},
			{
				"x": 2.2275238749,
				"y": -0.687694176,
				"z": -3.1375922917,
				"element": "H" 
			}
		],
		 "valence_orbital": [ 
			{
				"type": "occ",
				"energy": -0.27168,
				"method": "rhf"
			},
			{
				"type": "occ",
				"energy": -0.26754,
				"method": "rhf"
			},
			{
				"type": "occ",
				"energy": -0.25927,
				"method": "rhf"
			},
			{
				"type": "occ",
				"energy": -0.24331,
				"method": "rhf"
			},
			{
				"type": "occ",
				"energy": -0.22425,
				"method": "rhf"
			},
			{
				"type": "unocc",
				"energy": -0.0501,
				"method": "rhf"
			},
			{
				"type": "unocc",
				"energy": -0.00464,
				"method": "rhf"
			},
			{
				"type": "unocc",
				"energy": 0.03074,
				"method": "rhf"
			},
			{
				"type": "unocc",
				"energy": 0.03839,
				"method": "rhf"
			},
			{
				"type": "unocc",
				"energy": 0.0554,
				"method": "rhf"
			}
		],
		"cosmo_sigma_profile": { 
			"-0.025": 0.0,
			"-0.024": 0.0,
			"-0.023": 0.0,
			"-0.022": 0.0,
			"-0.021": 0.0,
			"-0.02": 0.0,
			"-0.019": 0.0,
			"-0.018": 0.0,
			"-0.017": 0.0,
			"-0.016": 0.0,
			"-0.015": 0.0,
			"-0.014": 0.0,
			"-0.013": 0.0,
			"-0.012": 0.0554351824475,
			"-0.011": 1.19916853374,
			"-0.01": 1.18689078533,
			"-0.009": 1.20577001865,
			"-0.008": 0.9117507989,
			"-0.007": 6.67377847598,
			"-0.006": 15.6473965396,
			"-0.005": 19.7305614378,
			"-0.004": 24.8400018305,
			"-0.003": 43.3952043574,
			"-0.002": 41.9857505793,
			"-0.001": 45.0145056849,
			"0.0": 45.0252540365,
			"0.001": 37.7531657494,
			"0.002": 16.9651419138,
			"0.003": 16.8915643091,
			"0.004": 14.1041816298,
			"0.005": 11.5082666936,
			"0.006": 12.2088552276,
			"0.007": 9.98121380419,
			"0.008": 3.46334620171,
			"0.009": 3.01433436415,
			"0.01": 3.69435051485,
			"0.011": 5.20974824947,
			"0.012": 7.25192768954,
			"0.013": 1.88790617715,
			"0.014": 0.158060820791,
			"0.015": 0.0,
			"0.016": 0.0,
			"0.017": 0.0,
			"0.018": 0.0,
			"0.019": 0.0,
			"0.02": 0.0,
			"0.021": 0.0,
			"0.022": 0.0,
			"0.023": 0.0,
			"0.024": 0.0,
			"0.025": 0.0
		}
	}
}
