{
	 "smiles": "CNC(=O)OC1=CC=C2N(C)C3OCCC3(C)C2=C1", 
	 "Tm": 397.15, 
	 "num_atms": 37, 
	 "gaussian": { 
		 "optdone": 1, 
		 "sigma_profile": "yes", 
		 "theory": "DFT", 
		 "functional": "B3LYP", 
		 "basiset": "6-31G**", 
		 "properties": { 
			 "R2extent": 6347.35, 
			 "electric_dipole_moment_norm": 2.87731731132, 
			 "electric_quadrupole_moment_norm": 17.9562401329, 
			 "total_energy": -879.527818062, 
			 "HOMO_LUMO_gap": 0.18432, 
			 "cosmo_polarized_energy": -14.85, 
			 "cosmo_cavitation_energy": 38.85, 
			 "cosmo_dispersion_energy": -27.3, 
			 "cosmo_repulsion_energy": 2.12, 
			 "cosmo_total_nonelectrostatic_energy": 13.68, 
			 "SMD_solvation_energy": 6.18 
		},
		"coords": [
			{
				"x": 0.8769718299,
				"y": 3.1354578289,
				"z": 3.5362225066,
				"element": "C" 
			},
			{
				"x": 2.0841075826,
				"y": 2.3884150345,
				"z": 3.222516386,
				"element": "N" 
			},
			{
				"x": 2.2059909245,
				"y": 1.4320720547,
				"z": 2.256596432,
				"element": "C" 
			},
			{
				"x": 3.2540427494,
				"y": 0.9173569852,
				"z": 1.9224302439,
				"element": "O" 
			},
			{
				"x": 0.9689003221,
				"y": 1.1293892153,
				"z": 1.7437871013,
				"element": "O" 
			},
			{
				"x": 0.8497711235,
				"y": 0.1534341052,
				"z": 0.749201741,
				"element": "C" 
			},
			{
				"x": 1.4123415378,
				"y": -1.1153436869,
				"z": 0.870891803,
				"element": "C" 
			},
			{
				"x": 1.1898208072,
				"y": -2.0805873912,
				"z": -0.1180034297,
				"element": "C" 
			},
			{
				"x": 0.3980119186,
				"y": -1.74652072,
				"z": -1.2192688977,
				"element": "C" 
			},
			{
				"x": 0.0858884579,
				"y": -2.5140537867,
				"z": -2.3393862991,
				"element": "N" 
			},
			{
				"x": 0.2433391231,
				"y": -3.9520889253,
				"z": -2.3755090723,
				"element": "C" 
			},
			{
				"x": -0.975014736,
				"y": -1.8774627001,
				"z": -3.0990562652,
				"element": "C" 
			},
			{
				"x": -2.2726267387,
				"y": -2.4350612031,
				"z": -2.8670239922,
				"element": "O" 
			},
			{
				"x": -3.0007778882,
				"y": -1.5787479318,
				"z": -1.9798422387,
				"element": "C" 
			},
			{
				"x": -2.515323847,
				"y": -0.1705793628,
				"z": -2.320760102,
				"element": "C" 
			},
			{
				"x": -1.008551703,
				"y": -0.3898325028,
				"z": -2.5985839484,
				"element": "C" 
			},
			{
				"x": -0.4203573583,
				"y": 0.6050414458,
				"z": -3.6088682871,
				"element": "C" 
			},
			{
				"x": -0.1827512621,
				"y": -0.4708211736,
				"z": -1.3225364885,
				"element": "C" 
			},
			{
				"x": 0.0455591699,
				"y": 0.4865404323,
				"z": -0.3471032654,
				"element": "C" 
			},
			{
				"x": 1.0322460565,
				"y": 3.6669655945,
				"z": 4.4779910189,
				"element": "H" 
			},
			{
				"x": 0.6175550496,
				"y": 3.86778288,
				"z": 2.760736044,
				"element": "H" 
			},
			{
				"x": 0.0336840883,
				"y": 2.4535698268,
				"z": 3.6589767303,
				"element": "H" 
			},
			{
				"x": 2.9722496856,
				"y": 2.7221805555,
				"z": 3.5631962835,
				"element": "H" 
			},
			{
				"x": 2.0317706341,
				"y": -1.3473610668,
				"z": 1.727874947,
				"element": "H" 
			},
			{
				"x": 1.62879505,
				"y": -3.0674071127,
				"z": -0.0163398201,
				"element": "H" 
			},
			{
				"x": 0.067215459,
				"y": -4.3043300544,
				"z": -3.3955718105,
				"element": "H" 
			},
			{
				"x": -0.4541528151,
				"y": -4.4787472889,
				"z": -1.7080771899,
				"element": "H" 
			},
			{
				"x": 1.266725749,
				"y": -4.2246372945,
				"z": -2.0980692065,
				"element": "H" 
			},
			{
				"x": -0.7843393561,
				"y": -1.9970433462,
				"z": -4.171664741,
				"element": "H" 
			},
			{
				"x": -4.0670590439,
				"y": -1.7360255177,
				"z": -2.1665084181,
				"element": "H" 
			},
			{
				"x": -2.7900680841,
				"y": -1.8299951786,
				"z": -0.9300580186,
				"element": "H" 
			},
			{
				"x": -3.0149990422,
				"y": 0.1892041902,
				"z": -3.2274960831,
				"element": "H" 
			},
			{
				"x": -2.6921930679,
				"y": 0.5528033048,
				"z": -1.5197493296,
				"element": "H" 
			},
			{
				"x": -0.9812703283,
				"y": 0.5848703256,
				"z": -4.5500436071,
				"element": "H" 
			},
			{
				"x": -0.457343693,
				"y": 1.6258628797,
				"z": -3.2147513665,
				"element": "H" 
			},
			{
				"x": 0.6263843422,
				"y": 0.3700416581,
				"z": -3.8247154704,
				"element": "H" 
			},
			{
				"x": -0.3898426969,
				"y": 1.4801579267,
				"z": -0.4026338894,
				"element": "H" 
			}
		],
		 "valence_orbital": [ 
			{
				"type": "occ",
				"energy": -0.26685,
				"method": "rhf"
			},
			{
				"type": "occ",
				"energy": -0.25829,
				"method": "rhf"
			},
			{
				"type": "occ",
				"energy": -0.25158,
				"method": "rhf"
			},
			{
				"type": "occ",
				"energy": -0.24068,
				"method": "rhf"
			},
			{
				"type": "occ",
				"energy": -0.18307,
				"method": "rhf"
			},
			{
				"type": "unocc",
				"energy": 0.00125,
				"method": "rhf"
			},
			{
				"type": "unocc",
				"energy": 0.02073,
				"method": "rhf"
			},
			{
				"type": "unocc",
				"energy": 0.0612,
				"method": "rhf"
			},
			{
				"type": "unocc",
				"energy": 0.08312,
				"method": "rhf"
			},
			{
				"type": "unocc",
				"energy": 0.08981,
				"method": "rhf"
			}
		],
		"cosmo_sigma_profile": { 
			"-0.025": 0.0,
			"-0.024": 0.0,
			"-0.023": 0.0,
			"-0.022": 0.0,
			"-0.021": 0.0,
			"-0.02": 0.0,
			"-0.019": 0.0,
			"-0.018": 0.0,
			"-0.017": 0.0,
			"-0.016": 0.0,
			"-0.015": 0.0,
			"-0.014": 1.19921721774,
			"-0.013": 0.901659668626,
			"-0.012": 1.32138647849,
			"-0.011": 0.994679231976,
			"-0.01": 0.811822643658,
			"-0.009": 0.84874851822,
			"-0.008": 1.0467132821,
			"-0.007": 1.57189923123,
			"-0.006": 7.20399319042,
			"-0.005": 18.1468806613,
			"-0.004": 30.2552458853,
			"-0.003": 38.8370128015,
			"-0.002": 38.4675965886,
			"-0.001": 31.6821743642,
			"0.0": 23.8493297865,
			"0.001": 19.2405275693,
			"0.002": 10.9934682034,
			"0.003": 11.8117099078,
			"0.004": 13.5347452049,
			"0.005": 13.2799383382,
			"0.006": 9.64363947122,
			"0.007": 3.66765055886,
			"0.008": 3.08288974984,
			"0.009": 3.53180299887,
			"0.01": 2.70119378521,
			"0.011": 3.23108894162,
			"0.012": 3.47114064658,
			"0.013": 7.17223855202,
			"0.014": 2.56041954419,
			"0.015": 0.0,
			"0.016": 0.0,
			"0.017": 0.0,
			"0.018": 0.0,
			"0.019": 0.0,
			"0.02": 0.0,
			"0.021": 0.0,
			"0.022": 0.0,
			"0.023": 0.0,
			"0.024": 0.0,
			"0.025": 0.0
		}
	}
}
