{
	 "smiles": "CNC1=CC(NC)=C(F)C=C1[N+]([O-])=O", 
	 "Tm": 459.15, 
	 "num_atms": 24, 
	 "gaussian": { 
		 "optdone": 1, 
		 "sigma_profile": "yes", 
		 "theory": "DFT", 
		 "functional": "B3LYP", 
		 "basiset": "6-31G**", 
		 "properties": { 
			 "R2extent": 3751.3823, 
			 "electric_dipole_moment_norm": 7.4119530611, 
			 "electric_quadrupole_moment_norm": 14.9854088496, 
			 "total_energy": -725.304325364, 
			 "HOMO_LUMO_gap": 0.14613, 
			 "cosmo_polarized_energy": -16.63, 
			 "cosmo_cavitation_energy": 28.22, 
			 "cosmo_dispersion_energy": -20.71, 
			 "cosmo_repulsion_energy": 1.6, 
			 "cosmo_total_nonelectrostatic_energy": 9.11, 
			 "SMD_solvation_energy": 6.27 
		},
		"coords": [
			{
				"x": -2.2669264765,
				"y": 0.3953309324,
				"z": -1.4091484606,
				"element": "C" 
			},
			{
				"x": -0.8702552478,
				"y": -0.0302257657,
				"z": -1.3735658964,
				"element": "N" 
			},
			{
				"x": -0.2757912486,
				"y": -0.7463319679,
				"z": -0.3571681823,
				"element": "C" 
			},
			{
				"x": 1.0592426353,
				"y": -0.4089298434,
				"z": -0.0269975809,
				"element": "C" 
			},
			{
				"x": 1.7613660793,
				"y": -1.0158268877,
				"z": 1.0159731195,
				"element": "C" 
			},
			{
				"x": 3.0583279312,
				"y": -0.7311797343,
				"z": 1.3392954422,
				"element": "N" 
			},
			{
				"x": 3.8351051771,
				"y": 0.3118534863,
				"z": 0.7083707861,
				"element": "C" 
			},
			{
				"x": 1.0638217925,
				"y": -1.97358413,
				"z": 1.7950704468,
				"element": "C" 
			},
			{
				"x": 1.7406076742,
				"y": -2.5270399556,
				"z": 2.8381163868,
				"element": "F" 
			},
			{
				"x": -0.2169499401,
				"y": -2.3422010912,
				"z": 1.5116686472,
				"element": "C" 
			},
			{
				"x": -0.8927989057,
				"y": -1.7698795463,
				"z": 0.4115834507,
				"element": "C" 
			},
			{
				"x": -2.151196128,
				"y": -2.3923198735,
				"z": 0.0659590585,
				"element": "N" 
			},
			{
				"x": -2.5525520359,
				"y": -2.3070517368,
				"z": -1.1019926282,
				"element": "O" 
			},
			{
				"x": -2.7423355956,
				"y": -3.034035399,
				"z": 0.9445244731,
				"element": "O" 
			},
			{
				"x": -2.3074009657,
				"y": 1.3910151851,
				"z": -1.8598785126,
				"element": "H" 
			},
			{
				"x": -2.6851142913,
				"y": 0.4643483012,
				"z": -0.3981805355,
				"element": "H" 
			},
			{
				"x": -2.8903983466,
				"y": -0.2889807353,
				"z": -1.986410307,
				"element": "H" 
			},
			{
				"x": -0.2374182273,
				"y": 0.638276332,
				"z": -1.7864267531,
				"element": "H" 
			},
			{
				"x": 1.5360357285,
				"y": 0.3859613716,
				"z": -0.5912674502,
				"element": "H" 
			},
			{
				"x": 3.3910648185,
				"y": -1.129762737,
				"z": 2.2025705416,
				"element": "H" 
			},
			{
				"x": 4.8347579642,
				"y": 0.3205846714,
				"z": 1.1462886256,
				"element": "H" 
			},
			{
				"x": 3.94125254,
				"y": 0.1281064836,
				"z": -0.3677364046,
				"element": "H" 
			},
			{
				"x": 3.3911714656,
				"y": 1.3092520552,
				"z": 0.8430977645,
				"element": "H" 
			},
			{
				"x": -0.7203163975,
				"y": -3.0988794153,
				"z": 2.0985539688,
				"element": "H" 
			}
		],
		 "valence_orbital": [ 
			{
				"type": "occ",
				"energy": -0.28417,
				"method": "rhf"
			},
			{
				"type": "occ",
				"energy": -0.27914,
				"method": "rhf"
			},
			{
				"type": "occ",
				"energy": -0.26361,
				"method": "rhf"
			},
			{
				"type": "occ",
				"energy": -0.22344,
				"method": "rhf"
			},
			{
				"type": "occ",
				"energy": -0.2064,
				"method": "rhf"
			},
			{
				"type": "unocc",
				"energy": -0.06027,
				"method": "rhf"
			},
			{
				"type": "unocc",
				"energy": -0.00195,
				"method": "rhf"
			},
			{
				"type": "unocc",
				"energy": 0.02418,
				"method": "rhf"
			},
			{
				"type": "unocc",
				"energy": 0.06202,
				"method": "rhf"
			},
			{
				"type": "unocc",
				"energy": 0.07407,
				"method": "rhf"
			}
		],
		"cosmo_sigma_profile": { 
			"-0.025": 0.0,
			"-0.024": 0.0,
			"-0.023": 0.0,
			"-0.022": 0.0,
			"-0.021": 0.0,
			"-0.02": 0.0,
			"-0.019": 0.0,
			"-0.018": 0.0,
			"-0.017": 0.0,
			"-0.016": 0.0,
			"-0.015": 0.0,
			"-0.014": 0.828490865811,
			"-0.013": 2.8486479443,
			"-0.012": 2.22474929371,
			"-0.011": 2.68409614973,
			"-0.01": 1.85020185335,
			"-0.009": 3.03867603906,
			"-0.008": 2.42578298711,
			"-0.007": 5.45906022138,
			"-0.006": 7.8583961711,
			"-0.005": 13.651167698,
			"-0.004": 15.2274776181,
			"-0.003": 17.2462344757,
			"-0.002": 19.9658703094,
			"-0.001": 16.59051875,
			"0.0": 13.1244983609,
			"0.001": 14.5642810479,
			"0.002": 18.4319227905,
			"0.003": 13.3509882729,
			"0.004": 12.9064687568,
			"0.005": 5.01189019577,
			"0.006": 3.32598098345,
			"0.007": 3.32032724318,
			"0.008": 4.02714390656,
			"0.009": 8.28674985332,
			"0.01": 6.56098361756,
			"0.011": 5.20615454854,
			"0.012": 3.73816683497,
			"0.013": 0.172401137684,
			"0.014": 0.0,
			"0.015": 0.0,
			"0.016": 0.0,
			"0.017": 0.0,
			"0.018": 0.0,
			"0.019": 0.0,
			"0.02": 0.0,
			"0.021": 0.0,
			"0.022": 0.0,
			"0.023": 0.0,
			"0.024": 0.0,
			"0.025": 0.0
		}
	}
}
