{
	 "smiles": "CC(=O)NC1=C(C)C=CC2=C1C(=O)C1=CC=CC=C1C2=O", 
	 "Tm": 406.15, 
	 "num_atms": 34, 
	 "gaussian": { 
		 "optdone": 1, 
		 "sigma_profile": "yes", 
		 "theory": "DFT", 
		 "functional": "B3LYP", 
		 "basiset": "6-31G**", 
		 "properties": { 
			 "R2extent": 6511.9711, 
			 "electric_dipole_moment_norm": 2.72949475544, 
			 "electric_quadrupole_moment_norm": 19.0790113892, 
			 "total_energy": -936.115447221, 
			 "HOMO_LUMO_gap": 0.128, 
			 "cosmo_polarized_energy": -12.83, 
			 "cosmo_cavitation_energy": 37.5, 
			 "cosmo_dispersion_energy": -27.17, 
			 "cosmo_repulsion_energy": 2.0, 
			 "cosmo_total_nonelectrostatic_energy": 12.33, 
			 "SMD_solvation_energy": 7.4 
		},
		"coords": [
			{
				"x": -1.0489438043,
				"y": -2.1395291863,
				"z": -3.4791033199,
				"element": "C" 
			},
			{
				"x": -1.4001982824,
				"y": -0.7821550734,
				"z": -2.8910773245,
				"element": "C" 
			},
			{
				"x": -1.7285686951,
				"y": 0.1711862148,
				"z": -3.5776425429,
				"element": "O" 
			},
			{
				"x": -1.3254856083,
				"y": -0.7542729756,
				"z": -1.5012642919,
				"element": "N" 
			},
			{
				"x": -1.4636114274,
				"y": 0.3975133362,
				"z": -0.7071301773,
				"element": "C" 
			},
			{
				"x": -2.6181764789,
				"y": 1.2130475379,
				"z": -0.8132288396,
				"element": "C" 
			},
			{
				"x": -3.7938515545,
				"y": 0.8371788772,
				"z": -1.6749132986,
				"element": "C" 
			},
			{
				"x": -2.6850930016,
				"y": 2.370301933,
				"z": -0.0313137849,
				"element": "C" 
			},
			{
				"x": -1.6785128247,
				"y": 2.7202280217,
				"z": 0.8609738745,
				"element": "C" 
			},
			{
				"x": -0.5768735255,
				"y": 1.8845146114,
				"z": 1.0256833023,
				"element": "C" 
			},
			{
				"x": -0.4591067962,
				"y": 0.7008076147,
				"z": 0.2561115801,
				"element": "C" 
			},
			{
				"x": 0.6908933655,
				"y": -0.2079510957,
				"z": 0.4992971617,
				"element": "C" 
			},
			{
				"x": 0.7878577919,
				"y": -1.3246624974,
				"z": -0.0285178281,
				"element": "O" 
			},
			{
				"x": 1.7621155163,
				"y": 0.2327743626,
				"z": 1.4384712435,
				"element": "C" 
			},
			{
				"x": 2.8901065147,
				"y": -0.5810845762,
				"z": 1.6068818048,
				"element": "C" 
			},
			{
				"x": 3.9021399434,
				"y": -0.1992652962,
				"z": 2.4835284146,
				"element": "C" 
			},
			{
				"x": 3.7940397131,
				"y": 0.9945148715,
				"z": 3.2071846885,
				"element": "C" 
			},
			{
				"x": 2.6725888626,
				"y": 1.8047705764,
				"z": 3.0516459021,
				"element": "C" 
			},
			{
				"x": 1.6554868489,
				"y": 1.4301235396,
				"z": 2.1668517985,
				"element": "C" 
			},
			{
				"x": 0.461535662,
				"y": 2.3018848775,
				"z": 2.0118731405,
				"element": "C" 
			},
			{
				"x": 0.3428708064,
				"y": 3.3353329356,
				"z": 2.6628975086,
				"element": "O" 
			},
			{
				"x": -0.1316434542,
				"y": -2.5453942907,
				"z": -3.0402872195,
				"element": "H" 
			},
			{
				"x": -1.8554814625,
				"y": -2.8542416024,
				"z": -3.2824981965,
				"element": "H" 
			},
			{
				"x": -0.9245630218,
				"y": -2.031750098,
				"z": -4.5563613848,
				"element": "H" 
			},
			{
				"x": -0.6787628337,
				"y": -1.4270334125,
				"z": -1.0903355128,
				"element": "H" 
			},
			{
				"x": -4.6941567012,
				"y": 1.353782579,
				"z": -1.3318829444,
				"element": "H" 
			},
			{
				"x": -3.6101379707,
				"y": 1.0871630915,
				"z": -2.722709369,
				"element": "H" 
			},
			{
				"x": -3.9763859343,
				"y": -0.2415271948,
				"z": -1.6338911498,
				"element": "H" 
			},
			{
				"x": -3.5673016261,
				"y": 2.9993388445,
				"z": -0.1145911789,
				"element": "H" 
			},
			{
				"x": -1.7369697476,
				"y": 3.6212070259,
				"z": 1.4609850168,
				"element": "H" 
			},
			{
				"x": 2.9502767557,
				"y": -1.5045110258,
				"z": 1.0418685667,
				"element": "H" 
			},
			{
				"x": 4.7769547436,
				"y": -0.8309500099,
				"z": 2.6064045219,
				"element": "H" 
			},
			{
				"x": 4.584543454,
				"y": 1.2880411525,
				"z": 3.8915751944,
				"element": "H" 
			},
			{
				"x": 2.5579147728,
				"y": 2.7324163316,
				"z": 3.6020146439,
				"element": "H" 
			}
		],
		 "valence_orbital": [ 
			{
				"type": "occ",
				"energy": -0.27045,
				"method": "rhf"
			},
			{
				"type": "occ",
				"energy": -0.26346,
				"method": "rhf"
			},
			{
				"type": "occ",
				"energy": -0.26194,
				"method": "rhf"
			},
			{
				"type": "occ",
				"energy": -0.25412,
				"method": "rhf"
			},
			{
				"type": "occ",
				"energy": -0.23555,
				"method": "rhf"
			},
			{
				"type": "unocc",
				"energy": -0.10755,
				"method": "rhf"
			},
			{
				"type": "unocc",
				"energy": -0.05951,
				"method": "rhf"
			},
			{
				"type": "unocc",
				"energy": -0.02477,
				"method": "rhf"
			},
			{
				"type": "unocc",
				"energy": -0.01537,
				"method": "rhf"
			},
			{
				"type": "unocc",
				"energy": 0.0221,
				"method": "rhf"
			}
		],
		"cosmo_sigma_profile": { 
			"-0.025": 0.0,
			"-0.024": 0.0,
			"-0.023": 0.0,
			"-0.022": 0.0,
			"-0.021": 0.0,
			"-0.02": 0.0,
			"-0.019": 0.0,
			"-0.018": 0.0,
			"-0.017": 0.0,
			"-0.016": 0.0,
			"-0.015": 0.0,
			"-0.014": 0.0,
			"-0.013": 0.0,
			"-0.012": 0.0,
			"-0.011": 0.0,
			"-0.01": 0.0,
			"-0.009": 0.0,
			"-0.008": 0.632708051321,
			"-0.007": 7.73092156597,
			"-0.006": 17.2031763878,
			"-0.005": 23.741280222,
			"-0.004": 24.1626148122,
			"-0.003": 24.7141971566,
			"-0.002": 26.1311914221,
			"-0.001": 28.7415646458,
			"0.0": 28.4541320495,
			"0.001": 30.9796538818,
			"0.002": 27.1140310054,
			"0.003": 11.5225506471,
			"0.004": 6.46867864102,
			"0.005": 4.72705789526,
			"0.006": 4.53505600384,
			"0.007": 5.50406411876,
			"0.008": 4.30311357898,
			"0.009": 5.47534428121,
			"0.01": 4.80877625117,
			"0.011": 6.415036003,
			"0.012": 4.01519027696,
			"0.013": 2.53741801024,
			"0.014": 1.07791800864,
			"0.015": 0.0312357573557,
			"0.016": 0.0,
			"0.017": 0.0,
			"0.018": 0.0,
			"0.019": 0.0,
			"0.02": 0.0,
			"0.021": 0.0,
			"0.022": 0.0,
			"0.023": 0.0,
			"0.024": 0.0,
			"0.025": 0.0
		}
	}
}
