{
	 "smiles": "OC(=O)C1CCCCN1C(=O)C1=CN=CC=C1", 
	 "Tm": 462.15, 
	 "num_atms": 31, 
	 "gaussian": { 
		 "optdone": 1, 
		 "sigma_profile": "yes", 
		 "theory": "DFT", 
		 "functional": "B3LYP", 
		 "basiset": "6-31G**", 
		 "properties": { 
			 "R2extent": 4097.1906, 
			 "electric_dipole_moment_norm": 4.11935619606, 
			 "electric_quadrupole_moment_norm": 10.048978659, 
			 "total_energy": -800.907584726, 
			 "HOMO_LUMO_gap": 0.19912, 
			 "cosmo_polarized_energy": -17.05, 
			 "cosmo_cavitation_energy": 33.54, 
			 "cosmo_dispersion_energy": -23.46, 
			 "cosmo_repulsion_energy": 1.82, 
			 "cosmo_total_nonelectrostatic_energy": 11.9, 
			 "SMD_solvation_energy": 5.08 
		},
		"coords": [
			{
				"x": 1.1568215596,
				"y": 3.2095043552,
				"z": -1.0295183656,
				"element": "O" 
			},
			{
				"x": 0.8155805551,
				"y": 1.9288897393,
				"z": -1.3044254528,
				"element": "C" 
			},
			{
				"x": 1.1612961569,
				"y": 1.3536451389,
				"z": -2.3107763581,
				"element": "O" 
			},
			{
				"x": -0.0609286723,
				"y": 1.3579201191,
				"z": -0.1894622538,
				"element": "C" 
			},
			{
				"x": -1.3811403054,
				"y": 2.1860006972,
				"z": -0.0725472041,
				"element": "C" 
			},
			{
				"x": -2.4939371115,
				"y": 1.3262060467,
				"z": 0.5374659297,
				"element": "C" 
			},
			{
				"x": -2.8291551856,
				"y": 0.1303354917,
				"z": -0.383234034,
				"element": "C" 
			},
			{
				"x": -1.5767390823,
				"y": -0.3166248364,
				"z": -1.1682958609,
				"element": "C" 
			},
			{
				"x": -0.355217039,
				"y": -0.0575390987,
				"z": -0.3967105055,
				"element": "N" 
			},
			{
				"x": 0.1165154223,
				"y": -1.0740368302,
				"z": 0.4079024357,
				"element": "C" 
			},
			{
				"x": -0.4719976172,
				"y": -2.1485577301,
				"z": 0.5068100643,
				"element": "O" 
			},
			{
				"x": 1.4094919321,
				"y": -0.8671515915,
				"z": 1.1476535407,
				"element": "C" 
			},
			{
				"x": 2.5527834435,
				"y": -0.3051131,
				"z": 0.5620736738,
				"element": "C" 
			},
			{
				"x": 3.733479785,
				"y": -0.2001096585,
				"z": 1.1847212996,
				"element": "N" 
			},
			{
				"x": 3.8112430032,
				"y": -0.6631570204,
				"z": 2.4377237681,
				"element": "C" 
			},
			{
				"x": 2.7438355864,
				"y": -1.2686970243,
				"z": 3.1064895921,
				"element": "C" 
			},
			{
				"x": 1.5271753991,
				"y": -1.3846159099,
				"z": 2.443560165,
				"element": "C" 
			},
			{
				"x": 1.701782418,
				"y": 3.51583639,
				"z": -1.7741975428,
				"element": "H" 
			},
			{
				"x": 0.4940337105,
				"y": 1.4685750028,
				"z": 0.7455872352,
				"element": "H" 
			},
			{
				"x": -1.6925151528,
				"y": 2.5374013195,
				"z": -1.0637926288,
				"element": "H" 
			},
			{
				"x": -1.1801478561,
				"y": 3.0792261323,
				"z": 0.524248692,
				"element": "H" 
			},
			{
				"x": -3.3842464712,
				"y": 1.9370274913,
				"z": 0.7188019544,
				"element": "H" 
			},
			{
				"x": -2.1647585492,
				"y": 0.9601753382,
				"z": 1.517619108,
				"element": "H" 
			},
			{
				"x": -3.2101091937,
				"y": -0.7033945572,
				"z": 0.2134905232,
				"element": "H" 
			},
			{
				"x": -3.6156465994,
				"y": 0.4049358137,
				"z": -1.0960564007,
				"element": "H" 
			},
			{
				"x": -1.4823764278,
				"y": 0.2333201015,
				"z": -2.1098678496,
				"element": "H" 
			},
			{
				"x": -1.607794967,
				"y": -1.3804738763,
				"z": -1.39798709,
				"element": "H" 
			},
			{
				"x": 2.5215042723,
				"y": 0.0449881253,
				"z": -0.4672497122,
				"element": "H" 
			},
			{
				"x": 4.776833617,
				"y": -0.55468228,
				"z": 2.9289011643,
				"element": "H" 
			},
			{
				"x": 2.8720838247,
				"y": -1.6456891285,
				"z": 4.1162751632,
				"element": "H" 
			},
			{
				"x": 0.6723495449,
				"y": -1.8732446609,
				"z": 2.9001969496,
				"element": "H" 
			}
		],
		 "valence_orbital": [ 
			{
				"type": "occ",
				"energy": -0.28828,
				"method": "rhf"
			},
			{
				"type": "occ",
				"energy": -0.2743,
				"method": "rhf"
			},
			{
				"type": "occ",
				"energy": -0.26192,
				"method": "rhf"
			},
			{
				"type": "occ",
				"energy": -0.25009,
				"method": "rhf"
			},
			{
				"type": "occ",
				"energy": -0.24075,
				"method": "rhf"
			},
			{
				"type": "unocc",
				"energy": -0.04163,
				"method": "rhf"
			},
			{
				"type": "unocc",
				"energy": -0.02716,
				"method": "rhf"
			},
			{
				"type": "unocc",
				"energy": -0.00175,
				"method": "rhf"
			},
			{
				"type": "unocc",
				"energy": 0.03946,
				"method": "rhf"
			},
			{
				"type": "unocc",
				"energy": 0.06533,
				"method": "rhf"
			}
		],
		"cosmo_sigma_profile": { 
			"-0.025": 0.0,
			"-0.024": 0.0,
			"-0.023": 0.0,
			"-0.022": 0.0,
			"-0.021": 0.0,
			"-0.02": 0.0,
			"-0.019": 0.135281780049,
			"-0.018": 1.12509466888,
			"-0.017": 0.891665654146,
			"-0.016": 0.757042746262,
			"-0.015": 0.933496898698,
			"-0.014": 0.728668245707,
			"-0.013": 0.430706632343,
			"-0.012": 0.877564517802,
			"-0.011": 0.785336946554,
			"-0.01": 0.584253128155,
			"-0.009": 0.298662994011,
			"-0.008": 1.74615427421,
			"-0.007": 9.35765843137,
			"-0.006": 12.5682217713,
			"-0.005": 14.4219701216,
			"-0.004": 21.5770926177,
			"-0.003": 27.2707104494,
			"-0.002": 27.3184436522,
			"-0.001": 23.6334776948,
			"0.0": 21.2450571771,
			"0.001": 18.9794216252,
			"0.002": 13.9004136946,
			"0.003": 7.01611313093,
			"0.004": 6.53741135382,
			"0.005": 5.78619473709,
			"0.006": 5.92039516856,
			"0.007": 5.19412777567,
			"0.008": 4.23184135171,
			"0.009": 5.21198939859,
			"0.01": 4.49093405007,
			"0.011": 6.83295137662,
			"0.012": 3.90529634781,
			"0.013": 4.38366835786,
			"0.014": 3.92052883017,
			"0.015": 0.936662960768,
			"0.016": 0.588380247505,
			"0.017": 0.0968768236816,
			"0.018": 0.0,
			"0.019": 0.0,
			"0.02": 0.0,
			"0.021": 0.0,
			"0.022": 0.0,
			"0.023": 0.0,
			"0.024": 0.0,
			"0.025": 0.0
		}
	}
}
