{
	 "smiles": "CC1=NC2=C(NC(=O)C1=NNC1=CC=C(Cl)C=C1)C=CC=C2", 
	 "Tm": 448.15, 
	 "num_atms": 35, 
	 "gaussian": { 
		 "optdone": 1, 
		 "sigma_profile": "yes", 
		 "theory": "DFT", 
		 "functional": "B3LYP", 
		 "basiset": "6-31G**", 
		 "properties": { 
			 "R2extent": 8812.8658, 
			 "electric_dipole_moment_norm": 1.48565082708, 
			 "electric_quadrupole_moment_norm": 20.7845633642, 
			 "total_energy": -1371.91348662, 
			 "HOMO_LUMO_gap": 0.15253, 
			 "cosmo_polarized_energy": -19.0, 
			 "cosmo_cavitation_energy": 40.94, 
			 "cosmo_dispersion_energy": -28.14, 
			 "cosmo_repulsion_energy": 2.15, 
			 "cosmo_total_nonelectrostatic_energy": 14.95, 
			 "SMD_solvation_energy": 5.28 
		},
		"coords": [
			{
				"x": -2.1053485326,
				"y": -0.4677442771,
				"z": 1.5498214383,
				"element": "C" 
			},
			{
				"x": -1.0702431295,
				"y": 0.2073953708,
				"z": 0.6821889681,
				"element": "C" 
			},
			{
				"x": -1.0885094242,
				"y": 1.4887486824,
				"z": 0.5967840629,
				"element": "N" 
			},
			{
				"x": -0.2545718277,
				"y": 2.2193113225,
				"z": -0.2538236343,
				"element": "C" 
			},
			{
				"x": 0.0969202303,
				"y": 1.8354766098,
				"z": -1.571773285,
				"element": "C" 
			},
			{
				"x": -0.3406483736,
				"y": 0.6269830134,
				"z": -2.1472095664,
				"element": "N" 
			},
			{
				"x": -0.3209656513,
				"y": -0.650532495,
				"z": -1.6051978065,
				"element": "C" 
			},
			{
				"x": -0.4430279009,
				"y": -1.6351456072,
				"z": -2.3110394584,
				"element": "O" 
			},
			{
				"x": -0.1750043984,
				"y": -0.7023734835,
				"z": -0.1035032518,
				"element": "C" 
			},
			{
				"x": 0.5703601942,
				"y": -1.6742641842,
				"z": 0.3068370386,
				"element": "N" 
			},
			{
				"x": 0.8014335285,
				"y": -1.9303210483,
				"z": 1.6153254181,
				"element": "N" 
			},
			{
				"x": 1.0162917377,
				"y": -1.0037925868,
				"z": 2.678548474,
				"element": "C" 
			},
			{
				"x": 1.4389204345,
				"y": 0.3146175281,
				"z": 2.4695926208,
				"element": "C" 
			},
			{
				"x": 1.6984070335,
				"y": 1.1460881926,
				"z": 3.5575836256,
				"element": "C" 
			},
			{
				"x": 1.5531631757,
				"y": 0.6556178876,
				"z": 4.8545090027,
				"element": "C" 
			},
			{
				"x": 1.8829294809,
				"y": 1.7064968065,
				"z": 6.223113925,
				"element": "Cl" 
			},
			{
				"x": 1.1489383827,
				"y": -0.6604604299,
				"z": 5.0779690768,
				"element": "C" 
			},
			{
				"x": 0.8740819294,
				"y": -1.4827389338,
				"z": 3.9882392108,
				"element": "C" 
			},
			{
				"x": 0.836844518,
				"y": 2.7211991155,
				"z": -2.3720111063,
				"element": "C" 
			},
			{
				"x": 1.2515073565,
				"y": 3.9550244031,
				"z": -1.8859102587,
				"element": "C" 
			},
			{
				"x": 0.9233119699,
				"y": 4.3349480876,
				"z": -0.5796651731,
				"element": "C" 
			},
			{
				"x": 0.1651086152,
				"y": 3.4814327855,
				"z": 0.2096831803,
				"element": "C" 
			},
			{
				"x": -2.6195256208,
				"y": 0.2848835691,
				"z": 2.1493429377,
				"element": "H" 
			},
			{
				"x": -2.8385025191,
				"y": -0.978951818,
				"z": 0.9135073472,
				"element": "H" 
			},
			{
				"x": -1.663995595,
				"y": -1.2261627117,
				"z": 2.2010630445,
				"element": "H" 
			},
			{
				"x": -0.3652583157,
				"y": 0.5978683198,
				"z": -3.1599788001,
				"element": "H" 
			},
			{
				"x": 1.3695177007,
				"y": -2.7640522437,
				"z": 1.6936984387,
				"element": "H" 
			},
			{
				"x": 1.5823880772,
				"y": 0.6946455377,
				"z": 1.4654246253,
				"element": "H" 
			},
			{
				"x": 2.025498663,
				"y": 2.1669998134,
				"z": 3.3951501288,
				"element": "H" 
			},
			{
				"x": 1.0382369536,
				"y": -1.0328198809,
				"z": 6.0902463863,
				"element": "H" 
			},
			{
				"x": 0.5423312921,
				"y": -2.5042851516,
				"z": 4.1504999017,
				"element": "H" 
			},
			{
				"x": 1.0934816128,
				"y": 2.4193883784,
				"z": -3.3843859148,
				"element": "H" 
			},
			{
				"x": 1.8273248858,
				"y": 4.6180979201,
				"z": -2.5242170865,
				"element": "H" 
			},
			{
				"x": 1.2393126968,
				"y": 5.2982124673,
				"z": -0.1916018172,
				"element": "H" 
			},
			{
				"x": -0.1434091801,
				"y": 3.7661090402,
				"z": 1.2104883069,
				"element": "H" 
			}
		],
		 "valence_orbital": [ 
			{
				"type": "occ",
				"energy": -0.26948,
				"method": "rhf"
			},
			{
				"type": "occ",
				"energy": -0.2644,
				"method": "rhf"
			},
			{
				"type": "occ",
				"energy": -0.23989,
				"method": "rhf"
			},
			{
				"type": "occ",
				"energy": -0.22776,
				"method": "rhf"
			},
			{
				"type": "occ",
				"energy": -0.21636,
				"method": "rhf"
			},
			{
				"type": "unocc",
				"energy": -0.06383,
				"method": "rhf"
			},
			{
				"type": "unocc",
				"energy": -0.03588,
				"method": "rhf"
			},
			{
				"type": "unocc",
				"energy": -0.02307,
				"method": "rhf"
			},
			{
				"type": "unocc",
				"energy": -0.01418,
				"method": "rhf"
			},
			{
				"type": "unocc",
				"energy": -0.01107,
				"method": "rhf"
			}
		],
		"cosmo_sigma_profile": { 
			"-0.025": 0.0,
			"-0.024": 0.0,
			"-0.023": 0.0,
			"-0.022": 0.0,
			"-0.021": 0.0,
			"-0.02": 0.0,
			"-0.019": 0.0,
			"-0.018": 0.0,
			"-0.017": 0.0,
			"-0.016": 0.108307046303,
			"-0.015": 1.69358382686,
			"-0.014": 2.1329694728,
			"-0.013": 2.44245963011,
			"-0.012": 2.23453324977,
			"-0.011": 2.52350787821,
			"-0.01": 1.96904578647,
			"-0.009": 2.36271048464,
			"-0.008": 4.16931526676,
			"-0.007": 8.83939181498,
			"-0.006": 16.7081068755,
			"-0.005": 20.2818293535,
			"-0.004": 20.5197772018,
			"-0.003": 20.7398490758,
			"-0.002": 22.6119790696,
			"-0.001": 26.4781525118,
			"0.0": 22.3773253701,
			"0.001": 22.0305306893,
			"0.002": 28.1754690461,
			"0.003": 28.4834902191,
			"0.004": 22.9302654437,
			"0.005": 16.3408668059,
			"0.006": 4.1389819591,
			"0.007": 3.27117055015,
			"0.008": 2.40979216569,
			"0.009": 1.97414377547,
			"0.01": 3.07616063091,
			"0.011": 4.04466515216,
			"0.012": 5.70383581275,
			"0.013": 5.30884587029,
			"0.014": 2.62422276171,
			"0.015": 1.43807633601,
			"0.016": 0.0487431098034,
			"0.017": 0.0,
			"0.018": 0.0,
			"0.019": 0.0,
			"0.02": 0.0,
			"0.021": 0.0,
			"0.022": 0.0,
			"0.023": 0.0,
			"0.024": 0.0,
			"0.025": 0.0
		}
	}
}
