{
	 "smiles": "CC(=O)C1=CSC2=C1C=CC=C2", 
	 "Tm": 337.15, 
	 "num_atms": 20, 
	 "gaussian": { 
		 "optdone": 1, 
		 "sigma_profile": "yes", 
		 "theory": "DFT", 
		 "functional": "B3LYP", 
		 "basiset": "6-31G**", 
		 "properties": { 
			 "R2extent": 2788.5669, 
			 "electric_dipole_moment_norm": 2.98972882215, 
			 "electric_quadrupole_moment_norm": 8.808252854, 
			 "total_energy": -859.297967904, 
			 "HOMO_LUMO_gap": 0.17185, 
			 "cosmo_polarized_energy": -8.35, 
			 "cosmo_cavitation_energy": 25.25, 
			 "cosmo_dispersion_energy": -19.27, 
			 "cosmo_repulsion_energy": 1.45, 
			 "cosmo_total_nonelectrostatic_energy": 7.43, 
			 "SMD_solvation_energy": 4.64 
		},
		"coords": [
			{
				"x": -3.3715428012,
				"y": -1.5144938401,
				"z": 0.9279489872,
				"element": "C" 
			},
			{
				"x": -2.5670547683,
				"y": -0.3838091921,
				"z": 1.5403454895,
				"element": "C" 
			},
			{
				"x": -2.7388157752,
				"y": -0.0773658668,
				"z": 2.7124839733,
				"element": "O" 
			},
			{
				"x": -1.5643973126,
				"y": 0.3577681005,
				"z": 0.7152079488,
				"element": "C" 
			},
			{
				"x": -0.8677036234,
				"y": 1.369793031,
				"z": 1.3217421322,
				"element": "C" 
			},
			{
				"x": 0.2664994243,
				"y": 2.1704945999,
				"z": 0.2966786284,
				"element": "S" 
			},
			{
				"x": -0.1706846979,
				"y": 1.1287404408,
				"z": -1.0502637132,
				"element": "C" 
			},
			{
				"x": -1.174368977,
				"y": 0.1935897855,
				"z": -0.6814072826,
				"element": "C" 
			},
			{
				"x": -1.6161015304,
				"y": -0.7048233266,
				"z": -1.6753158798,
				"element": "C" 
			},
			{
				"x": -1.0749009035,
				"y": -0.6549505237,
				"z": -2.9535775812,
				"element": "C" 
			},
			{
				"x": -0.0833825764,
				"y": 0.2816416897,
				"z": -3.2879233654,
				"element": "C" 
			},
			{
				"x": 0.3763939691,
				"y": 1.1821680933,
				"z": -2.3353881101,
				"element": "C" 
			},
			{
				"x": -4.0379376936,
				"y": -1.9157150055,
				"z": 1.6923131917,
				"element": "H" 
			},
			{
				"x": -3.9645992064,
				"y": -1.1588990888,
				"z": 0.0783069008,
				"element": "H" 
			},
			{
				"x": -2.714176174,
				"y": -2.3114603152,
				"z": 0.5635585814,
				"element": "H" 
			},
			{
				"x": -0.9923330414,
				"y": 1.6686659835,
				"z": 2.3534355265,
				"element": "H" 
			},
			{
				"x": -2.3784585836,
				"y": -1.440687578,
				"z": -1.4556131764,
				"element": "H" 
			},
			{
				"x": -1.4264585846,
				"y": -1.3539591711,
				"z": -3.7066226531,
				"element": "H" 
			},
			{
				"x": 0.3259539074,
				"y": 0.3031997334,
				"z": -4.293258824,
				"element": "H" 
			},
			{
				"x": 1.1425689487,
				"y": 1.9111024503,
				"z": -2.5812507743,
				"element": "H" 
			}
		],
		 "valence_orbital": [ 
			{
				"type": "occ",
				"energy": -0.33498,
				"method": "rhf"
			},
			{
				"type": "occ",
				"energy": -0.29016,
				"method": "rhf"
			},
			{
				"type": "occ",
				"energy": -0.24918,
				"method": "rhf"
			},
			{
				"type": "occ",
				"energy": -0.24685,
				"method": "rhf"
			},
			{
				"type": "occ",
				"energy": -0.22783,
				"method": "rhf"
			},
			{
				"type": "unocc",
				"energy": -0.05598,
				"method": "rhf"
			},
			{
				"type": "unocc",
				"energy": -0.01498,
				"method": "rhf"
			},
			{
				"type": "unocc",
				"energy": -0.01108,
				"method": "rhf"
			},
			{
				"type": "unocc",
				"energy": 0.01404,
				"method": "rhf"
			},
			{
				"type": "unocc",
				"energy": 0.07677,
				"method": "rhf"
			}
		],
		"cosmo_sigma_profile": { 
			"-0.025": 0.0,
			"-0.024": 0.0,
			"-0.023": 0.0,
			"-0.022": 0.0,
			"-0.021": 0.0,
			"-0.02": 0.0,
			"-0.019": 0.0,
			"-0.018": 0.0,
			"-0.017": 0.0,
			"-0.016": 0.0,
			"-0.015": 0.0,
			"-0.014": 0.0,
			"-0.013": 0.0,
			"-0.012": 0.0,
			"-0.011": 0.0,
			"-0.01": 0.00610636535184,
			"-0.009": 0.743377447061,
			"-0.008": 2.26758295663,
			"-0.007": 5.5611383224,
			"-0.006": 14.8676796502,
			"-0.005": 16.8693521626,
			"-0.004": 14.8499729964,
			"-0.003": 14.2041973735,
			"-0.002": 13.2313090301,
			"-0.001": 15.6453223365,
			"0.0": 13.1688923456,
			"0.001": 16.6202148998,
			"0.002": 20.9121209903,
			"0.003": 16.5388654187,
			"0.004": 13.6933251535,
			"0.005": 8.60778372214,
			"0.006": 1.74273074327,
			"0.007": 1.35332123705,
			"0.008": 1.54802972187,
			"0.009": 1.96250945856,
			"0.01": 1.64559507886,
			"0.011": 2.70706737876,
			"0.012": 4.09992342856,
			"0.013": 1.85018933666,
			"0.014": 0.317049342615,
			"0.015": 0.0,
			"0.016": 0.0,
			"0.017": 0.0,
			"0.018": 0.0,
			"0.019": 0.0,
			"0.02": 0.0,
			"0.021": 0.0,
			"0.022": 0.0,
			"0.023": 0.0,
			"0.024": 0.0,
			"0.025": 0.0
		}
	}
}
