{
	 "smiles": "CC(NC(=O)CC1CCCC1)C(O)=O", 
	 "Tm": 413.15, 
	 "num_atms": 31, 
	 "gaussian": { 
		 "optdone": 1, 
		 "sigma_profile": "yes", 
		 "theory": "DFT", 
		 "functional": "B3LYP", 
		 "basiset": "6-31G**", 
		 "properties": { 
			 "R2extent": 4059.4639, 
			 "electric_dipole_moment_norm": 5.98667235866, 
			 "electric_quadrupole_moment_norm": 19.6937755837, 
			 "total_energy": -671.781443477, 
			 "HOMO_LUMO_gap": 0.24423, 
			 "cosmo_polarized_energy": -16.29, 
			 "cosmo_cavitation_energy": 32.18, 
			 "cosmo_dispersion_energy": -22.92, 
			 "cosmo_repulsion_energy": 1.83, 
			 "cosmo_total_nonelectrostatic_energy": 11.09, 
			 "SMD_solvation_energy": 5.92 
		},
		"coords": [
			{
				"x": -2.5209821271,
				"y": -1.9059579351,
				"z": 1.6717674281,
				"element": "C" 
			},
			{
				"x": -1.5967005583,
				"y": -1.7669201328,
				"z": 0.4686544002,
				"element": "C" 
			},
			{
				"x": -0.6581116855,
				"y": -0.6540518574,
				"z": 0.6806939111,
				"element": "N" 
			},
			{
				"x": -0.0013922491,
				"y": -0.0326712466,
				"z": -0.330361668,
				"element": "C" 
			},
			{
				"x": -0.0655996106,
				"y": -0.4616777569,
				"z": -1.4943961678,
				"element": "O" 
			},
			{
				"x": 0.7925852986,
				"y": 1.2093583268,
				"z": 0.0311071208,
				"element": "C" 
			},
			{
				"x": 0.1420644031,
				"y": 2.5335753525,
				"z": -0.4340693728,
				"element": "C" 
			},
			{
				"x": -1.2957420501,
				"y": 2.7887664777,
				"z": 0.0563080756,
				"element": "C" 
			},
			{
				"x": -1.7378018236,
				"y": 3.9929298799,
				"z": -0.790113843,
				"element": "C" 
			},
			{
				"x": -1.1316724589,
				"y": 3.7235849099,
				"z": -2.1923735193,
				"element": "C" 
			},
			{
				"x": 0.0467544968,
				"y": 2.7304393514,
				"z": -1.9679138786,
				"element": "C" 
			},
			{
				"x": -0.8463207998,
				"y": -3.0919653111,
				"z": 0.1746122973,
				"element": "C" 
			},
			{
				"x": -0.0877620261,
				"y": -3.0786509505,
				"z": -0.9265314783,
				"element": "O" 
			},
			{
				"x": -0.9548725698,
				"y": -4.0703003715,
				"z": 0.8772528636,
				"element": "O" 
			},
			{
				"x": -3.0700702187,
				"y": -0.9756372864,
				"z": 1.8451070766,
				"element": "H" 
			},
			{
				"x": -1.9528338357,
				"y": -2.1685920297,
				"z": 2.5689471782,
				"element": "H" 
			},
			{
				"x": -3.235939846,
				"y": -2.7119046209,
				"z": 1.4996573648,
				"element": "H" 
			},
			{
				"x": -2.1745834605,
				"y": -1.5204168029,
				"z": -0.4315847613,
				"element": "H" 
			},
			{
				"x": -0.5411497866,
				"y": -0.316858834,
				"z": 1.625174642,
				"element": "H" 
			},
			{
				"x": 0.953805933,
				"y": 1.2474092868,
				"z": 1.1152378478,
				"element": "H" 
			},
			{
				"x": 1.7756278684,
				"y": 1.1058824272,
				"z": -0.440176353,
				"element": "H" 
			},
			{
				"x": 0.7728858331,
				"y": 3.3349303,
				"z": -0.0243229493,
				"element": "H" 
			},
			{
				"x": -1.3573705218,
				"y": 2.9712345946,
				"z": 1.1354529002,
				"element": "H" 
			},
			{
				"x": -1.9305259118,
				"y": 1.9209525235,
				"z": -0.168082234,
				"element": "H" 
			},
			{
				"x": -2.8239507649,
				"y": 4.1239962337,
				"z": -0.8140641495,
				"element": "H" 
			},
			{
				"x": -1.3139730534,
				"y": 4.9107187222,
				"z": -0.3643678967,
				"element": "H" 
			},
			{
				"x": -1.8807293455,
				"y": 3.277265907,
				"z": -2.8543735004,
				"element": "H" 
			},
			{
				"x": -0.8055087387,
				"y": 4.6516341294,
				"z": -2.6714128409,
				"element": "H" 
			},
			{
				"x": -0.1569233909,
				"y": 1.7716848213,
				"z": -2.4510546005,
				"element": "H" 
			},
			{
				"x": 0.9917747618,
				"y": 3.1001445021,
				"z": -2.3789026096,
				"element": "H" 
			},
			{
				"x": -0.1076817615,
				"y": -2.1804026101,
				"z": -1.3445712832,
				"element": "H" 
			}
		],
		 "valence_orbital": [ 
			{
				"type": "occ",
				"energy": -0.32112,
				"method": "rhf"
			},
			{
				"type": "occ",
				"energy": -0.30061,
				"method": "rhf"
			},
			{
				"type": "occ",
				"energy": -0.29607,
				"method": "rhf"
			},
			{
				"type": "occ",
				"energy": -0.27464,
				"method": "rhf"
			},
			{
				"type": "occ",
				"energy": -0.25283,
				"method": "rhf"
			},
			{
				"type": "unocc",
				"energy": -0.0086,
				"method": "rhf"
			},
			{
				"type": "unocc",
				"energy": 0.01683,
				"method": "rhf"
			},
			{
				"type": "unocc",
				"energy": 0.05556,
				"method": "rhf"
			},
			{
				"type": "unocc",
				"energy": 0.07919,
				"method": "rhf"
			},
			{
				"type": "unocc",
				"energy": 0.08456,
				"method": "rhf"
			}
		],
		"cosmo_sigma_profile": { 
			"-0.025": 0.0,
			"-0.024": 0.0,
			"-0.023": 0.0,
			"-0.022": 0.0,
			"-0.021": 0.0,
			"-0.02": 0.0,
			"-0.019": 0.0,
			"-0.018": 0.0,
			"-0.017": 0.0,
			"-0.016": 0.0,
			"-0.015": 0.654833758219,
			"-0.014": 1.13957592681,
			"-0.013": 1.08062990556,
			"-0.012": 1.61717294387,
			"-0.011": 1.6778897774,
			"-0.01": 1.35428938989,
			"-0.009": 1.47685303113,
			"-0.008": 3.01220878291,
			"-0.007": 4.12431397382,
			"-0.006": 5.40887436335,
			"-0.005": 9.9411779628,
			"-0.004": 14.8269609791,
			"-0.003": 22.4017014498,
			"-0.002": 36.209181219,
			"-0.001": 34.9424144742,
			"0.0": 27.9261413615,
			"0.001": 20.217609098,
			"0.002": 11.9050783939,
			"0.003": 3.80696531629,
			"0.004": 3.70500946145,
			"0.005": 2.58692569735,
			"0.006": 4.42137028772,
			"0.007": 4.09154433354,
			"0.008": 3.66688349621,
			"0.009": 4.52243241323,
			"0.01": 5.48869208325,
			"0.011": 7.23391081983,
			"0.012": 7.24747482981,
			"0.013": 3.10669411026,
			"0.014": 0.2943705618,
			"0.015": 0.0,
			"0.016": 0.0,
			"0.017": 0.0,
			"0.018": 0.0,
			"0.019": 0.0,
			"0.02": 0.0,
			"0.021": 0.0,
			"0.022": 0.0,
			"0.023": 0.0,
			"0.024": 0.0,
			"0.025": 0.0
		}
	}
}
