{
	 "smiles": "ClC1=CC2=C(OC3=C(O2)C(Cl)=C(Cl)C(Cl)=C3Cl)C=C1", 
	 "Tm": 468.15, 
	 "num_atms": 22, 
	 "gaussian": { 
		 "optdone": 1, 
		 "sigma_profile": "yes", 
		 "theory": "DFT", 
		 "functional": "B3LYP", 
		 "basiset": "6-31G**", 
		 "properties": { 
			 "R2extent": 10733.3856, 
			 "electric_dipole_moment_norm": 1.79227481431, 
			 "electric_quadrupole_moment_norm": 8.36045818541, 
			 "total_energy": -2910.45199257, 
			 "HOMO_LUMO_gap": 0.17303, 
			 "cosmo_polarized_energy": -5.68, 
			 "cosmo_cavitation_energy": 35.99, 
			 "cosmo_dispersion_energy": -27.34, 
			 "cosmo_repulsion_energy": 2.08, 
			 "cosmo_total_nonelectrostatic_energy": 10.72, 
			 "SMD_solvation_energy": 5.29 
		},
		"coords": [
			{
				"x": -4.1539022768,
				"y": 1.4645754261,
				"z": 1.4796227048,
				"element": "Cl" 
			},
			{
				"x": -2.5158487251,
				"y": 0.8729754369,
				"z": 1.2767930576,
				"element": "C" 
			},
			{
				"x": -2.1420392504,
				"y": 0.3253524158,
				"z": 0.0479976968,
				"element": "C" 
			},
			{
				"x": -0.8428966265,
				"y": -0.1412180978,
				"z": -0.1052317359,
				"element": "C" 
			},
			{
				"x": 0.070290758,
				"y": -0.0643905449,
				"z": 0.9472704972,
				"element": "C" 
			},
			{
				"x": 1.3672157745,
				"y": -0.5239179637,
				"z": 0.8125751289,
				"element": "O" 
			},
			{
				"x": 1.7103193148,
				"y": -1.0566022132,
				"z": -0.4009272129,
				"element": "C" 
			},
			{
				"x": 0.7950795544,
				"y": -1.1335027145,
				"z": -1.4556096953,
				"element": "C" 
			},
			{
				"x": -0.4913882908,
				"y": -0.6794722107,
				"z": -1.3276164627,
				"element": "O" 
			},
			{
				"x": 1.1795211509,
				"y": -1.6831814177,
				"z": -2.68000522,
				"element": "C" 
			},
			{
				"x": 0.0052203363,
				"y": -1.7544873656,
				"z": -3.954822502,
				"element": "Cl" 
			},
			{
				"x": 2.4900442032,
				"y": -2.1617604059,
				"z": -2.8564690033,
				"element": "C" 
			},
			{
				"x": 2.9596211781,
				"y": -2.8434237268,
				"z": -4.3810778616,
				"element": "Cl" 
			},
			{
				"x": 3.4089310727,
				"y": -2.0846996759,
				"z": -1.7981483083,
				"element": "C" 
			},
			{
				"x": 5.0300009063,
				"y": -2.6697841784,
				"z": -1.9969179291,
				"element": "Cl" 
			},
			{
				"x": 3.0134152792,
				"y": -1.529581063,
				"z": -0.5682001902,
				"element": "C" 
			},
			{
				"x": 4.1094176968,
				"y": -1.4107458637,
				"z": 0.7713797754,
				"element": "Cl" 
			},
			{
				"x": -0.3131459116,
				"y": 0.4823251325,
				"z": 2.1645882548,
				"element": "C" 
			},
			{
				"x": -1.6152487895,
				"y": 0.9566095789,
				"z": 2.3371634967,
				"element": "C" 
			},
			{
				"x": -2.8356447773,
				"y": 0.256542613,
				"z": -0.7812594963,
				"element": "H" 
			},
			{
				"x": 0.4139762462,
				"y": 0.5313565718,
				"z": 2.9678083156,
				"element": "H" 
			},
			{
				"x": -1.9230388231,
				"y": 1.3847302667,
				"z": 3.2835866896,
				"element": "H" 
			}
		],
		 "valence_orbital": [ 
			{
				"type": "occ",
				"energy": -0.31108,
				"method": "rhf"
			},
			{
				"type": "occ",
				"energy": -0.28356,
				"method": "rhf"
			},
			{
				"type": "occ",
				"energy": -0.27281,
				"method": "rhf"
			},
			{
				"type": "occ",
				"energy": -0.25458,
				"method": "rhf"
			},
			{
				"type": "occ",
				"energy": -0.22576,
				"method": "rhf"
			},
			{
				"type": "unocc",
				"energy": -0.05273,
				"method": "rhf"
			},
			{
				"type": "unocc",
				"energy": -0.04651,
				"method": "rhf"
			},
			{
				"type": "unocc",
				"energy": -0.04274,
				"method": "rhf"
			},
			{
				"type": "unocc",
				"energy": -0.03388,
				"method": "rhf"
			},
			{
				"type": "unocc",
				"energy": -0.00797,
				"method": "rhf"
			}
		],
		"cosmo_sigma_profile": { 
			"-0.025": 0.0,
			"-0.024": 0.0,
			"-0.023": 0.0,
			"-0.022": 0.0,
			"-0.021": 0.0,
			"-0.02": 0.0,
			"-0.019": 0.0,
			"-0.018": 0.0,
			"-0.017": 0.0,
			"-0.016": 0.0,
			"-0.015": 0.0,
			"-0.014": 0.0,
			"-0.013": 0.0,
			"-0.012": 0.0,
			"-0.011": 0.0,
			"-0.01": 0.0,
			"-0.009": 1.12619072099,
			"-0.008": 5.31254618236,
			"-0.007": 6.46015858407,
			"-0.006": 6.99260781517,
			"-0.005": 7.16832368986,
			"-0.004": 14.0597483312,
			"-0.003": 20.8633218528,
			"-0.002": 32.2532284785,
			"-0.001": 29.8729586526,
			"0.0": 30.1941113084,
			"0.001": 35.9347859606,
			"0.002": 34.6455343547,
			"0.003": 42.1768170141,
			"0.004": 24.7727360708,
			"0.005": 7.05157018824,
			"0.006": 3.35322947877,
			"0.007": 0.825968637847,
			"0.008": 0.0,
			"0.009": 0.0,
			"0.01": 0.0,
			"0.011": 0.0,
			"0.012": 0.0,
			"0.013": 0.0,
			"0.014": 0.0,
			"0.015": 0.0,
			"0.016": 0.0,
			"0.017": 0.0,
			"0.018": 0.0,
			"0.019": 0.0,
			"0.02": 0.0,
			"0.021": 0.0,
			"0.022": 0.0,
			"0.023": 0.0,
			"0.024": 0.0,
			"0.025": 0.0
		}
	}
}
