{
	 "smiles": "OC1=CC=C(NC2=C(C=C(C=C2)[N+]([O-])=O)[N+]([O-])=O)C=C1", 
	 "Tm": 467.15, 
	 "num_atms": 29, 
	 "gaussian": { 
		 "optdone": 1, 
		 "sigma_profile": "yes", 
		 "theory": "DFT", 
		 "functional": "B3LYP", 
		 "basiset": "6-31G**", 
		 "properties": { 
			 "R2extent": 7122.4073, 
			 "electric_dipole_moment_norm": 6.53755501774, 
			 "electric_quadrupole_moment_norm": 32.1219987099, 
			 "total_energy": -1002.85932873, 
			 "HOMO_LUMO_gap": 0.1246, 
			 "cosmo_polarized_energy": -23.79, 
			 "cosmo_cavitation_energy": 35.44, 
			 "cosmo_dispersion_energy": -25.05, 
			 "cosmo_repulsion_energy": 1.9, 
			 "cosmo_total_nonelectrostatic_energy": 12.29, 
			 "SMD_solvation_energy": 10.68 
		},
		"coords": [
			{
				"x": 2.5466736428,
				"y": -2.9006604256,
				"z": -3.7885147302,
				"element": "O" 
			},
			{
				"x": 1.9799488598,
				"y": -2.0359591504,
				"z": -2.8992763542,
				"element": "C" 
			},
			{
				"x": 1.8173865984,
				"y": -2.3365108424,
				"z": -1.542697342,
				"element": "C" 
			},
			{
				"x": 1.2399902264,
				"y": -1.4063122253,
				"z": -0.6816980326,
				"element": "C" 
			},
			{
				"x": 0.7923195321,
				"y": -0.1753406154,
				"z": -1.1717228471,
				"element": "C" 
			},
			{
				"x": 0.2498625782,
				"y": 0.8247701372,
				"z": -0.3197738849,
				"element": "N" 
			},
			{
				"x": -0.4693395454,
				"y": 0.6909351107,
				"z": 0.8383851646,
				"element": "C" 
			},
			{
				"x": -1.3358374887,
				"y": -0.3868623313,
				"z": 1.1737837659,
				"element": "C" 
			},
			{
				"x": -1.9369090573,
				"y": -0.4794241801,
				"z": 2.426089677,
				"element": "C" 
			},
			{
				"x": -1.7523845905,
				"y": 0.5365965451,
				"z": 3.3501543682,
				"element": "C" 
			},
			{
				"x": -0.9678984512,
				"y": 1.6549367658,
				"z": 3.0391401244,
				"element": "C" 
			},
			{
				"x": -0.3376564458,
				"y": 1.7154322999,
				"z": 1.814700904,
				"element": "C" 
			},
			{
				"x": -2.3976982029,
				"y": 0.4463997851,
				"z": 4.6553058638,
				"element": "N" 
			},
			{
				"x": -2.223466726,
				"y": 1.3816132808,
				"z": 5.4399466921,
				"element": "O" 
			},
			{
				"x": -3.0737604902,
				"y": -0.5551141316,
				"z": 4.8938831971,
				"element": "O" 
			},
			{
				"x": -1.7481261178,
				"y": -1.4003699697,
				"z": 0.1984586752,
				"element": "N" 
			},
			{
				"x": -1.8447427604,
				"y": -1.0487761727,
				"z": -0.9757645033,
				"element": "O" 
			},
			{
				"x": -2.0103840992,
				"y": -2.5264635643,
				"z": 0.6233723626,
				"element": "O" 
			},
			{
				"x": 0.9575913922,
				"y": 0.1207762147,
				"z": -2.530875648,
				"element": "C" 
			},
			{
				"x": 1.5544436246,
				"y": -0.7948984046,
				"z": -3.3881662534,
				"element": "C" 
			},
			{
				"x": 2.7673597197,
				"y": -3.726199461,
				"z": -3.3380038386,
				"element": "H" 
			},
			{
				"x": 2.15335214,
				"y": -3.2939448925,
				"z": -1.1514187079,
				"element": "H" 
			},
			{
				"x": 1.1450434512,
				"y": -1.6439659414,
				"z": 0.3732525327,
				"element": "H" 
			},
			{
				"x": 0.6574376378,
				"y": 1.7414677472,
				"z": -0.4438008301,
				"element": "H" 
			},
			{
				"x": -2.5685765969,
				"y": -1.3269262704,
				"z": 2.6567621032,
				"element": "H" 
			},
			{
				"x": -0.8494039714,
				"y": 2.4406601196,
				"z": 3.7747871932,
				"element": "H" 
			},
			{
				"x": 0.3107735383,
				"y": 2.5575203277,
				"z": 1.5886907702,
				"element": "H" 
			},
			{
				"x": 0.601327859,
				"y": 1.0711022725,
				"z": -2.9179227572,
				"element": "H" 
			},
			{
				"x": 1.6835737431,
				"y": -0.5732820277,
				"z": -4.4419776649,
				"element": "H" 
			}
		],
		 "valence_orbital": [ 
			{
				"type": "occ",
				"energy": -0.2907,
				"method": "rhf"
			},
			{
				"type": "occ",
				"energy": -0.28593,
				"method": "rhf"
			},
			{
				"type": "occ",
				"energy": -0.27146,
				"method": "rhf"
			},
			{
				"type": "occ",
				"energy": -0.26558,
				"method": "rhf"
			},
			{
				"type": "occ",
				"energy": -0.21788,
				"method": "rhf"
			},
			{
				"type": "unocc",
				"energy": -0.09328,
				"method": "rhf"
			},
			{
				"type": "unocc",
				"energy": -0.08727,
				"method": "rhf"
			},
			{
				"type": "unocc",
				"energy": -0.03066,
				"method": "rhf"
			},
			{
				"type": "unocc",
				"energy": -0.02211,
				"method": "rhf"
			},
			{
				"type": "unocc",
				"energy": -0.00881,
				"method": "rhf"
			}
		],
		"cosmo_sigma_profile": { 
			"-0.025": 0.0,
			"-0.024": 0.0,
			"-0.023": 0.0,
			"-0.022": 0.0,
			"-0.021": 0.0,
			"-0.02": 0.0,
			"-0.019": 0.00290456777721,
			"-0.018": 0.650780749762,
			"-0.017": 1.45839769374,
			"-0.016": 1.73877287794,
			"-0.015": 2.81538358698,
			"-0.014": 3.06446223969,
			"-0.013": 1.86752080811,
			"-0.012": 1.74368898696,
			"-0.011": 2.84134499705,
			"-0.01": 3.09284850332,
			"-0.009": 3.77636656008,
			"-0.008": 5.9300610093,
			"-0.007": 11.2682208751,
			"-0.006": 13.7294363948,
			"-0.005": 14.5467949783,
			"-0.004": 13.7887015451,
			"-0.003": 15.9806248442,
			"-0.002": 17.3817950451,
			"-0.001": 21.6726240611,
			"0.0": 14.9947379414,
			"0.001": 13.8102100511,
			"0.002": 11.325593003,
			"0.003": 13.9846901981,
			"0.004": 15.3518169594,
			"0.005": 9.87556458822,
			"0.006": 10.0429093198,
			"0.007": 16.465013397,
			"0.008": 19.5541379399,
			"0.009": 11.0539698593,
			"0.01": 7.40596568912,
			"0.011": 2.7427149583,
			"0.012": 0.222305885142,
			"0.013": 0.0,
			"0.014": 0.0,
			"0.015": 0.0,
			"0.016": 0.0,
			"0.017": 0.0,
			"0.018": 0.0,
			"0.019": 0.0,
			"0.02": 0.0,
			"0.021": 0.0,
			"0.022": 0.0,
			"0.023": 0.0,
			"0.024": 0.0,
			"0.025": 0.0
		}
	}
}
