{
	 "smiles": "CC1=NC(=CS1)C1=CC=C(C=C1)C#N", 
	 "Tm": 427.15, 
	 "num_atms": 22, 
	 "gaussian": { 
		 "optdone": 1, 
		 "sigma_profile": "yes", 
		 "theory": "DFT", 
		 "functional": "B3LYP", 
		 "basiset": "6-31G**", 
		 "properties": { 
			 "R2extent": 4775.061, 
			 "electric_dipole_moment_norm": 6.20606167066, 
			 "electric_quadrupole_moment_norm": 32.8585576736, 
			 "total_energy": -931.672292712, 
			 "HOMO_LUMO_gap": 0.16568, 
			 "cosmo_polarized_energy": -11.57, 
			 "cosmo_cavitation_energy": 29.42, 
			 "cosmo_dispersion_energy": -21.59, 
			 "cosmo_repulsion_energy": 1.64, 
			 "cosmo_total_nonelectrostatic_energy": 9.47, 
			 "SMD_solvation_energy": 5.17 
		},
		"coords": [
			{
				"x": 2.0211890014,
				"y": -2.5896430697,
				"z": 1.3685322512,
				"element": "C" 
			},
			{
				"x": 0.9259817869,
				"y": -1.5960821944,
				"z": 1.1297406459,
				"element": "C" 
			},
			{
				"x": 1.0737284462,
				"y": -0.4776748985,
				"z": 0.4885076195,
				"element": "N" 
			},
			{
				"x": -0.1044147947,
				"y": 0.249451839,
				"z": 0.4141868396,
				"element": "C" 
			},
			{
				"x": -1.1787592923,
				"y": -0.3492576886,
				"z": 1.0251170257,
				"element": "C" 
			},
			{
				"x": -0.7182298251,
				"y": -1.8646268058,
				"z": 1.7164981735,
				"element": "S" 
			},
			{
				"x": -0.0975765522,
				"y": 1.5467632193,
				"z": -0.2853153471,
				"element": "C" 
			},
			{
				"x": -1.2553938142,
				"y": 2.3375973791,
				"z": -0.3975117089,
				"element": "C" 
			},
			{
				"x": -1.2278052613,
				"y": 3.556559938,
				"z": -1.0605767326,
				"element": "C" 
			},
			{
				"x": -0.0299648207,
				"y": 4.0195853862,
				"z": -1.6334600023,
				"element": "C" 
			},
			{
				"x": 1.1325758608,
				"y": 3.2377235481,
				"z": -1.5272511455,
				"element": "C" 
			},
			{
				"x": 1.0949096759,
				"y": 2.0190729327,
				"z": -0.8616826548,
				"element": "C" 
			},
			{
				"x": 0.0022627368,
				"y": 5.2774066907,
				"z": -2.3186471571,
				"element": "C" 
			},
			{
				"x": 0.0277010692,
				"y": 6.2991922994,
				"z": -2.8751062804,
				"element": "N" 
			},
			{
				"x": 2.9409112179,
				"y": -2.2057808067,
				"z": 0.9237399816,
				"element": "H" 
			},
			{
				"x": 2.1879709749,
				"y": -2.7532539253,
				"z": 2.4382935574,
				"element": "H" 
			},
			{
				"x": 1.7884119543,
				"y": -3.5590970343,
				"z": 0.9156575452,
				"element": "H" 
			},
			{
				"x": -2.1957258231,
				"y": 0.0044145327,
				"z": 1.1082900198,
				"element": "H" 
			},
			{
				"x": -2.1912009047,
				"y": 2.0010519203,
				"z": 0.0367580702,
				"element": "H" 
			},
			{
				"x": -2.1274472377,
				"y": 4.1574650827,
				"z": -1.1404301325,
				"element": "H" 
			},
			{
				"x": 2.0583987887,
				"y": 3.5920900859,
				"z": -1.9681092476,
				"element": "H" 
			},
			{
				"x": 1.988276813,
				"y": 1.411941569,
				"z": -0.7766313209,
				"element": "H" 
			}
		],
		 "valence_orbital": [ 
			{
				"type": "occ",
				"energy": -0.29989,
				"method": "rhf"
			},
			{
				"type": "occ",
				"energy": -0.28588,
				"method": "rhf"
			},
			{
				"type": "occ",
				"energy": -0.28344,
				"method": "rhf"
			},
			{
				"type": "occ",
				"energy": -0.27236,
				"method": "rhf"
			},
			{
				"type": "occ",
				"energy": -0.23141,
				"method": "rhf"
			},
			{
				"type": "unocc",
				"energy": -0.06573,
				"method": "rhf"
			},
			{
				"type": "unocc",
				"energy": -0.03116,
				"method": "rhf"
			},
			{
				"type": "unocc",
				"energy": -0.01601,
				"method": "rhf"
			},
			{
				"type": "unocc",
				"energy": 0.00481,
				"method": "rhf"
			},
			{
				"type": "unocc",
				"energy": 0.03797,
				"method": "rhf"
			}
		],
		"cosmo_sigma_profile": { 
			"-0.025": 0.0,
			"-0.024": 0.0,
			"-0.023": 0.0,
			"-0.022": 0.0,
			"-0.021": 0.0,
			"-0.02": 0.0,
			"-0.019": 0.0,
			"-0.018": 0.0,
			"-0.017": 0.0,
			"-0.016": 0.0,
			"-0.015": 0.0,
			"-0.014": 0.0,
			"-0.013": 0.0,
			"-0.012": 0.0,
			"-0.011": 0.129641348252,
			"-0.01": 2.13204869854,
			"-0.009": 2.58053821835,
			"-0.008": 5.00701623486,
			"-0.007": 7.88149092254,
			"-0.006": 13.1211807915,
			"-0.005": 16.1618700261,
			"-0.004": 14.7074070053,
			"-0.003": 13.77713068,
			"-0.002": 17.3729086464,
			"-0.001": 19.0021887936,
			"0.0": 17.5693326376,
			"0.001": 22.3162980759,
			"0.002": 31.2488116234,
			"0.003": 18.0279967729,
			"0.004": 5.07265026125,
			"0.005": 4.04534867752,
			"0.006": 4.55413973617,
			"0.007": 3.97161697514,
			"0.008": 4.68308770477,
			"0.009": 4.36883361659,
			"0.01": 5.25990671521,
			"0.011": 2.75185027448,
			"0.012": 2.62520282603,
			"0.013": 1.79736423028,
			"0.014": 0.114841913282,
			"0.015": 0.0,
			"0.016": 0.0,
			"0.017": 0.0,
			"0.018": 0.0,
			"0.019": 0.0,
			"0.02": 0.0,
			"0.021": 0.0,
			"0.022": 0.0,
			"0.023": 0.0,
			"0.024": 0.0,
			"0.025": 0.0
		}
	}
}
