{
	 "smiles": "NC1=NN(CC2=CC=CC=C2)N=N1", 
	 "Tm": 457.15, 
	 "num_atms": 22, 
	 "gaussian": { 
		 "optdone": 1, 
		 "sigma_profile": "yes", 
		 "theory": "DFT", 
		 "functional": "B3LYP", 
		 "basiset": "6-31G**", 
		 "properties": { 
			 "R2extent": 3003.6071, 
			 "electric_dipole_moment_norm": 2.93589455192, 
			 "electric_quadrupole_moment_norm": 14.8833237316, 
			 "total_energy": -583.987323094, 
			 "HOMO_LUMO_gap": 0.20799, 
			 "cosmo_polarized_energy": -14.06, 
			 "cosmo_cavitation_energy": 27.08, 
			 "cosmo_dispersion_energy": -19.58, 
			 "cosmo_repulsion_energy": 1.57, 
			 "cosmo_total_nonelectrostatic_energy": 9.07, 
			 "SMD_solvation_energy": 1.72 
		},
		"coords": [
			{
				"x": 2.4270580208,
				"y": -2.9614599778,
				"z": -1.8104157915,
				"element": "N" 
			},
			{
				"x": 1.2783003118,
				"y": -2.2155227057,
				"z": -1.9418382574,
				"element": "C" 
			},
			{
				"x": 0.4794340843,
				"y": -1.884361774,
				"z": -0.9264215022,
				"element": "N" 
			},
			{
				"x": -0.5022160289,
				"y": -1.2456946195,
				"z": -1.5797118511,
				"element": "N" 
			},
			{
				"x": -1.6271674304,
				"y": -0.6054578105,
				"z": -0.90350544,
				"element": "C" 
			},
			{
				"x": -1.254042715,
				"y": 0.703928548,
				"z": -0.236363657,
				"element": "C" 
			},
			{
				"x": -1.341843125,
				"y": 0.8440789045,
				"z": 1.1513664048,
				"element": "C" 
			},
			{
				"x": -1.0152322494,
				"y": 2.0571517357,
				"z": 1.7618282543,
				"element": "C" 
			},
			{
				"x": -0.5924766499,
				"y": 3.1368178028,
				"z": 0.9864070455,
				"element": "C" 
			},
			{
				"x": -0.4980263447,
				"y": 3.0010725736,
				"z": -0.4015936752,
				"element": "C" 
			},
			{
				"x": -0.8290777384,
				"y": 1.7917935523,
				"z": -1.0103423675,
				"element": "C" 
			},
			{
				"x": -0.324652202,
				"y": -1.1738331751,
				"z": -2.8887942152,
				"element": "N" 
			},
			{
				"x": 0.8085114607,
				"y": -1.7897211684,
				"z": -3.1457391209,
				"element": "N" 
			},
			{
				"x": 3.0682303171,
				"y": -2.8525469268,
				"z": -2.5835687331,
				"element": "H" 
			},
			{
				"x": 2.8665915696,
				"y": -2.8996403166,
				"z": -0.9031951906,
				"element": "H" 
			},
			{
				"x": -2.0170126435,
				"y": -1.3182575737,
				"z": -0.1735136666,
				"element": "H" 
			},
			{
				"x": -2.3789192406,
				"y": -0.4549576234,
				"z": -1.6821722015,
				"element": "H" 
			},
			{
				"x": -1.6647830421,
				"y": 0.0014514107,
				"z": 1.7573995962,
				"element": "H" 
			},
			{
				"x": -1.0879229382,
				"y": 2.1552586535,
				"z": 2.8411039169,
				"element": "H" 
			},
			{
				"x": -0.3369075515,
				"y": 4.0805387919,
				"z": 1.4595741648,
				"element": "H" 
			},
			{
				"x": -0.1693170029,
				"y": 3.8390831275,
				"z": -1.0094599781,
				"element": "H" 
			},
			{
				"x": -0.7517288617,
				"y": 1.6833785712,
				"z": -2.0891437347,
				"element": "H" 
			}
		],
		 "valence_orbital": [ 
			{
				"type": "occ",
				"energy": -0.30285,
				"method": "rhf"
			},
			{
				"type": "occ",
				"energy": -0.28155,
				"method": "rhf"
			},
			{
				"type": "occ",
				"energy": -0.25755,
				"method": "rhf"
			},
			{
				"type": "occ",
				"energy": -0.25492,
				"method": "rhf"
			},
			{
				"type": "occ",
				"energy": -0.22892,
				"method": "rhf"
			},
			{
				"type": "unocc",
				"energy": -0.02093,
				"method": "rhf"
			},
			{
				"type": "unocc",
				"energy": -0.01062,
				"method": "rhf"
			},
			{
				"type": "unocc",
				"energy": -0.00406,
				"method": "rhf"
			},
			{
				"type": "unocc",
				"energy": 0.06126,
				"method": "rhf"
			},
			{
				"type": "unocc",
				"energy": 0.08781,
				"method": "rhf"
			}
		],
		"cosmo_sigma_profile": { 
			"-0.025": 0.0,
			"-0.024": 0.0,
			"-0.023": 0.0,
			"-0.022": 0.0,
			"-0.021": 0.0,
			"-0.02": 0.0,
			"-0.019": 0.0,
			"-0.018": 0.0,
			"-0.017": 0.0,
			"-0.016": 0.0,
			"-0.015": 0.0150968641799,
			"-0.014": 1.34111290969,
			"-0.013": 2.43139260322,
			"-0.012": 2.42569410378,
			"-0.011": 2.64007881636,
			"-0.01": 2.34803190269,
			"-0.009": 1.53072140384,
			"-0.008": 4.7800546434,
			"-0.007": 6.91494004842,
			"-0.006": 13.1241686852,
			"-0.005": 15.6132777954,
			"-0.004": 17.6381375878,
			"-0.003": 12.2866715335,
			"-0.002": 12.2796193702,
			"-0.001": 12.899271967,
			"0.0": 10.7268688045,
			"0.001": 10.858024234,
			"0.002": 11.1563828316,
			"0.003": 11.8331679311,
			"0.004": 12.0088463201,
			"0.005": 15.69556787,
			"0.006": 6.34726419879,
			"0.007": 3.54362013624,
			"0.008": 4.31114757827,
			"0.009": 4.83022196834,
			"0.01": 5.40542476765,
			"0.011": 3.17915803543,
			"0.012": 4.13904295388,
			"0.013": 2.28954075511,
			"0.014": 0.964840713014,
			"0.015": 0.815098722793,
			"0.016": 0.000523612477792,
			"0.017": 0.0,
			"0.018": 0.0,
			"0.019": 0.0,
			"0.02": 0.0,
			"0.021": 0.0,
			"0.022": 0.0,
			"0.023": 0.0,
			"0.024": 0.0,
			"0.025": 0.0
		}
	}
}
