{
	 "smiles": "FC1=C(C=CC=C1)C1=NN=C(CCl)O1", 
	 "Tm": 360.15, 
	 "num_atms": 20, 
	 "gaussian": { 
		 "optdone": 1, 
		 "sigma_profile": "yes", 
		 "theory": "DFT", 
		 "functional": "B3LYP", 
		 "basiset": "6-31G**", 
		 "properties": { 
			 "R2extent": 4811.3753, 
			 "electric_dipole_moment_norm": 4.35540858014, 
			 "electric_quadrupole_moment_norm": 14.4389344115, 
			 "total_energy": -1091.29655322, 
			 "HOMO_LUMO_gap": 0.184, 
			 "cosmo_polarized_energy": -12.9, 
			 "cosmo_cavitation_energy": 27.8, 
			 "cosmo_dispersion_energy": -20.46, 
			 "cosmo_repulsion_energy": 1.6, 
			 "cosmo_total_nonelectrostatic_energy": 8.94, 
			 "SMD_solvation_energy": 3.36 
		},
		"coords": [
			{
				"x": -1.2458159293,
				"y": -2.5154233347,
				"z": -0.7716146919,
				"element": "F" 
			},
			{
				"x": -0.9160314529,
				"y": -1.2409327129,
				"z": -1.0161302241,
				"element": "C" 
			},
			{
				"x": -0.7668413156,
				"y": -0.3396776682,
				"z": 0.0507500415,
				"element": "C" 
			},
			{
				"x": -0.4211069199,
				"y": 0.9890084448,
				"z": -0.2592787877,
				"element": "C" 
			},
			{
				"x": -0.2348365948,
				"y": 1.3921811201,
				"z": -1.5771190038,
				"element": "C" 
			},
			{
				"x": -0.3907383212,
				"y": 0.4719622852,
				"z": -2.6176046156,
				"element": "C" 
			},
			{
				"x": -0.7326978129,
				"y": -0.8498137371,
				"z": -2.3368368138,
				"element": "C" 
			},
			{
				"x": -0.9587159582,
				"y": -0.7509560358,
				"z": 1.4352966345,
				"element": "C" 
			},
			{
				"x": -1.2347760108,
				"y": -1.9215787384,
				"z": 1.9401563893,
				"element": "N" 
			},
			{
				"x": -1.2970691532,
				"y": -1.7529999648,
				"z": 3.3184181872,
				"element": "N" 
			},
			{
				"x": -1.0611150038,
				"y": -0.4994533947,
				"z": 3.5482372086,
				"element": "C" 
			},
			{
				"x": -1.0318774498,
				"y": 0.1884440135,
				"z": 4.8568341137,
				"element": "C" 
			},
			{
				"x": 0.6446476875,
				"y": 0.7384589062,
				"z": 5.3112580349,
				"element": "Cl" 
			},
			{
				"x": -0.8392453901,
				"y": 0.2074626329,
				"z": 2.4077316947,
				"element": "O" 
			},
			{
				"x": -0.2982608993,
				"y": 1.6985361736,
				"z": 0.5511738504,
				"element": "H" 
			},
			{
				"x": 0.0327549543,
				"y": 2.4213622521,
				"z": -1.7925919743,
				"element": "H" 
			},
			{
				"x": -0.2460014287,
				"y": 0.780924003,
				"z": -3.648188422,
				"element": "H" 
			},
			{
				"x": -0.8615107497,
				"y": -1.5890383216,
				"z": -3.1196618746,
				"element": "H" 
			},
			{
				"x": -1.6550232562,
				"y": 1.0834127057,
				"z": 4.8548967092,
				"element": "H" 
			},
			{
				"x": -1.3680389955,
				"y": -0.5069786289,
				"z": 5.6236735438,
				"element": "H" 
			}
		],
		 "valence_orbital": [ 
			{
				"type": "occ",
				"energy": -0.31218,
				"method": "rhf"
			},
			{
				"type": "occ",
				"energy": -0.31074,
				"method": "rhf"
			},
			{
				"type": "occ",
				"energy": -0.28375,
				"method": "rhf"
			},
			{
				"type": "occ",
				"energy": -0.26797,
				"method": "rhf"
			},
			{
				"type": "occ",
				"energy": -0.25047,
				"method": "rhf"
			},
			{
				"type": "unocc",
				"energy": -0.06647,
				"method": "rhf"
			},
			{
				"type": "unocc",
				"energy": -0.02652,
				"method": "rhf"
			},
			{
				"type": "unocc",
				"energy": -0.01807,
				"method": "rhf"
			},
			{
				"type": "unocc",
				"energy": 0.03602,
				"method": "rhf"
			},
			{
				"type": "unocc",
				"energy": 0.05084,
				"method": "rhf"
			}
		],
		"cosmo_sigma_profile": { 
			"-0.025": 0.0,
			"-0.024": 0.0,
			"-0.023": 0.0,
			"-0.022": 0.0,
			"-0.021": 0.0,
			"-0.02": 0.0,
			"-0.019": 0.0,
			"-0.018": 0.0,
			"-0.017": 0.0,
			"-0.016": 0.0,
			"-0.015": 0.0,
			"-0.014": 0.0,
			"-0.013": 0.0,
			"-0.012": 0.0,
			"-0.011": 0.0595767661482,
			"-0.01": 3.53192171281,
			"-0.009": 4.3461248356,
			"-0.008": 5.49392175209,
			"-0.007": 12.1565407594,
			"-0.006": 12.4849163847,
			"-0.005": 13.4478640153,
			"-0.004": 9.91102694725,
			"-0.003": 12.1723735774,
			"-0.002": 15.0042257855,
			"-0.001": 18.1630096499,
			"0.0": 16.185691906,
			"0.001": 16.660746333,
			"0.002": 19.0331591611,
			"0.003": 17.7413526498,
			"0.004": 12.59703012,
			"0.005": 11.7864213482,
			"0.006": 4.24395456457,
			"0.007": 2.4597485539,
			"0.008": 3.0226973316,
			"0.009": 2.96927407658,
			"0.01": 2.12144444653,
			"0.011": 3.86932413566,
			"0.012": 3.01968014121,
			"0.013": 2.50593762168,
			"0.014": 1.71324724538,
			"0.015": 0.130011510652,
			"0.016": 0.0,
			"0.017": 0.0,
			"0.018": 0.0,
			"0.019": 0.0,
			"0.02": 0.0,
			"0.021": 0.0,
			"0.022": 0.0,
			"0.023": 0.0,
			"0.024": 0.0,
			"0.025": 0.0
		}
	}
}
