{
	 "smiles": "[O-][N+](=O)C1=CC=CC2=C1NN=C2Br", 
	 "Tm": 453.15, 
	 "num_atms": 17, 
	 "gaussian": { 
		 "optdone": 1, 
		 "sigma_profile": "yes", 
		 "theory": "DFT", 
		 "functional": "B3LYP", 
		 "basiset": "6-31G**", 
		 "properties": { 
			 "R2extent": 5229.8988, 
			 "electric_dipole_moment_norm": 3.15184579096, 
			 "electric_quadrupole_moment_norm": 7.73222388967, 
			 "total_energy": -3155.14478651, 
			 "HOMO_LUMO_gap": 0.1429, 
			 "cosmo_polarized_energy": -9.97, 
			 "cosmo_cavitation_energy": 24.79, 
			 "cosmo_dispersion_energy": -19.1, 
			 "cosmo_repulsion_energy": 1.49, 
			 "cosmo_total_nonelectrostatic_energy": 7.19, 
			 "SMD_solvation_energy": 3.94 
		},
		"coords": [
			{
				"x": -1.3583991469,
				"y": -0.1162695235,
				"z": 2.8308850665,
				"element": "O" 
			},
			{
				"x": -0.188222563,
				"y": 0.0142602207,
				"z": 2.4816075258,
				"element": "N" 
			},
			{
				"x": 0.7891123579,
				"y": -0.1273925603,
				"z": 3.2325212189,
				"element": "O" 
			},
			{
				"x": 0.0954768729,
				"y": 0.3570950959,
				"z": 1.1018404622,
				"element": "C" 
			},
			{
				"x": -0.9363891185,
				"y": 0.5354350999,
				"z": 0.1896531808,
				"element": "C" 
			},
			{
				"x": -0.662419604,
				"y": 0.8679932004,
				"z": -1.1488280662,
				"element": "C" 
			},
			{
				"x": 0.6456113979,
				"y": 1.027243368,
				"z": -1.5955813475,
				"element": "C" 
			},
			{
				"x": 1.6936119391,
				"y": 0.8496358568,
				"z": -0.6837841499,
				"element": "C" 
			},
			{
				"x": 1.4260819474,
				"y": 0.5138093576,
				"z": 0.6692156144,
				"element": "C" 
			},
			{
				"x": 2.6310306715,
				"y": 0.4140278613,
				"z": 1.2832938212,
				"element": "N" 
			},
			{
				"x": 3.6707804504,
				"y": 0.6583029331,
				"z": 0.4390408196,
				"element": "N" 
			},
			{
				"x": 3.1222782725,
				"y": 0.9165058679,
				"z": -0.7259383296,
				"element": "C" 
			},
			{
				"x": 4.1645029277,
				"y": 1.3215432561,
				"z": -2.2372262618,
				"element": "Br" 
			},
			{
				"x": -1.9542282927,
				"y": 0.4109972336,
				"z": 0.5395714142,
				"element": "H" 
			},
			{
				"x": -1.4896849371,
				"y": 1.0007006069,
				"z": -1.8374216613,
				"element": "H" 
			},
			{
				"x": 0.8587578941,
				"y": 1.2839573402,
				"z": -2.6283807506,
				"element": "H" 
			},
			{
				"x": 2.7861989308,
				"y": 0.1869547853,
				"z": 2.2539314433,
				"element": "H" 
			}
		],
		 "valence_orbital": [ 
			{
				"type": "occ",
				"energy": -0.30665,
				"method": "rhf"
			},
			{
				"type": "occ",
				"energy": -0.3053,
				"method": "rhf"
			},
			{
				"type": "occ",
				"energy": -0.30181,
				"method": "rhf"
			},
			{
				"type": "occ",
				"energy": -0.27867,
				"method": "rhf"
			},
			{
				"type": "occ",
				"energy": -0.24987,
				"method": "rhf"
			},
			{
				"type": "unocc",
				"energy": -0.10697,
				"method": "rhf"
			},
			{
				"type": "unocc",
				"energy": -0.03897,
				"method": "rhf"
			},
			{
				"type": "unocc",
				"energy": -0.01635,
				"method": "rhf"
			},
			{
				"type": "unocc",
				"energy": -0.0002,
				"method": "rhf"
			},
			{
				"type": "unocc",
				"energy": 0.03438,
				"method": "rhf"
			}
		],
		"cosmo_sigma_profile": { 
			"-0.025": 0.0,
			"-0.024": 0.0,
			"-0.023": 0.0,
			"-0.022": 0.0,
			"-0.021": 0.0,
			"-0.02": 0.0,
			"-0.019": 0.0,
			"-0.018": 0.0,
			"-0.017": 0.0,
			"-0.016": 0.387720641526,
			"-0.015": 0.867858787138,
			"-0.014": 0.546135262866,
			"-0.013": 0.543166040775,
			"-0.012": 0.961345494777,
			"-0.011": 0.860554869463,
			"-0.01": 0.228909405206,
			"-0.009": 1.08741437995,
			"-0.008": 4.83561906428,
			"-0.007": 8.05851635482,
			"-0.006": 9.08912215974,
			"-0.005": 9.97133462786,
			"-0.004": 10.9839848956,
			"-0.003": 11.7391701265,
			"-0.002": 17.1275863722,
			"-0.001": 20.9529271195,
			"0.0": 17.2835968242,
			"0.001": 16.2391593728,
			"0.002": 14.090479171,
			"0.003": 13.2667881057,
			"0.004": 8.71804865027,
			"0.005": 5.12187483464,
			"0.006": 5.44158488036,
			"0.007": 7.32758867194,
			"0.008": 6.40530986733,
			"0.009": 5.68708822171,
			"0.01": 3.17247607392,
			"0.011": 1.39678397061,
			"0.012": 0.72659457223,
			"0.013": 0.878480661492,
			"0.014": 0.00373687751924,
			"0.015": 0.0,
			"0.016": 0.0,
			"0.017": 0.0,
			"0.018": 0.0,
			"0.019": 0.0,
			"0.02": 0.0,
			"0.021": 0.0,
			"0.022": 0.0,
			"0.023": 0.0,
			"0.024": 0.0,
			"0.025": 0.0
		}
	}
}
