{
	 "smiles": "OC(=O)[C@H](CC1=CNC2=C1C=CC=C2)NC(=O)OCC1=CC=CC=C1", 
	 "Tm": 396.65, 
	 "num_atms": 43, 
	 "gaussian": { 
		 "optdone": 1, 
		 "sigma_profile": "yes", 
		 "theory": "DFT", 
		 "functional": "B3LYP", 
		 "basiset": "6-31G**", 
		 "properties": { 
			 "R2extent": 11908.5279, 
			 "electric_dipole_moment_norm": 4.27686150816, 
			 "electric_quadrupole_moment_norm": 16.210739192, 
			 "total_energy": -1145.31280864, 
			 "HOMO_LUMO_gap": 0.19012, 
			 "cosmo_polarized_energy": -23.97, 
			 "cosmo_cavitation_energy": 48.77, 
			 "cosmo_dispersion_energy": -32.54, 
			 "cosmo_repulsion_energy": 2.52, 
			 "cosmo_total_nonelectrostatic_energy": 18.75, 
			 "SMD_solvation_energy": 9.97 
		},
		"coords": [
			{
				"x": 0.0176353122,
				"y": 0.5400536681,
				"z": 3.9594362036,
				"element": "O" 
			},
			{
				"x": -1.0327003247,
				"y": -0.0979213162,
				"z": 3.3959374269,
				"element": "C" 
			},
			{
				"x": -2.0671543214,
				"y": -0.313018625,
				"z": 3.9886693914,
				"element": "O" 
			},
			{
				"x": -0.7808992793,
				"y": -0.5318026519,
				"z": 1.9494752772,
				"element": "C" 
			},
			{
				"x": -1.0575686882,
				"y": -2.0554510608,
				"z": 1.8115147349,
				"element": "C" 
			},
			{
				"x": -1.2142618684,
				"y": -2.506597199,
				"z": 0.3921505396,
				"element": "C" 
			},
			{
				"x": -0.2632168822,
				"y": -3.0946908234,
				"z": -0.4034355899,
				"element": "C" 
			},
			{
				"x": -0.7839520425,
				"y": -3.3428458361,
				"z": -1.6598547355,
				"element": "N" 
			},
			{
				"x": -2.0954196655,
				"y": -2.9132720015,
				"z": -1.7010783606,
				"element": "C" 
			},
			{
				"x": -2.4008996122,
				"y": -2.3768967595,
				"z": -0.4201766215,
				"element": "C" 
			},
			{
				"x": -3.6908713064,
				"y": -1.8681160694,
				"z": -0.1868830186,
				"element": "C" 
			},
			{
				"x": -4.6254791877,
				"y": -1.9047016844,
				"z": -1.2142024727,
				"element": "C" 
			},
			{
				"x": -4.2995770684,
				"y": -2.4412828646,
				"z": -2.4768705331,
				"element": "C" 
			},
			{
				"x": -3.0335088615,
				"y": -2.9532757215,
				"z": -2.7378859966,
				"element": "C" 
			},
			{
				"x": 0.5229192894,
				"y": -0.1679449497,
				"z": 1.443079832,
				"element": "N" 
			},
			{
				"x": 0.7019446544,
				"y": 0.9424489871,
				"z": 0.6653352283,
				"element": "C" 
			},
			{
				"x": -0.1931968999,
				"y": 1.6207791789,
				"z": 0.1901076342,
				"element": "O" 
			},
			{
				"x": 2.0308282907,
				"y": 1.1547626023,
				"z": 0.4760758618,
				"element": "O" 
			},
			{
				"x": 2.3817491605,
				"y": 2.3020022691,
				"z": -0.3404956351,
				"element": "C" 
			},
			{
				"x": 2.6297423137,
				"y": 3.5358126969,
				"z": 0.4929579736,
				"element": "C" 
			},
			{
				"x": 1.5586338474,
				"y": 4.3380596133,
				"z": 0.9130035315,
				"element": "C" 
			},
			{
				"x": 1.7913026721,
				"y": 5.4732403204,
				"z": 1.6891815773,
				"element": "C" 
			},
			{
				"x": 3.0946535274,
				"y": 5.8218928054,
				"z": 2.0524457912,
				"element": "C" 
			},
			{
				"x": 4.1661900414,
				"y": 5.0294588472,
				"z": 1.6376245216,
				"element": "C" 
			},
			{
				"x": 3.9320307214,
				"y": 3.8922897434,
				"z": 0.8627997144,
				"element": "C" 
			},
			{
				"x": -0.2630867498,
				"y": 0.7716812939,
				"z": 4.8611861599,
				"element": "H" 
			},
			{
				"x": -1.5084306267,
				"y": 0.0153738356,
				"z": 1.3422472284,
				"element": "H" 
			},
			{
				"x": -0.2401184704,
				"y": -2.6029351714,
				"z": 2.2982527288,
				"element": "H" 
			},
			{
				"x": -1.9641147048,
				"y": -2.2725004691,
				"z": 2.3848842954,
				"element": "H" 
			},
			{
				"x": 0.7582774687,
				"y": -3.3618302613,
				"z": -0.1707703985,
				"element": "H" 
			},
			{
				"x": -0.2867804468,
				"y": -3.7760126408,
				"z": -2.4202108864,
				"element": "H" 
			},
			{
				"x": -3.9544492945,
				"y": -1.4526569005,
				"z": 0.7821544537,
				"element": "H" 
			},
			{
				"x": -5.6245023823,
				"y": -1.5135217525,
				"z": -1.0457972994,
				"element": "H" 
			},
			{
				"x": -5.0515559837,
				"y": -2.455478236,
				"z": -3.2604187416,
				"element": "H" 
			},
			{
				"x": -2.7839326095,
				"y": -3.3675105137,
				"z": -3.7108952737,
				"element": "H" 
			},
			{
				"x": 1.3446503637,
				"y": -0.5219367383,
				"z": 1.9112715497,
				"element": "H" 
			},
			{
				"x": 1.5806191361,
				"y": 2.4664296048,
				"z": -1.0635204004,
				"element": "H" 
			},
			{
				"x": 3.2912159747,
				"y": 1.9967229201,
				"z": -0.8630305416,
				"element": "H" 
			},
			{
				"x": 0.5481343483,
				"y": 4.0572024016,
				"z": 0.6323528156,
				"element": "H" 
			},
			{
				"x": 0.9551001415,
				"y": 6.0895506674,
				"z": 2.0074071565,
				"element": "H" 
			},
			{
				"x": 3.2741081953,
				"y": 6.7090285361,
				"z": 2.653397347,
				"element": "H" 
			},
			{
				"x": 5.1820933489,
				"y": 5.2968446114,
				"z": 1.9145670197,
				"element": "H" 
			},
			{
				"x": 4.7680484688,
				"y": 3.2767656436,
				"z": 0.5388105109,
				"element": "H" 
			}
		],
		 "valence_orbital": [ 
			{
				"type": "occ",
				"energy": -0.24948,
				"method": "rhf"
			},
			{
				"type": "occ",
				"energy": -0.24863,
				"method": "rhf"
			},
			{
				"type": "occ",
				"energy": -0.2455,
				"method": "rhf"
			},
			{
				"type": "occ",
				"energy": -0.21633,
				"method": "rhf"
			},
			{
				"type": "occ",
				"energy": -0.19806,
				"method": "rhf"
			},
			{
				"type": "unocc",
				"energy": -0.00794,
				"method": "rhf"
			},
			{
				"type": "unocc",
				"energy": -0.00572,
				"method": "rhf"
			},
			{
				"type": "unocc",
				"energy": 0.00033,
				"method": "rhf"
			},
			{
				"type": "unocc",
				"energy": 0.00361,
				"method": "rhf"
			},
			{
				"type": "unocc",
				"energy": 0.03245,
				"method": "rhf"
			}
		],
		"cosmo_sigma_profile": { 
			"-0.025": 0.0,
			"-0.024": 0.0,
			"-0.023": 0.0,
			"-0.022": 0.0,
			"-0.021": 0.0,
			"-0.02": 0.0,
			"-0.019": 0.281589444941,
			"-0.018": 0.748933890324,
			"-0.017": 0.998798816363,
			"-0.016": 1.25754410187,
			"-0.015": 2.55681969185,
			"-0.014": 2.67492275576,
			"-0.013": 2.1406856067,
			"-0.012": 2.86311174751,
			"-0.011": 3.35917726677,
			"-0.01": 2.94872600109,
			"-0.009": 3.17518100894,
			"-0.008": 4.15755918486,
			"-0.007": 7.15309539422,
			"-0.006": 16.2622318829,
			"-0.005": 24.158060829,
			"-0.004": 30.9434169032,
			"-0.003": 32.3636735747,
			"-0.002": 25.7078333782,
			"-0.001": 21.155751667,
			"0.0": 20.2721432514,
			"0.001": 19.4715647728,
			"0.002": 22.8814130436,
			"0.003": 23.1632768413,
			"0.004": 26.1475319745,
			"0.005": 31.6986581646,
			"0.006": 21.2924092421,
			"0.007": 12.6927049691,
			"0.008": 5.47693298001,
			"0.009": 2.91391887536,
			"0.01": 3.60409575958,
			"0.011": 5.456954456,
			"0.012": 6.19436297919,
			"0.013": 1.91557683231,
			"0.014": 0.0,
			"0.015": 0.0,
			"0.016": 0.0,
			"0.017": 0.0,
			"0.018": 0.0,
			"0.019": 0.0,
			"0.02": 0.0,
			"0.021": 0.0,
			"0.022": 0.0,
			"0.023": 0.0,
			"0.024": 0.0,
			"0.025": 0.0
		}
	}
}
