{
	 "smiles": "OC(=O)C1=CC=CNC1=O", 
	 "Tm": 533.15, 
	 "num_atms": 15, 
	 "gaussian": { 
		 "optdone": 1, 
		 "sigma_profile": "yes", 
		 "theory": "DFT", 
		 "functional": "B3LYP", 
		 "basiset": "6-31G**", 
		 "properties": { 
			 "R2extent": 2368.4677, 
			 "electric_dipole_moment_norm": 7.90037194124, 
			 "electric_quadrupole_moment_norm": 18.1854575348, 
			 "total_energy": -512.101498508, 
			 "HOMO_LUMO_gap": 0.16973, 
			 "cosmo_polarized_energy": -19.87, 
			 "cosmo_cavitation_energy": 19.61, 
			 "cosmo_dispersion_energy": -15.11, 
			 "cosmo_repulsion_energy": 1.21, 
			 "cosmo_total_nonelectrostatic_energy": 5.71, 
			 "SMD_solvation_energy": 5.54 
		},
		"coords": [
			{
				"x": -3.466783394,
				"y": 1.9459471171,
				"z": 1.8465548146,
				"element": "O" 
			},
			{
				"x": -2.6157943813,
				"y": 1.0983310154,
				"z": 2.4316843362,
				"element": "C" 
			},
			{
				"x": -2.8211362414,
				"y": 0.6155868971,
				"z": 3.5264193263,
				"element": "O" 
			},
			{
				"x": -1.3707059386,
				"y": 0.7709078284,
				"z": 1.6490515443,
				"element": "C" 
			},
			{
				"x": -0.4481813193,
				"y": -0.0939307769,
				"z": 2.1882437908,
				"element": "C" 
			},
			{
				"x": 0.7420293108,
				"y": -0.4407328447,
				"z": 1.5007258873,
				"element": "C" 
			},
			{
				"x": 0.9599450801,
				"y": 0.1106696468,
				"z": 0.2688101029,
				"element": "C" 
			},
			{
				"x": 0.0476811948,
				"y": 0.968400647,
				"z": -0.268921967,
				"element": "N" 
			},
			{
				"x": -1.1447393267,
				"y": 1.3583760484,
				"z": 0.3434101201,
				"element": "C" 
			},
			{
				"x": -1.9009344952,
				"y": 2.1496589107,
				"z": -0.2472788159,
				"element": "O" 
			},
			{
				"x": -3.0990764616,
				"y": 2.2120369059,
				"z": 0.9637271188,
				"element": "H" 
			},
			{
				"x": -0.6676381176,
				"y": -0.504954765,
				"z": 3.1693965414,
				"element": "H" 
			},
			{
				"x": 1.465509131,
				"y": -1.1222969297,
				"z": 1.9295732115,
				"element": "H" 
			},
			{
				"x": 1.837861164,
				"y": -0.0919872539,
				"z": -0.3339538656,
				"element": "H" 
			},
			{
				"x": 0.2034637952,
				"y": 1.3803875534,
				"z": -1.1817421457,
				"element": "H" 
			}
		],
		 "valence_orbital": [ 
			{
				"type": "occ",
				"energy": -0.32947,
				"method": "rhf"
			},
			{
				"type": "occ",
				"energy": -0.2939,
				"method": "rhf"
			},
			{
				"type": "occ",
				"energy": -0.28824,
				"method": "rhf"
			},
			{
				"type": "occ",
				"energy": -0.2624,
				"method": "rhf"
			},
			{
				"type": "occ",
				"energy": -0.24953,
				"method": "rhf"
			},
			{
				"type": "unocc",
				"energy": -0.0798,
				"method": "rhf"
			},
			{
				"type": "unocc",
				"energy": -0.02031,
				"method": "rhf"
			},
			{
				"type": "unocc",
				"energy": 0.03897,
				"method": "rhf"
			},
			{
				"type": "unocc",
				"energy": 0.0446,
				"method": "rhf"
			},
			{
				"type": "unocc",
				"energy": 0.09787,
				"method": "rhf"
			}
		],
		"cosmo_sigma_profile": { 
			"-0.025": 0.0,
			"-0.024": 0.0,
			"-0.023": 0.0,
			"-0.022": 0.0,
			"-0.021": 0.0,
			"-0.02": 0.0,
			"-0.019": 0.0,
			"-0.018": 0.218030229353,
			"-0.017": 1.81463806597,
			"-0.016": 1.40170510159,
			"-0.015": 1.26889081416,
			"-0.014": 1.22275542136,
			"-0.013": 1.07676028846,
			"-0.012": 1.19445154063,
			"-0.011": 2.54622394472,
			"-0.01": 3.30827528938,
			"-0.009": 3.0143042838,
			"-0.008": 4.51924398093,
			"-0.007": 6.3687525984,
			"-0.006": 6.74491135908,
			"-0.005": 5.87896370529,
			"-0.004": 7.40668862585,
			"-0.003": 12.89249581,
			"-0.002": 13.2504691488,
			"-0.001": 10.7425058424,
			"0.0": 10.9464276825,
			"0.001": 7.83604975597,
			"0.002": 4.81796125388,
			"0.003": 2.66690562665,
			"0.004": 3.26872079703,
			"0.005": 2.93021085433,
			"0.006": 3.4667390102,
			"0.007": 3.01692964861,
			"0.008": 4.08340285346,
			"0.009": 4.22424886426,
			"0.01": 5.00301020142,
			"0.011": 6.29369960413,
			"0.012": 8.79376466895,
			"0.013": 4.23489472672,
			"0.014": 1.31015740279,
			"0.015": 0.0,
			"0.016": 0.0,
			"0.017": 0.0,
			"0.018": 0.0,
			"0.019": 0.0,
			"0.02": 0.0,
			"0.021": 0.0,
			"0.022": 0.0,
			"0.023": 0.0,
			"0.024": 0.0,
			"0.025": 0.0
		}
	}
}
