{
	 "smiles": "OC1=CC=CC(=C1)N1CCOCC1", 
	 "Tm": 410.15, 
	 "num_atms": 26, 
	 "gaussian": { 
		 "optdone": 1, 
		 "sigma_profile": "yes", 
		 "theory": "DFT", 
		 "functional": "B3LYP", 
		 "basiset": "6-31G**", 
		 "properties": { 
			 "R2extent": 3442.5859, 
			 "electric_dipole_moment_norm": 1.5831348837, 
			 "electric_quadrupole_moment_norm": 13.816470102, 
			 "total_energy": -594.06566896, 
			 "HOMO_LUMO_gap": 0.19975, 
			 "cosmo_polarized_energy": -12.23, 
			 "cosmo_cavitation_energy": 27.65, 
			 "cosmo_dispersion_energy": -20.99, 
			 "cosmo_repulsion_energy": 1.65, 
			 "cosmo_total_nonelectrostatic_energy": 8.31, 
			 "SMD_solvation_energy": 3.93 
		},
		"coords": [
			{
				"x": 1.0308201441,
				"y": -1.5610398553,
				"z": -2.4392141827,
				"element": "O" 
			},
			{
				"x": 0.0725976283,
				"y": -1.5732875394,
				"z": -1.462162312,
				"element": "C" 
			},
			{
				"x": -0.9533559014,
				"y": -2.5151513302,
				"z": -1.5835148481,
				"element": "C" 
			},
			{
				"x": -1.9432164786,
				"y": -2.5370884008,
				"z": -0.6046978054,
				"element": "C" 
			},
			{
				"x": -1.9306344836,
				"y": -1.6583831456,
				"z": 0.476915081,
				"element": "C" 
			},
			{
				"x": -0.8974880387,
				"y": -0.7036645131,
				"z": 0.6009344677,
				"element": "C" 
			},
			{
				"x": 0.1051423766,
				"y": -0.6757711225,
				"z": -0.3929355948,
				"element": "C" 
			},
			{
				"x": -0.8632038752,
				"y": 0.185520378,
				"z": 1.6666176552,
				"element": "N" 
			},
			{
				"x": 0.3308432995,
				"y": 0.9572640806,
				"z": 1.9861558615,
				"element": "C" 
			},
			{
				"x": 0.337223955,
				"y": 1.3114312823,
				"z": 3.4722066786,
				"element": "C" 
			},
			{
				"x": -0.7999883485,
				"y": 2.0644411365,
				"z": 3.877365556,
				"element": "O" 
			},
			{
				"x": -1.980415563,
				"y": 1.794720061,
				"z": 3.126935253,
				"element": "C" 
			},
			{
				"x": -2.0168381425,
				"y": 0.3870239269,
				"z": 2.5348366565,
				"element": "C" 
			},
			{
				"x": 1.6771820198,
				"y": -0.87240834,
				"z": -2.2374726037,
				"element": "H" 
			},
			{
				"x": -0.9558616004,
				"y": -3.1994550704,
				"z": -2.4240529001,
				"element": "H" 
			},
			{
				"x": -2.7443680737,
				"y": -3.2678743997,
				"z": -0.6762117614,
				"element": "H" 
			},
			{
				"x": -2.7001877925,
				"y": -1.7381534248,
				"z": 1.2348459562,
				"element": "H" 
			},
			{
				"x": 0.8945867722,
				"y": 0.0688921666,
				"z": -0.3569554208,
				"element": "H" 
			},
			{
				"x": 0.4068093068,
				"y": 1.8772165983,
				"z": 1.3826577146,
				"element": "H" 
			},
			{
				"x": 1.2238479757,
				"y": 0.3566938025,
				"z": 1.7762348348,
				"element": "H" 
			},
			{
				"x": 0.4050037035,
				"y": 0.3819327595,
				"z": 4.0588487312,
				"element": "H" 
			},
			{
				"x": 1.2189931111,
				"y": 1.917746272,
				"z": 3.7047311554,
				"element": "H" 
			},
			{
				"x": -2.8293716377,
				"y": 1.9329500891,
				"z": 3.8050481063,
				"element": "H" 
			},
			{
				"x": -2.0800352755,
				"y": 2.526377597,
				"z": 2.3102226452,
				"element": "H" 
			},
			{
				"x": -2.0656474229,
				"y": -0.3603158352,
				"z": 3.3437663292,
				"element": "H" 
			},
			{
				"x": -2.9370376586,
				"y": 0.2896828266,
				"z": 1.9484947464,
				"element": "H" 
			}
		],
		 "valence_orbital": [ 
			{
				"type": "occ",
				"energy": -0.30875,
				"method": "rhf"
			},
			{
				"type": "occ",
				"energy": -0.27338,
				"method": "rhf"
			},
			{
				"type": "occ",
				"energy": -0.25307,
				"method": "rhf"
			},
			{
				"type": "occ",
				"energy": -0.21971,
				"method": "rhf"
			},
			{
				"type": "occ",
				"energy": -0.18618,
				"method": "rhf"
			},
			{
				"type": "unocc",
				"energy": 0.01357,
				"method": "rhf"
			},
			{
				"type": "unocc",
				"energy": 0.0291,
				"method": "rhf"
			},
			{
				"type": "unocc",
				"energy": 0.07158,
				"method": "rhf"
			},
			{
				"type": "unocc",
				"energy": 0.08118,
				"method": "rhf"
			},
			{
				"type": "unocc",
				"energy": 0.10454,
				"method": "rhf"
			}
		],
		"cosmo_sigma_profile": { 
			"-0.025": 0.0,
			"-0.024": 0.0,
			"-0.023": 0.0,
			"-0.022": 0.0,
			"-0.021": 0.0,
			"-0.02": 0.0,
			"-0.019": 0.0,
			"-0.018": 0.0237228070268,
			"-0.017": 0.910395621982,
			"-0.016": 0.98684436503,
			"-0.015": 0.977896839788,
			"-0.014": 0.955639381886,
			"-0.013": 1.04689994636,
			"-0.012": 1.26863359924,
			"-0.011": 0.61159204084,
			"-0.01": 0.607690111003,
			"-0.009": 1.228067195,
			"-0.008": 1.25812454475,
			"-0.007": 1.4150012677,
			"-0.006": 2.91298084121,
			"-0.005": 19.3355339913,
			"-0.004": 27.9516167442,
			"-0.003": 29.8150238595,
			"-0.002": 17.8434449935,
			"-0.001": 11.6767583663,
			"0.0": 8.57412140428,
			"0.001": 8.15448734673,
			"0.002": 8.72294913013,
			"0.003": 7.77932075306,
			"0.004": 8.84238719075,
			"0.005": 12.2451974493,
			"0.006": 12.1002054518,
			"0.007": 10.9215655091,
			"0.008": 4.48284606091,
			"0.009": 3.1892624653,
			"0.01": 2.87309683712,
			"0.011": 2.49059840801,
			"0.012": 3.26918840704,
			"0.013": 2.21701742077,
			"0.014": 0.570156630069,
			"0.015": 0.0,
			"0.016": 0.0,
			"0.017": 0.0,
			"0.018": 0.0,
			"0.019": 0.0,
			"0.02": 0.0,
			"0.021": 0.0,
			"0.022": 0.0,
			"0.023": 0.0,
			"0.024": 0.0,
			"0.025": 0.0
		}
	}
}
