{
	 "smiles": "CC(=O)N1CCN(CC1)C1=CC=C(O)C=C1", 
	 "Tm": 456.15, 
	 "num_atms": 32, 
	 "gaussian": { 
		 "optdone": 1, 
		 "sigma_profile": "yes", 
		 "theory": "DFT", 
		 "functional": "B3LYP", 
		 "basiset": "6-31G**", 
		 "properties": { 
			 "R2extent": 5565.7178, 
			 "electric_dipole_moment_norm": 3.85742714513, 
			 "electric_quadrupole_moment_norm": 18.2126718103, 
			 "total_energy": -726.867722673, 
			 "HOMO_LUMO_gap": 0.1791, 
			 "cosmo_polarized_energy": -17.53, 
			 "cosmo_cavitation_energy": 33.64, 
			 "cosmo_dispersion_energy": -24.79, 
			 "cosmo_repulsion_energy": 1.91, 
			 "cosmo_total_nonelectrostatic_energy": 10.75, 
			 "SMD_solvation_energy": 4.82 
		},
		"coords": [
			{
				"x": 2.3244987421,
				"y": 2.2927360705,
				"z": 4.2913609019,
				"element": "C" 
			},
			{
				"x": 1.3025003109,
				"y": 2.7015141022,
				"z": 3.2402123775,
				"element": "C" 
			},
			{
				"x": 0.7449876486,
				"y": 3.7941304354,
				"z": 3.2789161837,
				"element": "O" 
			},
			{
				"x": 1.0431193207,
				"y": 1.7888723495,
				"z": 2.243827011,
				"element": "N" 
			},
			{
				"x": 1.6464053517,
				"y": 0.456811559,
				"z": 2.1771067439,
				"element": "C" 
			},
			{
				"x": 1.4117765906,
				"y": -0.1754631769,
				"z": 0.8034200389,
				"element": "C" 
			},
			{
				"x": -0.0064158123,
				"y": -0.2495547012,
				"z": 0.503353828,
				"element": "N" 
			},
			{
				"x": -0.8344741414,
				"y": 0.8805233597,
				"z": 0.9292333916,
				"element": "C" 
			},
			{
				"x": 0.0225482159,
				"y": 2.1057087928,
				"z": 1.2445339954,
				"element": "C" 
			},
			{
				"x": -0.4864455821,
				"y": -1.1562754169,
				"z": -0.4476162133,
				"element": "C" 
			},
			{
				"x": -1.8737950957,
				"y": -1.3692696268,
				"z": -0.6024440424,
				"element": "C" 
			},
			{
				"x": -2.3689491066,
				"y": -2.2743870425,
				"z": -1.5344588372,
				"element": "C" 
			},
			{
				"x": -1.4973259768,
				"y": -3.0124014133,
				"z": -2.3400923045,
				"element": "C" 
			},
			{
				"x": -2.0457683069,
				"y": -3.8956472491,
				"z": -3.2362714551,
				"element": "O" 
			},
			{
				"x": -0.1230396403,
				"y": -2.8197680297,
				"z": -2.1977916407,
				"element": "C" 
			},
			{
				"x": 0.377018673,
				"y": -1.9014939118,
				"z": -1.2728781416,
				"element": "C" 
			},
			{
				"x": 2.0734110629,
				"y": 1.3368900763,
				"z": 4.7627309317,
				"element": "H" 
			},
			{
				"x": 2.3481093687,
				"y": 3.0745829996,
				"z": 5.0496843637,
				"element": "H" 
			},
			{
				"x": 3.3250071911,
				"y": 2.1931189068,
				"z": 3.8555193786,
				"element": "H" 
			},
			{
				"x": 2.7260584672,
				"y": 0.5183376221,
				"z": 2.3493414785,
				"element": "H" 
			},
			{
				"x": 1.224913896,
				"y": -0.2061281751,
				"z": 2.9469110877,
				"element": "H" 
			},
			{
				"x": 1.9850034926,
				"y": 0.3794868625,
				"z": 0.0392479898,
				"element": "H" 
			},
			{
				"x": 1.8225275192,
				"y": -1.1897933385,
				"z": 0.8337843545,
				"element": "H" 
			},
			{
				"x": -1.4416857646,
				"y": 0.6235718353,
				"z": 1.8113298052,
				"element": "H" 
			},
			{
				"x": -1.5300264672,
				"y": 1.1481376486,
				"z": 0.1250600303,
				"element": "H" 
			},
			{
				"x": -0.5904932775,
				"y": 2.9121968534,
				"z": 1.6492829106,
				"element": "H" 
			},
			{
				"x": 0.4900451781,
				"y": 2.4794668501,
				"z": 0.3230451453,
				"element": "H" 
			},
			{
				"x": -2.5771329859,
				"y": -0.8383363012,
				"z": 0.029480911,
				"element": "H" 
			},
			{
				"x": -3.4380725658,
				"y": -2.4289547359,
				"z": -1.6391202923,
				"element": "H" 
			},
			{
				"x": -1.3332101987,
				"y": -4.3309268685,
				"z": -3.7209616749,
				"element": "H" 
			},
			{
				"x": 0.572792223,
				"y": -3.3775921197,
				"z": -2.8219775763,
				"element": "H" 
			},
			{
				"x": 1.4501116692,
				"y": -1.7586942169,
				"z": -1.2196706805,
				"element": "H" 
			}
		],
		 "valence_orbital": [ 
			{
				"type": "occ",
				"energy": -0.26047,
				"method": "rhf"
			},
			{
				"type": "occ",
				"energy": -0.24783,
				"method": "rhf"
			},
			{
				"type": "occ",
				"energy": -0.24361,
				"method": "rhf"
			},
			{
				"type": "occ",
				"energy": -0.23634,
				"method": "rhf"
			},
			{
				"type": "occ",
				"energy": -0.17952,
				"method": "rhf"
			},
			{
				"type": "unocc",
				"energy": -0.00042,
				"method": "rhf"
			},
			{
				"type": "unocc",
				"energy": 0.02834,
				"method": "rhf"
			},
			{
				"type": "unocc",
				"energy": 0.03161,
				"method": "rhf"
			},
			{
				"type": "unocc",
				"energy": 0.06922,
				"method": "rhf"
			},
			{
				"type": "unocc",
				"energy": 0.07541,
				"method": "rhf"
			}
		],
		"cosmo_sigma_profile": { 
			"-0.025": 0.0,
			"-0.024": 0.0,
			"-0.023": 0.0,
			"-0.022": 0.0,
			"-0.021": 0.0,
			"-0.02": 0.0,
			"-0.019": 0.0,
			"-0.018": 0.0,
			"-0.017": 0.636372133254,
			"-0.016": 0.952903885759,
			"-0.015": 1.16791906629,
			"-0.014": 1.4043173963,
			"-0.013": 0.738250482426,
			"-0.012": 0.873086616895,
			"-0.011": 0.544301031321,
			"-0.01": 0.786708689659,
			"-0.009": 1.5933048872,
			"-0.008": 1.37758069509,
			"-0.007": 1.88597607993,
			"-0.006": 9.88707838353,
			"-0.005": 24.1249675108,
			"-0.004": 35.4811692788,
			"-0.003": 33.8881160983,
			"-0.002": 19.9167900755,
			"-0.001": 17.5891878113,
			"0.0": 11.9434616735,
			"0.001": 10.3087797366,
			"0.002": 9.28181539106,
			"0.003": 8.20584823126,
			"0.004": 9.28771683307,
			"0.005": 12.3629254982,
			"0.006": 13.6843993652,
			"0.007": 9.64220653661,
			"0.008": 3.07542442212,
			"0.009": 3.47351125919,
			"0.01": 2.93555596346,
			"0.011": 2.80291979895,
			"0.012": 3.31460301565,
			"0.013": 2.7134098763,
			"0.014": 5.38099850064,
			"0.015": 2.62006362665,
			"0.016": 0.311287691233,
			"0.017": 0.0,
			"0.018": 0.0,
			"0.019": 0.0,
			"0.02": 0.0,
			"0.021": 0.0,
			"0.022": 0.0,
			"0.023": 0.0,
			"0.024": 0.0,
			"0.025": 0.0
		}
	}
}
