{
	 "smiles": "NCC(O)C1=CC=C(F)C=C1", 
	 "Tm": 339.15, 
	 "num_atms": 21, 
	 "gaussian": { 
		 "optdone": 1, 
		 "sigma_profile": "yes", 
		 "theory": "DFT", 
		 "functional": "B3LYP", 
		 "basiset": "6-31G**", 
		 "properties": { 
			 "R2extent": 2464.4806, 
			 "electric_dipole_moment_norm": 1.95537948747, 
			 "electric_quadrupole_moment_norm": 11.5197522821, 
			 "total_energy": -540.677972086, 
			 "HOMO_LUMO_gap": 0.21041, 
			 "cosmo_polarized_energy": -10.17, 
			 "cosmo_cavitation_energy": 24.64, 
			 "cosmo_dispersion_energy": -17.69, 
			 "cosmo_repulsion_energy": 1.41, 
			 "cosmo_total_nonelectrostatic_energy": 8.36, 
			 "SMD_solvation_energy": 3.23 
		},
		"coords": [
			{
				"x": -1.8561433608,
				"y": 2.5193274575,
				"z": 2.2939184557,
				"element": "N" 
			},
			{
				"x": -0.4470181088,
				"y": 2.2953599004,
				"z": 2.0044411296,
				"element": "C" 
			},
			{
				"x": -0.0163965179,
				"y": 0.8235747995,
				"z": 1.7862750999,
				"element": "C" 
			},
			{
				"x": -0.3596503876,
				"y": 0.1426273067,
				"z": 2.9920588092,
				"element": "O" 
			},
			{
				"x": -0.6601061563,
				"y": 0.193517222,
				"z": 0.5631110659,
				"element": "C" 
			},
			{
				"x": -0.0506521777,
				"y": 0.3039998902,
				"z": -0.6946167447,
				"element": "C" 
			},
			{
				"x": -0.6485367104,
				"y": -0.2270294606,
				"z": -1.8363130607,
				"element": "C" 
			},
			{
				"x": -1.8706055187,
				"y": -0.8791899191,
				"z": -1.7063848854,
				"element": "C" 
			},
			{
				"x": -2.452967452,
				"y": -1.4029721199,
				"z": -2.8055601575,
				"element": "F" 
			},
			{
				"x": -2.5026864416,
				"y": -1.0138898987,
				"z": -0.4765188838,
				"element": "C" 
			},
			{
				"x": -1.8904944029,
				"y": -0.4720453236,
				"z": 0.6552837421,
				"element": "C" 
			},
			{
				"x": -2.4285038143,
				"y": 2.2023856225,
				"z": 1.5145582335,
				"element": "H" 
			},
			{
				"x": -2.118863942,
				"y": 1.9512629344,
				"z": 3.0958524203,
				"element": "H" 
			},
			{
				"x": -0.1651140815,
				"y": 2.8752688506,
				"z": 1.1183570153,
				"element": "H" 
			},
			{
				"x": 0.1407033135,
				"y": 2.6815592602,
				"z": 2.8455230107,
				"element": "H" 
			},
			{
				"x": 1.0772656029,
				"y": 0.821223671,
				"z": 1.6425804253,
				"element": "H" 
			},
			{
				"x": -0.1362031189,
				"y": -0.7908184347,
				"z": 2.8818634999,
				"element": "H" 
			},
			{
				"x": 0.9084853485,
				"y": 0.8086663463,
				"z": -0.7839296944,
				"element": "H" 
			},
			{
				"x": -0.1828135992,
				"y": -0.1511414006,
				"z": -2.8130301374,
				"element": "H" 
			},
			{
				"x": -3.4522957385,
				"y": -1.5349892007,
				"z": -0.4165416126,
				"element": "H" 
			},
			{
				"x": -2.361402736,
				"y": -0.5763975034,
				"z": 1.6272722691,
				"element": "H" 
			}
		],
		 "valence_orbital": [ 
			{
				"type": "occ",
				"energy": -0.33734,
				"method": "rhf"
			},
			{
				"type": "occ",
				"energy": -0.28451,
				"method": "rhf"
			},
			{
				"type": "occ",
				"energy": -0.26628,
				"method": "rhf"
			},
			{
				"type": "occ",
				"energy": -0.24628,
				"method": "rhf"
			},
			{
				"type": "occ",
				"energy": -0.22831,
				"method": "rhf"
			},
			{
				"type": "unocc",
				"energy": -0.0179,
				"method": "rhf"
			},
			{
				"type": "unocc",
				"energy": -0.0061,
				"method": "rhf"
			},
			{
				"type": "unocc",
				"energy": 0.07035,
				"method": "rhf"
			},
			{
				"type": "unocc",
				"energy": 0.08928,
				"method": "rhf"
			},
			{
				"type": "unocc",
				"energy": 0.10845,
				"method": "rhf"
			}
		],
		"cosmo_sigma_profile": { 
			"-0.025": 0.0,
			"-0.024": 0.0,
			"-0.023": 0.0,
			"-0.022": 0.0,
			"-0.021": 0.0,
			"-0.02": 0.0,
			"-0.019": 0.0,
			"-0.018": 0.0,
			"-0.017": 0.0,
			"-0.016": 0.281296213266,
			"-0.015": 0.744281014665,
			"-0.014": 0.79334288876,
			"-0.013": 0.826870100847,
			"-0.012": 1.18556404395,
			"-0.011": 0.590857646805,
			"-0.01": 0.258394432263,
			"-0.009": 0.615759414204,
			"-0.008": 2.4491925459,
			"-0.007": 5.40915126512,
			"-0.006": 10.4755882829,
			"-0.005": 11.7073774285,
			"-0.004": 17.3889273463,
			"-0.003": 17.2806851097,
			"-0.002": 14.7994672068,
			"-0.001": 11.5294186045,
			"0.0": 10.6622949468,
			"0.001": 13.5555583227,
			"0.002": 13.9462149339,
			"0.003": 13.2833889343,
			"0.004": 18.3384246799,
			"0.005": 9.57272685174,
			"0.006": 2.00533358901,
			"0.007": 1.87703259518,
			"0.008": 1.66607191919,
			"0.009": 1.20157590166,
			"0.01": 1.53375473161,
			"0.011": 2.50781098572,
			"0.012": 1.61016646003,
			"0.013": 1.52734244226,
			"0.014": 1.01401764727,
			"0.015": 0.524334135549,
			"0.016": 0.315809483403,
			"0.017": 0.96113668309,
			"0.018": 0.778695956112,
			"0.019": 0.530769898434,
			"0.02": 0.246614545727,
			"0.021": 0.0,
			"0.022": 0.0,
			"0.023": 0.0,
			"0.024": 0.0,
			"0.025": 0.0
		}
	}
}
