{
	 "smiles": "CCOC(=O)C1=CC2=C(OC1=O)C=CC=C2", 
	 "Tm": 367.15, 
	 "num_atms": 26, 
	 "gaussian": { 
		 "optdone": 1, 
		 "sigma_profile": "yes", 
		 "theory": "DFT", 
		 "functional": "B3LYP", 
		 "basiset": "6-31G**", 
		 "properties": { 
			 "R2extent": 5316.6695, 
			 "electric_dipole_moment_norm": 6.5843454109, 
			 "electric_quadrupole_moment_norm": 25.0802024547, 
			 "total_energy": -764.21301221, 
			 "HOMO_LUMO_gap": 0.15739, 
			 "cosmo_polarized_energy": -17.33, 
			 "cosmo_cavitation_energy": 31.26, 
			 "cosmo_dispersion_energy": -22.85, 
			 "cosmo_repulsion_energy": 1.78, 
			 "cosmo_total_nonelectrostatic_energy": 10.19, 
			 "SMD_solvation_energy": 7.5 
		},
		"coords": [
			{
				"x": -3.2910374674,
				"y": -3.2226331807,
				"z": 1.9072110807,
				"element": "C" 
			},
			{
				"x": -1.8101990119,
				"y": -3.3907642338,
				"z": 2.1893785573,
				"element": "C" 
			},
			{
				"x": -1.1699446348,
				"y": -2.1225282972,
				"z": 1.9230211561,
				"element": "O" 
			},
			{
				"x": 0.1731595229,
				"y": -2.0942330688,
				"z": 2.1292213935,
				"element": "C" 
			},
			{
				"x": 0.8022712633,
				"y": -3.0478955295,
				"z": 2.5276307485,
				"element": "O" 
			},
			{
				"x": 0.7380409964,
				"y": -0.7548016098,
				"z": 1.7815822344,
				"element": "C" 
			},
			{
				"x": -0.0032264021,
				"y": 0.1682740265,
				"z": 1.1069145151,
				"element": "C" 
			},
			{
				"x": 0.5315930217,
				"y": 1.4421422931,
				"z": 0.7275305885,
				"element": "C" 
			},
			{
				"x": 1.8683247668,
				"y": 1.7119426645,
				"z": 1.0790529726,
				"element": "C" 
			},
			{
				"x": 2.6099771567,
				"y": 0.8023331088,
				"z": 1.7606529316,
				"element": "O" 
			},
			{
				"x": 2.1284979171,
				"y": -0.4554317024,
				"z": 2.1724889856,
				"element": "C" 
			},
			{
				"x": 2.8859256079,
				"y": -1.1429608659,
				"z": 2.8023271109,
				"element": "O" 
			},
			{
				"x": 2.4734049937,
				"y": 2.9249986934,
				"z": 0.739154792,
				"element": "C" 
			},
			{
				"x": 1.7321824464,
				"y": 3.8746091977,
				"z": 0.0448368106,
				"element": "C" 
			},
			{
				"x": 0.3960892439,
				"y": 3.6286190329,
				"z": -0.315247583,
				"element": "C" 
			},
			{
				"x": -0.1968657295,
				"y": 2.4223342898,
				"z": 0.0232236124,
				"element": "C" 
			},
			{
				"x": -3.7269861183,
				"y": -2.4506290994,
				"z": 2.5479500289,
				"element": "H" 
			},
			{
				"x": -3.463036628,
				"y": -2.94350615,
				"z": 0.8634333035,
				"element": "H" 
			},
			{
				"x": -3.8139086948,
				"y": -4.1644173745,
				"z": 2.1003787685,
				"element": "H" 
			},
			{
				"x": -1.3540600412,
				"y": -4.1578536573,
				"z": 1.5554666321,
				"element": "H" 
			},
			{
				"x": -1.6181779352,
				"y": -3.6701236493,
				"z": 3.2299193315,
				"element": "H" 
			},
			{
				"x": -1.0280457031,
				"y": -0.0714095098,
				"z": 0.8425478066,
				"element": "H" 
			},
			{
				"x": 3.5048402096,
				"y": 3.0980317465,
				"z": 1.0254970004,
				"element": "H" 
			},
			{
				"x": 2.195765756,
				"y": 4.8197870105,
				"z": -0.2214045251,
				"element": "H" 
			},
			{
				"x": -0.1672782842,
				"y": 4.3813481474,
				"z": -0.8568912082,
				"element": "H" 
			},
			{
				"x": -1.2282062517,
				"y": 2.2151677172,
				"z": -0.2486770448,
				"element": "H" 
			}
		],
		 "valence_orbital": [ 
			{
				"type": "occ",
				"energy": -0.30114,
				"method": "rhf"
			},
			{
				"type": "occ",
				"energy": -0.28883,
				"method": "rhf"
			},
			{
				"type": "occ",
				"energy": -0.26497,
				"method": "rhf"
			},
			{
				"type": "occ",
				"energy": -0.26024,
				"method": "rhf"
			},
			{
				"type": "occ",
				"energy": -0.24446,
				"method": "rhf"
			},
			{
				"type": "unocc",
				"energy": -0.08707,
				"method": "rhf"
			},
			{
				"type": "unocc",
				"energy": -0.02175,
				"method": "rhf"
			},
			{
				"type": "unocc",
				"energy": -0.00477,
				"method": "rhf"
			},
			{
				"type": "unocc",
				"energy": 0.01501,
				"method": "rhf"
			},
			{
				"type": "unocc",
				"energy": 0.07779,
				"method": "rhf"
			}
		],
		"cosmo_sigma_profile": { 
			"-0.025": 0.0,
			"-0.024": 0.0,
			"-0.023": 0.0,
			"-0.022": 0.0,
			"-0.021": 0.0,
			"-0.02": 0.0,
			"-0.019": 0.0,
			"-0.018": 0.0,
			"-0.017": 0.0,
			"-0.016": 0.0,
			"-0.015": 0.0,
			"-0.014": 0.0,
			"-0.013": 0.0,
			"-0.012": 0.0,
			"-0.011": 0.0,
			"-0.01": 0.209678534961,
			"-0.009": 1.81448749429,
			"-0.008": 4.05434409404,
			"-0.007": 8.67021230718,
			"-0.006": 11.7111358741,
			"-0.005": 18.0887599401,
			"-0.004": 23.818710713,
			"-0.003": 24.8144458448,
			"-0.002": 23.7257089656,
			"-0.001": 22.9148802701,
			"0.0": 20.9513751508,
			"0.001": 15.8933779939,
			"0.002": 15.5396219042,
			"0.003": 12.6211416731,
			"0.004": 3.80921200574,
			"0.005": 3.14942385229,
			"0.006": 3.57548407589,
			"0.007": 3.2020280633,
			"0.008": 2.80768482881,
			"0.009": 3.53257500501,
			"0.01": 4.69082065878,
			"0.011": 7.36814248615,
			"0.012": 7.48374059491,
			"0.013": 2.05824343876,
			"0.014": 1.91080006686,
			"0.015": 1.14505003721,
			"0.016": 0.791919199884,
			"0.017": 0.0187153252717,
			"0.018": 0.0,
			"0.019": 0.0,
			"0.02": 0.0,
			"0.021": 0.0,
			"0.022": 0.0,
			"0.023": 0.0,
			"0.024": 0.0,
			"0.025": 0.0
		}
	}
}
