{
	 "smiles": "N#CC1=CC=NC2=CC=CC=C12", 
	 "Tm": 377.15, 
	 "num_atms": 18, 
	 "gaussian": { 
		 "optdone": 1, 
		 "sigma_profile": "yes", 
		 "theory": "DFT", 
		 "functional": "B3LYP", 
		 "basiset": "6-31G**", 
		 "properties": { 
			 "R2extent": 1961.6159, 
			 "electric_dipole_moment_norm": 2.34814457391, 
			 "electric_quadrupole_moment_norm": 17.9137434123, 
			 "total_energy": -494.169003024, 
			 "HOMO_LUMO_gap": 0.16207, 
			 "cosmo_polarized_energy": -8.99, 
			 "cosmo_cavitation_energy": 23.36, 
			 "cosmo_dispersion_energy": -16.93, 
			 "cosmo_repulsion_energy": 1.32, 
			 "cosmo_total_nonelectrostatic_energy": 7.75, 
			 "SMD_solvation_energy": 3.71 
		},
		"coords": [
			{
				"x": -2.7555684741,
				"y": -0.6233336119,
				"z": -3.1841006236,
				"element": "N" 
			},
			{
				"x": -2.2599619133,
				"y": -0.7178992193,
				"z": -2.1360472591,
				"element": "C" 
			},
			{
				"x": -1.6435543697,
				"y": -0.8274470799,
				"z": -0.8455797952,
				"element": "C" 
			},
			{
				"x": -2.0485857749,
				"y": -1.8109713049,
				"z": 0.0390930328,
				"element": "C" 
			},
			{
				"x": -1.4181151415,
				"y": -1.8887459775,
				"z": 1.3025954919,
				"element": "C" 
			},
			{
				"x": -0.4584149114,
				"y": -1.0786177099,
				"z": 1.7018090848,
				"element": "N" 
			},
			{
				"x": -0.044115929,
				"y": -0.1012481027,
				"z": 0.8439553719,
				"element": "C" 
			},
			{
				"x": 0.9901149438,
				"y": 0.7724827955,
				"z": 1.2729540067,
				"element": "C" 
			},
			{
				"x": 1.443847749,
				"y": 1.7742698426,
				"z": 0.4459066749,
				"element": "C" 
			},
			{
				"x": 0.8854261144,
				"y": 1.9478260404,
				"z": -0.8449818093,
				"element": "C" 
			},
			{
				"x": -0.1188613388,
				"y": 1.118626368,
				"z": -1.2930475393,
				"element": "C" 
			},
			{
				"x": -0.6052666783,
				"y": 0.0782742737,
				"z": -0.4616351649,
				"element": "C" 
			},
			{
				"x": -2.8334470158,
				"y": -2.5097354893,
				"z": -0.2279678391,
				"element": "H" 
			},
			{
				"x": -1.7295569754,
				"y": -2.659153166,
				"z": 2.0060677885,
				"element": "H" 
			},
			{
				"x": 1.3978623624,
				"y": 0.6151521934,
				"z": 2.2658134061,
				"element": "H" 
			},
			{
				"x": 2.2348970378,
				"y": 2.4389879786,
				"z": 0.7798652075,
				"element": "H" 
			},
			{
				"x": 1.2542650443,
				"y": 2.7429772477,
				"z": -1.4857659195,
				"element": "H" 
			},
			{
				"x": -0.5473647297,
				"y": 1.2507549215,
				"z": -2.2819341151,
				"element": "H" 
			}
		],
		 "valence_orbital": [ 
			{
				"type": "occ",
				"energy": -0.34206,
				"method": "rhf"
			},
			{
				"type": "occ",
				"energy": -0.30961,
				"method": "rhf"
			},
			{
				"type": "occ",
				"energy": -0.27449,
				"method": "rhf"
			},
			{
				"type": "occ",
				"energy": -0.27102,
				"method": "rhf"
			},
			{
				"type": "occ",
				"energy": -0.24985,
				"method": "rhf"
			},
			{
				"type": "unocc",
				"energy": -0.08778,
				"method": "rhf"
			},
			{
				"type": "unocc",
				"energy": -0.03512,
				"method": "rhf"
			},
			{
				"type": "unocc",
				"energy": -0.0132,
				"method": "rhf"
			},
			{
				"type": "unocc",
				"energy": 0.02332,
				"method": "rhf"
			},
			{
				"type": "unocc",
				"energy": 0.05423,
				"method": "rhf"
			}
		],
		"cosmo_sigma_profile": { 
			"-0.025": 0.0,
			"-0.024": 0.0,
			"-0.023": 0.0,
			"-0.022": 0.0,
			"-0.021": 0.0,
			"-0.02": 0.0,
			"-0.019": 0.0,
			"-0.018": 0.0,
			"-0.017": 0.0,
			"-0.016": 0.0,
			"-0.015": 0.0,
			"-0.014": 0.0,
			"-0.013": 0.0,
			"-0.012": 0.0,
			"-0.011": 0.0,
			"-0.01": 0.0177344829696,
			"-0.009": 1.9259513666,
			"-0.008": 3.6661832456,
			"-0.007": 9.86167057081,
			"-0.006": 11.5252396396,
			"-0.005": 12.3760206076,
			"-0.004": 10.9991843394,
			"-0.003": 15.2126177709,
			"-0.002": 13.9465473869,
			"-0.001": 17.2816527019,
			"0.0": 15.095654226,
			"0.001": 13.4831096103,
			"0.002": 14.30048604,
			"0.003": 13.381489522,
			"0.004": 5.33449739923,
			"0.005": 3.92288709742,
			"0.006": 3.42554397876,
			"0.007": 4.18200043591,
			"0.008": 4.2115828115,
			"0.009": 4.440479821,
			"0.01": 3.11720733871,
			"0.011": 3.26428787612,
			"0.012": 3.15128863144,
			"0.013": 0.935281169232,
			"0.014": 0.666143278019,
			"0.015": 0.461806452094,
			"0.016": 0.0,
			"0.017": 0.0,
			"0.018": 0.0,
			"0.019": 0.0,
			"0.02": 0.0,
			"0.021": 0.0,
			"0.022": 0.0,
			"0.023": 0.0,
			"0.024": 0.0,
			"0.025": 0.0
		}
	}
}
