{
	 "smiles": "COC(=O)C(CC1=CNC=N1)NC(C)=O", 
	 "Tm": 390.15, 
	 "num_atms": 28, 
	 "gaussian": { 
		 "optdone": 1, 
		 "sigma_profile": "yes", 
		 "theory": "DFT", 
		 "functional": "B3LYP", 
		 "basiset": "6-31G**", 
		 "properties": { 
			 "R2extent": 3750.3769, 
			 "electric_dipole_moment_norm": 6.00939338536, 
			 "electric_quadrupole_moment_norm": 25.715290543, 
			 "total_energy": -740.738934495, 
			 "HOMO_LUMO_gap": 0.22999, 
			 "cosmo_polarized_energy": -23.17, 
			 "cosmo_cavitation_energy": 32.19, 
			 "cosmo_dispersion_energy": -21.94, 
			 "cosmo_repulsion_energy": 1.77, 
			 "cosmo_total_nonelectrostatic_energy": 12.03, 
			 "SMD_solvation_energy": 6.97 
		},
		"coords": [
			{
				"x": 1.0354590384,
				"y": 1.5097194794,
				"z": 1.4394559605,
				"element": "C" 
			},
			{
				"x": 0.4838992456,
				"y": 0.8045827115,
				"z": 0.313828501,
				"element": "O" 
			},
			{
				"x": 0.8883289118,
				"y": -0.469412057,
				"z": 0.1795784694,
				"element": "C" 
			},
			{
				"x": 1.6704228495,
				"y": -1.01369787,
				"z": 0.9318460564,
				"element": "O" 
			},
			{
				"x": 0.2895082797,
				"y": -1.1701911664,
				"z": -1.056727286,
				"element": "C" 
			},
			{
				"x": -0.1862889019,
				"y": -2.5873812288,
				"z": -0.6467752782,
				"element": "C" 
			},
			{
				"x": -1.3235602752,
				"y": -2.5795196992,
				"z": 0.3316821772,
				"element": "C" 
			},
			{
				"x": -1.3543449347,
				"y": -3.0645439592,
				"z": 1.6171435875,
				"element": "C" 
			},
			{
				"x": -2.6269160697,
				"y": -2.7991551069,
				"z": 2.0820181215,
				"element": "N" 
			},
			{
				"x": -3.3028591166,
				"y": -2.1677558315,
				"z": 1.0792508749,
				"element": "C" 
			},
			{
				"x": -2.549487525,
				"y": -2.0205073263,
				"z": 0.0114647901,
				"element": "N" 
			},
			{
				"x": -0.7627083988,
				"y": -0.4528051731,
				"z": -1.739657055,
				"element": "N" 
			},
			{
				"x": -0.6330312901,
				"y": 0.5801251399,
				"z": -2.6348286921,
				"element": "C" 
			},
			{
				"x": 0.7744928343,
				"y": 0.9155516564,
				"z": -3.1095600233,
				"element": "C" 
			},
			{
				"x": -1.6142976235,
				"y": 1.1854024772,
				"z": -3.0462942135,
				"element": "O" 
			},
			{
				"x": 0.7570395303,
				"y": 1.0146091639,
				"z": 2.3728946386,
				"element": "H" 
			},
			{
				"x": 0.6107838836,
				"y": 2.5120197038,
				"z": 1.3939504185,
				"element": "H" 
			},
			{
				"x": 2.1255912669,
				"y": 1.5476783716,
				"z": 1.372848419,
				"element": "H" 
			},
			{
				"x": 1.138757923,
				"y": -1.3032724522,
				"z": -1.7380419826,
				"element": "H" 
			},
			{
				"x": -0.4830767166,
				"y": -3.1107151075,
				"z": -1.5621852968,
				"element": "H" 
			},
			{
				"x": 0.6650309805,
				"y": -3.1148243803,
				"z": -0.2116049733,
				"element": "H" 
			},
			{
				"x": -0.6068701778,
				"y": -3.551909154,
				"z": 2.2233406099,
				"element": "H" 
			},
			{
				"x": -2.9898883173,
				"y": -3.0350729197,
				"z": 2.9928904095,
				"element": "H" 
			},
			{
				"x": -4.3289028824,
				"y": -1.8427778281,
				"z": 1.1818187143,
				"element": "H" 
			},
			{
				"x": -1.708970786,
				"y": -0.6188799672,
				"z": -1.4034509664,
				"element": "H" 
			},
			{
				"x": 0.6951673141,
				"y": 1.7204667058,
				"z": -3.8396717046,
				"element": "H" 
			},
			{
				"x": 1.2605303269,
				"y": 0.0537777943,
				"z": -3.5806176801,
				"element": "H" 
			},
			{
				"x": 1.4046906308,
				"y": 1.2451880235,
				"z": -2.2774965966,
				"element": "H" 
			}
		],
		 "valence_orbital": [ 
			{
				"type": "occ",
				"energy": -0.28643,
				"method": "rhf"
			},
			{
				"type": "occ",
				"energy": -0.28189,
				"method": "rhf"
			},
			{
				"type": "occ",
				"energy": -0.23673,
				"method": "rhf"
			},
			{
				"type": "occ",
				"energy": -0.22838,
				"method": "rhf"
			},
			{
				"type": "occ",
				"energy": -0.22441,
				"method": "rhf"
			},
			{
				"type": "unocc",
				"energy": 0.00558,
				"method": "rhf"
			},
			{
				"type": "unocc",
				"energy": 0.01709,
				"method": "rhf"
			},
			{
				"type": "unocc",
				"energy": 0.04667,
				"method": "rhf"
			},
			{
				"type": "unocc",
				"energy": 0.04883,
				"method": "rhf"
			},
			{
				"type": "unocc",
				"energy": 0.0643,
				"method": "rhf"
			}
		],
		"cosmo_sigma_profile": { 
			"-0.025": 0.0,
			"-0.024": 0.0,
			"-0.023": 0.0,
			"-0.022": 0.0,
			"-0.021": 0.0,
			"-0.02": 0.0,
			"-0.019": 0.0,
			"-0.018": 0.0,
			"-0.017": 0.542249651243,
			"-0.016": 1.99662692064,
			"-0.015": 1.32663950592,
			"-0.014": 1.81497221469,
			"-0.013": 1.00599080452,
			"-0.012": 0.824540423139,
			"-0.011": 1.46290561942,
			"-0.01": 1.07742127155,
			"-0.009": 3.92101364687,
			"-0.008": 7.87720594684,
			"-0.007": 9.42500934249,
			"-0.006": 13.7437760209,
			"-0.005": 17.315995762,
			"-0.004": 21.5747739004,
			"-0.003": 19.3503066821,
			"-0.002": 16.2053508948,
			"-0.001": 16.8462215623,
			"0.0": 12.844955641,
			"0.001": 11.5252031744,
			"0.002": 12.2774425954,
			"0.003": 12.929703668,
			"0.004": 11.3972092437,
			"0.005": 8.76332208621,
			"0.006": 6.74681637564,
			"0.007": 4.84192622122,
			"0.008": 4.24974523892,
			"0.009": 3.92433609032,
			"0.01": 4.24994369844,
			"0.011": 5.27519531712,
			"0.012": 5.48122277345,
			"0.013": 4.09746312068,
			"0.014": 6.32671698578,
			"0.015": 2.9758538502,
			"0.016": 0.177113771797,
			"0.017": 0.0,
			"0.018": 0.0,
			"0.019": 0.0,
			"0.02": 0.0,
			"0.021": 0.0,
			"0.022": 0.0,
			"0.023": 0.0,
			"0.024": 0.0,
			"0.025": 0.0
		}
	}
}
