{
	 "smiles": "CC(NC(=O)C1=CC=CC=C1)C(O)=O", 
	 "Tm": 439.15, 
	 "num_atms": 25, 
	 "gaussian": { 
		 "optdone": 1, 
		 "sigma_profile": "yes", 
		 "theory": "DFT", 
		 "functional": "B3LYP", 
		 "basiset": "6-31G**", 
		 "properties": { 
			 "R2extent": 3316.4731, 
			 "electric_dipole_moment_norm": 5.62641086484, 
			 "electric_quadrupole_moment_norm": 17.4264637907, 
			 "total_energy": -668.131337272, 
			 "HOMO_LUMO_gap": 0.17919, 
			 "cosmo_polarized_energy": -15.24, 
			 "cosmo_cavitation_energy": 28.48, 
			 "cosmo_dispersion_energy": -20.4, 
			 "cosmo_repulsion_energy": 1.59, 
			 "cosmo_total_nonelectrostatic_energy": 9.67, 
			 "SMD_solvation_energy": 5.71 
		},
		"coords": [
			{
				"x": -0.6266355748,
				"y": 2.1323451403,
				"z": 0.249063318,
				"element": "C" 
			},
			{
				"x": 0.8805321833,
				"y": 2.3492771988,
				"z": 0.0815367546,
				"element": "C" 
			},
			{
				"x": 1.6532751008,
				"y": 1.1388285865,
				"z": -0.2868615874,
				"element": "N" 
			},
			{
				"x": 1.573688764,
				"y": -0.0344894765,
				"z": 0.4949428593,
				"element": "C" 
			},
			{
				"x": 2.4745965891,
				"y": -0.2936156357,
				"z": 1.298129426,
				"element": "O" 
			},
			{
				"x": 0.4373930384,
				"y": -0.9596348842,
				"z": 0.2698297664,
				"element": "C" 
			},
			{
				"x": 0.1234592751,
				"y": -1.8915237849,
				"z": 1.2727234431,
				"element": "C" 
			},
			{
				"x": -0.9111068568,
				"y": -2.8016860964,
				"z": 1.0791276167,
				"element": "C" 
			},
			{
				"x": -1.6263232746,
				"y": -2.8013558759,
				"z": -0.1228525905,
				"element": "C" 
			},
			{
				"x": -1.3041114392,
				"y": -1.8913193012,
				"z": -1.1326509405,
				"element": "C" 
			},
			{
				"x": -0.2759911649,
				"y": -0.9705527146,
				"z": -0.9389591154,
				"element": "C" 
			},
			{
				"x": 1.4290287991,
				"y": 3.0749739723,
				"z": 1.3412693571,
				"element": "C" 
			},
			{
				"x": 2.3339321855,
				"y": 2.4469401689,
				"z": 2.1133039998,
				"element": "O" 
			},
			{
				"x": 1.0474214661,
				"y": 4.1904838754,
				"z": 1.6055913609,
				"element": "O" 
			},
			{
				"x": -1.0711650097,
				"y": 1.7405758909,
				"z": -0.6678076027,
				"element": "H" 
			},
			{
				"x": -1.0789081616,
				"y": 3.0979292305,
				"z": 0.4820091136,
				"element": "H" 
			},
			{
				"x": -0.8550245179,
				"y": 1.4419656748,
				"z": 1.065476379,
				"element": "H" 
			},
			{
				"x": 1.0277099444,
				"y": 3.0652477975,
				"z": -0.7336795499,
				"element": "H" 
			},
			{
				"x": 2.6385898209,
				"y": 1.3925359865,
				"z": -0.3269387546,
				"element": "H" 
			},
			{
				"x": 0.6997800396,
				"y": -1.883221467,
				"z": 2.1917559573,
				"element": "H" 
			},
			{
				"x": -1.1597784618,
				"y": -3.5137997394,
				"z": 1.8601082096,
				"element": "H" 
			},
			{
				"x": -2.4302383605,
				"y": -3.5159513459,
				"z": -0.2744505619,
				"element": "H" 
			},
			{
				"x": -1.8487933536,
				"y": -1.9048031145,
				"z": -2.0718760682,
				"element": "H" 
			},
			{
				"x": 0.000639429,
				"y": -0.273730583,
				"z": -1.7223332801,
				"element": "H" 
			},
			{
				"x": 2.5217295402,
				"y": 1.5202804967,
				"z": 1.8524424898,
				"element": "H" 
			}
		],
		 "valence_orbital": [ 
			{
				"type": "occ",
				"energy": -0.30653,
				"method": "rhf"
			},
			{
				"type": "occ",
				"energy": -0.28162,
				"method": "rhf"
			},
			{
				"type": "occ",
				"energy": -0.27471,
				"method": "rhf"
			},
			{
				"type": "occ",
				"energy": -0.27203,
				"method": "rhf"
			},
			{
				"type": "occ",
				"energy": -0.25295,
				"method": "rhf"
			},
			{
				"type": "unocc",
				"energy": -0.07376,
				"method": "rhf"
			},
			{
				"type": "unocc",
				"energy": -0.02343,
				"method": "rhf"
			},
			{
				"type": "unocc",
				"energy": 0.00668,
				"method": "rhf"
			},
			{
				"type": "unocc",
				"energy": 0.02327,
				"method": "rhf"
			},
			{
				"type": "unocc",
				"energy": 0.06782,
				"method": "rhf"
			}
		],
		"cosmo_sigma_profile": { 
			"-0.025": 0.0,
			"-0.024": 0.0,
			"-0.023": 0.0,
			"-0.022": 0.0,
			"-0.021": 0.0,
			"-0.02": 0.0,
			"-0.019": 0.0,
			"-0.018": 0.0,
			"-0.017": 0.0,
			"-0.016": 0.0,
			"-0.015": 0.200121152653,
			"-0.014": 1.47051637824,
			"-0.013": 1.56901387633,
			"-0.012": 1.42440945662,
			"-0.011": 1.41107327235,
			"-0.01": 1.59761501054,
			"-0.009": 2.12540908485,
			"-0.008": 2.98587180649,
			"-0.007": 6.43095540022,
			"-0.006": 13.771575774,
			"-0.005": 17.567636838,
			"-0.004": 18.2489672512,
			"-0.003": 17.8218697671,
			"-0.002": 16.3388582884,
			"-0.001": 15.1882653947,
			"0.0": 14.2567611696,
			"0.001": 11.5774178846,
			"0.002": 13.3722695993,
			"0.003": 15.2484069723,
			"0.004": 11.2556851173,
			"0.005": 4.05107439995,
			"0.006": 2.75155177873,
			"0.007": 3.988701379,
			"0.008": 4.93407928246,
			"0.009": 4.45593160501,
			"0.01": 6.13051987027,
			"0.011": 7.41198267971,
			"0.012": 6.30487883549,
			"0.013": 2.2045789838,
			"0.014": 0.176058152743,
			"0.015": 0.0,
			"0.016": 0.0,
			"0.017": 0.0,
			"0.018": 0.0,
			"0.019": 0.0,
			"0.02": 0.0,
			"0.021": 0.0,
			"0.022": 0.0,
			"0.023": 0.0,
			"0.024": 0.0,
			"0.025": 0.0
		}
	}
}
