{
	 "smiles": "[O-][N+](=O)C1=C(NC2CC2)C=CC=C1NC1CC1", 
	 "Tm": 390.15, 
	 "num_atms": 32, 
	 "gaussian": { 
		 "optdone": 1, 
		 "sigma_profile": "yes", 
		 "theory": "DFT", 
		 "functional": "B3LYP", 
		 "basiset": "6-31G**", 
		 "properties": { 
			 "R2extent": 5397.8436, 
			 "electric_dipole_moment_norm": 3.52742303814, 
			 "electric_quadrupole_moment_norm": 13.8429421262, 
			 "total_energy": -780.86565672, 
			 "HOMO_LUMO_gap": 0.12216, 
			 "cosmo_polarized_energy": -9.57, 
			 "cosmo_cavitation_energy": 34.61, 
			 "cosmo_dispersion_energy": -25.17, 
			 "cosmo_repulsion_energy": 1.96, 
			 "cosmo_total_nonelectrostatic_energy": 11.4, 
			 "SMD_solvation_energy": 5.57 
		},
		"coords": [
			{
				"x": -0.5140013686,
				"y": -2.8903866257,
				"z": 0.3238671382,
				"element": "O" 
			},
			{
				"x": -0.6738639838,
				"y": -1.670237816,
				"z": 0.0985313917,
				"element": "N" 
			},
			{
				"x": -1.7653350647,
				"y": -1.2771464896,
				"z": -0.3697945962,
				"element": "O" 
			},
			{
				"x": 0.3716101274,
				"y": -0.7414929693,
				"z": 0.3724494073,
				"element": "C" 
			},
			{
				"x": 0.1725729115,
				"y": 0.6721216983,
				"z": 0.1177894105,
				"element": "C" 
			},
			{
				"x": -0.9856382606,
				"y": 1.1612708497,
				"z": -0.4110423838,
				"element": "N" 
			},
			{
				"x": -1.2693421023,
				"y": 2.5549996416,
				"z": -0.5542045166,
				"element": "C" 
			},
			{
				"x": -0.7488488069,
				"y": 3.3094543918,
				"z": -1.7605842095,
				"element": "C" 
			},
			{
				"x": -2.2114524825,
				"y": 2.9548074828,
				"z": -1.6558405269,
				"element": "C" 
			},
			{
				"x": 1.2191170996,
				"y": 1.5619396698,
				"z": 0.4263523975,
				"element": "C" 
			},
			{
				"x": 2.411451371,
				"y": 1.0915091434,
				"z": 0.9559679311,
				"element": "C" 
			},
			{
				"x": 2.6291173335,
				"y": -0.2552497699,
				"z": 1.2057253499,
				"element": "C" 
			},
			{
				"x": 1.629921675,
				"y": -1.2061142215,
				"z": 0.923529786,
				"element": "C" 
			},
			{
				"x": 1.8746001872,
				"y": -2.5250481554,
				"z": 1.1702309506,
				"element": "N" 
			},
			{
				"x": 3.0465634919,
				"y": -3.0072313442,
				"z": 1.831707479,
				"element": "C" 
			},
			{
				"x": 4.3208007525,
				"y": -3.226076183,
				"z": 1.0418754573,
				"element": "C" 
			},
			{
				"x": 3.4966733018,
				"y": -4.4033108223,
				"z": 1.5011090261,
				"element": "C" 
			},
			{
				"x": -1.7255305238,
				"y": 0.4788979063,
				"z": -0.5291505632,
				"element": "H" 
			},
			{
				"x": -1.3325710059,
				"y": 3.1154175789,
				"z": 0.3799130786,
				"element": "H" 
			},
			{
				"x": -0.4534066904,
				"y": 4.3458855137,
				"z": -1.6271246683,
				"element": "H" 
			},
			{
				"x": -0.1453228459,
				"y": 2.7480678569,
				"z": -2.4660616544,
				"element": "H" 
			},
			{
				"x": -2.9284090894,
				"y": 3.7429399697,
				"z": -1.4495747559,
				"element": "H" 
			},
			{
				"x": -2.5829736836,
				"y": 2.1653196188,
				"z": -2.3023214083,
				"element": "H" 
			},
			{
				"x": 1.0826562116,
				"y": 2.6169015329,
				"z": 0.2326131587,
				"element": "H" 
			},
			{
				"x": 3.2025675342,
				"y": 1.8020425324,
				"z": 1.1814204231,
				"element": "H" 
			},
			{
				"x": 3.5735587378,
				"y": -0.5932342537,
				"z": 1.6093434696,
				"element": "H" 
			},
			{
				"x": 1.084395977,
				"y": -3.1427623202,
				"z": 1.0252282536,
				"element": "H" 
			},
			{
				"x": 3.1652575425,
				"y": -2.679798053,
				"z": 2.8657902274,
				"element": "H" 
			},
			{
				"x": 5.2682042267,
				"y": -3.0296179936,
				"z": 1.5349584339,
				"element": "H" 
			},
			{
				"x": 4.2923160108,
				"y": -2.9740691439,
				"z": -0.0130107538,
				"element": "H" 
			},
			{
				"x": 2.9299825707,
				"y": -4.9424449104,
				"z": 0.7478205722,
				"element": "H" 
			},
			{
				"x": 3.8711288454,
				"y": -5.0210543152,
				"z": 2.3109866948,
				"element": "H" 
			}
		],
		 "valence_orbital": [ 
			{
				"type": "occ",
				"energy": -0.28974,
				"method": "rhf"
			},
			{
				"type": "occ",
				"energy": -0.27913,
				"method": "rhf"
			},
			{
				"type": "occ",
				"energy": -0.26885,
				"method": "rhf"
			},
			{
				"type": "occ",
				"energy": -0.22816,
				"method": "rhf"
			},
			{
				"type": "occ",
				"energy": -0.19216,
				"method": "rhf"
			},
			{
				"type": "unocc",
				"energy": -0.07,
				"method": "rhf"
			},
			{
				"type": "unocc",
				"energy": 0.01946,
				"method": "rhf"
			},
			{
				"type": "unocc",
				"energy": 0.02077,
				"method": "rhf"
			},
			{
				"type": "unocc",
				"energy": 0.09022,
				"method": "rhf"
			},
			{
				"type": "unocc",
				"energy": 0.09501,
				"method": "rhf"
			}
		],
		"cosmo_sigma_profile": { 
			"-0.025": 0.0,
			"-0.024": 0.0,
			"-0.023": 0.0,
			"-0.022": 0.0,
			"-0.021": 0.0,
			"-0.02": 0.0,
			"-0.019": 0.0,
			"-0.018": 0.0,
			"-0.017": 0.0,
			"-0.016": 0.0,
			"-0.015": 0.0,
			"-0.014": 0.0,
			"-0.013": 0.0,
			"-0.012": 0.0,
			"-0.011": 0.0,
			"-0.01": 0.0,
			"-0.009": 0.0,
			"-0.008": 0.0,
			"-0.007": 1.56316979838,
			"-0.006": 7.13765940285,
			"-0.005": 22.0257812251,
			"-0.004": 30.1712450291,
			"-0.003": 26.4043810922,
			"-0.002": 27.0422474429,
			"-0.001": 25.2171117986,
			"0.0": 26.0901576734,
			"0.001": 22.9661915105,
			"0.002": 21.8474652834,
			"0.003": 15.7770379907,
			"0.004": 11.6792460018,
			"0.005": 12.1658982111,
			"0.006": 4.7861173873,
			"0.007": 2.25564417949,
			"0.008": 3.40385488059,
			"0.009": 3.84992235008,
			"0.01": 3.14593666363,
			"0.011": 3.63077508522,
			"0.012": 2.96604316928,
			"0.013": 0.469175920553,
			"0.014": 0.0,
			"0.015": 0.0,
			"0.016": 0.0,
			"0.017": 0.0,
			"0.018": 0.0,
			"0.019": 0.0,
			"0.02": 0.0,
			"0.021": 0.0,
			"0.022": 0.0,
			"0.023": 0.0,
			"0.024": 0.0,
			"0.025": 0.0
		}
	}
}
