{
	 "smiles": "CC(C)(C)C1=NNC(O)=C1CCC#N", 
	 "Tm": 492.15, 
	 "num_atms": 29, 
	 "gaussian": { 
		 "optdone": 1, 
		 "sigma_profile": "yes", 
		 "theory": "DFT", 
		 "functional": "B3LYP", 
		 "basiset": "6-31G**", 
		 "properties": { 
			 "R2extent": 3545.9292, 
			 "electric_dipole_moment_norm": 2.73244943229, 
			 "electric_quadrupole_moment_norm": 10.8060320946, 
			 "total_energy": -629.55830495, 
			 "HOMO_LUMO_gap": 0.22601, 
			 "cosmo_polarized_energy": -14.04, 
			 "cosmo_cavitation_energy": 30.79, 
			 "cosmo_dispersion_energy": -21.49, 
			 "cosmo_repulsion_energy": 1.68, 
			 "cosmo_total_nonelectrostatic_energy": 10.98, 
			 "SMD_solvation_energy": 5.96 
		},
		"coords": [
			{
				"x": 0.6001875515,
				"y": 1.2840056248,
				"z": -0.2169555909,
				"element": "C" 
			},
			{
				"x": 1.2000930053,
				"y": 0.0573931786,
				"z": -0.9409920442,
				"element": "C" 
			},
			{
				"x": 2.7369666425,
				"y": 0.1756487732,
				"z": -0.8985594875,
				"element": "C" 
			},
			{
				"x": 0.751109657,
				"y": 0.0562903157,
				"z": -2.4221987577,
				"element": "C" 
			},
			{
				"x": 0.7568862634,
				"y": -1.2388327334,
				"z": -0.2683383875,
				"element": "C" 
			},
			{
				"x": 1.6809102249,
				"y": -2.1365501481,
				"z": 0.0749495487,
				"element": "N" 
			},
			{
				"x": 0.9863417168,
				"y": -3.1703905589,
				"z": 0.6084338679,
				"element": "N" 
			},
			{
				"x": -0.3491680573,
				"y": -2.9620845587,
				"z": 0.6022385149,
				"element": "C" 
			},
			{
				"x": -1.1728697054,
				"y": -3.9397493847,
				"z": 1.0445882052,
				"element": "O" 
			},
			{
				"x": -0.5644393923,
				"y": -1.7093104731,
				"z": 0.0352208818,
				"element": "C" 
			},
			{
				"x": -1.9144603567,
				"y": -1.096202577,
				"z": -0.2179361938,
				"element": "C" 
			},
			{
				"x": -2.5541987747,
				"y": -0.3982410198,
				"z": 1.0178819479,
				"element": "C" 
			},
			{
				"x": -2.8104982215,
				"y": -1.3731492437,
				"z": 2.0782557044,
				"element": "C" 
			},
			{
				"x": -2.9805537388,
				"y": -2.2229422322,
				"z": 2.852621312,
				"element": "N" 
			},
			{
				"x": 0.8792336899,
				"y": 1.2895319853,
				"z": 0.8419701208,
				"element": "H" 
			},
			{
				"x": -0.4916652495,
				"y": 1.3142459626,
				"z": -0.2826874581,
				"element": "H" 
			},
			{
				"x": 0.9756921376,
				"y": 2.2091467631,
				"z": -0.6681730244,
				"element": "H" 
			},
			{
				"x": 3.1050249321,
				"y": 0.1962008669,
				"z": 0.1308982955,
				"element": "H" 
			},
			{
				"x": 3.2141559081,
				"y": -0.6695743028,
				"z": -1.3991629529,
				"element": "H" 
			},
			{
				"x": 3.0485304334,
				"y": 1.0999617598,
				"z": -1.397398353,
				"element": "H" 
			},
			{
				"x": 1.0759490724,
				"y": 0.97730598,
				"z": -2.9197614054,
				"element": "H" 
			},
			{
				"x": -0.336453135,
				"y": -0.0105069216,
				"z": -2.527152535,
				"element": "H" 
			},
			{
				"x": 1.1894365256,
				"y": -0.7918843829,
				"z": -2.9569809684,
				"element": "H" 
			},
			{
				"x": 1.4642765719,
				"y": -3.9879935185,
				"z": 0.9542154859,
				"element": "H" 
			},
			{
				"x": -1.8366972067,
				"y": -3.5649333562,
				"z": 1.6484648565,
				"element": "H" 
			},
			{
				"x": -1.8568888556,
				"y": -0.3510901994,
				"z": -1.0143340687,
				"element": "H" 
			},
			{
				"x": -2.6114857998,
				"y": -1.8678705372,
				"z": -0.5667239967,
				"element": "H" 
			},
			{
				"x": -3.503155641,
				"y": 0.0791321073,
				"z": 0.7465411247,
				"element": "H" 
			},
			{
				"x": -1.8887601981,
				"y": 0.3785428308,
				"z": 1.4078753582,
				"element": "H" 
			}
		],
		 "valence_orbital": [ 
			{
				"type": "occ",
				"energy": -0.32603,
				"method": "rhf"
			},
			{
				"type": "occ",
				"energy": -0.32394,
				"method": "rhf"
			},
			{
				"type": "occ",
				"energy": -0.27447,
				"method": "rhf"
			},
			{
				"type": "occ",
				"energy": -0.24282,
				"method": "rhf"
			},
			{
				"type": "occ",
				"energy": -0.22164,
				"method": "rhf"
			},
			{
				"type": "unocc",
				"energy": 0.00437,
				"method": "rhf"
			},
			{
				"type": "unocc",
				"energy": 0.01937,
				"method": "rhf"
			},
			{
				"type": "unocc",
				"energy": 0.03676,
				"method": "rhf"
			},
			{
				"type": "unocc",
				"energy": 0.05069,
				"method": "rhf"
			},
			{
				"type": "unocc",
				"energy": 0.08373,
				"method": "rhf"
			}
		],
		"cosmo_sigma_profile": { 
			"-0.025": 0.0,
			"-0.024": 0.0,
			"-0.023": 0.0,
			"-0.022": 0.0,
			"-0.021": 0.0,
			"-0.02": 0.0,
			"-0.019": 0.0,
			"-0.018": 0.0,
			"-0.017": 0.0484010994307,
			"-0.016": 1.07505130707,
			"-0.015": 1.3407255928,
			"-0.014": 0.854851303681,
			"-0.013": 0.812926343215,
			"-0.012": 0.236135646788,
			"-0.011": 0.778670475771,
			"-0.01": 1.27565601108,
			"-0.009": 1.59700075529,
			"-0.008": 4.27027677787,
			"-0.007": 7.49618756527,
			"-0.006": 15.0217451425,
			"-0.005": 14.5011268154,
			"-0.004": 8.57721867616,
			"-0.003": 15.0595534346,
			"-0.002": 24.5737014936,
			"-0.001": 22.0088223712,
			"0.0": 20.0298188346,
			"0.001": 24.5623401822,
			"0.002": 16.9362611892,
			"0.003": 8.40195560367,
			"0.004": 6.89600275338,
			"0.005": 7.53462534562,
			"0.006": 5.86683684283,
			"0.007": 5.88405805813,
			"0.008": 4.58252908783,
			"0.009": 5.70652850559,
			"0.01": 5.46870067066,
			"0.011": 4.14626399543,
			"0.012": 2.94046622284,
			"0.013": 1.02829928111,
			"0.014": 1.19205993319,
			"0.015": 0.778302793548,
			"0.016": 0.302987334473,
			"0.017": 0.0,
			"0.018": 0.0,
			"0.019": 0.0,
			"0.02": 0.0,
			"0.021": 0.0,
			"0.022": 0.0,
			"0.023": 0.0,
			"0.024": 0.0,
			"0.025": 0.0
		}
	}
}
