{
	 "smiles": "COC1=C(OC)C=C(C=C1)C(C)=NO", 
	 "Tm": 421.15, 
	 "num_atms": 27, 
	 "gaussian": { 
		 "optdone": 1, 
		 "sigma_profile": "yes", 
		 "theory": "DFT", 
		 "functional": "B3LYP", 
		 "basiset": "6-31G**", 
		 "properties": { 
			 "R2extent": 3471.6582, 
			 "electric_dipole_moment_norm": 0.949613531917, 
			 "electric_quadrupole_moment_norm": 8.10528578398, 
			 "total_energy": -669.23174828, 
			 "HOMO_LUMO_gap": 0.18655, 
			 "cosmo_polarized_energy": -10.02, 
			 "cosmo_cavitation_energy": 30.35, 
			 "cosmo_dispersion_energy": -21.9, 
			 "cosmo_repulsion_energy": 1.75, 
			 "cosmo_total_nonelectrostatic_energy": 10.2, 
			 "SMD_solvation_energy": 6.82 
		},
		"coords": [
			{
				"x": 2.6467399732,
				"y": 0.3690233174,
				"z": -2.7429440811,
				"element": "C" 
			},
			{
				"x": 1.3904380464,
				"y": 1.0575530159,
				"z": -2.6859294768,
				"element": "O" 
			},
			{
				"x": 0.6091824594,
				"y": 0.7563517088,
				"z": -1.5954180338,
				"element": "C" 
			},
			{
				"x": 0.0320406578,
				"y": -0.5148808974,
				"z": -1.4196936703,
				"element": "C" 
			},
			{
				"x": 0.2615334343,
				"y": -1.5425848933,
				"z": -2.3104992576,
				"element": "O" 
			},
			{
				"x": -0.3490432489,
				"y": -1.3667534711,
				"z": -3.5944730107,
				"element": "C" 
			},
			{
				"x": -0.7653400563,
				"y": -0.7627771216,
				"z": -0.3061428033,
				"element": "C" 
			},
			{
				"x": -1.0169798725,
				"y": 0.2264317871,
				"z": 0.664358271,
				"element": "C" 
			},
			{
				"x": -0.4589500276,
				"y": 1.5031340424,
				"z": 0.454542693,
				"element": "C" 
			},
			{
				"x": 0.3379089094,
				"y": 1.7548691408,
				"z": -0.659007163,
				"element": "C" 
			},
			{
				"x": -1.8946483446,
				"y": -0.1071623262,
				"z": 1.8157545857,
				"element": "C" 
			},
			{
				"x": -2.8456584249,
				"y": -1.2790016227,
				"z": 1.6903531117,
				"element": "C" 
			},
			{
				"x": -1.9786979578,
				"y": 0.4727294973,
				"z": 2.965809441,
				"element": "N" 
			},
			{
				"x": -1.0882744115,
				"y": 1.5430283492,
				"z": 3.1536827319,
				"element": "O" 
			},
			{
				"x": 3.1367274221,
				"y": 0.7056378378,
				"z": -3.6587333522,
				"element": "H" 
			},
			{
				"x": 2.5074771632,
				"y": -0.7156510494,
				"z": -2.7725375319,
				"element": "H" 
			},
			{
				"x": 3.2706818315,
				"y": 0.6336459354,
				"z": -1.8802736088,
				"element": "H" 
			},
			{
				"x": -0.0809440608,
				"y": -2.2459457775,
				"z": -4.1840272069,
				"element": "H" 
			},
			{
				"x": 0.0170427434,
				"y": -0.4625354316,
				"z": -4.0909119513,
				"element": "H" 
			},
			{
				"x": -1.4410640315,
				"y": -1.3133048814,
				"z": -3.5006403034,
				"element": "H" 
			},
			{
				"x": -1.1812866328,
				"y": -1.7594505027,
				"z": -0.217408913,
				"element": "H" 
			},
			{
				"x": -0.644955613,
				"y": 2.2934772315,
				"z": 1.1661893753,
				"element": "H" 
			},
			{
				"x": 0.7728165297,
				"y": 2.736432376,
				"z": -0.8197647127,
				"element": "H" 
			},
			{
				"x": -2.3042811066,
				"y": -2.229377894,
				"z": 1.6211450729,
				"element": "H" 
			},
			{
				"x": -3.4703564164,
				"y": -1.1893178124,
				"z": 0.7952952635,
				"element": "H" 
			},
			{
				"x": -3.4855452938,
				"y": -1.3174516428,
				"z": 2.5728010026,
				"element": "H" 
			},
			{
				"x": -1.2938636711,
				"y": 1.8071810844,
				"z": 4.0597735282,
				"element": "H" 
			}
		],
		 "valence_orbital": [ 
			{
				"type": "occ",
				"energy": -0.26999,
				"method": "rhf"
			},
			{
				"type": "occ",
				"energy": -0.26172,
				"method": "rhf"
			},
			{
				"type": "occ",
				"energy": -0.25923,
				"method": "rhf"
			},
			{
				"type": "occ",
				"energy": -0.24055,
				"method": "rhf"
			},
			{
				"type": "occ",
				"energy": -0.21825,
				"method": "rhf"
			},
			{
				"type": "unocc",
				"energy": -0.0317,
				"method": "rhf"
			},
			{
				"type": "unocc",
				"energy": 0.00178,
				"method": "rhf"
			},
			{
				"type": "unocc",
				"energy": 0.05209,
				"method": "rhf"
			},
			{
				"type": "unocc",
				"energy": 0.0789,
				"method": "rhf"
			},
			{
				"type": "unocc",
				"energy": 0.08945,
				"method": "rhf"
			}
		],
		"cosmo_sigma_profile": { 
			"-0.025": 0.0,
			"-0.024": 0.0,
			"-0.023": 0.0,
			"-0.022": 0.0,
			"-0.021": 0.0,
			"-0.02": 0.0,
			"-0.019": 0.0,
			"-0.018": 0.0267931911522,
			"-0.017": 0.765343461179,
			"-0.016": 0.99492287843,
			"-0.015": 0.868006535673,
			"-0.014": 1.12318339343,
			"-0.013": 0.569637586634,
			"-0.012": 0.310393918093,
			"-0.011": 0.333680180983,
			"-0.01": 0.851583355008,
			"-0.009": 0.666863518758,
			"-0.008": 1.03216452625,
			"-0.007": 1.85852671048,
			"-0.006": 6.43325663475,
			"-0.005": 12.9990605791,
			"-0.004": 20.852270166,
			"-0.003": 28.955925077,
			"-0.002": 24.4506848601,
			"-0.001": 21.3825912712,
			"0.0": 17.829884147,
			"0.001": 13.5308655792,
			"0.002": 13.6454935283,
			"0.003": 16.9459923457,
			"0.004": 14.375344496,
			"0.005": 8.45038918787,
			"0.006": 6.26390094042,
			"0.007": 6.49323941781,
			"0.008": 4.95237432818,
			"0.009": 3.5207239937,
			"0.01": 3.51276254829,
			"0.011": 3.40556929235,
			"0.012": 2.02845236295,
			"0.013": 0.444509059673,
			"0.014": 0.245558008242,
			"0.015": 0.0,
			"0.016": 0.0,
			"0.017": 0.0,
			"0.018": 0.0,
			"0.019": 0.0,
			"0.02": 0.0,
			"0.021": 0.0,
			"0.022": 0.0,
			"0.023": 0.0,
			"0.024": 0.0,
			"0.025": 0.0
		}
	}
}
