{
	 "smiles": "CC(=O)C1=CC=C(Cl)S1", 
	 "Tm": 322.15, 
	 "num_atms": 14, 
	 "gaussian": { 
		 "optdone": 1, 
		 "sigma_profile": "yes", 
		 "theory": "DFT", 
		 "functional": "B3LYP", 
		 "basiset": "6-31G**", 
		 "properties": { 
			 "R2extent": 2797.5746, 
			 "electric_dipole_moment_norm": 3.65345969185, 
			 "electric_quadrupole_moment_norm": 3.43532337779, 
			 "total_energy": -1165.23838323, 
			 "HOMO_LUMO_gap": 0.17445, 
			 "cosmo_polarized_energy": -8.28, 
			 "cosmo_cavitation_energy": 22.0, 
			 "cosmo_dispersion_energy": -16.79, 
			 "cosmo_repulsion_energy": 1.33, 
			 "cosmo_total_nonelectrostatic_energy": 6.54, 
			 "SMD_solvation_energy": 4.07 
		},
		"coords": [
			{
				"x": -1.9150775447,
				"y": 1.0403757589,
				"z": 0.0476778893,
				"element": "C" 
			},
			{
				"x": -0.7080979605,
				"y": 0.1595455526,
				"z": 0.3208027181,
				"element": "C" 
			},
			{
				"x": -0.2158138243,
				"y": 0.0685640644,
				"z": 1.4376079977,
				"element": "O" 
			},
			{
				"x": -0.1392742782,
				"y": -0.5914630705,
				"z": -0.8112979123,
				"element": "C" 
			},
			{
				"x": -0.5218132662,
				"y": -0.6424073882,
				"z": -2.1346643773,
				"element": "C" 
			},
			{
				"x": 0.2899712085,
				"y": -1.4947620232,
				"z": -2.9278155846,
				"element": "C" 
			},
			{
				"x": 1.282637122,
				"y": -2.0789425128,
				"z": -2.1801166349,
				"element": "C" 
			},
			{
				"x": 2.4806006524,
				"y": -3.180395585,
				"z": -2.7645489945,
				"element": "Cl" 
			},
			{
				"x": 1.2522529882,
				"y": -1.6094659032,
				"z": -0.5096769477,
				"element": "S" 
			},
			{
				"x": -1.6785180244,
				"y": 1.8046827379,
				"z": -0.7003875129,
				"element": "H" 
			},
			{
				"x": -2.7509997804,
				"y": 0.4473302936,
				"z": -0.3386597437,
				"element": "H" 
			},
			{
				"x": -2.212405005,
				"y": 1.5234530799,
				"z": 0.9788324622,
				"element": "H" 
			},
			{
				"x": -1.3627781776,
				"y": -0.0839460411,
				"z": -2.5297882052,
				"element": "H" 
			},
			{
				"x": 0.15591589,
				"y": -1.6715689634,
				"z": -3.987565154,
				"element": "H" 
			}
		],
		 "valence_orbital": [ 
			{
				"type": "occ",
				"energy": -0.34191,
				"method": "rhf"
			},
			{
				"type": "occ",
				"energy": -0.33063,
				"method": "rhf"
			},
			{
				"type": "occ",
				"energy": -0.27399,
				"method": "rhf"
			},
			{
				"type": "occ",
				"energy": -0.25938,
				"method": "rhf"
			},
			{
				"type": "occ",
				"energy": -0.24628,
				"method": "rhf"
			},
			{
				"type": "unocc",
				"energy": -0.07183,
				"method": "rhf"
			},
			{
				"type": "unocc",
				"energy": 0.00869,
				"method": "rhf"
			},
			{
				"type": "unocc",
				"energy": 0.00958,
				"method": "rhf"
			},
			{
				"type": "unocc",
				"energy": 0.02103,
				"method": "rhf"
			},
			{
				"type": "unocc",
				"energy": 0.07175,
				"method": "rhf"
			}
		],
		"cosmo_sigma_profile": { 
			"-0.025": 0.0,
			"-0.024": 0.0,
			"-0.023": 0.0,
			"-0.022": 0.0,
			"-0.021": 0.0,
			"-0.02": 0.0,
			"-0.019": 0.0,
			"-0.018": 0.0,
			"-0.017": 0.0,
			"-0.016": 0.0,
			"-0.015": 0.0,
			"-0.014": 0.0,
			"-0.013": 0.0,
			"-0.012": 0.0,
			"-0.011": 0.0,
			"-0.01": 0.0,
			"-0.009": 1.0843826499,
			"-0.008": 3.74814366162,
			"-0.007": 5.98683946929,
			"-0.006": 10.9874069629,
			"-0.005": 8.94599177219,
			"-0.004": 9.63682704049,
			"-0.003": 10.6037682866,
			"-0.002": 14.147998219,
			"-0.001": 16.502455659,
			"0.0": 16.687096964,
			"0.001": 22.4264419894,
			"0.002": 22.8680166151,
			"0.003": 14.9295626029,
			"0.004": 3.25429025825,
			"0.005": 1.6657501404,
			"0.006": 1.96665364409,
			"0.007": 1.37318649404,
			"0.008": 1.50989838597,
			"0.009": 1.94654150596,
			"0.01": 2.26019815887,
			"0.011": 3.47143466677,
			"0.012": 3.66665821085,
			"0.013": 1.09612229733,
			"0.014": 0.087416291164,
			"0.015": 0.0,
			"0.016": 0.0,
			"0.017": 0.0,
			"0.018": 0.0,
			"0.019": 0.0,
			"0.02": 0.0,
			"0.021": 0.0,
			"0.022": 0.0,
			"0.023": 0.0,
			"0.024": 0.0,
			"0.025": 0.0
		}
	}
}
