{
	 "smiles": "CC1=CC(NC(=O)C=C)=NO1", 
	 "Tm": 443.15, 
	 "num_atms": 19, 
	 "gaussian": { 
		 "optdone": 1, 
		 "sigma_profile": "yes", 
		 "theory": "DFT", 
		 "functional": "B3LYP", 
		 "basiset": "6-31G**", 
		 "properties": { 
			 "R2extent": 2686.725, 
			 "electric_dipole_moment_norm": 3.95748571823, 
			 "electric_quadrupole_moment_norm": 9.6792841538, 
			 "total_energy": -531.456938505, 
			 "HOMO_LUMO_gap": 0.19621, 
			 "cosmo_polarized_energy": -13.1, 
			 "cosmo_cavitation_energy": 24.26, 
			 "cosmo_dispersion_energy": -17.8, 
			 "cosmo_repulsion_energy": 1.43, 
			 "cosmo_total_nonelectrostatic_energy": 7.9, 
			 "SMD_solvation_energy": 6.24 
		},
		"coords": [
			{
				"x": -2.2228535976,
				"y": 3.3144554106,
				"z": 0.0057319834,
				"element": "C" 
			},
			{
				"x": -1.7742279513,
				"y": 1.8948698757,
				"z": 0.0433536413,
				"element": "C" 
			},
			{
				"x": -1.023597632,
				"y": 1.1277427914,
				"z": -0.7932079312,
				"element": "C" 
			},
			{
				"x": -0.9846788276,
				"y": -0.1471016628,
				"z": -0.1455304834,
				"element": "C" 
			},
			{
				"x": -0.3146076022,
				"y": -1.2498738641,
				"z": -0.65816027,
				"element": "N" 
			},
			{
				"x": -0.1429036737,
				"y": -2.5660325042,
				"z": -0.2139772945,
				"element": "C" 
			},
			{
				"x": 0.5217008124,
				"y": -3.3186968473,
				"z": -0.9142905163,
				"element": "O" 
			},
			{
				"x": -0.7711099616,
				"y": -2.9722060378,
				"z": 1.0709447184,
				"element": "C" 
			},
			{
				"x": -0.6141896219,
				"y": -4.2262400237,
				"z": 1.5042691377,
				"element": "C" 
			},
			{
				"x": -1.6580200557,
				"y": -0.1443029683,
				"z": 0.9884579917,
				"element": "N" 
			},
			{
				"x": -2.1612128699,
				"y": 1.161580858,
				"z": 1.1062892894,
				"element": "O" 
			},
			{
				"x": -1.8517964272,
				"y": 3.8047672418,
				"z": -0.8961575283,
				"element": "H" 
			},
			{
				"x": -1.8537610736,
				"y": 3.8617259878,
				"z": 0.8792282792,
				"element": "H" 
			},
			{
				"x": -3.3159083733,
				"y": 3.3766943805,
				"z": 0.0140218254,
				"element": "H" 
			},
			{
				"x": -0.5642980275,
				"y": 1.4130532283,
				"z": -1.7274565695,
				"element": "H" 
			},
			{
				"x": 0.1592978766,
				"y": -1.1021368095,
				"z": -1.539572959,
				"element": "H" 
			},
			{
				"x": -1.3419688629,
				"y": -2.2351095284,
				"z": 1.6230134036,
				"element": "H" 
			},
			{
				"x": -1.0568773558,
				"y": -4.5615392695,
				"z": 2.4366973009,
				"element": "H" 
			},
			{
				"x": -0.0353867752,
				"y": -4.9396502586,
				"z": 0.925445981,
				"element": "H" 
			}
		],
		 "valence_orbital": [ 
			{
				"type": "occ",
				"energy": -0.30702,
				"method": "rhf"
			},
			{
				"type": "occ",
				"energy": -0.27324,
				"method": "rhf"
			},
			{
				"type": "occ",
				"energy": -0.26645,
				"method": "rhf"
			},
			{
				"type": "occ",
				"energy": -0.26276,
				"method": "rhf"
			},
			{
				"type": "occ",
				"energy": -0.24423,
				"method": "rhf"
			},
			{
				"type": "unocc",
				"energy": -0.04802,
				"method": "rhf"
			},
			{
				"type": "unocc",
				"energy": -0.00543,
				"method": "rhf"
			},
			{
				"type": "unocc",
				"energy": 0.06039,
				"method": "rhf"
			},
			{
				"type": "unocc",
				"energy": 0.0693,
				"method": "rhf"
			},
			{
				"type": "unocc",
				"energy": 0.08925,
				"method": "rhf"
			}
		],
		"cosmo_sigma_profile": { 
			"-0.025": 0.0,
			"-0.024": 0.0,
			"-0.023": 0.0,
			"-0.022": 0.0,
			"-0.021": 0.0,
			"-0.02": 0.0,
			"-0.019": 0.0,
			"-0.018": 0.0,
			"-0.017": 0.0,
			"-0.016": 0.175115814595,
			"-0.015": 1.22457061254,
			"-0.014": 1.18820613568,
			"-0.013": 0.894082628393,
			"-0.012": 0.924041132825,
			"-0.011": 1.44269864704,
			"-0.01": 1.41898597755,
			"-0.009": 2.03049831998,
			"-0.008": 2.71406969087,
			"-0.007": 4.79564372755,
			"-0.006": 11.2032244864,
			"-0.005": 11.2702667144,
			"-0.004": 13.8146602562,
			"-0.003": 13.596512659,
			"-0.002": 17.4363468642,
			"-0.001": 14.4629847228,
			"0.0": 15.7601006703,
			"0.001": 14.6390949116,
			"0.002": 10.7960774542,
			"0.003": 10.4476375695,
			"0.004": 5.86260658341,
			"0.005": 3.98066965585,
			"0.006": 3.44879417226,
			"0.007": 3.59874920191,
			"0.008": 7.16677728856,
			"0.009": 4.9724209705,
			"0.01": 3.77731264273,
			"0.011": 3.1491727431,
			"0.012": 4.05463919474,
			"0.013": 3.89870688464,
			"0.014": 0.0574032135477,
			"0.015": 0.0,
			"0.016": 0.0,
			"0.017": 0.0,
			"0.018": 0.0,
			"0.019": 0.0,
			"0.02": 0.0,
			"0.021": 0.0,
			"0.022": 0.0,
			"0.023": 0.0,
			"0.024": 0.0,
			"0.025": 0.0
		}
	}
}
