{
	 "smiles": "CN(C)CC1=C(N)C=C(C=C1)C(N)=O", 
	 "Tm": 430.15, 
	 "num_atms": 29, 
	 "gaussian": { 
		 "optdone": 1, 
		 "sigma_profile": "yes", 
		 "theory": "DFT", 
		 "functional": "B3LYP", 
		 "basiset": "6-31G**", 
		 "properties": { 
			 "R2extent": 4552.1487, 
			 "electric_dipole_moment_norm": 4.91793081489, 
			 "electric_quadrupole_moment_norm": 20.3114685045, 
			 "total_energy": -629.595228134, 
			 "HOMO_LUMO_gap": 0.18016, 
			 "cosmo_polarized_energy": -18.8, 
			 "cosmo_cavitation_energy": 31.58, 
			 "cosmo_dispersion_energy": -22.79, 
			 "cosmo_repulsion_energy": 1.82, 
			 "cosmo_total_nonelectrostatic_energy": 10.61, 
			 "SMD_solvation_energy": 4.96 
		},
		"coords": [
			{
				"x": 1.088336931,
				"y": -1.952308438,
				"z": -3.3671476551,
				"element": "C" 
			},
			{
				"x": 1.3946548874,
				"y": -3.0514163853,
				"z": -2.4566040448,
				"element": "N" 
			},
			{
				"x": 1.6025372827,
				"y": -4.2951001554,
				"z": -3.1863134771,
				"element": "C" 
			},
			{
				"x": 0.377306169,
				"y": -3.1944795328,
				"z": -1.4169825176,
				"element": "C" 
			},
			{
				"x": 0.4422050597,
				"y": -2.1211455271,
				"z": -0.3438572826,
				"element": "C" 
			},
			{
				"x": -0.6936245604,
				"y": -1.8434797421,
				"z": 0.45095448,
				"element": "C" 
			},
			{
				"x": -1.9017539785,
				"y": -2.5263917943,
				"z": 0.2389459025,
				"element": "N" 
			},
			{
				"x": -0.6188515231,
				"y": -0.8392953206,
				"z": 1.426924852,
				"element": "C" 
			},
			{
				"x": 0.5640723495,
				"y": -0.1227490323,
				"z": 1.6396547934,
				"element": "C" 
			},
			{
				"x": 1.700146402,
				"y": -0.4336085655,
				"z": 0.8855137437,
				"element": "C" 
			},
			{
				"x": 1.6258330558,
				"y": -1.4203099478,
				"z": -0.0936165655,
				"element": "C" 
			},
			{
				"x": 0.6817259954,
				"y": 0.9596506721,
				"z": 2.6724085655,
				"element": "C" 
			},
			{
				"x": -0.503165201,
				"y": 1.5233144305,
				"z": 3.0982688972,
				"element": "N" 
			},
			{
				"x": 1.7607945993,
				"y": 1.3148127751,
				"z": 3.1302572,
				"element": "O" 
			},
			{
				"x": 1.9122223828,
				"y": -1.8212438304,
				"z": -4.0757052375,
				"element": "H" 
			},
			{
				"x": 0.971954749,
				"y": -1.0228954017,
				"z": -2.8046119131,
				"element": "H" 
			},
			{
				"x": 0.1601249177,
				"y": -2.1221136277,
				"z": -3.946276003,
				"element": "H" 
			},
			{
				"x": 0.704065134,
				"y": -4.6399128432,
				"z": -3.7345611733,
				"element": "H" 
			},
			{
				"x": 1.9041830255,
				"y": -5.0887694884,
				"z": -2.4952435199,
				"element": "H" 
			},
			{
				"x": 2.4064384931,
				"y": -4.1597233308,
				"z": -3.9167772272,
				"element": "H" 
			},
			{
				"x": -0.6415949825,
				"y": -3.2123794714,
				"z": -1.8527409609,
				"element": "H" 
			},
			{
				"x": 0.5237176068,
				"y": -4.1784821275,
				"z": -0.9466993189,
				"element": "H" 
			},
			{
				"x": -2.5729200191,
				"y": -2.409168271,
				"z": 0.9867517778,
				"element": "H" 
			},
			{
				"x": -1.8084444175,
				"y": -3.5027779238,
				"z": -0.0053020514,
				"element": "H" 
			},
			{
				"x": -1.4890503756,
				"y": -0.6546327299,
				"z": 2.0524892503,
				"element": "H" 
			},
			{
				"x": 2.620062224,
				"y": 0.1061837407,
				"z": 1.0792451267,
				"element": "H" 
			},
			{
				"x": 2.4926192107,
				"y": -1.6644177483,
				"z": -0.6992817724,
				"element": "H" 
			},
			{
				"x": -1.3062859668,
				"y": 1.5103923854,
				"z": 2.4883346955,
				"element": "H" 
			},
			{
				"x": -0.3959094509,
				"y": 2.3390472314,
				"z": 3.6845714356,
				"element": "H" 
			}
		],
		 "valence_orbital": [ 
			{
				"type": "occ",
				"energy": -0.26558,
				"method": "rhf"
			},
			{
				"type": "occ",
				"energy": -0.24506,
				"method": "rhf"
			},
			{
				"type": "occ",
				"energy": -0.23981,
				"method": "rhf"
			},
			{
				"type": "occ",
				"energy": -0.2168,
				"method": "rhf"
			},
			{
				"type": "occ",
				"energy": -0.20678,
				"method": "rhf"
			},
			{
				"type": "unocc",
				"energy": -0.02662,
				"method": "rhf"
			},
			{
				"type": "unocc",
				"energy": 0.01174,
				"method": "rhf"
			},
			{
				"type": "unocc",
				"energy": 0.06302,
				"method": "rhf"
			},
			{
				"type": "unocc",
				"energy": 0.07305,
				"method": "rhf"
			},
			{
				"type": "unocc",
				"energy": 0.08309,
				"method": "rhf"
			}
		],
		"cosmo_sigma_profile": { 
			"-0.025": 0.0,
			"-0.024": 0.0,
			"-0.023": 0.0,
			"-0.022": 0.0,
			"-0.021": 0.0,
			"-0.02": 0.0,
			"-0.019": 0.0,
			"-0.018": 0.0,
			"-0.017": 0.0,
			"-0.016": 0.0,
			"-0.015": 0.0,
			"-0.014": 0.484198744681,
			"-0.013": 2.37254615917,
			"-0.012": 4.60089958047,
			"-0.011": 4.82699915511,
			"-0.01": 6.56025172715,
			"-0.009": 5.26179127495,
			"-0.008": 5.66069504231,
			"-0.007": 5.7720866153,
			"-0.006": 4.20307792184,
			"-0.005": 6.15019291132,
			"-0.004": 12.3168313695,
			"-0.003": 15.0959279252,
			"-0.002": 23.0941849581,
			"-0.001": 25.8886368169,
			"0.0": 26.3374519843,
			"0.001": 13.2258900461,
			"0.002": 11.3805849338,
			"0.003": 10.4228162654,
			"0.004": 10.6513068833,
			"0.005": 14.182052219,
			"0.006": 8.31835809601,
			"0.007": 2.85089391846,
			"0.008": 5.27458201065,
			"0.009": 3.47481587796,
			"0.01": 1.8678871127,
			"0.011": 2.92085073727,
			"0.012": 3.57332142391,
			"0.013": 3.98398188232,
			"0.014": 5.76991350355,
			"0.015": 0.901794117126,
			"0.016": 0.0,
			"0.017": 0.0,
			"0.018": 0.0,
			"0.019": 0.0,
			"0.02": 0.0,
			"0.021": 0.0,
			"0.022": 0.0,
			"0.023": 0.0,
			"0.024": 0.0,
			"0.025": 0.0
		}
	}
}
