{
	 "smiles": "BrC(=O)C(Br)=O", 
	 "Tm": 254.15, 
	 "num_atms": 6, 
	 "gaussian": { 
		 "optdone": 1, 
		 "sigma_profile": "yes", 
		 "theory": "DFT", 
		 "functional": "B3LYP", 
		 "basiset": "6-31G**", 
		 "properties": { 
			 "R2extent": 4096.9681, 
			 "electric_dipole_moment_norm": 0.000412310562562, 
			 "electric_quadrupole_moment_norm": 4.82785353133, 
			 "total_energy": -5369.44555364, 
			 "HOMO_LUMO_gap": 0.16623, 
			 "cosmo_polarized_energy": -4.02, 
			 "cosmo_cavitation_energy": 16.5, 
			 "cosmo_dispersion_energy": -12.89, 
			 "cosmo_repulsion_energy": 1.13, 
			 "cosmo_total_nonelectrostatic_energy": 4.75, 
			 "SMD_solvation_energy": 2.75 
		},
		"coords": [
			{
				"x": -3.9111979087,
				"y": -2.5852647424,
				"z": -0.3548427086,
				"element": "Br" 
			},
			{
				"x": -2.3590901445,
				"y": -1.4912909035,
				"z": -0.7739578319,
				"element": "C" 
			},
			{
				"x": -1.4028103046,
				"y": -1.8999992077,
				"z": -1.3436852995,
				"element": "O" 
			},
			{
				"x": -2.5318707613,
				"y": -0.0275223705,
				"z": -0.2693207025,
				"element": "C" 
			},
			{
				"x": -0.979862092,
				"y": 1.0664898692,
				"z": -0.6886102489,
				"element": "Br" 
			},
			{
				"x": -3.4882687889,
				"y": 0.3811873548,
				"z": 0.3002167914,
				"element": "O" 
			}
		],
		 "valence_orbital": [ 
			{
				"type": "occ",
				"energy": -0.32814,
				"method": "rhf"
			},
			{
				"type": "occ",
				"energy": -0.32495,
				"method": "rhf"
			},
			{
				"type": "occ",
				"energy": -0.32318,
				"method": "rhf"
			},
			{
				"type": "occ",
				"energy": -0.32089,
				"method": "rhf"
			},
			{
				"type": "occ",
				"energy": -0.29906,
				"method": "rhf"
			},
			{
				"type": "unocc",
				"energy": -0.13283,
				"method": "rhf"
			},
			{
				"type": "unocc",
				"energy": -0.06067,
				"method": "rhf"
			},
			{
				"type": "unocc",
				"energy": -0.00406,
				"method": "rhf"
			},
			{
				"type": "unocc",
				"energy": 0.01727,
				"method": "rhf"
			},
			{
				"type": "unocc",
				"energy": 0.18192,
				"method": "rhf"
			}
		],
		"cosmo_sigma_profile": { 
			"-0.025": 0.0,
			"-0.024": 0.0,
			"-0.023": 0.0,
			"-0.022": 0.0,
			"-0.021": 0.0,
			"-0.02": 0.0,
			"-0.019": 0.0,
			"-0.018": 0.0,
			"-0.017": 0.0,
			"-0.016": 0.0,
			"-0.015": 0.0,
			"-0.014": 0.0,
			"-0.013": 0.0,
			"-0.012": 0.356673719798,
			"-0.011": 1.82951443411,
			"-0.01": 1.56432666805,
			"-0.009": 2.1576176946,
			"-0.008": 1.99868132049,
			"-0.007": 1.9690721506,
			"-0.006": 5.33448296516,
			"-0.005": 7.10317764094,
			"-0.004": 6.34283008059,
			"-0.003": 6.81382341793,
			"-0.002": 8.81217866202,
			"-0.001": 10.1819661879,
			"0.0": 11.510799967,
			"0.001": 18.2132514311,
			"0.002": 20.7984832465,
			"0.003": 9.25101083442,
			"0.004": 5.9942779929,
			"0.005": 6.72782674869,
			"0.006": 10.1090638895,
			"0.007": 3.4261759796,
			"0.008": 0.0,
			"0.009": 0.0,
			"0.01": 0.0,
			"0.011": 0.0,
			"0.012": 0.0,
			"0.013": 0.0,
			"0.014": 0.0,
			"0.015": 0.0,
			"0.016": 0.0,
			"0.017": 0.0,
			"0.018": 0.0,
			"0.019": 0.0,
			"0.02": 0.0,
			"0.021": 0.0,
			"0.022": 0.0,
			"0.023": 0.0,
			"0.024": 0.0,
			"0.025": 0.0
		}
	}
}
