{
	 "smiles": "CCCCCCCCCCCCC(C)O", 
	 "Tm": 307.15, 
	 "num_atms": 45, 
	 "gaussian": { 
		 "optdone": 1, 
		 "sigma_profile": "yes", 
		 "theory": "DFT", 
		 "functional": "B3LYP", 
		 "basiset": "6-31G**", 
		 "properties": { 
			 "R2extent": 8040.4161, 
			 "electric_dipole_moment_norm": 1.65008744011, 
			 "electric_quadrupole_moment_norm": 13.3096161338, 
			 "total_energy": -626.829883893, 
			 "HOMO_LUMO_gap": 0.33401, 
			 "cosmo_polarized_energy": -6.13, 
			 "cosmo_cavitation_energy": 44.22, 
			 "cosmo_dispersion_energy": -30.33, 
			 "cosmo_repulsion_energy": 2.52, 
			 "cosmo_total_nonelectrostatic_energy": 16.41, 
			 "SMD_solvation_energy": 6.02 
		},
		"coords": [
			{
				"x": 3.9127048218,
				"y": -0.9590562728,
				"z": 5.0721510854,
				"element": "C" 
			},
			{
				"x": 2.5151384597,
				"y": -0.3625766082,
				"z": 5.2785822165,
				"element": "C" 
			},
			{
				"x": 2.2719082866,
				"y": 0.9625449931,
				"z": 4.5372231612,
				"element": "C" 
			},
			{
				"x": 2.2770024428,
				"y": 0.8530837576,
				"z": 3.0057267315,
				"element": "C" 
			},
			{
				"x": 1.9693733948,
				"y": 2.1872179326,
				"z": 2.3101824139,
				"element": "C" 
			},
			{
				"x": 2.0354876128,
				"y": 2.1455250534,
				"z": 0.7746098418,
				"element": "C" 
			},
			{
				"x": 0.9623027615,
				"y": 1.2737866485,
				"z": 0.1053872699,
				"element": "C" 
			},
			{
				"x": 1.0230967793,
				"y": 1.3348163967,
				"z": -1.4274009492,
				"element": "C" 
			},
			{
				"x": 0.0689223192,
				"y": 0.3959108699,
				"z": -2.1877338945,
				"element": "C" 
			},
			{
				"x": -1.4413444421,
				"y": 0.6655857329,
				"z": -2.0056555575,
				"element": "C" 
			},
			{
				"x": -2.1140641694,
				"y": -0.1106647276,
				"z": -0.861757134,
				"element": "C" 
			},
			{
				"x": -3.6163962803,
				"y": 0.1803383621,
				"z": -0.7500540325,
				"element": "C" 
			},
			{
				"x": -4.3236146034,
				"y": -0.493254214,
				"z": 0.4360384628,
				"element": "C" 
			},
			{
				"x": -4.3503085716,
				"y": -2.0152843989,
				"z": 0.3501888857,
				"element": "C" 
			},
			{
				"x": -5.6913234035,
				"y": -0.0828252722,
				"z": 0.5052839986,
				"element": "O" 
			},
			{
				"x": 4.095801025,
				"y": -1.2200675005,
				"z": 4.0247892656,
				"element": "H" 
			},
			{
				"x": 4.692146724,
				"y": -0.2509625452,
				"z": 5.3775490511,
				"element": "H" 
			},
			{
				"x": 4.0433812215,
				"y": -1.8710376648,
				"z": 5.6640861071,
				"element": "H" 
			},
			{
				"x": 2.3544155897,
				"y": -0.198214236,
				"z": 6.3518363246,
				"element": "H" 
			},
			{
				"x": 1.7561651308,
				"y": -1.0940592535,
				"z": 4.9681455951,
				"element": "H" 
			},
			{
				"x": 3.029323761,
				"y": 1.6958592177,
				"z": 4.8505242087,
				"element": "H" 
			},
			{
				"x": 1.3042894989,
				"y": 1.3731920167,
				"z": 4.857077321,
				"element": "H" 
			},
			{
				"x": 1.5439739818,
				"y": 0.0934617673,
				"z": 2.7021402443,
				"element": "H" 
			},
			{
				"x": 3.2538627329,
				"y": 0.4899803806,
				"z": 2.658907167,
				"element": "H" 
			},
			{
				"x": 2.6799674285,
				"y": 2.9429683732,
				"z": 2.6719364292,
				"element": "H" 
			},
			{
				"x": 0.9742049451,
				"y": 2.5372903866,
				"z": 2.6209309554,
				"element": "H" 
			},
			{
				"x": 3.030706116,
				"y": 1.7958293345,
				"z": 0.4640325435,
				"element": "H" 
			},
			{
				"x": 1.943814961,
				"y": 3.1707846547,
				"z": 0.3903912066,
				"element": "H" 
			},
			{
				"x": 1.0715049837,
				"y": 0.2299819944,
				"z": 0.4284779291,
				"element": "H" 
			},
			{
				"x": -0.0257072746,
				"y": 1.6020474475,
				"z": 0.454758202,
				"element": "H" 
			},
			{
				"x": 2.050422155,
				"y": 1.1051471608,
				"z": -1.7432055436,
				"element": "H" 
			},
			{
				"x": 0.8358082962,
				"y": 2.3688941018,
				"z": -1.7513715661,
				"element": "H" 
			},
			{
				"x": 0.2875210375,
				"y": -0.6466648952,
				"z": -1.9159817291,
				"element": "H" 
			},
			{
				"x": 0.3117277725,
				"y": 0.4803467446,
				"z": -3.2543585501,
				"element": "H" 
			},
			{
				"x": -1.6053442466,
				"y": 1.7438068501,
				"z": -1.8652125744,
				"element": "H" 
			},
			{
				"x": -1.9627442137,
				"y": 0.406538172,
				"z": -2.9366273098,
				"element": "H" 
			},
			{
				"x": -1.6272147996,
				"y": 0.1225280144,
				"z": 0.0933894796,
				"element": "H" 
			},
			{
				"x": -1.9560700348,
				"y": -1.1841059259,
				"z": -1.0286370899,
				"element": "H" 
			},
			{
				"x": -3.7570542019,
				"y": 1.2684910792,
				"z": -0.655231558,
				"element": "H" 
			},
			{
				"x": -4.1318975085,
				"y": -0.1162911987,
				"z": -1.6733824499,
				"element": "H" 
			},
			{
				"x": -3.7991780771,
				"y": -0.2029451299,
				"z": 1.3642478608,
				"element": "H" 
			},
			{
				"x": -3.3411814598,
				"y": -2.4348758194,
				"z": 0.3881637958,
				"element": "H" 
			},
			{
				"x": -4.8286713223,
				"y": -2.3341818089,
				"z": -0.5820291772,
				"element": "H" 
			},
			{
				"x": -4.9259976427,
				"y": -2.4242043274,
				"z": 1.1851068791,
				"element": "H" 
			},
			{
				"x": -5.7080619877,
				"y": 0.882614356,
				"z": 0.5357744828,
				"element": "H" 
			}
		],
		 "valence_orbital": [ 
			{
				"type": "occ",
				"energy": -0.31208,
				"method": "rhf"
			},
			{
				"type": "occ",
				"energy": -0.30351,
				"method": "rhf"
			},
			{
				"type": "occ",
				"energy": -0.30138,
				"method": "rhf"
			},
			{
				"type": "occ",
				"energy": -0.29614,
				"method": "rhf"
			},
			{
				"type": "occ",
				"energy": -0.25665,
				"method": "rhf"
			},
			{
				"type": "unocc",
				"energy": 0.07736,
				"method": "rhf"
			},
			{
				"type": "unocc",
				"energy": 0.08679,
				"method": "rhf"
			},
			{
				"type": "unocc",
				"energy": 0.09155,
				"method": "rhf"
			},
			{
				"type": "unocc",
				"energy": 0.10299,
				"method": "rhf"
			},
			{
				"type": "unocc",
				"energy": 0.10578,
				"method": "rhf"
			}
		],
		"cosmo_sigma_profile": { 
			"-0.025": 0.0,
			"-0.024": 0.0,
			"-0.023": 0.0,
			"-0.022": 0.0,
			"-0.021": 0.0,
			"-0.02": 0.0,
			"-0.019": 0.0,
			"-0.018": 0.0,
			"-0.017": 0.0,
			"-0.016": 0.0,
			"-0.015": 0.210514444061,
			"-0.014": 1.06141469531,
			"-0.013": 0.571829782531,
			"-0.012": 1.12600412016,
			"-0.011": 0.792205715339,
			"-0.01": 1.16809536482,
			"-0.009": 1.17667021529,
			"-0.008": 1.08386179337,
			"-0.007": 0.561113725435,
			"-0.006": 0.625275870296,
			"-0.005": 1.80090569877,
			"-0.004": 1.21505326929,
			"-0.003": 9.19033696273,
			"-0.002": 43.2598556443,
			"-0.001": 77.7284827031,
			"0.0": 82.9061004958,
			"0.001": 66.6488498407,
			"0.002": 26.9139210769,
			"0.003": 1.99685031907,
			"0.004": 1.44330731367,
			"0.005": 1.348023626,
			"0.006": 1.43671631195,
			"0.007": 1.49912165415,
			"0.008": 0.921614660317,
			"0.009": 1.18894243935,
			"0.01": 1.85772153223,
			"0.011": 0.710065789389,
			"0.012": 1.69653669898,
			"0.013": 1.25138014328,
			"0.014": 2.11597326376,
			"0.015": 1.5823217117,
			"0.016": 0.0,
			"0.017": 0.0,
			"0.018": 0.0,
			"0.019": 0.0,
			"0.02": 0.0,
			"0.021": 0.0,
			"0.022": 0.0,
			"0.023": 0.0,
			"0.024": 0.0,
			"0.025": 0.0
		}
	}
}
