{
	 "smiles": "CS(=O)(=O)CC1=C(F)C=C(N)C=C1", 
	 "Tm": 426.15, 
	 "num_atms": 23, 
	 "gaussian": { 
		 "optdone": 1, 
		 "sigma_profile": "yes", 
		 "theory": "DFT", 
		 "functional": "B3LYP", 
		 "basiset": "6-31G**", 
		 "properties": { 
			 "R2extent": 3939.3699, 
			 "electric_dipole_moment_norm": 2.7443495805, 
			 "electric_quadrupole_moment_norm": 24.1274423943, 
			 "total_energy": -1014.04551571, 
			 "HOMO_LUMO_gap": 0.20177, 
			 "cosmo_polarized_energy": -21.85, 
			 "cosmo_cavitation_energy": 28.82, 
			 "cosmo_dispersion_energy": -20.87, 
			 "cosmo_repulsion_energy": 1.59, 
			 "cosmo_total_nonelectrostatic_energy": 9.55, 
			 "SMD_solvation_energy": 4.93 
		},
		"coords": [
			{
				"x": -1.1641543544,
				"y": 4.8769957286,
				"z": -1.3418289876,
				"element": "C" 
			},
			{
				"x": -0.3855394741,
				"y": 3.3600115027,
				"z": -0.7324585219,
				"element": "S" 
			},
			{
				"x": -0.4566761083,
				"y": 3.3838277045,
				"z": 0.7389852504,
				"element": "O" 
			},
			{
				"x": 0.9082075605,
				"y": 3.2137698072,
				"z": -1.415240361,
				"element": "O" 
			},
			{
				"x": -1.5264554918,
				"y": 2.04246468,
				"z": -1.3302685066,
				"element": "C" 
			},
			{
				"x": -0.9811086601,
				"y": 0.6817638834,
				"z": -1.0290953392,
				"element": "C" 
			},
			{
				"x": -0.371755068,
				"y": -0.0831304359,
				"z": -2.0265902473,
				"element": "C" 
			},
			{
				"x": -0.3223848363,
				"y": 0.4117321506,
				"z": -3.2838646088,
				"element": "F" 
			},
			{
				"x": 0.170239306,
				"y": -1.3377645031,
				"z": -1.8016164198,
				"element": "C" 
			},
			{
				"x": 0.130885776,
				"y": -1.8798474507,
				"z": -0.5061496904,
				"element": "C" 
			},
			{
				"x": 0.6243413807,
				"y": -3.1550869889,
				"z": -0.2592461477,
				"element": "N" 
			},
			{
				"x": -0.4704360178,
				"y": -1.128252462,
				"z": 0.5224139154,
				"element": "C" 
			},
			{
				"x": -1.0085099242,
				"y": 0.1240221788,
				"z": 0.2581539777,
				"element": "C" 
			},
			{
				"x": -1.1813130502,
				"y": 4.8642222033,
				"z": -2.4326850276,
				"element": "H" 
			},
			{
				"x": -2.170235626,
				"y": 4.9635078382,
				"z": -0.9281267923,
				"element": "H" 
			},
			{
				"x": -0.5410331739,
				"y": 5.6991443298,
				"z": -0.9850692576,
				"element": "H" 
			},
			{
				"x": -2.4773593838,
				"y": 2.2337265503,
				"z": -0.8247648365,
				"element": "H" 
			},
			{
				"x": -1.6408106882,
				"y": 2.1956962603,
				"z": -2.4052378388,
				"element": "H" 
			},
			{
				"x": 0.6169206301,
				"y": -1.8774182446,
				"z": -2.6301799354,
				"element": "H" 
			},
			{
				"x": 0.8695707007,
				"y": -3.3505488145,
				"z": 0.7009557766,
				"element": "H" 
			},
			{
				"x": 1.3159235346,
				"y": -3.494982823,
				"z": -0.9122978319,
				"element": "H" 
			},
			{
				"x": -0.5101315064,
				"y": -1.5336824339,
				"z": 1.5294332345,
				"element": "H" 
			},
			{
				"x": -1.4481855251,
				"y": 0.6986293386,
				"z": 1.0673781958,
				"element": "H" 
			}
		],
		 "valence_orbital": [ 
			{
				"type": "occ",
				"energy": -0.3028,
				"method": "rhf"
			},
			{
				"type": "occ",
				"energy": -0.28585,
				"method": "rhf"
			},
			{
				"type": "occ",
				"energy": -0.28008,
				"method": "rhf"
			},
			{
				"type": "occ",
				"energy": -0.24792,
				"method": "rhf"
			},
			{
				"type": "occ",
				"energy": -0.21036,
				"method": "rhf"
			},
			{
				"type": "unocc",
				"energy": -0.00859,
				"method": "rhf"
			},
			{
				"type": "unocc",
				"energy": 0.00338,
				"method": "rhf"
			},
			{
				"type": "unocc",
				"energy": 0.06835,
				"method": "rhf"
			},
			{
				"type": "unocc",
				"energy": 0.07254,
				"method": "rhf"
			},
			{
				"type": "unocc",
				"energy": 0.08593,
				"method": "rhf"
			}
		],
		"cosmo_sigma_profile": { 
			"-0.025": 0.0,
			"-0.024": 0.0,
			"-0.023": 0.0,
			"-0.022": 0.0,
			"-0.021": 0.0,
			"-0.02": 0.0,
			"-0.019": 0.0,
			"-0.018": 0.0,
			"-0.017": 0.0,
			"-0.016": 0.0,
			"-0.015": 0.0,
			"-0.014": 0.0161074599332,
			"-0.013": 1.75968499092,
			"-0.012": 2.94391528034,
			"-0.011": 3.57537541484,
			"-0.01": 4.77671555743,
			"-0.009": 9.19470723342,
			"-0.008": 12.295049594,
			"-0.007": 10.4657233524,
			"-0.006": 15.2718488454,
			"-0.005": 12.1707755231,
			"-0.004": 13.0922739704,
			"-0.003": 11.9311507212,
			"-0.002": 7.67387065121,
			"-0.001": 6.63460020403,
			"0.0": 7.6636981725,
			"0.001": 8.20721253779,
			"0.002": 10.0248901202,
			"0.003": 11.6866752923,
			"0.004": 20.2338156486,
			"0.005": 14.2756422039,
			"0.006": 5.41935941995,
			"0.007": 3.24492013198,
			"0.008": 3.62475280236,
			"0.009": 4.02490337108,
			"0.01": 5.24055180974,
			"0.011": 8.89524275022,
			"0.012": 10.6575885563,
			"0.013": 3.30025495053,
			"0.014": 0.168682595122,
			"0.015": 0.0,
			"0.016": 0.0,
			"0.017": 0.0,
			"0.018": 0.0,
			"0.019": 0.0,
			"0.02": 0.0,
			"0.021": 0.0,
			"0.022": 0.0,
			"0.023": 0.0,
			"0.024": 0.0,
			"0.025": 0.0
		}
	}
}
