{
	 "smiles": "CC1=NN2C=NN=C2C(C)=C1CCC(O)=O", 
	 "Tm": 527.15, 
	 "num_atms": 28, 
	 "gaussian": { 
		 "optdone": 1, 
		 "sigma_profile": "yes", 
		 "theory": "DFT", 
		 "functional": "B3LYP", 
		 "basiset": "6-31G**", 
		 "properties": { 
			 "R2extent": 5162.7545, 
			 "electric_dipole_moment_norm": 6.13189840098, 
			 "electric_quadrupole_moment_norm": 27.6258659164, 
			 "total_energy": -757.722918318, 
			 "HOMO_LUMO_gap": 0.17167, 
			 "cosmo_polarized_energy": -21.65, 
			 "cosmo_cavitation_energy": 31.29, 
			 "cosmo_dispersion_energy": -22.28, 
			 "cosmo_repulsion_energy": 1.71, 
			 "cosmo_total_nonelectrostatic_energy": 10.73, 
			 "SMD_solvation_energy": 4.28 
		},
		"coords": [
			{
				"x": 0.8928940766,
				"y": -1.627281038,
				"z": 0.1919688222,
				"element": "C" 
			},
			{
				"x": -0.5816831477,
				"y": -1.4098675583,
				"z": 0.4265701398,
				"element": "C" 
			},
			{
				"x": -1.2262077856,
				"y": -2.5000177672,
				"z": 0.7781270208,
				"element": "N" 
			},
			{
				"x": -2.5425583746,
				"y": -2.3254041239,
				"z": 1.0271192023,
				"element": "N" 
			},
			{
				"x": -3.4688429729,
				"y": -3.2561358905,
				"z": 1.4017315527,
				"element": "C" 
			},
			{
				"x": -4.6396862661,
				"y": -2.6728055625,
				"z": 1.5732396246,
				"element": "N" 
			},
			{
				"x": -4.5064817138,
				"y": -1.3352396978,
				"z": 1.3168505015,
				"element": "N" 
			},
			{
				"x": -3.2370724679,
				"y": -1.1282396062,
				"z": 0.9858432693,
				"element": "C" 
			},
			{
				"x": -2.5318521307,
				"y": 0.0507418328,
				"z": 0.6153203155,
				"element": "C" 
			},
			{
				"x": -3.3016645931,
				"y": 1.3460223869,
				"z": 0.6300856674,
				"element": "C" 
			},
			{
				"x": -1.1924968583,
				"y": -0.095744254,
				"z": 0.3061141566,
				"element": "C" 
			},
			{
				"x": -0.3464788206,
				"y": 1.0915572006,
				"z": -0.1146038732,
				"element": "C" 
			},
			{
				"x": -0.0100537629,
				"y": 1.163901666,
				"z": -1.6276537335,
				"element": "C" 
			},
			{
				"x": -1.212905487,
				"y": 1.2973083014,
				"z": -2.5368771985,
				"element": "C" 
			},
			{
				"x": -1.8860544714,
				"y": 2.4600227256,
				"z": -2.3219818152,
				"element": "O" 
			},
			{
				"x": -1.555278724,
				"y": 0.4970893763,
				"z": -3.3760981294,
				"element": "O" 
			},
			{
				"x": 1.1366132447,
				"y": -2.6663758989,
				"z": 0.4156364862,
				"element": "H" 
			},
			{
				"x": 1.1778920292,
				"y": -1.4227655677,
				"z": -0.8444281568,
				"element": "H" 
			},
			{
				"x": 1.500034215,
				"y": -0.9797480777,
				"z": 0.8338899636,
				"element": "H" 
			},
			{
				"x": -3.2393224722,
				"y": -4.302833828,
				"z": 1.5266772246,
				"element": "H" 
			},
			{
				"x": -3.0966227777,
				"y": 1.9561917322,
				"z": -0.2511103899,
				"element": "H" 
			},
			{
				"x": -3.0326344471,
				"y": 1.9370642035,
				"z": 1.5142380808,
				"element": "H" 
			},
			{
				"x": -4.3709323064,
				"y": 1.1364407219,
				"z": 0.6869243921,
				"element": "H" 
			},
			{
				"x": -0.8458648917,
				"y": 2.0186514372,
				"z": 0.17392886,
				"element": "H" 
			},
			{
				"x": 0.605654013,
				"y": 1.0769814414,
				"z": 0.4268807817,
				"element": "H" 
			},
			{
				"x": 0.5303946478,
				"y": 0.2770059838,
				"z": -1.9593247576,
				"element": "H" 
			},
			{
				"x": 0.634030567,
				"y": 2.0355330422,
				"z": -1.7925263309,
				"element": "H" 
			},
			{
				"x": -2.6311183218,
				"y": 2.4593468191,
				"z": -2.9470416766,
				"element": "H" 
			}
		],
		 "valence_orbital": [ 
			{
				"type": "occ",
				"energy": -0.29895,
				"method": "rhf"
			},
			{
				"type": "occ",
				"energy": -0.28669,
				"method": "rhf"
			},
			{
				"type": "occ",
				"energy": -0.27486,
				"method": "rhf"
			},
			{
				"type": "occ",
				"energy": -0.24864,
				"method": "rhf"
			},
			{
				"type": "occ",
				"energy": -0.2343,
				"method": "rhf"
			},
			{
				"type": "unocc",
				"energy": -0.06263,
				"method": "rhf"
			},
			{
				"type": "unocc",
				"energy": -0.0125,
				"method": "rhf"
			},
			{
				"type": "unocc",
				"energy": -0.00863,
				"method": "rhf"
			},
			{
				"type": "unocc",
				"energy": 0.04422,
				"method": "rhf"
			},
			{
				"type": "unocc",
				"energy": 0.05626,
				"method": "rhf"
			}
		],
		"cosmo_sigma_profile": { 
			"-0.025": 0.0,
			"-0.024": 0.0,
			"-0.023": 0.0,
			"-0.022": 0.0,
			"-0.021": 0.0,
			"-0.02": 0.0,
			"-0.019": 0.109378338537,
			"-0.018": 0.691940052751,
			"-0.017": 0.900679417751,
			"-0.016": 0.913344245669,
			"-0.015": 1.08797178059,
			"-0.014": 0.225049886703,
			"-0.013": 0.226081866589,
			"-0.012": 0.719742123112,
			"-0.011": 1.8533011338,
			"-0.01": 2.63614690856,
			"-0.009": 1.54113105003,
			"-0.008": 3.69923244425,
			"-0.007": 7.42595158508,
			"-0.006": 14.0465396042,
			"-0.005": 18.6896448475,
			"-0.004": 21.105974969,
			"-0.003": 23.6905274097,
			"-0.002": 28.1251475853,
			"-0.001": 24.8664188338,
			"0.0": 11.1837032218,
			"0.001": 8.88703945551,
			"0.002": 7.68047205066,
			"0.003": 5.62954749455,
			"0.004": 5.16789261495,
			"0.005": 6.24796443743,
			"0.006": 5.30688592202,
			"0.007": 4.35556181883,
			"0.008": 4.72992102246,
			"0.009": 5.75377394199,
			"0.01": 5.58790922976,
			"0.011": 6.94266573741,
			"0.012": 7.10415091374,
			"0.013": 4.07541881331,
			"0.014": 3.49133618511,
			"0.015": 2.13485791542,
			"0.016": 1.94532167572,
			"0.017": 0.137716411447,
			"0.018": 0.0,
			"0.019": 0.0,
			"0.02": 0.0,
			"0.021": 0.0,
			"0.022": 0.0,
			"0.023": 0.0,
			"0.024": 0.0,
			"0.025": 0.0
		}
	}
}
