{
	 "smiles": "CC1=C(Br)C(O)=NC(N)=N1", 
	 "Tm": 518.15, 
	 "num_atms": 16, 
	 "gaussian": { 
		 "optdone": 1, 
		 "sigma_profile": "yes", 
		 "theory": "DFT", 
		 "functional": "B3LYP", 
		 "basiset": "6-31G**", 
		 "properties": { 
			 "R2extent": 4617.3263, 
			 "electric_dipole_moment_norm": 1.35030771308, 
			 "electric_quadrupole_moment_norm": 11.0392744141, 
			 "total_energy": -3005.05532572, 
			 "HOMO_LUMO_gap": 0.20036, 
			 "cosmo_polarized_energy": -11.46, 
			 "cosmo_cavitation_energy": 22.36, 
			 "cosmo_dispersion_energy": -17.5, 
			 "cosmo_repulsion_energy": 1.43, 
			 "cosmo_total_nonelectrostatic_energy": 6.3, 
			 "SMD_solvation_energy": 0.48 
		},
		"coords": [
			{
				"x": -3.2862391886,
				"y": -1.2989401058,
				"z": 2.346715427,
				"element": "C" 
			},
			{
				"x": -1.8284053,
				"y": -1.0362915973,
				"z": 2.0888826517,
				"element": "C" 
			},
			{
				"x": -0.9379020744,
				"y": -2.0451583272,
				"z": 1.7152958342,
				"element": "C" 
			},
			{
				"x": -1.4873339574,
				"y": -3.8675668268,
				"z": 1.4938479421,
				"element": "Br" 
			},
			{
				"x": 0.4071448488,
				"y": -1.6958526306,
				"z": 1.4861289707,
				"element": "C" 
			},
			{
				"x": 1.3376560784,
				"y": -2.5868143717,
				"z": 1.1130328447,
				"element": "O" 
			},
			{
				"x": 0.8303831375,
				"y": -0.4482968927,
				"z": 1.6262948055,
				"element": "N" 
			},
			{
				"x": -0.0942629988,
				"y": 0.4532861796,
				"z": 1.9991899471,
				"element": "C" 
			},
			{
				"x": 0.3420056581,
				"y": 1.7300832108,
				"z": 2.1834541119,
				"element": "N" 
			},
			{
				"x": -1.4020147686,
				"y": 0.2256849494,
				"z": 2.2310767947,
				"element": "N" 
			},
			{
				"x": -3.415592951,
				"y": -2.0239672065,
				"z": 3.1573101572,
				"element": "H" 
			},
			{
				"x": -3.7761322205,
				"y": -0.3633412385,
				"z": 2.6171026952,
				"element": "H" 
			},
			{
				"x": -3.7716068819,
				"y": -1.7214173378,
				"z": 1.4605450527,
				"element": "H" 
			},
			{
				"x": 0.9175266312,
				"y": -3.4597465853,
				"z": 1.0410728239,
				"element": "H" 
			},
			{
				"x": 1.2601746891,
				"y": 1.9676545592,
				"z": 1.8456873171,
				"element": "H" 
			},
			{
				"x": -0.352300702,
				"y": 2.4521842212,
				"z": 2.2822626242,
				"element": "H" 
			}
		],
		 "valence_orbital": [ 
			{
				"type": "occ",
				"energy": -0.31488,
				"method": "rhf"
			},
			{
				"type": "occ",
				"energy": -0.29968,
				"method": "rhf"
			},
			{
				"type": "occ",
				"energy": -0.27883,
				"method": "rhf"
			},
			{
				"type": "occ",
				"energy": -0.25267,
				"method": "rhf"
			},
			{
				"type": "occ",
				"energy": -0.22249,
				"method": "rhf"
			},
			{
				"type": "unocc",
				"energy": -0.02213,
				"method": "rhf"
			},
			{
				"type": "unocc",
				"energy": -0.00214,
				"method": "rhf"
			},
			{
				"type": "unocc",
				"energy": 0.00187,
				"method": "rhf"
			},
			{
				"type": "unocc",
				"energy": 0.08681,
				"method": "rhf"
			},
			{
				"type": "unocc",
				"energy": 0.09269,
				"method": "rhf"
			}
		],
		"cosmo_sigma_profile": { 
			"-0.025": 0.0,
			"-0.024": 0.0,
			"-0.023": 0.0,
			"-0.022": 0.0,
			"-0.021": 0.0,
			"-0.02": 0.0,
			"-0.019": 0.0,
			"-0.018": 0.0,
			"-0.017": 0.0,
			"-0.016": 0.0820092201857,
			"-0.015": 0.631150953288,
			"-0.014": 1.60810962931,
			"-0.013": 2.2096774543,
			"-0.012": 3.64891267377,
			"-0.011": 3.01622986511,
			"-0.01": 2.14546313834,
			"-0.009": 2.89658843251,
			"-0.008": 3.52708880398,
			"-0.007": 2.43010499439,
			"-0.006": 2.36474554244,
			"-0.005": 6.99038372707,
			"-0.004": 10.6316007047,
			"-0.003": 10.6755651068,
			"-0.002": 16.1716570019,
			"-0.001": 18.0453646131,
			"0.0": 16.3974401007,
			"0.001": 12.9980960264,
			"0.002": 10.9331641568,
			"0.003": 10.23146237,
			"0.004": 8.27043377261,
			"0.005": 5.9112294068,
			"0.006": 4.2072797758,
			"0.007": 4.19472695627,
			"0.008": 3.3221964566,
			"0.009": 4.02582360518,
			"0.01": 4.11008466466,
			"0.011": 3.56273931714,
			"0.012": 2.25778119627,
			"0.013": 2.03238220279,
			"0.014": 1.45148479345,
			"0.015": 0.159910655387,
			"0.016": 0.0,
			"0.017": 0.0,
			"0.018": 0.0,
			"0.019": 0.0,
			"0.02": 0.0,
			"0.021": 0.0,
			"0.022": 0.0,
			"0.023": 0.0,
			"0.024": 0.0,
			"0.025": 0.0
		}
	}
}
