{
	 "smiles": "CC1=CC(C=O)=C(C)N1C1=CC(F)=CC=C1", 
	 "Tm": 352.15, 
	 "num_atms": 28, 
	 "gaussian": { 
		 "optdone": 1, 
		 "sigma_profile": "yes", 
		 "theory": "DFT", 
		 "functional": "B3LYP", 
		 "basiset": "6-31G**", 
		 "properties": { 
			 "R2extent": 4235.855, 
			 "electric_dipole_moment_norm": 5.88462332949, 
			 "electric_quadrupole_moment_norm": 22.2622475548, 
			 "total_energy": -732.420738531, 
			 "HOMO_LUMO_gap": 0.17362, 
			 "cosmo_polarized_energy": -12.72, 
			 "cosmo_cavitation_energy": 32.89, 
			 "cosmo_dispersion_energy": -22.26, 
			 "cosmo_repulsion_energy": 1.72, 
			 "cosmo_total_nonelectrostatic_energy": 12.34, 
			 "SMD_solvation_energy": 7.43 
		},
		"coords": [
			{
				"x": -0.7227911775,
				"y": 0.5533029648,
				"z": -2.9896142115,
				"element": "C" 
			},
			{
				"x": -1.1080154796,
				"y": -0.4657467027,
				"z": -1.9662249083,
				"element": "C" 
			},
			{
				"x": -2.0808598011,
				"y": -1.4268437523,
				"z": -1.9858477863,
				"element": "C" 
			},
			{
				"x": -2.0109422021,
				"y": -2.1583139483,
				"z": -0.7560178867,
				"element": "C" 
			},
			{
				"x": -2.8782140605,
				"y": -3.2634888419,
				"z": -0.3780145962,
				"element": "C" 
			},
			{
				"x": -3.7789348135,
				"y": -3.7073725181,
				"z": -1.0748268196,
				"element": "O" 
			},
			{
				"x": -0.9725105492,
				"y": -1.6167021069,
				"z": -0.0013303301,
				"element": "C" 
			},
			{
				"x": -0.4634414453,
				"y": -1.9645251654,
				"z": 1.3615686791,
				"element": "C" 
			},
			{
				"x": -0.4276235605,
				"y": -0.587655532,
				"z": -0.7428494294,
				"element": "N" 
			},
			{
				"x": 0.667875492,
				"y": 0.2340905978,
				"z": -0.3300218524,
				"element": "C" 
			},
			{
				"x": 0.4183747798,
				"y": 1.5264941867,
				"z": 0.1419888305,
				"element": "C" 
			},
			{
				"x": 1.4993031035,
				"y": 2.3094150821,
				"z": 0.5310630521,
				"element": "C" 
			},
			{
				"x": 1.2641161927,
				"y": 3.5552118208,
				"z": 0.985461607,
				"element": "F" 
			},
			{
				"x": 2.8100873607,
				"y": 1.8478168244,
				"z": 0.4734925738,
				"element": "C" 
			},
			{
				"x": 3.0393862794,
				"y": 0.5543864509,
				"z": 0.0030759631,
				"element": "C" 
			},
			{
				"x": 1.9765880945,
				"y": -0.2544741089,
				"z": -0.4032415404,
				"element": "C" 
			},
			{
				"x": -0.8526060153,
				"y": 1.5811662885,
				"z": -2.6307798578,
				"element": "H" 
			},
			{
				"x": 0.3235544036,
				"y": 0.4506842763,
				"z": -3.3013646539,
				"element": "H" 
			},
			{
				"x": -1.3505760503,
				"y": 0.4271872745,
				"z": -3.8744592291,
				"element": "H" 
			},
			{
				"x": -2.783085693,
				"y": -1.6158013103,
				"z": -2.7846945618,
				"element": "H" 
			},
			{
				"x": -2.6760830067,
				"y": -3.7102181281,
				"z": 0.6215748145,
				"element": "H" 
			},
			{
				"x": -1.0744170627,
				"y": -2.7533291092,
				"z": 1.8030888222,
				"element": "H" 
			},
			{
				"x": 0.5733914794,
				"y": -2.3192728793,
				"z": 1.3371047662,
				"element": "H" 
			},
			{
				"x": -0.4919632392,
				"y": -1.1004784034,
				"z": 2.0356032976,
				"element": "H" 
			},
			{
				"x": -0.5917376447,
				"y": 1.9136123694,
				"z": 0.2115242086,
				"element": "H" 
			},
			{
				"x": 3.6201639226,
				"y": 2.4950835289,
				"z": 0.7906414375,
				"element": "H" 
			},
			{
				"x": 4.0557159494,
				"y": 0.1773059958,
				"z": -0.0526370695,
				"element": "H" 
			},
			{
				"x": 2.1506447438,
				"y": -1.2555351542,
				"z": -0.7830633195,
				"element": "H" 
			}
		],
		 "valence_orbital": [ 
			{
				"type": "occ",
				"energy": -0.28267,
				"method": "rhf"
			},
			{
				"type": "occ",
				"energy": -0.26725,
				"method": "rhf"
			},
			{
				"type": "occ",
				"energy": -0.24376,
				"method": "rhf"
			},
			{
				"type": "occ",
				"energy": -0.23096,
				"method": "rhf"
			},
			{
				"type": "occ",
				"energy": -0.21133,
				"method": "rhf"
			},
			{
				"type": "unocc",
				"energy": -0.03771,
				"method": "rhf"
			},
			{
				"type": "unocc",
				"energy": -0.02338,
				"method": "rhf"
			},
			{
				"type": "unocc",
				"energy": -0.02192,
				"method": "rhf"
			},
			{
				"type": "unocc",
				"energy": 0.03457,
				"method": "rhf"
			},
			{
				"type": "unocc",
				"energy": 0.06701,
				"method": "rhf"
			}
		],
		"cosmo_sigma_profile": { 
			"-0.025": 0.0,
			"-0.024": 0.0,
			"-0.023": 0.0,
			"-0.022": 0.0,
			"-0.021": 0.0,
			"-0.02": 0.0,
			"-0.019": 0.0,
			"-0.018": 0.0,
			"-0.017": 0.0,
			"-0.016": 0.0,
			"-0.015": 0.0,
			"-0.014": 0.0,
			"-0.013": 0.0,
			"-0.012": 0.0,
			"-0.011": 0.0,
			"-0.01": 0.0,
			"-0.009": 0.053434940366,
			"-0.008": 2.16389427513,
			"-0.007": 8.07789131272,
			"-0.006": 11.5953029441,
			"-0.005": 18.7144993608,
			"-0.004": 23.5373220415,
			"-0.003": 22.1754109595,
			"-0.002": 24.6828410394,
			"-0.001": 26.0304574276,
			"0.0": 24.2152094555,
			"0.001": 18.2905392851,
			"0.002": 15.8139745325,
			"0.003": 15.3791484211,
			"0.004": 16.1315682596,
			"0.005": 8.30402803448,
			"0.006": 5.97968917367,
			"0.007": 2.52270723274,
			"0.008": 1.33429531064,
			"0.009": 2.48558612769,
			"0.01": 2.22149799294,
			"0.011": 1.91796621699,
			"0.012": 3.53506302548,
			"0.013": 5.03567180728,
			"0.014": 2.06183181547,
			"0.015": 0.260395811746,
			"0.016": 0.0,
			"0.017": 0.0,
			"0.018": 0.0,
			"0.019": 0.0,
			"0.02": 0.0,
			"0.021": 0.0,
			"0.022": 0.0,
			"0.023": 0.0,
			"0.024": 0.0,
			"0.025": 0.0
		}
	}
}
