{
	 "smiles": "BrC1=CC=CC2=C1C=CN=C2", 
	 "Tm": 355.15, 
	 "num_atms": 17, 
	 "gaussian": { 
		 "optdone": 1, 
		 "sigma_profile": "yes", 
		 "theory": "DFT", 
		 "functional": "B3LYP", 
		 "basiset": "6-31G**", 
		 "properties": { 
			 "R2extent": 2858.1237, 
			 "electric_dipole_moment_norm": 2.12063972188, 
			 "electric_quadrupole_moment_norm": 9.03085002644, 
			 "total_energy": -2972.73154522, 
			 "HOMO_LUMO_gap": 0.16989, 
			 "cosmo_polarized_energy": -6.48, 
			 "cosmo_cavitation_energy": 23.12, 
			 "cosmo_dispersion_energy": -17.86, 
			 "cosmo_repulsion_energy": 1.39, 
			 "cosmo_total_nonelectrostatic_energy": 6.65, 
			 "SMD_solvation_energy": 1.29 
		},
		"coords": [
			{
				"x": -0.48559663,
				"y": -2.8115639774,
				"z": 1.8908653714,
				"element": "Br" 
			},
			{
				"x": 0.3116115639,
				"y": -1.8306704359,
				"z": 0.4547967832,
				"element": "C" 
			},
			{
				"x": 1.5102033,
				"y": -2.2734785068,
				"z": -0.0557800209,
				"element": "C" 
			},
			{
				"x": 2.1342604892,
				"y": -1.5767793205,
				"z": -1.1187684956,
				"element": "C" 
			},
			{
				"x": 1.5484382422,
				"y": -0.4517633659,
				"z": -1.6503458901,
				"element": "C" 
			},
			{
				"x": 0.3138214219,
				"y": 0.0177039183,
				"z": -1.1359212722,
				"element": "C" 
			},
			{
				"x": -0.3343085211,
				"y": -0.6714213427,
				"z": -0.0615369038,
				"element": "C" 
			},
			{
				"x": -1.5656798003,
				"y": -0.1396660858,
				"z": 0.3969016859,
				"element": "C" 
			},
			{
				"x": -2.0759546539,
				"y": 0.9920209301,
				"z": -0.1965659982,
				"element": "C" 
			},
			{
				"x": -1.4721972168,
				"y": 1.6585830797,
				"z": -1.2186016999,
				"element": "N" 
			},
			{
				"x": -0.3285149415,
				"y": 1.1770491777,
				"z": -1.6550567837,
				"element": "C" 
			},
			{
				"x": 1.9777790771,
				"y": -3.159605008,
				"z": 0.3583195421,
				"element": "H" 
			},
			{
				"x": 3.0795678127,
				"y": -1.9441596642,
				"z": -1.5058475083,
				"element": "H" 
			},
			{
				"x": 2.0194121257,
				"y": 0.0897350322,
				"z": -2.4660673701,
				"element": "H" 
			},
			{
				"x": -2.0964952589,
				"y": -0.6240803488,
				"z": 1.2080213353,
				"element": "H" 
			},
			{
				"x": -3.019403252,
				"y": 1.4116115504,
				"z": 0.1442462391,
				"element": "H" 
			},
			{
				"x": 0.1518562417,
				"y": 1.7141843675,
				"z": -2.4740590141,
				"element": "H" 
			}
		],
		 "valence_orbital": [ 
			{
				"type": "occ",
				"energy": -0.29512,
				"method": "rhf"
			},
			{
				"type": "occ",
				"energy": -0.28864,
				"method": "rhf"
			},
			{
				"type": "occ",
				"energy": -0.27154,
				"method": "rhf"
			},
			{
				"type": "occ",
				"energy": -0.26015,
				"method": "rhf"
			},
			{
				"type": "occ",
				"energy": -0.23256,
				"method": "rhf"
			},
			{
				"type": "unocc",
				"energy": -0.06267,
				"method": "rhf"
			},
			{
				"type": "unocc",
				"energy": -0.03338,
				"method": "rhf"
			},
			{
				"type": "unocc",
				"energy": 0.00119,
				"method": "rhf"
			},
			{
				"type": "unocc",
				"energy": 0.01469,
				"method": "rhf"
			},
			{
				"type": "unocc",
				"energy": 0.0755,
				"method": "rhf"
			}
		],
		"cosmo_sigma_profile": { 
			"-0.025": 0.0,
			"-0.024": 0.0,
			"-0.023": 0.0,
			"-0.022": 0.0,
			"-0.021": 0.0,
			"-0.02": 0.0,
			"-0.019": 0.0,
			"-0.018": 0.0,
			"-0.017": 0.0,
			"-0.016": 0.0,
			"-0.015": 0.0,
			"-0.014": 0.0,
			"-0.013": 0.0,
			"-0.012": 0.0,
			"-0.011": 0.0,
			"-0.01": 0.0,
			"-0.009": 0.0,
			"-0.008": 1.53696249902,
			"-0.007": 10.0449875693,
			"-0.006": 11.9570422209,
			"-0.005": 11.6777150224,
			"-0.004": 9.77869091016,
			"-0.003": 9.75195313094,
			"-0.002": 9.45555789589,
			"-0.001": 10.9743031705,
			"0.0": 18.5852889382,
			"0.001": 29.5810350904,
			"0.002": 25.0016423276,
			"0.003": 15.9126125652,
			"0.004": 10.6680266946,
			"0.005": 3.60081762517,
			"0.006": 0.990777940598,
			"0.007": 1.65432684413,
			"0.008": 1.2649088774,
			"0.009": 1.55352417687,
			"0.01": 0.775518085184,
			"0.011": 0.421660018932,
			"0.012": 1.00123536328,
			"0.013": 1.43626813448,
			"0.014": 0.606213752347,
			"0.015": 0.665814571012,
			"0.016": 1.02686694429,
			"0.017": 0.118641051941,
			"0.018": 0.0,
			"0.019": 0.0,
			"0.02": 0.0,
			"0.021": 0.0,
			"0.022": 0.0,
			"0.023": 0.0,
			"0.024": 0.0,
			"0.025": 0.0
		}
	}
}
