{
	 "smiles": "OC(=O)CC(O)(C(F)(F)F)C(F)(F)F", 
	 "Tm": 360.15, 
	 "num_atms": 18, 
	 "gaussian": { 
		 "optdone": 1, 
		 "sigma_profile": "yes", 
		 "theory": "DFT", 
		 "functional": "B3LYP", 
		 "basiset": "6-31G**", 
		 "properties": { 
			 "R2extent": 2946.9348, 
			 "electric_dipole_moment_norm": 1.7491090532, 
			 "electric_quadrupole_moment_norm": 7.95015529094, 
			 "total_energy": -1017.66636134, 
			 "HOMO_LUMO_gap": 0.27861, 
			 "cosmo_polarized_energy": -12.12, 
			 "cosmo_cavitation_energy": 24.67, 
			 "cosmo_dispersion_energy": -16.94, 
			 "cosmo_repulsion_energy": 1.23, 
			 "cosmo_total_nonelectrostatic_energy": 8.96, 
			 "SMD_solvation_energy": 7.51 
		},
		"coords": [
			{
				"x": 1.213560764,
				"y": 2.9741163565,
				"z": -0.4455038171,
				"element": "O" 
			},
			{
				"x": 1.4935487251,
				"y": 1.8282130585,
				"z": 0.2063153121,
				"element": "C" 
			},
			{
				"x": 2.4592924289,
				"y": 1.6870528246,
				"z": 0.9206300553,
				"element": "O" 
			},
			{
				"x": 0.4968776549,
				"y": 0.7247358898,
				"z": -0.1143137696,
				"element": "C" 
			},
			{
				"x": -0.9084910016,
				"y": 0.8724574908,
				"z": 0.498709676,
				"element": "C" 
			},
			{
				"x": -1.5310284916,
				"y": 2.0099321095,
				"z": -0.0364144599,
				"element": "O" 
			},
			{
				"x": -1.7462486151,
				"y": -0.3753122201,
				"z": 0.1010463143,
				"element": "C" 
			},
			{
				"x": -1.7130005331,
				"y": -0.5536696729,
				"z": -1.2307877514,
				"element": "F" 
			},
			{
				"x": -3.0385081246,
				"y": -0.2049766605,
				"z": 0.4525470896,
				"element": "F" 
			},
			{
				"x": -1.2982722307,
				"y": -1.5009016608,
				"z": 0.6820668841,
				"element": "F" 
			},
			{
				"x": -0.8441382238,
				"y": 1.0132584724,
				"z": 2.0418422366,
				"element": "C" 
			},
			{
				"x": -2.0919393369,
				"y": 1.1126232298,
				"z": 2.5544074158,
				"element": "F" 
			},
			{
				"x": -0.186067184,
				"y": 2.1345345887,
				"z": 2.3785306463,
				"element": "F" 
			},
			{
				"x": -0.232606822,
				"y": -0.0272854607,
				"z": 2.6262232709,
				"element": "F" 
			},
			{
				"x": 1.9020731169,
				"y": 3.6091872288,
				"z": -0.1842306549,
				"element": "H" 
			},
			{
				"x": 0.3603631381,
				"y": 0.6823920345,
				"z": -1.1972709555,
				"element": "H" 
			},
			{
				"x": 0.9342118071,
				"y": -0.2128340509,
				"z": 0.2304450071,
				"element": "H" 
			},
			{
				"x": -2.4249270717,
				"y": 2.0664764421,
				"z": 0.3333575003,
				"element": "H" 
			}
		],
		 "valence_orbital": [ 
			{
				"type": "occ",
				"energy": -0.39605,
				"method": "rhf"
			},
			{
				"type": "occ",
				"energy": -0.37059,
				"method": "rhf"
			},
			{
				"type": "occ",
				"energy": -0.32767,
				"method": "rhf"
			},
			{
				"type": "occ",
				"energy": -0.3201,
				"method": "rhf"
			},
			{
				"type": "occ",
				"energy": -0.28563,
				"method": "rhf"
			},
			{
				"type": "unocc",
				"energy": -0.00702,
				"method": "rhf"
			},
			{
				"type": "unocc",
				"energy": 0.05579,
				"method": "rhf"
			},
			{
				"type": "unocc",
				"energy": 0.07185,
				"method": "rhf"
			},
			{
				"type": "unocc",
				"energy": 0.08692,
				"method": "rhf"
			},
			{
				"type": "unocc",
				"energy": 0.10246,
				"method": "rhf"
			}
		],
		"cosmo_sigma_profile": { 
			"-0.025": 0.0,
			"-0.024": 0.0,
			"-0.023": 0.0,
			"-0.022": 0.0,
			"-0.021": 0.0,
			"-0.02": 0.0,
			"-0.019": 0.259091969248,
			"-0.018": 1.25549469359,
			"-0.017": 1.73264718841,
			"-0.016": 0.822252485422,
			"-0.015": 1.59983955012,
			"-0.014": 1.86305200133,
			"-0.013": 1.21419396043,
			"-0.012": 1.56330641063,
			"-0.011": 1.55839808769,
			"-0.01": 1.46684695826,
			"-0.009": 2.17859261304,
			"-0.008": 4.18292065011,
			"-0.007": 5.17494686464,
			"-0.006": 5.75422676604,
			"-0.005": 6.60377700921,
			"-0.004": 5.55226228152,
			"-0.003": 6.73489128167,
			"-0.002": 7.37232886451,
			"-0.001": 9.79296830446,
			"0.0": 15.0420718331,
			"0.001": 36.2029191593,
			"0.002": 38.6956535668,
			"0.003": 4.82188134031,
			"0.004": 4.06195754174,
			"0.005": 3.48087178088,
			"0.006": 2.60252578681,
			"0.007": 3.61617354287,
			"0.008": 3.21726271524,
			"0.009": 3.6411101153,
			"0.01": 4.36028855884,
			"0.011": 6.44085102044,
			"0.012": 2.67326623753,
			"0.013": 0.291855089474,
			"0.014": 0.0,
			"0.015": 0.0,
			"0.016": 0.0,
			"0.017": 0.0,
			"0.018": 0.0,
			"0.019": 0.0,
			"0.02": 0.0,
			"0.021": 0.0,
			"0.022": 0.0,
			"0.023": 0.0,
			"0.024": 0.0,
			"0.025": 0.0
		}
	}
}
