{
	 "smiles": "N#CC1CNC2=CC=CC=C2O1", 
	 "Tm": 336.15, 
	 "num_atms": 20, 
	 "gaussian": { 
		 "optdone": 1, 
		 "sigma_profile": "yes", 
		 "theory": "DFT", 
		 "functional": "B3LYP", 
		 "basiset": "6-31G**", 
		 "properties": { 
			 "R2extent": 2290.5318, 
			 "electric_dipole_moment_norm": 2.74245958585, 
			 "electric_quadrupole_moment_norm": 16.6292748125, 
			 "total_energy": -532.466611817, 
			 "HOMO_LUMO_gap": 0.20658, 
			 "cosmo_polarized_energy": -12.62, 
			 "cosmo_cavitation_energy": 24.25, 
			 "cosmo_dispersion_energy": -17.56, 
			 "cosmo_repulsion_energy": 1.4, 
			 "cosmo_total_nonelectrostatic_energy": 8.08, 
			 "SMD_solvation_energy": 4.35 
		},
		"coords": [
			{
				"x": 3.0930452471,
				"y": 1.3358607796,
				"z": -2.0717944798,
				"element": "N" 
			},
			{
				"x": 2.4559936612,
				"y": 0.4660910605,
				"z": -1.6422497307,
				"element": "C" 
			},
			{
				"x": 1.6456117264,
				"y": -0.6609696247,
				"z": -1.1306302672,
				"element": "C" 
			},
			{
				"x": 0.7538402177,
				"y": -1.2541569888,
				"z": -2.2439512033,
				"element": "C" 
			},
			{
				"x": -0.2571406073,
				"y": -0.3104420278,
				"z": -2.6744690222,
				"element": "N" 
			},
			{
				"x": -0.8200932092,
				"y": 0.4912814027,
				"z": -1.6561234718,
				"element": "C" 
			},
			{
				"x": -1.9372674364,
				"y": 1.2998545325,
				"z": -1.9092007263,
				"element": "C" 
			},
			{
				"x": -2.5168909425,
				"y": 2.054032742,
				"z": -0.8934470249,
				"element": "C" 
			},
			{
				"x": -1.9991559183,
				"y": 1.997891458,
				"z": 0.4049095859,
				"element": "C" 
			},
			{
				"x": -0.8819445835,
				"y": 1.2106871819,
				"z": 0.6711964794,
				"element": "C" 
			},
			{
				"x": -0.288731475,
				"y": 0.475860475,
				"z": -0.3549725157,
				"element": "C" 
			},
			{
				"x": 0.8396078048,
				"y": -0.2633100424,
				"z": -0.029077931,
				"element": "O" 
			},
			{
				"x": 2.3283316929,
				"y": -1.4208591209,
				"z": -0.7371203256,
				"element": "H" 
			},
			{
				"x": 1.3579379633,
				"y": -1.5692045552,
				"z": -3.0978696955,
				"element": "H" 
			},
			{
				"x": 0.2760414628,
				"y": -2.1449985007,
				"z": -1.8178540353,
				"element": "H" 
			},
			{
				"x": -0.0135148372,
				"y": 0.2083897854,
				"z": -3.5090502969,
				"element": "H" 
			},
			{
				"x": -2.3503924537,
				"y": 1.3128189506,
				"z": -2.9142126884,
				"element": "H" 
			},
			{
				"x": -3.3812329163,
				"y": 2.6738485216,
				"z": -1.111078705,
				"element": "H" 
			},
			{
				"x": -2.4563106811,
				"y": 2.5726542673,
				"z": 1.2041397782,
				"element": "H" 
			},
			{
				"x": -0.4387347157,
				"y": 1.1653697034,
				"z": 1.6607562761,
				"element": "H" 
			}
		],
		 "valence_orbital": [ 
			{
				"type": "occ",
				"energy": -0.33863,
				"method": "rhf"
			},
			{
				"type": "occ",
				"energy": -0.32532,
				"method": "rhf"
			},
			{
				"type": "occ",
				"energy": -0.2927,
				"method": "rhf"
			},
			{
				"type": "occ",
				"energy": -0.23665,
				"method": "rhf"
			},
			{
				"type": "occ",
				"energy": -0.21217,
				"method": "rhf"
			},
			{
				"type": "unocc",
				"energy": -0.00559,
				"method": "rhf"
			},
			{
				"type": "unocc",
				"energy": 0.0059,
				"method": "rhf"
			},
			{
				"type": "unocc",
				"energy": 0.01169,
				"method": "rhf"
			},
			{
				"type": "unocc",
				"energy": 0.0265,
				"method": "rhf"
			},
			{
				"type": "unocc",
				"energy": 0.0716,
				"method": "rhf"
			}
		],
		"cosmo_sigma_profile": { 
			"-0.025": 0.0,
			"-0.024": 0.0,
			"-0.023": 0.0,
			"-0.022": 0.0,
			"-0.021": 0.0,
			"-0.02": 0.0,
			"-0.019": 0.0,
			"-0.018": 0.0,
			"-0.017": 0.0,
			"-0.016": 0.0,
			"-0.015": 0.0,
			"-0.014": 0.0704832071003,
			"-0.013": 1.17538858972,
			"-0.012": 1.58887112524,
			"-0.011": 1.22328073528,
			"-0.01": 5.21259655611,
			"-0.009": 5.28520863008,
			"-0.008": 6.21724492063,
			"-0.007": 6.98394374284,
			"-0.006": 10.7838371324,
			"-0.005": 12.8139481521,
			"-0.004": 12.6531716322,
			"-0.003": 11.4998201312,
			"-0.002": 7.76095299212,
			"-0.001": 8.40389799049,
			"0.0": 7.81669003603,
			"0.001": 10.0091084657,
			"0.002": 11.0327781426,
			"0.003": 12.2011613378,
			"0.004": 11.5644729133,
			"0.005": 12.6689676112,
			"0.006": 11.8343088177,
			"0.007": 5.02761509649,
			"0.008": 5.48819035881,
			"0.009": 5.05357760256,
			"0.01": 3.65709745445,
			"0.011": 3.01120358856,
			"0.012": 2.48323353588,
			"0.013": 0.660485591355,
			"0.014": 0.0,
			"0.015": 0.0,
			"0.016": 0.0,
			"0.017": 0.0,
			"0.018": 0.0,
			"0.019": 0.0,
			"0.02": 0.0,
			"0.021": 0.0,
			"0.022": 0.0,
			"0.023": 0.0,
			"0.024": 0.0,
			"0.025": 0.0
		}
	}
}
