{
	 "smiles": "CC(C)(C)OC(=O)NCC1CCC(CC1)C(O)=O", 
	 "Tm": 406.15, 
	 "num_atms": 41, 
	 "gaussian": { 
		 "optdone": 1, 
		 "sigma_profile": "yes", 
		 "theory": "DFT", 
		 "functional": "B3LYP", 
		 "basiset": "6-31G**", 
		 "properties": { 
			 "R2extent": 7404.537, 
			 "electric_dipole_moment_norm": 0.909422157197, 
			 "electric_quadrupole_moment_norm": 16.6683131432, 
			 "total_energy": -864.957817669, 
			 "HOMO_LUMO_gap": 0.25367, 
			 "cosmo_polarized_energy": -14.97, 
			 "cosmo_cavitation_energy": 41.08, 
			 "cosmo_dispersion_energy": -27.66, 
			 "cosmo_repulsion_energy": 2.16, 
			 "cosmo_total_nonelectrostatic_energy": 15.59, 
			 "SMD_solvation_energy": 8.31 
		},
		"coords": [
			{
				"x": 0.8992460422,
				"y": 3.3509957909,
				"z": -1.00785769,
				"element": "C" 
			},
			{
				"x": 1.1912711992,
				"y": 2.7344946987,
				"z": 0.3642555786,
				"element": "C" 
			},
			{
				"x": 2.4808415334,
				"y": 3.2833402494,
				"z": 0.9844033883,
				"element": "C" 
			},
			{
				"x": 0.0063179195,
				"y": 2.9339321643,
				"z": 1.3129056817,
				"element": "C" 
			},
			{
				"x": 1.2695373093,
				"y": 1.2687787878,
				"z": 0.2537204655,
				"element": "O" 
			},
			{
				"x": 2.2290040195,
				"y": 0.6809742109,
				"z": -0.5033582414,
				"element": "C" 
			},
			{
				"x": 3.0663256807,
				"y": 1.2609737038,
				"z": -1.1784238931,
				"element": "O" 
			},
			{
				"x": 2.1524568697,
				"y": -0.684305411,
				"z": -0.4353520568,
				"element": "N" 
			},
			{
				"x": 1.273039152,
				"y": -1.4974620438,
				"z": 0.3977727079,
				"element": "C" 
			},
			{
				"x": 0.1921550357,
				"y": -2.2749048941,
				"z": -0.3796085292,
				"element": "C" 
			},
			{
				"x": -0.763123697,
				"y": -1.3414628159,
				"z": -1.1817714628,
				"element": "C" 
			},
			{
				"x": -0.5127047723,
				"y": -1.4070561521,
				"z": -2.693591532,
				"element": "C" 
			},
			{
				"x": -0.7414859723,
				"y": -2.8452621444,
				"z": -3.2518915774,
				"element": "C" 
			},
			{
				"x": -0.2428680001,
				"y": -3.9254192669,
				"z": -2.2600417474,
				"element": "C" 
			},
			{
				"x": 0.8014462526,
				"y": -3.3677065612,
				"z": -1.2849665794,
				"element": "C" 
			},
			{
				"x": -2.2175432754,
				"y": -3.0243828971,
				"z": -3.5609662067,
				"element": "C" 
			},
			{
				"x": -2.5429930681,
				"y": -2.496910414,
				"z": -4.7681576284,
				"element": "O" 
			},
			{
				"x": -3.0502003751,
				"y": -3.5286347791,
				"z": -2.8362655645,
				"element": "O" 
			},
			{
				"x": 1.7308909779,
				"y": 3.1861473019,
				"z": -1.6928355645,
				"element": "H" 
			},
			{
				"x": -0.0075718867,
				"y": 2.91230691,
				"z": -1.4365822731,
				"element": "H" 
			},
			{
				"x": 0.7354509714,
				"y": 4.4281559913,
				"z": -0.8990070234,
				"element": "H" 
			},
			{
				"x": 3.3309837261,
				"y": 3.1232627268,
				"z": 0.3211751917,
				"element": "H" 
			},
			{
				"x": 2.6797010073,
				"y": 2.7933179509,
				"z": 1.942961073,
				"element": "H" 
			},
			{
				"x": 2.3713553094,
				"y": 4.3570364068,
				"z": 1.1686985407,
				"element": "H" 
			},
			{
				"x": 0.1979803508,
				"y": 2.4549690319,
				"z": 2.2776396232,
				"element": "H" 
			},
			{
				"x": -0.1618605195,
				"y": 4.0013410018,
				"z": 1.4840929169,
				"element": "H" 
			},
			{
				"x": -0.9060693915,
				"y": 2.5040149064,
				"z": 0.8891335851,
				"element": "H" 
			},
			{
				"x": 2.8852499109,
				"y": -1.1349302035,
				"z": -0.9620710773,
				"element": "H" 
			},
			{
				"x": 1.8895889639,
				"y": -2.2067531919,
				"z": 0.9673043681,
				"element": "H" 
			},
			{
				"x": 0.8005293001,
				"y": -0.8285599267,
				"z": 1.1182374148,
				"element": "H" 
			},
			{
				"x": -0.4040892083,
				"y": -2.7896359363,
				"z": 0.3865846269,
				"element": "H" 
			},
			{
				"x": -0.652361259,
				"y": -0.3084033782,
				"z": -0.8370449205,
				"element": "H" 
			},
			{
				"x": -1.8024684895,
				"y": -1.6284669426,
				"z": -0.9852787517,
				"element": "H" 
			},
			{
				"x": -1.1523059821,
				"y": -0.6958307157,
				"z": -3.2266829354,
				"element": "H" 
			},
			{
				"x": 0.5190321812,
				"y": -1.110872866,
				"z": -2.9087910189,
				"element": "H" 
			},
			{
				"x": -0.2082610679,
				"y": -2.9198950953,
				"z": -4.2053166736,
				"element": "H" 
			},
			{
				"x": 0.1631489365,
				"y": -4.7784953108,
				"z": -2.8142671987,
				"element": "H" 
			},
			{
				"x": -1.101762715,
				"y": -4.2992416911,
				"z": -1.692523837,
				"element": "H" 
			},
			{
				"x": 1.6494206645,
				"y": -2.9620143779,
				"z": -1.8541358133,
				"element": "H" 
			},
			{
				"x": 1.2074694304,
				"y": -4.1761792635,
				"z": -0.6653171174,
				"element": "H" 
			},
			{
				"x": -3.5041730646,
				"y": -2.6098555548,
				"z": -4.8600782485,
				"element": "H" 
			}
		],
		 "valence_orbital": [ 
			{
				"type": "occ",
				"energy": -0.30198,
				"method": "rhf"
			},
			{
				"type": "occ",
				"energy": -0.2859,
				"method": "rhf"
			},
			{
				"type": "occ",
				"energy": -0.27129,
				"method": "rhf"
			},
			{
				"type": "occ",
				"energy": -0.25809,
				"method": "rhf"
			},
			{
				"type": "occ",
				"energy": -0.24485,
				"method": "rhf"
			},
			{
				"type": "unocc",
				"energy": 0.00882,
				"method": "rhf"
			},
			{
				"type": "unocc",
				"energy": 0.05548,
				"method": "rhf"
			},
			{
				"type": "unocc",
				"energy": 0.07033,
				"method": "rhf"
			},
			{
				"type": "unocc",
				"energy": 0.07749,
				"method": "rhf"
			},
			{
				"type": "unocc",
				"energy": 0.08329,
				"method": "rhf"
			}
		],
		"cosmo_sigma_profile": { 
			"-0.025": 0.0,
			"-0.024": 0.0,
			"-0.023": 0.0,
			"-0.022": 0.0,
			"-0.021": 0.0,
			"-0.02": 0.0,
			"-0.019": 0.0,
			"-0.018": 0.389047463087,
			"-0.017": 0.6854727623,
			"-0.016": 1.04232407399,
			"-0.015": 0.8681928634,
			"-0.014": 1.03195565522,
			"-0.013": 0.868153513745,
			"-0.012": 1.41636554213,
			"-0.011": 1.91761601226,
			"-0.01": 2.14928970769,
			"-0.009": 1.63784742563,
			"-0.008": 1.32688522615,
			"-0.007": 2.05853405641,
			"-0.006": 2.62770178108,
			"-0.005": 3.66285969553,
			"-0.004": 19.1782580451,
			"-0.003": 40.0120093362,
			"-0.002": 40.9037398746,
			"-0.001": 42.4253495914,
			"0.0": 44.7534643974,
			"0.001": 35.1770374224,
			"0.002": 13.2953253378,
			"0.003": 7.71214983787,
			"0.004": 7.50031977932,
			"0.005": 6.721305463,
			"0.006": 4.604144915,
			"0.007": 3.340588701,
			"0.008": 4.81273368671,
			"0.009": 4.21076179095,
			"0.01": 3.76165485291,
			"0.011": 4.38285648262,
			"0.012": 6.11140171466,
			"0.013": 3.02978676384,
			"0.014": 3.54011887035,
			"0.015": 0.37440331333,
			"0.016": 0.0,
			"0.017": 0.0,
			"0.018": 0.0,
			"0.019": 0.0,
			"0.02": 0.0,
			"0.021": 0.0,
			"0.022": 0.0,
			"0.023": 0.0,
			"0.024": 0.0,
			"0.025": 0.0
		}
	}
}
