{
	 "smiles": "NC(=O)CC1CCCCC1", 
	 "Tm": 439.15, 
	 "num_atms": 25, 
	 "gaussian": { 
		 "optdone": 1, 
		 "sigma_profile": "yes", 
		 "theory": "DFT", 
		 "functional": "B3LYP", 
		 "basiset": "6-31G**", 
		 "properties": { 
			 "R2extent": 2533.7935, 
			 "electric_dipole_moment_norm": 3.36162132757, 
			 "electric_quadrupole_moment_norm": 17.2584559396, 
			 "total_energy": -443.908795677, 
			 "HOMO_LUMO_gap": 0.27665, 
			 "cosmo_polarized_energy": -11.72, 
			 "cosmo_cavitation_energy": 25.77, 
			 "cosmo_dispersion_energy": -18.98, 
			 "cosmo_repulsion_energy": 1.58, 
			 "cosmo_total_nonelectrostatic_energy": 8.37, 
			 "SMD_solvation_energy": 4.19 
		},
		"coords": [
			{
				"x": 2.3968009703,
				"y": 2.5446695293,
				"z": -3.4055979476,
				"element": "N" 
			},
			{
				"x": 1.8349701974,
				"y": 1.3699797705,
				"z": -2.9852626381,
				"element": "C" 
			},
			{
				"x": 2.1301549786,
				"y": 0.2950906981,
				"z": -3.4896621783,
				"element": "O" 
			},
			{
				"x": 0.7987804088,
				"y": 1.509770926,
				"z": -1.8692177203,
				"element": "C" 
			},
			{
				"x": 0.6957951301,
				"y": 0.2609620866,
				"z": -0.9831396319,
				"element": "C" 
			},
			{
				"x": -0.5493254519,
				"y": 0.3188075385,
				"z": -0.0794543386,
				"element": "C" 
			},
			{
				"x": -0.6651405767,
				"y": -0.9204708849,
				"z": 0.8216517754,
				"element": "C" 
			},
			{
				"x": 0.6067944424,
				"y": -1.1314548251,
				"z": 1.6565845655,
				"element": "C" 
			},
			{
				"x": 1.8540614317,
				"y": -1.193227739,
				"z": 0.7626556969,
				"element": "C" 
			},
			{
				"x": 1.9663674243,
				"y": 0.0459868729,
				"z": -0.1388647342,
				"element": "C" 
			},
			{
				"x": 2.1332414522,
				"y": 3.4380200723,
				"z": -3.0238981861,
				"element": "H" 
			},
			{
				"x": 3.0283301614,
				"y": 2.514544248,
				"z": -4.1916526116,
				"element": "H" 
			},
			{
				"x": 1.0099322837,
				"y": 2.3991466994,
				"z": -1.259961868,
				"element": "H" 
			},
			{
				"x": -0.1686978254,
				"y": 1.6935068834,
				"z": -2.3581560787,
				"element": "H" 
			},
			{
				"x": 0.5972892359,
				"y": -0.5981116626,
				"z": -1.660045981,
				"element": "H" 
			},
			{
				"x": -0.4965914583,
				"y": 1.2195560521,
				"z": 0.5512457112,
				"element": "H" 
			},
			{
				"x": -1.4531292906,
				"y": 0.4240688905,
				"z": -0.6938983427,
				"element": "H" 
			},
			{
				"x": -1.5411151877,
				"y": -0.8302240564,
				"z": 1.4754909506,
				"element": "H" 
			},
			{
				"x": -0.8349028193,
				"y": -1.8063057059,
				"z": 0.1934028154,
				"element": "H" 
			},
			{
				"x": 0.7129465474,
				"y": -0.3003348322,
				"z": 2.3689159697,
				"element": "H" 
			},
			{
				"x": 0.5206041961,
				"y": -2.0458857981,
				"z": 2.2559919063,
				"element": "H" 
			},
			{
				"x": 2.757826461,
				"y": -1.2954288352,
				"z": 1.37554354,
				"element": "H" 
			},
			{
				"x": 1.8031060289,
				"y": -2.0918084439,
				"z": 0.1319461975,
				"element": "H" 
			},
			{
				"x": 2.1333967775,
				"y": 0.9354193126,
				"z": 0.4886793495,
				"element": "H" 
			},
			{
				"x": 2.8351044821,
				"y": -0.0475767969,
				"z": -0.7993962209,
				"element": "H" 
			}
		],
		 "valence_orbital": [ 
			{
				"type": "occ",
				"energy": -0.30815,
				"method": "rhf"
			},
			{
				"type": "occ",
				"energy": -0.29439,
				"method": "rhf"
			},
			{
				"type": "occ",
				"energy": -0.28915,
				"method": "rhf"
			},
			{
				"type": "occ",
				"energy": -0.2636,
				"method": "rhf"
			},
			{
				"type": "occ",
				"energy": -0.24288,
				"method": "rhf"
			},
			{
				"type": "unocc",
				"energy": 0.03377,
				"method": "rhf"
			},
			{
				"type": "unocc",
				"energy": 0.07442,
				"method": "rhf"
			},
			{
				"type": "unocc",
				"energy": 0.09146,
				"method": "rhf"
			},
			{
				"type": "unocc",
				"energy": 0.10869,
				"method": "rhf"
			},
			{
				"type": "unocc",
				"energy": 0.12,
				"method": "rhf"
			}
		],
		"cosmo_sigma_profile": { 
			"-0.025": 0.0,
			"-0.024": 0.0,
			"-0.023": 0.0,
			"-0.022": 0.0,
			"-0.021": 0.0,
			"-0.02": 0.0,
			"-0.019": 0.0,
			"-0.018": 0.0,
			"-0.017": 0.0,
			"-0.016": 0.0,
			"-0.015": 0.0,
			"-0.014": 0.84225218937,
			"-0.013": 2.5583514908,
			"-0.012": 2.38243435419,
			"-0.011": 2.08478792859,
			"-0.01": 2.87791611282,
			"-0.009": 2.41884125834,
			"-0.008": 2.29974238621,
			"-0.007": 2.05373967524,
			"-0.006": 1.9616529112,
			"-0.005": 3.21844960046,
			"-0.004": 5.78588141324,
			"-0.003": 7.32792572998,
			"-0.002": 22.9595541187,
			"-0.001": 35.8293358833,
			"0.0": 33.7311455519,
			"0.001": 27.2455599255,
			"0.002": 11.3332799301,
			"0.003": 3.35697410095,
			"0.004": 2.8210673966,
			"0.005": 2.22714219063,
			"0.006": 3.07128167338,
			"0.007": 1.58345082951,
			"0.008": 1.40314480627,
			"0.009": 1.22856276848,
			"0.01": 1.58257053613,
			"0.011": 1.91503058561,
			"0.012": 1.26064643175,
			"0.013": 2.56606027725,
			"0.014": 5.21452105172,
			"0.015": 2.71411079422,
			"0.016": 0.0259128415291,
			"0.017": 0.0,
			"0.018": 0.0,
			"0.019": 0.0,
			"0.02": 0.0,
			"0.021": 0.0,
			"0.022": 0.0,
			"0.023": 0.0,
			"0.024": 0.0,
			"0.025": 0.0
		}
	}
}
