{
	 "smiles": "CC(C)(C)N(NC(=O)C1=CC=CC=C1)C(=O)C1=CC=CC(=C1)[N+]([O-])=O", 
	 "Tm": 495.15, 
	 "num_atms": 44, 
	 "gaussian": { 
		 "optdone": 1, 
		 "sigma_profile": "yes", 
		 "theory": "DFT", 
		 "functional": "B3LYP", 
		 "basiset": "6-31G**", 
		 "properties": { 
			 "R2extent": 8006.1495, 
			 "electric_dipole_moment_norm": 4.28081634621, 
			 "electric_quadrupole_moment_norm": 34.2304342128, 
			 "total_energy": -1162.40562013, 
			 "HOMO_LUMO_gap": 0.14906, 
			 "cosmo_polarized_energy": -18.93, 
			 "cosmo_cavitation_energy": 46.87, 
			 "cosmo_dispersion_energy": -29.84, 
			 "cosmo_repulsion_energy": 2.22, 
			 "cosmo_total_nonelectrostatic_energy": 19.25, 
			 "SMD_solvation_energy": 11.57 
		},
		"coords": [
			{
				"x": 3.0421559696,
				"y": -2.8241187146,
				"z": 1.3879842179,
				"element": "C" 
			},
			{
				"x": 2.1713374078,
				"y": -1.5895854167,
				"z": 1.7123691902,
				"element": "C" 
			},
			{
				"x": 1.5606319165,
				"y": -1.7297926871,
				"z": 3.1145174846,
				"element": "C" 
			},
			{
				"x": 3.0663823246,
				"y": -0.341703925,
				"z": 1.6866716396,
				"element": "C" 
			},
			{
				"x": 1.0344339438,
				"y": -1.5019164344,
				"z": 0.6997164438,
				"element": "N" 
			},
			{
				"x": 0.2746229772,
				"y": -2.6938552472,
				"z": 0.7053938288,
				"element": "N" 
			},
			{
				"x": -1.0945702581,
				"y": -2.6955199709,
				"z": 0.4043398341,
				"element": "C" 
			},
			{
				"x": -1.5724925518,
				"y": -3.7195721144,
				"z": -0.0621405377,
				"element": "O" 
			},
			{
				"x": -1.9435956099,
				"y": -1.4926547187,
				"z": 0.679530202,
				"element": "C" 
			},
			{
				"x": -3.0869446289,
				"y": -1.3487367785,
				"z": -0.1211839199,
				"element": "C" 
			},
			{
				"x": -3.9561142421,
				"y": -0.2783171675,
				"z": 0.0752007855,
				"element": "C" 
			},
			{
				"x": -3.7054153133,
				"y": 0.6494463599,
				"z": 1.0890628236,
				"element": "C" 
			},
			{
				"x": -2.585282971,
				"y": 0.4981490728,
				"z": 1.9090513955,
				"element": "C" 
			},
			{
				"x": -1.7059453491,
				"y": -0.5658400258,
				"z": 1.7047274687,
				"element": "C" 
			},
			{
				"x": 1.2904841261,
				"y": -1.0665171377,
				"z": -0.6351985124,
				"element": "C" 
			},
			{
				"x": 1.1711641695,
				"y": -1.8186874249,
				"z": -1.5892209691,
				"element": "O" 
			},
			{
				"x": 1.5541451869,
				"y": 0.3916704875,
				"z": -0.8579397117,
				"element": "C" 
			},
			{
				"x": 2.2988882128,
				"y": 0.7717394808,
				"z": -1.9852124551,
				"element": "C" 
			},
			{
				"x": 2.4941077475,
				"y": 2.1193645129,
				"z": -2.2841382366,
				"element": "C" 
			},
			{
				"x": 1.9229447557,
				"y": 3.1066298934,
				"z": -1.4810445776,
				"element": "C" 
			},
			{
				"x": 1.1623778849,
				"y": 2.7105858774,
				"z": -0.3826633345,
				"element": "C" 
			},
			{
				"x": 0.9660908981,
				"y": 1.3723907346,
				"z": -0.0542920487,
				"element": "C" 
			},
			{
				"x": 0.5413127423,
				"y": 3.7443737878,
				"z": 0.4644308985,
				"element": "N" 
			},
			{
				"x": -0.0867114418,
				"y": 3.3692430078,
				"z": 1.453935393,
				"element": "O" 
			},
			{
				"x": 0.694108516,
				"y": 4.9189113571,
				"z": 0.1334953208,
				"element": "O" 
			},
			{
				"x": 3.4223218586,
				"y": -2.7826716697,
				"z": 0.3617673475,
				"element": "H" 
			},
			{
				"x": 3.9014998602,
				"y": -2.8588031787,
				"z": 2.0641592747,
				"element": "H" 
			},
			{
				"x": 2.4885826493,
				"y": -3.7575885541,
				"z": 1.5177297997,
				"element": "H" 
			},
			{
				"x": 1.0526616588,
				"y": -0.8092908589,
				"z": 3.4173265835,
				"element": "H" 
			},
			{
				"x": 0.8499104408,
				"y": -2.5572356674,
				"z": 3.155405198,
				"element": "H" 
			},
			{
				"x": 2.3558472407,
				"y": -1.9243857921,
				"z": 3.8406919417,
				"element": "H" 
			},
			{
				"x": 3.827197913,
				"y": -0.4614264927,
				"z": 2.4635330421,
				"element": "H" 
			},
			{
				"x": 3.5883151969,
				"y": -0.2115451249,
				"z": 0.7355490577,
				"element": "H" 
			},
			{
				"x": 2.509206,
				"y": 0.5710723364,
				"z": 1.905637278,
				"element": "H" 
			},
			{
				"x": 0.7091776923,
				"y": -3.4663014707,
				"z": 0.2038987862,
				"element": "H" 
			},
			{
				"x": -3.2750329146,
				"y": -2.0893480288,
				"z": -0.8908110795,
				"element": "H" 
			},
			{
				"x": -4.8308401252,
				"y": -0.1695891824,
				"z": -0.5592908426,
				"element": "H" 
			},
			{
				"x": -4.3823484531,
				"y": 1.4847092112,
				"z": 1.2437818067,
				"element": "H" 
			},
			{
				"x": -2.3925567382,
				"y": 1.2107604733,
				"z": 2.705181935,
				"element": "H" 
			},
			{
				"x": -0.8475498261,
				"y": -0.6846664365,
				"z": 2.3521741046,
				"element": "H" 
			},
			{
				"x": 2.7122270694,
				"y": -0.0041474404,
				"z": -2.6209286023,
				"element": "H" 
			},
			{
				"x": 3.0832501929,
				"y": 2.4044041095,
				"z": -3.1497230378,
				"element": "H" 
			},
			{
				"x": 2.0465119002,
				"y": 4.1617195127,
				"z": -1.6908403592,
				"element": "H" 
			},
			{
				"x": 0.3419019708,
				"y": 1.108947446,
				"z": 0.7886651428,
				"element": "H" 
			}
		],
		 "valence_orbital": [ 
			{
				"type": "occ",
				"energy": -0.27907,
				"method": "rhf"
			},
			{
				"type": "occ",
				"energy": -0.26574,
				"method": "rhf"
			},
			{
				"type": "occ",
				"energy": -0.26101,
				"method": "rhf"
			},
			{
				"type": "occ",
				"energy": -0.25301,
				"method": "rhf"
			},
			{
				"type": "occ",
				"energy": -0.24802,
				"method": "rhf"
			},
			{
				"type": "unocc",
				"energy": -0.09896,
				"method": "rhf"
			},
			{
				"type": "unocc",
				"energy": -0.06823,
				"method": "rhf"
			},
			{
				"type": "unocc",
				"energy": -0.04001,
				"method": "rhf"
			},
			{
				"type": "unocc",
				"energy": -0.01937,
				"method": "rhf"
			},
			{
				"type": "unocc",
				"energy": -0.00599,
				"method": "rhf"
			}
		],
		"cosmo_sigma_profile": { 
			"-0.025": 0.0,
			"-0.024": 0.0,
			"-0.023": 0.0,
			"-0.022": 0.0,
			"-0.021": 0.0,
			"-0.02": 0.0,
			"-0.019": 0.0,
			"-0.018": 0.0,
			"-0.017": 0.0,
			"-0.016": 0.0,
			"-0.015": 0.0,
			"-0.014": 0.0,
			"-0.013": 0.0,
			"-0.012": 0.104958501148,
			"-0.011": 0.491011610052,
			"-0.01": 1.03794918325,
			"-0.009": 0.890724146537,
			"-0.008": 3.75622729443,
			"-0.007": 9.77427362539,
			"-0.006": 17.9816996942,
			"-0.005": 25.4806620399,
			"-0.004": 34.4460030803,
			"-0.003": 30.4703787688,
			"-0.002": 35.8766796862,
			"-0.001": 37.4688076286,
			"0.0": 38.9067744918,
			"0.001": 24.2804215836,
			"0.002": 14.8299130265,
			"0.003": 16.6330560473,
			"0.004": 17.226826748,
			"0.005": 9.39211433543,
			"0.006": 6.82508770825,
			"0.007": 10.4300014255,
			"0.008": 8.27717678923,
			"0.009": 7.24283178359,
			"0.01": 5.85128927452,
			"0.011": 5.55006000131,
			"0.012": 5.4114881621,
			"0.013": 3.74577059717,
			"0.014": 0.0807206268759,
			"0.015": 0.0,
			"0.016": 0.0,
			"0.017": 0.0,
			"0.018": 0.0,
			"0.019": 0.0,
			"0.02": 0.0,
			"0.021": 0.0,
			"0.022": 0.0,
			"0.023": 0.0,
			"0.024": 0.0,
			"0.025": 0.0
		}
	}
}
