{
	 "smiles": "OC(C(O)C1=CC=CC=C1[N+]([O-])=O)C1=CC=CC=C1", 
	 "Tm": 373.15, 
	 "num_atms": 32, 
	 "gaussian": { 
		 "optdone": 1, 
		 "sigma_profile": "yes", 
		 "theory": "DFT", 
		 "functional": "B3LYP", 
		 "basiset": "6-31G**", 
		 "properties": { 
			 "R2extent": 4573.454, 
			 "electric_dipole_moment_norm": 3.58081693752, 
			 "electric_quadrupole_moment_norm": 16.5876622057, 
			 "total_energy": -896.853254649, 
			 "HOMO_LUMO_gap": 0.15131, 
			 "cosmo_polarized_energy": -14.96, 
			 "cosmo_cavitation_energy": 35.38, 
			 "cosmo_dispersion_energy": -24.01, 
			 "cosmo_repulsion_energy": 1.85, 
			 "cosmo_total_nonelectrostatic_energy": 13.22, 
			 "SMD_solvation_energy": 7.94 
		},
		"coords": [
			{
				"x": -0.9782043215,
				"y": -1.5734245612,
				"z": 1.975098225,
				"element": "O" 
			},
			{
				"x": 0.2922729406,
				"y": -1.3583234074,
				"z": 1.3900512737,
				"element": "C" 
			},
			{
				"x": 0.5142467273,
				"y": -2.3529123931,
				"z": 0.2092036882,
				"element": "C" 
			},
			{
				"x": 0.2211960963,
				"y": -3.6294004265,
				"z": 0.791927856,
				"element": "O" 
			},
			{
				"x": -0.3812748371,
				"y": -2.0808302362,
				"z": -0.9959091272,
				"element": "C" 
			},
			{
				"x": -1.711142801,
				"y": -2.5247773258,
				"z": -0.941837568,
				"element": "C" 
			},
			{
				"x": -2.6203500173,
				"y": -2.271109819,
				"z": -1.9667718992,
				"element": "C" 
			},
			{
				"x": -2.2261014836,
				"y": -1.5421136382,
				"z": -3.0888945364,
				"element": "C" 
			},
			{
				"x": -0.9188761076,
				"y": -1.0774237572,
				"z": -3.1732855525,
				"element": "C" 
			},
			{
				"x": -0.0132437717,
				"y": -1.356006543,
				"z": -2.1464545146,
				"element": "C" 
			},
			{
				"x": 1.3593433622,
				"y": -0.8571465428,
				"z": -2.3805932333,
				"element": "N" 
			},
			{
				"x": 1.4820920654,
				"y": 0.1490112716,
				"z": -3.0737081106,
				"element": "O" 
			},
			{
				"x": 2.3074915707,
				"y": -1.4910878832,
				"z": -1.9114134965,
				"element": "O" 
			},
			{
				"x": 0.4339619697,
				"y": 0.0933161216,
				"z": 0.9839669347,
				"element": "C" 
			},
			{
				"x": -0.686438531,
				"y": 0.92316914,
				"z": 0.8671279107,
				"element": "C" 
			},
			{
				"x": -0.5378023449,
				"y": 2.2548782005,
				"z": 0.4753500072,
				"element": "C" 
			},
			{
				"x": 0.7278155971,
				"y": 2.7690389294,
				"z": 0.1901624787,
				"element": "C" 
			},
			{
				"x": 1.8499392356,
				"y": 1.9460825946,
				"z": 0.3072120895,
				"element": "C" 
			},
			{
				"x": 1.7036960309,
				"y": 0.6188444912,
				"z": 0.7099935894,
				"element": "C" 
			},
			{
				"x": -1.026115672,
				"y": -2.5247031748,
				"z": 2.1487596191,
				"element": "H" 
			},
			{
				"x": 1.0864032402,
				"y": -1.603641671,
				"z": 2.1142111528,
				"element": "H" 
			},
			{
				"x": 1.5604916157,
				"y": -2.3028500804,
				"z": -0.087491434,
				"element": "H" 
			},
			{
				"x": 0.4081837135,
				"y": -4.315062018,
				"z": 0.1383050953,
				"element": "H" 
			},
			{
				"x": -2.0243340059,
				"y": -3.0799206939,
				"z": -0.0670054601,
				"element": "H" 
			},
			{
				"x": -3.638759311,
				"y": -2.6390663941,
				"z": -1.8840873271,
				"element": "H" 
			},
			{
				"x": -2.9260960655,
				"y": -1.3374297606,
				"z": -3.8925906907,
				"element": "H" 
			},
			{
				"x": -0.5763325762,
				"y": -0.5042336719,
				"z": -4.0255311158,
				"element": "H" 
			},
			{
				"x": -1.6658591269,
				"y": 0.5192037488,
				"z": 1.0956579491,
				"element": "H" 
			},
			{
				"x": -1.4144715747,
				"y": 2.8914390604,
				"z": 0.3925600247,
				"element": "H" 
			},
			{
				"x": 0.8409863256,
				"y": 3.8042534243,
				"z": -0.1186932392,
				"element": "H" 
			},
			{
				"x": 2.8395161561,
				"y": 2.3374293244,
				"z": 0.0903419909,
				"element": "H" 
			},
			{
				"x": 2.583465901,
				"y": -0.0128023084,
				"z": 0.8062374201,
				"element": "H" 
			}
		],
		 "valence_orbital": [ 
			{
				"type": "occ",
				"energy": -0.28038,
				"method": "rhf"
			},
			{
				"type": "occ",
				"energy": -0.26939,
				"method": "rhf"
			},
			{
				"type": "occ",
				"energy": -0.26484,
				"method": "rhf"
			},
			{
				"type": "occ",
				"energy": -0.24322,
				"method": "rhf"
			},
			{
				"type": "occ",
				"energy": -0.23742,
				"method": "rhf"
			},
			{
				"type": "unocc",
				"energy": -0.08611,
				"method": "rhf"
			},
			{
				"type": "unocc",
				"energy": -0.02666,
				"method": "rhf"
			},
			{
				"type": "unocc",
				"energy": -0.00621,
				"method": "rhf"
			},
			{
				"type": "unocc",
				"energy": 0.00148,
				"method": "rhf"
			},
			{
				"type": "unocc",
				"energy": 0.00558,
				"method": "rhf"
			}
		],
		"cosmo_sigma_profile": { 
			"-0.025": 0.0,
			"-0.024": 0.0,
			"-0.023": 0.0,
			"-0.022": 0.0,
			"-0.021": 0.0,
			"-0.02": 0.0,
			"-0.019": 0.0,
			"-0.018": 0.0,
			"-0.017": 0.295084291262,
			"-0.016": 0.995249663337,
			"-0.015": 1.37019633782,
			"-0.014": 0.59209087437,
			"-0.013": 0.751379298653,
			"-0.012": 1.5807729757,
			"-0.011": 1.37765685188,
			"-0.01": 1.33402610209,
			"-0.009": 1.87411085995,
			"-0.008": 1.47234432994,
			"-0.007": 8.42353815544,
			"-0.006": 17.198419774,
			"-0.005": 21.6655496601,
			"-0.004": 20.715737628,
			"-0.003": 20.4793545739,
			"-0.002": 14.7658831325,
			"-0.001": 16.4334258528,
			"0.0": 16.7688188532,
			"0.001": 16.5420658041,
			"0.002": 23.7814015302,
			"0.003": 20.2230034901,
			"0.004": 14.8582400588,
			"0.005": 14.60718253,
			"0.006": 11.1400007481,
			"0.007": 10.0980001218,
			"0.008": 8.81793725057,
			"0.009": 5.57301442811,
			"0.01": 4.07682013048,
			"0.011": 1.68134711889,
			"0.012": 1.05958941731,
			"0.013": 0.76817671191,
			"0.014": 0.0477494946715,
			"0.015": 0.0,
			"0.016": 0.0,
			"0.017": 0.0,
			"0.018": 0.0,
			"0.019": 0.0,
			"0.02": 0.0,
			"0.021": 0.0,
			"0.022": 0.0,
			"0.023": 0.0,
			"0.024": 0.0,
			"0.025": 0.0
		}
	}
}
