{
	 "smiles": "COC1=C(NC2=NC(CCl)=NC(N)=N2)C=CC=C1", 
	 "Tm": 434.15, 
	 "num_atms": 30, 
	 "gaussian": { 
		 "optdone": 1, 
		 "sigma_profile": "yes", 
		 "theory": "DFT", 
		 "functional": "B3LYP", 
		 "basiset": "6-31G**", 
		 "properties": { 
			 "R2extent": 7674.8483, 
			 "electric_dipole_moment_norm": 3.39392937758, 
			 "electric_quadrupole_moment_norm": 30.6316687781, 
			 "total_energy": -1235.61057716, 
			 "HOMO_LUMO_gap": 0.16352, 
			 "cosmo_polarized_energy": -14.97, 
			 "cosmo_cavitation_energy": 36.52, 
			 "cosmo_dispersion_energy": -26.98, 
			 "cosmo_repulsion_energy": 2.13, 
			 "cosmo_total_nonelectrostatic_energy": 11.67, 
			 "SMD_solvation_energy": 2.83 
		},
		"coords": [
			{
				"x": -0.9968587048,
				"y": 3.635459942,
				"z": 2.6570958557,
				"element": "C" 
			},
			{
				"x": -0.928878882,
				"y": 2.5883391993,
				"z": 1.7018884377,
				"element": "O" 
			},
			{
				"x": 0.1032755707,
				"y": 1.6884456647,
				"z": 1.7880488285,
				"element": "C" 
			},
			{
				"x": 0.0873694924,
				"y": 0.6709822045,
				"z": 0.7991132057,
				"element": "C" 
			},
			{
				"x": -0.9742350216,
				"y": 0.7357703854,
				"z": -0.1150968048,
				"element": "N" 
			},
			{
				"x": -1.3236467735,
				"y": -0.0528647706,
				"z": -1.1680451636,
				"element": "C" 
			},
			{
				"x": -2.4435777802,
				"y": 0.3647603244,
				"z": -1.8142044938,
				"element": "N" 
			},
			{
				"x": -2.7962093853,
				"y": -0.4002886564,
				"z": -2.8420518573,
				"element": "C" 
			},
			{
				"x": -4.041055088,
				"y": 0.0030356447,
				"z": -3.5899256459,
				"element": "C" 
			},
			{
				"x": -5.5001010662,
				"y": -0.863850264,
				"z": -2.9301457773,
				"element": "Cl" 
			},
			{
				"x": -2.1596109747,
				"y": -1.489411864,
				"z": -3.283201974,
				"element": "N" 
			},
			{
				"x": -1.0642089071,
				"y": -1.8040175854,
				"z": -2.5620166012,
				"element": "C" 
			},
			{
				"x": -0.360430727,
				"y": -2.8890351355,
				"z": -2.9628377563,
				"element": "N" 
			},
			{
				"x": -0.5989758738,
				"y": -1.1291285531,
				"z": -1.4954733414,
				"element": "N" 
			},
			{
				"x": 1.1001185208,
				"y": -0.2921380871,
				"z": 0.8040707742,
				"element": "C" 
			},
			{
				"x": 2.1082796583,
				"y": -0.2468539609,
				"z": 1.7719787877,
				"element": "C" 
			},
			{
				"x": 2.1176532684,
				"y": 0.7523546127,
				"z": 2.7386543526,
				"element": "C" 
			},
			{
				"x": 1.1108387566,
				"y": 1.7250738877,
				"z": 2.7473842686,
				"element": "C" 
			},
			{
				"x": -1.8841510797,
				"y": 4.2176645482,
				"z": 2.4046475042,
				"element": "H" 
			},
			{
				"x": -0.1119854054,
				"y": 4.2821220976,
				"z": 2.6067051646,
				"element": "H" 
			},
			{
				"x": -1.0987759919,
				"y": 3.2420995511,
				"z": 3.6761428756,
				"element": "H" 
			},
			{
				"x": -1.6130450365,
				"y": 1.5067682135,
				"z": 0.031632036,
				"element": "H" 
			},
			{
				"x": -4.2316501531,
				"y": 1.0678123409,
				"z": -3.4694489584,
				"element": "H" 
			},
			{
				"x": -3.9656344313,
				"y": -0.2766872045,
				"z": -4.6394753552,
				"element": "H" 
			},
			{
				"x": 0.3833590736,
				"y": -3.2309288008,
				"z": -2.3774125467,
				"element": "H" 
			},
			{
				"x": -0.7619418391,
				"y": -3.4817434094,
				"z": -3.6705821091,
				"element": "H" 
			},
			{
				"x": 1.0824740266,
				"y": -1.0642741877,
				"z": 0.0488140424,
				"element": "H" 
			},
			{
				"x": 2.8868181008,
				"y": -1.0035856207,
				"z": 1.7604383649,
				"element": "H" 
			},
			{
				"x": 2.9002060881,
				"y": 0.7873084524,
				"z": 3.4903468306,
				"element": "H" 
			},
			{
				"x": 1.119680565,
				"y": 2.5032110311,
				"z": 3.5013570563,
				"element": "H" 
			}
		],
		 "valence_orbital": [ 
			{
				"type": "occ",
				"energy": -0.26573,
				"method": "rhf"
			},
			{
				"type": "occ",
				"energy": -0.25995,
				"method": "rhf"
			},
			{
				"type": "occ",
				"energy": -0.25164,
				"method": "rhf"
			},
			{
				"type": "occ",
				"energy": -0.23533,
				"method": "rhf"
			},
			{
				"type": "occ",
				"energy": -0.20245,
				"method": "rhf"
			},
			{
				"type": "unocc",
				"energy": -0.03893,
				"method": "rhf"
			},
			{
				"type": "unocc",
				"energy": -0.01399,
				"method": "rhf"
			},
			{
				"type": "unocc",
				"energy": 0.01139,
				"method": "rhf"
			},
			{
				"type": "unocc",
				"energy": 0.02756,
				"method": "rhf"
			},
			{
				"type": "unocc",
				"energy": 0.05344,
				"method": "rhf"
			}
		],
		"cosmo_sigma_profile": { 
			"-0.025": 0.0,
			"-0.024": 0.0,
			"-0.023": 0.0,
			"-0.022": 0.0,
			"-0.021": 0.0,
			"-0.02": 0.0,
			"-0.019": 0.0,
			"-0.018": 0.0,
			"-0.017": 0.0,
			"-0.016": 0.0,
			"-0.015": 0.343423499574,
			"-0.014": 2.28664854771,
			"-0.013": 2.14440158354,
			"-0.012": 1.91184368969,
			"-0.011": 1.48907447798,
			"-0.01": 2.31542065357,
			"-0.009": 2.33502989107,
			"-0.008": 3.95134480787,
			"-0.007": 6.00627463146,
			"-0.006": 13.6118161522,
			"-0.005": 20.908102159,
			"-0.004": 21.1860432417,
			"-0.003": 21.1778105294,
			"-0.002": 15.5812414106,
			"-0.001": 16.6943992841,
			"0.0": 16.824744789,
			"0.001": 21.0725869795,
			"0.002": 21.0693993938,
			"0.003": 20.6091576443,
			"0.004": 21.5266120513,
			"0.005": 23.3961559113,
			"0.006": 21.5955174386,
			"0.007": 5.43799055691,
			"0.008": 1.96705011391,
			"0.009": 2.25836917843,
			"0.01": 2.33875440953,
			"0.011": 1.48459506647,
			"0.012": 1.10755862625,
			"0.013": 1.15260055654,
			"0.014": 0.183720274661,
			"0.015": 0.0,
			"0.016": 0.0,
			"0.017": 0.0,
			"0.018": 0.0,
			"0.019": 0.0,
			"0.02": 0.0,
			"0.021": 0.0,
			"0.022": 0.0,
			"0.023": 0.0,
			"0.024": 0.0,
			"0.025": 0.0
		}
	}
}
