{
	 "smiles": "OC(=O)C1CCN(CC1)C(=O)COC1=CC=CC=C1", 
	 "Tm": 347.15, 
	 "num_atms": 36, 
	 "gaussian": { 
		 "optdone": 1, 
		 "sigma_profile": "yes", 
		 "theory": "DFT", 
		 "functional": "B3LYP", 
		 "basiset": "6-31G**", 
		 "properties": { 
			 "R2extent": 8414.0584, 
			 "electric_dipole_moment_norm": 5.05216860863, 
			 "electric_quadrupole_moment_norm": 15.2064108783, 
			 "total_energy": -899.391643701, 
			 "HOMO_LUMO_gap": 0.22282, 
			 "cosmo_polarized_energy": -20.76, 
			 "cosmo_cavitation_energy": 38.66, 
			 "cosmo_dispersion_energy": -27.64, 
			 "cosmo_repulsion_energy": 2.15, 
			 "cosmo_total_nonelectrostatic_energy": 13.16, 
			 "SMD_solvation_energy": 7.07 
		},
		"coords": [
			{
				"x": -5.3750637746,
				"y": -0.9463766596,
				"z": 0.0720213777,
				"element": "O" 
			},
			{
				"x": -4.4101259842,
				"y": -1.6545378645,
				"z": -0.5635513417,
				"element": "C" 
			},
			{
				"x": -4.5333700719,
				"y": -2.8330111712,
				"z": -0.8198699761,
				"element": "O" 
			},
			{
				"x": -3.1905241232,
				"y": -0.7934872866,
				"z": -0.8509009465,
				"element": "C" 
			},
			{
				"x": -2.3346385475,
				"y": -1.4190242818,
				"z": -1.9719654393,
				"element": "C" 
			},
			{
				"x": -0.8493415565,
				"y": -1.0699005195,
				"z": -1.841705337,
				"element": "C" 
			},
			{
				"x": -0.318489204,
				"y": -1.5540812972,
				"z": -0.5609446163,
				"element": "N" 
			},
			{
				"x": -1.2597928296,
				"y": -1.6809412677,
				"z": 0.5623077044,
				"element": "C" 
			},
			{
				"x": -2.3521966015,
				"y": -0.6182886949,
				"z": 0.4535827174,
				"element": "C" 
			},
			{
				"x": 1.0144444767,
				"y": -1.7670574224,
				"z": -0.3151501331,
				"element": "C" 
			},
			{
				"x": 1.4320598695,
				"y": -2.1278901816,
				"z": 0.7784672327,
				"element": "O" 
			},
			{
				"x": 1.9693164118,
				"y": -1.535671105,
				"z": -1.5051788938,
				"element": "C" 
			},
			{
				"x": 3.319685845,
				"y": -1.726810165,
				"z": -1.1461876805,
				"element": "O" 
			},
			{
				"x": 3.964406457,
				"y": -0.6451662201,
				"z": -0.5663023757,
				"element": "C" 
			},
			{
				"x": 4.4005800816,
				"y": 0.4156203259,
				"z": -1.3653262691,
				"element": "C" 
			},
			{
				"x": 5.1086340816,
				"y": 1.46969167,
				"z": -0.7850074382,
				"element": "C" 
			},
			{
				"x": 5.3874873139,
				"y": 1.4592384492,
				"z": 0.5832444823,
				"element": "C" 
			},
			{
				"x": 4.9526208976,
				"y": 0.3902274346,
				"z": 1.3710748952,
				"element": "C" 
			},
			{
				"x": 4.2361656928,
				"y": -0.6640272317,
				"z": 0.8030294953,
				"element": "C" 
			},
			{
				"x": -6.0951350863,
				"y": -1.5726668317,
				"z": 0.2577725749,
				"element": "H" 
			},
			{
				"x": -3.5633328573,
				"y": 0.1921297473,
				"z": -1.1481980728,
				"element": "H" 
			},
			{
				"x": -2.4531763084,
				"y": -2.5058570632,
				"z": -1.9375302501,
				"element": "H" 
			},
			{
				"x": -2.694000298,
				"y": -1.0921802405,
				"z": -2.9529883033,
				"element": "H" 
			},
			{
				"x": -0.3075009886,
				"y": -1.5390451018,
				"z": -2.6674652469,
				"element": "H" 
			},
			{
				"x": -0.706155603,
				"y": 0.0179427444,
				"z": -1.9417112541,
				"element": "H" 
			},
			{
				"x": -1.7039348392,
				"y": -2.6857302834,
				"z": 0.577904281,
				"element": "H" 
			},
			{
				"x": -0.6810919856,
				"y": -1.5696317217,
				"z": 1.4804009527,
				"element": "H" 
			},
			{
				"x": -1.8858919635,
				"y": 0.3728055362,
				"z": 0.4474356005,
				"element": "H" 
			},
			{
				"x": -3.0005049696,
				"y": -0.6524809943,
				"z": 1.3341585337,
				"element": "H" 
			},
			{
				"x": 1.7507818978,
				"y": -2.2680986785,
				"z": -2.291463766,
				"element": "H" 
			},
			{
				"x": 1.8088595069,
				"y": -0.5350084453,
				"z": -1.9311842099,
				"element": "H" 
			},
			{
				"x": 4.2008094826,
				"y": 0.3977528751,
				"z": -2.4329231705,
				"element": "H" 
			},
			{
				"x": 5.4521429041,
				"y": 2.2926393718,
				"z": -1.4057129103,
				"element": "H" 
			},
			{
				"x": 5.9433217509,
				"y": 2.2773147704,
				"z": 1.032074947,
				"element": "H" 
			},
			{
				"x": 5.1666308069,
				"y": 0.3785299892,
				"z": 2.4362170215,
				"element": "H" 
			},
			{
				"x": 3.8623201159,
				"y": -1.4932221851,
				"z": 1.3912758151,
				"element": "H" 
			}
		],
		 "valence_orbital": [ 
			{
				"type": "occ",
				"energy": -0.27729,
				"method": "rhf"
			},
			{
				"type": "occ",
				"energy": -0.24844,
				"method": "rhf"
			},
			{
				"type": "occ",
				"energy": -0.24367,
				"method": "rhf"
			},
			{
				"type": "occ",
				"energy": -0.2393,
				"method": "rhf"
			},
			{
				"type": "occ",
				"energy": -0.22712,
				"method": "rhf"
			},
			{
				"type": "unocc",
				"energy": -0.0043,
				"method": "rhf"
			},
			{
				"type": "unocc",
				"energy": 0.00498,
				"method": "rhf"
			},
			{
				"type": "unocc",
				"energy": 0.01048,
				"method": "rhf"
			},
			{
				"type": "unocc",
				"energy": 0.02756,
				"method": "rhf"
			},
			{
				"type": "unocc",
				"energy": 0.06175,
				"method": "rhf"
			}
		],
		"cosmo_sigma_profile": { 
			"-0.025": 0.0,
			"-0.024": 0.0,
			"-0.023": 0.0,
			"-0.022": 0.0,
			"-0.021": 0.0,
			"-0.02": 0.0,
			"-0.019": 0.0,
			"-0.018": 0.699207311206,
			"-0.017": 1.05599890146,
			"-0.016": 0.502837250962,
			"-0.015": 0.651014734191,
			"-0.014": 1.1089388455,
			"-0.013": 0.604281976159,
			"-0.012": 0.926150317977,
			"-0.011": 0.615990180325,
			"-0.01": 0.919475911121,
			"-0.009": 0.649389298771,
			"-0.008": 2.8736788416,
			"-0.007": 5.28378718808,
			"-0.006": 13.6693161532,
			"-0.005": 31.3043804102,
			"-0.004": 37.33198693,
			"-0.003": 30.6240543738,
			"-0.002": 22.707479939,
			"-0.001": 19.5029502164,
			"0.0": 12.0973891913,
			"0.001": 13.6300305264,
			"0.002": 11.893031726,
			"0.003": 12.0342609395,
			"0.004": 14.3380095568,
			"0.005": 15.9583955753,
			"0.006": 10.6487424352,
			"0.007": 5.33822755485,
			"0.008": 6.41451319899,
			"0.009": 5.63238790949,
			"0.01": 5.09508809888,
			"0.011": 7.32601040546,
			"0.012": 6.73747997238,
			"0.013": 3.27136415905,
			"0.014": 2.90392090987,
			"0.015": 0.0211895453696,
			"0.016": 0.0,
			"0.017": 0.0,
			"0.018": 0.0,
			"0.019": 0.0,
			"0.02": 0.0,
			"0.021": 0.0,
			"0.022": 0.0,
			"0.023": 0.0,
			"0.024": 0.0,
			"0.025": 0.0
		}
	}
}
