{
	 "smiles": "CC(CCC1=CC=C(CCC(C)OC(=O)NC2=CC=CC=C2)C=C1)OC(=O)NC1=CC=CC=C1", 
	 "Tm": 438.15, 
	 "num_atms": 66, 
	 "gaussian": { 
		 "optdone": 1, 
		 "sigma_profile": "yes", 
		 "theory": "DFT", 
		 "functional": "B3LYP", 
		 "basiset": "6-31G**", 
		 "properties": { 
			 "R2extent": 23312.9957, 
			 "electric_dipole_moment_norm": 3.39161198695, 
			 "electric_quadrupole_moment_norm": 9.59256957859, 
			 "total_energy": -1496.74297212, 
			 "HOMO_LUMO_gap": 0.2109, 
			 "cosmo_polarized_energy": -21.2, 
			 "cosmo_cavitation_energy": 67.82, 
			 "cosmo_dispersion_energy": -43.51, 
			 "cosmo_repulsion_energy": 3.24, 
			 "cosmo_total_nonelectrostatic_energy": 27.55, 
			 "SMD_solvation_energy": 11.92 
		},
		"coords": [
			{
				"x": -3.4986754768,
				"y": 0.8049963074,
				"z": -2.8567064295,
				"element": "C" 
			},
			{
				"x": -3.4249312172,
				"y": 0.1283036775,
				"z": -1.4899395099,
				"element": "C" 
			},
			{
				"x": -1.9983125941,
				"y": -0.2085503503,
				"z": -1.0468524662,
				"element": "C" 
			},
			{
				"x": -1.9214044609,
				"y": -0.9194910422,
				"z": 0.3186155056,
				"element": "C" 
			},
			{
				"x": -0.5011723368,
				"y": -1.2610588692,
				"z": 0.7165627806,
				"element": "C" 
			},
			{
				"x": 0.3959800617,
				"y": -0.2548411542,
				"z": 1.0977185565,
				"element": "C" 
			},
			{
				"x": 1.7111876967,
				"y": -0.5589579096,
				"z": 1.4458397998,
				"element": "C" 
			},
			{
				"x": 2.1849680643,
				"y": -1.8774709177,
				"z": 1.4216986584,
				"element": "C" 
			},
			{
				"x": 3.5980220874,
				"y": -2.2169332593,
				"z": 1.8533860974,
				"element": "C" 
			},
			{
				"x": 4.5845211833,
				"y": -2.6880990927,
				"z": 0.7596626818,
				"element": "C" 
			},
			{
				"x": 5.0980561049,
				"y": -1.6684419294,
				"z": -0.2682363281,
				"element": "C" 
			},
			{
				"x": 5.3736674085,
				"y": -0.2710424813,
				"z": 0.2767161241,
				"element": "C" 
			},
			{
				"x": 4.1278056625,
				"y": -1.6004942624,
				"z": -1.3628732625,
				"element": "O" 
			},
			{
				"x": 4.6354092961,
				"y": -1.2062756102,
				"z": -2.5494511321,
				"element": "C" 
			},
			{
				"x": 5.7854108987,
				"y": -0.8374182738,
				"z": -2.727942191,
				"element": "O" 
			},
			{
				"x": 3.7326838912,
				"y": -1.239970234,
				"z": -3.5908966649,
				"element": "N" 
			},
			{
				"x": 2.4450119468,
				"y": -1.787445951,
				"z": -3.7611046548,
				"element": "C" 
			},
			{
				"x": 1.9499759015,
				"y": -1.8176496749,
				"z": -5.0774292327,
				"element": "C" 
			},
			{
				"x": 0.6932814515,
				"y": -2.3465095406,
				"z": -5.3533253895,
				"element": "C" 
			},
			{
				"x": -0.0954909961,
				"y": -2.861157024,
				"z": -4.322382462,
				"element": "C" 
			},
			{
				"x": 0.3945470081,
				"y": -2.8250955903,
				"z": -3.0165796254,
				"element": "C" 
			},
			{
				"x": 1.6489196987,
				"y": -2.2882975049,
				"z": -2.7215886522,
				"element": "C" 
			},
			{
				"x": 1.2846605151,
				"y": -2.8848609131,
				"z": 1.0485236564,
				"element": "C" 
			},
			{
				"x": -0.0332577087,
				"y": -2.5815559753,
				"z": 0.7036773538,
				"element": "C" 
			},
			{
				"x": -4.1624108966,
				"y": 0.8864887108,
				"z": -0.4804364821,
				"element": "O" 
			},
			{
				"x": -3.7403050709,
				"y": 2.1294187919,
				"z": -0.1321200288,
				"element": "C" 
			},
			{
				"x": -2.7546011791,
				"y": 2.6977701789,
				"z": -0.5684646254,
				"element": "O" 
			},
			{
				"x": -4.6178754216,
				"y": 2.6271063376,
				"z": 0.8012848206,
				"element": "N" 
			},
			{
				"x": -4.59022578,
				"y": 3.8737177769,
				"z": 1.4567682491,
				"element": "C" 
			},
			{
				"x": -5.6167491823,
				"y": 4.1352915208,
				"z": 2.3785728893,
				"element": "C" 
			},
			{
				"x": -5.6566595282,
				"y": 5.3454633091,
				"z": 3.0654001625,
				"element": "C" 
			},
			{
				"x": -4.675235319,
				"y": 6.3136850415,
				"z": 2.8452740471,
				"element": "C" 
			},
			{
				"x": -3.6566559691,
				"y": 6.0504611869,
				"z": 1.9285268496,
				"element": "C" 
			},
			{
				"x": -3.6011655971,
				"y": 4.8433197226,
				"z": 1.2312798879,
				"element": "C" 
			},
			{
				"x": -2.9233939592,
				"y": 1.7319706823,
				"z": -2.8672837387,
				"element": "H" 
			},
			{
				"x": -4.5378249857,
				"y": 1.0288768683,
				"z": -3.1163081259,
				"element": "H" 
			},
			{
				"x": -3.0941340909,
				"y": 0.1313672194,
				"z": -3.618973701,
				"element": "H" 
			},
			{
				"x": -4.0096298039,
				"y": -0.7981944804,
				"z": -1.5203504384,
				"element": "H" 
			},
			{
				"x": -1.5630611994,
				"y": -0.8564082484,
				"z": -1.8175067323,
				"element": "H" 
			},
			{
				"x": -1.4001722386,
				"y": 0.7054403469,
				"z": -1.0271107798,
				"element": "H" 
			},
			{
				"x": -2.525696501,
				"y": -1.8352159211,
				"z": 0.2901974909,
				"element": "H" 
			},
			{
				"x": -2.373067065,
				"y": -0.2758941249,
				"z": 1.0826649935,
				"element": "H" 
			},
			{
				"x": 0.05847103,
				"y": 0.7784675955,
				"z": 1.1309394945,
				"element": "H" 
			},
			{
				"x": 2.3761197354,
				"y": 0.242104397,
				"z": 1.7594905698,
				"element": "H" 
			},
			{
				"x": 4.0287041523,
				"y": -1.359673827,
				"z": 2.3817575964,
				"element": "H" 
			},
			{
				"x": 3.5463881001,
				"y": -3.0252830948,
				"z": 2.5942009284,
				"element": "H" 
			},
			{
				"x": 5.4739323442,
				"y": -3.0694553105,
				"z": 1.2777004568,
				"element": "H" 
			},
			{
				"x": 4.1634529672,
				"y": -3.5386941768,
				"z": 0.2116893334,
				"element": "H" 
			},
			{
				"x": 6.0196529892,
				"y": -2.0612172125,
				"z": -0.7068814428,
				"element": "H" 
			},
			{
				"x": 4.4474445346,
				"y": 0.2210141607,
				"z": 0.5831575918,
				"element": "H" 
			},
			{
				"x": 6.0394350312,
				"y": -0.3304150748,
				"z": 1.144605014,
				"element": "H" 
			},
			{
				"x": 5.8594189389,
				"y": 0.3346480641,
				"z": -0.4896560009,
				"element": "H" 
			},
			{
				"x": 4.1826953017,
				"y": -0.9244857012,
				"z": -4.4388979717,
				"element": "H" 
			},
			{
				"x": 2.5615083078,
				"y": -1.4265218895,
				"z": -5.8875620687,
				"element": "H" 
			},
			{
				"x": 0.3347972621,
				"y": -2.3599994663,
				"z": -6.3786814263,
				"element": "H" 
			},
			{
				"x": -1.0725607602,
				"y": -3.2843632819,
				"z": -4.534802654,
				"element": "H" 
			},
			{
				"x": -0.2020708146,
				"y": -3.218665228,
				"z": -2.1991488301,
				"element": "H" 
			},
			{
				"x": 1.99853434,
				"y": -2.2571457073,
				"z": -1.7000725293,
				"element": "H" 
			},
			{
				"x": 1.6114805465,
				"y": -3.9225328891,
				"z": 1.0446298494,
				"element": "H" 
			},
			{
				"x": -0.714618944,
				"y": -3.3865799558,
				"z": 0.4365992478,
				"element": "H" 
			},
			{
				"x": -5.3801195849,
				"y": 2.0078190346,
				"z": 1.0359549843,
				"element": "H" 
			},
			{
				"x": -6.3845917722,
				"y": 3.385155268,
				"z": 2.5550928065,
				"element": "H" 
			},
			{
				"x": -6.4589125129,
				"y": 5.5290487543,
				"z": 3.7743887669,
				"element": "H" 
			},
			{
				"x": -4.7048876991,
				"y": 7.2579797827,
				"z": 3.3800672979,
				"element": "H" 
			},
			{
				"x": -2.8863261857,
				"y": 6.7947384761,
				"z": 1.7465519787,
				"element": "H" 
			},
			{
				"x": -2.8112476065,
				"y": 4.6430099389,
				"z": 0.5211690555,
				"element": "H" 
			}
		],
		 "valence_orbital": [ 
			{
				"type": "occ",
				"energy": -0.2484,
				"method": "rhf"
			},
			{
				"type": "occ",
				"energy": -0.24664,
				"method": "rhf"
			},
			{
				"type": "occ",
				"energy": -0.23035,
				"method": "rhf"
			},
			{
				"type": "occ",
				"energy": -0.21653,
				"method": "rhf"
			},
			{
				"type": "occ",
				"energy": -0.21413,
				"method": "rhf"
			},
			{
				"type": "unocc",
				"energy": -0.00323,
				"method": "rhf"
			},
			{
				"type": "unocc",
				"energy": -0.00133,
				"method": "rhf"
			},
			{
				"type": "unocc",
				"energy": 4e-05,
				"method": "rhf"
			},
			{
				"type": "unocc",
				"energy": 0.00018,
				"method": "rhf"
			},
			{
				"type": "unocc",
				"energy": 0.00126,
				"method": "rhf"
			}
		],
		"cosmo_sigma_profile": { 
			"-0.025": 0.0,
			"-0.024": 0.0,
			"-0.023": 0.0,
			"-0.022": 0.0,
			"-0.021": 0.0,
			"-0.02": 0.0,
			"-0.019": 0.0,
			"-0.018": 0.0,
			"-0.017": 0.0,
			"-0.016": 0.0,
			"-0.015": 0.785935235631,
			"-0.014": 2.31206672514,
			"-0.013": 1.88194342093,
			"-0.012": 2.29442488594,
			"-0.011": 2.18785729128,
			"-0.01": 1.64755310448,
			"-0.009": 2.71125280734,
			"-0.008": 3.27178722557,
			"-0.007": 2.53814286292,
			"-0.006": 9.10605602116,
			"-0.005": 27.0072464094,
			"-0.004": 52.3686920481,
			"-0.003": 60.1438971057,
			"-0.002": 49.2787246436,
			"-0.001": 45.1431618082,
			"0.0": 49.5591445117,
			"0.001": 40.0878258974,
			"0.002": 32.0333536759,
			"0.003": 34.7979774798,
			"0.004": 33.0589374362,
			"0.005": 30.7381757769,
			"0.006": 24.7473020331,
			"0.007": 6.6364100932,
			"0.008": 3.40292020881,
			"0.009": 3.0625535983,
			"0.01": 2.73881135351,
			"0.011": 3.30939357646,
			"0.012": 4.64355560927,
			"0.013": 4.39662724587,
			"0.014": 0.277752671219,
			"0.015": 0.0,
			"0.016": 0.0,
			"0.017": 0.0,
			"0.018": 0.0,
			"0.019": 0.0,
			"0.02": 0.0,
			"0.021": 0.0,
			"0.022": 0.0,
			"0.023": 0.0,
			"0.024": 0.0,
			"0.025": 0.0
		}
	}
}
