{
	 "smiles": "CC(C)C1=CC2=CC=C(C=C2C=C1)C(C)C", 
	 "Tm": 342.15, 
	 "num_atms": 36, 
	 "gaussian": { 
		 "optdone": 1, 
		 "sigma_profile": "yes", 
		 "theory": "DFT", 
		 "functional": "B3LYP", 
		 "basiset": "6-31G**", 
		 "properties": { 
			 "R2extent": 5756.2472, 
			 "electric_dipole_moment_norm": 0.019796969465, 
			 "electric_quadrupole_moment_norm": 6.85981310605, 
			 "total_energy": -621.798049245, 
			 "HOMO_LUMO_gap": 0.17328, 
			 "cosmo_polarized_energy": -4.77, 
			 "cosmo_cavitation_energy": 37.21, 
			 "cosmo_dispersion_energy": -26.14, 
			 "cosmo_repulsion_energy": 2.05, 
			 "cosmo_total_nonelectrostatic_energy": 13.12, 
			 "SMD_solvation_energy": 6.13 
		},
		"coords": [
			{
				"x": 4.9141805383,
				"y": -1.7332264694,
				"z": -0.9825508996,
				"element": "C" 
			},
			{
				"x": 3.6794126701,
				"y": -2.6502784347,
				"z": -1.0667829945,
				"element": "C" 
			},
			{
				"x": 3.590575814,
				"y": -3.5724919889,
				"z": 0.1638551197,
				"element": "C" 
			},
			{
				"x": 2.394779558,
				"y": -1.8569499233,
				"z": -1.2764372512,
				"element": "C" 
			},
			{
				"x": 1.9409305913,
				"y": -0.9448267223,
				"z": -0.3409567031,
				"element": "C" 
			},
			{
				"x": 0.7453611451,
				"y": -0.2059719674,
				"z": -0.5337182402,
				"element": "C" 
			},
			{
				"x": 0.2652957788,
				"y": 0.7350383533,
				"z": 0.4182278061,
				"element": "C" 
			},
			{
				"x": -0.8980769422,
				"y": 1.4340256759,
				"z": 0.1997566487,
				"element": "C" 
			},
			{
				"x": -1.6668455412,
				"y": 1.2441989091,
				"z": -0.9853824687,
				"element": "C" 
			},
			{
				"x": -1.2134747406,
				"y": 0.3343361231,
				"z": -1.91874843,
				"element": "C" 
			},
			{
				"x": -0.0159529949,
				"y": -0.4071596577,
				"z": -1.72898068,
				"element": "C" 
			},
			{
				"x": 0.4619286869,
				"y": -1.3458995742,
				"z": -2.6798147946,
				"element": "C" 
			},
			{
				"x": 1.6273789387,
				"y": -2.0449769202,
				"z": -2.4581179601,
				"element": "C" 
			},
			{
				"x": -2.9531053257,
				"y": 2.0260055956,
				"z": -1.2109363151,
				"element": "C" 
			},
			{
				"x": -2.6954400956,
				"y": 3.5427627032,
				"z": -1.2941093937,
				"element": "C" 
			},
			{
				"x": -4.0150070463,
				"y": 1.7037171456,
				"z": -0.1421301198,
				"element": "C" 
			},
			{
				"x": 5.0002691426,
				"y": -1.1014308684,
				"z": -1.8720207966,
				"element": "H" 
			},
			{
				"x": 5.8316430718,
				"y": -2.3256058255,
				"z": -0.8938805028,
				"element": "H" 
			},
			{
				"x": 4.8587829886,
				"y": -1.0733479565,
				"z": -0.1097928992,
				"element": "H" 
			},
			{
				"x": 3.807352675,
				"y": -3.2919892074,
				"z": -1.9486508562,
				"element": "H" 
			},
			{
				"x": 4.498512742,
				"y": -4.178102886,
				"z": 0.2608307508,
				"element": "H" 
			},
			{
				"x": 2.7342819378,
				"y": -4.2500782822,
				"z": 0.0905911573,
				"element": "H" 
			},
			{
				"x": 3.4777339014,
				"y": -2.9922429521,
				"z": 1.0862401856,
				"element": "H" 
			},
			{
				"x": 2.5032144984,
				"y": -0.7757359107,
				"z": 0.5749600665,
				"element": "H" 
			},
			{
				"x": 0.836530007,
				"y": 0.8952003013,
				"z": 1.3296052234,
				"element": "H" 
			},
			{
				"x": -1.2385760376,
				"y": 2.1461697218,
				"z": 0.9466526878,
				"element": "H" 
			},
			{
				"x": -1.7821622293,
				"y": 0.1708486255,
				"z": -2.8323223531,
				"element": "H" 
			},
			{
				"x": -0.1081507327,
				"y": -1.50696434,
				"z": -3.5916553474,
				"element": "H" 
			},
			{
				"x": 1.9752586789,
				"y": -2.7597571391,
				"z": -3.2002158545,
				"element": "H" 
			},
			{
				"x": -3.355271356,
				"y": 1.7066501288,
				"z": -2.1813982807,
				"element": "H" 
			},
			{
				"x": -1.9706650477,
				"y": 3.7784211002,
				"z": -2.079485495,
				"element": "H" 
			},
			{
				"x": -2.3017617691,
				"y": 3.9330647944,
				"z": -0.3490632285,
				"element": "H" 
			},
			{
				"x": -3.6242137778,
				"y": 4.0810718487,
				"z": -1.5130644468,
				"element": "H" 
			},
			{
				"x": -3.682144503,
				"y": 2.0092868627,
				"z": 0.8559988511,
				"element": "H" 
			},
			{
				"x": -4.2289828857,
				"y": 0.6310137779,
				"z": -0.1079515025,
				"element": "H" 
			},
			{
				"x": -4.9505923396,
				"y": 2.2325253589,
				"z": -0.3551506832,
				"element": "H" 
			}
		],
		 "valence_orbital": [ 
			{
				"type": "occ",
				"energy": -0.31153,
				"method": "rhf"
			},
			{
				"type": "occ",
				"energy": -0.30445,
				"method": "rhf"
			},
			{
				"type": "occ",
				"energy": -0.27405,
				"method": "rhf"
			},
			{
				"type": "occ",
				"energy": -0.22981,
				"method": "rhf"
			},
			{
				"type": "occ",
				"energy": -0.20525,
				"method": "rhf"
			},
			{
				"type": "unocc",
				"energy": -0.03197,
				"method": "rhf"
			},
			{
				"type": "unocc",
				"energy": -0.00147,
				"method": "rhf"
			},
			{
				"type": "unocc",
				"energy": 0.03861,
				"method": "rhf"
			},
			{
				"type": "unocc",
				"energy": 0.09112,
				"method": "rhf"
			},
			{
				"type": "unocc",
				"energy": 0.09199,
				"method": "rhf"
			}
		],
		"cosmo_sigma_profile": { 
			"-0.025": 0.0,
			"-0.024": 0.0,
			"-0.023": 0.0,
			"-0.022": 0.0,
			"-0.021": 0.0,
			"-0.02": 0.0,
			"-0.019": 0.0,
			"-0.018": 0.0,
			"-0.017": 0.0,
			"-0.016": 0.0,
			"-0.015": 0.0,
			"-0.014": 0.0,
			"-0.013": 0.0,
			"-0.012": 0.0,
			"-0.011": 0.0,
			"-0.01": 0.0,
			"-0.009": 0.0,
			"-0.008": 0.0,
			"-0.007": 0.0,
			"-0.006": 0.852238156839,
			"-0.005": 13.3576550771,
			"-0.004": 18.0656788643,
			"-0.003": 31.6162247011,
			"-0.002": 36.1393260956,
			"-0.001": 36.9013683437,
			"0.0": 34.7466752022,
			"0.001": 39.4941657048,
			"0.002": 21.8871013015,
			"0.003": 11.6426059087,
			"0.004": 14.0990710752,
			"0.005": 23.0718795235,
			"0.006": 9.3819797749,
			"0.007": 0.0266537305012,
			"0.008": 0.0,
			"0.009": 0.0,
			"0.01": 0.0,
			"0.011": 0.0,
			"0.012": 0.0,
			"0.013": 0.0,
			"0.014": 0.0,
			"0.015": 0.0,
			"0.016": 0.0,
			"0.017": 0.0,
			"0.018": 0.0,
			"0.019": 0.0,
			"0.02": 0.0,
			"0.021": 0.0,
			"0.022": 0.0,
			"0.023": 0.0,
			"0.024": 0.0,
			"0.025": 0.0
		}
	}
}
