{
	 "smiles": "OC(=O)C1CCCN1S(=O)(=O)C1=CC=CC=C1", 
	 "Tm": 353.15, 
	 "num_atms": 30, 
	 "gaussian": { 
		 "optdone": 1, 
		 "sigma_profile": "yes", 
		 "theory": "DFT", 
		 "functional": "B3LYP", 
		 "basiset": "6-31G**", 
		 "properties": { 
			 "R2extent": 4409.6464, 
			 "electric_dipole_moment_norm": 7.8260218023, 
			 "electric_quadrupole_moment_norm": 20.3663954653, 
			 "total_energy": -1180.78462533, 
			 "HOMO_LUMO_gap": 0.19622, 
			 "cosmo_polarized_energy": -18.21, 
			 "cosmo_cavitation_energy": 33.4, 
			 "cosmo_dispersion_energy": -24.21, 
			 "cosmo_repulsion_energy": 1.82, 
			 "cosmo_total_nonelectrostatic_energy": 11.0, 
			 "SMD_solvation_energy": 5.06 
		},
		"coords": [
			{
				"x": -0.042160748,
				"y": -3.9474599521,
				"z": 0.5704271344,
				"element": "O" 
			},
			{
				"x": -1.1218125788,
				"y": -3.4531076165,
				"z": -0.0395242428,
				"element": "C" 
			},
			{
				"x": -2.0530077755,
				"y": -4.1570172852,
				"z": -0.3603575197,
				"element": "O" 
			},
			{
				"x": -1.1296698553,
				"y": -1.9210680226,
				"z": -0.2809919609,
				"element": "C" 
			},
			{
				"x": -2.268583819,
				"y": -1.4855463585,
				"z": -1.2132241913,
				"element": "C" 
			},
			{
				"x": -1.6233765279,
				"y": -1.5303600489,
				"z": -2.6070295409,
				"element": "C" 
			},
			{
				"x": -0.2162436353,
				"y": -0.9758546517,
				"z": -2.360192762,
				"element": "C" 
			},
			{
				"x": 0.1031796879,
				"y": -1.4953572002,
				"z": -1.0063243627,
				"element": "N" 
			},
			{
				"x": 1.3981071407,
				"y": -0.8604365346,
				"z": -0.1724688053,
				"element": "S" 
			},
			{
				"x": 1.5293647908,
				"y": -1.7224323225,
				"z": 1.0221261635,
				"element": "O" 
			},
			{
				"x": 2.4844866974,
				"y": -0.6995896019,
				"z": -1.1360592661,
				"element": "O" 
			},
			{
				"x": 0.9387071129,
				"y": 0.7689838399,
				"z": 0.4206737341,
				"element": "C" 
			},
			{
				"x": 1.1643491819,
				"y": 1.8766941624,
				"z": -0.4032600519,
				"element": "C" 
			},
			{
				"x": 0.7606004515,
				"y": 3.1379731937,
				"z": 0.0347976496,
				"element": "C" 
			},
			{
				"x": 0.1446687092,
				"y": 3.2848025133,
				"z": 1.2801484045,
				"element": "C" 
			},
			{
				"x": -0.0611546624,
				"y": 2.1729449468,
				"z": 2.1003964852,
				"element": "C" 
			},
			{
				"x": 0.3365022794,
				"y": 0.9049249616,
				"z": 1.6757047692,
				"element": "C" 
			},
			{
				"x": 0.6187051,
				"y": -3.2453708224,
				"z": 0.7633296956,
				"element": "H" 
			},
			{
				"x": -1.1929211463,
				"y": -1.431222311,
				"z": 0.6981590854,
				"element": "H" 
			},
			{
				"x": -2.5760399191,
				"y": -0.4637537046,
				"z": -0.9662323715,
				"element": "H" 
			},
			{
				"x": -3.1243004326,
				"y": -2.1531539785,
				"z": -1.1129105894,
				"element": "H" 
			},
			{
				"x": -2.1664315097,
				"y": -0.9461504951,
				"z": -3.3540689488,
				"element": "H" 
			},
			{
				"x": -1.5667383477,
				"y": -2.5661033417,
				"z": -2.9559649957,
				"element": "H" 
			},
			{
				"x": -0.2282094358,
				"y": 0.1232806552,
				"z": -2.3650179711,
				"element": "H" 
			},
			{
				"x": 0.5313078453,
				"y": -1.3202034883,
				"z": -3.0763801492,
				"element": "H" 
			},
			{
				"x": 1.6745387319,
				"y": 1.7492216408,
				"z": -1.3515572048,
				"element": "H" 
			},
			{
				"x": 0.9369396936,
				"y": 4.0065312383,
				"z": -0.5922272124,
				"element": "H" 
			},
			{
				"x": -0.1640034276,
				"y": 4.269677806,
				"z": 1.6176227773,
				"element": "H" 
			},
			{
				"x": -0.5214616139,
				"y": 2.2926669421,
				"z": 3.0763127515,
				"element": "H" 
			},
			{
				"x": 0.2174580123,
				"y": 0.0373858361,
				"z": 2.3149934963,
				"element": "H" 
			}
		],
		 "valence_orbital": [ 
			{
				"type": "occ",
				"energy": -0.30505,
				"method": "rhf"
			},
			{
				"type": "occ",
				"energy": -0.30109,
				"method": "rhf"
			},
			{
				"type": "occ",
				"energy": -0.28588,
				"method": "rhf"
			},
			{
				"type": "occ",
				"energy": -0.28123,
				"method": "rhf"
			},
			{
				"type": "occ",
				"energy": -0.2512,
				"method": "rhf"
			},
			{
				"type": "unocc",
				"energy": -0.05498,
				"method": "rhf"
			},
			{
				"type": "unocc",
				"energy": -0.038,
				"method": "rhf"
			},
			{
				"type": "unocc",
				"energy": 0.00907,
				"method": "rhf"
			},
			{
				"type": "unocc",
				"energy": 0.04459,
				"method": "rhf"
			},
			{
				"type": "unocc",
				"energy": 0.06698,
				"method": "rhf"
			}
		],
		"cosmo_sigma_profile": { 
			"-0.025": 0.0,
			"-0.024": 0.0,
			"-0.023": 0.0,
			"-0.022": 0.0,
			"-0.021": 0.0,
			"-0.02": 0.0,
			"-0.019": 0.0,
			"-0.018": 0.0,
			"-0.017": 0.0,
			"-0.016": 0.0,
			"-0.015": 0.0,
			"-0.014": 0.0,
			"-0.013": 0.0,
			"-0.012": 0.0,
			"-0.011": 0.0,
			"-0.01": 0.0725100200475,
			"-0.009": 1.50580402031,
			"-0.008": 3.76406914804,
			"-0.007": 11.8064415732,
			"-0.006": 16.2191745767,
			"-0.005": 27.5802620215,
			"-0.004": 27.3124101966,
			"-0.003": 20.6531908618,
			"-0.002": 20.9986680216,
			"-0.001": 17.1656826772,
			"0.0": 12.503215102,
			"0.001": 15.8789355496,
			"0.002": 15.3985686224,
			"0.003": 15.528019745,
			"0.004": 5.27682558262,
			"0.005": 4.42765265423,
			"0.006": 6.27844666831,
			"0.007": 5.11026933514,
			"0.008": 5.32600514268,
			"0.009": 7.26354797775,
			"0.01": 10.6995680038,
			"0.011": 8.58695086314,
			"0.012": 4.36851486892,
			"0.013": 1.64114165813,
			"0.014": 0.0585194581413,
			"0.015": 0.0,
			"0.016": 0.0,
			"0.017": 0.0,
			"0.018": 0.0,
			"0.019": 0.0,
			"0.02": 0.0,
			"0.021": 0.0,
			"0.022": 0.0,
			"0.023": 0.0,
			"0.024": 0.0,
			"0.025": 0.0
		}
	}
}
