{
	 "smiles": "COC1=CC=C(C=C1)C(O)=O", 
	 "Tm": 457.15, 
	 "num_atms": 19, 
	 "gaussian": { 
		 "optdone": 1, 
		 "sigma_profile": "yes", 
		 "theory": "DFT", 
		 "functional": "B3LYP", 
		 "basiset": "6-31G**", 
		 "properties": { 
			 "R2extent": 2892.2547, 
			 "electric_dipole_moment_norm": 6.26049522163, 
			 "electric_quadrupole_moment_norm": 23.6450925327, 
			 "total_energy": -535.341161243, 
			 "HOMO_LUMO_gap": 0.19783, 
			 "cosmo_polarized_energy": -15.74, 
			 "cosmo_cavitation_energy": 23.41, 
			 "cosmo_dispersion_energy": -17.49, 
			 "cosmo_repulsion_energy": 1.4, 
			 "cosmo_total_nonelectrostatic_energy": 7.32, 
			 "SMD_solvation_energy": 6.03 
		},
		"coords": [
			{
				"x": 1.0341072115,
				"y": 1.8098860434,
				"z": 2.4746068128,
				"element": "C" 
			},
			{
				"x": 1.3007361307,
				"y": 0.598997888,
				"z": 1.7794982377,
				"element": "O" 
			},
			{
				"x": 1.1112106322,
				"y": 0.5653177717,
				"z": 0.4354045537,
				"element": "C" 
			},
			{
				"x": 0.6640421203,
				"y": 1.6489401356,
				"z": -0.332603525,
				"element": "C" 
			},
			{
				"x": 0.4991196639,
				"y": 1.4921380939,
				"z": -1.709235079,
				"element": "C" 
			},
			{
				"x": 0.7722613012,
				"y": 0.2731673044,
				"z": -2.3398717736,
				"element": "C" 
			},
			{
				"x": 1.2433589646,
				"y": -0.7969414125,
				"z": -1.5580523812,
				"element": "C" 
			},
			{
				"x": 1.4026118952,
				"y": -0.6601462261,
				"z": -0.1903790312,
				"element": "C" 
			},
			{
				"x": 0.6314548769,
				"y": 0.0536302003,
				"z": -3.8103912087,
				"element": "C" 
			},
			{
				"x": -0.1564203384,
				"y": 0.933313553,
				"z": -4.4919192071,
				"element": "O" 
			},
			{
				"x": 1.17293788,
				"y": -0.8494579647,
				"z": -4.4055822166,
				"element": "O" 
			},
			{
				"x": -0.0164859702,
				"y": 2.1093424271,
				"z": 2.373496268,
				"element": "H" 
			},
			{
				"x": 1.6783988239,
				"y": 2.6256762537,
				"z": 2.1240699261,
				"element": "H" 
			},
			{
				"x": 1.250596496,
				"y": 1.6065516542,
				"z": 3.5239920404,
				"element": "H" 
			},
			{
				"x": 0.4544184004,
				"y": 2.6089083997,
				"z": 0.1230322435,
				"element": "H" 
			},
			{
				"x": 0.1894452283,
				"y": 2.3601528403,
				"z": -2.2869650735,
				"element": "H" 
			},
			{
				"x": 1.476596317,
				"y": -1.7326891675,
				"z": -2.054406603,
				"element": "H" 
			},
			{
				"x": 1.7554062006,
				"y": -1.4819392816,
				"z": 0.423747781,
				"element": "H" 
			},
			{
				"x": -0.6584958344,
				"y": 1.477951487,
				"z": -3.8706417643,
				"element": "H" 
			}
		],
		 "valence_orbital": [ 
			{
				"type": "occ",
				"energy": -0.33756,
				"method": "rhf"
			},
			{
				"type": "occ",
				"energy": -0.30822,
				"method": "rhf"
			},
			{
				"type": "occ",
				"energy": -0.27136,
				"method": "rhf"
			},
			{
				"type": "occ",
				"energy": -0.26632,
				"method": "rhf"
			},
			{
				"type": "occ",
				"energy": -0.23812,
				"method": "rhf"
			},
			{
				"type": "unocc",
				"energy": -0.04029,
				"method": "rhf"
			},
			{
				"type": "unocc",
				"energy": -0.01962,
				"method": "rhf"
			},
			{
				"type": "unocc",
				"energy": 0.05574,
				"method": "rhf"
			},
			{
				"type": "unocc",
				"energy": 0.06444,
				"method": "rhf"
			},
			{
				"type": "unocc",
				"energy": 0.08683,
				"method": "rhf"
			}
		],
		"cosmo_sigma_profile": { 
			"-0.025": 0.0,
			"-0.024": 0.0,
			"-0.023": 0.0,
			"-0.022": 0.0,
			"-0.021": 0.0,
			"-0.02": 0.0,
			"-0.019": 0.0371727009855,
			"-0.018": 0.588135521155,
			"-0.017": 1.09745101411,
			"-0.016": 1.25991445294,
			"-0.015": 0.831477616208,
			"-0.014": 0.65092595044,
			"-0.013": 0.786269020218,
			"-0.012": 1.46024969323,
			"-0.011": 1.23142219333,
			"-0.01": 1.19334182044,
			"-0.009": 1.34066229178,
			"-0.008": 1.67834106269,
			"-0.007": 5.67478396253,
			"-0.006": 14.0596925337,
			"-0.005": 15.4336387431,
			"-0.004": 13.8396560838,
			"-0.003": 12.9744043207,
			"-0.002": 9.16763044508,
			"-0.001": 9.06036269735,
			"0.0": 8.5816773025,
			"0.001": 10.1245199585,
			"0.002": 12.7763848193,
			"0.003": 16.443049966,
			"0.004": 8.22652768971,
			"0.005": 4.21763045723,
			"0.006": 2.87788528561,
			"0.007": 4.3358211378,
			"0.008": 4.12347545619,
			"0.009": 4.07917879032,
			"0.01": 4.85418568082,
			"0.011": 5.25568211306,
			"0.012": 5.61459104232,
			"0.013": 2.64749159705,
			"0.014": 0.36102913075,
			"0.015": 0.0,
			"0.016": 0.0,
			"0.017": 0.0,
			"0.018": 0.0,
			"0.019": 0.0,
			"0.02": 0.0,
			"0.021": 0.0,
			"0.022": 0.0,
			"0.023": 0.0,
			"0.024": 0.0,
			"0.025": 0.0
		}
	}
}
