{
	 "smiles": "NC1=CC(=NN1C1=CC=C(Cl)C=C1)C1=CC=CO1", 
	 "Tm": 403.15, 
	 "num_atms": 28, 
	 "gaussian": { 
		 "optdone": 1, 
		 "sigma_profile": "yes", 
		 "theory": "DFT", 
		 "functional": "B3LYP", 
		 "basiset": "6-31G**", 
		 "properties": { 
			 "R2extent": 9457.5479, 
			 "electric_dipole_moment_norm": 3.06100152564, 
			 "electric_quadrupole_moment_norm": 14.6692360599, 
			 "total_energy": -1201.0385648, 
			 "HOMO_LUMO_gap": 0.16394, 
			 "cosmo_polarized_energy": -13.87, 
			 "cosmo_cavitation_energy": 35.05, 
			 "cosmo_dispersion_energy": -25.8, 
			 "cosmo_repulsion_energy": 1.98, 
			 "cosmo_total_nonelectrostatic_energy": 11.23, 
			 "SMD_solvation_energy": 5.86 
		},
		"coords": [
			{
				"x": 0.7566650781,
				"y": -0.3463225662,
				"z": 2.7821414843,
				"element": "N" 
			},
			{
				"x": 0.1683292049,
				"y": -0.0566227331,
				"z": 1.5517187612,
				"element": "C" 
			},
			{
				"x": 0.4982120455,
				"y": -0.4853207291,
				"z": 0.2818525739,
				"element": "C" 
			},
			{
				"x": -0.4731052457,
				"y": 0.1123542002,
				"z": -0.5640740499,
				"element": "C" 
			},
			{
				"x": -1.3406078679,
				"y": 0.8583256123,
				"z": 0.1170808031,
				"element": "N" 
			},
			{
				"x": -0.9530436853,
				"y": 0.7333317458,
				"z": 1.4274886808,
				"element": "N" 
			},
			{
				"x": -1.6639597554,
				"y": 1.4452238953,
				"z": 2.4239252987,
				"element": "C" 
			},
			{
				"x": -2.2569351133,
				"y": 2.6700083344,
				"z": 2.0876740058,
				"element": "C" 
			},
			{
				"x": -2.9731218184,
				"y": 3.3847837877,
				"z": 3.0423316099,
				"element": "C" 
			},
			{
				"x": -3.0896469648,
				"y": 2.8789609933,
				"z": 4.338142784,
				"element": "C" 
			},
			{
				"x": -3.9808623607,
				"y": 3.789679139,
				"z": 5.5484240383,
				"element": "Cl" 
			},
			{
				"x": -2.5140674047,
				"y": 1.6577329607,
				"z": 4.6815863523,
				"element": "C" 
			},
			{
				"x": -1.8086603154,
				"y": 0.9334350882,
				"z": 3.7205338404,
				"element": "C" 
			},
			{
				"x": -0.5821198296,
				"y": -0.017284034,
				"z": -2.0028344964,
				"element": "C" 
			},
			{
				"x": -1.4541009933,
				"y": 0.4859984318,
				"z": -2.9307743651,
				"element": "C" 
			},
			{
				"x": -1.0257109102,
				"y": -0.0122140954,
				"z": -4.2007809637,
				"element": "C" 
			},
			{
				"x": 0.0727288187,
				"y": -0.7812420712,
				"z": -3.9579910253,
				"element": "C" 
			},
			{
				"x": 0.3582194155,
				"y": -0.7964460574,
				"z": -2.6251696601,
				"element": "O" 
			},
			{
				"x": 1.6721178285,
				"y": -0.7629966315,
				"z": 2.6674116814,
				"element": "H" 
			},
			{
				"x": 0.8078171022,
				"y": 0.4491349617,
				"z": 3.4097943968,
				"element": "H" 
			},
			{
				"x": 1.3219726564,
				"y": -1.1210148673,
				"z": -0.0031478477,
				"element": "H" 
			},
			{
				"x": -2.1570844777,
				"y": 3.0394498252,
				"z": 1.0745662972,
				"element": "H" 
			},
			{
				"x": -3.4325072979,
				"y": 4.3329473863,
				"z": 2.7859525328,
				"element": "H" 
			},
			{
				"x": -2.6301020195,
				"y": 1.2642020634,
				"z": 5.6852751471,
				"element": "H" 
			},
			{
				"x": -1.3940883053,
				"y": -0.0353674476,
				"z": 3.9732037727,
				"element": "H" 
			},
			{
				"x": -2.2951985423,
				"y": 1.1289045202,
				"z": -2.7192588442,
				"element": "H" 
			},
			{
				"x": -1.4769849662,
				"y": 0.1770110361,
				"z": -5.1641980827,
				"element": "H" 
			},
			{
				"x": 0.733545724,
				"y": -1.3574527489,
				"z": -4.5865747256,
				"element": "H" 
			}
		],
		 "valence_orbital": [ 
			{
				"type": "occ",
				"energy": -0.27245,
				"method": "rhf"
			},
			{
				"type": "occ",
				"energy": -0.26934,
				"method": "rhf"
			},
			{
				"type": "occ",
				"energy": -0.24164,
				"method": "rhf"
			},
			{
				"type": "occ",
				"energy": -0.21949,
				"method": "rhf"
			},
			{
				"type": "occ",
				"energy": -0.19568,
				"method": "rhf"
			},
			{
				"type": "unocc",
				"energy": -0.03174,
				"method": "rhf"
			},
			{
				"type": "unocc",
				"energy": -0.02069,
				"method": "rhf"
			},
			{
				"type": "unocc",
				"energy": -0.00024,
				"method": "rhf"
			},
			{
				"type": "unocc",
				"energy": 0.02838,
				"method": "rhf"
			},
			{
				"type": "unocc",
				"energy": 0.04579,
				"method": "rhf"
			}
		],
		"cosmo_sigma_profile": { 
			"-0.025": 0.0,
			"-0.024": 0.0,
			"-0.023": 0.0,
			"-0.022": 0.0,
			"-0.021": 0.0,
			"-0.02": 0.0,
			"-0.019": 0.0,
			"-0.018": 0.0,
			"-0.017": 0.0,
			"-0.016": 0.0,
			"-0.015": 0.0,
			"-0.014": 0.533409041338,
			"-0.013": 2.31209372477,
			"-0.012": 3.2656373079,
			"-0.011": 2.56566829859,
			"-0.01": 2.78764699809,
			"-0.009": 3.6249772385,
			"-0.008": 5.63198599105,
			"-0.007": 11.4652577366,
			"-0.006": 12.9549479642,
			"-0.005": 14.4578871389,
			"-0.004": 13.1147878328,
			"-0.003": 12.3578151889,
			"-0.002": 14.0118035063,
			"-0.001": 14.9238750817,
			"0.0": 16.2501152587,
			"0.001": 19.1052609841,
			"0.002": 30.1751642216,
			"0.003": 34.5291749226,
			"0.004": 27.5150120489,
			"0.005": 21.7295559939,
			"0.006": 7.39751228834,
			"0.007": 4.14674989884,
			"0.008": 2.3488915439,
			"0.009": 2.08782433365,
			"0.01": 1.9976323507,
			"0.011": 1.40966197198,
			"0.012": 1.12313969559,
			"0.013": 0.4905742396,
			"0.014": 0.270031132958,
			"0.015": 0.0,
			"0.016": 0.0,
			"0.017": 0.0,
			"0.018": 0.0,
			"0.019": 0.0,
			"0.02": 0.0,
			"0.021": 0.0,
			"0.022": 0.0,
			"0.023": 0.0,
			"0.024": 0.0,
			"0.025": 0.0
		}
	}
}
