{
	 "smiles": "CCCC(NC(=O)C(C)N)C(O)=O", 
	 "Tm": 514.15, 
	 "num_atms": 29, 
	 "gaussian": { 
		 "optdone": 1, 
		 "sigma_profile": "yes", 
		 "theory": "DFT", 
		 "functional": "B3LYP", 
		 "basiset": "6-31G**", 
		 "properties": { 
			 "R2extent": 3481.3299, 
			 "electric_dipole_moment_norm": 4.90811683337, 
			 "electric_quadrupole_moment_norm": 15.4989431172, 
			 "total_energy": -649.709345113, 
			 "HOMO_LUMO_gap": 0.24228, 
			 "cosmo_polarized_energy": -18.78, 
			 "cosmo_cavitation_energy": 30.74, 
			 "cosmo_dispersion_energy": -21.53, 
			 "cosmo_repulsion_energy": 1.74, 
			 "cosmo_total_nonelectrostatic_energy": 10.95, 
			 "SMD_solvation_energy": 4.91 
		},
		"coords": [
			{
				"x": 0.1713704648,
				"y": 0.1588558451,
				"z": -4.5262253368,
				"element": "C" 
			},
			{
				"x": 0.5452231206,
				"y": 1.4188179311,
				"z": -3.7365632277,
				"element": "C" 
			},
			{
				"x": 1.589111291,
				"y": 1.2465685515,
				"z": -2.6142735697,
				"element": "C" 
			},
			{
				"x": 1.2783782158,
				"y": 0.2426529916,
				"z": -1.4882099417,
				"element": "C" 
			},
			{
				"x": -0.1241438654,
				"y": 0.3394395714,
				"z": -1.0562497153,
				"element": "N" 
			},
			{
				"x": -0.5752254446,
				"y": -0.0713146092,
				"z": 0.1495259624,
				"element": "C" 
			},
			{
				"x": 0.1503681586,
				"y": -0.687688911,
				"z": 0.9479833362,
				"element": "O" 
			},
			{
				"x": -2.0447015962,
				"y": 0.2222137721,
				"z": 0.4954862966,
				"element": "C" 
			},
			{
				"x": -2.8972621906,
				"y": -1.0019465382,
				"z": 0.1240675373,
				"element": "C" 
			},
			{
				"x": -2.227885222,
				"y": 0.535987623,
				"z": 1.908825489,
				"element": "N" 
			},
			{
				"x": 1.7028728278,
				"y": -1.2110246865,
				"z": -1.8368095385,
				"element": "C" 
			},
			{
				"x": 1.4777461262,
				"y": -2.1101974265,
				"z": -0.8743768837,
				"element": "O" 
			},
			{
				"x": 2.2504395287,
				"y": -1.5062296317,
				"z": -2.8749458665,
				"element": "O" 
			},
			{
				"x": -0.3311035582,
				"y": -0.5866978636,
				"z": -3.9015535089,
				"element": "H" 
			},
			{
				"x": -0.5067155946,
				"y": 0.4133089147,
				"z": -5.3475494578,
				"element": "H" 
			},
			{
				"x": 1.0586446354,
				"y": -0.3241273347,
				"z": -4.9409306136,
				"element": "H" 
			},
			{
				"x": 0.9520801955,
				"y": 2.1666553067,
				"z": -4.4279391733,
				"element": "H" 
			},
			{
				"x": -0.3663669776,
				"y": 1.8900439039,
				"z": -3.3360972564,
				"element": "H" 
			},
			{
				"x": 1.7567784399,
				"y": 2.2275506379,
				"z": -2.1544364596,
				"element": "H" 
			},
			{
				"x": 2.537486226,
				"y": 0.9285333565,
				"z": -3.0552303192,
				"element": "H" 
			},
			{
				"x": 1.8856079631,
				"y": 0.5060432124,
				"z": -0.6107908479,
				"element": "H" 
			},
			{
				"x": -0.7692064994,
				"y": 0.7999616846,
				"z": -1.6816132156,
				"element": "H" 
			},
			{
				"x": -2.3864064172,
				"y": 1.0858112129,
				"z": -0.0899805803,
				"element": "H" 
			},
			{
				"x": -2.5572252312,
				"y": -1.8792957467,
				"z": 0.6835386132,
				"element": "H" 
			},
			{
				"x": -3.9403689538,
				"y": -0.8070836991,
				"z": 0.3831839795,
				"element": "H" 
			},
			{
				"x": -2.8288982602,
				"y": -1.2334069828,
				"z": -0.9434915529,
				"element": "H" 
			},
			{
				"x": -1.7365058543,
				"y": 1.3974624313,
				"z": 2.1385031069,
				"element": "H" 
			},
			{
				"x": -1.7682138289,
				"y": -0.1932875963,
				"z": 2.4530170225,
				"element": "H" 
			},
			{
				"x": 1.0889223008,
				"y": -1.6759059203,
				"z": -0.0715642783,
				"element": "H" 
			}
		],
		 "valence_orbital": [ 
			{
				"type": "occ",
				"energy": -0.30478,
				"method": "rhf"
			},
			{
				"type": "occ",
				"energy": -0.3001,
				"method": "rhf"
			},
			{
				"type": "occ",
				"energy": -0.28654,
				"method": "rhf"
			},
			{
				"type": "occ",
				"energy": -0.2572,
				"method": "rhf"
			},
			{
				"type": "occ",
				"energy": -0.25196,
				"method": "rhf"
			},
			{
				"type": "unocc",
				"energy": -0.00968,
				"method": "rhf"
			},
			{
				"type": "unocc",
				"energy": 0.01139,
				"method": "rhf"
			},
			{
				"type": "unocc",
				"energy": 0.04752,
				"method": "rhf"
			},
			{
				"type": "unocc",
				"energy": 0.08285,
				"method": "rhf"
			},
			{
				"type": "unocc",
				"energy": 0.08701,
				"method": "rhf"
			}
		],
		"cosmo_sigma_profile": { 
			"-0.025": 0.0,
			"-0.024": 0.0,
			"-0.023": 0.0,
			"-0.022": 0.0,
			"-0.021": 0.0,
			"-0.02": 0.0,
			"-0.019": 0.0,
			"-0.018": 0.0,
			"-0.017": 0.0,
			"-0.016": 0.0,
			"-0.015": 0.0,
			"-0.014": 0.70955593269,
			"-0.013": 1.22367244961,
			"-0.012": 1.12675502273,
			"-0.011": 1.8301535752,
			"-0.01": 3.09026332566,
			"-0.009": 3.86963489904,
			"-0.008": 5.77918914413,
			"-0.007": 8.01317940561,
			"-0.006": 8.96434744845,
			"-0.005": 8.44100434073,
			"-0.004": 16.4747501309,
			"-0.003": 24.2412032844,
			"-0.002": 28.1449134743,
			"-0.001": 25.7336246275,
			"0.0": 19.5317610005,
			"0.001": 13.6097062237,
			"0.002": 8.87334461185,
			"0.003": 4.96839691356,
			"0.004": 4.45555752172,
			"0.005": 4.60452388121,
			"0.006": 4.82610240155,
			"0.007": 3.93195836419,
			"0.008": 4.88640961694,
			"0.009": 4.90549364535,
			"0.01": 5.25588227646,
			"0.011": 8.20571857292,
			"0.012": 6.7836439246,
			"0.013": 2.84922543338,
			"0.014": 0.643901686265,
			"0.015": 0.795867884755,
			"0.016": 0.821257894883,
			"0.017": 0.535584636727,
			"0.018": 0.455179380506,
			"0.019": 0.173308056951,
			"0.02": 0.0,
			"0.021": 0.0,
			"0.022": 0.0,
			"0.023": 0.0,
			"0.024": 0.0,
			"0.025": 0.0
		}
	}
}
