{
	 "smiles": "NC(=N)NC(N)=O", 
	 "Tm": 378.15, 
	 "num_atms": 13, 
	 "gaussian": { 
		 "optdone": 1, 
		 "sigma_profile": "yes", 
		 "theory": "DFT", 
		 "functional": "B3LYP", 
		 "basiset": "6-31G**", 
		 "properties": { 
			 "R2extent": 1263.1826, 
			 "electric_dipole_moment_norm": 4.35297526182, 
			 "electric_quadrupole_moment_norm": 10.3938188689, 
			 "total_energy": -374.085797767, 
			 "HOMO_LUMO_gap": 0.23852, 
			 "cosmo_polarized_energy": -21.2, 
			 "cosmo_cavitation_energy": 17.22, 
			 "cosmo_dispersion_energy": -13.21, 
			 "cosmo_repulsion_energy": 1.15, 
			 "cosmo_total_nonelectrostatic_energy": 5.16, 
			 "SMD_solvation_energy": 3.01 
		},
		"coords": [
			{
				"x": -0.6075560539,
				"y": 2.0746823858,
				"z": -0.2396461082,
				"element": "N" 
			},
			{
				"x": -0.1567732845,
				"y": 0.7922219101,
				"z": -0.1442947714,
				"element": "C" 
			},
			{
				"x": -0.22058426,
				"y": -0.0251589087,
				"z": -1.1315283852,
				"element": "N" 
			},
			{
				"x": 0.3465123538,
				"y": 0.4280521196,
				"z": 1.1380147278,
				"element": "N" 
			},
			{
				"x": 0.6062975153,
				"y": 1.2489965557,
				"z": 2.2254697645,
				"element": "C" 
			},
			{
				"x": 1.0818971325,
				"y": 0.5702546595,
				"z": 3.3317555522,
				"element": "N" 
			},
			{
				"x": 0.4102771264,
				"y": 2.4605788766,
				"z": 2.2456898939,
				"element": "O" 
			},
			{
				"x": -0.355846069,
				"y": 2.7249712371,
				"z": 0.4944237176,
				"element": "H" 
			},
			{
				"x": -0.7768161718,
				"y": 2.3960763024,
				"z": -1.1788618488,
				"element": "H" 
			},
			{
				"x": 0.1488443392,
				"y": -0.9435911052,
				"z": -0.8909999902,
				"element": "H" 
			},
			{
				"x": 0.4640406109,
				"y": -0.5664275765,
				"z": 1.2629460648,
				"element": "H" 
			},
			{
				"x": 1.4241855905,
				"y": 1.183608976,
				"z": 4.0570035007,
				"element": "H" 
			},
			{
				"x": 1.6047211706,
				"y": -0.2848654322,
				"z": 3.2098278824,
				"element": "H" 
			}
		],
		 "valence_orbital": [ 
			{
				"type": "occ",
				"energy": -0.29472,
				"method": "rhf"
			},
			{
				"type": "occ",
				"energy": -0.28086,
				"method": "rhf"
			},
			{
				"type": "occ",
				"energy": -0.27782,
				"method": "rhf"
			},
			{
				"type": "occ",
				"energy": -0.25731,
				"method": "rhf"
			},
			{
				"type": "occ",
				"energy": -0.21981,
				"method": "rhf"
			},
			{
				"type": "unocc",
				"energy": 0.01871,
				"method": "rhf"
			},
			{
				"type": "unocc",
				"energy": 0.04594,
				"method": "rhf"
			},
			{
				"type": "unocc",
				"energy": 0.08015,
				"method": "rhf"
			},
			{
				"type": "unocc",
				"energy": 0.09539,
				"method": "rhf"
			},
			{
				"type": "unocc",
				"energy": 0.1202,
				"method": "rhf"
			}
		],
		"cosmo_sigma_profile": { 
			"-0.025": 0.0,
			"-0.024": 0.0,
			"-0.023": 0.0,
			"-0.022": 0.0,
			"-0.021": 0.0,
			"-0.02": 0.0,
			"-0.019": 0.0,
			"-0.018": 0.173446942363,
			"-0.017": 1.49335620418,
			"-0.016": 2.44027154346,
			"-0.015": 2.41121015379,
			"-0.014": 2.78867135585,
			"-0.013": 4.26224394781,
			"-0.012": 4.97881921639,
			"-0.011": 3.87170131818,
			"-0.01": 3.75219729144,
			"-0.009": 3.99756611627,
			"-0.008": 3.52678374498,
			"-0.007": 5.00538416082,
			"-0.006": 4.13635156644,
			"-0.005": 3.13312905492,
			"-0.004": 2.94563972542,
			"-0.003": 3.75784066965,
			"-0.002": 3.72226210057,
			"-0.001": 4.40459974169,
			"0.0": 6.26069905546,
			"0.001": 8.18762088697,
			"0.002": 6.22790511857,
			"0.003": 5.02496980533,
			"0.004": 5.41953412628,
			"0.005": 3.60242219364,
			"0.006": 3.40251545099,
			"0.007": 4.42798891858,
			"0.008": 3.91327120052,
			"0.009": 5.36510822886,
			"0.01": 3.80081111202,
			"0.011": 2.88293582125,
			"0.012": 3.36384314216,
			"0.013": 4.3440395853,
			"0.014": 1.94711677073,
			"0.015": 1.6826509067,
			"0.016": 0.69029683487,
			"0.017": 1.40106048187,
			"0.018": 1.28995547796,
			"0.019": 1.05591902909,
			"0.02": 0.165845893632,
			"0.021": 0.0,
			"0.022": 0.0,
			"0.023": 0.0,
			"0.024": 0.0,
			"0.025": 0.0
		}
	}
}
