{
	 "smiles": "C[C@H](CO)NC(=O)OCC1=CC=CC=C1", 
	 "Tm": 356.15, 
	 "num_atms": 30, 
	 "gaussian": { 
		 "optdone": 1, 
		 "sigma_profile": "yes", 
		 "theory": "DFT", 
		 "functional": "B3LYP", 
		 "basiset": "6-31G**", 
		 "properties": { 
			 "R2extent": 4074.4323, 
			 "electric_dipole_moment_norm": 2.34987073261, 
			 "electric_quadrupole_moment_norm": 12.7740910921, 
			 "total_energy": -708.649552847, 
			 "HOMO_LUMO_gap": 0.23645, 
			 "cosmo_polarized_energy": -14.39, 
			 "cosmo_cavitation_energy": 33.73, 
			 "cosmo_dispersion_energy": -22.91, 
			 "cosmo_repulsion_energy": 1.85, 
			 "cosmo_total_nonelectrostatic_energy": 12.67, 
			 "SMD_solvation_energy": 6.75 
		},
		"coords": [
			{
				"x": 1.3358950154,
				"y": -0.8302570118,
				"z": 2.358247335,
				"element": "C" 
			},
			{
				"x": -0.0931005697,
				"y": -0.5419367644,
				"z": 2.8319771357,
				"element": "C" 
			},
			{
				"x": -1.0902412901,
				"y": -1.6353365519,
				"z": 2.4146050107,
				"element": "C" 
			},
			{
				"x": -2.3811595054,
				"y": -1.402509413,
				"z": 2.9483730478,
				"element": "O" 
			},
			{
				"x": -0.5916022513,
				"y": 0.7939533234,
				"z": 2.441740562,
				"element": "N" 
			},
			{
				"x": -0.6279430948,
				"y": 1.3568246262,
				"z": 1.188740913,
				"element": "C" 
			},
			{
				"x": -0.8278207746,
				"y": 2.5403684251,
				"z": 0.9814921902,
				"element": "O" 
			},
			{
				"x": -0.4530798932,
				"y": 0.4303381635,
				"z": 0.2108045505,
				"element": "O" 
			},
			{
				"x": -0.5222275633,
				"y": 0.9532990277,
				"z": -1.1414073309,
				"element": "C" 
			},
			{
				"x": -0.2875942767,
				"y": -0.1905305302,
				"z": -2.0903117008,
				"element": "C" 
			},
			{
				"x": 0.9782855847,
				"y": -0.4067038686,
				"z": -2.6471010073,
				"element": "C" 
			},
			{
				"x": 1.1995629504,
				"y": -1.4769088233,
				"z": -3.515493098,
				"element": "C" 
			},
			{
				"x": 0.1538207032,
				"y": -2.345020404,
				"z": -3.833244837,
				"element": "C" 
			},
			{
				"x": -1.1131862657,
				"y": -2.1384173606,
				"z": -3.2819709037,
				"element": "C" 
			},
			{
				"x": -1.3313142421,
				"y": -1.0662984803,
				"z": -2.4174964017,
				"element": "C" 
			},
			{
				"x": 1.3872087204,
				"y": -0.8817551732,
				"z": 1.2686219221,
				"element": "H" 
			},
			{
				"x": 2.0218763182,
				"y": -0.0497919043,
				"z": 2.7013540383,
				"element": "H" 
			},
			{
				"x": 1.6803779251,
				"y": -1.7864172581,
				"z": 2.7659458027,
				"element": "H" 
			},
			{
				"x": -0.1050793317,
				"y": -0.5174920518,
				"z": 3.927345292,
				"element": "H" 
			},
			{
				"x": -1.1086417039,
				"y": -1.7204978897,
				"z": 1.3194536467,
				"element": "H" 
			},
			{
				"x": -0.7521195171,
				"y": -2.5944612562,
				"z": 2.8207622912,
				"element": "H" 
			},
			{
				"x": -2.6228546163,
				"y": -0.5035301792,
				"z": 2.6833217851,
				"element": "H" 
			},
			{
				"x": -0.6136519595,
				"y": 1.5036247804,
				"z": 3.1595012818,
				"element": "H" 
			},
			{
				"x": -1.5054922102,
				"y": 1.4100857601,
				"z": -1.287086639,
				"element": "H" 
			},
			{
				"x": 0.2298820757,
				"y": 1.7383952148,
				"z": -1.2560144172,
				"element": "H" 
			},
			{
				"x": 1.7932264246,
				"y": 0.2695051612,
				"z": -2.4009513927,
				"element": "H" 
			},
			{
				"x": 2.1855571661,
				"y": -1.631140823,
				"z": -3.9443169196,
				"element": "H" 
			},
			{
				"x": 0.3234645565,
				"y": -3.1771206252,
				"z": -4.5105610385,
				"element": "H" 
			},
			{
				"x": -1.9307575891,
				"y": -2.809367807,
				"z": -3.5293847636,
				"element": "H" 
			},
			{
				"x": -2.3183907856,
				"y": -0.9045003066,
				"z": -1.9917463548,
				"element": "H" 
			}
		],
		 "valence_orbital": [ 
			{
				"type": "occ",
				"energy": -0.2767,
				"method": "rhf"
			},
			{
				"type": "occ",
				"energy": -0.27015,
				"method": "rhf"
			},
			{
				"type": "occ",
				"energy": -0.25692,
				"method": "rhf"
			},
			{
				"type": "occ",
				"energy": -0.2538,
				"method": "rhf"
			},
			{
				"type": "occ",
				"energy": -0.25225,
				"method": "rhf"
			},
			{
				"type": "unocc",
				"energy": -0.0158,
				"method": "rhf"
			},
			{
				"type": "unocc",
				"energy": -0.00828,
				"method": "rhf"
			},
			{
				"type": "unocc",
				"energy": 0.04723,
				"method": "rhf"
			},
			{
				"type": "unocc",
				"energy": 0.06889,
				"method": "rhf"
			},
			{
				"type": "unocc",
				"energy": 0.08613,
				"method": "rhf"
			}
		],
		"cosmo_sigma_profile": { 
			"-0.025": 0.0,
			"-0.024": 0.0,
			"-0.023": 0.0,
			"-0.022": 0.0,
			"-0.021": 0.0,
			"-0.02": 0.0,
			"-0.019": 0.0,
			"-0.018": 0.0,
			"-0.017": 0.0,
			"-0.016": 0.0,
			"-0.015": 0.0,
			"-0.014": 0.689253604483,
			"-0.013": 1.24549838288,
			"-0.012": 2.24564542149,
			"-0.011": 1.72997305686,
			"-0.01": 1.43223651528,
			"-0.009": 1.47392949916,
			"-0.008": 2.77249261513,
			"-0.007": 2.42108011543,
			"-0.006": 14.5763913639,
			"-0.005": 19.2347739355,
			"-0.004": 27.3270270497,
			"-0.003": 22.9067980157,
			"-0.002": 21.0313659605,
			"-0.001": 23.2148711213,
			"0.0": 20.5442764715,
			"0.001": 15.8381030319,
			"0.002": 12.1555953757,
			"0.003": 13.4120963022,
			"0.004": 12.4254555096,
			"0.005": 13.0856522778,
			"0.006": 6.8468896693,
			"0.007": 2.08218172369,
			"0.008": 2.23043345805,
			"0.009": 2.87325764611,
			"0.01": 2.27967738106,
			"0.011": 2.54371856217,
			"0.012": 4.11901977697,
			"0.013": 7.1674139786,
			"0.014": 4.42259559737,
			"0.015": 0.980292691669,
			"0.016": 0.0,
			"0.017": 0.0,
			"0.018": 0.0,
			"0.019": 0.0,
			"0.02": 0.0,
			"0.021": 0.0,
			"0.022": 0.0,
			"0.023": 0.0,
			"0.024": 0.0,
			"0.025": 0.0
		}
	}
}
