{
	 "smiles": "OCC1=CC(=CC=C1O)C(O)CNCCCCCCOCCCCC1=CC=CC=C1", 
	 "Tm": 348.9, 
	 "num_atms": 67, 
	 "gaussian": { 
		 "optdone": 1, 
		 "sigma_profile": "yes", 
		 "theory": "DFT", 
		 "functional": "B3LYP", 
		 "basiset": "6-31G**", 
		 "properties": { 
			 "R2extent": 21694.7171, 
			 "electric_dipole_moment_norm": 3.87569042365, 
			 "electric_quadrupole_moment_norm": 28.0340279254, 
			 "total_energy": -1330.58802568, 
			 "HOMO_LUMO_gap": 0.21329, 
			 "cosmo_polarized_energy": -22.64, 
			 "cosmo_cavitation_energy": 67.29, 
			 "cosmo_dispersion_energy": -42.22, 
			 "cosmo_repulsion_energy": 3.25, 
			 "cosmo_total_nonelectrostatic_energy": 28.32, 
			 "SMD_solvation_energy": 9.15 
		},
		"coords": [
			{
				"x": 2.4200320295,
				"y": -6.0949416942,
				"z": 2.5061056037,
				"element": "O" 
			},
			{
				"x": 2.0789361,
				"y": -5.370175218,
				"z": 1.3329971817,
				"element": "C" 
			},
			{
				"x": 3.1810843883,
				"y": -4.4527379941,
				"z": 0.8405348627,
				"element": "C" 
			},
			{
				"x": 2.9902412923,
				"y": -3.0792773575,
				"z": 0.6777554321,
				"element": "C" 
			},
			{
				"x": 4.005189709,
				"y": -2.2328513963,
				"z": 0.2095756004,
				"element": "C" 
			},
			{
				"x": 5.2541419405,
				"y": -2.7886295701,
				"z": -0.0839475026,
				"element": "C" 
			},
			{
				"x": 5.4764729081,
				"y": -4.1554569392,
				"z": 0.0813029847,
				"element": "C" 
			},
			{
				"x": 4.446408712,
				"y": -4.9790723078,
				"z": 0.5348260322,
				"element": "C" 
			},
			{
				"x": 4.6124760245,
				"y": -6.335410837,
				"z": 0.7112432741,
				"element": "O" 
			},
			{
				"x": 3.7450555619,
				"y": -0.7545487233,
				"z": -0.0010362897,
				"element": "C" 
			},
			{
				"x": 4.9598788086,
				"y": -0.0555567216,
				"z": 0.2657929186,
				"element": "O" 
			},
			{
				"x": 3.2700434184,
				"y": -0.4399434366,
				"z": -1.4353221316,
				"element": "C" 
			},
			{
				"x": 1.9957045823,
				"y": -1.0755384057,
				"z": -1.741855508,
				"element": "N" 
			},
			{
				"x": 1.47288465,
				"y": -0.7565983344,
				"z": -3.0779086748,
				"element": "C" 
			},
			{
				"x": 0.6982073194,
				"y": 0.5702705827,
				"z": -3.1454610591,
				"element": "C" 
			},
			{
				"x": -0.7332035395,
				"y": 0.5361696412,
				"z": -2.5770999041,
				"element": "C" 
			},
			{
				"x": -0.8812508515,
				"y": 0.3310970931,
				"z": -1.0602962089,
				"element": "C" 
			},
			{
				"x": -0.3066176096,
				"y": 1.4711459288,
				"z": -0.2121358916,
				"element": "C" 
			},
			{
				"x": -0.5316188803,
				"y": 1.2746415017,
				"z": 1.2911636387,
				"element": "C" 
			},
			{
				"x": -1.8948822151,
				"y": 1.2004242497,
				"z": 1.6829605997,
				"element": "O" 
			},
			{
				"x": -2.5690930782,
				"y": 2.4512765327,
				"z": 1.7315863382,
				"element": "C" 
			},
			{
				"x": -3.9039516037,
				"y": 2.2410465805,
				"z": 2.4444684866,
				"element": "C" 
			},
			{
				"x": -4.9022490935,
				"y": 1.3214138396,
				"z": 1.7124145828,
				"element": "C" 
			},
			{
				"x": -5.8761733349,
				"y": 2.0304060404,
				"z": 0.7429553791,
				"element": "C" 
			},
			{
				"x": -5.2470487912,
				"y": 2.6838959093,
				"z": -0.470748417,
				"element": "C" 
			},
			{
				"x": -4.7878806607,
				"y": 1.9051367444,
				"z": -1.5440688287,
				"element": "C" 
			},
			{
				"x": -4.2075373754,
				"y": 2.4971198643,
				"z": -2.6660180303,
				"element": "C" 
			},
			{
				"x": -4.07259525,
				"y": 3.8862985667,
				"z": -2.7367481145,
				"element": "C" 
			},
			{
				"x": -4.5290227258,
				"y": 4.6743545117,
				"z": -1.6797575239,
				"element": "C" 
			},
			{
				"x": -5.1134607494,
				"y": 4.0761059579,
				"z": -0.5608121993,
				"element": "C" 
			},
			{
				"x": 3.1911270855,
				"y": -6.6315832004,
				"z": 2.2748524431,
				"element": "H" 
			},
			{
				"x": 1.1959610401,
				"y": -4.7746351198,
				"z": 1.5835919636,
				"element": "H" 
			},
			{
				"x": 1.7882956984,
				"y": -6.05601175,
				"z": 0.5196947894,
				"element": "H" 
			},
			{
				"x": 2.020435308,
				"y": -2.6559658838,
				"z": 0.9299939702,
				"element": "H" 
			},
			{
				"x": 6.0574752768,
				"y": -2.1426655819,
				"z": -0.4202825638,
				"element": "H" 
			},
			{
				"x": 6.4541631533,
				"y": -4.58061314,
				"z": -0.1385968904,
				"element": "H" 
			},
			{
				"x": 5.5242041282,
				"y": -6.576933601,
				"z": 0.503663669,
				"element": "H" 
			},
			{
				"x": 2.9503881146,
				"y": -0.4370559551,
				"z": 0.6916582809,
				"element": "H" 
			},
			{
				"x": 4.8040041616,
				"y": 0.8820395643,
				"z": 0.0938805622,
				"element": "H" 
			},
			{
				"x": 4.0813152624,
				"y": -0.7156636776,
				"z": -2.1352865218,
				"element": "H" 
			},
			{
				"x": 3.140724918,
				"y": 0.6485976073,
				"z": -1.5162304191,
				"element": "H" 
			},
			{
				"x": 2.1152654288,
				"y": -2.0817937714,
				"z": -1.6633967293,
				"element": "H" 
			},
			{
				"x": 2.2827523004,
				"y": -0.7358925392,
				"z": -3.8309247411,
				"element": "H" 
			},
			{
				"x": 0.7985946982,
				"y": -1.5705510748,
				"z": -3.3720278229,
				"element": "H" 
			},
			{
				"x": 1.2832747068,
				"y": 1.3634762102,
				"z": -2.6628277546,
				"element": "H" 
			},
			{
				"x": 0.6345546445,
				"y": 0.8571378145,
				"z": -4.2036241315,
				"element": "H" 
			},
			{
				"x": -1.2857419404,
				"y": -0.2613923313,
				"z": -3.0946164189,
				"element": "H" 
			},
			{
				"x": -1.2353022749,
				"y": 1.4739164676,
				"z": -2.8525822808,
				"element": "H" 
			},
			{
				"x": -0.3964386237,
				"y": -0.606079574,
				"z": -0.7665456439,
				"element": "H" 
			},
			{
				"x": -1.9472191098,
				"y": 0.2323986929,
				"z": -0.8243787936,
				"element": "H" 
			},
			{
				"x": 0.7771754751,
				"y": 1.551290008,
				"z": -0.3691967157,
				"element": "H" 
			},
			{
				"x": -0.735687565,
				"y": 2.4306309517,
				"z": -0.5318069511,
				"element": "H" 
			},
			{
				"x": -0.0873111717,
				"y": 0.3219530317,
				"z": 1.6041318627,
				"element": "H" 
			},
			{
				"x": -0.0255887085,
				"y": 2.0768932824,
				"z": 1.8547535772,
				"element": "H" 
			},
			{
				"x": -1.9615659217,
				"y": 3.1792905804,
				"z": 2.2963877052,
				"element": "H" 
			},
			{
				"x": -2.7207482639,
				"y": 2.8611568024,
				"z": 0.7240469257,
				"element": "H" 
			},
			{
				"x": -4.3601373805,
				"y": 3.2229716128,
				"z": 2.6291152252,
				"element": "H" 
			},
			{
				"x": -3.6757985196,
				"y": 1.8133592808,
				"z": 3.4276891949,
				"element": "H" 
			},
			{
				"x": -4.3447300976,
				"y": 0.5397738946,
				"z": 1.1844929854,
				"element": "H" 
			},
			{
				"x": -5.5160326991,
				"y": 0.8041160731,
				"z": 2.4598444447,
				"element": "H" 
			},
			{
				"x": -6.6108702739,
				"y": 1.2893228168,
				"z": 0.4022468866,
				"element": "H" 
			},
			{
				"x": -6.4412361001,
				"y": 2.7854880241,
				"z": 1.3040593546,
				"element": "H" 
			},
			{
				"x": -4.8937400924,
				"y": 0.823569994,
				"z": -1.5013899247,
				"element": "H" 
			},
			{
				"x": -3.8669101334,
				"y": 1.8746753705,
				"z": -3.4887332744,
				"element": "H" 
			},
			{
				"x": -3.6238603029,
				"y": 4.3487627327,
				"z": -3.6112536403,
				"element": "H" 
			},
			{
				"x": -4.4371699551,
				"y": 5.7560946509,
				"z": -1.7269846975,
				"element": "H" 
			},
			{
				"x": -5.4761939525,
				"y": 4.6988571277,
				"z": 0.2536154437,
				"element": "H" 
			}
		],
		 "valence_orbital": [ 
			{
				"type": "occ",
				"energy": -0.24656,
				"method": "rhf"
			},
			{
				"type": "occ",
				"energy": -0.24165,
				"method": "rhf"
			},
			{
				"type": "occ",
				"energy": -0.23328,
				"method": "rhf"
			},
			{
				"type": "occ",
				"energy": -0.22428,
				"method": "rhf"
			},
			{
				"type": "occ",
				"energy": -0.21961,
				"method": "rhf"
			},
			{
				"type": "unocc",
				"energy": -0.00632,
				"method": "rhf"
			},
			{
				"type": "unocc",
				"energy": -0.0,
				"method": "rhf"
			},
			{
				"type": "unocc",
				"energy": 0.00331,
				"method": "rhf"
			},
			{
				"type": "unocc",
				"energy": 0.00421,
				"method": "rhf"
			},
			{
				"type": "unocc",
				"energy": 0.05685,
				"method": "rhf"
			}
		],
		"cosmo_sigma_profile": { 
			"-0.025": 0.0,
			"-0.024": 0.0,
			"-0.023": 0.0,
			"-0.022": 0.0,
			"-0.021": 0.0,
			"-0.02": 0.0,
			"-0.019": 0.0281869482308,
			"-0.018": 0.741045567507,
			"-0.017": 1.23487972619,
			"-0.016": 1.00797065628,
			"-0.015": 2.00642592648,
			"-0.014": 2.08734806126,
			"-0.013": 1.58560069901,
			"-0.012": 1.81239095312,
			"-0.011": 2.20918317834,
			"-0.01": 2.52054180106,
			"-0.009": 2.69888518263,
			"-0.008": 3.03141468031,
			"-0.007": 4.30631053774,
			"-0.006": 6.74821222296,
			"-0.005": 18.0341467411,
			"-0.004": 27.0867829009,
			"-0.003": 50.8754629473,
			"-0.002": 63.2368036376,
			"-0.001": 69.4631705367,
			"0.0": 61.9179181807,
			"0.001": 45.6682646945,
			"0.002": 31.0029072836,
			"0.003": 25.7555028803,
			"0.004": 22.9002444144,
			"0.005": 21.1541124362,
			"0.006": 13.7274542525,
			"0.007": 8.98711014372,
			"0.008": 5.6325610453,
			"0.009": 5.04043278157,
			"0.01": 4.36241488083,
			"0.011": 3.84225423738,
			"0.012": 4.01951038668,
			"0.013": 3.31400374959,
			"0.014": 3.50883035051,
			"0.015": 1.49139444346,
			"0.016": 0.0,
			"0.017": 0.0,
			"0.018": 0.0,
			"0.019": 0.0,
			"0.02": 0.0,
			"0.021": 0.0,
			"0.022": 0.0,
			"0.023": 0.0,
			"0.024": 0.0,
			"0.025": 0.0
		}
	}
}
