{
	 "smiles": "OC1=CC=C2C=CC=CC2=C1N=NC1=CC=CC=C1", 
	 "Tm": 406.15, 
	 "num_atms": 31, 
	 "gaussian": { 
		 "optdone": 1, 
		 "sigma_profile": "yes", 
		 "theory": "DFT", 
		 "functional": "B3LYP", 
		 "basiset": "6-31G**", 
		 "properties": { 
			 "R2extent": 6230.2857, 
			 "electric_dipole_moment_norm": 0.91554276798, 
			 "electric_quadrupole_moment_norm": 15.6540523916, 
			 "total_energy": -801.643310553, 
			 "HOMO_LUMO_gap": 0.11633, 
			 "cosmo_polarized_energy": -7.57, 
			 "cosmo_cavitation_energy": 35.37, 
			 "cosmo_dispersion_energy": -26.05, 
			 "cosmo_repulsion_energy": 1.94, 
			 "cosmo_total_nonelectrostatic_energy": 11.26, 
			 "SMD_solvation_energy": 5.18 
		},
		"coords": [
			{
				"x": 0.7890868967,
				"y": 2.8406726349,
				"z": 0.4796199325,
				"element": "O" 
			},
			{
				"x": 0.0602292213,
				"y": 2.2814224915,
				"z": -0.4836606662,
				"element": "C" 
			},
			{
				"x": -0.3496972972,
				"y": 3.1017996304,
				"z": -1.5673286847,
				"element": "C" 
			},
			{
				"x": -1.1014267711,
				"y": 2.5785499357,
				"z": -2.5861875712,
				"element": "C" 
			},
			{
				"x": -1.4979021357,
				"y": 1.2085422156,
				"z": -2.6011873491,
				"element": "C" 
			},
			{
				"x": -2.2757076526,
				"y": 0.6757176391,
				"z": -3.6594096009,
				"element": "C" 
			},
			{
				"x": -2.6520741778,
				"y": -0.6505510352,
				"z": -3.6614923116,
				"element": "C" 
			},
			{
				"x": -2.2577107441,
				"y": -1.4887029449,
				"z": -2.5959975877,
				"element": "C" 
			},
			{
				"x": -1.4996262958,
				"y": -0.9977763762,
				"z": -1.5510282023,
				"element": "C" 
			},
			{
				"x": -1.0991474201,
				"y": 0.3600403303,
				"z": -1.5232091883,
				"element": "C" 
			},
			{
				"x": -0.3060595611,
				"y": 0.913128017,
				"z": -0.4487116511,
				"element": "C" 
			},
			{
				"x": 0.05388875,
				"y": 0.0506829673,
				"z": 0.570408017,
				"element": "N" 
			},
			{
				"x": 0.755066013,
				"y": 0.5407434154,
				"z": 1.5196297846,
				"element": "N" 
			},
			{
				"x": 1.1170035562,
				"y": -0.3478798587,
				"z": 2.5549987581,
				"element": "C" 
			},
			{
				"x": 1.8876935152,
				"y": 0.1960446017,
				"z": 3.5935535736,
				"element": "C" 
			},
			{
				"x": 2.2928321073,
				"y": -0.6041762051,
				"z": 4.65969663,
				"element": "C" 
			},
			{
				"x": 1.9320808194,
				"y": -1.9523727294,
				"z": 4.6974550995,
				"element": "C" 
			},
			{
				"x": 1.1628513876,
				"y": -2.4964272311,
				"z": 3.6615047808,
				"element": "C" 
			},
			{
				"x": 0.7541038008,
				"y": -1.7056422855,
				"z": 2.5937017403,
				"element": "C" 
			},
			{
				"x": 0.9734466077,
				"y": 2.1013330408,
				"z": 1.1433606032,
				"element": "H" 
			},
			{
				"x": -0.0462984586,
				"y": 4.1432167838,
				"z": -1.5526397905,
				"element": "H" 
			},
			{
				"x": -1.4098355851,
				"y": 3.2158742596,
				"z": -3.4111352821,
				"element": "H" 
			},
			{
				"x": -2.5706918782,
				"y": 1.3349768088,
				"z": -4.4718986714,
				"element": "H" 
			},
			{
				"x": -3.248046638,
				"y": -1.0508626944,
				"z": -4.4760994103,
				"element": "H" 
			},
			{
				"x": -2.5543123813,
				"y": -2.5338808393,
				"z": -2.5977467195,
				"element": "H" 
			},
			{
				"x": -1.1993126558,
				"y": -1.6444110319,
				"z": -0.7356733342,
				"element": "H" 
			},
			{
				"x": 2.1592894765,
				"y": 1.2463916634,
				"z": 3.5482587447,
				"element": "H" 
			},
			{
				"x": 2.8892127636,
				"y": -0.1756763182,
				"z": 5.4596826505,
				"element": "H" 
			},
			{
				"x": 2.2466654131,
				"y": -2.5780514616,
				"z": 5.527494766,
				"element": "H" 
			},
			{
				"x": 0.8818044601,
				"y": -3.545422109,
				"z": 3.6903583862,
				"element": "H" 
			},
			{
				"x": 0.1587948641,
				"y": -2.1141033149,
				"z": 1.7859825539,
				"element": "H" 
			}
		],
		 "valence_orbital": [ 
			{
				"type": "occ",
				"energy": -0.25836,
				"method": "rhf"
			},
			{
				"type": "occ",
				"energy": -0.25204,
				"method": "rhf"
			},
			{
				"type": "occ",
				"energy": -0.23589,
				"method": "rhf"
			},
			{
				"type": "occ",
				"energy": -0.23475,
				"method": "rhf"
			},
			{
				"type": "occ",
				"energy": -0.2048,
				"method": "rhf"
			},
			{
				"type": "unocc",
				"energy": -0.08847,
				"method": "rhf"
			},
			{
				"type": "unocc",
				"energy": -0.02896,
				"method": "rhf"
			},
			{
				"type": "unocc",
				"energy": -0.00662,
				"method": "rhf"
			},
			{
				"type": "unocc",
				"energy": -0.00412,
				"method": "rhf"
			},
			{
				"type": "unocc",
				"energy": 0.01857,
				"method": "rhf"
			}
		],
		"cosmo_sigma_profile": { 
			"-0.025": 0.0,
			"-0.024": 0.0,
			"-0.023": 0.0,
			"-0.022": 0.0,
			"-0.021": 0.0,
			"-0.02": 0.0,
			"-0.019": 0.0,
			"-0.018": 0.0,
			"-0.017": 0.0,
			"-0.016": 0.0,
			"-0.015": 0.0,
			"-0.014": 0.0,
			"-0.013": 0.0,
			"-0.012": 0.0,
			"-0.011": 0.0,
			"-0.01": 0.0,
			"-0.009": 0.0,
			"-0.008": 0.104851217926,
			"-0.007": 5.70344771875,
			"-0.006": 18.2589744525,
			"-0.005": 20.8990330022,
			"-0.004": 23.768371406,
			"-0.003": 17.8849515621,
			"-0.002": 17.8926119804,
			"-0.001": 17.0632815061,
			"0.0": 18.8482373384,
			"0.001": 28.489337087,
			"0.002": 32.1418804893,
			"0.003": 32.1552178358,
			"0.004": 27.2975413155,
			"0.005": 15.2991748005,
			"0.006": 1.88663564343,
			"0.007": 1.65237002837,
			"0.008": 1.30061735095,
			"0.009": 1.27288762382,
			"0.01": 1.86854508217,
			"0.011": 1.36959840116,
			"0.012": 0.123822633432,
			"0.013": 0.0,
			"0.014": 0.0,
			"0.015": 0.0,
			"0.016": 0.0,
			"0.017": 0.0,
			"0.018": 0.0,
			"0.019": 0.0,
			"0.02": 0.0,
			"0.021": 0.0,
			"0.022": 0.0,
			"0.023": 0.0,
			"0.024": 0.0,
			"0.025": 0.0
		}
	}
}
