{
	 "smiles": "OC(=O)C=CC1=CC=C(C=C1)N1C=CN=C1", 
	 "Tm": 574.15, 
	 "num_atms": 26, 
	 "gaussian": { 
		 "optdone": 1, 
		 "sigma_profile": "yes", 
		 "theory": "DFT", 
		 "functional": "B3LYP", 
		 "basiset": "6-31G**", 
		 "properties": { 
			 "R2extent": 5697.4259, 
			 "electric_dipole_moment_norm": 3.94542472492, 
			 "electric_quadrupole_moment_norm": 20.5861593446, 
			 "total_energy": -723.241681725, 
			 "HOMO_LUMO_gap": 0.14907, 
			 "cosmo_polarized_energy": -15.52, 
			 "cosmo_cavitation_energy": 31.29, 
			 "cosmo_dispersion_energy": -22.88, 
			 "cosmo_repulsion_energy": 1.73, 
			 "cosmo_total_nonelectrostatic_energy": 10.15, 
			 "SMD_solvation_energy": 5.68 
		},
		"coords": [
			{
				"x": 1.6838845178,
				"y": -4.1572026632,
				"z": -1.8657196412,
				"element": "O" 
			},
			{
				"x": 1.1788414846,
				"y": -3.101241176,
				"z": -1.1730534417,
				"element": "C" 
			},
			{
				"x": 0.8365811571,
				"y": -3.2239107639,
				"z": -0.0082358004,
				"element": "O" 
			},
			{
				"x": 1.139217883,
				"y": -1.9104628583,
				"z": -2.0370817142,
				"element": "C" 
			},
			{
				"x": 0.7182218047,
				"y": -0.6461540452,
				"z": -1.7883767568,
				"element": "C" 
			},
			{
				"x": 0.1526688515,
				"y": 0.0688950402,
				"z": -0.6441445062,
				"element": "C" 
			},
			{
				"x": -0.1434663706,
				"y": 1.4349681651,
				"z": -0.8425775076,
				"element": "C" 
			},
			{
				"x": -0.6902541407,
				"y": 2.2210143697,
				"z": 0.1621735972,
				"element": "C" 
			},
			{
				"x": -0.9469034296,
				"y": 1.6578003928,
				"z": 1.4186242168,
				"element": "C" 
			},
			{
				"x": -0.6512413743,
				"y": 0.3059406497,
				"z": 1.6415145147,
				"element": "C" 
			},
			{
				"x": -0.1191297734,
				"y": -0.4798011363,
				"z": 0.6267729977,
				"element": "C" 
			},
			{
				"x": -1.5027555261,
				"y": 2.4457095324,
				"z": 2.4539132009,
				"element": "N" 
			},
			{
				"x": -1.2909455524,
				"y": 3.7988582112,
				"z": 2.6856936685,
				"element": "C" 
			},
			{
				"x": -2.053700789,
				"y": 4.1103764703,
				"z": 3.7794342413,
				"element": "C" 
			},
			{
				"x": -2.7437476103,
				"y": 3.0030690415,
				"z": 4.228089671,
				"element": "N" 
			},
			{
				"x": -2.3926408523,
				"y": 2.0296681716,
				"z": 3.4228119665,
				"element": "C" 
			},
			{
				"x": 1.6835513424,
				"y": -4.9041881526,
				"z": -1.2448438325,
				"element": "H" 
			},
			{
				"x": 1.5159194889,
				"y": -2.1053377609,
				"z": -3.036196784,
				"element": "H" 
			},
			{
				"x": 0.8241369003,
				"y": 0.0079802745,
				"z": -2.6539423139,
				"element": "H" 
			},
			{
				"x": 0.0482996771,
				"y": 1.8838223751,
				"z": -1.8135682607,
				"element": "H" 
			},
			{
				"x": -0.94101548,
				"y": 3.2587533676,
				"z": -0.0292683638,
				"element": "H" 
			},
			{
				"x": -0.8158434372,
				"y": -0.1252467254,
				"z": 2.6233871135,
				"element": "H" 
			},
			{
				"x": 0.1072893534,
				"y": -1.5216746367,
				"z": 0.8110131169,
				"element": "H" 
			},
			{
				"x": -0.5998250769,
				"y": 4.3751396861,
				"z": 2.0916327559,
				"element": "H" 
			},
			{
				"x": -2.1417515012,
				"y": 5.0676909331,
				"z": 4.2741721144,
				"element": "H" 
			},
			{
				"x": -2.7653915467,
				"y": 1.0156332375,
				"z": 3.4520757476,
				"element": "H" 
			}
		],
		 "valence_orbital": [ 
			{
				"type": "occ",
				"energy": -0.27823,
				"method": "rhf"
			},
			{
				"type": "occ",
				"energy": -0.27199,
				"method": "rhf"
			},
			{
				"type": "occ",
				"energy": -0.26846,
				"method": "rhf"
			},
			{
				"type": "occ",
				"energy": -0.24073,
				"method": "rhf"
			},
			{
				"type": "occ",
				"energy": -0.22771,
				"method": "rhf"
			},
			{
				"type": "unocc",
				"energy": -0.07864,
				"method": "rhf"
			},
			{
				"type": "unocc",
				"energy": -0.02042,
				"method": "rhf"
			},
			{
				"type": "unocc",
				"energy": -0.00665,
				"method": "rhf"
			},
			{
				"type": "unocc",
				"energy": 0.03648,
				"method": "rhf"
			},
			{
				"type": "unocc",
				"energy": 0.06277,
				"method": "rhf"
			}
		],
		"cosmo_sigma_profile": { 
			"-0.025": 0.0,
			"-0.024": 0.0,
			"-0.023": 0.0,
			"-0.022": 0.0,
			"-0.021": 0.0,
			"-0.02": 0.0,
			"-0.019": 0.0299609825597,
			"-0.018": 0.597362085087,
			"-0.017": 0.724659469134,
			"-0.016": 1.10974540194,
			"-0.015": 0.582087407416,
			"-0.014": 0.649730704785,
			"-0.013": 0.542678785153,
			"-0.012": 0.743477424296,
			"-0.011": 0.744877141068,
			"-0.01": 0.836487073231,
			"-0.009": 3.1032798648,
			"-0.008": 9.60295296876,
			"-0.007": 14.3062118493,
			"-0.006": 14.4660420592,
			"-0.005": 12.5429196667,
			"-0.004": 10.9622403526,
			"-0.003": 12.5558780896,
			"-0.002": 13.2443836064,
			"-0.001": 15.192592898,
			"0.0": 17.3875220383,
			"0.001": 20.8792622414,
			"0.002": 24.1203214178,
			"0.003": 23.7804120754,
			"0.004": 9.09075565331,
			"0.005": 9.51737663354,
			"0.006": 5.0836788172,
			"0.007": 3.18934287435,
			"0.008": 5.62993207796,
			"0.009": 4.55982838842,
			"0.01": 3.74805738612,
			"0.011": 3.64170492615,
			"0.012": 2.71575224273,
			"0.013": 1.35787738208,
			"0.014": 1.43199786615,
			"0.015": 0.907197440705,
			"0.016": 1.0591339398,
			"0.017": 1.07777544045,
			"0.018": 0.292183753033,
			"0.019": 0.0,
			"0.02": 0.0,
			"0.021": 0.0,
			"0.022": 0.0,
			"0.023": 0.0,
			"0.024": 0.0,
			"0.025": 0.0
		}
	}
}
