{
	 "smiles": "CN(C)C(=O)CN1C(C)=NN=C1S", 
	 "Tm": 534.15, 
	 "num_atms": 25, 
	 "gaussian": { 
		 "optdone": 1, 
		 "sigma_profile": "yes", 
		 "theory": "DFT", 
		 "functional": "B3LYP", 
		 "basiset": "6-31G**", 
		 "properties": { 
			 "R2extent": 3343.2471, 
			 "electric_dipole_moment_norm": 8.17280075861, 
			 "electric_quadrupole_moment_norm": 13.6206689623, 
			 "total_energy": -966.37617276, 
			 "HOMO_LUMO_gap": 0.22584, 
			 "cosmo_polarized_energy": -24.41, 
			 "cosmo_cavitation_energy": 30.11, 
			 "cosmo_dispersion_energy": -21.62, 
			 "cosmo_repulsion_energy": 1.68, 
			 "cosmo_total_nonelectrostatic_energy": 10.18, 
			 "SMD_solvation_energy": 3.42 
		},
		"coords": [
			{
				"x": -0.6964931504,
				"y": -0.435419142,
				"z": -2.9634661884,
				"element": "C" 
			},
			{
				"x": -0.05392793,
				"y": -0.8410819864,
				"z": -1.7179863174,
				"element": "N" 
			},
			{
				"x": 0.832224163,
				"y": -1.9916666378,
				"z": -1.8126889961,
				"element": "C" 
			},
			{
				"x": -0.2372105627,
				"y": -0.069543367,
				"z": -0.6019671392,
				"element": "C" 
			},
			{
				"x": -0.9686282022,
				"y": 0.9113557248,
				"z": -0.5765301423,
				"element": "O" 
			},
			{
				"x": 0.5025515519,
				"y": -0.5170331892,
				"z": 0.6816545013,
				"element": "C" 
			},
			{
				"x": 0.407917987,
				"y": 0.4738928659,
				"z": 1.7295928311,
				"element": "N" 
			},
			{
				"x": -0.6637614773,
				"y": 0.7385250586,
				"z": 2.5623730412,
				"element": "C" 
			},
			{
				"x": -1.9632071299,
				"y": 0.0121131273,
				"z": 2.5126302343,
				"element": "C" 
			},
			{
				"x": -0.3655300799,
				"y": 1.7185931586,
				"z": 3.3787879206,
				"element": "N" 
			},
			{
				"x": 0.9201407701,
				"y": 2.1476805456,
				"z": 3.0852024602,
				"element": "N" 
			},
			{
				"x": 1.3523403897,
				"y": 1.4011759184,
				"z": 2.1020199347,
				"element": "C" 
			},
			{
				"x": 2.9420908531,
				"y": 1.5119513325,
				"z": 1.330149858,
				"element": "S" 
			},
			{
				"x": 0.0565688609,
				"y": -0.1830444856,
				"z": -3.7203118793,
				"element": "H" 
			},
			{
				"x": -1.3200074412,
				"y": -1.2493866468,
				"z": -3.3515839865,
				"element": "H" 
			},
			{
				"x": -1.3153630208,
				"y": 0.4373448648,
				"z": -2.7638946279,
				"element": "H" 
			},
			{
				"x": 0.3241958049,
				"y": -2.7988578791,
				"z": -2.3521235525,
				"element": "H" 
			},
			{
				"x": 1.1041058115,
				"y": -2.3766370755,
				"z": -0.8308280973,
				"element": "H" 
			},
			{
				"x": 1.7537062937,
				"y": -1.7480771784,
				"z": -2.3590372731,
				"element": "H" 
			},
			{
				"x": 1.561713793,
				"y": -0.7066520534,
				"z": 0.4894861473,
				"element": "H" 
			},
			{
				"x": 0.0703652858,
				"y": -1.4582976013,
				"z": 1.0402857281,
				"element": "H" 
			},
			{
				"x": -2.4486602616,
				"y": 0.1536231199,
				"z": 1.5420404376,
				"element": "H" 
			},
			{
				"x": -1.8427332968,
				"y": -1.064284135,
				"z": 2.6867169507,
				"element": "H" 
			},
			{
				"x": -2.6071703593,
				"y": 0.4152267953,
				"z": 3.2955022001,
				"element": "H" 
			},
			{
				"x": 3.4302713476,
				"y": 2.3162988658,
				"z": 2.2922759548,
				"element": "H" 
			}
		],
		 "valence_orbital": [ 
			{
				"type": "occ",
				"energy": -0.28588,
				"method": "rhf"
			},
			{
				"type": "occ",
				"energy": -0.26777,
				"method": "rhf"
			},
			{
				"type": "occ",
				"energy": -0.25906,
				"method": "rhf"
			},
			{
				"type": "occ",
				"energy": -0.24451,
				"method": "rhf"
			},
			{
				"type": "occ",
				"energy": -0.2214,
				"method": "rhf"
			},
			{
				"type": "unocc",
				"energy": 0.00444,
				"method": "rhf"
			},
			{
				"type": "unocc",
				"energy": 0.00645,
				"method": "rhf"
			},
			{
				"type": "unocc",
				"energy": 0.02522,
				"method": "rhf"
			},
			{
				"type": "unocc",
				"energy": 0.05501,
				"method": "rhf"
			},
			{
				"type": "unocc",
				"energy": 0.06022,
				"method": "rhf"
			}
		],
		"cosmo_sigma_profile": { 
			"-0.025": 0.0,
			"-0.024": 0.0,
			"-0.023": 0.0,
			"-0.022": 0.0,
			"-0.021": 0.0,
			"-0.02": 0.0,
			"-0.019": 0.0,
			"-0.018": 0.0,
			"-0.017": 0.0,
			"-0.016": 0.0,
			"-0.015": 0.0,
			"-0.014": 0.0,
			"-0.013": 0.0246911826763,
			"-0.012": 1.40804080899,
			"-0.011": 1.50650676025,
			"-0.01": 2.49936423519,
			"-0.009": 7.43679045297,
			"-0.008": 8.00356903361,
			"-0.007": 6.73295673147,
			"-0.006": 9.60634498434,
			"-0.005": 20.286634801,
			"-0.004": 21.874309279,
			"-0.003": 24.7116413235,
			"-0.002": 24.0997739147,
			"-0.001": 15.8418041082,
			"0.0": 8.84146874764,
			"0.001": 9.9587593284,
			"0.002": 10.0048563583,
			"0.003": 7.12341199297,
			"0.004": 7.55168344022,
			"0.005": 6.80246753665,
			"0.006": 6.5824542133,
			"0.007": 4.54552207321,
			"0.008": 2.87999735125,
			"0.009": 3.46894712868,
			"0.01": 3.18832320083,
			"0.011": 4.19416622595,
			"0.012": 4.89292952828,
			"0.013": 5.48797440136,
			"0.014": 4.99429517067,
			"0.015": 2.19916968894,
			"0.016": 2.58166191863,
			"0.017": 1.26945850995,
			"0.018": 0.123061207883,
			"0.019": 0.0,
			"0.02": 0.0,
			"0.021": 0.0,
			"0.022": 0.0,
			"0.023": 0.0,
			"0.024": 0.0,
			"0.025": 0.0
		}
	}
}
