{
	 "smiles": "COC1=CC=C(NC(=S)NN=CC2=C(NC3=C2C=CC=C3)C2=CC=C(Cl)C=C2)C=C1", 
	 "Tm": 504.15, 
	 "num_atms": 49, 
	 "gaussian": { 
		 "optdone": 1, 
		 "sigma_profile": "yes", 
		 "theory": "DFT", 
		 "functional": "B3LYP", 
		 "basiset": "6-31G**", 
		 "properties": { 
			 "R2extent": 18832.6079, 
			 "electric_dipole_moment_norm": 8.29751573304, 
			 "electric_quadrupole_moment_norm": 19.9364515599, 
			 "total_energy": -2040.49709959, 
			 "HOMO_LUMO_gap": 0.12503, 
			 "cosmo_polarized_energy": -25.23, 
			 "cosmo_cavitation_energy": 57.34, 
			 "cosmo_dispersion_energy": -39.1, 
			 "cosmo_repulsion_energy": 2.83, 
			 "cosmo_total_nonelectrostatic_energy": 21.07, 
			 "SMD_solvation_energy": 8.21 
		},
		"coords": [
			{
				"x": -2.0765846138,
				"y": 2.8708656766,
				"z": -7.3107188099,
				"element": "C" 
			},
			{
				"x": -2.5739666596,
				"y": 1.5778251979,
				"z": -7.0121935115,
				"element": "O" 
			},
			{
				"x": -2.2401789242,
				"y": 1.0225360439,
				"z": -5.8087836847,
				"element": "C" 
			},
			{
				"x": -2.7510292981,
				"y": -0.2582197739,
				"z": -5.5591908559,
				"element": "C" 
			},
			{
				"x": -2.481675896,
				"y": -0.9224516392,
				"z": -4.369321694,
				"element": "C" 
			},
			{
				"x": -1.6768570117,
				"y": -0.3107222359,
				"z": -3.3939446046,
				"element": "C" 
			},
			{
				"x": -1.3620446677,
				"y": -0.8761990638,
				"z": -2.1365701805,
				"element": "N" 
			},
			{
				"x": -1.4642935387,
				"y": -2.1361605476,
				"z": -1.6522909924,
				"element": "C" 
			},
			{
				"x": -2.0136189324,
				"y": -3.5353572191,
				"z": -2.4060390125,
				"element": "S" 
			},
			{
				"x": -1.0356486171,
				"y": -2.2445876232,
				"z": -0.3422798374,
				"element": "N" 
			},
			{
				"x": -0.5580762429,
				"y": -1.1874425981,
				"z": 0.3613939326,
				"element": "N" 
			},
			{
				"x": -0.1421919429,
				"y": -1.4160617082,
				"z": 1.5626650913,
				"element": "C" 
			},
			{
				"x": 0.4106853294,
				"y": -0.4270348376,
				"z": 2.4607805437,
				"element": "C" 
			},
			{
				"x": 0.5939013456,
				"y": 0.9514484031,
				"z": 2.3113201581,
				"element": "C" 
			},
			{
				"x": 1.2814272752,
				"y": 1.4187754012,
				"z": 3.4181055014,
				"element": "N" 
			},
			{
				"x": 1.5199603889,
				"y": 0.3957772999,
				"z": 4.3129135949,
				"element": "C" 
			},
			{
				"x": 0.995630034,
				"y": -0.7881943701,
				"z": 3.7381422344,
				"element": "C" 
			},
			{
				"x": 1.1305894166,
				"y": -1.9966453737,
				"z": 4.443986086,
				"element": "C" 
			},
			{
				"x": 1.7554765387,
				"y": -1.9857840595,
				"z": 5.6846454537,
				"element": "C" 
			},
			{
				"x": 2.2576578865,
				"y": -0.7912046246,
				"z": 6.2400744806,
				"element": "C" 
			},
			{
				"x": 2.1487589642,
				"y": 0.4166202335,
				"z": 5.5614232464,
				"element": "C" 
			},
			{
				"x": 0.2198868756,
				"y": 1.912611576,
				"z": 1.2646777303,
				"element": "C" 
			},
			{
				"x": 1.1128007283,
				"y": 2.9371396178,
				"z": 0.9015364807,
				"element": "C" 
			},
			{
				"x": 0.7634610671,
				"y": 3.9002997659,
				"z": -0.0431164276,
				"element": "C" 
			},
			{
				"x": -0.4969629583,
				"y": 3.8439410572,
				"z": -0.6352480997,
				"element": "C" 
			},
			{
				"x": -0.9474726554,
				"y": 5.051112742,
				"z": -1.8276954902,
				"element": "Cl" 
			},
			{
				"x": -1.4055844798,
				"y": 2.8389997667,
				"z": -0.2947084265,
				"element": "C" 
			},
			{
				"x": -1.0445278678,
				"y": 1.8828223359,
				"z": 0.6509149256,
				"element": "C" 
			},
			{
				"x": -1.1675932345,
				"y": 0.9693696149,
				"z": -3.6462031478,
				"element": "C" 
			},
			{
				"x": -1.4436482689,
				"y": 1.6391902903,
				"z": -4.8378700717,
				"element": "C" 
			},
			{
				"x": -2.4547798307,
				"y": 3.1190488226,
				"z": -8.3038004132,
				"element": "H" 
			},
			{
				"x": -0.9787929552,
				"y": 2.8901298466,
				"z": -7.3288373045,
				"element": "H" 
			},
			{
				"x": -2.4340559884,
				"y": 3.6203727271,
				"z": -6.5921453219,
				"element": "H" 
			},
			{
				"x": -3.3698133721,
				"y": -0.7242882194,
				"z": -6.3190601829,
				"element": "H" 
			},
			{
				"x": -2.882025617,
				"y": -1.9108615145,
				"z": -4.1924165591,
				"element": "H" 
			},
			{
				"x": -0.9395469265,
				"y": -0.2335025613,
				"z": -1.4717218098,
				"element": "H" 
			},
			{
				"x": -1.0618035667,
				"y": -3.1830117585,
				"z": 0.0488441155,
				"element": "H" 
			},
			{
				"x": -0.1803818322,
				"y": -2.4370902186,
				"z": 1.9617101809,
				"element": "H" 
			},
			{
				"x": 1.4139193449,
				"y": 2.3996349359,
				"z": 3.6107376893,
				"element": "H" 
			},
			{
				"x": 0.7515629409,
				"y": -2.929114997,
				"z": 4.0360052455,
				"element": "H" 
			},
			{
				"x": 1.8602712024,
				"y": -2.9134369474,
				"z": 6.2390410547,
				"element": "H" 
			},
			{
				"x": 2.7396787099,
				"y": -0.8157334746,
				"z": 7.212609265,
				"element": "H" 
			},
			{
				"x": 2.5388233695,
				"y": 1.3384234698,
				"z": 5.9830179808,
				"element": "H" 
			},
			{
				"x": 2.1061083448,
				"y": 2.9660135345,
				"z": 1.3401065885,
				"element": "H" 
			},
			{
				"x": 1.4634372358,
				"y": 4.679409274,
				"z": -0.3237676374,
				"element": "H" 
			},
			{
				"x": -2.3855175685,
				"y": 2.8132444842,
				"z": -0.7581828613,
				"element": "H" 
			},
			{
				"x": -1.7521667372,
				"y": 1.1091649161,
				"z": 0.9234398794,
				"element": "H" 
			},
			{
				"x": -0.542425436,
				"y": 1.4558061624,
				"z": -2.90190696,
				"element": "H" 
			},
			{
				"x": -1.032271358,
				"y": 2.6296221698,
				"z": -4.990377562,
				"element": "H" 
			}
		],
		 "valence_orbital": [ 
			{
				"type": "occ",
				"energy": -0.23721,
				"method": "rhf"
			},
			{
				"type": "occ",
				"energy": -0.22928,
				"method": "rhf"
			},
			{
				"type": "occ",
				"energy": -0.20343,
				"method": "rhf"
			},
			{
				"type": "occ",
				"energy": -0.19646,
				"method": "rhf"
			},
			{
				"type": "occ",
				"energy": -0.19359,
				"method": "rhf"
			},
			{
				"type": "unocc",
				"energy": -0.06856,
				"method": "rhf"
			},
			{
				"type": "unocc",
				"energy": -0.03215,
				"method": "rhf"
			},
			{
				"type": "unocc",
				"energy": -0.02861,
				"method": "rhf"
			},
			{
				"type": "unocc",
				"energy": -0.00987,
				"method": "rhf"
			},
			{
				"type": "unocc",
				"energy": 0.0021,
				"method": "rhf"
			}
		],
		"cosmo_sigma_profile": { 
			"-0.025": 0.0,
			"-0.024": 0.0,
			"-0.023": 0.0,
			"-0.022": 0.0,
			"-0.021": 0.0,
			"-0.02": 0.0,
			"-0.019": 0.0,
			"-0.018": 0.0,
			"-0.017": 0.0131431666526,
			"-0.016": 0.702729830037,
			"-0.015": 1.71777393202,
			"-0.014": 2.32612454671,
			"-0.013": 2.59515700526,
			"-0.012": 2.27072996266,
			"-0.011": 2.28218354866,
			"-0.01": 3.13133537428,
			"-0.009": 3.65719671945,
			"-0.008": 6.98240025552,
			"-0.007": 11.2275561966,
			"-0.006": 21.6731466435,
			"-0.005": 31.2691380882,
			"-0.004": 28.4247432408,
			"-0.003": 33.4425644463,
			"-0.002": 27.7986140235,
			"-0.001": 24.7282938875,
			"0.0": 29.9034367462,
			"0.001": 35.4626904251,
			"0.002": 40.4744790474,
			"0.003": 40.3818737227,
			"0.004": 37.0438403511,
			"0.005": 29.2992877301,
			"0.006": 14.8303804229,
			"0.007": 7.14437783205,
			"0.008": 6.08819228479,
			"0.009": 5.37871695438,
			"0.01": 7.66579028738,
			"0.011": 6.37184023701,
			"0.012": 1.01373404435,
			"0.013": 0.0,
			"0.014": 0.0,
			"0.015": 0.0,
			"0.016": 0.0,
			"0.017": 0.0,
			"0.018": 0.0,
			"0.019": 0.0,
			"0.02": 0.0,
			"0.021": 0.0,
			"0.022": 0.0,
			"0.023": 0.0,
			"0.024": 0.0,
			"0.025": 0.0
		}
	}
}
