{
	 "smiles": "CCCCC(=O)C1=CC=C(F)C=C1", 
	 "Tm": 300.15, 
	 "num_atms": 26, 
	 "gaussian": { 
		 "optdone": 1, 
		 "sigma_profile": "yes", 
		 "theory": "DFT", 
		 "functional": "B3LYP", 
		 "basiset": "6-31G**", 
		 "properties": { 
			 "R2extent": 3544.1899, 
			 "electric_dipole_moment_norm": 2.43680448539, 
			 "electric_quadrupole_moment_norm": 6.04791519616, 
			 "total_energy": -602.076684437, 
			 "HOMO_LUMO_gap": 0.19048, 
			 "cosmo_polarized_energy": -7.67, 
			 "cosmo_cavitation_energy": 29.77, 
			 "cosmo_dispersion_energy": -20.9, 
			 "cosmo_repulsion_energy": 1.65, 
			 "cosmo_total_nonelectrostatic_energy": 10.51, 
			 "SMD_solvation_energy": 5.87 
		},
		"coords": [
			{
				"x": 2.1373003147,
				"y": 3.2590456768,
				"z": 1.3641739477,
				"element": "C" 
			},
			{
				"x": 2.5267288467,
				"y": 2.5949097743,
				"z": 0.0385119033,
				"element": "C" 
			},
			{
				"x": 1.5665338773,
				"y": 1.488858277,
				"z": -0.4283381596,
				"element": "C" 
			},
			{
				"x": 1.5523587623,
				"y": 0.2461395352,
				"z": 0.4903059798,
				"element": "C" 
			},
			{
				"x": 0.6795396445,
				"y": -0.8631483603,
				"z": -0.0828183185,
				"element": "C" 
			},
			{
				"x": 1.1828608457,
				"y": -1.7410761581,
				"z": -0.7707119194,
				"element": "O" 
			},
			{
				"x": -0.7997143464,
				"y": -0.853012974,
				"z": 0.1632359367,
				"element": "C" 
			},
			{
				"x": -1.4474857486,
				"y": 0.1175169891,
				"z": 0.9443999607,
				"element": "C" 
			},
			{
				"x": -2.8272634814,
				"y": 0.0761709942,
				"z": 1.1366425982,
				"element": "C" 
			},
			{
				"x": -3.5518733017,
				"y": -0.9498214833,
				"z": 0.5397238647,
				"element": "C" 
			},
			{
				"x": -4.8845389211,
				"y": -0.9966846807,
				"z": 0.7228743778,
				"element": "F" 
			},
			{
				"x": -2.9440642351,
				"y": -1.9303750772,
				"z": -0.2414506103,
				"element": "C" 
			},
			{
				"x": -1.5682003818,
				"y": -1.8728784212,
				"z": -0.424927817,
				"element": "C" 
			},
			{
				"x": 2.8290976028,
				"y": 4.0695787981,
				"z": 1.6149296015,
				"element": "H" 
			},
			{
				"x": 2.1521084607,
				"y": 2.5504301753,
				"z": 2.1990943978,
				"element": "H" 
			},
			{
				"x": 1.1302355308,
				"y": 3.6894925825,
				"z": 1.3096272774,
				"element": "H" 
			},
			{
				"x": 3.5407784303,
				"y": 2.181069584,
				"z": 0.1180555876,
				"element": "H" 
			},
			{
				"x": 2.5723417244,
				"y": 3.3620075808,
				"z": -0.7447478929,
				"element": "H" 
			},
			{
				"x": 1.854612134,
				"y": 1.1626038623,
				"z": -1.4346661321,
				"element": "H" 
			},
			{
				"x": 0.551492841,
				"y": 1.8989540831,
				"z": -0.5144977978,
				"element": "H" 
			},
			{
				"x": 2.5649508146,
				"y": -0.1625234378,
				"z": 0.5602884609,
				"element": "H" 
			},
			{
				"x": 1.2295480884,
				"y": 0.5175368458,
				"z": 1.5005943999,
				"element": "H" 
			},
			{
				"x": -0.8815326926,
				"y": 0.9172941585,
				"z": 1.4094431273,
				"element": "H" 
			},
			{
				"x": -3.3433838195,
				"y": 0.8176289859,
				"z": 1.7365561261,
				"element": "H" 
			},
			{
				"x": -3.5505357281,
				"y": -2.7114126994,
				"z": -0.6871834324,
				"element": "H" 
			},
			{
				"x": -1.0534952618,
				"y": -2.614804611,
				"z": -1.0258154675,
				"element": "H" 
			}
		],
		 "valence_orbital": [ 
			{
				"type": "occ",
				"energy": -0.33373,
				"method": "rhf"
			},
			{
				"type": "occ",
				"energy": -0.32715,
				"method": "rhf"
			},
			{
				"type": "occ",
				"energy": -0.27116,
				"method": "rhf"
			},
			{
				"type": "occ",
				"energy": -0.25403,
				"method": "rhf"
			},
			{
				"type": "occ",
				"energy": -0.24582,
				"method": "rhf"
			},
			{
				"type": "unocc",
				"energy": -0.05534,
				"method": "rhf"
			},
			{
				"type": "unocc",
				"energy": -0.02039,
				"method": "rhf"
			},
			{
				"type": "unocc",
				"energy": 0.04052,
				"method": "rhf"
			},
			{
				"type": "unocc",
				"energy": 0.06976,
				"method": "rhf"
			},
			{
				"type": "unocc",
				"energy": 0.0972,
				"method": "rhf"
			}
		],
		"cosmo_sigma_profile": { 
			"-0.025": 0.0,
			"-0.024": 0.0,
			"-0.023": 0.0,
			"-0.022": 0.0,
			"-0.021": 0.0,
			"-0.02": 0.0,
			"-0.019": 0.0,
			"-0.018": 0.0,
			"-0.017": 0.0,
			"-0.016": 0.0,
			"-0.015": 0.0,
			"-0.014": 0.0,
			"-0.013": 0.0,
			"-0.012": 0.0,
			"-0.011": 0.0,
			"-0.01": 0.0,
			"-0.009": 0.0,
			"-0.008": 1.22620184401,
			"-0.007": 5.42497160443,
			"-0.006": 7.67949351447,
			"-0.005": 10.3332212997,
			"-0.004": 10.6435772712,
			"-0.003": 19.7562634748,
			"-0.002": 29.7023658291,
			"-0.001": 30.3241903414,
			"0.0": 30.3238160261,
			"0.001": 24.9748403518,
			"0.002": 19.2292631233,
			"0.003": 15.3242279496,
			"0.004": 11.2129829801,
			"0.005": 2.00466830569,
			"0.006": 1.44123726364,
			"0.007": 1.36342944109,
			"0.008": 2.22209726084,
			"0.009": 1.05124028018,
			"0.01": 1.72491801578,
			"0.011": 2.74037746079,
			"0.012": 4.06643182715,
			"0.013": 1.88420486562,
			"0.014": 0.42998158933,
			"0.015": 0.0,
			"0.016": 0.0,
			"0.017": 0.0,
			"0.018": 0.0,
			"0.019": 0.0,
			"0.02": 0.0,
			"0.021": 0.0,
			"0.022": 0.0,
			"0.023": 0.0,
			"0.024": 0.0,
			"0.025": 0.0
		}
	}
}
