{
	 "smiles": "NC1=CC=C(C=C1)C(=O)CCC(O)=O", 
	 "Tm": 458.15, 
	 "num_atms": 25, 
	 "gaussian": { 
		 "optdone": 1, 
		 "sigma_profile": "yes", 
		 "theory": "DFT", 
		 "functional": "B3LYP", 
		 "basiset": "6-31G**", 
		 "properties": { 
			 "R2extent": 4107.9435, 
			 "electric_dipole_moment_norm": 4.08080784282, 
			 "electric_quadrupole_moment_norm": 22.4087458043, 
			 "total_energy": -668.145656031, 
			 "HOMO_LUMO_gap": 0.17356, 
			 "cosmo_polarized_energy": -20.14, 
			 "cosmo_cavitation_energy": 29.74, 
			 "cosmo_dispersion_energy": -21.46, 
			 "cosmo_repulsion_energy": 1.71, 
			 "cosmo_total_nonelectrostatic_energy": 9.99, 
			 "SMD_solvation_energy": 6.42 
		},
		"coords": [
			{
				"x": -3.413574865,
				"y": -3.7749580117,
				"z": 1.0630114033,
				"element": "N" 
			},
			{
				"x": -2.4857874486,
				"y": -2.8055029416,
				"z": 0.7230755589,
				"element": "C" 
			},
			{
				"x": -1.1603489714,
				"y": -3.1579376862,
				"z": 0.4023560024,
				"element": "C" 
			},
			{
				"x": -0.2221975212,
				"y": -2.177561542,
				"z": 0.1094468666,
				"element": "C" 
			},
			{
				"x": -0.5648753109,
				"y": -0.8147537304,
				"z": 0.1235264291,
				"element": "C" 
			},
			{
				"x": -1.8907652905,
				"y": -0.470509241,
				"z": 0.4446931759,
				"element": "C" 
			},
			{
				"x": -2.8348695636,
				"y": -1.4387533948,
				"z": 0.739306934,
				"element": "C" 
			},
			{
				"x": 0.3956783974,
				"y": 0.2748255188,
				"z": -0.1833374969,
				"element": "C" 
			},
			{
				"x": 0.0509735697,
				"y": 1.4513732894,
				"z": -0.1655461531,
				"element": "O" 
			},
			{
				"x": 1.8446665335,
				"y": -0.0893777034,
				"z": -0.5142297571,
				"element": "C" 
			},
			{
				"x": 2.6811500056,
				"y": 1.1454793122,
				"z": -0.8339411135,
				"element": "C" 
			},
			{
				"x": 2.3061079327,
				"y": 1.7498586105,
				"z": -2.1706021102,
				"element": "C" 
			},
			{
				"x": 2.721839767,
				"y": 3.033219541,
				"z": -2.276066101,
				"element": "O" 
			},
			{
				"x": 1.744262483,
				"y": 1.1698537944,
				"z": -3.0746391599,
				"element": "O" 
			},
			{
				"x": -4.3867259275,
				"y": -3.5169683958,
				"z": 0.9893643142,
				"element": "H" 
			},
			{
				"x": -3.2224434115,
				"y": -4.7164575705,
				"z": 0.7532267282,
				"element": "H" 
			},
			{
				"x": -0.8747609569,
				"y": -4.2067228348,
				"z": 0.3871350807,
				"element": "H" 
			},
			{
				"x": 0.7883924648,
				"y": -2.4857527414,
				"z": -0.1390455758,
				"element": "H" 
			},
			{
				"x": -2.1551059518,
				"y": 0.5818069339,
				"z": 0.4517582092,
				"element": "H" 
			},
			{
				"x": -3.8537786055,
				"y": -1.1514210109,
				"z": 0.9873278022,
				"element": "H" 
			},
			{
				"x": 1.8531957604,
				"y": -0.7740568644,
				"z": -1.3693768083,
				"element": "H" 
			},
			{
				"x": 2.277966404,
				"y": -0.632930182,
				"z": 0.334416991,
				"element": "H" 
			},
			{
				"x": 3.7450772961,
				"y": 0.8816490444,
				"z": -0.885949062,
				"element": "H" 
			},
			{
				"x": 2.5730823746,
				"y": 1.911088404,
				"z": -0.0629412675,
				"element": "H" 
			},
			{
				"x": 2.4577408357,
				"y": 3.3274094023,
				"z": -3.1639708905,
				"element": "H" 
			}
		],
		 "valence_orbital": [ 
			{
				"type": "occ",
				"energy": -0.30613,
				"method": "rhf"
			},
			{
				"type": "occ",
				"energy": -0.26597,
				"method": "rhf"
			},
			{
				"type": "occ",
				"energy": -0.25614,
				"method": "rhf"
			},
			{
				"type": "occ",
				"energy": -0.24002,
				"method": "rhf"
			},
			{
				"type": "occ",
				"energy": -0.21267,
				"method": "rhf"
			},
			{
				"type": "unocc",
				"energy": -0.03911,
				"method": "rhf"
			},
			{
				"type": "unocc",
				"energy": -0.00391,
				"method": "rhf"
			},
			{
				"type": "unocc",
				"energy": 0.02278,
				"method": "rhf"
			},
			{
				"type": "unocc",
				"energy": 0.05382,
				"method": "rhf"
			},
			{
				"type": "unocc",
				"energy": 0.07354,
				"method": "rhf"
			}
		],
		"cosmo_sigma_profile": { 
			"-0.025": 0.0,
			"-0.024": 0.0,
			"-0.023": 0.0,
			"-0.022": 0.0,
			"-0.021": 0.0,
			"-0.02": 0.0,
			"-0.019": 0.0,
			"-0.018": 0.443442749545,
			"-0.017": 0.871797757972,
			"-0.016": 0.986349190268,
			"-0.015": 1.07120427747,
			"-0.014": 0.818539493641,
			"-0.013": 3.03449324714,
			"-0.012": 3.45649661671,
			"-0.011": 3.40368615654,
			"-0.01": 4.29959301401,
			"-0.009": 3.0424985487,
			"-0.008": 3.87244909082,
			"-0.007": 6.10408626762,
			"-0.006": 14.2594525142,
			"-0.005": 16.0273612038,
			"-0.004": 16.989406205,
			"-0.003": 15.0735682237,
			"-0.002": 12.4896601131,
			"-0.001": 9.59348172155,
			"0.0": 8.87572551764,
			"0.001": 9.99520975487,
			"0.002": 10.1953106149,
			"0.003": 12.2868277106,
			"0.004": 14.4413247352,
			"0.005": 17.4615485608,
			"0.006": 5.93912704776,
			"0.007": 7.2529623676,
			"0.008": 5.90349881132,
			"0.009": 5.0914353358,
			"0.01": 5.6822953222,
			"0.011": 5.57018971751,
			"0.012": 8.34444072894,
			"0.013": 2.14257267424,
			"0.014": 0.0,
			"0.015": 0.0,
			"0.016": 0.0,
			"0.017": 0.0,
			"0.018": 0.0,
			"0.019": 0.0,
			"0.02": 0.0,
			"0.021": 0.0,
			"0.022": 0.0,
			"0.023": 0.0,
			"0.024": 0.0,
			"0.025": 0.0
		}
	}
}
