{
	 "smiles": "OC1=CC=C(C=C1)S(=O)(=O)C1=CC=CC=C1", 
	 "Tm": 409.15, 
	 "num_atms": 26, 
	 "gaussian": { 
		 "optdone": 1, 
		 "sigma_profile": "yes", 
		 "theory": "DFT", 
		 "functional": "B3LYP", 
		 "basiset": "6-31G**", 
		 "properties": { 
			 "R2extent": 5082.4341, 
			 "electric_dipole_moment_norm": 5.74464640078, 
			 "electric_quadrupole_moment_norm": 21.7309502995, 
			 "total_energy": -1087.09078054, 
			 "HOMO_LUMO_gap": 0.19708, 
			 "cosmo_polarized_energy": -18.7, 
			 "cosmo_cavitation_energy": 32.05, 
			 "cosmo_dispersion_energy": -23.33, 
			 "cosmo_repulsion_energy": 1.77, 
			 "cosmo_total_nonelectrostatic_energy": 10.48, 
			 "SMD_solvation_energy": 5.18 
		},
		"coords": [
			{
				"x": -3.23325582,
				"y": 1.6769400712,
				"z": -0.6908002053,
				"element": "O" 
			},
			{
				"x": -2.0641758889,
				"y": 0.9884358565,
				"z": -0.5989771483,
				"element": "C" 
			},
			{
				"x": -1.6147845708,
				"y": 0.4200928887,
				"z": 0.6005559466,
				"element": "C" 
			},
			{
				"x": -0.4075177751,
				"y": -0.2724496015,
				"z": 0.6307732217,
				"element": "C" 
			},
			{
				"x": 0.3466452726,
				"y": -0.3935212614,
				"z": -0.5374459468,
				"element": "C" 
			},
			{
				"x": -0.1038072522,
				"y": 0.1616957266,
				"z": -1.7402878431,
				"element": "C" 
			},
			{
				"x": -1.3074884923,
				"y": 0.8539550342,
				"z": -1.7719428005,
				"element": "C" 
			},
			{
				"x": 1.8980928746,
				"y": -1.2918073277,
				"z": -0.4983350239,
				"element": "S" 
			},
			{
				"x": 2.1473695176,
				"y": -1.7978127708,
				"z": -1.8585199609,
				"element": "O" 
			},
			{
				"x": 1.8548378515,
				"y": -2.1886445619,
				"z": 0.6691993,
				"element": "O" 
			},
			{
				"x": 3.1527276087,
				"y": -0.0411633882,
				"z": -0.1603928663,
				"element": "C" 
			},
			{
				"x": 3.4884300307,
				"y": 0.2485106793,
				"z": 1.1634995587,
				"element": "C" 
			},
			{
				"x": 4.4610006153,
				"y": 1.2155469419,
				"z": 1.4184860584,
				"element": "C" 
			},
			{
				"x": 5.0863622295,
				"y": 1.8770396894,
				"z": 0.3585766802,
				"element": "C" 
			},
			{
				"x": 4.7496047075,
				"y": 1.5686808301,
				"z": -0.9617019228,
				"element": "C" 
			},
			{
				"x": 3.7784970502,
				"y": 0.6032949384,
				"z": -1.2290898105,
				"element": "C" 
			},
			{
				"x": -3.6680421893,
				"y": 1.6929197739,
				"z": 0.1720887595,
				"element": "H" 
			},
			{
				"x": -2.2124929335,
				"y": 0.5123501586,
				"z": 1.5045980083,
				"element": "H" 
			},
			{
				"x": -0.0597586565,
				"y": -0.737680835,
				"z": 1.5466447399,
				"element": "H" 
			},
			{
				"x": 0.4787145518,
				"y": 0.02794637,
				"z": -2.6453260298,
				"element": "H" 
			},
			{
				"x": -1.6847967518,
				"y": 1.2887613307,
				"z": -2.6911811642,
				"element": "H" 
			},
			{
				"x": 3.0096988827,
				"y": -0.2941827839,
				"z": 1.9713669641,
				"element": "H" 
			},
			{
				"x": 4.7359233294,
				"y": 1.4467026623,
				"z": 2.4432708279,
				"element": "H" 
			},
			{
				"x": 5.8441989057,
				"y": 2.6280676439,
				"z": 0.5618707075,
				"element": "H" 
			},
			{
				"x": 5.2481612628,
				"y": 2.0738646262,
				"z": -1.783524821,
				"element": "H" 
			},
			{
				"x": 3.5210556398,
				"y": 0.3311573087,
				"z": -2.2469052295,
				"element": "H" 
			}
		],
		 "valence_orbital": [ 
			{
				"type": "occ",
				"energy": -0.28464,
				"method": "rhf"
			},
			{
				"type": "occ",
				"energy": -0.27439,
				"method": "rhf"
			},
			{
				"type": "occ",
				"energy": -0.27287,
				"method": "rhf"
			},
			{
				"type": "occ",
				"energy": -0.26719,
				"method": "rhf"
			},
			{
				"type": "occ",
				"energy": -0.24153,
				"method": "rhf"
			},
			{
				"type": "unocc",
				"energy": -0.04445,
				"method": "rhf"
			},
			{
				"type": "unocc",
				"energy": -0.02538,
				"method": "rhf"
			},
			{
				"type": "unocc",
				"energy": -0.01476,
				"method": "rhf"
			},
			{
				"type": "unocc",
				"energy": -0.01094,
				"method": "rhf"
			},
			{
				"type": "unocc",
				"energy": 0.05243,
				"method": "rhf"
			}
		],
		"cosmo_sigma_profile": { 
			"-0.025": 0.0,
			"-0.024": 0.0,
			"-0.023": 0.0,
			"-0.022": 0.0,
			"-0.021": 0.0,
			"-0.02": 0.0,
			"-0.019": 0.198661162157,
			"-0.018": 1.01188087983,
			"-0.017": 1.73822452997,
			"-0.016": 0.945197381404,
			"-0.015": 0.913022071474,
			"-0.014": 0.834716129323,
			"-0.013": 1.09196394324,
			"-0.012": 0.850868823918,
			"-0.011": 1.49837014614,
			"-0.01": 0.693603150738,
			"-0.009": 1.40567184187,
			"-0.008": 1.66184367947,
			"-0.007": 11.8857155667,
			"-0.006": 18.196019354,
			"-0.005": 19.6317142411,
			"-0.004": 14.593126883,
			"-0.003": 14.9303835204,
			"-0.002": 9.72235387169,
			"-0.001": 13.3544128988,
			"0.0": 15.4076667068,
			"0.001": 17.357919747,
			"0.002": 29.7539577778,
			"0.003": 26.95000993,
			"0.004": 8.72757501673,
			"0.005": 3.81979813256,
			"0.006": 4.30278712453,
			"0.007": 5.02291153551,
			"0.008": 3.84233357837,
			"0.009": 4.81860029581,
			"0.01": 6.62855378733,
			"0.011": 8.326084423,
			"0.012": 6.66369289277,
			"0.013": 0.610226775671,
			"0.014": 0.0,
			"0.015": 0.0,
			"0.016": 0.0,
			"0.017": 0.0,
			"0.018": 0.0,
			"0.019": 0.0,
			"0.02": 0.0,
			"0.021": 0.0,
			"0.022": 0.0,
			"0.023": 0.0,
			"0.024": 0.0,
			"0.025": 0.0
		}
	}
}
