{
	 "smiles": "NC1=CC(F)=C(C=C1)C(=O)N1CCCC1", 
	 "Tm": 413.15, 
	 "num_atms": 28, 
	 "gaussian": { 
		 "optdone": 1, 
		 "sigma_profile": "yes", 
		 "theory": "DFT", 
		 "functional": "B3LYP", 
		 "basiset": "6-31G**", 
		 "properties": { 
			 "R2extent": 3974.1418, 
			 "electric_dipole_moment_norm": 4.97887943618, 
			 "electric_quadrupole_moment_norm": 20.2278388455, 
			 "total_energy": -711.58737381, 
			 "HOMO_LUMO_gap": 0.19702, 
			 "cosmo_polarized_energy": -15.99, 
			 "cosmo_cavitation_energy": 30.75, 
			 "cosmo_dispersion_energy": -22.57, 
			 "cosmo_repulsion_energy": 1.77, 
			 "cosmo_total_nonelectrostatic_energy": 9.94, 
			 "SMD_solvation_energy": 4.94 
		},
		"coords": [
			{
				"x": -0.9863707148,
				"y": 3.7199967482,
				"z": -3.2818900752,
				"element": "N" 
			},
			{
				"x": -0.8514723549,
				"y": 2.5303313698,
				"z": -2.5802897461,
				"element": "C" 
			},
			{
				"x": 0.2918475036,
				"y": 1.7311283648,
				"z": -2.739834618,
				"element": "C" 
			},
			{
				"x": 0.3810046604,
				"y": 0.5230157334,
				"z": -2.063939041,
				"element": "C" 
			},
			{
				"x": 1.4898486596,
				"y": -0.2224135562,
				"z": -2.2877007659,
				"element": "F" 
			},
			{
				"x": -0.612210994,
				"y": 0.0464055548,
				"z": -1.2050780724,
				"element": "C" 
			},
			{
				"x": -1.7635434246,
				"y": 0.8456745612,
				"z": -1.0933518122,
				"element": "C" 
			},
			{
				"x": -1.8849690009,
				"y": 2.0641135282,
				"z": -1.742565162,
				"element": "C" 
			},
			{
				"x": -0.617769545,
				"y": -1.2807704086,
				"z": -0.5020055944,
				"element": "C" 
			},
			{
				"x": -1.6572205634,
				"y": -1.942363159,
				"z": -0.4473572624,
				"element": "O" 
			},
			{
				"x": 0.5263515269,
				"y": -1.7233722315,
				"z": 0.1016927265,
				"element": "N" 
			},
			{
				"x": 1.715344186,
				"y": -0.9354105337,
				"z": 0.4659488922,
				"element": "C" 
			},
			{
				"x": 2.1813250243,
				"y": -1.5853739306,
				"z": 1.7763948388,
				"element": "C" 
			},
			{
				"x": 1.8198240963,
				"y": -3.0649348826,
				"z": 1.5655844398,
				"element": "C" 
			},
			{
				"x": 0.4676475375,
				"y": -2.9969139553,
				"z": 0.8409813534,
				"element": "C" 
			},
			{
				"x": -1.6534675463,
				"y": 4.3810374695,
				"z": -2.9114300164,
				"element": "H" 
			},
			{
				"x": -0.1319035628,
				"y": 4.1551358796,
				"z": -3.5977017672,
				"element": "H" 
			},
			{
				"x": 1.1003172876,
				"y": 2.0238817431,
				"z": -3.4019807815,
				"element": "H" 
			},
			{
				"x": -2.5727781623,
				"y": 0.4723627638,
				"z": -0.4746156713,
				"element": "H" 
			},
			{
				"x": -2.7863703491,
				"y": 2.6586251325,
				"z": -1.6215715426,
				"element": "H" 
			},
			{
				"x": 2.4882561531,
				"y": -1.0165669885,
				"z": -0.3060214984,
				"element": "H" 
			},
			{
				"x": 1.4606365157,
				"y": 0.1222310326,
				"z": 0.574788755,
				"element": "H" 
			},
			{
				"x": 3.2451631068,
				"y": -1.4193560861,
				"z": 1.9684171956,
				"element": "H" 
			},
			{
				"x": 1.6166884469,
				"y": -1.175410441,
				"z": 2.6219128527,
				"element": "H" 
			},
			{
				"x": 2.5701918478,
				"y": -3.5456171558,
				"z": 0.9271764667,
				"element": "H" 
			},
			{
				"x": 1.7622297429,
				"y": -3.6341897054,
				"z": 2.4972279845,
				"element": "H" 
			},
			{
				"x": -0.3782553806,
				"y": -2.9767291064,
				"z": 1.5387880116,
				"element": "H" 
			},
			{
				"x": 0.2967553035,
				"y": -3.8329177409,
				"z": 0.1562199101,
				"element": "H" 
			}
		],
		 "valence_orbital": [ 
			{
				"type": "occ",
				"energy": -0.30601,
				"method": "rhf"
			},
			{
				"type": "occ",
				"energy": -0.24809,
				"method": "rhf"
			},
			{
				"type": "occ",
				"energy": -0.23687,
				"method": "rhf"
			},
			{
				"type": "occ",
				"energy": -0.22434,
				"method": "rhf"
			},
			{
				"type": "occ",
				"energy": -0.20882,
				"method": "rhf"
			},
			{
				"type": "unocc",
				"energy": -0.0118,
				"method": "rhf"
			},
			{
				"type": "unocc",
				"energy": 0.00233,
				"method": "rhf"
			},
			{
				"type": "unocc",
				"energy": 0.05977,
				"method": "rhf"
			},
			{
				"type": "unocc",
				"energy": 0.07494,
				"method": "rhf"
			},
			{
				"type": "unocc",
				"energy": 0.0878,
				"method": "rhf"
			}
		],
		"cosmo_sigma_profile": { 
			"-0.025": 0.0,
			"-0.024": 0.0,
			"-0.023": 0.0,
			"-0.022": 0.0,
			"-0.021": 0.0,
			"-0.02": 0.0,
			"-0.019": 0.0,
			"-0.018": 0.0,
			"-0.017": 0.0,
			"-0.016": 0.0,
			"-0.015": 0.0,
			"-0.014": 0.0692601628657,
			"-0.013": 2.15038675056,
			"-0.012": 3.12711701628,
			"-0.011": 2.45020036745,
			"-0.01": 3.48636434526,
			"-0.009": 3.17273744808,
			"-0.008": 3.1410232264,
			"-0.007": 4.31531646936,
			"-0.006": 4.39182889465,
			"-0.005": 7.12471997793,
			"-0.004": 16.1660897745,
			"-0.003": 29.1383710345,
			"-0.002": 27.7366241107,
			"-0.001": 22.2692227786,
			"0.0": 18.190027163,
			"0.001": 13.2356776821,
			"0.002": 13.0908385726,
			"0.003": 12.3441655836,
			"0.004": 17.7450551571,
			"0.005": 11.558676308,
			"0.006": 3.33820964975,
			"0.007": 1.88371123203,
			"0.008": 2.51895840795,
			"0.009": 2.51784415355,
			"0.01": 1.78656283366,
			"0.011": 2.55285555124,
			"0.012": 2.31138825628,
			"0.013": 2.37026462779,
			"0.014": 4.431280243,
			"0.015": 3.501770205,
			"0.016": 0.171761096178,
			"0.017": 0.0,
			"0.018": 0.0,
			"0.019": 0.0,
			"0.02": 0.0,
			"0.021": 0.0,
			"0.022": 0.0,
			"0.023": 0.0,
			"0.024": 0.0,
			"0.025": 0.0
		}
	}
}
