{
	 "smiles": "CN1N=C(C)C(C(=O)C2=CC=C(Cl)C(C)=C2Cl)=C1OCC(=O)C1=CC=C(C)C=C1", 
	 "Tm": 406.15, 
	 "num_atms": 49, 
	 "gaussian": { 
		 "optdone": 1, 
		 "sigma_profile": "yes", 
		 "theory": "DFT", 
		 "functional": "B3LYP", 
		 "basiset": "6-31G**", 
		 "properties": { 
			 "R2extent": 15104.8955, 
			 "electric_dipole_moment_norm": 5.57603271691, 
			 "electric_quadrupole_moment_norm": 22.394102815, 
			 "total_energy": -2105.93796447, 
			 "HOMO_LUMO_gap": 0.16779, 
			 "cosmo_polarized_energy": -18.2, 
			 "cosmo_cavitation_energy": 56.29, 
			 "cosmo_dispersion_energy": -36.92, 
			 "cosmo_repulsion_energy": 2.77, 
			 "cosmo_total_nonelectrostatic_energy": 22.14, 
			 "SMD_solvation_energy": 8.98 
		},
		"coords": [
			{
				"x": -2.723562162,
				"y": 4.4858128647,
				"z": -1.6088713677,
				"element": "C" 
			},
			{
				"x": -1.6623884645,
				"y": 4.4965971267,
				"z": -0.6159560809,
				"element": "N" 
			},
			{
				"x": -1.1094705338,
				"y": 5.6812109067,
				"z": -0.2143241308,
				"element": "N" 
			},
			{
				"x": -0.2043915905,
				"y": 5.3642545136,
				"z": 0.7005171211,
				"element": "C" 
			},
			{
				"x": 0.6174260348,
				"y": 6.4294736843,
				"z": 1.35239278,
				"element": "C" 
			},
			{
				"x": -0.1792445386,
				"y": 3.9507938054,
				"z": 0.944319318,
				"element": "C" 
			},
			{
				"x": 0.6567126632,
				"y": 3.2754801112,
				"z": 1.9336504296,
				"element": "C" 
			},
			{
				"x": 1.6063087623,
				"y": 3.8337173919,
				"z": 2.4734755065,
				"element": "O" 
			},
			{
				"x": 0.2778077103,
				"y": 1.8758326922,
				"z": 2.3825914647,
				"element": "C" 
			},
			{
				"x": -1.0069802002,
				"y": 1.6601665825,
				"z": 2.8947632735,
				"element": "C" 
			},
			{
				"x": -1.3618470454,
				"y": 0.4364275056,
				"z": 3.4477208375,
				"element": "C" 
			},
			{
				"x": -0.425373567,
				"y": -0.595843552,
				"z": 3.4806510327,
				"element": "C" 
			},
			{
				"x": -0.9443270595,
				"y": -2.1212313012,
				"z": 4.1939857999,
				"element": "Cl" 
			},
			{
				"x": 0.8752881676,
				"y": -0.4523344468,
				"z": 2.9663419269,
				"element": "C" 
			},
			{
				"x": 1.8945513477,
				"y": -1.5626713079,
				"z": 2.9835511106,
				"element": "C" 
			},
			{
				"x": 1.1864177722,
				"y": 0.8099241148,
				"z": 2.4233581017,
				"element": "C" 
			},
			{
				"x": 2.7806547258,
				"y": 1.0174996194,
				"z": 1.7009741099,
				"element": "Cl" 
			},
			{
				"x": -1.1410474713,
				"y": 3.4474725935,
				"z": 0.0515086711,
				"element": "C" 
			},
			{
				"x": -1.6032876549,
				"y": 2.1996605351,
				"z": -0.1836685332,
				"element": "O" 
			},
			{
				"x": -0.6787187407,
				"y": 1.2322674035,
				"z": -0.6804774396,
				"element": "C" 
			},
			{
				"x": -0.8831174155,
				"y": 0.9731422334,
				"z": -2.1797230006,
				"element": "C" 
			},
			{
				"x": -1.7250565684,
				"y": 1.5916882526,
				"z": -2.8112609703,
				"element": "O" 
			},
			{
				"x": -0.0264357203,
				"y": -0.0646875019,
				"z": -2.8194602115,
				"element": "C" 
			},
			{
				"x": 1.0018955401,
				"y": -0.7372864916,
				"z": -2.1405414674,
				"element": "C" 
			},
			{
				"x": 1.771918762,
				"y": -1.6935899169,
				"z": -2.7991896284,
				"element": "C" 
			},
			{
				"x": 1.5395611416,
				"y": -2.0094370551,
				"z": -4.1443313426,
				"element": "C" 
			},
			{
				"x": 2.3562736028,
				"y": -3.0640647186,
				"z": -4.8492505891,
				"element": "C" 
			},
			{
				"x": 0.5114308492,
				"y": -1.3293970194,
				"z": -4.818684157,
				"element": "C" 
			},
			{
				"x": -0.2586606581,
				"y": -0.3734985469,
				"z": -4.1705748267,
				"element": "C" 
			},
			{
				"x": -3.6781380245,
				"y": 4.761511525,
				"z": -1.1495287286,
				"element": "H" 
			},
			{
				"x": -2.4745285893,
				"y": 5.2177648421,
				"z": -2.378478038,
				"element": "H" 
			},
			{
				"x": -2.783494849,
				"y": 3.4877870158,
				"z": -2.0417834758,
				"element": "H" 
			},
			{
				"x": 0.2992051923,
				"y": 7.4076860049,
				"z": 0.9848584595,
				"element": "H" 
			},
			{
				"x": 1.6810948665,
				"y": 6.2877107466,
				"z": 1.1411035948,
				"element": "H" 
			},
			{
				"x": 0.5138417129,
				"y": 6.3981903493,
				"z": 2.4412491734,
				"element": "H" 
			},
			{
				"x": -1.7289153642,
				"y": 2.4696111679,
				"z": 2.8672011963,
				"element": "H" 
			},
			{
				"x": -2.3538829578,
				"y": 0.2764712381,
				"z": 3.8536950035,
				"element": "H" 
			},
			{
				"x": 2.184166476,
				"y": -1.8428401677,
				"z": 1.9652531062,
				"element": "H" 
			},
			{
				"x": 1.5091263734,
				"y": -2.4473799547,
				"z": 3.4872315999,
				"element": "H" 
			},
			{
				"x": 2.8067642451,
				"y": -1.2391278368,
				"z": 3.4938060952,
				"element": "H" 
			},
			{
				"x": 0.3533408385,
				"y": 1.548151469,
				"z": -0.4961436919,
				"element": "H" 
			},
			{
				"x": -0.8493259547,
				"y": 0.3062913484,
				"z": -0.1219885777,
				"element": "H" 
			},
			{
				"x": 1.2228817756,
				"y": -0.5172831716,
				"z": -1.1006709705,
				"element": "H" 
			},
			{
				"x": 2.5690128603,
				"y": -2.2000993375,
				"z": -2.2617353469,
				"element": "H" 
			},
			{
				"x": 3.2874932449,
				"y": -3.2744034411,
				"z": -4.316556929,
				"element": "H" 
			},
			{
				"x": 1.7980921015,
				"y": -4.0056154285,
				"z": -4.9234016433,
				"element": "H" 
			},
			{
				"x": 2.6072633884,
				"y": -2.7577846781,
				"z": -5.8696422017,
				"element": "H" 
			},
			{
				"x": 0.3195367162,
				"y": -1.5549739757,
				"z": -5.8646649563,
				"element": "H" 
			},
			{
				"x": -1.0505717413,
				"y": 0.155552206,
				"z": -4.6900914067,
				"element": "H" 
			}
		],
		 "valence_orbital": [ 
			{
				"type": "occ",
				"energy": -0.26073,
				"method": "rhf"
			},
			{
				"type": "occ",
				"energy": -0.25578,
				"method": "rhf"
			},
			{
				"type": "occ",
				"energy": -0.24771,
				"method": "rhf"
			},
			{
				"type": "occ",
				"energy": -0.24282,
				"method": "rhf"
			},
			{
				"type": "occ",
				"energy": -0.2383,
				"method": "rhf"
			},
			{
				"type": "unocc",
				"energy": -0.07051,
				"method": "rhf"
			},
			{
				"type": "unocc",
				"energy": -0.05289,
				"method": "rhf"
			},
			{
				"type": "unocc",
				"energy": -0.02767,
				"method": "rhf"
			},
			{
				"type": "unocc",
				"energy": -0.02077,
				"method": "rhf"
			},
			{
				"type": "unocc",
				"energy": -0.01209,
				"method": "rhf"
			}
		],
		"cosmo_sigma_profile": { 
			"-0.025": 0.0,
			"-0.024": 0.0,
			"-0.023": 0.0,
			"-0.022": 0.0,
			"-0.021": 0.0,
			"-0.02": 0.0,
			"-0.019": 0.0,
			"-0.018": 0.0,
			"-0.017": 0.0,
			"-0.016": 0.0,
			"-0.015": 0.0,
			"-0.014": 0.0,
			"-0.013": 0.0,
			"-0.012": 0.0,
			"-0.011": 0.0,
			"-0.01": 0.0,
			"-0.009": 0.802829007779,
			"-0.008": 4.81453270321,
			"-0.007": 9.62831097374,
			"-0.006": 17.9237844208,
			"-0.005": 28.7739078314,
			"-0.004": 36.3962436853,
			"-0.003": 38.0681544825,
			"-0.002": 43.4356067545,
			"-0.001": 49.2803492049,
			"0.0": 41.9212038042,
			"0.001": 36.8084317704,
			"0.002": 33.4181440243,
			"0.003": 29.8859791264,
			"0.004": 26.8230356168,
			"0.005": 9.23808264249,
			"0.006": 7.75560050392,
			"0.007": 7.23606580822,
			"0.008": 6.15991924888,
			"0.009": 6.05407416291,
			"0.01": 5.57882343637,
			"0.011": 4.7592471711,
			"0.012": 3.52270030793,
			"0.013": 3.03355695999,
			"0.014": 0.819056835821,
			"0.015": 0.777603234118,
			"0.016": 0.0325848580342,
			"0.017": 0.0,
			"0.018": 0.0,
			"0.019": 0.0,
			"0.02": 0.0,
			"0.021": 0.0,
			"0.022": 0.0,
			"0.023": 0.0,
			"0.024": 0.0,
			"0.025": 0.0
		}
	}
}
