{
	 "smiles": "NC1=NC=C(Br)C(=C1)C#N", 
	 "Tm": 458.15, 
	 "num_atms": 14, 
	 "gaussian": { 
		 "optdone": 1, 
		 "sigma_profile": "yes", 
		 "theory": "DFT", 
		 "functional": "B3LYP", 
		 "basiset": "6-31G**", 
		 "properties": { 
			 "R2extent": 2480.3794, 
			 "electric_dipole_moment_norm": 2.3158642037, 
			 "electric_quadrupole_moment_norm": 19.3774318595, 
			 "total_energy": -2966.66779909, 
			 "HOMO_LUMO_gap": 0.18762, 
			 "cosmo_polarized_energy": -14.81, 
			 "cosmo_cavitation_energy": 22.33, 
			 "cosmo_dispersion_energy": -16.33, 
			 "cosmo_repulsion_energy": 1.34, 
			 "cosmo_total_nonelectrostatic_energy": 7.35, 
			 "SMD_solvation_energy": 2.6 
		},
		"coords": [
			{
				"x": 3.2920628345,
				"y": 0.8653319934,
				"z": -0.0778091433,
				"element": "N" 
			},
			{
				"x": 2.0553829672,
				"y": 0.149507682,
				"z": -0.1468966877,
				"element": "C" 
			},
			{
				"x": 2.147297767,
				"y": -1.1855938079,
				"z": -0.1846739871,
				"element": "N" 
			},
			{
				"x": 1.0288032291,
				"y": -1.909459411,
				"z": -0.2496929876,
				"element": "C" 
			},
			{
				"x": -0.2485516598,
				"y": -1.3481411793,
				"z": -0.2810812975,
				"element": "C" 
			},
			{
				"x": -1.7712632305,
				"y": -2.4694451629,
				"z": -0.3744903029,
				"element": "Br" 
			},
			{
				"x": -0.3645041824,
				"y": 0.0508708366,
				"z": -0.2420958571,
				"element": "C" 
			},
			{
				"x": 0.8166520909,
				"y": 0.8028467136,
				"z": -0.1737765469,
				"element": "C" 
			},
			{
				"x": -1.6314522105,
				"y": 0.7196723605,
				"z": -0.2696607718,
				"element": "C" 
			},
			{
				"x": -2.6369993003,
				"y": 1.3024440716,
				"z": -0.2899127101,
				"element": "N" 
			},
			{
				"x": 3.3306629227,
				"y": 1.4391782695,
				"z": 0.7604391435,
				"element": "H" 
			},
			{
				"x": 3.3926070626,
				"y": 1.4898049066,
				"z": -0.8736579994,
				"element": "H" 
			},
			{
				"x": 1.1411136846,
				"y": -2.990286042,
				"z": -0.2788600677,
				"element": "H" 
			},
			{
				"x": 0.7609880249,
				"y": 1.8858687694,
				"z": -0.1423307845,
				"element": "H" 
			}
		],
		 "valence_orbital": [ 
			{
				"type": "occ",
				"energy": -0.31377,
				"method": "rhf"
			},
			{
				"type": "occ",
				"energy": -0.30412,
				"method": "rhf"
			},
			{
				"type": "occ",
				"energy": -0.28511,
				"method": "rhf"
			},
			{
				"type": "occ",
				"energy": -0.27326,
				"method": "rhf"
			},
			{
				"type": "occ",
				"energy": -0.27066,
				"method": "rhf"
			},
			{
				"type": "unocc",
				"energy": -0.08304,
				"method": "rhf"
			},
			{
				"type": "unocc",
				"energy": -0.04778,
				"method": "rhf"
			},
			{
				"type": "unocc",
				"energy": -0.01511,
				"method": "rhf"
			},
			{
				"type": "unocc",
				"energy": 0.01775,
				"method": "rhf"
			},
			{
				"type": "unocc",
				"energy": 0.05369,
				"method": "rhf"
			}
		],
		"cosmo_sigma_profile": { 
			"-0.025": 0.0,
			"-0.024": 0.0,
			"-0.023": 0.0,
			"-0.022": 0.0,
			"-0.021": 0.0,
			"-0.02": 0.0,
			"-0.019": 0.0,
			"-0.018": 0.0,
			"-0.017": 0.0,
			"-0.016": 0.0,
			"-0.015": 0.0,
			"-0.014": 0.0,
			"-0.013": 0.242496298631,
			"-0.012": 2.70688668677,
			"-0.011": 3.31605969598,
			"-0.01": 4.39382104196,
			"-0.009": 6.2055244367,
			"-0.008": 8.17371637545,
			"-0.007": 4.93891485719,
			"-0.006": 5.92237383948,
			"-0.005": 6.75409581438,
			"-0.004": 10.7705047381,
			"-0.003": 14.8007149731,
			"-0.002": 17.4383481648,
			"-0.001": 11.7977362446,
			"0.0": 8.14329211034,
			"0.001": 8.44583431181,
			"0.002": 13.2056023755,
			"0.003": 11.7888594991,
			"0.004": 4.43004945964,
			"0.005": 4.96199957522,
			"0.006": 4.99775669858,
			"0.007": 4.00005383541,
			"0.008": 3.9588906855,
			"0.009": 4.7866497057,
			"0.01": 3.70681723706,
			"0.011": 3.57327735189,
			"0.012": 1.9319027462,
			"0.013": 1.78205914627,
			"0.014": 1.63921165907,
			"0.015": 1.25388520059,
			"0.016": 0.843522005842,
			"0.017": 1.49619978653,
			"0.018": 1.09135219434,
			"0.019": 0.233060187381,
			"0.02": 0.0,
			"0.021": 0.0,
			"0.022": 0.0,
			"0.023": 0.0,
			"0.024": 0.0,
			"0.025": 0.0
		}
	}
}
