{
	 "smiles": "COC(=O)C1=CC(OC)=C(C)C(OC)=C1", 
	 "Tm": 377.15, 
	 "num_atms": 29, 
	 "gaussian": { 
		 "optdone": 1, 
		 "sigma_profile": "yes", 
		 "theory": "DFT", 
		 "functional": "B3LYP", 
		 "basiset": "6-31G**", 
		 "properties": { 
			 "R2extent": 5221.2142, 
			 "electric_dipole_moment_norm": 1.54604784531, 
			 "electric_quadrupole_moment_norm": 12.1940694766, 
			 "total_energy": -728.498931959, 
			 "HOMO_LUMO_gap": 0.1806, 
			 "cosmo_polarized_energy": -9.87, 
			 "cosmo_cavitation_energy": 32.61, 
			 "cosmo_dispersion_energy": -23.52, 
			 "cosmo_repulsion_energy": 1.87, 
			 "cosmo_total_nonelectrostatic_energy": 10.97, 
			 "SMD_solvation_energy": 8.78 
		},
		"coords": [
			{
				"x": 0.4543911007,
				"y": -1.0530332808,
				"z": 4.1349261887,
				"element": "C" 
			},
			{
				"x": 0.1545076891,
				"y": -0.4979970316,
				"z": 2.8468177242,
				"element": "O" 
			},
			{
				"x": -0.1273656993,
				"y": 0.8279767747,
				"z": 2.8437784186,
				"element": "C" 
			},
			{
				"x": -0.127017472,
				"y": 1.5015573745,
				"z": 3.8572407656,
				"element": "O" 
			},
			{
				"x": -0.4301134396,
				"y": 1.3472937184,
				"z": 1.4820876768,
				"element": "C" 
			},
			{
				"x": -0.4139651217,
				"y": 0.5198825245,
				"z": 0.3551052406,
				"element": "C" 
			},
			{
				"x": -0.7076715992,
				"y": 1.0684581641,
				"z": -0.8985595126,
				"element": "C" 
			},
			{
				"x": -0.7149645741,
				"y": 0.3332018841,
				"z": -2.0528688353,
				"element": "O" 
			},
			{
				"x": -0.4109705452,
				"y": -1.0494730043,
				"z": -1.9770442921,
				"element": "C" 
			},
			{
				"x": -1.0178467933,
				"y": 2.4332121158,
				"z": -1.0444737488,
				"element": "C" 
			},
			{
				"x": -1.3365793756,
				"y": 3.0430566641,
				"z": -2.3838686373,
				"element": "C" 
			},
			{
				"x": -1.0247367511,
				"y": 3.2362151862,
				"z": 0.1119966782,
				"element": "C" 
			},
			{
				"x": -1.3343749708,
				"y": 4.5492625461,
				"z": -0.1066666057,
				"element": "O" 
			},
			{
				"x": -1.3633213469,
				"y": 5.4281307936,
				"z": 1.0077591343,
				"element": "C" 
			},
			{
				"x": -0.7344589962,
				"y": 2.7073125541,
				"z": 1.3708216541,
				"element": "C" 
			},
			{
				"x": 0.6536203624,
				"y": -2.1107579856,
				"z": 3.961369136,
				"element": "H" 
			},
			{
				"x": 1.3292436175,
				"y": -0.5648425769,
				"z": 4.5721350171,
				"element": "H" 
			},
			{
				"x": -0.3915954815,
				"y": -0.9289328726,
				"z": 4.8159089035,
				"element": "H" 
			},
			{
				"x": -0.1752068895,
				"y": -0.5272207963,
				"z": 0.4726673969,
				"element": "H" 
			},
			{
				"x": -0.4754838587,
				"y": -1.4271687415,
				"z": -2.9988426936,
				"element": "H" 
			},
			{
				"x": 0.6022558404,
				"y": -1.2224838577,
				"z": -1.5921651958,
				"element": "H" 
			},
			{
				"x": -1.1292791802,
				"y": -1.5897279685,
				"z": -1.347086305,
				"element": "H" 
			},
			{
				"x": -0.6368867293,
				"y": 3.8532560983,
				"z": -2.6165684487,
				"element": "H" 
			},
			{
				"x": -1.2886118311,
				"y": 2.2963325988,
				"z": -3.1753100616,
				"element": "H" 
			},
			{
				"x": -2.336597666,
				"y": 3.490400551,
				"z": -2.3774479067,
				"element": "H" 
			},
			{
				"x": -0.3848940876,
				"y": 5.4893228232,
				"z": 1.5005090112,
				"element": "H" 
			},
			{
				"x": -1.6278901119,
				"y": 6.4089697669,
				"z": 0.6094692843,
				"element": "H" 
			},
			{
				"x": -2.1156971094,
				"y": 5.1218522832,
				"z": 1.74531601,
				"element": "H" 
			},
			{
				"x": -0.7348889801,
				"y": 3.3083436943,
				"z": 2.2700940029,
				"element": "H" 
			}
		],
		 "valence_orbital": [ 
			{
				"type": "occ",
				"energy": -0.30022,
				"method": "rhf"
			},
			{
				"type": "occ",
				"energy": -0.29613,
				"method": "rhf"
			},
			{
				"type": "occ",
				"energy": -0.26797,
				"method": "rhf"
			},
			{
				"type": "occ",
				"energy": -0.21999,
				"method": "rhf"
			},
			{
				"type": "occ",
				"energy": -0.2174,
				"method": "rhf"
			},
			{
				"type": "unocc",
				"energy": -0.0368,
				"method": "rhf"
			},
			{
				"type": "unocc",
				"energy": 0.0222,
				"method": "rhf"
			},
			{
				"type": "unocc",
				"energy": 0.06897,
				"method": "rhf"
			},
			{
				"type": "unocc",
				"energy": 0.0968,
				"method": "rhf"
			},
			{
				"type": "unocc",
				"energy": 0.10316,
				"method": "rhf"
			}
		],
		"cosmo_sigma_profile": { 
			"-0.025": 0.0,
			"-0.024": 0.0,
			"-0.023": 0.0,
			"-0.022": 0.0,
			"-0.021": 0.0,
			"-0.02": 0.0,
			"-0.019": 0.0,
			"-0.018": 0.0,
			"-0.017": 0.0,
			"-0.016": 0.0,
			"-0.015": 0.0,
			"-0.014": 0.0,
			"-0.013": 0.0,
			"-0.012": 0.0,
			"-0.011": 0.0,
			"-0.01": 0.0,
			"-0.009": 0.0,
			"-0.008": 0.0,
			"-0.007": 0.752373751476,
			"-0.006": 12.7365630808,
			"-0.005": 26.1261201707,
			"-0.004": 26.7267921757,
			"-0.003": 30.3805181909,
			"-0.002": 20.9042177791,
			"-0.001": 15.5792951176,
			"0.0": 16.3550581158,
			"0.001": 16.080184651,
			"0.002": 17.4994732266,
			"0.003": 20.6922884662,
			"0.004": 16.9262083887,
			"0.005": 8.60836050375,
			"0.006": 7.12536966134,
			"0.007": 4.63177178884,
			"0.008": 5.39580917046,
			"0.009": 2.18826396528,
			"0.01": 1.33431482958,
			"0.011": 2.89329334139,
			"0.012": 4.52854328561,
			"0.013": 0.530815437059,
			"0.014": 0.0,
			"0.015": 0.0,
			"0.016": 0.0,
			"0.017": 0.0,
			"0.018": 0.0,
			"0.019": 0.0,
			"0.02": 0.0,
			"0.021": 0.0,
			"0.022": 0.0,
			"0.023": 0.0,
			"0.024": 0.0,
			"0.025": 0.0
		}
	}
}
