{
	 "smiles": "CCOC1=C(OCCCC(O)=O)C=CC=C1", 
	 "Tm": 340.15, 
	 "num_atms": 32, 
	 "gaussian": { 
		 "optdone": 1, 
		 "sigma_profile": "yes", 
		 "theory": "DFT", 
		 "functional": "B3LYP", 
		 "basiset": "6-31G**", 
		 "properties": { 
			 "R2extent": 5535.1146, 
			 "electric_dipole_moment_norm": 1.10380837558, 
			 "electric_quadrupole_moment_norm": 8.9289143013, 
			 "total_energy": -767.817123553, 
			 "HOMO_LUMO_gap": 0.22964, 
			 "cosmo_polarized_energy": -12.18, 
			 "cosmo_cavitation_energy": 36.09, 
			 "cosmo_dispersion_energy": -24.74, 
			 "cosmo_repulsion_energy": 1.99, 
			 "cosmo_total_nonelectrostatic_energy": 13.34, 
			 "SMD_solvation_energy": 7.59 
		},
		"coords": [
			{
				"x": 2.1970695656,
				"y": -2.7836884291,
				"z": -1.2805730785,
				"element": "C" 
			},
			{
				"x": 1.9925229989,
				"y": -1.3198475666,
				"z": -0.9359647408,
				"element": "C" 
			},
			{
				"x": 2.2238216101,
				"y": -1.1646347855,
				"z": 0.4785470901,
				"element": "O" 
			},
			{
				"x": 2.0895911445,
				"y": 0.1211303449,
				"z": 0.9536294272,
				"element": "C" 
			},
			{
				"x": 0.8236943191,
				"y": 0.7240381652,
				"z": 1.0833153185,
				"element": "C" 
			},
			{
				"x": -0.3225972913,
				"y": 0.0702464956,
				"z": 0.6834817478,
				"element": "O" 
			},
			{
				"x": -0.7245719763,
				"y": -1.0304065102,
				"z": 1.5222847575,
				"element": "C" 
			},
			{
				"x": -2.0086828896,
				"y": -1.6129379064,
				"z": 0.9522086199,
				"element": "C" 
			},
			{
				"x": -3.1556204356,
				"y": -0.6021625965,
				"z": 0.918873248,
				"element": "C" 
			},
			{
				"x": -4.4204349184,
				"y": -1.16775821,
				"z": 0.3156148618,
				"element": "C" 
			},
			{
				"x": -5.436278673,
				"y": -0.2696111999,
				"z": 0.3574947088,
				"element": "O" 
			},
			{
				"x": -4.5527517979,
				"y": -2.2751290844,
				"z": -0.1587276094,
				"element": "O" 
			},
			{
				"x": 0.724692235,
				"y": 2.02211487,
				"z": 1.58630342,
				"element": "C" 
			},
			{
				"x": 1.8698931919,
				"y": 2.7209369235,
				"z": 1.9727725289,
				"element": "C" 
			},
			{
				"x": 3.1227548606,
				"y": 2.1153439485,
				"z": 1.8667329271,
				"element": "C" 
			},
			{
				"x": 3.2291504901,
				"y": 0.8213238877,
				"z": 1.3536262586,
				"element": "C" 
			},
			{
				"x": 1.4853255475,
				"y": -3.4140632899,
				"z": -0.7393882215,
				"element": "H" 
			},
			{
				"x": 3.2089699499,
				"y": -3.105257934,
				"z": -1.0175943353,
				"element": "H" 
			},
			{
				"x": 2.0500112238,
				"y": -2.9414191834,
				"z": -2.3536849965,
				"element": "H" 
			},
			{
				"x": 2.7013645914,
				"y": -0.6844812395,
				"z": -1.4851604745,
				"element": "H" 
			},
			{
				"x": 0.9767580838,
				"y": -0.9897978128,
				"z": -1.1815719449,
				"element": "H" 
			},
			{
				"x": 0.0685568651,
				"y": -1.7852656986,
				"z": 1.5471068039,
				"element": "H" 
			},
			{
				"x": -0.8807039876,
				"y": -0.6602773857,
				"z": 2.5464269123,
				"element": "H" 
			},
			{
				"x": -1.8226580752,
				"y": -1.9874684457,
				"z": -0.0594736292,
				"element": "H" 
			},
			{
				"x": -2.2935750058,
				"y": -2.482484288,
				"z": 1.5550270611,
				"element": "H" 
			},
			{
				"x": -3.3964475461,
				"y": -0.2348126551,
				"z": 1.9247800363,
				"element": "H" 
			},
			{
				"x": -2.8690621447,
				"y": 0.2842470445,
				"z": 0.3420883316,
				"element": "H" 
			},
			{
				"x": -6.1996519645,
				"y": -0.7096224768,
				"z": -0.0527889874,
				"element": "H" 
			},
			{
				"x": -0.2625813984,
				"y": 2.4667299314,
				"z": 1.6662039477,
				"element": "H" 
			},
			{
				"x": 1.7799880483,
				"y": 3.7300988741,
				"z": 2.363459543,
				"element": "H" 
			},
			{
				"x": 4.0171678317,
				"y": 2.6494643098,
				"z": 2.1731843851,
				"element": "H" 
			},
			{
				"x": 4.1918855473,
				"y": 0.3296519027,
				"z": 1.2535660829,
				"element": "H" 
			}
		],
		 "valence_orbital": [ 
			{
				"type": "occ",
				"energy": -0.29221,
				"method": "rhf"
			},
			{
				"type": "occ",
				"energy": -0.27411,
				"method": "rhf"
			},
			{
				"type": "occ",
				"energy": -0.26114,
				"method": "rhf"
			},
			{
				"type": "occ",
				"energy": -0.24392,
				"method": "rhf"
			},
			{
				"type": "occ",
				"energy": -0.22906,
				"method": "rhf"
			},
			{
				"type": "unocc",
				"energy": 0.00058,
				"method": "rhf"
			},
			{
				"type": "unocc",
				"energy": 0.00363,
				"method": "rhf"
			},
			{
				"type": "unocc",
				"energy": 0.01221,
				"method": "rhf"
			},
			{
				"type": "unocc",
				"energy": 0.0778,
				"method": "rhf"
			},
			{
				"type": "unocc",
				"energy": 0.08347,
				"method": "rhf"
			}
		],
		"cosmo_sigma_profile": { 
			"-0.025": 0.0,
			"-0.024": 0.0,
			"-0.023": 0.0,
			"-0.022": 0.0,
			"-0.021": 0.0,
			"-0.02": 0.0,
			"-0.019": 0.0,
			"-0.018": 0.532494613829,
			"-0.017": 0.914877869626,
			"-0.016": 0.951623633462,
			"-0.015": 0.625535938074,
			"-0.014": 0.48858311301,
			"-0.013": 0.452666394154,
			"-0.012": 0.764333016376,
			"-0.011": 1.23124021334,
			"-0.01": 0.702351832892,
			"-0.009": 0.596975752087,
			"-0.008": 0.476986706789,
			"-0.007": 0.695585892243,
			"-0.006": 8.28960866161,
			"-0.005": 16.5960830399,
			"-0.004": 27.2255109351,
			"-0.003": 34.4296001134,
			"-0.002": 30.0321894303,
			"-0.001": 27.0933461457,
			"0.0": 21.5109268598,
			"0.001": 16.369605964,
			"0.002": 14.3496679937,
			"0.003": 14.6194625347,
			"0.004": 14.8868213815,
			"0.005": 13.3670808749,
			"0.006": 6.89058104808,
			"0.007": 5.48793132268,
			"0.008": 4.5832961746,
			"0.009": 5.30719630591,
			"0.01": 4.13656691497,
			"0.011": 4.06114910414,
			"0.012": 5.45389418554,
			"0.013": 0.691729284608,
			"0.014": 0.0,
			"0.015": 0.0,
			"0.016": 0.0,
			"0.017": 0.0,
			"0.018": 0.0,
			"0.019": 0.0,
			"0.02": 0.0,
			"0.021": 0.0,
			"0.022": 0.0,
			"0.023": 0.0,
			"0.024": 0.0,
			"0.025": 0.0
		}
	}
}
