{
	 "smiles": "CC1=NC2=C(S1)C=C(C)C(C)=C2", 
	 "Tm": 357.15, 
	 "num_atms": 23, 
	 "gaussian": { 
		 "optdone": 1, 
		 "sigma_profile": "yes", 
		 "theory": "DFT", 
		 "functional": "B3LYP", 
		 "basiset": "6-31G**", 
		 "properties": { 
			 "R2extent": 3091.391, 
			 "electric_dipole_moment_norm": 0.899257104503, 
			 "electric_quadrupole_moment_norm": 9.04987344773, 
			 "total_energy": -840.661814083, 
			 "HOMO_LUMO_gap": 0.19686, 
			 "cosmo_polarized_energy": -6.33, 
			 "cosmo_cavitation_energy": 27.57, 
			 "cosmo_dispersion_energy": -20.87, 
			 "cosmo_repulsion_energy": 1.6, 
			 "cosmo_total_nonelectrostatic_energy": 8.3, 
			 "SMD_solvation_energy": 2.59 
		},
		"coords": [
			{
				"x": -2.9559919749,
				"y": -1.1285624857,
				"z": 4.0926826241,
				"element": "C" 
			},
			{
				"x": -2.154102109,
				"y": -0.7440060848,
				"z": 2.8883542846,
				"element": "C" 
			},
			{
				"x": -1.8050220686,
				"y": -1.5629108282,
				"z": 1.9511908754,
				"element": "N" 
			},
			{
				"x": -1.0678790859,
				"y": -0.9218167294,
				"z": 0.9642591839,
				"element": "C" 
			},
			{
				"x": -0.847797195,
				"y": 0.4573187125,
				"z": 1.1671143451,
				"element": "C" 
			},
			{
				"x": -1.6096501179,
				"y": 0.9448337554,
				"z": 2.6692972028,
				"element": "S" 
			},
			{
				"x": -0.1210658436,
				"y": 1.2121579147,
				"z": 0.2453872573,
				"element": "C" 
			},
			{
				"x": 0.3966541988,
				"y": 0.5950011875,
				"z": -0.895019417,
				"element": "C" 
			},
			{
				"x": 1.1834044143,
				"y": 1.4109977819,
				"z": -1.8933919923,
				"element": "C" 
			},
			{
				"x": 0.1816398591,
				"y": -0.7945461507,
				"z": -1.1108349526,
				"element": "C" 
			},
			{
				"x": 0.7381955572,
				"y": -1.4703766951,
				"z": -2.3420579811,
				"element": "C" 
			},
			{
				"x": -0.5456247481,
				"y": -1.5348984486,
				"z": -0.1821436675,
				"element": "C" 
			},
			{
				"x": -2.4036364024,
				"y": -0.9326782689,
				"z": 5.0180643562,
				"element": "H" 
			},
			{
				"x": -3.8946112608,
				"y": -0.5661308759,
				"z": 4.1423737913,
				"element": "H" 
			},
			{
				"x": -3.1838134761,
				"y": -2.1943167966,
				"z": 4.0344773513,
				"element": "H" 
			},
			{
				"x": 0.0458988771,
				"y": 2.2733228172,
				"z": 0.4055521099,
				"element": "H" 
			},
			{
				"x": 1.2561538396,
				"y": 2.4555185799,
				"z": -1.5794830096,
				"element": "H" 
			},
			{
				"x": 2.2038046494,
				"y": 1.0278460149,
				"z": -2.0161219583,
				"element": "H" 
			},
			{
				"x": 0.7196174477,
				"y": 1.3930109509,
				"z": -2.8872048882,
				"element": "H" 
			},
			{
				"x": 0.3465239651,
				"y": -1.0227501235,
				"z": -3.2636635161,
				"element": "H" 
			},
			{
				"x": 0.4839021481,
				"y": -2.5332157893,
				"z": -2.3545068991,
				"element": "H" 
			},
			{
				"x": 1.8308326728,
				"y": -1.3881145471,
				"z": -2.3921957554,
				"element": "H" 
			},
			{
				"x": -0.718633347,
				"y": -2.596383891,
				"z": -0.3321293451,
				"element": "H" 
			}
		],
		 "valence_orbital": [ 
			{
				"type": "occ",
				"energy": -0.31722,
				"method": "rhf"
			},
			{
				"type": "occ",
				"energy": -0.29291,
				"method": "rhf"
			},
			{
				"type": "occ",
				"energy": -0.2684,
				"method": "rhf"
			},
			{
				"type": "occ",
				"energy": -0.22568,
				"method": "rhf"
			},
			{
				"type": "occ",
				"energy": -0.22244,
				"method": "rhf"
			},
			{
				"type": "unocc",
				"energy": -0.02558,
				"method": "rhf"
			},
			{
				"type": "unocc",
				"energy": 0.00209,
				"method": "rhf"
			},
			{
				"type": "unocc",
				"energy": 0.01591,
				"method": "rhf"
			},
			{
				"type": "unocc",
				"energy": 0.04077,
				"method": "rhf"
			},
			{
				"type": "unocc",
				"energy": 0.0937,
				"method": "rhf"
			}
		],
		"cosmo_sigma_profile": { 
			"-0.025": 0.0,
			"-0.024": 0.0,
			"-0.023": 0.0,
			"-0.022": 0.0,
			"-0.021": 0.0,
			"-0.02": 0.0,
			"-0.019": 0.0,
			"-0.018": 0.0,
			"-0.017": 0.0,
			"-0.016": 0.0,
			"-0.015": 0.0,
			"-0.014": 0.0,
			"-0.013": 0.0,
			"-0.012": 0.0,
			"-0.011": 0.0,
			"-0.01": 0.0,
			"-0.009": 0.0,
			"-0.008": 0.0,
			"-0.007": 0.440536660294,
			"-0.006": 7.1020871668,
			"-0.005": 13.6083619011,
			"-0.004": 22.859806169,
			"-0.003": 21.4265914089,
			"-0.002": 22.7278181111,
			"-0.001": 20.7048134934,
			"0.0": 24.2033823673,
			"0.001": 17.0623123504,
			"0.002": 15.3127584022,
			"0.003": 14.6006479158,
			"0.004": 16.8463960101,
			"0.005": 12.4015747599,
			"0.006": 2.73026932003,
			"0.007": 1.36732880646,
			"0.008": 0.966531725056,
			"0.009": 0.744531716328,
			"0.01": 1.15836960485,
			"0.011": 1.55828985936,
			"0.012": 0.734057747916,
			"0.013": 0.659906515657,
			"0.014": 0.884891061093,
			"0.015": 0.779794293074,
			"0.016": 0.0236251127893,
			"0.017": 0.0,
			"0.018": 0.0,
			"0.019": 0.0,
			"0.02": 0.0,
			"0.021": 0.0,
			"0.022": 0.0,
			"0.023": 0.0,
			"0.024": 0.0,
			"0.025": 0.0
		}
	}
}
