{
	 "smiles": "CCCCCC(=O)C1=C(O)C=C(O)C=C1", 
	 "Tm": 330.15, 
	 "num_atms": 31, 
	 "gaussian": { 
		 "optdone": 1, 
		 "sigma_profile": "yes", 
		 "theory": "DFT", 
		 "functional": "B3LYP", 
		 "basiset": "6-31G**", 
		 "properties": { 
			 "R2extent": 5141.9791, 
			 "electric_dipole_moment_norm": 3.93430653991, 
			 "electric_quadrupole_moment_norm": 15.3375155762, 
			 "total_energy": -692.60156829, 
			 "HOMO_LUMO_gap": 0.18947, 
			 "cosmo_polarized_energy": -15.99, 
			 "cosmo_cavitation_energy": 33.76, 
			 "cosmo_dispersion_energy": -24.37, 
			 "cosmo_repulsion_energy": 1.94, 
			 "cosmo_total_nonelectrostatic_energy": 11.33, 
			 "SMD_solvation_energy": 6.5 
		},
		"coords": [
			{
				"x": -4.1840554267,
				"y": -0.3810350751,
				"z": 1.6643730999,
				"element": "C" 
			},
			{
				"x": -3.1546727597,
				"y": 0.4811823611,
				"z": 0.9256811227,
				"element": "C" 
			},
			{
				"x": -3.090489298,
				"y": 0.1756899018,
				"z": -0.5774625949,
				"element": "C" 
			},
			{
				"x": -2.1072492477,
				"y": 1.0524345287,
				"z": -1.3728061593,
				"element": "C" 
			},
			{
				"x": -0.6241910288,
				"y": 0.8309954859,
				"z": -1.0492522243,
				"element": "C" 
			},
			{
				"x": -0.0675671985,
				"y": -0.4789902019,
				"z": -1.5929772773,
				"element": "C" 
			},
			{
				"x": -0.7677139777,
				"y": -1.2055482864,
				"z": -2.2904268674,
				"element": "O" 
			},
			{
				"x": 1.3427512065,
				"y": -0.8976031217,
				"z": -1.2934297436,
				"element": "C" 
			},
			{
				"x": 2.3097358023,
				"y": -0.1636840048,
				"z": -0.567062556,
				"element": "C" 
			},
			{
				"x": 1.9845313183,
				"y": 1.0634088364,
				"z": -0.0671132431,
				"element": "O" 
			},
			{
				"x": 3.5931237953,
				"y": -0.6766031463,
				"z": -0.361135247,
				"element": "C" 
			},
			{
				"x": 3.9436771387,
				"y": -1.9262489125,
				"z": -0.8718180833,
				"element": "C" 
			},
			{
				"x": 5.2093578828,
				"y": -2.3626639233,
				"z": -0.6317041061,
				"element": "O" 
			},
			{
				"x": 3.0065239474,
				"y": -2.6744657373,
				"z": -1.5985442397,
				"element": "C" 
			},
			{
				"x": 1.7390941673,
				"y": -2.1510159695,
				"z": -1.7944129058,
				"element": "C" 
			},
			{
				"x": -4.2147218443,
				"y": -0.1453687353,
				"z": 2.733532889,
				"element": "H" 
			},
			{
				"x": -3.950266787,
				"y": -1.4471821627,
				"z": 1.5647449876,
				"element": "H" 
			},
			{
				"x": -5.1914576314,
				"y": -0.2272012131,
				"z": 1.2605696526,
				"element": "H" 
			},
			{
				"x": -3.3963304986,
				"y": 1.5437268239,
				"z": 1.0701577886,
				"element": "H" 
			},
			{
				"x": -2.1684696424,
				"y": 0.3305081579,
				"z": 1.3841351985,
				"element": "H" 
			},
			{
				"x": -4.0944635649,
				"y": 0.3115386649,
				"z": -1.0025679272,
				"element": "H" 
			},
			{
				"x": -2.8367253984,
				"y": -0.879287646,
				"z": -0.7327300937,
				"element": "H" 
			},
			{
				"x": -2.3433796364,
				"y": 2.1095854444,
				"z": -1.1919030829,
				"element": "H" 
			},
			{
				"x": -2.2589257666,
				"y": 0.8714881047,
				"z": -2.4417576597,
				"element": "H" 
			},
			{
				"x": -0.0134944733,
				"y": 1.642249941,
				"z": -1.4664955333,
				"element": "H" 
			},
			{
				"x": -0.4281873968,
				"y": 0.8796931459,
				"z": 0.0272782407,
				"element": "H" 
			},
			{
				"x": 2.7514213585,
				"y": 1.4264536882,
				"z": 0.3953640396,
				"element": "H" 
			},
			{
				"x": 4.3355852044,
				"y": -0.1114585171,
				"z": 0.1960216548,
				"element": "H" 
			},
			{
				"x": 5.3266260267,
				"y": -3.2324415538,
				"z": -1.0360928243,
				"element": "H" 
			},
			{
				"x": 3.2730743068,
				"y": -3.649128861,
				"z": -2.0000064575,
				"element": "H" 
			},
			{
				"x": 0.9931594222,
				"y": -2.7047280171,
				"z": -2.3542598475,
				"element": "H" 
			}
		],
		 "valence_orbital": [ 
			{
				"type": "occ",
				"energy": -0.30772,
				"method": "rhf"
			},
			{
				"type": "occ",
				"energy": -0.30017,
				"method": "rhf"
			},
			{
				"type": "occ",
				"energy": -0.24539,
				"method": "rhf"
			},
			{
				"type": "occ",
				"energy": -0.23682,
				"method": "rhf"
			},
			{
				"type": "occ",
				"energy": -0.22808,
				"method": "rhf"
			},
			{
				"type": "unocc",
				"energy": -0.03861,
				"method": "rhf"
			},
			{
				"type": "unocc",
				"energy": -0.00011,
				"method": "rhf"
			},
			{
				"type": "unocc",
				"energy": 0.05093,
				"method": "rhf"
			},
			{
				"type": "unocc",
				"energy": 0.05753,
				"method": "rhf"
			},
			{
				"type": "unocc",
				"energy": 0.06137,
				"method": "rhf"
			}
		],
		"cosmo_sigma_profile": { 
			"-0.025": 0.0,
			"-0.024": 0.0,
			"-0.023": 0.0,
			"-0.022": 0.0,
			"-0.021": 0.0,
			"-0.02": 0.0,
			"-0.019": 0.0893014322998,
			"-0.018": 2.00051252188,
			"-0.017": 2.41424804058,
			"-0.016": 2.12472540849,
			"-0.015": 2.48120256408,
			"-0.014": 1.70187939253,
			"-0.013": 1.7919854558,
			"-0.012": 1.15562034436,
			"-0.011": 2.40062170398,
			"-0.01": 2.19721520506,
			"-0.009": 2.31760190123,
			"-0.008": 2.21418259041,
			"-0.007": 2.97428520518,
			"-0.006": 3.8032826427,
			"-0.005": 4.15602125935,
			"-0.004": 6.8373602575,
			"-0.003": 11.480760579,
			"-0.002": 21.8891972292,
			"-0.001": 30.5196886569,
			"0.0": 33.3856877794,
			"0.001": 32.6869733502,
			"0.002": 23.1280376769,
			"0.003": 18.7902182275,
			"0.004": 14.368061573,
			"0.005": 8.08805621596,
			"0.006": 6.33926419298,
			"0.007": 4.37017845939,
			"0.008": 2.49851607522,
			"0.009": 3.37573120017,
			"0.01": 3.903585179,
			"0.011": 3.2705764326,
			"0.012": 2.6171982813,
			"0.013": 2.85373757137,
			"0.014": 0.187988261498,
			"0.015": 0.0,
			"0.016": 0.0,
			"0.017": 0.0,
			"0.018": 0.0,
			"0.019": 0.0,
			"0.02": 0.0,
			"0.021": 0.0,
			"0.022": 0.0,
			"0.023": 0.0,
			"0.024": 0.0,
			"0.025": 0.0
		}
	}
}
