{
	 "smiles": "FC1=C(F)C(F)=C(OC(=O)C2=CC=C(OC3CCOCC3)N=C2)C(F)=C1F", 
	 "Tm": 389.15, 
	 "num_atms": 39, 
	 "gaussian": { 
		 "optdone": 1, 
		 "sigma_profile": "yes", 
		 "theory": "DFT", 
		 "functional": "B3LYP", 
		 "basiset": "6-31G**", 
		 "properties": { 
			 "R2extent": 19827.1087, 
			 "electric_dipole_moment_norm": 3.63139555268, 
			 "electric_quadrupole_moment_norm": 12.7975561104, 
			 "total_energy": -1509.80761469, 
			 "HOMO_LUMO_gap": 0.18996, 
			 "cosmo_polarized_energy": -10.67, 
			 "cosmo_cavitation_energy": 47.24, 
			 "cosmo_dispersion_energy": -32.81, 
			 "cosmo_repulsion_energy": 2.38, 
			 "cosmo_total_nonelectrostatic_energy": 16.8, 
			 "SMD_solvation_energy": 10.44 
		},
		"coords": [
			{
				"x": -0.5247521754,
				"y": -8.0337466508,
				"z": 3.7530263591,
				"element": "F" 
			},
			{
				"x": -0.4389386523,
				"y": -6.8194506004,
				"z": 3.2037373245,
				"element": "C" 
			},
			{
				"x": 0.5615283251,
				"y": -6.5449455982,
				"z": 2.2737838286,
				"element": "C" 
			},
			{
				"x": 1.4328525302,
				"y": -7.4983661981,
				"z": 1.9289062569,
				"element": "F" 
			},
			{
				"x": 0.6463487494,
				"y": -5.277458087,
				"z": 1.7009869898,
				"element": "C" 
			},
			{
				"x": 1.6006930536,
				"y": -5.0243916621,
				"z": 0.8007933162,
				"element": "F" 
			},
			{
				"x": -0.2534861447,
				"y": -4.275652896,
				"z": 2.0631355788,
				"element": "C" 
			},
			{
				"x": -0.1064242991,
				"y": -3.0107373588,
				"z": 1.5401329931,
				"element": "O" 
			},
			{
				"x": -1.0641630784,
				"y": -2.5975378025,
				"z": 0.6203469661,
				"element": "C" 
			},
			{
				"x": -1.9706866904,
				"y": -3.3118484247,
				"z": 0.2656048529,
				"element": "O" 
			},
			{
				"x": -0.8118835267,
				"y": -1.2220866087,
				"z": 0.1607105906,
				"element": "C" 
			},
			{
				"x": -1.6951276539,
				"y": -0.6511640525,
				"z": -0.7786865086,
				"element": "C" 
			},
			{
				"x": -1.4741128202,
				"y": 0.6351162223,
				"z": -1.2205756926,
				"element": "C" 
			},
			{
				"x": -0.358329813,
				"y": 1.3288415531,
				"z": -0.7019171285,
				"element": "C" 
			},
			{
				"x": -0.1673772298,
				"y": 2.5773542397,
				"z": -1.1559563441,
				"element": "O" 
			},
			{
				"x": 0.9792383166,
				"y": 3.3334747577,
				"z": -0.6894753939,
				"element": "C" 
			},
			{
				"x": 0.6987013441,
				"y": 3.9767138546,
				"z": 0.6798660765,
				"element": "C" 
			},
			{
				"x": 1.5390164797,
				"y": 5.2649072286,
				"z": 0.8331973379,
				"element": "C" 
			},
			{
				"x": 2.7426998318,
				"y": 5.1762365713,
				"z": 0.081690309,
				"element": "O" 
			},
			{
				"x": 2.5054029653,
				"y": 5.2120692289,
				"z": -1.3233971796,
				"element": "C" 
			},
			{
				"x": 1.2518194717,
				"y": 4.4075919711,
				"z": -1.7370754241,
				"element": "C" 
			},
			{
				"x": 0.4867378712,
				"y": 0.8072207491,
				"z": 0.1886514049,
				"element": "N" 
			},
			{
				"x": 0.2603809522,
				"y": -0.4433496542,
				"z": 0.6047822776,
				"element": "C" 
			},
			{
				"x": -1.2522534862,
				"y": -4.560032095,
				"z": 2.9949686157,
				"element": "C" 
			},
			{
				"x": -2.1212812831,
				"y": -3.6086359778,
				"z": 3.3469539029,
				"element": "F" 
			},
			{
				"x": -1.3492096076,
				"y": -5.8268222731,
				"z": 3.5639923794,
				"element": "C" 
			},
			{
				"x": -2.3070934038,
				"y": -6.0928144722,
				"z": 4.4574382489,
				"element": "F" 
			},
			{
				"x": -2.5340960682,
				"y": -1.2381051496,
				"z": -1.1374671039,
				"element": "H" 
			},
			{
				"x": -2.1181527614,
				"y": 1.1222147453,
				"z": -1.9432584924,
				"element": "H" 
			},
			{
				"x": 1.8279387275,
				"y": 2.6503085996,
				"z": -0.6111286827,
				"element": "H" 
			},
			{
				"x": -0.3689627286,
				"y": 4.217481748,
				"z": 0.744036248,
				"element": "H" 
			},
			{
				"x": 0.9248189783,
				"y": 3.2562950453,
				"z": 1.4697040936,
				"element": "H" 
			},
			{
				"x": 0.9592680405,
				"y": 6.1481755101,
				"z": 0.5197407672,
				"element": "H" 
			},
			{
				"x": 1.8362230216,
				"y": 5.4212706593,
				"z": 1.8732430651,
				"element": "H" 
			},
			{
				"x": 2.4136903625,
				"y": 6.2544631169,
				"z": -1.6677736869,
				"element": "H" 
			},
			{
				"x": 3.4052261389,
				"y": 4.7874444562,
				"z": -1.7792312543,
				"element": "H" 
			},
			{
				"x": 0.3721844769,
				"y": 5.0577852259,
				"z": -1.8102432144,
				"element": "H" 
			},
			{
				"x": 1.3968205281,
				"y": 3.9549486143,
				"z": -2.7227010668,
				"element": "H" 
			},
			{
				"x": 0.9656412576,
				"y": -0.8431685355,
				"z": 1.3274573893,
				"element": "H" 
			}
		],
		 "valence_orbital": [ 
			{
				"type": "occ",
				"energy": -0.27948,
				"method": "rhf"
			},
			{
				"type": "occ",
				"energy": -0.26407,
				"method": "rhf"
			},
			{
				"type": "occ",
				"energy": -0.26028,
				"method": "rhf"
			},
			{
				"type": "occ",
				"energy": -0.25527,
				"method": "rhf"
			},
			{
				"type": "occ",
				"energy": -0.25024,
				"method": "rhf"
			},
			{
				"type": "unocc",
				"energy": -0.06028,
				"method": "rhf"
			},
			{
				"type": "unocc",
				"energy": -0.03783,
				"method": "rhf"
			},
			{
				"type": "unocc",
				"energy": -0.02644,
				"method": "rhf"
			},
			{
				"type": "unocc",
				"energy": -0.01994,
				"method": "rhf"
			},
			{
				"type": "unocc",
				"energy": -0.00033,
				"method": "rhf"
			}
		],
		"cosmo_sigma_profile": { 
			"-0.025": 0.0,
			"-0.024": 0.0,
			"-0.023": 0.0,
			"-0.022": 0.0,
			"-0.021": 0.0,
			"-0.02": 0.0,
			"-0.019": 0.0,
			"-0.018": 0.0,
			"-0.017": 0.0,
			"-0.016": 0.0,
			"-0.015": 0.0,
			"-0.014": 0.0,
			"-0.013": 0.0,
			"-0.012": 0.0,
			"-0.011": 0.0,
			"-0.01": 0.0,
			"-0.009": 0.0,
			"-0.008": 1.50570701408,
			"-0.007": 4.98141349405,
			"-0.006": 5.07936862626,
			"-0.005": 12.8043770596,
			"-0.004": 45.6346000226,
			"-0.003": 43.867831197,
			"-0.002": 35.8931090406,
			"-0.001": 36.9999874988,
			"0.0": 31.9066731148,
			"0.001": 29.4903396677,
			"0.002": 57.2458290122,
			"0.003": 27.6821991156,
			"0.004": 7.04563704895,
			"0.005": 5.68208483736,
			"0.006": 6.7385330451,
			"0.007": 5.36709873093,
			"0.008": 4.24049508919,
			"0.009": 3.88697700583,
			"0.01": 5.6118559019,
			"0.011": 3.03374867113,
			"0.012": 1.55426389835,
			"0.013": 1.45769253005,
			"0.014": 0.711568550987,
			"0.015": 0.0,
			"0.016": 0.0,
			"0.017": 0.0,
			"0.018": 0.0,
			"0.019": 0.0,
			"0.02": 0.0,
			"0.021": 0.0,
			"0.022": 0.0,
			"0.023": 0.0,
			"0.024": 0.0,
			"0.025": 0.0
		}
	}
}
