{
	 "smiles": "OC(=O)CC1=CC(CC(O)=O)=CC=C1", 
	 "Tm": 448.15, 
	 "num_atms": 24, 
	 "gaussian": { 
		 "optdone": 1, 
		 "sigma_profile": "yes", 
		 "theory": "DFT", 
		 "functional": "B3LYP", 
		 "basiset": "6-31G**", 
		 "properties": { 
			 "R2extent": 3397.6614, 
			 "electric_dipole_moment_norm": 6.33142009821, 
			 "electric_quadrupole_moment_norm": 19.6433730573, 
			 "total_energy": -688.017397797, 
			 "HOMO_LUMO_gap": 0.21946, 
			 "cosmo_polarized_energy": -18.19, 
			 "cosmo_cavitation_energy": 28.91, 
			 "cosmo_dispersion_energy": -20.33, 
			 "cosmo_repulsion_energy": 1.61, 
			 "cosmo_total_nonelectrostatic_energy": 10.19, 
			 "SMD_solvation_energy": 6.97 
		},
		"coords": [
			{
				"x": 0.4672204224,
				"y": -2.5379534282,
				"z": -0.2398031725,
				"element": "O" 
			},
			{
				"x": 1.6146047616,
				"y": -2.1305240776,
				"z": -0.8219394038,
				"element": "C" 
			},
			{
				"x": 2.2349361868,
				"y": -2.8696227639,
				"z": -1.5463899331,
				"element": "O" 
			},
			{
				"x": 2.1204224425,
				"y": -0.71661243,
				"z": -0.4750490601,
				"element": "C" 
			},
			{
				"x": 1.0411088827,
				"y": 0.3041247997,
				"z": -0.2050757714,
				"element": "C" 
			},
			{
				"x": 0.445233585,
				"y": 0.3751987691,
				"z": 1.0588042871,
				"element": "C" 
			},
			{
				"x": -0.6476838753,
				"y": 1.2149766169,
				"z": 1.3076399044,
				"element": "C" 
			},
			{
				"x": -1.3318761464,
				"y": 1.180926772,
				"z": 2.6517663446,
				"element": "C" 
			},
			{
				"x": -1.9453829655,
				"y": -0.1774120826,
				"z": 2.9701205975,
				"element": "C" 
			},
			{
				"x": -2.8484939103,
				"y": -0.0763585081,
				"z": 3.9700403799,
				"element": "O" 
			},
			{
				"x": -1.6679269213,
				"y": -1.2331278251,
				"z": 2.4440535345,
				"element": "O" 
			},
			{
				"x": -1.1099402175,
				"y": 2.0408967934,
				"z": 0.2800244304,
				"element": "C" 
			},
			{
				"x": -0.4970922443,
				"y": 2.0132453514,
				"z": -0.9754068948,
				"element": "C" 
			},
			{
				"x": 0.5602596846,
				"y": 1.1405806027,
				"z": -1.2230333897,
				"element": "C" 
			},
			{
				"x": 0.0510275673,
				"y": -1.8291843167,
				"z": 0.2795322259,
				"element": "H" 
			},
			{
				"x": 2.7636131514,
				"y": -0.8326840113,
				"z": 0.4070564215,
				"element": "H" 
			},
			{
				"x": 2.7672989304,
				"y": -0.4173737534,
				"z": -1.3019201687,
				"element": "H" 
			},
			{
				"x": 0.8233823852,
				"y": -0.2520697764,
				"z": 1.8625637451,
				"element": "H" 
			},
			{
				"x": -0.6243538988,
				"y": 1.3931725364,
				"z": 3.4655799202,
				"element": "H" 
			},
			{
				"x": -2.1148739306,
				"y": 1.9404199441,
				"z": 2.7284534517,
				"element": "H" 
			},
			{
				"x": -3.1718473088,
				"y": -0.9775130895,
				"z": 4.1408548591,
				"element": "H" 
			},
			{
				"x": -1.9532144713,
				"y": 2.7032343348,
				"z": 0.4573579101,
				"element": "H" 
			},
			{
				"x": -0.8589233351,
				"y": 2.6630246404,
				"z": -1.7668386754,
				"element": "H" 
			},
			{
				"x": 1.0150012254,
				"y": 1.1017349016,
				"z": -2.2091915425,
				"element": "H" 
			}
		],
		 "valence_orbital": [ 
			{
				"type": "occ",
				"energy": -0.30132,
				"method": "rhf"
			},
			{
				"type": "occ",
				"energy": -0.29749,
				"method": "rhf"
			},
			{
				"type": "occ",
				"energy": -0.27536,
				"method": "rhf"
			},
			{
				"type": "occ",
				"energy": -0.26269,
				"method": "rhf"
			},
			{
				"type": "occ",
				"energy": -0.24631,
				"method": "rhf"
			},
			{
				"type": "unocc",
				"energy": -0.02685,
				"method": "rhf"
			},
			{
				"type": "unocc",
				"energy": -0.0198,
				"method": "rhf"
			},
			{
				"type": "unocc",
				"energy": -0.00607,
				"method": "rhf"
			},
			{
				"type": "unocc",
				"energy": 0.02425,
				"method": "rhf"
			},
			{
				"type": "unocc",
				"energy": 0.06599,
				"method": "rhf"
			}
		],
		"cosmo_sigma_profile": { 
			"-0.025": 0.0,
			"-0.024": 0.0,
			"-0.023": 0.0,
			"-0.022": 0.0,
			"-0.021": 0.0,
			"-0.02": 0.0,
			"-0.019": 0.000552581065636,
			"-0.018": 1.03317157485,
			"-0.017": 0.881376695098,
			"-0.016": 0.885370815351,
			"-0.015": 0.628610962525,
			"-0.014": 0.630700643123,
			"-0.013": 0.481462373023,
			"-0.012": 1.12698853176,
			"-0.011": 0.822671026948,
			"-0.01": 1.36324699743,
			"-0.009": 1.77941636958,
			"-0.008": 4.33013096916,
			"-0.007": 10.974357171,
			"-0.006": 19.1836528911,
			"-0.005": 17.5234710108,
			"-0.004": 16.7474403607,
			"-0.003": 15.7271417197,
			"-0.002": 13.9994660139,
			"-0.001": 11.9988264617,
			"0.0": 10.85820669,
			"0.001": 10.2055230057,
			"0.002": 10.4920878272,
			"0.003": 11.1027064014,
			"0.004": 11.8105813031,
			"0.005": 10.1141474787,
			"0.006": 4.82611086534,
			"0.007": 5.26741382549,
			"0.008": 4.91884370888,
			"0.009": 7.09721543708,
			"0.01": 5.78113034415,
			"0.011": 6.62585500363,
			"0.012": 7.01597216304,
			"0.013": 2.92269281253,
			"0.014": 0.195877936013,
			"0.015": 0.0,
			"0.016": 0.0,
			"0.017": 0.0,
			"0.018": 0.0,
			"0.019": 0.0,
			"0.02": 0.0,
			"0.021": 0.0,
			"0.022": 0.0,
			"0.023": 0.0,
			"0.024": 0.0,
			"0.025": 0.0
		}
	}
}
