{
	 "smiles": "COC1=CC=C(C=C1)C(=O)C1=C2C=CC=CC2=CC=C1", 
	 "Tm": 369.15, 
	 "num_atms": 34, 
	 "gaussian": { 
		 "optdone": 1, 
		 "sigma_profile": "yes", 
		 "theory": "DFT", 
		 "functional": "B3LYP", 
		 "basiset": "6-31G**", 
		 "properties": { 
			 "R2extent": 6402.3757, 
			 "electric_dipole_moment_norm": 4.69087087117, 
			 "electric_quadrupole_moment_norm": 10.8068427859, 
			 "total_energy": -844.799607306, 
			 "HOMO_LUMO_gap": 0.15986, 
			 "cosmo_polarized_energy": -12.31, 
			 "cosmo_cavitation_energy": 37.83, 
			 "cosmo_dispersion_energy": -26.9, 
			 "cosmo_repulsion_energy": 2.04, 
			 "cosmo_total_nonelectrostatic_energy": 12.97, 
			 "SMD_solvation_energy": 7.38 
		},
		"coords": [
			{
				"x": 5.7500776804,
				"y": 0.38756665,
				"z": 0.2746102837,
				"element": "C" 
			},
			{
				"x": 5.020234845,
				"y": 0.0005000582,
				"z": -0.8816776527,
				"element": "O" 
			},
			{
				"x": 3.6859183768,
				"y": -0.2258826316,
				"z": -0.7627234545,
				"element": "C" 
			},
			{
				"x": 2.9614765916,
				"y": -0.1048253999,
				"z": 0.4313152297,
				"element": "C" 
			},
			{
				"x": 1.5896542412,
				"y": -0.3555419904,
				"z": 0.4309451674,
				"element": "C" 
			},
			{
				"x": 0.920798259,
				"y": -0.7333255333,
				"z": -0.740740153,
				"element": "C" 
			},
			{
				"x": 1.6681446369,
				"y": -0.8657791265,
				"z": -1.9280942325,
				"element": "C" 
			},
			{
				"x": 3.0268334456,
				"y": -0.6086524045,
				"z": -1.9457748545,
				"element": "C" 
			},
			{
				"x": -0.5299138382,
				"y": -1.074989673,
				"z": -0.7751852576,
				"element": "C" 
			},
			{
				"x": -1.0070879835,
				"y": -1.6758166173,
				"z": -1.7322516913,
				"element": "O" 
			},
			{
				"x": -1.4148093213,
				"y": -0.7576137409,
				"z": 0.4082988222,
				"element": "C" 
			},
			{
				"x": -1.614368388,
				"y": 0.566610868,
				"z": 0.9212271788,
				"element": "C" 
			},
			{
				"x": -1.0243695129,
				"y": 1.7273493867,
				"z": 0.3445695695,
				"element": "C" 
			},
			{
				"x": -1.2647231344,
				"y": 2.9798664266,
				"z": 0.8638378974,
				"element": "C" 
			},
			{
				"x": -2.1095494367,
				"y": 3.144762458,
				"z": 1.9874580982,
				"element": "C" 
			},
			{
				"x": -2.7099900392,
				"y": 2.0479178834,
				"z": 2.5601925073,
				"element": "C" 
			},
			{
				"x": -2.4916474867,
				"y": 0.7407552174,
				"z": 2.0454489073,
				"element": "C" 
			},
			{
				"x": -3.1371344479,
				"y": -0.3907070625,
				"z": 2.610887531,
				"element": "C" 
			},
			{
				"x": -2.9535072535,
				"y": -1.6453907208,
				"z": 2.0771650405,
				"element": "C" 
			},
			{
				"x": -2.1022186335,
				"y": -1.8219117227,
				"z": 0.9647225716,
				"element": "C" 
			},
			{
				"x": 6.7831010986,
				"y": 0.5144522625,
				"z": -0.0517203288,
				"element": "H" 
			},
			{
				"x": 5.3812079987,
				"y": 1.3355813808,
				"z": 0.6854710727,
				"element": "H" 
			},
			{
				"x": 5.7090024971,
				"y": -0.3834669816,
				"z": 1.0539479594,
				"element": "H" 
			},
			{
				"x": 3.4509857005,
				"y": 0.1780931585,
				"z": 1.3553512147,
				"element": "H" 
			},
			{
				"x": 1.0384646396,
				"y": -0.2631180011,
				"z": 1.3607456153,
				"element": "H" 
			},
			{
				"x": 1.148931453,
				"y": -1.1776044619,
				"z": -2.8281770564,
				"element": "H" 
			},
			{
				"x": 3.6110810281,
				"y": -0.6985438431,
				"z": -2.8556941543,
				"element": "H" 
			},
			{
				"x": -0.3816886942,
				"y": 1.6213049369,
				"z": -0.5220204933,
				"element": "H" 
			},
			{
				"x": -0.8062184412,
				"y": 3.8504845624,
				"z": 0.4038256555,
				"element": "H" 
			},
			{
				"x": -2.2885342754,
				"y": 4.1384522997,
				"z": 2.387685922,
				"element": "H" 
			},
			{
				"x": -3.3724094936,
				"y": 2.1647862803,
				"z": 3.4141844084,
				"element": "H" 
			},
			{
				"x": -3.7907665473,
				"y": -0.2443344276,
				"z": 3.4670346175,
				"element": "H" 
			},
			{
				"x": -3.4616954109,
				"y": -2.5044296945,
				"z": 2.5050869682,
				"element": "H" 
			},
			{
				"x": -1.9706801539,
				"y": -2.8101497962,
				"z": 0.5353470908,
				"element": "H" 
			}
		],
		 "valence_orbital": [ 
			{
				"type": "occ",
				"energy": -0.25975,
				"method": "rhf"
			},
			{
				"type": "occ",
				"energy": -0.24766,
				"method": "rhf"
			},
			{
				"type": "occ",
				"energy": -0.24264,
				"method": "rhf"
			},
			{
				"type": "occ",
				"energy": -0.22866,
				"method": "rhf"
			},
			{
				"type": "occ",
				"energy": -0.21568,
				"method": "rhf"
			},
			{
				"type": "unocc",
				"energy": -0.05582,
				"method": "rhf"
			},
			{
				"type": "unocc",
				"energy": -0.03672,
				"method": "rhf"
			},
			{
				"type": "unocc",
				"energy": -0.01296,
				"method": "rhf"
			},
			{
				"type": "unocc",
				"energy": -0.00511,
				"method": "rhf"
			},
			{
				"type": "unocc",
				"energy": 0.02319,
				"method": "rhf"
			}
		],
		"cosmo_sigma_profile": { 
			"-0.025": 0.0,
			"-0.024": 0.0,
			"-0.023": 0.0,
			"-0.022": 0.0,
			"-0.021": 0.0,
			"-0.02": 0.0,
			"-0.019": 0.0,
			"-0.018": 0.0,
			"-0.017": 0.0,
			"-0.016": 0.0,
			"-0.015": 0.0,
			"-0.014": 0.0,
			"-0.013": 0.0,
			"-0.012": 0.0,
			"-0.011": 0.0,
			"-0.01": 0.0,
			"-0.009": 0.0,
			"-0.008": 0.0343017256299,
			"-0.007": 3.84772408091,
			"-0.006": 23.475071571,
			"-0.005": 29.3108243625,
			"-0.004": 30.5323373873,
			"-0.003": 23.9683083202,
			"-0.002": 18.7454708673,
			"-0.001": 16.6771704911,
			"0.0": 18.732567981,
			"0.001": 18.2736939844,
			"0.002": 23.6415308854,
			"0.003": 33.1228158803,
			"0.004": 27.3215197629,
			"0.005": 10.4811070726,
			"0.006": 3.96677778743,
			"0.007": 3.71697532952,
			"0.008": 2.36878629052,
			"0.009": 3.52905012464,
			"0.01": 2.71385344823,
			"0.011": 2.58260858411,
			"0.012": 4.19399412987,
			"0.013": 1.91328773298,
			"0.014": 0.245148131161,
			"0.015": 0.0,
			"0.016": 0.0,
			"0.017": 0.0,
			"0.018": 0.0,
			"0.019": 0.0,
			"0.02": 0.0,
			"0.021": 0.0,
			"0.022": 0.0,
			"0.023": 0.0,
			"0.024": 0.0,
			"0.025": 0.0
		}
	}
}
