{
	 "smiles": "CN1C=NNC1=O", 
	 "Tm": 408.15, 
	 "num_atms": 12, 
	 "gaussian": { 
		 "optdone": 1, 
		 "sigma_profile": "yes", 
		 "theory": "DFT", 
		 "functional": "B3LYP", 
		 "basiset": "6-31G**", 
		 "properties": { 
			 "R2extent": 1743.7199, 
			 "electric_dipole_moment_norm": 2.86283588422, 
			 "electric_quadrupole_moment_norm": 8.27366092791, 
			 "total_energy": -356.802792586, 
			 "HOMO_LUMO_gap": 0.24031, 
			 "cosmo_polarized_energy": -13.76, 
			 "cosmo_cavitation_energy": 16.23, 
			 "cosmo_dispersion_energy": -12.3, 
			 "cosmo_repulsion_energy": 1.05, 
			 "cosmo_total_nonelectrostatic_energy": 4.98, 
			 "SMD_solvation_energy": 3.67 
		},
		"coords": [
			{
				"x": -1.0151723856,
				"y": -0.0741479936,
				"z": -0.4153171537,
				"element": "C" 
			},
			{
				"x": -1.3383121257,
				"y": -1.0324456961,
				"z": 0.6235191439,
				"element": "N" 
			},
			{
				"x": -0.6097492067,
				"y": -2.1086949144,
				"z": 1.0708865895,
				"element": "C" 
			},
			{
				"x": -1.2066945333,
				"y": -2.7588976234,
				"z": 2.0247963485,
				"element": "N" 
			},
			{
				"x": -2.3833224224,
				"y": -2.0653249655,
				"z": 2.2027206655,
				"element": "N" 
			},
			{
				"x": -2.5300670892,
				"y": -0.9795651105,
				"z": 1.3634640443,
				"element": "C" 
			},
			{
				"x": -3.4374399317,
				"y": -0.1690136367,
				"z": 1.2630491136,
				"element": "O" 
			},
			{
				"x": -1.7724161068,
				"y": -0.099078363,
				"z": -1.2036150219,
				"element": "H" 
			},
			{
				"x": -0.9802759913,
				"y": 0.9371730596,
				"z": -0.0012379071,
				"element": "H" 
			},
			{
				"x": -0.0418466983,
				"y": -0.3240834402,
				"z": -0.8411409774,
				"element": "H" 
			},
			{
				"x": 0.3560337752,
				"y": -2.3799954594,
				"z": 0.6681128392,
				"element": "H" 
			},
			{
				"x": -3.0493372843,
				"y": -2.3614258569,
				"z": 2.8971623156,
				"element": "H" 
			}
		],
		 "valence_orbital": [ 
			{
				"type": "occ",
				"energy": -0.35355,
				"method": "rhf"
			},
			{
				"type": "occ",
				"energy": -0.32643,
				"method": "rhf"
			},
			{
				"type": "occ",
				"energy": -0.30871,
				"method": "rhf"
			},
			{
				"type": "occ",
				"energy": -0.2607,
				"method": "rhf"
			},
			{
				"type": "occ",
				"energy": -0.22267,
				"method": "rhf"
			},
			{
				"type": "unocc",
				"energy": 0.01764,
				"method": "rhf"
			},
			{
				"type": "unocc",
				"energy": 0.05939,
				"method": "rhf"
			},
			{
				"type": "unocc",
				"energy": 0.08228,
				"method": "rhf"
			},
			{
				"type": "unocc",
				"energy": 0.09704,
				"method": "rhf"
			},
			{
				"type": "unocc",
				"energy": 0.11956,
				"method": "rhf"
			}
		],
		"cosmo_sigma_profile": { 
			"-0.025": 0.0,
			"-0.024": 0.0,
			"-0.023": 0.0,
			"-0.022": 0.0,
			"-0.021": 0.0,
			"-0.02": 0.0,
			"-0.019": 0.0,
			"-0.018": 0.0,
			"-0.017": 0.340002703054,
			"-0.016": 1.41879051468,
			"-0.015": 1.41035712728,
			"-0.014": 0.20150203268,
			"-0.013": 1.12494534206,
			"-0.012": 0.576032279927,
			"-0.011": 2.14047030635,
			"-0.01": 4.46660395261,
			"-0.009": 2.71468628637,
			"-0.008": 3.49138906103,
			"-0.007": 3.5424190676,
			"-0.006": 8.3865628401,
			"-0.005": 8.45711447045,
			"-0.004": 8.71933238498,
			"-0.003": 11.5808167851,
			"-0.002": 7.78111256589,
			"-0.001": 7.30532429177,
			"0.0": 5.98758561014,
			"0.001": 4.49446608864,
			"0.002": 4.50834194233,
			"0.003": 3.32521604141,
			"0.004": 2.00077279343,
			"0.005": 3.4553420392,
			"0.006": 2.79042680618,
			"0.007": 2.81209700037,
			"0.008": 2.62791912153,
			"0.009": 1.95848253793,
			"0.01": 2.22381178641,
			"0.011": 2.70367659462,
			"0.012": 2.34554320482,
			"0.013": 5.04154691429,
			"0.014": 7.99407006998,
			"0.015": 1.40800210778,
			"0.016": 0.0,
			"0.017": 0.0,
			"0.018": 0.0,
			"0.019": 0.0,
			"0.02": 0.0,
			"0.021": 0.0,
			"0.022": 0.0,
			"0.023": 0.0,
			"0.024": 0.0,
			"0.025": 0.0
		}
	}
}
