{
	 "smiles": "CN1N=C(I)C2=C1C=CC=N2", 
	 "Tm": 460.15, 
	 "num_atms": 17, 
	 "gaussian": { 
		 "optdone": 1, 
		 "sigma_profile": "yes", 
		 "theory": "DFT", 
		 "functional": "B3LYP", 
		 "basiset": "6-31G**", 
		 "properties": { 
			 "R2extent": 2198.7219, 
			 "electric_dipole_moment_norm": 5.03643614573, 
			 "electric_quadrupole_moment_norm": 7.08347338105, 
			 "total_energy": -445.9751103, 
			 "HOMO_LUMO_gap": 0.17222, 
			 "cosmo_polarized_energy": -11.68, 
			 "cosmo_cavitation_energy": 24.62, 
			 "cosmo_dispersion_energy": -19.72, 
			 "cosmo_repulsion_energy": 1.55, 
			 "cosmo_total_nonelectrostatic_energy": 6.45, 
			 "SMD_solvation_energy": 0.77 
		},
		"coords": [
			{
				"x": 0.9023489845,
				"y": -1.8029147183,
				"z": -0.9969155854,
				"element": "C" 
			},
			{
				"x": 0.1456573037,
				"y": -0.5669717288,
				"z": -0.9894838036,
				"element": "N" 
			},
			{
				"x": -1.2043407734,
				"y": -0.5966929555,
				"z": -0.7902955002,
				"element": "N" 
			},
			{
				"x": -1.6186810488,
				"y": 0.6544902518,
				"z": -0.8239601144,
				"element": "C" 
			},
			{
				"x": -3.6275157863,
				"y": 1.1465662167,
				"z": -0.5710537117,
				"element": "I" 
			},
			{
				"x": -0.5337868201,
				"y": 1.5608446018,
				"z": -1.0491253425,
				"element": "C" 
			},
			{
				"x": 0.5989028813,
				"y": 0.7108495871,
				"z": -1.1494736902,
				"element": "C" 
			},
			{
				"x": 1.8673411266,
				"y": 1.2651746461,
				"z": -1.3740149394,
				"element": "C" 
			},
			{
				"x": 1.9049398586,
				"y": 2.6462801667,
				"z": -1.4831067443,
				"element": "C" 
			},
			{
				"x": 0.7170975844,
				"y": 3.4104739922,
				"z": -1.3689399402,
				"element": "C" 
			},
			{
				"x": -0.489389755,
				"y": 2.897326321,
				"z": -1.1560184352,
				"element": "N" 
			},
			{
				"x": 1.4291617728,
				"y": -1.9308844956,
				"z": -1.9483344368,
				"element": "H" 
			},
			{
				"x": 0.1908354666,
				"y": -2.6175811345,
				"z": -0.8673618988,
				"element": "H" 
			},
			{
				"x": 1.6286712993,
				"y": -1.8235295896,
				"z": -0.1773285671,
				"element": "H" 
			},
			{
				"x": 2.763373621,
				"y": 0.6580415383,
				"z": -1.4573994534,
				"element": "H" 
			},
			{
				"x": 2.8465497336,
				"y": 3.1570209325,
				"z": -1.6572008341,
				"element": "H" 
			},
			{
				"x": 0.7709345512,
				"y": 4.4935063679,
				"z": -1.4579870027,
				"element": "H" 
			}
		],
		 "valence_orbital": [ 
			{
				"type": "occ",
				"energy": -0.27921,
				"method": "rhf"
			},
			{
				"type": "occ",
				"energy": -0.2662,
				"method": "rhf"
			},
			{
				"type": "occ",
				"energy": -0.26163,
				"method": "rhf"
			},
			{
				"type": "occ",
				"energy": -0.25878,
				"method": "rhf"
			},
			{
				"type": "occ",
				"energy": -0.228,
				"method": "rhf"
			},
			{
				"type": "unocc",
				"energy": -0.05578,
				"method": "rhf"
			},
			{
				"type": "unocc",
				"energy": -0.02767,
				"method": "rhf"
			},
			{
				"type": "unocc",
				"energy": -0.00308,
				"method": "rhf"
			},
			{
				"type": "unocc",
				"energy": 0.03669,
				"method": "rhf"
			},
			{
				"type": "unocc",
				"energy": 0.05941,
				"method": "rhf"
			}
		],
		"cosmo_sigma_profile": { 
			"-0.025": 0.0,
			"-0.024": 0.0,
			"-0.023": 0.0,
			"-0.022": 0.0,
			"-0.021": 0.0,
			"-0.02": 0.0,
			"-0.019": 0.0,
			"-0.018": 0.0,
			"-0.017": 0.0,
			"-0.016": 0.0,
			"-0.015": 0.0,
			"-0.014": 0.0,
			"-0.013": 0.0,
			"-0.012": 0.0,
			"-0.011": 0.0,
			"-0.01": 0.0,
			"-0.009": 0.271306179201,
			"-0.008": 3.34595641361,
			"-0.007": 12.0293627572,
			"-0.006": 17.6475305622,
			"-0.005": 14.1082428596,
			"-0.004": 13.39807942,
			"-0.003": 12.4703481914,
			"-0.002": 8.73248797726,
			"-0.001": 10.1589557778,
			"0.0": 15.212154504,
			"0.001": 18.2517699271,
			"0.002": 17.5046069404,
			"0.003": 14.2428894971,
			"0.004": 17.49444185,
			"0.005": 5.7057730843,
			"0.006": 4.75248225976,
			"0.007": 2.56322329174,
			"0.008": 3.24009677781,
			"0.009": 2.20589215565,
			"0.01": 2.80386253742,
			"0.011": 2.04733615154,
			"0.012": 1.4405414437,
			"0.013": 1.67921242498,
			"0.014": 1.179865563,
			"0.015": 0.699383995091,
			"0.016": 0.219998093195,
			"0.017": 0.0,
			"0.018": 0.0,
			"0.019": 0.0,
			"0.02": 0.0,
			"0.021": 0.0,
			"0.022": 0.0,
			"0.023": 0.0,
			"0.024": 0.0,
			"0.025": 0.0
		}
	}
}
