{
	 "smiles": "CSC1=CC=C(I)C=C1", 
	 "Tm": 314.15, 
	 "num_atms": 16, 
	 "gaussian": { 
		 "optdone": 1, 
		 "sigma_profile": "no", 
		 "theory": "DFT", 
		 "functional": "B3LYP", 
		 "basiset": "6-31G**", 
		 "properties": { 
			 "R2extent": 1892.8113, 
			 "electric_dipole_moment_norm": 2.35471098227, 
			 "electric_quadrupole_moment_norm": 12.2438390605, 
			 "total_energy": -680.535855437, 
			 "HOMO_LUMO_gap": 0.1764, 
			 "cosmo_polarized_energy": -104529.6, 
			 "cosmo_cavitation_energy": 24.37, 
			 "cosmo_dispersion_energy": -20.03, 
			 "cosmo_repulsion_energy": 1.54, 
			 "cosmo_total_nonelectrostatic_energy": 5.89, 
			 "SMD_solvation_energy": 3.26 
		},
		"coords": [
			{
				"x": -1.7206659564,
				"y": -2.6974815615,
				"z": -1.2438920934,
				"element": "C" 
			},
			{
				"x": -1.6265172561,
				"y": -0.8792703336,
				"z": -1.2099425244,
				"element": "S" 
			},
			{
				"x": -0.3098979759,
				"y": -0.5502753398,
				"z": -0.0571719574,
				"element": "C" 
			},
			{
				"x": 0.4213878851,
				"y": -1.5359308271,
				"z": 0.6170979064,
				"element": "C" 
			},
			{
				"x": 1.4398337771,
				"y": -1.1817937722,
				"z": 1.5059983917,
				"element": "C" 
			},
			{
				"x": 1.7320790264,
				"y": 0.1626552159,
				"z": 1.7250669967,
				"element": "C" 
			},
			{
				"x": 3.2770649075,
				"y": 0.7013376663,
				"z": 3.073700413,
				"element": "I" 
			},
			{
				"x": 1.0118944354,
				"y": 1.1591167508,
				"z": 1.0603725364,
				"element": "C" 
			},
			{
				"x": -0.0011547185,
				"y": 0.8004028321,
				"z": 0.1762780657,
				"element": "C" 
			},
			{
				"x": -1.9780735373,
				"y": -3.1051751779,
				"z": -0.2635339915,
				"element": "H" 
			},
			{
				"x": -2.522503079,
				"y": -2.9348522357,
				"z": -1.9459596115,
				"element": "H" 
			},
			{
				"x": -0.7908571934,
				"y": -3.1413993893,
				"z": -1.6072006375,
				"element": "H" 
			},
			{
				"x": 0.2129109249,
				"y": -2.5884043761,
				"z": 0.4636997679,
				"element": "H" 
			},
			{
				"x": 1.9955090997,
				"y": -1.958879371,
				"z": 2.0191838779,
				"element": "H" 
			},
			{
				"x": 1.2349326208,
				"y": 2.2070719038,
				"z": 1.2268910843,
				"element": "H" 
			},
			{
				"x": -0.5573429603,
				"y": 1.5795780152,
				"z": -0.3374882243,
				"element": "H" 
			}
		],
		 "valence_orbital": [ 
			{
				"type": "occ",
				"energy": -0.31514,
				"method": "rhf"
			},
			{
				"type": "occ",
				"energy": -0.26733,
				"method": "rhf"
			},
			{
				"type": "occ",
				"energy": -0.26693,
				"method": "rhf"
			},
			{
				"type": "occ",
				"energy": -0.26144,
				"method": "rhf"
			},
			{
				"type": "occ",
				"energy": -0.21363,
				"method": "rhf"
			},
			{
				"type": "unocc",
				"energy": -0.03723,
				"method": "rhf"
			},
			{
				"type": "unocc",
				"energy": -0.01801,
				"method": "rhf"
			},
			{
				"type": "unocc",
				"energy": -0.01596,
				"method": "rhf"
			},
			{
				"type": "unocc",
				"energy": 0.02919,
				"method": "rhf"
			},
			{
				"type": "unocc",
				"energy": 0.04356,
				"method": "rhf"
			}
		],
		"cosmo_sigma_profile": { 
			"0.0": 0.0,
			"0.0": 0.0,
			"0.0": 0.0,
			"0.0": 0.0,
			"0.0": 0.0,
			"0.0": 0.0,
			"0.0": 0.0,
			"0.0": 0.0,
			"0.0": 0.0,
			"0.0": 0.0,
			"0.0": 0.0,
			"0.0": 0.0,
			"0.0": 0.0,
			"0.0": 0.0,
			"0.0": 0.0,
			"0.0": 0.0,
			"0.0": 0.0,
			"0.0": 0.0,
			"0.0": 0.0,
			"0.0": 0.0,
			"0.0": 0.0,
			"0.0": 0.0,
			"0.0": 0.0,
			"0.0": 0.0,
			"0.0": 0.0,
			"0.0": 0.0,
			"0.0": 0.0,
			"0.0": 0.0,
			"0.0": 0.0,
			"0.0": 0.0,
			"0.0": 0.0,
			"0.0": 0.0,
			"0.0": 0.0,
			"0.0": 0.0,
			"0.0": 0.0,
			"0.0": 0.0,
			"0.0": 0.0,
			"0.0": 0.0,
			"0.0": 0.0,
			"0.0": 0.0,
			"0.0": 0.0,
			"0.0": 0.0,
			"0.0": 0.0,
			"0.0": 0.0,
			"0.0": 0.0,
			"0.0": 0.0,
			"0.0": 0.0,
			"0.0": 0.0,
			"0.0": 0.0,
			"0.0": 0.0,
			"0.0": 0.0
		}
	}
}
