{
	 "smiles": "CC1=CC=C(C=C(/OC2=CC=CC=C2)C2=NC3=CC=CC=C3S2)C=C1", 
	 "Tm": 436.15, 
	 "num_atms": 42, 
	 "gaussian": { 
		 "optdone": 1, 
		 "sigma_profile": "yes", 
		 "theory": "DFT", 
		 "functional": "B3LYP", 
		 "basiset": "6-31G**", 
		 "properties": { 
			 "R2extent": 12047.9739, 
			 "electric_dipole_moment_norm": 1.35719182874, 
			 "electric_quadrupole_moment_norm": 16.2180724502, 
			 "total_energy": -1376.74658468, 
			 "HOMO_LUMO_gap": 0.13851, 
			 "cosmo_polarized_energy": -11.64, 
			 "cosmo_cavitation_energy": 48.27, 
			 "cosmo_dispersion_energy": -33.68, 
			 "cosmo_repulsion_energy": 2.52, 
			 "cosmo_total_nonelectrostatic_energy": 17.12, 
			 "SMD_solvation_energy": 6.32 
		},
		"coords": [
			{
				"x": -5.1317666547,
				"y": 4.0820507922,
				"z": 2.2826054047,
				"element": "C" 
			},
			{
				"x": -3.8764447017,
				"y": 3.2460327167,
				"z": 2.2276899284,
				"element": "C" 
			},
			{
				"x": -3.8791483047,
				"y": 1.9783369053,
				"z": 1.6253470456,
				"element": "C" 
			},
			{
				"x": -2.727185875,
				"y": 1.2049318221,
				"z": 1.5424763826,
				"element": "C" 
			},
			{
				"x": -1.5049176625,
				"y": 1.6771744898,
				"z": 2.0680071598,
				"element": "C" 
			},
			{
				"x": -0.240410096,
				"y": 0.9507176348,
				"z": 2.0278878842,
				"element": "C" 
			},
			{
				"x": 0.079948686,
				"y": -0.233285141,
				"z": 1.4530457871,
				"element": "C" 
			},
			{
				"x": -0.8827704718,
				"y": -1.0274041968,
				"z": 0.8713428865,
				"element": "O" 
			},
			{
				"x": -0.7730727847,
				"y": -1.3811010247,
				"z": -0.4657854194,
				"element": "C" 
			},
			{
				"x": -0.0982964164,
				"y": -0.5981049313,
				"z": -1.4030714715,
				"element": "C" 
			},
			{
				"x": -0.0921348782,
				"y": -0.9968766157,
				"z": -2.7411324041,
				"element": "C" 
			},
			{
				"x": -0.7601672336,
				"y": -2.1544601666,
				"z": -3.1423888912,
				"element": "C" 
			},
			{
				"x": -1.4393044597,
				"y": -2.9211988102,
				"z": -2.1915042784,
				"element": "C" 
			},
			{
				"x": -1.4472659338,
				"y": -2.5407027581,
				"z": -0.8510809201,
				"element": "C" 
			},
			{
				"x": 1.4231045749,
				"y": -0.8200208168,
				"z": 1.5208751527,
				"element": "C" 
			},
			{
				"x": 1.67504573,
				"y": -2.0636754036,
				"z": 1.2485918762,
				"element": "N" 
			},
			{
				"x": 3.0162281422,
				"y": -2.357062431,
				"z": 1.397717222,
				"element": "C" 
			},
			{
				"x": 3.5922560334,
				"y": -3.6192116682,
				"z": 1.1848512935,
				"element": "C" 
			},
			{
				"x": 4.9589519933,
				"y": -3.7771665247,
				"z": 1.3778449047,
				"element": "C" 
			},
			{
				"x": 5.7608351197,
				"y": -2.6948728213,
				"z": 1.7809722417,
				"element": "C" 
			},
			{
				"x": 5.2101464182,
				"y": -1.4336722538,
				"z": 1.9988032176,
				"element": "C" 
			},
			{
				"x": 3.8367810391,
				"y": -1.2741101179,
				"z": 1.8032600154,
				"element": "C" 
			},
			{
				"x": 2.8513850029,
				"y": 0.1632945488,
				"z": 1.977910155,
				"element": "S" 
			},
			{
				"x": -1.5090624423,
				"y": 2.9459061868,
				"z": 2.6822130543,
				"element": "C" 
			},
			{
				"x": -2.6671626424,
				"y": 3.7124235078,
				"z": 2.7585534381,
				"element": "C" 
			},
			{
				"x": -5.06090982,
				"y": 4.8624437586,
				"z": 3.0456789743,
				"element": "H" 
			},
			{
				"x": -5.3190415789,
				"y": 4.5784536141,
				"z": 1.3219246821,
				"element": "H" 
			},
			{
				"x": -6.0115820908,
				"y": 3.4691734038,
				"z": 2.5039037447,
				"element": "H" 
			},
			{
				"x": -4.8074586044,
				"y": 1.5870028685,
				"z": 1.2156774073,
				"element": "H" 
			},
			{
				"x": -2.7689428391,
				"y": 0.2264448913,
				"z": 1.0835479953,
				"element": "H" 
			},
			{
				"x": 0.5716011376,
				"y": 1.439084919,
				"z": 2.5613465787,
				"element": "H" 
			},
			{
				"x": 0.4070486535,
				"y": 0.3101661192,
				"z": -1.0923012547,
				"element": "H" 
			},
			{
				"x": 0.4348926726,
				"y": -0.3907115323,
				"z": -3.472512393,
				"element": "H" 
			},
			{
				"x": -0.7526328858,
				"y": -2.4566515959,
				"z": -4.185117494,
				"element": "H" 
			},
			{
				"x": -1.9618377727,
				"y": -3.8248161577,
				"z": -2.4922672785,
				"element": "H" 
			},
			{
				"x": -1.9579417151,
				"y": -3.1271932961,
				"z": -0.0947213586,
				"element": "H" 
			},
			{
				"x": 2.9586601334,
				"y": -4.4435387673,
				"z": 0.8751152634,
				"element": "H" 
			},
			{
				"x": 5.4159397458,
				"y": -4.7487382598,
				"z": 1.2160661538,
				"element": "H" 
			},
			{
				"x": 6.8270322488,
				"y": -2.8415975444,
				"z": 1.9256398295,
				"element": "H" 
			},
			{
				"x": 5.833989243,
				"y": -0.602174374,
				"z": 2.3105570004,
				"element": "H" 
			},
			{
				"x": -0.5850253226,
				"y": 3.3321797908,
				"z": 3.105481122,
				"element": "H" 
			},
			{
				"x": -2.6332633878,
				"y": 4.6866292395,
				"z": 3.2399493621,
				"element": "H" 
			}
		],
		 "valence_orbital": [ 
			{
				"type": "occ",
				"energy": -0.2509,
				"method": "rhf"
			},
			{
				"type": "occ",
				"energy": -0.24662,
				"method": "rhf"
			},
			{
				"type": "occ",
				"energy": -0.23501,
				"method": "rhf"
			},
			{
				"type": "occ",
				"energy": -0.22345,
				"method": "rhf"
			},
			{
				"type": "occ",
				"energy": -0.20604,
				"method": "rhf"
			},
			{
				"type": "unocc",
				"energy": -0.06753,
				"method": "rhf"
			},
			{
				"type": "unocc",
				"energy": -0.00704,
				"method": "rhf"
			},
			{
				"type": "unocc",
				"energy": -0.00465,
				"method": "rhf"
			},
			{
				"type": "unocc",
				"energy": -0.00113,
				"method": "rhf"
			},
			{
				"type": "unocc",
				"energy": 0.00248,
				"method": "rhf"
			}
		],
		"cosmo_sigma_profile": { 
			"-0.025": 0.0,
			"-0.024": 0.0,
			"-0.023": 0.0,
			"-0.022": 0.0,
			"-0.021": 0.0,
			"-0.02": 0.0,
			"-0.019": 0.0,
			"-0.018": 0.0,
			"-0.017": 0.0,
			"-0.016": 0.0,
			"-0.015": 0.0,
			"-0.014": 0.0,
			"-0.013": 0.0,
			"-0.012": 0.0,
			"-0.011": 0.0,
			"-0.01": 0.0,
			"-0.009": 0.0,
			"-0.008": 1.48957476461,
			"-0.007": 6.24899108355,
			"-0.006": 19.1036178402,
			"-0.005": 28.2231899167,
			"-0.004": 36.2453601069,
			"-0.003": 28.8972489372,
			"-0.002": 28.0133255689,
			"-0.001": 31.4220232342,
			"0.0": 33.6462247275,
			"0.001": 30.4421602066,
			"0.002": 32.5077084192,
			"0.003": 34.6183119674,
			"0.004": 30.7464664401,
			"0.005": 26.2283644201,
			"0.006": 9.41135995883,
			"0.007": 2.87335140424,
			"0.008": 3.23948208488,
			"0.009": 1.73696105778,
			"0.01": 1.33933313913,
			"0.011": 1.87398251388,
			"0.012": 1.16693109797,
			"0.013": 0.603359188201,
			"0.014": 0.0518871679111,
			"0.015": 0.0,
			"0.016": 0.0,
			"0.017": 0.0,
			"0.018": 0.0,
			"0.019": 0.0,
			"0.02": 0.0,
			"0.021": 0.0,
			"0.022": 0.0,
			"0.023": 0.0,
			"0.024": 0.0,
			"0.025": 0.0
		}
	}
}
