{
	 "smiles": "CN1N=C(C=O)C=C1C1=CC=CS1", 
	 "Tm": 350.15, 
	 "num_atms": 21, 
	 "gaussian": { 
		 "optdone": 1, 
		 "sigma_profile": "yes", 
		 "theory": "DFT", 
		 "functional": "B3LYP", 
		 "basiset": "6-31G**", 
		 "properties": { 
			 "R2extent": 3205.1314, 
			 "electric_dipole_moment_norm": 5.35805903756, 
			 "electric_quadrupole_moment_norm": 10.3922882586, 
			 "total_energy": -930.649879051, 
			 "HOMO_LUMO_gap": 0.18305, 
			 "cosmo_polarized_energy": -11.0, 
			 "cosmo_cavitation_energy": 27.6, 
			 "cosmo_dispersion_energy": -20.34, 
			 "cosmo_repulsion_energy": 1.55, 
			 "cosmo_total_nonelectrostatic_energy": 8.82, 
			 "SMD_solvation_energy": 4.87 
		},
		"coords": [
			{
				"x": -2.5852464322,
				"y": -0.6629007398,
				"z": -0.13391465,
				"element": "C" 
			},
			{
				"x": -1.4299739328,
				"y": 0.0933910673,
				"z": 0.3271918608,
				"element": "N" 
			},
			{
				"x": -1.6286761731,
				"y": 1.2913150878,
				"z": 0.8899251677,
				"element": "N" 
			},
			{
				"x": -0.4018307186,
				"y": 1.749208577,
				"z": 1.1844404526,
				"element": "C" 
			},
			{
				"x": -0.2479511336,
				"y": 3.0610757016,
				"z": 1.8228463668,
				"element": "C" 
			},
			{
				"x": 0.8271754025,
				"y": 3.5501741377,
				"z": 2.1188981659,
				"element": "O" 
			},
			{
				"x": 0.5966344361,
				"y": 0.8259707627,
				"z": 0.8091277227,
				"element": "C" 
			},
			{
				"x": -0.0912077788,
				"y": -0.2423718497,
				"z": 0.2550092084,
				"element": "C" 
			},
			{
				"x": 0.4424707081,
				"y": -1.4664863223,
				"z": -0.3284687817,
				"element": "C" 
			},
			{
				"x": 1.6007361747,
				"y": -1.5725258846,
				"z": -1.0656547256,
				"element": "C" 
			},
			{
				"x": 1.9232093598,
				"y": -2.9104561743,
				"z": -1.4308945962,
				"element": "C" 
			},
			{
				"x": 1.0117890261,
				"y": -3.8202841789,
				"z": -0.9697984591,
				"element": "C" 
			},
			{
				"x": -0.2545292216,
				"y": -3.0561132264,
				"z": -0.0680491954,
				"element": "S" 
			},
			{
				"x": -3.4154956455,
				"y": 0.0380122466,
				"z": -0.2096745726,
				"element": "H" 
			},
			{
				"x": -2.8472839598,
				"y": -1.4577618361,
				"z": 0.5710512081,
				"element": "H" 
			},
			{
				"x": -2.3790702169,
				"y": -1.1040361571,
				"z": -1.1109307469,
				"element": "H" 
			},
			{
				"x": -1.2074378065,
				"y": 3.5837816785,
				"z": 2.0189072165,
				"element": "H" 
			},
			{
				"x": 1.6623530687,
				"y": 0.9197172147,
				"z": 0.9472321336,
				"element": "H" 
			},
			{
				"x": 2.1905548837,
				"y": -0.7074529765,
				"z": -1.3457825321,
				"element": "H" 
			},
			{
				"x": 2.7904731367,
				"y": -3.1819849769,
				"z": -2.0214992427,
				"element": "H" 
			},
			{
				"x": 0.998206823,
				"y": -4.8919721513,
				"z": -1.1119620007,
				"element": "H" 
			}
		],
		 "valence_orbital": [ 
			{
				"type": "occ",
				"energy": -0.28482,
				"method": "rhf"
			},
			{
				"type": "occ",
				"energy": -0.26675,
				"method": "rhf"
			},
			{
				"type": "occ",
				"energy": -0.26102,
				"method": "rhf"
			},
			{
				"type": "occ",
				"energy": -0.24785,
				"method": "rhf"
			},
			{
				"type": "occ",
				"energy": -0.22876,
				"method": "rhf"
			},
			{
				"type": "unocc",
				"energy": -0.04571,
				"method": "rhf"
			},
			{
				"type": "unocc",
				"energy": -0.04201,
				"method": "rhf"
			},
			{
				"type": "unocc",
				"energy": 0.01119,
				"method": "rhf"
			},
			{
				"type": "unocc",
				"energy": 0.02192,
				"method": "rhf"
			},
			{
				"type": "unocc",
				"energy": 0.05441,
				"method": "rhf"
			}
		],
		"cosmo_sigma_profile": { 
			"-0.025": 0.0,
			"-0.024": 0.0,
			"-0.023": 0.0,
			"-0.022": 0.0,
			"-0.021": 0.0,
			"-0.02": 0.0,
			"-0.019": 0.0,
			"-0.018": 0.0,
			"-0.017": 0.0,
			"-0.016": 0.0,
			"-0.015": 0.0,
			"-0.014": 0.0,
			"-0.013": 0.0,
			"-0.012": 0.0,
			"-0.011": 0.0,
			"-0.01": 0.0,
			"-0.009": 1.20802346936,
			"-0.008": 2.84756219502,
			"-0.007": 10.5486270785,
			"-0.006": 15.3300017236,
			"-0.005": 17.5955248577,
			"-0.004": 18.9962898283,
			"-0.003": 18.2646385445,
			"-0.002": 11.8484880579,
			"-0.001": 12.037527263,
			"0.0": 14.1612375486,
			"0.001": 17.3277003493,
			"0.002": 18.8672872282,
			"0.003": 18.522031698,
			"0.004": 13.646664769,
			"0.005": 5.99898198173,
			"0.006": 3.12951148032,
			"0.007": 2.56385286637,
			"0.008": 3.1666622342,
			"0.009": 2.70340282538,
			"0.01": 3.61110013792,
			"0.011": 4.71299842223,
			"0.012": 4.5462061716,
			"0.013": 1.9792694677,
			"0.014": 0.161131043522,
			"0.015": 0.0,
			"0.016": 0.0,
			"0.017": 0.0,
			"0.018": 0.0,
			"0.019": 0.0,
			"0.02": 0.0,
			"0.021": 0.0,
			"0.022": 0.0,
			"0.023": 0.0,
			"0.024": 0.0,
			"0.025": 0.0
		}
	}
}
