{
	 "smiles": "O=C1C(=C1C1=CC=CC=C1)C1=CC=CC=C1", 
	 "Tm": 393.15, 
	 "num_atms": 26, 
	 "gaussian": { 
		 "optdone": 1, 
		 "sigma_profile": "yes", 
		 "theory": "DFT", 
		 "functional": "B3LYP", 
		 "basiset": "6-31G**", 
		 "properties": { 
			 "R2extent": 4516.3191, 
			 "electric_dipole_moment_norm": 4.98560054958, 
			 "electric_quadrupole_moment_norm": 18.6009706201, 
			 "total_energy": -652.781190218, 
			 "HOMO_LUMO_gap": 0.14211, 
			 "cosmo_polarized_energy": -13.02, 
			 "cosmo_cavitation_energy": 31.96, 
			 "cosmo_dispersion_energy": -22.57, 
			 "cosmo_repulsion_energy": 1.74, 
			 "cosmo_total_nonelectrostatic_energy": 11.12, 
			 "SMD_solvation_energy": 5.54 
		},
		"coords": [
			{
				"x": 0.7957809388,
				"y": -2.7563344942,
				"z": -1.7480480275,
				"element": "O" 
			},
			{
				"x": 0.4720878197,
				"y": -1.7463610501,
				"z": -1.15062788,
				"element": "C" 
			},
			{
				"x": 0.5411856375,
				"y": -0.8837845646,
				"z": -0.0095801624,
				"element": "C" 
			},
			{
				"x": -0.2656392044,
				"y": -0.5225520638,
				"z": -1.0572750335,
				"element": "C" 
			},
			{
				"x": -1.2040138978,
				"y": 0.413634453,
				"z": -1.6392910738,
				"element": "C" 
			},
			{
				"x": -1.6125917919,
				"y": 0.2132603198,
				"z": -2.9715887102,
				"element": "C" 
			},
			{
				"x": -2.5135016018,
				"y": 1.0902470732,
				"z": -3.5696393363,
				"element": "C" 
			},
			{
				"x": -3.0243676391,
				"y": 2.1705789503,
				"z": -2.8451798524,
				"element": "C" 
			},
			{
				"x": -2.633095937,
				"y": 2.3723295732,
				"z": -1.5180356534,
				"element": "C" 
			},
			{
				"x": -1.7277968016,
				"y": 1.502219667,
				"z": -0.9174494837,
				"element": "C" 
			},
			{
				"x": 1.0848525529,
				"y": -0.5909263652,
				"z": 1.2997829616,
				"element": "C" 
			},
			{
				"x": 0.8654019654,
				"y": 0.6383662642,
				"z": 1.9487211953,
				"element": "C" 
			},
			{
				"x": 1.4143245766,
				"y": 0.8765529716,
				"z": 3.2054232174,
				"element": "C" 
			},
			{
				"x": 2.1850071915,
				"y": -0.1077390276,
				"z": 3.8317847913,
				"element": "C" 
			},
			{
				"x": 2.4126710711,
				"y": -1.3303025238,
				"z": 3.1942639069,
				"element": "C" 
			},
			{
				"x": 1.8711445872,
				"y": -1.5712435276,
				"z": 1.9344550144,
				"element": "C" 
			},
			{
				"x": -1.2121804394,
				"y": -0.6326884173,
				"z": -3.5217484345,
				"element": "H" 
			},
			{
				"x": -2.8206744568,
				"y": 0.9310379541,
				"z": -4.5989285637,
				"element": "H" 
			},
			{
				"x": -3.7287941731,
				"y": 2.8528827109,
				"z": -3.3120248285,
				"element": "H" 
			},
			{
				"x": -3.0358460461,
				"y": 3.2082314079,
				"z": -0.9536314757,
				"element": "H" 
			},
			{
				"x": -1.4358964197,
				"y": 1.6497768646,
				"z": 0.1172676873,
				"element": "H" 
			},
			{
				"x": 0.2802107852,
				"y": 1.4079692965,
				"z": 1.4558756409,
				"element": "H" 
			},
			{
				"x": 1.2436093046,
				"y": 1.8289693928,
				"z": 3.6986295076,
				"element": "H" 
			},
			{
				"x": 2.609710424,
				"y": 0.0799856115,
				"z": 4.8136627933,
				"element": "H" 
			},
			{
				"x": 3.0148397073,
				"y": -2.0930688718,
				"z": 3.6787431494,
				"element": "H" 
			},
			{
				"x": 2.0445718472,
				"y": -2.5148416046,
				"z": 1.42633865,
				"element": "H" 
			}
		],
		 "valence_orbital": [ 
			{
				"type": "occ",
				"energy": -0.28076,
				"method": "rhf"
			},
			{
				"type": "occ",
				"energy": -0.26663,
				"method": "rhf"
			},
			{
				"type": "occ",
				"energy": -0.2662,
				"method": "rhf"
			},
			{
				"type": "occ",
				"energy": -0.23119,
				"method": "rhf"
			},
			{
				"type": "occ",
				"energy": -0.21459,
				"method": "rhf"
			},
			{
				"type": "unocc",
				"energy": -0.07248,
				"method": "rhf"
			},
			{
				"type": "unocc",
				"energy": -0.01963,
				"method": "rhf"
			},
			{
				"type": "unocc",
				"energy": -0.01632,
				"method": "rhf"
			},
			{
				"type": "unocc",
				"energy": -0.01448,
				"method": "rhf"
			},
			{
				"type": "unocc",
				"energy": 0.06148,
				"method": "rhf"
			}
		],
		"cosmo_sigma_profile": { 
			"-0.025": 0.0,
			"-0.024": 0.0,
			"-0.023": 0.0,
			"-0.022": 0.0,
			"-0.021": 0.0,
			"-0.02": 0.0,
			"-0.019": 0.0,
			"-0.018": 0.0,
			"-0.017": 0.0,
			"-0.016": 0.0,
			"-0.015": 0.0,
			"-0.014": 0.0,
			"-0.013": 0.0,
			"-0.012": 0.0,
			"-0.011": 0.0,
			"-0.01": 0.00174430901537,
			"-0.009": 0.20278005747,
			"-0.008": 1.83181902914,
			"-0.007": 6.80213746179,
			"-0.006": 20.9160727218,
			"-0.005": 22.1973202426,
			"-0.004": 20.1822286171,
			"-0.003": 14.9092889013,
			"-0.002": 20.3480973698,
			"-0.001": 22.6604610367,
			"0.0": 20.7805098632,
			"0.001": 19.6233219126,
			"0.002": 18.5638998007,
			"0.003": 22.982650114,
			"0.004": 21.727802658,
			"0.005": 2.74081197834,
			"0.006": 1.26984931934,
			"0.007": 0.956822646907,
			"0.008": 1.19632213912,
			"0.009": 1.50094825801,
			"0.01": 1.44631400214,
			"0.011": 1.52997616291,
			"0.012": 2.10712178798,
			"0.013": 6.50060323032,
			"0.014": 4.50730933776,
			"0.015": 1.27109399286,
			"0.016": 0.0,
			"0.017": 0.0,
			"0.018": 0.0,
			"0.019": 0.0,
			"0.02": 0.0,
			"0.021": 0.0,
			"0.022": 0.0,
			"0.023": 0.0,
			"0.024": 0.0,
			"0.025": 0.0
		}
	}
}
