{
	 "smiles": "CCOC(=O)C1=C(N)SC2=C1CCC(CC)C2", 
	 "Tm": 362.15, 
	 "num_atms": 36, 
	 "gaussian": { 
		 "optdone": 1, 
		 "sigma_profile": "yes", 
		 "theory": "DFT", 
		 "functional": "B3LYP", 
		 "basiset": "6-31G**", 
		 "properties": { 
			 "R2extent": 6098.7203, 
			 "electric_dipole_moment_norm": 1.1523622217, 
			 "electric_quadrupole_moment_norm": 9.53745028034, 
			 "total_energy": -1110.26163932, 
			 "HOMO_LUMO_gap": 0.1741, 
			 "cosmo_polarized_energy": -8.82, 
			 "cosmo_cavitation_energy": 38.3, 
			 "cosmo_dispersion_energy": -27.99, 
			 "cosmo_repulsion_energy": 2.16, 
			 "cosmo_total_nonelectrostatic_energy": 12.46, 
			 "SMD_solvation_energy": 6.13 
		},
		"coords": [
			{
				"x": 1.5735152177,
				"y": -3.7533832446,
				"z": -2.7796053665,
				"element": "C" 
			},
			{
				"x": 1.6228804025,
				"y": -2.3904869975,
				"z": -3.4450881501,
				"element": "C" 
			},
			{
				"x": 1.1787694596,
				"y": -1.4182918097,
				"z": -2.4753612905,
				"element": "O" 
			},
			{
				"x": 1.1652316832,
				"y": -0.1292555506,
				"z": -2.8950333351,
				"element": "C" 
			},
			{
				"x": 1.5111213657,
				"y": 0.1735743896,
				"z": -4.0390206021,
				"element": "O" 
			},
			{
				"x": 0.6998210388,
				"y": 0.8193264845,
				"z": -1.8925495561,
				"element": "C" 
			},
			{
				"x": 0.5845213822,
				"y": 2.1671266393,
				"z": -2.2418098217,
				"element": "C" 
			},
			{
				"x": 0.96282987,
				"y": 2.750481626,
				"z": -3.4098595615,
				"element": "N" 
			},
			{
				"x": -0.0689883004,
				"y": 3.1147991794,
				"z": -0.9262450306,
				"element": "S" 
			},
			{
				"x": -0.1923916034,
				"y": 1.6832301023,
				"z": 0.1045299501,
				"element": "C" 
			},
			{
				"x": 0.2578871813,
				"y": 0.5660877972,
				"z": -0.5284504159,
				"element": "C" 
			},
			{
				"x": 0.254551305,
				"y": -0.7673715208,
				"z": 0.1832400609,
				"element": "C" 
			},
			{
				"x": 0.0334701728,
				"y": -0.6081806144,
				"z": 1.6961544448,
				"element": "C" 
			},
			{
				"x": -1.1035096254,
				"y": 0.3712316897,
				"z": 2.0336443615,
				"element": "C" 
			},
			{
				"x": -1.412378529,
				"y": 0.3814258071,
				"z": 3.5406233319,
				"element": "C" 
			},
			{
				"x": -2.6044972448,
				"y": 1.2548709428,
				"z": 3.9488813877,
				"element": "C" 
			},
			{
				"x": -0.7448176523,
				"y": 1.7743812896,
				"z": 1.4988037448,
				"element": "C" 
			},
			{
				"x": 1.8991766362,
				"y": -4.5233964321,
				"z": -3.4861087566,
				"element": "H" 
			},
			{
				"x": 2.2320741045,
				"y": -3.7879942287,
				"z": -1.9067720783,
				"element": "H" 
			},
			{
				"x": 0.5573181702,
				"y": -3.9936507929,
				"z": -2.4536730587,
				"element": "H" 
			},
			{
				"x": 0.972036825,
				"y": -2.3405651664,
				"z": -4.3238965177,
				"element": "H" 
			},
			{
				"x": 2.6342096195,
				"y": -2.13107648,
				"z": -3.773962393,
				"element": "H" 
			},
			{
				"x": 1.2137114111,
				"y": 2.0834047151,
				"z": -4.1357517362,
				"element": "H" 
			},
			{
				"x": 0.5540295804,
				"y": 3.6323716005,
				"z": -3.6757223704,
				"element": "H" 
			},
			{
				"x": 1.1948338184,
				"y": -1.2926138938,
				"z": -0.0062192277,
				"element": "H" 
			},
			{
				"x": -0.5266191538,
				"y": -1.4081604317,
				"z": -0.2483912679,
				"element": "H" 
			},
			{
				"x": 0.9598389007,
				"y": -0.2456709706,
				"z": 2.1637073453,
				"element": "H" 
			},
			{
				"x": -0.1750413728,
				"y": -1.5900528066,
				"z": 2.1381732633,
				"element": "H" 
			},
			{
				"x": -2.0070385354,
				"y": 0.0343847754,
				"z": 1.50208208,
				"element": "H" 
			},
			{
				"x": -1.6021876039,
				"y": -0.6519394517,
				"z": 3.8596464279,
				"element": "H" 
			},
			{
				"x": -0.515102607,
				"y": 0.7064125589,
				"z": 4.0864759912,
				"element": "H" 
			},
			{
				"x": -2.426965857,
				"y": 2.3152059995,
				"z": 3.7420682407,
				"element": "H" 
			},
			{
				"x": -2.8086447632,
				"y": 1.1618672339,
				"z": 5.0205189087,
				"element": "H" 
			},
			{
				"x": -3.5134626945,
				"y": 0.9598561299,
				"z": 3.4117334276,
				"element": "H" 
			},
			{
				"x": -0.0118532851,
				"y": 2.2434012655,
				"z": 2.1746471313,
				"element": "H" 
			},
			{
				"x": -1.629529317,
				"y": 2.4226501658,
				"z": 1.5146904389,
				"element": "H" 
			}
		],
		 "valence_orbital": [ 
			{
				"type": "occ",
				"energy": -0.29456,
				"method": "rhf"
			},
			{
				"type": "occ",
				"energy": -0.28901,
				"method": "rhf"
			},
			{
				"type": "occ",
				"energy": -0.26523,
				"method": "rhf"
			},
			{
				"type": "occ",
				"energy": -0.2401,
				"method": "rhf"
			},
			{
				"type": "occ",
				"energy": -0.18666,
				"method": "rhf"
			},
			{
				"type": "unocc",
				"energy": -0.01256,
				"method": "rhf"
			},
			{
				"type": "unocc",
				"energy": 0.01702,
				"method": "rhf"
			},
			{
				"type": "unocc",
				"energy": 0.0255,
				"method": "rhf"
			},
			{
				"type": "unocc",
				"energy": 0.08728,
				"method": "rhf"
			},
			{
				"type": "unocc",
				"energy": 0.09672,
				"method": "rhf"
			}
		],
		"cosmo_sigma_profile": { 
			"-0.025": 0.0,
			"-0.024": 0.0,
			"-0.023": 0.0,
			"-0.022": 0.0,
			"-0.021": 0.0,
			"-0.02": 0.0,
			"-0.019": 0.0,
			"-0.018": 0.0,
			"-0.017": 0.0,
			"-0.016": 0.0,
			"-0.015": 0.155852165127,
			"-0.014": 1.43052460454,
			"-0.013": 1.07647935467,
			"-0.012": 1.49869189033,
			"-0.011": 1.1901951372,
			"-0.01": 1.66948252987,
			"-0.009": 2.15100567824,
			"-0.008": 1.74176067864,
			"-0.007": 1.17542477724,
			"-0.006": 1.74870876296,
			"-0.005": 4.17456094352,
			"-0.004": 13.7988512227,
			"-0.003": 24.662353273,
			"-0.002": 42.9860608514,
			"-0.001": 44.4289609073,
			"0.0": 39.6671676795,
			"0.001": 31.2129242038,
			"0.002": 21.7273631142,
			"0.003": 16.8531215341,
			"0.004": 15.6229227356,
			"0.005": 12.7956620139,
			"0.006": 5.44528893052,
			"0.007": 2.6650641197,
			"0.008": 2.18330204798,
			"0.009": 1.91565366356,
			"0.01": 2.00838398216,
			"0.011": 1.40014380819,
			"0.012": 2.3043411407,
			"0.013": 1.12530738288,
			"0.014": 0.0591005175028,
			"0.015": 0.0,
			"0.016": 0.0,
			"0.017": 0.0,
			"0.018": 0.0,
			"0.019": 0.0,
			"0.02": 0.0,
			"0.021": 0.0,
			"0.022": 0.0,
			"0.023": 0.0,
			"0.024": 0.0,
			"0.025": 0.0
		}
	}
}
