{
	 "smiles": "COC(=O)C#CC1=CC(=CC=C1)C#CC(=O)OC", 
	 "Tm": 366.15, 
	 "num_atms": 28, 
	 "gaussian": { 
		 "optdone": 1, 
		 "sigma_profile": "yes", 
		 "theory": "DFT", 
		 "functional": "B3LYP", 
		 "basiset": "6-31G**", 
		 "properties": { 
			 "R2extent": 9596.1551, 
			 "electric_dipole_moment_norm": 2.23254971053, 
			 "electric_quadrupole_moment_norm": 23.7689443342, 
			 "total_energy": -840.289024014, 
			 "HOMO_LUMO_gap": 0.17379, 
			 "cosmo_polarized_energy": -14.04, 
			 "cosmo_cavitation_energy": 37.72, 
			 "cosmo_dispersion_energy": -26.44, 
			 "cosmo_repulsion_energy": 2.12, 
			 "cosmo_total_nonelectrostatic_energy": 13.39, 
			 "SMD_solvation_energy": 10.49 
		},
		"coords": [
			{
				"x": -0.2319344837,
				"y": -5.7364160425,
				"z": 3.9898622979,
				"element": "C" 
			},
			{
				"x": -0.227850485,
				"y": -5.0225721713,
				"z": 2.7411067581,
				"element": "O" 
			},
			{
				"x": -0.0152230737,
				"y": -3.6933899911,
				"z": 2.8492069013,
				"element": "C" 
			},
			{
				"x": 0.1625490934,
				"y": -3.1092138095,
				"z": 3.898739079,
				"element": "O" 
			},
			{
				"x": -0.0269975871,
				"y": -3.0577428644,
				"z": 1.552584913,
				"element": "C" 
			},
			{
				"x": -0.0235454171,
				"y": -2.4572891169,
				"z": 0.498062513,
				"element": "C" 
			},
			{
				"x": -0.0219927173,
				"y": -1.7639363539,
				"z": -0.7477883476,
				"element": "C" 
			},
			{
				"x": 0.18705121,
				"y": -0.3755579547,
				"z": -0.782645676,
				"element": "C" 
			},
			{
				"x": 0.1893073985,
				"y": 0.3109753423,
				"z": -2.0078525431,
				"element": "C" 
			},
			{
				"x": -0.0201127147,
				"y": -0.4051023418,
				"z": -3.2037171345,
				"element": "C" 
			},
			{
				"x": -0.2273196859,
				"y": -1.7820282131,
				"z": -3.1681118224,
				"element": "C" 
			},
			{
				"x": -0.2297350409,
				"y": -2.4637343628,
				"z": -1.9535501251,
				"element": "C" 
			},
			{
				"x": 0.4017473511,
				"y": 1.7204663955,
				"z": -2.0411469333,
				"element": "C" 
			},
			{
				"x": 0.5828517611,
				"y": 2.9200368696,
				"z": -2.0665225035,
				"element": "C" 
			},
			{
				"x": 0.7905573028,
				"y": 4.3442681607,
				"z": -2.1860032949,
				"element": "C" 
			},
			{
				"x": 0.795047015,
				"y": 4.9506740823,
				"z": -3.2382088766,
				"element": "O" 
			},
			{
				"x": 0.9787392268,
				"y": 4.911565136,
				"z": -0.9758455429,
				"element": "O" 
			},
			{
				"x": 1.1939686829,
				"y": 6.3335309251,
				"z": -1.0017466861,
				"element": "C" 
			},
			{
				"x": -0.4127060431,
				"y": -6.7785362261,
				"z": 3.7279688161,
				"element": "H" 
			},
			{
				"x": 0.7293687676,
				"y": -5.6278150363,
				"z": 4.4982286987,
				"element": "H" 
			},
			{
				"x": -1.0219623713,
				"y": -5.3609624844,
				"z": 4.6450293729,
				"element": "H" 
			},
			{
				"x": 0.3474730089,
				"y": 0.1686539981,
				"z": 0.1410685775,
				"element": "H" 
			},
			{
				"x": -0.0174427007,
				"y": 0.1298186091,
				"z": -4.1474729699,
				"element": "H" 
			},
			{
				"x": -0.3879534383,
				"y": -2.327154511,
				"z": -4.0929389039,
				"element": "H" 
			},
			{
				"x": -0.3907634824,
				"y": -3.5360726854,
				"z": -1.9215164196,
				"element": "H" 
			},
			{
				"x": 1.3260376636,
				"y": 6.6259503177,
				"z": 0.0395108897,
				"element": "H" 
			},
			{
				"x": 2.0844410878,
				"y": 6.577111675,
				"z": -1.5866213979,
				"element": "H" 
			},
			{
				"x": 0.3330996716,
				"y": 6.8448726536,
				"z": -1.4396796402,
				"element": "H" 
			}
		],
		 "valence_orbital": [ 
			{
				"type": "occ",
				"energy": -0.30533,
				"method": "rhf"
			},
			{
				"type": "occ",
				"energy": -0.27645,
				"method": "rhf"
			},
			{
				"type": "occ",
				"energy": -0.2735,
				"method": "rhf"
			},
			{
				"type": "occ",
				"energy": -0.26338,
				"method": "rhf"
			},
			{
				"type": "occ",
				"energy": -0.25119,
				"method": "rhf"
			},
			{
				"type": "unocc",
				"energy": -0.0774,
				"method": "rhf"
			},
			{
				"type": "unocc",
				"energy": -0.06382,
				"method": "rhf"
			},
			{
				"type": "unocc",
				"energy": -0.00736,
				"method": "rhf"
			},
			{
				"type": "unocc",
				"energy": 0.01176,
				"method": "rhf"
			},
			{
				"type": "unocc",
				"energy": 0.02183,
				"method": "rhf"
			}
		],
		"cosmo_sigma_profile": { 
			"-0.025": 0.0,
			"-0.024": 0.0,
			"-0.023": 0.0,
			"-0.022": 0.0,
			"-0.021": 0.0,
			"-0.02": 0.0,
			"-0.019": 0.0,
			"-0.018": 0.0,
			"-0.017": 0.0,
			"-0.016": 0.0,
			"-0.015": 0.0,
			"-0.014": 0.0,
			"-0.013": 0.0,
			"-0.012": 0.0,
			"-0.011": 0.0,
			"-0.01": 0.0,
			"-0.009": 0.243352869005,
			"-0.008": 5.21173489346,
			"-0.007": 12.405574343,
			"-0.006": 20.4223313098,
			"-0.005": 22.05876117,
			"-0.004": 25.7682978978,
			"-0.003": 24.5743157838,
			"-0.002": 19.6413936016,
			"-0.001": 17.8091409355,
			"0.0": 27.218930353,
			"0.001": 29.1331129448,
			"0.002": 21.0357880248,
			"0.003": 19.4768407586,
			"0.004": 8.77230984706,
			"0.005": 7.1881886016,
			"0.006": 7.19843446838,
			"0.007": 5.68292157869,
			"0.008": 6.06510191794,
			"0.009": 5.42233910952,
			"0.01": 4.9981505208,
			"0.011": 10.4861833975,
			"0.012": 3.95948267955,
			"0.013": 0.101992347645,
			"0.014": 0.0,
			"0.015": 0.0,
			"0.016": 0.0,
			"0.017": 0.0,
			"0.018": 0.0,
			"0.019": 0.0,
			"0.02": 0.0,
			"0.021": 0.0,
			"0.022": 0.0,
			"0.023": 0.0,
			"0.024": 0.0,
			"0.025": 0.0
		}
	}
}
