{
	 "smiles": "NC1=CC(F)=C(OC2=C3C=CC(Cl)=CC3=NC=C2)C=C1", 
	 "Tm": 428.15, 
	 "num_atms": 30, 
	 "gaussian": { 
		 "optdone": 1, 
		 "sigma_profile": "yes", 
		 "theory": "DFT", 
		 "functional": "B3LYP", 
		 "basiset": "6-31G**", 
		 "properties": { 
			 "R2extent": 7530.6524, 
			 "electric_dipole_moment_norm": 5.23440998299, 
			 "electric_quadrupole_moment_norm": 17.4936798013, 
			 "total_energy": -1322.36814181, 
			 "HOMO_LUMO_gap": 0.15434, 
			 "cosmo_polarized_energy": -13.35, 
			 "cosmo_cavitation_energy": 36.92, 
			 "cosmo_dispersion_energy": -26.38, 
			 "cosmo_repulsion_energy": 2.01, 
			 "cosmo_total_nonelectrostatic_energy": 12.54, 
			 "SMD_solvation_energy": 4.85 
		},
		"coords": [
			{
				"x": -3.3990995757,
				"y": 1.5861822116,
				"z": -1.8172250037,
				"element": "N" 
			},
			{
				"x": -2.0730368717,
				"y": 1.1843174209,
				"z": -1.6636546716,
				"element": "C" 
			},
			{
				"x": -1.2925449076,
				"y": 1.6853289348,
				"z": -0.6081549966,
				"element": "C" 
			},
			{
				"x": 0.0433773391,
				"y": 1.3293817622,
				"z": -0.5041279526,
				"element": "C" 
			},
			{
				"x": 0.7754465663,
				"y": 1.8362901316,
				"z": 0.5086744741,
				"element": "F" 
			},
			{
				"x": 0.6474972507,
				"y": 0.4537055929,
				"z": -1.4100828147,
				"element": "C" 
			},
			{
				"x": 1.994770346,
				"y": 0.1320061679,
				"z": -1.3743617985,
				"element": "O" 
			},
			{
				"x": 2.6459266591,
				"y": -0.1427142738,
				"z": -0.1927844528,
				"element": "C" 
			},
			{
				"x": 2.1935408735,
				"y": -1.1223326678,
				"z": 0.7403973646,
				"element": "C" 
			},
			{
				"x": 1.0260942586,
				"y": -1.9157074432,
				"z": 0.5824727239,
				"element": "C" 
			},
			{
				"x": 0.6683033508,
				"y": -2.8455813512,
				"z": 1.5320017694,
				"element": "C" 
			},
			{
				"x": 1.4744126524,
				"y": -3.0152603618,
				"z": 2.6814423909,
				"element": "C" 
			},
			{
				"x": 0.9843291685,
				"y": -4.2027851783,
				"z": 3.881028683,
				"element": "Cl" 
			},
			{
				"x": 2.6227530484,
				"y": -2.2855196049,
				"z": 2.8684213713,
				"element": "C" 
			},
			{
				"x": 3.0192026487,
				"y": -1.3282594534,
				"z": 1.896236153,
				"element": "C" 
			},
			{
				"x": 4.1911609603,
				"y": -0.6651331445,
				"z": 2.1154518819,
				"element": "N" 
			},
			{
				"x": 4.5733931965,
				"y": 0.2000785464,
				"z": 1.1970403808,
				"element": "C" 
			},
			{
				"x": 3.8431442196,
				"y": 0.5002313092,
				"z": 0.0266191646,
				"element": "C" 
			},
			{
				"x": -0.1267329061,
				"y": -0.0369737691,
				"z": -2.4609181949,
				"element": "C" 
			},
			{
				"x": -1.4660202055,
				"y": 0.3200843744,
				"z": -2.5924628337,
				"element": "C" 
			},
			{
				"x": -3.9804092713,
				"y": 0.9594625033,
				"z": -2.3558553788,
				"element": "H" 
			},
			{
				"x": -3.8594617036,
				"y": 1.8999621252,
				"z": -0.9743820315,
				"element": "H" 
			},
			{
				"x": -1.7055246969,
				"y": 2.3663610855,
				"z": 0.1291060296,
				"element": "H" 
			},
			{
				"x": 0.4080959335,
				"y": -1.7949720781,
				"z": -0.298430306,
				"element": "H" 
			},
			{
				"x": -0.2212671956,
				"y": -3.452524341,
				"z": 1.4069258073,
				"element": "H" 
			},
			{
				"x": 3.2550458672,
				"y": -2.4197179878,
				"z": 3.7377222208,
				"element": "H" 
			},
			{
				"x": 5.5151861583,
				"y": 0.7160588075,
				"z": 1.3799064048,
				"element": "H" 
			},
			{
				"x": 4.198787534,
				"y": 1.2356873097,
				"z": -0.6857864259,
				"element": "H" 
			},
			{
				"x": 0.3428525492,
				"y": -0.7037222291,
				"z": -3.1769253558,
				"element": "H" 
			},
			{
				"x": -2.0466232469,
				"y": -0.0705343989,
				"z": -3.4231946029,
				"element": "H" 
			}
		],
		 "valence_orbital": [ 
			{
				"type": "occ",
				"energy": -0.25916,
				"method": "rhf"
			},
			{
				"type": "occ",
				"energy": -0.25764,
				"method": "rhf"
			},
			{
				"type": "occ",
				"energy": -0.2507,
				"method": "rhf"
			},
			{
				"type": "occ",
				"energy": -0.23084,
				"method": "rhf"
			},
			{
				"type": "occ",
				"energy": -0.20885,
				"method": "rhf"
			},
			{
				"type": "unocc",
				"energy": -0.05451,
				"method": "rhf"
			},
			{
				"type": "unocc",
				"energy": -0.02335,
				"method": "rhf"
			},
			{
				"type": "unocc",
				"energy": -0.01355,
				"method": "rhf"
			},
			{
				"type": "unocc",
				"energy": 0.00572,
				"method": "rhf"
			},
			{
				"type": "unocc",
				"energy": 0.02128,
				"method": "rhf"
			}
		],
		"cosmo_sigma_profile": { 
			"-0.025": 0.0,
			"-0.024": 0.0,
			"-0.023": 0.0,
			"-0.022": 0.0,
			"-0.021": 0.0,
			"-0.02": 0.0,
			"-0.019": 0.0,
			"-0.018": 0.0,
			"-0.017": 0.0,
			"-0.016": 0.0,
			"-0.015": 0.0,
			"-0.014": 0.0,
			"-0.013": 0.936822126154,
			"-0.012": 3.23973068421,
			"-0.011": 2.90888393091,
			"-0.01": 2.84709664839,
			"-0.009": 3.86101201317,
			"-0.008": 4.94742837802,
			"-0.007": 11.6625722482,
			"-0.006": 15.0231899307,
			"-0.005": 13.4153534373,
			"-0.004": 13.0906895576,
			"-0.003": 13.6593406988,
			"-0.002": 13.5179608556,
			"-0.001": 14.7707115709,
			"0.0": 22.6351133733,
			"0.001": 39.0168116541,
			"0.002": 36.3929048634,
			"0.003": 25.9576251668,
			"0.004": 30.2982111506,
			"0.005": 10.2598619455,
			"0.006": 3.84313809866,
			"0.007": 3.51028475821,
			"0.008": 2.97817788627,
			"0.009": 1.98379070392,
			"0.01": 1.64393614876,
			"0.011": 2.05723824094,
			"0.012": 1.03825101378,
			"0.013": 1.40685951451,
			"0.014": 1.2253052529,
			"0.015": 0.87122205143,
			"0.016": 0.325492581012,
			"0.017": 0.0,
			"0.018": 0.0,
			"0.019": 0.0,
			"0.02": 0.0,
			"0.021": 0.0,
			"0.022": 0.0,
			"0.023": 0.0,
			"0.024": 0.0,
			"0.025": 0.0
		}
	}
}
