{
	 "smiles": "OC(=O)C(=CC1=CC=CC=C1)C1=CC=C(Cl)C=C1", 
	 "Tm": 454.15, 
	 "num_atms": 29, 
	 "gaussian": { 
		 "optdone": 1, 
		 "sigma_profile": "yes", 
		 "theory": "DFT", 
		 "functional": "B3LYP", 
		 "basiset": "6-31G**", 
		 "properties": { 
			 "R2extent": 6059.6854, 
			 "electric_dipole_moment_norm": 3.66921856258, 
			 "electric_quadrupole_moment_norm": 8.54743950198, 
			 "total_energy": -1188.87098543, 
			 "HOMO_LUMO_gap": 0.15566, 
			 "cosmo_polarized_energy": -11.64, 
			 "cosmo_cavitation_energy": 35.77, 
			 "cosmo_dispersion_energy": -25.13, 
			 "cosmo_repulsion_energy": 1.97, 
			 "cosmo_total_nonelectrostatic_energy": 12.61, 
			 "SMD_solvation_energy": 6.84 
		},
		"coords": [
			{
				"x": 1.3316065146,
				"y": 4.1323507977,
				"z": -0.5738878094,
				"element": "O" 
			},
			{
				"x": 1.9179269688,
				"y": 2.9457098163,
				"z": -0.2601746994,
				"element": "C" 
			},
			{
				"x": 3.1177931473,
				"y": 2.8644568441,
				"z": -0.0786722217,
				"element": "O" 
			},
			{
				"x": 0.965693034,
				"y": 1.7989808016,
				"z": -0.1783073048,
				"element": "C" 
			},
			{
				"x": -0.3342164344,
				"y": 2.0048891932,
				"z": -0.5096882352,
				"element": "C" 
			},
			{
				"x": -1.4520212391,
				"y": 1.0616215807,
				"z": -0.6343219014,
				"element": "C" 
			},
			{
				"x": -1.3029063061,
				"y": -0.3131648305,
				"z": -0.9053620936,
				"element": "C" 
			},
			{
				"x": -2.419497093,
				"y": -1.1314101313,
				"z": -1.05163103,
				"element": "C" 
			},
			{
				"x": -3.7077880411,
				"y": -0.6036446614,
				"z": -0.9251859906,
				"element": "C" 
			},
			{
				"x": -3.8737157697,
				"y": 0.7587522771,
				"z": -0.6700640647,
				"element": "C" 
			},
			{
				"x": -2.7579027549,
				"y": 1.5820946374,
				"z": -0.5403723786,
				"element": "C" 
			},
			{
				"x": 1.5490147374,
				"y": 0.5181352913,
				"z": 0.3088245407,
				"element": "C" 
			},
			{
				"x": 1.004194221,
				"y": -0.118599252,
				"z": 1.434908705,
				"element": "C" 
			},
			{
				"x": 1.5372082568,
				"y": -1.3112158324,
				"z": 1.9193966319,
				"element": "C" 
			},
			{
				"x": 2.6344430728,
				"y": -1.8757279382,
				"z": 1.2700706676,
				"element": "C" 
			},
			{
				"x": 3.3126943565,
				"y": -3.3832994017,
				"z": 1.8693289408,
				"element": "Cl" 
			},
			{
				"x": 3.2056214934,
				"y": -1.2601386719,
				"z": 0.1571340856,
				"element": "C" 
			},
			{
				"x": 2.6651180735,
				"y": -0.0639314267,
				"z": -0.3117450292,
				"element": "C" 
			},
			{
				"x": 2.0575601045,
				"y": 4.7765086109,
				"z": -0.5963138513,
				"element": "H" 
			},
			{
				"x": -0.6041273557,
				"y": 3.0336091937,
				"z": -0.7325328845,
				"element": "H" 
			},
			{
				"x": -0.3117684277,
				"y": -0.7348058734,
				"z": -1.0192227338,
				"element": "H" 
			},
			{
				"x": -2.2841867879,
				"y": -2.1868314233,
				"z": -1.2695390645,
				"element": "H" 
			},
			{
				"x": -4.5747792447,
				"y": -1.2483964338,
				"z": -1.0358735672,
				"element": "H" 
			},
			{
				"x": -4.8703634231,
				"y": 1.181206579,
				"z": -0.5818248781,
				"element": "H" 
			},
			{
				"x": -2.8904149414,
				"y": 2.6451282367,
				"z": -0.3559220089,
				"element": "H" 
			},
			{
				"x": 0.1526831401,
				"y": 0.3269974238,
				"z": 1.9393885181,
				"element": "H" 
			},
			{
				"x": 1.1119062564,
				"y": -1.7943736083,
				"z": 2.7920254321,
				"element": "H" 
			},
			{
				"x": 4.0643472998,
				"y": -1.7072765324,
				"z": -0.3311560861,
				"element": "H" 
			},
			{
				"x": 3.1195771417,
				"y": 0.4250747337,
				"z": -1.1657796888,
				"element": "H" 
			}
		],
		 "valence_orbital": [ 
			{
				"type": "occ",
				"energy": -0.2781,
				"method": "rhf"
			},
			{
				"type": "occ",
				"energy": -0.26428,
				"method": "rhf"
			},
			{
				"type": "occ",
				"energy": -0.25767,
				"method": "rhf"
			},
			{
				"type": "occ",
				"energy": -0.25506,
				"method": "rhf"
			},
			{
				"type": "occ",
				"energy": -0.22694,
				"method": "rhf"
			},
			{
				"type": "unocc",
				"energy": -0.07128,
				"method": "rhf"
			},
			{
				"type": "unocc",
				"energy": -0.01717,
				"method": "rhf"
			},
			{
				"type": "unocc",
				"energy": -0.0127,
				"method": "rhf"
			},
			{
				"type": "unocc",
				"energy": -0.00432,
				"method": "rhf"
			},
			{
				"type": "unocc",
				"energy": 0.01264,
				"method": "rhf"
			}
		],
		"cosmo_sigma_profile": { 
			"-0.025": 0.0,
			"-0.024": 0.0,
			"-0.023": 0.0,
			"-0.022": 0.0,
			"-0.021": 0.0,
			"-0.02": 0.0,
			"-0.019": 0.0,
			"-0.018": 0.558453549775,
			"-0.017": 0.772972529834,
			"-0.016": 0.955939801098,
			"-0.015": 1.37886552465,
			"-0.014": 0.216230211086,
			"-0.013": 0.564525047716,
			"-0.012": 0.216757586523,
			"-0.011": 0.912038587692,
			"-0.01": 0.985300102087,
			"-0.009": 0.637461600008,
			"-0.008": 1.2829481459,
			"-0.007": 6.86256890274,
			"-0.006": 15.7202343627,
			"-0.005": 19.1851826495,
			"-0.004": 20.0221241261,
			"-0.003": 16.1960481794,
			"-0.002": 19.7739048716,
			"-0.001": 21.1620881565,
			"0.0": 20.1877691235,
			"0.001": 26.8931435717,
			"0.002": 26.7678890162,
			"0.003": 24.8075370932,
			"0.004": 24.8570088365,
			"0.005": 17.7903814819,
			"0.006": 3.19313632103,
			"0.007": 3.02685165787,
			"0.008": 2.21563651368,
			"0.009": 1.83943953428,
			"0.01": 2.2201572337,
			"0.011": 3.1248960585,
			"0.012": 4.69251934416,
			"0.013": 0.226552810632,
			"0.014": 0.0,
			"0.015": 0.0,
			"0.016": 0.0,
			"0.017": 0.0,
			"0.018": 0.0,
			"0.019": 0.0,
			"0.02": 0.0,
			"0.021": 0.0,
			"0.022": 0.0,
			"0.023": 0.0,
			"0.024": 0.0,
			"0.025": 0.0
		}
	}
}
