{
	 "smiles": "COC1=C(C=C(C=C1)S(Cl)(=O)=O)[N+]([O-])=O", 
	 "Tm": 332.15, 
	 "num_atms": 21, 
	 "gaussian": { 
		 "optdone": 1, 
		 "sigma_profile": "yes", 
		 "theory": "DFT", 
		 "functional": "B3LYP", 
		 "basiset": "6-31G**", 
		 "properties": { 
			 "R2extent": 5315.1471, 
			 "electric_dipole_moment_norm": 7.17304613466, 
			 "electric_quadrupole_moment_norm": 22.3018524603, 
			 "total_energy": -1559.41539182, 
			 "HOMO_LUMO_gap": 0.17661, 
			 "cosmo_polarized_energy": -16.65, 
			 "cosmo_cavitation_energy": 30.19, 
			 "cosmo_dispersion_energy": -22.25, 
			 "cosmo_repulsion_energy": 1.71, 
			 "cosmo_total_nonelectrostatic_energy": 9.66, 
			 "SMD_solvation_energy": 7.05 
		},
		"coords": [
			{
				"x": 2.2471376325,
				"y": 1.0824446735,
				"z": 2.959538144,
				"element": "C" 
			},
			{
				"x": 1.2126863612,
				"y": 1.5677617843,
				"z": 2.1017540258,
				"element": "O" 
			},
			{
				"x": 0.3905136418,
				"y": 0.6989972836,
				"z": 1.5038137858,
				"element": "C" 
			},
			{
				"x": -0.6562797996,
				"y": 1.2056837588,
				"z": 0.6905133034,
				"element": "C" 
			},
			{
				"x": -1.5794013441,
				"y": 0.3597523576,
				"z": 0.0902700356,
				"element": "C" 
			},
			{
				"x": -1.4477993718,
				"y": -1.0137238583,
				"z": 0.2655580924,
				"element": "C" 
			},
			{
				"x": -0.4221473653,
				"y": -1.5512222103,
				"z": 1.045559347,
				"element": "C" 
			},
			{
				"x": 0.4824723058,
				"y": -0.6980724085,
				"z": 1.662727606,
				"element": "C" 
			},
			{
				"x": -2.6016114683,
				"y": -2.1081718723,
				"z": -0.5352127826,
				"element": "S" 
			},
			{
				"x": -4.1180899051,
				"y": -2.2905845177,
				"z": 0.9514578296,
				"element": "Cl" 
			},
			{
				"x": -1.9938364669,
				"y": -3.427535653,
				"z": -0.655264335,
				"element": "O" 
			},
			{
				"x": -3.2159202627,
				"y": -1.4192503103,
				"z": -1.6617369775,
				"element": "O" 
			},
			{
				"x": -0.8175932321,
				"y": 2.6467931404,
				"z": 0.4296968094,
				"element": "N" 
			},
			{
				"x": -1.9556857396,
				"y": 3.0330403276,
				"z": 0.1624535365,
				"element": "O" 
			},
			{
				"x": 0.1810764556,
				"y": 3.3565921197,
				"z": 0.4662991514,
				"element": "O" 
			},
			{
				"x": 2.9539611573,
				"y": 0.4518570318,
				"z": 2.4093814688,
				"element": "H" 
			},
			{
				"x": 2.7597889834,
				"y": 1.9728759954,
				"z": 3.3214034411,
				"element": "H" 
			},
			{
				"x": 1.832230075,
				"y": 0.5263754936,
				"z": 3.80747678,
				"element": "H" 
			},
			{
				"x": -2.3753757672,
				"y": 0.785146037,
				"z": -0.5086140418,
				"element": "H" 
			},
			{
				"x": -0.3330889824,
				"y": -2.625651758,
				"z": 1.1615214921,
				"element": "H" 
			},
			{
				"x": 1.2708630928,
				"y": -1.1198074148,
				"z": 2.2723032882,
				"element": "H" 
			}
		],
		 "valence_orbital": [ 
			{
				"type": "occ",
				"energy": -0.31994,
				"method": "rhf"
			},
			{
				"type": "occ",
				"energy": -0.31957,
				"method": "rhf"
			},
			{
				"type": "occ",
				"energy": -0.31329,
				"method": "rhf"
			},
			{
				"type": "occ",
				"energy": -0.29682,
				"method": "rhf"
			},
			{
				"type": "occ",
				"energy": -0.27898,
				"method": "rhf"
			},
			{
				"type": "unocc",
				"energy": -0.10237,
				"method": "rhf"
			},
			{
				"type": "unocc",
				"energy": -0.09612,
				"method": "rhf"
			},
			{
				"type": "unocc",
				"energy": -0.05152,
				"method": "rhf"
			},
			{
				"type": "unocc",
				"energy": -0.03281,
				"method": "rhf"
			},
			{
				"type": "unocc",
				"energy": 0.0374,
				"method": "rhf"
			}
		],
		"cosmo_sigma_profile": { 
			"-0.025": 0.0,
			"-0.024": 0.0,
			"-0.023": 0.0,
			"-0.022": 0.0,
			"-0.021": 0.0,
			"-0.02": 0.0,
			"-0.019": 0.0,
			"-0.018": 0.0,
			"-0.017": 0.0,
			"-0.016": 0.0,
			"-0.015": 0.0,
			"-0.014": 0.0,
			"-0.013": 0.0,
			"-0.012": 0.0,
			"-0.011": 0.0,
			"-0.01": 1.62704747934,
			"-0.009": 5.25683411329,
			"-0.008": 7.93446259976,
			"-0.007": 15.8934109967,
			"-0.006": 13.9358690911,
			"-0.005": 14.774244875,
			"-0.004": 15.4686534419,
			"-0.003": 17.445990379,
			"-0.002": 18.1775760758,
			"-0.001": 13.8968558999,
			"0.0": 12.8438720738,
			"0.001": 10.3906747861,
			"0.002": 11.2345098854,
			"0.003": 18.417468614,
			"0.004": 8.80003809545,
			"0.005": 6.94089808979,
			"0.006": 7.59895540274,
			"0.007": 16.3441246582,
			"0.008": 17.1530524776,
			"0.009": 8.07306208011,
			"0.01": 2.63173156112,
			"0.011": 0.441953970982,
			"0.012": 0.0,
			"0.013": 0.0,
			"0.014": 0.0,
			"0.015": 0.0,
			"0.016": 0.0,
			"0.017": 0.0,
			"0.018": 0.0,
			"0.019": 0.0,
			"0.02": 0.0,
			"0.021": 0.0,
			"0.022": 0.0,
			"0.023": 0.0,
			"0.024": 0.0,
			"0.025": 0.0
		}
	}
}
