{
	 "smiles": "COC1=C(OC(C)(C)C)C=CC(CN)=C1", 
	 "Tm": 326.15, 
	 "num_atms": 34, 
	 "gaussian": { 
		 "optdone": 1, 
		 "sigma_profile": "yes", 
		 "theory": "DFT", 
		 "functional": "B3LYP", 
		 "basiset": "6-31G**", 
		 "properties": { 
			 "R2extent": 3983.2061, 
			 "electric_dipole_moment_norm": 0.800594116891, 
			 "electric_quadrupole_moment_norm": 11.3750627, 
			 "total_energy": -673.910965074, 
			 "HOMO_LUMO_gap": 0.22052, 
			 "cosmo_polarized_energy": -9.19, 
			 "cosmo_cavitation_energy": 35.19, 
			 "cosmo_dispersion_energy": -24.29, 
			 "cosmo_repulsion_energy": 1.93, 
			 "cosmo_total_nonelectrostatic_energy": 12.82, 
			 "SMD_solvation_energy": 6.05 
		},
		"coords": [
			{
				"x": 2.6729258606,
				"y": 0.3747045774,
				"z": -1.084806444,
				"element": "C" 
			},
			{
				"x": 1.3100462422,
				"y": 0.489417273,
				"z": -1.5041061639,
				"element": "O" 
			},
			{
				"x": 0.4456741375,
				"y": -0.4113796618,
				"z": -0.9206590866,
				"element": "C" 
			},
			{
				"x": 0.0959044731,
				"y": -0.3281657936,
				"z": 0.4418137032,
				"element": "C" 
			},
			{
				"x": 0.6950898845,
				"y": 0.6146208407,
				"z": 1.2471716934,
				"element": "O" 
			},
			{
				"x": 0.0015246046,
				"y": 1.8734906226,
				"z": 1.5431311748,
				"element": "C" 
			},
			{
				"x": -1.1273115484,
				"y": 1.6213031181,
				"z": 2.5510799056,
				"element": "C" 
			},
			{
				"x": 1.1017384882,
				"y": 2.7327479131,
				"z": 2.1701672048,
				"element": "C" 
			},
			{
				"x": -0.5404262224,
				"y": 2.5211686884,
				"z": 0.2645827759,
				"element": "C" 
			},
			{
				"x": -0.781710421,
				"y": -1.2825510049,
				"z": 0.9674789807,
				"element": "C" 
			},
			{
				"x": -1.3437577912,
				"y": -2.2682774247,
				"z": 0.1561751898,
				"element": "C" 
			},
			{
				"x": -1.0272214182,
				"y": -2.3322133718,
				"z": -1.2056293844,
				"element": "C" 
			},
			{
				"x": -1.6622320161,
				"y": -3.3703360213,
				"z": -2.1122073529,
				"element": "C" 
			},
			{
				"x": -1.908621031,
				"y": -4.6320040842,
				"z": -1.4069278866,
				"element": "N" 
			},
			{
				"x": -0.116253967,
				"y": -1.4052501596,
				"z": -1.7232825466,
				"element": "C" 
			},
			{
				"x": 2.7729092029,
				"y": 0.5352908538,
				"z": -0.0075023625,
				"element": "H" 
			},
			{
				"x": 3.2259000455,
				"y": 1.1456935662,
				"z": -1.626365176,
				"element": "H" 
			},
			{
				"x": 3.0795983977,
				"y": -0.6107451276,
				"z": -1.3478881715,
				"element": "H" 
			},
			{
				"x": -1.9118760813,
				"y": 0.9938866461,
				"z": 2.1195159234,
				"element": "H" 
			},
			{
				"x": -0.7389066132,
				"y": 1.1285390414,
				"z": 3.4476624073,
				"element": "H" 
			},
			{
				"x": -1.5853506906,
				"y": 2.569800359,
				"z": 2.8508164867,
				"element": "H" 
			},
			{
				"x": 1.9029063939,
				"y": 2.9160002138,
				"z": 1.4484982173,
				"element": "H" 
			},
			{
				"x": 0.6988236053,
				"y": 3.6971597195,
				"z": 2.4942447718,
				"element": "H" 
			},
			{
				"x": 1.5304863297,
				"y": 2.2253024405,
				"z": 3.0393068557,
				"element": "H" 
			},
			{
				"x": -1.3367515324,
				"y": 1.9166268447,
				"z": -0.1792657706,
				"element": "H" 
			},
			{
				"x": 0.2525906626,
				"y": 2.6351404377,
				"z": -0.477353173,
				"element": "H" 
			},
			{
				"x": -0.9569877659,
				"y": 3.5067266488,
				"z": 0.4965337078,
				"element": "H" 
			},
			{
				"x": -1.0089789047,
				"y": -1.2476449472,
				"z": 2.0278299625,
				"element": "H" 
			},
			{
				"x": -2.0222552791,
				"y": -3.0050788675,
				"z": 0.5728161548,
				"element": "H" 
			},
			{
				"x": -1.040320634,
				"y": -3.4707872366,
				"z": -3.0188270029,
				"element": "H" 
			},
			{
				"x": -2.6378650522,
				"y": -2.998275695,
				"z": -2.4557085065,
				"element": "H" 
			},
			{
				"x": -2.3992793224,
				"y": -5.2806725787,
				"z": -2.0166143868,
				"element": "H" 
			},
			{
				"x": -1.0227129146,
				"y": -5.0686907297,
				"z": -1.1629210794,
				"element": "H" 
			},
			{
				"x": 0.1766008775,
				"y": -1.435147101,
				"z": -2.7695606211,
				"element": "H" 
			}
		],
		 "valence_orbital": [ 
			{
				"type": "occ",
				"energy": -0.27443,
				"method": "rhf"
			},
			{
				"type": "occ",
				"energy": -0.25544,
				"method": "rhf"
			},
			{
				"type": "occ",
				"energy": -0.23833,
				"method": "rhf"
			},
			{
				"type": "occ",
				"energy": -0.23349,
				"method": "rhf"
			},
			{
				"type": "occ",
				"energy": -0.21465,
				"method": "rhf"
			},
			{
				"type": "unocc",
				"energy": 0.00587,
				"method": "rhf"
			},
			{
				"type": "unocc",
				"energy": 0.01012,
				"method": "rhf"
			},
			{
				"type": "unocc",
				"energy": 0.08275,
				"method": "rhf"
			},
			{
				"type": "unocc",
				"energy": 0.0889,
				"method": "rhf"
			},
			{
				"type": "unocc",
				"energy": 0.10386,
				"method": "rhf"
			}
		],
		"cosmo_sigma_profile": { 
			"-0.025": 0.0,
			"-0.024": 0.0,
			"-0.023": 0.0,
			"-0.022": 0.0,
			"-0.021": 0.0,
			"-0.02": 0.0,
			"-0.019": 0.0,
			"-0.018": 0.0,
			"-0.017": 0.0,
			"-0.016": 0.0,
			"-0.015": 0.0,
			"-0.014": 0.0,
			"-0.013": 0.0,
			"-0.012": 0.0,
			"-0.011": 0.0,
			"-0.01": 1.25376738204,
			"-0.009": 2.68107194551,
			"-0.008": 2.94566351167,
			"-0.007": 2.44067078297,
			"-0.006": 3.41926105186,
			"-0.005": 8.70997470691,
			"-0.004": 19.3970109673,
			"-0.003": 32.8447536069,
			"-0.002": 39.6194314379,
			"-0.001": 30.9624245409,
			"0.0": 28.8756961162,
			"0.001": 24.9276945325,
			"0.002": 13.0744222108,
			"0.003": 13.1976574776,
			"0.004": 13.0467678054,
			"0.005": 11.3009817966,
			"0.006": 7.02142786139,
			"0.007": 3.20534351878,
			"0.008": 2.72055736125,
			"0.009": 3.52620228659,
			"0.01": 1.67721438221,
			"0.011": 2.18834311559,
			"0.012": 2.57050469192,
			"0.013": 0.340310165196,
			"0.014": 0.497776650572,
			"0.015": 0.82373748198,
			"0.016": 0.42597664298,
			"0.017": 0.332827851544,
			"0.018": 0.0508651229241,
			"0.019": 0.0,
			"0.02": 0.0,
			"0.021": 0.0,
			"0.022": 0.0,
			"0.023": 0.0,
			"0.024": 0.0,
			"0.025": 0.0
		}
	}
}
