{
	 "smiles": "O=C(COC(=O)C1=CC=CC=C1)C1=CC=CC=C1", 
	 "Tm": 392.15, 
	 "num_atms": 30, 
	 "gaussian": { 
		 "optdone": 1, 
		 "sigma_profile": "yes", 
		 "theory": "DFT", 
		 "functional": "B3LYP", 
		 "basiset": "6-31G**", 
		 "properties": { 
			 "R2extent": 6039.7524, 
			 "electric_dipole_moment_norm": 4.14452362643, 
			 "electric_quadrupole_moment_norm": 14.429936153, 
			 "total_energy": -804.50807316, 
			 "HOMO_LUMO_gap": 0.19278, 
			 "cosmo_polarized_energy": -11.73, 
			 "cosmo_cavitation_energy": 35.58, 
			 "cosmo_dispersion_energy": -24.83, 
			 "cosmo_repulsion_energy": 1.92, 
			 "cosmo_total_nonelectrostatic_energy": 12.66, 
			 "SMD_solvation_energy": 7.44 
		},
		"coords": [
			{
				"x": 0.0419670382,
				"y": -1.3665024187,
				"z": -4.1341364917,
				"element": "O" 
			},
			{
				"x": 0.1352429934,
				"y": -1.3325171602,
				"z": -2.9166384102,
				"element": "C" 
			},
			{
				"x": 0.6985299989,
				"y": -0.0662475828,
				"z": -2.2695350427,
				"element": "C" 
			},
			{
				"x": -0.2106514685,
				"y": 0.3924304228,
				"z": -1.2540179468,
				"element": "O" 
			},
			{
				"x": 0.2375557928,
				"y": 1.4281090179,
				"z": -0.4947846707,
				"element": "C" 
			},
			{
				"x": 1.3390656968,
				"y": 1.9190178574,
				"z": -0.6398914973,
				"element": "O" 
			},
			{
				"x": -0.765120347,
				"y": 1.8671350834,
				"z": 0.5136993902,
				"element": "C" 
			},
			{
				"x": -0.4165187178,
				"y": 2.9307942534,
				"z": 1.3579641277,
				"element": "C" 
			},
			{
				"x": -1.3172377316,
				"y": 3.3812258736,
				"z": 2.3194577275,
				"element": "C" 
			},
			{
				"x": -2.569383094,
				"y": 2.7723933916,
				"z": 2.4424313879,
				"element": "C" 
			},
			{
				"x": -2.9196418588,
				"y": 1.7123685813,
				"z": 1.6023631367,
				"element": "C" 
			},
			{
				"x": -2.021944653,
				"y": 1.2576220608,
				"z": 0.6378804785,
				"element": "C" 
			},
			{
				"x": -0.2321457028,
				"y": -2.5095095915,
				"z": -2.0736294223,
				"element": "C" 
			},
			{
				"x": -0.8227283743,
				"y": -3.6109023175,
				"z": -2.7158417162,
				"element": "C" 
			},
			{
				"x": -1.1620877069,
				"y": -4.7497977968,
				"z": -1.993320909,
				"element": "C" 
			},
			{
				"x": -0.9080163642,
				"y": -4.8061063936,
				"z": -0.6191332779,
				"element": "C" 
			},
			{
				"x": -0.3166004286,
				"y": -3.7191580469,
				"z": 0.0275571364,
				"element": "C" 
			},
			{
				"x": 0.0173046389,
				"y": -2.573060997,
				"z": -0.6933359361,
				"element": "C" 
			},
			{
				"x": 0.8099491751,
				"y": 0.690631972,
				"z": -3.0484684965,
				"element": "H" 
			},
			{
				"x": 1.6842138415,
				"y": -0.2540297495,
				"z": -1.827549803,
				"element": "H" 
			},
			{
				"x": 0.560927948,
				"y": 3.3866762192,
				"z": 1.2420222049,
				"element": "H" 
			},
			{
				"x": -1.0457896937,
				"y": 4.2055107768,
				"z": 2.9722100406,
				"element": "H" 
			},
			{
				"x": -3.2722129241,
				"y": 3.1244112941,
				"z": 3.192271578,
				"element": "H" 
			},
			{
				"x": -3.8931222916,
				"y": 1.2407716363,
				"z": 1.6983432546,
				"element": "H" 
			},
			{
				"x": -2.2863405382,
				"y": 0.4363024554,
				"z": -0.0181078131,
				"element": "H" 
			},
			{
				"x": -1.0004609946,
				"y": -3.5463127116,
				"z": -3.7840581442,
				"element": "H" 
			},
			{
				"x": -1.6211615742,
				"y": -5.595425622,
				"z": -2.4969955578,
				"element": "H" 
			},
			{
				"x": -1.1702660932,
				"y": -5.6961492319,
				"z": -0.0541163075,
				"element": "H" 
			},
			{
				"x": -0.1168385048,
				"y": -3.7627219114,
				"z": 1.094081859,
				"element": "H" 
			},
			{
				"x": 0.4656119384,
				"y": -1.7314593646,
				"z": -0.1784208791,
				"element": "H" 
			}
		],
		 "valence_orbital": [ 
			{
				"type": "occ",
				"energy": -0.26502,
				"method": "rhf"
			},
			{
				"type": "occ",
				"energy": -0.26404,
				"method": "rhf"
			},
			{
				"type": "occ",
				"energy": -0.26299,
				"method": "rhf"
			},
			{
				"type": "occ",
				"energy": -0.26286,
				"method": "rhf"
			},
			{
				"type": "occ",
				"energy": -0.25788,
				"method": "rhf"
			},
			{
				"type": "unocc",
				"energy": -0.0651,
				"method": "rhf"
			},
			{
				"type": "unocc",
				"energy": -0.0516,
				"method": "rhf"
			},
			{
				"type": "unocc",
				"energy": -0.01304,
				"method": "rhf"
			},
			{
				"type": "unocc",
				"energy": -0.01185,
				"method": "rhf"
			},
			{
				"type": "unocc",
				"energy": 0.02742,
				"method": "rhf"
			}
		],
		"cosmo_sigma_profile": { 
			"-0.025": 0.0,
			"-0.024": 0.0,
			"-0.023": 0.0,
			"-0.022": 0.0,
			"-0.021": 0.0,
			"-0.02": 0.0,
			"-0.019": 0.0,
			"-0.018": 0.0,
			"-0.017": 0.0,
			"-0.016": 0.0,
			"-0.015": 0.0,
			"-0.014": 0.0,
			"-0.013": 0.0,
			"-0.012": 0.0,
			"-0.011": 0.0,
			"-0.01": 0.0,
			"-0.009": 0.404413408897,
			"-0.008": 3.63099609485,
			"-0.007": 8.0245365996,
			"-0.006": 21.6482182561,
			"-0.005": 25.2375627006,
			"-0.004": 23.2910397023,
			"-0.003": 17.6862572557,
			"-0.002": 17.1217945389,
			"-0.001": 17.2478192735,
			"0.0": 20.0912489306,
			"0.001": 22.9178153864,
			"0.002": 24.2597845169,
			"0.003": 27.2058814951,
			"0.004": 24.352497148,
			"0.005": 3.97196902539,
			"0.006": 2.23409797347,
			"0.007": 2.9021029672,
			"0.008": 3.77514093576,
			"0.009": 3.5272932672,
			"0.01": 4.58802876087,
			"0.011": 8.01213312764,
			"0.012": 3.55384934178,
			"0.013": 0.0818430312245,
			"0.014": 0.0,
			"0.015": 0.0,
			"0.016": 0.0,
			"0.017": 0.0,
			"0.018": 0.0,
			"0.019": 0.0,
			"0.02": 0.0,
			"0.021": 0.0,
			"0.022": 0.0,
			"0.023": 0.0,
			"0.024": 0.0,
			"0.025": 0.0
		}
	}
}
