{
	 "smiles": "CC(C)(C)C1=CC=C(C=C1)C1=CSC(N)=N1", 
	 "Tm": 401.15, 
	 "num_atms": 32, 
	 "gaussian": { 
		 "optdone": 1, 
		 "sigma_profile": "yes", 
		 "theory": "DFT", 
		 "functional": "B3LYP", 
		 "basiset": "6-31G**", 
		 "properties": { 
			 "R2extent": 7309.2072, 
			 "electric_dipole_moment_norm": 1.51606354088, 
			 "electric_quadrupole_moment_norm": 17.1252689687, 
			 "total_energy": -1012.73385088, 
			 "HOMO_LUMO_gap": 0.17138, 
			 "cosmo_polarized_energy": -11.67, 
			 "cosmo_cavitation_energy": 35.69, 
			 "cosmo_dispersion_energy": -26.34, 
			 "cosmo_repulsion_energy": 1.99, 
			 "cosmo_total_nonelectrostatic_energy": 11.34, 
			 "SMD_solvation_energy": 4.75 
		},
		"coords": [
			{
				"x": 0.987897169,
				"y": -3.5314178372,
				"z": 0.4851025459,
				"element": "C" 
			},
			{
				"x": 1.6294106179,
				"y": -2.5567472911,
				"z": 1.4908476793,
				"element": "C" 
			},
			{
				"x": 1.0387959991,
				"y": -2.8509583845,
				"z": 2.8906988454,
				"element": "C" 
			},
			{
				"x": 3.1539074712,
				"y": -2.821961099,
				"z": 1.5133507714,
				"element": "C" 
			},
			{
				"x": 1.3706815313,
				"y": -1.0848198635,
				"z": 1.1245569263,
				"element": "C" 
			},
			{
				"x": 1.88551538,
				"y": -0.056342912,
				"z": 1.9354585886,
				"element": "C" 
			},
			{
				"x": 1.6755841977,
				"y": 1.2847784025,
				"z": 1.6405924786,
				"element": "C" 
			},
			{
				"x": 0.9338126787,
				"y": 1.6695525758,
				"z": 0.5105201444,
				"element": "C" 
			},
			{
				"x": 0.4173300103,
				"y": 0.6524719646,
				"z": -0.3028356661,
				"element": "C" 
			},
			{
				"x": 0.6329198018,
				"y": -0.6923250288,
				"z": 0.0003463121,
				"element": "C" 
			},
			{
				"x": 0.6938190039,
				"y": 3.0844218375,
				"z": 0.1703937521,
				"element": "C" 
			},
			{
				"x": 1.132493121,
				"y": 4.1745616063,
				"z": 0.8728465383,
				"element": "C" 
			},
			{
				"x": 0.6202383491,
				"y": 5.65293263,
				"z": 0.0999291163,
				"element": "S" 
			},
			{
				"x": -0.1810780682,
				"y": 4.6620866471,
				"z": -1.128596255,
				"element": "C" 
			},
			{
				"x": -0.8126660134,
				"y": 5.2428027316,
				"z": -2.2065192688,
				"element": "N" 
			},
			{
				"x": -0.0564264147,
				"y": 3.3811343675,
				"z": -0.9619250091,
				"element": "N" 
			},
			{
				"x": 1.3864917744,
				"y": -3.3947985544,
				"z": -0.5255290846,
				"element": "H" 
			},
			{
				"x": -0.1000328326,
				"y": -3.4151171183,
				"z": 0.4422863566,
				"element": "H" 
			},
			{
				"x": 1.1977814059,
				"y": -4.563148548,
				"z": 0.7858412704,
				"element": "H" 
			},
			{
				"x": 1.220579287,
				"y": -3.8950451951,
				"z": 3.1704019306,
				"element": "H" 
			},
			{
				"x": -0.0425237181,
				"y": -2.6790236726,
				"z": 2.9029535482,
				"element": "H" 
			},
			{
				"x": 1.4856409677,
				"y": -2.217297242,
				"z": 3.6625569952,
				"element": "H" 
			},
			{
				"x": 3.6668446291,
				"y": -2.1875128582,
				"z": 2.2422563249,
				"element": "H" 
			},
			{
				"x": 3.5989942793,
				"y": -2.6289420545,
				"z": 0.5317458769,
				"element": "H" 
			},
			{
				"x": 3.3562072496,
				"y": -3.8658151006,
				"z": 1.779496312,
				"element": "H" 
			},
			{
				"x": 2.4655173698,
				"y": -0.3053404914,
				"z": 2.8195606474,
				"element": "H" 
			},
			{
				"x": 2.0966835386,
				"y": 2.0382210559,
				"z": 2.2999303064,
				"element": "H" 
			},
			{
				"x": -0.1569503099,
				"y": 0.9294756204,
				"z": -1.1796878112,
				"element": "H" 
			},
			{
				"x": 0.211188002,
				"y": -1.4391675356,
				"z": -0.6628501338,
				"element": "H" 
			},
			{
				"x": 1.7102328287,
				"y": 4.2144213118,
				"z": 1.7834815366,
				"element": "H" 
			},
			{
				"x": -1.2619365549,
				"y": 6.1328168952,
				"z": -2.0440605826,
				"element": "H" 
			},
			{
				"x": -1.3837527513,
				"y": 4.5866031408,
				"z": -2.7234509928,
				"element": "H" 
			}
		],
		 "valence_orbital": [ 
			{
				"type": "occ",
				"energy": -0.27891,
				"method": "rhf"
			},
			{
				"type": "occ",
				"energy": -0.27024,
				"method": "rhf"
			},
			{
				"type": "occ",
				"energy": -0.24353,
				"method": "rhf"
			},
			{
				"type": "occ",
				"energy": -0.23758,
				"method": "rhf"
			},
			{
				"type": "occ",
				"energy": -0.19583,
				"method": "rhf"
			},
			{
				"type": "unocc",
				"energy": -0.02445,
				"method": "rhf"
			},
			{
				"type": "unocc",
				"energy": 0.00555,
				"method": "rhf"
			},
			{
				"type": "unocc",
				"energy": 0.01201,
				"method": "rhf"
			},
			{
				"type": "unocc",
				"energy": 0.02178,
				"method": "rhf"
			},
			{
				"type": "unocc",
				"energy": 0.07145,
				"method": "rhf"
			}
		],
		"cosmo_sigma_profile": { 
			"-0.025": 0.0,
			"-0.024": 0.0,
			"-0.023": 0.0,
			"-0.022": 0.0,
			"-0.021": 0.0,
			"-0.02": 0.0,
			"-0.019": 0.0,
			"-0.018": 0.0,
			"-0.017": 0.0,
			"-0.016": 0.0,
			"-0.015": 0.250981652154,
			"-0.014": 1.77405386716,
			"-0.013": 2.54271874487,
			"-0.012": 2.77464830373,
			"-0.011": 2.85503116988,
			"-0.01": 2.25903999354,
			"-0.009": 3.37059003964,
			"-0.008": 3.95498454006,
			"-0.007": 3.68204670598,
			"-0.006": 4.65595297589,
			"-0.005": 8.35309196151,
			"-0.004": 10.9965308459,
			"-0.003": 21.3704271533,
			"-0.002": 29.5181267101,
			"-0.001": 24.1747202904,
			"0.0": 24.9580137817,
			"0.001": 30.7885948534,
			"0.002": 23.3307032251,
			"0.003": 17.1134848538,
			"0.004": 23.1561853926,
			"0.005": 16.262877245,
			"0.006": 12.3354785231,
			"0.007": 3.91936892244,
			"0.008": 2.36600567029,
			"0.009": 1.83909559887,
			"0.01": 2.20744552002,
			"0.011": 2.10892570083,
			"0.012": 0.735135571756,
			"0.013": 0.0,
			"0.014": 0.0,
			"0.015": 0.0,
			"0.016": 0.0,
			"0.017": 0.0,
			"0.018": 0.0,
			"0.019": 0.0,
			"0.02": 0.0,
			"0.021": 0.0,
			"0.022": 0.0,
			"0.023": 0.0,
			"0.024": 0.0,
			"0.025": 0.0
		}
	}
}
