{
	 "smiles": "OC(O)C(Br)(Br)Br", 
	 "Tm": 326.65, 
	 "num_atms": 10, 
	 "gaussian": { 
		 "optdone": 1, 
		 "sigma_profile": "yes", 
		 "theory": "DFT", 
		 "functional": "B3LYP", 
		 "basiset": "6-31G**", 
		 "properties": { 
			 "R2extent": 2987.7451, 
			 "electric_dipole_moment_norm": 1.8124067645, 
			 "electric_quadrupole_moment_norm": 5.23405878931, 
			 "total_energy": -7942.6491856, 
			 "HOMO_LUMO_gap": 0.20673, 
			 "cosmo_polarized_energy": -9.7, 
			 "cosmo_cavitation_energy": 20.39, 
			 "cosmo_dispersion_energy": -16.2, 
			 "cosmo_repulsion_energy": 1.35, 
			 "cosmo_total_nonelectrostatic_energy": 5.54, 
			 "SMD_solvation_energy": 0.45 
		},
		"coords": [
			{
				"x": -0.205241622,
				"y": -1.6276552508,
				"z": -1.7127726351,
				"element": "O" 
			},
			{
				"x": 0.442400848,
				"y": -2.0570422016,
				"z": -0.5513242111,
				"element": "C" 
			},
			{
				"x": 0.2852246379,
				"y": -3.4204877276,
				"z": -0.3254675535,
				"element": "O" 
			},
			{
				"x": -0.1162098022,
				"y": -1.1950261577,
				"z": 0.6215384293,
				"element": "C" 
			},
			{
				"x": 0.1776156594,
				"y": 0.7057953822,
				"z": 0.2640820221,
				"element": "Br" 
			},
			{
				"x": 0.8158813965,
				"y": -1.6971049273,
				"z": 2.2708332975,
				"element": "Br" 
			},
			{
				"x": -2.0475369934,
				"y": -1.549385083,
				"z": 0.8285795796,
				"element": "Br" 
			},
			{
				"x": 0.1227340274,
				"y": -2.1797502476,
				"z": -2.4358219317,
				"element": "H" 
			},
			{
				"x": 1.5253453017,
				"y": -1.8792204732,
				"z": -0.5804480763,
				"element": "H" 
			},
			{
				"x": -0.6675134532,
				"y": -3.5910233134,
				"z": -0.2380989207,
				"element": "H" 
			}
		],
		 "valence_orbital": [ 
			{
				"type": "occ",
				"energy": -0.30952,
				"method": "rhf"
			},
			{
				"type": "occ",
				"energy": -0.30426,
				"method": "rhf"
			},
			{
				"type": "occ",
				"energy": -0.29186,
				"method": "rhf"
			},
			{
				"type": "occ",
				"energy": -0.28428,
				"method": "rhf"
			},
			{
				"type": "occ",
				"energy": -0.27535,
				"method": "rhf"
			},
			{
				"type": "unocc",
				"energy": -0.06862,
				"method": "rhf"
			},
			{
				"type": "unocc",
				"energy": -0.02077,
				"method": "rhf"
			},
			{
				"type": "unocc",
				"energy": -0.01674,
				"method": "rhf"
			},
			{
				"type": "unocc",
				"energy": 0.07416,
				"method": "rhf"
			},
			{
				"type": "unocc",
				"energy": 0.09079,
				"method": "rhf"
			}
		],
		"cosmo_sigma_profile": { 
			"-0.025": 0.0,
			"-0.024": 0.0,
			"-0.023": 0.0,
			"-0.022": 0.0,
			"-0.021": 0.0,
			"-0.02": 0.0,
			"-0.019": 0.0,
			"-0.018": 0.414063099637,
			"-0.017": 1.04571316658,
			"-0.016": 0.742629626366,
			"-0.015": 1.11518957956,
			"-0.014": 1.88054602502,
			"-0.013": 1.288561935,
			"-0.012": 1.65137358945,
			"-0.011": 1.33298943789,
			"-0.01": 1.25686438575,
			"-0.009": 1.83270610298,
			"-0.008": 4.16373231347,
			"-0.007": 3.92922267142,
			"-0.006": 5.84028715054,
			"-0.005": 7.38634147592,
			"-0.004": 7.78392860668,
			"-0.003": 8.65287668048,
			"-0.002": 7.61446855421,
			"-0.001": 9.87209448134,
			"0.0": 10.3420301588,
			"0.001": 10.2135757862,
			"0.002": 17.1122652449,
			"0.003": 29.2281615487,
			"0.004": 10.8795472638,
			"0.005": 4.542201468,
			"0.006": 3.31712004632,
			"0.007": 2.44568003732,
			"0.008": 3.75936789427,
			"0.009": 3.41319458051,
			"0.01": 3.55007894432,
			"0.011": 3.26823787538,
			"0.012": 0.727602244124,
			"0.013": 0.0,
			"0.014": 0.0,
			"0.015": 0.0,
			"0.016": 0.0,
			"0.017": 0.0,
			"0.018": 0.0,
			"0.019": 0.0,
			"0.02": 0.0,
			"0.021": 0.0,
			"0.022": 0.0,
			"0.023": 0.0,
			"0.024": 0.0,
			"0.025": 0.0
		}
	}
}
