{
	 "smiles": "CCOC(=O)CN(CCCN(CC(=O)OCC)S(=O)(=O)C1=CC=C(C)C=C1)S(=O)(=O)C1=CC=C(C)C=C1", 
	 "Tm": 403.15, 
	 "num_atms": 71, 
	 "gaussian": { 
		 "optdone": 1, 
		 "sigma_profile": "yes", 
		 "theory": "DFT", 
		 "functional": "B3LYP", 
		 "basiset": "6-31G**", 
		 "properties": { 
			 "R2extent": 21081.2405, 
			 "electric_dipole_moment_norm": 8.24997436723, 
			 "electric_quadrupole_moment_norm": 35.4409616956, 
			 "total_energy": -2480.71305387, 
			 "HOMO_LUMO_gap": 0.19596, 
			 "cosmo_polarized_energy": -29.22, 
			 "cosmo_cavitation_energy": 74.05, 
			 "cosmo_dispersion_energy": -44.68, 
			 "cosmo_repulsion_energy": 3.3, 
			 "cosmo_total_nonelectrostatic_energy": 32.67, 
			 "SMD_solvation_energy": 12.34 
		},
		"coords": [
			{
				"x": 1.690869307,
				"y": 3.3439920164,
				"z": 4.0663050677,
				"element": "C" 
			},
			{
				"x": 2.2146387822,
				"y": 2.1085635664,
				"z": 3.3601817519,
				"element": "C" 
			},
			{
				"x": 1.1032162913,
				"y": 1.4973519752,
				"z": 2.6582261123,
				"element": "O" 
			},
			{
				"x": 1.4047654594,
				"y": 0.402121671,
				"z": 1.9247250657,
				"element": "C" 
			},
			{
				"x": 2.5234460738,
				"y": -0.0439159912,
				"z": 1.8019579505,
				"element": "O" 
			},
			{
				"x": 0.138301634,
				"y": -0.1840710739,
				"z": 1.308670434,
				"element": "C" 
			},
			{
				"x": 0.376944104,
				"y": -1.0074452107,
				"z": 0.1361331488,
				"element": "N" 
			},
			{
				"x": 1.057864122,
				"y": -0.3800375802,
				"z": -1.0154787345,
				"element": "C" 
			},
			{
				"x": 0.2885031013,
				"y": -0.407130059,
				"z": -2.3419869944,
				"element": "C" 
			},
			{
				"x": -1.2069586518,
				"y": -0.0930584656,
				"z": -2.2633664379,
				"element": "C" 
			},
			{
				"x": -1.6342227811,
				"y": 1.098694828,
				"z": -1.4594377189,
				"element": "N" 
			},
			{
				"x": -3.1075286832,
				"y": 1.0920566675,
				"z": -1.3088870184,
				"element": "C" 
			},
			{
				"x": -3.5797890523,
				"y": -0.0462746195,
				"z": -0.406474481,
				"element": "C" 
			},
			{
				"x": -4.2913809375,
				"y": -0.9485903919,
				"z": -0.7891786834,
				"element": "O" 
			},
			{
				"x": -3.1453947726,
				"y": 0.1054707671,
				"z": 0.8568246632,
				"element": "O" 
			},
			{
				"x": -3.5222643873,
				"y": -0.9374588087,
				"z": 1.8000837311,
				"element": "C" 
			},
			{
				"x": -3.4280003153,
				"y": -0.3501123128,
				"z": 3.1956722181,
				"element": "C" 
			},
			{
				"x": -1.0852777542,
				"y": 2.5986051409,
				"z": -2.1105268918,
				"element": "S" 
			},
			{
				"x": -1.7869429184,
				"y": 2.9057708734,
				"z": -3.366777473,
				"element": "O" 
			},
			{
				"x": 0.3818598065,
				"y": 2.5505235635,
				"z": -2.0870059632,
				"element": "O" 
			},
			{
				"x": -1.632688957,
				"y": 3.7740464557,
				"z": -0.869419386,
				"element": "C" 
			},
			{
				"x": -2.5797222712,
				"y": 4.7343172069,
				"z": -1.2259315793,
				"element": "C" 
			},
			{
				"x": -2.9698863238,
				"y": 5.6860215478,
				"z": -0.2837958868,
				"element": "C" 
			},
			{
				"x": -2.4273723925,
				"y": 5.6909576126,
				"z": 1.0076601508,
				"element": "C" 
			},
			{
				"x": -2.8351373615,
				"y": 6.7361769318,
				"z": 2.0173752763,
				"element": "C" 
			},
			{
				"x": -1.4741399044,
				"y": 4.7134949906,
				"z": 1.3363938501,
				"element": "C" 
			},
			{
				"x": -1.0644343816,
				"y": 3.7614260901,
				"z": 0.4078121469,
				"element": "C" 
			},
			{
				"x": 0.3634029005,
				"y": -2.679705005,
				"z": 0.2735255096,
				"element": "S" 
			},
			{
				"x": -0.015540254,
				"y": -3.1914783517,
				"z": -1.0476031557,
				"element": "O" 
			},
			{
				"x": -0.4394055392,
				"y": -2.9761402247,
				"z": 1.4701748112,
				"element": "O" 
			},
			{
				"x": 2.0345237089,
				"y": -3.2537090231,
				"z": 0.584171672,
				"element": "C" 
			},
			{
				"x": 2.5169385545,
				"y": -3.3113885885,
				"z": 1.8939167268,
				"element": "C" 
			},
			{
				"x": 3.814406511,
				"y": -3.7587365417,
				"z": 2.1200252623,
				"element": "C" 
			},
			{
				"x": 4.6469199631,
				"y": -4.1439409413,
				"z": 1.0575804016,
				"element": "C" 
			},
			{
				"x": 6.0636756173,
				"y": -4.5962115167,
				"z": 1.316466609,
				"element": "C" 
			},
			{
				"x": 4.1353300807,
				"y": -4.0854944723,
				"z": -0.2448901835,
				"element": "C" 
			},
			{
				"x": 2.8347911943,
				"y": -3.6455271661,
				"z": -0.4902479058,
				"element": "C" 
			},
			{
				"x": 1.3030118784,
				"y": 4.0715154431,
				"z": 3.3470082064,
				"element": "H" 
			},
			{
				"x": 0.8915731812,
				"y": 3.0865749687,
				"z": 4.7673366302,
				"element": "H" 
			},
			{
				"x": 2.5004848295,
				"y": 3.8199566149,
				"z": 4.6281607212,
				"element": "H" 
			},
			{
				"x": 2.9985126757,
				"y": 2.3474747771,
				"z": 2.6357606922,
				"element": "H" 
			},
			{
				"x": 2.6268088197,
				"y": 1.3780337588,
				"z": 4.0636224616,
				"element": "H" 
			},
			{
				"x": -0.5571527713,
				"y": 0.6164382541,
				"z": 1.0432320371,
				"element": "H" 
			},
			{
				"x": -0.3582593277,
				"y": -0.7913973583,
				"z": 2.0697984303,
				"element": "H" 
			},
			{
				"x": 2.0502174414,
				"y": -0.8252087768,
				"z": -1.1562315393,
				"element": "H" 
			},
			{
				"x": 1.2274082763,
				"y": 0.6607595482,
				"z": -0.7374323543,
				"element": "H" 
			},
			{
				"x": 0.7993249681,
				"y": 0.2840647977,
				"z": -3.0172945837,
				"element": "H" 
			},
			{
				"x": 0.3480277288,
				"y": -1.4065525254,
				"z": -2.782991477,
				"element": "H" 
			},
			{
				"x": -1.6997149082,
				"y": -0.9398862642,
				"z": -1.7810500357,
				"element": "H" 
			},
			{
				"x": -1.616405549,
				"y": -0.0198503762,
				"z": -3.2811873864,
				"element": "H" 
			},
			{
				"x": -3.6170069626,
				"y": 0.975899512,
				"z": -2.2720652801,
				"element": "H" 
			},
			{
				"x": -3.4227542696,
				"y": 2.0325221669,
				"z": -0.8506625581,
				"element": "H" 
			},
			{
				"x": -4.5335403692,
				"y": -1.2734099266,
				"z": 1.560730979,
				"element": "H" 
			},
			{
				"x": -2.8360925672,
				"y": -1.7786985419,
				"z": 1.6615422512,
				"element": "H" 
			},
			{
				"x": -3.6814016593,
				"y": -1.117420121,
				"z": 3.9337921535,
				"element": "H" 
			},
			{
				"x": -4.1213060375,
				"y": 0.4875041287,
				"z": 3.3171506528,
				"element": "H" 
			},
			{
				"x": -2.4167893837,
				"y": 0.008086085,
				"z": 3.4102279604,
				"element": "H" 
			},
			{
				"x": -2.9959691808,
				"y": 4.7282530037,
				"z": -2.2274232034,
				"element": "H" 
			},
			{
				"x": -3.7081818096,
				"y": 6.4347681155,
				"z": -0.5577086806,
				"element": "H" 
			},
			{
				"x": -2.0991096551,
				"y": 7.5486031725,
				"z": 2.0571667684,
				"element": "H" 
			},
			{
				"x": -3.8014637484,
				"y": 7.1814075482,
				"z": 1.7658459397,
				"element": "H" 
			},
			{
				"x": -2.9050880958,
				"y": 6.313481834,
				"z": 3.02432596,
				"element": "H" 
			},
			{
				"x": -1.0469012589,
				"y": 4.6978421106,
				"z": 2.3355533419,
				"element": "H" 
			},
			{
				"x": -0.3171204673,
				"y": 3.0233662304,
				"z": 0.6763596248,
				"element": "H" 
			},
			{
				"x": 1.8753785199,
				"y": -3.0304646025,
				"z": 2.7210264445,
				"element": "H" 
			},
			{
				"x": 4.1883970065,
				"y": -3.813939879,
				"z": 3.1390272513,
				"element": "H" 
			},
			{
				"x": 6.1308046934,
				"y": -5.2006978122,
				"z": 2.2263411402,
				"element": "H" 
			},
			{
				"x": 6.7304665262,
				"y": -3.7352671997,
				"z": 1.449577236,
				"element": "H" 
			},
			{
				"x": 6.4543814007,
				"y": -5.1882108911,
				"z": 0.4842781915,
				"element": "H" 
			},
			{
				"x": 4.7576719015,
				"y": -4.3975704016,
				"z": -1.0793384725,
				"element": "H" 
			},
			{
				"x": 2.4303786008,
				"y": -3.6338429539,
				"z": -1.496053569,
				"element": "H" 
			}
		],
		 "valence_orbital": [ 
			{
				"type": "occ",
				"energy": -0.26977,
				"method": "rhf"
			},
			{
				"type": "occ",
				"energy": -0.26575,
				"method": "rhf"
			},
			{
				"type": "occ",
				"energy": -0.25988,
				"method": "rhf"
			},
			{
				"type": "occ",
				"energy": -0.25496,
				"method": "rhf"
			},
			{
				"type": "occ",
				"energy": -0.23907,
				"method": "rhf"
			},
			{
				"type": "unocc",
				"energy": -0.04311,
				"method": "rhf"
			},
			{
				"type": "unocc",
				"energy": -0.02909,
				"method": "rhf"
			},
			{
				"type": "unocc",
				"energy": -0.02585,
				"method": "rhf"
			},
			{
				"type": "unocc",
				"energy": -0.01209,
				"method": "rhf"
			},
			{
				"type": "unocc",
				"energy": -0.00091,
				"method": "rhf"
			}
		],
		"cosmo_sigma_profile": { 
			"-0.025": 0.0,
			"-0.024": 0.0,
			"-0.023": 0.0,
			"-0.022": 0.0,
			"-0.021": 0.0,
			"-0.02": 0.0,
			"-0.019": 0.0,
			"-0.018": 0.0,
			"-0.017": 0.0,
			"-0.016": 0.0,
			"-0.015": 0.013925115268,
			"-0.014": 0.408780769981,
			"-0.013": 0.206196746298,
			"-0.012": 0.350030052701,
			"-0.011": 0.322672900108,
			"-0.01": 0.190721265505,
			"-0.009": 0.622697048768,
			"-0.008": 1.75672788948,
			"-0.007": 6.91370265199,
			"-0.006": 21.288863221,
			"-0.005": 45.9847331256,
			"-0.004": 64.60897714,
			"-0.003": 64.4560689051,
			"-0.002": 60.8318698051,
			"-0.001": 58.8924564716,
			"0.0": 53.3246413187,
			"0.001": 31.7738902706,
			"0.002": 30.3290579465,
			"0.003": 32.0672017331,
			"0.004": 16.61580718,
			"0.005": 11.5901061763,
			"0.006": 9.76927122157,
			"0.007": 10.3439459946,
			"0.008": 10.0618266415,
			"0.009": 10.4926002055,
			"0.01": 14.7259827131,
			"0.011": 18.6761624558,
			"0.012": 7.54425022376,
			"0.013": 0.137006227487,
			"0.014": 0.0,
			"0.015": 0.0,
			"0.016": 0.0,
			"0.017": 0.0,
			"0.018": 0.0,
			"0.019": 0.0,
			"0.02": 0.0,
			"0.021": 0.0,
			"0.022": 0.0,
			"0.023": 0.0,
			"0.024": 0.0,
			"0.025": 0.0
		}
	}
}
