{
	 "smiles": "[O-][N+](=O)C1=CN(CC2CO2)N=C1", 
	 "Tm": 342.15, 
	 "num_atms": 19, 
	 "gaussian": { 
		 "optdone": 1, 
		 "sigma_profile": "yes", 
		 "theory": "DFT", 
		 "functional": "B3LYP", 
		 "basiset": "6-31G**", 
		 "properties": { 
			 "R2extent": 2825.7518, 
			 "electric_dipole_moment_norm": 5.94914808439, 
			 "electric_quadrupole_moment_norm": 12.3590554587, 
			 "total_energy": -622.60415138, 
			 "HOMO_LUMO_gap": 0.2001, 
			 "cosmo_polarized_energy": -14.34, 
			 "cosmo_cavitation_energy": 24.44, 
			 "cosmo_dispersion_energy": -17.47, 
			 "cosmo_repulsion_energy": 1.4, 
			 "cosmo_total_nonelectrostatic_energy": 8.38, 
			 "SMD_solvation_energy": 6.2 
		},
		"coords": [
			{
				"x": 2.9427455608,
				"y": 0.6938189347,
				"z": -2.5621039708,
				"element": "O" 
			},
			{
				"x": 2.9759750394,
				"y": 1.6019571889,
				"z": -1.7273446359,
				"element": "N" 
			},
			{
				"x": 3.6363196705,
				"y": 2.6388647907,
				"z": -1.8266009694,
				"element": "O" 
			},
			{
				"x": 2.1850971975,
				"y": 1.4425405212,
				"z": -0.5466519786,
				"element": "C" 
			},
			{
				"x": 1.3731366086,
				"y": 0.3613417531,
				"z": -0.2455521644,
				"element": "C" 
			},
			{
				"x": 0.8422159002,
				"y": 0.6402705086,
				"z": 0.9634723715,
				"element": "N" 
			},
			{
				"x": -0.1245167993,
				"y": -0.1460287043,
				"z": 1.7124114596,
				"element": "C" 
			},
			{
				"x": -1.5340361135,
				"y": -0.0678461454,
				"z": 1.1499742259,
				"element": "C" 
			},
			{
				"x": -1.9994024624,
				"y": 1.0365582392,
				"z": 0.3041056411,
				"element": "C" 
			},
			{
				"x": -1.6604281894,
				"y": -0.2446027758,
				"z": -0.2600005708,
				"element": "O" 
			},
			{
				"x": 1.2526889225,
				"y": 1.8447193443,
				"z": 1.4600190973,
				"element": "N" 
			},
			{
				"x": 2.0753681994,
				"y": 2.334282172,
				"z": 0.5428076733,
				"element": "C" 
			},
			{
				"x": 1.1435017359,
				"y": -0.5320300436,
				"z": -0.8031275118,
				"element": "H" 
			},
			{
				"x": -0.1031086979,
				"y": 0.2290161268,
				"z": 2.7380594482,
				"element": "H" 
			},
			{
				"x": 0.2039412732,
				"y": -1.1908226874,
				"z": 1.7207992399,
				"element": "H" 
			},
			{
				"x": -2.2658370871,
				"y": -0.6148018622,
				"z": 1.7485385801,
				"element": "H" 
			},
			{
				"x": -3.0593253841,
				"y": 1.2855158198,
				"z": 0.2844908694,
				"element": "H" 
			},
			{
				"x": -1.3190208819,
				"y": 1.8491617695,
				"z": 0.0578151595,
				"element": "H" 
			},
			{
				"x": 2.5654855077,
				"y": 3.28708505,
				"z": 0.6767880359,
				"element": "H" 
			}
		],
		 "valence_orbital": [ 
			{
				"type": "occ",
				"energy": -0.29938,
				"method": "rhf"
			},
			{
				"type": "occ",
				"energy": -0.29871,
				"method": "rhf"
			},
			{
				"type": "occ",
				"energy": -0.2866,
				"method": "rhf"
			},
			{
				"type": "occ",
				"energy": -0.28412,
				"method": "rhf"
			},
			{
				"type": "occ",
				"energy": -0.27657,
				"method": "rhf"
			},
			{
				"type": "unocc",
				"energy": -0.07647,
				"method": "rhf"
			},
			{
				"type": "unocc",
				"energy": -0.01111,
				"method": "rhf"
			},
			{
				"type": "unocc",
				"energy": 0.06747,
				"method": "rhf"
			},
			{
				"type": "unocc",
				"energy": 0.075,
				"method": "rhf"
			},
			{
				"type": "unocc",
				"energy": 0.08469,
				"method": "rhf"
			}
		],
		"cosmo_sigma_profile": { 
			"-0.025": 0.0,
			"-0.024": 0.0,
			"-0.023": 0.0,
			"-0.022": 0.0,
			"-0.021": 0.0,
			"-0.02": 0.0,
			"-0.019": 0.0,
			"-0.018": 0.0,
			"-0.017": 0.0,
			"-0.016": 0.0,
			"-0.015": 0.0,
			"-0.014": 0.0,
			"-0.013": 0.0,
			"-0.012": 0.0,
			"-0.011": 0.730520293185,
			"-0.01": 1.62572968651,
			"-0.009": 4.33866747143,
			"-0.008": 8.95822552828,
			"-0.007": 13.5780837418,
			"-0.006": 12.1331583153,
			"-0.005": 13.5624849362,
			"-0.004": 12.0669756628,
			"-0.003": 12.0763583234,
			"-0.002": 13.226349683,
			"-0.001": 16.0236073664,
			"0.0": 9.38993175351,
			"0.001": 6.97999056722,
			"0.002": 6.14547779546,
			"0.003": 4.78988013199,
			"0.004": 6.08882472683,
			"0.005": 5.78508001647,
			"0.006": 4.83724538314,
			"0.007": 7.08156773634,
			"0.008": 14.8930236433,
			"0.009": 7.76141366304,
			"0.01": 6.53955770181,
			"0.011": 3.59386157747,
			"0.012": 2.06924395798,
			"0.013": 0.694167560501,
			"0.014": 0.27628675759,
			"0.015": 0.0,
			"0.016": 0.0,
			"0.017": 0.0,
			"0.018": 0.0,
			"0.019": 0.0,
			"0.02": 0.0,
			"0.021": 0.0,
			"0.022": 0.0,
			"0.023": 0.0,
			"0.024": 0.0,
			"0.025": 0.0
		}
	}
}
