{
	 "smiles": "CN1C(=O)C(C2=NNC(=O)C2=C/C2=CC=CC(=C2)[N+]([O-])=O)=C(O)C2=CC=CC=C12", 
	 "Tm": 534.15, 
	 "num_atms": 43, 
	 "gaussian": { 
		 "optdone": 1, 
		 "sigma_profile": "yes", 
		 "theory": "DFT", 
		 "functional": "B3LYP", 
		 "basiset": "6-31G**", 
		 "properties": { 
			 "R2extent": 14625.4411, 
			 "electric_dipole_moment_norm": 11.5832675295, 
			 "electric_quadrupole_moment_norm": 24.5558584134, 
			 "total_energy": -1365.57682036, 
			 "HOMO_LUMO_gap": 0.12301, 
			 "cosmo_polarized_energy": -31.24, 
			 "cosmo_cavitation_energy": 48.6, 
			 "cosmo_dispersion_energy": -34.46, 
			 "cosmo_repulsion_energy": 2.53, 
			 "cosmo_total_nonelectrostatic_energy": 16.66, 
			 "SMD_solvation_energy": 10.58 
		},
		"coords": [
			{
				"x": -1.7332243174,
				"y": 2.2429170497,
				"z": -3.1186177767,
				"element": "C" 
			},
			{
				"x": -0.8889128279,
				"y": 2.3761574594,
				"z": -1.9309840588,
				"element": "N" 
			},
			{
				"x": -1.054287071,
				"y": 1.4013686592,
				"z": -0.9220270503,
				"element": "C" 
			},
			{
				"x": -1.8572056406,
				"y": 0.4804883849,
				"z": -1.0740577837,
				"element": "O" 
			},
			{
				"x": -0.2180643574,
				"y": 1.5369442928,
				"z": 0.2673801085,
				"element": "C" 
			},
			{
				"x": -0.4070786626,
				"y": 0.5586123659,
				"z": 1.3599594454,
				"element": "C" 
			},
			{
				"x": -0.7389436154,
				"y": 0.9696193539,
				"z": 2.552502107,
				"element": "N" 
			},
			{
				"x": -0.7980434505,
				"y": -0.1433493399,
				"z": 3.3572058812,
				"element": "N" 
			},
			{
				"x": -0.5031995621,
				"y": -1.3331445032,
				"z": 2.7269471297,
				"element": "C" 
			},
			{
				"x": -0.4970651358,
				"y": -2.4343870473,
				"z": 3.2673835097,
				"element": "O" 
			},
			{
				"x": -0.2198576815,
				"y": -0.8985024799,
				"z": 1.3205757898,
				"element": "C" 
			},
			{
				"x": 0.1308583473,
				"y": -1.6041370745,
				"z": 0.2135288752,
				"element": "C" 
			},
			{
				"x": 0.3791832134,
				"y": -3.0177996487,
				"z": -0.0429509767,
				"element": "C" 
			},
			{
				"x": 0.7019027327,
				"y": -3.3672706977,
				"z": -1.374161303,
				"element": "C" 
			},
			{
				"x": 0.9624852746,
				"y": -4.6837369912,
				"z": -1.7419534348,
				"element": "C" 
			},
			{
				"x": 0.9112795378,
				"y": -5.6955762837,
				"z": -0.7858882069,
				"element": "C" 
			},
			{
				"x": 0.5938054507,
				"y": -5.3471250245,
				"z": 0.5269255732,
				"element": "C" 
			},
			{
				"x": 0.3253547608,
				"y": -4.0434121635,
				"z": 0.9245233247,
				"element": "C" 
			},
			{
				"x": 0.5432200404,
				"y": -6.4230338957,
				"z": 1.5390438878,
				"element": "N" 
			},
			{
				"x": 0.7760672166,
				"y": -7.5706545223,
				"z": 1.155961055,
				"element": "O" 
			},
			{
				"x": 0.2753879779,
				"y": -6.1105129651,
				"z": 2.6950524247,
				"element": "O" 
			},
			{
				"x": 0.6913247883,
				"y": 2.557292894,
				"z": 0.3732394265,
				"element": "C" 
			},
			{
				"x": 1.4802791176,
				"y": 2.6145280603,
				"z": 1.469199081,
				"element": "O" 
			},
			{
				"x": 0.8125637529,
				"y": 3.5614889105,
				"z": -0.6660178286,
				"element": "C" 
			},
			{
				"x": 1.6868388443,
				"y": 4.660476227,
				"z": -0.5638376416,
				"element": "C" 
			},
			{
				"x": 1.7939097892,
				"y": 5.6000881894,
				"z": -1.5763930489,
				"element": "C" 
			},
			{
				"x": 1.0068644232,
				"y": 5.4547506481,
				"z": -2.7254523849,
				"element": "C" 
			},
			{
				"x": 0.1215308832,
				"y": 4.3937560684,
				"z": -2.8501941139,
				"element": "C" 
			},
			{
				"x": 0.0008561928,
				"y": 3.4325624333,
				"z": -1.8249801483,
				"element": "C" 
			},
			{
				"x": -1.1209489879,
				"y": 2.1184901918,
				"z": -4.017361871,
				"element": "H" 
			},
			{
				"x": -2.3503182388,
				"y": 1.3595699862,
				"z": -2.9712070895,
				"element": "H" 
			},
			{
				"x": -2.3736494444,
				"y": 3.1221620748,
				"z": -3.2381367453,
				"element": "H" 
			},
			{
				"x": -1.0583240024,
				"y": -0.0465372418,
				"z": 4.3260774637,
				"element": "H" 
			},
			{
				"x": 0.2401573765,
				"y": -0.9934239415,
				"z": -0.6793736681,
				"element": "H" 
			},
			{
				"x": 0.7417835757,
				"y": -2.5848531678,
				"z": -2.1268125759,
				"element": "H" 
			},
			{
				"x": 1.2052954111,
				"y": -4.9237415355,
				"z": -2.7720704973,
				"element": "H" 
			},
			{
				"x": 1.108123667,
				"y": -6.7317105738,
				"z": -1.0299395628,
				"element": "H" 
			},
			{
				"x": 0.0754122583,
				"y": -3.8210498938,
				"z": 1.9564387054,
				"element": "H" 
			},
			{
				"x": 2.1835676486,
				"y": 3.2626097142,
				"z": 1.3392137974,
				"element": "H" 
			},
			{
				"x": 2.2816458606,
				"y": 4.8069781711,
				"z": 0.3347698101,
				"element": "H" 
			},
			{
				"x": 2.4726176759,
				"y": 6.4400617749,
				"z": -1.4742308604,
				"element": "H" 
			},
			{
				"x": 1.0793071357,
				"y": 6.1815299019,
				"z": -3.5289169695,
				"element": "H" 
			},
			{
				"x": -0.4817999572,
				"y": 4.3108061799,
				"z": -3.7444617989,
				"element": "H" 
			}
		],
		 "valence_orbital": [ 
			{
				"type": "occ",
				"energy": -0.26432,
				"method": "rhf"
			},
			{
				"type": "occ",
				"energy": -0.2527,
				"method": "rhf"
			},
			{
				"type": "occ",
				"energy": -0.24823,
				"method": "rhf"
			},
			{
				"type": "occ",
				"energy": -0.23242,
				"method": "rhf"
			},
			{
				"type": "occ",
				"energy": -0.21787,
				"method": "rhf"
			},
			{
				"type": "unocc",
				"energy": -0.09486,
				"method": "rhf"
			},
			{
				"type": "unocc",
				"energy": -0.07925,
				"method": "rhf"
			},
			{
				"type": "unocc",
				"energy": -0.0662,
				"method": "rhf"
			},
			{
				"type": "unocc",
				"energy": -0.02497,
				"method": "rhf"
			},
			{
				"type": "unocc",
				"energy": -0.00855,
				"method": "rhf"
			}
		],
		"cosmo_sigma_profile": { 
			"-0.025": 0.0,
			"-0.024": 0.0,
			"-0.023": 0.0,
			"-0.022": 0.0,
			"-0.021": 0.0,
			"-0.02": 0.0280129980478,
			"-0.019": 0.591335576768,
			"-0.018": 0.844676543882,
			"-0.017": 1.36839174698,
			"-0.016": 2.21579390744,
			"-0.015": 1.79003160884,
			"-0.014": 1.53722280197,
			"-0.013": 1.8559324552,
			"-0.012": 1.96279980428,
			"-0.011": 2.18016860109,
			"-0.01": 2.33353745001,
			"-0.009": 3.89011098049,
			"-0.008": 7.73858841376,
			"-0.007": 15.3875213317,
			"-0.006": 22.875504465,
			"-0.005": 21.459100162,
			"-0.004": 19.404391317,
			"-0.003": 21.093495928,
			"-0.002": 28.9214696994,
			"-0.001": 36.8304212126,
			"0.0": 36.6101508285,
			"0.001": 25.6499081575,
			"0.002": 17.4836762315,
			"0.003": 17.977020673,
			"0.004": 14.7513954124,
			"0.005": 8.76903162492,
			"0.006": 9.51957572889,
			"0.007": 14.7961686901,
			"0.008": 13.2314896304,
			"0.009": 9.38167634169,
			"0.01": 8.10496496306,
			"0.011": 6.4667949009,
			"0.012": 5.07946587997,
			"0.013": 6.90327816908,
			"0.014": 2.74390447768,
			"0.015": 0.119897061984,
			"0.016": 0.0,
			"0.017": 0.0,
			"0.018": 0.0,
			"0.019": 0.0,
			"0.02": 0.0,
			"0.021": 0.0,
			"0.022": 0.0,
			"0.023": 0.0,
			"0.024": 0.0,
			"0.025": 0.0
		}
	}
}
