{
	 "smiles": "BrC1=CC=C(OC2=CC=CC=C2Br)C=C1Br", 
	 "Tm": 293.15, 
	 "num_atms": 23, 
	 "gaussian": { 
		 "optdone": 1, 
		 "sigma_profile": "yes", 
		 "theory": "DFT", 
		 "functional": "B3LYP", 
		 "basiset": "6-31G**", 
		 "properties": { 
			 "R2extent": 9799.9261, 
			 "electric_dipole_moment_norm": 2.87953151398, 
			 "electric_quadrupole_moment_norm": 14.2582444821, 
			 "total_energy": -8250.9136251, 
			 "HOMO_LUMO_gap": 0.19851, 
			 "cosmo_polarized_energy": -7.17, 
			 "cosmo_cavitation_energy": 34.97, 
			 "cosmo_dispersion_energy": -25.78, 
			 "cosmo_repulsion_energy": 2.04, 
			 "cosmo_total_nonelectrostatic_energy": 11.22, 
			 "SMD_solvation_energy": 2.85 
		},
		"coords": [
			{
				"x": 3.9401898302,
				"y": 1.4024210021,
				"z": 2.6253452311,
				"element": "Br" 
			},
			{
				"x": 2.6927184761,
				"y": 0.7560107374,
				"z": 1.344291872,
				"element": "C" 
			},
			{
				"x": 3.0339686291,
				"y": 0.8284872658,
				"z": -0.0102368424,
				"element": "C" 
			},
			{
				"x": 2.1588475508,
				"y": 0.3804304626,
				"z": -0.9910175238,
				"element": "C" 
			},
			{
				"x": 0.9223782901,
				"y": -0.1541730218,
				"z": -0.6178952675,
				"element": "C" 
			},
			{
				"x": 0.1271204824,
				"y": -0.6099474158,
				"z": -1.643652406,
				"element": "O" 
			},
			{
				"x": -1.2174046445,
				"y": -0.8398757638,
				"z": -1.4400831719,
				"element": "C" 
			},
			{
				"x": -2.0852302014,
				"y": 0.2131462872,
				"z": -1.136720796,
				"element": "C" 
			},
			{
				"x": -3.453597421,
				"y": -0.0201516108,
				"z": -1.0176819799,
				"element": "C" 
			},
			{
				"x": -3.9627751448,
				"y": -1.3059339375,
				"z": -1.2123239638,
				"element": "C" 
			},
			{
				"x": -3.1026875937,
				"y": -2.3584992517,
				"z": -1.5228810536,
				"element": "C" 
			},
			{
				"x": -1.7307404396,
				"y": -2.1275153405,
				"z": -1.6317615518,
				"element": "C" 
			},
			{
				"x": -0.5611841634,
				"y": -3.56945279,
				"z": -2.0484893907,
				"element": "Br" 
			},
			{
				"x": 0.5687940483,
				"y": -0.2428993579,
				"z": 0.7284484271,
				"element": "C" 
			},
			{
				"x": 1.4550253991,
				"y": 0.2164410212,
				"z": 1.7058443511,
				"element": "C" 
			},
			{
				"x": 0.9107587972,
				"y": 0.0702559621,
				"z": 3.5230445208,
				"element": "Br" 
			},
			{
				"x": 3.9945805861,
				"y": 1.2455731325,
				"z": -0.2895888556,
				"element": "H" 
			},
			{
				"x": 2.4176448479,
				"y": 0.4346469231,
				"z": -2.0424829683,
				"element": "H" 
			},
			{
				"x": -1.6723984434,
				"y": 1.2077850543,
				"z": -1.0027257539,
				"element": "H" 
			},
			{
				"x": -4.1201334623,
				"y": 0.8034582784,
				"z": -0.781989496,
				"element": "H" 
			},
			{
				"x": -5.0284009701,
				"y": -1.4932789153,
				"z": -1.1259567199,
				"element": "H" 
			},
			{
				"x": -3.4854907609,
				"y": -3.3608293238,
				"z": -1.6777132978,
				"element": "H" 
			},
			{
				"x": -0.381783692,
				"y": -0.6663993978,
				"z": 1.0251266368,
				"element": "H" 
			}
		],
		 "valence_orbital": [ 
			{
				"type": "occ",
				"energy": -0.27782,
				"method": "rhf"
			},
			{
				"type": "occ",
				"energy": -0.26937,
				"method": "rhf"
			},
			{
				"type": "occ",
				"energy": -0.25749,
				"method": "rhf"
			},
			{
				"type": "occ",
				"energy": -0.25103,
				"method": "rhf"
			},
			{
				"type": "occ",
				"energy": -0.2314,
				"method": "rhf"
			},
			{
				"type": "unocc",
				"energy": -0.03289,
				"method": "rhf"
			},
			{
				"type": "unocc",
				"energy": -0.02774,
				"method": "rhf"
			},
			{
				"type": "unocc",
				"energy": -0.02121,
				"method": "rhf"
			},
			{
				"type": "unocc",
				"energy": -0.02037,
				"method": "rhf"
			},
			{
				"type": "unocc",
				"energy": -0.01187,
				"method": "rhf"
			}
		],
		"cosmo_sigma_profile": { 
			"-0.025": 0.0,
			"-0.024": 0.0,
			"-0.023": 0.0,
			"-0.022": 0.0,
			"-0.021": 0.0,
			"-0.02": 0.0,
			"-0.019": 0.0,
			"-0.018": 0.0,
			"-0.017": 0.0,
			"-0.016": 0.0,
			"-0.015": 0.0,
			"-0.014": 0.0,
			"-0.013": 0.0,
			"-0.012": 0.0,
			"-0.011": 0.0,
			"-0.01": 0.0,
			"-0.009": 0.0,
			"-0.008": 2.90356354337,
			"-0.007": 11.4013983736,
			"-0.006": 13.5880927851,
			"-0.005": 16.4966998136,
			"-0.004": 16.5713781472,
			"-0.003": 15.9173890533,
			"-0.002": 15.7051974253,
			"-0.001": 17.6921467571,
			"0.0": 24.6006498157,
			"0.001": 40.5735437208,
			"0.002": 35.6363535171,
			"0.003": 31.5453700996,
			"0.004": 32.4296893452,
			"0.005": 10.9718802584,
			"0.006": 2.68551776414,
			"0.007": 1.90232090387,
			"0.008": 1.08565984466,
			"0.009": 0.0,
			"0.01": 0.0,
			"0.011": 0.0,
			"0.012": 0.0,
			"0.013": 0.0,
			"0.014": 0.0,
			"0.015": 0.0,
			"0.016": 0.0,
			"0.017": 0.0,
			"0.018": 0.0,
			"0.019": 0.0,
			"0.02": 0.0,
			"0.021": 0.0,
			"0.022": 0.0,
			"0.023": 0.0,
			"0.024": 0.0,
			"0.025": 0.0
		}
	}
}
