{
	 "smiles": "CCCCCCCCCCCCCCCCCC[Si](C)(C)Cl", 
	 "Tm": 303.15, 
	 "num_atms": 65, 
	 "gaussian": { 
		 "optdone": 1, 
		 "sigma_profile": "yes", 
		 "theory": "DFT", 
		 "functional": "B3LYP", 
		 "basiset": "6-31G**", 
		 "properties": { 
			 "R2extent": 16206.7883, 
			 "electric_dipole_moment_norm": 2.53374422742, 
			 "electric_quadrupole_moment_norm": 22.2108718082, 
			 "total_energy": -1537.87184616, 
			 "HOMO_LUMO_gap": 0.32663, 
			 "cosmo_polarized_energy": -4.89, 
			 "cosmo_cavitation_energy": 65.01, 
			 "cosmo_dispersion_energy": -38.13, 
			 "cosmo_repulsion_energy": 3.16, 
			 "cosmo_total_nonelectrostatic_energy": 30.04, 
			 "SMD_solvation_energy": 9.13 
		},
		"coords": [
			{
				"x": -3.1827018228,
				"y": -4.7489479426,
				"z": -0.3113964269,
				"element": "C" 
			},
			{
				"x": -1.7518369513,
				"y": -4.4852223598,
				"z": 0.1706566946,
				"element": "C" 
			},
			{
				"x": -1.7026381063,
				"y": -3.5945411856,
				"z": 1.4196381757,
				"element": "C" 
			},
			{
				"x": -0.3117366736,
				"y": -3.3622212704,
				"z": 2.0370489296,
				"element": "C" 
			},
			{
				"x": 0.7048630766,
				"y": -2.6068941153,
				"z": 1.1498911374,
				"element": "C" 
			},
			{
				"x": 1.6280947795,
				"y": -3.5109751486,
				"z": 0.3156395294,
				"element": "C" 
			},
			{
				"x": 2.5821201882,
				"y": -2.7591253305,
				"z": -0.6283983032,
				"element": "C" 
			},
			{
				"x": 3.6452384928,
				"y": -1.9043957604,
				"z": 0.0797639789,
				"element": "C" 
			},
			{
				"x": 4.6643384549,
				"y": -1.2557728468,
				"z": -0.877475525,
				"element": "C" 
			},
			{
				"x": 4.1373017376,
				"y": -0.1061336137,
				"z": -1.7682061673,
				"element": "C" 
			},
			{
				"x": 4.3299515654,
				"y": 1.3142319633,
				"z": -1.2006232463,
				"element": "C" 
			},
			{
				"x": 3.5554500983,
				"y": 1.6732929447,
				"z": 0.0791405087,
				"element": "C" 
			},
			{
				"x": 2.0278197256,
				"y": 1.6852876377,
				"z": -0.0758568452,
				"element": "C" 
			},
			{
				"x": 1.3060054922,
				"y": 2.1382456103,
				"z": 1.2013537387,
				"element": "C" 
			},
			{
				"x": -0.2304679409,
				"y": 2.0396788,
				"z": 1.1936800232,
				"element": "C" 
			},
			{
				"x": -0.9770319652,
				"y": 2.9640384343,
				"z": 0.2068853809,
				"element": "C" 
			},
			{
				"x": -1.2220670532,
				"y": 2.365172898,
				"z": -1.1879144304,
				"element": "C" 
			},
			{
				"x": -2.0982332776,
				"y": 3.2380947739,
				"z": -2.1119820064,
				"element": "C" 
			},
			{
				"x": -1.3834751189,
				"y": 4.8436363154,
				"z": -2.8138763042,
				"element": "Si" 
			},
			{
				"x": -2.4683551118,
				"y": 5.4555359525,
				"z": -4.2252177145,
				"element": "C" 
			},
			{
				"x": 0.4067192291,
				"y": 4.6522547211,
				"z": -3.3613833829,
				"element": "C" 
			},
			{
				"x": -1.4205946714,
				"y": 6.3584801772,
				"z": -1.3395361501,
				"element": "Cl" 
			},
			{
				"x": -3.1956498381,
				"y": -5.3817491,
				"z": -1.2049716791,
				"element": "H" 
			},
			{
				"x": -3.6957130744,
				"y": -3.8126155341,
				"z": -0.5599833829,
				"element": "H" 
			},
			{
				"x": -3.7746267437,
				"y": -5.2522861545,
				"z": 0.4617299512,
				"element": "H" 
			},
			{
				"x": -1.2556574616,
				"y": -5.4416526658,
				"z": 0.3856793987,
				"element": "H" 
			},
			{
				"x": -1.1801480755,
				"y": -4.0202259305,
				"z": -0.6420196421,
				"element": "H" 
			},
			{
				"x": -2.3503974948,
				"y": -4.0386251505,
				"z": 2.1886340252,
				"element": "H" 
			},
			{
				"x": -2.150874319,
				"y": -2.6194628432,
				"z": 1.1786517243,
				"element": "H" 
			},
			{
				"x": -0.4579812264,
				"y": -2.79755354,
				"z": 2.9662194771,
				"element": "H" 
			},
			{
				"x": 0.1184744076,
				"y": -4.3270231809,
				"z": 2.3414613127,
				"element": "H" 
			},
			{
				"x": 0.165441242,
				"y": -1.9193107965,
				"z": 0.4814348053,
				"element": "H" 
			},
			{
				"x": 1.3259258468,
				"y": -1.9704441036,
				"z": 1.79117923,
				"element": "H" 
			},
			{
				"x": 2.2177162073,
				"y": -4.1395111203,
				"z": 0.9987920434,
				"element": "H" 
			},
			{
				"x": 1.0222488849,
				"y": -4.2037552255,
				"z": -0.2797799613,
				"element": "H" 
			},
			{
				"x": 1.9891671181,
				"y": -2.1336264268,
				"z": -1.3101808022,
				"element": "H" 
			},
			{
				"x": 3.0958654394,
				"y": -3.4929341301,
				"z": -1.2649814987,
				"element": "H" 
			},
			{
				"x": 4.1905386352,
				"y": -2.547626053,
				"z": 0.7847114984,
				"element": "H" 
			},
			{
				"x": 3.1613550266,
				"y": -1.1327680727,
				"z": 0.6889843957,
				"element": "H" 
			},
			{
				"x": 5.5191457436,
				"y": -0.8860691421,
				"z": -0.2949315407,
				"element": "H" 
			},
			{
				"x": 5.0678116474,
				"y": -2.0489215509,
				"z": -1.5213231467,
				"element": "H" 
			},
			{
				"x": 4.6657906037,
				"y": -0.1402808798,
				"z": -2.7291100177,
				"element": "H" 
			},
			{
				"x": 3.0810746895,
				"y": -0.2732145557,
				"z": -2.0135337546,
				"element": "H" 
			},
			{
				"x": 5.4020383133,
				"y": 1.4641782504,
				"z": -1.0124047709,
				"element": "H" 
			},
			{
				"x": 4.0598679109,
				"y": 2.0377582566,
				"z": -1.9828692153,
				"element": "H" 
			},
			{
				"x": 3.8804342106,
				"y": 2.6705080327,
				"z": 0.4068362941,
				"element": "H" 
			},
			{
				"x": 3.8354715939,
				"y": 0.9906950544,
				"z": 0.8924190949,
				"element": "H" 
			},
			{
				"x": 1.7661078246,
				"y": 2.3487453632,
				"z": -0.9109466121,
				"element": "H" 
			},
			{
				"x": 1.66986939,
				"y": 0.6856978639,
				"z": -0.356499225,
				"element": "H" 
			},
			{
				"x": 1.6792729352,
				"y": 1.5346333048,
				"z": 2.040696416,
				"element": "H" 
			},
			{
				"x": 1.5949241411,
				"y": 3.1745387953,
				"z": 1.4280103422,
				"element": "H" 
			},
			{
				"x": -0.5740515177,
				"y": 2.2737981193,
				"z": 2.2089977551,
				"element": "H" 
			},
			{
				"x": -0.5282923484,
				"y": 0.9963448681,
				"z": 1.0136694766,
				"element": "H" 
			},
			{
				"x": -1.956235592,
				"y": 3.2166501696,
				"z": 0.6346588462,
				"element": "H" 
			},
			{
				"x": -0.4416114676,
				"y": 3.9185489916,
				"z": 0.1242589637,
				"element": "H" 
			},
			{
				"x": -1.7161518302,
				"y": 1.3919958507,
				"z": -1.0592994034,
				"element": "H" 
			},
			{
				"x": -0.2691736736,
				"y": 2.147724728,
				"z": -1.6837895212,
				"element": "H" 
			},
			{
				"x": -3.0482229295,
				"y": 3.475184043,
				"z": -1.6136643002,
				"element": "H" 
			},
			{
				"x": -2.3757126523,
				"y": 2.6487694079,
				"z": -2.999551122,
				"element": "H" 
			},
			{
				"x": -3.5054527966,
				"y": 5.5839064986,
				"z": -3.8996034318,
				"element": "H" 
			},
			{
				"x": -2.1143426566,
				"y": 6.4185208656,
				"z": -4.6058762582,
				"element": "H" 
			},
			{
				"x": -2.4614005855,
				"y": 4.7398979569,
				"z": -5.0557809649,
				"element": "H" 
			},
			{
				"x": 1.0560421194,
				"y": 4.3763888762,
				"z": -2.5250375588,
				"element": "H" 
			},
			{
				"x": 0.7864174558,
				"y": 5.58607522,
				"z": -3.7874779382,
				"element": "H" 
			},
			{
				"x": 0.4925307492,
				"y": 3.872074985,
				"z": -4.1270408974,
				"element": "H" 
			}
		],
		 "valence_orbital": [ 
			{
				"type": "occ",
				"energy": -0.2985,
				"method": "rhf"
			},
			{
				"type": "occ",
				"energy": -0.29444,
				"method": "rhf"
			},
			{
				"type": "occ",
				"energy": -0.29413,
				"method": "rhf"
			},
			{
				"type": "occ",
				"energy": -0.28881,
				"method": "rhf"
			},
			{
				"type": "occ",
				"energy": -0.27797,
				"method": "rhf"
			},
			{
				"type": "unocc",
				"energy": 0.04866,
				"method": "rhf"
			},
			{
				"type": "unocc",
				"energy": 0.05503,
				"method": "rhf"
			},
			{
				"type": "unocc",
				"energy": 0.06863,
				"method": "rhf"
			},
			{
				"type": "unocc",
				"energy": 0.08022,
				"method": "rhf"
			},
			{
				"type": "unocc",
				"energy": 0.08401,
				"method": "rhf"
			}
		],
		"cosmo_sigma_profile": { 
			"-0.025": 0.0,
			"-0.024": 0.0,
			"-0.023": 0.0,
			"-0.022": 0.0,
			"-0.021": 0.0,
			"-0.02": 0.0,
			"-0.019": 0.0,
			"-0.018": 0.0,
			"-0.017": 0.0,
			"-0.016": 0.0,
			"-0.015": 0.0,
			"-0.014": 0.0,
			"-0.013": 0.0,
			"-0.012": 0.0,
			"-0.011": 0.0,
			"-0.01": 0.0,
			"-0.009": 0.0,
			"-0.008": 0.0,
			"-0.007": 0.0,
			"-0.006": 0.0,
			"-0.005": 3.82797352833,
			"-0.004": 14.9827228628,
			"-0.003": 20.9439573764,
			"-0.002": 55.0306134305,
			"-0.001": 113.081684919,
			"0.0": 117.739896274,
			"0.001": 92.6005842536,
			"0.002": 42.2226850426,
			"0.003": 6.31656725122,
			"0.004": 6.43657539146,
			"0.005": 6.541242769,
			"0.006": 8.71944415836,
			"0.007": 8.02542311749,
			"0.008": 0.0709941733812,
			"0.009": 0.0,
			"0.01": 0.0,
			"0.011": 0.0,
			"0.012": 0.0,
			"0.013": 0.0,
			"0.014": 0.0,
			"0.015": 0.0,
			"0.016": 0.0,
			"0.017": 0.0,
			"0.018": 0.0,
			"0.019": 0.0,
			"0.02": 0.0,
			"0.021": 0.0,
			"0.022": 0.0,
			"0.023": 0.0,
			"0.024": 0.0,
			"0.025": 0.0
		}
	}
}
