{
	 "smiles": "FC1=CC=CN2C=C(C=O)N=C12", 
	 "Tm": 437.15, 
	 "num_atms": 17, 
	 "gaussian": { 
		 "optdone": 1, 
		 "sigma_profile": "yes", 
		 "theory": "DFT", 
		 "functional": "B3LYP", 
		 "basiset": "6-31G**", 
		 "properties": { 
			 "R2extent": 2663.7044, 
			 "electric_dipole_moment_norm": 5.36696348599, 
			 "electric_quadrupole_moment_norm": 13.2917060481, 
			 "total_energy": -592.399086158, 
			 "HOMO_LUMO_gap": 0.16516, 
			 "cosmo_polarized_energy": -13.1, 
			 "cosmo_cavitation_energy": 22.95, 
			 "cosmo_dispersion_energy": -16.77, 
			 "cosmo_repulsion_energy": 1.29, 
			 "cosmo_total_nonelectrostatic_energy": 7.47, 
			 "SMD_solvation_energy": 4.42 
		},
		"coords": [
			{
				"x": -1.3766843811,
				"y": 0.5440780869,
				"z": -1.8969076456,
				"element": "F" 
			},
			{
				"x": -0.4079932387,
				"y": 0.1694905539,
				"z": -1.0565939392,
				"element": "C" 
			},
			{
				"x": 0.799322354,
				"y": 0.8088648145,
				"z": -1.0288364943,
				"element": "C" 
			},
			{
				"x": 1.8003348282,
				"y": 0.3692753255,
				"z": -0.1121404169,
				"element": "C" 
			},
			{
				"x": 1.5727059649,
				"y": -0.6751393257,
				"z": 0.7340433257,
				"element": "C" 
			},
			{
				"x": 0.3472196901,
				"y": -1.3111624506,
				"z": 0.6939026481,
				"element": "N" 
			},
			{
				"x": -0.1478308562,
				"y": -2.3672838021,
				"z": 1.4141713482,
				"element": "C" 
			},
			{
				"x": -1.4364412328,
				"y": -2.5662398843,
				"z": 0.9389678047,
				"element": "C" 
			},
			{
				"x": -2.3881016075,
				"y": -3.5897892893,
				"z": 1.3957988984,
				"element": "C" 
			},
			{
				"x": -2.1407432546,
				"y": -4.4005625283,
				"z": 2.2701122459,
				"element": "O" 
			},
			{
				"x": -1.7617902477,
				"y": -1.6752242146,
				"z": -0.0483342111,
				"element": "N" 
			},
			{
				"x": -0.6827493903,
				"y": -0.9230105578,
				"z": -0.1901493284,
				"element": "C" 
			},
			{
				"x": 0.9814015889,
				"y": 1.6390773498,
				"z": -1.7009106402,
				"element": "H" 
			},
			{
				"x": 2.7609711453,
				"y": 0.8698041207,
				"z": -0.0824897457,
				"element": "H" 
			},
			{
				"x": 2.2912078344,
				"y": -1.053189192,
				"z": 1.4496230694,
				"element": "H" 
			},
			{
				"x": 0.4211292811,
				"y": -2.8772110322,
				"z": 2.1748391154,
				"element": "H" 
			},
			{
				"x": -3.3648584779,
				"y": -3.5614779745,
				"z": 0.8714039658,
				"element": "H" 
			}
		],
		 "valence_orbital": [ 
			{
				"type": "occ",
				"energy": -0.32895,
				"method": "rhf"
			},
			{
				"type": "occ",
				"energy": -0.29588,
				"method": "rhf"
			},
			{
				"type": "occ",
				"energy": -0.26209,
				"method": "rhf"
			},
			{
				"type": "occ",
				"energy": -0.2544,
				"method": "rhf"
			},
			{
				"type": "occ",
				"energy": -0.23046,
				"method": "rhf"
			},
			{
				"type": "unocc",
				"energy": -0.0653,
				"method": "rhf"
			},
			{
				"type": "unocc",
				"energy": -0.03414,
				"method": "rhf"
			},
			{
				"type": "unocc",
				"energy": -0.00522,
				"method": "rhf"
			},
			{
				"type": "unocc",
				"energy": 0.07014,
				"method": "rhf"
			},
			{
				"type": "unocc",
				"energy": 0.09546,
				"method": "rhf"
			}
		],
		"cosmo_sigma_profile": { 
			"-0.025": 0.0,
			"-0.024": 0.0,
			"-0.023": 0.0,
			"-0.022": 0.0,
			"-0.021": 0.0,
			"-0.02": 0.0,
			"-0.019": 0.0,
			"-0.018": 0.0,
			"-0.017": 0.0,
			"-0.016": 0.0,
			"-0.015": 0.0,
			"-0.014": 0.0,
			"-0.013": 0.0,
			"-0.012": 0.116953105725,
			"-0.011": 1.9737759573,
			"-0.01": 4.1270811867,
			"-0.009": 3.96214768184,
			"-0.008": 7.4650721633,
			"-0.007": 7.77109675833,
			"-0.006": 8.73370148486,
			"-0.005": 7.65547290811,
			"-0.004": 8.01759571492,
			"-0.003": 11.5655065421,
			"-0.002": 13.6839601207,
			"-0.001": 15.543613794,
			"0.0": 15.4383155443,
			"0.001": 16.3277531582,
			"0.002": 11.9783029659,
			"0.003": 11.3272794025,
			"0.004": 6.60126798658,
			"0.005": 3.58872975744,
			"0.006": 3.49398718465,
			"0.007": 3.53428923689,
			"0.008": 4.0161456199,
			"0.009": 1.83792545535,
			"0.01": 4.11359934955,
			"0.011": 6.13382882921,
			"0.012": 3.28471937698,
			"0.013": 1.7434251249,
			"0.014": 0.798037250254,
			"0.015": 0.968579726889,
			"0.016": 0.256075818486,
			"0.017": 0.0,
			"0.018": 0.0,
			"0.019": 0.0,
			"0.02": 0.0,
			"0.021": 0.0,
			"0.022": 0.0,
			"0.023": 0.0,
			"0.024": 0.0,
			"0.025": 0.0
		}
	}
}
