{
	 "smiles": "OC(=O)C1=CC=C(C=C1)S(=O)(=O)CC#N", 
	 "Tm": 510.15, 
	 "num_atms": 22, 
	 "gaussian": { 
		 "optdone": 1, 
		 "sigma_profile": "yes", 
		 "theory": "DFT", 
		 "functional": "B3LYP", 
		 "basiset": "6-31G**", 
		 "properties": { 
			 "R2extent": 4516.903, 
			 "electric_dipole_moment_norm": 4.54947524117, 
			 "electric_quadrupole_moment_norm": 17.8151361028, 
			 "total_energy": -1100.93272478, 
			 "HOMO_LUMO_gap": 0.20362, 
			 "cosmo_polarized_energy": -21.6, 
			 "cosmo_cavitation_energy": 30.05, 
			 "cosmo_dispersion_energy": -21.23, 
			 "cosmo_repulsion_energy": 1.61, 
			 "cosmo_total_nonelectrostatic_energy": 10.43, 
			 "SMD_solvation_energy": 7.09 
		},
		"coords": [
			{
				"x": -3.2074547013,
				"y": -0.3385066303,
				"z": -2.5743655533,
				"element": "O" 
			},
			{
				"x": -3.0272343159,
				"y": 0.7931664699,
				"z": -1.854448224,
				"element": "C" 
			},
			{
				"x": -3.6435513385,
				"y": 1.8149117625,
				"z": -2.0735702809,
				"element": "O" 
			},
			{
				"x": -2.0009671314,
				"y": 0.6401228934,
				"z": -0.7806615965,
				"element": "C" 
			},
			{
				"x": -1.3280838002,
				"y": -0.5703959089,
				"z": -0.5653271343,
				"element": "C" 
			},
			{
				"x": -0.3778348216,
				"y": -0.6652612181,
				"z": 0.448986631,
				"element": "C" 
			},
			{
				"x": -0.1161706854,
				"y": 0.4599220394,
				"z": 1.2339405312,
				"element": "C" 
			},
			{
				"x": -0.7857277229,
				"y": 1.6715983247,
				"z": 1.0415435972,
				"element": "C" 
			},
			{
				"x": -1.7308459139,
				"y": 1.7554552662,
				"z": 0.023154142,
				"element": "C" 
			},
			{
				"x": 1.1066953409,
				"y": 0.3339354532,
				"z": 2.545416791,
				"element": "S" 
			},
			{
				"x": 1.3289212592,
				"y": -1.0859981678,
				"z": 2.8449860072,
				"element": "O" 
			},
			{
				"x": 0.7811916287,
				"y": 1.3098414531,
				"z": 3.5888615093,
				"element": "O" 
			},
			{
				"x": 2.6857945083,
				"y": 0.8907898109,
				"z": 1.7443023788,
				"element": "C" 
			},
			{
				"x": 2.6409772815,
				"y": 2.2607128042,
				"z": 1.2647438309,
				"element": "C" 
			},
			{
				"x": 2.5773621627,
				"y": 3.3518268265,
				"z": 0.874341609,
				"element": "N" 
			},
			{
				"x": -3.8880970581,
				"y": -0.1323526663,
				"z": -3.2363182084,
				"element": "H" 
			},
			{
				"x": -1.5543622522,
				"y": -1.4298190533,
				"z": -1.1852951927,
				"element": "H" 
			},
			{
				"x": 0.1401510563,
				"y": -1.5971160179,
				"z": 0.6478198525,
				"element": "H" 
			},
			{
				"x": -0.5756525352,
				"y": 2.519775219,
				"z": 1.6830260807,
				"element": "H" 
			},
			{
				"x": -2.2731868289,
				"y": 2.6759255524,
				"z": -0.1621497247,
				"element": "H" 
			},
			{
				"x": 2.9025223136,
				"y": 0.1896224516,
				"z": 0.9342595281,
				"element": "H" 
			},
			{
				"x": 3.4358535541,
				"y": 0.7699433358,
				"z": 2.5323534258,
				"element": "H" 
			}
		],
		 "valence_orbital": [ 
			{
				"type": "occ",
				"energy": -0.32419,
				"method": "rhf"
			},
			{
				"type": "occ",
				"energy": -0.31035,
				"method": "rhf"
			},
			{
				"type": "occ",
				"energy": -0.29817,
				"method": "rhf"
			},
			{
				"type": "occ",
				"energy": -0.29743,
				"method": "rhf"
			},
			{
				"type": "occ",
				"energy": -0.29148,
				"method": "rhf"
			},
			{
				"type": "unocc",
				"energy": -0.08786,
				"method": "rhf"
			},
			{
				"type": "unocc",
				"energy": -0.04158,
				"method": "rhf"
			},
			{
				"type": "unocc",
				"energy": -0.02328,
				"method": "rhf"
			},
			{
				"type": "unocc",
				"energy": 0.00749,
				"method": "rhf"
			},
			{
				"type": "unocc",
				"energy": 0.01759,
				"method": "rhf"
			}
		],
		"cosmo_sigma_profile": { 
			"-0.025": 0.0,
			"-0.024": 0.0,
			"-0.023": 0.0,
			"-0.022": 0.0,
			"-0.021": 0.0,
			"-0.02": 0.0,
			"-0.019": 0.260788263089,
			"-0.018": 1.22310632334,
			"-0.017": 0.483103474362,
			"-0.016": 0.760839184212,
			"-0.015": 1.3558339809,
			"-0.014": 0.711015277035,
			"-0.013": 1.65467417567,
			"-0.012": 5.89315501954,
			"-0.011": 5.96566866647,
			"-0.01": 3.93969009587,
			"-0.009": 4.5890238006,
			"-0.008": 8.67578123563,
			"-0.007": 10.2531399338,
			"-0.006": 8.95987572497,
			"-0.005": 6.64022272339,
			"-0.004": 11.0726111392,
			"-0.003": 12.4737065991,
			"-0.002": 12.2452890561,
			"-0.001": 17.1397969869,
			"0.0": 21.9516429281,
			"0.001": 13.8533595436,
			"0.002": 8.8451734103,
			"0.003": 6.53425203206,
			"0.004": 6.56034949738,
			"0.005": 7.90562188559,
			"0.006": 8.67379575158,
			"0.007": 8.80414507512,
			"0.008": 6.96114295007,
			"0.009": 11.2372764135,
			"0.01": 14.2570345615,
			"0.011": 10.3013458392,
			"0.012": 1.97058917381,
			"0.013": 0.0,
			"0.014": 0.0,
			"0.015": 0.0,
			"0.016": 0.0,
			"0.017": 0.0,
			"0.018": 0.0,
			"0.019": 0.0,
			"0.02": 0.0,
			"0.021": 0.0,
			"0.022": 0.0,
			"0.023": 0.0,
			"0.024": 0.0,
			"0.025": 0.0
		}
	}
}
