{
	 "smiles": "CCC1(C(C)C1(Cl)Cl)C(=O)NC(C)C1=CC=C(Cl)C=C1", 
	 "Tm": 433.15, 
	 "num_atms": 38, 
	 "gaussian": { 
		 "optdone": 1, 
		 "sigma_profile": "yes", 
		 "theory": "DFT", 
		 "functional": "B3LYP", 
		 "basiset": "6-31G**", 
		 "properties": { 
			 "R2extent": 9831.7521, 
			 "electric_dipole_moment_norm": 4.23814503409, 
			 "electric_quadrupole_moment_norm": 21.5351319541, 
			 "total_energy": -2092.99446019, 
			 "HOMO_LUMO_gap": 0.22205, 
			 "cosmo_polarized_energy": -15.47, 
			 "cosmo_cavitation_energy": 45.18, 
			 "cosmo_dispersion_energy": -29.75, 
			 "cosmo_repulsion_energy": 2.32, 
			 "cosmo_total_nonelectrostatic_energy": 17.74, 
			 "SMD_solvation_energy": 6.67 
		},
		"coords": [
			{
				"x": -2.3644794411,
				"y": 0.1578006348,
				"z": -0.7561961932,
				"element": "C" 
			},
			{
				"x": -1.9394443556,
				"y": -0.7355930742,
				"z": -1.9291704884,
				"element": "C" 
			},
			{
				"x": -0.7036591033,
				"y": -1.581593804,
				"z": -1.6179705132,
				"element": "C" 
			},
			{
				"x": -0.8150273644,
				"y": -2.9199467775,
				"z": -0.8689939823,
				"element": "C" 
			},
			{
				"x": -2.1131895739,
				"y": -3.4772757566,
				"z": -0.3215599617,
				"element": "C" 
			},
			{
				"x": -0.4830466167,
				"y": -2.8972332343,
				"z": -2.3358724409,
				"element": "C" 
			},
			{
				"x": 1.1722078156,
				"y": -3.3643521329,
				"z": -2.8197511171,
				"element": "Cl" 
			},
			{
				"x": -1.6741014821,
				"y": -3.4774448664,
				"z": -3.5283950013,
				"element": "Cl" 
			},
			{
				"x": 0.521413383,
				"y": -0.6833185096,
				"z": -1.4400019531,
				"element": "C" 
			},
			{
				"x": 0.8602098303,
				"y": 0.0814075955,
				"z": -2.3365840181,
				"element": "O" 
			},
			{
				"x": 1.161892952,
				"y": -0.7627906095,
				"z": -0.2402629546,
				"element": "N" 
			},
			{
				"x": 2.3258838638,
				"y": 0.072597736,
				"z": 0.090686813,
				"element": "C" 
			},
			{
				"x": 3.3830023389,
				"y": -0.7805546671,
				"z": 0.7964076677,
				"element": "C" 
			},
			{
				"x": 1.8973872801,
				"y": 1.3309317004,
				"z": 0.8458650092,
				"element": "C" 
			},
			{
				"x": 1.3021095603,
				"y": 2.3778905106,
				"z": 0.1236209193,
				"element": "C" 
			},
			{
				"x": 0.8617757058,
				"y": 3.5354805457,
				"z": 0.7616910084,
				"element": "C" 
			},
			{
				"x": 1.0203851274,
				"y": 3.6517852141,
				"z": 2.1432833232,
				"element": "C" 
			},
			{
				"x": 0.4720405635,
				"y": 5.1102342864,
				"z": 2.9589487634,
				"element": "Cl" 
			},
			{
				"x": 1.6109657832,
				"y": 2.6319407406,
				"z": 2.8846947849,
				"element": "C" 
			},
			{
				"x": 2.0456323125,
				"y": 1.4773620921,
				"z": 2.2291872024,
				"element": "C" 
			},
			{
				"x": -2.6241542085,
				"y": -0.4344347974,
				"z": 0.1279169124,
				"element": "H" 
			},
			{
				"x": -3.2439849145,
				"y": 0.7487901965,
				"z": -1.0293249702,
				"element": "H" 
			},
			{
				"x": -1.5727897699,
				"y": 0.8577900953,
				"z": -0.4714324268,
				"element": "H" 
			},
			{
				"x": -2.769917707,
				"y": -1.3782525712,
				"z": -2.2272934835,
				"element": "H" 
			},
			{
				"x": -1.6870536069,
				"y": -0.1189878359,
				"z": -2.7977114908,
				"element": "H" 
			},
			{
				"x": 0.0532353581,
				"y": -3.1829912852,
				"z": -0.2665887197,
				"element": "H" 
			},
			{
				"x": -2.973440448,
				"y": -3.2162898311,
				"z": -0.9394110991,
				"element": "H" 
			},
			{
				"x": -2.0605288416,
				"y": -4.5694616692,
				"z": -0.2685533269,
				"element": "H" 
			},
			{
				"x": -2.2929977976,
				"y": -3.1001209458,
				"z": 0.6905036127,
				"element": "H" 
			},
			{
				"x": 0.7327799337,
				"y": -1.2924677892,
				"z": 0.5042578126,
				"element": "H" 
			},
			{
				"x": 2.7167288656,
				"y": 0.3879497227,
				"z": -0.8803116888,
				"element": "H" 
			},
			{
				"x": 3.6936566333,
				"y": -1.5995355001,
				"z": 0.1428637186,
				"element": "H" 
			},
			{
				"x": 3.0033092495,
				"y": -1.2205761383,
				"z": 1.7258194942,
				"element": "H" 
			},
			{
				"x": 4.2625697156,
				"y": -0.1800981447,
				"z": 1.0450791219,
				"element": "H" 
			},
			{
				"x": 1.181238828,
				"y": 2.2749115372,
				"z": -0.9510510654,
				"element": "H" 
			},
			{
				"x": 0.4070942112,
				"y": 4.3416257217,
				"z": 0.1964060974,
				"element": "H" 
			},
			{
				"x": 1.7325384288,
				"y": 2.7388512022,
				"z": 3.9570275478,
				"element": "H" 
			},
			{
				"x": 2.5113574909,
				"y": 0.6937704086,
				"z": 2.8184770861,
				"element": "H" 
			}
		],
		 "valence_orbital": [ 
			{
				"type": "occ",
				"energy": -0.27837,
				"method": "rhf"
			},
			{
				"type": "occ",
				"energy": -0.27153,
				"method": "rhf"
			},
			{
				"type": "occ",
				"energy": -0.26681,
				"method": "rhf"
			},
			{
				"type": "occ",
				"energy": -0.25432,
				"method": "rhf"
			},
			{
				"type": "occ",
				"energy": -0.2441,
				"method": "rhf"
			},
			{
				"type": "unocc",
				"energy": -0.02205,
				"method": "rhf"
			},
			{
				"type": "unocc",
				"energy": -0.01802,
				"method": "rhf"
			},
			{
				"type": "unocc",
				"energy": -0.01059,
				"method": "rhf"
			},
			{
				"type": "unocc",
				"energy": 0.00772,
				"method": "rhf"
			},
			{
				"type": "unocc",
				"energy": 0.0251,
				"method": "rhf"
			}
		],
		"cosmo_sigma_profile": { 
			"-0.025": 0.0,
			"-0.024": 0.0,
			"-0.023": 0.0,
			"-0.022": 0.0,
			"-0.021": 0.0,
			"-0.02": 0.0,
			"-0.019": 0.0,
			"-0.018": 0.0,
			"-0.017": 0.0,
			"-0.016": 0.0,
			"-0.015": 0.00647389834097,
			"-0.014": 0.759904205214,
			"-0.013": 1.27396393492,
			"-0.012": 1.00068528272,
			"-0.011": 1.48703206624,
			"-0.01": 1.73043910699,
			"-0.009": 1.61909761316,
			"-0.008": 2.1597650608,
			"-0.007": 5.5930194223,
			"-0.006": 10.1389790182,
			"-0.005": 14.3172819461,
			"-0.004": 24.432028342,
			"-0.003": 30.841749674,
			"-0.002": 34.8937052447,
			"-0.001": 38.604968193,
			"0.0": 39.0426157069,
			"0.001": 29.0321327816,
			"0.002": 26.6874262337,
			"0.003": 28.8981839729,
			"0.004": 34.5250376374,
			"0.005": 17.8648881256,
			"0.006": 2.92336663114,
			"0.007": 2.3209664298,
			"0.008": 1.95728057039,
			"0.009": 0.795604075803,
			"0.01": 1.42322726784,
			"0.011": 2.08156813398,
			"0.012": 1.53148760538,
			"0.013": 3.20229472381,
			"0.014": 1.73844221165,
			"0.015": 0.0596296132287,
			"0.016": 0.0,
			"0.017": 0.0,
			"0.018": 0.0,
			"0.019": 0.0,
			"0.02": 0.0,
			"0.021": 0.0,
			"0.022": 0.0,
			"0.023": 0.0,
			"0.024": 0.0,
			"0.025": 0.0
		}
	}
}
