{
	 "smiles": "S=C1CC2=C(N1)C=CC=C2", 
	 "Tm": 420.15, 
	 "num_atms": 17, 
	 "gaussian": { 
		 "optdone": 1, 
		 "sigma_profile": "yes", 
		 "theory": "DFT", 
		 "functional": "B3LYP", 
		 "basiset": "6-31G**", 
		 "properties": { 
			 "R2extent": 2762.8541, 
			 "electric_dipole_moment_norm": 4.31541770516, 
			 "electric_quadrupole_moment_norm": 20.8081553526, 
			 "total_energy": -762.022404286, 
			 "HOMO_LUMO_gap": 0.16559, 
			 "cosmo_polarized_energy": -12.66, 
			 "cosmo_cavitation_energy": 22.52, 
			 "cosmo_dispersion_energy": -17.45, 
			 "cosmo_repulsion_energy": 1.36, 
			 "cosmo_total_nonelectrostatic_energy": 6.44, 
			 "SMD_solvation_energy": 2.33 
		},
		"coords": [
			{
				"x": -2.2288280253,
				"y": 1.5949988667,
				"z": -4.1235172896,
				"element": "S" 
			},
			{
				"x": -1.2045216717,
				"y": 1.098509657,
				"z": -2.9255904163,
				"element": "C" 
			},
			{
				"x": -0.1460680223,
				"y": 1.9196212956,
				"z": -2.1864868737,
				"element": "C" 
			},
			{
				"x": 0.4647972402,
				"y": 0.9368294142,
				"z": -1.2151833774,
				"element": "C" 
			},
			{
				"x": -0.1788049022,
				"y": -0.2980151346,
				"z": -1.3893753565,
				"element": "C" 
			},
			{
				"x": -1.1459706161,
				"y": -0.1560570484,
				"z": -2.3982987503,
				"element": "N" 
			},
			{
				"x": 0.1500750766,
				"y": -1.4240090594,
				"z": -0.6431792043,
				"element": "C" 
			},
			{
				"x": 1.1664895141,
				"y": -1.2857855056,
				"z": 0.3096319429,
				"element": "C" 
			},
			{
				"x": 1.8195110809,
				"y": -0.0652485893,
				"z": 0.4985038399,
				"element": "C" 
			},
			{
				"x": 1.470087499,
				"y": 1.0572625557,
				"z": -0.2666712204,
				"element": "C" 
			},
			{
				"x": -0.6211556153,
				"y": 2.77820671,
				"z": -1.6990494857,
				"element": "H" 
			},
			{
				"x": 0.5724099605,
				"y": 2.3266149905,
				"z": -2.9066338837,
				"element": "H" 
			},
			{
				"x": -1.7567777448,
				"y": -0.8914784706,
				"z": -2.7267899249,
				"element": "H" 
			},
			{
				"x": -0.3574166981,
				"y": -2.3724141811,
				"z": -0.7900227622,
				"element": "H" 
			},
			{
				"x": 1.4492556785,
				"y": -2.1450209217,
				"z": 0.9104591594,
				"element": "H" 
			},
			{
				"x": 2.6043048884,
				"y": 0.0149338365,
				"z": 1.2441247917,
				"element": "H" 
			},
			{
				"x": 1.9803123578,
				"y": 2.0046515845,
				"z": -0.1167211891,
				"element": "H" 
			}
		],
		 "valence_orbital": [ 
			{
				"type": "occ",
				"energy": -0.35498,
				"method": "rhf"
			},
			{
				"type": "occ",
				"energy": -0.27531,
				"method": "rhf"
			},
			{
				"type": "occ",
				"energy": -0.26329,
				"method": "rhf"
			},
			{
				"type": "occ",
				"energy": -0.21462,
				"method": "rhf"
			},
			{
				"type": "occ",
				"energy": -0.21169,
				"method": "rhf"
			},
			{
				"type": "unocc",
				"energy": -0.0461,
				"method": "rhf"
			},
			{
				"type": "unocc",
				"energy": -0.01803,
				"method": "rhf"
			},
			{
				"type": "unocc",
				"energy": 0.01006,
				"method": "rhf"
			},
			{
				"type": "unocc",
				"energy": 0.07713,
				"method": "rhf"
			},
			{
				"type": "unocc",
				"energy": 0.08581,
				"method": "rhf"
			}
		],
		"cosmo_sigma_profile": { 
			"-0.025": 0.0,
			"-0.024": 0.0,
			"-0.023": 0.0,
			"-0.022": 0.0,
			"-0.021": 0.0,
			"-0.02": 0.0,
			"-0.019": 0.0,
			"-0.018": 0.0,
			"-0.017": 0.168669240238,
			"-0.016": 1.10792118488,
			"-0.015": 1.45366612535,
			"-0.014": 0.603291469287,
			"-0.013": 1.33628942706,
			"-0.012": 1.10604526682,
			"-0.011": 1.24746547395,
			"-0.01": 0.771434349297,
			"-0.009": 1.326778936,
			"-0.008": 2.38033415697,
			"-0.007": 6.87381674991,
			"-0.006": 10.8810491546,
			"-0.005": 14.4492755852,
			"-0.004": 16.3358838584,
			"-0.003": 11.3827477724,
			"-0.002": 9.13871865542,
			"-0.001": 10.0482193797,
			"0.0": 10.2207646343,
			"0.001": 7.45277896798,
			"0.002": 8.94297838333,
			"0.003": 10.9423358478,
			"0.004": 10.9573268203,
			"0.005": 11.1350970336,
			"0.006": 4.84579438845,
			"0.007": 4.20994086676,
			"0.008": 6.74838574413,
			"0.009": 5.97280070117,
			"0.01": 4.75242336594,
			"0.011": 3.45788237549,
			"0.012": 2.67046504286,
			"0.013": 0.281812964472,
			"0.014": 0.0,
			"0.015": 0.0,
			"0.016": 0.0,
			"0.017": 0.0,
			"0.018": 0.0,
			"0.019": 0.0,
			"0.02": 0.0,
			"0.021": 0.0,
			"0.022": 0.0,
			"0.023": 0.0,
			"0.024": 0.0,
			"0.025": 0.0
		}
	}
}
