{
	 "smiles": "CC1=NC(=CS1)C1=CC=C(Br)C=C1", 
	 "Tm": 405.15, 
	 "num_atms": 21, 
	 "gaussian": { 
		 "optdone": 1, 
		 "sigma_profile": "yes", 
		 "theory": "DFT", 
		 "functional": "B3LYP", 
		 "basiset": "6-31G**", 
		 "properties": { 
			 "R2extent": 9097.1931, 
			 "electric_dipole_moment_norm": 2.91761829066, 
			 "electric_quadrupole_moment_norm": 11.9090352153, 
			 "total_energy": -3410.23452545, 
			 "HOMO_LUMO_gap": 0.173, 
			 "cosmo_polarized_energy": -7.14, 
			 "cosmo_cavitation_energy": 29.29, 
			 "cosmo_dispersion_energy": -22.64, 
			 "cosmo_repulsion_energy": 1.73, 
			 "cosmo_total_nonelectrostatic_energy": 8.39, 
			 "SMD_solvation_energy": 2.55 
		},
		"coords": [
			{
				"x": 2.8735657966,
				"y": 0.1578723023,
				"z": 0.8430381493,
				"element": "C" 
			},
			{
				"x": 1.8724679287,
				"y": 0.6186322244,
				"z": -0.171907771,
				"element": "C" 
			},
			{
				"x": 0.629405104,
				"y": 0.8841916234,
				"z": 0.0899411946,
				"element": "N" 
			},
			{
				"x": -0.0745573995,
				"y": 1.2897392368,
				"z": -1.0341754581,
				"element": "C" 
			},
			{
				"x": 0.6733221341,
				"y": 1.3292048171,
				"z": -2.1845717775,
				"element": "C" 
			},
			{
				"x": 2.3046147129,
				"y": 0.8481423935,
				"z": -1.8678813573,
				"element": "S" 
			},
			{
				"x": -1.5037083619,
				"y": 1.6277882754,
				"z": -0.8956857771,
				"element": "C" 
			},
			{
				"x": -2.1233067447,
				"y": 1.5352664539,
				"z": 0.3614426609,
				"element": "C" 
			},
			{
				"x": -3.470984489,
				"y": 1.8474593693,
				"z": 0.5248614743,
				"element": "C" 
			},
			{
				"x": -4.2153602366,
				"y": 2.2583201652,
				"z": -0.5788835695,
				"element": "C" 
			},
			{
				"x": -6.065414159,
				"y": 2.6889612479,
				"z": -0.3658888977,
				"element": "Br" 
			},
			{
				"x": -3.6276506587,
				"y": 2.3597917576,
				"z": -1.8396024438,
				"element": "C" 
			},
			{
				"x": -2.2801849086,
				"y": 2.045013432,
				"z": -1.9896714763,
				"element": "C" 
			},
			{
				"x": 3.7175937929,
				"y": 0.8514823095,
				"z": 0.9182280088,
				"element": "H" 
			},
			{
				"x": 3.2754217768,
				"y": -0.829145795,
				"z": 0.5908598403,
				"element": "H" 
			},
			{
				"x": 2.3799537215,
				"y": 0.09820271,
				"z": 1.8146300113,
				"element": "H" 
			},
			{
				"x": 0.3685741147,
				"y": 1.6075775045,
				"z": -3.1824479861,
				"element": "H" 
			},
			{
				"x": -1.5321053916,
				"y": 1.2142646025,
				"z": 1.211245483,
				"element": "H" 
			},
			{
				"x": -3.9379139084,
				"y": 1.7721070812,
				"z": 1.5004090658,
				"element": "H" 
			},
			{
				"x": -4.2159119321,
				"y": 2.6804988271,
				"z": -2.6917827525,
				"element": "H" 
			},
			{
				"x": -1.8362208921,
				"y": 2.1285294615,
				"z": -2.9768566212,
				"element": "H" 
			}
		],
		 "valence_orbital": [ 
			{
				"type": "occ",
				"energy": -0.28484,
				"method": "rhf"
			},
			{
				"type": "occ",
				"energy": -0.27728,
				"method": "rhf"
			},
			{
				"type": "occ",
				"energy": -0.26541,
				"method": "rhf"
			},
			{
				"type": "occ",
				"energy": -0.26093,
				"method": "rhf"
			},
			{
				"type": "occ",
				"energy": -0.2173,
				"method": "rhf"
			},
			{
				"type": "unocc",
				"energy": -0.0443,
				"method": "rhf"
			},
			{
				"type": "unocc",
				"energy": -0.01549,
				"method": "rhf"
			},
			{
				"type": "unocc",
				"energy": -0.0054,
				"method": "rhf"
			},
			{
				"type": "unocc",
				"energy": 0.00819,
				"method": "rhf"
			},
			{
				"type": "unocc",
				"energy": 0.01511,
				"method": "rhf"
			}
		],
		"cosmo_sigma_profile": { 
			"-0.025": 0.0,
			"-0.024": 0.0,
			"-0.023": 0.0,
			"-0.022": 0.0,
			"-0.021": 0.0,
			"-0.02": 0.0,
			"-0.019": 0.0,
			"-0.018": 0.0,
			"-0.017": 0.0,
			"-0.016": 0.0,
			"-0.015": 0.0,
			"-0.014": 0.0,
			"-0.013": 0.0,
			"-0.012": 0.0,
			"-0.011": 0.0,
			"-0.01": 0.973775285761,
			"-0.009": 2.70605681104,
			"-0.008": 2.47248132041,
			"-0.007": 5.33536426588,
			"-0.006": 10.7844031697,
			"-0.005": 15.2123033119,
			"-0.004": 15.729378085,
			"-0.003": 16.3632707509,
			"-0.002": 14.9951424265,
			"-0.001": 16.0220112711,
			"0.0": 16.4938365315,
			"0.001": 20.5909149292,
			"0.002": 29.0003857783,
			"0.003": 33.16329478,
			"0.004": 23.2775052309,
			"0.005": 9.63215636978,
			"0.006": 1.74931954837,
			"0.007": 1.36585411766,
			"0.008": 1.61003319339,
			"0.009": 1.3847789518,
			"0.01": 1.48749947677,
			"0.011": 0.68855772821,
			"0.012": 0.0,
			"0.013": 0.0,
			"0.014": 0.0,
			"0.015": 0.0,
			"0.016": 0.0,
			"0.017": 0.0,
			"0.018": 0.0,
			"0.019": 0.0,
			"0.02": 0.0,
			"0.021": 0.0,
			"0.022": 0.0,
			"0.023": 0.0,
			"0.024": 0.0,
			"0.025": 0.0
		}
	}
}
