{
	 "smiles": "CC1=NC2=C(OC(S)=N2)C=C1", 
	 "Tm": 413.15, 
	 "num_atms": 17, 
	 "gaussian": { 
		 "optdone": 1, 
		 "sigma_profile": "yes", 
		 "theory": "DFT", 
		 "functional": "B3LYP", 
		 "basiset": "6-31G**", 
		 "properties": { 
			 "R2extent": 2954.8188, 
			 "electric_dipole_moment_norm": 2.11055944005, 
			 "electric_quadrupole_moment_norm": 11.9414105699, 
			 "total_energy": -853.265092719, 
			 "HOMO_LUMO_gap": 0.19178, 
			 "cosmo_polarized_energy": -10.3, 
			 "cosmo_cavitation_energy": 23.47, 
			 "cosmo_dispersion_energy": -18.39, 
			 "cosmo_repulsion_energy": 1.42, 
			 "cosmo_total_nonelectrostatic_energy": 6.5, 
			 "SMD_solvation_energy": 0.52 
		},
		"coords": [
			{
				"x": -1.9811860995,
				"y": -0.7122601571,
				"z": 2.8711161917,
				"element": "C" 
			},
			{
				"x": -1.2358877298,
				"y": -0.6603225776,
				"z": 1.5587985595,
				"element": "C" 
			},
			{
				"x": -1.7926344332,
				"y": -1.3112066684,
				"z": 0.5228293151,
				"element": "N" 
			},
			{
				"x": -1.1166514148,
				"y": -1.2503952415,
				"z": -0.6223662541,
				"element": "C" 
			},
			{
				"x": 0.0954210091,
				"y": -0.5677447736,
				"z": -0.7860876318,
				"element": "C" 
			},
			{
				"x": 0.4941957233,
				"y": -0.7238183086,
				"z": -2.0938545052,
				"element": "O" 
			},
			{
				"x": -0.509737721,
				"y": -1.4939140228,
				"z": -2.6327990775,
				"element": "C" 
			},
			{
				"x": -0.2907323256,
				"y": -1.8774110687,
				"z": -4.3316410635,
				"element": "S" 
			},
			{
				"x": -1.4731880613,
				"y": -1.8360572744,
				"z": -1.8416990943,
				"element": "N" 
			},
			{
				"x": 0.6916428418,
				"y": 0.1100585175,
				"z": 0.2598912836,
				"element": "C" 
			},
			{
				"x": -0.016254322,
				"y": 0.0473939026,
				"z": 1.4625063561,
				"element": "C" 
			},
			{
				"x": -2.2535784034,
				"y": 0.2924116946,
				"z": 3.2140247895,
				"element": "H" 
			},
			{
				"x": -2.8924035335,
				"y": -1.2996477342,
				"z": 2.7505841332,
				"element": "H" 
			},
			{
				"x": -1.3701475375,
				"y": -1.1691264214,
				"z": 3.6579148873,
				"element": "H" 
			},
			{
				"x": -1.4329894379,
				"y": -2.5868226986,
				"z": -4.39513333,
				"element": "H" 
			},
			{
				"x": 1.6290216308,
				"y": 0.6461857957,
				"z": 0.1601108736,
				"element": "H" 
			},
			{
				"x": 0.3735098145,
				"y": 0.5499770364,
				"z": 2.3422045668,
				"element": "H" 
			}
		],
		 "valence_orbital": [ 
			{
				"type": "occ",
				"energy": -0.30895,
				"method": "rhf"
			},
			{
				"type": "occ",
				"energy": -0.29755,
				"method": "rhf"
			},
			{
				"type": "occ",
				"energy": -0.27393,
				"method": "rhf"
			},
			{
				"type": "occ",
				"energy": -0.26147,
				"method": "rhf"
			},
			{
				"type": "occ",
				"energy": -0.23304,
				"method": "rhf"
			},
			{
				"type": "unocc",
				"energy": -0.04126,
				"method": "rhf"
			},
			{
				"type": "unocc",
				"energy": -0.00732,
				"method": "rhf"
			},
			{
				"type": "unocc",
				"energy": -0.00171,
				"method": "rhf"
			},
			{
				"type": "unocc",
				"energy": 0.02678,
				"method": "rhf"
			},
			{
				"type": "unocc",
				"energy": 0.05553,
				"method": "rhf"
			}
		],
		"cosmo_sigma_profile": { 
			"-0.025": 0.0,
			"-0.024": 0.0,
			"-0.023": 0.0,
			"-0.022": 0.0,
			"-0.021": 0.0,
			"-0.02": 0.0,
			"-0.019": 0.0,
			"-0.018": 0.0,
			"-0.017": 0.0,
			"-0.016": 0.0,
			"-0.015": 0.0,
			"-0.014": 0.0,
			"-0.013": 1.14168196252,
			"-0.012": 1.87887667669,
			"-0.011": 1.45289130331,
			"-0.01": 0.981472924175,
			"-0.009": 1.8852467838,
			"-0.008": 3.68293453002,
			"-0.007": 5.49310282892,
			"-0.006": 5.31332184895,
			"-0.005": 8.15143472618,
			"-0.004": 12.7498470309,
			"-0.003": 14.6297350574,
			"-0.002": 15.257312391,
			"-0.001": 20.3432126911,
			"0.0": 22.2808371764,
			"0.001": 17.7552776627,
			"0.002": 13.8237285079,
			"0.003": 8.21283286161,
			"0.004": 7.40098276728,
			"0.005": 6.11546643409,
			"0.006": 3.29171731256,
			"0.007": 2.23463739213,
			"0.008": 2.27273846552,
			"0.009": 2.34408424493,
			"0.01": 2.00448417149,
			"0.011": 2.21575101787,
			"0.012": 2.68741687185,
			"0.013": 2.24021878755,
			"0.014": 2.13969241066,
			"0.015": 1.07162866283,
			"0.016": 0.364899689665,
			"0.017": 0.0,
			"0.018": 0.0,
			"0.019": 0.0,
			"0.02": 0.0,
			"0.021": 0.0,
			"0.022": 0.0,
			"0.023": 0.0,
			"0.024": 0.0,
			"0.025": 0.0
		}
	}
}
