{
	 "smiles": "O=C(COC(=O)C1=CC=CC=C1)N1CCCC1", 
	 "Tm": 331.15, 
	 "num_atms": 32, 
	 "gaussian": { 
		 "optdone": 1, 
		 "sigma_profile": "yes", 
		 "theory": "DFT", 
		 "functional": "B3LYP", 
		 "basiset": "6-31G**", 
		 "properties": { 
			 "R2extent": 5085.484, 
			 "electric_dipole_moment_norm": 4.29656928607, 
			 "electric_quadrupole_moment_norm": 12.9233980713, 
			 "total_energy": -784.87245241, 
			 "HOMO_LUMO_gap": 0.18258, 
			 "cosmo_polarized_energy": -13.01, 
			 "cosmo_cavitation_energy": 35.09, 
			 "cosmo_dispersion_energy": -24.96, 
			 "cosmo_repulsion_energy": 1.96, 
			 "cosmo_total_nonelectrostatic_energy": 12.09, 
			 "SMD_solvation_energy": 6.22 
		},
		"coords": [
			{
				"x": -1.9905330877,
				"y": 0.2018491932,
				"z": -3.6148844782,
				"element": "O" 
			},
			{
				"x": -1.354541473,
				"y": 0.4480669614,
				"z": -2.5921393704,
				"element": "C" 
			},
			{
				"x": -2.1013256154,
				"y": 0.7353371945,
				"z": -1.288020603,
				"element": "C" 
			},
			{
				"x": -1.6136037358,
				"y": -0.0810615999,
				"z": -0.2056011906,
				"element": "O" 
			},
			{
				"x": -1.3248685168,
				"y": 0.5354242012,
				"z": 0.969202958,
				"element": "C" 
			},
			{
				"x": -1.3998451565,
				"y": 1.7382463216,
				"z": 1.1346106221,
				"element": "O" 
			},
			{
				"x": -0.8917478458,
				"y": -0.4302405818,
				"z": 2.0166922474,
				"element": "C" 
			},
			{
				"x": -0.8332758516,
				"y": -1.8123533975,
				"z": 1.7854449671,
				"element": "C" 
			},
			{
				"x": -0.4207995738,
				"y": -2.6687035077,
				"z": 2.8049756093,
				"element": "C" 
			},
			{
				"x": -0.067647557,
				"y": -2.152811752,
				"z": 4.0544513744,
				"element": "C" 
			},
			{
				"x": -0.1270691018,
				"y": -0.7758811509,
				"z": 4.2873734479,
				"element": "C" 
			},
			{
				"x": -0.5380596594,
				"y": 0.0840075181,
				"z": 3.2723109193,
				"element": "C" 
			},
			{
				"x": 0.0031241655,
				"y": 0.5145868957,
				"z": -2.5819488076,
				"element": "N" 
			},
			{
				"x": 0.8847233932,
				"y": 0.9338008603,
				"z": -1.4811043637,
				"element": "C" 
			},
			{
				"x": 2.16847989,
				"y": 1.3581817931,
				"z": -2.2091428282,
				"element": "C" 
			},
			{
				"x": 2.2147538516,
				"y": 0.4018979054,
				"z": -3.4131482648,
				"element": "C" 
			},
			{
				"x": 0.742485772,
				"y": 0.287438704,
				"z": -3.8351296625,
				"element": "C" 
			},
			{
				"x": -2.0263776565,
				"y": 1.7894186501,
				"z": -1.0054064067,
				"element": "H" 
			},
			{
				"x": -3.1466007939,
				"y": 0.4763593441,
				"z": -1.4627638093,
				"element": "H" 
			},
			{
				"x": -1.1125073658,
				"y": -2.2041731844,
				"z": 0.814317515,
				"element": "H" 
			},
			{
				"x": -0.3764570495,
				"y": -3.7388636963,
				"z": 2.6258630425,
				"element": "H" 
			},
			{
				"x": 0.2523526518,
				"y": -2.8235619336,
				"z": 4.8468169718,
				"element": "H" 
			},
			{
				"x": 0.1460023418,
				"y": -0.3755386182,
				"z": 5.2591732014,
				"element": "H" 
			},
			{
				"x": -0.594144928,
				"y": 1.1558907676,
				"z": 3.4288304826,
				"element": "H" 
			},
			{
				"x": 1.0815835532,
				"y": 0.0955051003,
				"z": -0.7997235071,
				"element": "H" 
			},
			{
				"x": 0.4394131832,
				"y": 1.7432870226,
				"z": -0.8965312181,
				"element": "H" 
			},
			{
				"x": 2.0770250987,
				"y": 2.3949363804,
				"z": -2.5525499793,
				"element": "H" 
			},
			{
				"x": 3.0506455338,
				"y": 1.2929468674,
				"z": -1.5666692879,
				"element": "H" 
			},
			{
				"x": 2.5954325599,
				"y": -0.576875295,
				"z": -3.099352989,
				"element": "H" 
			},
			{
				"x": 2.8520397821,
				"y": 0.7614785732,
				"z": -4.2251611879,
				"element": "H" 
			},
			{
				"x": 0.4812759633,
				"y": -0.685136991,
				"z": -4.2617087382,
				"element": "H" 
			},
			{
				"x": 0.4616672282,
				"y": 1.0487414541,
				"z": -4.5734766664,
				"element": "H" 
			}
		],
		 "valence_orbital": [ 
			{
				"type": "occ",
				"energy": -0.28396,
				"method": "rhf"
			},
			{
				"type": "occ",
				"energy": -0.26601,
				"method": "rhf"
			},
			{
				"type": "occ",
				"energy": -0.26389,
				"method": "rhf"
			},
			{
				"type": "occ",
				"energy": -0.24343,
				"method": "rhf"
			},
			{
				"type": "occ",
				"energy": -0.23523,
				"method": "rhf"
			},
			{
				"type": "unocc",
				"energy": -0.05265,
				"method": "rhf"
			},
			{
				"type": "unocc",
				"energy": -0.01337,
				"method": "rhf"
			},
			{
				"type": "unocc",
				"energy": 0.01833,
				"method": "rhf"
			},
			{
				"type": "unocc",
				"energy": 0.05155,
				"method": "rhf"
			},
			{
				"type": "unocc",
				"energy": 0.0791,
				"method": "rhf"
			}
		],
		"cosmo_sigma_profile": { 
			"-0.025": 0.0,
			"-0.024": 0.0,
			"-0.023": 0.0,
			"-0.022": 0.0,
			"-0.021": 0.0,
			"-0.02": 0.0,
			"-0.019": 0.0,
			"-0.018": 0.0,
			"-0.017": 0.0,
			"-0.016": 0.0,
			"-0.015": 0.0,
			"-0.014": 0.0,
			"-0.013": 0.0,
			"-0.012": 0.0,
			"-0.011": 0.0,
			"-0.01": 0.0,
			"-0.009": 0.0,
			"-0.008": 0.249864552539,
			"-0.007": 4.5524677545,
			"-0.006": 13.0333865787,
			"-0.005": 15.7892766526,
			"-0.004": 30.083479867,
			"-0.003": 39.1934566694,
			"-0.002": 30.191440683,
			"-0.001": 22.7789375579,
			"0.0": 22.8741111507,
			"0.001": 16.6513400857,
			"0.002": 14.8913662927,
			"0.003": 17.0130776781,
			"0.004": 14.9842969174,
			"0.005": 3.5301675725,
			"0.006": 2.21020859304,
			"0.007": 3.03956735867,
			"0.008": 2.97107078829,
			"0.009": 2.49558540882,
			"0.01": 3.50001257893,
			"0.011": 5.01362753252,
			"0.012": 2.86406000907,
			"0.013": 2.92142645665,
			"0.014": 5.72405572113,
			"0.015": 1.07850944022,
			"0.016": 0.0,
			"0.017": 0.0,
			"0.018": 0.0,
			"0.019": 0.0,
			"0.02": 0.0,
			"0.021": 0.0,
			"0.022": 0.0,
			"0.023": 0.0,
			"0.024": 0.0,
			"0.025": 0.0
		}
	}
}
