{
	 "smiles": "OC(=O)C1=CC=C(S)C=C1", 
	 "Tm": 492.15, 
	 "num_atms": 16, 
	 "gaussian": { 
		 "optdone": 1, 
		 "sigma_profile": "yes", 
		 "theory": "DFT", 
		 "functional": "B3LYP", 
		 "basiset": "6-31G**", 
		 "properties": { 
			 "R2extent": 2999.9273, 
			 "electric_dipole_moment_norm": 3.93681258126, 
			 "electric_quadrupole_moment_norm": 14.9643636129, 
			 "total_energy": -819.000531841, 
			 "HOMO_LUMO_gap": 0.18442, 
			 "cosmo_polarized_energy": -15.76, 
			 "cosmo_cavitation_energy": 22.36, 
			 "cosmo_dispersion_energy": -17.17, 
			 "cosmo_repulsion_energy": 1.33, 
			 "cosmo_total_nonelectrostatic_energy": 6.51, 
			 "SMD_solvation_energy": 4.51 
		},
		"coords": [
			{
				"x": -2.9454273288,
				"y": -0.8030012832,
				"z": -0.1119426641,
				"element": "O" 
			},
			{
				"x": -1.6133456795,
				"y": -1.054267493,
				"z": 0.0107827965,
				"element": "C" 
			},
			{
				"x": -1.0997597411,
				"y": -1.9179390106,
				"z": -0.6616849635,
				"element": "O" 
			},
			{
				"x": -0.8549449366,
				"y": -0.2209458175,
				"z": 0.9954454877,
				"element": "C" 
			},
			{
				"x": 0.5409980523,
				"y": -0.1816945259,
				"z": 0.876601461,
				"element": "C" 
			},
			{
				"x": 1.3107637073,
				"y": 0.5687373414,
				"z": 1.7565273806,
				"element": "C" 
			},
			{
				"x": 0.6964868555,
				"y": 1.2866117739,
				"z": 2.7945171568,
				"element": "C" 
			},
			{
				"x": 1.6102348147,
				"y": 2.2706219832,
				"z": 3.9632687608,
				"element": "S" 
			},
			{
				"x": -0.697969258,
				"y": 1.2328244569,
				"z": 2.9356308459,
				"element": "C" 
			},
			{
				"x": -1.4613226165,
				"y": 0.4871611353,
				"z": 2.0430853312,
				"element": "C" 
			},
			{
				"x": -3.1767289731,
				"y": 0.0144384084,
				"z": 0.3497715747,
				"element": "H" 
			},
			{
				"x": 1.0065775387,
				"y": -0.7503568927,
				"z": 0.0787590414,
				"element": "H" 
			},
			{
				"x": 2.3898731679,
				"y": 0.5934825208,
				"z": 1.6379330964,
				"element": "H" 
			},
			{
				"x": 2.8360470767,
				"y": 2.0076879868,
				"z": 3.4721711708,
				"element": "H" 
			},
			{
				"x": -1.1841968282,
				"y": 1.7656891475,
				"z": 3.7471329123,
				"element": "H" 
			},
			{
				"x": -2.5356858511,
				"y": 0.4357502688,
				"z": 2.2037006116,
				"element": "H" 
			}
		],
		 "valence_orbital": [ 
			{
				"type": "occ",
				"energy": -0.32389,
				"method": "rhf"
			},
			{
				"type": "occ",
				"energy": -0.30975,
				"method": "rhf"
			},
			{
				"type": "occ",
				"energy": -0.27926,
				"method": "rhf"
			},
			{
				"type": "occ",
				"energy": -0.27377,
				"method": "rhf"
			},
			{
				"type": "occ",
				"energy": -0.23877,
				"method": "rhf"
			},
			{
				"type": "unocc",
				"energy": -0.05435,
				"method": "rhf"
			},
			{
				"type": "unocc",
				"energy": -0.02868,
				"method": "rhf"
			},
			{
				"type": "unocc",
				"energy": -0.00067,
				"method": "rhf"
			},
			{
				"type": "unocc",
				"energy": 0.0426,
				"method": "rhf"
			},
			{
				"type": "unocc",
				"energy": 0.0501,
				"method": "rhf"
			}
		],
		"cosmo_sigma_profile": { 
			"-0.025": 0.0,
			"-0.024": 0.0,
			"-0.023": 0.0,
			"-0.022": 0.0,
			"-0.021": 0.0,
			"-0.02": 0.0,
			"-0.019": 0.260271788071,
			"-0.018": 0.78674914826,
			"-0.017": 0.860932558842,
			"-0.016": 1.29406660109,
			"-0.015": 0.936135210752,
			"-0.014": 0.542988485601,
			"-0.013": 0.823278161435,
			"-0.012": 1.76392695869,
			"-0.011": 4.37826399567,
			"-0.01": 3.06829219999,
			"-0.009": 3.71113632228,
			"-0.008": 4.42684372091,
			"-0.007": 8.04937032676,
			"-0.006": 8.59932754387,
			"-0.005": 8.65707002109,
			"-0.004": 7.68974714137,
			"-0.003": 7.22365063841,
			"-0.002": 7.63977481731,
			"-0.001": 8.92168856653,
			"0.0": 8.85318551504,
			"0.001": 11.6073784831,
			"0.002": 14.4721124471,
			"0.003": 20.3581412402,
			"0.004": 6.62988593374,
			"0.005": 5.40319109524,
			"0.006": 5.27361386347,
			"0.007": 5.25354967639,
			"0.008": 4.0612364171,
			"0.009": 3.01487470891,
			"0.01": 4.30984905636,
			"0.011": 5.58156897484,
			"0.012": 5.12982032616,
			"0.013": 2.01574984588,
			"0.014": 0.165748422594,
			"0.015": 0.0,
			"0.016": 0.0,
			"0.017": 0.0,
			"0.018": 0.0,
			"0.019": 0.0,
			"0.02": 0.0,
			"0.021": 0.0,
			"0.022": 0.0,
			"0.023": 0.0,
			"0.024": 0.0,
			"0.025": 0.0
		}
	}
}
