{
	 "smiles": "CN1C(CC(N)=NO)=NC2=C1C=CC=C2", 
	 "Tm": 514.15, 
	 "num_atms": 27, 
	 "gaussian": { 
		 "optdone": 1, 
		 "sigma_profile": "yes", 
		 "theory": "DFT", 
		 "functional": "B3LYP", 
		 "basiset": "6-31G**", 
		 "properties": { 
			 "R2extent": 3805.1727, 
			 "electric_dipole_moment_norm": 2.63152296209, 
			 "electric_quadrupole_moment_norm": 5.83179234112, 
			 "total_energy": -682.491449153, 
			 "HOMO_LUMO_gap": 0.1942, 
			 "cosmo_polarized_energy": -14.07, 
			 "cosmo_cavitation_energy": 30.29, 
			 "cosmo_dispersion_energy": -22.13, 
			 "cosmo_repulsion_energy": 1.73, 
			 "cosmo_total_nonelectrostatic_energy": 9.9, 
			 "SMD_solvation_energy": 3.18 
		},
		"coords": [
			{
				"x": 0.2707729564,
				"y": 0.8335620802,
				"z": -1.2682361213,
				"element": "C" 
			},
			{
				"x": 0.4673699139,
				"y": -0.3650770769,
				"z": -0.4668695544,
				"element": "N" 
			},
			{
				"x": 1.2726184175,
				"y": -0.5251727532,
				"z": 0.6432527216,
				"element": "C" 
			},
			{
				"x": 2.0900140598,
				"y": 0.5799658899,
				"z": 1.2483808902,
				"element": "C" 
			},
			{
				"x": 1.338728624,
				"y": 1.227451792,
				"z": 2.3989427911,
				"element": "C" 
			},
			{
				"x": 1.2265499842,
				"y": 0.4394435756,
				"z": 3.5298198831,
				"element": "N" 
			},
			{
				"x": 0.8414518708,
				"y": 2.4149894844,
				"z": 2.406206973,
				"element": "N" 
			},
			{
				"x": 1.1221647148,
				"y": 3.1010172474,
				"z": 1.1813757706,
				"element": "O" 
			},
			{
				"x": 1.2049188508,
				"y": -1.7309392631,
				"z": 1.168694851,
				"element": "N" 
			},
			{
				"x": 0.3196484046,
				"y": -2.4285003551,
				"z": 0.3608649752,
				"element": "C" 
			},
			{
				"x": -0.1495030608,
				"y": -1.5902631699,
				"z": -0.6781687867,
				"element": "C" 
			},
			{
				"x": -1.0495732903,
				"y": -2.0335488605,
				"z": -1.6500486945,
				"element": "C" 
			},
			{
				"x": -1.4812546475,
				"y": -3.3544454808,
				"z": -1.5494307344,
				"element": "C" 
			},
			{
				"x": -1.0262061276,
				"y": -4.2015308371,
				"z": -0.5190118634,
				"element": "C" 
			},
			{
				"x": -0.1252721296,
				"y": -3.7537781028,
				"z": 0.4424291749,
				"element": "C" 
			},
			{
				"x": 0.504149198,
				"y": 1.7194405835,
				"z": -0.674958523,
				"element": "H" 
			},
			{
				"x": -0.7784334843,
				"y": 0.8909559319,
				"z": -1.5699985855,
				"element": "H" 
			},
			{
				"x": 0.8936549517,
				"y": 0.8181312219,
				"z": -2.1699363658,
				"element": "H" 
			},
			{
				"x": 2.3678222329,
				"y": 1.3386932672,
				"z": 0.5191249708,
				"element": "H" 
			},
			{
				"x": 3.0012871715,
				"y": 0.1287150267,
				"z": 1.6503354538,
				"element": "H" 
			},
			{
				"x": 1.1526842181,
				"y": -0.5527605492,
				"z": 3.3259865535,
				"element": "H" 
			},
			{
				"x": 0.5488993641,
				"y": 0.7736882626,
				"z": 4.2031781727,
				"element": "H" 
			},
			{
				"x": 0.7268163567,
				"y": 3.9636928819,
				"z": 1.3564918912,
				"element": "H" 
			},
			{
				"x": -1.3985009621,
				"y": -1.3879012831,
				"z": -2.4501195389,
				"element": "H" 
			},
			{
				"x": -2.1820805249,
				"y": -3.7405538725,
				"z": -2.2837330262,
				"element": "H" 
			},
			{
				"x": -1.3871960761,
				"y": -5.2250335916,
				"z": -0.4792463804,
				"element": "H" 
			},
			{
				"x": 0.2307690134,
				"y": -4.4025420493,
				"z": 1.2363731019,
				"element": "H" 
			}
		],
		 "valence_orbital": [ 
			{
				"type": "occ",
				"energy": -0.27484,
				"method": "rhf"
			},
			{
				"type": "occ",
				"energy": -0.27093,
				"method": "rhf"
			},
			{
				"type": "occ",
				"energy": -0.22381,
				"method": "rhf"
			},
			{
				"type": "occ",
				"energy": -0.21943,
				"method": "rhf"
			},
			{
				"type": "occ",
				"energy": -0.21123,
				"method": "rhf"
			},
			{
				"type": "unocc",
				"energy": -0.01703,
				"method": "rhf"
			},
			{
				"type": "unocc",
				"energy": 0.02218,
				"method": "rhf"
			},
			{
				"type": "unocc",
				"energy": 0.02734,
				"method": "rhf"
			},
			{
				"type": "unocc",
				"energy": 0.06022,
				"method": "rhf"
			},
			{
				"type": "unocc",
				"energy": 0.0708,
				"method": "rhf"
			}
		],
		"cosmo_sigma_profile": { 
			"-0.025": 0.0,
			"-0.024": 0.0,
			"-0.023": 0.0,
			"-0.022": 0.0,
			"-0.021": 0.0,
			"-0.02": 0.0,
			"-0.019": 0.0,
			"-0.018": 0.0,
			"-0.017": 0.333457044432,
			"-0.016": 0.903176918545,
			"-0.015": 0.815628101956,
			"-0.014": 1.0370655983,
			"-0.013": 1.44474089448,
			"-0.012": 1.36377084046,
			"-0.011": 1.05231171013,
			"-0.01": 1.9335031883,
			"-0.009": 3.0557083299,
			"-0.008": 2.48723081007,
			"-0.007": 4.81098235811,
			"-0.006": 13.5971775638,
			"-0.005": 17.1554890737,
			"-0.004": 20.6779792775,
			"-0.003": 21.339637706,
			"-0.002": 14.7255691446,
			"-0.001": 15.7785915709,
			"0.0": 12.9279455769,
			"0.001": 12.6448202758,
			"0.002": 12.0834375108,
			"0.003": 11.2704191303,
			"0.004": 13.1332381043,
			"0.005": 14.5562696028,
			"0.006": 14.3100321323,
			"0.007": 5.78746586397,
			"0.008": 3.91692144073,
			"0.009": 4.55361018572,
			"0.01": 3.19309376419,
			"0.011": 2.19189933164,
			"0.012": 2.75518325978,
			"0.013": 2.24250074839,
			"0.014": 1.52337606092,
			"0.015": 0.566804984905,
			"0.016": 0.580092150357,
			"0.017": 0.00566196009287,
			"0.018": 0.0,
			"0.019": 0.0,
			"0.02": 0.0,
			"0.021": 0.0,
			"0.022": 0.0,
			"0.023": 0.0,
			"0.024": 0.0,
			"0.025": 0.0
		}
	}
}
