{
	 "smiles": "OC(=O)C1CSC(N1)C1=CC=C(Cl)S1", 
	 "Tm": 423.15, 
	 "num_atms": 22, 
	 "gaussian": { 
		 "optdone": 1, 
		 "sigma_profile": "yes", 
		 "theory": "DFT", 
		 "functional": "B3LYP", 
		 "basiset": "6-31G**", 
		 "properties": { 
			 "R2extent": 4327.8183, 
			 "electric_dipole_moment_norm": 3.9169953906, 
			 "electric_quadrupole_moment_norm": 14.1418991578, 
			 "total_energy": -1771.41397149, 
			 "HOMO_LUMO_gap": 0.19966, 
			 "cosmo_polarized_energy": -17.26, 
			 "cosmo_cavitation_energy": 30.22, 
			 "cosmo_dispersion_energy": -22.86, 
			 "cosmo_repulsion_energy": 1.73, 
			 "cosmo_total_nonelectrostatic_energy": 9.09, 
			 "SMD_solvation_energy": 3.41 
		},
		"coords": [
			{
				"x": 2.7788714166,
				"y": 0.3378859653,
				"z": -2.1217639529,
				"element": "O" 
			},
			{
				"x": 2.2359415138,
				"y": -0.141458719,
				"z": -0.9742381308,
				"element": "C" 
			},
			{
				"x": 2.5816978123,
				"y": 0.2324468213,
				"z": 0.1182622736,
				"element": "O" 
			},
			{
				"x": 1.2329652242,
				"y": -1.2647927632,
				"z": -1.2714706634,
				"element": "C" 
			},
			{
				"x": 0.3432800705,
				"y": -1.0068546268,
				"z": -2.5152134066,
				"element": "C" 
			},
			{
				"x": -1.1696586853,
				"y": -0.173025008,
				"z": -1.893834268,
				"element": "S" 
			},
			{
				"x": -0.7708346272,
				"y": -0.6430501783,
				"z": -0.1015373977,
				"element": "C" 
			},
			{
				"x": 0.3727662421,
				"y": -1.5445868312,
				"z": -0.1263204548,
				"element": "N" 
			},
			{
				"x": -0.559155163,
				"y": 0.5786703248,
				"z": 0.7582110991,
				"element": "C" 
			},
			{
				"x": -0.8382650799,
				"y": 1.8956395924,
				"z": 0.5098010619,
				"element": "C" 
			},
			{
				"x": -0.6174619084,
				"y": 2.7528928317,
				"z": 1.6308278188,
				"element": "C" 
			},
			{
				"x": -0.1796146335,
				"y": 2.0567598189,
				"z": 2.7208618765,
				"element": "C" 
			},
			{
				"x": 0.2329821282,
				"y": 2.7116825565,
				"z": 4.2730310278,
				"element": "Cl" 
			},
			{
				"x": -0.0065624806,
				"y": 0.3537583932,
				"z": 2.4057582102,
				"element": "S" 
			},
			{
				"x": 3.4355718807,
				"y": 1.0006933623,
				"z": -1.8493914904,
				"element": "H" 
			},
			{
				"x": 1.8588769861,
				"y": -2.1477523343,
				"z": -1.4546508473,
				"element": "H" 
			},
			{
				"x": 0.8370984601,
				"y": -0.3747829602,
				"z": -3.2525413935,
				"element": "H" 
			},
			{
				"x": 0.0711393235,
				"y": -1.9560387565,
				"z": -2.9847421288,
				"element": "H" 
			},
			{
				"x": -1.6315269635,
				"y": -1.2021271999,
				"z": 0.2784836175,
				"element": "H" 
			},
			{
				"x": 0.0389868774,
				"y": -2.5002697003,
				"z": -0.2034765115,
				"element": "H" 
			},
			{
				"x": -1.1913744613,
				"y": 2.2452969493,
				"z": -0.4524714859,
				"element": "H" 
			},
			{
				"x": -0.7686239329,
				"y": 3.8251124619,
				"z": 1.6251151462,
				"element": "H" 
			}
		],
		 "valence_orbital": [ 
			{
				"type": "occ",
				"energy": -0.28267,
				"method": "rhf"
			},
			{
				"type": "occ",
				"energy": -0.26435,
				"method": "rhf"
			},
			{
				"type": "occ",
				"energy": -0.24916,
				"method": "rhf"
			},
			{
				"type": "occ",
				"energy": -0.23244,
				"method": "rhf"
			},
			{
				"type": "occ",
				"energy": -0.22102,
				"method": "rhf"
			},
			{
				"type": "unocc",
				"energy": -0.02136,
				"method": "rhf"
			},
			{
				"type": "unocc",
				"energy": -0.00249,
				"method": "rhf"
			},
			{
				"type": "unocc",
				"energy": 0.01033,
				"method": "rhf"
			},
			{
				"type": "unocc",
				"energy": 0.02456,
				"method": "rhf"
			},
			{
				"type": "unocc",
				"energy": 0.03419,
				"method": "rhf"
			}
		],
		"cosmo_sigma_profile": { 
			"-0.025": 0.0,
			"-0.024": 0.0,
			"-0.023": 0.0,
			"-0.022": 0.0,
			"-0.021": 0.0,
			"-0.02": 0.0,
			"-0.019": 0.0105870271142,
			"-0.018": 1.10525053078,
			"-0.017": 0.660498660762,
			"-0.016": 0.584447239986,
			"-0.015": 1.1873572814,
			"-0.014": 1.0056297668,
			"-0.013": 2.5944357105,
			"-0.012": 2.52561796402,
			"-0.011": 2.71197424235,
			"-0.01": 2.95507341829,
			"-0.009": 5.67202629308,
			"-0.008": 6.76305882881,
			"-0.007": 7.46366508054,
			"-0.006": 8.84301511677,
			"-0.005": 9.93702489235,
			"-0.004": 10.5468320192,
			"-0.003": 12.6683417149,
			"-0.002": 12.7340117553,
			"-0.001": 13.2641967908,
			"0.0": 15.2335229114,
			"0.001": 18.6473628523,
			"0.002": 21.8801173724,
			"0.003": 22.5575530682,
			"0.004": 20.5202186997,
			"0.005": 9.27329734301,
			"0.006": 6.27069873573,
			"0.007": 6.17936810597,
			"0.008": 5.30395478832,
			"0.009": 3.39516591489,
			"0.01": 3.80069887119,
			"0.011": 3.91069456664,
			"0.012": 3.53992746337,
			"0.013": 1.10002378971,
			"0.014": 0.62082417441,
			"0.015": 0.705632409279,
			"0.016": 0.21586427918,
			"0.017": 0.00489489151937,
			"0.018": 0.0,
			"0.019": 0.0,
			"0.02": 0.0,
			"0.021": 0.0,
			"0.022": 0.0,
			"0.023": 0.0,
			"0.024": 0.0,
			"0.025": 0.0
		}
	}
}
