{
	 "smiles": "CC1=CC=C(SC2=NC(=N)SN2)C=C1", 
	 "Tm": 455.15, 
	 "num_atms": 23, 
	 "gaussian": { 
		 "optdone": 1, 
		 "sigma_profile": "yes", 
		 "theory": "DFT", 
		 "functional": "B3LYP", 
		 "basiset": "6-31G**", 
		 "properties": { 
			 "R2extent": 5795.7478, 
			 "electric_dipole_moment_norm": 4.55936983804, 
			 "electric_quadrupole_moment_norm": 24.9172156779, 
			 "total_energy": -1308.9812167, 
			 "HOMO_LUMO_gap": 0.18206, 
			 "cosmo_polarized_energy": -14.25, 
			 "cosmo_cavitation_energy": 31.19, 
			 "cosmo_dispersion_energy": -23.35, 
			 "cosmo_repulsion_energy": 1.78, 
			 "cosmo_total_nonelectrostatic_energy": 9.62, 
			 "SMD_solvation_energy": 2.38 
		},
		"coords": [
			{
				"x": 2.1404309362,
				"y": -0.2206814251,
				"z": -2.5483480062,
				"element": "C" 
			},
			{
				"x": 1.5523270659,
				"y": -0.1321040186,
				"z": -1.1605631914,
				"element": "C" 
			},
			{
				"x": 1.3774062935,
				"y": 1.1031803659,
				"z": -0.5257103126,
				"element": "C" 
			},
			{
				"x": 0.8472883689,
				"y": 1.1835554538,
				"z": 0.762674814,
				"element": "C" 
			},
			{
				"x": 0.4885418434,
				"y": 0.014464096,
				"z": 1.4385263302,
				"element": "C" 
			},
			{
				"x": -0.104952381,
				"y": 0.1263818171,
				"z": 3.1268577162,
				"element": "S" 
			},
			{
				"x": -1.838964712,
				"y": -0.2207439845,
				"z": 2.94988545,
				"element": "C" 
			},
			{
				"x": -2.3844213353,
				"y": -0.8119346187,
				"z": 1.9383542316,
				"element": "N" 
			},
			{
				"x": -3.7713822753,
				"y": -0.8946182859,
				"z": 2.0669336169,
				"element": "C" 
			},
			{
				"x": -4.6399694617,
				"y": -1.3767150521,
				"z": 1.2792578069,
				"element": "N" 
			},
			{
				"x": -4.2927947174,
				"y": -0.2067221237,
				"z": 3.6783439551,
				"element": "S" 
			},
			{
				"x": -2.6139141782,
				"y": 0.1198964591,
				"z": 4.0360573354,
				"element": "N" 
			},
			{
				"x": 0.6641663495,
				"y": -1.2308967434,
				"z": 0.8238764428,
				"element": "C" 
			},
			{
				"x": 1.1828687812,
				"y": -1.2944982818,
				"z": -0.4659086715,
				"element": "C" 
			},
			{
				"x": 2.1517972548,
				"y": 0.7546842094,
				"z": -3.0420663269,
				"element": "H" 
			},
			{
				"x": 3.1736452487,
				"y": -0.5873811645,
				"z": -2.5157697133,
				"element": "H" 
			},
			{
				"x": 1.5728477837,
				"y": -0.9134169081,
				"z": -3.1781305527,
				"element": "H" 
			},
			{
				"x": 1.6522933857,
				"y": 2.0168663442,
				"z": -1.0460626799,
				"element": "H" 
			},
			{
				"x": 0.7095731498,
				"y": 2.1491188937,
				"z": 1.2385244664,
				"element": "H" 
			},
			{
				"x": -4.1741603129,
				"y": -1.7511885759,
				"z": 0.4503441682,
				"element": "H" 
			},
			{
				"x": -2.4068798167,
				"y": 0.982533824,
				"z": 4.5264979934,
				"element": "H" 
			},
			{
				"x": 0.3841952159,
				"y": -2.1371504912,
				"z": 1.3491849455,
				"element": "H" 
			},
			{
				"x": 1.3070575134,
				"y": -2.2641297897,
				"z": -0.9414598179,
				"element": "H" 
			}
		],
		 "valence_orbital": [ 
			{
				"type": "occ",
				"energy": -0.26905,
				"method": "rhf"
			},
			{
				"type": "occ",
				"energy": -0.26428,
				"method": "rhf"
			},
			{
				"type": "occ",
				"energy": -0.26206,
				"method": "rhf"
			},
			{
				"type": "occ",
				"energy": -0.24816,
				"method": "rhf"
			},
			{
				"type": "occ",
				"energy": -0.21768,
				"method": "rhf"
			},
			{
				"type": "unocc",
				"energy": -0.03562,
				"method": "rhf"
			},
			{
				"type": "unocc",
				"energy": -0.03172,
				"method": "rhf"
			},
			{
				"type": "unocc",
				"energy": -0.01746,
				"method": "rhf"
			},
			{
				"type": "unocc",
				"energy": -0.01456,
				"method": "rhf"
			},
			{
				"type": "unocc",
				"energy": 0.02515,
				"method": "rhf"
			}
		],
		"cosmo_sigma_profile": { 
			"-0.025": 0.0,
			"-0.024": 0.0,
			"-0.023": 0.0,
			"-0.022": 0.0,
			"-0.021": 0.0,
			"-0.02": 0.0,
			"-0.019": 0.0,
			"-0.018": 0.064942967513,
			"-0.017": 1.05106311327,
			"-0.016": 1.55755625728,
			"-0.015": 1.19837922621,
			"-0.014": 1.31307424713,
			"-0.013": 0.563915809816,
			"-0.012": 1.13245368437,
			"-0.011": 1.78538139142,
			"-0.01": 2.0207941955,
			"-0.009": 2.03991035349,
			"-0.008": 2.25099424304,
			"-0.007": 3.33715131745,
			"-0.006": 8.33975444253,
			"-0.005": 13.6778663273,
			"-0.004": 18.0036176702,
			"-0.003": 16.8848558777,
			"-0.002": 20.0951419843,
			"-0.001": 21.986984844,
			"0.0": 23.7044242424,
			"0.001": 19.2125607305,
			"0.002": 17.9002550302,
			"0.003": 18.0497464377,
			"0.004": 18.8296195088,
			"0.005": 12.1498434477,
			"0.006": 5.86830064873,
			"0.007": 3.45703024003,
			"0.008": 2.33122873215,
			"0.009": 2.98127715026,
			"0.01": 2.5340471599,
			"0.011": 2.29132869437,
			"0.012": 1.75312236801,
			"0.013": 1.22403228134,
			"0.014": 1.38913240487,
			"0.015": 0.813329325805,
			"0.016": 1.02863762691,
			"0.017": 0.845677453298,
			"0.018": 0.0163876775859,
			"0.019": 0.0,
			"0.02": 0.0,
			"0.021": 0.0,
			"0.022": 0.0,
			"0.023": 0.0,
			"0.024": 0.0,
			"0.025": 0.0
		}
	}
}
