{
	 "smiles": "CN1C(=O)C2=CC=CC=C2C1=O", 
	 "Tm": 407.15, 
	 "num_atms": 19, 
	 "gaussian": { 
		 "optdone": 1, 
		 "sigma_profile": "yes", 
		 "theory": "DFT", 
		 "functional": "B3LYP", 
		 "basiset": "6-31G**", 
		 "properties": { 
			 "R2extent": 2236.6576, 
			 "electric_dipole_moment_norm": 2.29334931923, 
			 "electric_quadrupole_moment_norm": 13.5688293777, 
			 "total_energy": -552.408140808, 
			 "HOMO_LUMO_gap": 0.1852, 
			 "cosmo_polarized_energy": -9.84, 
			 "cosmo_cavitation_energy": 23.8, 
			 "cosmo_dispersion_energy": -17.45, 
			 "cosmo_repulsion_energy": 1.37, 
			 "cosmo_total_nonelectrostatic_energy": 7.72, 
			 "SMD_solvation_energy": 5.55 
		},
		"coords": [
			{
				"x": -0.959697739,
				"y": -2.8796024468,
				"z": -1.9479202294,
				"element": "C" 
			},
			{
				"x": -0.4367645789,
				"y": -1.5874411058,
				"z": -1.5439141305,
				"element": "N" 
			},
			{
				"x": -0.731125581,
				"y": -0.9750472952,
				"z": -0.3153021471,
				"element": "C" 
			},
			{
				"x": -1.4549216251,
				"y": -1.4381144096,
				"z": 0.5439449234,
				"element": "O" 
			},
			{
				"x": 0.0155938746,
				"y": 0.3190020651,
				"z": -0.3238425428,
				"element": "C" 
			},
			{
				"x": 0.0839682086,
				"y": 1.3195527174,
				"z": 0.634379174,
				"element": "C" 
			},
			{
				"x": 0.876923587,
				"y": 2.4379752813,
				"z": 0.343087538,
				"element": "C" 
			},
			{
				"x": 1.5697765793,
				"y": 2.536928381,
				"z": -0.8702804821,
				"element": "C" 
			},
			{
				"x": 1.4925998446,
				"y": 1.5207205533,
				"z": -1.8324970751,
				"element": "C" 
			},
			{
				"x": 0.706493207,
				"y": 0.4176715208,
				"z": -1.5337412341,
				"element": "C" 
			},
			{
				"x": 0.423005669,
				"y": -0.8102282086,
				"z": -2.3362940773,
				"element": "C" 
			},
			{
				"x": 0.8221911028,
				"y": -1.1129249825,
				"z": -3.4433847261,
				"element": "O" 
			},
			{
				"x": -1.0485363959,
				"y": -2.8948881152,
				"z": -3.0352279279,
				"element": "H" 
			},
			{
				"x": -0.2952027816,
				"y": -3.6918762255,
				"z": -1.6351149914,
				"element": "H" 
			},
			{
				"x": -1.9354332277,
				"y": -3.0218619651,
				"z": -1.4809482895,
				"element": "H" 
			},
			{
				"x": -0.4579831665,
				"y": 1.2325538506,
				"z": 1.5705620828,
				"element": "H" 
			},
			{
				"x": 0.9567641171,
				"y": 3.2421811425,
				"z": 1.0684451492,
				"element": "H" 
			},
			{
				"x": 2.1759165328,
				"y": 3.4163049058,
				"z": -1.0666369652,
				"element": "H" 
			},
			{
				"x": 2.0241323731,
				"y": 1.5869943366,
				"z": -2.7763140486,
				"element": "H" 
			}
		],
		 "valence_orbital": [ 
			{
				"type": "occ",
				"energy": -0.28981,
				"method": "rhf"
			},
			{
				"type": "occ",
				"energy": -0.28418,
				"method": "rhf"
			},
			{
				"type": "occ",
				"energy": -0.27726,
				"method": "rhf"
			},
			{
				"type": "occ",
				"energy": -0.26633,
				"method": "rhf"
			},
			{
				"type": "occ",
				"energy": -0.26568,
				"method": "rhf"
			},
			{
				"type": "unocc",
				"energy": -0.08048,
				"method": "rhf"
			},
			{
				"type": "unocc",
				"energy": -0.03975,
				"method": "rhf"
			},
			{
				"type": "unocc",
				"energy": 0.02896,
				"method": "rhf"
			},
			{
				"type": "unocc",
				"energy": 0.07506,
				"method": "rhf"
			},
			{
				"type": "unocc",
				"energy": 0.08678,
				"method": "rhf"
			}
		],
		"cosmo_sigma_profile": { 
			"-0.025": 0.0,
			"-0.024": 0.0,
			"-0.023": 0.0,
			"-0.022": 0.0,
			"-0.021": 0.0,
			"-0.02": 0.0,
			"-0.019": 0.0,
			"-0.018": 0.0,
			"-0.017": 0.0,
			"-0.016": 0.0,
			"-0.015": 0.0,
			"-0.014": 0.0,
			"-0.013": 0.0,
			"-0.012": 0.0,
			"-0.011": 0.0,
			"-0.01": 0.0,
			"-0.009": 0.0,
			"-0.008": 1.20890590828,
			"-0.007": 8.50169947241,
			"-0.006": 12.8754485398,
			"-0.005": 16.8833697181,
			"-0.004": 16.3809766195,
			"-0.003": 19.9146017438,
			"-0.002": 15.7691642909,
			"-0.001": 12.2352676108,
			"0.0": 13.5263496285,
			"0.001": 13.2248110007,
			"0.002": 15.9085673369,
			"0.003": 6.80142155499,
			"0.004": 3.32035901296,
			"0.005": 3.76381659428,
			"0.006": 2.40934535209,
			"0.007": 2.15529109903,
			"0.008": 3.21972308438,
			"0.009": 4.03903197524,
			"0.01": 4.65841721022,
			"0.011": 9.95675367455,
			"0.012": 4.58468694048,
			"0.013": 0.0598564681521,
			"0.014": 0.0,
			"0.015": 0.0,
			"0.016": 0.0,
			"0.017": 0.0,
			"0.018": 0.0,
			"0.019": 0.0,
			"0.02": 0.0,
			"0.021": 0.0,
			"0.022": 0.0,
			"0.023": 0.0,
			"0.024": 0.0,
			"0.025": 0.0
		}
	}
}
