{
	 "smiles": "CC1=CC=C(C)N1C1=NC(CC(O)=O)=CS1", 
	 "Tm": 374.15, 
	 "num_atms": 28, 
	 "gaussian": { 
		 "optdone": 1, 
		 "sigma_profile": "yes", 
		 "theory": "DFT", 
		 "functional": "B3LYP", 
		 "basiset": "6-31G**", 
		 "properties": { 
			 "R2extent": 4712.2913, 
			 "electric_dipole_moment_norm": 5.56520549666, 
			 "electric_quadrupole_moment_norm": 22.6458082602, 
			 "total_energy": -1084.54401703, 
			 "HOMO_LUMO_gap": 0.15582, 
			 "cosmo_polarized_energy": -14.14, 
			 "cosmo_cavitation_energy": 33.37, 
			 "cosmo_dispersion_energy": -23.75, 
			 "cosmo_repulsion_energy": 1.82, 
			 "cosmo_total_nonelectrostatic_energy": 11.44, 
			 "SMD_solvation_energy": 6.57 
		},
		"coords": [
			{
				"x": 1.9806859145,
				"y": -0.9502454525,
				"z": 3.6119872221,
				"element": "C" 
			},
			{
				"x": 0.5198863108,
				"y": -0.9118157453,
				"z": 3.2920928329,
				"element": "C" 
			},
			{
				"x": -0.518650999,
				"y": -1.566697208,
				"z": 3.899032369,
				"element": "C" 
			},
			{
				"x": -1.722946928,
				"y": -1.2615242949,
				"z": 3.1933248808,
				"element": "C" 
			},
			{
				"x": -1.4166142526,
				"y": -0.4311215665,
				"z": 2.1486143547,
				"element": "C" 
			},
			{
				"x": -2.3146941368,
				"y": 0.2034737549,
				"z": 1.1369406569,
				"element": "C" 
			},
			{
				"x": -0.0260317711,
				"y": -0.2045552196,
				"z": 2.202863491,
				"element": "N" 
			},
			{
				"x": 0.6730390675,
				"y": 0.5929094434,
				"z": 1.3044308043,
				"element": "C" 
			},
			{
				"x": 0.5143184093,
				"y": 0.5441131902,
				"z": 0.0079671243,
				"element": "N" 
			},
			{
				"x": 1.2875438398,
				"y": 1.4842518697,
				"z": -0.6476426671,
				"element": "C" 
			},
			{
				"x": 1.2149304684,
				"y": 1.5458319757,
				"z": -2.1479552772,
				"element": "C" 
			},
			{
				"x": 1.3757073399,
				"y": 0.2039519707,
				"z": -2.8891633511,
				"element": "C" 
			},
			{
				"x": 0.8039785387,
				"y": -0.865785828,
				"z": -2.313431786,
				"element": "O" 
			},
			{
				"x": 1.9327622009,
				"y": 0.1349661363,
				"z": -3.9580380603,
				"element": "O" 
			},
			{
				"x": 2.0579545855,
				"y": 2.2624952933,
				"z": 0.1668560973,
				"element": "C" 
			},
			{
				"x": 1.7890503668,
				"y": 1.8475622363,
				"z": 1.830159015,
				"element": "S" 
			},
			{
				"x": 2.1493211725,
				"y": -1.7219802195,
				"z": 4.3668705494,
				"element": "H" 
			},
			{
				"x": 2.5928740782,
				"y": -1.2009184264,
				"z": 2.7380016008,
				"element": "H" 
			},
			{
				"x": 2.3630515083,
				"y": -0.0069848881,
				"z": 4.0196728427,
				"element": "H" 
			},
			{
				"x": -0.4195229719,
				"y": -2.2151628959,
				"z": 4.758709865,
				"element": "H" 
			},
			{
				"x": -2.717932928,
				"y": -1.6123903298,
				"z": 3.4303129454,
				"element": "H" 
			},
			{
				"x": -3.3506787564,
				"y": -0.0295277661,
				"z": 1.3945996352,
				"element": "H" 
			},
			{
				"x": -2.1247075112,
				"y": -0.1561303652,
				"z": 0.1210604431,
				"element": "H" 
			},
			{
				"x": -2.2120008257,
				"y": 1.295021404,
				"z": 1.1178212616,
				"element": "H" 
			},
			{
				"x": 1.9654926435,
				"y": 2.2270642722,
				"z": -2.5498228416,
				"element": "H" 
			},
			{
				"x": 0.2311163726,
				"y": 1.9388416987,
				"z": -2.4426010307,
				"element": "H" 
			},
			{
				"x": 0.4552476834,
				"y": -0.6242295321,
				"z": -1.4254418128,
				"element": "H" 
			},
			{
				"x": 2.7719205801,
				"y": 3.0245864924,
				"z": -0.1107211648,
				"element": "H" 
			}
		],
		 "valence_orbital": [ 
			{
				"type": "occ",
				"energy": -0.29946,
				"method": "rhf"
			},
			{
				"type": "occ",
				"energy": -0.28764,
				"method": "rhf"
			},
			{
				"type": "occ",
				"energy": -0.25815,
				"method": "rhf"
			},
			{
				"type": "occ",
				"energy": -0.23877,
				"method": "rhf"
			},
			{
				"type": "occ",
				"energy": -0.21191,
				"method": "rhf"
			},
			{
				"type": "unocc",
				"energy": -0.05609,
				"method": "rhf"
			},
			{
				"type": "unocc",
				"energy": -0.00889,
				"method": "rhf"
			},
			{
				"type": "unocc",
				"energy": 0.00832,
				"method": "rhf"
			},
			{
				"type": "unocc",
				"energy": 0.02216,
				"method": "rhf"
			},
			{
				"type": "unocc",
				"energy": 0.0338,
				"method": "rhf"
			}
		],
		"cosmo_sigma_profile": { 
			"-0.025": 0.0,
			"-0.024": 0.0,
			"-0.023": 0.0,
			"-0.022": 0.0,
			"-0.021": 0.0,
			"-0.02": 0.0,
			"-0.019": 0.0,
			"-0.018": 0.0,
			"-0.017": 0.0,
			"-0.016": 0.0,
			"-0.015": 0.0,
			"-0.014": 0.0,
			"-0.013": 0.0,
			"-0.012": 0.0,
			"-0.011": 0.0,
			"-0.01": 1.13866440062,
			"-0.009": 2.62573543867,
			"-0.008": 5.86355651057,
			"-0.007": 7.03373433776,
			"-0.006": 7.09375809192,
			"-0.005": 16.3647517594,
			"-0.004": 26.0392997245,
			"-0.003": 25.7742632283,
			"-0.002": 24.8477804599,
			"-0.001": 28.0145777555,
			"0.0": 26.6864598076,
			"0.001": 19.2528804198,
			"0.002": 13.913099564,
			"0.003": 9.05375040907,
			"0.004": 5.49213481748,
			"0.005": 8.08468927151,
			"0.006": 6.34209807871,
			"0.007": 7.29697764785,
			"0.008": 4.42287237924,
			"0.009": 2.99641211988,
			"0.01": 3.52677659714,
			"0.011": 5.88375795072,
			"0.012": 6.29917403863,
			"0.013": 3.25658510871,
			"0.014": 0.439051416543,
			"0.015": 0.0,
			"0.016": 0.0,
			"0.017": 0.0,
			"0.018": 0.0,
			"0.019": 0.0,
			"0.02": 0.0,
			"0.021": 0.0,
			"0.022": 0.0,
			"0.023": 0.0,
			"0.024": 0.0,
			"0.025": 0.0
		}
	}
}
