{
	 "smiles": "OC(=O)CN1CC(=O)NC1=O", 
	 "Tm": 413.15, 
	 "num_atms": 17, 
	 "gaussian": { 
		 "optdone": 1, 
		 "sigma_profile": "yes", 
		 "theory": "DFT", 
		 "functional": "B3LYP", 
		 "basiset": "6-31G**", 
		 "properties": { 
			 "R2extent": 2140.181, 
			 "electric_dipole_moment_norm": 1.23931346721, 
			 "electric_quadrupole_moment_norm": 14.8611275535, 
			 "total_energy": -604.590954017, 
			 "HOMO_LUMO_gap": 0.24497, 
			 "cosmo_polarized_energy": -19.81, 
			 "cosmo_cavitation_energy": 22.35, 
			 "cosmo_dispersion_energy": -16.29, 
			 "cosmo_repulsion_energy": 1.35, 
			 "cosmo_total_nonelectrostatic_energy": 7.41, 
			 "SMD_solvation_energy": 6.46 
		},
		"coords": [
			{
				"x": 0.9808075011,
				"y": -1.008434597,
				"z": -2.3190099352,
				"element": "O" 
			},
			{
				"x": -0.0327380798,
				"y": -0.1144439517,
				"z": -2.2941005114,
				"element": "C" 
			},
			{
				"x": -0.4738169784,
				"y": 0.4259948906,
				"z": -3.2807411791,
				"element": "O" 
			},
			{
				"x": -0.5521500687,
				"y": 0.1583664845,
				"z": -0.8840324007,
				"element": "C" 
			},
			{
				"x": -0.1309004943,
				"y": -0.7627298494,
				"z": 0.1377719008,
				"element": "N" 
			},
			{
				"x": -0.4981993068,
				"y": -2.1672402489,
				"z": 0.2012084143,
				"element": "C" 
			},
			{
				"x": 0.3789193551,
				"y": -2.7042776379,
				"z": 1.338470858,
				"element": "C" 
			},
			{
				"x": 0.3898142357,
				"y": -3.8263806913,
				"z": 1.7928685368,
				"element": "O" 
			},
			{
				"x": 1.1567651636,
				"y": -1.6318703058,
				"z": 1.7295096354,
				"element": "N" 
			},
			{
				"x": 0.8953941378,
				"y": -0.4537194282,
				"z": 1.005994191,
				"element": "C" 
			},
			{
				"x": 1.4581720943,
				"y": 0.6137483647,
				"z": 1.140720452,
				"element": "O" 
			},
			{
				"x": 1.25387758,
				"y": -1.0853375943,
				"z": -3.2492472636,
				"element": "H" 
			},
			{
				"x": -1.6439409551,
				"y": 0.2127518985,
				"z": -0.9486279603,
				"element": "H" 
			},
			{
				"x": -0.1899430789,
				"y": 1.1501915593,
				"z": -0.593948461,
				"element": "H" 
			},
			{
				"x": -0.2636770038,
				"y": -2.7035434239,
				"z": -0.726251332,
				"element": "H" 
			},
			{
				"x": -1.5580621379,
				"y": -2.3194412198,
				"z": 0.4375982546,
				"element": "H" 
			},
			{
				"x": 1.8484780363,
				"y": -1.6684342493,
				"z": 2.4642168004,
				"element": "H" 
			}
		],
		 "valence_orbital": [ 
			{
				"type": "occ",
				"energy": -0.30661,
				"method": "rhf"
			},
			{
				"type": "occ",
				"energy": -0.30155,
				"method": "rhf"
			},
			{
				"type": "occ",
				"energy": -0.297,
				"method": "rhf"
			},
			{
				"type": "occ",
				"energy": -0.2716,
				"method": "rhf"
			},
			{
				"type": "occ",
				"energy": -0.26214,
				"method": "rhf"
			},
			{
				"type": "unocc",
				"energy": -0.01717,
				"method": "rhf"
			},
			{
				"type": "unocc",
				"energy": -0.00951,
				"method": "rhf"
			},
			{
				"type": "unocc",
				"energy": 0.05312,
				"method": "rhf"
			},
			{
				"type": "unocc",
				"energy": 0.05576,
				"method": "rhf"
			},
			{
				"type": "unocc",
				"energy": 0.08046,
				"method": "rhf"
			}
		],
		"cosmo_sigma_profile": { 
			"-0.025": 0.0,
			"-0.024": 0.0,
			"-0.023": 0.0,
			"-0.022": 0.0,
			"-0.021": 0.0,
			"-0.02": 0.0,
			"-0.019": 0.254240805534,
			"-0.018": 1.19703763188,
			"-0.017": 1.52994433353,
			"-0.016": 1.61973742952,
			"-0.015": 2.07194397139,
			"-0.014": 2.18575827463,
			"-0.013": 1.84678151227,
			"-0.012": 0.680376779572,
			"-0.011": 1.98936618252,
			"-0.01": 1.6990762841,
			"-0.009": 1.8963081537,
			"-0.008": 10.7668277446,
			"-0.007": 11.7673120359,
			"-0.006": 11.388691743,
			"-0.005": 9.89931691654,
			"-0.004": 7.6196395436,
			"-0.003": 9.08174615926,
			"-0.002": 8.43637068194,
			"-0.001": 6.91889427077,
			"0.0": 7.28254074829,
			"0.001": 6.43594063059,
			"0.002": 5.68692631163,
			"0.003": 5.02206959935,
			"0.004": 4.6293196767,
			"0.005": 3.80787018743,
			"0.006": 3.79496194877,
			"0.007": 4.67348958186,
			"0.008": 4.22333406261,
			"0.009": 5.04158096843,
			"0.01": 5.38664082345,
			"0.011": 11.7844882151,
			"0.012": 13.2821238166,
			"0.013": 3.50615593238,
			"0.014": 0.0420693586926,
			"0.015": 0.0,
			"0.016": 0.0,
			"0.017": 0.0,
			"0.018": 0.0,
			"0.019": 0.0,
			"0.02": 0.0,
			"0.021": 0.0,
			"0.022": 0.0,
			"0.023": 0.0,
			"0.024": 0.0,
			"0.025": 0.0
		}
	}
}
