{
	 "smiles": "CSCCC(NC(=O)COC1=CC=CC=C1)C(O)=O", 
	 "Tm": 399.15, 
	 "num_atms": 36, 
	 "gaussian": { 
		 "optdone": 1, 
		 "sigma_profile": "yes", 
		 "theory": "DFT", 
		 "functional": "B3LYP", 
		 "basiset": "6-31G**", 
		 "properties": { 
			 "R2extent": 7909.8933, 
			 "electric_dipole_moment_norm": 6.57403076202, 
			 "electric_quadrupole_moment_norm": 24.9891693303, 
			 "total_energy": -1259.48871003, 
			 "HOMO_LUMO_gap": 0.19947, 
			 "cosmo_polarized_energy": -20.57, 
			 "cosmo_cavitation_energy": 41.24, 
			 "cosmo_dispersion_energy": -28.28, 
			 "cosmo_repulsion_energy": 2.19, 
			 "cosmo_total_nonelectrostatic_energy": 15.14, 
			 "SMD_solvation_energy": 7.94 
		},
		"coords": [
			{
				"x": -1.8379241093,
				"y": -0.3512851531,
				"z": -3.9614980084,
				"element": "C" 
			},
			{
				"x": -2.3131660986,
				"y": 1.4088623719,
				"z": -4.0789192735,
				"element": "S" 
			},
			{
				"x": -0.9092702191,
				"y": 2.2081099933,
				"z": -3.2147341897,
				"element": "C" 
			},
			{
				"x": -0.9292783681,
				"y": 2.0311609514,
				"z": -1.692189179,
				"element": "C" 
			},
			{
				"x": 0.292862155,
				"y": 2.6462242162,
				"z": -1.0013424528,
				"element": "C" 
			},
			{
				"x": 0.3408303644,
				"y": 2.2048917172,
				"z": 0.4000261777,
				"element": "N" 
			},
			{
				"x": 1.4686053602,
				"y": 2.2183853551,
				"z": 1.1347535222,
				"element": "C" 
			},
			{
				"x": 2.529335714,
				"y": 2.7328193788,
				"z": 0.7531738347,
				"element": "O" 
			},
			{
				"x": 1.3695077869,
				"y": 1.5996718614,
				"z": 2.5278022965,
				"element": "C" 
			},
			{
				"x": 0.2499498722,
				"y": 0.7474228773,
				"z": 2.7014378222,
				"element": "O" 
			},
			{
				"x": 0.343551185,
				"y": -0.5637050546,
				"z": 2.274454736,
				"element": "C" 
			},
			{
				"x": -0.7199885658,
				"y": -1.3907427032,
				"z": 2.6551991732,
				"element": "C" 
			},
			{
				"x": -0.728140162,
				"y": -2.7272401136,
				"z": 2.2680987156,
				"element": "C" 
			},
			{
				"x": 0.3195571237,
				"y": -3.2507504842,
				"z": 1.5034775142,
				"element": "C" 
			},
			{
				"x": 1.3724110209,
				"y": -2.4192812576,
				"z": 1.1280866459,
				"element": "C" 
			},
			{
				"x": 1.3944079513,
				"y": -1.0720286967,
				"z": 1.5049515745,
				"element": "C" 
			},
			{
				"x": 0.3101807346,
				"y": 4.1954147845,
				"z": -1.0859232591,
				"element": "C" 
			},
			{
				"x": 1.4134298531,
				"y": 4.7739037552,
				"z": -0.6006688194,
				"element": "O" 
			},
			{
				"x": -0.5966411669,
				"y": 4.8357803203,
				"z": -1.5669113033,
				"element": "O" 
			},
			{
				"x": -0.868261462,
				"y": -0.5296016858,
				"z": -4.4349987372,
				"element": "H" 
			},
			{
				"x": -1.8156239876,
				"y": -0.705701127,
				"z": -2.9277485761,
				"element": "H" 
			},
			{
				"x": -2.6003460797,
				"y": -0.9157401801,
				"z": -4.5029978001,
				"element": "H" 
			},
			{
				"x": 0.0264949819,
				"y": 1.8305674232,
				"z": -3.6444798971,
				"element": "H" 
			},
			{
				"x": -0.9876878541,
				"y": 3.2687667983,
				"z": -3.4611912544,
				"element": "H" 
			},
			{
				"x": -0.9507019315,
				"y": 0.9641659342,
				"z": -1.4412818623,
				"element": "H" 
			},
			{
				"x": -1.8391113761,
				"y": 2.490993254,
				"z": -1.2935945047,
				"element": "H" 
			},
			{
				"x": 1.2168225923,
				"y": 2.2875100008,
				"z": -1.4757750506,
				"element": "H" 
			},
			{
				"x": -0.4842220858,
				"y": 1.7878734091,
				"z": 0.811898607,
				"element": "H" 
			},
			{
				"x": 1.2426283586,
				"y": 2.4148641308,
				"z": 3.2474424852,
				"element": "H" 
			},
			{
				"x": 2.317847344,
				"y": 1.1007205688,
				"z": 2.7505339542,
				"element": "H" 
			},
			{
				"x": -1.5193860647,
				"y": -0.9687456266,
				"z": 3.2555512852,
				"element": "H" 
			},
			{
				"x": -1.554660614,
				"y": -3.3640655535,
				"z": 2.5695845365,
				"element": "H" 
			},
			{
				"x": 0.3124282204,
				"y": -4.2943209922,
				"z": 1.205316254,
				"element": "H" 
			},
			{
				"x": 2.1910513895,
				"y": -2.8117545626,
				"z": 0.5318503338,
				"element": "H" 
			},
			{
				"x": 2.2201054241,
				"y": -0.4445217842,
				"z": 1.1890389734,
				"element": "H" 
			},
			{
				"x": 2.0170027132,
				"y": 4.0969758731,
				"z": -0.2038242743,
				"element": "H" 
			}
		],
		 "valence_orbital": [ 
			{
				"type": "occ",
				"energy": -0.28874,
				"method": "rhf"
			},
			{
				"type": "occ",
				"energy": -0.26904,
				"method": "rhf"
			},
			{
				"type": "occ",
				"energy": -0.26124,
				"method": "rhf"
			},
			{
				"type": "occ",
				"energy": -0.24262,
				"method": "rhf"
			},
			{
				"type": "occ",
				"energy": -0.22303,
				"method": "rhf"
			},
			{
				"type": "unocc",
				"energy": -0.02356,
				"method": "rhf"
			},
			{
				"type": "unocc",
				"energy": -0.01273,
				"method": "rhf"
			},
			{
				"type": "unocc",
				"energy": -0.00735,
				"method": "rhf"
			},
			{
				"type": "unocc",
				"energy": 0.00724,
				"method": "rhf"
			},
			{
				"type": "unocc",
				"energy": 0.041,
				"method": "rhf"
			}
		],
		"cosmo_sigma_profile": { 
			"-0.025": 0.0,
			"-0.024": 0.0,
			"-0.023": 0.0,
			"-0.022": 0.0,
			"-0.021": 0.0,
			"-0.02": 0.0,
			"-0.019": 0.0,
			"-0.018": 0.0,
			"-0.017": 0.0,
			"-0.016": 0.0,
			"-0.015": 0.0,
			"-0.014": 0.105629145208,
			"-0.013": 0.863058808467,
			"-0.012": 0.949495854622,
			"-0.011": 0.904721314018,
			"-0.01": 1.12250956552,
			"-0.009": 4.32510466721,
			"-0.008": 7.47541181179,
			"-0.007": 11.4089078135,
			"-0.006": 20.3935980788,
			"-0.005": 29.7755641868,
			"-0.004": 29.2813557307,
			"-0.003": 28.8033308582,
			"-0.002": 21.3498879386,
			"-0.001": 21.1072937983,
			"0.0": 16.5854440075,
			"0.001": 14.2002241451,
			"0.002": 12.8342978128,
			"0.003": 15.2584303086,
			"0.004": 15.8970876598,
			"0.005": 16.6360907364,
			"0.006": 12.17344434,
			"0.007": 7.74809747311,
			"0.008": 6.3853471041,
			"0.009": 7.27680298556,
			"0.01": 8.11985327382,
			"0.011": 8.97941310208,
			"0.012": 5.86852240552,
			"0.013": 2.28818799404,
			"0.014": 0.0435028726759,
			"0.015": 0.0,
			"0.016": 0.0,
			"0.017": 0.0,
			"0.018": 0.0,
			"0.019": 0.0,
			"0.02": 0.0,
			"0.021": 0.0,
			"0.022": 0.0,
			"0.023": 0.0,
			"0.024": 0.0,
			"0.025": 0.0
		}
	}
}
