{
	 "smiles": "COC1=C(OC)C=C(C=C1)C1(CCCC1)C(O)=O", 
	 "Tm": 414.15, 
	 "num_atms": 36, 
	 "gaussian": { 
		 "optdone": 1, 
		 "sigma_profile": "yes", 
		 "theory": "DFT", 
		 "functional": "B3LYP", 
		 "basiset": "6-31G**", 
		 "properties": { 
			 "R2extent": 5822.7315, 
			 "electric_dipole_moment_norm": 1.2972014724, 
			 "electric_quadrupole_moment_norm": 10.0505163813, 
			 "total_energy": -845.220672569, 
			 "HOMO_LUMO_gap": 0.21644, 
			 "cosmo_polarized_energy": -11.62, 
			 "cosmo_cavitation_energy": 37.86, 
			 "cosmo_dispersion_energy": -26.13, 
			 "cosmo_repulsion_energy": 2.05, 
			 "cosmo_total_nonelectrostatic_energy": 13.78, 
			 "SMD_solvation_energy": 8.26 
		},
		"coords": [
			{
				"x": 4.0997497226,
				"y": -0.7908967488,
				"z": 2.357793453,
				"element": "C" 
			},
			{
				"x": 2.7570055257,
				"y": -1.0121201424,
				"z": 2.8060819735,
				"element": "O" 
			},
			{
				"x": 1.8244001684,
				"y": -1.134320513,
				"z": 1.799784343,
				"element": "C" 
			},
			{
				"x": 1.4531477384,
				"y": -0.0387091461,
				"z": 0.9967363089,
				"element": "C" 
			},
			{
				"x": 2.0510072206,
				"y": 1.1943871011,
				"z": 1.1429598127,
				"element": "O" 
			},
			{
				"x": 1.7120454471,
				"y": 1.8846674065,
				"z": 2.3513691929,
				"element": "C" 
			},
			{
				"x": 0.4929203845,
				"y": -0.2051719629,
				"z": 0.0009974349,
				"element": "C" 
			},
			{
				"x": -0.1359192899,
				"y": -1.4422520597,
				"z": -0.2103899597,
				"element": "C" 
			},
			{
				"x": 0.2325093688,
				"y": -2.5198608945,
				"z": 0.6030376234,
				"element": "C" 
			},
			{
				"x": 1.2021027668,
				"y": -2.3643542204,
				"z": 1.5954354416,
				"element": "C" 
			},
			{
				"x": -1.1915117124,
				"y": -1.5664413944,
				"z": -1.3136979092,
				"element": "C" 
			},
			{
				"x": -2.325226645,
				"y": -0.5134491829,
				"z": -1.202956025,
				"element": "C" 
			},
			{
				"x": -3.4935683469,
				"y": -1.0710868323,
				"z": -2.0538214643,
				"element": "C" 
			},
			{
				"x": -3.20192819,
				"y": -2.5895482729,
				"z": -2.2373948141,
				"element": "C" 
			},
			{
				"x": -1.9958058935,
				"y": -2.8888514459,
				"z": -1.3263216966,
				"element": "C" 
			},
			{
				"x": -0.4556674677,
				"y": -1.3709436693,
				"z": -2.64868717,
				"element": "C" 
			},
			{
				"x": 0.2348297906,
				"y": -2.473956178,
				"z": -3.026217625,
				"element": "O" 
			},
			{
				"x": -0.4410360267,
				"y": -0.3507182923,
				"z": -3.3045464232,
				"element": "O" 
			},
			{
				"x": 4.4516746917,
				"y": -1.6383793874,
				"z": 1.7560424394,
				"element": "H" 
			},
			{
				"x": 4.1783061969,
				"y": 0.1293129136,
				"z": 1.7708716274,
				"element": "H" 
			},
			{
				"x": 4.7128503281,
				"y": -0.7093831302,
				"z": 3.2577472394,
				"element": "H" 
			},
			{
				"x": 2.2587574505,
				"y": 2.8296241451,
				"z": 2.3275273662,
				"element": "H" 
			},
			{
				"x": 2.00470959,
				"y": 1.3096309597,
				"z": 3.2354896283,
				"element": "H" 
			},
			{
				"x": 0.6350298256,
				"y": 2.0912696484,
				"z": 2.3906963909,
				"element": "H" 
			},
			{
				"x": 0.2497385094,
				"y": 0.6559512622,
				"z": -0.6132916551,
				"element": "H" 
			},
			{
				"x": -0.222443826,
				"y": -3.4937183613,
				"z": 0.4625000561,
				"element": "H" 
			},
			{
				"x": 1.4959296861,
				"y": -3.1982214232,
				"z": 2.2254326805,
				"element": "H" 
			},
			{
				"x": -2.6120617502,
				"y": -0.4388465376,
				"z": -0.1489554741,
				"element": "H" 
			},
			{
				"x": -1.9991621034,
				"y": 0.4732135597,
				"z": -1.5356230387,
				"element": "H" 
			},
			{
				"x": -4.4543185698,
				"y": -0.8981037412,
				"z": -1.5597919902,
				"element": "H" 
			},
			{
				"x": -3.5396997393,
				"y": -0.5671053951,
				"z": -3.0232541848,
				"element": "H" 
			},
			{
				"x": -4.062416635,
				"y": -3.2189983378,
				"z": -1.9924005051,
				"element": "H" 
			},
			{
				"x": -2.9435568667,
				"y": -2.8043476018,
				"z": -3.2804752405,
				"element": "H" 
			},
			{
				"x": -1.4081641316,
				"y": -3.7477385458,
				"z": -1.6573622797,
				"element": "H" 
			},
			{
				"x": -2.3373550629,
				"y": -3.0873955578,
				"z": -0.3038854461,
				"element": "H" 
			},
			{
				"x": 0.6952278451,
				"y": -2.2309380214,
				"z": -3.8470301106,
				"element": "H" 
			}
		],
		 "valence_orbital": [ 
			{
				"type": "occ",
				"energy": -0.2933,
				"method": "rhf"
			},
			{
				"type": "occ",
				"energy": -0.27148,
				"method": "rhf"
			},
			{
				"type": "occ",
				"energy": -0.26163,
				"method": "rhf"
			},
			{
				"type": "occ",
				"energy": -0.24083,
				"method": "rhf"
			},
			{
				"type": "occ",
				"energy": -0.22509,
				"method": "rhf"
			},
			{
				"type": "unocc",
				"energy": -0.00865,
				"method": "rhf"
			},
			{
				"type": "unocc",
				"energy": -0.00096,
				"method": "rhf"
			},
			{
				"type": "unocc",
				"energy": 0.02478,
				"method": "rhf"
			},
			{
				"type": "unocc",
				"energy": 0.07318,
				"method": "rhf"
			},
			{
				"type": "unocc",
				"energy": 0.08844,
				"method": "rhf"
			}
		],
		"cosmo_sigma_profile": { 
			"-0.025": 0.0,
			"-0.024": 0.0,
			"-0.023": 0.0,
			"-0.022": 0.0,
			"-0.021": 0.0,
			"-0.02": 0.0,
			"-0.019": 0.0,
			"-0.018": 0.596885454898,
			"-0.017": 0.889912530582,
			"-0.016": 0.781099494842,
			"-0.015": 0.827135887581,
			"-0.014": 0.831128199711,
			"-0.013": 1.17292272362,
			"-0.012": 0.665427800768,
			"-0.011": 0.260036004453,
			"-0.01": 0.563658052115,
			"-0.009": 0.537435613352,
			"-0.008": 0.377582482692,
			"-0.007": 1.43185241525,
			"-0.006": 4.68944292732,
			"-0.005": 11.6446203158,
			"-0.004": 19.5119641893,
			"-0.003": 37.4823224671,
			"-0.002": 38.1141443498,
			"-0.001": 33.5458488368,
			"0.0": 29.6491553214,
			"0.001": 26.5688662416,
			"0.002": 15.3433012812,
			"0.003": 14.618537902,
			"0.004": 12.9537779539,
			"0.005": 9.7545690891,
			"0.006": 6.61140755297,
			"0.007": 5.88499683573,
			"0.008": 4.35511207734,
			"0.009": 3.30922103352,
			"0.01": 4.19629621896,
			"0.011": 5.42138973264,
			"0.012": 4.12440014875,
			"0.013": 0.0286659409184,
			"0.014": 0.0,
			"0.015": 0.0,
			"0.016": 0.0,
			"0.017": 0.0,
			"0.018": 0.0,
			"0.019": 0.0,
			"0.02": 0.0,
			"0.021": 0.0,
			"0.022": 0.0,
			"0.023": 0.0,
			"0.024": 0.0,
			"0.025": 0.0
		}
	}
}
