{
	 "smiles": "ClC(=O)C1=CC2=C(OC=C2)C=C1", 
	 "Tm": 340.65, 
	 "num_atms": 17, 
	 "gaussian": { 
		 "optdone": 1, 
		 "sigma_profile": "yes", 
		 "theory": "DFT", 
		 "functional": "B3LYP", 
		 "basiset": "6-31G**", 
		 "properties": { 
			 "R2extent": 3206.3965, 
			 "electric_dipole_moment_norm": 4.61987165406, 
			 "electric_quadrupole_moment_norm": 8.76865327915, 
			 "total_energy": -956.605552457, 
			 "HOMO_LUMO_gap": 0.17503, 
			 "cosmo_polarized_energy": -7.14, 
			 "cosmo_cavitation_energy": 23.86, 
			 "cosmo_dispersion_energy": -18.0, 
			 "cosmo_repulsion_energy": 1.41, 
			 "cosmo_total_nonelectrostatic_energy": 7.27, 
			 "SMD_solvation_energy": 5.45 
		},
		"coords": [
			{
				"x": -1.4279513962,
				"y": -3.9670883157,
				"z": -1.4600056562,
				"element": "Cl" 
			},
			{
				"x": -1.2024948671,
				"y": -2.1524323984,
				"z": -1.6390272758,
				"element": "C" 
			},
			{
				"x": -1.2009190944,
				"y": -1.6884568647,
				"z": -2.7399988864,
				"element": "O" 
			},
			{
				"x": -1.0380880751,
				"y": -1.4058220906,
				"z": -0.3723094462,
				"element": "C" 
			},
			{
				"x": -0.8648649808,
				"y": -0.0184808448,
				"z": -0.5064307679,
				"element": "C" 
			},
			{
				"x": -0.7039336066,
				"y": 0.7479660126,
				"z": 0.6478135804,
				"element": "C" 
			},
			{
				"x": -0.7213988737,
				"y": 0.1016404573,
				"z": 1.9020469509,
				"element": "C" 
			},
			{
				"x": -0.5503747318,
				"y": 1.0087905267,
				"z": 2.9024103355,
				"element": "O" 
			},
			{
				"x": -0.4231788953,
				"y": 2.2368681607,
				"z": 2.2898884111,
				"element": "C" 
			},
			{
				"x": -0.5061908338,
				"y": 2.1490068156,
				"z": 0.9413690858,
				"element": "C" 
			},
			{
				"x": -0.8912284957,
				"y": -1.2699586376,
				"z": 2.0610642913,
				"element": "C" 
			},
			{
				"x": -1.0501455969,
				"y": -2.0193348568,
				"z": 0.9017983373,
				"element": "C" 
			},
			{
				"x": -0.8597994467,
				"y": 0.4244344975,
				"z": -1.4959678188,
				"element": "H" 
			},
			{
				"x": -0.2793462671,
				"y": 3.0684942954,
				"z": 2.9626480054,
				"element": "H" 
			},
			{
				"x": -0.4371907977,
				"y": 2.9664224099,
				"z": 0.2387202267,
				"element": "H" 
			},
			{
				"x": -0.8985616183,
				"y": -1.7276456282,
				"z": 3.0436911163,
				"element": "H" 
			},
			{
				"x": -1.185732423,
				"y": -3.0910035388,
				"z": 0.9706895106,
				"element": "H" 
			}
		],
		 "valence_orbital": [ 
			{
				"type": "occ",
				"energy": -0.31646,
				"method": "rhf"
			},
			{
				"type": "occ",
				"energy": -0.31404,
				"method": "rhf"
			},
			{
				"type": "occ",
				"energy": -0.29002,
				"method": "rhf"
			},
			{
				"type": "occ",
				"energy": -0.26552,
				"method": "rhf"
			},
			{
				"type": "occ",
				"energy": -0.24548,
				"method": "rhf"
			},
			{
				"type": "unocc",
				"energy": -0.07045,
				"method": "rhf"
			},
			{
				"type": "unocc",
				"energy": -0.03925,
				"method": "rhf"
			},
			{
				"type": "unocc",
				"energy": 0.02122,
				"method": "rhf"
			},
			{
				"type": "unocc",
				"energy": 0.02451,
				"method": "rhf"
			},
			{
				"type": "unocc",
				"energy": 0.04948,
				"method": "rhf"
			}
		],
		"cosmo_sigma_profile": { 
			"-0.025": 0.0,
			"-0.024": 0.0,
			"-0.023": 0.0,
			"-0.022": 0.0,
			"-0.021": 0.0,
			"-0.02": 0.0,
			"-0.019": 0.0,
			"-0.018": 0.0,
			"-0.017": 0.0,
			"-0.016": 0.0,
			"-0.015": 0.0,
			"-0.014": 0.0,
			"-0.013": 0.0,
			"-0.012": 0.0,
			"-0.011": 0.00929727708516,
			"-0.01": 1.54504903961,
			"-0.009": 2.10528248058,
			"-0.008": 5.36885566367,
			"-0.007": 7.39230321205,
			"-0.006": 9.38573324798,
			"-0.005": 7.89967552571,
			"-0.004": 7.82426605275,
			"-0.003": 9.93836634053,
			"-0.002": 11.3745039422,
			"-0.001": 16.6768377427,
			"0.0": 21.3504744576,
			"0.001": 23.0341882808,
			"0.002": 23.2992772895,
			"0.003": 11.9250170824,
			"0.004": 9.76503729388,
			"0.005": 8.86399169245,
			"0.006": 5.16149796863,
			"0.007": 3.65531788792,
			"0.008": 4.48714343974,
			"0.009": 3.77192641204,
			"0.01": 0.871631620129,
			"0.011": 0.0,
			"0.012": 0.0,
			"0.013": 0.0,
			"0.014": 0.0,
			"0.015": 0.0,
			"0.016": 0.0,
			"0.017": 0.0,
			"0.018": 0.0,
			"0.019": 0.0,
			"0.02": 0.0,
			"0.021": 0.0,
			"0.022": 0.0,
			"0.023": 0.0,
			"0.024": 0.0,
			"0.025": 0.0
		}
	}
}
