{
	 "smiles": "CC1(C)CCC2=C(O1)C=CC(=C2)S(Cl)(=O)=O", 
	 "Tm": 366.15, 
	 "num_atms": 29, 
	 "gaussian": { 
		 "optdone": 1, 
		 "sigma_profile": "yes", 
		 "theory": "DFT", 
		 "functional": "B3LYP", 
		 "basiset": "6-31G**", 
		 "properties": { 
			 "R2extent": 7352.5876, 
			 "electric_dipole_moment_norm": 7.8502610084, 
			 "electric_quadrupole_moment_norm": 21.0336899224, 
			 "total_energy": -1511.01045799, 
			 "HOMO_LUMO_gap": 0.16601, 
			 "cosmo_polarized_energy": -11.04, 
			 "cosmo_cavitation_energy": 34.52, 
			 "cosmo_dispersion_energy": -25.34, 
			 "cosmo_repulsion_energy": 1.93, 
			 "cosmo_total_nonelectrostatic_energy": 11.11, 
			 "SMD_solvation_energy": 4.39 
		},
		"coords": [
			{
				"x": 2.5096120115,
				"y": -3.332532694,
				"z": -1.2743427713,
				"element": "C" 
			},
			{
				"x": 1.5139435175,
				"y": -2.1745533111,
				"z": -1.2412708601,
				"element": "C" 
			},
			{
				"x": 1.2962925131,
				"y": -1.5964684272,
				"z": -2.6454752602,
				"element": "C" 
			},
			{
				"x": 1.9321051888,
				"y": -1.1099538033,
				"z": -0.2152313713,
				"element": "C" 
			},
			{
				"x": 0.8474024091,
				"y": -0.0439590845,
				"z": -0.0259757243,
				"element": "C" 
			},
			{
				"x": -0.505086172,
				"y": -0.6942459927,
				"z": 0.1594137688,
				"element": "C" 
			},
			{
				"x": -0.7076577395,
				"y": -2.028791626,
				"z": -0.2513048344,
				"element": "C" 
			},
			{
				"x": 0.25919642,
				"y": -2.791405039,
				"z": -0.8136854216,
				"element": "O" 
			},
			{
				"x": -1.9530025464,
				"y": -2.6579943591,
				"z": -0.0710482691,
				"element": "C" 
			},
			{
				"x": -3.0076716973,
				"y": -1.9737707038,
				"z": 0.5095552163,
				"element": "C" 
			},
			{
				"x": -2.8050289741,
				"y": -0.6464115898,
				"z": 0.9051530769,
				"element": "C" 
			},
			{
				"x": -1.5723448837,
				"y": -0.0139982362,
				"z": 0.7444493147,
				"element": "C" 
			},
			{
				"x": -4.1418990908,
				"y": 0.2519102368,
				"z": 1.6434057441,
				"element": "S" 
			},
			{
				"x": -3.8915344188,
				"y": -0.2038141592,
				"z": 3.7277961838,
				"element": "Cl" 
			},
			{
				"x": -3.8970061504,
				"y": 1.685095954,
				"z": 1.5254748629,
				"element": "O" 
			},
			{
				"x": -5.4118143096,
				"y": -0.3542268377,
				"z": 1.2603463731,
				"element": "O" 
			},
			{
				"x": 3.4844629882,
				"y": -2.985298296,
				"z": -1.629630573,
				"element": "H" 
			},
			{
				"x": 2.156387478,
				"y": -4.1194406769,
				"z": -1.9465472903,
				"element": "H" 
			},
			{
				"x": 2.6345636596,
				"y": -3.7623983465,
				"z": -0.2766040509,
				"element": "H" 
			},
			{
				"x": 2.2190254209,
				"y": -1.1407340955,
				"z": -3.0187761239,
				"element": "H" 
			},
			{
				"x": 1.0002450596,
				"y": -2.3915128117,
				"z": -3.3351893005,
				"element": "H" 
			},
			{
				"x": 0.511579579,
				"y": -0.8353439191,
				"z": -2.6540654824,
				"element": "H" 
			},
			{
				"x": 2.873870132,
				"y": -0.6516353269,
				"z": -0.5340388594,
				"element": "H" 
			},
			{
				"x": 2.1243252881,
				"y": -1.6126492619,
				"z": 0.7399086532,
				"element": "H" 
			},
			{
				"x": 1.0810333123,
				"y": 0.5833876451,
				"z": 0.8409352006,
				"element": "H" 
			},
			{
				"x": 0.8236982354,
				"y": 0.6310338587,
				"z": -0.8913864525,
				"element": "H" 
			},
			{
				"x": -2.0632883317,
				"y": -3.6847095879,
				"z": -0.4024758428,
				"element": "H" 
			},
			{
				"x": -3.9746426974,
				"y": -2.4446440398,
				"z": 0.6445335657,
				"element": "H" 
			},
			{
				"x": -1.4473662013,
				"y": 1.0135645313,
				"z": 1.071276528,
				"element": "H" 
			}
		],
		 "valence_orbital": [ 
			{
				"type": "occ",
				"energy": -0.32412,
				"method": "rhf"
			},
			{
				"type": "occ",
				"energy": -0.31543,
				"method": "rhf"
			},
			{
				"type": "occ",
				"energy": -0.30204,
				"method": "rhf"
			},
			{
				"type": "occ",
				"energy": -0.27451,
				"method": "rhf"
			},
			{
				"type": "occ",
				"energy": -0.24538,
				"method": "rhf"
			},
			{
				"type": "unocc",
				"energy": -0.07937,
				"method": "rhf"
			},
			{
				"type": "unocc",
				"energy": -0.03124,
				"method": "rhf"
			},
			{
				"type": "unocc",
				"energy": -0.02435,
				"method": "rhf"
			},
			{
				"type": "unocc",
				"energy": 0.06028,
				"method": "rhf"
			},
			{
				"type": "unocc",
				"energy": 0.06512,
				"method": "rhf"
			}
		],
		"cosmo_sigma_profile": { 
			"-0.025": 0.0,
			"-0.024": 0.0,
			"-0.023": 0.0,
			"-0.022": 0.0,
			"-0.021": 0.0,
			"-0.02": 0.0,
			"-0.019": 0.0,
			"-0.018": 0.0,
			"-0.017": 0.0,
			"-0.016": 0.0,
			"-0.015": 0.0,
			"-0.014": 0.0,
			"-0.013": 0.0,
			"-0.012": 0.0,
			"-0.011": 0.0,
			"-0.01": 0.0,
			"-0.009": 0.0,
			"-0.008": 1.90642863127,
			"-0.007": 4.86732133196,
			"-0.006": 6.72761590064,
			"-0.005": 14.7871126579,
			"-0.004": 29.1899936693,
			"-0.003": 28.588725622,
			"-0.002": 26.2596031094,
			"-0.001": 25.7413698103,
			"0.0": 26.6040969952,
			"0.001": 23.6375285564,
			"0.002": 18.4775272735,
			"0.003": 14.1807745112,
			"0.004": 17.585009049,
			"0.005": 5.71549208376,
			"0.006": 5.80405498807,
			"0.007": 5.29344987426,
			"0.008": 11.1335846441,
			"0.009": 8.20899010683,
			"0.01": 0.628017279753,
			"0.011": 0.0,
			"0.012": 0.0,
			"0.013": 0.0,
			"0.014": 0.0,
			"0.015": 0.0,
			"0.016": 0.0,
			"0.017": 0.0,
			"0.018": 0.0,
			"0.019": 0.0,
			"0.02": 0.0,
			"0.021": 0.0,
			"0.022": 0.0,
			"0.023": 0.0,
			"0.024": 0.0,
			"0.025": 0.0
		}
	}
}
