{
	 "smiles": "CC(C)C1=C(O)C(=O)C2=C([C@@H](C[C@H]3C(C)(C)CCC[C@]23C)OC(C)=O)C1=O", 
	 "Tm": 486.15, 
	 "num_atms": 57, 
	 "gaussian": { 
		 "optdone": 1, 
		 "sigma_profile": "yes", 
		 "theory": "DFT", 
		 "functional": "B3LYP", 
		 "basiset": "6-31G**", 
		 "properties": { 
			 "R2extent": 10923.8623, 
			 "electric_dipole_moment_norm": 3.01006768861, 
			 "electric_quadrupole_moment_norm": 13.5145341141, 
			 "total_energy": -1232.56339246, 
			 "HOMO_LUMO_gap": 0.12253, 
			 "cosmo_polarized_energy": -13.11, 
			 "cosmo_cavitation_energy": 52.58, 
			 "cosmo_dispersion_energy": -35.12, 
			 "cosmo_repulsion_energy": 2.63, 
			 "cosmo_total_nonelectrostatic_energy": 20.1, 
			 "SMD_solvation_energy": 10.58 
		},
		"coords": [
			{
				"x": -2.5316177939,
				"y": -1.228430325,
				"z": -4.4375697536,
				"element": "C" 
			},
			{
				"x": -3.4996235323,
				"y": -0.4636319895,
				"z": -3.5122108878,
				"element": "C" 
			},
			{
				"x": -4.0713710472,
				"y": 0.7884402922,
				"z": -4.2087084759,
				"element": "C" 
			},
			{
				"x": -2.8638154782,
				"y": -0.1296545583,
				"z": -2.1747371605,
				"element": "C" 
			},
			{
				"x": -3.3724506305,
				"y": -0.5769822579,
				"z": -1.0003951207,
				"element": "C" 
			},
			{
				"x": -4.4737101364,
				"y": -1.3396183071,
				"z": -0.9108158904,
				"element": "O" 
			},
			{
				"x": -2.7725934508,
				"y": -0.2543582431,
				"z": 0.3344303458,
				"element": "C" 
			},
			{
				"x": -3.3839979486,
				"y": -0.6811097404,
				"z": 1.317045691,
				"element": "O" 
			},
			{
				"x": -1.5154346986,
				"y": 0.5334127023,
				"z": 0.4167340849,
				"element": "C" 
			},
			{
				"x": -1.0349485951,
				"y": 1.0253766654,
				"z": -0.7502352363,
				"element": "C" 
			},
			{
				"x": 0.1828225611,
				"y": 1.9117347494,
				"z": -0.8176641561,
				"element": "C" 
			},
			{
				"x": 0.58725708,
				"y": 2.4524908187,
				"z": 0.5478429585,
				"element": "C" 
			},
			{
				"x": 0.5640265681,
				"y": 1.331528254,
				"z": 1.5930750779,
				"element": "C" 
			},
			{
				"x": 1.3547516472,
				"y": 1.6592156144,
				"z": 2.9112950195,
				"element": "C" 
			},
			{
				"x": 1.1776157874,
				"y": 3.1120615314,
				"z": 3.4000371174,
				"element": "C" 
			},
			{
				"x": 2.8578120691,
				"y": 1.4419141239,
				"z": 2.6216330826,
				"element": "C" 
			},
			{
				"x": 0.9229540768,
				"y": 0.6757555853,
				"z": 4.0374118185,
				"element": "C" 
			},
			{
				"x": 0.4844773858,
				"y": -0.6782876018,
				"z": 3.4742724571,
				"element": "C" 
			},
			{
				"x": -0.7806431234,
				"y": -0.5695558962,
				"z": 2.5949346745,
				"element": "C" 
			},
			{
				"x": -0.8848087102,
				"y": 0.7812697492,
				"z": 1.7960612117,
				"element": "C" 
			},
			{
				"x": -1.8263168499,
				"y": 1.7671234878,
				"z": 2.542491405,
				"element": "C" 
			},
			{
				"x": 1.2434600781,
				"y": 1.0770993356,
				"z": -1.3698102312,
				"element": "O" 
			},
			{
				"x": 2.1663030681,
				"y": 1.7132540427,
				"z": -2.1368330956,
				"element": "C" 
			},
			{
				"x": 3.116463123,
				"y": 0.7180931769,
				"z": -2.7579970344,
				"element": "C" 
			},
			{
				"x": 2.2004145398,
				"y": 2.9127692014,
				"z": -2.2966351572,
				"element": "O" 
			},
			{
				"x": -1.6757160942,
				"y": 0.7360775911,
				"z": -2.0894811107,
				"element": "C" 
			},
			{
				"x": -1.1795763686,
				"y": 1.2528249641,
				"z": -3.0904703817,
				"element": "O" 
			},
			{
				"x": -1.6767078102,
				"y": -0.6056987979,
				"z": -4.7101144922,
				"element": "H" 
			},
			{
				"x": -2.1591651243,
				"y": -2.1385321878,
				"z": -3.9558198511,
				"element": "H" 
			},
			{
				"x": -3.0501441175,
				"y": -1.523572874,
				"z": -5.356146863,
				"element": "H" 
			},
			{
				"x": -4.3396934236,
				"y": -1.1296637012,
				"z": -3.2896776214,
				"element": "H" 
			},
			{
				"x": -4.5897952473,
				"y": 0.4986945108,
				"z": -5.1291395283,
				"element": "H" 
			},
			{
				"x": -3.2750504945,
				"y": 1.4896538639,
				"z": -4.467700945,
				"element": "H" 
			},
			{
				"x": -4.7926844938,
				"y": 1.3035367802,
				"z": -3.5658460974,
				"element": "H" 
			},
			{
				"x": -4.6073485213,
				"y": -1.4766311934,
				"z": 0.0510014077,
				"element": "H" 
			},
			{
				"x": 0.0108369059,
				"y": 2.7229366216,
				"z": -1.527146367,
				"element": "H" 
			},
			{
				"x": -0.0971425972,
				"y": 3.2652734643,
				"z": 0.8171614556,
				"element": "H" 
			},
			{
				"x": 1.5786652156,
				"y": 2.9028075875,
				"z": 0.4526294204,
				"element": "H" 
			},
			{
				"x": 1.1086610058,
				"y": 0.4966282449,
				"z": 1.1312117477,
				"element": "H" 
			},
			{
				"x": 1.7132229333,
				"y": 3.2489666908,
				"z": 4.346445399,
				"element": "H" 
			},
			{
				"x": 1.5893500847,
				"y": 3.8350709583,
				"z": 2.6887755205,
				"element": "H" 
			},
			{
				"x": 0.1313756223,
				"y": 3.3737271531,
				"z": 3.5758526047,
				"element": "H" 
			},
			{
				"x": 3.4621936545,
				"y": 1.7314075723,
				"z": 3.4883019485,
				"element": "H" 
			},
			{
				"x": 3.198266263,
				"y": 2.0387501339,
				"z": 1.7688014921,
				"element": "H" 
			},
			{
				"x": 3.0755521531,
				"y": 0.3916274984,
				"z": 2.3981960352,
				"element": "H" 
			},
			{
				"x": 0.1028583811,
				"y": 1.1052551716,
				"z": 4.6253907267,
				"element": "H" 
			},
			{
				"x": 1.7557005459,
				"y": 0.5463473044,
				"z": 4.7396081764,
				"element": "H" 
			},
			{
				"x": 0.2934701405,
				"y": -1.3867924752,
				"z": 4.2882347597,
				"element": "H" 
			},
			{
				"x": 1.3096573518,
				"y": -1.1084286791,
				"z": 2.8929281439,
				"element": "H" 
			},
			{
				"x": -0.7930818488,
				"y": -1.4155465981,
				"z": 1.8994285442,
				"element": "H" 
			},
			{
				"x": -1.6755604319,
				"y": -0.6791844396,
				"z": 3.2117069696,
				"element": "H" 
			},
			{
				"x": -2.8408960183,
				"y": 1.3641522801,
				"z": 2.5676015799,
				"element": "H" 
			},
			{
				"x": -1.8625271749,
				"y": 2.7460852417,
				"z": 2.0550679334,
				"element": "H" 
			},
			{
				"x": -1.5102884144,
				"y": 1.9147648174,
				"z": 3.5760421298,
				"element": "H" 
			},
			{
				"x": 2.5897725094,
				"y": 0.1603272117,
				"z": -3.5390989967,
				"element": "H" 
			},
			{
				"x": 3.9609712847,
				"y": 1.24764557,
				"z": -3.1981425919,
				"element": "H" 
			},
			{
				"x": 3.4624981397,
				"y": -0.0037206969,
				"z": -2.0139538935,
				"element": "H" 
			}
		],
		 "valence_orbital": [ 
			{
				"type": "occ",
				"energy": -0.28955,
				"method": "rhf"
			},
			{
				"type": "occ",
				"energy": -0.27965,
				"method": "rhf"
			},
			{
				"type": "occ",
				"energy": -0.26868,
				"method": "rhf"
			},
			{
				"type": "occ",
				"energy": -0.25683,
				"method": "rhf"
			},
			{
				"type": "occ",
				"energy": -0.24487,
				"method": "rhf"
			},
			{
				"type": "unocc",
				"energy": -0.12234,
				"method": "rhf"
			},
			{
				"type": "unocc",
				"energy": -0.00802,
				"method": "rhf"
			},
			{
				"type": "unocc",
				"energy": 0.00923,
				"method": "rhf"
			},
			{
				"type": "unocc",
				"energy": 0.01544,
				"method": "rhf"
			},
			{
				"type": "unocc",
				"energy": 0.06879,
				"method": "rhf"
			}
		],
		"cosmo_sigma_profile": { 
			"-0.025": 0.0,
			"-0.024": 0.0,
			"-0.023": 0.0,
			"-0.022": 0.0,
			"-0.021": 0.0,
			"-0.02": 0.0,
			"-0.019": 0.0,
			"-0.018": 0.0,
			"-0.017": 0.0,
			"-0.016": 0.0,
			"-0.015": 0.0,
			"-0.014": 0.239985122131,
			"-0.013": 0.647317584974,
			"-0.012": 0.696950834711,
			"-0.011": 0.322047105067,
			"-0.01": 0.873002573094,
			"-0.009": 0.374990967328,
			"-0.008": 0.797938060667,
			"-0.007": 2.02794683502,
			"-0.006": 8.50612684984,
			"-0.005": 16.1334448613,
			"-0.004": 22.1793906453,
			"-0.003": 41.0169861432,
			"-0.002": 60.1755212255,
			"-0.001": 58.660475684,
			"0.0": 49.7039694447,
			"0.001": 50.6066186211,
			"0.002": 23.7771249729,
			"0.003": 10.6533435234,
			"0.004": 8.70054022298,
			"0.005": 10.3627423757,
			"0.006": 8.75833341935,
			"0.007": 6.51127949838,
			"0.008": 8.33725808031,
			"0.009": 5.61246216349,
			"0.01": 3.79237173519,
			"0.011": 4.5901301568,
			"0.012": 4.10444519486,
			"0.013": 0.857724567588,
			"0.014": 0.0,
			"0.015": 0.0,
			"0.016": 0.0,
			"0.017": 0.0,
			"0.018": 0.0,
			"0.019": 0.0,
			"0.02": 0.0,
			"0.021": 0.0,
			"0.022": 0.0,
			"0.023": 0.0,
			"0.024": 0.0,
			"0.025": 0.0
		}
	}
}
