{
	 "smiles": "CCC(CC(O)=O)C1=CC=C(OC)C=C1", 
	 "Tm": 357.15, 
	 "num_atms": 31, 
	 "gaussian": { 
		 "optdone": 1, 
		 "sigma_profile": "yes", 
		 "theory": "DFT", 
		 "functional": "B3LYP", 
		 "basiset": "6-31G**", 
		 "properties": { 
			 "R2extent": 4229.2677, 
			 "electric_dipole_moment_norm": 2.56420032954, 
			 "electric_quadrupole_moment_norm": 15.6369067347, 
			 "total_energy": -692.606362925, 
			 "HOMO_LUMO_gap": 0.21322, 
			 "cosmo_polarized_energy": -12.78, 
			 "cosmo_cavitation_energy": 34.1, 
			 "cosmo_dispersion_energy": -23.54, 
			 "cosmo_repulsion_energy": 1.89, 
			 "cosmo_total_nonelectrostatic_energy": 12.45, 
			 "SMD_solvation_energy": 7.64 
		},
		"coords": [
			{
				"x": 1.5366899186,
				"y": -4.0940296038,
				"z": -1.1365305503,
				"element": "C" 
			},
			{
				"x": 1.3487395774,
				"y": -2.5755579937,
				"z": -1.0401331452,
				"element": "C" 
			},
			{
				"x": 0.099610717,
				"y": -2.1238998627,
				"z": -0.2459344507,
				"element": "C" 
			},
			{
				"x": 0.1862118963,
				"y": -2.5504178221,
				"z": 1.2406177514,
				"element": "C" 
			},
			{
				"x": -1.0351114234,
				"y": -2.1948412266,
				"z": 2.0595535234,
				"element": "C" 
			},
			{
				"x": -2.1837686091,
				"y": -2.6240987483,
				"z": 1.4732644086,
				"element": "O" 
			},
			{
				"x": -1.0316203648,
				"y": -1.6229945513,
				"z": 3.1264879096,
				"element": "O" 
			},
			{
				"x": -0.1407093118,
				"y": -0.6271669172,
				"z": -0.3901129191,
				"element": "C" 
			},
			{
				"x": 0.793292593,
				"y": 0.3196048556,
				"z": 0.0670882938,
				"element": "C" 
			},
			{
				"x": 0.5746015759,
				"y": 1.6824568349,
				"z": -0.0810717202,
				"element": "C" 
			},
			{
				"x": -0.5979540198,
				"y": 2.1463441564,
				"z": -0.6964375089,
				"element": "C" 
			},
			{
				"x": -0.7190727323,
				"y": 3.5033017903,
				"z": -0.796315666,
				"element": "O" 
			},
			{
				"x": -1.8882573173,
				"y": 4.0274293555,
				"z": -1.4029677811,
				"element": "C" 
			},
			{
				"x": -1.542999314,
				"y": 1.2237889522,
				"z": -1.1553615519,
				"element": "C" 
			},
			{
				"x": -1.303350717,
				"y": -0.1450968382,
				"z": -0.9956661173,
				"element": "C" 
			},
			{
				"x": 0.6471148668,
				"y": -4.5776355633,
				"z": -1.5565146173,
				"element": "H" 
			},
			{
				"x": 2.3833374804,
				"y": -4.3376930264,
				"z": -1.7864019388,
				"element": "H" 
			},
			{
				"x": 1.7355432094,
				"y": -4.5524088544,
				"z": -0.1623185796,
				"element": "H" 
			},
			{
				"x": 1.2659283698,
				"y": -2.1594765082,
				"z": -2.0511337643,
				"element": "H" 
			},
			{
				"x": 2.2456436565,
				"y": -2.1202890541,
				"z": -0.5999133567,
				"element": "H" 
			},
			{
				"x": -0.7682486653,
				"y": -2.6374087251,
				"z": -0.676620192,
				"element": "H" 
			},
			{
				"x": 1.0456615084,
				"y": -2.0920829272,
				"z": 1.7362980033,
				"element": "H" 
			},
			{
				"x": 0.3088819557,
				"y": -3.6385349699,
				"z": 1.3023358199,
				"element": "H" 
			},
			{
				"x": -2.9010378898,
				"y": -2.3522061732,
				"z": 2.0700438908,
				"element": "H" 
			},
			{
				"x": 1.709414663,
				"y": -0.0107604058,
				"z": 0.549760568,
				"element": "H" 
			},
			{
				"x": 1.2960150772,
				"y": 2.4113649612,
				"z": 0.2737597413,
				"element": "H" 
			},
			{
				"x": -2.7944116432,
				"y": 3.7418272979,
				"z": -0.8527521746,
				"element": "H" 
			},
			{
				"x": -1.9865963426,
				"y": 3.6998681827,
				"z": -2.4463435758,
				"element": "H" 
			},
			{
				"x": -1.7815617169,
				"y": 5.1131206491,
				"z": -1.3774784257,
				"element": "H" 
			},
			{
				"x": -2.4596368565,
				"y": 1.550947873,
				"z": -1.6319159698,
				"element": "H" 
			},
			{
				"x": -2.0485501413,
				"y": -0.8518551373,
				"z": -1.3521859048,
				"element": "H" 
			}
		],
		 "valence_orbital": [ 
			{
				"type": "occ",
				"energy": -0.31094,
				"method": "rhf"
			},
			{
				"type": "occ",
				"energy": -0.30816,
				"method": "rhf"
			},
			{
				"type": "occ",
				"energy": -0.26542,
				"method": "rhf"
			},
			{
				"type": "occ",
				"energy": -0.24736,
				"method": "rhf"
			},
			{
				"type": "occ",
				"energy": -0.21258,
				"method": "rhf"
			},
			{
				"type": "unocc",
				"energy": 0.00064,
				"method": "rhf"
			},
			{
				"type": "unocc",
				"energy": 0.01142,
				"method": "rhf"
			},
			{
				"type": "unocc",
				"energy": 0.01856,
				"method": "rhf"
			},
			{
				"type": "unocc",
				"energy": 0.07628,
				"method": "rhf"
			},
			{
				"type": "unocc",
				"energy": 0.09329,
				"method": "rhf"
			}
		],
		"cosmo_sigma_profile": { 
			"-0.025": 0.0,
			"-0.024": 0.0,
			"-0.023": 0.0,
			"-0.022": 0.0,
			"-0.021": 0.0,
			"-0.02": 0.0,
			"-0.019": 0.0,
			"-0.018": 0.335598471115,
			"-0.017": 0.962410339869,
			"-0.016": 0.840248571298,
			"-0.015": 0.750146210272,
			"-0.014": 0.983552056751,
			"-0.013": 0.576777932285,
			"-0.012": 0.465366838244,
			"-0.011": 0.868667996717,
			"-0.01": 0.881637695092,
			"-0.009": 0.621214303728,
			"-0.008": 0.329666757832,
			"-0.007": 0.56927862048,
			"-0.006": 9.57009948421,
			"-0.005": 22.5255639437,
			"-0.004": 22.301651054,
			"-0.003": 28.8725007735,
			"-0.002": 26.2370234412,
			"-0.001": 22.4460374408,
			"0.0": 20.1390709174,
			"0.001": 18.0048472201,
			"0.002": 12.8123777264,
			"0.003": 12.0760195968,
			"0.004": 15.2083792511,
			"0.005": 12.713444067,
			"0.006": 9.392413122,
			"0.007": 4.09741429091,
			"0.008": 4.74783811557,
			"0.009": 3.66139085456,
			"0.01": 3.40947396616,
			"0.011": 4.52215918574,
			"0.012": 4.80730254077,
			"0.013": 1.63582647874,
			"0.014": 0.0446354946821,
			"0.015": 0.0,
			"0.016": 0.0,
			"0.017": 0.0,
			"0.018": 0.0,
			"0.019": 0.0,
			"0.02": 0.0,
			"0.021": 0.0,
			"0.022": 0.0,
			"0.023": 0.0,
			"0.024": 0.0,
			"0.025": 0.0
		}
	}
}
