{
	 "smiles": "CC1=CC(NC(N)=O)=CC=C1", 
	 "Tm": 413.15, 
	 "num_atms": 21, 
	 "gaussian": { 
		 "optdone": 1, 
		 "sigma_profile": "yes", 
		 "theory": "DFT", 
		 "functional": "B3LYP", 
		 "basiset": "6-31G**", 
		 "properties": { 
			 "R2extent": 2314.6766, 
			 "electric_dipole_moment_norm": 3.72623910129, 
			 "electric_quadrupole_moment_norm": 16.7449909248, 
			 "total_energy": -495.639899028, 
			 "HOMO_LUMO_gap": 0.21067, 
			 "cosmo_polarized_energy": -13.42, 
			 "cosmo_cavitation_energy": 24.78, 
			 "cosmo_dispersion_energy": -18.37, 
			 "cosmo_repulsion_energy": 1.49, 
			 "cosmo_total_nonelectrostatic_energy": 7.9, 
			 "SMD_solvation_energy": 5.32 
		},
		"coords": [
			{
				"x": -2.4432172164,
				"y": -1.8492691743,
				"z": 1.5524837932,
				"element": "C" 
			},
			{
				"x": -1.7136185252,
				"y": -0.7898338275,
				"z": 0.7598877291,
				"element": "C" 
			},
			{
				"x": -0.3853750819,
				"y": -0.4716583586,
				"z": 1.0499060977,
				"element": "C" 
			},
			{
				"x": 0.3203020403,
				"y": 0.488972383,
				"z": 0.3061180983,
				"element": "C" 
			},
			{
				"x": 1.6701082192,
				"y": 0.7252667615,
				"z": 0.6354756604,
				"element": "N" 
			},
			{
				"x": 2.4389003678,
				"y": 1.8845262155,
				"z": 0.6049429369,
				"element": "C" 
			},
			{
				"x": 1.7988026504,
				"y": 3.0428309942,
				"z": 0.207268705,
				"element": "N" 
			},
			{
				"x": 3.6249966707,
				"y": 1.8500631612,
				"z": 0.9023652837,
				"element": "O" 
			},
			{
				"x": -0.3250172435,
				"y": 1.1377136366,
				"z": -0.7577446998,
				"element": "C" 
			},
			{
				"x": -1.6605901819,
				"y": 0.8397493273,
				"z": -1.0331507371,
				"element": "C" 
			},
			{
				"x": -2.3537742356,
				"y": -0.1108807312,
				"z": -0.2877391874,
				"element": "C" 
			},
			{
				"x": -1.9482732087,
				"y": -2.0510063778,
				"z": 2.5065802954,
				"element": "H" 
			},
			{
				"x": -3.4750736027,
				"y": -1.5500729053,
				"z": 1.7623527217,
				"element": "H" 
			},
			{
				"x": -2.4876598797,
				"y": -2.7948630714,
				"z": 0.998161309,
				"element": "H" 
			},
			{
				"x": 0.1178911031,
				"y": -0.9697775957,
				"z": 1.8756784766,
				"element": "H" 
			},
			{
				"x": 2.1811942496,
				"y": -0.0348965964,
				"z": 1.0614883411,
				"element": "H" 
			},
			{
				"x": 0.8030372644,
				"y": 3.1248013789,
				"z": 0.3579000889,
				"element": "H" 
			},
			{
				"x": 2.3433958469,
				"y": 3.8694557899,
				"z": 0.4057831995,
				"element": "H" 
			},
			{
				"x": 0.2191826331,
				"y": 1.8412375396,
				"z": -1.3769175548,
				"element": "H" 
			},
			{
				"x": -2.1569343673,
				"y": 1.3482719065,
				"z": -1.8550752098,
				"element": "H" 
			},
			{
				"x": -3.3916775024,
				"y": -0.3338304559,
				"z": -0.5198653476,
				"element": "H" 
			}
		],
		 "valence_orbital": [ 
			{
				"type": "occ",
				"energy": -0.29794,
				"method": "rhf"
			},
			{
				"type": "occ",
				"energy": -0.27129,
				"method": "rhf"
			},
			{
				"type": "occ",
				"energy": -0.2547,
				"method": "rhf"
			},
			{
				"type": "occ",
				"energy": -0.25045,
				"method": "rhf"
			},
			{
				"type": "occ",
				"energy": -0.21927,
				"method": "rhf"
			},
			{
				"type": "unocc",
				"energy": -0.0086,
				"method": "rhf"
			},
			{
				"type": "unocc",
				"energy": -0.00764,
				"method": "rhf"
			},
			{
				"type": "unocc",
				"energy": 0.06493,
				"method": "rhf"
			},
			{
				"type": "unocc",
				"energy": 0.08751,
				"method": "rhf"
			},
			{
				"type": "unocc",
				"energy": 0.099,
				"method": "rhf"
			}
		],
		"cosmo_sigma_profile": { 
			"-0.025": 0.0,
			"-0.024": 0.0,
			"-0.023": 0.0,
			"-0.022": 0.0,
			"-0.021": 0.0,
			"-0.02": 0.0,
			"-0.019": 0.0,
			"-0.018": 0.0,
			"-0.017": 0.0,
			"-0.016": 0.0,
			"-0.015": 0.0,
			"-0.014": 0.803559003521,
			"-0.013": 2.29462480556,
			"-0.012": 3.02667363092,
			"-0.011": 2.8203901243,
			"-0.01": 3.27219080097,
			"-0.009": 3.30914468315,
			"-0.008": 3.63485956915,
			"-0.007": 3.21155257578,
			"-0.006": 4.77458848641,
			"-0.005": 9.96639495188,
			"-0.004": 15.6777712562,
			"-0.003": 15.7006344407,
			"-0.002": 14.9149606692,
			"-0.001": 14.809448175,
			"0.0": 16.0470610137,
			"0.001": 10.9885832211,
			"0.002": 11.6090644665,
			"0.003": 9.3476944406,
			"0.004": 10.9285124989,
			"0.005": 10.1970222519,
			"0.006": 7.60081372621,
			"0.007": 1.80265627376,
			"0.008": 2.05375836509,
			"0.009": 1.65571227484,
			"0.01": 1.1392594663,
			"0.011": 1.22969012606,
			"0.012": 1.66383495881,
			"0.013": 2.54792452719,
			"0.014": 6.69250963013,
			"0.015": 2.30586685924,
			"0.016": 0.0,
			"0.017": 0.0,
			"0.018": 0.0,
			"0.019": 0.0,
			"0.02": 0.0,
			"0.021": 0.0,
			"0.022": 0.0,
			"0.023": 0.0,
			"0.024": 0.0,
			"0.025": 0.0
		}
	}
}
