{
	 "smiles": "CN1CCCN=C1C=CC1=C(C)C=CS1", 
	 "Tm": 513.15, 
	 "num_atms": 31, 
	 "gaussian": { 
		 "optdone": 1, 
		 "sigma_profile": "yes", 
		 "theory": "DFT", 
		 "functional": "B3LYP", 
		 "basiset": "6-31G**", 
		 "properties": { 
			 "R2extent": 5546.2718, 
			 "electric_dipole_moment_norm": 3.2182248927, 
			 "electric_quadrupole_moment_norm": 13.403312426, 
			 "total_energy": -974.577385574, 
			 "HOMO_LUMO_gap": 0.14809, 
			 "cosmo_polarized_energy": -10.24, 
			 "cosmo_cavitation_energy": 34.4, 
			 "cosmo_dispersion_energy": -25.33, 
			 "cosmo_repulsion_energy": 1.96, 
			 "cosmo_total_nonelectrostatic_energy": 11.03, 
			 "SMD_solvation_energy": 1.91 
		},
		"coords": [
			{
				"x": 3.3086133681,
				"y": -0.9797009266,
				"z": 0.3162774526,
				"element": "C" 
			},
			{
				"x": 2.4289029465,
				"y": -0.9441275202,
				"z": 1.4787252715,
				"element": "N" 
			},
			{
				"x": 3.1535829178,
				"y": -0.6761303519,
				"z": 2.7224091175,
				"element": "C" 
			},
			{
				"x": 2.2405760751,
				"y": -0.8081399985,
				"z": 3.9359245941,
				"element": "C" 
			},
			{
				"x": 1.5011842438,
				"y": -2.1455535273,
				"z": 3.8458819529,
				"element": "C" 
			},
			{
				"x": 0.7765212085,
				"y": -2.2880632492,
				"z": 2.5900879583,
				"element": "N" 
			},
			{
				"x": 1.2583450411,
				"y": -1.7123582971,
				"z": 1.5388286357,
				"element": "C" 
			},
			{
				"x": 0.4043218758,
				"y": -1.8045842278,
				"z": 0.333965633,
				"element": "C" 
			},
			{
				"x": 0.2648711738,
				"y": -0.8553142266,
				"z": -0.6148395447,
				"element": "C" 
			},
			{
				"x": -0.6399256477,
				"y": -0.8846572311,
				"z": -1.7455583865,
				"element": "C" 
			},
			{
				"x": -0.8549805635,
				"y": 0.1252481877,
				"z": -2.6722978835,
				"element": "C" 
			},
			{
				"x": -0.1819168821,
				"y": 1.4737455231,
				"z": -2.6539166926,
				"element": "C" 
			},
			{
				"x": -1.8266480346,
				"y": -0.2389465623,
				"z": -3.6553076403,
				"element": "C" 
			},
			{
				"x": -2.3349413521,
				"y": -1.495631836,
				"z": -3.4832021572,
				"element": "C" 
			},
			{
				"x": -1.6411586764,
				"y": -2.2827374775,
				"z": -2.1063510821,
				"element": "S" 
			},
			{
				"x": 3.7207325882,
				"y": 0.0177754774,
				"z": 0.1168323146,
				"element": "H" 
			},
			{
				"x": 4.1565790373,
				"y": -1.6630293284,
				"z": 0.484010709,
				"element": "H" 
			},
			{
				"x": 2.771503103,
				"y": -1.3175725153,
				"z": -0.5669345438,
				"element": "H" 
			},
			{
				"x": 4.0008932502,
				"y": -1.376781815,
				"z": 2.8190632973,
				"element": "H" 
			},
			{
				"x": 3.5864790387,
				"y": 0.3319484669,
				"z": 2.6591269924,
				"element": "H" 
			},
			{
				"x": 2.8321318288,
				"y": -0.7301494452,
				"z": 4.8546256745,
				"element": "H" 
			},
			{
				"x": 1.5089270631,
				"y": 0.0083222226,
				"z": 3.9444396147,
				"element": "H" 
			},
			{
				"x": 2.2160587557,
				"y": -2.9771475437,
				"z": 3.9560170432,
				"element": "H" 
			},
			{
				"x": 0.7845016435,
				"y": -2.2500780997,
				"z": 4.6687599035,
				"element": "H" 
			},
			{
				"x": -0.2350035772,
				"y": -2.6830803713,
				"z": 0.3376067649,
				"element": "H" 
			},
			{
				"x": 0.8624278357,
				"y": 0.049589911,
				"z": -0.5332093167,
				"element": "H" 
			},
			{
				"x": 0.8529459087,
				"y": 1.415860565,
				"z": -2.3047137061,
				"element": "H" 
			},
			{
				"x": -0.7086913628,
				"y": 2.1789776111,
				"z": -1.9990298879,
				"element": "H" 
			},
			{
				"x": -0.1671187905,
				"y": 1.9102379538,
				"z": -3.6569122555,
				"element": "H" 
			},
			{
				"x": -2.1273494012,
				"y": 0.4198751455,
				"z": -4.4631200102,
				"element": "H" 
			},
			{
				"x": -3.0704646149,
				"y": -2.0093965132,
				"z": -4.0865898228,
				"element": "H" 
			}
		],
		 "valence_orbital": [ 
			{
				"type": "occ",
				"energy": -0.28277,
				"method": "rhf"
			},
			{
				"type": "occ",
				"energy": -0.24269,
				"method": "rhf"
			},
			{
				"type": "occ",
				"energy": -0.23488,
				"method": "rhf"
			},
			{
				"type": "occ",
				"energy": -0.21289,
				"method": "rhf"
			},
			{
				"type": "occ",
				"energy": -0.19521,
				"method": "rhf"
			},
			{
				"type": "unocc",
				"energy": -0.04712,
				"method": "rhf"
			},
			{
				"type": "unocc",
				"energy": 0.02368,
				"method": "rhf"
			},
			{
				"type": "unocc",
				"energy": 0.03473,
				"method": "rhf"
			},
			{
				"type": "unocc",
				"energy": 0.06332,
				"method": "rhf"
			},
			{
				"type": "unocc",
				"energy": 0.08418,
				"method": "rhf"
			}
		],
		"cosmo_sigma_profile": { 
			"-0.025": 0.0,
			"-0.024": 0.0,
			"-0.023": 0.0,
			"-0.022": 0.0,
			"-0.021": 0.0,
			"-0.02": 0.0,
			"-0.019": 0.0,
			"-0.018": 0.0,
			"-0.017": 0.0,
			"-0.016": 0.0,
			"-0.015": 0.0,
			"-0.014": 0.0,
			"-0.013": 0.0,
			"-0.012": 0.0,
			"-0.011": 0.0,
			"-0.01": 0.0,
			"-0.009": 0.355421031082,
			"-0.008": 2.18570044048,
			"-0.007": 2.3222419349,
			"-0.006": 5.39438058197,
			"-0.005": 8.38048358587,
			"-0.004": 22.5651984134,
			"-0.003": 39.0790581621,
			"-0.002": 37.7379884434,
			"-0.001": 37.5019850731,
			"0.0": 22.7013647821,
			"0.001": 14.4948078463,
			"0.002": 14.0191255336,
			"0.003": 14.9693350844,
			"0.004": 19.3437491254,
			"0.005": 13.6409648604,
			"0.006": 4.3785413365,
			"0.007": 1.82261160927,
			"0.008": 1.75662727766,
			"0.009": 0.927755960454,
			"0.01": 1.35927505842,
			"0.011": 1.68737750943,
			"0.012": 0.993385576704,
			"0.013": 0.870617681278,
			"0.014": 0.865986588788,
			"0.015": 1.0182458409,
			"0.016": 1.15958788336,
			"0.017": 0.621036478427,
			"0.018": 0.910635994342,
			"0.019": 0.298590443827,
			"0.02": 0.0,
			"0.021": 0.0,
			"0.022": 0.0,
			"0.023": 0.0,
			"0.024": 0.0,
			"0.025": 0.0
		}
	}
}
