{
	 "smiles": "CN1C(C(CCC1=O)C(O)=O)C1=CC(Cl)=CC=C1", 
	 "Tm": 456.15, 
	 "num_atms": 32, 
	 "gaussian": { 
		 "optdone": 1, 
		 "sigma_profile": "yes", 
		 "theory": "DFT", 
		 "functional": "B3LYP", 
		 "basiset": "6-31G**", 
		 "properties": { 
			 "R2extent": 5962.5285, 
			 "electric_dipole_moment_norm": 3.584026335, 
			 "electric_quadrupole_moment_norm": 27.9752850229, 
			 "total_energy": -1244.46296717, 
			 "HOMO_LUMO_gap": 0.21829, 
			 "cosmo_polarized_energy": -22.44, 
			 "cosmo_cavitation_energy": 36.37, 
			 "cosmo_dispersion_energy": -25.08, 
			 "cosmo_repulsion_energy": 1.96, 
			 "cosmo_total_nonelectrostatic_energy": 13.25, 
			 "SMD_solvation_energy": 7.41 
		},
		"coords": [
			{
				"x": -0.6283924354,
				"y": -1.7543266307,
				"z": 0.2680164406,
				"element": "C" 
			},
			{
				"x": -1.0040912646,
				"y": -0.3623479229,
				"z": 0.0195742683,
				"element": "N" 
			},
			{
				"x": 0.097228578,
				"y": 0.5103429509,
				"z": -0.4202384429,
				"element": "C" 
			},
			{
				"x": -0.3560626219,
				"y": 1.9531096368,
				"z": -0.739364198,
				"element": "C" 
			},
			{
				"x": -1.7626072997,
				"y": 1.9771593961,
				"z": -1.3649584117,
				"element": "C" 
			},
			{
				"x": -2.7437112032,
				"y": 1.3609219365,
				"z": -0.3731899287,
				"element": "C" 
			},
			{
				"x": -2.3445883612,
				"y": -0.0410148045,
				"z": 0.0704722328,
				"element": "C" 
			},
			{
				"x": -3.196396154,
				"y": -0.8385585671,
				"z": 0.4462296491,
				"element": "O" 
			},
			{
				"x": 0.6463545536,
				"y": 2.6181014354,
				"z": -1.6877302477,
				"element": "C" 
			},
			{
				"x": 0.6931824287,
				"y": 3.9720242586,
				"z": -1.6299708827,
				"element": "O" 
			},
			{
				"x": 1.3219562031,
				"y": 2.0244604385,
				"z": -2.4923327006,
				"element": "O" 
			},
			{
				"x": 1.2326314432,
				"y": 0.5396865081,
				"z": 0.6057119103,
				"element": "C" 
			},
			{
				"x": 2.5612881378,
				"y": 0.4751046441,
				"z": 0.1722627734,
				"element": "C" 
			},
			{
				"x": 3.5938047849,
				"y": 0.5522392941,
				"z": 1.1074166741,
				"element": "C" 
			},
			{
				"x": 5.259220522,
				"y": 0.4671147638,
				"z": 0.5525881801,
				"element": "Cl" 
			},
			{
				"x": 3.3344693417,
				"y": 0.6888553631,
				"z": 2.4697929626,
				"element": "C" 
			},
			{
				"x": 2.0059480306,
				"y": 0.7502947664,
				"z": 2.8949534944,
				"element": "C" 
			},
			{
				"x": 0.9622778239,
				"y": 0.6785658255,
				"z": 1.9735752616,
				"element": "C" 
			},
			{
				"x": -0.0541409692,
				"y": -2.1414837308,
				"z": -0.5821874051,
				"element": "H" 
			},
			{
				"x": -0.0150766673,
				"y": -1.8470531754,
				"z": 1.1691944384,
				"element": "H" 
			},
			{
				"x": -1.54287201,
				"y": -2.331005545,
				"z": 0.3925029065,
				"element": "H" 
			},
			{
				"x": 0.4996551105,
				"y": 0.0985377701,
				"z": -1.3546725126,
				"element": "H" 
			},
			{
				"x": -0.3903690721,
				"y": 2.5250807587,
				"z": 0.198518,
				"element": "H" 
			},
			{
				"x": -2.0527487398,
				"y": 3.0029855264,
				"z": -1.6188017799,
				"element": "H" 
			},
			{
				"x": -1.75192675,
				"y": 1.4082696123,
				"z": -2.3020203919,
				"element": "H" 
			},
			{
				"x": -3.7493361705,
				"y": 1.2716595124,
				"z": -0.7905029301,
				"element": "H" 
			},
			{
				"x": -2.8303973974,
				"y": 1.9923961464,
				"z": 0.5213112931,
				"element": "H" 
			},
			{
				"x": 0.1309506397,
				"y": 4.301824249,
				"z": -0.9147316278,
				"element": "H" 
			},
			{
				"x": 2.7891190011,
				"y": 0.3796944656,
				"z": -0.8837144774,
				"element": "H" 
			},
			{
				"x": 4.153215092,
				"y": 0.7408030318,
				"z": 3.1786305239,
				"element": "H" 
			},
			{
				"x": 1.7885152306,
				"y": 0.8501980777,
				"z": 3.9543148718,
				"element": "H" 
			},
			{
				"x": -0.0684998052,
				"y": 0.7095600082,
				"z": 2.3152500563,
				"element": "H" 
			}
		],
		 "valence_orbital": [ 
			{
				"type": "occ",
				"energy": -0.28876,
				"method": "rhf"
			},
			{
				"type": "occ",
				"energy": -0.2698,
				"method": "rhf"
			},
			{
				"type": "occ",
				"energy": -0.25422,
				"method": "rhf"
			},
			{
				"type": "occ",
				"energy": -0.24963,
				"method": "rhf"
			},
			{
				"type": "occ",
				"energy": -0.24571,
				"method": "rhf"
			},
			{
				"type": "unocc",
				"energy": -0.02742,
				"method": "rhf"
			},
			{
				"type": "unocc",
				"energy": -0.02314,
				"method": "rhf"
			},
			{
				"type": "unocc",
				"energy": -0.00866,
				"method": "rhf"
			},
			{
				"type": "unocc",
				"energy": 0.0166,
				"method": "rhf"
			},
			{
				"type": "unocc",
				"energy": 0.02652,
				"method": "rhf"
			}
		],
		"cosmo_sigma_profile": { 
			"-0.025": 0.0,
			"-0.024": 0.0,
			"-0.023": 0.0,
			"-0.022": 0.0,
			"-0.021": 0.0,
			"-0.02": 0.113847595586,
			"-0.019": 0.97239817766,
			"-0.018": 1.0553572272,
			"-0.017": 1.05894825611,
			"-0.016": 1.22892580616,
			"-0.015": 1.02568178547,
			"-0.014": 1.11829327879,
			"-0.013": 0.97362822123,
			"-0.012": 1.79459131403,
			"-0.011": 0.592695174246,
			"-0.01": 1.22436564665,
			"-0.009": 1.59592718578,
			"-0.008": 2.3451224693,
			"-0.007": 6.97756696087,
			"-0.006": 13.9627459767,
			"-0.005": 23.8322039555,
			"-0.004": 23.6730468838,
			"-0.003": 23.2312263042,
			"-0.002": 23.1515101587,
			"-0.001": 20.4483691925,
			"0.0": 15.7222782916,
			"0.001": 15.9284442655,
			"0.002": 18.9242334175,
			"0.003": 19.1842469504,
			"0.004": 15.3767500479,
			"0.005": 10.5445931039,
			"0.006": 4.47356407082,
			"0.007": 2.90996771107,
			"0.008": 4.20136040787,
			"0.009": 4.70420532921,
			"0.01": 6.53394353345,
			"0.011": 5.81161214492,
			"0.012": 4.61958191646,
			"0.013": 3.66914874222,
			"0.014": 5.17726995264,
			"0.015": 1.37157688785,
			"0.016": 0.0,
			"0.017": 0.0,
			"0.018": 0.0,
			"0.019": 0.0,
			"0.02": 0.0,
			"0.021": 0.0,
			"0.022": 0.0,
			"0.023": 0.0,
			"0.024": 0.0,
			"0.025": 0.0
		}
	}
}
