{
	 "smiles": "CN1C(C)=NC(C(N)=O)=C1N", 
	 "Tm": 433.15, 
	 "num_atms": 21, 
	 "gaussian": { 
		 "optdone": 1, 
		 "sigma_profile": "yes", 
		 "theory": "DFT", 
		 "functional": "B3LYP", 
		 "basiset": "6-31G**", 
		 "properties": { 
			 "R2extent": 2077.8988, 
			 "electric_dipole_moment_norm": 4.25879897624, 
			 "electric_quadrupole_moment_norm": 11.0138524028, 
			 "total_energy": -528.933700185, 
			 "HOMO_LUMO_gap": 0.20698, 
			 "cosmo_polarized_energy": -17.48, 
			 "cosmo_cavitation_energy": 24.5, 
			 "cosmo_dispersion_energy": -18.31, 
			 "cosmo_repulsion_energy": 1.49, 
			 "cosmo_total_nonelectrostatic_energy": 7.69, 
			 "SMD_solvation_energy": 3.58 
		},
		"coords": [
			{
				"x": -1.6034997396,
				"y": -1.4115778675,
				"z": -0.0291962539,
				"element": "C" 
			},
			{
				"x": -0.6828660285,
				"y": -0.3050373303,
				"z": -0.2127783498,
				"element": "N" 
			},
			{
				"x": 0.0551776709,
				"y": 0.0161334509,
				"z": -1.3494160528,
				"element": "C" 
			},
			{
				"x": -0.0452901324,
				"y": -0.750370009,
				"z": -2.6267709251,
				"element": "C" 
			},
			{
				"x": 0.8225079343,
				"y": 1.0577420342,
				"z": -1.1398148974,
				"element": "N" 
			},
			{
				"x": 0.5821640764,
				"y": 1.4533955769,
				"z": 0.166527972,
				"element": "C" 
			},
			{
				"x": 1.2110410477,
				"y": 2.5944519552,
				"z": 0.8313957526,
				"element": "C" 
			},
			{
				"x": 2.0763494177,
				"y": 3.3071092686,
				"z": 0.0592530206,
				"element": "N" 
			},
			{
				"x": 0.9604796518,
				"y": 2.8863232638,
				"z": 2.0111982927,
				"element": "O" 
			},
			{
				"x": -0.3524295757,
				"y": 0.6204907473,
				"z": 0.7532905765,
				"element": "C" 
			},
			{
				"x": -0.8298425322,
				"y": 0.5767762417,
				"z": 2.053732535,
				"element": "N" 
			},
			{
				"x": -2.6311158863,
				"y": -1.1402134181,
				"z": -0.2994641056,
				"element": "H" 
			},
			{
				"x": -1.2943315014,
				"y": -2.2577884773,
				"z": -0.6455849643,
				"element": "H" 
			},
			{
				"x": -1.580217042,
				"y": -1.7156592223,
				"z": 1.0203826026,
				"element": "H" 
			},
			{
				"x": 0.6219318507,
				"y": -0.2850935651,
				"z": -3.3536757089,
				"element": "H" 
			},
			{
				"x": 0.2555184799,
				"y": -1.799216276,
				"z": -2.5100863945,
				"element": "H" 
			},
			{
				"x": -1.0625302065,
				"y": -0.7435414514,
				"z": -3.037264807,
				"element": "H" 
			},
			{
				"x": 2.5572936799,
				"y": 4.0940507842,
				"z": 0.4626722588,
				"element": "H" 
			},
			{
				"x": 2.2556122913,
				"y": 3.0150867044,
				"z": -0.8891693217,
				"element": "H" 
			},
			{
				"x": -0.4154953622,
				"y": 1.3615227129,
				"z": 2.5592613684,
				"element": "H" 
			},
			{
				"x": -1.8421580939,
				"y": 0.5858148769,
				"z": 2.1296074017,
				"element": "H" 
			}
		],
		 "valence_orbital": [ 
			{
				"type": "occ",
				"energy": -0.27146,
				"method": "rhf"
			},
			{
				"type": "occ",
				"energy": -0.2613,
				"method": "rhf"
			},
			{
				"type": "occ",
				"energy": -0.2467,
				"method": "rhf"
			},
			{
				"type": "occ",
				"energy": -0.23593,
				"method": "rhf"
			},
			{
				"type": "occ",
				"energy": -0.19233,
				"method": "rhf"
			},
			{
				"type": "unocc",
				"energy": 0.01465,
				"method": "rhf"
			},
			{
				"type": "unocc",
				"energy": 0.03511,
				"method": "rhf"
			},
			{
				"type": "unocc",
				"energy": 0.07107,
				"method": "rhf"
			},
			{
				"type": "unocc",
				"energy": 0.10471,
				"method": "rhf"
			},
			{
				"type": "unocc",
				"energy": 0.10909,
				"method": "rhf"
			}
		],
		"cosmo_sigma_profile": { 
			"-0.025": 0.0,
			"-0.024": 0.0,
			"-0.023": 0.0,
			"-0.022": 0.0,
			"-0.021": 0.0,
			"-0.02": 0.0,
			"-0.019": 0.0,
			"-0.018": 0.0,
			"-0.017": 0.0,
			"-0.016": 0.0,
			"-0.015": 0.0,
			"-0.014": 0.34102867567,
			"-0.013": 2.42241890452,
			"-0.012": 2.64324187141,
			"-0.011": 2.59563928111,
			"-0.01": 3.8917531743,
			"-0.009": 3.35491645947,
			"-0.008": 4.2219119557,
			"-0.007": 5.16876761961,
			"-0.006": 10.4356922334,
			"-0.005": 16.5554626425,
			"-0.004": 16.6912877982,
			"-0.003": 15.233618219,
			"-0.002": 10.3450647487,
			"-0.001": 9.6782712295,
			"0.0": 8.66007160168,
			"0.001": 5.89335624641,
			"0.002": 7.67205619872,
			"0.003": 10.9618708717,
			"0.004": 10.6292375544,
			"0.005": 8.52957062864,
			"0.006": 5.36639336999,
			"0.007": 4.21636895096,
			"0.008": 3.67462878723,
			"0.009": 3.02359877485,
			"0.01": 3.61116525356,
			"0.011": 2.42095900521,
			"0.012": 3.93893161994,
			"0.013": 3.79520143592,
			"0.014": 3.84022091359,
			"0.015": 2.66802778733,
			"0.016": 0.699229149778,
			"0.017": 0.0,
			"0.018": 0.0,
			"0.019": 0.0,
			"0.02": 0.0,
			"0.021": 0.0,
			"0.022": 0.0,
			"0.023": 0.0,
			"0.024": 0.0,
			"0.025": 0.0
		}
	}
}
