{
	 "smiles": "CCN1C=C(C=N1)S(N)(=O)=O", 
	 "Tm": 360.15, 
	 "num_atms": 20, 
	 "gaussian": { 
		 "optdone": 1, 
		 "sigma_profile": "yes", 
		 "theory": "DFT", 
		 "functional": "B3LYP", 
		 "basiset": "6-31G**", 
		 "properties": { 
			 "R2extent": 4363.6674, 
			 "electric_dipole_moment_norm": 4.09764563988, 
			 "electric_quadrupole_moment_norm": 18.5338073004, 
			 "total_energy": -908.756695333, 
			 "HOMO_LUMO_gap": 0.2554, 
			 "cosmo_polarized_energy": -18.35, 
			 "cosmo_cavitation_energy": 25.75, 
			 "cosmo_dispersion_energy": -19.26, 
			 "cosmo_repulsion_energy": 1.53, 
			 "cosmo_total_nonelectrostatic_energy": 8.02, 
			 "SMD_solvation_energy": 3.68 
		},
		"coords": [
			{
				"x": 0.7520913934,
				"y": 1.8095540297,
				"z": -0.5340633333,
				"element": "C" 
			},
			{
				"x": 1.1624263895,
				"y": 1.1231416316,
				"z": 0.7682853928,
				"element": "C" 
			},
			{
				"x": 0.0339202915,
				"y": 0.476150102,
				"z": 1.434817264,
				"element": "N" 
			},
			{
				"x": -0.2372756345,
				"y": -0.8444190468,
				"z": 1.5230035011,
				"element": "C" 
			},
			{
				"x": -1.4405113451,
				"y": -0.9462739892,
				"z": 2.2028677165,
				"element": "C" 
			},
			{
				"x": -1.8252020926,
				"y": 0.3869621335,
				"z": 2.4777154228,
				"element": "C" 
			},
			{
				"x": -0.9257889952,
				"y": 1.2446175704,
				"z": 2.0110980369,
				"element": "N" 
			},
			{
				"x": -2.2800740154,
				"y": -2.4499149603,
				"z": 2.537521335,
				"element": "S" 
			},
			{
				"x": -2.3622629788,
				"y": -2.4539798866,
				"z": 4.2309121324,
				"element": "N" 
			},
			{
				"x": -1.4027668444,
				"y": -3.5303161555,
				"z": 2.0697857854,
				"element": "O" 
			},
			{
				"x": -3.672327397,
				"y": -2.3540166622,
				"z": 2.0946827317,
				"element": "O" 
			},
			{
				"x": -0.0182766587,
				"y": 2.5592901305,
				"z": -0.3390361289,
				"element": "H" 
			},
			{
				"x": 1.6177911534,
				"y": 2.3065300107,
				"z": -0.9824327588,
				"element": "H" 
			},
			{
				"x": 0.3582033656,
				"y": 1.0850854651,
				"z": -1.2529373997,
				"element": "H" 
			},
			{
				"x": 1.9144370882,
				"y": 0.3494117356,
				"z": 0.5905144941,
				"element": "H" 
			},
			{
				"x": 1.5832047536,
				"y": 1.8467745807,
				"z": 1.4720304693,
				"element": "H" 
			},
			{
				"x": 0.4062757447,
				"y": -1.6108978082,
				"z": 1.1187655396,
				"element": "H" 
			},
			{
				"x": -2.7048239693,
				"y": 0.7387535641,
				"z": 2.9977503468,
				"element": "H" 
			},
			{
				"x": -3.2521958165,
				"y": -2.8675253611,
				"z": 4.4998358646,
				"element": "H" 
			},
			{
				"x": -1.5843444324,
				"y": -2.9794270841,
				"z": 4.6230835875,
				"element": "H" 
			}
		],
		 "valence_orbital": [ 
			{
				"type": "occ",
				"energy": -0.3105,
				"method": "rhf"
			},
			{
				"type": "occ",
				"energy": -0.29612,
				"method": "rhf"
			},
			{
				"type": "occ",
				"energy": -0.2904,
				"method": "rhf"
			},
			{
				"type": "occ",
				"energy": -0.27225,
				"method": "rhf"
			},
			{
				"type": "occ",
				"energy": -0.2598,
				"method": "rhf"
			},
			{
				"type": "unocc",
				"energy": -0.0044,
				"method": "rhf"
			},
			{
				"type": "unocc",
				"energy": 0.01625,
				"method": "rhf"
			},
			{
				"type": "unocc",
				"energy": 0.064,
				"method": "rhf"
			},
			{
				"type": "unocc",
				"energy": 0.07892,
				"method": "rhf"
			},
			{
				"type": "unocc",
				"energy": 0.09497,
				"method": "rhf"
			}
		],
		"cosmo_sigma_profile": { 
			"-0.025": 0.0,
			"-0.024": 0.0,
			"-0.023": 0.0,
			"-0.022": 0.0,
			"-0.021": 0.0,
			"-0.02": 0.0,
			"-0.019": 0.0,
			"-0.018": 0.0,
			"-0.017": 0.0,
			"-0.016": 0.0,
			"-0.015": 1.25249465339,
			"-0.014": 2.75315250867,
			"-0.013": 2.43465784592,
			"-0.012": 2.4791515213,
			"-0.011": 3.27256699533,
			"-0.01": 4.23026265416,
			"-0.009": 3.97825778056,
			"-0.008": 5.90511863897,
			"-0.007": 5.5564271788,
			"-0.006": 8.1806312231,
			"-0.005": 10.048862946,
			"-0.004": 15.9878955559,
			"-0.003": 13.6895790738,
			"-0.002": 12.651540189,
			"-0.001": 12.9405696376,
			"0.0": 13.8934397742,
			"0.001": 10.051717459,
			"0.002": 8.60512438371,
			"0.003": 7.36878721143,
			"0.004": 5.56084894672,
			"0.005": 5.33205921674,
			"0.006": 4.11500568944,
			"0.007": 5.13202727107,
			"0.008": 5.56417837308,
			"0.009": 4.82474490126,
			"0.01": 7.51629839985,
			"0.011": 13.0019933491,
			"0.012": 5.75607922279,
			"0.013": 1.10913758681,
			"0.014": 0.753387769755,
			"0.015": 0.0999472054182,
			"0.016": 0.0,
			"0.017": 0.0,
			"0.018": 0.0,
			"0.019": 0.0,
			"0.02": 0.0,
			"0.021": 0.0,
			"0.022": 0.0,
			"0.023": 0.0,
			"0.024": 0.0,
			"0.025": 0.0
		}
	}
}
