{
	 "smiles": "COC1=C2OC(C)=CC(=O)C2=C(OC)C2=C1OC=C2", 
	 "Tm": 428.15, 
	 "num_atms": 31, 
	 "gaussian": { 
		 "optdone": 1, 
		 "sigma_profile": "yes", 
		 "theory": "DFT", 
		 "functional": "B3LYP", 
		 "basiset": "6-31G**", 
		 "properties": { 
			 "R2extent": 5247.6626, 
			 "electric_dipole_moment_norm": 3.59698431189, 
			 "electric_quadrupole_moment_norm": 16.6927847728, 
			 "total_energy": -916.780840949, 
			 "HOMO_LUMO_gap": 0.1582, 
			 "cosmo_polarized_energy": -14.16, 
			 "cosmo_cavitation_energy": 35.03, 
			 "cosmo_dispersion_energy": -25.28, 
			 "cosmo_repulsion_energy": 1.93, 
			 "cosmo_total_nonelectrostatic_energy": 11.69, 
			 "SMD_solvation_energy": 9.21 
		},
		"coords": [
			{
				"x": 1.9294000638,
				"y": 2.9007986239,
				"z": 3.2746616646,
				"element": "C" 
			},
			{
				"x": 0.9128438849,
				"y": 1.9580266522,
				"z": 2.918543411,
				"element": "O" 
			},
			{
				"x": 0.7985876055,
				"y": 1.6391817742,
				"z": 1.5992926156,
				"element": "C" 
			},
			{
				"x": 0.6338188831,
				"y": 0.2901381334,
				"z": 1.2360899738,
				"element": "C" 
			},
			{
				"x": 0.6811420118,
				"y": -0.5761445854,
				"z": 2.299804107,
				"element": "O" 
			},
			{
				"x": 0.5935670258,
				"y": -1.914515666,
				"z": 2.1012743735,
				"element": "C" 
			},
			{
				"x": 0.6884372737,
				"y": -2.6645746315,
				"z": 3.3912362927,
				"element": "C" 
			},
			{
				"x": 0.4392393444,
				"y": -2.4471506358,
				"z": 0.8715321374,
				"element": "C" 
			},
			{
				"x": 0.3309526136,
				"y": -1.6281405782,
				"z": -0.3315437464,
				"element": "C" 
			},
			{
				"x": 0.1621911137,
				"y": -2.1410853801,
				"z": -1.4395235422,
				"element": "O" 
			},
			{
				"x": 0.4377412355,
				"y": -0.1613759772,
				"z": -0.0998497995,
				"element": "C" 
			},
			{
				"x": 0.4283375857,
				"y": 0.7981114884,
				"z": -1.1429850595,
				"element": "C" 
			},
			{
				"x": 0.3161288862,
				"y": 0.5082001376,
				"z": -2.4711623756,
				"element": "O" 
			},
			{
				"x": -0.9787668865,
				"y": 0.1123864772,
				"z": -2.9447135112,
				"element": "C" 
			},
			{
				"x": 0.6107622999,
				"y": 2.1435820288,
				"z": -0.8061309893,
				"element": "C" 
			},
			{
				"x": 0.7816721538,
				"y": 2.536523601,
				"z": 0.5343595181,
				"element": "C" 
			},
			{
				"x": 0.9118251563,
				"y": 3.8952459328,
				"z": 0.6148046375,
				"element": "O" 
			},
			{
				"x": 0.8345176978,
				"y": 4.3641655749,
				"z": -0.6829216269,
				"element": "C" 
			},
			{
				"x": 0.6545642887,
				"y": 3.3651444603,
				"z": -1.5755577341,
				"element": "C" 
			},
			{
				"x": 1.9460860813,
				"y": 2.9191015399,
				"z": 4.3656995467,
				"element": "H" 
			},
			{
				"x": 1.7068304159,
				"y": 3.9010706969,
				"z": 2.8932922706,
				"element": "H" 
			},
			{
				"x": 2.9094754179,
				"y": 2.5796388668,
				"z": 2.9014734029,
				"element": "H" 
			},
			{
				"x": 0.6141349026,
				"y": -3.739061763,
				"z": 3.217447029,
				"element": "H" 
			},
			{
				"x": 1.6392729286,
				"y": -2.4481741607,
				"z": 3.8901623327,
				"element": "H" 
			},
			{
				"x": -0.1131239981,
				"y": -2.3561675879,
				"z": 4.0710835411,
				"element": "H" 
			},
			{
				"x": 0.3750361919,
				"y": -3.5211447141,
				"z": 0.7453882572,
				"element": "H" 
			},
			{
				"x": -1.7290803249,
				"y": 0.8728064959,
				"z": -2.693042138,
				"element": "H" 
			},
			{
				"x": -1.2581972563,
				"y": -0.8609364808,
				"z": -2.5387720005,
				"element": "H" 
			},
			{
				"x": -0.8864337477,
				"y": 0.0414642605,
				"z": -4.0302134802,
				"element": "H" 
			},
			{
				"x": 0.9270711928,
				"y": 5.4345225565,
				"z": -0.7841066037,
				"element": "H" 
			},
			{
				"x": 0.5663659582,
				"y": 3.4565628593,
				"z": -2.6472225044,
				"element": "H" 
			}
		],
		 "valence_orbital": [ 
			{
				"type": "occ",
				"energy": -0.26992,
				"method": "rhf"
			},
			{
				"type": "occ",
				"energy": -0.25388,
				"method": "rhf"
			},
			{
				"type": "occ",
				"energy": -0.23924,
				"method": "rhf"
			},
			{
				"type": "occ",
				"energy": -0.23083,
				"method": "rhf"
			},
			{
				"type": "occ",
				"energy": -0.20371,
				"method": "rhf"
			},
			{
				"type": "unocc",
				"energy": -0.04551,
				"method": "rhf"
			},
			{
				"type": "unocc",
				"energy": -0.016,
				"method": "rhf"
			},
			{
				"type": "unocc",
				"energy": 0.00381,
				"method": "rhf"
			},
			{
				"type": "unocc",
				"energy": 0.04776,
				"method": "rhf"
			},
			{
				"type": "unocc",
				"energy": 0.07138,
				"method": "rhf"
			}
		],
		"cosmo_sigma_profile": { 
			"-0.025": 0.0,
			"-0.024": 0.0,
			"-0.023": 0.0,
			"-0.022": 0.0,
			"-0.021": 0.0,
			"-0.02": 0.0,
			"-0.019": 0.0,
			"-0.018": 0.0,
			"-0.017": 0.0,
			"-0.016": 0.0,
			"-0.015": 0.0,
			"-0.014": 0.0,
			"-0.013": 0.0,
			"-0.012": 0.0,
			"-0.011": 0.0189234204114,
			"-0.01": 1.41281720239,
			"-0.009": 1.54584958486,
			"-0.008": 2.7464436879,
			"-0.007": 5.69275531237,
			"-0.006": 13.6799482619,
			"-0.005": 17.6817282473,
			"-0.004": 23.2975647386,
			"-0.003": 27.2837343851,
			"-0.002": 29.9180328471,
			"-0.001": 26.0053430332,
			"0.0": 26.5761777156,
			"0.001": 22.6876150448,
			"0.002": 18.8358295708,
			"0.003": 13.3421775443,
			"0.004": 7.8002257306,
			"0.005": 5.42395976298,
			"0.006": 4.25422195141,
			"0.007": 3.95983546085,
			"0.008": 4.63445131768,
			"0.009": 3.70498137882,
			"0.01": 4.18535153239,
			"0.011": 4.14585439411,
			"0.012": 3.35773718874,
			"0.013": 4.08278631601,
			"0.014": 3.30585485629,
			"0.015": 0.952074631539,
			"0.016": 0.0,
			"0.017": 0.0,
			"0.018": 0.0,
			"0.019": 0.0,
			"0.02": 0.0,
			"0.021": 0.0,
			"0.022": 0.0,
			"0.023": 0.0,
			"0.024": 0.0,
			"0.025": 0.0
		}
	}
}
