{
	 "smiles": "COC1=C(C=C(F)C=C1)C(C)N", 
	 "Tm": 348.15, 
	 "num_atms": 24, 
	 "gaussian": { 
		 "optdone": 1, 
		 "sigma_profile": "yes", 
		 "theory": "DFT", 
		 "functional": "B3LYP", 
		 "basiset": "6-31G**", 
		 "properties": { 
			 "R2extent": 2537.8279, 
			 "electric_dipole_moment_norm": 2.96158001918, 
			 "electric_quadrupole_moment_norm": 14.848488421, 
			 "total_energy": -579.98809405, 
			 "HOMO_LUMO_gap": 0.20543, 
			 "cosmo_polarized_energy": -8.17, 
			 "cosmo_cavitation_energy": 26.99, 
			 "cosmo_dispersion_energy": -19.25, 
			 "cosmo_repulsion_energy": 1.52, 
			 "cosmo_total_nonelectrostatic_energy": 9.26, 
			 "SMD_solvation_energy": 4.79 
		},
		"coords": [
			{
				"x": -0.2856877573,
				"y": -2.0688646364,
				"z": 3.5127054725,
				"element": "C" 
			},
			{
				"x": -0.7234202558,
				"y": -1.5537291284,
				"z": 2.2653427317,
				"element": "O" 
			},
			{
				"x": 0.2162848325,
				"y": -1.0525147413,
				"z": 1.3945786097,
				"element": "C" 
			},
			{
				"x": -0.2803569156,
				"y": -0.526703522,
				"z": 0.178271469,
				"element": "C" 
			},
			{
				"x": 0.6419113331,
				"y": -0.0149261443,
				"z": -0.7357600524,
				"element": "C" 
			},
			{
				"x": 2.0047037763,
				"y": -0.0184416955,
				"z": -0.4521553316,
				"element": "C" 
			},
			{
				"x": 2.8653725279,
				"y": 0.488664468,
				"z": -1.3643334723,
				"element": "F" 
			},
			{
				"x": 2.4940676675,
				"y": -0.5304173252,
				"z": 0.7364608251,
				"element": "C" 
			},
			{
				"x": 1.5871879844,
				"y": -1.052014676,
				"z": 1.6653108357,
				"element": "C" 
			},
			{
				"x": -1.7725935523,
				"y": -0.5142827911,
				"z": -0.1654916878,
				"element": "C" 
			},
			{
				"x": -2.5666792502,
				"y": 0.4572713536,
				"z": 0.7206562142,
				"element": "C" 
			},
			{
				"x": -2.4255820913,
				"y": -1.8324447036,
				"z": -0.1496932292,
				"element": "N" 
			},
			{
				"x": -1.1856925577,
				"y": -2.3930001914,
				"z": 4.0375468613,
				"element": "H" 
			},
			{
				"x": 0.2235704081,
				"y": -1.3020600783,
				"z": 4.1101200598,
				"element": "H" 
			},
			{
				"x": 0.3855931493,
				"y": -2.927800013,
				"z": 3.3840921892,
				"element": "H" 
			},
			{
				"x": 0.3033895976,
				"y": 0.3958134639,
				"z": -1.6823611929,
				"element": "H" 
			},
			{
				"x": 3.5602863864,
				"y": -0.5241687401,
				"z": 0.9339391626,
				"element": "H" 
			},
			{
				"x": 1.9673217969,
				"y": -1.4538172195,
				"z": 2.5965375257,
				"element": "H" 
			},
			{
				"x": -1.8451739814,
				"y": -0.1487206157,
				"z": -1.1977728505,
				"element": "H" 
			},
			{
				"x": -3.6116995078,
				"y": 0.470764546,
				"z": 0.398485759,
				"element": "H" 
			},
			{
				"x": -2.15967708,
				"y": 1.4706835977,
				"z": 0.6503359021,
				"element": "H" 
			},
			{
				"x": -2.5308505084,
				"y": 0.1472060006,
				"z": 1.7683937414,
				"element": "H" 
			},
			{
				"x": -1.9205033476,
				"y": -2.4660654489,
				"z": -0.7659844473,
				"element": "H" 
			},
			{
				"x": -2.3413726546,
				"y": -2.2225317591,
				"z": 0.7862749051,
				"element": "H" 
			}
		],
		 "valence_orbital": [ 
			{
				"type": "occ",
				"energy": -0.32575,
				"method": "rhf"
			},
			{
				"type": "occ",
				"energy": -0.31555,
				"method": "rhf"
			},
			{
				"type": "occ",
				"energy": -0.2577,
				"method": "rhf"
			},
			{
				"type": "occ",
				"energy": -0.23002,
				"method": "rhf"
			},
			{
				"type": "occ",
				"energy": -0.21482,
				"method": "rhf"
			},
			{
				"type": "unocc",
				"energy": -0.00939,
				"method": "rhf"
			},
			{
				"type": "unocc",
				"energy": 0.01299,
				"method": "rhf"
			},
			{
				"type": "unocc",
				"energy": 0.08415,
				"method": "rhf"
			},
			{
				"type": "unocc",
				"energy": 0.08798,
				"method": "rhf"
			},
			{
				"type": "unocc",
				"energy": 0.09982,
				"method": "rhf"
			}
		],
		"cosmo_sigma_profile": { 
			"-0.025": 0.0,
			"-0.024": 0.0,
			"-0.023": 0.0,
			"-0.022": 0.0,
			"-0.021": 0.0,
			"-0.02": 0.0,
			"-0.019": 0.0,
			"-0.018": 0.0,
			"-0.017": 0.0,
			"-0.016": 0.0,
			"-0.015": 0.0,
			"-0.014": 0.0,
			"-0.013": 0.0,
			"-0.012": 0.0,
			"-0.011": 0.0,
			"-0.01": 0.201514608198,
			"-0.009": 1.23687375382,
			"-0.008": 1.18432887948,
			"-0.007": 3.71067745477,
			"-0.006": 12.188926613,
			"-0.005": 16.9225300297,
			"-0.004": 16.7025109123,
			"-0.003": 18.22736238,
			"-0.002": 14.5933482311,
			"-0.001": 15.1698320987,
			"0.0": 15.3151238807,
			"0.001": 18.8306292918,
			"0.002": 19.1519414174,
			"0.003": 16.6544672025,
			"0.004": 19.1294361731,
			"0.005": 13.5268555361,
			"0.006": 0.732187920303,
			"0.007": 0.872225323089,
			"0.008": 0.872267880974,
			"0.009": 0.71717380375,
			"0.01": 0.737180756613,
			"0.011": 0.779042801418,
			"0.012": 0.977432187867,
			"0.013": 0.409311470109,
			"0.014": 0.626795129205,
			"0.015": 0.581206579398,
			"0.016": 0.473201806213,
			"0.017": 0.722842865586,
			"0.018": 0.498533666727,
			"0.019": 0.766698706038,
			"0.02": 0.16811170701,
			"0.021": 0.0,
			"0.022": 0.0,
			"0.023": 0.0,
			"0.024": 0.0,
			"0.025": 0.0
		}
	}
}
