{
	 "smiles": "OC(=O)C=CC1=NC2=C(S1)C=CC=C2", 
	 "Tm": 496.15, 
	 "num_atms": 21, 
	 "gaussian": { 
		 "optdone": 1, 
		 "sigma_profile": "yes", 
		 "theory": "DFT", 
		 "functional": "B3LYP", 
		 "basiset": "6-31G**", 
		 "properties": { 
			 "R2extent": 4272.144, 
			 "electric_dipole_moment_norm": 2.66148534845, 
			 "electric_quadrupole_moment_norm": 8.27460843001, 
			 "total_energy": -988.664388065, 
			 "HOMO_LUMO_gap": 0.15867, 
			 "cosmo_polarized_energy": -13.07, 
			 "cosmo_cavitation_energy": 28.2, 
			 "cosmo_dispersion_energy": -20.83, 
			 "cosmo_repulsion_energy": 1.6, 
			 "cosmo_total_nonelectrostatic_energy": 8.98, 
			 "SMD_solvation_energy": 4.5 
		},
		"coords": [
			{
				"x": -2.5933525798,
				"y": -2.2732995693,
				"z": 0.2197543947,
				"element": "O" 
			},
			{
				"x": -2.2955203303,
				"y": -2.0298135255,
				"z": 1.5115378931,
				"element": "C" 
			},
			{
				"x": -2.9724947873,
				"y": -1.3258208047,
				"z": 2.2309114644,
				"element": "O" 
			},
			{
				"x": -1.1074945469,
				"y": -2.7823468095,
				"z": 2.0050783135,
				"element": "C" 
			},
			{
				"x": 0.128846584,
				"y": -2.8212403851,
				"z": 1.4791201621,
				"element": "C" 
			},
			{
				"x": 0.6159014888,
				"y": -2.0860836703,
				"z": 0.316732086,
				"element": "C" 
			},
			{
				"x": 0.0836092354,
				"y": -1.0158261478,
				"z": -0.190064255,
				"element": "N" 
			},
			{
				"x": 0.8030555342,
				"y": -0.5568802187,
				"z": -1.2738338213,
				"element": "C" 
			},
			{
				"x": 1.9562701579,
				"y": -1.3147733839,
				"z": -1.607541194,
				"element": "C" 
			},
			{
				"x": 2.1098051921,
				"y": -2.6482301821,
				"z": -0.4883767502,
				"element": "S" 
			},
			{
				"x": 2.7750983805,
				"y": -0.9589665667,
				"z": -2.682810387,
				"element": "C" 
			},
			{
				"x": 2.4305815741,
				"y": 0.1680669804,
				"z": -3.4233511249,
				"element": "C" 
			},
			{
				"x": 1.2920402853,
				"y": 0.9302011558,
				"z": -3.1014037631,
				"element": "C" 
			},
			{
				"x": 0.4775251635,
				"y": 0.5788095603,
				"z": -2.034032479,
				"element": "C" 
			},
			{
				"x": -3.3610593966,
				"y": -1.7143335385,
				"z": 0.0113855781,
				"element": "H" 
			},
			{
				"x": -1.2879590862,
				"y": -3.2989067402,
				"z": 2.9436374157,
				"element": "H" 
			},
			{
				"x": 0.8718077821,
				"y": -3.4332434869,
				"z": 1.9858429615,
				"element": "H" 
			},
			{
				"x": 3.6553325857,
				"y": -1.5413253473,
				"z": -2.9349994479,
				"element": "H" 
			},
			{
				"x": 3.0531955842,
				"y": 0.4636627381,
				"z": -4.2624437348,
				"element": "H" 
			},
			{
				"x": 1.0500410309,
				"y": 1.8047811716,
				"z": -3.6975063779,
				"element": "H" 
			},
			{
				"x": -0.4030298516,
				"y": 1.1557687702,
				"z": -1.7719369342,
				"element": "H" 
			}
		],
		 "valence_orbital": [ 
			{
				"type": "occ",
				"energy": -0.30297,
				"method": "rhf"
			},
			{
				"type": "occ",
				"energy": -0.28187,
				"method": "rhf"
			},
			{
				"type": "occ",
				"energy": -0.2749,
				"method": "rhf"
			},
			{
				"type": "occ",
				"energy": -0.24121,
				"method": "rhf"
			},
			{
				"type": "occ",
				"energy": -0.2353,
				"method": "rhf"
			},
			{
				"type": "unocc",
				"energy": -0.07663,
				"method": "rhf"
			},
			{
				"type": "unocc",
				"energy": -0.01216,
				"method": "rhf"
			},
			{
				"type": "unocc",
				"energy": -0.00698,
				"method": "rhf"
			},
			{
				"type": "unocc",
				"energy": 0.00125,
				"method": "rhf"
			},
			{
				"type": "unocc",
				"energy": 0.02743,
				"method": "rhf"
			}
		],
		"cosmo_sigma_profile": { 
			"-0.025": 0.0,
			"-0.024": 0.0,
			"-0.023": 0.0,
			"-0.022": 0.0,
			"-0.021": 0.0,
			"-0.02": 0.0,
			"-0.019": 0.0,
			"-0.018": 0.999450559695,
			"-0.017": 0.774955498284,
			"-0.016": 0.783013028911,
			"-0.015": 0.906653604141,
			"-0.014": 0.689634366511,
			"-0.013": 0.836667399652,
			"-0.012": 0.659345239045,
			"-0.011": 0.261419348408,
			"-0.01": 0.949206187897,
			"-0.009": 2.57771596686,
			"-0.008": 6.53012855234,
			"-0.007": 9.83134128475,
			"-0.006": 13.1744594428,
			"-0.005": 12.6097219357,
			"-0.004": 13.9698912815,
			"-0.003": 8.81010111724,
			"-0.002": 12.0702021578,
			"-0.001": 14.8019149475,
			"0.0": 14.4377663036,
			"0.001": 17.3510779708,
			"0.002": 21.7122716672,
			"0.003": 20.3037430149,
			"0.004": 15.7992387257,
			"0.005": 6.25065352522,
			"0.006": 4.84143521958,
			"0.007": 4.16392051731,
			"0.008": 4.54686785007,
			"0.009": 5.42892136291,
			"0.01": 3.93579918849,
			"0.011": 5.04204268778,
			"0.012": 3.78591168839,
			"0.013": 0.4000284009,
			"0.014": 0.0,
			"0.015": 0.0,
			"0.016": 0.0,
			"0.017": 0.0,
			"0.018": 0.0,
			"0.019": 0.0,
			"0.02": 0.0,
			"0.021": 0.0,
			"0.022": 0.0,
			"0.023": 0.0,
			"0.024": 0.0,
			"0.025": 0.0
		}
	}
}
