{
	 "smiles": "OCC(CO)(CO)NC(=O)COC(=O)C1=CC=CC=C1", 
	 "Tm": 399.15, 
	 "num_atms": 37, 
	 "gaussian": { 
		 "optdone": 1, 
		 "sigma_profile": "yes", 
		 "theory": "DFT", 
		 "functional": "B3LYP", 
		 "basiset": "6-31G**", 
		 "properties": { 
			 "R2extent": 8504.8328, 
			 "electric_dipole_moment_norm": 4.63010256582, 
			 "electric_quadrupole_moment_norm": 22.8532227714, 
			 "total_energy": -1011.72383607, 
			 "HOMO_LUMO_gap": 0.18683, 
			 "cosmo_polarized_energy": -21.8, 
			 "cosmo_cavitation_energy": 40.54, 
			 "cosmo_dispersion_energy": -28.02, 
			 "cosmo_repulsion_energy": 2.16, 
			 "cosmo_total_nonelectrostatic_energy": 14.68, 
			 "SMD_solvation_energy": 8.18 
		},
		"coords": [
			{
				"x": 3.5970869586,
				"y": -0.7120403615,
				"z": -4.2388853059,
				"element": "O" 
			},
			{
				"x": 2.4631084046,
				"y": -0.9188429455,
				"z": -3.3822997331,
				"element": "C" 
			},
			{
				"x": 2.5380065404,
				"y": 0.093145767,
				"z": -2.2219727703,
				"element": "C" 
			},
			{
				"x": 3.8254950334,
				"y": -0.1357423664,
				"z": -1.4133710145,
				"element": "C" 
			},
			{
				"x": 3.7081611628,
				"y": 0.6027045532,
				"z": -0.195338492,
				"element": "O" 
			},
			{
				"x": 2.4845989545,
				"y": 1.5586939048,
				"z": -2.7388854666,
				"element": "C" 
			},
			{
				"x": 3.6367301435,
				"y": 1.9332217127,
				"z": -3.4704657406,
				"element": "O" 
			},
			{
				"x": 1.4202270571,
				"y": -0.1493618832,
				"z": -1.3013689169,
				"element": "N" 
			},
			{
				"x": 0.1004155506,
				"y": -0.1578059195,
				"z": -1.616489586,
				"element": "C" 
			},
			{
				"x": -0.374620393,
				"y": -0.1451161775,
				"z": -2.7488539409,
				"element": "O" 
			},
			{
				"x": -0.8523199068,
				"y": -0.242012713,
				"z": -0.423752755,
				"element": "C" 
			},
			{
				"x": -0.150710284,
				"y": -0.0001821782,
				"z": 0.8069319211,
				"element": "O" 
			},
			{
				"x": -0.7748125375,
				"y": -0.3955250008,
				"z": 1.9496445076,
				"element": "C" 
			},
			{
				"x": -1.8692682097,
				"y": -0.9206181853,
				"z": 1.9507948417,
				"element": "O" 
			},
			{
				"x": 0.0316900303,
				"y": -0.1072944251,
				"z": 3.1677319043,
				"element": "C" 
			},
			{
				"x": -0.5221943017,
				"y": -0.4635835637,
				"z": 4.4057641894,
				"element": "C" 
			},
			{
				"x": 0.1809026067,
				"y": -0.2194268681,
				"z": 5.5823204796,
				"element": "C" 
			},
			{
				"x": 1.4409165299,
				"y": 0.3827123645,
				"z": 5.5294944317,
				"element": "C" 
			},
			{
				"x": 1.9959352066,
				"y": 0.7386199191,
				"z": 4.29790014,
				"element": "C" 
			},
			{
				"x": 1.2970203735,
				"y": 0.4964733003,
				"z": 3.1161463695,
				"element": "C" 
			},
			{
				"x": 3.4522904866,
				"y": -1.2113753855,
				"z": -5.0516111125,
				"element": "H" 
			},
			{
				"x": 1.5225477117,
				"y": -0.7686866463,
				"z": -3.9189083614,
				"element": "H" 
			},
			{
				"x": 2.4701834764,
				"y": -1.9384484809,
				"z": -2.9696941317,
				"element": "H" 
			},
			{
				"x": 3.9433265578,
				"y": -1.2102756267,
				"z": -1.2059840222,
				"element": "H" 
			},
			{
				"x": 4.6725716673,
				"y": 0.2096195353,
				"z": -2.012162966,
				"element": "H" 
			},
			{
				"x": 4.5638729916,
				"y": 0.5956098135,
				"z": 0.2483128523,
				"element": "H" 
			},
			{
				"x": 2.4280462024,
				"y": 2.2228787912,
				"z": -1.8719679033,
				"element": "H" 
			},
			{
				"x": 1.5619504682,
				"y": 1.6805303278,
				"z": -3.3247196384,
				"element": "H" 
			},
			{
				"x": 3.7803732225,
				"y": 1.2331998432,
				"z": -4.127556544,
				"element": "H" 
			},
			{
				"x": 1.6482295189,
				"y": -0.030467757,
				"z": -0.3221915518,
				"element": "H" 
			},
			{
				"x": -1.6405296981,
				"y": 0.5033795195,
				"z": -0.561130795,
				"element": "H" 
			},
			{
				"x": -1.3265101935,
				"y": -1.2270853645,
				"z": -0.4001942,
				"element": "H" 
			},
			{
				"x": -1.5020091633,
				"y": -0.928671531,
				"z": 4.420140701,
				"element": "H" 
			},
			{
				"x": -0.2514176132,
				"y": -0.4961536463,
				"z": 6.5392362696,
				"element": "H" 
			},
			{
				"x": 1.9895850599,
				"y": 0.5749204525,
				"z": 6.4471827978,
				"element": "H" 
			},
			{
				"x": 2.9745950373,
				"y": 1.207752781,
				"z": 4.2583591232,
				"element": "H" 
			},
			{
				"x": 1.7310253479,
				"y": 0.7732544405,
				"z": 2.1618444191,
				"element": "H" 
			}
		],
		 "valence_orbital": [ 
			{
				"type": "occ",
				"energy": -0.27275,
				"method": "rhf"
			},
			{
				"type": "occ",
				"energy": -0.26547,
				"method": "rhf"
			},
			{
				"type": "occ",
				"energy": -0.26375,
				"method": "rhf"
			},
			{
				"type": "occ",
				"energy": -0.253,
				"method": "rhf"
			},
			{
				"type": "occ",
				"energy": -0.23928,
				"method": "rhf"
			},
			{
				"type": "unocc",
				"energy": -0.05245,
				"method": "rhf"
			},
			{
				"type": "unocc",
				"energy": -0.01322,
				"method": "rhf"
			},
			{
				"type": "unocc",
				"energy": 0.02093,
				"method": "rhf"
			},
			{
				"type": "unocc",
				"energy": 0.04631,
				"method": "rhf"
			},
			{
				"type": "unocc",
				"energy": 0.05154,
				"method": "rhf"
			}
		],
		"cosmo_sigma_profile": { 
			"-0.025": 0.0,
			"-0.024": 0.0,
			"-0.023": 0.0,
			"-0.022": 0.0,
			"-0.021": 0.0,
			"-0.02": 0.0,
			"-0.019": 0.0,
			"-0.018": 0.0,
			"-0.017": 0.86394292676,
			"-0.016": 2.21031767445,
			"-0.015": 2.34319201734,
			"-0.014": 1.85650888417,
			"-0.013": 1.40829958814,
			"-0.012": 1.92977904501,
			"-0.011": 1.83633546445,
			"-0.01": 1.34734737695,
			"-0.009": 1.30289572003,
			"-0.008": 4.00034195688,
			"-0.007": 8.73074321819,
			"-0.006": 14.6565564086,
			"-0.005": 16.7843176389,
			"-0.004": 28.0922955999,
			"-0.003": 27.2000491,
			"-0.002": 27.6772931504,
			"-0.001": 20.8705298736,
			"0.0": 20.0042480095,
			"0.001": 21.2972443226,
			"0.002": 20.6462881875,
			"0.003": 18.7372197488,
			"0.004": 16.9959272245,
			"0.005": 6.88399899526,
			"0.006": 6.31995254904,
			"0.007": 6.01086172196,
			"0.008": 5.07884008944,
			"0.009": 5.64096101656,
			"0.01": 6.56271240059,
			"0.011": 6.45736805416,
			"0.012": 5.29990521544,
			"0.013": 5.04275434067,
			"0.014": 3.94600783504,
			"0.015": 1.41995912002,
			"0.016": 0.0,
			"0.017": 0.0,
			"0.018": 0.0,
			"0.019": 0.0,
			"0.02": 0.0,
			"0.021": 0.0,
			"0.022": 0.0,
			"0.023": 0.0,
			"0.024": 0.0,
			"0.025": 0.0
		}
	}
}
