{
	 "smiles": "OC1=CC=C(C=C1)N=NC1=CC=CC=C1", 
	 "Tm": 427.15, 
	 "num_atms": 25, 
	 "gaussian": { 
		 "optdone": 1, 
		 "sigma_profile": "yes", 
		 "theory": "DFT", 
		 "functional": "B3LYP", 
		 "basiset": "6-31G**", 
		 "properties": { 
			 "R2extent": 5008.6047, 
			 "electric_dipole_moment_norm": 1.68903102103, 
			 "electric_quadrupole_moment_norm": 16.5134242067, 
			 "total_energy": -647.985926146, 
			 "HOMO_LUMO_gap": 0.13846, 
			 "cosmo_polarized_energy": -11.42, 
			 "cosmo_cavitation_energy": 30.32, 
			 "cosmo_dispersion_energy": -22.39, 
			 "cosmo_repulsion_energy": 1.74, 
			 "cosmo_total_nonelectrostatic_energy": 9.67, 
			 "SMD_solvation_energy": 4.3 
		},
		"coords": [
			{
				"x": 3.3639905374,
				"y": 2.8940540128,
				"z": 2.0954783983,
				"element": "O" 
			},
			{
				"x": 2.4675384671,
				"y": 1.9755973045,
				"z": 1.6407268615,
				"element": "C" 
			},
			{
				"x": 1.91277405,
				"y": 0.9872391441,
				"z": 2.4623856267,
				"element": "C" 
			},
			{
				"x": 1.0019516253,
				"y": 0.0817867864,
				"z": 1.9274447388,
				"element": "C" 
			},
			{
				"x": 0.6338755104,
				"y": 0.1476807758,
				"z": 0.5770571466,
				"element": "C" 
			},
			{
				"x": 1.1984743511,
				"y": 1.1466549362,
				"z": -0.2409973019,
				"element": "C" 
			},
			{
				"x": 2.1053300257,
				"y": 2.05092339,
				"z": 0.2843595002,
				"element": "C" 
			},
			{
				"x": -0.296683445,
				"y": -0.8216034392,
				"z": 0.1466070512,
				"element": "N" 
			},
			{
				"x": -0.618463667,
				"y": -0.7498243848,
				"z": -1.0720675024,
				"element": "N" 
			},
			{
				"x": -1.5537663355,
				"y": -1.7267346895,
				"z": -1.4977825423,
				"element": "C" 
			},
			{
				"x": -1.921151856,
				"y": -1.6599741115,
				"z": -2.8487578597,
				"element": "C" 
			},
			{
				"x": -2.8346432685,
				"y": -2.5719520428,
				"z": -3.3750831087,
				"element": "C" 
			},
			{
				"x": -3.3862814834,
				"y": -3.5563666012,
				"z": -2.5531893826,
				"element": "C" 
			},
			{
				"x": -3.0207509117,
				"y": -3.625356942,
				"z": -1.2024541727,
				"element": "C" 
			},
			{
				"x": -2.1103834307,
				"y": -2.7189551334,
				"z": -0.671458685,
				"element": "C" 
			},
			{
				"x": 3.5313363748,
				"y": 2.7403582508,
				"z": 3.0347043737,
				"element": "H" 
			},
			{
				"x": 2.1933858183,
				"y": 0.9293564601,
				"z": 3.5118070717,
				"element": "H" 
			},
			{
				"x": 0.55773593,
				"y": -0.6935888502,
				"z": 2.5433651067,
				"element": "H" 
			},
			{
				"x": 0.9070515367,
				"y": 1.1889472805,
				"z": -1.2841820883,
				"element": "H" 
			},
			{
				"x": 2.5508535642,
				"y": 2.8271332489,
				"z": -0.3292810059,
				"element": "H" 
			},
			{
				"x": -1.4754671927,
				"y": -0.8836429297,
				"z": -3.462723641,
				"element": "H" 
			},
			{
				"x": -3.1153175245,
				"y": -2.5150479453,
				"z": -4.4227300144,
				"element": "H" 
			},
			{
				"x": -4.0984847141,
				"y": -4.2688654203,
				"z": -2.9595273422,
				"element": "H" 
			},
			{
				"x": -3.4515778214,
				"y": -4.3925311934,
				"z": -0.5649152753,
				"element": "H" 
			},
			{
				"x": -1.8147261406,
				"y": -2.7555879066,
				"z": 0.3707140471,
				"element": "H" 
			}
		],
		 "valence_orbital": [ 
			{
				"type": "occ",
				"energy": -0.26042,
				"method": "rhf"
			},
			{
				"type": "occ",
				"energy": -0.2591,
				"method": "rhf"
			},
			{
				"type": "occ",
				"energy": -0.25126,
				"method": "rhf"
			},
			{
				"type": "occ",
				"energy": -0.22024,
				"method": "rhf"
			},
			{
				"type": "occ",
				"energy": -0.21221,
				"method": "rhf"
			},
			{
				"type": "unocc",
				"energy": -0.07375,
				"method": "rhf"
			},
			{
				"type": "unocc",
				"energy": -0.00781,
				"method": "rhf"
			},
			{
				"type": "unocc",
				"energy": -3e-05,
				"method": "rhf"
			},
			{
				"type": "unocc",
				"energy": 0.01671,
				"method": "rhf"
			},
			{
				"type": "unocc",
				"energy": 0.05337,
				"method": "rhf"
			}
		],
		"cosmo_sigma_profile": { 
			"-0.025": 0.0,
			"-0.024": 0.0,
			"-0.023": 0.0,
			"-0.022": 0.0,
			"-0.021": 0.0,
			"-0.02": 0.0,
			"-0.019": 0.0448343055453,
			"-0.018": 0.963984009865,
			"-0.017": 1.33381760498,
			"-0.016": 0.907664037239,
			"-0.015": 1.19861104358,
			"-0.014": 1.15104481389,
			"-0.013": 0.993033359732,
			"-0.012": 0.692860975448,
			"-0.011": 0.979013254134,
			"-0.01": 1.25032779609,
			"-0.009": 0.868836902826,
			"-0.008": 1.38428563644,
			"-0.007": 3.0541443833,
			"-0.006": 12.7709710974,
			"-0.005": 15.4793764716,
			"-0.004": 18.3161623196,
			"-0.003": 13.1524168936,
			"-0.002": 13.1576853583,
			"-0.001": 10.5159743657,
			"0.0": 10.4233143966,
			"0.001": 15.9362789738,
			"0.002": 28.8588050785,
			"0.003": 33.4136638307,
			"0.004": 26.9582116892,
			"0.005": 12.0543087651,
			"0.006": 4.74396381544,
			"0.007": 3.77386884078,
			"0.008": 4.19085416574,
			"0.009": 2.08807019429,
			"0.01": 1.92998595841,
			"0.011": 1.02444459118,
			"0.012": 0.0,
			"0.013": 0.0,
			"0.014": 0.0,
			"0.015": 0.0,
			"0.016": 0.0,
			"0.017": 0.0,
			"0.018": 0.0,
			"0.019": 0.0,
			"0.02": 0.0,
			"0.021": 0.0,
			"0.022": 0.0,
			"0.023": 0.0,
			"0.024": 0.0,
			"0.025": 0.0
		}
	}
}
