{
	 "smiles": "OC(=O)C1=C2C=C(Br)C=CC2=NC(C=CC2=CN=CC=C2)=C1", 
	 "Tm": 609.15, 
	 "num_atms": 33, 
	 "gaussian": { 
		 "optdone": 1, 
		 "sigma_profile": "yes", 
		 "theory": "DFT", 
		 "functional": "B3LYP", 
		 "basiset": "6-31G**", 
		 "properties": { 
			 "R2extent": 13463.6673, 
			 "electric_dipole_moment_norm": 5.39421941063, 
			 "electric_quadrupole_moment_norm": 18.8840262873, 
			 "total_energy": -3485.78353215, 
			 "HOMO_LUMO_gap": 0.13088, 
			 "cosmo_polarized_energy": -19.66, 
			 "cosmo_cavitation_energy": 40.91, 
			 "cosmo_dispersion_energy": -29.73, 
			 "cosmo_repulsion_energy": 2.2, 
			 "cosmo_total_nonelectrostatic_energy": 13.38, 
			 "SMD_solvation_energy": 4.58 
		},
		"coords": [
			{
				"x": -2.8217879397,
				"y": 4.2416258944,
				"z": -1.1208530442,
				"element": "O" 
			},
			{
				"x": -1.5556269209,
				"y": 4.275941914,
				"z": -0.6308152205,
				"element": "C" 
			},
			{
				"x": -0.9432949393,
				"y": 5.3162333694,
				"z": -0.6067022914,
				"element": "O" 
			},
			{
				"x": -1.0010726737,
				"y": 2.9540612878,
				"z": -0.1684515907,
				"element": "C" 
			},
			{
				"x": -0.1038696372,
				"y": 2.8644416864,
				"z": 0.9438809607,
				"element": "C" 
			},
			{
				"x": 0.3164450029,
				"y": 3.9723329542,
				"z": 1.7236280839,
				"element": "C" 
			},
			{
				"x": 1.1570583862,
				"y": 3.7648441307,
				"z": 2.7934602544,
				"element": "C" 
			},
			{
				"x": 1.725295024,
				"y": 5.2496817095,
				"z": 3.8470506389,
				"element": "Br" 
			},
			{
				"x": 1.6216838405,
				"y": 2.4752713083,
				"z": 3.1426580657,
				"element": "C" 
			},
			{
				"x": 1.2287671144,
				"y": 1.3911583746,
				"z": 2.3955007011,
				"element": "C" 
			},
			{
				"x": 0.3611315624,
				"y": 1.5497533876,
				"z": 1.2800333607,
				"element": "C" 
			},
			{
				"x": 0.0201306679,
				"y": 0.4333104173,
				"z": 0.5840470879,
				"element": "N" 
			},
			{
				"x": -0.7875961191,
				"y": 0.5341661194,
				"z": -0.4629658376,
				"element": "C" 
			},
			{
				"x": -1.1811805066,
				"y": -0.6205957673,
				"z": -1.275007177,
				"element": "C" 
			},
			{
				"x": -0.9366917168,
				"y": -1.9571646766,
				"z": -1.2447011451,
				"element": "C" 
			},
			{
				"x": -0.1855740475,
				"y": -2.8941055796,
				"z": -0.4076293262,
				"element": "C" 
			},
			{
				"x": 0.580198053,
				"y": -2.5782681037,
				"z": 0.7362347182,
				"element": "C" 
			},
			{
				"x": 1.2440459736,
				"y": -3.4821698453,
				"z": 1.4649740865,
				"element": "N" 
			},
			{
				"x": 1.179817197,
				"y": -4.7649718431,
				"z": 1.0861605952,
				"element": "C" 
			},
			{
				"x": 0.4577899568,
				"y": -5.2011727483,
				"z": -0.0259640276,
				"element": "C" 
			},
			{
				"x": -0.2286752756,
				"y": -4.2545677661,
				"z": -0.7749204733,
				"element": "C" 
			},
			{
				"x": -1.3232508062,
				"y": 1.8030387584,
				"z": -0.8527426681,
				"element": "C" 
			},
			{
				"x": -3.2246968718,
				"y": 3.3806105938,
				"z": -0.9387513891,
				"element": "H" 
			},
			{
				"x": -0.0101167357,
				"y": 4.968600781,
				"z": 1.4595297986,
				"element": "H" 
			},
			{
				"x": 2.2832376378,
				"y": 2.354786736,
				"z": 3.9927681505,
				"element": "H" 
			},
			{
				"x": 1.5702245845,
				"y": 0.3902719948,
				"z": 2.6371405178,
				"element": "H" 
			},
			{
				"x": -1.8245874917,
				"y": -0.3235281886,
				"z": -2.1013286329,
				"element": "H" 
			},
			{
				"x": -1.4341156437,
				"y": -2.4821780546,
				"z": -2.0605780697,
				"element": "H" 
			},
			{
				"x": 0.6442644731,
				"y": -1.5446906729,
				"z": 1.0535429729,
				"element": "H" 
			},
			{
				"x": 1.7308400395,
				"y": -5.4759196222,
				"z": 1.6997041802,
				"element": "H" 
			},
			{
				"x": 0.4366573484,
				"y": -6.2529874946,
				"z": -0.2933871143,
				"element": "H" 
			},
			{
				"x": -0.8022995904,
				"y": -4.5581729862,
				"z": -1.6474922394,
				"element": "H" 
			},
			{
				"x": -1.9644499462,
				"y": 1.8482619316,
				"z": -1.7285239262,
				"element": "H" 
			}
		],
		 "valence_orbital": [ 
			{
				"type": "occ",
				"energy": -0.27349,
				"method": "rhf"
			},
			{
				"type": "occ",
				"energy": -0.27032,
				"method": "rhf"
			},
			{
				"type": "occ",
				"energy": -0.25468,
				"method": "rhf"
			},
			{
				"type": "occ",
				"energy": -0.25081,
				"method": "rhf"
			},
			{
				"type": "occ",
				"energy": -0.22801,
				"method": "rhf"
			},
			{
				"type": "unocc",
				"energy": -0.09713,
				"method": "rhf"
			},
			{
				"type": "unocc",
				"energy": -0.06492,
				"method": "rhf"
			},
			{
				"type": "unocc",
				"energy": -0.02686,
				"method": "rhf"
			},
			{
				"type": "unocc",
				"energy": -0.02357,
				"method": "rhf"
			},
			{
				"type": "unocc",
				"energy": -0.0187,
				"method": "rhf"
			}
		],
		"cosmo_sigma_profile": { 
			"-0.025": 0.0,
			"-0.024": 0.0,
			"-0.023": 0.0,
			"-0.022": 0.0,
			"-0.021": 0.0,
			"-0.02": 0.0,
			"-0.019": 0.469147410544,
			"-0.018": 1.22647455862,
			"-0.017": 0.883626677056,
			"-0.016": 1.18783816151,
			"-0.015": 0.931082018582,
			"-0.014": 1.1522441732,
			"-0.013": 0.811781042312,
			"-0.012": 1.21528397525,
			"-0.011": 1.58103592993,
			"-0.01": 1.7351254176,
			"-0.009": 2.72472328915,
			"-0.008": 5.05401954611,
			"-0.007": 12.8524731166,
			"-0.006": 18.1960935173,
			"-0.005": 16.6870216941,
			"-0.004": 16.3360793955,
			"-0.003": 16.3968331507,
			"-0.002": 19.4949583235,
			"-0.001": 19.966243545,
			"0.0": 27.8268596417,
			"0.001": 34.4055790907,
			"0.002": 41.6088696272,
			"0.003": 26.0514990408,
			"0.004": 21.4097600107,
			"0.005": 7.56577562134,
			"0.006": 4.3170816949,
			"0.007": 3.99269055529,
			"0.008": 4.84540737185,
			"0.009": 5.51778682214,
			"0.01": 6.30438911329,
			"0.011": 4.4125845078,
			"0.012": 2.64955151126,
			"0.013": 1.20906353316,
			"0.014": 0.694612789722,
			"0.015": 0.966046533126,
			"0.016": 0.877409703816,
			"0.017": 0.495372086299,
			"0.018": 0.0315181063695,
			"0.019": 0.0,
			"0.02": 0.0,
			"0.021": 0.0,
			"0.022": 0.0,
			"0.023": 0.0,
			"0.024": 0.0,
			"0.025": 0.0
		}
	}
}
