{
	 "smiles": "OC(=O)C1=CC=C(NS(=O)(=O)C2=CC=C(Br)S2)C=C1", 
	 "Tm": 528.15, 
	 "num_atms": 27, 
	 "gaussian": { 
		 "optdone": 1, 
		 "sigma_profile": "yes", 
		 "theory": "DFT", 
		 "functional": "B3LYP", 
		 "basiset": "6-31G**", 
		 "properties": { 
			 "R2extent": 10207.3164, 
			 "electric_dipole_moment_norm": 4.50422065734, 
			 "electric_quadrupole_moment_norm": 13.5282011424, 
			 "total_energy": -4147.3382983, 
			 "HOMO_LUMO_gap": 0.17489, 
			 "cosmo_polarized_energy": -19.5, 
			 "cosmo_cavitation_energy": 38.36, 
			 "cosmo_dispersion_energy": -28.04, 
			 "cosmo_repulsion_energy": 2.09, 
			 "cosmo_total_nonelectrostatic_energy": 12.42, 
			 "SMD_solvation_energy": 5.44 
		},
		"coords": [
			{
				"x": -0.624188001,
				"y": 4.0300124684,
				"z": -3.1589501349,
				"element": "O" 
			},
			{
				"x": -0.8297731051,
				"y": 3.9080135765,
				"z": -1.8222208298,
				"element": "C" 
			},
			{
				"x": -1.5647522608,
				"y": 4.6598053738,
				"z": -1.2118953509,
				"element": "O" 
			},
			{
				"x": -0.0750534511,
				"y": 2.7825328907,
				"z": -1.218900816,
				"element": "C" 
			},
			{
				"x": -0.1939985707,
				"y": 2.5679211962,
				"z": 0.161120276,
				"element": "C" 
			},
			{
				"x": 0.4944496143,
				"y": 1.5366558434,
				"z": 0.7876804368,
				"element": "C" 
			},
			{
				"x": 1.3034814937,
				"y": 0.6810917287,
				"z": 0.0215463169,
				"element": "C" 
			},
			{
				"x": 2.0469790888,
				"y": -0.3648451005,
				"z": 0.6154691557,
				"element": "N" 
			},
			{
				"x": 1.4565446202,
				"y": -1.4421242936,
				"z": 1.7856607681,
				"element": "S" 
			},
			{
				"x": 0.9541292315,
				"y": -0.6516033807,
				"z": 2.9044115333,
				"element": "O" 
			},
			{
				"x": 2.5283926378,
				"y": -2.426268662,
				"z": 1.9117622005,
				"element": "O" 
			},
			{
				"x": 0.0570680243,
				"y": -2.2521051789,
				"z": 1.0662148853,
				"element": "C" 
			},
			{
				"x": -1.2508455057,
				"y": -1.852082276,
				"z": 1.1754115951,
				"element": "C" 
			},
			{
				"x": -2.138238102,
				"y": -2.6766235072,
				"z": 0.429066874,
				"element": "C" 
			},
			{
				"x": -1.4730523556,
				"y": -3.6769588873,
				"z": -0.2306206959,
				"element": "C" 
			},
			{
				"x": -2.2401490108,
				"y": -5.0095812262,
				"z": -1.3151290932,
				"element": "Br" 
			},
			{
				"x": 0.242325287,
				"y": -3.657126241,
				"z": 0.0480181986,
				"element": "S" 
			},
			{
				"x": 1.423391857,
				"y": 0.8888531884,
				"z": -1.3619460608,
				"element": "C" 
			},
			{
				"x": 0.7489709532,
				"y": 1.9377334035,
				"z": -1.9750044288,
				"element": "C" 
			},
			{
				"x": -1.1614741389,
				"y": 4.7889923916,
				"z": -3.4390114405,
				"element": "H" 
			},
			{
				"x": -0.8238807609,
				"y": 3.2383166975,
				"z": 0.7360939811,
				"element": "H" 
			},
			{
				"x": 0.4279775956,
				"y": 1.3959399394,
				"z": 1.8592867214,
				"element": "H" 
			},
			{
				"x": 2.6899094854,
				"y": -0.8518177142,
				"z": -0.00048499,
				"element": "H" 
			},
			{
				"x": -1.55818153,
				"y": -1.0065293028,
				"z": 1.7779635482,
				"element": "H" 
			},
			{
				"x": -3.2115974623,
				"y": -2.5437943882,
				"z": 0.3856213921,
				"element": "H" 
			},
			{
				"x": 2.0472695332,
				"y": 0.2248480466,
				"z": -1.9546244844,
				"element": "H" 
			},
			{
				"x": 0.8483948333,
				"y": 2.0968434139,
				"z": -3.0425395579,
				"element": "H" 
			}
		],
		 "valence_orbital": [ 
			{
				"type": "occ",
				"energy": -0.28988,
				"method": "rhf"
			},
			{
				"type": "occ",
				"energy": -0.28133,
				"method": "rhf"
			},
			{
				"type": "occ",
				"energy": -0.2739,
				"method": "rhf"
			},
			{
				"type": "occ",
				"energy": -0.26263,
				"method": "rhf"
			},
			{
				"type": "occ",
				"energy": -0.24505,
				"method": "rhf"
			},
			{
				"type": "unocc",
				"energy": -0.07016,
				"method": "rhf"
			},
			{
				"type": "unocc",
				"energy": -0.05286,
				"method": "rhf"
			},
			{
				"type": "unocc",
				"energy": -0.02835,
				"method": "rhf"
			},
			{
				"type": "unocc",
				"energy": -0.02288,
				"method": "rhf"
			},
			{
				"type": "unocc",
				"energy": -0.00734,
				"method": "rhf"
			}
		],
		"cosmo_sigma_profile": { 
			"-0.025": 0.0,
			"-0.024": 0.0,
			"-0.023": 0.0,
			"-0.022": 0.0,
			"-0.021": 0.0,
			"-0.02": 0.0,
			"-0.019": 0.0,
			"-0.018": 0.732699067898,
			"-0.017": 0.968820405731,
			"-0.016": 2.12508140072,
			"-0.015": 2.05138670134,
			"-0.014": 2.22863927888,
			"-0.013": 2.11406675657,
			"-0.012": 1.25713794661,
			"-0.011": 2.02506795289,
			"-0.01": 2.68719595433,
			"-0.009": 4.20738464009,
			"-0.008": 5.42847895176,
			"-0.007": 8.28482634526,
			"-0.006": 11.9221600701,
			"-0.005": 12.6515915907,
			"-0.004": 12.7911250847,
			"-0.003": 14.4229930633,
			"-0.002": 19.3145487123,
			"-0.001": 25.4687725557,
			"0.0": 31.6893501919,
			"0.001": 35.8578797803,
			"0.002": 32.1543907126,
			"0.003": 23.4739179007,
			"0.004": 6.92720873598,
			"0.005": 7.55510933778,
			"0.006": 6.5120259611,
			"0.007": 5.7058781649,
			"0.008": 5.6143986976,
			"0.009": 8.50056090796,
			"0.01": 9.33015219398,
			"0.011": 5.42775034645,
			"0.012": 4.62562446931,
			"0.013": 0.175642657645,
			"0.014": 0.0,
			"0.015": 0.0,
			"0.016": 0.0,
			"0.017": 0.0,
			"0.018": 0.0,
			"0.019": 0.0,
			"0.02": 0.0,
			"0.021": 0.0,
			"0.022": 0.0,
			"0.023": 0.0,
			"0.024": 0.0,
			"0.0": 0.0
		}
	}
}
