{
	 "smiles": "NC1=C(OC2=C1C=CC=C2)C(=O)N1CCOCC1", 
	 "Tm": 397.15, 
	 "num_atms": 32, 
	 "gaussian": { 
		 "optdone": 1, 
		 "sigma_profile": "yes", 
		 "theory": "DFT", 
		 "functional": "B3LYP", 
		 "basiset": "6-31G**", 
		 "properties": { 
			 "R2extent": 5567.1102, 
			 "electric_dipole_moment_norm": 2.39896052073, 
			 "electric_quadrupole_moment_norm": 8.91157196627, 
			 "total_energy": -838.991866248, 
			 "HOMO_LUMO_gap": 0.15648, 
			 "cosmo_polarized_energy": -12.83, 
			 "cosmo_cavitation_energy": 34.27, 
			 "cosmo_dispersion_energy": -25.71, 
			 "cosmo_repulsion_energy": 1.97, 
			 "cosmo_total_nonelectrostatic_energy": 10.53, 
			 "SMD_solvation_energy": 5.56 
		},
		"coords": [
			{
				"x": -3.4213695882,
				"y": -0.6156989486,
				"z": -0.7465839438,
				"element": "N" 
			},
			{
				"x": -2.2399336132,
				"y": -0.0792568868,
				"z": -1.1808164153,
				"element": "C" 
			},
			{
				"x": -1.0667232241,
				"y": 0.056662998,
				"z": -0.4585094005,
				"element": "C" 
			},
			{
				"x": -0.0585281678,
				"y": 0.6098337205,
				"z": -1.2636540665,
				"element": "O" 
			},
			{
				"x": -0.6113221434,
				"y": 0.8160526207,
				"z": -2.4879395036,
				"element": "C" 
			},
			{
				"x": -1.9554792482,
				"y": 0.4066388435,
				"z": -2.5122012991,
				"element": "C" 
			},
			{
				"x": -2.6939122769,
				"y": 0.5332885494,
				"z": -3.6985166274,
				"element": "C" 
			},
			{
				"x": -2.0626758072,
				"y": 1.0709409231,
				"z": -4.8150511411,
				"element": "C" 
			},
			{
				"x": -0.7143803543,
				"y": 1.4768244969,
				"z": -4.7620459237,
				"element": "C" 
			},
			{
				"x": 0.0375816445,
				"y": 1.3544642265,
				"z": -3.5953969274,
				"element": "C" 
			},
			{
				"x": -0.9152960042,
				"y": -0.2405388424,
				"z": 0.9643081959,
				"element": "C" 
			},
			{
				"x": -1.9414983168,
				"y": -0.6031501458,
				"z": 1.5757042648,
				"element": "O" 
			},
			{
				"x": 0.2827704743,
				"y": -0.1164118797,
				"z": 1.6277682829,
				"element": "N" 
			},
			{
				"x": 1.6105093118,
				"y": 0.1350729356,
				"z": 1.0656362258,
				"element": "C" 
			},
			{
				"x": 2.5682445461,
				"y": -0.9831542299,
				"z": 1.4909626282,
				"element": "C" 
			},
			{
				"x": 2.6056682568,
				"y": -1.1374919258,
				"z": 2.901533634,
				"element": "O" 
			},
			{
				"x": 1.3137449816,
				"y": -1.4419124455,
				"z": 3.4157121077,
				"element": "C" 
			},
			{
				"x": 0.3075391681,
				"y": -0.343513689,
				"z": 3.0747365583,
				"element": "C" 
			},
			{
				"x": -4.2613372952,
				"y": -0.2909673986,
				"z": -1.2020473162,
				"element": "H" 
			},
			{
				"x": -3.4563956829,
				"y": -0.7140400556,
				"z": 0.2640237353,
				"element": "H" 
			},
			{
				"x": -3.730357779,
				"y": 0.2121384891,
				"z": -3.750516214,
				"element": "H" 
			},
			{
				"x": -2.6130509507,
				"y": 1.1774410262,
				"z": -5.7447436119,
				"element": "H" 
			},
			{
				"x": -0.2494649529,
				"y": 1.8925707259,
				"z": -5.6509403571,
				"element": "H" 
			},
			{
				"x": 1.0765801197,
				"y": 1.66124035,
				"z": -3.5440953739,
				"element": "H" 
			},
			{
				"x": 1.9866485841,
				"y": 1.0940071978,
				"z": 1.4504317328,
				"element": "H" 
			},
			{
				"x": 1.5635104722,
				"y": 0.1968773084,
				"z": -0.0177149414,
				"element": "H" 
			},
			{
				"x": 3.5887663174,
				"y": -0.7466908795,
				"z": 1.1742731231,
				"element": "H" 
			},
			{
				"x": 2.2612952731,
				"y": -1.9276546895,
				"z": 1.0110449019,
				"element": "H" 
			},
			{
				"x": 1.4246090319,
				"y": -1.5384041751,
				"z": 4.4998458963,
				"element": "H" 
			},
			{
				"x": 0.9604221483,
				"y": -2.4045081428,
				"z": 3.0110914296,
				"element": "H" 
			},
			{
				"x": -0.6990836955,
				"y": -0.6132842343,
				"z": 3.3933053121,
				"element": "H" 
			},
			{
				"x": 0.6070187704,
				"y": 0.5884241573,
				"z": 3.5748950344,
				"element": "H" 
			}
		],
		 "valence_orbital": [ 
			{
				"type": "occ",
				"energy": -0.26312,
				"method": "rhf"
			},
			{
				"type": "occ",
				"energy": -0.25423,
				"method": "rhf"
			},
			{
				"type": "occ",
				"energy": -0.24094,
				"method": "rhf"
			},
			{
				"type": "occ",
				"energy": -0.22808,
				"method": "rhf"
			},
			{
				"type": "occ",
				"energy": -0.19757,
				"method": "rhf"
			},
			{
				"type": "unocc",
				"energy": -0.04109,
				"method": "rhf"
			},
			{
				"type": "unocc",
				"energy": 0.00447,
				"method": "rhf"
			},
			{
				"type": "unocc",
				"energy": 0.03117,
				"method": "rhf"
			},
			{
				"type": "unocc",
				"energy": 0.07903,
				"method": "rhf"
			},
			{
				"type": "unocc",
				"energy": 0.09934,
				"method": "rhf"
			}
		],
		"cosmo_sigma_profile": { 
			"-0.025": 0.0,
			"-0.024": 0.0,
			"-0.023": 0.0,
			"-0.022": 0.0,
			"-0.021": 0.0,
			"-0.02": 0.0,
			"-0.019": 0.0,
			"-0.018": 0.0,
			"-0.017": 0.0,
			"-0.016": 0.0,
			"-0.015": 0.0,
			"-0.014": 0.00167528711764,
			"-0.013": 0.954683586111,
			"-0.012": 1.1886110447,
			"-0.011": 1.56705723673,
			"-0.01": 1.94821864351,
			"-0.009": 1.79376275706,
			"-0.008": 2.52511133845,
			"-0.007": 4.62937331317,
			"-0.006": 10.6924197903,
			"-0.005": 18.1511810845,
			"-0.004": 34.3329271027,
			"-0.003": 25.5184947474,
			"-0.002": 19.1648701984,
			"-0.001": 15.0477981852,
			"0.0": 14.1110062659,
			"0.001": 19.1029319493,
			"0.002": 21.889338812,
			"0.003": 19.4480652565,
			"0.004": 15.6642894414,
			"0.005": 12.2852130996,
			"0.006": 5.16832813033,
			"0.007": 3.84474372072,
			"0.008": 3.63003846809,
			"0.009": 3.12811195622,
			"0.01": 3.59988090841,
			"0.011": 2.95828956968,
			"0.012": 4.31841211094,
			"0.013": 4.40599605381,
			"0.014": 1.00715633769,
			"0.015": 0.0,
			"0.016": 0.0,
			"0.017": 0.0,
			"0.018": 0.0,
			"0.019": 0.0,
			"0.02": 0.0,
			"0.021": 0.0,
			"0.022": 0.0,
			"0.023": 0.0,
			"0.024": 0.0,
			"0.025": 0.0
		}
	}
}
