{
	 "smiles": "CC1=NC2=C(O1)C=C1C=CC=CC1=C2", 
	 "Tm": 360.15, 
	 "num_atms": 23, 
	 "gaussian": { 
		 "optdone": 1, 
		 "sigma_profile": "yes", 
		 "theory": "DFT", 
		 "functional": "B3LYP", 
		 "basiset": "6-31G**", 
		 "properties": { 
			 "R2extent": 3255.635, 
			 "electric_dipole_moment_norm": 1.17055240378, 
			 "electric_quadrupole_moment_norm": 10.3924125447, 
			 "total_energy": -592.693454823, 
			 "HOMO_LUMO_gap": 0.16099, 
			 "cosmo_polarized_energy": -7.7, 
			 "cosmo_cavitation_energy": 27.04, 
			 "cosmo_dispersion_energy": -20.5, 
			 "cosmo_repulsion_energy": 1.57, 
			 "cosmo_total_nonelectrostatic_energy": 8.12, 
			 "SMD_solvation_energy": 2.74 
		},
		"coords": [
			{
				"x": -3.1127844905,
				"y": 2.8694364952,
				"z": -2.9916641187,
				"element": "C" 
			},
			{
				"x": -2.0966918815,
				"y": 2.0104291832,
				"z": -2.3298323879,
				"element": "C" 
			},
			{
				"x": -1.550435638,
				"y": 0.9302485299,
				"z": -2.781499073,
				"element": "N" 
			},
			{
				"x": -0.6729344997,
				"y": 0.5283534812,
				"z": -1.7661418445,
				"element": "C" 
			},
			{
				"x": -0.760843801,
				"y": 1.4614391383,
				"z": -0.7020252642,
				"element": "C" 
			},
			{
				"x": -1.6822469601,
				"y": 2.414535129,
				"z": -1.0747620592,
				"element": "O" 
			},
			{
				"x": -0.038147959,
				"y": 1.3771521296,
				"z": 0.456413907,
				"element": "C" 
			},
			{
				"x": 0.851013998,
				"y": 0.2726581501,
				"z": 0.5747748113,
				"element": "C" 
			},
			{
				"x": 1.649381318,
				"y": 0.0907804781,
				"z": 1.7385503598,
				"element": "C" 
			},
			{
				"x": 2.509049676,
				"y": -0.9764099144,
				"z": 1.8537366549,
				"element": "C" 
			},
			{
				"x": 2.6168053081,
				"y": -1.9244893899,
				"z": 0.8047380305,
				"element": "C" 
			},
			{
				"x": 1.862029304,
				"y": -1.7831124701,
				"z": -0.3353846036,
				"element": "C" 
			},
			{
				"x": 0.959489482,
				"y": -0.6926975974,
				"z": -0.4954886443,
				"element": "C" 
			},
			{
				"x": 0.1809952644,
				"y": -0.5489243518,
				"z": -1.6740996939,
				"element": "C" 
			},
			{
				"x": -4.0218508658,
				"y": 2.9302527777,
				"z": -2.3842039467,
				"element": "H" 
			},
			{
				"x": -3.3558912814,
				"y": 2.448903409,
				"z": -3.9672874278,
				"element": "H" 
			},
			{
				"x": -2.7332707293,
				"y": 3.8887529054,
				"z": -3.1184466554,
				"element": "H" 
			},
			{
				"x": -0.1286500801,
				"y": 2.1084857152,
				"z": 1.2525245898,
				"element": "H" 
			},
			{
				"x": 1.5662120741,
				"y": 0.8180441177,
				"z": 2.5422732427,
				"element": "H" 
			},
			{
				"x": 3.1094239181,
				"y": -1.096303077,
				"z": 2.7508872148,
				"element": "H" 
			},
			{
				"x": 3.2988248553,
				"y": -2.7636278735,
				"z": 0.9059736095,
				"element": "H" 
			},
			{
				"x": 1.9424511394,
				"y": -2.5082807328,
				"z": -1.1412037355,
				"element": "H" 
			},
			{
				"x": 0.2602718489,
				"y": -1.2722262329,
				"z": -2.4794329657,
				"element": "H" 
			}
		],
		 "valence_orbital": [ 
			{
				"type": "occ",
				"energy": -0.30904,
				"method": "rhf"
			},
			{
				"type": "occ",
				"energy": -0.28836,
				"method": "rhf"
			},
			{
				"type": "occ",
				"energy": -0.27681,
				"method": "rhf"
			},
			{
				"type": "occ",
				"energy": -0.23351,
				"method": "rhf"
			},
			{
				"type": "occ",
				"energy": -0.20766,
				"method": "rhf"
			},
			{
				"type": "unocc",
				"energy": -0.04667,
				"method": "rhf"
			},
			{
				"type": "unocc",
				"energy": -0.00512,
				"method": "rhf"
			},
			{
				"type": "unocc",
				"energy": 0.01967,
				"method": "rhf"
			},
			{
				"type": "unocc",
				"energy": 0.04036,
				"method": "rhf"
			},
			{
				"type": "unocc",
				"energy": 0.09643,
				"method": "rhf"
			}
		],
		"cosmo_sigma_profile": { 
			"-0.025": 0.0,
			"-0.024": 0.0,
			"-0.023": 0.0,
			"-0.022": 0.0,
			"-0.021": 0.0,
			"-0.02": 0.0,
			"-0.019": 0.0,
			"-0.018": 0.0,
			"-0.017": 0.0,
			"-0.016": 0.0,
			"-0.015": 0.0,
			"-0.014": 0.0,
			"-0.013": 0.0,
			"-0.012": 0.0,
			"-0.011": 0.0,
			"-0.01": 0.0,
			"-0.009": 0.0,
			"-0.008": 0.361992146035,
			"-0.007": 5.97353842451,
			"-0.006": 16.0430663324,
			"-0.005": 17.6367545755,
			"-0.004": 17.2267168327,
			"-0.003": 19.5303187518,
			"-0.002": 17.4068502553,
			"-0.001": 13.026602334,
			"0.0": 10.5542585519,
			"0.001": 13.1601753627,
			"0.002": 17.0236087463,
			"0.003": 21.4756396387,
			"0.004": 18.574218998,
			"0.005": 12.1630780592,
			"0.006": 5.52870194145,
			"0.007": 2.61525471659,
			"0.008": 2.0970467287,
			"0.009": 0.758009595097,
			"0.01": 0.8359001865,
			"0.011": 1.38889632971,
			"0.012": 1.03021678902,
			"0.013": 0.679502258488,
			"0.014": 1.22030487672,
			"0.015": 0.828902168192,
			"0.016": 0.398264409522,
			"0.017": 0.0,
			"0.018": 0.0,
			"0.019": 0.0,
			"0.02": 0.0,
			"0.021": 0.0,
			"0.022": 0.0,
			"0.023": 0.0,
			"0.024": 0.0,
			"0.025": 0.0
		}
	}
}
