{
	 "smiles": "CC(C)(O)C(=O)C1=CC=C(OCCO)C=C1", 
	 "Tm": 362.15, 
	 "num_atms": 32, 
	 "gaussian": { 
		 "optdone": 1, 
		 "sigma_profile": "yes", 
		 "theory": "DFT", 
		 "functional": "B3LYP", 
		 "basiset": "6-31G**", 
		 "properties": { 
			 "R2extent": 5507.728, 
			 "electric_dipole_moment_norm": 6.66810940672, 
			 "electric_quadrupole_moment_norm": 8.9415992451, 
			 "total_energy": -767.7964782, 
			 "HOMO_LUMO_gap": 0.1775, 
			 "cosmo_polarized_energy": -14.76, 
			 "cosmo_cavitation_energy": 34.1, 
			 "cosmo_dispersion_energy": -24.94, 
			 "cosmo_repulsion_energy": 1.97, 
			 "cosmo_total_nonelectrostatic_energy": 11.12, 
			 "SMD_solvation_energy": 6.84 
		},
		"coords": [
			{
				"x": 1.4202196924,
				"y": 3.3577390121,
				"z": -1.2469558732,
				"element": "C" 
			},
			{
				"x": 1.1390357811,
				"y": 3.2214694793,
				"z": 0.2626493362,
				"element": "C" 
			},
			{
				"x": 2.4305359297,
				"y": 3.1082406546,
				"z": 1.097044795,
				"element": "C" 
			},
			{
				"x": 0.4792610261,
				"y": 4.4053590042,
				"z": 0.672730452,
				"element": "O" 
			},
			{
				"x": 0.1739231353,
				"y": 2.0344891098,
				"z": 0.553572189,
				"element": "C" 
			},
			{
				"x": -0.9109443841,
				"y": 2.3292545772,
				"z": 1.0566896302,
				"element": "O" 
			},
			{
				"x": 0.4879794349,
				"y": 0.6102336842,
				"z": 0.2637800992,
				"element": "C" 
			},
			{
				"x": -0.5029007343,
				"y": -0.3386382074,
				"z": 0.5785618592,
				"element": "C" 
			},
			{
				"x": -0.3239145903,
				"y": -1.6969341851,
				"z": 0.3513825043,
				"element": "C" 
			},
			{
				"x": 0.8856546948,
				"y": -2.1459850834,
				"z": -0.2006564119,
				"element": "C" 
			},
			{
				"x": 1.1935620313,
				"y": -3.4454949739,
				"z": -0.463180452,
				"element": "O" 
			},
			{
				"x": 0.4658049876,
				"y": -4.5196423237,
				"z": 0.1379316608,
				"element": "C" 
			},
			{
				"x": -0.6026261006,
				"y": -5.1012764587,
				"z": -0.7727905652,
				"element": "C" 
			},
			{
				"x": -1.7260378847,
				"y": -4.235419038,
				"z": -0.7938189308,
				"element": "O" 
			},
			{
				"x": 1.884860636,
				"y": -1.2169031642,
				"z": -0.5309409921,
				"element": "C" 
			},
			{
				"x": 1.6866632042,
				"y": 0.1372382073,
				"z": -0.3055053286,
				"element": "C" 
			},
			{
				"x": 1.9892102693,
				"y": 2.5241728612,
				"z": -1.664708846,
				"element": "H" 
			},
			{
				"x": 0.4770057871,
				"y": 3.4440488103,
				"z": -1.7943145717,
				"element": "H" 
			},
			{
				"x": 1.9855070111,
				"y": 4.2805269006,
				"z": -1.4065327386,
				"element": "H" 
			},
			{
				"x": 2.1806881573,
				"y": 3.0249355869,
				"z": 2.1588034087,
				"element": "H" 
			},
			{
				"x": 3.0068225602,
				"y": 4.0278107313,
				"z": 0.9598669234,
				"element": "H" 
			},
			{
				"x": 3.0592050931,
				"y": 2.2588940055,
				"z": 0.8204420944,
				"element": "H" 
			},
			{
				"x": -0.3825906936,
				"y": 4.100074278,
				"z": 1.0155850699,
				"element": "H" 
			},
			{
				"x": -1.4345232261,
				"y": 0.022201549,
				"z": 1.0002940323,
				"element": "H" 
			},
			{
				"x": -1.1293753493,
				"y": -2.3921372034,
				"z": 0.5488556043,
				"element": "H" 
			},
			{
				"x": 0.0280075707,
				"y": -4.2119651451,
				"z": 1.0939308154,
				"element": "H" 
			},
			{
				"x": 1.2134827992,
				"y": -5.294890724,
				"z": 0.3358455195,
				"element": "H" 
			},
			{
				"x": -0.8710160247,
				"y": -6.0976713187,
				"z": -0.383408266,
				"element": "H" 
			},
			{
				"x": -0.1690851483,
				"y": -5.2368751951,
				"z": -1.7742682408,
				"element": "H" 
			},
			{
				"x": -2.308682742,
				"y": -4.497179043,
				"z": -1.516491448,
				"element": "H" 
			},
			{
				"x": 2.8121499046,
				"y": -1.5841491534,
				"z": -0.9577393322,
				"element": "H" 
			},
			{
				"x": 2.4831171721,
				"y": 0.8198727658,
				"z": -0.5707539967,
				"element": "H" 
			}
		],
		 "valence_orbital": [ 
			{
				"type": "occ",
				"energy": -0.29044,
				"method": "rhf"
			},
			{
				"type": "occ",
				"energy": -0.25901,
				"method": "rhf"
			},
			{
				"type": "occ",
				"energy": -0.25465,
				"method": "rhf"
			},
			{
				"type": "occ",
				"energy": -0.24872,
				"method": "rhf"
			},
			{
				"type": "occ",
				"energy": -0.22909,
				"method": "rhf"
			},
			{
				"type": "unocc",
				"energy": -0.05159,
				"method": "rhf"
			},
			{
				"type": "unocc",
				"energy": -0.00831,
				"method": "rhf"
			},
			{
				"type": "unocc",
				"energy": 0.04792,
				"method": "rhf"
			},
			{
				"type": "unocc",
				"energy": 0.05901,
				"method": "rhf"
			},
			{
				"type": "unocc",
				"energy": 0.08524,
				"method": "rhf"
			}
		],
		"cosmo_sigma_profile": { 
			"-0.025": 0.0,
			"-0.024": 0.0,
			"-0.023": 0.0,
			"-0.022": 0.0,
			"-0.021": 0.0,
			"-0.02": 0.0,
			"-0.019": 0.0,
			"-0.018": 0.0,
			"-0.017": 0.0078148684906,
			"-0.016": 0.921822168435,
			"-0.015": 1.23700367861,
			"-0.014": 0.979208846829,
			"-0.013": 0.539719963348,
			"-0.012": 1.09589687981,
			"-0.011": 0.735984648262,
			"-0.01": 1.12158812902,
			"-0.009": 1.04442606035,
			"-0.008": 2.44277614102,
			"-0.007": 5.03353127017,
			"-0.006": 11.2817991483,
			"-0.005": 17.582778729,
			"-0.004": 27.5058304912,
			"-0.003": 23.1624434503,
			"-0.002": 20.7215362242,
			"-0.001": 20.608099923,
			"0.0": 22.9927357824,
			"0.001": 15.3740436682,
			"0.002": 15.486429615,
			"0.003": 19.3664896472,
			"0.004": 13.574109785,
			"0.005": 6.53494689448,
			"0.006": 6.26426196449,
			"0.007": 5.6994486039,
			"0.008": 6.1973683691,
			"0.009": 5.53535234049,
			"0.01": 4.22656835895,
			"0.011": 4.21368274232,
			"0.012": 2.25675685751,
			"0.013": 1.68827275517,
			"0.014": 1.77512126042,
			"0.015": 1.05819707712,
			"0.016": 0.0,
			"0.017": 0.0,
			"0.018": 0.0,
			"0.019": 0.0,
			"0.02": 0.0,
			"0.021": 0.0,
			"0.022": 0.0,
			"0.023": 0.0,
			"0.024": 0.0,
			"0.025": 0.0
		}
	}
}
