{
	 "smiles": "OC(=O)C1=CC(=CC(=C1)[N+]([O-])=O)S(Cl)(=O)=O", 
	 "Tm": 436.15, 
	 "num_atms": 20, 
	 "gaussian": { 
		 "optdone": 1, 
		 "sigma_profile": "yes", 
		 "theory": "DFT", 
		 "functional": "B3LYP", 
		 "basiset": "6-31G**", 
		 "properties": { 
			 "R2extent": 5052.0564, 
			 "electric_dipole_moment_norm": 2.91946238201, 
			 "electric_quadrupole_moment_norm": 20.712428559, 
			 "total_energy": -1633.45374413, 
			 "HOMO_LUMO_gap": 0.17773, 
			 "cosmo_polarized_energy": -21.87, 
			 "cosmo_cavitation_energy": 30.43, 
			 "cosmo_dispersion_energy": -22.24, 
			 "cosmo_repulsion_energy": 1.7, 
			 "cosmo_total_nonelectrostatic_energy": 9.88, 
			 "SMD_solvation_energy": 7.45 
		},
		"coords": [
			{
				"x": -1.4970133854,
				"y": -3.0027860565,
				"z": -1.3713610324,
				"element": "O" 
			},
			{
				"x": -0.4532480091,
				"y": -2.515278607,
				"z": -0.6634536503,
				"element": "C" 
			},
			{
				"x": 0.3056772203,
				"y": -3.2567951268,
				"z": -0.0903865393,
				"element": "O" 
			},
			{
				"x": -0.2899285694,
				"y": -1.0164675996,
				"z": -0.615849985,
				"element": "C" 
			},
			{
				"x": 0.9622393594,
				"y": -0.5246989273,
				"z": -0.221178111,
				"element": "C" 
			},
			{
				"x": 1.1553959063,
				"y": 0.8509589751,
				"z": -0.1472908872,
				"element": "C" 
			},
			{
				"x": 0.1471631061,
				"y": 1.7681152363,
				"z": -0.4389824412,
				"element": "C" 
			},
			{
				"x": -1.0878134564,
				"y": 1.2480726288,
				"z": -0.8056200025,
				"element": "C" 
			},
			{
				"x": -1.3252410136,
				"y": -0.1212073693,
				"z": -0.8983381888,
				"element": "C" 
			},
			{
				"x": -2.1914497547,
				"y": 2.182506739,
				"z": -1.112466024,
				"element": "N" 
			},
			{
				"x": -1.9528571191,
				"y": 3.3819308212,
				"z": -1.0235937064,
				"element": "O" 
			},
			{
				"x": -3.2686371158,
				"y": 1.6880906977,
				"z": -1.4366264455,
				"element": "O" 
			},
			{
				"x": 2.7769444877,
				"y": 1.480360815,
				"z": 0.3109247879,
				"element": "S" 
			},
			{
				"x": 2.5775767606,
				"y": 1.5876819071,
				"z": 2.4161346452,
				"element": "Cl" 
			},
			{
				"x": 2.8945559196,
				"y": 2.8489799971,
				"z": -0.1714509644,
				"element": "O" 
			},
			{
				"x": 3.7707387822,
				"y": 0.4544899057,
				"z": 0.0318562959,
				"element": "O" 
			},
			{
				"x": -1.9183012281,
				"y": -2.3172559976,
				"z": -1.9079407955,
				"element": "H" 
			},
			{
				"x": 1.757876805,
				"y": -1.2227923702,
				"z": 0.0148095404,
				"element": "H" 
			},
			{
				"x": 0.3065393447,
				"y": 2.8382889446,
				"z": -0.3893984638,
				"element": "H" 
			},
			{
				"x": -2.3265180401,
				"y": -0.4419946133,
				"z": -1.1635880322,
				"element": "H" 
			}
		],
		 "valence_orbital": [ 
			{
				"type": "occ",
				"energy": -0.33519,
				"method": "rhf"
			},
			{
				"type": "occ",
				"energy": -0.33148,
				"method": "rhf"
			},
			{
				"type": "occ",
				"energy": -0.33108,
				"method": "rhf"
			},
			{
				"type": "occ",
				"energy": -0.32874,
				"method": "rhf"
			},
			{
				"type": "occ",
				"energy": -0.31015,
				"method": "rhf"
			},
			{
				"type": "unocc",
				"energy": -0.13242,
				"method": "rhf"
			},
			{
				"type": "unocc",
				"energy": -0.11695,
				"method": "rhf"
			},
			{
				"type": "unocc",
				"energy": -0.09392,
				"method": "rhf"
			},
			{
				"type": "unocc",
				"energy": -0.05927,
				"method": "rhf"
			},
			{
				"type": "unocc",
				"energy": 0.00408,
				"method": "rhf"
			}
		],
		"cosmo_sigma_profile": { 
			"-0.025": 0.0,
			"-0.024": 0.0,
			"-0.023": 0.0,
			"-0.022": 0.0,
			"-0.021": 0.451247040956,
			"-0.02": 1.07602796577,
			"-0.019": 1.45444323815,
			"-0.018": 0.983233304834,
			"-0.017": 0.939211537983,
			"-0.016": 1.1022050944,
			"-0.015": 0.75528847263,
			"-0.014": 1.11711935364,
			"-0.013": 1.59844165126,
			"-0.012": 1.12427384997,
			"-0.011": 0.991938020024,
			"-0.01": 1.35946869768,
			"-0.009": 3.77764540504,
			"-0.008": 7.510892317,
			"-0.007": 10.0220697687,
			"-0.006": 11.5855612728,
			"-0.005": 17.2663303108,
			"-0.004": 19.7961757917,
			"-0.003": 12.5719936856,
			"-0.002": 9.86558219109,
			"-0.001": 9.39047452396,
			"0.0": 10.040688278,
			"0.001": 11.8998770699,
			"0.002": 17.9709249832,
			"0.003": 13.6917392224,
			"0.004": 7.58839454953,
			"0.005": 8.87758479628,
			"0.006": 14.6553980423,
			"0.007": 17.987498623,
			"0.008": 14.1714262058,
			"0.009": 7.06716396008,
			"0.01": 5.01024871142,
			"0.011": 3.65698763481,
			"0.012": 0.979717867249,
			"0.013": 0.0,
			"0.014": 0.0,
			"0.015": 0.0,
			"0.016": 0.0,
			"0.017": 0.0,
			"0.018": 0.0,
			"0.019": 0.0,
			"0.02": 0.0,
			"0.021": 0.0,
			"0.022": 0.0,
			"0.023": 0.0,
			"0.024": 0.0,
			"0.025": 0.0
		}
	}
}
