{
	 "smiles": "CC(C)C1=C(NC(=O)C(C)Cl)C(C)=CC=C1", 
	 "Tm": 400.15, 
	 "num_atms": 34, 
	 "gaussian": { 
		 "optdone": 1, 
		 "sigma_profile": "yes", 
		 "theory": "DFT", 
		 "functional": "B3LYP", 
		 "basiset": "6-31G**", 
		 "properties": { 
			 "R2extent": 4701.3682, 
			 "electric_dipole_moment_norm": 1.3123770571, 
			 "electric_quadrupole_moment_norm": 10.5298409703, 
			 "total_energy": -1096.43993258, 
			 "HOMO_LUMO_gap": 0.22303, 
			 "cosmo_polarized_energy": -10.02, 
			 "cosmo_cavitation_energy": 36.66, 
			 "cosmo_dispersion_energy": -24.75, 
			 "cosmo_repulsion_energy": 1.93, 
			 "cosmo_total_nonelectrostatic_energy": 13.84, 
			 "SMD_solvation_energy": 6.61 
		},
		"coords": [
			{
				"x": 2.0890715805,
				"y": -0.437008023,
				"z": 1.4326522574,
				"element": "C" 
			},
			{
				"x": 0.7412693442,
				"y": -1.1825104325,
				"z": 1.3816353008,
				"element": "C" 
			},
			{
				"x": 0.8565829657,
				"y": -2.5135002734,
				"z": 0.6097558489,
				"element": "C" 
			},
			{
				"x": -0.4277415244,
				"y": -0.2994745514,
				"z": 0.9387920147,
				"element": "C" 
			},
			{
				"x": -0.5398591746,
				"y": 0.3165611894,
				"z": -0.3267535055,
				"element": "C" 
			},
			{
				"x": 0.4664763883,
				"y": 0.0824671064,
				"z": -1.3207931138,
				"element": "N" 
			},
			{
				"x": 1.267684402,
				"y": 1.0439570438,
				"z": -1.8516316254,
				"element": "C" 
			},
			{
				"x": 1.225718926,
				"y": 2.2344307185,
				"z": -1.5683516556,
				"element": "O" 
			},
			{
				"x": 2.3049382376,
				"y": 0.6223412574,
				"z": -2.9109271506,
				"element": "C" 
			},
			{
				"x": 2.0416886999,
				"y": 1.3177324435,
				"z": -4.2430638767,
				"element": "C" 
			},
			{
				"x": 2.4380352114,
				"y": -1.1945172652,
				"z": -3.1741227974,
				"element": "Cl" 
			},
			{
				"x": -1.6469616216,
				"y": 1.124785787,
				"z": -0.6598881068,
				"element": "C" 
			},
			{
				"x": -1.7917252147,
				"y": 1.7537591725,
				"z": -2.022896427,
				"element": "C" 
			},
			{
				"x": -2.6363965903,
				"y": 1.3303767667,
				"z": 0.3079402193,
				"element": "C" 
			},
			{
				"x": -2.5464576796,
				"y": 0.7371598585,
				"z": 1.5627646346,
				"element": "C" 
			},
			{
				"x": -1.4553475199,
				"y": -0.0729323104,
				"z": 1.8645573182,
				"element": "C" 
			},
			{
				"x": 2.8511341966,
				"y": -1.0716193744,
				"z": 1.8984259326,
				"element": "H" 
			},
			{
				"x": 2.00702214,
				"y": 0.4826840185,
				"z": 2.0192208157,
				"element": "H" 
			},
			{
				"x": 2.4465757643,
				"y": -0.1679949181,
				"z": 0.4359714914,
				"element": "H" 
			},
			{
				"x": 0.5055581906,
				"y": -1.4598461706,
				"z": 2.4166258945,
				"element": "H" 
			},
			{
				"x": -0.1115097307,
				"y": -3.0192549822,
				"z": 0.5399399595,
				"element": "H" 
			},
			{
				"x": 1.54998263,
				"y": -3.1850175427,
				"z": 1.1277104253,
				"element": "H" 
			},
			{
				"x": 1.2509409675,
				"y": -2.3844763186,
				"z": -0.4032876706,
				"element": "H" 
			},
			{
				"x": 0.6601789657,
				"y": -0.8722977107,
				"z": -1.5892517552,
				"element": "H" 
			},
			{
				"x": 3.2809224536,
				"y": 0.9100196957,
				"z": -2.5164166784,
				"element": "H" 
			},
			{
				"x": 1.9831289889,
				"y": 2.393385337,
				"z": -4.0594166078,
				"element": "H" 
			},
			{
				"x": 1.0972388349,
				"y": 0.9812605024,
				"z": -4.6794093892,
				"element": "H" 
			},
			{
				"x": 2.8479035312,
				"y": 1.1145854912,
				"z": -4.9509950116,
				"element": "H" 
			},
			{
				"x": -1.0960936558,
				"y": 2.5905319203,
				"z": -2.1397147217,
				"element": "H" 
			},
			{
				"x": -1.5699574541,
				"y": 1.0356848351,
				"z": -2.8196940106,
				"element": "H" 
			},
			{
				"x": -2.8101987621,
				"y": 2.1218771962,
				"z": -2.1704316485,
				"element": "H" 
			},
			{
				"x": -3.4907971191,
				"y": 1.9545030831,
				"z": 0.0606206267,
				"element": "H" 
			},
			{
				"x": -3.3253556261,
				"y": 0.9000657055,
				"z": 2.3021523983,
				"element": "H" 
			},
			{
				"x": -1.3869507456,
				"y": -0.5369192555,
				"z": 2.8449806147,
				"element": "H" 
			}
		],
		 "valence_orbital": [ 
			{
				"type": "occ",
				"energy": -0.30914,
				"method": "rhf"
			},
			{
				"type": "occ",
				"energy": -0.27935,
				"method": "rhf"
			},
			{
				"type": "occ",
				"energy": -0.25876,
				"method": "rhf"
			},
			{
				"type": "occ",
				"energy": -0.23863,
				"method": "rhf"
			},
			{
				"type": "occ",
				"energy": -0.23553,
				"method": "rhf"
			},
			{
				"type": "unocc",
				"energy": -0.0125,
				"method": "rhf"
			},
			{
				"type": "unocc",
				"energy": 0.00194,
				"method": "rhf"
			},
			{
				"type": "unocc",
				"energy": 0.01064,
				"method": "rhf"
			},
			{
				"type": "unocc",
				"energy": 0.02044,
				"method": "rhf"
			},
			{
				"type": "unocc",
				"energy": 0.07631,
				"method": "rhf"
			}
		],
		"cosmo_sigma_profile": { 
			"-0.025": 0.0,
			"-0.024": 0.0,
			"-0.023": 0.0,
			"-0.022": 0.0,
			"-0.021": 0.0,
			"-0.02": 0.0,
			"-0.019": 0.0,
			"-0.018": 0.0,
			"-0.017": 0.0,
			"-0.016": 0.0,
			"-0.015": 0.0,
			"-0.014": 0.0,
			"-0.013": 0.0,
			"-0.012": 0.0,
			"-0.011": 0.13469973648,
			"-0.01": 0.570457975461,
			"-0.009": 1.1011267484,
			"-0.008": 3.20065463341,
			"-0.007": 2.83961453202,
			"-0.006": 5.13137124089,
			"-0.005": 16.8662807451,
			"-0.004": 21.4929028822,
			"-0.003": 30.1549557335,
			"-0.002": 32.4445288192,
			"-0.001": 33.5405469621,
			"0.0": 32.981187561,
			"0.001": 29.4194058721,
			"0.002": 14.8040285684,
			"0.003": 11.539988537,
			"0.004": 12.5632940129,
			"0.005": 14.8782372012,
			"0.006": 10.5000880827,
			"0.007": 1.4936956284,
			"0.008": 1.93067820234,
			"0.009": 2.08626561681,
			"0.01": 1.58683614273,
			"0.011": 1.40523302277,
			"0.012": 2.7498749625,
			"0.013": 4.1779504248,
			"0.014": 0.519694309663,
			"0.015": 0.0,
			"0.016": 0.0,
			"0.017": 0.0,
			"0.018": 0.0,
			"0.019": 0.0,
			"0.02": 0.0,
			"0.021": 0.0,
			"0.022": 0.0,
			"0.023": 0.0,
			"0.024": 0.0,
			"0.025": 0.0
		}
	}
}
