{
	 "smiles": "FC1=CC=C(C=C1)C(=O)C1=CC=CS1", 
	 "Tm": 370.15, 
	 "num_atms": 21, 
	 "gaussian": { 
		 "optdone": 1, 
		 "sigma_profile": "yes", 
		 "theory": "DFT", 
		 "functional": "B3LYP", 
		 "basiset": "6-31G**", 
		 "properties": { 
			 "R2extent": 3778.2981, 
			 "electric_dipole_moment_norm": 2.67199670097, 
			 "electric_quadrupole_moment_norm": 9.23700218253, 
			 "total_energy": -996.618819425, 
			 "HOMO_LUMO_gap": 0.17396, 
			 "cosmo_polarized_energy": -8.59, 
			 "cosmo_cavitation_energy": 27.85, 
			 "cosmo_dispersion_energy": -20.74, 
			 "cosmo_repulsion_energy": 1.54, 
			 "cosmo_total_nonelectrostatic_energy": 8.65, 
			 "SMD_solvation_energy": 5.83 
		},
		"coords": [
			{
				"x": 0.7182786472,
				"y": 0.2492509074,
				"z": -4.8984503995,
				"element": "F" 
			},
			{
				"x": 0.3528302217,
				"y": 0.4827904178,
				"z": -3.6240347366,
				"element": "C" 
			},
			{
				"x": -0.4646781428,
				"y": -0.437825161,
				"z": -2.9789228626,
				"element": "C" 
			},
			{
				"x": -0.8310742373,
				"y": -0.1952862353,
				"z": -1.6556783569,
				"element": "C" 
			},
			{
				"x": -0.389150329,
				"y": 0.9584117436,
				"z": -0.9890613999,
				"element": "C" 
			},
			{
				"x": 0.4126183206,
				"y": 1.8805954633,
				"z": -1.6840329225,
				"element": "C" 
			},
			{
				"x": 0.7992715248,
				"y": 1.6443306684,
				"z": -2.9976156903,
				"element": "C" 
			},
			{
				"x": -0.7853927524,
				"y": 1.3155098685,
				"z": 0.410614509,
				"element": "C" 
			},
			{
				"x": -0.8567065403,
				"y": 2.4961730095,
				"z": 0.7422388438,
				"element": "O" 
			},
			{
				"x": -1.0763837585,
				"y": 0.2723746765,
				"z": 1.4243338597,
				"element": "C" 
			},
			{
				"x": -1.6795738074,
				"y": 0.5364028663,
				"z": 2.636529207,
				"element": "C" 
			},
			{
				"x": -1.7765663039,
				"y": -0.5978890764,
				"z": 3.4819518891,
				"element": "C" 
			},
			{
				"x": -1.226941052,
				"y": -1.7220152348,
				"z": 2.9175704327,
				"element": "C" 
			},
			{
				"x": -0.5961607456,
				"y": -1.412079945,
				"z": 1.3409339984,
				"element": "S" 
			},
			{
				"x": -0.8078315475,
				"y": -1.3171140113,
				"z": -3.5127809749,
				"element": "H" 
			},
			{
				"x": -1.4917256386,
				"y": -0.8959911878,
				"z": -1.1579603921,
				"element": "H" 
			},
			{
				"x": 0.7228738542,
				"y": 2.7836938824,
				"z": -1.1698043253,
				"element": "H" 
			},
			{
				"x": 1.4298407255,
				"y": 2.3382636269,
				"z": -3.5427025373,
				"element": "H" 
			},
			{
				"x": -2.0265427223,
				"y": 1.5316701872,
				"z": 2.8855188903,
				"element": "H" 
			},
			{
				"x": -2.2269292402,
				"y": -0.5846564864,
				"z": 4.4677122402,
				"element": "H" 
			},
			{
				"x": -1.1570564762,
				"y": -2.7156099798,
				"z": 3.3396407275,
				"element": "H" 
			}
		],
		 "valence_orbital": [ 
			{
				"type": "occ",
				"energy": -0.27129,
				"method": "rhf"
			},
			{
				"type": "occ",
				"energy": -0.26509,
				"method": "rhf"
			},
			{
				"type": "occ",
				"energy": -0.26179,
				"method": "rhf"
			},
			{
				"type": "occ",
				"energy": -0.2508,
				"method": "rhf"
			},
			{
				"type": "occ",
				"energy": -0.24505,
				"method": "rhf"
			},
			{
				"type": "unocc",
				"energy": -0.07109,
				"method": "rhf"
			},
			{
				"type": "unocc",
				"energy": -0.02322,
				"method": "rhf"
			},
			{
				"type": "unocc",
				"energy": -0.01892,
				"method": "rhf"
			},
			{
				"type": "unocc",
				"energy": 0.02558,
				"method": "rhf"
			},
			{
				"type": "unocc",
				"energy": 0.03549,
				"method": "rhf"
			}
		],
		"cosmo_sigma_profile": { 
			"-0.025": 0.0,
			"-0.024": 0.0,
			"-0.023": 0.0,
			"-0.022": 0.0,
			"-0.021": 0.0,
			"-0.02": 0.0,
			"-0.019": 0.0,
			"-0.018": 0.0,
			"-0.017": 0.0,
			"-0.016": 0.0,
			"-0.015": 0.0,
			"-0.014": 0.0,
			"-0.013": 0.0,
			"-0.012": 0.0,
			"-0.011": 0.0,
			"-0.01": 0.336200093699,
			"-0.009": 1.84089920467,
			"-0.008": 4.53864052528,
			"-0.007": 9.54799167139,
			"-0.006": 12.6046196317,
			"-0.005": 13.0952179659,
			"-0.004": 12.342376851,
			"-0.003": 11.736572967,
			"-0.002": 12.8365399454,
			"-0.001": 16.1293071351,
			"0.0": 21.2619058824,
			"0.001": 23.3165077579,
			"0.002": 29.4911482449,
			"0.003": 23.2560492099,
			"0.004": 15.3601381356,
			"0.005": 2.60134363832,
			"0.006": 1.66783278567,
			"0.007": 1.98916067229,
			"0.008": 1.69652639329,
			"0.009": 2.02222183617,
			"0.01": 1.70005944855,
			"0.011": 2.78269660877,
			"0.012": 4.274186684,
			"0.013": 0.636970236176,
			"0.014": 0.0,
			"0.015": 0.0,
			"0.016": 0.0,
			"0.017": 0.0,
			"0.018": 0.0,
			"0.019": 0.0,
			"0.02": 0.0,
			"0.021": 0.0,
			"0.022": 0.0,
			"0.023": 0.0,
			"0.024": 0.0,
			"0.025": 0.0
		}
	}
}
