{
	 "smiles": "CC1CC2C3CCC4=CC(=O)C=CC4(C)C3C(=O)CC2(C)C1(O)C(=O)CO", 
	 "Tm": 475.15, 
	 "num_atms": 55, 
	 "gaussian": { 
		 "optdone": 1, 
		 "sigma_profile": "yes", 
		 "theory": "DFT", 
		 "functional": "B3LYP", 
		 "basiset": "6-31G**", 
		 "properties": { 
			 "R2extent": 11250.3516, 
			 "electric_dipole_moment_norm": 8.57151677009, 
			 "electric_quadrupole_moment_norm": 39.7882366748, 
			 "total_energy": -1231.29740097, 
			 "HOMO_LUMO_gap": 0.17715, 
			 "cosmo_polarized_energy": -27.79, 
			 "cosmo_cavitation_energy": 49.74, 
			 "cosmo_dispersion_energy": -33.95, 
			 "cosmo_repulsion_energy": 2.49, 
			 "cosmo_total_nonelectrostatic_energy": 18.29, 
			 "SMD_solvation_energy": 9.24 
		},
		"coords": [
			{
				"x": 0.991901825,
				"y": -2.5634450487,
				"z": -3.3438056358,
				"element": "C" 
			},
			{
				"x": 1.1490715049,
				"y": -2.0100065972,
				"z": -1.9249403059,
				"element": "C" 
			},
			{
				"x": -0.165853765,
				"y": -1.8738338118,
				"z": -1.1414749835,
				"element": "C" 
			},
			{
				"x": 0.1379413866,
				"y": -0.9094926928,
				"z": 0.031252275,
				"element": "C" 
			},
			{
				"x": -1.0266914886,
				"y": 0.0302290702,
				"z": 0.4465855548,
				"element": "C" 
			},
			{
				"x": -1.7348069482,
				"y": 0.8033507669,
				"z": -0.6850388944,
				"element": "C" 
			},
			{
				"x": -2.8589148536,
				"y": 1.7010513391,
				"z": -0.1338345507,
				"element": "C" 
			},
			{
				"x": -2.3785274683,
				"y": 2.6062497151,
				"z": 0.9723637357,
				"element": "C" 
			},
			{
				"x": -2.5844112611,
				"y": 3.9353046029,
				"z": 0.9466332334,
				"element": "C" 
			},
			{
				"x": -2.1493875101,
				"y": 4.8472671698,
				"z": 2.0252857481,
				"element": "C" 
			},
			{
				"x": -2.4018169235,
				"y": 6.0501185491,
				"z": 1.9931578184,
				"element": "O" 
			},
			{
				"x": -1.3990932008,
				"y": 4.2238800733,
				"z": 3.1295898645,
				"element": "C" 
			},
			{
				"x": -1.1317484259,
				"y": 2.9099533582,
				"z": 3.1455191356,
				"element": "C" 
			},
			{
				"x": -1.6676780502,
				"y": 1.9257909745,
				"z": 2.1331318391,
				"element": "C" 
			},
			{
				"x": -2.7005164532,
				"y": 1.0585624555,
				"z": 2.9235352673,
				"element": "C" 
			},
			{
				"x": -0.5361641945,
				"y": 0.9747231471,
				"z": 1.5765474523,
				"element": "C" 
			},
			{
				"x": 0.7615134296,
				"y": 1.7182358366,
				"z": 1.1995596473,
				"element": "C" 
			},
			{
				"x": 1.2508904777,
				"y": 2.5462969414,
				"z": 1.9439001172,
				"element": "O" 
			},
			{
				"x": 1.4493467624,
				"y": 1.3350074264,
				"z": -0.1010294858,
				"element": "C" 
			},
			{
				"x": 1.5088874527,
				"y": -0.1944087738,
				"z": -0.3149524178,
				"element": "C" 
			},
			{
				"x": 2.6154714919,
				"y": -0.7612028319,
				"z": 0.6018543949,
				"element": "C" 
			},
			{
				"x": 1.7494940244,
				"y": -0.5849726386,
				"z": -1.8281356908,
				"element": "C" 
			},
			{
				"x": 1.0035957927,
				"y": 0.3502997358,
				"z": -2.6148005653,
				"element": "O" 
			},
			{
				"x": 3.2210758065,
				"y": -0.5427375787,
				"z": -2.2464387238,
				"element": "C" 
			},
			{
				"x": 3.9845723176,
				"y": -1.4701428046,
				"z": -2.0200753472,
				"element": "O" 
			},
			{
				"x": 3.7572323588,
				"y": 0.6857982244,
				"z": -2.9708556729,
				"element": "C" 
			},
			{
				"x": 5.1301872661,
				"y": 0.5715122354,
				"z": -3.2072175852,
				"element": "O" 
			},
			{
				"x": 1.9544237696,
				"y": -2.6335736306,
				"z": -3.8604913646,
				"element": "H" 
			},
			{
				"x": 0.5637313533,
				"y": -3.5700238011,
				"z": -3.3120985171,
				"element": "H" 
			},
			{
				"x": 0.3087902061,
				"y": -1.9577123186,
				"z": -3.954015569,
				"element": "H" 
			},
			{
				"x": 1.8390398789,
				"y": -2.6681654816,
				"z": -1.3872802448,
				"element": "H" 
			},
			{
				"x": -0.5390001868,
				"y": -2.8426485007,
				"z": -0.7943210237,
				"element": "H" 
			},
			{
				"x": -0.92883734,
				"y": -1.4566663323,
				"z": -1.8047239657,
				"element": "H" 
			},
			{
				"x": 0.3335644435,
				"y": -1.5205314889,
				"z": 0.9211551015,
				"element": "H" 
			},
			{
				"x": -1.7884132117,
				"y": -0.6284351875,
				"z": 0.8852436326,
				"element": "H" 
			},
			{
				"x": -2.1727036374,
				"y": 0.0986240803,
				"z": -1.398887426,
				"element": "H" 
			},
			{
				"x": -1.0293653728,
				"y": 1.410845386,
				"z": -1.2567430447,
				"element": "H" 
			},
			{
				"x": -3.6677219667,
				"y": 1.0599686961,
				"z": 0.2460565268,
				"element": "H" 
			},
			{
				"x": -3.2934307439,
				"y": 2.3006784754,
				"z": -0.9397807887,
				"element": "H" 
			},
			{
				"x": -3.1066430979,
				"y": 4.4061891795,
				"z": 0.1169649336,
				"element": "H" 
			},
			{
				"x": -1.048395345,
				"y": 4.8889436929,
				"z": 3.9128996638,
				"element": "H" 
			},
			{
				"x": -0.5615511025,
				"y": 2.4800896241,
				"z": 3.9652522849,
				"element": "H" 
			},
			{
				"x": -3.5056092779,
				"y": 1.6942331586,
				"z": 3.3006630984,
				"element": "H" 
			},
			{
				"x": -3.1457384874,
				"y": 0.2743626154,
				"z": 2.3069968005,
				"element": "H" 
			},
			{
				"x": -2.2139498031,
				"y": 0.5797135412,
				"z": 3.7795994494,
				"element": "H" 
			},
			{
				"x": -0.2286828562,
				"y": 0.3423125384,
				"z": 2.4242334138,
				"element": "H" 
			},
			{
				"x": 0.9079576319,
				"y": 1.8110306636,
				"z": -0.9228287791,
				"element": "H" 
			},
			{
				"x": 2.4497643871,
				"y": 1.776087515,
				"z": -0.0725285323,
				"element": "H" 
			},
			{
				"x": 3.5898337462,
				"y": -0.3084218331,
				"z": 0.3995919566,
				"element": "H" 
			},
			{
				"x": 2.3666690852,
				"y": -0.5475148538,
				"z": 1.646574012,
				"element": "H" 
			},
			{
				"x": 2.7264037252,
				"y": -1.84378971,
				"z": 0.5015778792,
				"element": "H" 
			},
			{
				"x": 0.8649540374,
				"y": -0.0286126747,
				"z": -3.4928280244,
				"element": "H" 
			},
			{
				"x": 3.1948236411,
				"y": 0.8065044964,
				"z": -3.9110465897,
				"element": "H" 
			},
			{
				"x": 3.5215070243,
				"y": 1.5797054668,
				"z": -2.3719622627,
				"element": "H" 
			},
			{
				"x": 5.3779081457,
				"y": -0.3072821604,
				"z": -2.8685888454,
				"element": "H" 
			}
		],
		 "valence_orbital": [ 
			{
				"type": "occ",
				"energy": -0.27128,
				"method": "rhf"
			},
			{
				"type": "occ",
				"energy": -0.26644,
				"method": "rhf"
			},
			{
				"type": "occ",
				"energy": -0.25691,
				"method": "rhf"
			},
			{
				"type": "occ",
				"energy": -0.2373,
				"method": "rhf"
			},
			{
				"type": "occ",
				"energy": -0.22721,
				"method": "rhf"
			},
			{
				"type": "unocc",
				"energy": -0.05006,
				"method": "rhf"
			},
			{
				"type": "unocc",
				"energy": -0.04609,
				"method": "rhf"
			},
			{
				"type": "unocc",
				"energy": -0.02864,
				"method": "rhf"
			},
			{
				"type": "unocc",
				"energy": 0.00655,
				"method": "rhf"
			},
			{
				"type": "unocc",
				"energy": 0.03601,
				"method": "rhf"
			}
		],
		"cosmo_sigma_profile": { 
			"-0.025": 0.0,
			"-0.024": 0.0,
			"-0.023": 0.0,
			"-0.022": 0.0,
			"-0.021": 0.0,
			"-0.02": 0.0,
			"-0.019": 0.0,
			"-0.018": 0.0,
			"-0.017": 0.0,
			"-0.016": 0.00652397543611,
			"-0.015": 0.570214377024,
			"-0.014": 0.475886022412,
			"-0.013": 1.75779637541,
			"-0.012": 1.32330299461,
			"-0.011": 1.37334266464,
			"-0.01": 1.92191107131,
			"-0.009": 2.20465910012,
			"-0.008": 2.75035705702,
			"-0.007": 7.04334136173,
			"-0.006": 18.5695618359,
			"-0.005": 24.5695309036,
			"-0.004": 36.0096512116,
			"-0.003": 44.3173930199,
			"-0.002": 44.2764450706,
			"-0.001": 36.3450369311,
			"0.0": 31.9865035985,
			"0.001": 22.1167531167,
			"0.002": 14.5549890679,
			"0.003": 12.4271196979,
			"0.004": 9.70455923732,
			"0.005": 8.62041878552,
			"0.006": 6.76555692003,
			"0.007": 6.25083883334,
			"0.008": 5.81166154984,
			"0.009": 7.53608505035,
			"0.01": 6.7630940213,
			"0.011": 7.45430957381,
			"0.012": 6.97922944315,
			"0.013": 7.02088301188,
			"0.014": 6.59936289326,
			"0.015": 2.10411963028,
			"0.016": 0.017322123593,
			"0.017": 0.0,
			"0.018": 0.0,
			"0.019": 0.0,
			"0.02": 0.0,
			"0.021": 0.0,
			"0.022": 0.0,
			"0.023": 0.0,
			"0.024": 0.0,
			"0.025": 0.0
		}
	}
}
