{
	 "smiles": "COC(=O)C1=COC=C1C(=O)OC", 
	 "Tm": 317.65, 
	 "num_atms": 21, 
	 "gaussian": { 
		 "optdone": 1, 
		 "sigma_profile": "yes", 
		 "theory": "DFT", 
		 "functional": "B3LYP", 
		 "basiset": "6-31G**", 
		 "properties": { 
			 "R2extent": 3022.5186, 
			 "electric_dipole_moment_norm": 1.55601902623, 
			 "electric_quadrupole_moment_norm": 14.6398203835, 
			 "total_energy": -685.77122163, 
			 "HOMO_LUMO_gap": 0.21482, 
			 "cosmo_polarized_energy": -11.53, 
			 "cosmo_cavitation_energy": 26.87, 
			 "cosmo_dispersion_energy": -18.82, 
			 "cosmo_repulsion_energy": 1.5, 
			 "cosmo_total_nonelectrostatic_energy": 9.55, 
			 "SMD_solvation_energy": 9.3 
		},
		"coords": [
			{
				"x": 1.7066109573,
				"y": 2.4245186894,
				"z": -2.5317454885,
				"element": "C" 
			},
			{
				"x": 1.3743589176,
				"y": 1.873844281,
				"z": -1.247499381,
				"element": "O" 
			},
			{
				"x": 0.8041688067,
				"y": 2.7369522634,
				"z": -0.3873038811,
				"element": "C" 
			},
			{
				"x": 0.6042833104,
				"y": 3.9102325638,
				"z": -0.6394383393,
				"element": "O" 
			},
			{
				"x": 0.5040634545,
				"y": 2.1282392988,
				"z": 0.928085025,
				"element": "C" 
			},
			{
				"x": 0.4243354146,
				"y": 2.9057057628,
				"z": 2.0480962601,
				"element": "C" 
			},
			{
				"x": 0.2352817331,
				"y": 2.1446783434,
				"z": 3.1552676307,
				"element": "O" 
			},
			{
				"x": 0.1902391022,
				"y": 0.852140198,
				"z": 2.7453375507,
				"element": "C" 
			},
			{
				"x": 0.3453911033,
				"y": 0.7628483283,
				"z": 1.391387466,
				"element": "C" 
			},
			{
				"x": 0.2350390704,
				"y": -0.5458705341,
				"z": 0.708801943,
				"element": "C" 
			},
			{
				"x": 0.4041533185,
				"y": -1.6090085848,
				"z": 1.2755894068,
				"element": "O" 
			},
			{
				"x": -0.1326835371,
				"y": -0.4361364616,
				"z": -0.580670627,
				"element": "O" 
			},
			{
				"x": -0.2780361786,
				"y": -1.6820925924,
				"z": -1.2802356906,
				"element": "C" 
			},
			{
				"x": 2.4281710161,
				"y": 3.2387050267,
				"z": -2.4270148271,
				"element": "H" 
			},
			{
				"x": 0.8126668974,
				"y": 2.808949516,
				"z": -3.0290812843,
				"element": "H" 
			},
			{
				"x": 2.1381790288,
				"y": 1.6008582021,
				"z": -3.1000747117,
				"element": "H" 
			},
			{
				"x": 0.5066317069,
				"y": 3.9710672569,
				"z": 2.192910972,
				"element": "H" 
			},
			{
				"x": 0.0223639686,
				"y": 0.1026955685,
				"z": 3.5022338197,
				"element": "H" 
			},
			{
				"x": -1.0536182866,
				"y": -2.296520508,
				"z": -0.8160499403,
				"element": "H" 
			},
			{
				"x": -0.5595997015,
				"y": -1.4144075155,
				"z": -2.2984339763,
				"element": "H" 
			},
			{
				"x": 0.6620998973,
				"y": -2.2391991026,
				"z": -1.2743619271,
				"element": "H" 
			}
		],
		 "valence_orbital": [ 
			{
				"type": "occ",
				"energy": -0.3005,
				"method": "rhf"
			},
			{
				"type": "occ",
				"energy": -0.29879,
				"method": "rhf"
			},
			{
				"type": "occ",
				"energy": -0.27956,
				"method": "rhf"
			},
			{
				"type": "occ",
				"energy": -0.2759,
				"method": "rhf"
			},
			{
				"type": "occ",
				"energy": -0.25092,
				"method": "rhf"
			},
			{
				"type": "unocc",
				"energy": -0.0361,
				"method": "rhf"
			},
			{
				"type": "unocc",
				"energy": -0.02834,
				"method": "rhf"
			},
			{
				"type": "unocc",
				"energy": 0.04765,
				"method": "rhf"
			},
			{
				"type": "unocc",
				"energy": 0.10247,
				"method": "rhf"
			},
			{
				"type": "unocc",
				"energy": 0.10909,
				"method": "rhf"
			}
		],
		"cosmo_sigma_profile": { 
			"-0.025": 0.0,
			"-0.024": 0.0,
			"-0.023": 0.0,
			"-0.022": 0.0,
			"-0.021": 0.0,
			"-0.02": 0.0,
			"-0.019": 0.0,
			"-0.018": 0.0,
			"-0.017": 0.0,
			"-0.016": 0.0,
			"-0.015": 0.0,
			"-0.014": 0.0,
			"-0.013": 0.0,
			"-0.012": 0.0,
			"-0.011": 1.52793357429,
			"-0.01": 2.87252585524,
			"-0.009": 2.89147549079,
			"-0.008": 1.85168694161,
			"-0.007": 4.24529113716,
			"-0.006": 12.6912266541,
			"-0.005": 15.6746988595,
			"-0.004": 18.8994800261,
			"-0.003": 21.2891586075,
			"-0.002": 17.5517678381,
			"-0.001": 17.923135151,
			"0.0": 16.601620029,
			"0.001": 12.156552248,
			"0.002": 8.73204805812,
			"0.003": 7.08912066139,
			"0.004": 7.91607338691,
			"0.005": 7.066371174,
			"0.006": 6.18839662015,
			"0.007": 6.08776194688,
			"0.008": 3.66098989806,
			"0.009": 2.8871375101,
			"0.01": 4.21782230783,
			"0.011": 6.31764554143,
			"0.012": 8.19383230138,
			"0.013": 0.311564639245,
			"0.014": 0.0,
			"0.015": 0.0,
			"0.016": 0.0,
			"0.017": 0.0,
			"0.018": 0.0,
			"0.019": 0.0,
			"0.02": 0.0,
			"0.021": 0.0,
			"0.022": 0.0,
			"0.023": 0.0,
			"0.024": 0.0,
			"0.025": 0.0
		}
	}
}
