{
	 "smiles": "CC1=C(CCCO1)C(O)=O", 
	 "Tm": 392.15, 
	 "num_atms": 20, 
	 "gaussian": { 
		 "optdone": 1, 
		 "sigma_profile": "yes", 
		 "theory": "DFT", 
		 "functional": "B3LYP", 
		 "basiset": "6-31G**", 
		 "properties": { 
			 "R2extent": 1783.3952, 
			 "electric_dipole_moment_norm": 4.62070963598, 
			 "electric_quadrupole_moment_norm": 18.8874494925, 
			 "total_energy": -498.438195931, 
			 "HOMO_LUMO_gap": 0.21086, 
			 "cosmo_polarized_energy": -13.76, 
			 "cosmo_cavitation_energy": 22.49, 
			 "cosmo_dispersion_energy": -17.0, 
			 "cosmo_repulsion_energy": 1.4, 
			 "cosmo_total_nonelectrostatic_energy": 6.88, 
			 "SMD_solvation_energy": 4.96 
		},
		"coords": [
			{
				"x": 0.806996107,
				"y": -2.4118144036,
				"z": 0.2071520541,
				"element": "C" 
			},
			{
				"x": 0.2927166796,
				"y": -0.9973477923,
				"z": 0.2799166093,
				"element": "C" 
			},
			{
				"x": 0.4117852136,
				"y": -0.1108952067,
				"z": 1.3023371619,
				"element": "C" 
			},
			{
				"x": -0.1228401364,
				"y": 1.3043242592,
				"z": 1.1759998427,
				"element": "C" 
			},
			{
				"x": -1.1747741857,
				"y": 1.3856769646,
				"z": 0.0675343956,
				"element": "C" 
			},
			{
				"x": -0.6539731492,
				"y": 0.6733910457,
				"z": -1.1701807915,
				"element": "C" 
			},
			{
				"x": -0.3216159135,
				"y": -0.7000474861,
				"z": -0.8984827061,
				"element": "O" 
			},
			{
				"x": 1.1479470433,
				"y": -0.36597464,
				"z": 2.5678335241,
				"element": "C" 
			},
			{
				"x": 1.1310247039,
				"y": -1.6302362121,
				"z": 3.0939714948,
				"element": "O" 
			},
			{
				"x": 1.7310502464,
				"y": 0.5106004571,
				"z": 3.1664630431,
				"element": "O" 
			},
			{
				"x": 1.2655427021,
				"y": -2.564101152,
				"z": -0.7738281174,
				"element": "H" 
			},
			{
				"x": 1.5469873193,
				"y": -2.6312067522,
				"z": 0.9755586551,
				"element": "H" 
			},
			{
				"x": -0.018477335,
				"y": -3.1310091991,
				"z": 0.2825454125,
				"element": "H" 
			},
			{
				"x": -0.5462186555,
				"y": 1.6202981244,
				"z": 2.1348087785,
				"element": "H" 
			},
			{
				"x": 0.7049241212,
				"y": 1.9967958432,
				"z": 0.9777234338,
				"element": "H" 
			},
			{
				"x": -2.1069258202,
				"y": 0.9077258094,
				"z": 0.3913522808,
				"element": "H" 
			},
			{
				"x": -1.4104251937,
				"y": 2.4262187566,
				"z": -0.180363861,
				"element": "H" 
			},
			{
				"x": -1.3929648365,
				"y": 0.6325707709,
				"z": -1.973970021,
				"element": "H" 
			},
			{
				"x": 0.247232523,
				"y": 1.1718800687,
				"z": -1.552084805,
				"element": "H" 
			},
			{
				"x": 0.4528085662,
				"y": -2.1526492559,
				"z": 2.6455136157,
				"element": "H" 
			}
		],
		 "valence_orbital": [ 
			{
				"type": "occ",
				"energy": -0.33443,
				"method": "rhf"
			},
			{
				"type": "occ",
				"energy": -0.32214,
				"method": "rhf"
			},
			{
				"type": "occ",
				"energy": -0.30492,
				"method": "rhf"
			},
			{
				"type": "occ",
				"energy": -0.26367,
				"method": "rhf"
			},
			{
				"type": "occ",
				"energy": -0.23229,
				"method": "rhf"
			},
			{
				"type": "unocc",
				"energy": -0.02143,
				"method": "rhf"
			},
			{
				"type": "unocc",
				"energy": 0.06012,
				"method": "rhf"
			},
			{
				"type": "unocc",
				"energy": 0.07405,
				"method": "rhf"
			},
			{
				"type": "unocc",
				"energy": 0.08688,
				"method": "rhf"
			},
			{
				"type": "unocc",
				"energy": 0.11087,
				"method": "rhf"
			}
		],
		"cosmo_sigma_profile": { 
			"-0.025": 0.0,
			"-0.024": 0.0,
			"-0.023": 0.0,
			"-0.022": 0.0,
			"-0.021": 0.0,
			"-0.02": 0.0,
			"-0.019": 0.0,
			"-0.018": 0.0318608521345,
			"-0.017": 0.6071149963,
			"-0.016": 0.855463083407,
			"-0.015": 0.285777975503,
			"-0.014": 0.914331389639,
			"-0.013": 0.730772375151,
			"-0.012": 0.990697331661,
			"-0.011": 1.38565405878,
			"-0.01": 0.960626885109,
			"-0.009": 0.579949197281,
			"-0.008": 0.851898428567,
			"-0.007": 1.75250393479,
			"-0.006": 5.42821980455,
			"-0.005": 12.3717035483,
			"-0.004": 21.4056501159,
			"-0.003": 22.482952755,
			"-0.002": 19.5846801196,
			"-0.001": 17.1461033176,
			"0.0": 10.4126768065,
			"0.001": 5.30557868348,
			"0.002": 5.18744770204,
			"0.003": 5.15896606225,
			"0.004": 3.41009705232,
			"0.005": 2.91319021983,
			"0.006": 3.33229314837,
			"0.007": 3.88913704094,
			"0.008": 4.15964829941,
			"0.009": 3.27277462247,
			"0.01": 4.49724692937,
			"0.011": 4.73820618702,
			"0.012": 5.45076131658,
			"0.013": 5.00963607999,
			"0.014": 1.23918330563,
			"0.015": 0.00305139763596,
			"0.016": 0.0,
			"0.017": 0.0,
			"0.018": 0.0,
			"0.019": 0.0,
			"0.02": 0.0,
			"0.021": 0.0,
			"0.022": 0.0,
			"0.023": 0.0,
			"0.024": 0.0,
			"0.025": 0.0
		}
	}
}
