{
	 "smiles": "CC1(C)CC2=C(C=C(Cl)C=C2)C1O", 
	 "Tm": 368.15, 
	 "num_atms": 26, 
	 "gaussian": { 
		 "optdone": 1, 
		 "sigma_profile": "yes", 
		 "theory": "DFT", 
		 "functional": "B3LYP", 
		 "basiset": "6-31G**", 
		 "properties": { 
			 "R2extent": 3871.65, 
			 "electric_dipole_moment_norm": 2.79063277412, 
			 "electric_quadrupole_moment_norm": 6.89941675216, 
			 "total_energy": -962.43274733, 
			 "HOMO_LUMO_gap": 0.21963, 
			 "cosmo_polarized_energy": -7.51, 
			 "cosmo_cavitation_energy": 29.43, 
			 "cosmo_dispersion_energy": -21.23, 
			 "cosmo_repulsion_energy": 1.67, 
			 "cosmo_total_nonelectrostatic_energy": 9.87, 
			 "SMD_solvation_energy": 4.32 
		},
		"coords": [
			{
				"x": 1.5810125572,
				"y": -1.7594736421,
				"z": 1.4809785178,
				"element": "C" 
			},
			{
				"x": 1.5493939987,
				"y": -0.4407587539,
				"z": 0.7014413983,
				"element": "C" 
			},
			{
				"x": 2.9231186093,
				"y": -0.1822863615,
				"z": 0.0558124637,
				"element": "C" 
			},
			{
				"x": 1.1442965298,
				"y": 0.7827445578,
				"z": 1.5822591065,
				"element": "C" 
			},
			{
				"x": 0.4486383224,
				"y": 1.716117959,
				"z": 0.6149554358,
				"element": "C" 
			},
			{
				"x": 0.0449140998,
				"y": 1.0111982856,
				"z": -0.5239876767,
				"element": "C" 
			},
			{
				"x": -0.6176217895,
				"y": 1.6383656609,
				"z": -1.5746656855,
				"element": "C" 
			},
			{
				"x": -0.8715695987,
				"y": 3.0064045851,
				"z": -1.4558017099,
				"element": "C" 
			},
			{
				"x": -1.69869349,
				"y": 3.8434665548,
				"z": -2.7666180687,
				"element": "Cl" 
			},
			{
				"x": -0.4826351037,
				"y": 3.7309195298,
				"z": -0.3267051702,
				"element": "C" 
			},
			{
				"x": 0.1822418086,
				"y": 3.0795605053,
				"z": 0.7177458786,
				"element": "C" 
			},
			{
				"x": 0.4305324208,
				"y": -0.4491033462,
				"z": -0.4032495281,
				"element": "C" 
			},
			{
				"x": 0.7643465983,
				"y": -1.0900550509,
				"z": -1.6225464615,
				"element": "O" 
			},
			{
				"x": 1.7861569019,
				"y": -2.5986575999,
				"z": 0.8077305899,
				"element": "H" 
			},
			{
				"x": 0.6220962332,
				"y": -1.9523112781,
				"z": 1.9752301762,
				"element": "H" 
			},
			{
				"x": 2.3593203774,
				"y": -1.7486387265,
				"z": 2.252228471,
				"element": "H" 
			},
			{
				"x": 3.7012644097,
				"y": -0.1340006773,
				"z": 0.8244178442,
				"element": "H" 
			},
			{
				"x": 2.9431360254,
				"y": 0.7667037121,
				"z": -0.4926836737,
				"element": "H" 
			},
			{
				"x": 3.1890956941,
				"y": -0.9880622304,
				"z": -0.6354306574,
				"element": "H" 
			},
			{
				"x": 0.4473567861,
				"y": 0.4664447447,
				"z": 2.3714585131,
				"element": "H" 
			},
			{
				"x": 2.0031529271,
				"y": 1.240978915,
				"z": 2.0858024859,
				"element": "H" 
			},
			{
				"x": -0.9222689611,
				"y": 1.0863089448,
				"z": -2.4575274288,
				"element": "H" 
			},
			{
				"x": -0.6922979102,
				"y": 4.7934987222,
				"z": -0.271851576,
				"element": "H" 
			},
			{
				"x": 0.4928265063,
				"y": 3.6462311254,
				"z": 1.5916488985,
				"element": "H" 
			},
			{
				"x": -0.4275257779,
				"y": -1.0219019366,
				"z": -0.0244168019,
				"element": "H" 
			},
			{
				"x": 1.4244118249,
				"y": -0.5440941992,
				"z": -2.0708253411,
				"element": "H" 
			}
		],
		 "valence_orbital": [ 
			{
				"type": "occ",
				"energy": -0.3165,
				"method": "rhf"
			},
			{
				"type": "occ",
				"energy": -0.30851,
				"method": "rhf"
			},
			{
				"type": "occ",
				"energy": -0.27475,
				"method": "rhf"
			},
			{
				"type": "occ",
				"energy": -0.25532,
				"method": "rhf"
			},
			{
				"type": "occ",
				"energy": -0.23674,
				"method": "rhf"
			},
			{
				"type": "unocc",
				"energy": -0.01711,
				"method": "rhf"
			},
			{
				"type": "unocc",
				"energy": -0.01121,
				"method": "rhf"
			},
			{
				"type": "unocc",
				"energy": 0.03284,
				"method": "rhf"
			},
			{
				"type": "unocc",
				"energy": 0.07413,
				"method": "rhf"
			},
			{
				"type": "unocc",
				"energy": 0.09579,
				"method": "rhf"
			}
		],
		"cosmo_sigma_profile": { 
			"-0.025": 0.0,
			"-0.024": 0.0,
			"-0.023": 0.0,
			"-0.022": 0.0,
			"-0.021": 0.0,
			"-0.02": 0.0,
			"-0.019": 0.0,
			"-0.018": 0.0,
			"-0.017": 0.0,
			"-0.016": 0.0,
			"-0.015": 0.0921337936969,
			"-0.014": 0.562059641995,
			"-0.013": 0.789010374498,
			"-0.012": 0.817345503997,
			"-0.011": 0.682205712922,
			"-0.01": 0.899013332553,
			"-0.009": 1.12251043743,
			"-0.008": 0.81251509224,
			"-0.007": 2.46924763249,
			"-0.006": 6.78257399608,
			"-0.005": 7.02134481222,
			"-0.004": 14.951486828,
			"-0.003": 23.9505675393,
			"-0.002": 25.2744104424,
			"-0.001": 23.6547620421,
			"0.0": 23.7604530692,
			"0.001": 24.1030409815,
			"0.002": 17.1838890695,
			"0.003": 15.4616677165,
			"0.004": 18.5529735547,
			"0.005": 12.1702747849,
			"0.006": 2.21450650886,
			"0.007": 1.35717734302,
			"0.008": 1.10274561317,
			"0.009": 0.947540395832,
			"0.01": 0.794023375248,
			"0.011": 1.4927391447,
			"0.012": 0.926350039178,
			"0.013": 1.86731216833,
			"0.014": 1.44964633345,
			"0.015": 0.0,
			"0.016": 0.0,
			"0.017": 0.0,
			"0.018": 0.0,
			"0.019": 0.0,
			"0.02": 0.0,
			"0.021": 0.0,
			"0.022": 0.0,
			"0.023": 0.0,
			"0.024": 0.0,
			"0.025": 0.0
		}
	}
}
