{
	 "smiles": "NCC1(CCCC1)C(N)=O", 
	 "Tm": 335.15, 
	 "num_atms": 24, 
	 "gaussian": { 
		 "optdone": 1, 
		 "sigma_profile": "yes", 
		 "theory": "DFT", 
		 "functional": "B3LYP", 
		 "basiset": "6-31G**", 
		 "properties": { 
			 "R2extent": 1639.0476, 
			 "electric_dipole_moment_norm": 3.05327934523, 
			 "electric_quadrupole_moment_norm": 11.5313640303, 
			 "total_energy": -459.925247816, 
			 "HOMO_LUMO_gap": 0.25767, 
			 "cosmo_polarized_energy": -15.24, 
			 "cosmo_cavitation_energy": 24.5, 
			 "cosmo_dispersion_energy": -18.07, 
			 "cosmo_repulsion_energy": 1.48, 
			 "cosmo_total_nonelectrostatic_energy": 7.92, 
			 "SMD_solvation_energy": 2.96 
		},
		"coords": [
			{
				"x": -2.2880992544,
				"y": -2.0802565802,
				"z": 0.6281555693,
				"element": "N" 
			},
			{
				"x": -1.9464445704,
				"y": -0.6836884455,
				"z": 0.8680755519,
				"element": "C" 
			},
			{
				"x": -0.9679250233,
				"y": 0.0239071142,
				"z": -0.1281919028,
				"element": "C" 
			},
			{
				"x": 0.416442702,
				"y": -0.66022651,
				"z": -0.2469839007,
				"element": "C" 
			},
			{
				"x": 1.0225628314,
				"y": -0.0898204671,
				"z": -1.545366385,
				"element": "C" 
			},
			{
				"x": -0.1952645063,
				"y": 0.24535088,
				"z": -2.4570991386,
				"element": "C" 
			},
			{
				"x": -1.455525886,
				"y": 0.0004039043,
				"z": -1.5914831489,
				"element": "C" 
			},
			{
				"x": -0.8371729879,
				"y": 1.4944722829,
				"z": 0.3313243822,
				"element": "C" 
			},
			{
				"x": -0.1317128502,
				"y": 1.6991517471,
				"z": 1.4880827927,
				"element": "N" 
			},
			{
				"x": -1.3443554379,
				"y": 2.4322122327,
				"z": -0.2711346637,
				"element": "O" 
			},
			{
				"x": -1.4579948374,
				"y": -2.6657641019,
				"z": 0.6051977594,
				"element": "H" 
			},
			{
				"x": -2.760541192,
				"y": -2.1934540886,
				"z": -0.2638203737,
				"element": "H" 
			},
			{
				"x": -1.5315771927,
				"y": -0.6183838792,
				"z": 1.8818247464,
				"element": "H" 
			},
			{
				"x": -2.8815759219,
				"y": -0.1113851514,
				"z": 0.8873363626,
				"element": "H" 
			},
			{
				"x": 1.0661498879,
				"y": -0.5172284573,
				"z": 0.6230609712,
				"element": "H" 
			},
			{
				"x": 0.2589987983,
				"y": -1.7415303007,
				"z": -0.3517581212,
				"element": "H" 
			},
			{
				"x": 1.5894195104,
				"y": 0.8200445107,
				"z": -1.3209523691,
				"element": "H" 
			},
			{
				"x": 1.7219169053,
				"y": -0.7902699465,
				"z": -2.0121974271,
				"element": "H" 
			},
			{
				"x": -0.2078223524,
				"y": -0.3690801878,
				"z": -3.3626636046,
				"element": "H" 
			},
			{
				"x": -0.155310736,
				"y": 1.2893745772,
				"z": -2.7780332785,
				"element": "H" 
			},
			{
				"x": -1.8704137212,
				"y": -0.9911576174,
				"z": -1.8075997945,
				"element": "H" 
			},
			{
				"x": -2.2347141793,
				"y": 0.7448328917,
				"z": -1.7635345112,
				"element": "H" 
			},
			{
				"x": 0.2160112995,
				"y": 0.9453441289,
				"z": 2.0565991117,
				"element": "H" 
			},
			{
				"x": -0.1153512854,
				"y": 2.6358514639,
				"z": 1.8621613722,
				"element": "H" 
			}
		],
		 "valence_orbital": [ 
			{
				"type": "occ",
				"energy": -0.31708,
				"method": "rhf"
			},
			{
				"type": "occ",
				"energy": -0.31042,
				"method": "rhf"
			},
			{
				"type": "occ",
				"energy": -0.26484,
				"method": "rhf"
			},
			{
				"type": "occ",
				"energy": -0.2505,
				"method": "rhf"
			},
			{
				"type": "occ",
				"energy": -0.23102,
				"method": "rhf"
			},
			{
				"type": "unocc",
				"energy": 0.02665,
				"method": "rhf"
			},
			{
				"type": "unocc",
				"energy": 0.05962,
				"method": "rhf"
			},
			{
				"type": "unocc",
				"energy": 0.07439,
				"method": "rhf"
			},
			{
				"type": "unocc",
				"energy": 0.10334,
				"method": "rhf"
			},
			{
				"type": "unocc",
				"energy": 0.11774,
				"method": "rhf"
			}
		],
		"cosmo_sigma_profile": { 
			"-0.025": 0.0,
			"-0.024": 0.0,
			"-0.023": 0.0,
			"-0.022": 0.0,
			"-0.021": 0.0,
			"-0.02": 0.0,
			"-0.019": 0.0,
			"-0.018": 0.0,
			"-0.017": 0.0,
			"-0.016": 0.0,
			"-0.015": 0.0,
			"-0.014": 0.663422342073,
			"-0.013": 2.06657284724,
			"-0.012": 2.2584032366,
			"-0.011": 2.73490796972,
			"-0.01": 2.38787497564,
			"-0.009": 5.43695887287,
			"-0.008": 5.39269185166,
			"-0.007": 5.53048353597,
			"-0.006": 5.59110022845,
			"-0.005": 6.48566675325,
			"-0.004": 6.93232448554,
			"-0.003": 11.8413323039,
			"-0.002": 16.9685154079,
			"-0.001": 22.1395929609,
			"0.0": 21.8761736436,
			"0.001": 17.5192843624,
			"0.002": 10.729761085,
			"0.003": 5.03376940905,
			"0.004": 4.311027744,
			"0.005": 2.92784230225,
			"0.006": 2.57245320655,
			"0.007": 2.5122316747,
			"0.008": 1.9881597992,
			"0.009": 2.38506638679,
			"0.01": 2.09741401721,
			"0.011": 2.15347465947,
			"0.012": 2.43859850116,
			"0.013": 3.3556007601,
			"0.014": 5.9878983187,
			"0.015": 2.12326457286,
			"0.016": 0.628703227021,
			"0.017": 0.354469329923,
			"0.018": 0.863163722061,
			"0.019": 0.485962094188,
			"0.02": 0.0,
			"0.021": 0.0,
			"0.022": 0.0,
			"0.023": 0.0,
			"0.024": 0.0,
			"0.025": 0.0
		}
	}
}
