{
	 "smiles": "ClCCCCCCCCCCCCCl", 
	 "Tm": 302.15, 
	 "num_atms": 38, 
	 "gaussian": { 
		 "optdone": 1, 
		 "sigma_profile": "yes", 
		 "theory": "DFT", 
		 "functional": "B3LYP", 
		 "basiset": "6-31G**", 
		 "properties": { 
			 "R2extent": 8871.1908, 
			 "electric_dipole_moment_norm": 3.81632426033, 
			 "electric_quadrupole_moment_norm": 17.335097075, 
			 "total_energy": -1392.16431404, 
			 "HOMO_LUMO_gap": 0.31222, 
			 "cosmo_polarized_energy": -7.37, 
			 "cosmo_cavitation_energy": 41.37, 
			 "cosmo_dispersion_energy": -28.75, 
			 "cosmo_repulsion_energy": 2.37, 
			 "cosmo_total_nonelectrostatic_energy": 14.99, 
			 "SMD_solvation_energy": 4.84 
		},
		"coords": [
			{
				"x": 1.420307944,
				"y": -5.211168674,
				"z": -1.9122254536,
				"element": "Cl" 
			},
			{
				"x": 0.7923578273,
				"y": -3.5046002952,
				"z": -2.0324698526,
				"element": "C" 
			},
			{
				"x": -0.7320618856,
				"y": -3.466695297,
				"z": -2.0407451104,
				"element": "C" 
			},
			{
				"x": -1.3002200407,
				"y": -2.0307656405,
				"z": -2.1515679458,
				"element": "C" 
			},
			{
				"x": -1.6466815214,
				"y": -1.3397810806,
				"z": -0.8202348679,
				"element": "C" 
			},
			{
				"x": -0.4663186719,
				"y": -1.0891716356,
				"z": 0.1292390962,
				"element": "C" 
			},
			{
				"x": -0.8441553401,
				"y": -0.3518194736,
				"z": 1.4276169682,
				"element": "C" 
			},
			{
				"x": -1.3717950675,
				"y": 1.0859511046,
				"z": 1.2606779114,
				"element": "C" 
			},
			{
				"x": -0.4087262059,
				"y": 2.0812706426,
				"z": 0.5900287113,
				"element": "C" 
			},
			{
				"x": 0.8990480236,
				"y": 2.321169288,
				"z": 1.3584182195,
				"element": "C" 
			},
			{
				"x": 1.7734472765,
				"y": 3.3965050763,
				"z": 0.6963127331,
				"element": "C" 
			},
			{
				"x": 3.1671441791,
				"y": 3.6222059915,
				"z": 1.3079342803,
				"element": "C" 
			},
			{
				"x": 3.2287719634,
				"y": 4.3732771277,
				"z": 2.6354000421,
				"element": "C" 
			},
			{
				"x": 2.7724293053,
				"y": 3.3684729116,
				"z": 4.0900620454,
				"element": "Cl" 
			},
			{
				"x": 1.2230366229,
				"y": -2.9672204665,
				"z": -1.1877968434,
				"element": "H" 
			},
			{
				"x": 1.2058789206,
				"y": -3.0972094616,
				"z": -2.9572663343,
				"element": "H" 
			},
			{
				"x": -1.1143144756,
				"y": -3.9562730616,
				"z": -1.1373535152,
				"element": "H" 
			},
			{
				"x": -1.0776512291,
				"y": -4.0683143294,
				"z": -2.8879820578,
				"element": "H" 
			},
			{
				"x": -2.2149536114,
				"y": -2.071858092,
				"z": -2.7544209882,
				"element": "H" 
			},
			{
				"x": -0.6019143167,
				"y": -1.4004127617,
				"z": -2.7208792217,
				"element": "H" 
			},
			{
				"x": -2.4036489824,
				"y": -1.9401878956,
				"z": -0.295531909,
				"element": "H" 
			},
			{
				"x": -2.1318810626,
				"y": -0.3846897832,
				"z": -1.0569864414,
				"element": "H" 
			},
			{
				"x": 0.3174686355,
				"y": -0.5318277609,
				"z": -0.4026908538,
				"element": "H" 
			},
			{
				"x": -0.0168916032,
				"y": -2.0497461291,
				"z": 0.411201839,
				"element": "H" 
			},
			{
				"x": -1.6076859884,
				"y": -0.9397208671,
				"z": 1.9550304598,
				"element": "H" 
			},
			{
				"x": 0.0303540734,
				"y": -0.3412652254,
				"z": 2.0896201073,
				"element": "H" 
			},
			{
				"x": -2.3104056096,
				"y": 1.0686233205,
				"z": 0.6924394619,
				"element": "H" 
			},
			{
				"x": -1.6355272134,
				"y": 1.4690707262,
				"z": 2.2556076153,
				"element": "H" 
			},
			{
				"x": -0.9324962786,
				"y": 3.0403632918,
				"z": 0.4753825822,
				"element": "H" 
			},
			{
				"x": -0.1753768724,
				"y": 1.7488101685,
				"z": -0.431237629,
				"element": "H" 
			},
			{
				"x": 1.473995448,
				"y": 1.3882261662,
				"z": 1.4246622029,
				"element": "H" 
			},
			{
				"x": 0.6669008848,
				"y": 2.6054202519,
				"z": 2.3905636458,
				"element": "H" 
			},
			{
				"x": 1.9178744534,
				"y": 3.1232112885,
				"z": -0.3580039996,
				"element": "H" 
			},
			{
				"x": 1.2306860814,
				"y": 4.3528114795,
				"z": 0.6824147646,
				"element": "H" 
			},
			{
				"x": 3.7046087146,
				"y": 2.6711852681,
				"z": 1.404002899,
				"element": "H" 
			},
			{
				"x": 3.7516167684,
				"y": 4.2326629107,
				"z": 0.6046245499,
				"element": "H" 
			},
			{
				"x": 2.5572976743,
				"y": 5.2347150341,
				"z": 2.6443423674,
				"element": "H" 
			},
			{
				"x": 4.2435811802,
				"y": 4.7163758826,
				"z": 2.8414105214,
				"element": "H" 
			}
		],
		 "valence_orbital": [ 
			{
				"type": "occ",
				"energy": -0.30461,
				"method": "rhf"
			},
			{
				"type": "occ",
				"energy": -0.29184,
				"method": "rhf"
			},
			{
				"type": "occ",
				"energy": -0.28834,
				"method": "rhf"
			},
			{
				"type": "occ",
				"energy": -0.28775,
				"method": "rhf"
			},
			{
				"type": "occ",
				"energy": -0.28569,
				"method": "rhf"
			},
			{
				"type": "unocc",
				"energy": 0.02653,
				"method": "rhf"
			},
			{
				"type": "unocc",
				"energy": 0.02857,
				"method": "rhf"
			},
			{
				"type": "unocc",
				"energy": 0.07148,
				"method": "rhf"
			},
			{
				"type": "unocc",
				"energy": 0.08365,
				"method": "rhf"
			},
			{
				"type": "unocc",
				"energy": 0.09699,
				"method": "rhf"
			}
		],
		"cosmo_sigma_profile": { 
			"-0.025": 0.0,
			"-0.024": 0.0,
			"-0.023": 0.0,
			"-0.022": 0.0,
			"-0.021": 0.0,
			"-0.02": 0.0,
			"-0.019": 0.0,
			"-0.018": 0.0,
			"-0.017": 0.0,
			"-0.016": 0.0,
			"-0.015": 0.0,
			"-0.014": 0.0,
			"-0.013": 0.0,
			"-0.012": 0.0,
			"-0.011": 0.0,
			"-0.01": 0.0,
			"-0.009": 0.0,
			"-0.008": 0.0,
			"-0.007": 0.98401748811,
			"-0.006": 7.21498617245,
			"-0.005": 10.1310185541,
			"-0.004": 17.4715311582,
			"-0.003": 27.1396388957,
			"-0.002": 45.9850573424,
			"-0.001": 55.0132424963,
			"0.0": 49.5405578493,
			"0.001": 33.329209963,
			"0.002": 15.8067133764,
			"0.003": 7.35599290146,
			"0.004": 9.39124618752,
			"0.005": 10.9527738603,
			"0.006": 12.550961896,
			"0.007": 18.4310797212,
			"0.008": 1.70753899548,
			"0.009": 0.0,
			"0.01": 0.0,
			"0.011": 0.0,
			"0.012": 0.0,
			"0.013": 0.0,
			"0.014": 0.0,
			"0.015": 0.0,
			"0.016": 0.0,
			"0.017": 0.0,
			"0.018": 0.0,
			"0.019": 0.0,
			"0.02": 0.0,
			"0.021": 0.0,
			"0.022": 0.0,
			"0.023": 0.0,
			"0.024": 0.0,
			"0.025": 0.0
		}
	}
}
