{
	 "smiles": "CC(C)(C)C1=NN(C2CCS(=O)(=O)C2)C(N)=C1", 
	 "Tm": 521.15, 
	 "num_atms": 36, 
	 "gaussian": { 
		 "optdone": 1, 
		 "sigma_profile": "yes", 
		 "theory": "DFT", 
		 "functional": "B3LYP", 
		 "basiset": "6-31G**", 
		 "properties": { 
			 "R2extent": 6698.8282, 
			 "electric_dipole_moment_norm": 2.01201849147, 
			 "electric_quadrupole_moment_norm": 26.696117186, 
			 "total_energy": -1143.44670015, 
			 "HOMO_LUMO_gap": 0.22963, 
			 "cosmo_polarized_energy": -19.22, 
			 "cosmo_cavitation_energy": 37.26, 
			 "cosmo_dispersion_energy": -27.17, 
			 "cosmo_repulsion_energy": 2.07, 
			 "cosmo_total_nonelectrostatic_energy": 12.16, 
			 "SMD_solvation_energy": 4.44 
		},
		"coords": [
			{
				"x": 2.9950847871,
				"y": -1.2063573595,
				"z": 1.6352515259,
				"element": "C" 
			},
			{
				"x": 1.4912430512,
				"y": -1.2469105375,
				"z": 1.9916890534,
				"element": "C" 
			},
			{
				"x": 1.2820773397,
				"y": -0.6275361014,
				"z": 3.3851609975,
				"element": "C" 
			},
			{
				"x": 1.0130163519,
				"y": -2.716686258,
				"z": 2.0090479815,
				"element": "C" 
			},
			{
				"x": 0.7095553788,
				"y": -0.4787879246,
				"z": 0.9388353639,
				"element": "C" 
			},
			{
				"x": -0.0113790604,
				"y": 0.5893959261,
				"z": 1.257665439,
				"element": "N" 
			},
			{
				"x": -0.5481535125,
				"y": 1.0314684852,
				"z": 0.0692998935,
				"element": "N" 
			},
			{
				"x": -1.4571525972,
				"y": 2.1580917991,
				"z": 0.1277057148,
				"element": "C" 
			},
			{
				"x": -1.086267579,
				"y": 3.2890340504,
				"z": -0.889821629,
				"element": "C" 
			},
			{
				"x": -2.3643722861,
				"y": 4.0258243306,
				"z": -1.2958757974,
				"element": "C" 
			},
			{
				"x": -3.5783869631,
				"y": 2.6827544752,
				"z": -1.4841742823,
				"element": "S" 
			},
			{
				"x": -3.2026033276,
				"y": 1.9071788044,
				"z": -2.6897733719,
				"element": "O" 
			},
			{
				"x": -4.9598029043,
				"y": 3.1459355655,
				"z": -1.3073273455,
				"element": "O" 
			},
			{
				"x": -2.9572749806,
				"y": 1.7633574185,
				"z": -0.0390923883,
				"element": "C" 
			},
			{
				"x": -0.1935476285,
				"y": 0.220412521,
				"z": -0.9804286088,
				"element": "C" 
			},
			{
				"x": -0.5545492417,
				"y": 0.4771365726,
				"z": -2.2978245834,
				"element": "N" 
			},
			{
				"x": 0.6297418051,
				"y": -0.7599264453,
				"z": -0.4513055483,
				"element": "C" 
			},
			{
				"x": 3.1862159863,
				"y": -1.6467857552,
				"z": 0.6512317275,
				"element": "H" 
			},
			{
				"x": 3.5790711197,
				"y": -1.767116808,
				"z": 2.3740833192,
				"element": "H" 
			},
			{
				"x": 3.3656622697,
				"y": -0.1763083969,
				"z": 1.6191045588,
				"element": "H" 
			},
			{
				"x": 0.2267646211,
				"y": -0.6433880795,
				"z": 3.6711870046,
				"element": "H" 
			},
			{
				"x": 1.6124769575,
				"y": 0.4144333294,
				"z": 3.4087117796,
				"element": "H" 
			},
			{
				"x": 1.8524041471,
				"y": -1.1897400206,
				"z": 4.1327329172,
				"element": "H" 
			},
			{
				"x": 1.5749243646,
				"y": -3.2931254697,
				"z": 2.7528060318,
				"element": "H" 
			},
			{
				"x": -0.0502766183,
				"y": -2.7799369102,
				"z": 2.262334715,
				"element": "H" 
			},
			{
				"x": 1.1551434379,
				"y": -3.1973208213,
				"z": 1.0355751427,
				"element": "H" 
			},
			{
				"x": -1.3287782588,
				"y": 2.5342899626,
				"z": 1.1431141615,
				"element": "H" 
			},
			{
				"x": -0.6230091324,
				"y": 2.8473667588,
				"z": -1.774338467,
				"element": "H" 
			},
			{
				"x": -0.3598257322,
				"y": 3.9689800654,
				"z": -0.4389521535,
				"element": "H" 
			},
			{
				"x": -2.2959370395,
				"y": 4.5586107711,
				"z": -2.2460456028,
				"element": "H" 
			},
			{
				"x": -2.747866532,
				"y": 4.6982294576,
				"z": -0.5228042983,
				"element": "H" 
			},
			{
				"x": -3.5618870713,
				"y": 2.0617662433,
				"z": 0.8195278378,
				"element": "H" 
			},
			{
				"x": -3.1028041503,
				"y": 0.6993576053,
				"z": -0.2300007512,
				"element": "H" 
			},
			{
				"x": -0.3026007298,
				"y": -0.2788519424,
				"z": -2.9198581697,
				"element": "H" 
			},
			{
				"x": -1.5069694681,
				"y": 0.7948061412,
				"z": -2.4680263742,
				"element": "H" 
			},
			{
				"x": 1.1027631961,
				"y": -1.5600514533,
				"z": -1.0018157935,
				"element": "H" 
			}
		],
		 "valence_orbital": [ 
			{
				"type": "occ",
				"energy": -0.31,
				"method": "rhf"
			},
			{
				"type": "occ",
				"energy": -0.29545,
				"method": "rhf"
			},
			{
				"type": "occ",
				"energy": -0.27593,
				"method": "rhf"
			},
			{
				"type": "occ",
				"energy": -0.23419,
				"method": "rhf"
			},
			{
				"type": "occ",
				"energy": -0.20252,
				"method": "rhf"
			},
			{
				"type": "unocc",
				"energy": 0.02711,
				"method": "rhf"
			},
			{
				"type": "unocc",
				"energy": 0.04051,
				"method": "rhf"
			},
			{
				"type": "unocc",
				"energy": 0.05426,
				"method": "rhf"
			},
			{
				"type": "unocc",
				"energy": 0.05611,
				"method": "rhf"
			},
			{
				"type": "unocc",
				"energy": 0.07125,
				"method": "rhf"
			}
		],
		"cosmo_sigma_profile": { 
			"-0.025": 0.0,
			"-0.024": 0.0,
			"-0.023": 0.0,
			"-0.022": 0.0,
			"-0.021": 0.0,
			"-0.02": 0.0,
			"-0.019": 0.0,
			"-0.018": 0.0,
			"-0.017": 0.0,
			"-0.016": 0.0,
			"-0.015": 0.0,
			"-0.014": 0.0285349333855,
			"-0.013": 0.949320311913,
			"-0.012": 1.55716551545,
			"-0.011": 2.21339341376,
			"-0.01": 2.76325117097,
			"-0.009": 8.63366840606,
			"-0.008": 12.6386492867,
			"-0.007": 11.4090035688,
			"-0.006": 15.0922093828,
			"-0.005": 12.2205786404,
			"-0.004": 12.9369423798,
			"-0.003": 16.6633327549,
			"-0.002": 26.2326244515,
			"-0.001": 22.2648541178,
			"0.0": 19.9152623503,
			"0.001": 27.1232232136,
			"0.002": 20.134497773,
			"0.003": 8.8028032063,
			"0.004": 6.83038667986,
			"0.005": 6.96335672274,
			"0.006": 8.84173588626,
			"0.007": 8.35104944075,
			"0.008": 5.37305777637,
			"0.009": 5.35914248215,
			"0.01": 7.11567622286,
			"0.011": 11.0626003043,
			"0.012": 6.78881555895,
			"0.013": 1.41018166095,
			"0.014": 1.08467152594,
			"0.015": 0.224227644327,
			"0.016": 0.0,
			"0.017": 0.0,
			"0.018": 0.0,
			"0.019": 0.0,
			"0.02": 0.0,
			"0.021": 0.0,
			"0.022": 0.0,
			"0.023": 0.0,
			"0.024": 0.0,
			"0.025": 0.0
		}
	}
}
