{
	 "smiles": "CC1(C)NC(=O)NC1=O", 
	 "Tm": 450.15, 
	 "num_atms": 17, 
	 "gaussian": { 
		 "optdone": 1, 
		 "sigma_profile": "yes", 
		 "theory": "DFT", 
		 "functional": "B3LYP", 
		 "basiset": "6-31G**", 
		 "properties": { 
			 "R2extent": 1661.9273, 
			 "electric_dipole_moment_norm": 2.71768096178, 
			 "electric_quadrupole_moment_norm": 10.231996401, 
			 "total_energy": -455.353629089, 
			 "HOMO_LUMO_gap": 0.25379, 
			 "cosmo_polarized_energy": -15.09, 
			 "cosmo_cavitation_energy": 20.75, 
			 "cosmo_dispersion_energy": -15.04, 
			 "cosmo_repulsion_energy": 1.26, 
			 "cosmo_total_nonelectrostatic_energy": 6.96, 
			 "SMD_solvation_energy": 5.16 
		},
		"coords": [
			{
				"x": -1.5174362946,
				"y": -0.2801742079,
				"z": 1.1789303435,
				"element": "C" 
			},
			{
				"x": -0.3642282924,
				"y": -0.7001500441,
				"z": 0.2531856995,
				"element": "C" 
			},
			{
				"x": -0.1207989438,
				"y": 0.3436305264,
				"z": -0.8489137714,
				"element": "C" 
			},
			{
				"x": 0.8546947087,
				"y": -1.0241797047,
				"z": 0.9929773342,
				"element": "N" 
			},
			{
				"x": 1.260321534,
				"y": -2.3259433182,
				"z": 0.8715498063,
				"element": "C" 
			},
			{
				"x": 2.2230381961,
				"y": -2.8750056468,
				"z": 1.3653677951,
				"element": "O" 
			},
			{
				"x": 0.3030062178,
				"y": -2.9330825976,
				"z": 0.0254690148,
				"element": "N" 
			},
			{
				"x": -0.6863567992,
				"y": -2.0694066974,
				"z": -0.3899035405,
				"element": "C" 
			},
			{
				"x": -1.6272520676,
				"y": -2.3180744988,
				"z": -1.1143945955,
				"element": "O" 
			},
			{
				"x": -1.3037198583,
				"y": 0.6905340269,
				"z": 1.6382589622,
				"element": "H" 
			},
			{
				"x": -1.6659560656,
				"y": -1.0150982031,
				"z": 1.9748453487,
				"element": "H" 
			},
			{
				"x": -2.442163293,
				"y": -0.1974473313,
				"z": 0.6021187272,
				"element": "H" 
			},
			{
				"x": 0.7178531575,
				"y": 0.0496426894,
				"z": -1.4860070455,
				"element": "H" 
			},
			{
				"x": -1.0150506593,
				"y": 0.4398097218,
				"z": -1.4699973798,
				"element": "H" 
			},
			{
				"x": 0.1046291227,
				"y": 1.3196952121,
				"z": -0.406847085,
				"element": "H" 
			},
			{
				"x": 1.3806739121,
				"y": -0.3738830043,
				"z": 1.5551063246,
				"element": "H" 
			},
			{
				"x": 0.3577454247,
				"y": -3.9067669225,
				"z": -0.2365459383,
				"element": "H" 
			}
		],
		 "valence_orbital": [ 
			{
				"type": "occ",
				"energy": -0.371,
				"method": "rhf"
			},
			{
				"type": "occ",
				"energy": -0.28894,
				"method": "rhf"
			},
			{
				"type": "occ",
				"energy": -0.28862,
				"method": "rhf"
			},
			{
				"type": "occ",
				"energy": -0.26653,
				"method": "rhf"
			},
			{
				"type": "occ",
				"energy": -0.26208,
				"method": "rhf"
			},
			{
				"type": "unocc",
				"energy": -0.00829,
				"method": "rhf"
			},
			{
				"type": "unocc",
				"energy": 0.06296,
				"method": "rhf"
			},
			{
				"type": "unocc",
				"energy": 0.0689,
				"method": "rhf"
			},
			{
				"type": "unocc",
				"energy": 0.09218,
				"method": "rhf"
			},
			{
				"type": "unocc",
				"energy": 0.10428,
				"method": "rhf"
			}
		],
		"cosmo_sigma_profile": { 
			"-0.025": 0.0,
			"-0.024": 0.0,
			"-0.023": 0.0,
			"-0.022": 0.0,
			"-0.021": 0.0,
			"-0.02": 0.0,
			"-0.019": 0.0,
			"-0.018": 0.0,
			"-0.017": 0.289755145497,
			"-0.016": 1.11180893114,
			"-0.015": 2.26822240259,
			"-0.014": 2.34399213697,
			"-0.013": 1.27706278037,
			"-0.012": 1.79661432983,
			"-0.011": 2.13864111046,
			"-0.01": 1.94532960328,
			"-0.009": 1.65385141591,
			"-0.008": 2.36102593555,
			"-0.007": 2.09823597905,
			"-0.006": 4.01943564276,
			"-0.005": 10.7832460957,
			"-0.004": 14.1925729774,
			"-0.003": 12.8240174723,
			"-0.002": 14.8882672254,
			"-0.001": 19.227117837,
			"0.0": 13.5857144922,
			"0.001": 5.04657540571,
			"0.002": 3.81243932082,
			"0.003": 4.02352886686,
			"0.004": 2.60251928936,
			"0.005": 2.14941261034,
			"0.006": 1.47387602991,
			"0.007": 2.99299509934,
			"0.008": 2.62069773633,
			"0.009": 2.41522490142,
			"0.01": 3.43899188807,
			"0.011": 4.1646395888,
			"0.012": 9.12982575612,
			"0.013": 8.26369644076,
			"0.014": 1.79348657179,
			"0.015": 0.0,
			"0.016": 0.0,
			"0.017": 0.0,
			"0.018": 0.0,
			"0.019": 0.0,
			"0.02": 0.0,
			"0.021": 0.0,
			"0.022": 0.0,
			"0.023": 0.0,
			"0.024": 0.0,
			"0.025": 0.0
		}
	}
}
