{
	 "smiles": "CN(C)CCCN1C2=CC=CC=C2SC2=C1C=C(C=C2)C(F)(F)F", 
	 "Tm": 298.15, 
	 "num_atms": 43, 
	 "gaussian": { 
		 "optdone": 1, 
		 "sigma_profile": "yes", 
		 "theory": "DFT", 
		 "functional": "B3LYP", 
		 "basiset": "6-31G**", 
		 "properties": { 
			 "R2extent": 9660.6367, 
			 "electric_dipole_moment_norm": 2.66661584035, 
			 "electric_quadrupole_moment_norm": 11.6107501562, 
			 "total_energy": -1504.57856089, 
			 "HOMO_LUMO_gap": 0.16398, 
			 "cosmo_polarized_energy": -7.73, 
			 "cosmo_cavitation_energy": 45.82, 
			 "cosmo_dispersion_energy": -31.52, 
			 "cosmo_repulsion_energy": 2.24, 
			 "cosmo_total_nonelectrostatic_energy": 16.55, 
			 "SMD_solvation_energy": 6.78 
		},
		"coords": [
			{
				"x": -3.7802169994,
				"y": 0.5032377513,
				"z": -2.6822647345,
				"element": "C" 
			},
			{
				"x": -2.9308344026,
				"y": 0.0088078922,
				"z": -1.6041643503,
				"element": "N" 
			},
			{
				"x": -3.7455291826,
				"y": -0.5126278539,
				"z": -0.5089251845,
				"element": "C" 
			},
			{
				"x": -1.9421020921,
				"y": -0.9673397522,
				"z": -2.0776139011,
				"element": "C" 
			},
			{
				"x": -0.696586794,
				"y": -1.0122570725,
				"z": -1.1814895863,
				"element": "C" 
			},
			{
				"x": 0.1287119782,
				"y": 0.280587399,
				"z": -1.3108241144,
				"element": "C" 
			},
			{
				"x": 1.0646461028,
				"y": 0.4771471972,
				"z": -0.1979087468,
				"element": "N" 
			},
			{
				"x": 2.3652518208,
				"y": 0.9780517371,
				"z": -0.4605424404,
				"element": "C" 
			},
			{
				"x": 2.6806958321,
				"y": 1.6844783615,
				"z": -1.6320240947,
				"element": "C" 
			},
			{
				"x": 3.9836473584,
				"y": 2.1239969181,
				"z": -1.8722018969,
				"element": "C" 
			},
			{
				"x": 4.9892616081,
				"y": 1.9089655693,
				"z": -0.9318638931,
				"element": "C" 
			},
			{
				"x": 4.6792237683,
				"y": 1.2535696377,
				"z": 0.2606354745,
				"element": "C" 
			},
			{
				"x": 3.3875435231,
				"y": 0.7788147236,
				"z": 0.4882965127,
				"element": "C" 
			},
			{
				"x": 3.0234933915,
				"y": -0.1433759357,
				"z": 1.9703776056,
				"element": "S" 
			},
			{
				"x": 1.3609725133,
				"y": 0.4358479337,
				"z": 2.2249101299,
				"element": "C" 
			},
			{
				"x": 0.5362268948,
				"y": 0.6521721176,
				"z": 1.1008720307,
				"element": "C" 
			},
			{
				"x": -0.7972414852,
				"y": 1.0282779855,
				"z": 1.3166880567,
				"element": "C" 
			},
			{
				"x": -1.296397898,
				"y": 1.1485671598,
				"z": 2.6166667524,
				"element": "C" 
			},
			{
				"x": -0.4723534426,
				"y": 0.9455799778,
				"z": 3.7231205603,
				"element": "C" 
			},
			{
				"x": 0.8644901305,
				"y": 0.607757064,
				"z": 3.5171117336,
				"element": "C" 
			},
			{
				"x": -2.7592722737,
				"y": 1.4343920131,
				"z": 2.8099761751,
				"element": "C" 
			},
			{
				"x": -3.4939291507,
				"y": 0.2911341738,
				"z": 2.802802985,
				"element": "F" 
			},
			{
				"x": -3.0089713299,
				"y": 2.0482311714,
				"z": 3.9865503666,
				"element": "F" 
			},
			{
				"x": -3.2630761686,
				"y": 2.216667822,
				"z": 1.8274111302,
				"element": "F" 
			},
			{
				"x": -4.4009357612,
				"y": -0.2860067242,
				"z": -3.1481342661,
				"element": "H" 
			},
			{
				"x": -3.1656993285,
				"y": 0.9583756864,
				"z": -3.4653883138,
				"element": "H" 
			},
			{
				"x": -4.4557829623,
				"y": 1.2717141222,
				"z": -2.2933443887,
				"element": "H" 
			},
			{
				"x": -4.3901280061,
				"y": -1.3559703708,
				"z": -0.822629356,
				"element": "H" 
			},
			{
				"x": -3.1161047079,
				"y": -0.8558303231,
				"z": 0.3149313637,
				"element": "H" 
			},
			{
				"x": -4.3846524006,
				"y": 0.2823496309,
				"z": -0.1142791896,
				"element": "H" 
			},
			{
				"x": -1.6390641875,
				"y": -0.6750491935,
				"z": -3.090942363,
				"element": "H" 
			},
			{
				"x": -2.378397509,
				"y": -1.9796396641,
				"z": -2.1665168507,
				"element": "H" 
			},
			{
				"x": -0.9952223567,
				"y": -1.1737703826,
				"z": -0.1423475096,
				"element": "H" 
			},
			{
				"x": -0.0731054817,
				"y": -1.870000494,
				"z": -1.4574142482,
				"element": "H" 
			},
			{
				"x": 0.7245583982,
				"y": 0.2136733123,
				"z": -2.2221688637,
				"element": "H" 
			},
			{
				"x": -0.5473139033,
				"y": 1.1381542852,
				"z": -1.4300947452,
				"element": "H" 
			},
			{
				"x": 1.9073813442,
				"y": 1.9044963177,
				"z": -2.3587528614,
				"element": "H" 
			},
			{
				"x": 4.2017123518,
				"y": 2.6543000322,
				"z": -2.7944962544,
				"element": "H" 
			},
			{
				"x": 6.000978118,
				"y": 2.2574008501,
				"z": -1.1137107488,
				"element": "H" 
			},
			{
				"x": 5.4416324912,
				"y": 1.0959564131,
				"z": 1.0176428323,
				"element": "H" 
			},
			{
				"x": -1.4585555734,
				"y": 1.2110919072,
				"z": 0.4783049957,
				"element": "H" 
			},
			{
				"x": -0.8643776781,
				"y": 1.0560740984,
				"z": 4.727488794,
				"element": "H" 
			},
			{
				"x": 1.5270234504,
				"y": 0.458296505,
				"z": 4.363855403,
				"element": "H" 
			}
		],
		 "valence_orbital": [ 
			{
				"type": "occ",
				"energy": -0.26261,
				"method": "rhf"
			},
			{
				"type": "occ",
				"energy": -0.25775,
				"method": "rhf"
			},
			{
				"type": "occ",
				"energy": -0.23048,
				"method": "rhf"
			},
			{
				"type": "occ",
				"energy": -0.21879,
				"method": "rhf"
			},
			{
				"type": "occ",
				"energy": -0.19265,
				"method": "rhf"
			},
			{
				"type": "unocc",
				"energy": -0.02867,
				"method": "rhf"
			},
			{
				"type": "unocc",
				"energy": -0.01566,
				"method": "rhf"
			},
			{
				"type": "unocc",
				"energy": -0.00788,
				"method": "rhf"
			},
			{
				"type": "unocc",
				"energy": 0.0044,
				"method": "rhf"
			},
			{
				"type": "unocc",
				"energy": 0.03368,
				"method": "rhf"
			}
		],
		"cosmo_sigma_profile": { 
			"-0.025": 0.0,
			"-0.024": 0.0,
			"-0.023": 0.0,
			"-0.022": 0.0,
			"-0.021": 0.0,
			"-0.02": 0.0,
			"-0.019": 0.0,
			"-0.018": 0.0,
			"-0.017": 0.0,
			"-0.016": 0.0,
			"-0.015": 0.0,
			"-0.014": 0.0,
			"-0.013": 0.0,
			"-0.012": 0.0,
			"-0.011": 0.0,
			"-0.01": 0.0,
			"-0.009": 0.0,
			"-0.008": 0.10328624944,
			"-0.007": 4.03906184514,
			"-0.006": 11.8656742532,
			"-0.005": 15.2006802053,
			"-0.004": 26.419532965,
			"-0.003": 30.8631814245,
			"-0.002": 33.690808058,
			"-0.001": 39.7926499683,
			"0.0": 41.1607931943,
			"0.001": 31.1796324293,
			"0.002": 37.1061685977,
			"0.003": 48.8375463565,
			"0.004": 18.6540366579,
			"0.005": 14.2719115507,
			"0.006": 5.85279787784,
			"0.007": 3.59356317095,
			"0.008": 2.05086265839,
			"0.009": 0.436758100803,
			"0.01": 0.2947379237,
			"0.011": 0.0,
			"0.012": 0.0,
			"0.013": 0.0,
			"0.014": 0.0,
			"0.015": 0.0,
			"0.016": 0.0,
			"0.017": 0.0,
			"0.018": 0.0,
			"0.019": 0.0,
			"0.02": 0.0,
			"0.021": 0.0,
			"0.022": 0.0,
			"0.023": 0.0,
			"0.024": 0.0,
			"0.025": 0.0
		}
	}
}
