{
	 "smiles": "CC(C)CNC(=O)NC(=O)CCl", 
	 "Tm": 379.15, 
	 "num_atms": 25, 
	 "gaussian": { 
		 "optdone": 1, 
		 "sigma_profile": "yes", 
		 "theory": "DFT", 
		 "functional": "B3LYP", 
		 "basiset": "6-31G**", 
		 "properties": { 
			 "R2extent": 3579.8828, 
			 "electric_dipole_moment_norm": 4.62512701123, 
			 "electric_quadrupole_moment_norm": 5.75523708634, 
			 "total_energy": -994.766512592, 
			 "HOMO_LUMO_gap": 0.2276, 
			 "cosmo_polarized_energy": -15.4, 
			 "cosmo_cavitation_energy": 30.18, 
			 "cosmo_dispersion_energy": -20.7, 
			 "cosmo_repulsion_energy": 1.69, 
			 "cosmo_total_nonelectrostatic_energy": 11.17, 
			 "SMD_solvation_energy": 6.03 
		},
		"coords": [
			{
				"x": 0.9558453606,
				"y": 1.9686719431,
				"z": -0.854704906,
				"element": "C" 
			},
			{
				"x": 0.247914202,
				"y": 1.4886975906,
				"z": 0.418859681,
				"element": "C" 
			},
			{
				"x": 0.1196735842,
				"y": 2.6174016361,
				"z": 1.451020211,
				"element": "C" 
			},
			{
				"x": -1.1484604757,
				"y": 0.9098204313,
				"z": 0.1068327882,
				"element": "C" 
			},
			{
				"x": -1.1656448313,
				"y": -0.2386231827,
				"z": -0.7959083668,
				"element": "N" 
			},
			{
				"x": -0.7349219159,
				"y": -1.5184318584,
				"z": -0.5513830585,
				"element": "C" 
			},
			{
				"x": -0.5219796707,
				"y": -2.31862762,
				"z": -1.4507228777,
				"element": "O" 
			},
			{
				"x": -0.6120246368,
				"y": -1.8344691599,
				"z": 0.8148064435,
				"element": "N" 
			},
			{
				"x": -0.1266586218,
				"y": -2.9980357999,
				"z": 1.4081808398,
				"element": "C" 
			},
			{
				"x": -0.3071687309,
				"y": -3.1823913052,
				"z": 2.5978346248,
				"element": "O" 
			},
			{
				"x": 0.6578232208,
				"y": -3.9829329773,
				"z": 0.5566322989,
				"element": "C" 
			},
			{
				"x": 2.321966174,
				"y": -3.3331707357,
				"z": 0.2342996889,
				"element": "Cl" 
			},
			{
				"x": 0.3947523097,
				"y": 2.78109281,
				"z": -1.3339765325,
				"element": "H" 
			},
			{
				"x": 1.0724785706,
				"y": 1.1590498104,
				"z": -1.581646292,
				"element": "H" 
			},
			{
				"x": 1.9554230008,
				"y": 2.3492519994,
				"z": -0.6232147284,
				"element": "H" 
			},
			{
				"x": 0.8478964992,
				"y": 0.6815336636,
				"z": 0.8609443558,
				"element": "H" 
			},
			{
				"x": -0.3552453188,
				"y": 2.2698968376,
				"z": 2.3753858013,
				"element": "H" 
			},
			{
				"x": -0.4812225612,
				"y": 3.4463275805,
				"z": 1.0571731585,
				"element": "H" 
			},
			{
				"x": 1.1030943958,
				"y": 3.0188178808,
				"z": 1.7137083258,
				"element": "H" 
			},
			{
				"x": -1.7694729753,
				"y": 1.683124936,
				"z": -0.3597857618,
				"element": "H" 
			},
			{
				"x": -1.6637687065,
				"y": 0.6506138392,
				"z": 1.0409780925,
				"element": "H" 
			},
			{
				"x": -1.2104682938,
				"y": -0.0545083195,
				"z": -1.7882167613,
				"element": "H" 
			},
			{
				"x": -1.0350407534,
				"y": -1.218409073,
				"z": 1.4972956106,
				"element": "H" 
			},
			{
				"x": 0.1933425236,
				"y": -4.1467231383,
				"z": -0.4125364889,
				"element": "H" 
			},
			{
				"x": 0.7739676506,
				"y": -4.8968777887,
				"z": 1.1350438531,
				"element": "H" 
			}
		],
		 "valence_orbital": [ 
			{
				"type": "occ",
				"energy": -0.29917,
				"method": "rhf"
			},
			{
				"type": "occ",
				"energy": -0.29024,
				"method": "rhf"
			},
			{
				"type": "occ",
				"energy": -0.28,
				"method": "rhf"
			},
			{
				"type": "occ",
				"energy": -0.2709,
				"method": "rhf"
			},
			{
				"type": "occ",
				"energy": -0.26582,
				"method": "rhf"
			},
			{
				"type": "unocc",
				"energy": -0.03822,
				"method": "rhf"
			},
			{
				"type": "unocc",
				"energy": 0.02932,
				"method": "rhf"
			},
			{
				"type": "unocc",
				"energy": 0.04931,
				"method": "rhf"
			},
			{
				"type": "unocc",
				"energy": 0.07103,
				"method": "rhf"
			},
			{
				"type": "unocc",
				"energy": 0.07614,
				"method": "rhf"
			}
		],
		"cosmo_sigma_profile": { 
			"-0.025": 0.0,
			"-0.024": 0.0,
			"-0.023": 0.0,
			"-0.022": 0.0,
			"-0.021": 0.0,
			"-0.02": 0.0,
			"-0.019": 0.0,
			"-0.018": 0.0,
			"-0.017": 0.0,
			"-0.016": 0.0,
			"-0.015": 0.393696184892,
			"-0.014": 1.64631824676,
			"-0.013": 2.2727793966,
			"-0.012": 1.87207440974,
			"-0.011": 1.66289177836,
			"-0.01": 2.43207702524,
			"-0.009": 2.89927494998,
			"-0.008": 3.88508336543,
			"-0.007": 5.13029951043,
			"-0.006": 9.46947421973,
			"-0.005": 10.7190666778,
			"-0.004": 11.4725051678,
			"-0.003": 20.0534750876,
			"-0.002": 25.370232035,
			"-0.001": 22.4688693467,
			"0.0": 19.3492803039,
			"0.001": 21.7580255796,
			"0.002": 12.4988411348,
			"0.003": 6.46209127755,
			"0.004": 9.31887889252,
			"0.005": 11.0934308302,
			"0.006": 6.54075754962,
			"0.007": 3.27539014129,
			"0.008": 3.56925102318,
			"0.009": 2.96918027507,
			"0.01": 3.98356988552,
			"0.011": 6.11881834535,
			"0.012": 5.92384392373,
			"0.013": 3.11868906012,
			"0.014": 0.632745377519,
			"0.015": 0.0,
			"0.016": 0.0,
			"0.017": 0.0,
			"0.018": 0.0,
			"0.019": 0.0,
			"0.02": 0.0,
			"0.021": 0.0,
			"0.022": 0.0,
			"0.023": 0.0,
			"0.024": 0.0,
			"0.025": 0.0
		}
	}
}
