{
	 "smiles": "CN(C1CCN(C)CC1)C1=CC=C(N)C=C1", 
	 "Tm": 336.15, 
	 "num_atms": 37, 
	 "gaussian": { 
		 "optdone": 1, 
		 "sigma_profile": "yes", 
		 "theory": "DFT", 
		 "functional": "B3LYP", 
		 "basiset": "6-31G**", 
		 "properties": { 
			 "R2extent": 5281.8501, 
			 "electric_dipole_moment_norm": 1.81214020981, 
			 "electric_quadrupole_moment_norm": 14.2191128447, 
			 "total_energy": -672.272900446, 
			 "HOMO_LUMO_gap": 0.19783, 
			 "cosmo_polarized_energy": -10.22, 
			 "cosmo_cavitation_energy": 36.79, 
			 "cosmo_dispersion_energy": -26.03, 
			 "cosmo_repulsion_energy": 2.04, 
			 "cosmo_total_nonelectrostatic_energy": 12.8, 
			 "SMD_solvation_energy": 2.59 
		},
		"coords": [
			{
				"x": 1.9038814821,
				"y": 0.4734936886,
				"z": -0.1163299161,
				"element": "C" 
			},
			{
				"x": 0.8108155571,
				"y": -0.4819952536,
				"z": 0.0918928034,
				"element": "N" 
			},
			{
				"x": -0.3758255661,
				"y": -0.197784716,
				"z": -0.7411142199,
				"element": "C" 
			},
			{
				"x": -1.4591177857,
				"y": -1.2672892191,
				"z": -0.5516118295,
				"element": "C" 
			},
			{
				"x": -2.7390738693,
				"y": -0.8999332014,
				"z": -1.3278482254,
				"element": "C" 
			},
			{
				"x": -2.4439202152,
				"y": -0.0739053412,
				"z": -2.5033739426,
				"element": "N" 
			},
			{
				"x": -3.5754821778,
				"y": -0.0073762468,
				"z": -3.4087687105,
				"element": "C" 
			},
			{
				"x": -1.2033946207,
				"y": -0.4949791876,
				"z": -3.1472317818,
				"element": "C" 
			},
			{
				"x": 0.0030561397,
				"y": -0.1607876228,
				"z": -2.2425255364,
				"element": "C" 
			},
			{
				"x": 0.5353387633,
				"y": -0.6438406775,
				"z": 1.5009628335,
				"element": "C" 
			},
			{
				"x": -0.1244209027,
				"y": 0.3247805633,
				"z": 2.2715761884,
				"element": "C" 
			},
			{
				"x": -0.345619884,
				"y": 0.1333943983,
				"z": 3.6331040968,
				"element": "C" 
			},
			{
				"x": 0.1016894559,
				"y": -1.0339390003,
				"z": 4.275635953,
				"element": "C" 
			},
			{
				"x": -0.0633670451,
				"y": -1.2005178701,
				"z": 5.6550033021,
				"element": "N" 
			},
			{
				"x": 0.7695470222,
				"y": -2.001945924,
				"z": 3.5072523259,
				"element": "C" 
			},
			{
				"x": 0.9757468271,
				"y": -1.8056250298,
				"z": 2.1439215164,
				"element": "C" 
			},
			{
				"x": 1.6212724456,
				"y": 1.519879601,
				"z": 0.1036298207,
				"element": "H" 
			},
			{
				"x": 2.7373749335,
				"y": 0.2076655875,
				"z": 0.5386377386,
				"element": "H" 
			},
			{
				"x": 2.2609649197,
				"y": 0.429648424,
				"z": -1.1486259609,
				"element": "H" 
			},
			{
				"x": -0.8126689794,
				"y": 0.7842966203,
				"z": -0.482423045,
				"element": "H" 
			},
			{
				"x": -1.0542923901,
				"y": -2.2242348246,
				"z": -0.902812238,
				"element": "H" 
			},
			{
				"x": -1.7005031641,
				"y": -1.4022210265,
				"z": 0.5053836015,
				"element": "H" 
			},
			{
				"x": -3.2648531868,
				"y": -1.833086801,
				"z": -1.6128449113,
				"element": "H" 
			},
			{
				"x": -3.4281013651,
				"y": -0.3356270619,
				"z": -0.6853217057,
				"element": "H" 
			},
			{
				"x": -3.8493348534,
				"y": -0.9890666555,
				"z": -3.8450092244,
				"element": "H" 
			},
			{
				"x": -3.3585418004,
				"y": 0.6812200106,
				"z": -4.2321983823,
				"element": "H" 
			},
			{
				"x": -4.4533659988,
				"y": 0.3722771033,
				"z": -2.8740131937,
				"element": "H" 
			},
			{
				"x": -1.2159334953,
				"y": -1.5754520709,
				"z": -3.3956202796,
				"element": "H" 
			},
			{
				"x": -1.1106211924,
				"y": 0.0351432988,
				"z": -4.1010579397,
				"element": "H" 
			},
			{
				"x": 0.3927575725,
				"y": 0.8275200283,
				"z": -2.5051922916,
				"element": "H" 
			},
			{
				"x": 0.8027560468,
				"y": -0.8895177953,
				"z": -2.4192043632,
				"element": "H" 
			},
			{
				"x": -0.4767311416,
				"y": 1.2399435922,
				"z": 1.8034310545,
				"element": "H" 
			},
			{
				"x": -0.8608400786,
				"y": 0.897525185,
				"z": 4.2110246119,
				"element": "H" 
			},
			{
				"x": -0.8343177266,
				"y": -0.6835024365,
				"z": 6.0555647994,
				"element": "H" 
			},
			{
				"x": -0.0594709622,
				"y": -2.1614893911,
				"z": 5.9691885145,
				"element": "H" 
			},
			{
				"x": 1.1253343651,
				"y": -2.9124372653,
				"z": 3.9840934346,
				"element": "H" 
			},
			{
				"x": 1.4833628707,
				"y": -2.5604334822,
				"z": 1.5507251022,
				"element": "H" 
			}
		],
		 "valence_orbital": [ 
			{
				"type": "occ",
				"energy": -0.29425,
				"method": "rhf"
			},
			{
				"type": "occ",
				"energy": -0.24166,
				"method": "rhf"
			},
			{
				"type": "occ",
				"energy": -0.21022,
				"method": "rhf"
			},
			{
				"type": "occ",
				"energy": -0.19828,
				"method": "rhf"
			},
			{
				"type": "occ",
				"energy": -0.1917,
				"method": "rhf"
			},
			{
				"type": "unocc",
				"energy": 0.00613,
				"method": "rhf"
			},
			{
				"type": "unocc",
				"energy": 0.0225,
				"method": "rhf"
			},
			{
				"type": "unocc",
				"energy": 0.08338,
				"method": "rhf"
			},
			{
				"type": "unocc",
				"energy": 0.08521,
				"method": "rhf"
			},
			{
				"type": "unocc",
				"energy": 0.10063,
				"method": "rhf"
			}
		],
		"cosmo_sigma_profile": { 
			"-0.025": 0.0,
			"-0.024": 0.0,
			"-0.023": 0.0,
			"-0.022": 0.0,
			"-0.021": 0.0,
			"-0.02": 0.0,
			"-0.019": 0.0,
			"-0.018": 0.0,
			"-0.017": 0.0,
			"-0.016": 0.0,
			"-0.015": 0.0,
			"-0.014": 0.0,
			"-0.013": 0.0526202935148,
			"-0.012": 1.79262742357,
			"-0.011": 2.96083265441,
			"-0.01": 2.95873605517,
			"-0.009": 2.64053416484,
			"-0.008": 2.90081059481,
			"-0.007": 2.53348795326,
			"-0.006": 4.80357689407,
			"-0.005": 5.96063516007,
			"-0.004": 11.3264280674,
			"-0.003": 23.2398435364,
			"-0.002": 36.8669311996,
			"-0.001": 46.9708038902,
			"0.0": 45.315590271,
			"0.001": 21.2368844055,
			"0.002": 10.4577925155,
			"0.003": 10.7360036939,
			"0.004": 9.85679365516,
			"0.005": 9.33338366116,
			"0.006": 10.7361958804,
			"0.007": 7.90671910781,
			"0.008": 2.590216915,
			"0.009": 2.32742178939,
			"0.01": 1.73846552851,
			"0.011": 1.94480995614,
			"0.012": 1.84987525879,
			"0.013": 1.7887011915,
			"0.014": 1.41143546546,
			"0.015": 0.969495154668,
			"0.016": 0.103412693872,
			"0.017": 0.0,
			"0.018": 0.0,
			"0.019": 0.0,
			"0.02": 0.0,
			"0.021": 0.0,
			"0.022": 0.0,
			"0.023": 0.0,
			"0.024": 0.0,
			"0.025": 0.0
		}
	}
}
