{
	 "smiles": "COC(=O)C1CCCC2=C1NC1=CC(OC)=CC=C21", 
	 "Tm": 365.15, 
	 "num_atms": 36, 
	 "gaussian": { 
		 "optdone": 1, 
		 "sigma_profile": "yes", 
		 "theory": "DFT", 
		 "functional": "B3LYP", 
		 "basiset": "6-31G**", 
		 "properties": { 
			 "R2extent": 6589.8385, 
			 "electric_dipole_moment_norm": 3.54327351894, 
			 "electric_quadrupole_moment_norm": 19.2501402143, 
			 "total_energy": -862.282540122, 
			 "HOMO_LUMO_gap": 0.17752, 
			 "cosmo_polarized_energy": -13.27, 
			 "cosmo_cavitation_energy": 38.07, 
			 "cosmo_dispersion_energy": -27.48, 
			 "cosmo_repulsion_energy": 2.12, 
			 "cosmo_total_nonelectrostatic_energy": 12.71, 
			 "SMD_solvation_energy": 7.4 
		},
		"coords": [
			{
				"x": -2.3525819636,
				"y": 2.3520982125,
				"z": -3.050867116,
				"element": "C" 
			},
			{
				"x": -2.0278829666,
				"y": 1.9671920248,
				"z": -1.7027027437,
				"element": "O" 
			},
			{
				"x": -0.7869174021,
				"y": 2.3247503633,
				"z": -1.2801530158,
				"element": "C" 
			},
			{
				"x": -0.0115115778,
				"y": 2.9512392077,
				"z": -1.9662726426,
				"element": "O" 
			},
			{
				"x": -0.5445309433,
				"y": 1.8303236611,
				"z": 0.1475439319,
				"element": "C" 
			},
			{
				"x": 0.769625898,
				"y": 2.3846760374,
				"z": 0.740088537,
				"element": "C" 
			},
			{
				"x": 2.0042487686,
				"y": 1.5689308859,
				"z": 0.3210639052,
				"element": "C" 
			},
			{
				"x": 1.9180810206,
				"y": 0.1069628864,
				"z": 0.7985581714,
				"element": "C" 
			},
			{
				"x": 0.5615615293,
				"y": -0.4589532399,
				"z": 0.4923068897,
				"element": "C" 
			},
			{
				"x": -0.5226963826,
				"y": 0.3268794442,
				"z": 0.1947486387,
				"element": "C" 
			},
			{
				"x": -1.6382908764,
				"y": -0.4731444698,
				"z": -0.0223629548,
				"element": "N" 
			},
			{
				"x": -1.2705188414,
				"y": -1.7971205104,
				"z": 0.103224393,
				"element": "C" 
			},
			{
				"x": -2.0416756433,
				"y": -2.9577108842,
				"z": -0.0525212438,
				"element": "C" 
			},
			{
				"x": -1.3989553742,
				"y": -4.1775854506,
				"z": 0.153990973,
				"element": "C" 
			},
			{
				"x": -2.0116181496,
				"y": -5.3981383313,
				"z": 0.0413719917,
				"element": "O" 
			},
			{
				"x": -3.3836966166,
				"y": -5.4256500293,
				"z": -0.3024952768,
				"element": "C" 
			},
			{
				"x": -0.029067173,
				"y": -4.2334976273,
				"z": 0.5057872862,
				"element": "C" 
			},
			{
				"x": 0.7176900795,
				"y": -3.0769826627,
				"z": 0.6528103785,
				"element": "C" 
			},
			{
				"x": 0.1073519265,
				"y": -1.8262092824,
				"z": 0.4479279725,
				"element": "C" 
			},
			{
				"x": -1.6709023783,
				"y": 1.8765889031,
				"z": -3.760254842,
				"element": "H" 
			},
			{
				"x": -3.3752720702,
				"y": 2.0137079707,
				"z": -3.2172701124,
				"element": "H" 
			},
			{
				"x": -2.2833909597,
				"y": 3.4361539379,
				"z": -3.1668166899,
				"element": "H" 
			},
			{
				"x": -1.3973703549,
				"y": 2.197361525,
				"z": 0.7373915496,
				"element": "H" 
			},
			{
				"x": 0.8872397081,
				"y": 3.4276184704,
				"z": 0.4334038352,
				"element": "H" 
			},
			{
				"x": 0.6786196374,
				"y": 2.3713136398,
				"z": 1.8331270149,
				"element": "H" 
			},
			{
				"x": 2.0889925789,
				"y": 1.5960604388,
				"z": -0.7709410355,
				"element": "H" 
			},
			{
				"x": 2.906836148,
				"y": 2.0427467625,
				"z": 0.7228904296,
				"element": "H" 
			},
			{
				"x": 2.120666486,
				"y": 0.0555101184,
				"z": 1.8792660582,
				"element": "H" 
			},
			{
				"x": 2.7029111398,
				"y": -0.4905464222,
				"z": 0.3175046976,
				"element": "H" 
			},
			{
				"x": -2.49812228,
				"y": -0.1318048463,
				"z": -0.421819664,
				"element": "H" 
			},
			{
				"x": -3.0905461202,
				"y": -2.8972038874,
				"z": -0.3176597289,
				"element": "H" 
			},
			{
				"x": -3.5665261648,
				"y": -4.9718452959,
				"z": -1.2862396586,
				"element": "H" 
			},
			{
				"x": -4.0016999475,
				"y": -4.9103339032,
				"z": 0.4455198598,
				"element": "H" 
			},
			{
				"x": -3.6684910704,
				"y": -6.4787884367,
				"z": -0.3368002283,
				"element": "H" 
			},
			{
				"x": 0.4126617779,
				"y": -5.2129981153,
				"z": 0.6552019039,
				"element": "H" 
			},
			{
				"x": 1.7682785579,
				"y": -3.1416010949,
				"z": 0.9222485355,
				"element": "H" 
			}
		],
		 "valence_orbital": [ 
			{
				"type": "occ",
				"energy": -0.29379,
				"method": "rhf"
			},
			{
				"type": "occ",
				"energy": -0.27845,
				"method": "rhf"
			},
			{
				"type": "occ",
				"energy": -0.25159,
				"method": "rhf"
			},
			{
				"type": "occ",
				"energy": -0.2057,
				"method": "rhf"
			},
			{
				"type": "occ",
				"energy": -0.18198,
				"method": "rhf"
			},
			{
				"type": "unocc",
				"energy": -0.00446,
				"method": "rhf"
			},
			{
				"type": "unocc",
				"energy": 0.01403,
				"method": "rhf"
			},
			{
				"type": "unocc",
				"energy": 0.03744,
				"method": "rhf"
			},
			{
				"type": "unocc",
				"energy": 0.07812,
				"method": "rhf"
			},
			{
				"type": "unocc",
				"energy": 0.08875,
				"method": "rhf"
			}
		],
		"cosmo_sigma_profile": { 
			"-0.025": 0.0,
			"-0.024": 0.0,
			"-0.023": 0.0,
			"-0.022": 0.0,
			"-0.021": 0.0,
			"-0.02": 0.0,
			"-0.019": 0.0,
			"-0.018": 0.0,
			"-0.017": 0.0,
			"-0.016": 0.0,
			"-0.015": 0.0,
			"-0.014": 0.0577420148544,
			"-0.013": 0.796376533825,
			"-0.012": 0.860527748899,
			"-0.011": 1.16927904549,
			"-0.01": 0.505627238064,
			"-0.009": 1.05776468278,
			"-0.008": 1.34186743364,
			"-0.007": 2.77225529127,
			"-0.006": 12.6789511904,
			"-0.005": 21.4560127456,
			"-0.004": 25.6012585361,
			"-0.003": 35.3130536912,
			"-0.002": 31.2489041923,
			"-0.001": 27.3235251817,
			"0.0": 24.236313788,
			"0.001": 17.4222185815,
			"0.002": 10.2003484504,
			"0.003": 11.1110320799,
			"0.004": 12.4963487118,
			"0.005": 15.6960323667,
			"0.006": 19.403927358,
			"0.007": 9.90218044083,
			"0.008": 3.35308674419,
			"0.009": 2.9076751148,
			"0.01": 3.65077711395,
			"0.011": 4.61269121237,
			"0.012": 2.86398699158,
			"0.013": 0.0345085668303,
			"0.014": 0.0,
			"0.015": 0.0,
			"0.016": 0.0,
			"0.017": 0.0,
			"0.018": 0.0,
			"0.019": 0.0,
			"0.02": 0.0,
			"0.021": 0.0,
			"0.022": 0.0,
			"0.023": 0.0,
			"0.024": 0.0,
			"0.025": 0.0
		}
	}
}
