{
	 "smiles": "CC(=O)N=C1N(C(C)=O)C2=CC3=C(C=C2C=C1C1=CC=CC=C1)C=C(C1=CC=CC=C1)C(=NC(C)=O)N3C(C)=O", 
	 "Tm": 512.15, 
	 "num_atms": 66, 
	 "gaussian": { 
		 "optdone": 1, 
		 "sigma_profile": "yes", 
		 "theory": "DFT", 
		 "functional": "B3LYP", 
		 "basiset": "6-31G**", 
		 "properties": { 
			 "R2extent": 28216.0799, 
			 "electric_dipole_moment_norm": 6.64333183651, 
			 "electric_quadrupole_moment_norm": 24.0093537268, 
			 "total_energy": -1754.98648035, 
			 "HOMO_LUMO_gap": 0.12854, 
			 "cosmo_polarized_energy": -28.5, 
			 "cosmo_cavitation_energy": 69.78, 
			 "cosmo_dispersion_energy": -45.44, 
			 "cosmo_repulsion_energy": 3.32, 
			 "cosmo_total_nonelectrostatic_energy": 27.66, 
			 "SMD_solvation_energy": 12.34 
		},
		"coords": [
			{
				"x": 5.4213206439,
				"y": 0.7128682158,
				"z": -5.2858143968,
				"element": "C" 
			},
			{
				"x": 4.1584910907,
				"y": 0.2302859575,
				"z": -4.5996932667,
				"element": "C" 
			},
			{
				"x": 3.6393191839,
				"y": -0.8506098864,
				"z": -4.8842477439,
				"element": "O" 
			},
			{
				"x": 3.6306375175,
				"y": 1.1464598706,
				"z": -3.7244067063,
				"element": "N" 
			},
			{
				"x": 2.6861955942,
				"y": 0.9845644058,
				"z": -2.8340345921,
				"element": "C" 
			},
			{
				"x": 2.3610209933,
				"y": -0.2096168741,
				"z": -2.174626157,
				"element": "N" 
			},
			{
				"x": 3.054394571,
				"y": -1.4950639419,
				"z": -2.5107283434,
				"element": "C" 
			},
			{
				"x": 4.5208567177,
				"y": -1.5267036461,
				"z": -2.1724087565,
				"element": "C" 
			},
			{
				"x": 2.3922851185,
				"y": -2.45306152,
				"z": -2.7952078187,
				"element": "O" 
			},
			{
				"x": 1.4115323215,
				"y": -0.2819347707,
				"z": -1.1351196939,
				"element": "C" 
			},
			{
				"x": 1.2008130037,
				"y": -1.4665218146,
				"z": -0.4053485371,
				"element": "C" 
			},
			{
				"x": 0.2751551673,
				"y": -1.4988471658,
				"z": 0.6359634428,
				"element": "C" 
			},
			{
				"x": -0.5106829466,
				"y": -0.3506870121,
				"z": 0.9327770446,
				"element": "C" 
			},
			{
				"x": -0.2717029019,
				"y": 0.8216403772,
				"z": 0.2220462356,
				"element": "C" 
			},
			{
				"x": 0.6916370342,
				"y": 0.8899934546,
				"z": -0.7915910343,
				"element": "C" 
			},
			{
				"x": 0.9708168241,
				"y": 2.1034226524,
				"z": -1.4901357216,
				"element": "C" 
			},
			{
				"x": 1.9265900614,
				"y": 2.1831725511,
				"z": -2.4553291051,
				"element": "C" 
			},
			{
				"x": 2.1922098124,
				"y": 3.4846943563,
				"z": -3.1251757628,
				"element": "C" 
			},
			{
				"x": 2.3641674692,
				"y": 4.6371947138,
				"z": -2.3425259136,
				"element": "C" 
			},
			{
				"x": 2.5466442524,
				"y": 5.8867029734,
				"z": -2.9367840754,
				"element": "C" 
			},
			{
				"x": 2.5540233917,
				"y": 6.0042810768,
				"z": -4.3263228246,
				"element": "C" 
			},
			{
				"x": 2.3809336797,
				"y": 4.8642145949,
				"z": -5.1158933491,
				"element": "C" 
			},
			{
				"x": 2.2070881142,
				"y": 3.6154066212,
				"z": -4.5238944489,
				"element": "C" 
			},
			{
				"x": -1.5234271434,
				"y": -0.4295092861,
				"z": 1.9505414457,
				"element": "C" 
			},
			{
				"x": -1.8941921574,
				"y": -1.5994541317,
				"z": 2.5346088253,
				"element": "C" 
			},
			{
				"x": -3.0125517898,
				"y": -1.6266831606,
				"z": 3.5139401106,
				"element": "C" 
			},
			{
				"x": -4.2160304141,
				"y": -0.9628811027,
				"z": 3.2137746599,
				"element": "C" 
			},
			{
				"x": -5.2495656376,
				"y": -0.9003040803,
				"z": 4.1474973088,
				"element": "C" 
			},
			{
				"x": -5.0981923703,
				"y": -1.5008074952,
				"z": 5.3986147765,
				"element": "C" 
			},
			{
				"x": -3.9104588513,
				"y": -2.1668808785,
				"z": 5.7065229829,
				"element": "C" 
			},
			{
				"x": -2.8759663982,
				"y": -2.2307619456,
				"z": 4.7746220315,
				"element": "C" 
			},
			{
				"x": -1.2115897042,
				"y": -2.8294569093,
				"z": 2.0824617716,
				"element": "C" 
			},
			{
				"x": -1.6243083351,
				"y": -4.0336649472,
				"z": 2.1448766075,
				"element": "N" 
			},
			{
				"x": -2.6282737202,
				"y": -4.6851666208,
				"z": 2.8474979288,
				"element": "C" 
			},
			{
				"x": -3.8862014437,
				"y": -4.952906576,
				"z": 2.0470886712,
				"element": "C" 
			},
			{
				"x": -2.438713311,
				"y": -5.1177465461,
				"z": 3.9729603022,
				"element": "O" 
			},
			{
				"x": 0.0643661292,
				"y": -2.6434036951,
				"z": 1.4507095636,
				"element": "N" 
			},
			{
				"x": 1.1208630083,
				"y": -3.5755144352,
				"z": 1.7123652353,
				"element": "C" 
			},
			{
				"x": 1.0095154608,
				"y": -4.4999019415,
				"z": 2.9107601069,
				"element": "C" 
			},
			{
				"x": 2.1307977057,
				"y": -3.5792257722,
				"z": 1.0353090998,
				"element": "O" 
			},
			{
				"x": 6.1562230849,
				"y": 1.0444952904,
				"z": -4.5449834236,
				"element": "H" 
			},
			{
				"x": 5.8385254451,
				"y": -0.0846395256,
				"z": -5.9016082517,
				"element": "H" 
			},
			{
				"x": 5.1929741694,
				"y": 1.5809129228,
				"z": -5.9128278744,
				"element": "H" 
			},
			{
				"x": 4.9981485919,
				"y": -0.548916509,
				"z": -2.2349954336,
				"element": "H" 
			},
			{
				"x": 5.0208005093,
				"y": -2.2438400661,
				"z": -2.8235161053,
				"element": "H" 
			},
			{
				"x": 4.5948624073,
				"y": -1.8802241814,
				"z": -1.1359707501,
				"element": "H" 
			},
			{
				"x": 1.7402559806,
				"y": -2.3644719505,
				"z": -0.6378647667,
				"element": "H" 
			},
			{
				"x": -0.8469113639,
				"y": 1.7127913587,
				"z": 0.4587111732,
				"element": "H" 
			},
			{
				"x": 0.3891018767,
				"y": 2.9862340619,
				"z": -1.2403201623,
				"element": "H" 
			},
			{
				"x": 2.3762652187,
				"y": 4.5479707268,
				"z": -1.2597936953,
				"element": "H" 
			},
			{
				"x": 2.688313739,
				"y": 6.7643605512,
				"z": -2.3125442269,
				"element": "H" 
			},
			{
				"x": 2.6960746599,
				"y": 6.9751067379,
				"z": -4.7923596518,
				"element": "H" 
			},
			{
				"x": 2.3798047539,
				"y": 4.9482812952,
				"z": -6.1989459196,
				"element": "H" 
			},
			{
				"x": 2.0722988472,
				"y": 2.736580381,
				"z": -5.1433147139,
				"element": "H" 
			},
			{
				"x": -2.0316553499,
				"y": 0.4882442869,
				"z": 2.2339366187,
				"element": "H" 
			},
			{
				"x": -4.3415516364,
				"y": -0.5065235511,
				"z": 2.2360189251,
				"element": "H" 
			},
			{
				"x": -6.1737872433,
				"y": -0.3888418902,
				"z": 3.894524437,
				"element": "H" 
			},
			{
				"x": -5.9029759608,
				"y": -1.4558651141,
				"z": 6.1265253999,
				"element": "H" 
			},
			{
				"x": -3.7862132135,
				"y": -2.6412284985,
				"z": 6.675218571,
				"element": "H" 
			},
			{
				"x": -1.9646058622,
				"y": -2.7626003421,
				"z": 5.0228400322,
				"element": "H" 
			},
			{
				"x": -4.4171738818,
				"y": -4.0107581225,
				"z": 1.8725737072,
				"element": "H" 
			},
			{
				"x": -4.5286329735,
				"y": -5.6356555605,
				"z": 2.6043823003,
				"element": "H" 
			},
			{
				"x": -3.6383829806,
				"y": -5.3790561529,
				"z": 1.0705117146,
				"element": "H" 
			},
			{
				"x": 0.559765168,
				"y": -5.4494531272,
				"z": 2.6126722991,
				"element": "H" 
			},
			{
				"x": 0.4148424755,
				"y": -4.1070307629,
				"z": 3.7345852862,
				"element": "H" 
			},
			{
				"x": 2.0351157965,
				"y": -4.687457924,
				"z": 3.2338946075,
				"element": "H" 
			}
		],
		 "valence_orbital": [ 
			{
				"type": "occ",
				"energy": -0.2524,
				"method": "rhf"
			},
			{
				"type": "occ",
				"energy": -0.24719,
				"method": "rhf"
			},
			{
				"type": "occ",
				"energy": -0.23475,
				"method": "rhf"
			},
			{
				"type": "occ",
				"energy": -0.23078,
				"method": "rhf"
			},
			{
				"type": "occ",
				"energy": -0.21335,
				"method": "rhf"
			},
			{
				"type": "unocc",
				"energy": -0.08481,
				"method": "rhf"
			},
			{
				"type": "unocc",
				"energy": -0.07302,
				"method": "rhf"
			},
			{
				"type": "unocc",
				"energy": -0.03589,
				"method": "rhf"
			},
			{
				"type": "unocc",
				"energy": -0.03336,
				"method": "rhf"
			},
			{
				"type": "unocc",
				"energy": -0.02107,
				"method": "rhf"
			}
		],
		"cosmo_sigma_profile": { 
			"-0.025": 0.0,
			"-0.024": 0.0,
			"-0.023": 0.0,
			"-0.022": 0.0,
			"-0.021": 0.0,
			"-0.02": 0.0,
			"-0.019": 0.0,
			"-0.018": 0.0,
			"-0.017": 0.0,
			"-0.016": 0.0,
			"-0.015": 0.0,
			"-0.014": 0.0,
			"-0.013": 0.0,
			"-0.012": 0.0,
			"-0.011": 0.0,
			"-0.01": 0.0,
			"-0.009": 1.84902856418,
			"-0.008": 6.63903259399,
			"-0.007": 8.26676045767,
			"-0.006": 27.8392796522,
			"-0.005": 46.2735400478,
			"-0.004": 56.552615752,
			"-0.003": 51.9184690118,
			"-0.002": 52.8893371867,
			"-0.001": 51.2348706638,
			"0.0": 46.9120630119,
			"0.001": 36.8427333794,
			"0.002": 26.6227974217,
			"0.003": 23.0653642732,
			"0.004": 24.3610063398,
			"0.005": 22.5524790057,
			"0.006": 13.4938169359,
			"0.007": 8.87287224911,
			"0.008": 5.58579102921,
			"0.009": 8.76605152369,
			"0.01": 12.2871137202,
			"0.011": 7.60731829232,
			"0.012": 8.63213864735,
			"0.013": 6.51648919471,
			"0.014": 2.14618882839,
			"0.015": 0.207224371269,
			"0.016": 0.0,
			"0.017": 0.0,
			"0.018": 0.0,
			"0.019": 0.0,
			"0.02": 0.0,
			"0.021": 0.0,
			"0.022": 0.0,
			"0.023": 0.0,
			"0.024": 0.0,
			"0.025": 0.0
		}
	}
}
