{
	 "smiles": "CC(=O)C1=CC=C(OCC2=CC=C(F)C=C2)C=C1", 
	 "Tm": 352.65, 
	 "num_atms": 31, 
	 "gaussian": { 
		 "optdone": 1, 
		 "sigma_profile": "yes", 
		 "theory": "DFT", 
		 "functional": "B3LYP", 
		 "basiset": "6-31G**", 
		 "properties": { 
			 "R2extent": 6580.2909, 
			 "electric_dipole_moment_norm": 3.35053811947, 
			 "electric_quadrupole_moment_norm": 16.9701994255, 
			 "total_energy": -829.710216851, 
			 "HOMO_LUMO_gap": 0.18572, 
			 "cosmo_polarized_energy": -11.98, 
			 "cosmo_cavitation_energy": 36.05, 
			 "cosmo_dispersion_energy": -25.35, 
			 "cosmo_repulsion_energy": 1.93, 
			 "cosmo_total_nonelectrostatic_energy": 12.63, 
			 "SMD_solvation_energy": 7.44 
		},
		"coords": [
			{
				"x": -5.1387670615,
				"y": -1.0865604917,
				"z": 1.3176277451,
				"element": "C" 
			},
			{
				"x": -3.9187868329,
				"y": -0.2250165286,
				"z": 1.606702727,
				"element": "C" 
			},
			{
				"x": -3.8796198156,
				"y": 0.4721568206,
				"z": 2.6114788674,
				"element": "O" 
			},
			{
				"x": -2.7778574842,
				"y": -0.2475923421,
				"z": 0.6441329571,
				"element": "C" 
			},
			{
				"x": -2.7706177342,
				"y": -1.0267847277,
				"z": -0.5265510944,
				"element": "C" 
			},
			{
				"x": -1.6830258679,
				"y": -1.0075305346,
				"z": -1.3880029394,
				"element": "C" 
			},
			{
				"x": -0.5693640239,
				"y": -0.2039878001,
				"z": -1.0972518854,
				"element": "C" 
			},
			{
				"x": 0.4368381466,
				"y": -0.2490452842,
				"z": -2.017681184,
				"element": "O" 
			},
			{
				"x": 1.560975005,
				"y": 0.6222006824,
				"z": -1.8790906424,
				"element": "C" 
			},
			{
				"x": 2.5753676297,
				"y": 0.1618535356,
				"z": -0.8509127781,
				"element": "C" 
			},
			{
				"x": 3.334886259,
				"y": 1.0992874884,
				"z": -0.1411941429,
				"element": "C" 
			},
			{
				"x": 4.3164135089,
				"y": 0.6922849506,
				"z": 0.7631539197,
				"element": "C" 
			},
			{
				"x": 4.5206070386,
				"y": -0.6691955419,
				"z": 0.9533659695,
				"element": "C" 
			},
			{
				"x": 5.4619680578,
				"y": -1.0736898747,
				"z": 1.8304234706,
				"element": "F" 
			},
			{
				"x": 3.7791101863,
				"y": -1.6267676171,
				"z": 0.2692275366,
				"element": "C" 
			},
			{
				"x": 2.8091033859,
				"y": -1.2023544738,
				"z": -0.6372105798,
				"element": "C" 
			},
			{
				"x": -0.5552692325,
				"y": 0.5736990329,
				"z": 0.0706208131,
				"element": "C" 
			},
			{
				"x": -1.6548755902,
				"y": 0.5449214271,
				"z": 0.9217713128,
				"element": "C" 
			},
			{
				"x": -4.8679941496,
				"y": -2.1465250214,
				"z": 1.2570173916,
				"element": "H" 
			},
			{
				"x": -5.5978664966,
				"y": -0.811939136,
				"z": 0.3613911188,
				"element": "H" 
			},
			{
				"x": -5.8630239934,
				"y": -0.9441753696,
				"z": 2.1200976536,
				"element": "H" 
			},
			{
				"x": -3.6217166946,
				"y": -1.6531857254,
				"z": -0.773892482,
				"element": "H" 
			},
			{
				"x": -1.6707674173,
				"y": -1.5994937378,
				"z": -2.2971699328,
				"element": "H" 
			},
			{
				"x": 1.2280349273,
				"y": 1.6457341243,
				"z": -1.6647983433,
				"element": "H" 
			},
			{
				"x": 2.0096259587,
				"y": 0.6266129213,
				"z": -2.8782575109,
				"element": "H" 
			},
			{
				"x": 3.161218196,
				"y": 2.1621367491,
				"z": -0.2922398073,
				"element": "H" 
			},
			{
				"x": 4.9100055864,
				"y": 1.4077510871,
				"z": 1.3216734092,
				"element": "H" 
			},
			{
				"x": 3.9671490037,
				"y": -2.6794275042,
				"z": 0.4508769119,
				"element": "H" 
			},
			{
				"x": 2.2181571994,
				"y": -1.9345961384,
				"z": -1.1780451041,
				"element": "H" 
			},
			{
				"x": 0.3063866458,
				"y": 1.1767399981,
				"z": 0.3284290233,
				"element": "H" 
			},
			{
				"x": -1.6631943409,
				"y": 1.1372890312,
				"z": 1.8308075993,
				"element": "H" 
			}
		],
		 "valence_orbital": [ 
			{
				"type": "occ",
				"energy": -0.26864,
				"method": "rhf"
			},
			{
				"type": "occ",
				"energy": -0.26169,
				"method": "rhf"
			},
			{
				"type": "occ",
				"energy": -0.2478,
				"method": "rhf"
			},
			{
				"type": "occ",
				"energy": -0.24082,
				"method": "rhf"
			},
			{
				"type": "occ",
				"energy": -0.23051,
				"method": "rhf"
			},
			{
				"type": "unocc",
				"energy": -0.04479,
				"method": "rhf"
			},
			{
				"type": "unocc",
				"energy": -0.02094,
				"method": "rhf"
			},
			{
				"type": "unocc",
				"energy": -0.01393,
				"method": "rhf"
			},
			{
				"type": "unocc",
				"energy": -0.00578,
				"method": "rhf"
			},
			{
				"type": "unocc",
				"energy": 0.05031,
				"method": "rhf"
			}
		],
		"cosmo_sigma_profile": { 
			"-0.025": 0.0,
			"-0.024": 0.0,
			"-0.023": 0.0,
			"-0.022": 0.0,
			"-0.021": 0.0,
			"-0.02": 0.0,
			"-0.019": 0.0,
			"-0.018": 0.0,
			"-0.017": 0.0,
			"-0.016": 0.0,
			"-0.015": 0.0,
			"-0.014": 0.0,
			"-0.013": 0.0,
			"-0.012": 0.0,
			"-0.011": 0.0,
			"-0.01": 0.0,
			"-0.009": 0.0,
			"-0.008": 0.880282814869,
			"-0.007": 10.1830416677,
			"-0.006": 22.2050610181,
			"-0.005": 24.5206283215,
			"-0.004": 22.445520582,
			"-0.003": 18.4885845733,
			"-0.002": 17.8474515852,
			"-0.001": 18.778796589,
			"0.0": 19.1196516176,
			"0.001": 21.2541104762,
			"0.002": 23.983693481,
			"0.003": 27.1568378352,
			"0.004": 31.2881472955,
			"0.005": 7.61029058645,
			"0.006": 2.65062832445,
			"0.007": 2.90668873754,
			"0.008": 2.48334957567,
			"0.009": 2.62104594467,
			"0.01": 1.71137059144,
			"0.011": 2.8728057629,
			"0.012": 3.8292939066,
			"0.013": 2.682117802,
			"0.014": 0.673870167081,
			"0.015": 0.0,
			"0.016": 0.0,
			"0.017": 0.0,
			"0.018": 0.0,
			"0.019": 0.0,
			"0.02": 0.0,
			"0.021": 0.0,
			"0.022": 0.0,
			"0.023": 0.0,
			"0.024": 0.0,
			"0.025": 0.0
		}
	}
}
