{
	 "smiles": "OC(CNC1CCCCC1)CS(O)(=O)=O", 
	 "Tm": 545.15, 
	 "num_atms": 34, 
	 "gaussian": { 
		 "optdone": 1, 
		 "sigma_profile": "yes", 
		 "theory": "DFT", 
		 "functional": "B3LYP", 
		 "basiset": "6-31G**", 
		 "properties": { 
			 "R2extent": 5041.1905, 
			 "electric_dipole_moment_norm": 4.08683531599, 
			 "electric_quadrupole_moment_norm": 15.6049486926, 
			 "total_energy": -1108.17147091, 
			 "HOMO_LUMO_gap": 0.27234, 
			 "cosmo_polarized_energy": -20.37, 
			 "cosmo_cavitation_energy": 35.32, 
			 "cosmo_dispersion_energy": -25.5, 
			 "cosmo_repulsion_energy": 1.98, 
			 "cosmo_total_nonelectrostatic_energy": 11.8, 
			 "SMD_solvation_energy": 3.42 
		},
		"coords": [
			{
				"x": 0.94895035,
				"y": 2.4832040514,
				"z": 2.8488128289,
				"element": "O" 
			},
			{
				"x": 0.2911646389,
				"y": 2.0895796332,
				"z": 1.6572962244,
				"element": "C" 
			},
			{
				"x": -0.1153899879,
				"y": 0.6071035464,
				"z": 1.6820173146,
				"element": "C" 
			},
			{
				"x": -0.8525646891,
				"y": 0.2515648809,
				"z": 0.4757295059,
				"element": "N" 
			},
			{
				"x": -1.049082411,
				"y": -1.1960704112,
				"z": 0.2679793735,
				"element": "C" 
			},
			{
				"x": 0.2277731623,
				"y": -1.847435195,
				"z": -0.3242344668,
				"element": "C" 
			},
			{
				"x": 0.1949568249,
				"y": -1.8512023266,
				"z": -1.8573173907,
				"element": "C" 
			},
			{
				"x": -0.9627637998,
				"y": -2.7271863472,
				"z": -2.3909155056,
				"element": "C" 
			},
			{
				"x": -2.1783092034,
				"y": -2.7202677728,
				"z": -1.4324136229,
				"element": "C" 
			},
			{
				"x": -2.2644187742,
				"y": -1.3944816588,
				"z": -0.6661789912,
				"element": "C" 
			},
			{
				"x": 1.1974332808,
				"y": 2.4580466012,
				"z": 0.4813690546,
				"element": "C" 
			},
			{
				"x": 2.9135017291,
				"y": 1.8872786162,
				"z": 0.6416022497,
				"element": "S" 
			},
			{
				"x": 3.3344329389,
				"y": 2.0904135331,
				"z": -0.9458484424,
				"element": "O" 
			},
			{
				"x": 3.7412237021,
				"y": 2.8240267822,
				"z": 1.398895733,
				"element": "O" 
			},
			{
				"x": 2.9440484271,
				"y": 0.4568660399,
				"z": 0.9363236732,
				"element": "O" 
			},
			{
				"x": 0.4787604723,
				"y": 2.0971367323,
				"z": 3.5993692308,
				"element": "H" 
			},
			{
				"x": -0.6267895757,
				"y": 2.6881359772,
				"z": 1.5065480549,
				"element": "H" 
			},
			{
				"x": -0.6947050519,
				"y": 0.4320821386,
				"z": 2.6116972403,
				"element": "H" 
			},
			{
				"x": 0.7873652558,
				"y": -0.0024325974,
				"z": 1.7493462145,
				"element": "H" 
			},
			{
				"x": -1.7650582463,
				"y": 0.7024099735,
				"z": 0.5000674077,
				"element": "H" 
			},
			{
				"x": -1.2732857213,
				"y": -1.694207403,
				"z": 1.228948649,
				"element": "H" 
			},
			{
				"x": 1.1167687039,
				"y": -1.3229278108,
				"z": 0.0384508057,
				"element": "H" 
			},
			{
				"x": 0.3051027828,
				"y": -2.8796909467,
				"z": 0.0412983154,
				"element": "H" 
			},
			{
				"x": 0.0744537276,
				"y": -0.8169247303,
				"z": -2.2021426712,
				"element": "H" 
			},
			{
				"x": 1.1522070904,
				"y": -2.1976639368,
				"z": -2.2612041757,
				"element": "H" 
			},
			{
				"x": -0.6192048032,
				"y": -3.7587252273,
				"z": -2.5330388627,
				"element": "H" 
			},
			{
				"x": -1.2674378622,
				"y": -2.3664079234,
				"z": -3.3807381815,
				"element": "H" 
			},
			{
				"x": -3.1050839232,
				"y": -2.9013804643,
				"z": -1.9877194274,
				"element": "H" 
			},
			{
				"x": -2.0923652351,
				"y": -3.5418786751,
				"z": -0.7095131038,
				"element": "H" 
			},
			{
				"x": -2.2855886312,
				"y": -0.5649873698,
				"z": -1.386416323,
				"element": "H" 
			},
			{
				"x": -3.1944294833,
				"y": -1.3341179259,
				"z": -0.0874888256,
				"element": "H" 
			},
			{
				"x": 1.2768165506,
				"y": 3.5403323595,
				"z": 0.3611319893,
				"element": "H" 
			},
			{
				"x": 0.8057559481,
				"y": 2.0008149341,
				"z": -0.4298505738,
				"element": "H" 
			},
			{
				"x": 4.1861618131,
				"y": 2.5588929228,
				"z": -0.9330633013,
				"element": "H" 
			}
		],
		 "valence_orbital": [ 
			{
				"type": "occ",
				"energy": -0.30102,
				"method": "rhf"
			},
			{
				"type": "occ",
				"energy": -0.29638,
				"method": "rhf"
			},
			{
				"type": "occ",
				"energy": -0.29418,
				"method": "rhf"
			},
			{
				"type": "occ",
				"energy": -0.27981,
				"method": "rhf"
			},
			{
				"type": "occ",
				"energy": -0.23228,
				"method": "rhf"
			},
			{
				"type": "unocc",
				"energy": 0.04006,
				"method": "rhf"
			},
			{
				"type": "unocc",
				"energy": 0.05568,
				"method": "rhf"
			},
			{
				"type": "unocc",
				"energy": 0.06503,
				"method": "rhf"
			},
			{
				"type": "unocc",
				"energy": 0.07456,
				"method": "rhf"
			},
			{
				"type": "unocc",
				"energy": 0.08749,
				"method": "rhf"
			}
		],
		"cosmo_sigma_profile": { 
			"-0.025": 0.0,
			"-0.024": 0.0,
			"-0.023": 0.0,
			"-0.022": 0.0,
			"-0.021": 0.0,
			"-0.02": 0.0954259147062,
			"-0.019": 0.950233808223,
			"-0.018": 0.947157982931,
			"-0.017": 0.59006157294,
			"-0.016": 2.00263745646,
			"-0.015": 1.51773642781,
			"-0.014": 1.27040574499,
			"-0.013": 1.77345362622,
			"-0.012": 1.75630107324,
			"-0.011": 1.97499777844,
			"-0.01": 2.07616100028,
			"-0.009": 4.95257276652,
			"-0.008": 5.57059361458,
			"-0.007": 5.62717142998,
			"-0.006": 8.49802032003,
			"-0.005": 10.2860118415,
			"-0.004": 9.01026019996,
			"-0.003": 9.92491738715,
			"-0.002": 25.2022177725,
			"-0.001": 38.7582160203,
			"0.0": 31.9004949197,
			"0.001": 24.3061052348,
			"0.002": 13.5973640687,
			"0.003": 7.75047955978,
			"0.004": 6.09814069575,
			"0.005": 4.7406397059,
			"0.006": 5.22573123869,
			"0.007": 7.25593127379,
			"0.008": 7.42757303085,
			"0.009": 7.93852333868,
			"0.01": 10.5182144543,
			"0.011": 7.65079604386,
			"0.012": 3.35215470226,
			"0.013": 2.01025406136,
			"0.014": 0.0266745728222,
			"0.015": 0.0,
			"0.016": 0.0,
			"0.017": 0.0,
			"0.018": 0.0,
			"0.019": 0.0,
			"0.02": 0.0,
			"0.021": 0.0,
			"0.022": 0.0,
			"0.023": 0.0,
			"0.024": 0.0,
			"0.025": 0.0
		}
	}
}
