{
	 "smiles": "CC(=CN)C=O", 
	 "Tm": 375.15, 
	 "num_atms": 13, 
	 "gaussian": { 
		 "optdone": 1, 
		 "sigma_profile": "yes", 
		 "theory": "DFT", 
		 "functional": "B3LYP", 
		 "basiset": "6-31G**", 
		 "properties": { 
			 "R2extent": 1050.323, 
			 "electric_dipole_moment_norm": 5.8234722503, 
			 "electric_quadrupole_moment_norm": 11.5235760101, 
			 "total_energy": -286.605187479, 
			 "HOMO_LUMO_gap": 0.19395, 
			 "cosmo_polarized_energy": -15.18, 
			 "cosmo_cavitation_energy": 16.82, 
			 "cosmo_dispersion_energy": -12.34, 
			 "cosmo_repulsion_energy": 1.08, 
			 "cosmo_total_nonelectrostatic_energy": 5.56, 
			 "SMD_solvation_energy": 4.57 
		},
		"coords": [
			{
				"x": 0.9996708771,
				"y": 2.6196565784,
				"z": -0.7406264469,
				"element": "C" 
			},
			{
				"x": 0.0606294271,
				"y": 1.457333783,
				"z": -0.555340698,
				"element": "C" 
			},
			{
				"x": 0.3808021394,
				"y": 0.1732262602,
				"z": -0.8686364921,
				"element": "C" 
			},
			{
				"x": 1.5808463807,
				"y": -0.2587245254,
				"z": -1.3511309632,
				"element": "N" 
			},
			{
				"x": -1.2695909342,
				"y": 1.6929931421,
				"z": -0.0126564707,
				"element": "C" 
			},
			{
				"x": -1.7200832071,
				"y": 2.7829970286,
				"z": 0.3125440619,
				"element": "O" 
			},
			{
				"x": 0.481007627,
				"y": 3.5382451776,
				"z": -0.4576202025,
				"element": "H" 
			},
			{
				"x": 1.8974510067,
				"y": 2.5287770108,
				"z": -0.115475335,
				"element": "H" 
			},
			{
				"x": 1.3315405835,
				"y": 2.7237140551,
				"z": -1.7827051387,
				"element": "H" 
			},
			{
				"x": -0.3497244363,
				"y": -0.61661311,
				"z": -0.7030644657,
				"element": "H" 
			},
			{
				"x": 2.2544670039,
				"y": 0.4186875612,
				"z": -1.6739652588,
				"element": "H" 
			},
			{
				"x": 1.6553554114,
				"y": -1.1807900505,
				"z": -1.748035231,
				"element": "H" 
			},
			{
				"x": -1.8919718792,
				"y": 0.7727970887,
				"z": 0.0935126407,
				"element": "H" 
			}
		],
		 "valence_orbital": [ 
			{
				"type": "occ",
				"energy": -0.36662,
				"method": "rhf"
			},
			{
				"type": "occ",
				"energy": -0.36352,
				"method": "rhf"
			},
			{
				"type": "occ",
				"energy": -0.34918,
				"method": "rhf"
			},
			{
				"type": "occ",
				"energy": -0.22885,
				"method": "rhf"
			},
			{
				"type": "occ",
				"energy": -0.21588,
				"method": "rhf"
			},
			{
				"type": "unocc",
				"energy": -0.02193,
				"method": "rhf"
			},
			{
				"type": "unocc",
				"energy": 0.05696,
				"method": "rhf"
			},
			{
				"type": "unocc",
				"energy": 0.08238,
				"method": "rhf"
			},
			{
				"type": "unocc",
				"energy": 0.09226,
				"method": "rhf"
			},
			{
				"type": "unocc",
				"energy": 0.1268,
				"method": "rhf"
			}
		],
		"cosmo_sigma_profile": { 
			"-0.025": 0.0,
			"-0.024": 0.0,
			"-0.023": 0.0,
			"-0.022": 0.0,
			"-0.021": 0.0,
			"-0.02": 0.0,
			"-0.019": 0.0,
			"-0.018": 0.0,
			"-0.017": 0.0,
			"-0.016": 0.0,
			"-0.015": 0.395482143618,
			"-0.014": 1.97449401426,
			"-0.013": 2.57578470456,
			"-0.012": 2.61041718924,
			"-0.011": 3.09242278219,
			"-0.01": 2.40844930203,
			"-0.009": 2.43384166506,
			"-0.008": 4.34348812452,
			"-0.007": 5.35293002283,
			"-0.006": 4.04022658497,
			"-0.005": 3.94450164679,
			"-0.004": 7.02818903234,
			"-0.003": 7.6616659447,
			"-0.002": 6.9694783309,
			"-0.001": 8.44676398147,
			"0.0": 8.93317649727,
			"0.001": 10.5411879898,
			"0.002": 8.23893293375,
			"0.003": 6.40766539828,
			"0.004": 5.29424829551,
			"0.005": 3.47189819385,
			"0.006": 3.20502278766,
			"0.007": 2.53121177372,
			"0.008": 2.19495657482,
			"0.009": 2.13103656396,
			"0.01": 1.83955278117,
			"0.011": 1.56828307815,
			"0.012": 2.10711875972,
			"0.013": 3.79483415841,
			"0.014": 4.86518377118,
			"0.015": 1.77072474328,
			"0.016": 0.182041725032,
			"0.017": 0.0,
			"0.018": 0.0,
			"0.019": 0.0,
			"0.02": 0.0,
			"0.021": 0.0,
			"0.022": 0.0,
			"0.023": 0.0,
			"0.024": 0.0,
			"0.025": 0.0
		}
	}
}
