{
	 "smiles": "CC(C)(C)C1=CC=C(CN2N=CC=C2N)C=C1", 
	 "Tm": 290.15, 
	 "num_atms": 36, 
	 "gaussian": { 
		 "optdone": 1, 
		 "sigma_profile": "yes", 
		 "theory": "DFT", 
		 "functional": "B3LYP", 
		 "basiset": "6-31G**", 
		 "properties": { 
			 "R2extent": 5778.5089, 
			 "electric_dipole_moment_norm": 3.62847423306, 
			 "electric_quadrupole_moment_norm": 13.9231009287, 
			 "total_energy": -709.189178255, 
			 "HOMO_LUMO_gap": 0.19317, 
			 "cosmo_polarized_energy": -12.37, 
			 "cosmo_cavitation_energy": 37.53, 
			 "cosmo_dispersion_energy": -26.07, 
			 "cosmo_repulsion_energy": 2.02, 
			 "cosmo_total_nonelectrostatic_energy": 13.48, 
			 "SMD_solvation_energy": 5.65 
		},
		"coords": [
			{
				"x": -2.3676109989,
				"y": 1.1165426507,
				"z": -2.3356646411,
				"element": "C" 
			},
			{
				"x": -1.2770687846,
				"y": 2.0092167972,
				"z": -1.6965702137,
				"element": "C" 
			},
			{
				"x": -1.9473169502,
				"y": 3.2219915118,
				"z": -1.0075830935,
				"element": "C" 
			},
			{
				"x": -0.3688639435,
				"y": 2.5385101226,
				"z": -2.8226152412,
				"element": "C" 
			},
			{
				"x": -0.4964975423,
				"y": 1.1936319097,
				"z": -0.649883408,
				"element": "C" 
			},
			{
				"x": 0.8818627579,
				"y": 0.9654492657,
				"z": -0.7339727702,
				"element": "C" 
			},
			{
				"x": 1.5562200884,
				"y": 0.2163534881,
				"z": 0.236816861,
				"element": "C" 
			},
			{
				"x": 0.8752606492,
				"y": -0.3251947795,
				"z": 1.3279691071,
				"element": "C" 
			},
			{
				"x": 1.6070572819,
				"y": -1.1194173688,
				"z": 2.3964964858,
				"element": "C" 
			},
			{
				"x": 0.9876714402,
				"y": -2.3997737258,
				"z": 2.6926109885,
				"element": "N" 
			},
			{
				"x": 0.2604466258,
				"y": -2.5711967032,
				"z": 3.8366949104,
				"element": "N" 
			},
			{
				"x": -0.1645861779,
				"y": -3.8293328962,
				"z": 3.7666792271,
				"element": "C" 
			},
			{
				"x": 0.2524303527,
				"y": -4.4774727182,
				"z": 2.5828868087,
				"element": "C" 
			},
			{
				"x": 0.9886292734,
				"y": -3.5141668484,
				"z": 1.9074979909,
				"element": "C" 
			},
			{
				"x": 1.7114117296,
				"y": -3.5430408654,
				"z": 0.7109075956,
				"element": "N" 
			},
			{
				"x": -0.5067664003,
				"y": -0.1065378948,
				"z": 1.421929262,
				"element": "C" 
			},
			{
				"x": -1.171983366,
				"y": 0.6361895937,
				"z": 0.4530344674,
				"element": "C" 
			},
			{
				"x": -3.0739150605,
				"y": 0.7392770514,
				"z": -1.5903250085,
				"element": "H" 
			},
			{
				"x": -2.9389623077,
				"y": 1.6851337988,
				"z": -3.0780976483,
				"element": "H" 
			},
			{
				"x": -1.9212597797,
				"y": 0.2529501082,
				"z": -2.8398306281,
				"element": "H" 
			},
			{
				"x": -2.5132504525,
				"y": 3.8104668138,
				"z": -1.7385770447,
				"element": "H" 
			},
			{
				"x": -2.6418243921,
				"y": 2.9119153158,
				"z": -0.221322088,
				"element": "H" 
			},
			{
				"x": -1.1976168792,
				"y": 3.8767455675,
				"z": -0.5514094452,
				"element": "H" 
			},
			{
				"x": -0.9661897485,
				"y": 3.1115466999,
				"z": -3.5391253503,
				"element": "H" 
			},
			{
				"x": 0.1145120128,
				"y": 1.7249672671,
				"z": -3.3736924107,
				"element": "H" 
			},
			{
				"x": 0.4118031763,
				"y": 3.2034138883,
				"z": -2.4385843523,
				"element": "H" 
			},
			{
				"x": 1.4534264628,
				"y": 1.3672085844,
				"z": -1.5628273471,
				"element": "H" 
			},
			{
				"x": 2.6288878361,
				"y": 0.0610053866,
				"z": 0.1405306239,
				"element": "H" 
			},
			{
				"x": 2.6444347341,
				"y": -1.2937647259,
				"z": 2.0900758872,
				"element": "H" 
			},
			{
				"x": 1.6208268855,
				"y": -0.5788722496,
				"z": 3.3467059115,
				"element": "H" 
			},
			{
				"x": -0.7658150806,
				"y": -4.2331253356,
				"z": 4.5711769045,
				"element": "H" 
			},
			{
				"x": 0.0469853257,
				"y": -5.4874167312,
				"z": 2.2599392109,
				"element": "H" 
			},
			{
				"x": 1.5799610856,
				"y": -4.4145289508,
				"z": 0.2134233532,
				"element": "H" 
			},
			{
				"x": 1.4986253011,
				"y": -2.7607675668,
				"z": 0.0987187556,
				"element": "H" 
			},
			{
				"x": -1.0545124136,
				"y": -0.5287015296,
				"z": 2.2602227576,
				"element": "H" 
			},
			{
				"x": -2.242512741,
				"y": 0.7854950685,
				"z": 0.5600635821,
				"element": "H" 
			}
		],
		 "valence_orbital": [ 
			{
				"type": "occ",
				"energy": -0.27109,
				"method": "rhf"
			},
			{
				"type": "occ",
				"energy": -0.25226,
				"method": "rhf"
			},
			{
				"type": "occ",
				"energy": -0.24441,
				"method": "rhf"
			},
			{
				"type": "occ",
				"energy": -0.23025,
				"method": "rhf"
			},
			{
				"type": "occ",
				"energy": -0.20023,
				"method": "rhf"
			},
			{
				"type": "unocc",
				"energy": -0.00706,
				"method": "rhf"
			},
			{
				"type": "unocc",
				"energy": -0.00558,
				"method": "rhf"
			},
			{
				"type": "unocc",
				"energy": 0.04237,
				"method": "rhf"
			},
			{
				"type": "unocc",
				"energy": 0.07874,
				"method": "rhf"
			},
			{
				"type": "unocc",
				"energy": 0.08071,
				"method": "rhf"
			}
		],
		"cosmo_sigma_profile": { 
			"-0.025": 0.0,
			"-0.024": 0.0,
			"-0.023": 0.0,
			"-0.022": 0.0,
			"-0.021": 0.0,
			"-0.02": 0.0,
			"-0.019": 0.0,
			"-0.018": 0.0,
			"-0.017": 0.0,
			"-0.016": 0.0,
			"-0.015": 0.0,
			"-0.014": 0.0078524556618,
			"-0.013": 0.931605203425,
			"-0.012": 1.37556446773,
			"-0.011": 1.68566952391,
			"-0.01": 2.10755003679,
			"-0.009": 3.02519290161,
			"-0.008": 1.78334884065,
			"-0.007": 2.62692007737,
			"-0.006": 10.7284750086,
			"-0.005": 15.8214343863,
			"-0.004": 18.2064307658,
			"-0.003": 28.6477475702,
			"-0.002": 31.6047651224,
			"-0.001": 27.5091045116,
			"0.0": 25.310232247,
			"0.001": 29.7070245906,
			"0.002": 20.9797059696,
			"0.003": 13.6417968699,
			"0.004": 12.513286669,
			"0.005": 13.5215526486,
			"0.006": 11.3923558631,
			"0.007": 6.03221962157,
			"0.008": 2.14834995856,
			"0.009": 2.42052104018,
			"0.01": 2.09092935988,
			"0.011": 2.1284832397,
			"0.012": 1.36198326492,
			"0.013": 1.77472496232,
			"0.014": 1.21862770328,
			"0.015": 1.0148611001,
			"0.016": 1.14453480689,
			"0.017": 0.238538895769,
			"0.018": 0.0,
			"0.019": 0.0,
			"0.02": 0.0,
			"0.021": 0.0,
			"0.022": 0.0,
			"0.023": 0.0,
			"0.024": 0.0,
			"0.025": 0.0
		}
	}
}
