{
	 "smiles": "CC1(C)CC(=O)C2=C(C1)NC1=C3C=CC=CC3=CC=C1C2C1=CC=C(F)C=C1", 
	 "Tm": 552.15, 
	 "num_atms": 50, 
	 "gaussian": { 
		 "optdone": 1, 
		 "sigma_profile": "yes", 
		 "theory": "DFT", 
		 "functional": "B3LYP", 
		 "basiset": "6-31G**", 
		 "properties": { 
			 "R2extent": 11923.4333, 
			 "electric_dipole_moment_norm": 5.84506773528, 
			 "electric_quadrupole_moment_norm": 17.8047049366, 
			 "total_energy": -1195.77043724, 
			 "HOMO_LUMO_gap": 0.14565, 
			 "cosmo_polarized_energy": -17.5, 
			 "cosmo_cavitation_energy": 50.71, 
			 "cosmo_dispersion_energy": -34.43, 
			 "cosmo_repulsion_energy": 2.52, 
			 "cosmo_total_nonelectrostatic_energy": 18.81, 
			 "SMD_solvation_energy": 8.24 
		},
		"coords": [
			{
				"x": 0.4424356403,
				"y": 3.6708358951,
				"z": -3.0698429922,
				"element": "C" 
			},
			{
				"x": 0.6666746821,
				"y": 2.3137750769,
				"z": -2.3816118111,
				"element": "C" 
			},
			{
				"x": 2.0355420477,
				"y": 1.7503808781,
				"z": -2.8149246341,
				"element": "C" 
			},
			{
				"x": -0.4650913699,
				"y": 1.3371226428,
				"z": -2.7636088975,
				"element": "C" 
			},
			{
				"x": -0.4653212344,
				"y": 0.0247157606,
				"z": -1.9805477258,
				"element": "C" 
			},
			{
				"x": -0.9554082613,
				"y": -0.9905845662,
				"z": -2.4756223723,
				"element": "O" 
			},
			{
				"x": 0.0745844643,
				"y": 0.0440687763,
				"z": -0.6237973079,
				"element": "C" 
			},
			{
				"x": 0.5346054735,
				"y": 1.2083109615,
				"z": -0.0843969572,
				"element": "C" 
			},
			{
				"x": 0.6208472672,
				"y": 2.5057099508,
				"z": -0.8487800351,
				"element": "C" 
			},
			{
				"x": 0.9049255645,
				"y": 1.2666829983,
				"z": 1.2387554681,
				"element": "N" 
			},
			{
				"x": 0.5501983648,
				"y": 0.2639689166,
				"z": 2.1549059489,
				"element": "C" 
			},
			{
				"x": 0.6335829997,
				"y": 0.5191726607,
				"z": 3.5651569554,
				"element": "C" 
			},
			{
				"x": 1.1203483902,
				"y": 1.7345935974,
				"z": 4.1183564045,
				"element": "C" 
			},
			{
				"x": 1.1778603817,
				"y": 1.9279748018,
				"z": 5.4819296583,
				"element": "C" 
			},
			{
				"x": 0.7479462013,
				"y": 0.9130795646,
				"z": 6.3667341138,
				"element": "C" 
			},
			{
				"x": 0.2733955121,
				"y": -0.2769576238,
				"z": 5.8638653335,
				"element": "C" 
			},
			{
				"x": 0.2033654965,
				"y": -0.5110330048,
				"z": 4.4648352797,
				"element": "C" 
			},
			{
				"x": -0.2851659836,
				"y": -1.7377755925,
				"z": 3.9408371133,
				"element": "C" 
			},
			{
				"x": -0.3280299702,
				"y": -1.9454393825,
				"z": 2.5842367159,
				"element": "C" 
			},
			{
				"x": 0.0988005392,
				"y": -0.9549385239,
				"z": 1.6662398153,
				"element": "C" 
			},
			{
				"x": 0.1056430524,
				"y": -1.2509112907,
				"z": 0.1740816766,
				"element": "C" 
			},
			{
				"x": 1.290785004,
				"y": -2.1388489965,
				"z": -0.2433404495,
				"element": "C" 
			},
			{
				"x": 1.1316298404,
				"y": -3.0677691041,
				"z": -1.2825850645,
				"element": "C" 
			},
			{
				"x": 2.1928690853,
				"y": -3.8704784631,
				"z": -1.7007946702,
				"element": "C" 
			},
			{
				"x": 3.4230374184,
				"y": -3.7358926728,
				"z": -1.0683799647,
				"element": "C" 
			},
			{
				"x": 4.4564762419,
				"y": -4.5126088464,
				"z": -1.4650340644,
				"element": "F" 
			},
			{
				"x": 3.6196251084,
				"y": -2.825884628,
				"z": -0.0371327552,
				"element": "C" 
			},
			{
				"x": 2.5466764867,
				"y": -2.0313418158,
				"z": 0.369285046,
				"element": "C" 
			},
			{
				"x": -0.525444044,
				"y": 4.1051247657,
				"z": -2.7948752741,
				"element": "H" 
			},
			{
				"x": 0.4623962685,
				"y": 3.5611034374,
				"z": -4.1593287784,
				"element": "H" 
			},
			{
				"x": 1.2245411966,
				"y": 4.3878521744,
				"z": -2.7939502741,
				"element": "H" 
			},
			{
				"x": 2.0601958907,
				"y": 1.5990412338,
				"z": -3.8992479068,
				"element": "H" 
			},
			{
				"x": 2.8411606809,
				"y": 2.4478186249,
				"z": -2.5581771635,
				"element": "H" 
			},
			{
				"x": 2.254555995,
				"y": 0.7910830202,
				"z": -2.3383676517,
				"element": "H" 
			},
			{
				"x": -1.4377828627,
				"y": 1.8188177077,
				"z": -2.5833661019,
				"element": "H" 
			},
			{
				"x": -0.4353556428,
				"y": 1.0861830762,
				"z": -3.8285823442,
				"element": "H" 
			},
			{
				"x": 1.505882611,
				"y": 3.0650207597,
				"z": -0.5136386425,
				"element": "H" 
			},
			{
				"x": -0.2508283639,
				"y": 3.1240046043,
				"z": -0.5853790204,
				"element": "H" 
			},
			{
				"x": 1.1642742172,
				"y": 2.1690918209,
				"z": 1.6032385848,
				"element": "H" 
			},
			{
				"x": 1.4731348538,
				"y": 2.5362638232,
				"z": 3.475169806,
				"element": "H" 
			},
			{
				"x": 1.5578256581,
				"y": 2.8649053401,
				"z": 5.8783242451,
				"element": "H" 
			},
			{
				"x": 0.79614113,
				"y": 1.0749376911,
				"z": 7.4394089289,
				"element": "H" 
			},
			{
				"x": -0.0568945619,
				"y": -1.0650644504,
				"z": 6.5354976648,
				"element": "H" 
			},
			{
				"x": -0.6145758452,
				"y": -2.5099265081,
				"z": 4.6300946692,
				"element": "H" 
			},
			{
				"x": -0.684313721,
				"y": -2.8924732661,
				"z": 2.1880987068,
				"element": "H" 
			},
			{
				"x": -0.8034383584,
				"y": -1.8085965319,
				"z": -0.0788686664,
				"element": "H" 
			},
			{
				"x": 0.1711286289,
				"y": -3.1381337582,
				"z": -1.7820713206,
				"element": "H" 
			},
			{
				"x": 2.0777686072,
				"y": -4.5918774121,
				"z": -2.5029191177,
				"element": "H" 
			},
			{
				"x": 4.5934524865,
				"y": -2.7526973556,
				"z": 0.4354914882,
				"element": "H" 
			},
			{
				"x": 2.6913367324,
				"y": -1.3294067676,
				"z": 1.1847283408,
				"element": "H" 
			}
		],
		 "valence_orbital": [ 
			{
				"type": "occ",
				"energy": -0.24552,
				"method": "rhf"
			},
			{
				"type": "occ",
				"energy": -0.23694,
				"method": "rhf"
			},
			{
				"type": "occ",
				"energy": -0.23069,
				"method": "rhf"
			},
			{
				"type": "occ",
				"energy": -0.22128,
				"method": "rhf"
			},
			{
				"type": "occ",
				"energy": -0.19646,
				"method": "rhf"
			},
			{
				"type": "unocc",
				"energy": -0.05081,
				"method": "rhf"
			},
			{
				"type": "unocc",
				"energy": -0.02433,
				"method": "rhf"
			},
			{
				"type": "unocc",
				"energy": -0.01665,
				"method": "rhf"
			},
			{
				"type": "unocc",
				"energy": 0.00175,
				"method": "rhf"
			},
			{
				"type": "unocc",
				"energy": 0.01334,
				"method": "rhf"
			}
		],
		"cosmo_sigma_profile": { 
			"-0.025": 0.0,
			"-0.024": 0.0,
			"-0.023": 0.0,
			"-0.022": 0.0,
			"-0.021": 0.0,
			"-0.02": 0.0,
			"-0.019": 0.0,
			"-0.018": 0.0,
			"-0.017": 0.0,
			"-0.016": 0.117667597229,
			"-0.015": 1.05407833929,
			"-0.014": 0.739546945198,
			"-0.013": 1.3553655644,
			"-0.012": 1.40000722618,
			"-0.011": 1.44556535562,
			"-0.01": 1.98006865577,
			"-0.009": 1.17270072977,
			"-0.008": 1.52993374676,
			"-0.007": 4.12286021144,
			"-0.006": 14.145772334,
			"-0.005": 24.475135465,
			"-0.004": 31.0685921193,
			"-0.003": 39.3349769325,
			"-0.002": 29.680030483,
			"-0.001": 32.412494822,
			"0.0": 34.0176093653,
			"0.001": 35.2453520091,
			"0.002": 30.5357711325,
			"0.003": 29.6202312156,
			"0.004": 36.9866097849,
			"0.005": 29.2657330158,
			"0.006": 3.91898776832,
			"0.007": 1.58046441937,
			"0.008": 2.5379973481,
			"0.009": 1.55478106216,
			"0.01": 0.935683250471,
			"0.011": 1.38074490342,
			"0.012": 2.27202624986,
			"0.013": 2.15469001025,
			"0.014": 2.7022547956,
			"0.015": 1.33159989627,
			"0.016": 0.158557844597,
			"0.017": 0.0,
			"0.018": 0.0,
			"0.019": 0.0,
			"0.02": 0.0,
			"0.021": 0.0,
			"0.022": 0.0,
			"0.023": 0.0,
			"0.024": 0.0,
			"0.025": 0.0
		}
	}
}
