{
	 "smiles": "CC=CC=CCCCCCCCO", 
	 "Tm": 305.15, 
	 "num_atms": 35, 
	 "gaussian": { 
		 "optdone": 1, 
		 "sigma_profile": "yes", 
		 "theory": "DFT", 
		 "functional": "B3LYP", 
		 "basiset": "6-31G**", 
		 "properties": { 
			 "R2extent": 5128.6845, 
			 "electric_dipole_moment_norm": 1.5697017137, 
			 "electric_quadrupole_moment_norm": 13.2583615485, 
			 "total_energy": -545.731228056, 
			 "HOMO_LUMO_gap": 0.19638, 
			 "cosmo_polarized_energy": -7.98, 
			 "cosmo_cavitation_energy": 37.11, 
			 "cosmo_dispersion_energy": -25.12, 
			 "cosmo_repulsion_energy": 2.09, 
			 "cosmo_total_nonelectrostatic_energy": 14.08, 
			 "SMD_solvation_energy": 5.8 
		},
		"coords": [
			{
				"x": -2.0560432433,
				"y": 2.9206533648,
				"z": -2.0656855472,
				"element": "C" 
			},
			{
				"x": -1.3259750043,
				"y": 2.142507699,
				"z": -1.0117260453,
				"element": "C" 
			},
			{
				"x": -0.979914642,
				"y": 2.6204936944,
				"z": 0.1940294192,
				"element": "C" 
			},
			{
				"x": -0.2380354891,
				"y": 1.9014882483,
				"z": 1.2360192493,
				"element": "C" 
			},
			{
				"x": 0.657667844,
				"y": 0.9182587546,
				"z": 1.0470278641,
				"element": "C" 
			},
			{
				"x": 1.3732465948,
				"y": 0.1957110345,
				"z": 2.1554803084,
				"element": "C" 
			},
			{
				"x": 0.9457664331,
				"y": -1.2717840848,
				"z": 2.4061132928,
				"element": "C" 
			},
			{
				"x": 1.2068874837,
				"y": -2.2664360504,
				"z": 1.2563477352,
				"element": "C" 
			},
			{
				"x": 0.0796505471,
				"y": -2.3677804052,
				"z": 0.2155531993,
				"element": "C" 
			},
			{
				"x": 0.3202011171,
				"y": -3.4193379127,
				"z": -0.8807669601,
				"element": "C" 
			},
			{
				"x": 1.4702654721,
				"y": -3.0913557946,
				"z": -1.8433461184,
				"element": "C" 
			},
			{
				"x": 1.631282348,
				"y": -4.1317876924,
				"z": -2.9534894546,
				"element": "C" 
			},
			{
				"x": 2.6566982762,
				"y": -3.8028527635,
				"z": -3.882069698,
				"element": "O" 
			},
			{
				"x": -2.2890131671,
				"y": 3.9353597192,
				"z": -1.728451711,
				"element": "H" 
			},
			{
				"x": -2.997043692,
				"y": 2.4296686966,
				"z": -2.3463487892,
				"element": "H" 
			},
			{
				"x": -1.4615161792,
				"y": 2.9988894582,
				"z": -2.9856455617,
				"element": "H" 
			},
			{
				"x": -1.0746495425,
				"y": 1.1112955039,
				"z": -1.2613024214,
				"element": "H" 
			},
			{
				"x": -1.2877955206,
				"y": 3.6357624523,
				"z": 0.4495247779,
				"element": "H" 
			},
			{
				"x": -0.4292027152,
				"y": 2.2280642671,
				"z": 2.2598388735,
				"element": "H" 
			},
			{
				"x": 0.9090701466,
				"y": 0.6294651498,
				"z": 0.0270369891,
				"element": "H" 
			},
			{
				"x": 1.2310106581,
				"y": 0.7528127334,
				"z": 3.0899992199,
				"element": "H" 
			},
			{
				"x": 2.4543556186,
				"y": 0.2015868654,
				"z": 1.9513860078,
				"element": "H" 
			},
			{
				"x": -0.1179439872,
				"y": -1.2945175403,
				"z": 2.6771112123,
				"element": "H" 
			},
			{
				"x": 1.4942818917,
				"y": -1.6124747514,
				"z": 3.2934284149,
				"element": "H" 
			},
			{
				"x": 2.1569165272,
				"y": -2.0092369276,
				"z": 0.7685784779,
				"element": "H" 
			},
			{
				"x": 1.3549390254,
				"y": -3.2668753676,
				"z": 1.6859074738,
				"element": "H" 
			},
			{
				"x": -0.0953648673,
				"y": -1.3917630521,
				"z": -0.2527062447,
				"element": "H" 
			},
			{
				"x": -0.8513580631,
				"y": -2.6172681519,
				"z": 0.7417932605,
				"element": "H" 
			},
			{
				"x": 0.5042288238,
				"y": -4.3963994281,
				"z": -0.4106956392,
				"element": "H" 
			},
			{
				"x": -0.6031652421,
				"y": -3.5344652928,
				"z": -1.4644911284,
				"element": "H" 
			},
			{
				"x": 1.3053382213,
				"y": -2.1106746635,
				"z": -2.30815727,
				"element": "H" 
			},
			{
				"x": 2.4172409779,
				"y": -3.0189991265,
				"z": -1.2896492354,
				"element": "H" 
			},
			{
				"x": 1.7969800374,
				"y": -5.1287442635,
				"z": -2.5110249695,
				"element": "H" 
			},
			{
				"x": 0.7101623295,
				"y": -4.1955060694,
				"z": -3.5436595374,
				"element": "H" 
			},
			{
				"x": 3.4904309814,
				"y": -3.7675583028,
				"z": -3.3955594444,
				"element": "H" 
			}
		],
		 "valence_orbital": [ 
			{
				"type": "occ",
				"energy": -0.31378,
				"method": "rhf"
			},
			{
				"type": "occ",
				"energy": -0.30822,
				"method": "rhf"
			},
			{
				"type": "occ",
				"energy": -0.28855,
				"method": "rhf"
			},
			{
				"type": "occ",
				"energy": -0.25995,
				"method": "rhf"
			},
			{
				"type": "occ",
				"energy": -0.21157,
				"method": "rhf"
			},
			{
				"type": "unocc",
				"energy": -0.01519,
				"method": "rhf"
			},
			{
				"type": "unocc",
				"energy": 0.07788,
				"method": "rhf"
			},
			{
				"type": "unocc",
				"energy": 0.07969,
				"method": "rhf"
			},
			{
				"type": "unocc",
				"energy": 0.0871,
				"method": "rhf"
			},
			{
				"type": "unocc",
				"energy": 0.09733,
				"method": "rhf"
			}
		],
		"cosmo_sigma_profile": { 
			"-0.025": 0.0,
			"-0.024": 0.0,
			"-0.023": 0.0,
			"-0.022": 0.0,
			"-0.021": 0.0,
			"-0.02": 0.0,
			"-0.019": 0.0,
			"-0.018": 0.0,
			"-0.017": 0.0,
			"-0.016": 0.00551210877262,
			"-0.015": 0.600153183374,
			"-0.014": 0.855097898849,
			"-0.013": 1.04807765821,
			"-0.012": 1.31038048727,
			"-0.011": 0.629370142903,
			"-0.01": 0.54255648172,
			"-0.009": 1.0416890568,
			"-0.008": 0.596611834921,
			"-0.007": 0.96212564199,
			"-0.006": 1.50921267051,
			"-0.005": 1.73783653813,
			"-0.004": 10.3249013091,
			"-0.003": 29.9718053776,
			"-0.002": 47.2177164718,
			"-0.001": 52.1751728241,
			"0.0": 45.1995933325,
			"0.001": 29.6281323894,
			"0.002": 12.4765166278,
			"0.003": 8.71284403761,
			"0.004": 8.23133420974,
			"0.005": 6.5832738967,
			"0.006": 6.91079947844,
			"0.007": 6.2965573961,
			"0.008": 1.47586426763,
			"0.009": 0.709832901243,
			"0.01": 1.73766195747,
			"0.011": 1.08828099181,
			"0.012": 1.68535655976,
			"0.013": 1.05090817086,
			"0.014": 2.42579303704,
			"0.015": 1.92754551231,
			"0.016": 0.0154066155521,
			"0.017": 0.0,
			"0.018": 0.0,
			"0.019": 0.0,
			"0.02": 0.0,
			"0.021": 0.0,
			"0.022": 0.0,
			"0.023": 0.0,
			"0.024": 0.0,
			"0.025": 0.0
		}
	}
}
