{
	 "smiles": "CCOC1=CC=C(C=C1)C(=O)C1=C(Cl)C=CC=C1", 
	 "Tm": 360.15, 
	 "num_atms": 31, 
	 "gaussian": { 
		 "optdone": 1, 
		 "sigma_profile": "yes", 
		 "theory": "DFT", 
		 "functional": "B3LYP", 
		 "basiset": "6-31G**", 
		 "properties": { 
			 "R2extent": 7330.4225, 
			 "electric_dipole_moment_norm": 3.0653204547, 
			 "electric_quadrupole_moment_norm": 27.0952763743, 
			 "total_energy": -1190.06732469, 
			 "HOMO_LUMO_gap": 0.17229, 
			 "cosmo_polarized_energy": -11.4, 
			 "cosmo_cavitation_energy": 37.05, 
			 "cosmo_dispersion_energy": -26.41, 
			 "cosmo_repulsion_energy": 2.06, 
			 "cosmo_total_nonelectrostatic_energy": 12.71, 
			 "SMD_solvation_energy": 6.84 
		},
		"coords": [
			{
				"x": 3.3784208651,
				"y": 4.3223892065,
				"z": 0.6818350961,
				"element": "C" 
			},
			{
				"x": 3.1289032923,
				"y": 2.9471224892,
				"z": 0.0889719929,
				"element": "C" 
			},
			{
				"x": 1.8352285125,
				"y": 2.5195937814,
				"z": 0.5256382661,
				"element": "O" 
			},
			{
				"x": 1.3710288822,
				"y": 1.3071307168,
				"z": 0.1310212001,
				"element": "C" 
			},
			{
				"x": 2.0737189502,
				"y": 0.4145519675,
				"z": -0.6957169675,
				"element": "C" 
			},
			{
				"x": 1.4933449086,
				"y": -0.8017631254,
				"z": -1.0372959253,
				"element": "C" 
			},
			{
				"x": 0.2242369001,
				"y": -1.1639225557,
				"z": -0.5625544348,
				"element": "C" 
			},
			{
				"x": -0.4682314194,
				"y": -0.258501529,
				"z": 0.2624886009,
				"element": "C" 
			},
			{
				"x": 0.092878772,
				"y": 0.9615981134,
				"z": 0.6029983632,
				"element": "C" 
			},
			{
				"x": -0.3487480512,
				"y": -2.4605674167,
				"z": -1.0029081891,
				"element": "C" 
			},
			{
				"x": 0.1628197188,
				"y": -3.1190665072,
				"z": -1.9005229923,
				"element": "O" 
			},
			{
				"x": -1.6487156078,
				"y": -2.9573397686,
				"z": -0.4017806251,
				"element": "C" 
			},
			{
				"x": -1.8295842442,
				"y": -3.3121620825,
				"z": 0.9414860962,
				"element": "C" 
			},
			{
				"x": -0.4990864077,
				"y": -3.2017857908,
				"z": 2.0909645814,
				"element": "Cl" 
			},
			{
				"x": -3.0482643226,
				"y": -3.8116824998,
				"z": 1.404692587,
				"element": "C" 
			},
			{
				"x": -4.11296414,
				"y": -3.9604221039,
				"z": 0.5177342095,
				"element": "C" 
			},
			{
				"x": -3.9517890448,
				"y": -3.6322944746,
				"z": -0.8298312427,
				"element": "C" 
			},
			{
				"x": -2.7263668935,
				"y": -3.1496325829,
				"z": -1.2804673569,
				"element": "C" 
			},
			{
				"x": 4.3613885183,
				"y": 4.6906646089,
				"z": 0.3728844774,
				"element": "H" 
			},
			{
				"x": 3.350065449,
				"y": 4.2824519548,
				"z": 1.7741928994,
				"element": "H" 
			},
			{
				"x": 2.6191570221,
				"y": 5.0323892374,
				"z": 0.3425616266,
				"element": "H" 
			},
			{
				"x": 3.1575763111,
				"y": 2.9808362735,
				"z": -1.0087120425,
				"element": "H" 
			},
			{
				"x": 3.8897517854,
				"y": 2.2297431955,
				"z": 0.4254734811,
				"element": "H" 
			},
			{
				"x": 3.0590941464,
				"y": 0.6613950188,
				"z": -1.071885496,
				"element": "H" 
			},
			{
				"x": 2.0167116328,
				"y": -1.4990078613,
				"z": -1.6832008738,
				"element": "H" 
			},
			{
				"x": -1.4571989543,
				"y": -0.5097647475,
				"z": 0.6315154838,
				"element": "H" 
			},
			{
				"x": -0.4330262687,
				"y": 1.6700906881,
				"z": 1.2340998461,
				"element": "H" 
			},
			{
				"x": -3.1494977167,
				"y": -4.087495718,
				"z": 2.4485608234,
				"element": "H" 
			},
			{
				"x": -5.061800922,
				"y": -4.3439608676,
				"z": 0.880728847,
				"element": "H" 
			},
			{
				"x": -4.7738255948,
				"y": -3.7604296697,
				"z": -1.5272307706,
				"element": "H" 
			},
			{
				"x": -2.5806260787,
				"y": -2.9123579504,
				"z": -2.3296415618,
				"element": "H" 
			}
		],
		 "valence_orbital": [ 
			{
				"type": "occ",
				"energy": -0.26831,
				"method": "rhf"
			},
			{
				"type": "occ",
				"energy": -0.25926,
				"method": "rhf"
			},
			{
				"type": "occ",
				"energy": -0.25027,
				"method": "rhf"
			},
			{
				"type": "occ",
				"energy": -0.24314,
				"method": "rhf"
			},
			{
				"type": "occ",
				"energy": -0.22709,
				"method": "rhf"
			},
			{
				"type": "unocc",
				"energy": -0.0548,
				"method": "rhf"
			},
			{
				"type": "unocc",
				"energy": -0.01642,
				"method": "rhf"
			},
			{
				"type": "unocc",
				"energy": -0.01371,
				"method": "rhf"
			},
			{
				"type": "unocc",
				"energy": -0.00584,
				"method": "rhf"
			},
			{
				"type": "unocc",
				"energy": 0.02968,
				"method": "rhf"
			}
		],
		"cosmo_sigma_profile": { 
			"-0.025": 0.0,
			"-0.024": 0.0,
			"-0.023": 0.0,
			"-0.022": 0.0,
			"-0.021": 0.0,
			"-0.02": 0.0,
			"-0.019": 0.0,
			"-0.018": 0.0,
			"-0.017": 0.0,
			"-0.016": 0.0,
			"-0.015": 0.0,
			"-0.014": 0.0,
			"-0.013": 0.0,
			"-0.012": 0.0,
			"-0.011": 0.0,
			"-0.01": 0.0,
			"-0.009": 0.0,
			"-0.008": 0.504945245839,
			"-0.007": 7.57561329174,
			"-0.006": 17.0900694975,
			"-0.005": 25.0350459355,
			"-0.004": 24.6110854214,
			"-0.003": 21.9812241592,
			"-0.002": 22.1033571173,
			"-0.001": 21.8495868411,
			"0.0": 22.8417303612,
			"0.001": 23.6908374362,
			"0.002": 24.8195689565,
			"0.003": 30.6024576574,
			"0.004": 23.6947934417,
			"0.005": 8.34769147886,
			"0.006": 3.32380430141,
			"0.007": 3.99520260484,
			"0.008": 2.4935491519,
			"0.009": 3.17681079438,
			"0.01": 2.48836708737,
			"0.011": 3.02009298945,
			"0.012": 3.87649642761,
			"0.013": 0.885234010495,
			"0.014": 0.0113738522507,
			"0.015": 0.0,
			"0.016": 0.0,
			"0.017": 0.0,
			"0.018": 0.0,
			"0.019": 0.0,
			"0.02": 0.0,
			"0.021": 0.0,
			"0.022": 0.0,
			"0.023": 0.0,
			"0.024": 0.0,
			"0.025": 0.0
		}
	}
}
