{
	 "smiles": "CCOC1=C(OCC2=CC=CC=C2)C(Br)=CC(C=O)=C1", 
	 "Tm": 329.15, 
	 "num_atms": 35, 
	 "gaussian": { 
		 "optdone": 1, 
		 "sigma_profile": "yes", 
		 "theory": "DFT", 
		 "functional": "B3LYP", 
		 "basiset": "6-31G**", 
		 "properties": { 
			 "R2extent": 8242.8484, 
			 "electric_dipole_moment_norm": 4.42708734384, 
			 "electric_quadrupole_moment_norm": 13.3701874396, 
			 "total_energy": -3415.78901136, 
			 "HOMO_LUMO_gap": 0.17917, 
			 "cosmo_polarized_energy": -11.35, 
			 "cosmo_cavitation_energy": 42.35, 
			 "cosmo_dispersion_energy": -28.56, 
			 "cosmo_repulsion_energy": 2.21, 
			 "cosmo_total_nonelectrostatic_energy": 15.99, 
			 "SMD_solvation_energy": 7.45 
		},
		"coords": [
			{
				"x": 0.8263433398,
				"y": 1.049943087,
				"z": -3.8776608236,
				"element": "C" 
			},
			{
				"x": 1.3888490132,
				"y": 0.740983789,
				"z": -2.5034029863,
				"element": "C" 
			},
			{
				"x": 0.9592754669,
				"y": -0.5939088242,
				"z": -2.1447233978,
				"element": "O" 
			},
			{
				"x": 1.3674562068,
				"y": -1.0372470344,
				"z": -0.9131276767,
				"element": "C" 
			},
			{
				"x": 0.7985383878,
				"y": -0.5065804868,
				"z": 0.2654259163,
				"element": "C" 
			},
			{
				"x": -0.1092729038,
				"y": 0.5077846509,
				"z": 0.1988114808,
				"element": "O" 
			},
			{
				"x": -1.4372690376,
				"y": 0.1235917618,
				"z": -0.2436306992,
				"element": "C" 
			},
			{
				"x": -2.3134481629,
				"y": 1.3483279169,
				"z": -0.2472830714,
				"element": "C" 
			},
			{
				"x": -2.3423135836,
				"y": 2.2035379923,
				"z": 0.8628534192,
				"element": "C" 
			},
			{
				"x": -3.176971205,
				"y": 3.3197343453,
				"z": 0.8682362183,
				"element": "C" 
			},
			{
				"x": -3.9983940935,
				"y": 3.5899197502,
				"z": -0.2300903071,
				"element": "C" 
			},
			{
				"x": -3.9756327309,
				"y": 2.7416629691,
				"z": -1.3371968952,
				"element": "C" 
			},
			{
				"x": -3.1309910468,
				"y": 1.6292249203,
				"z": -1.3467618844,
				"element": "C" 
			},
			{
				"x": 1.2205774727,
				"y": -1.0107521527,
				"z": 1.5081969498,
				"element": "C" 
			},
			{
				"x": 0.4569234652,
				"y": -0.2992209008,
				"z": 3.1046578457,
				"element": "Br" 
			},
			{
				"x": 2.1711538332,
				"y": -2.0182204109,
				"z": 1.5927869723,
				"element": "C" 
			},
			{
				"x": 2.7130635876,
				"y": -2.5506409715,
				"z": 0.4154399898,
				"element": "C" 
			},
			{
				"x": 3.7196769897,
				"y": -3.6340836497,
				"z": 0.4921539838,
				"element": "C" 
			},
			{
				"x": 4.1353901294,
				"y": -4.1176275438,
				"z": 1.5272744136,
				"element": "O" 
			},
			{
				"x": 2.3131569873,
				"y": -2.0560518645,
				"z": -0.8312125109,
				"element": "C" 
			},
			{
				"x": -0.2672826893,
				"y": 1.0413362387,
				"z": -3.860293555,
				"element": "H" 
			},
			{
				"x": 1.1669020025,
				"y": 0.3141199642,
				"z": -4.6117566188,
				"element": "H" 
			},
			{
				"x": 1.156424568,
				"y": 2.0420465231,
				"z": -4.2008262751,
				"element": "H" 
			},
			{
				"x": 2.486889715,
				"y": 0.766258463,
				"z": -2.5104723054,
				"element": "H" 
			},
			{
				"x": 1.0293472156,
				"y": 1.4544182575,
				"z": -1.7550379638,
				"element": "H" 
			},
			{
				"x": -1.3761504886,
				"y": -0.3217273557,
				"z": -1.2414523301,
				"element": "H" 
			},
			{
				"x": -1.8200429082,
				"y": -0.633050298,
				"z": 0.4544583982,
				"element": "H" 
			},
			{
				"x": -1.6998037237,
				"y": 1.9916929923,
				"z": 1.7119057833,
				"element": "H" 
			},
			{
				"x": -3.1894988016,
				"y": 3.9794431798,
				"z": 1.7312360668,
				"element": "H" 
			},
			{
				"x": -4.6503013438,
				"y": 4.4587815947,
				"z": -0.2223284598,
				"element": "H" 
			},
			{
				"x": -4.6075416146,
				"y": 2.9478496923,
				"z": -2.1963491189,
				"element": "H" 
			},
			{
				"x": -3.1093415949,
				"y": 0.9739005187,
				"z": -2.2143104673,
				"element": "H" 
			},
			{
				"x": 2.4960605936,
				"y": -2.4104877643,
				"z": 2.5493293303,
				"element": "H" 
			},
			{
				"x": 4.0860226539,
				"y": -3.9925582029,
				"z": -0.4953948655,
				"element": "H" 
			},
			{
				"x": 2.7291043005,
				"y": -2.4562011469,
				"z": -1.7516545557,
				"element": "H" 
			}
		],
		 "valence_orbital": [ 
			{
				"type": "occ",
				"energy": -0.25988,
				"method": "rhf"
			},
			{
				"type": "occ",
				"energy": -0.2558,
				"method": "rhf"
			},
			{
				"type": "occ",
				"energy": -0.25251,
				"method": "rhf"
			},
			{
				"type": "occ",
				"energy": -0.25129,
				"method": "rhf"
			},
			{
				"type": "occ",
				"energy": -0.24792,
				"method": "rhf"
			},
			{
				"type": "unocc",
				"energy": -0.06875,
				"method": "rhf"
			},
			{
				"type": "unocc",
				"energy": -0.02289,
				"method": "rhf"
			},
			{
				"type": "unocc",
				"energy": -0.01256,
				"method": "rhf"
			},
			{
				"type": "unocc",
				"energy": -0.00592,
				"method": "rhf"
			},
			{
				"type": "unocc",
				"energy": 0.001,
				"method": "rhf"
			}
		],
		"cosmo_sigma_profile": { 
			"-0.025": 0.0,
			"-0.024": 0.0,
			"-0.023": 0.0,
			"-0.022": 0.0,
			"-0.021": 0.0,
			"-0.02": 0.0,
			"-0.019": 0.0,
			"-0.018": 0.0,
			"-0.017": 0.0,
			"-0.016": 0.0,
			"-0.015": 0.0,
			"-0.014": 0.0,
			"-0.013": 0.0,
			"-0.012": 0.0,
			"-0.011": 0.0,
			"-0.01": 0.0,
			"-0.009": 0.725687551712,
			"-0.008": 3.19136899211,
			"-0.007": 5.1339273198,
			"-0.006": 11.7910805469,
			"-0.005": 20.0820817834,
			"-0.004": 30.8249243932,
			"-0.003": 34.7532750268,
			"-0.002": 30.6857214899,
			"-0.001": 30.6936278982,
			"0.0": 34.2069458636,
			"0.001": 33.7513113074,
			"0.002": 18.617977694,
			"0.003": 17.7041956818,
			"0.004": 20.7325590778,
			"0.005": 15.1350453723,
			"0.006": 10.8041510865,
			"0.007": 3.41458677292,
			"0.008": 3.65327801601,
			"0.009": 3.74529181349,
			"0.01": 3.99704602529,
			"0.011": 4.88130475926,
			"0.012": 1.99325635161,
			"0.013": 0.363754293008,
			"0.014": 0.0,
			"0.015": 0.0,
			"0.016": 0.0,
			"0.017": 0.0,
			"0.018": 0.0,
			"0.019": 0.0,
			"0.02": 0.0,
			"0.021": 0.0,
			"0.022": 0.0,
			"0.023": 0.0,
			"0.024": 0.0,
			"0.025": 0.0
		}
	}
}
