{
	 "smiles": "C=CCC(=O)N1CCN(CC1)C(=O)OCC1C2=C(C=CC=C2)C2=C1C=CC=C2", 
	 "Tm": 379.15, 
	 "num_atms": 52, 
	 "gaussian": { 
		 "optdone": 1, 
		 "sigma_profile": "yes", 
		 "theory": "DFT", 
		 "functional": "B3LYP", 
		 "basiset": "6-31G**", 
		 "properties": { 
			 "R2extent": 15714.6138, 
			 "electric_dipole_moment_norm": 4.23392373337, 
			 "electric_quadrupole_moment_norm": 20.4716206066, 
			 "total_energy": -1226.10661807, 
			 "HOMO_LUMO_gap": 0.18437, 
			 "cosmo_polarized_energy": -20.2, 
			 "cosmo_cavitation_energy": 54.55, 
			 "cosmo_dispersion_energy": -36.42, 
			 "cosmo_repulsion_energy": 2.73, 
			 "cosmo_total_nonelectrostatic_energy": 20.85, 
			 "SMD_solvation_energy": 8.91 
		},
		"coords": [
			{
				"x": 0.01024926,
				"y": -0.4357776117,
				"z": -5.3060323444,
				"element": "C" 
			},
			{
				"x": -0.5834839152,
				"y": 0.7193600947,
				"z": -5.6089782616,
				"element": "C" 
			},
			{
				"x": -2.0721215403,
				"y": 0.9668805846,
				"z": -5.5727353881,
				"element": "C" 
			},
			{
				"x": -2.3962755218,
				"y": 2.2197527154,
				"z": -4.7490003646,
				"element": "C" 
			},
			{
				"x": -2.4396622884,
				"y": 3.3195185949,
				"z": -5.292173909,
				"element": "O" 
			},
			{
				"x": -2.593355815,
				"y": 2.0581171156,
				"z": -3.3980155342,
				"element": "N" 
			},
			{
				"x": -2.8052088752,
				"y": 3.2485521727,
				"z": -2.5713035403,
				"element": "C" 
			},
			{
				"x": -1.8122101643,
				"y": 3.2942612581,
				"z": -1.412120415,
				"element": "C" 
			},
			{
				"x": -1.8451191494,
				"y": 2.0211639478,
				"z": -0.6769906106,
				"element": "N" 
			},
			{
				"x": -2.6931476003,
				"y": 0.9556466845,
				"z": -1.1968971946,
				"element": "C" 
			},
			{
				"x": -2.4714585011,
				"y": 0.7699225835,
				"z": -2.7011478546,
				"element": "C" 
			},
			{
				"x": -1.1122407396,
				"y": 1.948673673,
				"z": 0.472571231,
				"element": "C" 
			},
			{
				"x": -0.4433217373,
				"y": 2.8697711663,
				"z": 0.9109074083,
				"element": "O" 
			},
			{
				"x": -1.2146141571,
				"y": 0.73023616,
				"z": 1.0791505001,
				"element": "O" 
			},
			{
				"x": -0.4878808538,
				"y": 0.6178642585,
				"z": 2.3199110719,
				"element": "C" 
			},
			{
				"x": -0.6420433431,
				"y": -0.8190546953,
				"z": 2.826156244,
				"element": "C" 
			},
			{
				"x": 0.1608193845,
				"y": -1.8566860687,
				"z": 2.0533407502,
				"element": "C" 
			},
			{
				"x": 1.0472325177,
				"y": -2.5310778585,
				"z": 2.9196787304,
				"element": "C" 
			},
			{
				"x": 1.8891122572,
				"y": -3.5339660883,
				"z": 2.4346495579,
				"element": "C" 
			},
			{
				"x": 1.8413192717,
				"y": -3.8560835729,
				"z": 1.0766295494,
				"element": "C" 
			},
			{
				"x": 0.965004044,
				"y": -3.1860016507,
				"z": 0.2165994901,
				"element": "C" 
			},
			{
				"x": 0.1181973515,
				"y": -2.1822297469,
				"z": 0.7015517905,
				"element": "C" 
			},
			{
				"x": 0.8843300716,
				"y": -1.9887334404,
				"z": 4.2748891478,
				"element": "C" 
			},
			{
				"x": -0.1023012442,
				"y": -0.9824918177,
				"z": 4.240354675,
				"element": "C" 
			},
			{
				"x": -0.4581021608,
				"y": -0.3027940767,
				"z": 5.4003099654,
				"element": "C" 
			},
			{
				"x": 0.1798697205,
				"y": -0.6311993325,
				"z": 6.6023742456,
				"element": "C" 
			},
			{
				"x": 1.1589243579,
				"y": -1.6298142427,
				"z": 6.6371797496,
				"element": "C" 
			},
			{
				"x": 1.5177555095,
				"y": -2.3170150187,
				"z": 5.475314006,
				"element": "C" 
			},
			{
				"x": -0.5599518322,
				"y": -1.3122692645,
				"z": -5.0060111709,
				"element": "H" 
			},
			{
				"x": 1.0883455437,
				"y": -0.5521676624,
				"z": -5.3626659658,
				"element": "H" 
			},
			{
				"x": 0.0188313532,
				"y": 1.5738732404,
				"z": -5.9151511896,
				"element": "H" 
			},
			{
				"x": -2.4314487819,
				"y": 1.1960419263,
				"z": -6.5813913986,
				"element": "H" 
			},
			{
				"x": -2.5981669224,
				"y": 0.0755840808,
				"z": -5.2182702777,
				"element": "H" 
			},
			{
				"x": -3.8366474188,
				"y": 3.2716298085,
				"z": -2.1955297721,
				"element": "H" 
			},
			{
				"x": -2.6705239055,
				"y": 4.1138791954,
				"z": -3.2199945136,
				"element": "H" 
			},
			{
				"x": -2.0564324423,
				"y": 4.1203803941,
				"z": -0.7355753938,
				"element": "H" 
			},
			{
				"x": -0.7989873355,
				"y": 3.4741106498,
				"z": -1.7896204857,
				"element": "H" 
			},
			{
				"x": -2.452900755,
				"y": 0.0280328089,
				"z": -0.6805499832,
				"element": "H" 
			},
			{
				"x": -3.7525447404,
				"y": 1.1719128195,
				"z": -0.9987757885,
				"element": "H" 
			},
			{
				"x": -1.4771754097,
				"y": 0.341633899,
				"z": -2.8728511428,
				"element": "H" 
			},
			{
				"x": -3.2155160981,
				"y": 0.0524573024,
				"z": -3.0710588665,
				"element": "H" 
			},
			{
				"x": 0.5621686821,
				"y": 0.8749247697,
				"z": 2.1589776164,
				"element": "H" 
			},
			{
				"x": -0.9032226256,
				"y": 1.3324261385,
				"z": 3.037130434,
				"element": "H" 
			},
			{
				"x": -1.7138129809,
				"y": -1.0638015283,
				"z": 2.7978057404,
				"element": "H" 
			},
			{
				"x": 2.5719249073,
				"y": -4.0569410235,
				"z": 3.0985723324,
				"element": "H" 
			},
			{
				"x": 2.4905216409,
				"y": -4.6338281072,
				"z": 0.6845577735,
				"element": "H" 
			},
			{
				"x": 0.9414385409,
				"y": -3.4472587025,
				"z": -0.8375640323,
				"element": "H" 
			},
			{
				"x": -0.5563155337,
				"y": -1.6612708268,
				"z": 0.0300276131,
				"element": "H" 
			},
			{
				"x": -1.2211725662,
				"y": 0.4712705438,
				"z": 5.3834657239,
				"element": "H" 
			},
			{
				"x": -0.0884657253,
				"y": -0.1072834828,
				"z": 7.5150916869,
				"element": "H" 
			},
			{
				"x": 1.6442805624,
				"y": -1.873615953,
				"z": 7.5779133689,
				"element": "H" 
			},
			{
				"x": 2.2780077036,
				"y": -3.092416814,
				"z": 5.5098949951,
				"element": "H" 
			}
		],
		 "valence_orbital": [ 
			{
				"type": "occ",
				"energy": -0.24827,
				"method": "rhf"
			},
			{
				"type": "occ",
				"energy": -0.24745,
				"method": "rhf"
			},
			{
				"type": "occ",
				"energy": -0.24304,
				"method": "rhf"
			},
			{
				"type": "occ",
				"energy": -0.24081,
				"method": "rhf"
			},
			{
				"type": "occ",
				"energy": -0.21825,
				"method": "rhf"
			},
			{
				"type": "unocc",
				"energy": -0.03388,
				"method": "rhf"
			},
			{
				"type": "unocc",
				"energy": -0.01516,
				"method": "rhf"
			},
			{
				"type": "unocc",
				"energy": -0.00015,
				"method": "rhf"
			},
			{
				"type": "unocc",
				"energy": 0.00468,
				"method": "rhf"
			},
			{
				"type": "unocc",
				"energy": 0.03286,
				"method": "rhf"
			}
		],
		"cosmo_sigma_profile": { 
			"-0.025": 0.0,
			"-0.024": 0.0,
			"-0.023": 0.0,
			"-0.022": 0.0,
			"-0.021": 0.0,
			"-0.02": 0.0,
			"-0.019": 0.0,
			"-0.018": 0.0,
			"-0.017": 0.0,
			"-0.016": 0.0,
			"-0.015": 0.0,
			"-0.014": 0.0,
			"-0.013": 0.0,
			"-0.012": 0.0,
			"-0.011": 0.0,
			"-0.01": 0.0,
			"-0.009": 0.0,
			"-0.008": 0.0,
			"-0.007": 1.71981000233,
			"-0.006": 23.2410707013,
			"-0.005": 50.1945310673,
			"-0.004": 46.152221769,
			"-0.003": 44.3266962736,
			"-0.002": 37.4027988992,
			"-0.001": 33.5965142048,
			"0.0": 28.8254585167,
			"0.001": 23.9690224133,
			"0.002": 22.8370300478,
			"0.003": 24.9232626913,
			"0.004": 23.8597010163,
			"0.005": 23.3780634034,
			"0.006": 14.4477970721,
			"0.007": 2.84283993862,
			"0.008": 2.0874757637,
			"0.009": 3.234933519,
			"0.01": 2.45482582603,
			"0.011": 3.90374402049,
			"0.012": 2.86076639429,
			"0.013": 8.04592054367,
			"0.014": 6.64832674917,
			"0.015": 1.19136954241,
			"0.016": 0.00365450419342,
			"0.017": 0.0,
			"0.018": 0.0,
			"0.019": 0.0,
			"0.02": 0.0,
			"0.021": 0.0,
			"0.022": 0.0,
			"0.023": 0.0,
			"0.024": 0.0,
			"0.025": 0.0
		}
	}
}
