{
	 "smiles": "CN1C=NC2=C1C(=O)N(CCCCC(C)=O)C(=O)N2C", 
	 "Tm": 378.15, 
	 "num_atms": 38, 
	 "gaussian": { 
		 "optdone": 1, 
		 "sigma_profile": "yes", 
		 "theory": "DFT", 
		 "functional": "B3LYP", 
		 "basiset": "6-31G**", 
		 "properties": { 
			 "R2extent": 6232.1996, 
			 "electric_dipole_moment_norm": 5.90398244577, 
			 "electric_quadrupole_moment_norm": 22.3350385037, 
			 "total_energy": -950.963947191, 
			 "HOMO_LUMO_gap": 0.18669, 
			 "cosmo_polarized_energy": -19.92, 
			 "cosmo_cavitation_energy": 40.61, 
			 "cosmo_dispersion_energy": -27.48, 
			 "cosmo_repulsion_energy": 2.11, 
			 "cosmo_total_nonelectrostatic_energy": 15.24, 
			 "SMD_solvation_energy": 7.21 
		},
		"coords": [
			{
				"x": 2.238461515,
				"y": -0.3468073304,
				"z": 3.6103299537,
				"element": "C" 
			},
			{
				"x": 2.4901038907,
				"y": -0.7458506875,
				"z": 2.2312427517,
				"element": "N" 
			},
			{
				"x": 3.4664933467,
				"y": -1.568565946,
				"z": 1.7707156563,
				"element": "C" 
			},
			{
				"x": 3.4594019183,
				"y": -1.722661403,
				"z": 0.448792867,
				"element": "N" 
			},
			{
				"x": 2.4169400769,
				"y": -0.9500202777,
				"z": 0.0442227507,
				"element": "C" 
			},
			{
				"x": 1.7908929332,
				"y": -0.3296039152,
				"z": 1.1076259413,
				"element": "C" 
			},
			{
				"x": 0.6567699207,
				"y": 0.5326667445,
				"z": 0.9648482398,
				"element": "C" 
			},
			{
				"x": 0.0549566125,
				"y": 1.0935960178,
				"z": 1.8812646021,
				"element": "O" 
			},
			{
				"x": 0.2717884361,
				"y": 0.6656988183,
				"z": -0.3909704959,
				"element": "N" 
			},
			{
				"x": -0.8328293727,
				"y": 1.5975742683,
				"z": -0.7147973603,
				"element": "C" 
			},
			{
				"x": -2.1530126637,
				"y": 0.9317679972,
				"z": -1.1445110878,
				"element": "C" 
			},
			{
				"x": -3.0948442282,
				"y": 0.4478634668,
				"z": -0.0315568228,
				"element": "C" 
			},
			{
				"x": -2.6021323335,
				"y": -0.7483878081,
				"z": 0.7862661394,
				"element": "C" 
			},
			{
				"x": -3.6876215535,
				"y": -1.3875744956,
				"z": 1.6453131289,
				"element": "C" 
			},
			{
				"x": -3.2315407968,
				"y": -2.4739832192,
				"z": 2.6075513585,
				"element": "C" 
			},
			{
				"x": -4.8553609256,
				"y": -1.0515750355,
				"z": 1.5785747381,
				"element": "O" 
			},
			{
				"x": 0.9094855612,
				"y": 0.0797014386,
				"z": -1.5064941553,
				"element": "C" 
			},
			{
				"x": 0.5249485152,
				"y": 0.3055288174,
				"z": -2.6459253627,
				"element": "O" 
			},
			{
				"x": 1.9849097879,
				"y": -0.7709778199,
				"z": -1.2483669775,
				"element": "N" 
			},
			{
				"x": 2.6840019853,
				"y": -1.4106834272,
				"z": -2.3625320861,
				"element": "C" 
			},
			{
				"x": 2.890660526,
				"y": -0.9285310227,
				"z": 4.2640065703,
				"element": "H" 
			},
			{
				"x": 1.1947731645,
				"y": -0.531277236,
				"z": 3.8680361206,
				"element": "H" 
			},
			{
				"x": 2.4417808301,
				"y": 0.7183191028,
				"z": 3.7432563225,
				"element": "H" 
			},
			{
				"x": 4.1723549538,
				"y": -2.0411756496,
				"z": 2.4406409076,
				"element": "H" 
			},
			{
				"x": -0.4714832747,
				"y": 2.2253596802,
				"z": -1.5313549994,
				"element": "H" 
			},
			{
				"x": -0.9773029895,
				"y": 2.2127198845,
				"z": 0.1742884998,
				"element": "H" 
			},
			{
				"x": -1.9289415299,
				"y": 0.1206348706,
				"z": -1.8458352954,
				"element": "H" 
			},
			{
				"x": -2.6939981306,
				"y": 1.6858784848,
				"z": -1.730325046,
				"element": "H" 
			},
			{
				"x": -4.0548567176,
				"y": 0.1765105643,
				"z": -0.4837253789,
				"element": "H" 
			},
			{
				"x": -3.3152708224,
				"y": 1.2771395099,
				"z": 0.6519130736,
				"element": "H" 
			},
			{
				"x": -1.7746632275,
				"y": -0.4636137182,
				"z": 1.4467331376,
				"element": "H" 
			},
			{
				"x": -2.203818403,
				"y": -1.5369172644,
				"z": 0.1287201158,
				"element": "H" 
			},
			{
				"x": -2.5967613183,
				"y": -3.2108278899,
				"z": 2.1033179834,
				"element": "H" 
			},
			{
				"x": -4.0993297686,
				"y": -2.9673492848,
				"z": 3.0480936792,
				"element": "H" 
			},
			{
				"x": -2.6297483374,
				"y": -2.0258869306,
				"z": 3.407750689,
				"element": "H" 
			},
			{
				"x": 2.9065239804,
				"y": -2.4452623809,
				"z": -2.0971742317,
				"element": "H" 
			},
			{
				"x": 3.6237207179,
				"y": -0.892895645,
				"z": -2.5795052818,
				"element": "H" 
			},
			{
				"x": 2.0337477212,
				"y": -1.3619312787,
				"z": -3.233230645,
				"element": "H" 
			}
		],
		 "valence_orbital": [ 
			{
				"type": "occ",
				"energy": -0.28515,
				"method": "rhf"
			},
			{
				"type": "occ",
				"energy": -0.26826,
				"method": "rhf"
			},
			{
				"type": "occ",
				"energy": -0.26415,
				"method": "rhf"
			},
			{
				"type": "occ",
				"energy": -0.23727,
				"method": "rhf"
			},
			{
				"type": "occ",
				"energy": -0.22498,
				"method": "rhf"
			},
			{
				"type": "unocc",
				"energy": -0.03829,
				"method": "rhf"
			},
			{
				"type": "unocc",
				"energy": -0.00339,
				"method": "rhf"
			},
			{
				"type": "unocc",
				"energy": 0.01681,
				"method": "rhf"
			},
			{
				"type": "unocc",
				"energy": 0.03032,
				"method": "rhf"
			},
			{
				"type": "unocc",
				"energy": 0.08006,
				"method": "rhf"
			}
		],
		"cosmo_sigma_profile": { 
			"-0.025": 0.0,
			"-0.024": 0.0,
			"-0.023": 0.0,
			"-0.022": 0.0,
			"-0.021": 0.0,
			"-0.02": 0.0,
			"-0.019": 0.0,
			"-0.018": 0.0,
			"-0.017": 0.0,
			"-0.016": 0.0,
			"-0.015": 0.0,
			"-0.014": 0.0,
			"-0.013": 0.0,
			"-0.012": 0.0,
			"-0.011": 0.520769640814,
			"-0.01": 3.27219639933,
			"-0.009": 2.48349598487,
			"-0.008": 2.98485523926,
			"-0.007": 4.17695566582,
			"-0.006": 14.6500864213,
			"-0.005": 23.1459017997,
			"-0.004": 31.2440940028,
			"-0.003": 44.6842152555,
			"-0.002": 41.3962945319,
			"-0.001": 31.0956898693,
			"0.0": 21.7580178379,
			"0.001": 11.5330955405,
			"0.002": 7.75407460529,
			"0.003": 7.91993660577,
			"0.004": 6.80166819669,
			"0.005": 6.11655604698,
			"0.006": 7.72874761791,
			"0.007": 5.53854688132,
			"0.008": 5.55382240096,
			"0.009": 5.94262102982,
			"0.01": 5.93884234812,
			"0.011": 7.38107520481,
			"0.012": 10.7453343798,
			"0.013": 8.08353321922,
			"0.014": 1.38361941565,
			"0.015": 0.495761179398,
			"0.016": 0.0574877641991,
			"0.017": 0.0,
			"0.018": 0.0,
			"0.019": 0.0,
			"0.02": 0.0,
			"0.021": 0.0,
			"0.022": 0.0,
			"0.023": 0.0,
			"0.024": 0.0,
			"0.025": 0.0
		}
	}
}
