{
	 "smiles": "CCC(C)NC1=CC=C(NC(C)CC)C=C1", 
	 "Tm": 291.15, 
	 "num_atms": 40, 
	 "gaussian": { 
		 "optdone": 1, 
		 "sigma_profile": "yes", 
		 "theory": "DFT", 
		 "functional": "B3LYP", 
		 "basiset": "6-31G**", 
		 "properties": { 
			 "R2extent": 6249.3733, 
			 "electric_dipole_moment_norm": 1.60386938371, 
			 "electric_quadrupole_moment_norm": 10.3880951728, 
			 "total_energy": -657.473081179, 
			 "HOMO_LUMO_gap": 0.17774, 
			 "cosmo_polarized_energy": -8.79, 
			 "cosmo_cavitation_energy": 39.71, 
			 "cosmo_dispersion_energy": -27.26, 
			 "cosmo_repulsion_energy": 2.16, 
			 "cosmo_total_nonelectrostatic_energy": 14.62, 
			 "SMD_solvation_energy": 5.1 
		},
		"coords": [
			{
				"x": 2.8726819945,
				"y": 3.7287742461,
				"z": 0.3179460073,
				"element": "C" 
			},
			{
				"x": 2.1524505049,
				"y": 4.872944859,
				"z": -0.4076517254,
				"element": "C" 
			},
			{
				"x": 1.1687166626,
				"y": 4.486072447,
				"z": -1.5436085213,
				"element": "C" 
			},
			{
				"x": 1.8221375082,
				"y": 3.6090754527,
				"z": -2.6156059855,
				"element": "C" 
			},
			{
				"x": -0.139002905,
				"y": 3.9507948895,
				"z": -1.092754277,
				"element": "N" 
			},
			{
				"x": -0.268380702,
				"y": 2.7106588325,
				"z": -0.4080937638,
				"element": "C" 
			},
			{
				"x": -0.6693711518,
				"y": 2.6636750897,
				"z": 0.9382256558,
				"element": "C" 
			},
			{
				"x": -0.8786428805,
				"y": 1.4562603766,
				"z": 1.5958879929,
				"element": "C" 
			},
			{
				"x": -0.6787986941,
				"y": 0.2255079965,
				"z": 0.9438160751,
				"element": "C" 
			},
			{
				"x": -0.9452384121,
				"y": -0.967959085,
				"z": 1.6260589273,
				"element": "N" 
			},
			{
				"x": -0.3512626036,
				"y": -2.2510333686,
				"z": 1.245270148,
				"element": "C" 
			},
			{
				"x": 1.172151889,
				"y": -2.2931956139,
				"z": 1.4564782965,
				"element": "C" 
			},
			{
				"x": -1.0606285718,
				"y": -3.3788840709,
				"z": 2.0140739263,
				"element": "C" 
			},
			{
				"x": -2.5532259284,
				"y": -3.5106230762,
				"z": 1.6989595062,
				"element": "C" 
			},
			{
				"x": -0.2805721166,
				"y": 0.2680047354,
				"z": -0.4046262185,
				"element": "C" 
			},
			{
				"x": -0.1034620942,
				"y": 1.4823987677,
				"z": -1.0661724193,
				"element": "C" 
			},
			{
				"x": 3.5274476069,
				"y": 4.1298947845,
				"z": 1.0993796404,
				"element": "H" 
			},
			{
				"x": 3.5013984944,
				"y": 3.1489469821,
				"z": -0.3654163444,
				"element": "H" 
			},
			{
				"x": 2.1700561186,
				"y": 3.0391832827,
				"z": 0.7913375973,
				"element": "H" 
			},
			{
				"x": 1.5996385464,
				"y": 5.4767726558,
				"z": 0.3255031369,
				"element": "H" 
			},
			{
				"x": 2.9048875684,
				"y": 5.5475008422,
				"z": -0.8404319718,
				"element": "H" 
			},
			{
				"x": 0.8984814221,
				"y": 5.4303934465,
				"z": -2.0358048524,
				"element": "H" 
			},
			{
				"x": 1.1265359694,
				"y": 3.4341784235,
				"z": -3.4414146005,
				"element": "H" 
			},
			{
				"x": 2.1371244135,
				"y": 2.6397719639,
				"z": -2.2220719012,
				"element": "H" 
			},
			{
				"x": 2.7111133199,
				"y": 4.1099620584,
				"z": -3.0137841704,
				"element": "H" 
			},
			{
				"x": -0.6086129034,
				"y": 4.6750905949,
				"z": -0.5589423419,
				"element": "H" 
			},
			{
				"x": -0.816361675,
				"y": 3.5943591166,
				"z": 1.48271159,
				"element": "H" 
			},
			{
				"x": -1.1983060378,
				"y": 1.4622236175,
				"z": 2.6360743833,
				"element": "H" 
			},
			{
				"x": -0.9750104199,
				"y": -0.841705111,
				"z": 2.6311950987,
				"element": "H" 
			},
			{
				"x": -0.5618709072,
				"y": -2.4004247028,
				"z": 0.1787015658,
				"element": "H" 
			},
			{
				"x": 1.596828935,
				"y": -3.2334145915,
				"z": 1.0876412536,
				"element": "H" 
			},
			{
				"x": 1.4154337392,
				"y": -2.2085280741,
				"z": 2.5224081548,
				"element": "H" 
			},
			{
				"x": 1.6621063383,
				"y": -1.4678582508,
				"z": 0.9321871312,
				"element": "H" 
			},
			{
				"x": -0.9179742348,
				"y": -3.2109725008,
				"z": 3.0924042758,
				"element": "H" 
			},
			{
				"x": -0.5468023686,
				"y": -4.3213543301,
				"z": 1.7888903947,
				"element": "H" 
			},
			{
				"x": -3.0808950279,
				"y": -2.5754351001,
				"z": 1.9042488643,
				"element": "H" 
			},
			{
				"x": -3.0132452058,
				"y": -4.3055822902,
				"z": 2.2947424969,
				"element": "H" 
			},
			{
				"x": -2.7108433173,
				"y": -3.7530479053,
				"z": 0.6418854347,
				"element": "H" 
			},
			{
				"x": -0.1358075967,
				"y": -0.6518336851,
				"z": -0.960959111,
				"element": "H" 
			},
			{
				"x": 0.1469247233,
				"y": 1.4735062951,
				"z": -2.1208893494,
				"element": "H" 
			}
		],
		 "valence_orbital": [ 
			{
				"type": "occ",
				"energy": -0.31728,
				"method": "rhf"
			},
			{
				"type": "occ",
				"energy": -0.28866,
				"method": "rhf"
			},
			{
				"type": "occ",
				"energy": -0.23742,
				"method": "rhf"
			},
			{
				"type": "occ",
				"energy": -0.22941,
				"method": "rhf"
			},
			{
				"type": "occ",
				"energy": -0.16854,
				"method": "rhf"
			},
			{
				"type": "unocc",
				"energy": 0.0092,
				"method": "rhf"
			},
			{
				"type": "unocc",
				"energy": 0.03098,
				"method": "rhf"
			},
			{
				"type": "unocc",
				"energy": 0.07977,
				"method": "rhf"
			},
			{
				"type": "unocc",
				"energy": 0.08389,
				"method": "rhf"
			},
			{
				"type": "unocc",
				"energy": 0.09985,
				"method": "rhf"
			}
		],
		"cosmo_sigma_profile": { 
			"-0.025": 0.0,
			"-0.024": 0.0,
			"-0.023": 0.0,
			"-0.022": 0.0,
			"-0.021": 0.0,
			"-0.02": 0.0,
			"-0.019": 0.0,
			"-0.018": 0.0,
			"-0.017": 0.0,
			"-0.016": 0.0,
			"-0.015": 0.0,
			"-0.014": 0.0,
			"-0.013": 0.0,
			"-0.012": 0.0374728052294,
			"-0.011": 0.801870462682,
			"-0.01": 1.97610235144,
			"-0.009": 2.61659299749,
			"-0.008": 2.99272058923,
			"-0.007": 3.54783771057,
			"-0.006": 4.70809927385,
			"-0.005": 8.08060666558,
			"-0.004": 11.0477521507,
			"-0.003": 26.2552959009,
			"-0.002": 43.8295059359,
			"-0.001": 40.690859005,
			"0.0": 39.8413985198,
			"0.001": 40.8743447184,
			"0.002": 27.363623394,
			"0.003": 9.3139637577,
			"0.004": 8.03285948402,
			"0.005": 7.21300527357,
			"0.006": 8.15219408316,
			"0.007": 9.06606646046,
			"0.008": 4.21233434916,
			"0.009": 2.47080024945,
			"0.01": 1.19541828096,
			"0.011": 1.03984881834,
			"0.012": 0.61815425632,
			"0.013": 0.435284028225,
			"0.014": 0.276135345237,
			"0.015": 0.804374798086,
			"0.016": 0.392632018952,
			"0.017": 0.0279846075616,
			"0.018": 0.0,
			"0.019": 0.0,
			"0.02": 0.0,
			"0.021": 0.0,
			"0.022": 0.0,
			"0.023": 0.0,
			"0.024": 0.0,
			"0.025": 0.0
		}
	}
}
