{
	 "smiles": "CCCOC(=O)C1=CC=C(O)C=C1", 
	 "Tm": 369.65, 
	 "num_atms": 25, 
	 "gaussian": { 
		 "optdone": 1, 
		 "sigma_profile": "yes", 
		 "theory": "DFT", 
		 "functional": "B3LYP", 
		 "basiset": "6-31G**", 
		 "properties": { 
			 "R2extent": 3861.4818, 
			 "electric_dipole_moment_norm": 1.30897236793, 
			 "electric_quadrupole_moment_norm": 20.6718857867, 
			 "total_energy": -613.989760325, 
			 "HOMO_LUMO_gap": 0.19788, 
			 "cosmo_polarized_energy": -11.73, 
			 "cosmo_cavitation_energy": 29.09, 
			 "cosmo_dispersion_energy": -20.94, 
			 "cosmo_repulsion_energy": 1.68, 
			 "cosmo_total_nonelectrostatic_energy": 9.82, 
			 "SMD_solvation_energy": 6.29 
		},
		"coords": [
			{
				"x": -1.3614704241,
				"y": 1.0219121591,
				"z": -2.6670000445,
				"element": "C" 
			},
			{
				"x": -0.3545562044,
				"y": -0.1316275778,
				"z": -2.6978880108,
				"element": "C" 
			},
			{
				"x": 1.012190333,
				"y": 0.230898353,
				"z": -2.1232116235,
				"element": "C" 
			},
			{
				"x": 0.921054947,
				"y": 0.6565781528,
				"z": -0.7437411745,
				"element": "O" 
			},
			{
				"x": 0.9567446893,
				"y": -0.3216060195,
				"z": 0.1950417185,
				"element": "C" 
			},
			{
				"x": 1.0652368644,
				"y": -1.5046893387,
				"z": -0.0735443749,
				"element": "O" 
			},
			{
				"x": 0.8540260208,
				"y": 0.2168271212,
				"z": 1.5747426571,
				"element": "C" 
			},
			{
				"x": 0.8761326597,
				"y": -0.6935937402,
				"z": 2.6399082099,
				"element": "C" 
			},
			{
				"x": 0.7841989036,
				"y": -0.2496328857,
				"z": 3.9534475319,
				"element": "C" 
			},
			{
				"x": 0.6678723344,
				"y": 1.1221080402,
				"z": 4.2173608606,
				"element": "C" 
			},
			{
				"x": 0.5736789211,
				"y": 1.6202042015,
				"z": 5.480671531,
				"element": "O" 
			},
			{
				"x": 0.6446962067,
				"y": 2.0419900702,
				"z": 3.1599696031,
				"element": "C" 
			},
			{
				"x": 0.7373557569,
				"y": 1.5891139156,
				"z": 1.8506727998,
				"element": "C" 
			},
			{
				"x": -2.3257213799,
				"y": 0.7131833635,
				"z": -3.0824753754,
				"element": "H" 
			},
			{
				"x": -1.0042454715,
				"y": 1.8773746387,
				"z": -3.2521517308,
				"element": "H" 
			},
			{
				"x": -1.5311406674,
				"y": 1.3671760761,
				"z": -1.6429323933,
				"element": "H" 
			},
			{
				"x": -0.7428203414,
				"y": -0.9963637382,
				"z": -2.1490806569,
				"element": "H" 
			},
			{
				"x": -0.1949517203,
				"y": -0.4650069841,
				"z": -3.7319230239,
				"element": "H" 
			},
			{
				"x": 1.6975424916,
				"y": -0.6175260461,
				"z": -2.1849173292,
				"element": "H" 
			},
			{
				"x": 1.4444476376,
				"y": 1.0905426118,
				"z": -2.6439194457,
				"element": "H" 
			},
			{
				"x": 0.9670830194,
				"y": -1.7509848966,
				"z": 2.4156442853,
				"element": "H" 
			},
			{
				"x": 0.8019918057,
				"y": -0.9620055342,
				"z": 4.7756369845,
				"element": "H" 
			},
			{
				"x": 0.6018142438,
				"y": 0.8916124415,
				"z": 6.1148569488,
				"element": "H" 
			},
			{
				"x": 0.5544007769,
				"y": 3.0986456078,
				"z": 3.3881957152,
				"element": "H" 
			},
			{
				"x": 0.720538597,
				"y": 2.2970700082,
				"z": 1.0301363377,
				"element": "H" 
			}
		],
		 "valence_orbital": [ 
			{
				"type": "occ",
				"energy": -0.32836,
				"method": "rhf"
			},
			{
				"type": "occ",
				"energy": -0.29011,
				"method": "rhf"
			},
			{
				"type": "occ",
				"energy": -0.26654,
				"method": "rhf"
			},
			{
				"type": "occ",
				"energy": -0.26063,
				"method": "rhf"
			},
			{
				"type": "occ",
				"energy": -0.23158,
				"method": "rhf"
			},
			{
				"type": "unocc",
				"energy": -0.0337,
				"method": "rhf"
			},
			{
				"type": "unocc",
				"energy": -0.00869,
				"method": "rhf"
			},
			{
				"type": "unocc",
				"energy": 0.06275,
				"method": "rhf"
			},
			{
				"type": "unocc",
				"energy": 0.06879,
				"method": "rhf"
			},
			{
				"type": "unocc",
				"energy": 0.09492,
				"method": "rhf"
			}
		],
		"cosmo_sigma_profile": { 
			"-0.025": 0.0,
			"-0.024": 0.0,
			"-0.023": 0.0,
			"-0.022": 0.0,
			"-0.021": 0.0,
			"-0.02": 0.0,
			"-0.019": 0.00424273972381,
			"-0.018": 1.10158039628,
			"-0.017": 0.971417275369,
			"-0.016": 1.33629419539,
			"-0.015": 1.41383140969,
			"-0.014": 0.640722721508,
			"-0.013": 0.749758423754,
			"-0.012": 0.589685202602,
			"-0.011": 1.25996877965,
			"-0.01": 1.63427461427,
			"-0.009": 1.07629601261,
			"-0.008": 0.952747939949,
			"-0.007": 2.67275423181,
			"-0.006": 5.44281544942,
			"-0.005": 10.1232992398,
			"-0.004": 14.6421013163,
			"-0.003": 18.8165509049,
			"-0.002": 20.3397723012,
			"-0.001": 21.4395889622,
			"0.0": 21.1730578834,
			"0.001": 20.9583942999,
			"0.002": 18.3438912603,
			"0.003": 17.8409840888,
			"0.004": 16.582515119,
			"0.005": 5.19350743508,
			"0.006": 3.54785013552,
			"0.007": 3.09571096391,
			"0.008": 3.21337447035,
			"0.009": 2.85890303852,
			"0.01": 3.39067206924,
			"0.011": 3.17121782827,
			"0.012": 4.18890486471,
			"0.013": 1.14671656657,
			"0.014": 0.0,
			"0.015": 0.0,
			"0.016": 0.0,
			"0.017": 0.0,
			"0.018": 0.0,
			"0.019": 0.0,
			"0.02": 0.0,
			"0.021": 0.0,
			"0.022": 0.0,
			"0.023": 0.0,
			"0.024": 0.0,
			"0.025": 0.0
		}
	}
}
