{
	 "smiles": "CC(=O)C1=CN(N=C1)C1=CC=CC=C1", 
	 "Tm": 398.15, 
	 "num_atms": 24, 
	 "gaussian": { 
		 "optdone": 1, 
		 "sigma_profile": "yes", 
		 "theory": "DFT", 
		 "functional": "B3LYP", 
		 "basiset": "6-31G**", 
		 "properties": { 
			 "R2extent": 3783.6675, 
			 "electric_dipole_moment_norm": 4.77117893817, 
			 "electric_quadrupole_moment_norm": 10.3645327893, 
			 "total_energy": -609.905692241, 
			 "HOMO_LUMO_gap": 0.18767, 
			 "cosmo_polarized_energy": -12.98, 
			 "cosmo_cavitation_energy": 28.83, 
			 "cosmo_dispersion_energy": -20.91, 
			 "cosmo_repulsion_energy": 1.62, 
			 "cosmo_total_nonelectrostatic_energy": 9.54, 
			 "SMD_solvation_energy": 5.32 
		},
		"coords": [
			{
				"x": 3.8988554469,
				"y": -0.5251876795,
				"z": 0.2979157321,
				"element": "C" 
			},
			{
				"x": 3.371702463,
				"y": 0.7019299097,
				"z": 1.0240582651,
				"element": "C" 
			},
			{
				"x": 4.1218463641,
				"y": 1.4594460841,
				"z": 1.6235795133,
				"element": "O" 
			},
			{
				"x": 1.9207374894,
				"y": 0.9557042047,
				"z": 0.9844943948,
				"element": "C" 
			},
			{
				"x": 0.9074534726,
				"y": 0.2363220304,
				"z": 0.3662891577,
				"element": "C" 
			},
			{
				"x": -0.2582837405,
				"y": 0.8872180456,
				"z": 0.6211532266,
				"element": "N" 
			},
			{
				"x": -0.0596175939,
				"y": 2.010938575,
				"z": 1.3745548596,
				"element": "N" 
			},
			{
				"x": 1.2437630945,
				"y": 2.0486006729,
				"z": 1.5922917074,
				"element": "C" 
			},
			{
				"x": -1.5696675044,
				"y": 0.5426594402,
				"z": 0.1923583523,
				"element": "C" 
			},
			{
				"x": -2.5505905679,
				"y": 1.5379671986,
				"z": 0.1274288069,
				"element": "C" 
			},
			{
				"x": -3.8336200403,
				"y": 1.2062354987,
				"z": -0.3023330997,
				"element": "C" 
			},
			{
				"x": -4.1436738863,
				"y": -0.1040006497,
				"z": -0.6739416928,
				"element": "C" 
			},
			{
				"x": -3.1597697886,
				"y": -1.0909718913,
				"z": -0.6004097058,
				"element": "C" 
			},
			{
				"x": -1.8745896339,
				"y": -0.7764824643,
				"z": -0.1600246593,
				"element": "C" 
			},
			{
				"x": 3.6582936803,
				"y": -0.476316061,
				"z": -0.7703615102,
				"element": "H" 
			},
			{
				"x": 4.9808977579,
				"y": -0.5775087963,
				"z": 0.4231919285,
				"element": "H" 
			},
			{
				"x": 3.4413635262,
				"y": -1.4383022836,
				"z": 0.6956609592,
				"element": "H" 
			},
			{
				"x": 0.9396073777,
				"y": -0.6530912119,
				"z": -0.2435603859,
				"element": "H" 
			},
			{
				"x": 1.6825952979,
				"y": 2.8450539348,
				"z": 2.1766615885,
				"element": "H" 
			},
			{
				"x": -2.2932802009,
				"y": 2.5491472845,
				"z": 0.4171092559,
				"element": "H" 
			},
			{
				"x": -4.5933893864,
				"y": 1.9805050274,
				"z": -0.3519473652,
				"element": "H" 
			},
			{
				"x": -5.1444321391,
				"y": -0.3549104239,
				"z": -1.0116719158,
				"element": "H" 
			},
			{
				"x": -3.3925194609,
				"y": -2.1160948247,
				"z": -0.8725161803,
				"element": "H" 
			},
			{
				"x": -1.1271820274,
				"y": -1.5576616203,
				"z": -0.0706812329,
				"element": "H" 
			}
		],
		 "valence_orbital": [ 
			{
				"type": "occ",
				"energy": -0.29829,
				"method": "rhf"
			},
			{
				"type": "occ",
				"energy": -0.26794,
				"method": "rhf"
			},
			{
				"type": "occ",
				"energy": -0.26343,
				"method": "rhf"
			},
			{
				"type": "occ",
				"energy": -0.24575,
				"method": "rhf"
			},
			{
				"type": "occ",
				"energy": -0.23594,
				"method": "rhf"
			},
			{
				"type": "unocc",
				"energy": -0.04827,
				"method": "rhf"
			},
			{
				"type": "unocc",
				"energy": -0.01905,
				"method": "rhf"
			},
			{
				"type": "unocc",
				"energy": -0.015,
				"method": "rhf"
			},
			{
				"type": "unocc",
				"energy": 0.0277,
				"method": "rhf"
			},
			{
				"type": "unocc",
				"energy": 0.07558,
				"method": "rhf"
			}
		],
		"cosmo_sigma_profile": { 
			"-0.025": 0.0,
			"-0.024": 0.0,
			"-0.023": 0.0,
			"-0.022": 0.0,
			"-0.021": 0.0,
			"-0.02": 0.0,
			"-0.019": 0.0,
			"-0.018": 0.0,
			"-0.017": 0.0,
			"-0.016": 0.0,
			"-0.015": 0.0,
			"-0.014": 0.0,
			"-0.013": 0.0,
			"-0.012": 0.0,
			"-0.011": 0.557638021111,
			"-0.01": 2.22228711576,
			"-0.009": 1.89828752571,
			"-0.008": 4.06243662834,
			"-0.007": 6.61618199546,
			"-0.006": 16.1612548393,
			"-0.005": 18.2848511595,
			"-0.004": 17.395291629,
			"-0.003": 14.9919011832,
			"-0.002": 15.2966827832,
			"-0.001": 17.4267765357,
			"0.0": 16.1325198589,
			"0.001": 16.2555352193,
			"0.002": 17.1480565973,
			"0.003": 15.2341890013,
			"0.004": 14.9021083553,
			"0.005": 8.08445077195,
			"0.006": 3.69180806336,
			"0.007": 3.26259629985,
			"0.008": 2.84981050367,
			"0.009": 2.90932936757,
			"0.01": 3.44836466621,
			"0.011": 3.46992299203,
			"0.012": 5.47151885516,
			"0.013": 3.04382373906,
			"0.014": 0.48966107275,
			"0.015": 0.0,
			"0.016": 0.0,
			"0.017": 0.0,
			"0.018": 0.0,
			"0.019": 0.0,
			"0.02": 0.0,
			"0.021": 0.0,
			"0.022": 0.0,
			"0.023": 0.0,
			"0.024": 0.0,
			"0.025": 0.0
		}
	}
}
