{
	 "smiles": "COCC(C)C(N)=S", 
	 "Tm": 316.15, 
	 "num_atms": 19, 
	 "gaussian": { 
		 "optdone": 1, 
		 "sigma_profile": "yes", 
		 "theory": "DFT", 
		 "functional": "B3LYP", 
		 "basiset": "6-31G**", 
		 "properties": { 
			 "R2extent": 2084.108, 
			 "electric_dipole_moment_norm": 5.6861662568, 
			 "electric_quadrupole_moment_norm": 16.8533575536, 
			 "total_energy": -725.325332755, 
			 "HOMO_LUMO_gap": 0.17686, 
			 "cosmo_polarized_energy": -13.39, 
			 "cosmo_cavitation_energy": 23.22, 
			 "cosmo_dispersion_energy": -17.12, 
			 "cosmo_repulsion_energy": 1.41, 
			 "cosmo_total_nonelectrostatic_energy": 7.5, 
			 "SMD_solvation_energy": 3.7 
		},
		"coords": [
			{
				"x": 1.9279181975,
				"y": 2.7827924331,
				"z": 1.7840512435,
				"element": "C" 
			},
			{
				"x": 1.3631372062,
				"y": 1.636778714,
				"z": 1.1721277743,
				"element": "O" 
			},
			{
				"x": 1.4151362114,
				"y": 0.4791610467,
				"z": 2.0033178069,
				"element": "C" 
			},
			{
				"x": 0.7743783564,
				"y": -0.7207088934,
				"z": 1.2915826991,
				"element": "C" 
			},
			{
				"x": -0.6768445892,
				"y": -0.4240477121,
				"z": 0.8610482379,
				"element": "C" 
			},
			{
				"x": 1.5898924094,
				"y": -1.2424282569,
				"z": 0.1055641341,
				"element": "C" 
			},
			{
				"x": 2.0770390123,
				"y": -0.2930539016,
				"z": -0.7098985019,
				"element": "N" 
			},
			{
				"x": 1.8016679525,
				"y": -2.8735045705,
				"z": -0.1709398672,
				"element": "S" 
			},
			{
				"x": 1.3956433584,
				"y": 3.0415784186,
				"z": 2.710847987,
				"element": "H" 
			},
			{
				"x": 2.9914722696,
				"y": 2.6337010122,
				"z": 2.0232240429,
				"element": "H" 
			},
			{
				"x": 1.8322267637,
				"y": 3.6098006912,
				"z": 1.0770608688,
				"element": "H" 
			},
			{
				"x": 0.8657126304,
				"y": 0.674516565,
				"z": 2.9378979244,
				"element": "H" 
			},
			{
				"x": 2.459767728,
				"y": 0.2544870949,
				"z": 2.2712472664,
				"element": "H" 
			},
			{
				"x": 0.7562845778,
				"y": -1.5359888514,
				"z": 2.0196762254,
				"element": "H" 
			},
			{
				"x": -1.2776561122,
				"y": -0.1440028253,
				"z": 1.7328951838,
				"element": "H" 
			},
			{
				"x": -0.7168125972,
				"y": 0.3988852038,
				"z": 0.143596096,
				"element": "H" 
			},
			{
				"x": -1.1231154507,
				"y": -1.3110934905,
				"z": 0.4053764506,
				"element": "H" 
			},
			{
				"x": 1.9626275782,
				"y": 0.6870992829,
				"z": -0.4732996498,
				"element": "H" 
			},
			{
				"x": 2.6113244975,
				"y": -0.5739719608,
				"z": -1.5191759224,
				"element": "H" 
			}
		],
		 "valence_orbital": [ 
			{
				"type": "occ",
				"energy": -0.34072,
				"method": "rhf"
			},
			{
				"type": "occ",
				"energy": -0.32688,
				"method": "rhf"
			},
			{
				"type": "occ",
				"energy": -0.2814,
				"method": "rhf"
			},
			{
				"type": "occ",
				"energy": -0.22051,
				"method": "rhf"
			},
			{
				"type": "occ",
				"energy": -0.19735,
				"method": "rhf"
			},
			{
				"type": "unocc",
				"energy": -0.02049,
				"method": "rhf"
			},
			{
				"type": "unocc",
				"energy": 0.06239,
				"method": "rhf"
			},
			{
				"type": "unocc",
				"energy": 0.09181,
				"method": "rhf"
			},
			{
				"type": "unocc",
				"energy": 0.1065,
				"method": "rhf"
			},
			{
				"type": "unocc",
				"energy": 0.11717,
				"method": "rhf"
			}
		],
		"cosmo_sigma_profile": { 
			"-0.025": 0.0,
			"-0.024": 0.0,
			"-0.023": 0.0,
			"-0.022": 0.0,
			"-0.021": 0.0,
			"-0.02": 0.0,
			"-0.019": 0.0,
			"-0.018": 0.0,
			"-0.017": 0.0,
			"-0.016": 0.0,
			"-0.015": 0.238604150523,
			"-0.014": 1.14033363094,
			"-0.013": 1.03134913022,
			"-0.012": 1.0695552367,
			"-0.011": 1.92906044518,
			"-0.01": 1.65016327281,
			"-0.009": 1.71751061407,
			"-0.008": 1.18594390338,
			"-0.007": 1.40743289551,
			"-0.006": 1.4970437668,
			"-0.005": 12.4173717547,
			"-0.004": 25.8412945905,
			"-0.003": 21.5040799028,
			"-0.002": 20.3416363769,
			"-0.001": 13.6214518093,
			"0.0": 13.984399569,
			"0.001": 7.56496218955,
			"0.002": 5.05477583863,
			"0.003": 4.54935533967,
			"0.004": 4.84970216354,
			"0.005": 4.71628522764,
			"0.006": 3.77332579037,
			"0.007": 4.56124488464,
			"0.008": 5.48622205927,
			"0.009": 6.61597406612,
			"0.01": 6.97745079565,
			"0.011": 3.8347786013,
			"0.012": 3.24291973329,
			"0.013": 2.08519580914,
			"0.014": 0.0371987348166,
			"0.015": 0.0,
			"0.016": 0.0,
			"0.017": 0.0,
			"0.018": 0.0,
			"0.019": 0.0,
			"0.02": 0.0,
			"0.021": 0.0,
			"0.022": 0.0,
			"0.023": 0.0,
			"0.024": 0.0,
			"0.025": 0.0
		}
	}
}
