{
	 "smiles": "CN(C(Cl)=O)C1=CC=CC=C1", 
	 "Tm": 361.65, 
	 "num_atms": 19, 
	 "gaussian": { 
		 "optdone": 1, 
		 "sigma_profile": "yes", 
		 "theory": "DFT", 
		 "functional": "B3LYP", 
		 "basiset": "6-31G**", 
		 "properties": { 
			 "R2extent": 2407.7645, 
			 "electric_dipole_moment_norm": 4.62298877567, 
			 "electric_quadrupole_moment_norm": 14.1441146877, 
			 "total_energy": -899.850331448, 
			 "HOMO_LUMO_gap": 0.23547, 
			 "cosmo_polarized_energy": -8.86, 
			 "cosmo_cavitation_energy": 25.07, 
			 "cosmo_dispersion_energy": -17.77, 
			 "cosmo_repulsion_energy": 1.45, 
			 "cosmo_total_nonelectrostatic_energy": 8.74, 
			 "SMD_solvation_energy": 5.68 
		},
		"coords": [
			{
				"x": 2.4071240344,
				"y": 0.4528963407,
				"z": 2.0015219207,
				"element": "C" 
			},
			{
				"x": 1.9935945314,
				"y": 0.3899308737,
				"z": 0.5924889323,
				"element": "N" 
			},
			{
				"x": 2.8565444708,
				"y": 0.8707033752,
				"z": -0.3436601149,
				"element": "C" 
			},
			{
				"x": 2.2204494307,
				"y": 0.7305125067,
				"z": -2.0417018901,
				"element": "Cl" 
			},
			{
				"x": 3.940794384,
				"y": 1.3520914458,
				"z": -0.148964912,
				"element": "O" 
			},
			{
				"x": 0.7012536491,
				"y": -0.1821896048,
				"z": 0.3237049209,
				"element": "C" 
			},
			{
				"x": -0.4334775797,
				"y": 0.6331651099,
				"z": 0.3298387845,
				"element": "C" 
			},
			{
				"x": -1.6927465479,
				"y": 0.0671397037,
				"z": 0.1305875987,
				"element": "C" 
			},
			{
				"x": -1.8187654878,
				"y": -1.3097342681,
				"z": -0.0656225187,
				"element": "C" 
			},
			{
				"x": -0.6831483091,
				"y": -2.1224901074,
				"z": -0.0628358612,
				"element": "C" 
			},
			{
				"x": 0.5783685112,
				"y": -1.5613740477,
				"z": 0.1359550826,
				"element": "C" 
			},
			{
				"x": 1.6934824211,
				"y": 1.0528445518,
				"z": 2.5747958451,
				"element": "H" 
			},
			{
				"x": 3.3949639048,
				"y": 0.9073661459,
				"z": 2.0531548518,
				"element": "H" 
			},
			{
				"x": 2.4408975041,
				"y": -0.5546282247,
				"z": 2.4277836831,
				"element": "H" 
			},
			{
				"x": -0.3207268434,
				"y": 1.702761297,
				"z": 0.4780599115,
				"element": "H" 
			},
			{
				"x": -2.5739054271,
				"y": 0.7016710268,
				"z": 0.1269049134,
				"element": "H" 
			},
			{
				"x": -2.7999320358,
				"y": -1.7484112318,
				"z": -0.221048104,
				"element": "H" 
			},
			{
				"x": -0.7780964089,
				"y": -3.1931198519,
				"z": -0.2171788756,
				"element": "H" 
			},
			{
				"x": 1.4699257982,
				"y": -2.1809350409,
				"z": 0.1349158318,
				"element": "H" 
			}
		],
		 "valence_orbital": [ 
			{
				"type": "occ",
				"energy": -0.31047,
				"method": "rhf"
			},
			{
				"type": "occ",
				"energy": -0.28907,
				"method": "rhf"
			},
			{
				"type": "occ",
				"energy": -0.26915,
				"method": "rhf"
			},
			{
				"type": "occ",
				"energy": -0.26672,
				"method": "rhf"
			},
			{
				"type": "occ",
				"energy": -0.25958,
				"method": "rhf"
			},
			{
				"type": "unocc",
				"energy": -0.02411,
				"method": "rhf"
			},
			{
				"type": "unocc",
				"energy": -0.01815,
				"method": "rhf"
			},
			{
				"type": "unocc",
				"energy": 0.01743,
				"method": "rhf"
			},
			{
				"type": "unocc",
				"energy": 0.02601,
				"method": "rhf"
			},
			{
				"type": "unocc",
				"energy": 0.07824,
				"method": "rhf"
			}
		],
		"cosmo_sigma_profile": { 
			"-0.025": 0.0,
			"-0.024": 0.0,
			"-0.023": 0.0,
			"-0.022": 0.0,
			"-0.021": 0.0,
			"-0.02": 0.0,
			"-0.019": 0.0,
			"-0.018": 0.0,
			"-0.017": 0.0,
			"-0.016": 0.0,
			"-0.015": 0.0,
			"-0.014": 0.0,
			"-0.013": 0.0,
			"-0.012": 0.0,
			"-0.011": 0.0,
			"-0.01": 0.0,
			"-0.009": 0.0,
			"-0.008": 0.0,
			"-0.007": 3.24440365124,
			"-0.006": 13.5807081731,
			"-0.005": 20.1615655612,
			"-0.004": 21.1648203387,
			"-0.003": 19.6217123074,
			"-0.002": 15.6372572889,
			"-0.001": 9.73135469837,
			"0.0": 11.4043183392,
			"0.001": 10.3720448262,
			"0.002": 12.3856029862,
			"0.003": 12.5392757854,
			"0.004": 18.1468617057,
			"0.005": 15.4920759509,
			"0.006": 3.38178386967,
			"0.007": 2.85835838376,
			"0.008": 1.44882676091,
			"0.009": 2.48167065294,
			"0.01": 4.25799904293,
			"0.011": 3.95136417536,
			"0.012": 0.613304658807,
			"0.013": 0.0,
			"0.014": 0.0,
			"0.015": 0.0,
			"0.016": 0.0,
			"0.017": 0.0,
			"0.018": 0.0,
			"0.019": 0.0,
			"0.02": 0.0,
			"0.021": 0.0,
			"0.022": 0.0,
			"0.023": 0.0,
			"0.024": 0.0,
			"0.025": 0.0
		}
	}
}
