{
	 "smiles": "COC(OC)(C(=O)C1=CC=CC=C1)C1=CC=CC=C1", 
	 "Tm": 339.15, 
	 "num_atms": 35, 
	 "gaussian": { 
		 "optdone": 1, 
		 "sigma_profile": "yes", 
		 "theory": "DFT", 
		 "functional": "B3LYP", 
		 "basiset": "6-31G**", 
		 "properties": { 
			 "R2extent": 4911.8717, 
			 "electric_dipole_moment_norm": 2.44626042359, 
			 "electric_quadrupole_moment_norm": 6.31676414234, 
			 "total_energy": -844.98477142, 
			 "HOMO_LUMO_gap": 0.17783, 
			 "cosmo_polarized_energy": -9.99, 
			 "cosmo_cavitation_energy": 37.34, 
			 "cosmo_dispersion_energy": -25.82, 
			 "cosmo_repulsion_energy": 2.0, 
			 "cosmo_total_nonelectrostatic_energy": 13.52, 
			 "SMD_solvation_energy": 7.89 
		},
		"coords": [
			{
				"x": -1.3618139342,
				"y": -0.2935887628,
				"z": 2.3410399309,
				"element": "C" 
			},
			{
				"x": -0.8894429692,
				"y": -0.8453338495,
				"z": 1.1088372861,
				"element": "O" 
			},
			{
				"x": -0.815707221,
				"y": 0.0671071679,
				"z": 0.026304958,
				"element": "C" 
			},
			{
				"x": -2.0467285171,
				"y": 0.7025922602,
				"z": -0.1836878714,
				"element": "O" 
			},
			{
				"x": -3.1486820253,
				"y": -0.1362558559,
				"z": -0.5388579114,
				"element": "C" 
			},
			{
				"x": -0.3619332716,
				"y": -0.7185335868,
				"z": -1.2610696218,
				"element": "C" 
			},
			{
				"x": -0.8133113239,
				"y": -0.3180509186,
				"z": -2.3219406987,
				"element": "O" 
			},
			{
				"x": 0.6570383191,
				"y": -1.8233708169,
				"z": -1.252302996,
				"element": "C" 
			},
			{
				"x": 1.2067682139,
				"y": -2.1521692643,
				"z": -2.5062366457,
				"element": "C" 
			},
			{
				"x": 2.1545512433,
				"y": -3.1621275189,
				"z": -2.6275931667,
				"element": "C" 
			},
			{
				"x": 2.5652879495,
				"y": -3.8735903191,
				"z": -1.4964898199,
				"element": "C" 
			},
			{
				"x": 2.0205961929,
				"y": -3.5652243185,
				"z": -0.2496705067,
				"element": "C" 
			},
			{
				"x": 1.07514253,
				"y": -2.5468589717,
				"z": -0.1220195227,
				"element": "C" 
			},
			{
				"x": 0.2236507651,
				"y": 1.1727728171,
				"z": 0.2417633919,
				"element": "C" 
			},
			{
				"x": 1.3950466233,
				"y": 0.9134535761,
				"z": 0.964320152,
				"element": "C" 
			},
			{
				"x": 2.3606267172,
				"y": 1.9080572062,
				"z": 1.1227474003,
				"element": "C" 
			},
			{
				"x": 2.1706957726,
				"y": 3.1667626355,
				"z": 0.549990083,
				"element": "C" 
			},
			{
				"x": 1.0104840601,
				"y": 3.4246402516,
				"z": -0.1829690301,
				"element": "C" 
			},
			{
				"x": 0.0420079172,
				"y": 2.4332201757,
				"z": -0.3408075021,
				"element": "C" 
			},
			{
				"x": -1.3427180026,
				"y": -1.1132434395,
				"z": 3.0621020431,
				"element": "H" 
			},
			{
				"x": -0.7166074546,
				"y": 0.5179779369,
				"z": 2.6939713912,
				"element": "H" 
			},
			{
				"x": -2.3835329291,
				"y": 0.0846081545,
				"z": 2.2425171219,
				"element": "H" 
			},
			{
				"x": -3.1059819119,
				"y": -0.4145467904,
				"z": -1.5947442687,
				"element": "H" 
			},
			{
				"x": -4.0479929253,
				"y": 0.454636793,
				"z": -0.3515525311,
				"element": "H" 
			},
			{
				"x": -3.1763985298,
				"y": -1.040014459,
				"z": 0.0799507672,
				"element": "H" 
			},
			{
				"x": 0.8714432348,
				"y": -1.5944783105,
				"z": -3.3735581191,
				"element": "H" 
			},
			{
				"x": 2.5737946828,
				"y": -3.3966564969,
				"z": -3.6018043972,
				"element": "H" 
			},
			{
				"x": 3.3043057859,
				"y": -4.6647589377,
				"z": -1.5882583032,
				"element": "H" 
			},
			{
				"x": 2.3296186228,
				"y": -4.121216224,
				"z": 0.6309189701,
				"element": "H" 
			},
			{
				"x": 0.6453175916,
				"y": -2.3238971442,
				"z": 0.8440887784,
				"element": "H" 
			},
			{
				"x": 1.5477136304,
				"y": -0.0658393264,
				"z": 1.4052086006,
				"element": "H" 
			},
			{
				"x": 3.2618990985,
				"y": 1.6973723737,
				"z": 1.6914363597,
				"element": "H" 
			},
			{
				"x": 2.9236425583,
				"y": 3.9404109732,
				"z": 0.6710947566,
				"element": "H" 
			},
			{
				"x": 0.8581017028,
				"y": 4.4006882222,
				"z": -0.634977079,
				"element": "H" 
			},
			{
				"x": -0.8599821963,
				"y": 2.6246547679,
				"z": -0.9091519994,
				"element": "H" 
			}
		],
		 "valence_orbital": [ 
			{
				"type": "occ",
				"energy": -0.25901,
				"method": "rhf"
			},
			{
				"type": "occ",
				"energy": -0.25345,
				"method": "rhf"
			},
			{
				"type": "occ",
				"energy": -0.25234,
				"method": "rhf"
			},
			{
				"type": "occ",
				"energy": -0.24743,
				"method": "rhf"
			},
			{
				"type": "occ",
				"energy": -0.23636,
				"method": "rhf"
			},
			{
				"type": "unocc",
				"energy": -0.05853,
				"method": "rhf"
			},
			{
				"type": "unocc",
				"energy": -0.00615,
				"method": "rhf"
			},
			{
				"type": "unocc",
				"energy": -0.00442,
				"method": "rhf"
			},
			{
				"type": "unocc",
				"energy": 0.00231,
				"method": "rhf"
			},
			{
				"type": "unocc",
				"energy": 0.04425,
				"method": "rhf"
			}
		],
		"cosmo_sigma_profile": { 
			"-0.025": 0.0,
			"-0.024": 0.0,
			"-0.023": 0.0,
			"-0.022": 0.0,
			"-0.021": 0.0,
			"-0.02": 0.0,
			"-0.019": 0.0,
			"-0.018": 0.0,
			"-0.017": 0.0,
			"-0.016": 0.0,
			"-0.015": 0.0,
			"-0.014": 0.0,
			"-0.013": 0.0,
			"-0.012": 0.0,
			"-0.011": 0.0,
			"-0.01": 0.0,
			"-0.009": 0.0,
			"-0.008": 0.0,
			"-0.007": 0.991742731471,
			"-0.006": 11.9396919604,
			"-0.005": 21.0417036362,
			"-0.004": 31.8622254208,
			"-0.003": 33.0081258677,
			"-0.002": 32.6380347675,
			"-0.001": 20.5802558191,
			"0.0": 20.7789475137,
			"0.001": 17.2416739505,
			"0.002": 21.0076655418,
			"0.003": 23.6344252097,
			"0.004": 24.5205720461,
			"0.005": 14.8776519066,
			"0.006": 6.40092817988,
			"0.007": 3.36235991155,
			"0.008": 2.82294039298,
			"0.009": 2.74755930234,
			"0.01": 2.92454010916,
			"0.011": 3.45585174247,
			"0.012": 1.7116456003,
			"0.013": 0.0965259678223,
			"0.014": 0.0,
			"0.015": 0.0,
			"0.016": 0.0,
			"0.017": 0.0,
			"0.018": 0.0,
			"0.019": 0.0,
			"0.02": 0.0,
			"0.021": 0.0,
			"0.022": 0.0,
			"0.023": 0.0,
			"0.024": 0.0,
			"0.025": 0.0
		}
	}
}
