{
	 "smiles": "OC1CC(N(C1)C(=O)COC1=CC=CC=C1)C(O)=O", 
	 "Tm": 431.15, 
	 "num_atms": 34, 
	 "gaussian": { 
		 "optdone": 1, 
		 "sigma_profile": "yes", 
		 "theory": "DFT", 
		 "functional": "B3LYP", 
		 "basiset": "6-31G**", 
		 "properties": { 
			 "R2extent": 7155.5419, 
			 "electric_dipole_moment_norm": 5.84703868552, 
			 "electric_quadrupole_moment_norm": 25.8502474425, 
			 "total_energy": -935.286968947, 
			 "HOMO_LUMO_gap": 0.19279, 
			 "cosmo_polarized_energy": -25.22, 
			 "cosmo_cavitation_energy": 37.82, 
			 "cosmo_dispersion_energy": -26.78, 
			 "cosmo_repulsion_energy": 2.08, 
			 "cosmo_total_nonelectrostatic_energy": 13.12, 
			 "SMD_solvation_energy": 7.65 
		},
		"coords": [
			{
				"x": 0.3033599757,
				"y": 5.5681986429,
				"z": -1.4118617121,
				"element": "O" 
			},
			{
				"x": -0.3893265179,
				"y": 4.3447675553,
				"z": -1.2353364026,
				"element": "C" 
			},
			{
				"x": -0.4162063591,
				"y": 3.851489897,
				"z": 0.2267024455,
				"element": "C" 
			},
			{
				"x": -0.5255242533,
				"y": 2.3175924023,
				"z": 0.1181138103,
				"element": "C" 
			},
			{
				"x": 0.1235680199,
				"y": 2.0320796234,
				"z": -1.1693652197,
				"element": "N" 
			},
			{
				"x": 0.3718915838,
				"y": 3.2366349956,
				"z": -1.9714212147,
				"element": "C" 
			},
			{
				"x": 0.6173159267,
				"y": 0.8224874159,
				"z": -1.6018222415,
				"element": "C" 
			},
			{
				"x": 1.2199840138,
				"y": 0.7237352495,
				"z": -2.6572121917,
				"element": "O" 
			},
			{
				"x": 0.344078617,
				"y": -0.372157478,
				"z": -0.6795060713,
				"element": "C" 
			},
			{
				"x": 0.9791200713,
				"y": -1.4995514819,
				"z": -1.2284516696,
				"element": "O" 
			},
			{
				"x": 0.8363369706,
				"y": -2.6939265897,
				"z": -0.5756812007,
				"element": "C" 
			},
			{
				"x": 1.5114970794,
				"y": -3.777261118,
				"z": -1.1574605476,
				"element": "C" 
			},
			{
				"x": 1.4325103464,
				"y": -5.0369458705,
				"z": -0.5754187973,
				"element": "C" 
			},
			{
				"x": 0.6834249785,
				"y": -5.2366515361,
				"z": 0.5902077216,
				"element": "C" 
			},
			{
				"x": 0.0153322031,
				"y": -4.1571125477,
				"z": 1.1622463255,
				"element": "C" 
			},
			{
				"x": 0.0838366514,
				"y": -2.8817370174,
				"z": 0.5899955044,
				"element": "C" 
			},
			{
				"x": -1.9680596167,
				"y": 1.8044918716,
				"z": 0.1640722721,
				"element": "C" 
			},
			{
				"x": -2.7740924,
				"y": 2.4300609964,
				"z": -0.7229388054,
				"element": "O" 
			},
			{
				"x": -2.3582942981,
				"y": 0.9254008456,
				"z": 0.9010762986,
				"element": "O" 
			},
			{
				"x": -0.277970368,
				"y": 6.2887388456,
				"z": -1.1391485147,
				"element": "H" 
			},
			{
				"x": -1.4136935508,
				"y": 4.4129643426,
				"z": -1.6217246035,
				"element": "H" 
			},
			{
				"x": -1.2180728038,
				"y": 4.2933325841,
				"z": 0.8247119951,
				"element": "H" 
			},
			{
				"x": 0.5419388946,
				"y": 4.1112313971,
				"z": 0.687746377,
				"element": "H" 
			},
			{
				"x": -0.0151453064,
				"y": 1.8167235372,
				"z": 0.9452132991,
				"element": "H" 
			},
			{
				"x": 0.0391716285,
				"y": 3.0893185829,
				"z": -3.0009696398,
				"element": "H" 
			},
			{
				"x": 1.4414603846,
				"y": 3.4773766123,
				"z": -1.9949526151,
				"element": "H" 
			},
			{
				"x": -0.7393801484,
				"y": -0.5298066154,
				"z": -0.5850209897,
				"element": "H" 
			},
			{
				"x": 0.7225615126,
				"y": -0.1617397985,
				"z": 0.33306322,
				"element": "H" 
			},
			{
				"x": 2.0862869727,
				"y": -3.6008874734,
				"z": -2.0606631523,
				"element": "H" 
			},
			{
				"x": 1.9590552396,
				"y": -5.8693767582,
				"z": -1.0338512743,
				"element": "H" 
			},
			{
				"x": 0.6237682009,
				"y": -6.2217288221,
				"z": 1.0425693206,
				"element": "H" 
			},
			{
				"x": -0.5710662251,
				"y": -4.2965185069,
				"z": 2.066260643,
				"element": "H" 
			},
			{
				"x": -0.4490931973,
				"y": -2.0599257096,
				"z": 1.0541997044,
				"element": "H" 
			},
			{
				"x": -3.652074226,
				"y": 2.0206019261,
				"z": -0.6378720735,
				"element": "H" 
			}
		],
		 "valence_orbital": [ 
			{
				"type": "occ",
				"energy": -0.28331,
				"method": "rhf"
			},
			{
				"type": "occ",
				"energy": -0.2537,
				"method": "rhf"
			},
			{
				"type": "occ",
				"energy": -0.24812,
				"method": "rhf"
			},
			{
				"type": "occ",
				"energy": -0.24432,
				"method": "rhf"
			},
			{
				"type": "occ",
				"energy": -0.21445,
				"method": "rhf"
			},
			{
				"type": "unocc",
				"energy": -0.02166,
				"method": "rhf"
			},
			{
				"type": "unocc",
				"energy": 0.00373,
				"method": "rhf"
			},
			{
				"type": "unocc",
				"energy": 0.01725,
				"method": "rhf"
			},
			{
				"type": "unocc",
				"energy": 0.02241,
				"method": "rhf"
			},
			{
				"type": "unocc",
				"energy": 0.04798,
				"method": "rhf"
			}
		],
		"cosmo_sigma_profile": { 
			"-0.025": 0.0,
			"-0.024": 0.0,
			"-0.023": 0.0,
			"-0.022": 0.0,
			"-0.021": 0.0,
			"-0.02": 0.0,
			"-0.019": 0.51712748061,
			"-0.018": 1.03363609483,
			"-0.017": 0.841074207329,
			"-0.016": 1.73399444523,
			"-0.015": 1.84227555724,
			"-0.014": 1.49759805464,
			"-0.013": 1.32377097311,
			"-0.012": 2.3945758307,
			"-0.011": 1.65664071661,
			"-0.01": 2.36750056029,
			"-0.009": 3.36509744431,
			"-0.008": 4.92181275605,
			"-0.007": 8.58135659161,
			"-0.006": 16.5707346614,
			"-0.005": 24.073377613,
			"-0.004": 26.5245342601,
			"-0.003": 22.5636649851,
			"-0.002": 17.598894449,
			"-0.001": 16.3783135045,
			"0.0": 13.2378324249,
			"0.001": 13.0350638317,
			"0.002": 12.6296865095,
			"0.003": 15.4449149121,
			"0.004": 15.7844916209,
			"0.005": 15.9864826059,
			"0.006": 11.7903012707,
			"0.007": 4.16811171315,
			"0.008": 5.49434921362,
			"0.009": 4.74475176646,
			"0.01": 4.39215976873,
			"0.011": 7.42614808705,
			"0.012": 6.14737371915,
			"0.013": 6.79472514688,
			"0.014": 2.49245677384,
			"0.015": 1.76796862606,
			"0.016": 1.08556128875,
			"0.017": 0.168675252989,
			"0.018": 0.0,
			"0.019": 0.0,
			"0.02": 0.0,
			"0.021": 0.0,
			"0.022": 0.0,
			"0.023": 0.0,
			"0.024": 0.0,
			"0.025": 0.0
		}
	}
}
