{
	 "smiles": "OC1=C(Cl)C(Cl)=C(Cl)C(Cl)=C1Cl", 
	 "Tm": 464.15, 
	 "num_atms": 13, 
	 "gaussian": { 
		 "optdone": 1, 
		 "sigma_profile": "yes", 
		 "theory": "DFT", 
		 "functional": "B3LYP", 
		 "basiset": "6-31G**", 
		 "properties": { 
			 "R2extent": 4369.3391, 
			 "electric_dipole_moment_norm": 1.90434464055, 
			 "electric_quadrupole_moment_norm": 7.28679911621, 
			 "total_energy": -2605.39838854, 
			 "HOMO_LUMO_gap": 0.19722, 
			 "cosmo_polarized_energy": -5.96, 
			 "cosmo_cavitation_energy": 26.1, 
			 "cosmo_dispersion_energy": -20.39, 
			 "cosmo_repulsion_energy": 1.61, 
			 "cosmo_total_nonelectrostatic_energy": 7.33, 
			 "SMD_solvation_energy": 3.67 
		},
		"coords": [
			{
				"x": 1.7787864964,
				"y": -0.9822952913,
				"z": -3.1273394963,
				"element": "O" 
			},
			{
				"x": 0.8736188212,
				"y": -0.8234280844,
				"z": -2.1448819527,
				"element": "C" 
			},
			{
				"x": 0.3939198624,
				"y": -1.9704833197,
				"z": -1.4905103074,
				"element": "C" 
			},
			{
				"x": 1.0059285858,
				"y": -3.5114788965,
				"z": -1.99904425,
				"element": "Cl" 
			},
			{
				"x": -0.5494676631,
				"y": -1.8557534138,
				"z": -0.4610681066,
				"element": "C" 
			},
			{
				"x": -1.1288002354,
				"y": -3.2838440419,
				"z": 0.3338326401,
				"element": "Cl" 
			},
			{
				"x": -1.0263801519,
				"y": -0.5901569081,
				"z": -0.071764079,
				"element": "C" 
			},
			{
				"x": -2.1955718047,
				"y": -0.4487299229,
				"z": 1.2042636044,
				"element": "Cl" 
			},
			{
				"x": -0.5509613539,
				"y": 0.5597846902,
				"z": -0.7217166033,
				"element": "C" 
			},
			{
				"x": -1.1211881338,
				"y": 2.1323001422,
				"z": -0.2626181746,
				"element": "Cl" 
			},
			{
				"x": 0.3916694648,
				"y": 0.4337553329,
				"z": -1.7491283325,
				"element": "C" 
			},
			{
				"x": 1.0174180413,
				"y": 1.8322984475,
				"z": -2.5921809304,
				"element": "Cl" 
			},
			{
				"x": 2.0155280709,
				"y": -0.1112687341,
				"z": -3.4834440116,
				"element": "H" 
			}
		],
		 "valence_orbital": [ 
			{
				"type": "occ",
				"energy": -0.33113,
				"method": "rhf"
			},
			{
				"type": "occ",
				"energy": -0.31655,
				"method": "rhf"
			},
			{
				"type": "occ",
				"energy": -0.30945,
				"method": "rhf"
			},
			{
				"type": "occ",
				"energy": -0.26362,
				"method": "rhf"
			},
			{
				"type": "occ",
				"energy": -0.25016,
				"method": "rhf"
			},
			{
				"type": "unocc",
				"energy": -0.05294,
				"method": "rhf"
			},
			{
				"type": "unocc",
				"energy": -0.05202,
				"method": "rhf"
			},
			{
				"type": "unocc",
				"energy": -0.03801,
				"method": "rhf"
			},
			{
				"type": "unocc",
				"energy": 0.00531,
				"method": "rhf"
			},
			{
				"type": "unocc",
				"energy": 0.02326,
				"method": "rhf"
			}
		],
		"cosmo_sigma_profile": { 
			"-0.025": 0.0,
			"-0.024": 0.0,
			"-0.023": 0.0,
			"-0.022": 0.0,
			"-0.021": 0.0,
			"-0.02": 0.0,
			"-0.019": 0.0,
			"-0.018": 0.0,
			"-0.017": 0.298112923634,
			"-0.016": 0.772497584048,
			"-0.015": 0.851488530452,
			"-0.014": 0.467090373844,
			"-0.013": 0.686352161555,
			"-0.012": 1.04000444862,
			"-0.011": 0.981220272911,
			"-0.01": 0.970641687067,
			"-0.009": 1.8145563279,
			"-0.008": 0.943638030602,
			"-0.007": 0.996484259335,
			"-0.006": 0.874891015027,
			"-0.005": 3.29994246797,
			"-0.004": 9.12718175614,
			"-0.003": 17.307578225,
			"-0.002": 32.7445287915,
			"-0.001": 21.6358680298,
			"0.0": 17.7905193511,
			"0.001": 19.9977644522,
			"0.002": 28.16548653,
			"0.003": 38.7249774651,
			"0.004": 13.0740293607,
			"0.005": 1.783559498,
			"0.006": 1.92748824487,
			"0.007": 1.66262248785,
			"0.008": 2.13461426759,
			"0.009": 1.58164892234,
			"0.01": 0.00344062390673,
			"0.011": 0.0,
			"0.012": 0.0,
			"0.013": 0.0,
			"0.014": 0.0,
			"0.015": 0.0,
			"0.016": 0.0,
			"0.017": 0.0,
			"0.018": 0.0,
			"0.019": 0.0,
			"0.02": 0.0,
			"0.021": 0.0,
			"0.022": 0.0,
			"0.023": 0.0,
			"0.024": 0.0,
			"0.025": 0.0
		}
	}
}
