{
	 "smiles": "COC1=C(C=C(C=C1)C(C)=O)C1=CC(=CC=C1)C(F)(F)F", 
	 "Tm": 350.15, 
	 "num_atms": 34, 
	 "gaussian": { 
		 "optdone": 1, 
		 "sigma_profile": "yes", 
		 "theory": "DFT", 
		 "functional": "B3LYP", 
		 "basiset": "6-31G**", 
		 "properties": { 
			 "R2extent": 7683.9222, 
			 "electric_dipole_moment_norm": 4.84196592615, 
			 "electric_quadrupole_moment_norm": 16.6088138779, 
			 "total_energy": -1067.50937543, 
			 "HOMO_LUMO_gap": 0.1822, 
			 "cosmo_polarized_energy": -11.15, 
			 "cosmo_cavitation_energy": 39.88, 
			 "cosmo_dispersion_energy": -27.04, 
			 "cosmo_repulsion_energy": 2.02, 
			 "cosmo_total_nonelectrostatic_energy": 14.85, 
			 "SMD_solvation_energy": 9.16 
		},
		"coords": [
			{
				"x": -1.7977336478,
				"y": 0.4898319588,
				"z": -2.5172308224,
				"element": "C" 
			},
			{
				"x": -0.3763414777,
				"y": 0.4912701942,
				"z": -2.6849552072,
				"element": "O" 
			},
			{
				"x": 0.3318200973,
				"y": 1.0054382955,
				"z": -1.6216468628,
				"element": "C" 
			},
			{
				"x": 0.6282111696,
				"y": 0.2168961166,
				"z": -0.4856710335,
				"element": "C" 
			},
			{
				"x": 1.3728768843,
				"y": 0.8137397028,
				"z": 0.5372512375,
				"element": "C" 
			},
			{
				"x": 1.8238194871,
				"y": 2.138788571,
				"z": 0.4611853191,
				"element": "C" 
			},
			{
				"x": 1.5238442858,
				"y": 2.8922147214,
				"z": -0.6822201293,
				"element": "C" 
			},
			{
				"x": 0.7789128782,
				"y": 2.3253608431,
				"z": -1.7122590787,
				"element": "C" 
			},
			{
				"x": 2.6213775346,
				"y": 2.6784519221,
				"z": 1.6100424594,
				"element": "C" 
			},
			{
				"x": 3.1298006427,
				"y": 4.1089278766,
				"z": 1.5403776161,
				"element": "C" 
			},
			{
				"x": 2.8581782149,
				"y": 1.9819453163,
				"z": 2.5856901008,
				"element": "O" 
			},
			{
				"x": 0.1921459914,
				"y": -1.2008302856,
				"z": -0.3593601305,
				"element": "C" 
			},
			{
				"x": -0.3149917735,
				"y": -1.6710946281,
				"z": 0.8614077351,
				"element": "C" 
			},
			{
				"x": -0.6876202736,
				"y": -3.0077472421,
				"z": 1.01061,
				"element": "C" 
			},
			{
				"x": -0.5600533979,
				"y": -3.9012976289,
				"z": -0.0551879388,
				"element": "C" 
			},
			{
				"x": -0.0577512825,
				"y": -3.4424290075,
				"z": -1.2721761976,
				"element": "C" 
			},
			{
				"x": 0.3120136008,
				"y": -2.1074340305,
				"z": -1.4273313244,
				"element": "C" 
			},
			{
				"x": -1.2943388129,
				"y": -3.4722482097,
				"z": 2.3074498949,
				"element": "C" 
			},
			{
				"x": -1.030077803,
				"y": -4.7758830428,
				"z": 2.5475031267,
				"element": "F" 
			},
			{
				"x": -2.6428637653,
				"y": -3.341973207,
				"z": 2.3000841116,
				"element": "F" 
			},
			{
				"x": -0.8390996378,
				"y": -2.7628288153,
				"z": 3.3628143799,
				"element": "F" 
			},
			{
				"x": -2.2152573092,
				"y": 0.0631412146,
				"z": -3.430937247,
				"element": "H" 
			},
			{
				"x": -2.1006208777,
				"y": -0.121593466,
				"z": -1.6596250838,
				"element": "H" 
			},
			{
				"x": -2.1762075888,
				"y": 1.5112743325,
				"z": -2.3853276173,
				"element": "H" 
			},
			{
				"x": 1.6432429951,
				"y": 0.242822018,
				"z": 1.4195403531,
				"element": "H" 
			},
			{
				"x": 1.865642032,
				"y": 3.9176815919,
				"z": -0.7760611608,
				"element": "H" 
			},
			{
				"x": 0.5336043225,
				"y": 2.8894403512,
				"z": -2.6063815595,
				"element": "H" 
			},
			{
				"x": 3.6798233122,
				"y": 4.3278198988,
				"z": 2.4558826454,
				"element": "H" 
			},
			{
				"x": 2.3004316393,
				"y": 4.817354125,
				"z": 1.4366842795,
				"element": "H" 
			},
			{
				"x": 3.7899908521,
				"y": 4.2502544551,
				"z": 0.6774689993,
				"element": "H" 
			},
			{
				"x": -0.4232458632,
				"y": -0.9906715462,
				"z": 1.6990902861,
				"element": "H" 
			},
			{
				"x": -0.8437421717,
				"y": -4.9403477776,
				"z": 0.0716846453,
				"element": "H" 
			},
			{
				"x": 0.0540869272,
				"y": -4.1314471877,
				"z": -2.1039403125,
				"element": "H" 
			},
			{
				"x": 0.7007228154,
				"y": -1.76012743,
				"z": -2.3773554834,
				"element": "H" 
			}
		],
		 "valence_orbital": [ 
			{
				"type": "occ",
				"energy": -0.28297,
				"method": "rhf"
			},
			{
				"type": "occ",
				"energy": -0.26776,
				"method": "rhf"
			},
			{
				"type": "occ",
				"energy": -0.25725,
				"method": "rhf"
			},
			{
				"type": "occ",
				"energy": -0.25038,
				"method": "rhf"
			},
			{
				"type": "occ",
				"energy": -0.24104,
				"method": "rhf"
			},
			{
				"type": "unocc",
				"energy": -0.05884,
				"method": "rhf"
			},
			{
				"type": "unocc",
				"energy": -0.04001,
				"method": "rhf"
			},
			{
				"type": "unocc",
				"energy": -0.02521,
				"method": "rhf"
			},
			{
				"type": "unocc",
				"energy": 0.00058,
				"method": "rhf"
			},
			{
				"type": "unocc",
				"energy": 0.03923,
				"method": "rhf"
			}
		],
		"cosmo_sigma_profile": { 
			"-0.025": 0.0,
			"-0.024": 0.0,
			"-0.023": 0.0,
			"-0.022": 0.0,
			"-0.021": 0.0,
			"-0.02": 0.0,
			"-0.019": 0.0,
			"-0.018": 0.0,
			"-0.017": 0.0,
			"-0.016": 0.0,
			"-0.015": 0.0,
			"-0.014": 0.0,
			"-0.013": 0.0,
			"-0.012": 0.0,
			"-0.011": 0.0,
			"-0.01": 0.0,
			"-0.009": 0.0,
			"-0.008": 0.0532272421561,
			"-0.007": 5.84736989373,
			"-0.006": 18.4936474701,
			"-0.005": 24.5555252262,
			"-0.004": 23.8767552024,
			"-0.003": 26.6755889966,
			"-0.002": 24.8202836641,
			"-0.001": 23.6734294687,
			"0.0": 21.8699981991,
			"0.001": 26.5510742059,
			"0.002": 36.9691578544,
			"0.003": 50.1632841062,
			"0.004": 9.67867097764,
			"0.005": 3.07359985107,
			"0.006": 2.96309643892,
			"0.007": 2.146043998,
			"0.008": 2.39657809621,
			"0.009": 2.66195888933,
			"0.01": 2.84031338185,
			"0.011": 3.77538632709,
			"0.012": 4.0877565476,
			"0.013": 1.53549773104,
			"0.014": 0.138014981769,
			"0.015": 0.0,
			"0.016": 0.0,
			"0.017": 0.0,
			"0.018": 0.0,
			"0.019": 0.0,
			"0.02": 0.0,
			"0.021": 0.0,
			"0.022": 0.0,
			"0.023": 0.0,
			"0.024": 0.0,
			"0.025": 0.0
		}
	}
}
