{
	 "smiles": "CCC1=C(C(=O)C2=CC=C(O)C=C2)C2=C(O1)C=CC=C2", 
	 "Tm": 397.15, 
	 "num_atms": 34, 
	 "gaussian": { 
		 "optdone": 1, 
		 "sigma_profile": "yes", 
		 "theory": "DFT", 
		 "functional": "B3LYP", 
		 "basiset": "6-31G**", 
		 "properties": { 
			 "R2extent": 6686.5504, 
			 "electric_dipole_moment_norm": 4.27487979363, 
			 "electric_quadrupole_moment_norm": 12.7085365129, 
			 "total_energy": -881.921052045, 
			 "HOMO_LUMO_gap": 0.166, 
			 "cosmo_polarized_energy": -15.37, 
			 "cosmo_cavitation_energy": 38.09, 
			 "cosmo_dispersion_energy": -26.98, 
			 "cosmo_repulsion_energy": 2.08, 
			 "cosmo_total_nonelectrostatic_energy": 13.19, 
			 "SMD_solvation_energy": 7.31 
		},
		"coords": [
			{
				"x": -1.0845417868,
				"y": -0.6419340019,
				"z": 3.0604938741,
				"element": "C" 
			},
			{
				"x": -0.9039389848,
				"y": 0.4933024416,
				"z": 2.0349085688,
				"element": "C" 
			},
			{
				"x": -1.3345841133,
				"y": 0.0996758081,
				"z": 0.6589653363,
				"element": "C" 
			},
			{
				"x": -0.6874638945,
				"y": -0.0651367106,
				"z": -0.5429054201,
				"element": "C" 
			},
			{
				"x": 0.7355484597,
				"y": 0.1479095553,
				"z": -0.9076873518,
				"element": "C" 
			},
			{
				"x": 1.2723233307,
				"y": -0.6261085019,
				"z": -1.6990028413,
				"element": "O" 
			},
			{
				"x": 1.5013695421,
				"y": 1.3098650229,
				"z": -0.3664271801,
				"element": "C" 
			},
			{
				"x": 0.8901031465,
				"y": 2.4968002866,
				"z": 0.0631069663,
				"element": "C" 
			},
			{
				"x": 1.6543641581,
				"y": 3.5815624033,
				"z": 0.4861022562,
				"element": "C" 
			},
			{
				"x": 3.0514311861,
				"y": 3.4885604272,
				"z": 0.4917261791,
				"element": "C" 
			},
			{
				"x": 3.8544824569,
				"y": 4.5076251729,
				"z": 0.9020586676,
				"element": "O" 
			},
			{
				"x": 3.6782919815,
				"y": 2.3108956927,
				"z": 0.0562956766,
				"element": "C" 
			},
			{
				"x": 2.9071578028,
				"y": 1.2449827488,
				"z": -0.379211628,
				"element": "C" 
			},
			{
				"x": -1.6691860248,
				"y": -0.635830082,
				"z": -1.4518656093,
				"element": "C" 
			},
			{
				"x": -2.8580568405,
				"y": -0.7274227036,
				"z": -0.7158717388,
				"element": "C" 
			},
			{
				"x": -2.6486470919,
				"y": -0.2918886412,
				"z": 0.5704716596,
				"element": "O" 
			},
			{
				"x": -4.0577221471,
				"y": -1.1976440345,
				"z": -1.2342076041,
				"element": "C" 
			},
			{
				"x": -4.0345133622,
				"y": -1.6007403755,
				"z": -2.5696295455,
				"element": "C" 
			},
			{
				"x": -2.8541803827,
				"y": -1.5301079341,
				"z": -3.3328433098,
				"element": "C" 
			},
			{
				"x": -1.6635335523,
				"y": -1.0520245491,
				"z": -2.7902634686,
				"element": "C" 
			},
			{
				"x": -0.4784931397,
				"y": -1.5119288913,
				"z": 2.790341365,
				"element": "H" 
			},
			{
				"x": -2.1290060755,
				"y": -0.9590350855,
				"z": 3.1142745481,
				"element": "H" 
			},
			{
				"x": -0.7751852143,
				"y": -0.305688216,
				"z": 4.0546066925,
				"element": "H" 
			},
			{
				"x": -1.489300784,
				"y": 1.3658484221,
				"z": 2.3551894636,
				"element": "H" 
			},
			{
				"x": 0.1405753289,
				"y": 0.8070582791,
				"z": 1.9996524811,
				"element": "H" 
			},
			{
				"x": -0.1913198683,
				"y": 2.5832152199,
				"z": 0.0422874365,
				"element": "H" 
			},
			{
				"x": 1.1688762295,
				"y": 4.5023439424,
				"z": 0.8026505715,
				"element": "H" 
			},
			{
				"x": 3.3090921921,
				"y": 5.2597649775,
				"z": 1.1678878382,
				"element": "H" 
			},
			{
				"x": 4.762116248,
				"y": 2.2626978804,
				"z": 0.063155247,
				"element": "H" 
			},
			{
				"x": 3.3747410598,
				"y": 0.335669058,
				"z": -0.7418607259,
				"element": "H" 
			},
			{
				"x": -4.9557490571,
				"y": -1.2488382534,
				"z": -0.6282986688,
				"element": "H" 
			},
			{
				"x": -4.9437464076,
				"y": -1.9806407634,
				"z": -3.0258008754,
				"element": "H" 
			},
			{
				"x": -2.8731215419,
				"y": -1.8622423966,
				"z": -4.3666629652,
				"element": "H" 
			},
			{
				"x": -0.7486828535,
				"y": -1.0145661982,
				"z": -3.3701358955,
				"element": "H" 
			}
		],
		 "valence_orbital": [ 
			{
				"type": "occ",
				"energy": -0.2647,
				"method": "rhf"
			},
			{
				"type": "occ",
				"energy": -0.24593,
				"method": "rhf"
			},
			{
				"type": "occ",
				"energy": -0.23545,
				"method": "rhf"
			},
			{
				"type": "occ",
				"energy": -0.23261,
				"method": "rhf"
			},
			{
				"type": "occ",
				"energy": -0.21909,
				"method": "rhf"
			},
			{
				"type": "unocc",
				"energy": -0.05309,
				"method": "rhf"
			},
			{
				"type": "unocc",
				"energy": -0.01845,
				"method": "rhf"
			},
			{
				"type": "unocc",
				"energy": -0.01175,
				"method": "rhf"
			},
			{
				"type": "unocc",
				"energy": 0.01556,
				"method": "rhf"
			},
			{
				"type": "unocc",
				"energy": 0.02415,
				"method": "rhf"
			}
		],
		"cosmo_sigma_profile": { 
			"-0.025": 0.0,
			"-0.024": 0.0,
			"-0.023": 0.0,
			"-0.022": 0.0,
			"-0.021": 0.0,
			"-0.02": 0.0,
			"-0.019": 0.0224960142911,
			"-0.018": 0.916885157945,
			"-0.017": 1.37325174783,
			"-0.016": 0.950895016961,
			"-0.015": 1.3298817986,
			"-0.014": 0.961989533845,
			"-0.013": 1.12507062274,
			"-0.012": 0.750984412468,
			"-0.011": 0.881905539511,
			"-0.01": 1.12795909395,
			"-0.009": 0.779871980194,
			"-0.008": 1.55788353142,
			"-0.007": 4.40551765536,
			"-0.006": 10.4659854246,
			"-0.005": 18.1716093747,
			"-0.004": 22.1734799374,
			"-0.003": 24.8295656215,
			"-0.002": 25.5787372988,
			"-0.001": 25.6644228354,
			"0.0": 24.8217748654,
			"0.001": 22.6732785465,
			"0.002": 22.2406681578,
			"0.003": 24.5266898608,
			"0.004": 20.9872102501,
			"0.005": 15.1194712829,
			"0.006": 6.47324802204,
			"0.007": 4.26822293209,
			"0.008": 3.82332456896,
			"0.009": 3.58258901297,
			"0.01": 3.88108245848,
			"0.011": 3.02997335709,
			"0.012": 3.67726926578,
			"0.013": 2.19756535138,
			"0.014": 0.0,
			"0.015": 0.0,
			"0.016": 0.0,
			"0.017": 0.0,
			"0.018": 0.0,
			"0.019": 0.0,
			"0.02": 0.0,
			"0.021": 0.0,
			"0.022": 0.0,
			"0.023": 0.0,
			"0.024": 0.0,
			"0.025": 0.0
		}
	}
}
