{
	 "smiles": "OC(=O)C1=CC(Cl)=C(I)C=C1", 
	 "Tm": 492.15, 
	 "num_atms": 15, 
	 "gaussian": { 
		 "optdone": 1, 
		 "sigma_profile": "yes", 
		 "theory": "DFT", 
		 "functional": "B3LYP", 
		 "basiset": "6-31G**", 
		 "properties": { 
			 "R2extent": 2506.8816, 
			 "electric_dipole_moment_norm": 2.5570844374, 
			 "electric_quadrupole_moment_norm": 13.9031493824, 
			 "total_energy": -891.181652862, 
			 "HOMO_LUMO_gap": 0.18864, 
			 "cosmo_polarized_energy": -13.48, 
			 "cosmo_cavitation_energy": 24.91, 
			 "cosmo_dispersion_energy": -19.89, 
			 "cosmo_repulsion_energy": 1.56, 
			 "cosmo_total_nonelectrostatic_energy": 6.58, 
			 "SMD_solvation_energy": 4.37 
		},
		"coords": [
			{
				"x": 1.269061879,
				"y": 0.273497585,
				"z": 2.3187862043,
				"element": "O" 
			},
			{
				"x": 0.8884257079,
				"y": -0.9434772758,
				"z": 1.8508867497,
				"element": "C" 
			},
			{
				"x": 1.103132908,
				"y": -1.9392261594,
				"z": 2.4991533138,
				"element": "O" 
			},
			{
				"x": 0.2019862157,
				"y": -0.9753944377,
				"z": 0.5155229775,
				"element": "C" 
			},
			{
				"x": -0.44547652,
				"y": 0.1365882742,
				"z": -0.0303712644,
				"element": "C" 
			},
			{
				"x": -1.0838530248,
				"y": 0.0491727222,
				"z": -1.2701762338,
				"element": "C" 
			},
			{
				"x": -1.8794294004,
				"y": 1.4810070587,
				"z": -1.8772290321,
				"element": "Cl" 
			},
			{
				"x": -1.077456516,
				"y": -1.1607923602,
				"z": -1.9784801958,
				"element": "C" 
			},
			{
				"x": -2.0033184737,
				"y": -1.3760212138,
				"z": -3.8589605338,
				"element": "I" 
			},
			{
				"x": -0.4391799022,
				"y": -2.2768008039,
				"z": -1.4198842579,
				"element": "C" 
			},
			{
				"x": 0.1857582514,
				"y": -2.1891700026,
				"z": -0.1821115582,
				"element": "C" 
			},
			{
				"x": 1.1978728262,
				"y": 0.9439385015,
				"z": 1.6253764369,
				"element": "H" 
			},
			{
				"x": -0.5058582402,
				"y": 1.078367262,
				"z": 0.5060668101,
				"element": "H" 
			},
			{
				"x": -0.4381974967,
				"y": -3.2158879773,
				"z": -1.9612709838,
				"element": "H" 
			},
			{
				"x": 0.6690317859,
				"y": -3.0530011728,
				"z": 0.2603915676,
				"element": "H" 
			}
		],
		 "valence_orbital": [ 
			{
				"type": "occ",
				"energy": -0.31872,
				"method": "rhf"
			},
			{
				"type": "occ",
				"energy": -0.28787,
				"method": "rhf"
			},
			{
				"type": "occ",
				"energy": -0.28137,
				"method": "rhf"
			},
			{
				"type": "occ",
				"energy": -0.27974,
				"method": "rhf"
			},
			{
				"type": "occ",
				"energy": -0.26126,
				"method": "rhf"
			},
			{
				"type": "unocc",
				"energy": -0.07262,
				"method": "rhf"
			},
			{
				"type": "unocc",
				"energy": -0.0617,
				"method": "rhf"
			},
			{
				"type": "unocc",
				"energy": -0.04533,
				"method": "rhf"
			},
			{
				"type": "unocc",
				"energy": 0.01555,
				"method": "rhf"
			},
			{
				"type": "unocc",
				"energy": 0.02527,
				"method": "rhf"
			}
		],
		"cosmo_sigma_profile": { 
			"-0.025": 0.0,
			"-0.024": 0.0,
			"-0.023": 0.0,
			"-0.022": 0.0,
			"-0.021": 0.0,
			"-0.02": 0.224419854261,
			"-0.019": 0.799355416526,
			"-0.018": 1.02262439245,
			"-0.017": 1.39323776069,
			"-0.016": 1.04924607439,
			"-0.015": 0.5691295058,
			"-0.014": 0.563441065153,
			"-0.013": 1.68925268463,
			"-0.012": 1.2548813744,
			"-0.011": 1.67464897985,
			"-0.01": 0.819880269441,
			"-0.009": 1.31626615463,
			"-0.008": 4.83580880188,
			"-0.007": 7.3049588426,
			"-0.006": 6.89216732204,
			"-0.005": 7.30994834073,
			"-0.004": 7.17981097285,
			"-0.003": 10.3935043545,
			"-0.002": 10.9143894971,
			"-0.001": 16.7669723867,
			"0.0": 24.0849412989,
			"0.001": 20.3411434272,
			"0.002": 14.2590984177,
			"0.003": 20.7467486135,
			"0.004": 15.1202567136,
			"0.005": 3.77606773266,
			"0.006": 2.12140246805,
			"0.007": 2.40648753069,
			"0.008": 2.74355343919,
			"0.009": 4.10847344499,
			"0.01": 4.72333126504,
			"0.011": 5.5600466195,
			"0.012": 3.25308403561,
			"0.013": 0.576921432734,
			"0.014": 0.0,
			"0.015": 0.0,
			"0.016": 0.0,
			"0.017": 0.0,
			"0.018": 0.0,
			"0.019": 0.0,
			"0.02": 0.0,
			"0.021": 0.0,
			"0.022": 0.0,
			"0.023": 0.0,
			"0.024": 0.0,
			"0.025": 0.0
		}
	}
}
