{
	 "smiles": "COC1=CC=C(C=C1)C(O)C1=CC=CC=C1", 
	 "Tm": 340.15, 
	 "num_atms": 30, 
	 "gaussian": { 
		 "optdone": 1, 
		 "sigma_profile": "yes", 
		 "theory": "DFT", 
		 "functional": "B3LYP", 
		 "basiset": "6-31G**", 
		 "properties": { 
			 "R2extent": 5208.9988, 
			 "electric_dipole_moment_norm": 2.24013219476, 
			 "electric_quadrupole_moment_norm": 8.62973688069, 
			 "total_energy": -692.356292189, 
			 "HOMO_LUMO_gap": 0.19937, 
			 "cosmo_polarized_energy": -10.94, 
			 "cosmo_cavitation_energy": 33.56, 
			 "cosmo_dispersion_energy": -23.95, 
			 "cosmo_repulsion_energy": 1.88, 
			 "cosmo_total_nonelectrostatic_energy": 11.48, 
			 "SMD_solvation_energy": 6.37 
		},
		"coords": [
			{
				"x": -0.7383872058,
				"y": -3.1417972705,
				"z": -4.6769398114,
				"element": "C" 
			},
			{
				"x": -1.5754703002,
				"y": -2.1351053459,
				"z": -4.1348135538,
				"element": "O" 
			},
			{
				"x": -1.2017834836,
				"y": -1.5502188657,
				"z": -2.9567826451,
				"element": "C" 
			},
			{
				"x": -2.0631604752,
				"y": -0.561838883,
				"z": -2.4636560197,
				"element": "C" 
			},
			{
				"x": -1.7722348342,
				"y": 0.0945052082,
				"z": -1.2722046535,
				"element": "C" 
			},
			{
				"x": -0.6186066743,
				"y": -0.2206548428,
				"z": -0.5424116558,
				"element": "C" 
			},
			{
				"x": 0.2341248598,
				"y": -1.2066965819,
				"z": -1.0445423528,
				"element": "C" 
			},
			{
				"x": -0.0428812555,
				"y": -1.8729219273,
				"z": -2.239731373,
				"element": "C" 
			},
			{
				"x": -0.2769804151,
				"y": 0.4933113834,
				"z": 0.7604297947,
				"element": "C" 
			},
			{
				"x": -1.2613741145,
				"y": 1.5026537365,
				"z": 0.9795600379,
				"element": "O" 
			},
			{
				"x": -0.1956189335,
				"y": -0.4584612375,
				"z": 1.9488056553,
				"element": "C" 
			},
			{
				"x": 1.0273953862,
				"y": -0.7296563681,
				"z": 2.5700269317,
				"element": "C" 
			},
			{
				"x": 1.0951075132,
				"y": -1.5999963672,
				"z": 3.6618474311,
				"element": "C" 
			},
			{
				"x": -0.0663336996,
				"y": -2.1990378179,
				"z": 4.1481888586,
				"element": "C" 
			},
			{
				"x": -1.2952667696,
				"y": -1.9254061208,
				"z": 3.5385708988,
				"element": "C" 
			},
			{
				"x": -1.3593191713,
				"y": -1.0629417586,
				"z": 2.4465463079,
				"element": "C" 
			},
			{
				"x": 0.2642530295,
				"y": -2.75757202,
				"z": -4.9069552046,
				"element": "H" 
			},
			{
				"x": -0.643474332,
				"y": -4.0009193357,
				"z": -3.9996944938,
				"element": "H" 
			},
			{
				"x": -1.2167408986,
				"y": -3.4675830754,
				"z": -5.6022062992,
				"element": "H" 
			},
			{
				"x": -2.9552865812,
				"y": -0.3218667044,
				"z": -3.0333846529,
				"element": "H" 
			},
			{
				"x": -2.4386050098,
				"y": 0.8638390018,
				"z": -0.9008034574,
				"element": "H" 
			},
			{
				"x": 1.1324638556,
				"y": -1.473704005,
				"z": -0.4932231413,
				"element": "H" 
			},
			{
				"x": 0.642652849,
				"y": -2.6329633136,
				"z": -2.5955745219,
				"element": "H" 
			},
			{
				"x": 0.7150057772,
				"y": 0.9612247272,
				"z": 0.6408675165,
				"element": "H" 
			},
			{
				"x": -1.1166017508,
				"y": 1.8560115769,
				"z": 1.8663587206,
				"element": "H" 
			},
			{
				"x": 1.9331762013,
				"y": -0.253803448,
				"z": 2.2005302223,
				"element": "H" 
			},
			{
				"x": 2.0525547729,
				"y": -1.8020096424,
				"z": 4.1339510493,
				"element": "H" 
			},
			{
				"x": -0.0178430335,
				"y": -2.873103428,
				"z": 4.9986847811,
				"element": "H" 
			},
			{
				"x": -2.20309978,
				"y": -2.3884102704,
				"z": 3.9154288997,
				"element": "H" 
			},
			{
				"x": -2.3109655259,
				"y": -0.8482770038,
				"z": 1.9693267304,
				"element": "H" 
			}
		],
		 "valence_orbital": [ 
			{
				"type": "occ",
				"energy": -0.27808,
				"method": "rhf"
			},
			{
				"type": "occ",
				"energy": -0.25129,
				"method": "rhf"
			},
			{
				"type": "occ",
				"energy": -0.24369,
				"method": "rhf"
			},
			{
				"type": "occ",
				"energy": -0.24202,
				"method": "rhf"
			},
			{
				"type": "occ",
				"energy": -0.20694,
				"method": "rhf"
			},
			{
				"type": "unocc",
				"energy": -0.00757,
				"method": "rhf"
			},
			{
				"type": "unocc",
				"energy": -0.00383,
				"method": "rhf"
			},
			{
				"type": "unocc",
				"energy": 0.00562,
				"method": "rhf"
			},
			{
				"type": "unocc",
				"energy": 0.02342,
				"method": "rhf"
			},
			{
				"type": "unocc",
				"energy": 0.09008,
				"method": "rhf"
			}
		],
		"cosmo_sigma_profile": { 
			"-0.025": 0.0,
			"-0.024": 0.0,
			"-0.023": 0.0,
			"-0.022": 0.0,
			"-0.021": 0.0,
			"-0.02": 0.0,
			"-0.019": 0.0,
			"-0.018": 0.0,
			"-0.017": 0.0,
			"-0.016": 0.273447044997,
			"-0.015": 0.773056117915,
			"-0.014": 1.03953783741,
			"-0.013": 0.640409236055,
			"-0.012": 0.725245398601,
			"-0.011": 0.822045647383,
			"-0.01": 0.766369836692,
			"-0.009": 0.78285267388,
			"-0.008": 0.669259595062,
			"-0.007": 0.88852398966,
			"-0.006": 9.51888173765,
			"-0.005": 26.9453532615,
			"-0.004": 28.9540894359,
			"-0.003": 27.4023546068,
			"-0.002": 19.1720142934,
			"-0.001": 13.6138318288,
			"0.0": 13.4768688019,
			"0.001": 15.4606420539,
			"0.002": 13.4386855641,
			"0.003": 17.4229551592,
			"0.004": 19.0654011902,
			"0.005": 22.2582740557,
			"0.006": 17.1139329911,
			"0.007": 4.25650894552,
			"0.008": 2.17406550874,
			"0.009": 2.48231023489,
			"0.01": 3.12026057659,
			"0.011": 2.02259467974,
			"0.012": 0.846824563212,
			"0.013": 0.408511098988,
			"0.014": 0.0455849414825,
			"0.015": 0.0,
			"0.016": 0.0,
			"0.017": 0.0,
			"0.018": 0.0,
			"0.019": 0.0,
			"0.02": 0.0,
			"0.021": 0.0,
			"0.022": 0.0,
			"0.023": 0.0,
			"0.024": 0.0,
			"0.025": 0.0
		}
	}
}
