{
	 "smiles": "COC1=CC=C(C=C1)C(N)CC1=CC=C(F)C=C1", 
	 "Tm": 321.15, 
	 "num_atms": 34, 
	 "gaussian": { 
		 "optdone": 1, 
		 "sigma_profile": "yes", 
		 "theory": "DFT", 
		 "functional": "B3LYP", 
		 "basiset": "6-31G**", 
		 "properties": { 
			 "R2extent": 6387.666, 
			 "electric_dipole_moment_norm": 3.74813776828, 
			 "electric_quadrupole_moment_norm": 13.2215230261, 
			 "total_energy": -811.038676877, 
			 "HOMO_LUMO_gap": 0.20997, 
			 "cosmo_polarized_energy": -11.42, 
			 "cosmo_cavitation_energy": 37.49, 
			 "cosmo_dispersion_energy": -25.63, 
			 "cosmo_repulsion_energy": 1.99, 
			 "cosmo_total_nonelectrostatic_energy": 13.85, 
			 "SMD_solvation_energy": 6.94 
		},
		"coords": [
			{
				"x": -2.6054334991,
				"y": -4.3865271667,
				"z": -0.3801291604,
				"element": "C" 
			},
			{
				"x": -1.8702991278,
				"y": -3.3577604684,
				"z": 0.2600190266,
				"element": "O" 
			},
			{
				"x": -1.2633389929,
				"y": -2.4156706673,
				"z": -0.5222111948,
				"element": "C" 
			},
			{
				"x": -1.3058738879,
				"y": -2.3933874578,
				"z": -1.9205987371,
				"element": "C" 
			},
			{
				"x": -0.6359895927,
				"y": -1.378862113,
				"z": -2.6112650321,
				"element": "C" 
			},
			{
				"x": 0.0705743792,
				"y": -0.3757879101,
				"z": -1.9442442359,
				"element": "C" 
			},
			{
				"x": 0.1014358807,
				"y": -0.4149715804,
				"z": -0.5399609389,
				"element": "C" 
			},
			{
				"x": -0.5515571753,
				"y": -1.4196509682,
				"z": 0.1625863832,
				"element": "C" 
			},
			{
				"x": 0.7629816331,
				"y": 0.7256021244,
				"z": -2.7287398843,
				"element": "C" 
			},
			{
				"x": 2.0084518082,
				"y": 1.1255752898,
				"z": -2.0607401084,
				"element": "N" 
			},
			{
				"x": -0.1343883419,
				"y": 1.9827710468,
				"z": -2.9397242051,
				"element": "C" 
			},
			{
				"x": -0.6662295068,
				"y": 2.6496280966,
				"z": -1.6904765957,
				"element": "C" 
			},
			{
				"x": -1.9884726821,
				"y": 2.4368446214,
				"z": -1.2766862215,
				"element": "C" 
			},
			{
				"x": -2.5017981921,
				"y": 3.0458162681,
				"z": -0.1307507292,
				"element": "C" 
			},
			{
				"x": -1.6707704227,
				"y": 3.87871869,
				"z": 0.6070140327,
				"element": "C" 
			},
			{
				"x": -2.1567672094,
				"y": 4.4782435917,
				"z": 1.7172409002,
				"element": "F" 
			},
			{
				"x": -0.3532338556,
				"y": 4.1165830813,
				"z": 0.2326052036,
				"element": "C" 
			},
			{
				"x": 0.1390075594,
				"y": 3.4995183578,
				"z": -0.9170235579,
				"element": "C" 
			},
			{
				"x": -3.0041380114,
				"y": -5.0152665482,
				"z": 0.4177662986,
				"element": "H" 
			},
			{
				"x": -1.9677087492,
				"y": -4.9964287303,
				"z": -1.0336550984,
				"element": "H" 
			},
			{
				"x": -3.4387004752,
				"y": -3.9838372397,
				"z": -0.9710589686,
				"element": "H" 
			},
			{
				"x": -1.8394867569,
				"y": -3.1545980125,
				"z": -2.4775234831,
				"element": "H" 
			},
			{
				"x": -0.6659220847,
				"y": -1.3793283811,
				"z": -3.6990105833,
				"element": "H" 
			},
			{
				"x": 0.6488671091,
				"y": 0.3527653347,
				"z": -0.0039372281,
				"element": "H" 
			},
			{
				"x": -0.5283823785,
				"y": -1.4543026403,
				"z": 1.2471345583,
				"element": "H" 
			},
			{
				"x": 0.9421552207,
				"y": 0.3282210828,
				"z": -3.7442105224,
				"element": "H" 
			},
			{
				"x": 2.5403158303,
				"y": 1.7452374807,
				"z": -2.6677020542,
				"element": "H" 
			},
			{
				"x": 2.5874834166,
				"y": 0.3060059468,
				"z": -1.8945638426,
				"element": "H" 
			},
			{
				"x": -0.973567719,
				"y": 1.682495074,
				"z": -3.5766235314,
				"element": "H" 
			},
			{
				"x": 0.4511574043,
				"y": 2.706323706,
				"z": -3.5240973781,
				"element": "H" 
			},
			{
				"x": -2.6300924448,
				"y": 1.7807668513,
				"z": -1.8585628924,
				"element": "H" 
			},
			{
				"x": -3.5249185319,
				"y": 2.8843940223,
				"z": 0.1914094895,
				"element": "H" 
			},
			{
				"x": 0.2640541435,
				"y": 4.7753489096,
				"z": 0.8341793027,
				"element": "H" 
			},
			{
				"x": 1.1692852528,
				"y": 3.6697203079,
				"z": -1.2107590113,
				"element": "H" 
			}
		],
		 "valence_orbital": [ 
			{
				"type": "occ",
				"energy": -0.25057,
				"method": "rhf"
			},
			{
				"type": "occ",
				"energy": -0.24434,
				"method": "rhf"
			},
			{
				"type": "occ",
				"energy": -0.23757,
				"method": "rhf"
			},
			{
				"type": "occ",
				"energy": -0.22616,
				"method": "rhf"
			},
			{
				"type": "occ",
				"energy": -0.2103,
				"method": "rhf"
			},
			{
				"type": "unocc",
				"energy": -0.00033,
				"method": "rhf"
			},
			{
				"type": "unocc",
				"energy": 0.00386,
				"method": "rhf"
			},
			{
				"type": "unocc",
				"energy": 0.01014,
				"method": "rhf"
			},
			{
				"type": "unocc",
				"energy": 0.01794,
				"method": "rhf"
			},
			{
				"type": "unocc",
				"energy": 0.0762,
				"method": "rhf"
			}
		],
		"cosmo_sigma_profile": { 
			"-0.025": 0.0,
			"-0.024": 0.0,
			"-0.023": 0.0,
			"-0.022": 0.0,
			"-0.021": 0.0,
			"-0.02": 0.0,
			"-0.019": 0.0,
			"-0.018": 0.0,
			"-0.017": 0.0,
			"-0.016": 0.0,
			"-0.015": 0.0,
			"-0.014": 0.0,
			"-0.013": 0.0,
			"-0.012": 0.0,
			"-0.011": 0.0,
			"-0.01": 0.532994522645,
			"-0.009": 2.79974801993,
			"-0.008": 2.51865160469,
			"-0.007": 5.05967385284,
			"-0.006": 11.7869264434,
			"-0.005": 23.4412440393,
			"-0.004": 27.7985971601,
			"-0.003": 32.2189345326,
			"-0.002": 23.4944200781,
			"-0.001": 18.7327984508,
			"0.0": 15.6154700407,
			"0.001": 16.9160624936,
			"0.002": 18.3283624263,
			"0.003": 18.8646101507,
			"0.004": 26.8346985821,
			"0.005": 25.8752364381,
			"0.006": 11.6542966774,
			"0.007": 3.04516455243,
			"0.008": 2.50671101283,
			"0.009": 2.60022944018,
			"0.01": 1.92784453626,
			"0.011": 1.69113133338,
			"0.012": 0.732845925584,
			"0.013": 0.551245412053,
			"0.014": 0.481705543729,
			"0.015": 0.313053732405,
			"0.016": 0.00893579667674,
			"0.017": 0.0,
			"0.018": 0.0,
			"0.019": 0.0,
			"0.02": 0.0,
			"0.021": 0.0,
			"0.022": 0.0,
			"0.023": 0.0,
			"0.024": 0.0,
			"0.025": 0.0
		}
	}
}
