{
	 "smiles": "CC1(C)[C@H]2CC[C@]1(CS(O)(=O)=O)C(=O)C2", 
	 "Tm": 473.15, 
	 "num_atms": 31, 
	 "gaussian": { 
		 "optdone": 1, 
		 "sigma_profile": "yes", 
		 "theory": "DFT", 
		 "functional": "B3LYP", 
		 "basiset": "6-31G**", 
		 "properties": { 
			 "R2extent": 3984.2418, 
			 "electric_dipole_moment_norm": 5.69612760127, 
			 "electric_quadrupole_moment_norm": 10.2120267856, 
			 "total_energy": -1089.72059362, 
			 "HOMO_LUMO_gap": 0.22338, 
			 "cosmo_polarized_energy": -18.83, 
			 "cosmo_cavitation_energy": 31.01, 
			 "cosmo_dispersion_energy": -23.07, 
			 "cosmo_repulsion_energy": 1.71, 
			 "cosmo_total_nonelectrostatic_energy": 9.65, 
			 "SMD_solvation_energy": 4.51 
		},
		"coords": [
			{
				"x": 1.9293487074,
				"y": -1.6752048882,
				"z": -2.3147570474,
				"element": "C" 
			},
			{
				"x": 1.8578521233,
				"y": -1.43545373,
				"z": -0.7967837191,
				"element": "C" 
			},
			{
				"x": 2.0073921852,
				"y": -2.8058781815,
				"z": -0.1043643082,
				"element": "C" 
			},
			{
				"x": 2.908782438,
				"y": -0.3973462687,
				"z": -0.2691812824,
				"element": "C" 
			},
			{
				"x": 2.5160829604,
				"y": 0.9100196221,
				"z": -0.9915134036,
				"element": "C" 
			},
			{
				"x": 0.9617487897,
				"y": 0.8299993522,
				"z": -1.0188108737,
				"element": "C" 
			},
			{
				"x": 0.6343765653,
				"y": -0.5539957429,
				"z": -0.3378176471,
				"element": "C" 
			},
			{
				"x": -0.8329544688,
				"y": -0.8886019661,
				"z": -0.5648761226,
				"element": "C" 
			},
			{
				"x": -1.5035431283,
				"y": -2.4862946238,
				"z": -0.0276823356,
				"element": "S" 
			},
			{
				"x": -0.9937889702,
				"y": -3.4469069187,
				"z": -1.281626219,
				"element": "O" 
			},
			{
				"x": -2.9612619934,
				"y": -2.4229047346,
				"z": -0.1459513154,
				"element": "O" 
			},
			{
				"x": -0.8702243885,
				"y": -2.9529577273,
				"z": 1.1966439795,
				"element": "O" 
			},
			{
				"x": 0.9797760959,
				"y": -0.2581339559,
				"z": 1.1339061677,
				"element": "C" 
			},
			{
				"x": 0.1874626537,
				"y": -0.0042850298,
				"z": 2.0127058856,
				"element": "O" 
			},
			{
				"x": 2.5103913481,
				"y": -0.2275434349,
				"z": 1.2135994699,
				"element": "C" 
			},
			{
				"x": 1.8623986465,
				"y": -0.7643271384,
				"z": -2.9134786659,
				"element": "H" 
			},
			{
				"x": 1.1236768817,
				"y": -2.3453569693,
				"z": -2.6295909745,
				"element": "H" 
			},
			{
				"x": 2.8776325746,
				"y": -2.1631660052,
				"z": -2.5669031023,
				"element": "H" 
			},
			{
				"x": 3.037229394,
				"y": -3.1596924053,
				"z": -0.2319912132,
				"element": "H" 
			},
			{
				"x": 1.3468239716,
				"y": -3.5487510408,
				"z": -0.5542656787,
				"element": "H" 
			},
			{
				"x": 1.7816025553,
				"y": -2.788957266,
				"z": 0.9626458735,
				"element": "H" 
			},
			{
				"x": 3.9484261442,
				"y": -0.7018098479,
				"z": -0.4180251821,
				"element": "H" 
			},
			{
				"x": 2.9307013134,
				"y": 0.955513852,
				"z": -2.0017354744,
				"element": "H" 
			},
			{
				"x": 2.8761947398,
				"y": 1.7938603232,
				"z": -0.4566570305,
				"element": "H" 
			},
			{
				"x": 0.4787115128,
				"y": 1.6530952182,
				"z": -0.4838037688,
				"element": "H" 
			},
			{
				"x": 0.5704762464,
				"y": 0.8405902999,
				"z": -2.0405971354,
				"element": "H" 
			},
			{
				"x": -1.1266013065,
				"y": -0.8126854883,
				"z": -1.614175342,
				"element": "H" 
			},
			{
				"x": -1.4379472642,
				"y": -0.186923464,
				"z": 0.0198583845,
				"element": "H" 
			},
			{
				"x": -1.7802678481,
				"y": -3.9424718876,
				"z": -1.5673915292,
				"element": "H" 
			},
			{
				"x": 2.8537711261,
				"y": 0.7074317984,
				"z": 1.6674041999,
				"element": "H" 
			},
			{
				"x": 2.8630303945,
				"y": -1.0451617509,
				"z": 1.8496154104,
				"element": "H" 
			}
		],
		 "valence_orbital": [ 
			{
				"type": "occ",
				"energy": -0.32157,
				"method": "rhf"
			},
			{
				"type": "occ",
				"energy": -0.31147,
				"method": "rhf"
			},
			{
				"type": "occ",
				"energy": -0.30654,
				"method": "rhf"
			},
			{
				"type": "occ",
				"energy": -0.30087,
				"method": "rhf"
			},
			{
				"type": "occ",
				"energy": -0.2441,
				"method": "rhf"
			},
			{
				"type": "unocc",
				"energy": -0.02072,
				"method": "rhf"
			},
			{
				"type": "unocc",
				"energy": 0.03036,
				"method": "rhf"
			},
			{
				"type": "unocc",
				"energy": 0.05511,
				"method": "rhf"
			},
			{
				"type": "unocc",
				"energy": 0.06256,
				"method": "rhf"
			},
			{
				"type": "unocc",
				"energy": 0.08371,
				"method": "rhf"
			}
		],
		"cosmo_sigma_profile": { 
			"-0.025": 0.0,
			"-0.024": 0.0,
			"-0.023": 0.0,
			"-0.022": 0.0,
			"-0.021": 0.0,
			"-0.02": 0.170674462232,
			"-0.019": 0.894950808431,
			"-0.018": 1.07651392597,
			"-0.017": 0.540762505518,
			"-0.016": 0.756067496533,
			"-0.015": 0.996003550614,
			"-0.014": 1.01544641595,
			"-0.013": 0.198215303754,
			"-0.012": 0.541186626888,
			"-0.011": 1.23177365153,
			"-0.01": 0.523687871911,
			"-0.009": 1.49100748796,
			"-0.008": 3.61983035314,
			"-0.007": 5.12917958164,
			"-0.006": 8.14643880427,
			"-0.005": 16.2822421187,
			"-0.004": 21.0857679435,
			"-0.003": 23.2937503097,
			"-0.002": 23.2638923585,
			"-0.001": 22.8370298969,
			"0.0": 20.9493202149,
			"0.001": 14.9216723113,
			"0.002": 6.36782104073,
			"0.003": 5.56584020779,
			"0.004": 5.48762571967,
			"0.005": 5.02141856996,
			"0.006": 5.38973353278,
			"0.007": 5.87284880807,
			"0.008": 4.23385205079,
			"0.009": 6.45013035063,
			"0.01": 13.8619023242,
			"0.011": 9.79265599064,
			"0.012": 3.13119793058,
			"0.013": 0.76318376237,
			"0.014": 0.0,
			"0.015": 0.0,
			"0.016": 0.0,
			"0.017": 0.0,
			"0.018": 0.0,
			"0.019": 0.0,
			"0.02": 0.0,
			"0.021": 0.0,
			"0.022": 0.0,
			"0.023": 0.0,
			"0.024": 0.0,
			"0.025": 0.0
		}
	}
}
