{
	 "smiles": "CN1C=C(C(=N1)C(F)(F)F)S(Cl)(=O)=O", 
	 "Tm": 308.15, 
	 "num_atms": 18, 
	 "gaussian": { 
		 "optdone": 1, 
		 "sigma_profile": "yes", 
		 "theory": "DFT", 
		 "functional": "B3LYP", 
		 "basiset": "6-31G**", 
		 "properties": { 
			 "R2extent": 3342.0136, 
			 "electric_dipole_moment_norm": 7.0272064784, 
			 "electric_quadrupole_moment_norm": 13.9348177961, 
			 "total_energy": -1610.69552335, 
			 "HOMO_LUMO_gap": 0.2112, 
			 "cosmo_polarized_energy": -13.97, 
			 "cosmo_cavitation_energy": 27.73, 
			 "cosmo_dispersion_energy": -20.09, 
			 "cosmo_repulsion_energy": 1.5, 
			 "cosmo_total_nonelectrostatic_energy": 9.15, 
			 "SMD_solvation_energy": 4.22 
		},
		"coords": [
			{
				"x": -1.1537917307,
				"y": -3.1694494168,
				"z": -1.6918128169,
				"element": "C" 
			},
			{
				"x": -0.7484469729,
				"y": -2.0244598714,
				"z": -0.8874550508,
				"element": "N" 
			},
			{
				"x": -1.5341148845,
				"y": -1.1625825248,
				"z": -0.2109208579,
				"element": "C" 
			},
			{
				"x": -0.6779131691,
				"y": -0.2439957827,
				"z": 0.3768148314,
				"element": "C" 
			},
			{
				"x": 0.6248138509,
				"y": -0.6532025888,
				"z": -0.0078827822,
				"element": "C" 
			},
			{
				"x": 0.5657389258,
				"y": -1.7309124682,
				"z": -0.7778927921,
				"element": "N" 
			},
			{
				"x": 1.9528206303,
				"y": -0.0166795809,
				"z": 0.3042695722,
				"element": "C" 
			},
			{
				"x": 2.0174733265,
				"y": 0.3255637847,
				"z": 1.6052404206,
				"element": "F" 
			},
			{
				"x": 2.963030779,
				"y": -0.8578524949,
				"z": 0.0385227628,
				"element": "F" 
			},
			{
				"x": 2.1364650375,
				"y": 1.0995446965,
				"z": -0.424426311,
				"element": "F" 
			},
			{
				"x": -1.2392044984,
				"y": 1.1079041307,
				"z": 1.3440330424,
				"element": "S" 
			},
			{
				"x": -0.9487278471,
				"y": 0.3925547371,
				"z": 3.3220307835,
				"element": "Cl" 
			},
			{
				"x": -2.6825192152,
				"y": 1.2077878991,
				"z": 1.1602930967,
				"element": "O" 
			},
			{
				"x": -0.3453036429,
				"y": 2.2423598107,
				"z": 1.1772868509,
				"element": "O" 
			},
			{
				"x": -0.8546444441,
				"y": -3.014254587,
				"z": -2.7304437178,
				"element": "H" 
			},
			{
				"x": -0.6737020614,
				"y": -4.0713080823,
				"z": -1.3075124712,
				"element": "H" 
			},
			{
				"x": -2.2373511485,
				"y": -3.274478336,
				"z": -1.6320357101,
				"element": "H" 
			},
			{
				"x": -2.6108229352,
				"y": -1.2326393249,
				"z": -0.1821088503,
				"element": "H" 
			}
		],
		 "valence_orbital": [ 
			{
				"type": "occ",
				"energy": -0.34396,
				"method": "rhf"
			},
			{
				"type": "occ",
				"energy": -0.33035,
				"method": "rhf"
			},
			{
				"type": "occ",
				"energy": -0.31622,
				"method": "rhf"
			},
			{
				"type": "occ",
				"energy": -0.30939,
				"method": "rhf"
			},
			{
				"type": "occ",
				"energy": -0.29983,
				"method": "rhf"
			},
			{
				"type": "unocc",
				"energy": -0.08863,
				"method": "rhf"
			},
			{
				"type": "unocc",
				"energy": -0.03681,
				"method": "rhf"
			},
			{
				"type": "unocc",
				"energy": -0.02008,
				"method": "rhf"
			},
			{
				"type": "unocc",
				"energy": 0.05159,
				"method": "rhf"
			},
			{
				"type": "unocc",
				"energy": 0.06465,
				"method": "rhf"
			}
		],
		"cosmo_sigma_profile": { 
			"-0.025": 0.0,
			"-0.024": 0.0,
			"-0.023": 0.0,
			"-0.022": 0.0,
			"-0.021": 0.0,
			"-0.02": 0.0,
			"-0.019": 0.0,
			"-0.018": 0.0,
			"-0.017": 0.0,
			"-0.016": 0.0,
			"-0.015": 0.0,
			"-0.014": 0.0,
			"-0.013": 0.915597140576,
			"-0.012": 2.54533714431,
			"-0.011": 1.87667517386,
			"-0.01": 1.81986885324,
			"-0.009": 2.96872960914,
			"-0.008": 4.79581818463,
			"-0.007": 8.19911666404,
			"-0.006": 10.4128558216,
			"-0.005": 12.7952545115,
			"-0.004": 13.0997999847,
			"-0.003": 11.0575458364,
			"-0.002": 13.030671673,
			"-0.001": 11.1512130854,
			"0.0": 10.4895559917,
			"0.001": 15.7831897757,
			"0.002": 35.1051967236,
			"0.003": 24.7195475766,
			"0.004": 8.65004195633,
			"0.005": 6.53885082538,
			"0.006": 5.85163471423,
			"0.007": 8.72942377045,
			"0.008": 9.58729793089,
			"0.009": 3.24474158266,
			"0.01": 1.06915698851,
			"0.011": 0.837641362464,
			"0.012": 0.293767193084,
			"0.013": 0.0,
			"0.014": 0.0,
			"0.015": 0.0,
			"0.016": 0.0,
			"0.017": 0.0,
			"0.018": 0.0,
			"0.019": 0.0,
			"0.02": 0.0,
			"0.021": 0.0,
			"0.022": 0.0,
			"0.023": 0.0,
			"0.024": 0.0,
			"0.025": 0.0
		}
	}
}
