{
	 "smiles": "OC(=O)C1=CC(=NS1)C1=CC(Cl)=C(Cl)C=C1", 
	 "Tm": 482.15, 
	 "num_atms": 21, 
	 "gaussian": { 
		 "optdone": 1, 
		 "sigma_profile": "yes", 
		 "theory": "DFT", 
		 "functional": "B3LYP", 
		 "basiset": "6-31G**", 
		 "properties": { 
			 "R2extent": 7247.9606, 
			 "electric_dipole_moment_norm": 1.98193496614, 
			 "electric_quadrupole_moment_norm": 26.6722215897, 
			 "total_energy": -1907.83659218, 
			 "HOMO_LUMO_gap": 0.1584, 
			 "cosmo_polarized_energy": -17.39, 
			 "cosmo_cavitation_energy": 32.09, 
			 "cosmo_dispersion_energy": -24.38, 
			 "cosmo_repulsion_energy": 1.83, 
			 "cosmo_total_nonelectrostatic_energy": 9.54, 
			 "SMD_solvation_energy": 4.7 
		},
		"coords": [
			{
				"x": -0.6289538135,
				"y": 2.7855001032,
				"z": 3.9569092512,
				"element": "O" 
			},
			{
				"x": -0.31134306,
				"y": 3.6376866791,
				"z": 2.9536338703,
				"element": "C" 
			},
			{
				"x": -0.3836817869,
				"y": 4.8337154114,
				"z": 3.1097708942,
				"element": "O" 
			},
			{
				"x": 0.1249130294,
				"y": 3.0341142321,
				"z": 1.6676188428,
				"element": "C" 
			},
			{
				"x": 0.1000107385,
				"y": 1.738972815,
				"z": 1.2097617501,
				"element": "C" 
			},
			{
				"x": 0.6139959214,
				"y": 1.6539477994,
				"z": -0.1247443616,
				"element": "C" 
			},
			{
				"x": 1.0023417831,
				"y": 2.8109610365,
				"z": -0.6489049244,
				"element": "N" 
			},
			{
				"x": 0.7640595914,
				"y": 4.0541351813,
				"z": 0.4250085053,
				"element": "S" 
			},
			{
				"x": 0.7329937421,
				"y": 0.4197404978,
				"z": -0.9310790249,
				"element": "C" 
			},
			{
				"x": 0.435402379,
				"y": -0.8362249237,
				"z": -0.3889408926,
				"element": "C" 
			},
			{
				"x": 0.5498722671,
				"y": -1.9950553537,
				"z": -1.1571667012,
				"element": "C" 
			},
			{
				"x": 0.1634404526,
				"y": -3.5284041521,
				"z": -0.4156607934,
				"element": "Cl" 
			},
			{
				"x": 0.9691238919,
				"y": -1.9112715175,
				"z": -2.4909094796,
				"element": "C" 
			},
			{
				"x": 1.1267873049,
				"y": -3.329854527,
				"z": -3.4909742525,
				"element": "Cl" 
			},
			{
				"x": 1.2698564931,
				"y": -0.6587883351,
				"z": -3.0360959942,
				"element": "C" 
			},
			{
				"x": 1.1542898835,
				"y": 0.4921476113,
				"z": -2.2688757315,
				"element": "C" 
			},
			{
				"x": -0.4289225167,
				"y": 1.8707891809,
				"z": 3.7147288409,
				"element": "H" 
			},
			{
				"x": -0.2874272445,
				"y": 0.8937254911,
				"z": 1.7661284293,
				"element": "H" 
			},
			{
				"x": 0.1158416151,
				"y": -0.9431938071,
				"z": 0.6407708684,
				"element": "H" 
			},
			{
				"x": 1.5936538272,
				"y": -0.6009279452,
				"z": -4.0693065071,
				"element": "H" 
			},
			{
				"x": 1.3878455012,
				"y": 1.4601845223,
				"z": -2.6963725894,
				"element": "H" 
			}
		],
		 "valence_orbital": [ 
			{
				"type": "occ",
				"energy": -0.3051,
				"method": "rhf"
			},
			{
				"type": "occ",
				"energy": -0.30057,
				"method": "rhf"
			},
			{
				"type": "occ",
				"energy": -0.29836,
				"method": "rhf"
			},
			{
				"type": "occ",
				"energy": -0.2733,
				"method": "rhf"
			},
			{
				"type": "occ",
				"energy": -0.25008,
				"method": "rhf"
			},
			{
				"type": "unocc",
				"energy": -0.09168,
				"method": "rhf"
			},
			{
				"type": "unocc",
				"energy": -0.0579,
				"method": "rhf"
			},
			{
				"type": "unocc",
				"energy": -0.03515,
				"method": "rhf"
			},
			{
				"type": "unocc",
				"energy": -0.01283,
				"method": "rhf"
			},
			{
				"type": "unocc",
				"energy": -0.00068,
				"method": "rhf"
			}
		],
		"cosmo_sigma_profile": { 
			"-0.025": 0.0,
			"-0.024": 0.0,
			"-0.023": 0.0,
			"-0.022": 0.0,
			"-0.021": 0.0319455945025,
			"-0.02": 0.841342255748,
			"-0.019": 1.17187140321,
			"-0.018": 1.1197198069,
			"-0.017": 1.15981526396,
			"-0.016": 1.01369854565,
			"-0.015": 0.477681096349,
			"-0.014": 1.63629705164,
			"-0.013": 2.04257455639,
			"-0.012": 2.52932757731,
			"-0.011": 1.71450329088,
			"-0.01": 1.99422341551,
			"-0.009": 2.21015292029,
			"-0.008": 4.38709636451,
			"-0.007": 5.36213360883,
			"-0.006": 6.46997523183,
			"-0.005": 6.13470739721,
			"-0.004": 9.15138071252,
			"-0.003": 11.2314879284,
			"-0.002": 18.2539980118,
			"-0.001": 26.7289525808,
			"0.0": 30.8238935393,
			"0.001": 33.5426548841,
			"0.002": 20.7227526583,
			"0.003": 19.857559073,
			"0.004": 17.6993800968,
			"0.005": 7.36372898173,
			"0.006": 4.08061778258,
			"0.007": 4.47161851314,
			"0.008": 4.23611375853,
			"0.009": 5.82715303526,
			"0.01": 6.03633130853,
			"0.011": 4.36428390219,
			"0.012": 1.50864636793,
			"0.013": 0.0675218764404,
			"0.014": 0.0,
			"0.015": 0.0,
			"0.016": 0.0,
			"0.017": 0.0,
			"0.018": 0.0,
			"0.019": 0.0,
			"0.02": 0.0,
			"0.021": 0.0,
			"0.022": 0.0,
			"0.023": 0.0,
			"0.024": 0.0,
			"0.025": 0.0
		}
	}
}
