{
	 "smiles": "COC1=CC=C2C(CC2=C1)C(O)=O", 
	 "Tm": 359.15, 
	 "num_atms": 23, 
	 "gaussian": { 
		 "optdone": 1, 
		 "sigma_profile": "yes", 
		 "theory": "DFT", 
		 "functional": "B3LYP", 
		 "basiset": "6-31G**", 
		 "properties": { 
			 "R2extent": 3567.3331, 
			 "electric_dipole_moment_norm": 1.37277118268, 
			 "electric_quadrupole_moment_norm": 15.5218348413, 
			 "total_energy": -612.726929671, 
			 "HOMO_LUMO_gap": 0.20692, 
			 "cosmo_polarized_energy": -11.16, 
			 "cosmo_cavitation_energy": 27.3, 
			 "cosmo_dispersion_energy": -19.93, 
			 "cosmo_repulsion_energy": 1.6, 
			 "cosmo_total_nonelectrostatic_energy": 8.97, 
			 "SMD_solvation_energy": 6.23 
		},
		"coords": [
			{
				"x": -1.7204256511,
				"y": -0.8330461057,
				"z": 3.3536262659,
				"element": "C" 
			},
			{
				"x": -1.8547631341,
				"y": -0.2561604785,
				"z": 2.0657063145,
				"element": "O" 
			},
			{
				"x": -0.7205225813,
				"y": -0.009937507,
				"z": 1.3433540888,
				"element": "C" 
			},
			{
				"x": -0.9475083961,
				"y": 0.5712049849,
				"z": 0.0775377736,
				"element": "C" 
			},
			{
				"x": 0.1029887581,
				"y": 0.8854305292,
				"z": -0.7879109831,
				"element": "C" 
			},
			{
				"x": 1.3805315415,
				"y": 0.5925620284,
				"z": -0.326357921,
				"element": "C" 
			},
			{
				"x": 2.8707282455,
				"y": 0.6289666351,
				"z": -0.6771540092,
				"element": "C" 
			},
			{
				"x": 3.1193316,
				"y": 0.0092455062,
				"z": 0.7489128691,
				"element": "C" 
			},
			{
				"x": 1.6061300876,
				"y": 0.0275218714,
				"z": 0.9221278328,
				"element": "C" 
			},
			{
				"x": 0.5797044051,
				"y": -0.3003978697,
				"z": 1.7994204295,
				"element": "C" 
			},
			{
				"x": 3.4470694566,
				"y": 2.0082179074,
				"z": -0.9049440804,
				"element": "C" 
			},
			{
				"x": 3.1230469996,
				"y": 2.4713378273,
				"z": -2.1383006212,
				"element": "O" 
			},
			{
				"x": 4.0948101971,
				"y": 2.6589466793,
				"z": -0.1148212944,
				"element": "O" 
			},
			{
				"x": -2.7337219542,
				"y": -0.9371344995,
				"z": 3.7449306678,
				"element": "H" 
			},
			{
				"x": -1.1383018713,
				"y": -0.1911628827,
				"z": 4.0277675032,
				"element": "H" 
			},
			{
				"x": -1.2487886787,
				"y": -1.8235208886,
				"z": 3.3083263984,
				"element": "H" 
			},
			{
				"x": -1.9780976084,
				"y": 0.7664756433,
				"z": -0.2008617439,
				"element": "H" 
			},
			{
				"x": -0.0916700524,
				"y": 1.3330559003,
				"z": -1.7579301374,
				"element": "H" 
			},
			{
				"x": 3.1545574621,
				"y": -0.0159135645,
				"z": -1.5169998402,
				"element": "H" 
			},
			{
				"x": 3.6837818536,
				"y": 0.6717471447,
				"z": 1.4101792728,
				"element": "H" 
			},
			{
				"x": 3.5915093679,
				"y": -0.9785688712,
				"z": 0.7357560827,
				"element": "H" 
			},
			{
				"x": 0.7612314492,
				"y": -0.7448873905,
				"z": 2.7708746132,
				"element": "H" 
			},
			{
				"x": 3.4949785037,
				"y": 3.3677174006,
				"z": -2.1956394816,
				"element": "H" 
			}
		],
		 "valence_orbital": [ 
			{
				"type": "occ",
				"energy": -0.31618,
				"method": "rhf"
			},
			{
				"type": "occ",
				"energy": -0.31446,
				"method": "rhf"
			},
			{
				"type": "occ",
				"energy": -0.27486,
				"method": "rhf"
			},
			{
				"type": "occ",
				"energy": -0.24908,
				"method": "rhf"
			},
			{
				"type": "occ",
				"energy": -0.21258,
				"method": "rhf"
			},
			{
				"type": "unocc",
				"energy": -0.00566,
				"method": "rhf"
			},
			{
				"type": "unocc",
				"energy": 0.00264,
				"method": "rhf"
			},
			{
				"type": "unocc",
				"energy": 0.02315,
				"method": "rhf"
			},
			{
				"type": "unocc",
				"energy": 0.07866,
				"method": "rhf"
			},
			{
				"type": "unocc",
				"energy": 0.098,
				"method": "rhf"
			}
		],
		"cosmo_sigma_profile": { 
			"-0.025": 0.0,
			"-0.024": 0.0,
			"-0.023": 0.0,
			"-0.022": 0.0,
			"-0.021": 0.0,
			"-0.02": 0.0,
			"-0.019": 0.00687716693409,
			"-0.018": 0.680575002593,
			"-0.017": 1.1428770419,
			"-0.016": 0.496736002535,
			"-0.015": 0.787634608241,
			"-0.014": 0.959393984979,
			"-0.013": 0.660129291799,
			"-0.012": 0.327030025425,
			"-0.011": 0.841776358537,
			"-0.01": 0.873337438403,
			"-0.009": 0.490533281834,
			"-0.008": 0.381606371918,
			"-0.007": 2.58304033475,
			"-0.006": 10.7560705654,
			"-0.005": 17.7942666958,
			"-0.004": 20.5499518892,
			"-0.003": 19.889876855,
			"-0.002": 15.7658753531,
			"-0.001": 14.7547605951,
			"0.0": 13.616437741,
			"0.001": 12.3169393261,
			"0.002": 11.4956832294,
			"0.003": 12.1487294462,
			"0.004": 12.9805642012,
			"0.005": 14.5478123735,
			"0.006": 5.59903823862,
			"0.007": 3.81490987531,
			"0.008": 4.00024003643,
			"0.009": 4.3114263361,
			"0.01": 4.15313535711,
			"0.011": 4.83729207525,
			"0.012": 3.27507183832,
			"0.013": 0.00143541599984,
			"0.014": 0.0,
			"0.015": 0.0,
			"0.016": 0.0,
			"0.017": 0.0,
			"0.018": 0.0,
			"0.019": 0.0,
			"0.02": 0.0,
			"0.021": 0.0,
			"0.022": 0.0,
			"0.023": 0.0,
			"0.024": 0.0,
			"0.025": 0.0
		}
	}
}
