{
	 "smiles": "ClC1=C(C=C(S1)S(Cl)(=O)=O)S(Cl)(=O)=O", 
	 "Tm": 354.65, 
	 "num_atms": 15, 
	 "gaussian": { 
		 "optdone": 1, 
		 "sigma_profile": "yes", 
		 "theory": "DFT", 
		 "functional": "B3LYP", 
		 "basiset": "6-31G**", 
		 "properties": { 
			 "R2extent": 6452.1233, 
			 "electric_dipole_moment_norm": 2.85732633943, 
			 "electric_quadrupole_moment_norm": 13.8898559831, 
			 "total_energy": -3028.87506904, 
			 "HOMO_LUMO_gap": 0.17659, 
			 "cosmo_polarized_energy": -11.23, 
			 "cosmo_cavitation_energy": 31.17, 
			 "cosmo_dispersion_energy": -23.75, 
			 "cosmo_repulsion_energy": 1.76, 
			 "cosmo_total_nonelectrostatic_energy": 9.18, 
			 "SMD_solvation_energy": 2.17 
		},
		"coords": [
			{
				"x": -2.7395004003,
				"y": 0.2341006947,
				"z": 2.4224991194,
				"element": "Cl" 
			},
			{
				"x": -1.5278919999,
				"y": 0.5341538182,
				"z": 1.2542970074,
				"element": "C" 
			},
			{
				"x": -1.3170296692,
				"y": 1.6775692696,
				"z": 0.5072498821,
				"element": "C" 
			},
			{
				"x": -0.2299234532,
				"y": 1.5645172024,
				"z": -0.4034050075,
				"element": "C" 
			},
			{
				"x": 0.3582081752,
				"y": 0.3333376124,
				"z": -0.3190330953,
				"element": "C" 
			},
			{
				"x": -0.3931078315,
				"y": -0.7150732491,
				"z": 0.853155695,
				"element": "S" 
			},
			{
				"x": 1.7429468824,
				"y": -0.2019113685,
				"z": -1.2758809202,
				"element": "S" 
			},
			{
				"x": 3.3644424309,
				"y": 0.3210992914,
				"z": -0.0224649205,
				"element": "Cl" 
			},
			{
				"x": 1.8372546579,
				"y": 0.6460485823,
				"z": -2.4530494601,
				"element": "O" 
			},
			{
				"x": 1.7151232395,
				"y": -1.6564450496,
				"z": -1.3284759479,
				"element": "O" 
			},
			{
				"x": -2.2452644123,
				"y": 3.1961922112,
				"z": 0.6166488918,
				"element": "S" 
			},
			{
				"x": -4.0096813689,
				"y": 2.6765795548,
				"z": -0.4269357366,
				"element": "Cl" 
			},
			{
				"x": -1.547758972,
				"y": 4.1801147187,
				"z": -0.1981347,
				"element": "O" 
			},
			{
				"x": -2.6291425361,
				"y": 3.4445097313,
				"z": 1.9962944999,
				"element": "O" 
			},
			{
				"x": 0.0881252576,
				"y": 2.3563069804,
				"z": -1.0697653074,
				"element": "H" 
			}
		],
		 "valence_orbital": [ 
			{
				"type": "occ",
				"energy": -0.35347,
				"method": "rhf"
			},
			{
				"type": "occ",
				"energy": -0.3374,
				"method": "rhf"
			},
			{
				"type": "occ",
				"energy": -0.33582,
				"method": "rhf"
			},
			{
				"type": "occ",
				"energy": -0.3278,
				"method": "rhf"
			},
			{
				"type": "occ",
				"energy": -0.30151,
				"method": "rhf"
			},
			{
				"type": "unocc",
				"energy": -0.12492,
				"method": "rhf"
			},
			{
				"type": "unocc",
				"energy": -0.1066,
				"method": "rhf"
			},
			{
				"type": "unocc",
				"energy": -0.08742,
				"method": "rhf"
			},
			{
				"type": "unocc",
				"energy": -0.05154,
				"method": "rhf"
			},
			{
				"type": "unocc",
				"energy": -0.03716,
				"method": "rhf"
			}
		],
		"cosmo_sigma_profile": { 
			"-0.025": 0.0,
			"-0.024": 0.0,
			"-0.023": 0.0,
			"-0.022": 0.0,
			"-0.021": 0.0,
			"-0.02": 0.0,
			"-0.019": 0.0,
			"-0.018": 0.0,
			"-0.017": 0.0,
			"-0.016": 0.0,
			"-0.015": 0.0,
			"-0.014": 0.0,
			"-0.013": 0.0,
			"-0.012": 0.0,
			"-0.011": 0.292644834187,
			"-0.01": 1.09408037217,
			"-0.009": 1.72503292376,
			"-0.008": 3.74093820884,
			"-0.007": 6.50303690032,
			"-0.006": 13.2970859467,
			"-0.005": 17.644486835,
			"-0.004": 20.0087837347,
			"-0.003": 20.0383440072,
			"-0.002": 20.024671593,
			"-0.001": 20.1386649388,
			"0.0": 18.9851148908,
			"0.001": 21.1640754813,
			"0.002": 28.0332789859,
			"0.003": 15.93745574,
			"0.004": 5.68153297576,
			"0.005": 6.7347294916,
			"0.006": 10.5093550854,
			"0.007": 18.8413031657,
			"0.008": 11.2195935083,
			"0.009": 0.300844134573,
			"0.01": 0.0,
			"0.011": 0.0,
			"0.012": 0.0,
			"0.013": 0.0,
			"0.014": 0.0,
			"0.015": 0.0,
			"0.016": 0.0,
			"0.017": 0.0,
			"0.018": 0.0,
			"0.019": 0.0,
			"0.02": 0.0,
			"0.021": 0.0,
			"0.022": 0.0,
			"0.023": 0.0,
			"0.024": 0.0,
			"0.025": 0.0
		}
	}
}
