{
	 "smiles": "CCN1CCN(C(=O)NC(C(=O)N[C@H]2[C@H]3SCC(CSC4=NN=NN4C)=C(N3C2=O)C(O)=O)C2=CC=C(O)C=C2)C(=O)C1=O", 
	 "Tm": 442.15, 
	 "num_atms": 71, 
	 "gaussian": { 
		 "optdone": 1, 
		 "sigma_profile": "yes", 
		 "theory": "DFT", 
		 "functional": "B3LYP", 
		 "basiset": "6-31G**", 
		 "properties": { 
			 "R2extent": 29773.7156, 
			 "electric_dipole_moment_norm": 3.03796260675, 
			 "electric_quadrupole_moment_norm": 43.4096697747, 
			 "total_energy": -2859.82239444, 
			 "HOMO_LUMO_gap": 0.16484, 
			 "cosmo_polarized_energy": -45.1, 
			 "cosmo_cavitation_energy": 75.35, 
			 "cosmo_dispersion_energy": -49.13, 
			 "cosmo_repulsion_energy": 3.58, 
			 "cosmo_total_nonelectrostatic_energy": 29.79, 
			 "SMD_solvation_energy": 12.26 
		},
		"coords": [
			{
				"x": -2.5217198754,
				"y": -4.9749721338,
				"z": -2.9021327091,
				"element": "C" 
			},
			{
				"x": -3.7697292137,
				"y": -4.3584320673,
				"z": -2.2629203623,
				"element": "C" 
			},
			{
				"x": -3.5951764992,
				"y": -4.0229334857,
				"z": -0.8450180893,
				"element": "N" 
			},
			{
				"x": -3.6298652002,
				"y": -5.100814608,
				"z": 0.1429109786,
				"element": "C" 
			},
			{
				"x": -4.0024195121,
				"y": -4.5506002887,
				"z": 1.5053482906,
				"element": "C" 
			},
			{
				"x": -3.0470506075,
				"y": -3.4975546467,
				"z": 1.8844377151,
				"element": "N" 
			},
			{
				"x": -2.6723005304,
				"y": -3.4695652764,
				"z": 3.2569441229,
				"element": "C" 
			},
			{
				"x": -3.4102563807,
				"y": -4.0016159735,
				"z": 4.0776851737,
				"element": "O" 
			},
			{
				"x": -1.5202357039,
				"y": -2.8451791271,
				"z": 3.6645862104,
				"element": "N" 
			},
			{
				"x": -0.1525490393,
				"y": -2.6181896543,
				"z": 3.1493194095,
				"element": "C" 
			},
			{
				"x": 0.0147146865,
				"y": -2.8582898415,
				"z": 1.6319717985,
				"element": "C" 
			},
			{
				"x": -0.3353001183,
				"y": -3.9157933298,
				"z": 1.119566197,
				"element": "O" 
			},
			{
				"x": 0.6511445311,
				"y": -1.8671189504,
				"z": 0.9408341625,
				"element": "N" 
			},
			{
				"x": 0.7033933579,
				"y": -1.8937771279,
				"z": -0.4867910217,
				"element": "C" 
			},
			{
				"x": 0.1368157854,
				"y": -0.6851392796,
				"z": -1.3085422633,
				"element": "C" 
			},
			{
				"x": -0.1880806785,
				"y": 0.858723454,
				"z": -0.394322929,
				"element": "S" 
			},
			{
				"x": 0.0721056831,
				"y": 1.9293247998,
				"z": -1.8577773508,
				"element": "C" 
			},
			{
				"x": 1.259203406,
				"y": 1.6399986172,
				"z": -2.753545648,
				"element": "C" 
			},
			{
				"x": 1.5929894591,
				"y": 2.7951051521,
				"z": -3.6687705731,
				"element": "C" 
			},
			{
				"x": 3.1875093859,
				"y": 3.6699433991,
				"z": -3.2852485224,
				"element": "S" 
			},
			{
				"x": 2.6222140029,
				"y": 4.835627955,
				"z": -2.1027169973,
				"element": "C" 
			},
			{
				"x": 1.4268736584,
				"y": 4.9390918757,
				"z": -1.5367498671,
				"element": "N" 
			},
			{
				"x": 1.5048895426,
				"y": 6.0027620556,
				"z": -0.6900601701,
				"element": "N" 
			},
			{
				"x": 2.676104585,
				"y": 6.5361319296,
				"z": -0.7149118812,
				"element": "N" 
			},
			{
				"x": 3.4117731017,
				"y": 5.8161484031,
				"z": -1.6070937584,
				"element": "N" 
			},
			{
				"x": 4.7973677017,
				"y": 6.1450254394,
				"z": -1.8932739157,
				"element": "C" 
			},
			{
				"x": 1.9271792568,
				"y": 0.4575681113,
				"z": -2.7751515851,
				"element": "C" 
			},
			{
				"x": 1.4477333192,
				"y": -0.6120693732,
				"z": -1.9823360373,
				"element": "N" 
			},
			{
				"x": 2.0370273952,
				"y": -1.5681939307,
				"z": -1.1834450102,
				"element": "C" 
			},
			{
				"x": 3.1882181958,
				"y": -1.9687343714,
				"z": -1.1171842672,
				"element": "O" 
			},
			{
				"x": 3.1367755147,
				"y": 0.2152321119,
				"z": -3.6555012427,
				"element": "C" 
			},
			{
				"x": 3.9318548184,
				"y": -0.8123343666,
				"z": -3.3730939064,
				"element": "O" 
			},
			{
				"x": 3.3794980741,
				"y": 0.9378634052,
				"z": -4.6052134345,
				"element": "O" 
			},
			{
				"x": 0.3741893157,
				"y": -1.2904718756,
				"z": 3.6717732939,
				"element": "C" 
			},
			{
				"x": 1.6494252556,
				"y": -1.2200453887,
				"z": 4.2515051158,
				"element": "C" 
			},
			{
				"x": 2.1636270459,
				"y": -0.0151547709,
				"z": 4.7203141672,
				"element": "C" 
			},
			{
				"x": 1.3969004694,
				"y": 1.1515572568,
				"z": 4.616109501,
				"element": "C" 
			},
			{
				"x": 1.9438904316,
				"y": 2.3054135571,
				"z": 5.0890418389,
				"element": "O" 
			},
			{
				"x": 0.1186908235,
				"y": 1.0953813025,
				"z": 4.0456172938,
				"element": "C" 
			},
			{
				"x": -0.387267525,
				"y": -0.1157651719,
				"z": 3.5797119837,
				"element": "C" 
			},
			{
				"x": -2.7827473963,
				"y": -2.4971408619,
				"z": 0.9709357991,
				"element": "C" 
			},
			{
				"x": -2.2677707665,
				"y": -1.4304821456,
				"z": 1.2522982912,
				"element": "O" 
			},
			{
				"x": -3.106283392,
				"y": -2.7916894877,
				"z": -0.524595259,
				"element": "C" 
			},
			{
				"x": -2.879828329,
				"y": -1.9144135877,
				"z": -1.3493079123,
				"element": "O" 
			},
			{
				"x": -2.2205731386,
				"y": -5.8996689071,
				"z": -2.400007707,
				"element": "H" 
			},
			{
				"x": -1.6855337363,
				"y": -4.2717765223,
				"z": -2.8619204326,
				"element": "H" 
			},
			{
				"x": -2.7173489469,
				"y": -5.211732655,
				"z": -3.9527668637,
				"element": "H" 
			},
			{
				"x": -4.0359357801,
				"y": -3.4327477003,
				"z": -2.7756794799,
				"element": "H" 
			},
			{
				"x": -4.619593413,
				"y": -5.0464347276,
				"z": -2.3339871314,
				"element": "H" 
			},
			{
				"x": -4.3853629772,
				"y": -5.8285358386,
				"z": -0.1700717454,
				"element": "H" 
			},
			{
				"x": -2.6598970013,
				"y": -5.6123286439,
				"z": 0.1964148992,
				"element": "H" 
			},
			{
				"x": -5.0233791202,
				"y": -4.151010592,
				"z": 1.4965106802,
				"element": "H" 
			},
			{
				"x": -3.9587904386,
				"y": -5.3272977858,
				"z": 2.2667018369,
				"element": "H" 
			},
			{
				"x": -1.5079110559,
				"y": -2.8914405331,
				"z": 4.6766585485,
				"element": "H" 
			},
			{
				"x": 0.4780710942,
				"y": -3.413375381,
				"z": 3.5755047514,
				"element": "H" 
			},
			{
				"x": 0.8353470336,
				"y": -0.9941636775,
				"z": 1.4186514557,
				"element": "H" 
			},
			{
				"x": 0.2924982955,
				"y": -2.852490379,
				"z": -0.8125282349,
				"element": "H" 
			},
			{
				"x": -0.6963779351,
				"y": -0.9204279978,
				"z": -1.9727608406,
				"element": "H" 
			},
			{
				"x": -0.8437199104,
				"y": 1.9227483534,
				"z": -2.4639137708,
				"element": "H" 
			},
			{
				"x": 0.1840350619,
				"y": 2.9464807433,
				"z": -1.4663359529,
				"element": "H" 
			},
			{
				"x": 0.8089735254,
				"y": 3.5523274866,
				"z": -3.6291126206,
				"element": "H" 
			},
			{
				"x": 1.7455874802,
				"y": 2.4582356648,
				"z": -4.6913201047,
				"element": "H" 
			},
			{
				"x": 5.4563290617,
				"y": 5.3281053564,
				"z": -1.5865220229,
				"element": "H" 
			},
			{
				"x": 5.03871407,
				"y": 7.0440192923,
				"z": -1.3272112852,
				"element": "H" 
			},
			{
				"x": 4.927421171,
				"y": 6.3341795067,
				"z": -2.9621614806,
				"element": "H" 
			},
			{
				"x": 3.7586717445,
				"y": -1.257267508,
				"z": -2.5018137315,
				"element": "H" 
			},
			{
				"x": 2.2519249266,
				"y": -2.1213573142,
				"z": 4.338440836,
				"element": "H" 
			},
			{
				"x": 3.1489331504,
				"y": 0.0414851494,
				"z": 5.1703545422,
				"element": "H" 
			},
			{
				"x": 1.3324167981,
				"y": 3.037763569,
				"z": 4.9352514536,
				"element": "H" 
			},
			{
				"x": -0.4804880057,
				"y": 1.9995944444,
				"z": 3.9637407371,
				"element": "H" 
			},
			{
				"x": -1.3742399889,
				"y": -0.1594111058,
				"z": 3.1321770338,
				"element": "H" 
			}
		],
		 "valence_orbital": [ 
			{
				"type": "occ",
				"energy": -0.26013,
				"method": "rhf"
			},
			{
				"type": "occ",
				"energy": -0.25269,
				"method": "rhf"
			},
			{
				"type": "occ",
				"energy": -0.2451,
				"method": "rhf"
			},
			{
				"type": "occ",
				"energy": -0.23381,
				"method": "rhf"
			},
			{
				"type": "occ",
				"energy": -0.23021,
				"method": "rhf"
			},
			{
				"type": "unocc",
				"energy": -0.06537,
				"method": "rhf"
			},
			{
				"type": "unocc",
				"energy": -0.06304,
				"method": "rhf"
			},
			{
				"type": "unocc",
				"energy": -0.02009,
				"method": "rhf"
			},
			{
				"type": "unocc",
				"energy": -0.01479,
				"method": "rhf"
			},
			{
				"type": "unocc",
				"energy": -0.01221,
				"method": "rhf"
			}
		],
		"cosmo_sigma_profile": { 
			"-0.025": 0.0,
			"-0.024": 0.0,
			"-0.023": 0.0,
			"-0.022": 0.0,
			"-0.021": 0.0,
			"-0.02": 0.0,
			"-0.019": 0.0,
			"-0.018": 0.716950128544,
			"-0.017": 1.43989198394,
			"-0.016": 0.653832993619,
			"-0.015": 1.20665829077,
			"-0.014": 1.52581638077,
			"-0.013": 1.66683908523,
			"-0.012": 1.90765584571,
			"-0.011": 2.58042679962,
			"-0.01": 2.99857740602,
			"-0.009": 5.97340413955,
			"-0.008": 18.7258467982,
			"-0.007": 34.5564219284,
			"-0.006": 38.6165567698,
			"-0.005": 42.9584418145,
			"-0.004": 48.9630609171,
			"-0.003": 38.5880401111,
			"-0.002": 36.881561885,
			"-0.001": 35.7647922687,
			"0.0": 35.2916971282,
			"0.001": 28.556722011,
			"0.002": 25.842278848,
			"0.003": 30.7434459294,
			"0.004": 27.6898909494,
			"0.005": 18.4448657887,
			"0.006": 16.8372934666,
			"0.007": 14.4393820495,
			"0.008": 14.9800997182,
			"0.009": 16.584258676,
			"0.01": 16.4859796702,
			"0.011": 15.7489939775,
			"0.012": 13.7160858297,
			"0.013": 8.48579151806,
			"0.014": 2.13822128191,
			"0.015": 0.809025514735,
			"0.016": 0.0380024402078,
			"0.017": 0.0,
			"0.018": 0.0,
			"0.019": 0.0,
			"0.02": 0.0,
			"0.021": 0.0,
			"0.022": 0.0,
			"0.023": 0.0,
			"0.024": 0.0,
			"0.025": 0.0
		}
	}
}
