{
	 "smiles": "COC1=CC=C(N)C=C1C(F)(F)F", 
	 "Tm": 332.15, 
	 "num_atms": 21, 
	 "gaussian": { 
		 "optdone": 1, 
		 "sigma_profile": "yes", 
		 "theory": "DFT", 
		 "functional": "B3LYP", 
		 "basiset": "6-31G**", 
		 "properties": { 
			 "R2extent": 2526.4073, 
			 "electric_dipole_moment_norm": 4.10271428935, 
			 "electric_quadrupole_moment_norm": 13.2408624715, 
			 "total_energy": -739.162331322, 
			 "HOMO_LUMO_gap": 0.17807, 
			 "cosmo_polarized_energy": -11.0, 
			 "cosmo_cavitation_energy": 26.15, 
			 "cosmo_dispersion_energy": -18.76, 
			 "cosmo_repulsion_energy": 1.44, 
			 "cosmo_total_nonelectrostatic_energy": 8.83, 
			 "SMD_solvation_energy": 6.35 
		},
		"coords": [
			{
				"x": -0.8793420555,
				"y": 0.2900555395,
				"z": -3.6990497595,
				"element": "C" 
			},
			{
				"x": -0.6389573593,
				"y": 0.8376149918,
				"z": -2.4142684947,
				"element": "O" 
			},
			{
				"x": -0.2951656579,
				"y": -0.0119122858,
				"z": -1.4030916875,
				"element": "C" 
			},
			{
				"x": -0.152534183,
				"y": -1.39513105,
				"z": -1.5391435674,
				"element": "C" 
			},
			{
				"x": 0.2062210323,
				"y": -2.1844623246,
				"z": -0.4454478378,
				"element": "C" 
			},
			{
				"x": 0.4323291989,
				"y": -1.6185352075,
				"z": 0.8147806447,
				"element": "C" 
			},
			{
				"x": 0.7311229098,
				"y": -2.4147155358,
				"z": 1.92888638,
				"element": "N" 
			},
			{
				"x": 0.2871517143,
				"y": -0.2283931769,
				"z": 0.9456124108,
				"element": "C" 
			},
			{
				"x": -0.0691463993,
				"y": 0.5681139469,
				"z": -0.1387521543,
				"element": "C" 
			},
			{
				"x": -0.2097921339,
				"y": 2.0576267726,
				"z": 0.0401250449,
				"element": "C" 
			},
			{
				"x": 0.6459661875,
				"y": 2.7472482287,
				"z": -0.7455652564,
				"element": "F" 
			},
			{
				"x": 0.0453228175,
				"y": 2.432631897,
				"z": 1.3181869807,
				"element": "F" 
			},
			{
				"x": -1.4549431618,
				"y": 2.4907315433,
				"z": -0.2518055429,
				"element": "F" 
			},
			{
				"x": 0.012807106,
				"y": -0.2077017644,
				"z": -4.1013847146,
				"element": "H" 
			},
			{
				"x": -1.7134629113,
				"y": -0.4237044605,
				"z": -3.686066997,
				"element": "H" 
			},
			{
				"x": -1.1389710538,
				"y": 1.1334210861,
				"z": -4.3403727629,
				"element": "H" 
			},
			{
				"x": -0.3167545244,
				"y": -1.8727590938,
				"z": -2.4974545721,
				"element": "H" 
			},
			{
				"x": 0.3060173286,
				"y": -3.2589057402,
				"z": -0.5780288529,
				"element": "H" 
			},
			{
				"x": 1.1768127946,
				"y": -3.2950418252,
				"z": 1.7073283653,
				"element": "H" 
			},
			{
				"x": 1.22631871,
				"y": -1.9328138711,
				"z": 2.6673437443,
				"element": "H" 
			},
			{
				"x": 0.4501996409,
				"y": 0.2429323297,
				"z": 1.9086686292,
				"element": "H" 
			}
		],
		 "valence_orbital": [ 
			{
				"type": "occ",
				"energy": -0.3467,
				"method": "rhf"
			},
			{
				"type": "occ",
				"energy": -0.32637,
				"method": "rhf"
			},
			{
				"type": "occ",
				"energy": -0.28462,
				"method": "rhf"
			},
			{
				"type": "occ",
				"energy": -0.26094,
				"method": "rhf"
			},
			{
				"type": "occ",
				"energy": -0.19575,
				"method": "rhf"
			},
			{
				"type": "unocc",
				"energy": -0.01768,
				"method": "rhf"
			},
			{
				"type": "unocc",
				"energy": 0.01695,
				"method": "rhf"
			},
			{
				"type": "unocc",
				"energy": 0.07531,
				"method": "rhf"
			},
			{
				"type": "unocc",
				"energy": 0.0926,
				"method": "rhf"
			},
			{
				"type": "unocc",
				"energy": 0.10967,
				"method": "rhf"
			}
		],
		"cosmo_sigma_profile": { 
			"-0.025": 0.0,
			"-0.024": 0.0,
			"-0.023": 0.0,
			"-0.022": 0.0,
			"-0.021": 0.0,
			"-0.02": 0.0,
			"-0.019": 0.0,
			"-0.018": 0.0,
			"-0.017": 0.0,
			"-0.016": 0.0,
			"-0.015": 0.0,
			"-0.014": 0.0,
			"-0.013": 0.315413060405,
			"-0.012": 2.61256963571,
			"-0.011": 2.89974756646,
			"-0.01": 3.1730221112,
			"-0.009": 3.3688933634,
			"-0.008": 3.43437167062,
			"-0.007": 4.56514387262,
			"-0.006": 10.6386936326,
			"-0.005": 13.7487512619,
			"-0.004": 13.4992640932,
			"-0.003": 12.7460181216,
			"-0.002": 7.90432784703,
			"-0.001": 9.07634411056,
			"0.0": 9.90985020856,
			"0.001": 9.16711884165,
			"0.002": 15.7861222264,
			"0.003": 34.7133213486,
			"0.004": 21.3405579291,
			"0.005": 10.986277861,
			"0.006": 4.05429907616,
			"0.007": 3.87555807822,
			"0.008": 3.5369658067,
			"0.009": 2.85030689133,
			"0.01": 0.536663486202,
			"0.011": 0.99401862242,
			"0.012": 0.491067877464,
			"0.013": 0.669673849041,
			"0.014": 0.580380201684,
			"0.015": 0.48351679224,
			"0.016": 0.0,
			"0.017": 0.0,
			"0.018": 0.0,
			"0.019": 0.0,
			"0.02": 0.0,
			"0.021": 0.0,
			"0.022": 0.0,
			"0.023": 0.0,
			"0.024": 0.0,
			"0.025": 0.0
		}
	}
}
