{
	 "smiles": "NC1=CC=C(CN2CCS(=O)(=O)CC2)C=C1", 
	 "Tm": 429.15, 
	 "num_atms": 32, 
	 "gaussian": { 
		 "optdone": 1, 
		 "sigma_profile": "yes", 
		 "theory": "DFT", 
		 "functional": "B3LYP", 
		 "basiset": "6-31G**", 
		 "properties": { 
			 "R2extent": 5909.3004, 
			 "electric_dipole_moment_norm": 5.7851635664, 
			 "electric_quadrupole_moment_norm": 33.8467074527, 
			 "total_energy": -1086.8792079, 
			 "HOMO_LUMO_gap": 0.20144, 
			 "cosmo_polarized_energy": -21.21, 
			 "cosmo_cavitation_energy": 35.06, 
			 "cosmo_dispersion_energy": -25.7, 
			 "cosmo_repulsion_energy": 1.95, 
			 "cosmo_total_nonelectrostatic_energy": 11.3, 
			 "SMD_solvation_energy": 3.0 
		},
		"coords": [
			{
				"x": 3.9822268905,
				"y": 3.0905748611,
				"z": -2.3482594896,
				"element": "N" 
			},
			{
				"x": 3.2032971766,
				"y": 2.3616229993,
				"z": -1.4491819052,
				"element": "C" 
			},
			{
				"x": 2.5825964662,
				"y": 2.988705888,
				"z": -0.3568000908,
				"element": "C" 
			},
			{
				"x": 1.8521584567,
				"y": 2.2420870442,
				"z": 0.5657314509,
				"element": "C" 
			},
			{
				"x": 1.7183652635,
				"y": 0.8558047286,
				"z": 0.4412244026,
				"element": "C" 
			},
			{
				"x": 0.9631449244,
				"y": 0.0394151018,
				"z": 1.4714812115,
				"element": "C" 
			},
			{
				"x": -0.0145243676,
				"y": -0.8729022106,
				"z": 0.8664276622,
				"element": "N" 
			},
			{
				"x": -1.0869264744,
				"y": -0.1315224627,
				"z": 0.186625822,
				"element": "C" 
			},
			{
				"x": -2.2718513863,
				"y": -1.0236757822,
				"z": -0.1729059227,
				"element": "C" 
			},
			{
				"x": -3.1692643407,
				"y": -1.5342826478,
				"z": 1.3374558372,
				"element": "S" 
			},
			{
				"x": -3.680380529,
				"y": -2.9003265169,
				"z": 1.1346327327,
				"element": "O" 
			},
			{
				"x": -4.0754843554,
				"y": -0.4428178859,
				"z": 1.7322685567,
				"element": "O" 
			},
			{
				"x": -1.7833781558,
				"y": -1.606373427,
				"z": 2.5277206044,
				"element": "C" 
			},
			{
				"x": -0.4890529519,
				"y": -1.9332935277,
				"z": 1.7653907995,
				"element": "C" 
			},
			{
				"x": 2.3375236229,
				"y": 0.2343456542,
				"z": -0.652943339,
				"element": "C" 
			},
			{
				"x": 3.0642903308,
				"y": 0.9673147547,
				"z": -1.5838692172,
				"element": "C" 
			},
			{
				"x": 3.769371602,
				"y": 4.0767938355,
				"z": -2.4048398925,
				"element": "H" 
			},
			{
				"x": 4.0928540729,
				"y": 2.673674423,
				"z": -3.2620731033,
				"element": "H" 
			},
			{
				"x": 2.6728180676,
				"y": 4.0652787967,
				"z": -0.2334531996,
				"element": "H" 
			},
			{
				"x": 1.375903129,
				"y": 2.7533465027,
				"z": 1.3994312371,
				"element": "H" 
			},
			{
				"x": 1.671938231,
				"y": -0.5790197435,
				"z": 2.0366654903,
				"element": "H" 
			},
			{
				"x": 0.4964628361,
				"y": 0.7310375013,
				"z": 2.2000494754,
				"element": "H" 
			},
			{
				"x": -0.6816086127,
				"y": 0.313455081,
				"z": -0.7274476949,
				"element": "H" 
			},
			{
				"x": -1.4570302495,
				"y": 0.7109526689,
				"z": 0.8008237775,
				"element": "H" 
			},
			{
				"x": -1.9668711302,
				"y": -1.9307087807,
				"z": -0.6989941115,
				"element": "H" 
			},
			{
				"x": -3.0116711159,
				"y": -0.4858656906,
				"z": -0.770509624,
				"element": "H" 
			},
			{
				"x": -2.0558413447,
				"y": -2.391941544,
				"z": 3.2374518838,
				"element": "H" 
			},
			{
				"x": -1.7431330399,
				"y": -0.6440046856,
				"z": 3.0429107974,
				"element": "H" 
			},
			{
				"x": -0.6519884901,
				"y": -2.8573429893,
				"z": 1.1953463105,
				"element": "H" 
			},
			{
				"x": 0.3040445877,
				"y": -2.1576103429,
				"z": 2.4842025448,
				"element": "H" 
			},
			{
				"x": 2.2309932007,
				"y": -0.8397126636,
				"z": -0.7777316106,
				"element": "H" 
			},
			{
				"x": 3.537917686,
				"y": 0.4619910601,
				"z": -2.4224313958,
				"element": "H" 
			}
		],
		 "valence_orbital": [ 
			{
				"type": "occ",
				"energy": -0.28866,
				"method": "rhf"
			},
			{
				"type": "occ",
				"energy": -0.27503,
				"method": "rhf"
			},
			{
				"type": "occ",
				"energy": -0.25131,
				"method": "rhf"
			},
			{
				"type": "occ",
				"energy": -0.22654,
				"method": "rhf"
			},
			{
				"type": "occ",
				"energy": -0.20472,
				"method": "rhf"
			},
			{
				"type": "unocc",
				"energy": -0.00328,
				"method": "rhf"
			},
			{
				"type": "unocc",
				"energy": 0.00796,
				"method": "rhf"
			},
			{
				"type": "unocc",
				"energy": 0.05962,
				"method": "rhf"
			},
			{
				"type": "unocc",
				"energy": 0.06977,
				"method": "rhf"
			},
			{
				"type": "unocc",
				"energy": 0.07704,
				"method": "rhf"
			}
		],
		"cosmo_sigma_profile": { 
			"-0.025": 0.0,
			"-0.024": 0.0,
			"-0.023": 0.0,
			"-0.022": 0.0,
			"-0.021": 0.0,
			"-0.02": 0.0,
			"-0.019": 0.0,
			"-0.018": 0.0,
			"-0.017": 0.0,
			"-0.016": 0.0,
			"-0.015": 0.0,
			"-0.014": 0.0,
			"-0.013": 0.265450506742,
			"-0.012": 1.89743442196,
			"-0.011": 2.8775432755,
			"-0.01": 2.82918375527,
			"-0.009": 3.0200944231,
			"-0.008": 8.35360158171,
			"-0.007": 13.7947336897,
			"-0.006": 16.9957605436,
			"-0.005": 24.0539099997,
			"-0.004": 26.263714125,
			"-0.003": 23.1856858036,
			"-0.002": 17.623578191,
			"-0.001": 12.900651573,
			"0.0": 10.8659856932,
			"0.001": 11.0042912872,
			"0.002": 9.11109192444,
			"0.003": 9.38988209598,
			"0.004": 9.7709650671,
			"0.005": 9.26825669288,
			"0.006": 11.5889717056,
			"0.007": 9.75786931619,
			"0.008": 4.50277649796,
			"0.009": 3.87383412448,
			"0.01": 4.54998656369,
			"0.011": 9.23777073771,
			"0.012": 12.4222780057,
			"0.013": 4.56001955149,
			"0.014": 0.699427848759,
			"0.015": 0.19941120475,
			"0.016": 0.0,
			"0.017": 0.0,
			"0.018": 0.0,
			"0.019": 0.0,
			"0.02": 0.0,
			"0.021": 0.0,
			"0.022": 0.0,
			"0.023": 0.0,
			"0.024": 0.0,
			"0.025": 0.0
		}
	}
}
