{
	 "smiles": "ClC(=O)C1=CC=CC(=N1)C(Cl)=O", 
	 "Tm": 332.15, 
	 "num_atms": 15, 
	 "gaussian": { 
		 "optdone": 1, 
		 "sigma_profile": "yes", 
		 "theory": "DFT", 
		 "functional": "B3LYP", 
		 "basiset": "6-31G**", 
		 "properties": { 
			 "R2extent": 3756.3973, 
			 "electric_dipole_moment_norm": 4.53471315631, 
			 "electric_quadrupole_moment_norm": 16.0031206782, 
			 "total_energy": -1394.13508475, 
			 "HOMO_LUMO_gap": 0.1833, 
			 "cosmo_polarized_energy": -11.14, 
			 "cosmo_cavitation_energy": 25.03, 
			 "cosmo_dispersion_energy": -18.17, 
			 "cosmo_repulsion_energy": 1.46, 
			 "cosmo_total_nonelectrostatic_energy": 8.31, 
			 "SMD_solvation_energy": 4.8 
		},
		"coords": [
			{
				"x": -0.2484426533,
				"y": 1.6315869375,
				"z": 3.8215460222,
				"element": "Cl" 
			},
			{
				"x": -0.6243956052,
				"y": -0.0349528304,
				"z": 3.2962301542,
				"element": "C" 
			},
			{
				"x": -0.6458110324,
				"y": -0.9408520278,
				"z": 4.0781091424,
				"element": "O" 
			},
			{
				"x": -0.9041279322,
				"y": -0.1991005014,
				"z": 1.8279408628,
				"element": "C" 
			},
			{
				"x": -1.2040751857,
				"y": -1.4926373582,
				"z": 1.3738165994,
				"element": "C" 
			},
			{
				"x": -1.4668208908,
				"y": -1.6704486958,
				"z": 0.0180247729,
				"element": "C" 
			},
			{
				"x": -1.4209593516,
				"y": -0.5629951282,
				"z": -0.8247516141,
				"element": "C" 
			},
			{
				"x": -1.1105248516,
				"y": 0.6855447476,
				"z": -0.2641986924,
				"element": "C" 
			},
			{
				"x": -0.8577113662,
				"y": 0.8663508383,
				"z": 1.0306026503,
				"element": "N" 
			},
			{
				"x": -1.0676475351,
				"y": 1.8646522239,
				"z": -1.1963623919,
				"element": "C" 
			},
			{
				"x": -0.6675782613,
				"y": 3.4299182844,
				"z": -0.4318472844,
				"element": "Cl" 
			},
			{
				"x": -1.2825472864,
				"y": 1.7861504076,
				"z": -2.3711404363,
				"element": "O" 
			},
			{
				"x": -1.2243366619,
				"y": -2.3146251108,
				"z": 2.0797607966,
				"element": "H" 
			},
			{
				"x": -1.703045232,
				"y": -2.6542909316,
				"z": -0.3746793299,
				"element": "H" 
			},
			{
				"x": -1.6157761545,
				"y": -0.636800855,
				"z": -1.8882512516,
				"element": "H" 
			}
		],
		 "valence_orbital": [ 
			{
				"type": "occ",
				"energy": -0.32639,
				"method": "rhf"
			},
			{
				"type": "occ",
				"energy": -0.32527,
				"method": "rhf"
			},
			{
				"type": "occ",
				"energy": -0.30961,
				"method": "rhf"
			},
			{
				"type": "occ",
				"energy": -0.30432,
				"method": "rhf"
			},
			{
				"type": "occ",
				"energy": -0.28894,
				"method": "rhf"
			},
			{
				"type": "unocc",
				"energy": -0.10564,
				"method": "rhf"
			},
			{
				"type": "unocc",
				"energy": -0.09974,
				"method": "rhf"
			},
			{
				"type": "unocc",
				"energy": -0.02457,
				"method": "rhf"
			},
			{
				"type": "unocc",
				"energy": 0.01976,
				"method": "rhf"
			},
			{
				"type": "unocc",
				"energy": 0.02033,
				"method": "rhf"
			}
		],
		"cosmo_sigma_profile": { 
			"-0.025": 0.0,
			"-0.024": 0.0,
			"-0.023": 0.0,
			"-0.022": 0.0,
			"-0.021": 0.0,
			"-0.02": 0.0,
			"-0.019": 0.0,
			"-0.018": 0.0,
			"-0.017": 0.0,
			"-0.016": 0.0,
			"-0.015": 0.0,
			"-0.014": 0.0,
			"-0.013": 0.0,
			"-0.012": 0.0,
			"-0.011": 0.0,
			"-0.01": 0.671565285321,
			"-0.009": 5.55921121924,
			"-0.008": 6.88487516244,
			"-0.007": 7.01537232656,
			"-0.006": 8.65626626476,
			"-0.005": 10.7731002312,
			"-0.004": 15.5866644512,
			"-0.003": 15.6221275104,
			"-0.002": 18.0386016729,
			"-0.001": 13.0081006528,
			"0.0": 9.54680682,
			"0.001": 9.76933934166,
			"0.002": 13.3643472582,
			"0.003": 18.5279786896,
			"0.004": 16.8289250872,
			"0.005": 7.38651519879,
			"0.006": 6.72781357538,
			"0.007": 8.18663766102,
			"0.008": 8.79282891977,
			"0.009": 4.16270938812,
			"0.01": 1.5020817782,
			"0.011": 0.867846698122,
			"0.012": 0.108802013953,
			"0.013": 0.0,
			"0.014": 0.0,
			"0.015": 0.0,
			"0.016": 0.0,
			"0.017": 0.0,
			"0.018": 0.0,
			"0.019": 0.0,
			"0.02": 0.0,
			"0.021": 0.0,
			"0.022": 0.0,
			"0.023": 0.0,
			"0.024": 0.0,
			"0.025": 0.0
		}
	}
}
