{
	 "smiles": "OCCN(CCO)CCS(O)(=O)=O", 
	 "Tm": 426.15, 
	 "num_atms": 28, 
	 "gaussian": { 
		 "optdone": 1, 
		 "sigma_profile": "yes", 
		 "theory": "DFT", 
		 "functional": "B3LYP", 
		 "basiset": "6-31G**", 
		 "properties": { 
			 "R2extent": 3311.0394, 
			 "electric_dipole_moment_norm": 7.29251570173, 
			 "electric_quadrupole_moment_norm": 21.6259791566, 
			 "total_energy": -1066.64280648, 
			 "HOMO_LUMO_gap": 0.28687, 
			 "cosmo_polarized_energy": -26.14, 
			 "cosmo_cavitation_energy": 29.97, 
			 "cosmo_dispersion_energy": -22.04, 
			 "cosmo_repulsion_energy": 1.69, 
			 "cosmo_total_nonelectrostatic_energy": 9.62, 
			 "SMD_solvation_energy": 3.95 
		},
		"coords": [
			{
				"x": -3.6416595843,
				"y": -0.5330209425,
				"z": -1.0942455223,
				"element": "O" 
			},
			{
				"x": -2.7399363445,
				"y": -1.612934888,
				"z": -1.2886335341,
				"element": "C" 
			},
			{
				"x": -1.2730757366,
				"y": -1.1900078941,
				"z": -1.4416599831,
				"element": "C" 
			},
			{
				"x": -0.6867077562,
				"y": -0.3469467398,
				"z": -0.3819804647,
				"element": "N" 
			},
			{
				"x": -0.7133150032,
				"y": -0.9520124193,
				"z": 0.9703359076,
				"element": "C" 
			},
			{
				"x": -1.9150299595,
				"y": -0.6326397762,
				"z": 1.8770414153,
				"element": "C" 
			},
			{
				"x": -1.8280664917,
				"y": 0.6552783582,
				"z": 2.4816357457,
				"element": "O" 
			},
			{
				"x": -1.0788519984,
				"y": 1.0835505822,
				"z": -0.4506492815,
				"element": "C" 
			},
			{
				"x": -0.001561649,
				"y": 2.0209487811,
				"z": 0.1077696735,
				"element": "C" 
			},
			{
				"x": 1.5630578645,
				"y": 1.8716371913,
				"z": -0.7975540532,
				"element": "S" 
			},
			{
				"x": 1.8960309986,
				"y": 0.315201724,
				"z": -0.5088989403,
				"element": "O" 
			},
			{
				"x": 1.260803257,
				"y": 2.0565233031,
				"z": -2.2197126696,
				"element": "O" 
			},
			{
				"x": 2.5952319336,
				"y": 2.6690145805,
				"z": -0.1475071892,
				"element": "O" 
			},
			{
				"x": -3.6622762067,
				"y": 0.0003356871,
				"z": -1.8995163996,
				"element": "H" 
			},
			{
				"x": -3.0143889582,
				"y": -2.222512335,
				"z": -2.1642335281,
				"element": "H" 
			},
			{
				"x": -2.8606304469,
				"y": -2.2552158759,
				"z": -0.4103073394,
				"element": "H" 
			},
			{
				"x": -1.1374836545,
				"y": -0.6527535502,
				"z": -2.3877123665,
				"element": "H" 
			},
			{
				"x": -0.6701244868,
				"y": -2.1049533844,
				"z": -1.5183673248,
				"element": "H" 
			},
			{
				"x": 0.2011121647,
				"y": -0.6504836786,
				"z": 1.4996512384,
				"element": "H" 
			},
			{
				"x": -0.638445705,
				"y": -2.0368225606,
				"z": 0.8347169682,
				"element": "H" 
			},
			{
				"x": -1.9933193399,
				"y": -1.4205767064,
				"z": 2.6415144229,
				"element": "H" 
			},
			{
				"x": -2.8459856908,
				"y": -0.629032594,
				"z": 1.3049785105,
				"element": "H" 
			},
			{
				"x": -1.1527990097,
				"y": 0.6187431633,
				"z": 3.1712383545,
				"element": "H" 
			},
			{
				"x": -2.0162314233,
				"y": 1.2833496519,
				"z": 0.0744498161,
				"element": "H" 
			},
			{
				"x": -1.2218652007,
				"y": 1.3287676895,
				"z": -1.5058962313,
				"element": "H" 
			},
			{
				"x": -0.3168435729,
				"y": 3.0612435767,
				"z": -0.0070548893,
				"element": "H" 
			},
			{
				"x": 0.2060506847,
				"y": 1.8407514342,
				"z": 1.1635370278,
				"element": "H" 
			},
			{
				"x": 1.0017113157,
				"y": -0.1573323778,
				"z": -0.6114393635,
				"element": "H" 
			}
		],
		 "valence_orbital": [ 
			{
				"type": "occ",
				"energy": -0.30134,
				"method": "rhf"
			},
			{
				"type": "occ",
				"energy": -0.29983,
				"method": "rhf"
			},
			{
				"type": "occ",
				"energy": -0.2921,
				"method": "rhf"
			},
			{
				"type": "occ",
				"energy": -0.27962,
				"method": "rhf"
			},
			{
				"type": "occ",
				"energy": -0.24763,
				"method": "rhf"
			},
			{
				"type": "unocc",
				"energy": 0.03924,
				"method": "rhf"
			},
			{
				"type": "unocc",
				"energy": 0.04759,
				"method": "rhf"
			},
			{
				"type": "unocc",
				"energy": 0.07125,
				"method": "rhf"
			},
			{
				"type": "unocc",
				"energy": 0.0815,
				"method": "rhf"
			},
			{
				"type": "unocc",
				"energy": 0.08471,
				"method": "rhf"
			}
		],
		"cosmo_sigma_profile": { 
			"-0.025": 0.0,
			"-0.024": 0.0,
			"-0.023": 0.0,
			"-0.022": 0.0,
			"-0.021": 0.0,
			"-0.02": 0.0,
			"-0.019": 0.0,
			"-0.018": 0.0,
			"-0.017": 0.0,
			"-0.016": 0.598772062069,
			"-0.015": 1.86411314517,
			"-0.014": 2.48394261683,
			"-0.013": 1.76178349705,
			"-0.012": 2.51610711253,
			"-0.011": 2.22822818058,
			"-0.01": 1.83834363747,
			"-0.009": 4.05864415166,
			"-0.008": 7.02995684438,
			"-0.007": 9.28383449303,
			"-0.006": 14.2101291419,
			"-0.005": 24.338250381,
			"-0.004": 24.4444050085,
			"-0.003": 16.0500529662,
			"-0.002": 14.3550024321,
			"-0.001": 7.16114368234,
			"0.0": 6.00915498663,
			"0.001": 5.96792438167,
			"0.002": 4.99161670699,
			"0.003": 6.05838437255,
			"0.004": 4.55263632547,
			"0.005": 5.24654761276,
			"0.006": 6.68640055513,
			"0.007": 5.90247101915,
			"0.008": 6.33153347672,
			"0.009": 8.5974242167,
			"0.01": 10.9917995385,
			"0.011": 16.3566118817,
			"0.012": 6.21137342756,
			"0.013": 2.52003814723,
			"0.014": 1.79194886003,
			"0.015": 0.259419065473,
			"0.016": 0.0,
			"0.017": 0.0,
			"0.018": 0.0,
			"0.019": 0.0,
			"0.02": 0.0,
			"0.021": 0.0,
			"0.022": 0.0,
			"0.023": 0.0,
			"0.024": 0.0,
			"0.025": 0.0
		}
	}
}
