{
	 "smiles": "OC(C(O)=O)C1=CC=C(C=C1)C#N", 
	 "Tm": 363.15, 
	 "num_atms": 20, 
	 "gaussian": { 
		 "optdone": 1, 
		 "sigma_profile": "yes", 
		 "theory": "DFT", 
		 "functional": "B3LYP", 
		 "basiset": "6-31G**", 
		 "properties": { 
			 "R2extent": 3322.9825, 
			 "electric_dipole_moment_norm": 4.89265190771, 
			 "electric_quadrupole_moment_norm": 20.2781436867, 
			 "total_energy": -627.588996816, 
			 "HOMO_LUMO_gap": 0.20382, 
			 "cosmo_polarized_energy": -16.06, 
			 "cosmo_cavitation_energy": 26.15, 
			 "cosmo_dispersion_energy": -18.45, 
			 "cosmo_repulsion_energy": 1.47, 
			 "cosmo_total_nonelectrostatic_energy": 9.18, 
			 "SMD_solvation_energy": 7.14 
		},
		"coords": [
			{
				"x": -2.2083733126,
				"y": -0.6187302766,
				"z": -1.9104312597,
				"element": "O" 
			},
			{
				"x": -0.8793372217,
				"y": -0.1738633223,
				"z": -1.9783330834,
				"element": "C" 
			},
			{
				"x": -0.2424133831,
				"y": -0.7394448648,
				"z": -3.2534668335,
				"element": "C" 
			},
			{
				"x": 0.9690541603,
				"y": -0.2308777692,
				"z": -3.5193954455,
				"element": "O" 
			},
			{
				"x": -0.8025926904,
				"y": -1.5603463866,
				"z": -3.9498084463,
				"element": "O" 
			},
			{
				"x": -0.0680741071,
				"y": -0.5755548255,
				"z": -0.7452551659,
				"element": "C" 
			},
			{
				"x": -0.5196676272,
				"y": -1.6127675246,
				"z": 0.0761038246,
				"element": "C" 
			},
			{
				"x": 0.2120373511,
				"y": -1.994800164,
				"z": 1.1969052533,
				"element": "C" 
			},
			{
				"x": 1.4114798557,
				"y": -1.3347606252,
				"z": 1.5091657388,
				"element": "C" 
			},
			{
				"x": 1.864036339,
				"y": -0.286548747,
				"z": 0.6890168518,
				"element": "C" 
			},
			{
				"x": 1.1245000008,
				"y": 0.0870844402,
				"z": -0.4273159309,
				"element": "C" 
			},
			{
				"x": 2.1697728931,
				"y": -1.7230553768,
				"z": 2.6628148636,
				"element": "C" 
			},
			{
				"x": 2.7868829467,
				"y": -2.0384385852,
				"z": 3.5972358304,
				"element": "N" 
			},
			{
				"x": -2.3220383444,
				"y": -1.2433457281,
				"z": -2.6477776475,
				"element": "H" 
			},
			{
				"x": -0.8543044841,
				"y": 0.9228350077,
				"z": -2.0681584199,
				"element": "H" 
			},
			{
				"x": 1.2909781429,
				"y": -0.6608427046,
				"z": -4.3302460142,
				"element": "H" 
			},
			{
				"x": -1.4586404356,
				"y": -2.0987121291,
				"z": -0.1619864619,
				"element": "H" 
			},
			{
				"x": -0.1397299365,
				"y": -2.7983791839,
				"z": 1.8352859939,
				"element": "H" 
			},
			{
				"x": 2.7864054804,
				"y": 0.2282069793,
				"z": 0.9361432612,
				"element": "H" 
			},
			{
				"x": 1.4792243725,
				"y": 0.8964417865,
				"z": -1.0580969089,
				"element": "H" 
			}
		],
		 "valence_orbital": [ 
			{
				"type": "occ",
				"energy": -0.33,
				"method": "rhf"
			},
			{
				"type": "occ",
				"energy": -0.31853,
				"method": "rhf"
			},
			{
				"type": "occ",
				"energy": -0.29775,
				"method": "rhf"
			},
			{
				"type": "occ",
				"energy": -0.27735,
				"method": "rhf"
			},
			{
				"type": "occ",
				"energy": -0.26158,
				"method": "rhf"
			},
			{
				"type": "unocc",
				"energy": -0.05776,
				"method": "rhf"
			},
			{
				"type": "unocc",
				"energy": -0.02791,
				"method": "rhf"
			},
			{
				"type": "unocc",
				"energy": -0.01664,
				"method": "rhf"
			},
			{
				"type": "unocc",
				"energy": 0.03633,
				"method": "rhf"
			},
			{
				"type": "unocc",
				"energy": 0.04943,
				"method": "rhf"
			}
		],
		"cosmo_sigma_profile": { 
			"-0.025": 0.0,
			"-0.024": 0.0,
			"-0.023": 0.0,
			"-0.022": 0.0,
			"-0.021": 0.0,
			"-0.02": 0.101685629126,
			"-0.019": 1.08122568253,
			"-0.018": 1.00052149343,
			"-0.017": 0.702945367189,
			"-0.016": 1.09759458193,
			"-0.015": 0.662946018588,
			"-0.014": 0.582767511921,
			"-0.013": 0.82915670236,
			"-0.012": 1.23790642657,
			"-0.011": 1.25393457647,
			"-0.01": 0.934728849474,
			"-0.009": 1.18617274161,
			"-0.008": 8.20037058155,
			"-0.007": 10.2497707334,
			"-0.006": 12.3583071328,
			"-0.005": 11.2572042918,
			"-0.004": 12.0553266577,
			"-0.003": 11.4981573156,
			"-0.002": 10.8664638689,
			"-0.001": 14.5736266015,
			"0.0": 11.0564502519,
			"0.001": 14.0710099543,
			"0.002": 17.2566963762,
			"0.003": 9.56292849668,
			"0.004": 6.13398742244,
			"0.005": 6.38503643121,
			"0.006": 5.88929869722,
			"0.007": 5.92209431627,
			"0.008": 6.20924250688,
			"0.009": 6.72135813952,
			"0.01": 7.3678454223,
			"0.011": 5.0628861537,
			"0.012": 3.89773413745,
			"0.013": 2.64349516121,
			"0.014": 0.121107897371,
			"0.015": 0.0,
			"0.016": 0.0,
			"0.017": 0.0,
			"0.018": 0.0,
			"0.019": 0.0,
			"0.02": 0.0,
			"0.021": 0.0,
			"0.022": 0.0,
			"0.023": 0.0,
			"0.024": 0.0,
			"0.025": 0.0
		}
	}
}
