{
	 "smiles": "COC1=CC(=CC(O)=C1OC)C1=COC2=C(C(O)=C(OC)C(O)=C2)C1=O", 
	 "Tm": 458.15, 
	 "num_atms": 42, 
	 "gaussian": { 
		 "optdone": 1, 
		 "sigma_profile": "yes", 
		 "theory": "DFT", 
		 "functional": "B3LYP", 
		 "basiset": "6-31G**", 
		 "properties": { 
			 "R2extent": 13488.3367, 
			 "electric_dipole_moment_norm": 1.33140718415, 
			 "electric_quadrupole_moment_norm": 26.1820600849, 
			 "total_energy": -1297.30697595, 
			 "HOMO_LUMO_gap": 0.15032, 
			 "cosmo_polarized_energy": -16.56, 
			 "cosmo_cavitation_energy": 45.9, 
			 "cosmo_dispersion_energy": -33.43, 
			 "cosmo_repulsion_energy": 2.48, 
			 "cosmo_total_nonelectrostatic_energy": 14.95, 
			 "SMD_solvation_energy": 11.81 
		},
		"coords": [
			{
				"x": -0.7385450023,
				"y": -2.2165006028,
				"z": -3.3484257846,
				"element": "C" 
			},
			{
				"x": 0.4863653219,
				"y": -2.8139100339,
				"z": -2.942870295,
				"element": "O" 
			},
			{
				"x": 0.9935605882,
				"y": -2.4707138854,
				"z": -1.7221032064,
				"element": "C" 
			},
			{
				"x": 0.3555378716,
				"y": -1.6215254873,
				"z": -0.8142550429,
				"element": "C" 
			},
			{
				"x": 0.9696213354,
				"y": -1.301093396,
				"z": 0.4097717607,
				"element": "C" 
			},
			{
				"x": 2.231645872,
				"y": -1.8281947775,
				"z": 0.7145087643,
				"element": "C" 
			},
			{
				"x": 2.8547612758,
				"y": -2.6963429836,
				"z": -0.1828553073,
				"element": "C" 
			},
			{
				"x": 4.0813512622,
				"y": -3.2054424436,
				"z": 0.1072569825,
				"element": "O" 
			},
			{
				"x": 2.240168724,
				"y": -3.0318562143,
				"z": -1.3956831607,
				"element": "C" 
			},
			{
				"x": 2.9692094948,
				"y": -3.843161186,
				"z": -2.2437908512,
				"element": "O" 
			},
			{
				"x": 2.375907698,
				"y": -5.1103165032,
				"z": -2.5637581302,
				"element": "C" 
			},
			{
				"x": 0.2786766024,
				"y": -0.4309980743,
				"z": 1.3934925125,
				"element": "C" 
			},
			{
				"x": 0.3936804771,
				"y": -0.6925090793,
				"z": 2.7227663457,
				"element": "C" 
			},
			{
				"x": -0.1386482153,
				"y": 0.0388708236,
				"z": 3.7223486666,
				"element": "O" 
			},
			{
				"x": -0.8772793932,
				"y": 1.1536739787,
				"z": 3.4243607651,
				"element": "C" 
			},
			{
				"x": -1.0923270371,
				"y": 1.5133665142,
				"z": 2.0808340068,
				"element": "C" 
			},
			{
				"x": -1.8837183673,
				"y": 2.669345125,
				"z": 1.803263313,
				"element": "C" 
			},
			{
				"x": -2.1354872679,
				"y": 3.0389511102,
				"z": 0.5399907071,
				"element": "O" 
			},
			{
				"x": -2.3875615263,
				"y": 3.4177278153,
				"z": 2.8674178058,
				"element": "C" 
			},
			{
				"x": -3.19173629,
				"y": 4.5304126387,
				"z": 2.7252459522,
				"element": "O" 
			},
			{
				"x": -2.6324103538,
				"y": 5.6263130676,
				"z": 1.9807484829,
				"element": "C" 
			},
			{
				"x": -2.1466973164,
				"y": 3.0118861017,
				"z": 4.1977988122,
				"element": "C" 
			},
			{
				"x": -2.6698416553,
				"y": 3.746055433,
				"z": 5.2018347798,
				"element": "O" 
			},
			{
				"x": -1.3935876392,
				"y": 1.8745012989,
				"z": 4.492829508,
				"element": "C" 
			},
			{
				"x": -0.5377601569,
				"y": 0.7243473243,
				"z": 0.994603653,
				"element": "C" 
			},
			{
				"x": -0.7513571228,
				"y": 1.0281526551,
				"z": -0.2041655971,
				"element": "O" 
			},
			{
				"x": -0.6648428272,
				"y": -1.1228633752,
				"z": -3.3640304923,
				"element": "H" 
			},
			{
				"x": -0.9291168958,
				"y": -2.5830457438,
				"z": -4.3582290206,
				"element": "H" 
			},
			{
				"x": -1.568265964,
				"y": -2.5109485584,
				"z": -2.6936590122,
				"element": "H" 
			},
			{
				"x": -0.5987696757,
				"y": -1.1779839208,
				"z": -1.0535264141,
				"element": "H" 
			},
			{
				"x": 2.7586905511,
				"y": -1.5577964153,
				"z": 1.6225081231,
				"element": "H" 
			},
			{
				"x": 4.3458829529,
				"y": -3.7171484999,
				"z": -0.6759379988,
				"element": "H" 
			},
			{
				"x": 1.4607135869,
				"y": -4.9748267648,
				"z": -3.1443338905,
				"element": "H" 
			},
			{
				"x": 2.1531924616,
				"y": -5.6797887811,
				"z": -1.6528263894,
				"element": "H" 
			},
			{
				"x": 3.1157478926,
				"y": -5.6495379218,
				"z": -3.158947489,
				"element": "H" 
			},
			{
				"x": 0.9342508934,
				"y": -1.5450587572,
				"z": 3.1159524964,
				"element": "H" 
			},
			{
				"x": -1.6673666573,
				"y": 2.3618658633,
				"z": -0.0334292365,
				"element": "H" 
			},
			{
				"x": -3.3581516012,
				"y": 6.4385534858,
				"z": 2.0522223601,
				"element": "H" 
			},
			{
				"x": -1.6780586163,
				"y": 5.9461323738,
				"z": 2.416572457,
				"element": "H" 
			},
			{
				"x": -2.4844100289,
				"y": 5.3469287121,
				"z": 0.9359962106,
				"element": "H" 
			},
			{
				"x": -3.176126237,
				"y": 4.4589200458,
				"z": 4.7724018977,
				"element": "H" 
			},
			{
				"x": -1.2184990148,
				"y": 1.5711590385,
				"z": 5.5169009556,
				"element": "H" 
			}
		],
		 "valence_orbital": [ 
			{
				"type": "occ",
				"energy": -0.26111,
				"method": "rhf"
			},
			{
				"type": "occ",
				"energy": -0.23393,
				"method": "rhf"
			},
			{
				"type": "occ",
				"energy": -0.22269,
				"method": "rhf"
			},
			{
				"type": "occ",
				"energy": -0.21481,
				"method": "rhf"
			},
			{
				"type": "occ",
				"energy": -0.20648,
				"method": "rhf"
			},
			{
				"type": "unocc",
				"energy": -0.05616,
				"method": "rhf"
			},
			{
				"type": "unocc",
				"energy": -0.0294,
				"method": "rhf"
			},
			{
				"type": "unocc",
				"energy": 0.00754,
				"method": "rhf"
			},
			{
				"type": "unocc",
				"energy": 0.01965,
				"method": "rhf"
			},
			{
				"type": "unocc",
				"energy": 0.02218,
				"method": "rhf"
			}
		],
		"cosmo_sigma_profile": { 
			"-0.025": 0.0,
			"-0.024": 0.0,
			"-0.023": 0.0,
			"-0.022": 0.0,
			"-0.021": 0.0,
			"-0.02": 0.0,
			"-0.019": 0.0,
			"-0.018": 0.0,
			"-0.017": 0.0,
			"-0.016": 0.0,
			"-0.015": 0.0652190726722,
			"-0.014": 0.655379402711,
			"-0.013": 0.800832599564,
			"-0.012": 1.55268978239,
			"-0.011": 1.54260296031,
			"-0.01": 2.06366718138,
			"-0.009": 3.19059160475,
			"-0.008": 3.81368255628,
			"-0.007": 6.5655211339,
			"-0.006": 13.4675732538,
			"-0.005": 26.6517191242,
			"-0.004": 29.9459630405,
			"-0.003": 37.9631993151,
			"-0.002": 32.926984313,
			"-0.001": 24.3676190849,
			"0.0": 27.5406393297,
			"0.001": 25.6322748113,
			"0.002": 22.0090758164,
			"0.003": 20.3667140506,
			"0.004": 20.4507689044,
			"0.005": 12.949913735,
			"0.006": 10.0483840905,
			"0.007": 9.3810485699,
			"0.008": 8.44393455015,
			"0.009": 7.97866053088,
			"0.01": 9.41044900594,
			"0.011": 4.77470874279,
			"0.012": 2.01638951837,
			"0.013": 0.164236270543,
			"0.014": 0.0,
			"0.015": 0.0,
			"0.016": 0.0,
			"0.017": 0.0,
			"0.018": 0.0,
			"0.019": 0.0,
			"0.02": 0.0,
			"0.021": 0.0,
			"0.022": 0.0,
			"0.023": 0.0,
			"0.024": 0.0,
			"0.025": 0.0
		}
	}
}
