{
	 "smiles": "CC1=C2C=C3C=CC4=CC=CC=C4C3=CC2=CC=C1", 
	 "Tm": 429.15, 
	 "num_atms": 33, 
	 "gaussian": { 
		 "optdone": 1, 
		 "sigma_profile": "yes", 
		 "theory": "DFT", 
		 "functional": "B3LYP", 
		 "basiset": "6-31G**", 
		 "properties": { 
			 "R2extent": 5967.9442, 
			 "electric_dipole_moment_norm": 0.28209115548, 
			 "electric_quadrupole_moment_norm": 14.7136556555, 
			 "total_energy": -732.502168401, 
			 "HOMO_LUMO_gap": 0.13773, 
			 "cosmo_polarized_energy": -7.17, 
			 "cosmo_cavitation_energy": 35.36, 
			 "cosmo_dispersion_energy": -26.26, 
			 "cosmo_repulsion_energy": 1.92, 
			 "cosmo_total_nonelectrostatic_energy": 11.02, 
			 "SMD_solvation_energy": 5.05 
		},
		"coords": [
			{
				"x": -0.6790558373,
				"y": -3.7623231442,
				"z": 2.1349084957,
				"element": "C" 
			},
			{
				"x": -0.9493268462,
				"y": -2.2789393561,
				"z": 2.1921750893,
				"element": "C" 
			},
			{
				"x": -0.7190004417,
				"y": -1.447849574,
				"z": 1.0395115798,
				"element": "C" 
			},
			{
				"x": -0.2395769994,
				"y": -1.9525450369,
				"z": -0.1818524888,
				"element": "C" 
			},
			{
				"x": -0.0198375432,
				"y": -1.1373294669,
				"z": -1.2930892768,
				"element": "C" 
			},
			{
				"x": 0.4726229371,
				"y": -1.6942362983,
				"z": -2.5266198321,
				"element": "C" 
			},
			{
				"x": 0.6911337393,
				"y": -0.9147565038,
				"z": -3.6147751313,
				"element": "C" 
			},
			{
				"x": 0.4402244653,
				"y": 0.50425376,
				"z": -3.584785526,
				"element": "C" 
			},
			{
				"x": 0.6739453005,
				"y": 1.2985027876,
				"z": -4.7281411111,
				"element": "C" 
			},
			{
				"x": 0.4370696085,
				"y": 2.6615504383,
				"z": -4.71270775,
				"element": "C" 
			},
			{
				"x": -0.044214142,
				"y": 3.2661087294,
				"z": -3.5397507996,
				"element": "C" 
			},
			{
				"x": -0.2802414059,
				"y": 2.5042898028,
				"z": -2.4061926561,
				"element": "C" 
			},
			{
				"x": -0.0479343068,
				"y": 1.1120765163,
				"z": -2.3918770168,
				"element": "C" 
			},
			{
				"x": -0.2861667944,
				"y": 0.2764847853,
				"z": -1.2122561631,
				"element": "C" 
			},
			{
				"x": -0.7613702455,
				"y": 0.7793516243,
				"z": -0.002964842,
				"element": "C" 
			},
			{
				"x": -0.98573698,
				"y": -0.0354414265,
				"z": 1.1228034847,
				"element": "C" 
			},
			{
				"x": -1.4728236192,
				"y": 0.5094285498,
				"z": 2.3471943272,
				"element": "C" 
			},
			{
				"x": -1.6843204673,
				"y": -0.3019305665,
				"z": 3.4312105242,
				"element": "C" 
			},
			{
				"x": -1.4205893777,
				"y": -1.6957984718,
				"z": 3.3472954626,
				"element": "C" 
			},
			{
				"x": -0.9073190976,
				"y": -4.2358295562,
				"z": 3.0931069072,
				"element": "H" 
			},
			{
				"x": -1.2853692975,
				"y": -4.2555137087,
				"z": 1.3655828671,
				"element": "H" 
			},
			{
				"x": 0.3707580807,
				"y": -3.9743725362,
				"z": 1.8990359436,
				"element": "H" 
			},
			{
				"x": -0.0283960199,
				"y": -3.0132106585,
				"z": -0.2779360516,
				"element": "H" 
			},
			{
				"x": 0.6664445744,
				"y": -2.7631411407,
				"z": -2.5642768386,
				"element": "H" 
			},
			{
				"x": 1.0631140078,
				"y": -1.3491689423,
				"z": -4.5391371579,
				"element": "H" 
			},
			{
				"x": 1.046407463,
				"y": 0.8168774569,
				"z": -5.6288593072,
				"element": "H" 
			},
			{
				"x": 0.6214593685,
				"y": 3.2600821674,
				"z": -5.5999773464,
				"element": "H" 
			},
			{
				"x": -0.233197695,
				"y": 4.3354933943,
				"z": -3.5180765738,
				"element": "H" 
			},
			{
				"x": -0.6517773298,
				"y": 2.9999207446,
				"z": -1.5160231882,
				"element": "H" 
			},
			{
				"x": -0.9750963995,
				"y": 1.838200504,
				"z": 0.1020705222,
				"element": "H" 
			},
			{
				"x": -1.6719818648,
				"y": 1.5765422841,
				"z": 2.4027985443,
				"element": "H" 
			},
			{
				"x": -2.0553602418,
				"y": 0.1138562893,
				"z": 4.3635953864,
				"element": "H" 
			},
			{
				"x": -1.5966865925,
				"y": -2.3176334467,
				"z": 4.2214099231,
				"element": "H" 
			}
		],
		 "valence_orbital": [ 
			{
				"type": "occ",
				"energy": -0.28279,
				"method": "rhf"
			},
			{
				"type": "occ",
				"energy": -0.26162,
				"method": "rhf"
			},
			{
				"type": "occ",
				"energy": -0.24211,
				"method": "rhf"
			},
			{
				"type": "occ",
				"energy": -0.21784,
				"method": "rhf"
			},
			{
				"type": "occ",
				"energy": -0.19381,
				"method": "rhf"
			},
			{
				"type": "unocc",
				"energy": -0.05608,
				"method": "rhf"
			},
			{
				"type": "unocc",
				"energy": -0.03237,
				"method": "rhf"
			},
			{
				"type": "unocc",
				"energy": -0.00268,
				"method": "rhf"
			},
			{
				"type": "unocc",
				"energy": 0.0176,
				"method": "rhf"
			},
			{
				"type": "unocc",
				"energy": 0.04246,
				"method": "rhf"
			}
		],
		"cosmo_sigma_profile": { 
			"-0.025": 0.0,
			"-0.024": 0.0,
			"-0.023": 0.0,
			"-0.022": 0.0,
			"-0.021": 0.0,
			"-0.02": 0.0,
			"-0.019": 0.0,
			"-0.018": 0.0,
			"-0.017": 0.0,
			"-0.016": 0.0,
			"-0.015": 0.0,
			"-0.014": 0.0,
			"-0.013": 0.0,
			"-0.012": 0.0,
			"-0.011": 0.0,
			"-0.01": 0.0,
			"-0.009": 0.0051133388833,
			"-0.008": 0.890460789933,
			"-0.007": 2.11497023185,
			"-0.006": 14.599349547,
			"-0.005": 22.1370038987,
			"-0.004": 27.7149743156,
			"-0.003": 24.867972463,
			"-0.002": 19.2433181577,
			"-0.001": 18.593124545,
			"0.0": 18.5220849134,
			"0.001": 15.8327656913,
			"0.002": 19.2131596926,
			"0.003": 27.4263844925,
			"0.004": 44.1162466754,
			"0.005": 23.8867631839,
			"0.006": 4.54394748419,
			"0.007": 0.0,
			"0.008": 0.0,
			"0.009": 0.0,
			"0.01": 0.0,
			"0.011": 0.0,
			"0.012": 0.0,
			"0.013": 0.0,
			"0.014": 0.0,
			"0.015": 0.0,
			"0.016": 0.0,
			"0.017": 0.0,
			"0.018": 0.0,
			"0.019": 0.0,
			"0.02": 0.0,
			"0.021": 0.0,
			"0.022": 0.0,
			"0.023": 0.0,
			"0.024": 0.0,
			"0.025": 0.0
		}
	}
}
