{
	 "smiles": "OC1=CC(=CC(O)=C1)C#N", 
	 "Tm": 460.65, 
	 "num_atms": 15, 
	 "gaussian": { 
		 "optdone": 1, 
		 "sigma_profile": "yes", 
		 "theory": "DFT", 
		 "functional": "B3LYP", 
		 "basiset": "6-31G**", 
		 "properties": { 
			 "R2extent": 1854.96, 
			 "electric_dipole_moment_norm": 2.36387132052, 
			 "electric_quadrupole_moment_norm": 22.4067296315, 
			 "total_energy": -474.930814451, 
			 "HOMO_LUMO_gap": 0.19027, 
			 "cosmo_polarized_energy": -16.64, 
			 "cosmo_cavitation_energy": 20.98, 
			 "cosmo_dispersion_energy": -15.1, 
			 "cosmo_repulsion_energy": 1.23, 
			 "cosmo_total_nonelectrostatic_energy": 7.11, 
			 "SMD_solvation_energy": 5.85 
		},
		"coords": [
			{
				"x": -1.5930859922,
				"y": 2.2292771986,
				"z": -2.7666025761,
				"element": "O" 
			},
			{
				"x": -0.7661614172,
				"y": 1.6195512604,
				"z": -1.8731165026,
				"element": "C" 
			},
			{
				"x": -0.7761271212,
				"y": 0.2357246593,
				"z": -1.6667073205,
				"element": "C" 
			},
			{
				"x": 0.1078319552,
				"y": -0.314166709,
				"z": -0.7275694373,
				"element": "C" 
			},
			{
				"x": 0.9917827414,
				"y": 0.4957990928,
				"z": -0.0007065996,
				"element": "C" 
			},
			{
				"x": 0.9818057484,
				"y": 1.876694833,
				"z": -0.2259063439,
				"element": "C" 
			},
			{
				"x": 1.8087007216,
				"y": 2.7297726615,
				"z": 0.4392223646,
				"element": "O" 
			},
			{
				"x": 0.1078276827,
				"y": 2.4411669383,
				"z": -1.1577050664,
				"element": "C" 
			},
			{
				"x": 0.1078448944,
				"y": -1.7313928821,
				"z": -0.5063436969,
				"element": "C" 
			},
			{
				"x": 0.1079004482,
				"y": -2.8807516394,
				"z": -0.326906497,
				"element": "N" 
			},
			{
				"x": -2.1476080283,
				"y": 1.5666109347,
				"z": -3.1984369808,
				"element": "H" 
			},
			{
				"x": -1.4528946744,
				"y": -0.4081697023,
				"z": -2.2195191873,
				"element": "H" 
			},
			{
				"x": 1.6685399463,
				"y": 0.0510205356,
				"z": 0.7220563867,
				"element": "H" 
			},
			{
				"x": 2.3632044851,
				"y": 2.2303270139,
				"z": 1.052563872,
				"element": "H" 
			},
			{
				"x": 0.1078386102,
				"y": 3.5116358047,
				"z": -1.324822415,
				"element": "H" 
			}
		],
		 "valence_orbital": [ 
			{
				"type": "occ",
				"energy": -0.3577,
				"method": "rhf"
			},
			{
				"type": "occ",
				"energy": -0.33312,
				"method": "rhf"
			},
			{
				"type": "occ",
				"energy": -0.3151,
				"method": "rhf"
			},
			{
				"type": "occ",
				"energy": -0.2519,
				"method": "rhf"
			},
			{
				"type": "occ",
				"energy": -0.24113,
				"method": "rhf"
			},
			{
				"type": "unocc",
				"energy": -0.05086,
				"method": "rhf"
			},
			{
				"type": "unocc",
				"energy": -0.00279,
				"method": "rhf"
			},
			{
				"type": "unocc",
				"energy": 0.03508,
				"method": "rhf"
			},
			{
				"type": "unocc",
				"energy": 0.04939,
				"method": "rhf"
			},
			{
				"type": "unocc",
				"energy": 0.0633,
				"method": "rhf"
			}
		],
		"cosmo_sigma_profile": { 
			"-0.025": 0.0,
			"-0.024": 0.0,
			"-0.023": 0.0,
			"-0.022": 0.0,
			"-0.021": 0.0,
			"-0.02": 0.0,
			"-0.019": 0.342747915709,
			"-0.018": 2.49753921734,
			"-0.017": 2.66885196758,
			"-0.016": 2.13931773996,
			"-0.015": 2.4088642176,
			"-0.014": 1.34115342756,
			"-0.013": 0.517975806596,
			"-0.012": 2.67162985368,
			"-0.011": 2.79447135713,
			"-0.01": 2.99351003271,
			"-0.009": 2.62915652045,
			"-0.008": 3.52364125818,
			"-0.007": 5.22415050173,
			"-0.006": 5.262397908,
			"-0.005": 4.54021870785,
			"-0.004": 5.65399432572,
			"-0.003": 4.81896648901,
			"-0.002": 6.4617168214,
			"-0.001": 9.19416487635,
			"0.0": 8.25689029163,
			"0.001": 11.1364211491,
			"0.002": 21.1057897101,
			"0.003": 11.3854248698,
			"0.004": 5.12812805328,
			"0.005": 5.49868783068,
			"0.006": 5.0121056231,
			"0.007": 5.03702709786,
			"0.008": 6.70982621251,
			"0.009": 6.37988534759,
			"0.01": 6.7512974052,
			"0.011": 4.7589609084,
			"0.012": 2.6252680749,
			"0.013": 1.37584997962,
			"0.014": 0.0016859617369,
			"0.015": 0.0,
			"0.016": 0.0,
			"0.017": 0.0,
			"0.018": 0.0,
			"0.019": 0.0,
			"0.02": 0.0,
			"0.021": 0.0,
			"0.022": 0.0,
			"0.023": 0.0,
			"0.024": 0.0,
			"0.025": 0.0
		}
	}
}
