{
	 "smiles": "CN1C=NC2=C1C=CC(=C2)C(O)=O", 
	 "Tm": 587.15, 
	 "num_atms": 21, 
	 "gaussian": { 
		 "optdone": 1, 
		 "sigma_profile": "yes", 
		 "theory": "DFT", 
		 "functional": "B3LYP", 
		 "basiset": "6-31G**", 
		 "properties": { 
			 "R2extent": 3195.0792, 
			 "electric_dipole_moment_norm": 4.53985280488, 
			 "electric_quadrupole_moment_norm": 15.2115082523, 
			 "total_energy": -607.757846041, 
			 "HOMO_LUMO_gap": 0.19559, 
			 "cosmo_polarized_energy": -16.44, 
			 "cosmo_cavitation_energy": 25.74, 
			 "cosmo_dispersion_energy": -19.05, 
			 "cosmo_repulsion_energy": 1.48, 
			 "cosmo_total_nonelectrostatic_energy": 8.16, 
			 "SMD_solvation_energy": 4.05 
		},
		"coords": [
			{
				"x": 1.9387467522,
				"y": 2.3063948147,
				"z": 1.5019275392,
				"element": "C" 
			},
			{
				"x": 0.6308521526,
				"y": 2.0255957555,
				"z": 0.941794886,
				"element": "N" 
			},
			{
				"x": -0.2006286683,
				"y": 2.9087361691,
				"z": 0.2797456643,
				"element": "C" 
			},
			{
				"x": -1.3285089095,
				"y": 2.3874845575,
				"z": -0.1229616349,
				"element": "N" 
			},
			{
				"x": -1.2627013737,
				"y": 1.0627312445,
				"z": 0.2909164546,
				"element": "C" 
			},
			{
				"x": -0.0375566078,
				"y": 0.817522422,
				"z": 0.9621476477,
				"element": "C" 
			},
			{
				"x": 0.2959279489,
				"y": -0.436358356,
				"z": 1.4868481155,
				"element": "C" 
			},
			{
				"x": -0.6365397602,
				"y": -1.4499146454,
				"z": 1.3217124878,
				"element": "C" 
			},
			{
				"x": -1.8654280832,
				"y": -1.2258237993,
				"z": 0.6546642178,
				"element": "C" 
			},
			{
				"x": -2.1896962322,
				"y": 0.0307191976,
				"z": 0.1337229013,
				"element": "C" 
			},
			{
				"x": -2.7888269599,
				"y": -2.3806687637,
				"z": 0.5345145773,
				"element": "C" 
			},
			{
				"x": -3.9416684158,
				"y": -2.0798459768,
				"z": -0.118244392,
				"element": "O" 
			},
			{
				"x": -2.571155824,
				"y": -3.498684252,
				"z": 0.9630307481,
				"element": "O" 
			},
			{
				"x": 1.9465985048,
				"y": 2.1268372042,
				"z": 2.5819149837,
				"element": "H" 
			},
			{
				"x": 2.7054618647,
				"y": 1.6807368991,
				"z": 1.0335549798,
				"element": "H" 
			},
			{
				"x": 2.1850371365,
				"y": 3.3543057675,
				"z": 1.3207190243,
				"element": "H" 
			},
			{
				"x": 0.1005152176,
				"y": 3.9388969503,
				"z": 0.1306001364,
				"element": "H" 
			},
			{
				"x": 1.2356896559,
				"y": -0.6163797437,
				"z": 1.9994257208,
				"element": "H" 
			},
			{
				"x": -0.4453158617,
				"y": -2.4468962974,
				"z": 1.7027020634,
				"element": "H" 
			},
			{
				"x": -3.1298376139,
				"y": 0.2017123214,
				"z": -0.3764798805,
				"element": "H" 
			},
			{
				"x": -4.4539649232,
				"y": -2.9045014692,
				"z": -0.1322562406,
				"element": "H" 
			}
		],
		 "valence_orbital": [ 
			{
				"type": "occ",
				"energy": -0.30504,
				"method": "rhf"
			},
			{
				"type": "occ",
				"energy": -0.27776,
				"method": "rhf"
			},
			{
				"type": "occ",
				"energy": -0.26819,
				"method": "rhf"
			},
			{
				"type": "occ",
				"energy": -0.23756,
				"method": "rhf"
			},
			{
				"type": "occ",
				"energy": -0.23261,
				"method": "rhf"
			},
			{
				"type": "unocc",
				"energy": -0.03702,
				"method": "rhf"
			},
			{
				"type": "unocc",
				"energy": -0.01702,
				"method": "rhf"
			},
			{
				"type": "unocc",
				"energy": 0.04594,
				"method": "rhf"
			},
			{
				"type": "unocc",
				"energy": 0.0745,
				"method": "rhf"
			},
			{
				"type": "unocc",
				"energy": 0.07743,
				"method": "rhf"
			}
		],
		"cosmo_sigma_profile": { 
			"-0.025": 0.0,
			"-0.024": 0.0,
			"-0.023": 0.0,
			"-0.022": 0.0,
			"-0.021": 0.0,
			"-0.02": 0.0,
			"-0.019": 0.0,
			"-0.018": 0.384944148724,
			"-0.017": 1.07529577664,
			"-0.016": 0.846561826939,
			"-0.015": 0.772499777854,
			"-0.014": 0.698523747923,
			"-0.013": 0.790429650667,
			"-0.012": 0.539192140221,
			"-0.011": 0.659852557362,
			"-0.01": 3.10320163979,
			"-0.009": 3.67306497947,
			"-0.008": 3.29068262419,
			"-0.007": 7.45206703666,
			"-0.006": 14.9876494786,
			"-0.005": 13.47434423,
			"-0.004": 15.3672532847,
			"-0.003": 12.5621209248,
			"-0.002": 9.19905411094,
			"-0.001": 11.3416825233,
			"0.0": 11.663602305,
			"0.001": 11.794147341,
			"0.002": 14.2970245365,
			"0.003": 17.845468321,
			"0.004": 10.4054835592,
			"0.005": 4.37912973494,
			"0.006": 5.40593396309,
			"0.007": 4.11309167851,
			"0.008": 4.77861060435,
			"0.009": 2.12541130795,
			"0.01": 3.21579437414,
			"0.011": 3.93071197058,
			"0.012": 6.7710566151,
			"0.013": 1.12856826838,
			"0.014": 1.24029234484,
			"0.015": 1.10043016677,
			"0.016": 1.06715199101,
			"0.017": 0.673190749421,
			"0.018": 0.0572681294798,
			"0.019": 0.0,
			"0.02": 0.0,
			"0.021": 0.0,
			"0.022": 0.0,
			"0.023": 0.0,
			"0.024": 0.0,
			"0.025": 0.0
		}
	}
}
