{
	 "smiles": "OC(CC1=NC2=C(C=CC=C2)C=C1)C1=CC(=C(C=C1)C(O)CC1=NC2=C(C=CC=C2)C=C1)[N+]([O-])=O", 
	 "Tm": 445.15, 
	 "num_atms": 58, 
	 "gaussian": { 
		 "optdone": 1, 
		 "sigma_profile": "yes", 
		 "theory": "DFT", 
		 "functional": "B3LYP", 
		 "basiset": "6-31G**", 
		 "properties": { 
			 "R2extent": 15431.7362, 
			 "electric_dipole_moment_norm": 5.52014428253, 
			 "electric_quadrupole_moment_norm": 13.2331184378, 
			 "total_energy": -1545.90528001, 
			 "HOMO_LUMO_gap": 0.14778, 
			 "cosmo_polarized_energy": -23.63, 
			 "cosmo_cavitation_energy": 62.17, 
			 "cosmo_dispersion_energy": -38.49, 
			 "cosmo_repulsion_energy": 2.8, 
			 "cosmo_total_nonelectrostatic_energy": 26.48, 
			 "SMD_solvation_energy": 9.27 
		},
		"coords": [
			{
				"x": 4.7978174404,
				"y": -0.2854818166,
				"z": -3.012068976,
				"element": "O" 
			},
			{
				"x": 3.509506722,
				"y": 0.172255686,
				"z": -2.5892384478,
				"element": "C" 
			},
			{
				"x": 3.5067976153,
				"y": 1.7123502352,
				"z": -2.4591235622,
				"element": "C" 
			},
			{
				"x": 2.1277144464,
				"y": 2.3158353484,
				"z": -2.3017881291,
				"element": "C" 
			},
			{
				"x": 1.7194663991,
				"y": 2.5760721894,
				"z": -1.0730174712,
				"element": "N" 
			},
			{
				"x": 0.4620388396,
				"y": 3.0683004525,
				"z": -0.8820334119,
				"element": "C" 
			},
			{
				"x": -0.4274531216,
				"y": 3.3393656951,
				"z": -1.9693195419,
				"element": "C" 
			},
			{
				"x": -1.7211227999,
				"y": 3.8547120163,
				"z": -1.6945627799,
				"element": "C" 
			},
			{
				"x": -2.118060591,
				"y": 4.0821109943,
				"z": -0.3948769193,
				"element": "C" 
			},
			{
				"x": -1.2399385292,
				"y": 3.8010246671,
				"z": 0.6830241335,
				"element": "C" 
			},
			{
				"x": 0.0243508957,
				"y": 3.3065917649,
				"z": 0.4482463258,
				"element": "C" 
			},
			{
				"x": 0.0484648924,
				"y": 3.0651053341,
				"z": -3.2772023859,
				"element": "C" 
			},
			{
				"x": 1.3119730655,
				"y": 2.5530935298,
				"z": -3.4457854725,
				"element": "C" 
			},
			{
				"x": 3.0442891867,
				"y": -0.6126022321,
				"z": -1.3676333682,
				"element": "C" 
			},
			{
				"x": 2.9913251715,
				"y": -0.0863497043,
				"z": -0.0784527831,
				"element": "C" 
			},
			{
				"x": 2.606526725,
				"y": -0.8997033526,
				"z": 0.9916182455,
				"element": "C" 
			},
			{
				"x": 2.2021392321,
				"y": -2.237011259,
				"z": 0.8398867413,
				"element": "C" 
			},
			{
				"x": 2.2858474217,
				"y": -2.7445576336,
				"z": -0.4636575733,
				"element": "C" 
			},
			{
				"x": 2.7062609771,
				"y": -1.9642865364,
				"z": -1.5347542879,
				"element": "C" 
			},
			{
				"x": 1.7035528255,
				"y": -3.0953957371,
				"z": 2.0065338789,
				"element": "C" 
			},
			{
				"x": 2.8024686507,
				"y": -3.736785982,
				"z": 2.6466384067,
				"element": "O" 
			},
			{
				"x": 0.722092669,
				"y": -4.2025215927,
				"z": 1.6214498846,
				"element": "C" 
			},
			{
				"x": -0.5966452749,
				"y": -3.7179888451,
				"z": 1.0552941498,
				"element": "C" 
			},
			{
				"x": -0.815367874,
				"y": -2.4173874831,
				"z": 1.0185742653,
				"element": "N" 
			},
			{
				"x": -1.9994831442,
				"y": -1.957389408,
				"z": 0.5152780374,
				"element": "C" 
			},
			{
				"x": -3.0207843192,
				"y": -2.836284698,
				"z": 0.036827721,
				"element": "C" 
			},
			{
				"x": -4.2248896109,
				"y": -2.2879894612,
				"z": -0.4750255368,
				"element": "C" 
			},
			{
				"x": -4.4057366181,
				"y": -0.922595887,
				"z": -0.5175895987,
				"element": "C" 
			},
			{
				"x": -3.3908091066,
				"y": -0.0514433176,
				"z": -0.0503240267,
				"element": "C" 
			},
			{
				"x": -2.2135178863,
				"y": -0.5555956707,
				"z": 0.4580159792,
				"element": "C" 
			},
			{
				"x": -2.7554659112,
				"y": -4.2299446283,
				"z": 0.0992191964,
				"element": "C" 
			},
			{
				"x": -1.5557608735,
				"y": -4.6700235955,
				"z": 0.5982377201,
				"element": "C" 
			},
			{
				"x": 2.6542020409,
				"y": -0.2622750568,
				"z": 2.3157296195,
				"element": "N" 
			},
			{
				"x": 2.9380337606,
				"y": -0.9658160548,
				"z": 3.295981502,
				"element": "O" 
			},
			{
				"x": 2.4512365578,
				"y": 0.9467325258,
				"z": 2.3885000378,
				"element": "O" 
			},
			{
				"x": 5.3935706169,
				"y": -0.216204271,
				"z": -2.2530222529,
				"element": "H" 
			},
			{
				"x": 2.8485839619,
				"y": -0.0923998653,
				"z": -3.4235713476,
				"element": "H" 
			},
			{
				"x": 4.1287209228,
				"y": 2.0208640712,
				"z": -1.6127577161,
				"element": "H" 
			},
			{
				"x": 3.9836755506,
				"y": 2.0886295319,
				"z": -3.3699397221,
				"element": "H" 
			},
			{
				"x": -2.3918654367,
				"y": 4.0649980437,
				"z": -2.52396313,
				"element": "H" 
			},
			{
				"x": -3.1078363946,
				"y": 4.4799493379,
				"z": -0.190002173,
				"element": "H" 
			},
			{
				"x": -1.571270042,
				"y": 3.9799923458,
				"z": 1.7018155496,
				"element": "H" 
			},
			{
				"x": 0.7120541449,
				"y": 3.0724697328,
				"z": 1.2544847577,
				"element": "H" 
			},
			{
				"x": -0.5929695941,
				"y": 3.2624304895,
				"z": -4.1327227221,
				"element": "H" 
			},
			{
				"x": 1.6985678841,
				"y": 2.3350475755,
				"z": -4.4370366994,
				"element": "H" 
			},
			{
				"x": 3.1987844763,
				"y": 0.9563419123,
				"z": 0.1213644313,
				"element": "H" 
			},
			{
				"x": 1.9936004811,
				"y": -3.7717414169,
				"z": -0.6498703995,
				"element": "H" 
			},
			{
				"x": 2.7626532406,
				"y": -2.4042300741,
				"z": -2.526932916,
				"element": "H" 
			},
			{
				"x": 1.1806893054,
				"y": -2.4353959869,
				"z": 2.7047051697,
				"element": "H" 
			},
			{
				"x": 3.2826073577,
				"y": -3.0218980998,
				"z": 3.0916087565,
				"element": "H" 
			},
			{
				"x": 0.5349969536,
				"y": -4.7754667122,
				"z": 2.5385590616,
				"element": "H" 
			},
			{
				"x": 1.1909854872,
				"y": -4.9174438752,
				"z": 0.9340845419,
				"element": "H" 
			},
			{
				"x": -4.9991258388,
				"y": -2.9612003738,
				"z": -0.8349447996,
				"element": "H" 
			},
			{
				"x": -5.3287849772,
				"y": -0.508500033,
				"z": -0.91291518,
				"element": "H" 
			},
			{
				"x": -3.5394691598,
				"y": 1.0233119046,
				"z": -0.0994857432,
				"element": "H" 
			},
			{
				"x": -1.4228717119,
				"y": 0.0955494597,
				"z": 0.8162890136,
				"element": "H" 
			},
			{
				"x": -3.5057641192,
				"y": -4.933448492,
				"z": -0.2538392173,
				"element": "H" 
			},
			{
				"x": -1.3270029828,
				"y": -5.730475691,
				"z": 0.6529911645,
				"element": "H" 
			}
		],
		 "valence_orbital": [ 
			{
				"type": "occ",
				"energy": -0.24953,
				"method": "rhf"
			},
			{
				"type": "occ",
				"energy": -0.24608,
				"method": "rhf"
			},
			{
				"type": "occ",
				"energy": -0.24535,
				"method": "rhf"
			},
			{
				"type": "occ",
				"energy": -0.23354,
				"method": "rhf"
			},
			{
				"type": "occ",
				"energy": -0.23084,
				"method": "rhf"
			},
			{
				"type": "unocc",
				"energy": -0.08306,
				"method": "rhf"
			},
			{
				"type": "unocc",
				"energy": -0.05581,
				"method": "rhf"
			},
			{
				"type": "unocc",
				"energy": -0.05041,
				"method": "rhf"
			},
			{
				"type": "unocc",
				"energy": -0.02309,
				"method": "rhf"
			},
			{
				"type": "unocc",
				"energy": -0.0176,
				"method": "rhf"
			}
		],
		"cosmo_sigma_profile": { 
			"-0.025": 0.0,
			"-0.024": 0.0,
			"-0.023": 0.0,
			"-0.022": 0.0,
			"-0.021": 0.0,
			"-0.02": 0.0,
			"-0.019": 0.0,
			"-0.018": 0.0,
			"-0.017": 0.0,
			"-0.016": 0.136626599773,
			"-0.015": 1.13252336177,
			"-0.014": 0.636247347308,
			"-0.013": 1.04338584397,
			"-0.012": 1.09054628031,
			"-0.011": 1.03256172392,
			"-0.01": 1.43521795683,
			"-0.009": 1.7559408601,
			"-0.008": 2.3623260993,
			"-0.007": 15.6315473741,
			"-0.006": 34.0088246863,
			"-0.005": 36.6531647464,
			"-0.004": 38.9154348926,
			"-0.003": 32.6119199801,
			"-0.002": 28.5401838583,
			"-0.001": 31.8489143901,
			"0.0": 34.1515661814,
			"0.001": 40.339138395,
			"0.002": 47.0771829934,
			"0.003": 44.2389697439,
			"0.004": 28.1477805214,
			"0.005": 18.528249368,
			"0.006": 11.0572430953,
			"0.007": 9.6105565789,
			"0.008": 9.2762709722,
			"0.009": 7.87902311676,
			"0.01": 4.75124848019,
			"0.011": 3.27985014745,
			"0.012": 3.61482449981,
			"0.013": 3.10394541925,
			"0.014": 2.38416988183,
			"0.015": 0.0,
			"0.016": 0.0,
			"0.017": 0.0,
			"0.018": 0.0,
			"0.019": 0.0,
			"0.02": 0.0,
			"0.021": 0.0,
			"0.022": 0.0,
			"0.023": 0.0,
			"0.024": 0.0,
			"0.025": 0.0
		}
	}
}
