{
	 "smiles": "OC(=O)C1CCCCN1S(=O)(=O)C1=CC=C(C=C1)[N+]([O-])=O", 
	 "Tm": 435.15, 
	 "num_atms": 35, 
	 "gaussian": { 
		 "optdone": 1, 
		 "sigma_profile": "yes", 
		 "theory": "DFT", 
		 "functional": "B3LYP", 
		 "basiset": "6-31G**", 
		 "properties": { 
			 "R2extent": 7555.7693, 
			 "electric_dipole_moment_norm": 3.8600403845, 
			 "electric_quadrupole_moment_norm": 17.6038119128, 
			 "total_energy": -1424.58612222, 
			 "HOMO_LUMO_gap": 0.15277, 
			 "cosmo_polarized_energy": -19.66, 
			 "cosmo_cavitation_energy": 39.4, 
			 "cosmo_dispersion_energy": -27.97, 
			 "cosmo_repulsion_energy": 2.08, 
			 "cosmo_total_nonelectrostatic_energy": 13.52, 
			 "SMD_solvation_energy": 8.68 
		},
		"coords": [
			{
				"x": 2.5600077746,
				"y": -1.0178387658,
				"z": 0.8429299735,
				"element": "O" 
			},
			{
				"x": 3.0629689805,
				"y": -1.459017138,
				"z": -0.3333160389,
				"element": "C" 
			},
			{
				"x": 4.2107846878,
				"y": -1.8282830517,
				"z": -0.448164347,
				"element": "O" 
			},
			{
				"x": 2.0390202001,
				"y": -1.5116501308,
				"z": -1.4725405183,
				"element": "C" 
			},
			{
				"x": 2.7318310187,
				"y": -1.3692486888,
				"z": -2.8369518364,
				"element": "C" 
			},
			{
				"x": 3.3369567135,
				"y": 0.0405191695,
				"z": -3.0284008964,
				"element": "C" 
			},
			{
				"x": 2.556917769,
				"y": 1.1075540866,
				"z": -2.2276492061,
				"element": "C" 
			},
			{
				"x": 1.0785364493,
				"y": 0.7407122562,
				"z": -2.0928873988,
				"element": "C" 
			},
			{
				"x": 0.9553948751,
				"y": -0.5202339218,
				"z": -1.3194113272,
				"element": "N" 
			},
			{
				"x": -0.6190074573,
				"y": -1.110874602,
				"z": -1.1664373769,
				"element": "S" 
			},
			{
				"x": -1.4041190987,
				"y": -0.8155022119,
				"z": -2.3720046746,
				"element": "O" 
			},
			{
				"x": -0.5089905302,
				"y": -2.4852899235,
				"z": -0.6661722101,
				"element": "O" 
			},
			{
				"x": -1.2874184967,
				"y": -0.0749400217,
				"z": 0.1489225129,
				"element": "C" 
			},
			{
				"x": -2.4924798915,
				"y": 0.5926020639,
				"z": -0.075267066,
				"element": "C" 
			},
			{
				"x": -3.0532722162,
				"y": 1.3476699169,
				"z": 0.9538164241,
				"element": "C" 
			},
			{
				"x": -2.3865121922,
				"y": 1.4080341522,
				"z": 2.1743680725,
				"element": "C" 
			},
			{
				"x": -1.1820155735,
				"y": 0.7438530036,
				"z": 2.4065060076,
				"element": "C" 
			},
			{
				"x": -0.6254221315,
				"y": -0.0113015082,
				"z": 1.3789471528,
				"element": "C" 
			},
			{
				"x": -2.9743660403,
				"y": 2.2111450939,
				"z": 3.2647962469,
				"element": "N" 
			},
			{
				"x": -4.035225672,
				"y": 2.7885092157,
				"z": 3.0363395728,
				"element": "O" 
			},
			{
				"x": -2.3642823048,
				"y": 2.2519907063,
				"z": 4.3314754647,
				"element": "O" 
			},
			{
				"x": 3.2874354517,
				"y": -1.0962219396,
				"z": 1.483864932,
				"element": "H" 
			},
			{
				"x": 1.5895999868,
				"y": -2.5073583906,
				"z": -1.3905353626,
				"element": "H" 
			},
			{
				"x": 1.976385073,
				"y": -1.5700388263,
				"z": -3.6035249823,
				"element": "H" 
			},
			{
				"x": 3.5017553819,
				"y": -2.1381618987,
				"z": -2.9268199994,
				"element": "H" 
			},
			{
				"x": 4.3837625345,
				"y": 0.0426844862,
				"z": -2.7116005986,
				"element": "H" 
			},
			{
				"x": 3.3278976635,
				"y": 0.2906890113,
				"z": -4.0944977444,
				"element": "H" 
			},
			{
				"x": 2.6343898609,
				"y": 2.0877555565,
				"z": -2.7086817546,
				"element": "H" 
			},
			{
				"x": 2.981062955,
				"y": 1.2221516103,
				"z": -1.2230998279,
				"element": "H" 
			},
			{
				"x": 0.6166599596,
				"y": 0.6353519094,
				"z": -3.0826985162,
				"element": "H" 
			},
			{
				"x": 0.5340826008,
				"y": 1.5240186358,
				"z": -1.555292661,
				"element": "H" 
			},
			{
				"x": -2.9743491679,
				"y": 0.5180274204,
				"z": -1.0433089828,
				"element": "H" 
			},
			{
				"x": -3.9852820699,
				"y": 1.8833899675,
				"z": 0.8257348483,
				"element": "H" 
			},
			{
				"x": -0.7058366338,
				"y": 0.8278335919,
				"z": 3.3751357801,
				"element": "H" 
			},
			{
				"x": 0.3171295401,
				"y": -0.528630835,
				"z": 1.5168263382,
				"element": "H" 
			}
		],
		 "valence_orbital": [ 
			{
				"type": "occ",
				"energy": -0.30843,
				"method": "rhf"
			},
			{
				"type": "occ",
				"energy": -0.30291,
				"method": "rhf"
			},
			{
				"type": "occ",
				"energy": -0.29591,
				"method": "rhf"
			},
			{
				"type": "occ",
				"energy": -0.29324,
				"method": "rhf"
			},
			{
				"type": "occ",
				"energy": -0.25885,
				"method": "rhf"
			},
			{
				"type": "unocc",
				"energy": -0.10608,
				"method": "rhf"
			},
			{
				"type": "unocc",
				"energy": -0.04342,
				"method": "rhf"
			},
			{
				"type": "unocc",
				"energy": -0.02863,
				"method": "rhf"
			},
			{
				"type": "unocc",
				"energy": -0.01257,
				"method": "rhf"
			},
			{
				"type": "unocc",
				"energy": 0.04591,
				"method": "rhf"
			}
		],
		"cosmo_sigma_profile": { 
			"-0.025": 0.0,
			"-0.024": 0.0,
			"-0.023": 0.0,
			"-0.022": 0.0,
			"-0.021": 0.0,
			"-0.02": 0.0,
			"-0.019": 0.179011710848,
			"-0.018": 0.791843957868,
			"-0.017": 1.08769244907,
			"-0.016": 1.15322109079,
			"-0.015": 0.648802738425,
			"-0.014": 0.413517766077,
			"-0.013": 0.481069388367,
			"-0.012": 1.05738549322,
			"-0.011": 1.01211478452,
			"-0.01": 0.580170689432,
			"-0.009": 1.6582675958,
			"-0.008": 6.65785130506,
			"-0.007": 8.39065126977,
			"-0.006": 10.625852828,
			"-0.005": 17.2083562327,
			"-0.004": 28.9447473887,
			"-0.003": 34.7389062818,
			"-0.002": 30.6738583963,
			"-0.001": 32.1145427128,
			"0.0": 23.0158989406,
			"0.001": 10.5445831651,
			"0.002": 8.85942845644,
			"0.003": 8.74299164672,
			"0.004": 8.01797660798,
			"0.005": 7.62966384146,
			"0.006": 9.79342679636,
			"0.007": 14.5480590084,
			"0.008": 10.4585442234,
			"0.009": 9.16105698418,
			"0.01": 10.8037826675,
			"0.011": 10.3809511639,
			"0.012": 2.09422057051,
			"0.013": 0.0,
			"0.014": 0.0,
			"0.015": 0.0,
			"0.016": 0.0,
			"0.017": 0.0,
			"0.018": 0.0,
			"0.019": 0.0,
			"0.02": 0.0,
			"0.021": 0.0,
			"0.022": 0.0,
			"0.023": 0.0,
			"0.024": 0.0,
			"0.025": 0.0
		}
	}
}
