{
	 "smiles": "CSC1=C(C=CC(Cl)=N1)C(O)=O", 
	 "Tm": 463.15, 
	 "num_atms": 18, 
	 "gaussian": { 
		 "optdone": 1, 
		 "sigma_profile": "yes", 
		 "theory": "DFT", 
		 "functional": "B3LYP", 
		 "basiset": "6-31G**", 
		 "properties": { 
			 "R2extent": 4129.7765, 
			 "electric_dipole_moment_norm": 3.5400601831, 
			 "electric_quadrupole_moment_norm": 12.7918654726, 
			 "total_energy": -1333.94724403, 
			 "HOMO_LUMO_gap": 0.18193, 
			 "cosmo_polarized_energy": -11.37, 
			 "cosmo_cavitation_energy": 25.94, 
			 "cosmo_dispersion_energy": -19.78, 
			 "cosmo_repulsion_energy": 1.54, 
			 "cosmo_total_nonelectrostatic_energy": 7.69, 
			 "SMD_solvation_energy": 4.78 
		},
		"coords": [
			{
				"x": -1.0687312741,
				"y": 2.6583946362,
				"z": 1.0560983847,
				"element": "C" 
			},
			{
				"x": 0.3037318219,
				"y": 1.6438384877,
				"z": 0.4124776745,
				"element": "S" 
			},
			{
				"x": 0.2791900596,
				"y": 0.2470918139,
				"z": 1.5332542712,
				"element": "C" 
			},
			{
				"x": 0.9251911797,
				"y": -0.9693550665,
				"z": 1.2154012544,
				"element": "C" 
			},
			{
				"x": 0.940049314,
				"y": -1.9521164341,
				"z": 2.2159571622,
				"element": "C" 
			},
			{
				"x": 0.304571467,
				"y": -1.7464097188,
				"z": 3.4321628782,
				"element": "C" 
			},
			{
				"x": -0.3375588857,
				"y": -0.5186649056,
				"z": 3.5986533464,
				"element": "C" 
			},
			{
				"x": -1.2009996524,
				"y": -0.2016398051,
				"z": 5.0939655143,
				"element": "Cl" 
			},
			{
				"x": -0.341323725,
				"y": 0.4484079839,
				"z": 2.7002179533,
				"element": "N" 
			},
			{
				"x": 1.6036564919,
				"y": -1.3542967095,
				"z": -0.0773018778,
				"element": "C" 
			},
			{
				"x": 1.3065086917,
				"y": -0.6676706522,
				"z": -1.1971697662,
				"element": "O" 
			},
			{
				"x": 2.3772488043,
				"y": -2.2842319563,
				"z": -0.1218568389,
				"element": "O" 
			},
			{
				"x": -1.0993965151,
				"y": 3.5421347426,
				"z": 0.4158274872,
				"element": "H" 
			},
			{
				"x": -2.0130359664,
				"y": 2.116826574,
				"z": 0.9949840008,
				"element": "H" 
			},
			{
				"x": -0.8672563882,
				"y": 2.9413599048,
				"z": 2.0879671278,
				"element": "H" 
			},
			{
				"x": 1.4572287832,
				"y": -2.8808847795,
				"z": 2.0004905575,
				"element": "H" 
			},
			{
				"x": 0.2945500726,
				"y": -2.4962737897,
				"z": 4.2129800623,
				"element": "H" 
			},
			{
				"x": 0.6290757209,
				"y": 0.0170896744,
				"z": -1.0399091918,
				"element": "H" 
			}
		],
		 "valence_orbital": [ 
			{
				"type": "occ",
				"energy": -0.31628,
				"method": "rhf"
			},
			{
				"type": "occ",
				"energy": -0.30704,
				"method": "rhf"
			},
			{
				"type": "occ",
				"energy": -0.2951,
				"method": "rhf"
			},
			{
				"type": "occ",
				"energy": -0.278,
				"method": "rhf"
			},
			{
				"type": "occ",
				"energy": -0.25277,
				"method": "rhf"
			},
			{
				"type": "unocc",
				"energy": -0.07084,
				"method": "rhf"
			},
			{
				"type": "unocc",
				"energy": -0.05349,
				"method": "rhf"
			},
			{
				"type": "unocc",
				"energy": 0.00324,
				"method": "rhf"
			},
			{
				"type": "unocc",
				"energy": 0.02351,
				"method": "rhf"
			},
			{
				"type": "unocc",
				"energy": 0.03024,
				"method": "rhf"
			}
		],
		"cosmo_sigma_profile": { 
			"-0.025": 0.0,
			"-0.024": 0.0,
			"-0.023": 0.0,
			"-0.022": 0.0,
			"-0.021": 0.0,
			"-0.02": 0.0,
			"-0.019": 0.0,
			"-0.018": 0.0,
			"-0.017": 0.0,
			"-0.016": 0.0,
			"-0.015": 0.0,
			"-0.014": 0.0,
			"-0.013": 0.00245003346829,
			"-0.012": 0.489040907986,
			"-0.011": 1.10138413209,
			"-0.01": 0.783381049179,
			"-0.009": 2.60587582825,
			"-0.008": 5.88593410405,
			"-0.007": 7.89952194977,
			"-0.006": 9.95371036634,
			"-0.005": 10.6662405972,
			"-0.004": 12.7512896782,
			"-0.003": 16.5667378498,
			"-0.002": 22.4910309966,
			"-0.001": 19.9732394378,
			"0.0": 16.9668894801,
			"0.001": 10.6998839418,
			"0.002": 11.5681998255,
			"0.003": 12.7862382565,
			"0.004": 12.2368654909,
			"0.005": 6.355097884,
			"0.006": 5.17524269428,
			"0.007": 4.6567570221,
			"0.008": 3.54341341264,
			"0.009": 3.55446440558,
			"0.01": 4.97781922804,
			"0.011": 4.99436356884,
			"0.012": 3.11936468766,
			"0.013": 0.788841233237,
			"0.014": 0.0,
			"0.015": 0.0,
			"0.016": 0.0,
			"0.017": 0.0,
			"0.018": 0.0,
			"0.019": 0.0,
			"0.02": 0.0,
			"0.021": 0.0,
			"0.022": 0.0,
			"0.023": 0.0,
			"0.024": 0.0,
			"0.025": 0.0
		}
	}
}
