{
	 "smiles": "CC(N1C=CC=N1)C(=O)NC1=CC(N)=CC=C1", 
	 "Tm": 409.15, 
	 "num_atms": 31, 
	 "gaussian": { 
		 "optdone": 1, 
		 "sigma_profile": "yes", 
		 "theory": "DFT", 
		 "functional": "B3LYP", 
		 "basiset": "6-31G**", 
		 "properties": { 
			 "R2extent": 4654.6957, 
			 "electric_dipole_moment_norm": 2.50883978365, 
			 "electric_quadrupole_moment_norm": 9.92491018146, 
			 "total_energy": -759.94126105, 
			 "HOMO_LUMO_gap": 0.19045, 
			 "cosmo_polarized_energy": -15.05, 
			 "cosmo_cavitation_energy": 34.59, 
			 "cosmo_dispersion_energy": -23.98, 
			 "cosmo_repulsion_energy": 1.86, 
			 "cosmo_total_nonelectrostatic_energy": 12.47, 
			 "SMD_solvation_energy": 6.33 
		},
		"coords": [
			{
				"x": -1.3422481698,
				"y": 1.5165867472,
				"z": 1.8361172431,
				"element": "C" 
			},
			{
				"x": -0.8430563322,
				"y": 0.2506930218,
				"z": 1.1302939796,
				"element": "C" 
			},
			{
				"x": -1.7795986965,
				"y": -0.1959363198,
				"z": 0.0940444268,
				"element": "N" 
			},
			{
				"x": -3.0469780349,
				"y": -0.6649595588,
				"z": 0.2564140235,
				"element": "C" 
			},
			{
				"x": -3.5498234651,
				"y": -0.8991264695,
				"z": -1.0098096586,
				"element": "C" 
			},
			{
				"x": -2.5007339593,
				"y": -0.535734268,
				"z": -1.8798430962,
				"element": "C" 
			},
			{
				"x": -1.4266749308,
				"y": -0.1070600574,
				"z": -1.2135544519,
				"element": "N" 
			},
			{
				"x": -0.6539179048,
				"y": -0.8789041694,
				"z": 2.1617711946,
				"element": "C" 
			},
			{
				"x": -1.5366583989,
				"y": -1.1236519167,
				"z": 2.9778548392,
				"element": "O" 
			},
			{
				"x": 0.5292432468,
				"y": -1.5731810935,
				"z": 2.1845631684,
				"element": "N" 
			},
			{
				"x": 1.6562564567,
				"y": -1.5538347803,
				"z": 1.3173682825,
				"element": "C" 
			},
			{
				"x": 1.499374651,
				"y": -1.5020136408,
				"z": -0.0681458619,
				"element": "C" 
			},
			{
				"x": 2.6241270034,
				"y": -1.4614439396,
				"z": -0.9102214866,
				"element": "C" 
			},
			{
				"x": 2.443451268,
				"y": -1.4154158544,
				"z": -2.2890779268,
				"element": "N" 
			},
			{
				"x": 3.9063698521,
				"y": -1.5399911992,
				"z": -0.3396003389,
				"element": "C" 
			},
			{
				"x": 4.0467153646,
				"y": -1.6375008104,
				"z": 1.0429969046,
				"element": "C" 
			},
			{
				"x": 2.9357606787,
				"y": -1.6335625982,
				"z": 1.8852896476,
				"element": "C" 
			},
			{
				"x": -1.5442116367,
				"y": 2.2962664913,
				"z": 1.0972378028,
				"element": "H" 
			},
			{
				"x": -0.5817065865,
				"y": 1.8830234814,
				"z": 2.5326699814,
				"element": "H" 
			},
			{
				"x": -2.2498650794,
				"y": 1.3056592273,
				"z": 2.4048316997,
				"element": "H" 
			},
			{
				"x": 0.0835614168,
				"y": 0.4612912283,
				"z": 0.5991141313,
				"element": "H" 
			},
			{
				"x": -3.4610793168,
				"y": -0.809295246,
				"z": 1.2425737558,
				"element": "H" 
			},
			{
				"x": -4.5272328784,
				"y": -1.2813183538,
				"z": -1.263367748,
				"element": "H" 
			},
			{
				"x": -2.4790555368,
				"y": -0.5677443368,
				"z": -2.9612792513,
				"element": "H" 
			},
			{
				"x": 0.5780689116,
				"y": -2.2022660854,
				"z": 2.9779369013,
				"element": "H" 
			},
			{
				"x": 0.5111281059,
				"y": -1.4893043941,
				"z": -0.513316607,
				"element": "H" 
			},
			{
				"x": 3.2297771538,
				"y": -1.0713637695,
				"z": -2.8216339841,
				"element": "H" 
			},
			{
				"x": 1.5646385639,
				"y": -1.0158273289,
				"z": -2.5906065887,
				"element": "H" 
			},
			{
				"x": 4.784028567,
				"y": -1.5309347911,
				"z": -0.9803950301,
				"element": "H" 
			},
			{
				"x": 5.0423365615,
				"y": -1.6989431056,
				"z": 1.4731961531,
				"element": "H" 
			},
			{
				"x": 3.0521031252,
				"y": -1.6725061098,
				"z": 2.9638778948,
				"element": "H" 
			}
		],
		 "valence_orbital": [ 
			{
				"type": "occ",
				"energy": -0.26638,
				"method": "rhf"
			},
			{
				"type": "occ",
				"energy": -0.24565,
				"method": "rhf"
			},
			{
				"type": "occ",
				"energy": -0.24094,
				"method": "rhf"
			},
			{
				"type": "occ",
				"energy": -0.23164,
				"method": "rhf"
			},
			{
				"type": "occ",
				"energy": -0.20548,
				"method": "rhf"
			},
			{
				"type": "unocc",
				"energy": -0.01503,
				"method": "rhf"
			},
			{
				"type": "unocc",
				"energy": 0.00558,
				"method": "rhf"
			},
			{
				"type": "unocc",
				"energy": 0.01731,
				"method": "rhf"
			},
			{
				"type": "unocc",
				"energy": 0.03067,
				"method": "rhf"
			},
			{
				"type": "unocc",
				"energy": 0.07278,
				"method": "rhf"
			}
		],
		"cosmo_sigma_profile": { 
			"-0.025": 0.0,
			"-0.024": 0.0,
			"-0.023": 0.0,
			"-0.022": 0.0,
			"-0.021": 0.0,
			"-0.02": 0.0,
			"-0.019": 0.0,
			"-0.018": 0.0,
			"-0.017": 0.0,
			"-0.016": 0.0,
			"-0.015": 0.0886575045305,
			"-0.014": 0.91593320991,
			"-0.013": 1.33911157045,
			"-0.012": 2.37808737543,
			"-0.011": 2.81107555063,
			"-0.01": 2.82010437552,
			"-0.009": 4.25166983855,
			"-0.008": 3.77404951831,
			"-0.007": 6.8893025837,
			"-0.006": 11.9525880609,
			"-0.005": 18.3983617649,
			"-0.004": 20.2893035609,
			"-0.003": 21.2785089454,
			"-0.002": 19.1542185449,
			"-0.001": 20.7925699732,
			"0.0": 18.5646422537,
			"0.001": 15.6316881979,
			"0.002": 15.4526295093,
			"0.003": 14.3543177712,
			"0.004": 15.7502125724,
			"0.005": 16.9926338511,
			"0.006": 14.4896571309,
			"0.007": 4.11847436003,
			"0.008": 3.33066838312,
			"0.009": 3.05088646476,
			"0.01": 2.10300337913,
			"0.011": 3.28441607306,
			"0.012": 3.87946426436,
			"0.013": 5.0517308182,
			"0.014": 1.70852268963,
			"0.015": 0.0227741989297,
			"0.016": 0.0,
			"0.017": 0.0,
			"0.018": 0.0,
			"0.019": 0.0,
			"0.02": 0.0,
			"0.021": 0.0,
			"0.022": 0.0,
			"0.023": 0.0,
			"0.024": 0.0,
			"0.025": 0.0
		}
	}
}
