{
	 "smiles": "CC(O)C1=C(Cl)C=CC(Cl)=C1", 
	 "Tm": 335.15, 
	 "num_atms": 19, 
	 "gaussian": { 
		 "optdone": 1, 
		 "sigma_profile": "yes", 
		 "theory": "DFT", 
		 "functional": "B3LYP", 
		 "basiset": "6-31G**", 
		 "properties": { 
			 "R2extent": 3265.1889, 
			 "electric_dipole_moment_norm": 2.01024135118, 
			 "electric_quadrupole_moment_norm": 11.4924688457, 
			 "total_energy": -1305.27951018, 
			 "HOMO_LUMO_gap": 0.22036, 
			 "cosmo_polarized_energy": -7.44, 
			 "cosmo_cavitation_energy": 25.89, 
			 "cosmo_dispersion_energy": -19.2, 
			 "cosmo_repulsion_energy": 1.55, 
			 "cosmo_total_nonelectrostatic_energy": 8.25, 
			 "SMD_solvation_energy": 4.0 
		},
		"coords": [
			{
				"x": 0.8163172882,
				"y": 1.9407890866,
				"z": -0.0610788382,
				"element": "C" 
			},
			{
				"x": 0.5017032268,
				"y": 1.2484962404,
				"z": 1.2733633514,
				"element": "C" 
			},
			{
				"x": 1.6535434415,
				"y": 0.5810783004,
				"z": 1.7831242583,
				"element": "O" 
			},
			{
				"x": -0.5953449837,
				"y": 0.2085292679,
				"z": 1.117562877,
				"element": "C" 
			},
			{
				"x": -1.955653591,
				"y": 0.5439817795,
				"z": 1.0795127933,
				"element": "C" 
			},
			{
				"x": -2.4741810347,
				"y": 2.2215281547,
				"z": 1.2583005746,
				"element": "Cl" 
			},
			{
				"x": -2.9458833785,
				"y": -0.4227800474,
				"z": 0.9078985296,
				"element": "C" 
			},
			{
				"x": -2.5924639095,
				"y": -1.7628557877,
				"z": 0.7683264964,
				"element": "C" 
			},
			{
				"x": -1.242682183,
				"y": -2.1071746698,
				"z": 0.8073591353,
				"element": "C" 
			},
			{
				"x": -0.7786123242,
				"y": -3.7939966713,
				"z": 0.6385588488,
				"element": "Cl" 
			},
			{
				"x": -0.2543478909,
				"y": -1.1429592371,
				"z": 0.9805992657,
				"element": "C" 
			},
			{
				"x": -0.0642059893,
				"y": 2.4444861767,
				"z": -0.467764282,
				"element": "H" 
			},
			{
				"x": 1.1705271688,
				"y": 1.2050759507,
				"z": -0.7891018657,
				"element": "H" 
			},
			{
				"x": 1.5980003984,
				"y": 2.6974490943,
				"z": 0.0791716889,
				"element": "H" 
			},
			{
				"x": 0.1557048442,
				"y": 2.0046380273,
				"z": 1.9929112764,
				"element": "H" 
			},
			{
				"x": 2.3818442325,
				"y": 1.2144247679,
				"z": 1.781813816,
				"element": "H" 
			},
			{
				"x": -3.9884448575,
				"y": -0.1258145125,
				"z": 0.8872621664,
				"element": "H" 
			},
			{
				"x": -3.352893167,
				"y": -2.5239842336,
				"z": 0.6361793681,
				"element": "H" 
			},
			{
				"x": 0.790472709,
				"y": -1.422111687,
				"z": 1.0268005397,
				"element": "H" 
			}
		],
		 "valence_orbital": [ 
			{
				"type": "occ",
				"energy": -0.31598,
				"method": "rhf"
			},
			{
				"type": "occ",
				"energy": -0.31317,
				"method": "rhf"
			},
			{
				"type": "occ",
				"energy": -0.28387,
				"method": "rhf"
			},
			{
				"type": "occ",
				"energy": -0.26371,
				"method": "rhf"
			},
			{
				"type": "occ",
				"energy": -0.24211,
				"method": "rhf"
			},
			{
				"type": "unocc",
				"energy": -0.02175,
				"method": "rhf"
			},
			{
				"type": "unocc",
				"energy": -0.02029,
				"method": "rhf"
			},
			{
				"type": "unocc",
				"energy": 0.01839,
				"method": "rhf"
			},
			{
				"type": "unocc",
				"energy": 0.03693,
				"method": "rhf"
			},
			{
				"type": "unocc",
				"energy": 0.06641,
				"method": "rhf"
			}
		],
		"cosmo_sigma_profile": { 
			"-0.025": 0.0,
			"-0.024": 0.0,
			"-0.023": 0.0,
			"-0.022": 0.0,
			"-0.021": 0.0,
			"-0.02": 0.0,
			"-0.019": 0.0,
			"-0.018": 0.0,
			"-0.017": 0.0,
			"-0.016": 0.575075136068,
			"-0.015": 0.982399090702,
			"-0.014": 0.970146722701,
			"-0.013": 1.06418036697,
			"-0.012": 1.18500212406,
			"-0.011": 0.82829995399,
			"-0.01": 0.445936145629,
			"-0.009": 0.617726405474,
			"-0.008": 3.81432148459,
			"-0.007": 4.85970732254,
			"-0.006": 5.73646270174,
			"-0.005": 6.61239687626,
			"-0.004": 8.20799846349,
			"-0.003": 12.2261602927,
			"-0.002": 15.5857992667,
			"-0.001": 18.8997166224,
			"0.0": 22.529728892,
			"0.001": 23.2917117378,
			"0.002": 26.819041825,
			"0.003": 18.9463962628,
			"0.004": 17.7030206133,
			"0.005": 8.31753261141,
			"0.006": 1.66682617487,
			"0.007": 1.32359928523,
			"0.008": 1.93470714053,
			"0.009": 1.56405927091,
			"0.01": 0.95227315048,
			"0.011": 0.7506324388,
			"0.012": 0.906481033453,
			"0.013": 0.722354643109,
			"0.014": 0.0997726673627,
			"0.015": 0.0,
			"0.016": 0.0,
			"0.017": 0.0,
			"0.018": 0.0,
			"0.019": 0.0,
			"0.02": 0.0,
			"0.021": 0.0,
			"0.022": 0.0,
			"0.023": 0.0,
			"0.024": 0.0,
			"0.025": 0.0
		}
	}
}
