{
	 "smiles": "CCCCCCCCCCCCCCCCCCOC(C)=O", 
	 "Tm": 307.65, 
	 "num_atms": 62, 
	 "gaussian": { 
		 "optdone": 1, 
		 "sigma_profile": "yes", 
		 "theory": "DFT", 
		 "functional": "B3LYP", 
		 "basiset": "6-31G**", 
		 "properties": { 
			 "R2extent": 13082.1933, 
			 "electric_dipole_moment_norm": 1.89397358218, 
			 "electric_quadrupole_moment_norm": 14.6102216841, 
			 "total_energy": -936.745238221, 
			 "HOMO_LUMO_gap": 0.28264, 
			 "cosmo_polarized_energy": -7.13, 
			 "cosmo_cavitation_energy": 60.39, 
			 "cosmo_dispersion_energy": -37.3, 
			 "cosmo_repulsion_energy": 3.07, 
			 "cosmo_total_nonelectrostatic_energy": 26.16, 
			 "SMD_solvation_energy": 9.2 
		},
		"coords": [
			{
				"x": 4.6118398606,
				"y": 0.7863317991,
				"z": -3.282356466,
				"element": "C" 
			},
			{
				"x": 4.3462789645,
				"y": -0.5417362074,
				"z": -2.5654265399,
				"element": "C" 
			},
			{
				"x": 2.8635843575,
				"y": -0.9379755342,
				"z": -2.5699498214,
				"element": "C" 
			},
			{
				"x": 2.5587709877,
				"y": -2.3057021193,
				"z": -1.9353409076,
				"element": "C" 
			},
			{
				"x": 2.8661105446,
				"y": -2.4815970927,
				"z": -0.4349262442,
				"element": "C" 
			},
			{
				"x": 2.0295465593,
				"y": -1.6208247816,
				"z": 0.5378814046,
				"element": "C" 
			},
			{
				"x": 2.635180964,
				"y": -0.2528476825,
				"z": 0.8954538307,
				"element": "C" 
			},
			{
				"x": 1.8431275204,
				"y": 0.5336248824,
				"z": 1.9534083155,
				"element": "C" 
			},
			{
				"x": 0.4567281441,
				"y": 1.013300209,
				"z": 1.4973561214,
				"element": "C" 
			},
			{
				"x": -0.2481435605,
				"y": 1.8685441826,
				"z": 2.5604654094,
				"element": "C" 
			},
			{
				"x": -1.7060009901,
				"y": 2.2752789873,
				"z": 2.274891351,
				"element": "C" 
			},
			{
				"x": -1.9324854319,
				"y": 3.2689473264,
				"z": 1.114917564,
				"element": "C" 
			},
			{
				"x": -2.0348894331,
				"y": 2.7257324845,
				"z": -0.3261026763,
				"element": "C" 
			},
			{
				"x": -3.2739880432,
				"y": 1.85262171,
				"z": -0.6339865959,
				"element": "C" 
			},
			{
				"x": -3.0675474227,
				"y": 0.3347501569,
				"z": -0.505997813,
				"element": "C" 
			},
			{
				"x": -4.3272574105,
				"y": -0.4662629947,
				"z": -0.8638323362,
				"element": "C" 
			},
			{
				"x": -4.147186685,
				"y": -1.9933451006,
				"z": -0.8400461102,
				"element": "C" 
			},
			{
				"x": -3.8589747987,
				"y": -2.5877423667,
				"z": 0.5317364346,
				"element": "C" 
			},
			{
				"x": -4.9943227896,
				"y": -2.3097071553,
				"z": 1.3842425854,
				"element": "O" 
			},
			{
				"x": -4.8853205927,
				"y": -2.7208667543,
				"z": 2.6682855923,
				"element": "C" 
			},
			{
				"x": -6.1300127978,
				"y": -2.3741149612,
				"z": 3.451957151,
				"element": "C" 
			},
			{
				"x": -3.9112400346,
				"y": -3.2906271494,
				"z": 3.1098831968,
				"element": "O" 
			},
			{
				"x": 4.0656147532,
				"y": 1.609383817,
				"z": -2.8069790168,
				"element": "H" 
			},
			{
				"x": 4.2924768921,
				"y": 0.7425340014,
				"z": -4.3300649039,
				"element": "H" 
			},
			{
				"x": 5.6760167949,
				"y": 1.0441604764,
				"z": -3.269665557,
				"element": "H" 
			},
			{
				"x": 4.9321090533,
				"y": -1.3396139406,
				"z": -3.0427457063,
				"element": "H" 
			},
			{
				"x": 4.7121868936,
				"y": -0.473587459,
				"z": -1.5334868897,
				"element": "H" 
			},
			{
				"x": 2.2740196801,
				"y": -0.1537692513,
				"z": -2.0768147598,
				"element": "H" 
			},
			{
				"x": 2.5120525732,
				"y": -0.9593442127,
				"z": -3.6111123575,
				"element": "H" 
			},
			{
				"x": 3.1155896172,
				"y": -3.0741887605,
				"z": -2.4899229621,
				"element": "H" 
			},
			{
				"x": 1.4958037369,
				"y": -2.5341386007,
				"z": -2.0950832543,
				"element": "H" 
			},
			{
				"x": 3.9347087596,
				"y": -2.314305362,
				"z": -0.2445266439,
				"element": "H" 
			},
			{
				"x": 2.6900327581,
				"y": -3.5385447229,
				"z": -0.198352703,
				"element": "H" 
			},
			{
				"x": 1.8972754447,
				"y": -2.1783107284,
				"z": 1.4751838916,
				"element": "H" 
			},
			{
				"x": 1.0201103034,
				"y": -1.4924976392,
				"z": 0.1245967258,
				"element": "H" 
			},
			{
				"x": 3.6547293013,
				"y": -0.4157763264,
				"z": 1.2709897528,
				"element": "H" 
			},
			{
				"x": 2.7413368638,
				"y": 0.366276074,
				"z": -0.00433005,
				"element": "H" 
			},
			{
				"x": 1.7331609949,
				"y": -0.0835477018,
				"z": 2.8569319717,
				"element": "H" 
			},
			{
				"x": 2.4341426347,
				"y": 1.4089386311,
				"z": 2.2564753249,
				"element": "H" 
			},
			{
				"x": 0.5710941335,
				"y": 1.585432824,
				"z": 0.5676960179,
				"element": "H" 
			},
			{
				"x": -0.1757555823,
				"y": 0.1504107869,
				"z": 1.2512076628,
				"element": "H" 
			},
			{
				"x": -0.2332341595,
				"y": 1.3150886987,
				"z": 3.5098938289,
				"element": "H" 
			},
			{
				"x": 0.3441673471,
				"y": 2.7783229454,
				"z": 2.7372615612,
				"element": "H" 
			},
			{
				"x": -2.0900165603,
				"y": 2.7452396832,
				"z": 3.1896988658,
				"element": "H" 
			},
			{
				"x": -2.3187661482,
				"y": 1.3764640198,
				"z": 2.1327346404,
				"element": "H" 
			},
			{
				"x": -1.1323353146,
				"y": 4.0220653889,
				"z": 1.1464578884,
				"element": "H" 
			},
			{
				"x": -2.8611733576,
				"y": 3.8207874751,
				"z": 1.3155156471,
				"element": "H" 
			},
			{
				"x": -2.0600661748,
				"y": 3.600850923,
				"z": -0.9878955809,
				"element": "H" 
			},
			{
				"x": -1.126760047,
				"y": 2.1770421518,
				"z": -0.6017427749,
				"element": "H" 
			},
			{
				"x": -4.1098700139,
				"y": 2.1631499312,
				"z": 0.0090844193,
				"element": "H" 
			},
			{
				"x": -3.602519265,
				"y": 2.0565422461,
				"z": -1.6619285946,
				"element": "H" 
			},
			{
				"x": -2.2429542798,
				"y": 0.0306142577,
				"z": -1.1671784587,
				"element": "H" 
			},
			{
				"x": -2.7454769615,
				"y": 0.0860993509,
				"z": 0.5116188051,
				"element": "H" 
			},
			{
				"x": -5.1416992647,
				"y": -0.1939041878,
				"z": -0.1812812762,
				"element": "H" 
			},
			{
				"x": -4.6595450281,
				"y": -0.1745257012,
				"z": -1.8689214803,
				"element": "H" 
			},
			{
				"x": -3.319184655,
				"y": -2.2810198771,
				"z": -1.5020261414,
				"element": "H" 
			},
			{
				"x": -5.0479381048,
				"y": -2.4728202768,
				"z": -1.2420611834,
				"element": "H" 
			},
			{
				"x": -3.7174391331,
				"y": -3.6720535992,
				"z": 0.4757353583,
				"element": "H" 
			},
			{
				"x": -2.9604098953,
				"y": -2.1663610917,
				"z": 0.9922270777,
				"element": "H" 
			},
			{
				"x": -7.0038667988,
				"y": -2.8522379249,
				"z": 2.9994236156,
				"element": "H" 
			},
			{
				"x": -6.0148563562,
				"y": -2.7098593498,
				"z": 4.4820047827,
				"element": "H" 
			},
			{
				"x": -6.3014593472,
				"y": -1.2938788069,
				"z": 3.4280690105,
				"element": "H" 
			}
		],
		 "valence_orbital": [ 
			{
				"type": "occ",
				"energy": -0.29922,
				"method": "rhf"
			},
			{
				"type": "occ",
				"energy": -0.2953,
				"method": "rhf"
			},
			{
				"type": "occ",
				"energy": -0.29302,
				"method": "rhf"
			},
			{
				"type": "occ",
				"energy": -0.29259,
				"method": "rhf"
			},
			{
				"type": "occ",
				"energy": -0.26605,
				"method": "rhf"
			},
			{
				"type": "unocc",
				"energy": 0.01659,
				"method": "rhf"
			},
			{
				"type": "unocc",
				"energy": 0.07213,
				"method": "rhf"
			},
			{
				"type": "unocc",
				"energy": 0.0805,
				"method": "rhf"
			},
			{
				"type": "unocc",
				"energy": 0.09068,
				"method": "rhf"
			},
			{
				"type": "unocc",
				"energy": 0.09549,
				"method": "rhf"
			}
		],
		"cosmo_sigma_profile": { 
			"-0.025": 0.0,
			"-0.024": 0.0,
			"-0.023": 0.0,
			"-0.022": 0.0,
			"-0.021": 0.0,
			"-0.02": 0.0,
			"-0.019": 0.0,
			"-0.018": 0.0,
			"-0.017": 0.0,
			"-0.016": 0.0,
			"-0.015": 0.0,
			"-0.014": 0.0,
			"-0.013": 0.0,
			"-0.012": 0.0,
			"-0.011": 0.0,
			"-0.01": 0.0,
			"-0.009": 0.0,
			"-0.008": 0.0,
			"-0.007": 0.367603056274,
			"-0.006": 4.18343352609,
			"-0.005": 7.62145388113,
			"-0.004": 12.9849915776,
			"-0.003": 22.7938599738,
			"-0.002": 55.2240878066,
			"-0.001": 105.320548866,
			"0.0": 102.646242123,
			"0.001": 82.4777109511,
			"0.002": 37.876435269,
			"0.003": 4.36280224295,
			"0.004": 3.02434280327,
			"0.005": 2.94800500745,
			"0.006": 3.09047539307,
			"0.007": 2.47834970316,
			"0.008": 1.8035799014,
			"0.009": 2.27098696732,
			"0.01": 1.33527251494,
			"0.011": 2.50283433123,
			"0.012": 4.76766301697,
			"0.013": 2.73023408782,
			"0.014": 0.13949757153,
			"0.015": 0.0,
			"0.016": 0.0,
			"0.017": 0.0,
			"0.018": 0.0,
			"0.019": 0.0,
			"0.02": 0.0,
			"0.021": 0.0,
			"0.022": 0.0,
			"0.023": 0.0,
			"0.024": 0.0,
			"0.025": 0.0
		}
	}
}
