{
	 "smiles": "CC1=CC(=CC=C1N=NC1=CC=CC=C1)N=NC1=CC=CC=C1", 
	 "Tm": 382.15, 
	 "num_atms": 39, 
	 "gaussian": { 
		 "optdone": 1, 
		 "sigma_profile": "yes", 
		 "theory": "DFT", 
		 "functional": "B3LYP", 
		 "basiset": "6-31G**", 
		 "properties": { 
			 "R2extent": 11696.327, 
			 "electric_dipole_moment_norm": 3.4943158887, 
			 "electric_quadrupole_moment_norm": 17.5570117534, 
			 "total_energy": -952.572675116, 
			 "HOMO_LUMO_gap": 0.11527, 
			 "cosmo_polarized_energy": -11.32, 
			 "cosmo_cavitation_energy": 44.61, 
			 "cosmo_dispersion_energy": -30.73, 
			 "cosmo_repulsion_energy": 2.34, 
			 "cosmo_total_nonelectrostatic_energy": 16.23, 
			 "SMD_solvation_energy": 4.48 
		},
		"coords": [
			{
				"x": -0.7816200759,
				"y": -1.0619907057,
				"z": 1.1016844688,
				"element": "C" 
			},
			{
				"x": 0.1688407772,
				"y": -0.7091666028,
				"z": -0.0168477782,
				"element": "C" 
			},
			{
				"x": 0.8282254069,
				"y": -1.7151565435,
				"z": -0.7243732715,
				"element": "C" 
			},
			{
				"x": 1.7065260145,
				"y": -1.4073525209,
				"z": -1.7731253411,
				"element": "C" 
			},
			{
				"x": 1.9036750433,
				"y": -0.0687190919,
				"z": -2.1513461307,
				"element": "C" 
			},
			{
				"x": 1.2882475855,
				"y": 0.9427538356,
				"z": -1.4343070088,
				"element": "C" 
			},
			{
				"x": 0.4199864693,
				"y": 0.6380743981,
				"z": -0.3691884411,
				"element": "C" 
			},
			{
				"x": -0.2610334013,
				"y": 1.6162418205,
				"z": 0.3894074777,
				"element": "N" 
			},
			{
				"x": 0.0022060158,
				"y": 2.812134738,
				"z": 0.0804055319,
				"element": "N" 
			},
			{
				"x": -0.6852358721,
				"y": 3.7911410608,
				"z": 0.8379636611,
				"element": "C" 
			},
			{
				"x": -0.3890364005,
				"y": 5.121409828,
				"z": 0.5082497162,
				"element": "C" 
			},
			{
				"x": -1.0072655713,
				"y": 6.168627041,
				"z": 1.1891563156,
				"element": "C" 
			},
			{
				"x": -1.9257405295,
				"y": 5.8913970334,
				"z": 2.2033272079,
				"element": "C" 
			},
			{
				"x": -2.2242717535,
				"y": 4.5629601425,
				"z": 2.5346013637,
				"element": "C" 
			},
			{
				"x": -1.611275234,
				"y": 3.5140889258,
				"z": 1.8597678928,
				"element": "C" 
			},
			{
				"x": 2.2620710575,
				"y": -2.4096452913,
				"z": -2.6270304839,
				"element": "N" 
			},
			{
				"x": 2.8592779662,
				"y": -3.4310090722,
				"z": -2.2257903274,
				"element": "N" 
			},
			{
				"x": 3.2652170489,
				"y": -3.6365810432,
				"z": -0.8659153956,
				"element": "C" 
			},
			{
				"x": 3.1292290259,
				"y": -4.9411575912,
				"z": -0.3712392197,
				"element": "C" 
			},
			{
				"x": 3.5920185604,
				"y": -5.2538181894,
				"z": 0.904904786,
				"element": "C" 
			},
			{
				"x": 4.2463140585,
				"y": -4.2844897236,
				"z": 1.6698466392,
				"element": "C" 
			},
			{
				"x": 4.4293532427,
				"y": -2.9985792889,
				"z": 1.1538538749,
				"element": "C" 
			},
			{
				"x": 3.9350628109,
				"y": -2.6656991081,
				"z": -0.1056465854,
				"element": "C" 
			},
			{
				"x": -1.7871571164,
				"y": -0.6786953324,
				"z": 0.9039999835,
				"element": "H" 
			},
			{
				"x": -0.8436183156,
				"y": -2.1460715028,
				"z": 1.2276911651,
				"element": "H" 
			},
			{
				"x": -0.4598413039,
				"y": -0.6222748607,
				"z": 2.0504155562,
				"element": "H" 
			},
			{
				"x": 0.6504539479,
				"y": -2.7538893279,
				"z": -0.4659690506,
				"element": "H" 
			},
			{
				"x": 2.5445398627,
				"y": 0.1507028182,
				"z": -2.9995478049,
				"element": "H" 
			},
			{
				"x": 1.4431702704,
				"y": 1.985150144,
				"z": -1.6873505089,
				"element": "H" 
			},
			{
				"x": 0.3287554722,
				"y": 5.304533853,
				"z": -0.2850690623,
				"element": "H" 
			},
			{
				"x": -0.774111142,
				"y": 7.1970384233,
				"z": 0.9297137825,
				"element": "H" 
			},
			{
				"x": -2.4101662892,
				"y": 6.7046875382,
				"z": 2.7360307202,
				"element": "H" 
			},
			{
				"x": -2.9401684736,
				"y": 4.3510972163,
				"z": 3.3238860604,
				"element": "H" 
			},
			{
				"x": -1.8295337882,
				"y": 2.4803139361,
				"z": 2.1011166076,
				"element": "H" 
			},
			{
				"x": 2.6544457094,
				"y": -5.6896370744,
				"z": -0.9980322738,
				"element": "H" 
			},
			{
				"x": 3.4618720478,
				"y": -6.259359954,
				"z": 1.2940963421,
				"element": "H" 
			},
			{
				"x": 4.6271931831,
				"y": -4.5339917899,
				"z": 2.6556773978,
				"element": "H" 
			},
			{
				"x": 4.958139565,
				"y": -2.2494009688,
				"z": 1.7359552809,
				"element": "H" 
			},
			{
				"x": 4.0800541251,
				"y": -1.668367169,
				"z": -0.5057731482,
				"element": "H" 
			}
		],
		 "valence_orbital": [ 
			{
				"type": "occ",
				"energy": -0.25777,
				"method": "rhf"
			},
			{
				"type": "occ",
				"energy": -0.25193,
				"method": "rhf"
			},
			{
				"type": "occ",
				"energy": -0.23641,
				"method": "rhf"
			},
			{
				"type": "occ",
				"energy": -0.22642,
				"method": "rhf"
			},
			{
				"type": "occ",
				"energy": -0.208,
				"method": "rhf"
			},
			{
				"type": "unocc",
				"energy": -0.09273,
				"method": "rhf"
			},
			{
				"type": "unocc",
				"energy": -0.06259,
				"method": "rhf"
			},
			{
				"type": "unocc",
				"energy": -0.01445,
				"method": "rhf"
			},
			{
				"type": "unocc",
				"energy": -0.00648,
				"method": "rhf"
			},
			{
				"type": "unocc",
				"energy": -0.00524,
				"method": "rhf"
			}
		],
		"cosmo_sigma_profile": { 
			"-0.025": 0.0,
			"-0.024": 0.0,
			"-0.023": 0.0,
			"-0.022": 0.0,
			"-0.021": 0.0,
			"-0.02": 0.0,
			"-0.019": 0.0,
			"-0.018": 0.0,
			"-0.017": 0.0,
			"-0.016": 0.0,
			"-0.015": 0.0,
			"-0.014": 0.0,
			"-0.013": 0.0,
			"-0.012": 0.0,
			"-0.011": 0.0,
			"-0.01": 0.0,
			"-0.009": 0.0,
			"-0.008": 0.0,
			"-0.007": 4.03443668493,
			"-0.006": 23.7436736133,
			"-0.005": 29.1796720083,
			"-0.004": 30.7323281605,
			"-0.003": 26.5635768645,
			"-0.002": 23.5377546133,
			"-0.001": 23.4263033642,
			"0.0": 26.7522472011,
			"0.001": 30.3242566614,
			"0.002": 39.0915088898,
			"0.003": 38.4207299718,
			"0.004": 30.4002764281,
			"0.005": 10.7636283792,
			"0.006": 4.49694522521,
			"0.007": 3.51973471793,
			"0.008": 2.34630305919,
			"0.009": 1.57465636913,
			"0.01": 2.26212656435,
			"0.011": 2.37200753877,
			"0.012": 2.49544448022,
			"0.013": 1.82456076629,
			"0.014": 0.45746257652,
			"0.015": 0.0,
			"0.016": 0.0,
			"0.017": 0.0,
			"0.018": 0.0,
			"0.019": 0.0,
			"0.02": 0.0,
			"0.021": 0.0,
			"0.022": 0.0,
			"0.023": 0.0,
			"0.024": 0.0,
			"0.025": 0.0
		}
	}
}
