{
	 "smiles": "CCCCCCCCCCCCCCCCCCI", 
	 "Tm": 307.15, 
	 "num_atms": 56, 
	 "gaussian": { 
		 "optdone": 1, 
		 "sigma_profile": "no", 
		 "theory": "DFT", 
		 "functional": "B3LYP", 
		 "basiset": "6-31G**", 
		 "properties": { 
			 "R2extent": 10517.9099, 
			 "electric_dipole_moment_norm": 2.41404002038, 
			 "electric_quadrupole_moment_norm": 11.9268272386, 
			 "total_energy": -719.656487993, 
			 "HOMO_LUMO_gap": 0.21448, 
			 "cosmo_polarized_energy": -93622.98, 
			 "cosmo_cavitation_energy": 56.71, 
			 "cosmo_dispersion_energy": -36.64, 
			 "cosmo_repulsion_energy": 2.92, 
			 "cosmo_total_nonelectrostatic_energy": 23.0, 
			 "SMD_solvation_energy": 6.23 
		},
		"coords": [
			{
				"x": 4.9470824198,
				"y": -1.3162198492,
				"z": 2.2357799958,
				"element": "C" 
			},
			{
				"x": 4.5548010971,
				"y": -0.3361510775,
				"z": 3.3482231006,
				"element": "C" 
			},
			{
				"x": 3.0970100031,
				"y": 0.1493619383,
				"z": 3.2853110792,
				"element": "C" 
			},
			{
				"x": 2.0450845931,
				"y": -0.9419392874,
				"z": 3.5278210712,
				"element": "C" 
			},
			{
				"x": 0.6059491299,
				"y": -0.4080386229,
				"z": 3.5246375139,
				"element": "C" 
			},
			{
				"x": -0.4422433965,
				"y": -1.5058556537,
				"z": 3.7515241814,
				"element": "C" 
			},
			{
				"x": -1.9028594853,
				"y": -1.0367567093,
				"z": 3.8818993351,
				"element": "C" 
			},
			{
				"x": -2.5163017534,
				"y": -0.367046768,
				"z": 2.6302881559,
				"element": "C" 
			},
			{
				"x": -2.3981631796,
				"y": 1.165436312,
				"z": 2.5960687651,
				"element": "C" 
			},
			{
				"x": -3.0926651706,
				"y": 1.8626992117,
				"z": 1.4118687234,
				"element": "C" 
			},
			{
				"x": -2.5158127805,
				"y": 1.542769574,
				"z": 0.0126085141,
				"element": "C" 
			},
			{
				"x": -3.2450932961,
				"y": 0.4157658286,
				"z": -0.738414972,
				"element": "C" 
			},
			{
				"x": -2.5922762973,
				"y": 0.0068768304,
				"z": -2.0696702744,
				"element": "C" 
			},
			{
				"x": -2.624802175,
				"y": 1.093336465,
				"z": -3.1584463871,
				"element": "C" 
			},
			{
				"x": -2.0702745023,
				"y": 0.6628105268,
				"z": -4.5347443263,
				"element": "C" 
			},
			{
				"x": -0.5691241882,
				"y": 0.9195423775,
				"z": -4.7731750507,
				"element": "C" 
			},
			{
				"x": 0.438383409,
				"y": 0.1845625232,
				"z": -3.8637778941,
				"element": "C" 
			},
			{
				"x": 0.378426545,
				"y": -1.3278382698,
				"z": -4.0320389837,
				"element": "C" 
			},
			{
				"x": 1.8574945285,
				"y": -2.366030454,
				"z": -2.791415246,
				"element": "I" 
			},
			{
				"x": 4.7777858112,
				"y": -0.8761866162,
				"z": 1.2458363333,
				"element": "H" 
			},
			{
				"x": 6.0067043199,
				"y": -1.5846066449,
				"z": 2.3024307793,
				"element": "H" 
			},
			{
				"x": 4.3704906729,
				"y": -2.245445887,
				"z": 2.2871316277,
				"element": "H" 
			},
			{
				"x": 4.7376701288,
				"y": -0.801691462,
				"z": 4.3266949028,
				"element": "H" 
			},
			{
				"x": 5.2173616442,
				"y": 0.5377460671,
				"z": 3.301228066,
				"element": "H" 
			},
			{
				"x": 2.9575144266,
				"y": 0.944543973,
				"z": 4.0306825695,
				"element": "H" 
			},
			{
				"x": 2.9149612327,
				"y": 0.6166801854,
				"z": 2.3065611266,
				"element": "H" 
			},
			{
				"x": 2.1354874234,
				"y": -1.7256391476,
				"z": 2.764117238,
				"element": "H" 
			},
			{
				"x": 2.2479559936,
				"y": -1.431608133,
				"z": 4.4916115215,
				"element": "H" 
			},
			{
				"x": 0.4179384861,
				"y": 0.0955930844,
				"z": 2.5675008669,
				"element": "H" 
			},
			{
				"x": 0.5024632809,
				"y": 0.3632557829,
				"z": 4.3016525816,
				"element": "H" 
			},
			{
				"x": -0.1774457558,
				"y": -2.0570883795,
				"z": 4.6647465367,
				"element": "H" 
			},
			{
				"x": -0.3765982348,
				"y": -2.2361886339,
				"z": 2.932066945,
				"element": "H" 
			},
			{
				"x": -2.5054045885,
				"y": -1.9172111912,
				"z": 4.1380545722,
				"element": "H" 
			},
			{
				"x": -1.9930570239,
				"y": -0.355727767,
				"z": 4.7402837777,
				"element": "H" 
			},
			{
				"x": -2.057702282,
				"y": -0.8030158188,
				"z": 1.7329472384,
				"element": "H" 
			},
			{
				"x": -3.5830106461,
				"y": -0.6235780013,
				"z": 2.5762425674,
				"element": "H" 
			},
			{
				"x": -2.826608825,
				"y": 1.5620010575,
				"z": 3.5271396823,
				"element": "H" 
			},
			{
				"x": -1.3413127394,
				"y": 1.4601369319,
				"z": 2.6053898252,
				"element": "H" 
			},
			{
				"x": -3.0260658004,
				"y": 2.9440868763,
				"z": 1.5842712221,
				"element": "H" 
			},
			{
				"x": -4.1662509867,
				"y": 1.625868362,
				"z": 1.4257169274,
				"element": "H" 
			},
			{
				"x": -2.5491841141,
				"y": 2.45137685,
				"z": -0.600324886,
				"element": "H" 
			},
			{
				"x": -1.450242078,
				"y": 1.2871191305,
				"z": 0.1077720187,
				"element": "H" 
			},
			{
				"x": -4.2834634615,
				"y": 0.7267176475,
				"z": -0.9242356406,
				"element": "H" 
			},
			{
				"x": -3.3082167865,
				"y": -0.4703442468,
				"z": -0.0965584159,
				"element": "H" 
			},
			{
				"x": -1.5596242494,
				"y": -0.3084507087,
				"z": -1.8721057888,
				"element": "H" 
			},
			{
				"x": -3.1115110346,
				"y": -0.8814101639,
				"z": -2.4556342505,
				"element": "H" 
			},
			{
				"x": -2.0873112081,
				"y": 1.9887552348,
				"z": -2.8194943319,
				"element": "H" 
			},
			{
				"x": -3.6705372888,
				"y": 1.404602767,
				"z": -3.2843546681,
				"element": "H" 
			},
			{
				"x": -2.3097095062,
				"y": -0.3949019174,
				"z": -4.7105816242,
				"element": "H" 
			},
			{
				"x": -2.608310853,
				"y": 1.2143339264,
				"z": -5.3155960959,
				"element": "H" 
			},
			{
				"x": -0.3366712226,
				"y": 0.6772109217,
				"z": -5.8192151328,
				"element": "H" 
			},
			{
				"x": -0.3811258688,
				"y": 1.9962167972,
				"z": -4.6664033887,
				"element": "H" 
			},
			{
				"x": 0.2694137236,
				"y": 0.4489924158,
				"z": -2.8152757982,
				"element": "H" 
			},
			{
				"x": 1.4476738057,
				"y": 0.5323612722,
				"z": -4.1096604714,
				"element": "H" 
			},
			{
				"x": 0.6064488372,
				"y": -1.643782734,
				"z": -5.0502842365,
				"element": "H" 
			},
			{
				"x": -0.5734207333,
				"y": -1.7571067258,
				"z": -3.7241014986,
				"element": "H" 
			}
		],
		 "valence_orbital": [ 
			{
				"type": "occ",
				"energy": -0.29861,
				"method": "rhf"
			},
			{
				"type": "occ",
				"energy": -0.29367,
				"method": "rhf"
			},
			{
				"type": "occ",
				"energy": -0.291,
				"method": "rhf"
			},
			{
				"type": "occ",
				"energy": -0.25486,
				"method": "rhf"
			},
			{
				"type": "occ",
				"energy": -0.25441,
				"method": "rhf"
			},
			{
				"type": "unocc",
				"energy": -0.03993,
				"method": "rhf"
			},
			{
				"type": "unocc",
				"energy": 0.03282,
				"method": "rhf"
			},
			{
				"type": "unocc",
				"energy": 0.03992,
				"method": "rhf"
			},
			{
				"type": "unocc",
				"energy": 0.05754,
				"method": "rhf"
			},
			{
				"type": "unocc",
				"energy": 0.08565,
				"method": "rhf"
			}
		],
		"cosmo_sigma_profile": { 
			"0.0": 0.0,
			"0.0": 0.0,
			"0.0": 0.0,
			"0.0": 0.0,
			"0.0": 0.0,
			"0.0": 0.0,
			"0.0": 0.0,
			"0.0": 0.0,
			"0.0": 0.0,
			"0.0": 0.0,
			"0.0": 0.0,
			"0.0": 0.0,
			"0.0": 0.0,
			"0.0": 0.0,
			"0.0": 0.0,
			"0.0": 0.0,
			"0.0": 0.0,
			"0.0": 0.0,
			"0.0": 0.0,
			"0.0": 0.0,
			"0.0": 0.0,
			"0.0": 0.0,
			"0.0": 0.0,
			"0.0": 0.0,
			"0.0": 0.0,
			"0.0": 0.0,
			"0.0": 0.0,
			"0.0": 0.0,
			"0.0": 0.0,
			"0.0": 0.0,
			"0.0": 0.0,
			"0.0": 0.0,
			"0.0": 0.0,
			"0.0": 0.0,
			"0.0": 0.0,
			"0.0": 0.0,
			"0.0": 0.0,
			"0.0": 0.0,
			"0.0": 0.0,
			"0.0": 0.0,
			"0.0": 0.0,
			"0.0": 0.0,
			"0.0": 0.0,
			"0.0": 0.0,
			"0.0": 0.0,
			"0.0": 0.0,
			"0.0": 0.0,
			"0.0": 0.0,
			"0.0": 0.0,
			"0.0": 0.0,
			"0.0": 0.0
		}
	}
}
