{
	 "smiles": "CC1=CNC(=O)N1C1=CC(=CC=C1)C(O)=O", 
	 "Tm": 563.15, 
	 "num_atms": 26, 
	 "gaussian": { 
		 "optdone": 1, 
		 "sigma_profile": "yes", 
		 "theory": "DFT", 
		 "functional": "B3LYP", 
		 "basiset": "6-31G**", 
		 "properties": { 
			 "R2extent": 4106.5923, 
			 "electric_dipole_moment_norm": 4.67907332385, 
			 "electric_quadrupole_moment_norm": 11.3712379801, 
			 "total_energy": -760.405974923, 
			 "HOMO_LUMO_gap": 0.14623, 
			 "cosmo_polarized_energy": -18.64, 
			 "cosmo_cavitation_energy": 30.78, 
			 "cosmo_dispersion_energy": -22.12, 
			 "cosmo_repulsion_energy": 1.72, 
			 "cosmo_total_nonelectrostatic_energy": 10.38, 
			 "SMD_solvation_energy": 7.59 
		},
		"coords": [
			{
				"x": -1.7898444639,
				"y": -1.7650347075,
				"z": 2.1432303379,
				"element": "C" 
			},
			{
				"x": -0.8843109079,
				"y": -2.2832939136,
				"z": 1.0755163349,
				"element": "C" 
			},
			{
				"x": -0.5683719552,
				"y": -3.5656698059,
				"z": 0.7845045086,
				"element": "C" 
			},
			{
				"x": 0.3854564948,
				"y": -3.5593737435,
				"z": -0.2327442145,
				"element": "N" 
			},
			{
				"x": 0.7177922541,
				"y": -2.2687264471,
				"z": -0.5980128244,
				"element": "C" 
			},
			{
				"x": 1.5309130497,
				"y": -1.9045424576,
				"z": -1.4353481035,
				"element": "O" 
			},
			{
				"x": -0.104331182,
				"y": -1.4664782006,
				"z": 0.2221142607,
				"element": "N" 
			},
			{
				"x": -0.1152987776,
				"y": -0.0500274979,
				"z": 0.1293411756,
				"element": "C" 
			},
			{
				"x": -1.3236900647,
				"y": 0.649882101,
				"z": 0.0830368469,
				"element": "C" 
			},
			{
				"x": -1.3186274992,
				"y": 2.0485013624,
				"z": 0.0107993139,
				"element": "C" 
			},
			{
				"x": -0.1069854893,
				"y": 2.7471336025,
				"z": -0.0508047692,
				"element": "C" 
			},
			{
				"x": 1.0936437122,
				"y": 2.0414839886,
				"z": -0.0380314159,
				"element": "C" 
			},
			{
				"x": 1.0979450812,
				"y": 0.6505217485,
				"z": 0.0583653152,
				"element": "C" 
			},
			{
				"x": -2.5809457864,
				"y": 2.8330226633,
				"z": -0.0219488299,
				"element": "C" 
			},
			{
				"x": -3.6938728593,
				"y": 2.0573594532,
				"z": 0.049818761,
				"element": "O" 
			},
			{
				"x": -2.6461028032,
				"y": 4.0437319437,
				"z": -0.1011185888,
				"element": "O" 
			},
			{
				"x": -2.0941391217,
				"y": -2.5955315892,
				"z": 2.7854979938,
				"element": "H" 
			},
			{
				"x": -2.6998433112,
				"y": -1.2979883488,
				"z": 1.7516718769,
				"element": "H" 
			},
			{
				"x": -1.2865463824,
				"y": -1.0199433983,
				"z": 2.7692685546,
				"element": "H" 
			},
			{
				"x": -0.9256552413,
				"y": -4.4773623546,
				"z": 1.2358155933,
				"element": "H" 
			},
			{
				"x": 0.8311097862,
				"y": -4.3566302902,
				"z": -0.6551923902,
				"element": "H" 
			},
			{
				"x": -2.2660757609,
				"y": 0.1184358754,
				"z": 0.0825708158,
				"element": "H" 
			},
			{
				"x": -0.130457011,
				"y": 3.8292926324,
				"z": -0.114528846,
				"element": "H" 
			},
			{
				"x": 2.0374107251,
				"y": 2.5749403336,
				"z": -0.0958261853,
				"element": "H" 
			},
			{
				"x": 2.0290463294,
				"y": 0.0977643539,
				"z": 0.0603336153,
				"element": "H" 
			},
			{
				"x": -4.4440188152,
				"y": 2.6730326964,
				"z": 0.0130708635,
				"element": "H" 
			}
		],
		 "valence_orbital": [ 
			{
				"type": "occ",
				"energy": -0.27856,
				"method": "rhf"
			},
			{
				"type": "occ",
				"energy": -0.26788,
				"method": "rhf"
			},
			{
				"type": "occ",
				"energy": -0.25681,
				"method": "rhf"
			},
			{
				"type": "occ",
				"energy": -0.25249,
				"method": "rhf"
			},
			{
				"type": "occ",
				"energy": -0.19602,
				"method": "rhf"
			},
			{
				"type": "unocc",
				"energy": -0.04979,
				"method": "rhf"
			},
			{
				"type": "unocc",
				"energy": -0.01643,
				"method": "rhf"
			},
			{
				"type": "unocc",
				"energy": 0.03564,
				"method": "rhf"
			},
			{
				"type": "unocc",
				"energy": 0.05366,
				"method": "rhf"
			},
			{
				"type": "unocc",
				"energy": 0.0726,
				"method": "rhf"
			}
		],
		"cosmo_sigma_profile": { 
			"-0.025": 0.0,
			"-0.024": 0.0,
			"-0.023": 0.0,
			"-0.022": 0.0,
			"-0.021": 0.0,
			"-0.02": 0.0,
			"-0.019": 0.187766132958,
			"-0.018": 0.573394650809,
			"-0.017": 1.09991970894,
			"-0.016": 2.17135890857,
			"-0.015": 1.36089502405,
			"-0.014": 1.77489484686,
			"-0.013": 1.66406563161,
			"-0.012": 2.37064779215,
			"-0.011": 1.72049064951,
			"-0.01": 1.605243715,
			"-0.009": 2.05770282724,
			"-0.008": 3.44127251234,
			"-0.007": 6.37891470633,
			"-0.006": 11.8828010401,
			"-0.005": 14.149873993,
			"-0.004": 13.3529299094,
			"-0.003": 14.3118481038,
			"-0.002": 17.8546229349,
			"-0.001": 19.4447493884,
			"0.0": 20.3763970236,
			"0.001": 19.1809166742,
			"0.002": 17.3999807794,
			"0.003": 16.8833419732,
			"0.004": 10.209121687,
			"0.005": 5.28867739965,
			"0.006": 3.85062505753,
			"0.007": 4.85142109768,
			"0.008": 3.20204369721,
			"0.009": 3.47184072424,
			"0.01": 3.03225036257,
			"0.011": 5.38305460199,
			"0.012": 5.13805117808,
			"0.013": 2.17719461457,
			"0.014": 5.96471656242,
			"0.015": 2.05159095219,
			"0.016": 0.00865959457905,
			"0.017": 0.0,
			"0.018": 0.0,
			"0.019": 0.0,
			"0.02": 0.0,
			"0.021": 0.0,
			"0.022": 0.0,
			"0.023": 0.0,
			"0.024": 0.0,
			"0.025": 0.0
		}
	}
}
