{
	 "smiles": "CC1=CC=C(NS(=O)(=O)C2=CC=C(C=C2)C(O)=O)C=C1", 
	 "Tm": 559.15, 
	 "num_atms": 33, 
	 "gaussian": { 
		 "optdone": 1, 
		 "sigma_profile": "yes", 
		 "theory": "DFT", 
		 "functional": "B3LYP", 
		 "basiset": "6-31G**", 
		 "properties": { 
			 "R2extent": 9517.7567, 
			 "electric_dipole_moment_norm": 3.79407157023, 
			 "electric_quadrupole_moment_norm": 28.6240993334, 
			 "total_energy": -1295.09897193, 
			 "HOMO_LUMO_gap": 0.15197, 
			 "cosmo_polarized_energy": -24.95, 
			 "cosmo_cavitation_energy": 39.7, 
			 "cosmo_dispersion_energy": -28.57, 
			 "cosmo_repulsion_energy": 2.13, 
			 "cosmo_total_nonelectrostatic_energy": 13.27, 
			 "SMD_solvation_energy": 7.16 
		},
		"coords": [
			{
				"x": 2.5424469843,
				"y": 4.7867334762,
				"z": 3.024325027,
				"element": "C" 
			},
			{
				"x": 1.9473177728,
				"y": 3.5699200146,
				"z": 2.3561706249,
				"element": "C" 
			},
			{
				"x": 1.7825237381,
				"y": 3.5222573996,
				"z": 0.9638053584,
				"element": "C" 
			},
			{
				"x": 1.2685960024,
				"y": 2.3959145254,
				"z": 0.3281596703,
				"element": "C" 
			},
			{
				"x": 0.8782283459,
				"y": 1.2879906896,
				"z": 1.0895730532,
				"element": "C" 
			},
			{
				"x": 0.3927990312,
				"y": 0.101365862,
				"z": 0.4398941661,
				"element": "N" 
			},
			{
				"x": -1.1670246369,
				"y": 0.1529029742,
				"z": -0.2818420656,
				"element": "S" 
			},
			{
				"x": -2.2234983119,
				"y": -0.0588825202,
				"z": 0.7148302604,
				"element": "O" 
			},
			{
				"x": -1.1864230206,
				"y": 1.323970428,
				"z": -1.1582368481,
				"element": "O" 
			},
			{
				"x": -1.0683582783,
				"y": -1.3361020298,
				"z": -1.2858394391,
				"element": "C" 
			},
			{
				"x": -0.2199151198,
				"y": -1.3550191001,
				"z": -2.3944303098,
				"element": "C" 
			},
			{
				"x": -0.1746483528,
				"y": -2.4980725519,
				"z": -3.1876241384,
				"element": "C" 
			},
			{
				"x": -0.9716303402,
				"y": -3.610719045,
				"z": -2.8754747633,
				"element": "C" 
			},
			{
				"x": -1.8043808384,
				"y": -3.5756163462,
				"z": -1.7504190438,
				"element": "C" 
			},
			{
				"x": -1.8660830863,
				"y": -2.4326526005,
				"z": -0.9563072401,
				"element": "C" 
			},
			{
				"x": -0.949262097,
				"y": -4.8791752976,
				"z": -3.682379108,
				"element": "C" 
			},
			{
				"x": -0.5347362863,
				"y": -4.7772367332,
				"z": -4.9713640109,
				"element": "O" 
			},
			{
				"x": -1.275937273,
				"y": -5.9498730871,
				"z": -3.2300548612,
				"element": "O" 
			},
			{
				"x": 1.0182062648,
				"y": 1.3235181985,
				"z": 2.4797611063,
				"element": "C" 
			},
			{
				"x": 1.5603603846,
				"y": 2.4491445066,
				"z": 3.0994492678,
				"element": "C" 
			},
			{
				"x": 2.3635360733,
				"y": 4.7780839238,
				"z": 4.1031377134,
				"element": "H" 
			},
			{
				"x": 3.6277027991,
				"y": 4.834464118,
				"z": 2.8708788427,
				"element": "H" 
			},
			{
				"x": 2.119272704,
				"y": 5.7119192844,
				"z": 2.6196017671,
				"element": "H" 
			},
			{
				"x": 2.0729371289,
				"y": 4.3801676043,
				"z": 0.3624935897,
				"element": "H" 
			},
			{
				"x": 1.156410205,
				"y": 2.3702605098,
				"z": -0.7489141819,
				"element": "H" 
			},
			{
				"x": 0.4052140031,
				"y": -0.6980822434,
				"z": 1.0715132379,
				"element": "H" 
			},
			{
				"x": 0.3943153233,
				"y": -0.4920991601,
				"z": -2.6258655114,
				"element": "H" 
			},
			{
				"x": 0.5144751058,
				"y": -2.5251817499,
				"z": -4.0277059739,
				"element": "H" 
			},
			{
				"x": -2.3980559454,
				"y": -4.4524162728,
				"z": -1.516396434,
				"element": "H" 
			},
			{
				"x": -2.5219320439,
				"y": -2.3780913747,
				"z": -0.0944779329,
				"element": "H" 
			},
			{
				"x": -0.4740028149,
				"y": -3.8489830004,
				"z": -5.2364579057,
				"element": "H" 
			},
			{
				"x": 0.7012216001,
				"y": 0.4733309511,
				"z": 3.0786350016,
				"element": "H" 
			},
			{
				"x": 1.6697249789,
				"y": 2.4582586469,
				"z": 4.1807610814,
				"element": "H" 
			}
		],
		 "valence_orbital": [ 
			{
				"type": "occ",
				"energy": -0.2933,
				"method": "rhf"
			},
			{
				"type": "occ",
				"energy": -0.29174,
				"method": "rhf"
			},
			{
				"type": "occ",
				"energy": -0.28136,
				"method": "rhf"
			},
			{
				"type": "occ",
				"energy": -0.25723,
				"method": "rhf"
			},
			{
				"type": "occ",
				"energy": -0.23195,
				"method": "rhf"
			},
			{
				"type": "unocc",
				"energy": -0.07998,
				"method": "rhf"
			},
			{
				"type": "unocc",
				"energy": -0.04327,
				"method": "rhf"
			},
			{
				"type": "unocc",
				"energy": -0.01385,
				"method": "rhf"
			},
			{
				"type": "unocc",
				"energy": -0.00833,
				"method": "rhf"
			},
			{
				"type": "unocc",
				"energy": 0.01722,
				"method": "rhf"
			}
		],
		"cosmo_sigma_profile": { 
			"-0.025": 0.0,
			"-0.024": 0.0,
			"-0.023": 0.0,
			"-0.022": 0.0,
			"-0.021": 0.0,
			"-0.02": 0.0,
			"-0.019": 0.788553002141,
			"-0.018": 0.981526485808,
			"-0.017": 1.32907790988,
			"-0.016": 1.25588806595,
			"-0.015": 1.87617055329,
			"-0.014": 2.12580670525,
			"-0.013": 2.76142190286,
			"-0.012": 2.72656680071,
			"-0.011": 2.60783135963,
			"-0.01": 2.25529055809,
			"-0.009": 4.04120763197,
			"-0.008": 6.6142504482,
			"-0.007": 9.63604102427,
			"-0.006": 10.2556575551,
			"-0.005": 15.5390142634,
			"-0.004": 22.2294451953,
			"-0.003": 21.2176615639,
			"-0.002": 20.3376458422,
			"-0.001": 21.5252285812,
			"0.0": 29.079005895,
			"0.001": 23.849102446,
			"0.002": 13.2164265227,
			"0.003": 11.9604083501,
			"0.004": 15.3899616921,
			"0.005": 15.1458868636,
			"0.006": 6.83328755648,
			"0.007": 6.62660150955,
			"0.008": 7.57868878657,
			"0.009": 8.53466798534,
			"0.01": 13.4711880993,
			"0.011": 11.7223595649,
			"0.012": 3.51686339206,
			"0.013": 0.475187105201,
			"0.014": 0.0,
			"0.015": 0.0,
			"0.016": 0.0,
			"0.017": 0.0,
			"0.018": 0.0,
			"0.019": 0.0,
			"0.02": 0.0,
			"0.021": 0.0,
			"0.022": 0.0,
			"0.023": 0.0,
			"0.024": 0.0,
			"0.0": 0.0
		}
	}
}
