{
	 "smiles": "OC(=O)CCC1=NC(=NO1)C1=CC=CC=C1", 
	 "Tm": 412.15, 
	 "num_atms": 26, 
	 "gaussian": { 
		 "optdone": 1, 
		 "sigma_profile": "yes", 
		 "theory": "DFT", 
		 "functional": "B3LYP", 
		 "basiset": "6-31G**", 
		 "properties": { 
			 "R2extent": 4776.0046, 
			 "electric_dipole_moment_norm": 4.79615207953, 
			 "electric_quadrupole_moment_norm": 26.3789317331, 
			 "total_energy": -760.351283344, 
			 "HOMO_LUMO_gap": 0.19771, 
			 "cosmo_polarized_energy": -19.86, 
			 "cosmo_cavitation_energy": 31.58, 
			 "cosmo_dispersion_energy": -22.65, 
			 "cosmo_repulsion_energy": 1.78, 
			 "cosmo_total_nonelectrostatic_energy": 10.72, 
			 "SMD_solvation_energy": 5.24 
		},
		"coords": [
			{
				"x": -4.9088275656,
				"y": -0.992413264,
				"z": -0.5898113376,
				"element": "O" 
			},
			{
				"x": -4.0405555026,
				"y": -1.5249970604,
				"z": 0.3061294801,
				"element": "C" 
			},
			{
				"x": -3.5939680564,
				"y": -2.6317463367,
				"z": 0.1397372415,
				"element": "O" 
			},
			{
				"x": -3.7348949503,
				"y": -0.6551851897,
				"z": 1.5236628954,
				"element": "C" 
			},
			{
				"x": -2.5158575966,
				"y": -1.1649474431,
				"z": 2.2925338556,
				"element": "C" 
			},
			{
				"x": -1.2420149783,
				"y": -0.8875393679,
				"z": 1.5620444111,
				"element": "C" 
			},
			{
				"x": -1.0467769564,
				"y": -0.0899638039,
				"z": 0.5551584891,
				"element": "N" 
			},
			{
				"x": 0.3134474004,
				"y": -0.2187730749,
				"z": 0.3288290351,
				"element": "C" 
			},
			{
				"x": 0.9175278402,
				"y": -1.0444595723,
				"z": 1.1543470034,
				"element": "N" 
			},
			{
				"x": -0.1234327108,
				"y": -1.4968760588,
				"z": 1.9834288029,
				"element": "O" 
			},
			{
				"x": 1.0207014389,
				"y": 0.5037421808,
				"z": -0.7369807533,
				"element": "C" 
			},
			{
				"x": 2.406388714,
				"y": 0.352308763,
				"z": -0.906284457,
				"element": "C" 
			},
			{
				"x": 3.0632204282,
				"y": 1.04326804,
				"z": -1.9205216817,
				"element": "C" 
			},
			{
				"x": 2.3480712709,
				"y": 1.8891492868,
				"z": -2.7736396735,
				"element": "C" 
			},
			{
				"x": 0.9702248156,
				"y": 2.0410429019,
				"z": -2.6080501506,
				"element": "C" 
			},
			{
				"x": 0.3062167074,
				"y": 1.3521458349,
				"z": -1.5941757356,
				"element": "C" 
			},
			{
				"x": -5.1405020569,
				"y": -0.0871481371,
				"z": -0.3384467355,
				"element": "H" 
			},
			{
				"x": -3.5794773736,
				"y": 0.3832299592,
				"z": 1.211829675,
				"element": "H" 
			},
			{
				"x": -4.6177946945,
				"y": -0.6733061838,
				"z": 2.1751715617,
				"element": "H" 
			},
			{
				"x": -2.5999694359,
				"y": -2.2435801648,
				"z": 2.4519272772,
				"element": "H" 
			},
			{
				"x": -2.4641260372,
				"y": -0.6904363312,
				"z": 3.2796615563,
				"element": "H" 
			},
			{
				"x": 2.9547009665,
				"y": -0.3064409868,
				"z": -0.2410466546,
				"element": "H" 
			},
			{
				"x": 4.1350184764,
				"y": 0.9222160251,
				"z": -2.0472559372,
				"element": "H" 
			},
			{
				"x": 2.8638997442,
				"y": 2.4262748083,
				"z": -3.5643926922,
				"element": "H" 
			},
			{
				"x": 0.4109548289,
				"y": 2.6957732163,
				"z": -3.2699790035,
				"element": "H" 
			},
			{
				"x": -0.7640747165,
				"y": 1.459761959,
				"z": -1.4567764722,
				"element": "H" 
			}
		],
		 "valence_orbital": [ 
			{
				"type": "occ",
				"energy": -0.29811,
				"method": "rhf"
			},
			{
				"type": "occ",
				"energy": -0.29624,
				"method": "rhf"
			},
			{
				"type": "occ",
				"energy": -0.28069,
				"method": "rhf"
			},
			{
				"type": "occ",
				"energy": -0.25638,
				"method": "rhf"
			},
			{
				"type": "occ",
				"energy": -0.243,
				"method": "rhf"
			},
			{
				"type": "unocc",
				"energy": -0.04529,
				"method": "rhf"
			},
			{
				"type": "unocc",
				"energy": -0.00962,
				"method": "rhf"
			},
			{
				"type": "unocc",
				"energy": -0.00018,
				"method": "rhf"
			},
			{
				"type": "unocc",
				"energy": 0.0038,
				"method": "rhf"
			},
			{
				"type": "unocc",
				"energy": 0.0476,
				"method": "rhf"
			}
		],
		"cosmo_sigma_profile": { 
			"-0.025": 0.0,
			"-0.024": 0.0,
			"-0.023": 0.0,
			"-0.022": 0.0,
			"-0.021": 0.0,
			"-0.02": 0.00803881605295,
			"-0.019": 0.807481543679,
			"-0.018": 1.23021426413,
			"-0.017": 1.22146620099,
			"-0.016": 1.11545427431,
			"-0.015": 1.24142806284,
			"-0.014": 0.900091369186,
			"-0.013": 0.759633549046,
			"-0.012": 1.02763724173,
			"-0.011": 1.83843397697,
			"-0.01": 0.995581276686,
			"-0.009": 0.980217973496,
			"-0.008": 6.33548988118,
			"-0.007": 8.83930394646,
			"-0.006": 16.7760016355,
			"-0.005": 19.4387738752,
			"-0.004": 18.3033346682,
			"-0.003": 10.902304831,
			"-0.002": 10.9505219207,
			"-0.001": 13.6220511837,
			"0.0": 12.3366905066,
			"0.001": 16.0805039363,
			"0.002": 17.279867734,
			"0.003": 15.8982719002,
			"0.004": 19.2929337979,
			"0.005": 10.0250661668,
			"0.006": 7.98412570722,
			"0.007": 7.14229633241,
			"0.008": 5.08314601836,
			"0.009": 5.12725584608,
			"0.01": 6.69829693566,
			"0.011": 5.90843989661,
			"0.012": 5.07905618081,
			"0.013": 1.26914578302,
			"0.014": 0.0,
			"0.015": 0.0,
			"0.016": 0.0,
			"0.017": 0.0,
			"0.018": 0.0,
			"0.019": 0.0,
			"0.02": 0.0,
			"0.021": 0.0,
			"0.022": 0.0,
			"0.023": 0.0,
			"0.024": 0.0,
			"0.025": 0.0
		}
	}
}
