{
	 "smiles": "[O-][N+](=O)C1=CC=CN=C1OC1=CC=C(Cl)C=C1", 
	 "Tm": 362.65, 
	 "num_atms": 24, 
	 "gaussian": { 
		 "optdone": 1, 
		 "sigma_profile": "yes", 
		 "theory": "DFT", 
		 "functional": "B3LYP", 
		 "basiset": "6-31G**", 
		 "properties": { 
			 "R2extent": 6986.4829, 
			 "electric_dipole_moment_norm": 4.17032210507, 
			 "electric_quadrupole_moment_norm": 17.7850539496, 
			 "total_energy": -1218.63449254, 
			 "HOMO_LUMO_gap": 0.15127, 
			 "cosmo_polarized_energy": -12.7, 
			 "cosmo_cavitation_energy": 32.3, 
			 "cosmo_dispersion_energy": -23.27, 
			 "cosmo_repulsion_energy": 1.82, 
			 "cosmo_total_nonelectrostatic_energy": 10.86, 
			 "SMD_solvation_energy": 6.95 
		},
		"coords": [
			{
				"x": 1.7107383298,
				"y": 1.7288276011,
				"z": -1.821468147,
				"element": "O" 
			},
			{
				"x": 0.5322440617,
				"y": 1.8841539986,
				"z": -2.123385072,
				"element": "N" 
			},
			{
				"x": 0.1099500805,
				"y": 2.7435234193,
				"z": -2.9012901171,
				"element": "O" 
			},
			{
				"x": -0.469826499,
				"y": 1.0063897412,
				"z": -1.5057879545,
				"element": "C" 
			},
			{
				"x": -1.7954409896,
				"y": 1.4304775591,
				"z": -1.5198684128,
				"element": "C" 
			},
			{
				"x": -2.7708912859,
				"y": 0.6423725644,
				"z": -0.9179781602,
				"element": "C" 
			},
			{
				"x": -2.362259671,
				"y": -0.5541357964,
				"z": -0.3315955219,
				"element": "C" 
			},
			{
				"x": -1.096653584,
				"y": -0.983315986,
				"z": -0.3299391724,
				"element": "N" 
			},
			{
				"x": -0.1584473876,
				"y": -0.2347752363,
				"z": -0.8989348697,
				"element": "C" 
			},
			{
				"x": 1.1138394731,
				"y": -0.678360597,
				"z": -0.9155215268,
				"element": "O" 
			},
			{
				"x": 1.4218031762,
				"y": -1.9454393327,
				"z": -0.4124441328,
				"element": "C" 
			},
			{
				"x": 1.0562304388,
				"y": -3.0971643281,
				"z": -1.1053904044,
				"element": "C" 
			},
			{
				"x": 1.4722343486,
				"y": -4.3398397072,
				"z": -0.6318790648,
				"element": "C" 
			},
			{
				"x": 2.2522216291,
				"y": -4.407000769,
				"z": 0.523763028,
				"element": "C" 
			},
			{
				"x": 2.7780057488,
				"y": -5.9746630464,
				"z": 1.1184736215,
				"element": "Cl" 
			},
			{
				"x": 2.6254341372,
				"y": -3.2526509087,
				"z": 1.2105551606,
				"element": "C" 
			},
			{
				"x": 2.2043751382,
				"y": -2.0102139181,
				"z": 0.7355071605,
				"element": "C" 
			},
			{
				"x": -2.0269808317,
				"y": 2.3721435662,
				"z": -2.0026280147,
				"element": "H" 
			},
			{
				"x": -3.8109776582,
				"y": 0.9467477284,
				"z": -0.9012940892,
				"element": "H" 
			},
			{
				"x": -3.08108545,
				"y": -1.2049892131,
				"z": 0.1618807853,
				"element": "H" 
			},
			{
				"x": 0.4547075986,
				"y": -3.0230637101,
				"z": -2.0043809757,
				"element": "H" 
			},
			{
				"x": 1.1975097766,
				"y": -5.2482075131,
				"z": -1.1559751001,
				"element": "H" 
			},
			{
				"x": 3.237404868,
				"y": -3.3226655657,
				"z": 2.1026149283,
				"element": "H" 
			},
			{
				"x": 2.4852645516,
				"y": -1.0937505506,
				"z": 1.2427660516,
				"element": "H" 
			}
		],
		 "valence_orbital": [ 
			{
				"type": "occ",
				"energy": -0.29478,
				"method": "rhf"
			},
			{
				"type": "occ",
				"energy": -0.28964,
				"method": "rhf"
			},
			{
				"type": "occ",
				"energy": -0.27413,
				"method": "rhf"
			},
			{
				"type": "occ",
				"energy": -0.27094,
				"method": "rhf"
			},
			{
				"type": "occ",
				"energy": -0.24552,
				"method": "rhf"
			},
			{
				"type": "unocc",
				"energy": -0.09425,
				"method": "rhf"
			},
			{
				"type": "unocc",
				"energy": -0.04253,
				"method": "rhf"
			},
			{
				"type": "unocc",
				"energy": -0.02442,
				"method": "rhf"
			},
			{
				"type": "unocc",
				"energy": -0.01774,
				"method": "rhf"
			},
			{
				"type": "unocc",
				"energy": -0.0126,
				"method": "rhf"
			}
		],
		"cosmo_sigma_profile": { 
			"-0.025": 0.0,
			"-0.024": 0.0,
			"-0.023": 0.0,
			"-0.022": 0.0,
			"-0.021": 0.0,
			"-0.02": 0.0,
			"-0.019": 0.0,
			"-0.018": 0.0,
			"-0.017": 0.0,
			"-0.016": 0.0,
			"-0.015": 0.0,
			"-0.014": 0.0,
			"-0.013": 0.0,
			"-0.012": 0.0,
			"-0.011": 0.0,
			"-0.01": 0.0,
			"-0.009": 1.03547370129,
			"-0.008": 10.1718216937,
			"-0.007": 17.2025068991,
			"-0.006": 15.2816993258,
			"-0.005": 13.6984324381,
			"-0.004": 14.2387265255,
			"-0.003": 17.3850452015,
			"-0.002": 15.3708489428,
			"-0.001": 18.4262797046,
			"0.0": 19.2282550264,
			"0.001": 20.1779249543,
			"0.002": 22.130602736,
			"0.003": 16.128970255,
			"0.004": 14.7421286413,
			"0.005": 9.8030730472,
			"0.006": 5.70266865196,
			"0.007": 8.39528061437,
			"0.008": 9.77891791998,
			"0.009": 7.53489788681,
			"0.01": 4.94045043032,
			"0.011": 1.35383743259,
			"0.012": 0.568416261262,
			"0.013": 0.0,
			"0.014": 0.0,
			"0.015": 0.0,
			"0.016": 0.0,
			"0.017": 0.0,
			"0.018": 0.0,
			"0.019": 0.0,
			"0.02": 0.0,
			"0.021": 0.0,
			"0.022": 0.0,
			"0.023": 0.0,
			"0.024": 0.0,
			"0.025": 0.0
		}
	}
}
