{
	 "smiles": "CN1C(C)=NN=C1CO", 
	 "Tm": 429.15, 
	 "num_atms": 18, 
	 "gaussian": { 
		 "optdone": 1, 
		 "sigma_profile": "yes", 
		 "theory": "DFT", 
		 "functional": "B3LYP", 
		 "basiset": "6-31G**", 
		 "properties": { 
			 "R2extent": 1909.5841, 
			 "electric_dipole_moment_norm": 5.71797958548, 
			 "electric_quadrupole_moment_norm": 18.6751934255, 
			 "total_energy": -435.407113008, 
			 "HOMO_LUMO_gap": 0.25322, 
			 "cosmo_polarized_energy": -19.63, 
			 "cosmo_cavitation_energy": 21.39, 
			 "cosmo_dispersion_energy": -15.85, 
			 "cosmo_repulsion_energy": 1.32, 
			 "cosmo_total_nonelectrostatic_energy": 6.85, 
			 "SMD_solvation_energy": 2.05 
		},
		"coords": [
			{
				"x": -1.5534747634,
				"y": 2.5156447645,
				"z": 0.1246593842,
				"element": "C" 
			},
			{
				"x": -0.8877605313,
				"y": 1.5653156364,
				"z": -0.7556179411,
				"element": "N" 
			},
			{
				"x": 0.4051420105,
				"y": 1.6151095179,
				"z": -1.2204892809,
				"element": "C" 
			},
			{
				"x": 1.3889939947,
				"y": 2.6781664912,
				"z": -0.8661875229,
				"element": "C" 
			},
			{
				"x": 0.6439056252,
				"y": 0.5885100627,
				"z": -2.0079401524,
				"element": "N" 
			},
			{
				"x": -0.5075038924,
				"y": -0.1670198698,
				"z": -2.0680363113,
				"element": "N" 
			},
			{
				"x": -1.410243814,
				"y": 0.4263856887,
				"z": -1.3215762488,
				"element": "C" 
			},
			{
				"x": -2.8144126732,
				"y": -0.0495194432,
				"z": -1.1555089716,
				"element": "C" 
			},
			{
				"x": -3.1041685782,
				"y": -0.1992942773,
				"z": 0.2366984602,
				"element": "O" 
			},
			{
				"x": -1.8950666076,
				"y": 3.396368752,
				"z": -0.4302277156,
				"element": "H" 
			},
			{
				"x": -0.863797699,
				"y": 2.840302343,
				"z": 0.9074274594,
				"element": "H" 
			},
			{
				"x": -2.403657588,
				"y": 2.0184344339,
				"z": 0.5908057829,
				"element": "H" 
			},
			{
				"x": 1.0507851038,
				"y": 3.6729769956,
				"z": -1.1784406224,
				"element": "H" 
			},
			{
				"x": 2.3276871613,
				"y": 2.4554418893,
				"z": -1.3753868131,
				"element": "H" 
			},
			{
				"x": 1.5811987262,
				"y": 2.7153716404,
				"z": 0.2126815987,
				"element": "H" 
			},
			{
				"x": -2.8868489892,
				"y": -0.9982102974,
				"z": -1.7010012816,
				"element": "H" 
			},
			{
				"x": -3.5146437988,
				"y": 0.663476381,
				"z": -1.6216081063,
				"element": "H" 
			},
			{
				"x": -4.0184336866,
				"y": -0.500160709,
				"z": 0.3159482825,
				"element": "H" 
			}
		],
		 "valence_orbital": [ 
			{
				"type": "occ",
				"energy": -0.2966,
				"method": "rhf"
			},
			{
				"type": "occ",
				"energy": -0.28553,
				"method": "rhf"
			},
			{
				"type": "occ",
				"energy": -0.27703,
				"method": "rhf"
			},
			{
				"type": "occ",
				"energy": -0.24021,
				"method": "rhf"
			},
			{
				"type": "occ",
				"energy": -0.23926,
				"method": "rhf"
			},
			{
				"type": "unocc",
				"energy": 0.01396,
				"method": "rhf"
			},
			{
				"type": "unocc",
				"energy": 0.04978,
				"method": "rhf"
			},
			{
				"type": "unocc",
				"energy": 0.07499,
				"method": "rhf"
			},
			{
				"type": "unocc",
				"energy": 0.09032,
				"method": "rhf"
			},
			{
				"type": "unocc",
				"energy": 0.12236,
				"method": "rhf"
			}
		],
		"cosmo_sigma_profile": { 
			"-0.025": 0.0,
			"-0.024": 0.0,
			"-0.023": 0.0,
			"-0.022": 0.0,
			"-0.021": 0.0,
			"-0.02": 0.0,
			"-0.019": 0.0,
			"-0.018": 0.0,
			"-0.017": 0.451245322368,
			"-0.016": 1.1111629765,
			"-0.015": 0.900760125932,
			"-0.014": 1.19452916983,
			"-0.013": 0.851471208839,
			"-0.012": 0.510570605294,
			"-0.011": 0.963871539364,
			"-0.01": 1.05196378993,
			"-0.009": 0.772962386623,
			"-0.008": 1.32552549893,
			"-0.007": 4.75052019487,
			"-0.006": 15.4351872305,
			"-0.005": 19.5920626667,
			"-0.004": 18.6163988765,
			"-0.003": 17.0439764119,
			"-0.002": 11.0841263077,
			"-0.001": 8.90985563719,
			"0.0": 6.34772599164,
			"0.001": 4.37909299607,
			"0.002": 4.10722934973,
			"0.003": 3.81418430923,
			"0.004": 4.28296675825,
			"0.005": 3.55000960556,
			"0.006": 3.19768069555,
			"0.007": 3.54016668617,
			"0.008": 2.82138600696,
			"0.009": 2.28759056579,
			"0.01": 3.31978766526,
			"0.011": 2.89153588484,
			"0.012": 3.84589525843,
			"0.013": 2.93707372924,
			"0.014": 3.60226483804,
			"0.015": 3.33952031859,
			"0.016": 2.54382915849,
			"0.017": 2.39938010129,
			"0.018": 0.76678313992,
			"0.019": 0.0,
			"0.02": 0.0,
			"0.021": 0.0,
			"0.022": 0.0,
			"0.023": 0.0,
			"0.024": 0.0,
			"0.025": 0.0
		}
	}
}
