{
	 "smiles": "CCS(=O)(=O)C1=CC2=C(OC(=O)CN2CC(O)=O)C=C1", 
	 "Tm": 462.15, 
	 "num_atms": 33, 
	 "gaussian": { 
		 "optdone": 1, 
		 "sigma_profile": "yes", 
		 "theory": "DFT", 
		 "functional": "B3LYP", 
		 "basiset": "6-31G**", 
		 "properties": { 
			 "R2extent": 7670.4634, 
			 "electric_dipole_moment_norm": 5.55968190817, 
			 "electric_quadrupole_moment_norm": 33.8273407146, 
			 "total_energy": -1369.33985163, 
			 "HOMO_LUMO_gap": 0.18321, 
			 "cosmo_polarized_energy": -27.28, 
			 "cosmo_cavitation_energy": 38.55, 
			 "cosmo_dispersion_energy": -27.72, 
			 "cosmo_repulsion_energy": 2.1, 
			 "cosmo_total_nonelectrostatic_energy": 12.92, 
			 "SMD_solvation_energy": 7.23 
		},
		"coords": [
			{
				"x": 0.4696410949,
				"y": 3.5215784159,
				"z": 1.7446574315,
				"element": "C" 
			},
			{
				"x": 1.5431074401,
				"y": 2.5087025481,
				"z": 1.3647298834,
				"element": "C" 
			},
			{
				"x": 1.5411653338,
				"y": 2.050938374,
				"z": -0.4012192708,
				"element": "S" 
			},
			{
				"x": 1.4213497203,
				"y": 3.2904727437,
				"z": -1.1871137876,
				"element": "O" 
			},
			{
				"x": 2.6726970187,
				"y": 1.1267302276,
				"z": -0.5944130735,
				"element": "O" 
			},
			{
				"x": 0.0258943514,
				"y": 1.105714637,
				"z": -0.6323059732,
				"element": "C" 
			},
			{
				"x": 0.0740273708,
				"y": -0.2762698689,
				"z": -0.4335301778,
				"element": "C" 
			},
			{
				"x": -1.080900318,
				"y": -1.0485156249,
				"z": -0.6130368626,
				"element": "C" 
			},
			{
				"x": -2.2697293499,
				"y": -0.370901878,
				"z": -0.961642024,
				"element": "C" 
			},
			{
				"x": -3.4421315257,
				"y": -1.0652435478,
				"z": -1.1915542807,
				"element": "O" 
			},
			{
				"x": -3.6026703268,
				"y": -2.343749632,
				"z": -0.7216890983,
				"element": "C" 
			},
			{
				"x": -4.6479293792,
				"y": -2.9088932258,
				"z": -0.8889718772,
				"element": "O" 
			},
			{
				"x": -2.4216735518,
				"y": -2.9301421022,
				"z": 0.03131392,
				"element": "C" 
			},
			{
				"x": -1.1524325178,
				"y": -2.4409393377,
				"z": -0.5039405571,
				"element": "N" 
			},
			{
				"x": 0.0363120865,
				"y": -3.1814596104,
				"z": -0.1432576409,
				"element": "C" 
			},
			{
				"x": 0.0148743282,
				"y": -4.6272844944,
				"z": -0.6236568655,
				"element": "C" 
			},
			{
				"x": 1.1518678984,
				"y": -5.2449427714,
				"z": -0.2375452152,
				"element": "O" 
			},
			{
				"x": -0.8594767719,
				"y": -5.1708787505,
				"z": -1.2562969216,
				"element": "O" 
			},
			{
				"x": -2.3084021556,
				"y": 1.0038092562,
				"z": -1.1537324256,
				"element": "C" 
			},
			{
				"x": -1.1476857417,
				"y": 1.7618734971,
				"z": -0.9982550513,
				"element": "C" 
			},
			{
				"x": 0.5644777102,
				"y": 4.4267264817,
				"z": 1.1405131518,
				"element": "H" 
			},
			{
				"x": -0.5354845707,
				"y": 3.1134795364,
				"z": 1.6057787892,
				"element": "H" 
			},
			{
				"x": 0.5796314556,
				"y": 3.7945526013,
				"z": 2.7985128455,
				"element": "H" 
			},
			{
				"x": 1.4639197512,
				"y": 1.5701678002,
				"z": 1.920614658,
				"element": "H" 
			},
			{
				"x": 2.5530047919,
				"y": 2.9054080457,
				"z": 1.5109373979,
				"element": "H" 
			},
			{
				"x": 1.022685314,
				"y": -0.725697417,
				"z": -0.1678440318,
				"element": "H" 
			},
			{
				"x": -2.5452216602,
				"y": -2.6861658463,
				"z": 1.1030244818,
				"element": "H" 
			},
			{
				"x": -2.4809886982,
				"y": -4.0090418351,
				"z": -0.0927046115,
				"element": "H" 
			},
			{
				"x": 0.9065299927,
				"y": -2.722929055,
				"z": -0.6206407101,
				"element": "H" 
			},
			{
				"x": 0.2431695685,
				"y": -3.1850988742,
				"z": 0.9410366501,
				"element": "H" 
			},
			{
				"x": 1.1043073681,
				"y": -6.1550634491,
				"z": -0.5759386061,
				"element": "H" 
			},
			{
				"x": -3.2492856916,
				"y": 1.4574659836,
				"z": -1.4457335092,
				"element": "H" 
			},
			{
				"x": -1.1440503364,
				"y": 2.8298971724,
				"z": -1.1805966376,
				"element": "H" 
			}
		],
		 "valence_orbital": [ 
			{
				"type": "occ",
				"energy": -0.29817,
				"method": "rhf"
			},
			{
				"type": "occ",
				"energy": -0.29284,
				"method": "rhf"
			},
			{
				"type": "occ",
				"energy": -0.28603,
				"method": "rhf"
			},
			{
				"type": "occ",
				"energy": -0.26939,
				"method": "rhf"
			},
			{
				"type": "occ",
				"energy": -0.23087,
				"method": "rhf"
			},
			{
				"type": "unocc",
				"energy": -0.04766,
				"method": "rhf"
			},
			{
				"type": "unocc",
				"energy": -0.02658,
				"method": "rhf"
			},
			{
				"type": "unocc",
				"energy": -0.0173,
				"method": "rhf"
			},
			{
				"type": "unocc",
				"energy": -0.00634,
				"method": "rhf"
			},
			{
				"type": "unocc",
				"energy": 0.05394,
				"method": "rhf"
			}
		],
		"cosmo_sigma_profile": { 
			"-0.025": 0.0,
			"-0.024": 0.0,
			"-0.023": 0.0,
			"-0.022": 0.0,
			"-0.021": 0.0,
			"-0.02": 0.00652749448871,
			"-0.019": 0.556959023526,
			"-0.018": 0.788105631726,
			"-0.017": 1.3473605235,
			"-0.016": 0.492694220415,
			"-0.015": 0.512946738343,
			"-0.014": 0.3935096488,
			"-0.013": 1.25654522168,
			"-0.012": 1.03316697094,
			"-0.011": 0.972445403309,
			"-0.01": 2.39550708548,
			"-0.009": 4.82941414519,
			"-0.008": 14.1075770102,
			"-0.007": 19.8400464219,
			"-0.006": 18.9458773395,
			"-0.005": 16.671559662,
			"-0.004": 19.0861161994,
			"-0.003": 22.074190919,
			"-0.002": 16.491626406,
			"-0.001": 19.7140459946,
			"0.0": 16.8350442104,
			"0.001": 18.9642470926,
			"0.002": 13.6822044755,
			"0.003": 9.13373790604,
			"0.004": 7.23613357623,
			"0.005": 6.99670200829,
			"0.006": 7.4273354518,
			"0.007": 7.17230506748,
			"0.008": 9.66281829473,
			"0.009": 9.53340577761,
			"0.01": 12.5114988741,
			"0.011": 15.4022742027,
			"0.012": 9.23113574716,
			"0.013": 1.21206424224,
			"0.014": 0.0,
			"0.015": 0.0,
			"0.016": 0.0,
			"0.017": 0.0,
			"0.018": 0.0,
			"0.019": 0.0,
			"0.02": 0.0,
			"0.021": 0.0,
			"0.022": 0.0,
			"0.023": 0.0,
			"0.024": 0.0,
			"0.025": 0.0
		}
	}
}
