{
	 "smiles": "CC(=O)NC1=CC=C(C#N)C(C)=C1", 
	 "Tm": 436.15, 
	 "num_atms": 23, 
	 "gaussian": { 
		 "optdone": 1, 
		 "sigma_profile": "yes", 
		 "theory": "DFT", 
		 "functional": "B3LYP", 
		 "basiset": "6-31G**", 
		 "properties": { 
			 "R2extent": 3237.3947, 
			 "electric_dipole_moment_norm": 1.83097382013, 
			 "electric_quadrupole_moment_norm": 34.8449643104, 
			 "total_energy": -571.826965339, 
			 "HOMO_LUMO_gap": 0.18284, 
			 "cosmo_polarized_energy": -16.44, 
			 "cosmo_cavitation_energy": 28.16, 
			 "cosmo_dispersion_energy": -19.61, 
			 "cosmo_repulsion_energy": 1.56, 
			 "cosmo_total_nonelectrostatic_energy": 10.1, 
			 "SMD_solvation_energy": 6.97 
		},
		"coords": [
			{
				"x": 2.0061880293,
				"y": -2.1694559707,
				"z": -2.4669785456,
				"element": "C" 
			},
			{
				"x": 1.7236217725,
				"y": -0.7550782503,
				"z": -2.9304685454,
				"element": "C" 
			},
			{
				"x": 2.2140616769,
				"y": -0.2970160764,
				"z": -3.9500044572,
				"element": "O" 
			},
			{
				"x": 0.9010438375,
				"y": 0.064530547,
				"z": -2.1612131737,
				"element": "N" 
			},
			{
				"x": 0.2078227986,
				"y": -0.1273258627,
				"z": -0.9562935169,
				"element": "C" 
			},
			{
				"x": 0.0403953719,
				"y": 0.9841635986,
				"z": -0.1114243202,
				"element": "C" 
			},
			{
				"x": -0.6627565287,
				"y": 0.8588669407,
				"z": 1.0760316412,
				"element": "C" 
			},
			{
				"x": -1.2096293806,
				"y": -0.3787623565,
				"z": 1.4544270336,
				"element": "C" 
			},
			{
				"x": -1.9223182522,
				"y": -0.4901938765,
				"z": 2.6910507818,
				"element": "C" 
			},
			{
				"x": -2.5022762017,
				"y": -0.5879737871,
				"z": 3.6957262473,
				"element": "N" 
			},
			{
				"x": -1.0652371337,
				"y": -1.5046527825,
				"z": 0.6122555927,
				"element": "C" 
			},
			{
				"x": -1.6695959927,
				"y": -2.8337812951,
				"z": 0.989798826,
				"element": "C" 
			},
			{
				"x": -0.3681626297,
				"y": -1.3541102577,
				"z": -0.587031317,
				"element": "C" 
			},
			{
				"x": 2.9409655172,
				"y": -2.4791297496,
				"z": -2.9350067591,
				"element": "H" 
			},
			{
				"x": 1.2179062724,
				"y": -2.8481785133,
				"z": -2.8098682001,
				"element": "H" 
			},
			{
				"x": 2.0836143832,
				"y": -2.2548181227,
				"z": -1.3807777645,
				"element": "H" 
			},
			{
				"x": 0.912810062,
				"y": 1.0122902198,
				"z": -2.5199165308,
				"element": "H" 
			},
			{
				"x": 0.4767245842,
				"y": 1.9397360657,
				"z": -0.3870251847,
				"element": "H" 
			},
			{
				"x": -0.7864378939,
				"y": 1.7169423761,
				"z": 1.7282469498,
				"element": "H" 
			},
			{
				"x": -1.2400084889,
				"y": -3.2100766764,
				"z": 1.9246956615,
				"element": "H" 
			},
			{
				"x": -2.7489325933,
				"y": -2.7464933778,
				"z": 1.1527180701,
				"element": "H" 
			},
			{
				"x": -1.4990570499,
				"y": -3.5805743437,
				"z": 0.2109251901,
				"element": "H" 
			},
			{
				"x": -0.3019421604,
				"y": -2.204008449,
				"z": -1.2541676786,
				"element": "H" 
			}
		],
		 "valence_orbital": [ 
			{
				"type": "occ",
				"energy": -0.33046,
				"method": "rhf"
			},
			{
				"type": "occ",
				"energy": -0.3068,
				"method": "rhf"
			},
			{
				"type": "occ",
				"energy": -0.27578,
				"method": "rhf"
			},
			{
				"type": "occ",
				"energy": -0.26858,
				"method": "rhf"
			},
			{
				"type": "occ",
				"energy": -0.2399,
				"method": "rhf"
			},
			{
				"type": "unocc",
				"energy": -0.05706,
				"method": "rhf"
			},
			{
				"type": "unocc",
				"energy": -0.02918,
				"method": "rhf"
			},
			{
				"type": "unocc",
				"energy": 0.01047,
				"method": "rhf"
			},
			{
				"type": "unocc",
				"energy": 0.0341,
				"method": "rhf"
			},
			{
				"type": "unocc",
				"energy": 0.06495,
				"method": "rhf"
			}
		],
		"cosmo_sigma_profile": { 
			"-0.025": 0.0,
			"-0.024": 0.0,
			"-0.023": 0.0,
			"-0.022": 0.0,
			"-0.021": 0.0,
			"-0.02": 0.0,
			"-0.019": 0.0,
			"-0.018": 0.0,
			"-0.017": 0.0,
			"-0.016": 0.0,
			"-0.015": 0.441668777303,
			"-0.014": 0.932028013499,
			"-0.013": 1.46220501934,
			"-0.012": 0.638980574479,
			"-0.011": 1.02186283276,
			"-0.01": 1.37091753351,
			"-0.009": 2.2487248167,
			"-0.008": 5.80003164661,
			"-0.007": 8.43462594683,
			"-0.006": 11.3174612123,
			"-0.005": 16.1460944637,
			"-0.004": 15.5926814039,
			"-0.003": 17.7730583201,
			"-0.002": 20.5365537976,
			"-0.001": 21.1220492442,
			"0.0": 15.1432401455,
			"0.001": 13.8692077831,
			"0.002": 16.2030616884,
			"0.003": 6.80981940915,
			"0.004": 3.70672810995,
			"0.005": 3.11096292984,
			"0.006": 3.4432684126,
			"0.007": 3.78244740981,
			"0.008": 4.68170444673,
			"0.009": 4.26082382917,
			"0.01": 4.45044447414,
			"0.011": 5.38958301932,
			"0.012": 5.78188764429,
			"0.013": 7.56328145214,
			"0.014": 1.91276052582,
			"0.015": 0.0691339442479,
			"0.016": 0.0,
			"0.017": 0.0,
			"0.018": 0.0,
			"0.019": 0.0,
			"0.02": 0.0,
			"0.021": 0.0,
			"0.022": 0.0,
			"0.023": 0.0,
			"0.024": 0.0,
			"0.025": 0.0
		}
	}
}
