{
	 "smiles": "C[C@@H](OC1=CC=C(OC2=NC3=C(O2)C=C(Cl)C=C3)C=C1)C(=O)N(C)C1=CC=CC=C1F", 
	 "Tm": 350.65, 
	 "num_atms": 49, 
	 "gaussian": { 
		 "optdone": 1, 
		 "sigma_profile": "yes", 
		 "theory": "DFT", 
		 "functional": "B3LYP", 
		 "basiset": "6-31G**", 
		 "properties": { 
			 "R2extent": 23044.309, 
			 "electric_dipole_moment_norm": 5.90011762425, 
			 "electric_quadrupole_moment_norm": 11.9572386193, 
			 "total_energy": -1857.70679088, 
			 "HOMO_LUMO_gap": 0.18233, 
			 "cosmo_polarized_energy": -14.81, 
			 "cosmo_cavitation_energy": 55.74, 
			 "cosmo_dispersion_energy": -38.42, 
			 "cosmo_repulsion_energy": 2.85, 
			 "cosmo_total_nonelectrostatic_energy": 20.18, 
			 "SMD_solvation_energy": 10.13 
		},
		"coords": [
			{
				"x": 3.7373359065,
				"y": -2.9760676175,
				"z": 2.1011419525,
				"element": "C" 
			},
			{
				"x": 2.5419095567,
				"y": -2.4532111316,
				"z": 1.3067466276,
				"element": "C" 
			},
			{
				"x": 2.4690781851,
				"y": -1.0440730258,
				"z": 1.5248465493,
				"element": "O" 
			},
			{
				"x": 1.2621526484,
				"y": -0.4102820994,
				"z": 1.366145862,
				"element": "C" 
			},
			{
				"x": 1.2140729571,
				"y": 0.9107731596,
				"z": 1.835280959,
				"element": "C" 
			},
			{
				"x": 0.0434861925,
				"y": 1.6460725315,
				"z": 1.7273403573,
				"element": "C" 
			},
			{
				"x": -1.0883744082,
				"y": 1.062372121,
				"z": 1.1521597114,
				"element": "C" 
			},
			{
				"x": -2.1954724152,
				"y": 1.9224905314,
				"z": 1.112454553,
				"element": "O" 
			},
			{
				"x": -3.3814174402,
				"y": 1.6090358862,
				"z": 0.6243355716,
				"element": "C" 
			},
			{
				"x": -3.8376172226,
				"y": 0.5215540704,
				"z": 0.0875200011,
				"element": "N" 
			},
			{
				"x": -5.1647688702,
				"y": 0.8416082029,
				"z": -0.2163682923,
				"element": "C" 
			},
			{
				"x": -5.4172342866,
				"y": 2.1619512807,
				"z": 0.1803962279,
				"element": "C" 
			},
			{
				"x": -4.2549887324,
				"y": 2.659920549,
				"z": 0.7275244786,
				"element": "O" 
			},
			{
				"x": -6.6318039052,
				"y": 2.8062872733,
				"z": 0.0289118879,
				"element": "C" 
			},
			{
				"x": -7.6345399076,
				"y": 2.0344776995,
				"z": -0.566763943,
				"element": "C" 
			},
			{
				"x": -9.2195086065,
				"y": 2.7588223262,
				"z": -0.8066800899,
				"element": "Cl" 
			},
			{
				"x": -7.4262571794,
				"y": 0.7099787207,
				"z": -0.9789467689,
				"element": "C" 
			},
			{
				"x": -6.1834964222,
				"y": 0.0957965129,
				"z": -0.8076697108,
				"element": "C" 
			},
			{
				"x": -1.0600394037,
				"y": -0.2452474503,
				"z": 0.6799648453,
				"element": "C" 
			},
			{
				"x": 0.1257082419,
				"y": -0.9825001974,
				"z": 0.78775194,
				"element": "C" 
			},
			{
				"x": 2.5683270083,
				"y": -2.8736976896,
				"z": -0.1816129106,
				"element": "C" 
			},
			{
				"x": 1.8509551579,
				"y": -3.8110145177,
				"z": -0.5201672648,
				"element": "O" 
			},
			{
				"x": 3.3859651017,
				"y": -2.2214412141,
				"z": -1.0770611809,
				"element": "N" 
			},
			{
				"x": 3.2931079434,
				"y": -2.5834241392,
				"z": -2.496991967,
				"element": "C" 
			},
			{
				"x": 4.2888527108,
				"y": -1.1547317255,
				"z": -0.7739755042,
				"element": "C" 
			},
			{
				"x": 5.6213068414,
				"y": -1.4010029767,
				"z": -0.4281704511,
				"element": "C" 
			},
			{
				"x": 6.509308365,
				"y": -0.3458082371,
				"z": -0.209523369,
				"element": "C" 
			},
			{
				"x": 6.0738223089,
				"y": 0.9721007942,
				"z": -0.3576903653,
				"element": "C" 
			},
			{
				"x": 4.7541589932,
				"y": 1.2394538437,
				"z": -0.7271468051,
				"element": "C" 
			},
			{
				"x": 3.887707067,
				"y": 0.1753690853,
				"z": -0.9367797859,
				"element": "C" 
			},
			{
				"x": 2.6184115033,
				"y": 0.4228986136,
				"z": -1.3078921186,
				"element": "F" 
			},
			{
				"x": 3.8581343859,
				"y": -4.0494901441,
				"z": 1.9292185656,
				"element": "H" 
			},
			{
				"x": 3.563724463,
				"y": -2.8107159644,
				"z": 3.1678242162,
				"element": "H" 
			},
			{
				"x": 4.6570900715,
				"y": -2.461460029,
				"z": 1.8189686417,
				"element": "H" 
			},
			{
				"x": 1.6326093601,
				"y": -2.9307565364,
				"z": 1.6856167156,
				"element": "H" 
			},
			{
				"x": 2.1037149349,
				"y": 1.3385953332,
				"z": 2.2846806295,
				"element": "H" 
			},
			{
				"x": -0.0122955542,
				"y": 2.6678710262,
				"z": 2.0872197461,
				"element": "H" 
			},
			{
				"x": -6.8001622679,
				"y": 3.828145266,
				"z": 0.3445372088,
				"element": "H" 
			},
			{
				"x": -8.2453722599,
				"y": 0.1654321667,
				"z": -1.434455614,
				"element": "H" 
			},
			{
				"x": -6.0158507025,
				"y": -0.9277614008,
				"z": -1.1240885437,
				"element": "H" 
			},
			{
				"x": -1.9397869735,
				"y": -0.6847056135,
				"z": 0.2315000139,
				"element": "H" 
			},
			{
				"x": 0.1423680437,
				"y": -1.9928370929,
				"z": 0.3962551945,
				"element": "H" 
			},
			{
				"x": 2.935450379,
				"y": -1.7271562935,
				"z": -3.0781444581,
				"element": "H" 
			},
			{
				"x": 4.2747884906,
				"y": -2.8854995875,
				"z": -2.8753268184,
				"element": "H" 
			},
			{
				"x": 2.5916509109,
				"y": -3.4111285258,
				"z": -2.5878198766,
				"element": "H" 
			},
			{
				"x": 5.9504798945,
				"y": -2.4314975661,
				"z": -0.3347772208,
				"element": "H" 
			},
			{
				"x": 7.5380079406,
				"y": -0.5538863223,
				"z": 0.0667166219,
				"element": "H" 
			},
			{
				"x": 6.7603982551,
				"y": 1.796475046,
				"z": -0.191387856,
				"element": "H" 
			},
			{
				"x": 4.3874027389,
				"y": 2.2518150582,
				"z": -0.8573181634,
				"element": "H" 
			}
		],
		 "valence_orbital": [ 
			{
				"type": "occ",
				"energy": -0.25728,
				"method": "rhf"
			},
			{
				"type": "occ",
				"energy": -0.25592,
				"method": "rhf"
			},
			{
				"type": "occ",
				"energy": -0.2518,
				"method": "rhf"
			},
			{
				"type": "occ",
				"energy": -0.2334,
				"method": "rhf"
			},
			{
				"type": "occ",
				"energy": -0.21072,
				"method": "rhf"
			},
			{
				"type": "unocc",
				"energy": -0.02839,
				"method": "rhf"
			},
			{
				"type": "unocc",
				"energy": -0.02687,
				"method": "rhf"
			},
			{
				"type": "unocc",
				"energy": -0.01419,
				"method": "rhf"
			},
			{
				"type": "unocc",
				"energy": -0.01039,
				"method": "rhf"
			},
			{
				"type": "unocc",
				"energy": -0.00286,
				"method": "rhf"
			}
		],
		"cosmo_sigma_profile": { 
			"-0.025": 0.0,
			"-0.024": 0.0,
			"-0.023": 0.0,
			"-0.022": 0.0,
			"-0.021": 0.0,
			"-0.02": 0.0,
			"-0.019": 0.0,
			"-0.018": 0.0,
			"-0.017": 0.0,
			"-0.016": 0.0,
			"-0.015": 0.0,
			"-0.014": 0.0,
			"-0.013": 0.0,
			"-0.012": 0.0,
			"-0.011": 0.0,
			"-0.01": 0.0,
			"-0.009": 1.01530693091,
			"-0.008": 3.27363494057,
			"-0.007": 13.0288746407,
			"-0.006": 17.933661564,
			"-0.005": 32.0092736353,
			"-0.004": 33.5014064514,
			"-0.003": 36.752073028,
			"-0.002": 34.5816923384,
			"-0.001": 35.1083805205,
			"0.0": 36.4419837597,
			"0.001": 39.0750303133,
			"0.002": 43.5001254422,
			"0.003": 38.3663050759,
			"0.004": 37.8289931298,
			"0.005": 19.2126461581,
			"0.006": 6.20256270247,
			"0.007": 3.95258254612,
			"0.008": 5.03633774659,
			"0.009": 2.45320243275,
			"0.01": 1.90817844136,
			"0.011": 0.85885215189,
			"0.012": 2.78080844218,
			"0.013": 3.88931183289,
			"0.014": 1.06532884194,
			"0.015": 0.0,
			"0.016": 0.0,
			"0.017": 0.0,
			"0.018": 0.0,
			"0.019": 0.0,
			"0.02": 0.0,
			"0.021": 0.0,
			"0.022": 0.0,
			"0.023": 0.0,
			"0.024": 0.0,
			"0.025": 0.0
		}
	}
}
