{
	 "smiles": "CC(N)C1=CC(=CC=C1)S(N)(=O)=O", 
	 "Tm": 301.15, 
	 "num_atms": 25, 
	 "gaussian": { 
		 "optdone": 1, 
		 "sigma_profile": "yes", 
		 "theory": "DFT", 
		 "functional": "B3LYP", 
		 "basiset": "6-31G**", 
		 "properties": { 
			 "R2extent": 3866.6504, 
			 "electric_dipole_moment_norm": 4.41493302894, 
			 "electric_quadrupole_moment_norm": 20.246646794, 
			 "total_energy": -970.157007696, 
			 "HOMO_LUMO_gap": 0.21083, 
			 "cosmo_polarized_energy": -17.9, 
			 "cosmo_cavitation_energy": 29.76, 
			 "cosmo_dispersion_energy": -21.82, 
			 "cosmo_repulsion_energy": 1.73, 
			 "cosmo_total_nonelectrostatic_energy": 9.67, 
			 "SMD_solvation_energy": 4.11 
		},
		"coords": [
			{
				"x": 0.8690298048,
				"y": -1.754481471,
				"z": -1.9048773361,
				"element": "C" 
			},
			{
				"x": -0.5993909938,
				"y": -1.8542834879,
				"z": -1.4590843673,
				"element": "C" 
			},
			{
				"x": -0.6613787095,
				"y": -2.644868888,
				"z": -0.225851807,
				"element": "N" 
			},
			{
				"x": -1.1901145353,
				"y": -0.4687516498,
				"z": -1.226910532,
				"element": "C" 
			},
			{
				"x": -1.1338671371,
				"y": 0.1358335304,
				"z": 0.0324714204,
				"element": "C" 
			},
			{
				"x": -1.6512263303,
				"y": 1.4208568138,
				"z": 0.2011372507,
				"element": "C" 
			},
			{
				"x": -2.2372755277,
				"y": 2.1254958734,
				"z": -0.8496470015,
				"element": "C" 
			},
			{
				"x": -2.2954084729,
				"y": 1.51753749,
				"z": -2.1045447962,
				"element": "C" 
			},
			{
				"x": -1.7778947077,
				"y": 0.235495762,
				"z": -2.2872348899,
				"element": "C" 
			},
			{
				"x": -1.585267204,
				"y": 2.1791895496,
				"z": 1.8248557763,
				"element": "S" 
			},
			{
				"x": 0.0194957062,
				"y": 2.7225158398,
				"z": 1.9381936962,
				"element": "N" 
			},
			{
				"x": -1.7302223732,
				"y": 1.1239838308,
				"z": 2.8320709681,
				"element": "O" 
			},
			{
				"x": -2.4583141757,
				"y": 3.3582983736,
				"z": 1.8003305168,
				"element": "O" 
			},
			{
				"x": 1.2775051165,
				"y": -2.7504189885,
				"z": -2.1131816595,
				"element": "H" 
			},
			{
				"x": 0.9622606609,
				"y": -1.1542027313,
				"z": -2.8142467013,
				"element": "H" 
			},
			{
				"x": 1.4704858113,
				"y": -1.2925485751,
				"z": -1.1166470698,
				"element": "H" 
			},
			{
				"x": -1.1669693695,
				"y": -2.3106784767,
				"z": -2.2903473078,
				"element": "H" 
			},
			{
				"x": -1.6286983203,
				"y": -2.814641049,
				"z": 0.0392887527,
				"element": "H" 
			},
			{
				"x": -0.2294787834,
				"y": -3.5529664521,
				"z": -0.3747911512,
				"element": "H" 
			},
			{
				"x": -0.7087403837,
				"y": -0.4091860122,
				"z": 0.8676875594,
				"element": "H" 
			},
			{
				"x": -2.6516683788,
				"y": 3.1119020137,
				"z": -0.6753223781,
				"element": "H" 
			},
			{
				"x": -2.7568359958,
				"y": 2.0406807826,
				"z": -2.9368071524,
				"element": "H" 
			},
			{
				"x": -1.8391771846,
				"y": -0.2328776707,
				"z": -3.2669720862,
				"element": "H" 
			},
			{
				"x": 0.0340933406,
				"y": 3.7391475922,
				"z": 1.9314285022,
				"element": "H" 
			},
			{
				"x": 0.4249581433,
				"y": 2.3550680003,
				"z": 2.7953017935,
				"element": "H" 
			}
		],
		 "valence_orbital": [ 
			{
				"type": "occ",
				"energy": -0.29863,
				"method": "rhf"
			},
			{
				"type": "occ",
				"energy": -0.29406,
				"method": "rhf"
			},
			{
				"type": "occ",
				"energy": -0.26046,
				"method": "rhf"
			},
			{
				"type": "occ",
				"energy": -0.25958,
				"method": "rhf"
			},
			{
				"type": "occ",
				"energy": -0.24282,
				"method": "rhf"
			},
			{
				"type": "unocc",
				"energy": -0.03199,
				"method": "rhf"
			},
			{
				"type": "unocc",
				"energy": -0.01354,
				"method": "rhf"
			},
			{
				"type": "unocc",
				"energy": 0.06017,
				"method": "rhf"
			},
			{
				"type": "unocc",
				"energy": 0.07475,
				"method": "rhf"
			},
			{
				"type": "unocc",
				"energy": 0.09165,
				"method": "rhf"
			}
		],
		"cosmo_sigma_profile": { 
			"-0.025": 0.0,
			"-0.024": 0.0,
			"-0.023": 0.0,
			"-0.022": 0.0,
			"-0.021": 0.0,
			"-0.02": 0.0,
			"-0.019": 0.0,
			"-0.018": 0.0,
			"-0.017": 0.0,
			"-0.016": 0.0,
			"-0.015": 0.83197061281,
			"-0.014": 2.46473810479,
			"-0.013": 2.09117354874,
			"-0.012": 2.52939912806,
			"-0.011": 2.67134034026,
			"-0.01": 3.27451207218,
			"-0.009": 4.26856848956,
			"-0.008": 4.31202130818,
			"-0.007": 6.78357494588,
			"-0.006": 11.6580743146,
			"-0.005": 11.8729433828,
			"-0.004": 13.5387958772,
			"-0.003": 17.6774685244,
			"-0.002": 17.7033704622,
			"-0.001": 14.4256869453,
			"0.0": 16.8552962437,
			"0.001": 15.7571604149,
			"0.002": 12.6378096635,
			"0.003": 15.1387429811,
			"0.004": 9.1486798578,
			"0.005": 4.50568219517,
			"0.006": 4.11181178927,
			"0.007": 5.36726496408,
			"0.008": 4.42125135215,
			"0.009": 4.38822082709,
			"0.01": 7.69149910329,
			"0.011": 10.6886050229,
			"0.012": 5.59050907441,
			"0.013": 0.621406590141,
			"0.014": 0.53042429189,
			"0.015": 0.150033145419,
			"0.016": 0.551512842267,
			"0.017": 0.0776469090342,
			"0.018": 0.0,
			"0.019": 0.0,
			"0.02": 0.0,
			"0.021": 0.0,
			"0.022": 0.0,
			"0.023": 0.0,
			"0.024": 0.0,
			"0.025": 0.0
		}
	}
}
