{
	 "smiles": "OC1CCCC(O)C1", 
	 "Tm": 303.15, 
	 "num_atms": 20, 
	 "gaussian": { 
		 "optdone": 1, 
		 "sigma_profile": "yes", 
		 "theory": "DFT", 
		 "functional": "B3LYP", 
		 "basiset": "6-31G**", 
		 "properties": { 
			 "R2extent": 975.2683, 
			 "electric_dipole_moment_norm": 3.30317372386, 
			 "electric_quadrupole_moment_norm": 5.64856058921, 
			 "total_energy": -386.321827726, 
			 "HOMO_LUMO_gap": 0.29775, 
			 "cosmo_polarized_energy": -9.12, 
			 "cosmo_cavitation_energy": 20.13, 
			 "cosmo_dispersion_energy": -15.74, 
			 "cosmo_repulsion_energy": 1.31, 
			 "cosmo_total_nonelectrostatic_energy": 5.69, 
			 "SMD_solvation_energy": 2.61 
		},
		"coords": [
			{
				"x": -0.2348739746,
				"y": 0.7854305666,
				"z": -1.3947571624,
				"element": "O" 
			},
			{
				"x": -0.3109344933,
				"y": -0.6003234848,
				"z": -0.9997732416,
				"element": "C" 
			},
			{
				"x": 1.0313717741,
				"y": -1.3150644858,
				"z": -1.2174865593,
				"element": "C" 
			},
			{
				"x": 2.1377862717,
				"y": -0.7534608656,
				"z": -0.3111921182,
				"element": "C" 
			},
			{
				"x": 1.715302464,
				"y": -0.7885321954,
				"z": 1.1642809712,
				"element": "C" 
			},
			{
				"x": 0.3851512523,
				"y": -0.0450350386,
				"z": 1.395207368,
				"element": "C" 
			},
			{
				"x": 0.541863162,
				"y": 1.3603681663,
				"z": 1.2276888625,
				"element": "O" 
			},
			{
				"x": -0.7193319911,
				"y": -0.6053611278,
				"z": 0.478361198,
				"element": "C" 
			},
			{
				"x": 0.1489200728,
				"y": 0.8305039612,
				"z": -2.2802707572,
				"element": "H" 
			},
			{
				"x": -1.0914964326,
				"y": -1.0969482672,
				"z": -1.5962027434,
				"element": "H" 
			},
			{
				"x": 1.3184547332,
				"y": -1.2442428714,
				"z": -2.2764651796,
				"element": "H" 
			},
			{
				"x": 0.8864091102,
				"y": -2.3845322769,
				"z": -1.0121733917,
				"element": "H" 
			},
			{
				"x": 2.3495039293,
				"y": 0.2841889098,
				"z": -0.5946629742,
				"element": "H" 
			},
			{
				"x": 3.0665363765,
				"y": -1.3153530755,
				"z": -0.4600775643,
				"element": "H" 
			},
			{
				"x": 2.4854816839,
				"y": -0.3313223667,
				"z": 1.7943041302,
				"element": "H" 
			},
			{
				"x": 1.6037150361,
				"y": -1.8320966933,
				"z": 1.4929082409,
				"element": "H" 
			},
			{
				"x": 0.0809223821,
				"y": -0.1904289546,
				"z": 2.4397387958,
				"element": "H" 
			},
			{
				"x": 0.4032425343,
				"y": 1.5444137244,
				"z": 0.2849254765,
				"element": "H" 
			},
			{
				"x": -0.9502891473,
				"y": -1.6379173095,
				"z": 0.7680401728,
				"element": "H" 
			},
			{
				"x": -1.6336347435,
				"y": -0.015586315,
				"z": 0.6040064762,
				"element": "H" 
			}
		],
		 "valence_orbital": [ 
			{
				"type": "occ",
				"energy": -0.32767,
				"method": "rhf"
			},
			{
				"type": "occ",
				"energy": -0.3242,
				"method": "rhf"
			},
			{
				"type": "occ",
				"energy": -0.29607,
				"method": "rhf"
			},
			{
				"type": "occ",
				"energy": -0.27095,
				"method": "rhf"
			},
			{
				"type": "occ",
				"energy": -0.24261,
				"method": "rhf"
			},
			{
				"type": "unocc",
				"energy": 0.05514,
				"method": "rhf"
			},
			{
				"type": "unocc",
				"energy": 0.09852,
				"method": "rhf"
			},
			{
				"type": "unocc",
				"energy": 0.11913,
				"method": "rhf"
			},
			{
				"type": "unocc",
				"energy": 0.13015,
				"method": "rhf"
			},
			{
				"type": "unocc",
				"energy": 0.14357,
				"method": "rhf"
			}
		],
		"cosmo_sigma_profile": { 
			"-0.025": 0.0,
			"-0.024": 0.0,
			"-0.023": 0.0,
			"-0.022": 0.0,
			"-0.021": 0.0,
			"-0.02": 0.0,
			"-0.019": 0.0,
			"-0.018": 0.0,
			"-0.017": 0.0,
			"-0.016": 0.297452469713,
			"-0.015": 0.907027786283,
			"-0.014": 1.05276543371,
			"-0.013": 0.686799852396,
			"-0.012": 0.932688086167,
			"-0.011": 1.25260884938,
			"-0.01": 0.650207108799,
			"-0.009": 1.25580467378,
			"-0.008": 0.907147460639,
			"-0.007": 0.913682043024,
			"-0.006": 1.55445126067,
			"-0.005": 1.64564660389,
			"-0.004": 6.13401724337,
			"-0.003": 21.888414265,
			"-0.002": 24.9446251414,
			"-0.001": 21.5053556053,
			"0.0": 21.476020435,
			"0.001": 13.201159938,
			"0.002": 4.29990254399,
			"0.003": 2.70518789444,
			"0.004": 3.19226874855,
			"0.005": 2.13472485788,
			"0.006": 2.43243090621,
			"0.007": 2.04340945296,
			"0.008": 1.53148901168,
			"0.009": 1.60383526059,
			"0.01": 2.29133892046,
			"0.011": 2.23255822332,
			"0.012": 1.38356977649,
			"0.013": 1.72043349831,
			"0.014": 1.98830309094,
			"0.015": 2.08017248444,
			"0.016": 1.38942904327,
			"0.017": 0.0,
			"0.018": 0.0,
			"0.019": 0.0,
			"0.02": 0.0,
			"0.021": 0.0,
			"0.022": 0.0,
			"0.023": 0.0,
			"0.024": 0.0,
			"0.025": 0.0
		}
	}
}
