{
	 "smiles": "C1C=CC2=CC=CC=C12", 
	 "Tm": 271.25, 
	 "num_atms": 17, 
	 "gaussian": { 
		 "optdone": 1, 
		 "sigma_profile": "yes", 
		 "theory": "DFT", 
		 "functional": "B3LYP", 
		 "basiset": "6-31G**", 
		 "properties": { 
			 "R2extent": 1192.526, 
			 "electric_dipole_moment_norm": 0.679921664606, 
			 "electric_quadrupole_moment_norm": 6.23578573076, 
			 "total_energy": -347.767920237, 
			 "HOMO_LUMO_gap": 0.19382, 
			 "cosmo_polarized_energy": -3.89, 
			 "cosmo_cavitation_energy": 20.08, 
			 "cosmo_dispersion_energy": -15.25, 
			 "cosmo_repulsion_energy": 1.24, 
			 "cosmo_total_nonelectrostatic_energy": 6.07, 
			 "SMD_solvation_energy": 3.09 
		},
		"coords": [
			{
				"x": -1.3837552928,
				"y": 0.1058251275,
				"z": 2.2523228173,
				"element": "C" 
			},
			{
				"x": -2.1622392885,
				"y": 0.9089475448,
				"z": 1.2351651826,
				"element": "C" 
			},
			{
				"x": -1.4926973775,
				"y": 0.9761966025,
				"z": 0.0680690133,
				"element": "C" 
			},
			{
				"x": -0.2272221933,
				"y": 0.2429963414,
				"z": 0.1795829637,
				"element": "C" 
			},
			{
				"x": 0.7978045689,
				"y": 0.0253244949,
				"z": -0.7434678079,
				"element": "C" 
			},
			{
				"x": 1.9072809986,
				"y": -0.727768895,
				"z": -0.3486099974,
				"element": "C" 
			},
			{
				"x": 1.9915676988,
				"y": -1.253980246,
				"z": 0.9447795966,
				"element": "C" 
			},
			{
				"x": 0.9638576192,
				"y": -1.0364310419,
				"z": 1.8721359039,
				"element": "C" 
			},
			{
				"x": -0.1409638392,
				"y": -0.2888580954,
				"z": 1.485265511,
				"element": "C" 
			},
			{
				"x": -1.1488762124,
				"y": 0.6975429315,
				"z": 3.148541462,
				"element": "H" 
			},
			{
				"x": -1.9500925068,
				"y": -0.7680603762,
				"z": 2.6045880289,
				"element": "H" 
			},
			{
				"x": -3.1261958949,
				"y": 1.3579367053,
				"z": 1.4452273344,
				"element": "H" 
			},
			{
				"x": -1.8229230714,
				"y": 1.489647486,
				"z": -0.8287950876,
				"element": "H" 
			},
			{
				"x": 0.7370071184,
				"y": 0.4320190157,
				"z": -1.7494414532,
				"element": "H" 
			},
			{
				"x": 2.7141256838,
				"y": -0.9070447841,
				"z": -1.0538547905,
				"element": "H" 
			},
			{
				"x": 2.8619684259,
				"y": -1.8366971588,
				"z": 1.2327010146,
				"element": "H" 
			},
			{
				"x": 1.036353563,
				"y": -1.4485956521,
				"z": 2.8756903082,
				"element": "H" 
			}
		],
		 "valence_orbital": [ 
			{
				"type": "occ",
				"energy": -0.34195,
				"method": "rhf"
			},
			{
				"type": "occ",
				"energy": -0.32482,
				"method": "rhf"
			},
			{
				"type": "occ",
				"energy": -0.28925,
				"method": "rhf"
			},
			{
				"type": "occ",
				"energy": -0.23932,
				"method": "rhf"
			},
			{
				"type": "occ",
				"energy": -0.21213,
				"method": "rhf"
			},
			{
				"type": "unocc",
				"energy": -0.01831,
				"method": "rhf"
			},
			{
				"type": "unocc",
				"energy": 0.00513,
				"method": "rhf"
			},
			{
				"type": "unocc",
				"energy": 0.05821,
				"method": "rhf"
			},
			{
				"type": "unocc",
				"energy": 0.1052,
				"method": "rhf"
			},
			{
				"type": "unocc",
				"energy": 0.12372,
				"method": "rhf"
			}
		],
		"cosmo_sigma_profile": { 
			"-0.025": 0.0,
			"-0.024": 0.0,
			"-0.023": 0.0,
			"-0.022": 0.0,
			"-0.021": 0.0,
			"-0.02": 0.0,
			"-0.019": 0.0,
			"-0.018": 0.0,
			"-0.017": 0.0,
			"-0.016": 0.0,
			"-0.015": 0.0,
			"-0.014": 0.0,
			"-0.013": 0.0,
			"-0.012": 0.0,
			"-0.011": 0.0,
			"-0.01": 0.0,
			"-0.009": 0.0,
			"-0.008": 0.0,
			"-0.007": 0.0177352107957,
			"-0.006": 3.85510142905,
			"-0.005": 14.5410533955,
			"-0.004": 15.2264794146,
			"-0.003": 18.7278595707,
			"-0.002": 17.4189299489,
			"-0.001": 14.3720496077,
			"0.0": 8.57189599128,
			"0.001": 9.6847194898,
			"0.002": 8.65616030631,
			"0.003": 10.2519578436,
			"0.004": 11.6650676728,
			"0.005": 12.7462102891,
			"0.006": 10.2436560773,
			"0.007": 4.68669620156,
			"0.008": 0.0,
			"0.009": 0.0,
			"0.01": 0.0,
			"0.011": 0.0,
			"0.012": 0.0,
			"0.013": 0.0,
			"0.014": 0.0,
			"0.015": 0.0,
			"0.016": 0.0,
			"0.017": 0.0,
			"0.018": 0.0,
			"0.019": 0.0,
			"0.02": 0.0,
			"0.021": 0.0,
			"0.022": 0.0,
			"0.023": 0.0,
			"0.024": 0.0,
			"0.025": 0.0
		}
	}
}
