{
	 "smiles": "OCC1=C2C=CC=CC2=CC2=CC=CC=C12", 
	 "Tm": 436.15, 
	 "num_atms": 28, 
	 "gaussian": { 
		 "optdone": 1, 
		 "sigma_profile": "yes", 
		 "theory": "DFT", 
		 "functional": "B3LYP", 
		 "basiset": "6-31G**", 
		 "properties": { 
			 "R2extent": 3588.8309, 
			 "electric_dipole_moment_norm": 1.99567543954, 
			 "electric_quadrupole_moment_norm": 10.7098801809, 
			 "total_energy": -654.052189826, 
			 "HOMO_LUMO_gap": 0.12887, 
			 "cosmo_polarized_energy": -8.9, 
			 "cosmo_cavitation_energy": 30.62, 
			 "cosmo_dispersion_energy": -22.62, 
			 "cosmo_repulsion_energy": 1.7, 
			 "cosmo_total_nonelectrostatic_energy": 9.7, 
			 "SMD_solvation_energy": 4.55 
		},
		"coords": [
			{
				"x": -1.2794863478,
				"y": -1.2702351888,
				"z": -3.2489668666,
				"element": "O" 
			},
			{
				"x": -1.199976702,
				"y": 0.0037141744,
				"z": -2.5948692914,
				"element": "C" 
			},
			{
				"x": -0.4760738962,
				"y": -0.0384327913,
				"z": -1.2672794325,
				"element": "C" 
			},
			{
				"x": 0.9271776781,
				"y": 0.1521748559,
				"z": -1.2196805479,
				"element": "C" 
			},
			{
				"x": 1.7317483187,
				"y": 0.3195129321,
				"z": -2.3947485602,
				"element": "C" 
			},
			{
				"x": 3.0852701697,
				"y": 0.5197711588,
				"z": -2.3107821443,
				"element": "C" 
			},
			{
				"x": 3.738727764,
				"y": 0.5720102152,
				"z": -1.046578867,
				"element": "C" 
			},
			{
				"x": 3.0147741548,
				"y": 0.4011036662,
				"z": 0.1020990528,
				"element": "C" 
			},
			{
				"x": 1.6028535626,
				"y": 0.1769033281,
				"z": 0.0587995884,
				"element": "C" 
			},
			{
				"x": 0.8640961527,
				"y": -0.0232995087,
				"z": 1.2284818303,
				"element": "C" 
			},
			{
				"x": -0.5100464736,
				"y": -0.2776558444,
				"z": 1.1961512604,
				"element": "C" 
			},
			{
				"x": -1.2490746665,
				"y": -0.516263874,
				"z": 2.3972182618,
				"element": "C" 
			},
			{
				"x": -2.5894826118,
				"y": -0.7895588886,
				"z": 2.3597070589,
				"element": "C" 
			},
			{
				"x": -3.2665586762,
				"y": -0.846946072,
				"z": 1.108216198,
				"element": "C" 
			},
			{
				"x": -2.5970356881,
				"y": -0.6119384102,
				"z": -0.0646777422,
				"element": "C" 
			},
			{
				"x": -1.1964547662,
				"y": -0.3047212841,
				"z": -0.076540195,
				"element": "C" 
			},
			{
				"x": -0.8376485169,
				"y": -1.9144545405,
				"z": -2.6829405896,
				"element": "H" 
			},
			{
				"x": -0.702996434,
				"y": 0.709033924,
				"z": -3.2693298691,
				"element": "H" 
			},
			{
				"x": -2.216969086,
				"y": 0.3848804921,
				"z": -2.4539653245,
				"element": "H" 
			},
			{
				"x": 1.2657532095,
				"y": 0.250852152,
				"z": -3.3710380037,
				"element": "H" 
			},
			{
				"x": 3.670085991,
				"y": 0.6339633041,
				"z": -3.2189693224,
				"element": "H" 
			},
			{
				"x": 4.8109629942,
				"y": 0.7382014849,
				"z": -1.0012672192,
				"element": "H" 
			},
			{
				"x": 3.501657547,
				"y": 0.4256195618,
				"z": 1.0737051115,
				"element": "H" 
			},
			{
				"x": 1.3745235905,
				"y": 0.0067210799,
				"z": 2.1887289028,
				"element": "H" 
			},
			{
				"x": -0.7160603028,
				"y": -0.4818379481,
				"z": 3.3439948004,
				"element": "H" 
			},
			{
				"x": -3.1393773495,
				"y": -0.9724235147,
				"z": 3.2781492682,
				"element": "H" 
			},
			{
				"x": -4.3257513575,
				"y": -1.0865779897,
				"z": 1.0849361727,
				"element": "H" 
			},
			{
				"x": -3.1299382575,
				"y": -0.6951164746,
				"z": -1.0049535304,
				"element": "H" 
			}
		],
		 "valence_orbital": [ 
			{
				"type": "occ",
				"energy": -0.29436,
				"method": "rhf"
			},
			{
				"type": "occ",
				"energy": -0.26769,
				"method": "rhf"
			},
			{
				"type": "occ",
				"energy": -0.25415,
				"method": "rhf"
			},
			{
				"type": "occ",
				"energy": -0.24252,
				"method": "rhf"
			},
			{
				"type": "occ",
				"energy": -0.19753,
				"method": "rhf"
			},
			{
				"type": "unocc",
				"energy": -0.06866,
				"method": "rhf"
			},
			{
				"type": "unocc",
				"energy": -0.0166,
				"method": "rhf"
			},
			{
				"type": "unocc",
				"energy": 0.00281,
				"method": "rhf"
			},
			{
				"type": "unocc",
				"energy": 0.02871,
				"method": "rhf"
			},
			{
				"type": "unocc",
				"energy": 0.05948,
				"method": "rhf"
			}
		],
		"cosmo_sigma_profile": { 
			"-0.025": 0.0,
			"-0.024": 0.0,
			"-0.023": 0.0,
			"-0.022": 0.0,
			"-0.021": 0.0,
			"-0.02": 0.0,
			"-0.019": 0.0,
			"-0.018": 0.0,
			"-0.017": 0.0,
			"-0.016": 0.0,
			"-0.015": 0.199204391197,
			"-0.014": 0.86859065811,
			"-0.013": 0.560666895692,
			"-0.012": 0.551455302731,
			"-0.011": 0.806869827943,
			"-0.01": 0.640037089347,
			"-0.009": 0.328117766038,
			"-0.008": 0.523586124474,
			"-0.007": 1.68729787328,
			"-0.006": 16.582301376,
			"-0.005": 21.8696797163,
			"-0.004": 20.5054214796,
			"-0.003": 19.592092404,
			"-0.002": 16.3715987451,
			"-0.001": 16.1231496258,
			"0.0": 13.2706241399,
			"0.001": 15.2359232034,
			"0.002": 15.8643450693,
			"0.003": 27.1010404274,
			"0.004": 25.7287018796,
			"0.005": 16.8176024482,
			"0.006": 2.26067588566,
			"0.007": 1.48526911255,
			"0.008": 0.552017081161,
			"0.009": 1.34619363866,
			"0.01": 0.908165207521,
			"0.011": 1.5646685138,
			"0.012": 0.956734943307,
			"0.013": 1.3968496148,
			"0.014": 2.48386119499,
			"0.015": 0.820913621108,
			"0.016": 0.0,
			"0.017": 0.0,
			"0.018": 0.0,
			"0.019": 0.0,
			"0.02": 0.0,
			"0.021": 0.0,
			"0.022": 0.0,
			"0.023": 0.0,
			"0.024": 0.0,
			"0.025": 0.0
		}
	}
}
