{
	 "smiles": "OC(=O)C12CC3CC(C1)CC(C3)(C2)C1=CC=CC=C1", 
	 "Tm": 435.15, 
	 "num_atms": 39, 
	 "gaussian": { 
		 "optdone": 1, 
		 "sigma_profile": "yes", 
		 "theory": "DFT", 
		 "functional": "B3LYP", 
		 "basiset": "6-31G**", 
		 "properties": { 
			 "R2extent": 5517.6838, 
			 "electric_dipole_moment_norm": 1.52212601647, 
			 "electric_quadrupole_moment_norm": 8.62509783887, 
			 "total_energy": -810.357243057, 
			 "HOMO_LUMO_gap": 0.23597, 
			 "cosmo_polarized_energy": -10.11, 
			 "cosmo_cavitation_energy": 36.75, 
			 "cosmo_dispersion_energy": -26.72, 
			 "cosmo_repulsion_energy": 2.01, 
			 "cosmo_total_nonelectrostatic_energy": 12.03, 
			 "SMD_solvation_energy": 6.03 
		},
		"coords": [
			{
				"x": 2.0607465876,
				"y": -0.0590403136,
				"z": -3.686225406,
				"element": "O" 
			},
			{
				"x": 2.1003988775,
				"y": 1.0367517405,
				"z": -2.8830862556,
				"element": "C" 
			},
			{
				"x": 2.0860993212,
				"y": 2.160276142,
				"z": -3.3396617199,
				"element": "O" 
			},
			{
				"x": 2.1557006152,
				"y": 0.6716762448,
				"z": -1.4069911467,
				"element": "C" 
			},
			{
				"x": 3.3878951729,
				"y": -0.2267650757,
				"z": -1.1185262145,
				"element": "C" 
			},
			{
				"x": 3.4178737806,
				"y": -0.5852529525,
				"z": 0.3791095553,
				"element": "C" 
			},
			{
				"x": 3.5229178271,
				"y": 0.7004603748,
				"z": 1.2203805923,
				"element": "C" 
			},
			{
				"x": 2.2926090505,
				"y": 1.5842209322,
				"z": 0.9419194284,
				"element": "C" 
			},
			{
				"x": 2.2480599505,
				"y": 1.9540644121,
				"z": -0.5530879429,
				"element": "C" 
			},
			{
				"x": 1.0106589512,
				"y": 0.8190440503,
				"z": 1.3253862358,
				"element": "C" 
			},
			{
				"x": 0.8741690563,
				"y": -0.4863886141,
				"z": 0.4903329825,
				"element": "C" 
			},
			{
				"x": 2.1326838263,
				"y": -1.3500628306,
				"z": 0.7551176073,
				"element": "C" 
			},
			{
				"x": 0.8689494224,
				"y": -0.1103114678,
				"z": -1.019616426,
				"element": "C" 
			},
			{
				"x": -0.4321675067,
				"y": -1.2096241478,
				"z": 0.8457836384,
				"element": "C" 
			},
			{
				"x": -1.6653204478,
				"y": -0.5574952926,
				"z": 0.6663937386,
				"element": "C" 
			},
			{
				"x": -2.8720405774,
				"y": -1.1796445175,
				"z": 0.9802494876,
				"element": "C" 
			},
			{
				"x": -2.8811773935,
				"y": -2.4810893107,
				"z": 1.4864796021,
				"element": "C" 
			},
			{
				"x": -1.670239771,
				"y": -3.144617418,
				"z": 1.6714759574,
				"element": "C" 
			},
			{
				"x": -0.4626776964,
				"y": -2.5159767345,
				"z": 1.3545012425,
				"element": "C" 
			},
			{
				"x": 2.0202480965,
				"y": 0.2810738215,
				"z": -4.5957556215,
				"element": "H" 
			},
			{
				"x": 3.3369723508,
				"y": -1.1335679664,
				"z": -1.7303890801,
				"element": "H" 
			},
			{
				"x": 4.3073254196,
				"y": 0.3029142645,
				"z": -1.39943657,
				"element": "H" 
			},
			{
				"x": 4.2851951497,
				"y": -1.2284292992,
				"z": 0.5744172228,
				"element": "H" 
			},
			{
				"x": 3.5763660254,
				"y": 0.4500844295,
				"z": 2.2877667242,
				"element": "H" 
			},
			{
				"x": 4.4447971914,
				"y": 1.2419361678,
				"z": 0.9716637286,
				"element": "H" 
			},
			{
				"x": 2.3542884158,
				"y": 2.5035045396,
				"z": 1.5376373199,
				"element": "H" 
			},
			{
				"x": 3.1412419222,
				"y": 2.5218079082,
				"z": -0.8372010092,
				"element": "H" 
			},
			{
				"x": 1.3897424598,
				"y": 2.600786469,
				"z": -0.7666852075,
				"element": "H" 
			},
			{
				"x": 0.1361058841,
				"y": 1.460097674,
				"z": 1.1650753243,
				"element": "H" 
			},
			{
				"x": 1.0221780946,
				"y": 0.5646600866,
				"z": 2.3928382823,
				"element": "H" 
			},
			{
				"x": 2.0773048737,
				"y": -2.2799093462,
				"z": 0.1749327379,
				"element": "H" 
			},
			{
				"x": 2.1735986986,
				"y": -1.6337865215,
				"z": 1.8142959142,
				"element": "H" 
			},
			{
				"x": 0.7881950098,
				"y": -1.019142685,
				"z": -1.6251865549,
				"element": "H" 
			},
			{
				"x": -0.0087039243,
				"y": 0.5047007422,
				"z": -1.2494544562,
				"element": "H" 
			},
			{
				"x": -1.6884200303,
				"y": 0.4556720188,
				"z": 0.2753105964,
				"element": "H" 
			},
			{
				"x": -3.8066663758,
				"y": -0.646318344,
				"z": 0.8292853662,
				"element": "H" 
			},
			{
				"x": -3.8199845126,
				"y": -2.9688975623,
				"z": 1.7325402655,
				"element": "H" 
			},
			{
				"x": -1.6580014083,
				"y": -4.1576815918,
				"z": 2.0644027725,
				"element": "H" 
			},
			{
				"x": 0.4602776128,
				"y": -3.0623300264,
				"z": 1.5113072879,
				"element": "H" 
			}
		],
		 "valence_orbital": [ 
			{
				"type": "occ",
				"energy": -0.28818,
				"method": "rhf"
			},
			{
				"type": "occ",
				"energy": -0.28308,
				"method": "rhf"
			},
			{
				"type": "occ",
				"energy": -0.26422,
				"method": "rhf"
			},
			{
				"type": "occ",
				"energy": -0.24599,
				"method": "rhf"
			},
			{
				"type": "occ",
				"energy": -0.2374,
				"method": "rhf"
			},
			{
				"type": "unocc",
				"energy": -0.00143,
				"method": "rhf"
			},
			{
				"type": "unocc",
				"energy": 0.0024,
				"method": "rhf"
			},
			{
				"type": "unocc",
				"energy": 0.01462,
				"method": "rhf"
			},
			{
				"type": "unocc",
				"energy": 0.06506,
				"method": "rhf"
			},
			{
				"type": "unocc",
				"energy": 0.08321,
				"method": "rhf"
			}
		],
		"cosmo_sigma_profile": { 
			"-0.025": 0.0,
			"-0.024": 0.0,
			"-0.023": 0.0,
			"-0.022": 0.0,
			"-0.021": 0.0,
			"-0.02": 0.0,
			"-0.019": 0.0287138450246,
			"-0.018": 0.456010204851,
			"-0.017": 1.16924738844,
			"-0.016": 0.662441012871,
			"-0.015": 0.360842447688,
			"-0.014": 0.589785134745,
			"-0.013": 0.906817087302,
			"-0.012": 0.902030368068,
			"-0.011": 0.86692244042,
			"-0.01": 0.539379364014,
			"-0.009": 0.264316443387,
			"-0.008": 0.829435988219,
			"-0.007": 1.01115437451,
			"-0.006": 2.08447314371,
			"-0.005": 10.6579150257,
			"-0.004": 16.198124089,
			"-0.003": 30.0982644014,
			"-0.002": 47.4349396136,
			"-0.001": 37.3559449885,
			"0.0": 32.7983657968,
			"0.001": 22.0154669802,
			"0.002": 12.281217605,
			"0.003": 10.1432815046,
			"0.004": 10.3561962358,
			"0.005": 10.8508398233,
			"0.006": 11.7620492684,
			"0.007": 6.8503389363,
			"0.008": 3.21734387671,
			"0.009": 1.92706272538,
			"0.01": 2.0494706078,
			"0.011": 2.86060885263,
			"0.012": 4.90226655767,
			"0.013": 1.20986511395,
			"0.014": 0.0,
			"0.015": 0.0,
			"0.016": 0.0,
			"0.017": 0.0,
			"0.018": 0.0,
			"0.019": 0.0,
			"0.02": 0.0,
			"0.021": 0.0,
			"0.022": 0.0,
			"0.023": 0.0,
			"0.024": 0.0,
			"0.0": 0.0
		}
	}
}
