{
	 "smiles": "NC(=S)C1=CC=CO1", 
	 "Tm": 406.15, 
	 "num_atms": 13, 
	 "gaussian": { 
		 "optdone": 1, 
		 "sigma_profile": "yes", 
		 "theory": "DFT", 
		 "functional": "B3LYP", 
		 "basiset": "6-31G**", 
		 "properties": { 
			 "R2extent": 1578.2467, 
			 "electric_dipole_moment_norm": 4.69522207569, 
			 "electric_quadrupole_moment_norm": 16.7935749854, 
			 "total_energy": -721.690923222, 
			 "HOMO_LUMO_gap": 0.14671, 
			 "cosmo_polarized_energy": -13.76, 
			 "cosmo_cavitation_energy": 19.26, 
			 "cosmo_dispersion_energy": -14.92, 
			 "cosmo_repulsion_energy": 1.19, 
			 "cosmo_total_nonelectrostatic_energy": 5.54, 
			 "SMD_solvation_energy": 3.46 
		},
		"coords": [
			{
				"x": -0.6715116724,
				"y": -0.9152117712,
				"z": -1.8161872177,
				"element": "N" 
			},
			{
				"x": -1.2762401235,
				"y": -1.2779166605,
				"z": -0.6649271925,
				"element": "C" 
			},
			{
				"x": -2.2234349104,
				"y": -2.6493577148,
				"z": -0.5299713633,
				"element": "S" 
			},
			{
				"x": -1.0434311565,
				"y": -0.383373611,
				"z": 0.4607900517,
				"element": "C" 
			},
			{
				"x": -1.4621946858,
				"y": -0.3904855007,
				"z": 1.7662516824,
				"element": "C" 
			},
			{
				"x": -0.8975633826,
				"y": 0.7629046202,
				"z": 2.3835058679,
				"element": "C" 
			},
			{
				"x": -0.1721867306,
				"y": 1.3976155832,
				"z": 1.4163685138,
				"element": "C" 
			},
			{
				"x": -0.2459144803,
				"y": 0.720665724,
				"z": 0.2417307841,
				"element": "O" 
			},
			{
				"x": -0.1043587018,
				"y": -0.0823419281,
				"z": -1.8724043083,
				"element": "H" 
			},
			{
				"x": -0.7973502785,
				"y": -1.4975163564,
				"z": -2.6296369438,
				"element": "H" 
			},
			{
				"x": -2.0979918598,
				"y": -1.1417380228,
				"z": 2.2090509972,
				"element": "H" 
			},
			{
				"x": -1.0136937326,
				"y": 1.0804376998,
				"z": 3.4094587007,
				"element": "H" 
			},
			{
				"x": 0.4241717149,
				"y": 2.2972179384,
				"z": 1.4062704278,
				"element": "H" 
			}
		],
		 "valence_orbital": [ 
			{
				"type": "occ",
				"energy": -0.3631,
				"method": "rhf"
			},
			{
				"type": "occ",
				"energy": -0.29769,
				"method": "rhf"
			},
			{
				"type": "occ",
				"energy": -0.25432,
				"method": "rhf"
			},
			{
				"type": "occ",
				"energy": -0.21881,
				"method": "rhf"
			},
			{
				"type": "occ",
				"energy": -0.20863,
				"method": "rhf"
			},
			{
				"type": "unocc",
				"energy": -0.06192,
				"method": "rhf"
			},
			{
				"type": "unocc",
				"energy": 0.02813,
				"method": "rhf"
			},
			{
				"type": "unocc",
				"energy": 0.07362,
				"method": "rhf"
			},
			{
				"type": "unocc",
				"energy": 0.08759,
				"method": "rhf"
			},
			{
				"type": "unocc",
				"energy": 0.09845,
				"method": "rhf"
			}
		],
		"cosmo_sigma_profile": { 
			"-0.025": 0.0,
			"-0.024": 0.0,
			"-0.023": 0.0,
			"-0.022": 0.0,
			"-0.021": 0.0,
			"-0.02": 0.0,
			"-0.019": 0.0,
			"-0.018": 0.0,
			"-0.017": 0.0,
			"-0.016": 0.00875295891569,
			"-0.015": 1.08432899994,
			"-0.014": 2.01099136555,
			"-0.013": 2.22174339995,
			"-0.012": 2.19199819094,
			"-0.011": 1.97041317315,
			"-0.01": 3.21347892955,
			"-0.009": 3.54976570273,
			"-0.008": 5.0449621145,
			"-0.007": 5.72811377503,
			"-0.006": 6.16508369347,
			"-0.005": 7.23387746396,
			"-0.004": 6.65378918274,
			"-0.003": 5.69406900362,
			"-0.002": 6.64521134608,
			"-0.001": 7.63090184971,
			"0.0": 11.0415407446,
			"0.001": 12.7289483548,
			"0.002": 11.8305608714,
			"0.003": 13.3557571329,
			"0.004": 5.26405756249,
			"0.005": 4.37618646129,
			"0.006": 3.61144261728,
			"0.007": 3.84327968542,
			"0.008": 5.23982317481,
			"0.009": 6.02412887158,
			"0.01": 7.96253230482,
			"0.011": 3.56405881913,
			"0.012": 1.5176952718,
			"0.013": 0.0562813669197,
			"0.014": 0.0,
			"0.015": 0.0,
			"0.016": 0.0,
			"0.017": 0.0,
			"0.018": 0.0,
			"0.019": 0.0,
			"0.02": 0.0,
			"0.021": 0.0,
			"0.022": 0.0,
			"0.023": 0.0,
			"0.024": 0.0,
			"0.025": 0.0
		}
	}
}
