{
	 "smiles": "CC1=C(OCC2=NNC(=N2)C2=NC=CC=C2)C=CC(Cl)=C1", 
	 "Tm": 448.15, 
	 "num_atms": 34, 
	 "gaussian": { 
		 "optdone": 1, 
		 "sigma_profile": "yes", 
		 "theory": "DFT", 
		 "functional": "B3LYP", 
		 "basiset": "6-31G**", 
		 "properties": { 
			 "R2extent": 9605.4577, 
			 "electric_dipole_moment_norm": 7.55660055448, 
			 "electric_quadrupole_moment_norm": 17.646835773, 
			 "total_energy": -1333.83470297, 
			 "HOMO_LUMO_gap": 0.14452, 
			 "cosmo_polarized_energy": -20.89, 
			 "cosmo_cavitation_energy": 41.14, 
			 "cosmo_dispersion_energy": -29.48, 
			 "cosmo_repulsion_energy": 2.27, 
			 "cosmo_total_nonelectrostatic_energy": 13.94, 
			 "SMD_solvation_energy": 3.19 
		},
		"coords": [
			{
				"x": -1.4330434313,
				"y": -4.6526405394,
				"z": -0.6974646555,
				"element": "C" 
			},
			{
				"x": -1.5420903817,
				"y": -3.2377567975,
				"z": -1.2057140763,
				"element": "C" 
			},
			{
				"x": -1.6579341297,
				"y": -2.1651564161,
				"z": -0.2953191134,
				"element": "C" 
			},
			{
				"x": -1.662324975,
				"y": -2.5373738044,
				"z": 1.0258181986,
				"element": "O" 
			},
			{
				"x": -2.0559059074,
				"y": -1.6036595407,
				"z": 2.0340137807,
				"element": "C" 
			},
			{
				"x": -0.9464629895,
				"y": -0.7058987422,
				"z": 2.5027650737,
				"element": "C" 
			},
			{
				"x": -0.0569559295,
				"y": -1.1026244953,
				"z": 3.4092520407,
				"element": "N" 
			},
			{
				"x": 0.7309730828,
				"y": -0.0117945341,
				"z": 3.5264825947,
				"element": "N" 
			},
			{
				"x": 0.3051967612,
				"y": 0.9871923938,
				"z": 2.7049452046,
				"element": "C" 
			},
			{
				"x": -0.7661704081,
				"y": 0.5659185848,
				"z": 2.0473042236,
				"element": "N" 
			},
			{
				"x": 0.9501811993,
				"y": 2.3087684324,
				"z": 2.6108655467,
				"element": "C" 
			},
			{
				"x": 0.723705774,
				"y": 3.0017022624,
				"z": 1.4828190662,
				"element": "N" 
			},
			{
				"x": 1.3008665688,
				"y": 4.1986079459,
				"z": 1.3635943063,
				"element": "C" 
			},
			{
				"x": 2.1292264867,
				"y": 4.7648436224,
				"z": 2.336853209,
				"element": "C" 
			},
			{
				"x": 2.3548128809,
				"y": 4.044421212,
				"z": 3.5077574153,
				"element": "C" 
			},
			{
				"x": 1.7518811407,
				"y": 2.797398736,
				"z": 3.6541270595,
				"element": "C" 
			},
			{
				"x": -1.7528911244,
				"y": -0.8471472891,
				"z": -0.7489256164,
				"element": "C" 
			},
			{
				"x": -1.7498695819,
				"y": -0.581111112,
				"z": -2.1215807542,
				"element": "C" 
			},
			{
				"x": -1.6451197704,
				"y": -1.634371433,
				"z": -3.0205187729,
				"element": "C" 
			},
			{
				"x": -1.6390045035,
				"y": -1.3106401922,
				"z": -4.7543474708,
				"element": "Cl" 
			},
			{
				"x": -1.5367106642,
				"y": -2.9513689806,
				"z": -2.5705503709,
				"element": "C" 
			},
			{
				"x": -2.2983143845,
				"y": -4.9181633563,
				"z": -0.0804719352,
				"element": "H" 
			},
			{
				"x": -0.5491649803,
				"y": -4.7791477818,
				"z": -0.0628482921,
				"element": "H" 
			},
			{
				"x": -1.3675735405,
				"y": -5.3617887498,
				"z": -1.5266270643,
				"element": "H" 
			},
			{
				"x": -2.3840533346,
				"y": -2.2250983775,
				"z": 2.8699138289,
				"element": "H" 
			},
			{
				"x": -2.8966887914,
				"y": -0.9924715553,
				"z": 1.6891057345,
				"element": "H" 
			},
			{
				"x": 1.5450755348,
				"y": -0.0482276744,
				"z": 4.1217631897,
				"element": "H" 
			},
			{
				"x": 1.0944538413,
				"y": 4.7346947386,
				"z": 0.4390554035,
				"element": "H" 
			},
			{
				"x": 2.5751136073,
				"y": 5.7414665253,
				"z": 2.1792676198,
				"element": "H" 
			},
			{
				"x": 2.9793661656,
				"y": 4.4481301727,
				"z": 4.2990022411,
				"element": "H" 
			},
			{
				"x": 1.8813200755,
				"y": 2.2315573693,
				"z": 4.5719088293,
				"element": "H" 
			},
			{
				"x": -1.7866863626,
				"y": -0.0179974619,
				"z": -0.0519220416,
				"element": "H" 
			},
			{
				"x": -1.817864593,
				"y": 0.4408621038,
				"z": -2.477320498,
				"element": "H" 
			},
			{
				"x": -1.4531433352,
				"y": -3.7609252658,
				"z": -3.2884039047,
				"element": "H" 
			}
		],
		 "valence_orbital": [ 
			{
				"type": "occ",
				"energy": -0.28664,
				"method": "rhf"
			},
			{
				"type": "occ",
				"energy": -0.27007,
				"method": "rhf"
			},
			{
				"type": "occ",
				"energy": -0.25551,
				"method": "rhf"
			},
			{
				"type": "occ",
				"energy": -0.24038,
				"method": "rhf"
			},
			{
				"type": "occ",
				"energy": -0.20576,
				"method": "rhf"
			},
			{
				"type": "unocc",
				"energy": -0.06124,
				"method": "rhf"
			},
			{
				"type": "unocc",
				"energy": -0.04021,
				"method": "rhf"
			},
			{
				"type": "unocc",
				"energy": 0.0049,
				"method": "rhf"
			},
			{
				"type": "unocc",
				"energy": 0.00821,
				"method": "rhf"
			},
			{
				"type": "unocc",
				"energy": 0.0154,
				"method": "rhf"
			}
		],
		"cosmo_sigma_profile": { 
			"-0.025": 0.0,
			"-0.024": 0.0,
			"-0.023": 0.0,
			"-0.022": 0.0,
			"-0.021": 0.0,
			"-0.02": 0.0,
			"-0.019": 0.0,
			"-0.018": 0.915189315003,
			"-0.017": 1.30154568872,
			"-0.016": 1.26600764273,
			"-0.015": 1.10882104835,
			"-0.014": 1.28789040072,
			"-0.013": 1.66477069693,
			"-0.012": 1.09757701487,
			"-0.011": 1.33457218567,
			"-0.01": 1.62810328375,
			"-0.009": 1.38758250909,
			"-0.008": 3.35765206014,
			"-0.007": 12.6864318964,
			"-0.006": 18.5694857514,
			"-0.005": 18.5961835069,
			"-0.004": 19.311005948,
			"-0.003": 17.5214929521,
			"-0.002": 21.1198118552,
			"-0.001": 22.5340505567,
			"0.0": 29.0456336647,
			"0.001": 28.0397025822,
			"0.002": 27.1088825902,
			"0.003": 23.0390382309,
			"0.004": 24.2458013687,
			"0.005": 18.7033396881,
			"0.006": 7.77106535264,
			"0.007": 4.85311201444,
			"0.008": 4.4167541091,
			"0.009": 2.77942868497,
			"0.01": 2.79020120629,
			"0.011": 2.5582602138,
			"0.012": 2.22151110569,
			"0.013": 2.82302206777,
			"0.014": 1.74097843621,
			"0.015": 1.25789673272,
			"0.016": 1.48509044264,
			"0.017": 0.851784341458,
			"0.018": 0.00468921191832,
			"0.019": 0.0,
			"0.02": 0.0,
			"0.021": 0.0,
			"0.022": 0.0,
			"0.023": 0.0,
			"0.024": 0.0,
			"0.025": 0.0
		}
	}
}
