{
	 "smiles": "CC1=C(Cl)C=CC=C1NC1=CC=CC=C1C(O)=O", 
	 "Tm": 480.15, 
	 "num_atms": 30, 
	 "gaussian": { 
		 "optdone": 1, 
		 "sigma_profile": "yes", 
		 "theory": "DFT", 
		 "functional": "B3LYP", 
		 "basiset": "6-31G**", 
		 "properties": { 
			 "R2extent": 5157.3444, 
			 "electric_dipole_moment_norm": 6.13179278678, 
			 "electric_quadrupole_moment_norm": 17.7909293344, 
			 "total_energy": -1206.1244762, 
			 "HOMO_LUMO_gap": 0.18003, 
			 "cosmo_polarized_energy": -17.33, 
			 "cosmo_cavitation_energy": 34.7, 
			 "cosmo_dispersion_energy": -24.52, 
			 "cosmo_repulsion_energy": 1.87, 
			 "cosmo_total_nonelectrostatic_energy": 12.06, 
			 "SMD_solvation_energy": 6.74 
		},
		"coords": [
			{
				"x": -0.4104032907,
				"y": 0.6369156255,
				"z": 2.077500185,
				"element": "C" 
			},
			{
				"x": -0.7061439742,
				"y": -0.3884728314,
				"z": 1.0094503648,
				"element": "C" 
			},
			{
				"x": -1.8855079268,
				"y": -1.1586953288,
				"z": 1.062199758,
				"element": "C" 
			},
			{
				"x": -3.0751593801,
				"y": -0.8556802884,
				"z": 2.3305582525,
				"element": "Cl" 
			},
			{
				"x": -2.177558315,
				"y": -2.1849318253,
				"z": 0.1683263009,
				"element": "C" 
			},
			{
				"x": -1.2707112214,
				"y": -2.4655892433,
				"z": -0.849991066,
				"element": "C" 
			},
			{
				"x": -0.1210860214,
				"y": -1.6980523069,
				"z": -0.9759570244,
				"element": "C" 
			},
			{
				"x": 0.1634968086,
				"y": -0.6639156515,
				"z": -0.0715341941,
				"element": "C" 
			},
			{
				"x": 1.3928054291,
				"y": 0.0373012672,
				"z": -0.3402737661,
				"element": "N" 
			},
			{
				"x": 1.7545415018,
				"y": 1.3440240113,
				"z": 0.0871069983,
				"element": "C" 
			},
			{
				"x": 2.8968268439,
				"y": 1.5064245061,
				"z": 0.885564142,
				"element": "C" 
			},
			{
				"x": 3.3016898624,
				"y": 2.7697701776,
				"z": 1.3069373287,
				"element": "C" 
			},
			{
				"x": 2.5544255614,
				"y": 3.8972998768,
				"z": 0.9564731071,
				"element": "C" 
			},
			{
				"x": 1.4347009375,
				"y": 3.7466163192,
				"z": 0.1457867692,
				"element": "C" 
			},
			{
				"x": 1.0395830523,
				"y": 2.4879189701,
				"z": -0.3314041004,
				"element": "C" 
			},
			{
				"x": -0.0830302342,
				"y": 2.4919817845,
				"z": -1.337276374,
				"element": "C" 
			},
			{
				"x": -0.1289412143,
				"y": 1.456591646,
				"z": -2.2009749772,
				"element": "O" 
			},
			{
				"x": -0.8703804032,
				"y": 3.4072637085,
				"z": -1.4276466313,
				"element": "O" 
			},
			{
				"x": -0.8030609021,
				"y": 1.6254035439,
				"z": 1.812789011,
				"element": "H" 
			},
			{
				"x": -0.8749902356,
				"y": 0.3444041625,
				"z": 3.0197852506,
				"element": "H" 
			},
			{
				"x": 0.6603707093,
				"y": 0.7444397101,
				"z": 2.244669838,
				"element": "H" 
			},
			{
				"x": -3.098599914,
				"y": -2.7459508217,
				"z": 0.2735099202,
				"element": "H" 
			},
			{
				"x": -1.4760722782,
				"y": -3.2619189975,
				"z": -1.5582485447,
				"element": "H" 
			},
			{
				"x": 0.570012062,
				"y": -1.8782154191,
				"z": -1.7947056662,
				"element": "H" 
			},
			{
				"x": 2.1855648721,
				"y": -0.593509091,
				"z": -0.3445191666,
				"element": "H" 
			},
			{
				"x": 3.4502149487,
				"y": 0.6240361774,
				"z": 1.1978694687,
				"element": "H" 
			},
			{
				"x": 4.1887709021,
				"y": 2.8694018916,
				"z": 1.9256329226,
				"element": "H" 
			},
			{
				"x": 2.8516712998,
				"y": 4.8829464339,
				"z": 1.299945962,
				"element": "H" 
			},
			{
				"x": 0.8481622892,
				"y": 4.6031060992,
				"z": -0.1687641752,
				"element": "H" 
			},
			{
				"x": 0.5576082312,
				"y": 0.8059858935,
				"z": -1.9593098934,
				"element": "H" 
			}
		],
		 "valence_orbital": [ 
			{
				"type": "occ",
				"energy": -0.27317,
				"method": "rhf"
			},
			{
				"type": "occ",
				"energy": -0.26756,
				"method": "rhf"
			},
			{
				"type": "occ",
				"energy": -0.26093,
				"method": "rhf"
			},
			{
				"type": "occ",
				"energy": -0.24955,
				"method": "rhf"
			},
			{
				"type": "occ",
				"energy": -0.22762,
				"method": "rhf"
			},
			{
				"type": "unocc",
				"energy": -0.04759,
				"method": "rhf"
			},
			{
				"type": "unocc",
				"energy": -0.03032,
				"method": "rhf"
			},
			{
				"type": "unocc",
				"energy": -0.0188,
				"method": "rhf"
			},
			{
				"type": "unocc",
				"energy": -0.0066,
				"method": "rhf"
			},
			{
				"type": "unocc",
				"energy": 0.02793,
				"method": "rhf"
			}
		],
		"cosmo_sigma_profile": { 
			"-0.025": 0.0,
			"-0.024": 0.0,
			"-0.023": 0.0,
			"-0.022": 0.0,
			"-0.021": 0.0,
			"-0.02": 0.0,
			"-0.019": 0.0,
			"-0.018": 0.0,
			"-0.017": 0.0,
			"-0.016": 0.0,
			"-0.015": 0.190845201576,
			"-0.014": 1.24881649755,
			"-0.013": 1.29471587681,
			"-0.012": 1.61756470355,
			"-0.011": 1.47516508692,
			"-0.01": 2.47492924871,
			"-0.009": 2.21052750004,
			"-0.008": 3.41533065897,
			"-0.007": 9.75708526479,
			"-0.006": 15.0893957381,
			"-0.005": 16.6670622655,
			"-0.004": 17.3634264219,
			"-0.003": 17.7390576288,
			"-0.002": 18.8080741567,
			"-0.001": 19.1033670929,
			"0.0": 22.3309594912,
			"0.001": 20.8742105473,
			"0.002": 23.3393585851,
			"0.003": 24.6413540909,
			"0.004": 21.0840817789,
			"0.005": 10.5428408585,
			"0.006": 3.08779242774,
			"0.007": 2.2726446313,
			"0.008": 1.85455529223,
			"0.009": 3.11164263003,
			"0.01": 4.25958470107,
			"0.011": 5.22038510393,
			"0.012": 5.60842020844,
			"0.013": 2.67645895172,
			"0.014": 0.353916325867,
			"0.015": 0.0,
			"0.016": 0.0,
			"0.017": 0.0,
			"0.018": 0.0,
			"0.019": 0.0,
			"0.02": 0.0,
			"0.021": 0.0,
			"0.022": 0.0,
			"0.023": 0.0,
			"0.024": 0.0,
			"0.025": 0.0
		}
	}
}
