{
	 "smiles": "CC(C)N(C=O)C(C)C", 
	 "Tm": 283.65, 
	 "num_atms": 24, 
	 "gaussian": { 
		 "optdone": 1, 
		 "sigma_profile": "yes", 
		 "theory": "DFT", 
		 "functional": "B3LYP", 
		 "basiset": "6-31G**", 
		 "properties": { 
			 "R2extent": 2469.2167, 
			 "electric_dipole_moment_norm": 3.92089714351, 
			 "electric_quadrupole_moment_norm": 17.0539690829, 
			 "total_energy": -405.782224835, 
			 "HOMO_LUMO_gap": 0.26701, 
			 "cosmo_polarized_energy": -9.31, 
			 "cosmo_cavitation_energy": 25.35, 
			 "cosmo_dispersion_energy": -17.37, 
			 "cosmo_repulsion_energy": 1.42, 
			 "cosmo_total_nonelectrostatic_energy": 9.39, 
			 "SMD_solvation_energy": 6.1 
		},
		"coords": [
			{
				"x": 2.7278243651,
				"y": -1.3690266815,
				"z": 0.142744342,
				"element": "C" 
			},
			{
				"x": 1.3180242948,
				"y": -0.8213813294,
				"z": 0.418449336,
				"element": "C" 
			},
			{
				"x": 0.2802809139,
				"y": -1.3723510437,
				"z": -0.5730463457,
				"element": "C" 
			},
			{
				"x": 0.9069497796,
				"y": -1.0178834221,
				"z": 1.8251055789,
				"element": "N" 
			},
			{
				"x": 0.757437741,
				"y": -2.2733730971,
				"z": 2.3401131622,
				"element": "C" 
			},
			{
				"x": 0.4228317515,
				"y": -2.5442912066,
				"z": 3.4858440597,
				"element": "O" 
			},
			{
				"x": 0.6497929127,
				"y": 0.141556783,
				"z": 2.7022988951,
				"element": "C" 
			},
			{
				"x": 1.9134254986,
				"y": 0.9857132401,
				"z": 2.9185006134,
				"element": "C" 
			},
			{
				"x": -0.5334779801,
				"y": 0.9830356118,
				"z": 2.2044503675,
				"element": "C" 
			},
			{
				"x": 3.0420156894,
				"y": -1.1139392427,
				"z": -0.874835635,
				"element": "H" 
			},
			{
				"x": 2.7616165828,
				"y": -2.4591523925,
				"z": 0.2358745381,
				"element": "H" 
			},
			{
				"x": 3.4539806258,
				"y": -0.946981053,
				"z": 0.8429831138,
				"element": "H" 
			},
			{
				"x": 1.3572739641,
				"y": 0.2628986064,
				"z": 0.2787982604,
				"element": "H" 
			},
			{
				"x": 0.5625054064,
				"y": -1.1159698734,
				"z": -1.5996245635,
				"element": "H" 
			},
			{
				"x": -0.7100445794,
				"y": -0.9536839096,
				"z": -0.3737263011,
				"element": "H" 
			},
			{
				"x": 0.2053365358,
				"y": -2.4627599836,
				"z": -0.5131931644,
				"element": "H" 
			},
			{
				"x": 0.9746639774,
				"y": -3.0645235145,
				"z": 1.5987107405,
				"element": "H" 
			},
			{
				"x": 0.3719324446,
				"y": -0.3127265546,
				"z": 3.6563877193,
				"element": "H" 
			},
			{
				"x": 1.7110885858,
				"y": 1.7848127073,
				"z": 3.6391449643,
				"element": "H" 
			},
			{
				"x": 2.7285655931,
				"y": 0.3716296054,
				"z": 3.312068741,
				"element": "H" 
			},
			{
				"x": 2.2561917713,
				"y": 1.4615141519,
				"z": 1.9923970462,
				"element": "H" 
			},
			{
				"x": -1.431242572,
				"y": 0.3671791055,
				"z": 2.0986210947,
				"element": "H" 
			},
			{
				"x": -0.3254197793,
				"y": 1.4582830209,
				"z": 1.2388439759,
				"element": "H" 
			},
			{
				"x": -0.7518535228,
				"y": 1.782420472,
				"z": 2.9200894609,
				"element": "H" 
			}
		],
		 "valence_orbital": [ 
			{
				"type": "occ",
				"energy": -0.34836,
				"method": "rhf"
			},
			{
				"type": "occ",
				"energy": -0.34744,
				"method": "rhf"
			},
			{
				"type": "occ",
				"energy": -0.33334,
				"method": "rhf"
			},
			{
				"type": "occ",
				"energy": -0.24072,
				"method": "rhf"
			},
			{
				"type": "occ",
				"energy": -0.23439,
				"method": "rhf"
			},
			{
				"type": "unocc",
				"energy": 0.03262,
				"method": "rhf"
			},
			{
				"type": "unocc",
				"energy": 0.06667,
				"method": "rhf"
			},
			{
				"type": "unocc",
				"energy": 0.09169,
				"method": "rhf"
			},
			{
				"type": "unocc",
				"energy": 0.11211,
				"method": "rhf"
			},
			{
				"type": "unocc",
				"energy": 0.12042,
				"method": "rhf"
			}
		],
		"cosmo_sigma_profile": { 
			"-0.025": 0.0,
			"-0.024": 0.0,
			"-0.023": 0.0,
			"-0.022": 0.0,
			"-0.021": 0.0,
			"-0.02": 0.0,
			"-0.019": 0.0,
			"-0.018": 0.0,
			"-0.017": 0.0,
			"-0.016": 0.0,
			"-0.015": 0.0,
			"-0.014": 0.0,
			"-0.013": 0.0,
			"-0.012": 0.0,
			"-0.011": 0.0,
			"-0.01": 0.0,
			"-0.009": 0.0,
			"-0.008": 0.0,
			"-0.007": 0.973974112114,
			"-0.006": 4.66464016478,
			"-0.005": 6.88160135988,
			"-0.004": 13.859866172,
			"-0.003": 27.8016932852,
			"-0.002": 27.9054994995,
			"-0.001": 30.8704373209,
			"0.0": 32.3431198016,
			"0.001": 21.8089975115,
			"0.002": 3.23198476756,
			"0.003": 1.5160028592,
			"0.004": 1.27850602425,
			"0.005": 1.35080970117,
			"0.006": 2.28929440676,
			"0.007": 1.17302403475,
			"0.008": 1.25327246829,
			"0.009": 1.81073377928,
			"0.01": 1.22378726428,
			"0.011": 1.45345382772,
			"0.012": 1.5506909634,
			"0.013": 3.05755984514,
			"0.014": 5.80535643882,
			"0.015": 2.00582826125,
			"0.016": 0.231226842729,
			"0.017": 0.0,
			"0.018": 0.0,
			"0.019": 0.0,
			"0.02": 0.0,
			"0.021": 0.0,
			"0.022": 0.0,
			"0.023": 0.0,
			"0.024": 0.0,
			"0.025": 0.0
		}
	}
}
