{
	 "smiles": "CC(=O)C(C1=CC=CC=C1)C1=CC=C(C=C1[N+]([O-])=O)C(F)(F)F", 
	 "Tm": 364.15, 
	 "num_atms": 35, 
	 "gaussian": { 
		 "optdone": 1, 
		 "sigma_profile": "yes", 
		 "theory": "DFT", 
		 "functional": "B3LYP", 
		 "basiset": "6-31G**", 
		 "properties": { 
			 "R2extent": 10353.6612, 
			 "electric_dipole_moment_norm": 5.5431061554, 
			 "electric_quadrupole_moment_norm": 7.26290800644, 
			 "total_energy": -1196.78276659, 
			 "HOMO_LUMO_gap": 0.14906, 
			 "cosmo_polarized_energy": -12.11, 
			 "cosmo_cavitation_energy": 40.98, 
			 "cosmo_dispersion_energy": -27.45, 
			 "cosmo_repulsion_energy": 2.02, 
			 "cosmo_total_nonelectrostatic_energy": 15.55, 
			 "SMD_solvation_energy": 10.61 
		},
		"coords": [
			{
				"x": 0.0131469971,
				"y": 2.0085526339,
				"z": 0.9018426943,
				"element": "C" 
			},
			{
				"x": 0.2122779324,
				"y": 0.5229557012,
				"z": 0.7002376205,
				"element": "C" 
			},
			{
				"x": 0.274547835,
				"y": -0.263185227,
				"z": 1.6241732841,
				"element": "O" 
			},
			{
				"x": 0.2895536657,
				"y": 0.0394247321,
				"z": -0.7731064578,
				"element": "C" 
			},
			{
				"x": -1.132662235,
				"y": 0.0133491386,
				"z": -1.3305038978,
				"element": "C" 
			},
			{
				"x": -2.1789636274,
				"y": -0.6041855809,
				"z": -0.6271583595,
				"element": "C" 
			},
			{
				"x": -3.4764397604,
				"y": -0.6023010435,
				"z": -1.1403439081,
				"element": "C" 
			},
			{
				"x": -3.7491074833,
				"y": 0.0190039485,
				"z": -2.3610939229,
				"element": "C" 
			},
			{
				"x": -2.7164867027,
				"y": 0.6390317718,
				"z": -3.0662353936,
				"element": "C" 
			},
			{
				"x": -1.4185991967,
				"y": 0.6369965289,
				"z": -2.5520576834,
				"element": "C" 
			},
			{
				"x": 1.0497484391,
				"y": -1.2816680047,
				"z": -0.8950901929,
				"element": "C" 
			},
			{
				"x": 0.4500833205,
				"y": -2.3941414262,
				"z": -1.502224023,
				"element": "C" 
			},
			{
				"x": 1.1007652326,
				"y": -3.6175883366,
				"z": -1.6344798308,
				"element": "C" 
			},
			{
				"x": 2.3955897322,
				"y": -3.7776860294,
				"z": -1.1412139375,
				"element": "C" 
			},
			{
				"x": 3.0278705225,
				"y": -2.7022266006,
				"z": -0.5295880675,
				"element": "C" 
			},
			{
				"x": 2.3667072967,
				"y": -1.4791528321,
				"z": -0.4241926201,
				"element": "C" 
			},
			{
				"x": 3.1617472065,
				"y": -0.3975351655,
				"z": 0.1892355841,
				"element": "N" 
			},
			{
				"x": 4.1402002062,
				"y": -0.7144048924,
				"z": 0.8580010916,
				"element": "O" 
			},
			{
				"x": 2.8243776639,
				"y": 0.7704259137,
				"z": -0.0252447604,
				"element": "O" 
			},
			{
				"x": 3.0826230007,
				"y": -5.1151637045,
				"z": -1.2307477402,
				"element": "C" 
			},
			{
				"x": 2.7220712705,
				"y": -5.9246098852,
				"z": -0.2109175532,
				"element": "F" 
			},
			{
				"x": 4.425277665,
				"y": -4.9938648179,
				"z": -1.1899740612,
				"element": "F" 
			},
			{
				"x": 2.7609543368,
				"y": -5.757119818,
				"z": -2.3755817419,
				"element": "F" 
			},
			{
				"x": -0.3041181205,
				"y": 2.2014327436,
				"z": 1.9275458789,
				"element": "H" 
			},
			{
				"x": 0.9708239542,
				"y": 2.5099689473,
				"z": 0.7218266037,
				"element": "H" 
			},
			{
				"x": -0.7157091145,
				"y": 2.4155674639,
				"z": 0.194905077,
				"element": "H" 
			},
			{
				"x": 0.8491043442,
				"y": 0.7989006703,
				"z": -1.3255332062,
				"element": "H" 
			},
			{
				"x": -1.9724708723,
				"y": -1.0838762566,
				"z": 0.3253365271,
				"element": "H" 
			},
			{
				"x": -4.2753631985,
				"y": -1.0831194232,
				"z": -0.5832893619,
				"element": "H" 
			},
			{
				"x": -4.7598871199,
				"y": 0.021890375,
				"z": -2.7583231201,
				"element": "H" 
			},
			{
				"x": -2.9194679804,
				"y": 1.1267202078,
				"z": -4.0153085326,
				"element": "H" 
			},
			{
				"x": -0.6183010365,
				"y": 1.1221241958,
				"z": -3.1053606315,
				"element": "H" 
			},
			{
				"x": -0.5582023147,
				"y": -2.2958638101,
				"z": -1.8835696375,
				"element": "H" 
			},
			{
				"x": 0.6012556241,
				"y": -4.4454098818,
				"z": -2.1264714742,
				"element": "H" 
			},
			{
				"x": 4.0331525169,
				"y": -2.788942236,
				"z": -0.1397942456,
				"element": "H" 
			}
		],
		 "valence_orbital": [ 
			{
				"type": "occ",
				"energy": -0.28793,
				"method": "rhf"
			},
			{
				"type": "occ",
				"energy": -0.28664,
				"method": "rhf"
			},
			{
				"type": "occ",
				"energy": -0.27011,
				"method": "rhf"
			},
			{
				"type": "occ",
				"energy": -0.26666,
				"method": "rhf"
			},
			{
				"type": "occ",
				"energy": -0.24866,
				"method": "rhf"
			},
			{
				"type": "unocc",
				"energy": -0.0996,
				"method": "rhf"
			},
			{
				"type": "unocc",
				"energy": -0.04506,
				"method": "rhf"
			},
			{
				"type": "unocc",
				"energy": -0.0322,
				"method": "rhf"
			},
			{
				"type": "unocc",
				"energy": -0.02489,
				"method": "rhf"
			},
			{
				"type": "unocc",
				"energy": -0.01438,
				"method": "rhf"
			}
		],
		"cosmo_sigma_profile": { 
			"-0.025": 0.0,
			"-0.024": 0.0,
			"-0.023": 0.0,
			"-0.022": 0.0,
			"-0.021": 0.0,
			"-0.02": 0.0,
			"-0.019": 0.0,
			"-0.018": 0.0,
			"-0.017": 0.0,
			"-0.016": 0.0,
			"-0.015": 0.0,
			"-0.014": 0.0,
			"-0.013": 0.0,
			"-0.012": 0.0,
			"-0.011": 0.0,
			"-0.01": 0.0,
			"-0.009": 0.476031414554,
			"-0.008": 2.57574038321,
			"-0.007": 7.08377011226,
			"-0.006": 15.6923292747,
			"-0.005": 22.8729620423,
			"-0.004": 24.8224424254,
			"-0.003": 23.8691601147,
			"-0.002": 28.995655283,
			"-0.001": 34.2566612064,
			"0.0": 28.58809931,
			"0.001": 21.8452966975,
			"0.002": 35.014566993,
			"0.003": 28.3893220669,
			"0.004": 11.4799364818,
			"0.005": 9.3352289596,
			"0.006": 6.41556423617,
			"0.007": 7.7359338272,
			"0.008": 5.47392052738,
			"0.009": 4.55658786856,
			"0.01": 2.29604206263,
			"0.011": 3.54444148533,
			"0.012": 2.34146543531,
			"0.013": 0.467999677156,
			"0.014": 0.0,
			"0.015": 0.0,
			"0.016": 0.0,
			"0.017": 0.0,
			"0.018": 0.0,
			"0.019": 0.0,
			"0.02": 0.0,
			"0.021": 0.0,
			"0.022": 0.0,
			"0.023": 0.0,
			"0.024": 0.0,
			"0.025": 0.0
		}
	}
}
