{
	 "smiles": "NC1=NC=C(Cl)S1", 
	 "Tm": 364.15, 
	 "num_atms": 10, 
	 "gaussian": { 
		 "optdone": 1, 
		 "sigma_profile": "yes", 
		 "theory": "DFT", 
		 "functional": "B3LYP", 
		 "basiset": "6-31G**", 
		 "properties": { 
			 "R2extent": 1534.1889, 
			 "electric_dipole_moment_norm": 2.665903918, 
			 "electric_quadrupole_moment_norm": 13.2586304598, 
			 "total_energy": -1083.99114945, 
			 "HOMO_LUMO_gap": 0.19814, 
			 "cosmo_polarized_energy": -8.98, 
			 "cosmo_cavitation_energy": 17.86, 
			 "cosmo_dispersion_energy": -14.32, 
			 "cosmo_repulsion_energy": 1.17, 
			 "cosmo_total_nonelectrostatic_energy": 4.72, 
			 "SMD_solvation_energy": 1.12 
		},
		"coords": [
			{
				"x": -2.8933398435,
				"y": 2.3056111138,
				"z": -0.8663914522,
				"element": "N" 
			},
			{
				"x": -1.6312591969,
				"y": 1.7981173584,
				"z": -0.6580609869,
				"element": "C" 
			},
			{
				"x": -0.8128543551,
				"y": 2.2353797307,
				"z": 0.2555262742,
				"element": "N" 
			},
			{
				"x": 0.406415749,
				"y": 1.5974205617,
				"z": 0.1739399779,
				"element": "C" 
			},
			{
				"x": 0.5226031618,
				"y": 0.6584525792,
				"z": -0.8020165336,
				"element": "C" 
			},
			{
				"x": 1.8840257004,
				"y": -0.3441437152,
				"z": -1.1624983571,
				"element": "Cl" 
			},
			{
				"x": -0.9720900322,
				"y": 0.5456256909,
				"z": -1.7256412344,
				"element": "S" 
			},
			{
				"x": -3.2066355971,
				"y": 2.8915153791,
				"z": -0.1026602614,
				"element": "H" 
			},
			{
				"x": -3.5966162369,
				"y": 1.6631479895,
				"z": -1.202940237,
				"element": "H" 
			},
			{
				"x": 1.1931506506,
				"y": 1.8514733119,
				"z": 0.8737428104,
				"element": "H" 
			}
		],
		 "valence_orbital": [ 
			{
				"type": "occ",
				"energy": -0.32478,
				"method": "rhf"
			},
			{
				"type": "occ",
				"energy": -0.31162,
				"method": "rhf"
			},
			{
				"type": "occ",
				"energy": -0.28282,
				"method": "rhf"
			},
			{
				"type": "occ",
				"energy": -0.28009,
				"method": "rhf"
			},
			{
				"type": "occ",
				"energy": -0.21456,
				"method": "rhf"
			},
			{
				"type": "unocc",
				"energy": -0.01642,
				"method": "rhf"
			},
			{
				"type": "unocc",
				"energy": -0.00425,
				"method": "rhf"
			},
			{
				"type": "unocc",
				"energy": 0.02427,
				"method": "rhf"
			},
			{
				"type": "unocc",
				"energy": 0.05573,
				"method": "rhf"
			},
			{
				"type": "unocc",
				"energy": 0.07069,
				"method": "rhf"
			}
		],
		"cosmo_sigma_profile": { 
			"-0.025": 0.0,
			"-0.024": 0.0,
			"-0.023": 0.0,
			"-0.022": 0.0,
			"-0.021": 0.0,
			"-0.02": 0.0,
			"-0.019": 0.0,
			"-0.018": 0.0,
			"-0.017": 0.0,
			"-0.016": 0.00193873049465,
			"-0.015": 0.919905199304,
			"-0.014": 2.36604189607,
			"-0.013": 2.51859314284,
			"-0.012": 2.66728382893,
			"-0.011": 2.68029944459,
			"-0.01": 3.01899939366,
			"-0.009": 1.85645727576,
			"-0.008": 3.2560520417,
			"-0.007": 2.96018042325,
			"-0.006": 2.32220691166,
			"-0.005": 3.43820277772,
			"-0.004": 3.77156018298,
			"-0.003": 5.12296465857,
			"-0.002": 7.76513891795,
			"-0.001": 8.73397575143,
			"0.0": 11.2345834543,
			"0.001": 15.3956223138,
			"0.002": 18.3991402957,
			"0.003": 18.9366250933,
			"0.004": 12.0877684295,
			"0.005": 3.33571445902,
			"0.006": 2.50076795846,
			"0.007": 1.91239790432,
			"0.008": 2.11089572863,
			"0.009": 1.54811836226,
			"0.01": 2.00741801422,
			"0.011": 1.2568135673,
			"0.012": 1.45611844134,
			"0.013": 0.819490756575,
			"0.014": 0.878950980003,
			"0.015": 0.526815607533,
			"0.016": 0.0217367397986,
			"0.017": 0.0,
			"0.018": 0.0,
			"0.019": 0.0,
			"0.02": 0.0,
			"0.021": 0.0,
			"0.022": 0.0,
			"0.023": 0.0,
			"0.024": 0.0,
			"0.025": 0.0
		}
	}
}
