{
	 "smiles": "NC(=S)C1=CC=C(S1)C1=NC=CC=C1", 
	 "Tm": 472.15, 
	 "num_atms": 22, 
	 "gaussian": { 
		 "optdone": 1, 
		 "sigma_profile": "yes", 
		 "theory": "DFT", 
		 "functional": "B3LYP", 
		 "basiset": "6-31G**", 
		 "properties": { 
			 "R2extent": 4703.6341, 
			 "electric_dipole_moment_norm": 5.54491118504, 
			 "electric_quadrupole_moment_norm": 21.4910628872, 
			 "total_energy": -1291.76379603, 
			 "HOMO_LUMO_gap": 0.12426, 
			 "cosmo_polarized_energy": -17.16, 
			 "cosmo_cavitation_energy": 29.89, 
			 "cosmo_dispersion_energy": -23.13, 
			 "cosmo_repulsion_energy": 1.72, 
			 "cosmo_total_nonelectrostatic_energy": 8.48, 
			 "SMD_solvation_energy": 2.87 
		},
		"coords": [
			{
				"x": 1.4525391242,
				"y": -3.1137178266,
				"z": 2.0630007492,
				"element": "N" 
			},
			{
				"x": 0.2340521548,
				"y": -3.2620830933,
				"z": 1.4895765707,
				"element": "C" 
			},
			{
				"x": -0.5512340077,
				"y": -4.7404176731,
				"z": 1.4877382902,
				"element": "S" 
			},
			{
				"x": -0.3332228944,
				"y": -2.0651609521,
				"z": 0.8611325169,
				"element": "C" 
			},
			{
				"x": -1.6442224116,
				"y": -1.8788341594,
				"z": 0.4712342027,
				"element": "C" 
			},
			{
				"x": -1.8848809433,
				"y": -0.6033298134,
				"z": -0.086049354,
				"element": "C" 
			},
			{
				"x": -0.760490326,
				"y": 0.1983242488,
				"z": -0.1327526568,
				"element": "C" 
			},
			{
				"x": 0.6264318984,
				"y": -0.6362686729,
				"z": 0.5141937614,
				"element": "S" 
			},
			{
				"x": -0.5958002922,
				"y": 1.5611793429,
				"z": -0.64054598,
				"element": "C" 
			},
			{
				"x": 0.6438153056,
				"y": 2.0804658787,
				"z": -0.5381667329,
				"element": "N" 
			},
			{
				"x": 0.852189101,
				"y": 3.3194363609,
				"z": -0.9861262297,
				"element": "C" 
			},
			{
				"x": -0.145244092,
				"y": 4.1136155323,
				"z": -1.5551830388,
				"element": "C" 
			},
			{
				"x": -1.4287676838,
				"y": 3.5765176329,
				"z": -1.6603025095,
				"element": "C" 
			},
			{
				"x": -1.6633549687,
				"y": 2.2851717937,
				"z": -1.2001289931,
				"element": "C" 
			},
			{
				"x": 1.8572298335,
				"y": -2.2049861652,
				"z": 2.2378047101,
				"element": "H" 
			},
			{
				"x": 1.8583111996,
				"y": -3.9167512047,
				"z": 2.51984669,
				"element": "H" 
			},
			{
				"x": -2.3924150379,
				"y": -2.6510514361,
				"z": 0.5988857331,
				"element": "H" 
			},
			{
				"x": -2.8580356331,
				"y": -0.2857228662,
				"z": -0.4418695162,
				"element": "H" 
			},
			{
				"x": 1.8677803933,
				"y": 3.6977765576,
				"z": -0.8848558165,
				"element": "H" 
			},
			{
				"x": 0.0799356617,
				"y": 5.11646807,
				"z": -1.9024516828,
				"element": "H" 
			},
			{
				"x": -2.2376746347,
				"y": 4.1553965602,
				"z": -2.0964117116,
				"element": "H" 
			},
			{
				"x": -2.6517417467,
				"y": 1.845071885,
				"z": -1.2733690022,
				"element": "H" 
			}
		],
		 "valence_orbital": [ 
			{
				"type": "occ",
				"energy": -0.27062,
				"method": "rhf"
			},
			{
				"type": "occ",
				"energy": -0.26414,
				"method": "rhf"
			},
			{
				"type": "occ",
				"energy": -0.24182,
				"method": "rhf"
			},
			{
				"type": "occ",
				"energy": -0.217,
				"method": "rhf"
			},
			{
				"type": "occ",
				"energy": -0.20601,
				"method": "rhf"
			},
			{
				"type": "unocc",
				"energy": -0.08175,
				"method": "rhf"
			},
			{
				"type": "unocc",
				"energy": -0.03291,
				"method": "rhf"
			},
			{
				"type": "unocc",
				"energy": -0.0263,
				"method": "rhf"
			},
			{
				"type": "unocc",
				"energy": 0.01975,
				"method": "rhf"
			},
			{
				"type": "unocc",
				"energy": 0.03611,
				"method": "rhf"
			}
		],
		"cosmo_sigma_profile": { 
			"-0.025": 0.0,
			"-0.024": 0.0,
			"-0.023": 0.0,
			"-0.022": 0.0,
			"-0.021": 0.0,
			"-0.02": 0.0,
			"-0.019": 0.0,
			"-0.018": 0.0,
			"-0.017": 0.0,
			"-0.016": 0.217890941599,
			"-0.015": 1.8176730444,
			"-0.014": 1.86126353943,
			"-0.013": 2.29738155288,
			"-0.012": 2.9110056291,
			"-0.011": 1.67623627894,
			"-0.01": 1.72476498687,
			"-0.009": 4.3504729175,
			"-0.008": 4.98961443543,
			"-0.007": 10.5098666429,
			"-0.006": 14.2921847791,
			"-0.005": 13.6506419772,
			"-0.004": 10.1948317167,
			"-0.003": 8.77760175993,
			"-0.002": 9.25443870961,
			"-0.001": 12.1188782026,
			"0.0": 14.93352584,
			"0.001": 25.5967860635,
			"0.002": 29.9509419867,
			"0.003": 17.0708995323,
			"0.004": 9.70743540356,
			"0.005": 6.65369089558,
			"0.006": 5.40791503269,
			"0.007": 7.24279908776,
			"0.008": 6.73926504328,
			"0.009": 9.17066506373,
			"0.01": 6.01348987066,
			"0.011": 4.46625353425,
			"0.012": 1.74659269532,
			"0.013": 0.0349854695583,
			"0.014": 0.0,
			"0.015": 0.0,
			"0.016": 0.0,
			"0.017": 0.0,
			"0.018": 0.0,
			"0.019": 0.0,
			"0.02": 0.0,
			"0.021": 0.0,
			"0.022": 0.0,
			"0.023": 0.0,
			"0.024": 0.0,
			"0.025": 0.0
		}
	}
}
