{
	 "smiles": "CC(C)OC1=CC(N)=C(Cl)C=C1Cl", 
	 "Tm": 315.15, 
	 "num_atms": 24, 
	 "gaussian": { 
		 "optdone": 1, 
		 "sigma_profile": "yes", 
		 "theory": "DFT", 
		 "functional": "B3LYP", 
		 "basiset": "6-31G**", 
		 "properties": { 
			 "R2extent": 5481.8369, 
			 "electric_dipole_moment_norm": 4.48075735786, 
			 "electric_quadrupole_moment_norm": 9.91611836456, 
			 "total_energy": -1399.95268535, 
			 "HOMO_LUMO_gap": 0.19377, 
			 "cosmo_polarized_energy": -10.96, 
			 "cosmo_cavitation_energy": 30.59, 
			 "cosmo_dispersion_energy": -22.26, 
			 "cosmo_repulsion_energy": 1.8, 
			 "cosmo_total_nonelectrostatic_energy": 10.13, 
			 "SMD_solvation_energy": 4.97 
		},
		"coords": [
			{
				"x": -1.1312768997,
				"y": -1.20666075,
				"z": -2.7827786788,
				"element": "C" 
			},
			{
				"x": -0.3910847776,
				"y": -1.1070043282,
				"z": -1.4539651479,
				"element": "C" 
			},
			{
				"x": -1.3367692957,
				"y": -1.0748005519,
				"z": -0.2531700273,
				"element": "C" 
			},
			{
				"x": 0.3688945248,
				"y": 0.1155077933,
				"z": -1.5292371779,
				"element": "O" 
			},
			{
				"x": 1.4560663103,
				"y": 0.3176246733,
				"z": -0.7467374815,
				"element": "C" 
			},
			{
				"x": 1.9783658764,
				"y": -0.611823565,
				"z": 0.1571495322,
				"element": "C" 
			},
			{
				"x": 3.1284512921,
				"y": -0.3439657822,
				"z": 0.9235528095,
				"element": "C" 
			},
			{
				"x": 3.6517337754,
				"y": -1.3116960763,
				"z": 1.7666843932,
				"element": "N" 
			},
			{
				"x": 3.7431365725,
				"y": 0.9085889648,
				"z": 0.7593003728,
				"element": "C" 
			},
			{
				"x": 5.1745590245,
				"y": 1.3073136564,
				"z": 1.7086731788,
				"element": "Cl" 
			},
			{
				"x": 3.236999088,
				"y": 1.8493692689,
				"z": -0.1327356991,
				"element": "C" 
			},
			{
				"x": 2.1036052116,
				"y": 1.5634816253,
				"z": -0.8818002797,
				"element": "C" 
			},
			{
				"x": 1.4818568063,
				"y": 2.7586418078,
				"z": -2.0015882695,
				"element": "Cl" 
			},
			{
				"x": -1.7302280724,
				"y": -2.1218263176,
				"z": -2.8155667236,
				"element": "H" 
			},
			{
				"x": -1.7982555698,
				"y": -0.3488644828,
				"z": -2.9109540468,
				"element": "H" 
			},
			{
				"x": -0.4246888256,
				"y": -1.2203794776,
				"z": -3.6165201922,
				"element": "H" 
			},
			{
				"x": 0.3041153492,
				"y": -1.9529799257,
				"z": -1.3700838668,
				"element": "H" 
			},
			{
				"x": -0.7927873315,
				"y": -0.9496079356,
				"z": 0.686693236,
				"element": "H" 
			},
			{
				"x": -2.0391830271,
				"y": -0.2417864159,
				"z": -0.3535350294,
				"element": "H" 
			},
			{
				"x": -1.9098534318,
				"y": -2.0059041274,
				"z": -0.1958374944,
				"element": "H" 
			},
			{
				"x": 1.5039380087,
				"y": -1.5784216166,
				"z": 0.2779115236,
				"element": "H" 
			},
			{
				"x": 2.9970109372,
				"y": -2.0028058871,
				"z": 2.1021193196,
				"element": "H" 
			},
			{
				"x": 4.2817307744,
				"y": -0.9738667029,
				"z": 2.4806106265,
				"element": "H" 
			},
			{
				"x": 3.7263636798,
				"y": 2.8097661531,
				"z": -0.2411848773,
				"element": "H" 
			}
		],
		 "valence_orbital": [ 
			{
				"type": "occ",
				"energy": -0.31905,
				"method": "rhf"
			},
			{
				"type": "occ",
				"energy": -0.30046,
				"method": "rhf"
			},
			{
				"type": "occ",
				"energy": -0.28293,
				"method": "rhf"
			},
			{
				"type": "occ",
				"energy": -0.23503,
				"method": "rhf"
			},
			{
				"type": "occ",
				"energy": -0.20222,
				"method": "rhf"
			},
			{
				"type": "unocc",
				"energy": -0.00845,
				"method": "rhf"
			},
			{
				"type": "unocc",
				"energy": 0.00915,
				"method": "rhf"
			},
			{
				"type": "unocc",
				"energy": 0.01639,
				"method": "rhf"
			},
			{
				"type": "unocc",
				"energy": 0.05705,
				"method": "rhf"
			},
			{
				"type": "unocc",
				"energy": 0.07695,
				"method": "rhf"
			}
		],
		"cosmo_sigma_profile": { 
			"-0.025": 0.0,
			"-0.024": 0.0,
			"-0.023": 0.0,
			"-0.022": 0.0,
			"-0.021": 0.0,
			"-0.02": 0.0,
			"-0.019": 0.0,
			"-0.018": 0.0,
			"-0.017": 0.0,
			"-0.016": 0.0,
			"-0.015": 0.0,
			"-0.014": 0.184400800133,
			"-0.013": 1.39663633261,
			"-0.012": 2.10660276612,
			"-0.011": 2.48980284149,
			"-0.01": 2.10929656553,
			"-0.009": 3.32758652821,
			"-0.008": 4.04031462418,
			"-0.007": 4.88410788166,
			"-0.006": 5.36423359976,
			"-0.005": 6.97941915367,
			"-0.004": 16.9644403477,
			"-0.003": 19.016257781,
			"-0.002": 17.8112227397,
			"-0.001": 18.3542178066,
			"0.0": 23.9254428103,
			"0.001": 18.0524109509,
			"0.002": 20.4577802242,
			"0.003": 26.0511155035,
			"0.004": 19.9674328204,
			"0.005": 15.748052524,
			"0.006": 5.02140500834,
			"0.007": 2.72274184156,
			"0.008": 2.88535166093,
			"0.009": 2.10856169526,
			"0.01": 2.63652992892,
			"0.011": 0.930634390481,
			"0.012": 0.520800643839,
			"0.013": 0.368568481785,
			"0.014": 0.0124898891978,
			"0.015": 0.0,
			"0.016": 0.0,
			"0.017": 0.0,
			"0.018": 0.0,
			"0.019": 0.0,
			"0.02": 0.0,
			"0.021": 0.0,
			"0.022": 0.0,
			"0.023": 0.0,
			"0.024": 0.0,
			"0.025": 0.0
		}
	}
}
