{
	 "smiles": "CC(=O)N1CCN(CC1)C1=CC=C(CO)C=C1", 
	 "Tm": 420.15, 
	 "num_atms": 35, 
	 "gaussian": { 
		 "optdone": 1, 
		 "sigma_profile": "yes", 
		 "theory": "DFT", 
		 "functional": "B3LYP", 
		 "basiset": "6-31G**", 
		 "properties": { 
			 "R2extent": 7197.087, 
			 "electric_dipole_moment_norm": 2.403201627, 
			 "electric_quadrupole_moment_norm": 37.0839319365, 
			 "total_energy": -766.17834903, 
			 "HOMO_LUMO_gap": 0.19153, 
			 "cosmo_polarized_energy": -17.0, 
			 "cosmo_cavitation_energy": 36.32, 
			 "cosmo_dispersion_energy": -26.56, 
			 "cosmo_repulsion_energy": 2.06, 
			 "cosmo_total_nonelectrostatic_energy": 11.82, 
			 "SMD_solvation_energy": 5.04 
		},
		"coords": [
			{
				"x": -3.1365648136,
				"y": -0.0513972943,
				"z": -5.4336781705,
				"element": "C" 
			},
			{
				"x": -1.855784171,
				"y": -0.8130584836,
				"z": -5.1244237641,
				"element": "C" 
			},
			{
				"x": -1.2620986495,
				"y": -1.4483412329,
				"z": -5.9901569591,
				"element": "O" 
			},
			{
				"x": -1.4020893174,
				"y": -0.7603329357,
				"z": -3.8261415161,
				"element": "N" 
			},
			{
				"x": -2.0397065801,
				"y": 0.0200725914,
				"z": -2.7654883637,
				"element": "C" 
			},
			{
				"x": -1.5332824067,
				"y": -0.418291576,
				"z": -1.3889598145,
				"element": "C" 
			},
			{
				"x": -0.086624236,
				"y": -0.2998979923,
				"z": -1.3029519704,
				"element": "N" 
			},
			{
				"x": 0.678831148,
				"y": -0.5831849872,
				"z": -2.5161152276,
				"element": "C" 
			},
			{
				"x": -0.1397383849,
				"y": -1.4222977584,
				"z": -3.4952881687,
				"element": "C" 
			},
			{
				"x": 0.5536657163,
				"y": -0.0915613023,
				"z": -0.0861089081,
				"element": "C" 
			},
			{
				"x": 1.9214897265,
				"y": 0.2566269708,
				"z": -0.0375164168,
				"element": "C" 
			},
			{
				"x": 2.5596180422,
				"y": 0.4728722482,
				"z": 1.1809117685,
				"element": "C" 
			},
			{
				"x": 1.8812163123,
				"y": 0.3538074716,
				"z": 2.3977718875,
				"element": "C" 
			},
			{
				"x": 2.5834769756,
				"y": 0.5594240344,
				"z": 3.7226802658,
				"element": "C" 
			},
			{
				"x": 1.7783967296,
				"y": 1.2187558412,
				"z": 4.6950213686,
				"element": "O" 
			},
			{
				"x": 0.5236199228,
				"y": 0.0141122188,
				"z": 2.3510538625,
				"element": "C" 
			},
			{
				"x": -0.131719042,
				"y": -0.2081111218,
				"z": 1.1442727747,
				"element": "C" 
			},
			{
				"x": -3.0748047148,
				"y": 1.0007204066,
				"z": -5.1369031767,
				"element": "H" 
			},
			{
				"x": -3.9957813175,
				"y": -0.4914896053,
				"z": -4.915080855,
				"element": "H" 
			},
			{
				"x": -3.3057482327,
				"y": -0.1143615921,
				"z": -6.5080724137,
				"element": "H" 
			},
			{
				"x": -1.8402647216,
				"y": 1.0948432834,
				"z": -2.8901450896,
				"element": "H" 
			},
			{
				"x": -3.1251663346,
				"y": -0.1181670881,
				"z": -2.7921568813,
				"element": "H" 
			},
			{
				"x": -1.991485321,
				"y": 0.2413406687,
				"z": -0.646106662,
				"element": "H" 
			},
			{
				"x": -1.8867179466,
				"y": -1.4409320581,
				"z": -1.1741180365,
				"element": "H" 
			},
			{
				"x": 1.5803777117,
				"y": -1.1481148561,
				"z": -2.2529402794,
				"element": "H" 
			},
			{
				"x": 1.009347404,
				"y": 0.3432014594,
				"z": -3.0124610195,
				"element": "H" 
			},
			{
				"x": -0.3270788899,
				"y": -2.4158330506,
				"z": -3.065056237,
				"element": "H" 
			},
			{
				"x": 0.4073270499,
				"y": -1.5693573428,
				"z": -4.4276706706,
				"element": "H" 
			},
			{
				"x": 2.4818190871,
				"y": 0.3950553257,
				"z": -0.9551322608,
				"element": "H" 
			},
			{
				"x": 3.6111900412,
				"y": 0.7527972269,
				"z": 1.1784169808,
				"element": "H" 
			},
			{
				"x": 2.8396027003,
				"y": -0.4041521664,
				"z": 4.1805535603,
				"element": "H" 
			},
			{
				"x": 3.5338457938,
				"y": 1.0923772662,
				"z": 3.5562849515,
				"element": "H" 
			},
			{
				"x": 1.4594993704,
				"y": 2.0369802259,
				"z": 4.2908170542,
				"element": "H" 
			},
			{
				"x": -0.0264070786,
				"y": -0.0803659131,
				"z": 3.2831767458,
				"element": "H" 
			},
			{
				"x": -1.1751615736,
				"y": -0.5015388822,
				"z": 1.1650116417,
				"element": "H" 
			}
		],
		 "valence_orbital": [ 
			{
				"type": "occ",
				"energy": -0.2643,
				"method": "rhf"
			},
			{
				"type": "occ",
				"energy": -0.24786,
				"method": "rhf"
			},
			{
				"type": "occ",
				"energy": -0.24637,
				"method": "rhf"
			},
			{
				"type": "occ",
				"energy": -0.23979,
				"method": "rhf"
			},
			{
				"type": "occ",
				"energy": -0.19188,
				"method": "rhf"
			},
			{
				"type": "unocc",
				"energy": -0.00035,
				"method": "rhf"
			},
			{
				"type": "unocc",
				"energy": 0.01109,
				"method": "rhf"
			},
			{
				"type": "unocc",
				"energy": 0.02708,
				"method": "rhf"
			},
			{
				"type": "unocc",
				"energy": 0.0657,
				"method": "rhf"
			},
			{
				"type": "unocc",
				"energy": 0.09339,
				"method": "rhf"
			}
		],
		"cosmo_sigma_profile": { 
			"-0.025": 0.0,
			"-0.024": 0.0,
			"-0.023": 0.0,
			"-0.022": 0.0,
			"-0.021": 0.0,
			"-0.02": 0.0,
			"-0.019": 0.0,
			"-0.018": 0.0,
			"-0.017": 0.0,
			"-0.016": 0.0,
			"-0.015": 0.607803542084,
			"-0.014": 0.714328111621,
			"-0.013": 0.804173272029,
			"-0.012": 0.802770059625,
			"-0.011": 0.694186745399,
			"-0.01": 0.63579010885,
			"-0.009": 0.93323644995,
			"-0.008": 0.505069351811,
			"-0.007": 2.28770183916,
			"-0.006": 9.47251529686,
			"-0.005": 26.1541057906,
			"-0.004": 42.4872053179,
			"-0.003": 37.3323488637,
			"-0.002": 24.0321705901,
			"-0.001": 21.3508052764,
			"0.0": 16.7930627913,
			"0.001": 11.6686979224,
			"0.002": 9.91845531157,
			"0.003": 10.3545074141,
			"0.004": 8.93224827425,
			"0.005": 9.93468475709,
			"0.006": 10.1466024789,
			"0.007": 9.37335528163,
			"0.008": 3.39200534375,
			"0.009": 2.77205900271,
			"0.01": 2.46948301399,
			"0.011": 2.20242711656,
			"0.012": 3.24931565443,
			"0.013": 3.82663215329,
			"0.014": 7.52255052174,
			"0.015": 3.02951014529,
			"0.016": 0.219217068913,
			"0.017": 0.0,
			"0.018": 0.0,
			"0.019": 0.0,
			"0.02": 0.0,
			"0.021": 0.0,
			"0.022": 0.0,
			"0.023": 0.0,
			"0.024": 0.0,
			"0.025": 0.0
		}
	}
}
