{
	 "smiles": "CC1=C(C=C(C=C1F)C(O)=O)[N+]([O-])=O", 
	 "Tm": 442.15, 
	 "num_atms": 20, 
	 "gaussian": { 
		 "optdone": 1, 
		 "sigma_profile": "yes", 
		 "theory": "DFT", 
		 "functional": "B3LYP", 
		 "basiset": "6-31G**", 
		 "properties": { 
			 "R2extent": 3171.5541, 
			 "electric_dipole_moment_norm": 4.13657689159, 
			 "electric_quadrupole_moment_norm": 12.0754009312, 
			 "total_energy": -763.866563399, 
			 "HOMO_LUMO_gap": 0.1773, 
			 "cosmo_polarized_energy": -11.93, 
			 "cosmo_cavitation_energy": 26.09, 
			 "cosmo_dispersion_energy": -18.99, 
			 "cosmo_repulsion_energy": 1.46, 
			 "cosmo_total_nonelectrostatic_energy": 8.56, 
			 "SMD_solvation_energy": 8.41 
		},
		"coords": [
			{
				"x": -0.0982481985,
				"y": 2.0925838094,
				"z": -2.706715428,
				"element": "C" 
			},
			{
				"x": -0.0887496478,
				"y": 1.0347969938,
				"z": -1.6337084389,
				"element": "C" 
			},
			{
				"x": -0.0084218638,
				"y": -0.3583056372,
				"z": -1.8351748019,
				"element": "C" 
			},
			{
				"x": 0.0220125829,
				"y": -1.2785574769,
				"z": -0.7910502985,
				"element": "C" 
			},
			{
				"x": -0.0465694363,
				"y": -0.82693122,
				"z": 0.5264474401,
				"element": "C" 
			},
			{
				"x": -0.127593593,
				"y": 0.545489697,
				"z": 0.783188053,
				"element": "C" 
			},
			{
				"x": -0.1418323921,
				"y": 1.4258369921,
				"z": -0.2874771125,
				"element": "C" 
			},
			{
				"x": -0.2100664721,
				"y": 2.7441571763,
				"z": -0.0085410401,
				"element": "F" 
			},
			{
				"x": -0.0278994506,
				"y": -1.8411862401,
				"z": 1.6176531841,
				"element": "C" 
			},
			{
				"x": -0.0908294195,
				"y": -1.2826889958,
				"z": 2.849366541,
				"element": "O" 
			},
			{
				"x": 0.0361587835,
				"y": -3.0394450805,
				"z": 1.4412807842,
				"element": "O" 
			},
			{
				"x": 0.044343309,
				"y": -0.9254626664,
				"z": -3.1985710563,
				"element": "N" 
			},
			{
				"x": 0.4744774288,
				"y": -2.0703848587,
				"z": -3.3175342065,
				"element": "O" 
			},
			{
				"x": -0.3561346565,
				"y": -0.2292129627,
				"z": -4.1309705867,
				"element": "O" 
			},
			{
				"x": 0.672194766,
				"y": 1.9059565616,
				"z": -3.4569506424,
				"element": "H" 
			},
			{
				"x": 0.0595899145,
				"y": 3.0728675689,
				"z": -2.2577525498,
				"element": "H" 
			},
			{
				"x": -1.053306695,
				"y": 2.0947921253,
				"z": -3.2388680597,
				"element": "H" 
			},
			{
				"x": 0.0962509199,
				"y": -2.3374327248,
				"z": -1.0007707253,
				"element": "H" 
			},
			{
				"x": -0.1764393665,
				"y": 0.9302710498,
				"z": 1.7942989666,
				"element": "H" 
			},
			{
				"x": -0.0722365131,
				"y": -2.0198441111,
				"z": 3.4818499774,
				"element": "H" 
			}
		],
		 "valence_orbital": [ 
			{
				"type": "occ",
				"energy": -0.31515,
				"method": "rhf"
			},
			{
				"type": "occ",
				"energy": -0.30436,
				"method": "rhf"
			},
			{
				"type": "occ",
				"energy": -0.29663,
				"method": "rhf"
			},
			{
				"type": "occ",
				"energy": -0.28951,
				"method": "rhf"
			},
			{
				"type": "occ",
				"energy": -0.27539,
				"method": "rhf"
			},
			{
				"type": "unocc",
				"energy": -0.09809,
				"method": "rhf"
			},
			{
				"type": "unocc",
				"energy": -0.06968,
				"method": "rhf"
			},
			{
				"type": "unocc",
				"energy": -0.01505,
				"method": "rhf"
			},
			{
				"type": "unocc",
				"energy": 0.0372,
				"method": "rhf"
			},
			{
				"type": "unocc",
				"energy": 0.059,
				"method": "rhf"
			}
		],
		"cosmo_sigma_profile": { 
			"-0.025": 0.0,
			"-0.024": 0.0,
			"-0.023": 0.0,
			"-0.022": 0.0,
			"-0.021": 0.0,
			"-0.02": 0.0,
			"-0.019": 0.4884385284,
			"-0.018": 0.820996616871,
			"-0.017": 1.13030121352,
			"-0.016": 0.91883523308,
			"-0.015": 0.680363611947,
			"-0.014": 0.394325595727,
			"-0.013": 0.382024553285,
			"-0.012": 1.31998572775,
			"-0.011": 0.71343041102,
			"-0.01": 0.425423457023,
			"-0.009": 0.877173941236,
			"-0.008": 3.18892113915,
			"-0.007": 4.09185361673,
			"-0.006": 5.74659460537,
			"-0.005": 8.74945424965,
			"-0.004": 13.4260150882,
			"-0.003": 19.3344125007,
			"-0.002": 30.5454162782,
			"-0.001": 23.1288892819,
			"0.0": 10.2552158335,
			"0.001": 10.0905083483,
			"0.002": 7.68476312114,
			"0.003": 12.2524697076,
			"0.004": 7.38950784345,
			"0.005": 6.1720993674,
			"0.006": 7.95134741831,
			"0.007": 8.85369857439,
			"0.008": 7.18451230768,
			"0.009": 5.25041772192,
			"0.01": 4.33200682006,
			"0.011": 4.82093180914,
			"0.012": 0.641029754389,
			"0.013": 0.0,
			"0.014": 0.0,
			"0.015": 0.0,
			"0.016": 0.0,
			"0.017": 0.0,
			"0.018": 0.0,
			"0.019": 0.0,
			"0.02": 0.0,
			"0.021": 0.0,
			"0.022": 0.0,
			"0.023": 0.0,
			"0.024": 0.0,
			"0.025": 0.0
		}
	}
}
