{
	 "smiles": "CC1=C(O)C=C(N)C=C1", 
	 "Tm": 435.15, 
	 "num_atms": 18, 
	 "gaussian": { 
		 "optdone": 1, 
		 "sigma_profile": "yes", 
		 "theory": "DFT", 
		 "functional": "B3LYP", 
		 "basiset": "6-31G**", 
		 "properties": { 
			 "R2extent": 1851.4839, 
			 "electric_dipole_moment_norm": 2.48062485273, 
			 "electric_quadrupole_moment_norm": 9.49938932879, 
			 "total_energy": -402.149520737, 
			 "HOMO_LUMO_gap": 0.20593, 
			 "cosmo_polarized_energy": -12.05, 
			 "cosmo_cavitation_energy": 21.33, 
			 "cosmo_dispersion_energy": -16.03, 
			 "cosmo_repulsion_energy": 1.32, 
			 "cosmo_total_nonelectrostatic_energy": 6.62, 
			 "SMD_solvation_energy": 3.98 
		},
		"coords": [
			{
				"x": 3.8821621416,
				"y": 0.0110028352,
				"z": -1.2088732721,
				"element": "C" 
			},
			{
				"x": 2.4842122392,
				"y": 0.3792737438,
				"z": -0.7820580566,
				"element": "C" 
			},
			{
				"x": 2.185923474,
				"y": 0.5976670659,
				"z": 0.5746583313,
				"element": "C" 
			},
			{
				"x": 3.2215102544,
				"y": 0.4584151405,
				"z": 1.4622088213,
				"element": "O" 
			},
			{
				"x": 0.9017365564,
				"y": 0.9415500116,
				"z": 0.9972248751,
				"element": "C" 
			},
			{
				"x": -0.1415421277,
				"y": 1.079011249,
				"z": 0.0675084802,
				"element": "C" 
			},
			{
				"x": -1.4420790511,
				"y": 1.3653527961,
				"z": 0.4999093754,
				"element": "N" 
			},
			{
				"x": 0.1383888533,
				"y": 0.8648136387,
				"z": -1.2896595045,
				"element": "C" 
			},
			{
				"x": 1.4304585696,
				"y": 0.521597718,
				"z": -1.6870978975,
				"element": "C" 
			},
			{
				"x": 4.2165667352,
				"y": -0.9193787361,
				"z": -0.7354843152,
				"element": "H" 
			},
			{
				"x": 4.6077481004,
				"y": 0.7821463796,
				"z": -0.9250681813,
				"element": "H" 
			},
			{
				"x": 3.933619736,
				"y": -0.121686902,
				"z": -2.2932604507,
				"element": "H" 
			},
			{
				"x": 2.893114472,
				"y": 0.6191790116,
				"z": 2.3559680507,
				"element": "H" 
			},
			{
				"x": 0.7046894784,
				"y": 1.0960778797,
				"z": 2.0573715559,
				"element": "H" 
			},
			{
				"x": -1.4962710508,
				"y": 1.8797360822,
				"z": 1.3688222572,
				"element": "H" 
			},
			{
				"x": -2.034710004,
				"y": 1.7785219942,
				"z": -0.2075603658,
				"element": "H" 
			},
			{
				"x": -0.6537993653,
				"y": 0.9616848948,
				"z": -2.0271851718,
				"element": "H" 
			},
			{
				"x": 1.6293709882,
				"y": 0.3607351971,
				"z": -2.7441245316,
				"element": "H" 
			}
		],
		 "valence_orbital": [ 
			{
				"type": "occ",
				"energy": -0.3412,
				"method": "rhf"
			},
			{
				"type": "occ",
				"energy": -0.33429,
				"method": "rhf"
			},
			{
				"type": "occ",
				"energy": -0.28156,
				"method": "rhf"
			},
			{
				"type": "occ",
				"energy": -0.22059,
				"method": "rhf"
			},
			{
				"type": "occ",
				"energy": -0.18854,
				"method": "rhf"
			},
			{
				"type": "unocc",
				"energy": 0.01739,
				"method": "rhf"
			},
			{
				"type": "unocc",
				"energy": 0.03121,
				"method": "rhf"
			},
			{
				"type": "unocc",
				"energy": 0.07472,
				"method": "rhf"
			},
			{
				"type": "unocc",
				"energy": 0.08431,
				"method": "rhf"
			},
			{
				"type": "unocc",
				"energy": 0.11631,
				"method": "rhf"
			}
		],
		"cosmo_sigma_profile": { 
			"-0.025": 0.0,
			"-0.024": 0.0,
			"-0.023": 0.0,
			"-0.022": 0.0,
			"-0.021": 0.0,
			"-0.02": 0.0,
			"-0.019": 0.0,
			"-0.018": 0.0378402587003,
			"-0.017": 1.09429543433,
			"-0.016": 0.683837098497,
			"-0.015": 1.16187715558,
			"-0.014": 1.04954422997,
			"-0.013": 0.975160852511,
			"-0.012": 2.02945593019,
			"-0.011": 3.49668643314,
			"-0.01": 4.45359138889,
			"-0.009": 3.69770203111,
			"-0.008": 4.34597743886,
			"-0.007": 4.55068508221,
			"-0.006": 3.72223724158,
			"-0.005": 5.46451894632,
			"-0.004": 8.59767216072,
			"-0.003": 11.3330985089,
			"-0.002": 8.57347148298,
			"-0.001": 9.39144862693,
			"0.0": 11.9542163531,
			"0.001": 11.9351103155,
			"0.002": 7.00730707843,
			"0.003": 7.71152075612,
			"0.004": 9.17306547548,
			"0.005": 8.54621661786,
			"0.006": 9.93643065812,
			"0.007": 11.1145130936,
			"0.008": 5.36427052113,
			"0.009": 2.41409480971,
			"0.01": 2.58001583291,
			"0.011": 2.14385182883,
			"0.012": 1.3100325625,
			"0.013": 0.600913033966,
			"0.014": 0.719868580223,
			"0.015": 0.475857866176,
			"0.016": 0.139090536914,
			"0.017": 0.0,
			"0.018": 0.0,
			"0.019": 0.0,
			"0.02": 0.0,
			"0.021": 0.0,
			"0.022": 0.0,
			"0.023": 0.0,
			"0.024": 0.0,
			"0.025": 0.0
		}
	}
}
