{
	 "smiles": "OC(=O)[C@@H]1CSC(=O)N1", 
	 "Tm": 441.15, 
	 "num_atms": 14, 
	 "gaussian": { 
		 "optdone": 1, 
		 "sigma_profile": "yes", 
		 "theory": "DFT", 
		 "functional": "B3LYP", 
		 "basiset": "6-31G**", 
		 "properties": { 
			 "R2extent": 1602.1702, 
			 "electric_dipole_moment_norm": 0.425163133397, 
			 "electric_quadrupole_moment_norm": 18.7597036448, 
			 "total_energy": -834.0674355, 
			 "HOMO_LUMO_gap": 0.24244, 
			 "cosmo_polarized_energy": -18.64, 
			 "cosmo_cavitation_energy": 20.04, 
			 "cosmo_dispersion_energy": -15.45, 
			 "cosmo_repulsion_energy": 1.23, 
			 "cosmo_total_nonelectrostatic_energy": 5.82, 
			 "SMD_solvation_energy": 5.15 
		},
		"coords": [
			{
				"x": 1.872453188,
				"y": -0.1436593213,
				"z": -0.0985045354,
				"element": "O" 
			},
			{
				"x": 1.2107168083,
				"y": -0.7728426319,
				"z": 0.8921158352,
				"element": "C" 
			},
			{
				"x": 1.7671985053,
				"y": -1.425539969,
				"z": 1.7378427335,
				"element": "O" 
			},
			{
				"x": -0.3187856065,
				"y": -0.6514534924,
				"z": 0.8255354121,
				"element": "C" 
			},
			{
				"x": -0.889576247,
				"y": -1.8329734555,
				"z": 0.0044232784,
				"element": "C" 
			},
			{
				"x": -2.4852457148,
				"y": -1.2463249094,
				"z": -0.6831938656,
				"element": "S" 
			},
			{
				"x": -1.9956915019,
				"y": 0.4851895309,
				"z": -0.506871398,
				"element": "C" 
			},
			{
				"x": -2.6433510559,
				"y": 1.4339771429,
				"z": -0.869421696,
				"element": "O" 
			},
			{
				"x": -0.7440702715,
				"y": 0.5544375673,
				"z": 0.1199026933,
				"element": "N" 
			},
			{
				"x": 1.2198728432,
				"y": 0.3396982232,
				"z": -0.6386036489,
				"element": "H" 
			},
			{
				"x": -0.6995769718,
				"y": -0.6890408347,
				"z": 1.8523737924,
				"element": "H" 
			},
			{
				"x": -0.2203862897,
				"y": -2.0970472423,
				"z": -0.8185562165,
				"element": "H" 
			},
			{
				"x": -1.0415780871,
				"y": -2.7083431009,
				"z": 0.6351812035,
				"element": "H" 
			},
			{
				"x": -0.5992795985,
				"y": 1.4474224931,
				"z": 0.581476412,
				"element": "H" 
			}
		],
		 "valence_orbital": [ 
			{
				"type": "occ",
				"energy": -0.33355,
				"method": "rhf"
			},
			{
				"type": "occ",
				"energy": -0.31432,
				"method": "rhf"
			},
			{
				"type": "occ",
				"energy": -0.29784,
				"method": "rhf"
			},
			{
				"type": "occ",
				"energy": -0.28075,
				"method": "rhf"
			},
			{
				"type": "occ",
				"energy": -0.27179,
				"method": "rhf"
			},
			{
				"type": "unocc",
				"energy": -0.02935,
				"method": "rhf"
			},
			{
				"type": "unocc",
				"energy": -0.01189,
				"method": "rhf"
			},
			{
				"type": "unocc",
				"energy": 0.00903,
				"method": "rhf"
			},
			{
				"type": "unocc",
				"energy": 0.04913,
				"method": "rhf"
			},
			{
				"type": "unocc",
				"energy": 0.05693,
				"method": "rhf"
			}
		],
		"cosmo_sigma_profile": { 
			"-0.025": 0.0,
			"-0.024": 0.0,
			"-0.023": 0.0,
			"-0.022": 0.0,
			"-0.021": 0.0,
			"-0.02": 0.0,
			"-0.019": 0.0,
			"-0.018": 0.0,
			"-0.017": 0.0119352360265,
			"-0.016": 1.86294994354,
			"-0.015": 2.64020401476,
			"-0.014": 2.02054715215,
			"-0.013": 2.58141994465,
			"-0.012": 3.14661906638,
			"-0.011": 2.92251374764,
			"-0.01": 2.82522078417,
			"-0.009": 2.91702666152,
			"-0.008": 11.4630549706,
			"-0.007": 8.7345024264,
			"-0.006": 7.26119570182,
			"-0.005": 7.53296855873,
			"-0.004": 5.24908112223,
			"-0.003": 3.64771157637,
			"-0.002": 4.64608009139,
			"-0.001": 4.72784870751,
			"0.0": 6.43998494,
			"0.001": 6.80578867051,
			"0.002": 7.83006703931,
			"0.003": 7.92358607873,
			"0.004": 6.02757374966,
			"0.005": 6.81362585898,
			"0.006": 4.62865399904,
			"0.007": 4.46513871688,
			"0.008": 5.11785386977,
			"0.009": 6.47774427622,
			"0.01": 7.15610661866,
			"0.011": 11.3134878028,
			"0.012": 5.72106394709,
			"0.013": 0.377998339497,
			"0.014": 0.0,
			"0.015": 0.0,
			"0.016": 0.0,
			"0.017": 0.0,
			"0.018": 0.0,
			"0.019": 0.0,
			"0.02": 0.0,
			"0.021": 0.0,
			"0.022": 0.0,
			"0.023": 0.0,
			"0.024": 0.0,
			"0.025": 0.0
		}
	}
}
