{
	 "smiles": "[O-][N+](=O)C1=CC=C(OC(Cl)=O)C=C1", 
	 "Tm": 351.65, 
	 "num_atms": 17, 
	 "gaussian": { 
		 "optdone": 1, 
		 "sigma_profile": "yes", 
		 "theory": "DFT", 
		 "functional": "B3LYP", 
		 "basiset": "6-31G**", 
		 "properties": { 
			 "R2extent": 4015.1538, 
			 "electric_dipole_moment_norm": 2.5712419995, 
			 "electric_quadrupole_moment_norm": 13.9263476544, 
			 "total_energy": -1084.88859694, 
			 "HOMO_LUMO_gap": 0.19469, 
			 "cosmo_polarized_energy": -10.23, 
			 "cosmo_cavitation_energy": 25.79, 
			 "cosmo_dispersion_energy": -18.68, 
			 "cosmo_repulsion_energy": 1.5, 
			 "cosmo_total_nonelectrostatic_energy": 8.62, 
			 "SMD_solvation_energy": 7.99 
		},
		"coords": [
			{
				"x": -2.9003277891,
				"y": -0.3655362704,
				"z": 2.1831829861,
				"element": "O" 
			},
			{
				"x": -1.715549036,
				"y": -0.3644090065,
				"z": 2.5120536131,
				"element": "N" 
			},
			{
				"x": -1.3032281035,
				"y": -0.4628245992,
				"z": 3.66624547,
				"element": "O" 
			},
			{
				"x": -0.7125853871,
				"y": -0.233272311,
				"z": 1.4405746463,
				"element": "C" 
			},
			{
				"x": 0.6384855828,
				"y": -0.2264663529,
				"z": 1.7824048751,
				"element": "C" 
			},
			{
				"x": 1.5849359199,
				"y": -0.100261308,
				"z": 0.7694281506,
				"element": "C" 
			},
			{
				"x": 1.1489401076,
				"y": 0.0133059996,
				"z": -0.5480144839,
				"element": "C" 
			},
			{
				"x": 2.1020928499,
				"y": 0.219315451,
				"z": -1.5608768038,
				"element": "O" 
			},
			{
				"x": 2.592145275,
				"y": -0.8845524951,
				"z": -2.1626443321,
				"element": "C" 
			},
			{
				"x": 3.7605863347,
				"y": -0.3668252012,
				"z": -3.3852898329,
				"element": "Cl" 
			},
			{
				"x": 2.3148698848,
				"y": -2.0209447421,
				"z": -1.9400831702,
				"element": "O" 
			},
			{
				"x": -0.2010401237,
				"y": 0.0092875378,
				"z": -0.8888583393,
				"element": "C" 
			},
			{
				"x": -1.1494527905,
				"y": -0.11685878,
				"z": 0.1222844113,
				"element": "C" 
			},
			{
				"x": 0.926439008,
				"y": -0.3179495034,
				"z": 2.8219206439,
				"element": "H" 
			},
			{
				"x": 2.6459640749,
				"y": -0.0847066025,
				"z": 0.9918324129,
				"element": "H" 
			},
			{
				"x": -0.497638742,
				"y": 0.1081503651,
				"z": -1.9270018724,
				"element": "H" 
			},
			{
				"x": -2.2107370656,
				"y": -0.1256521812,
				"z": -0.0909583744,
				"element": "H" 
			}
		],
		 "valence_orbital": [ 
			{
				"type": "occ",
				"energy": -0.32184,
				"method": "rhf"
			},
			{
				"type": "occ",
				"energy": -0.31927,
				"method": "rhf"
			},
			{
				"type": "occ",
				"energy": -0.30311,
				"method": "rhf"
			},
			{
				"type": "occ",
				"energy": -0.29912,
				"method": "rhf"
			},
			{
				"type": "occ",
				"energy": -0.29718,
				"method": "rhf"
			},
			{
				"type": "unocc",
				"energy": -0.10249,
				"method": "rhf"
			},
			{
				"type": "unocc",
				"energy": -0.04919,
				"method": "rhf"
			},
			{
				"type": "unocc",
				"energy": -0.02785,
				"method": "rhf"
			},
			{
				"type": "unocc",
				"energy": -0.02017,
				"method": "rhf"
			},
			{
				"type": "unocc",
				"energy": 0.00468,
				"method": "rhf"
			}
		],
		"cosmo_sigma_profile": { 
			"-0.025": 0.0,
			"-0.024": 0.0,
			"-0.023": 0.0,
			"-0.022": 0.0,
			"-0.021": 0.0,
			"-0.02": 0.0,
			"-0.019": 0.0,
			"-0.018": 0.0,
			"-0.017": 0.0,
			"-0.016": 0.0,
			"-0.015": 0.0,
			"-0.014": 0.0,
			"-0.013": 0.0,
			"-0.012": 0.0,
			"-0.011": 0.0,
			"-0.01": 0.404995074675,
			"-0.009": 5.84926025659,
			"-0.008": 9.04282374578,
			"-0.007": 9.92656517702,
			"-0.006": 9.00808812319,
			"-0.005": 8.47746695432,
			"-0.004": 10.490621595,
			"-0.003": 11.25831519,
			"-0.002": 15.6436874158,
			"-0.001": 20.8971513525,
			"0.0": 18.5857477752,
			"0.001": 12.9289920332,
			"0.002": 15.4567109755,
			"0.003": 12.7292077892,
			"0.004": 6.95173092128,
			"0.005": 6.16315663529,
			"0.006": 6.45006522101,
			"0.007": 12.1941306286,
			"0.008": 10.4184233224,
			"0.009": 6.40315518299,
			"0.01": 1.55852829744,
			"0.011": 0.0,
			"0.012": 0.0,
			"0.013": 0.0,
			"0.014": 0.0,
			"0.015": 0.0,
			"0.016": 0.0,
			"0.017": 0.0,
			"0.018": 0.0,
			"0.019": 0.0,
			"0.02": 0.0,
			"0.021": 0.0,
			"0.022": 0.0,
			"0.023": 0.0,
			"0.024": 0.0,
			"0.025": 0.0
		}
	}
}
