{
	 "smiles": "NC(=O)C1=C(F)C=CC(F)=C1F", 
	 "Tm": 390.15, 
	 "num_atms": 16, 
	 "gaussian": { 
		 "optdone": 1, 
		 "sigma_profile": "yes", 
		 "theory": "DFT", 
		 "functional": "B3LYP", 
		 "basiset": "6-31G**", 
		 "properties": { 
			 "R2extent": 2499.3893, 
			 "electric_dipole_moment_norm": 4.59928925596, 
			 "electric_quadrupole_moment_norm": 16.4523466296, 
			 "total_energy": -698.634245593, 
			 "HOMO_LUMO_gap": 0.2007, 
			 "cosmo_polarized_energy": -12.38, 
			 "cosmo_cavitation_energy": 22.04, 
			 "cosmo_dispersion_energy": -16.33, 
			 "cosmo_repulsion_energy": 1.24, 
			 "cosmo_total_nonelectrostatic_energy": 6.95, 
			 "SMD_solvation_energy": 5.88 
		},
		"coords": [
			{
				"x": -1.7350959802,
				"y": 0.0196689341,
				"z": -2.9492987524,
				"element": "N" 
			},
			{
				"x": -2.155612645,
				"y": 0.6931970347,
				"z": -1.8402348389,
				"element": "C" 
			},
			{
				"x": -3.2069406388,
				"y": 1.3169332115,
				"z": -1.8302806599,
				"element": "O" 
			},
			{
				"x": -1.2575838293,
				"y": 0.6300364837,
				"z": -0.6172399189,
				"element": "C" 
			},
			{
				"x": -0.0331189224,
				"y": -0.0586222748,
				"z": -0.5326062909,
				"element": "C" 
			},
			{
				"x": 0.4354750241,
				"y": -0.7450955983,
				"z": -1.6109093585,
				"element": "F" 
			},
			{
				"x": 0.763150581,
				"y": -0.0958867238,
				"z": 0.6004830481,
				"element": "C" 
			},
			{
				"x": 0.3464491025,
				"y": 0.5846868027,
				"z": 1.7436440939,
				"element": "C" 
			},
			{
				"x": -0.8515987998,
				"y": 1.2768997559,
				"z": 1.7095332306,
				"element": "C" 
			},
			{
				"x": -1.2834581369,
				"y": 1.9431081836,
				"z": 2.7918856774,
				"element": "F" 
			},
			{
				"x": -1.6428267853,
				"y": 1.3040104354,
				"z": 0.55737567,
				"element": "C" 
			},
			{
				"x": -2.7733354398,
				"y": 1.9995677054,
				"z": 0.6369580126,
				"element": "F" 
			},
			{
				"x": -0.8773229329,
				"y": -0.5024015594,
				"z": -2.9887468142,
				"element": "H" 
			},
			{
				"x": -2.3421672222,
				"y": 0.0703208185,
				"z": -3.7524455954,
				"element": "H" 
			},
			{
				"x": 1.6923879599,
				"y": -0.6525682092,
				"z": 0.5749815452,
				"element": "H" 
			},
			{
				"x": 0.9355986653,
				"y": 0.584345,
				"z": 2.6536009512,
				"element": "H" 
			}
		],
		 "valence_orbital": [ 
			{
				"type": "occ",
				"energy": -0.36362,
				"method": "rhf"
			},
			{
				"type": "occ",
				"energy": -0.27907,
				"method": "rhf"
			},
			{
				"type": "occ",
				"energy": -0.26822,
				"method": "rhf"
			},
			{
				"type": "occ",
				"energy": -0.25602,
				"method": "rhf"
			},
			{
				"type": "occ",
				"energy": -0.25541,
				"method": "rhf"
			},
			{
				"type": "unocc",
				"energy": -0.05471,
				"method": "rhf"
			},
			{
				"type": "unocc",
				"energy": -0.01606,
				"method": "rhf"
			},
			{
				"type": "unocc",
				"energy": 0.05048,
				"method": "rhf"
			},
			{
				"type": "unocc",
				"energy": 0.05459,
				"method": "rhf"
			},
			{
				"type": "unocc",
				"energy": 0.09464,
				"method": "rhf"
			}
		],
		"cosmo_sigma_profile": { 
			"-0.025": 0.0,
			"-0.024": 0.0,
			"-0.023": 0.0,
			"-0.022": 0.0,
			"-0.021": 0.0,
			"-0.02": 0.0,
			"-0.019": 0.0,
			"-0.018": 0.0,
			"-0.017": 0.0,
			"-0.016": 0.0,
			"-0.015": 0.0676702979182,
			"-0.014": 0.784732196766,
			"-0.013": 1.16977647339,
			"-0.012": 2.00839552867,
			"-0.011": 1.93233256376,
			"-0.01": 1.71722838453,
			"-0.009": 4.2044003032,
			"-0.008": 6.18153337184,
			"-0.007": 4.83015299514,
			"-0.006": 5.25584131655,
			"-0.005": 4.89911650993,
			"-0.004": 5.57674970917,
			"-0.003": 9.88786373059,
			"-0.002": 18.9363996597,
			"-0.001": 19.2173070789,
			"0.0": 14.3544849282,
			"0.001": 12.3323037113,
			"0.002": 11.1450885963,
			"0.003": 19.8620576517,
			"0.004": 10.1371103067,
			"0.005": 2.37006188363,
			"0.006": 1.75998187416,
			"0.007": 1.65667565042,
			"0.008": 1.9865908293,
			"0.009": 1.58071310324,
			"0.01": 1.09059616174,
			"0.011": 2.12189048467,
			"0.012": 2.50632596851,
			"0.013": 5.50680431643,
			"0.014": 2.83596162174,
			"0.015": 0.0486445259115,
			"0.016": 0.0,
			"0.017": 0.0,
			"0.018": 0.0,
			"0.019": 0.0,
			"0.02": 0.0,
			"0.021": 0.0,
			"0.022": 0.0,
			"0.023": 0.0,
			"0.024": 0.0,
			"0.025": 0.0
		}
	}
}
