{
	 "smiles": "CC1=CSC2=NC(CCl)=CC(=O)N12", 
	 "Tm": 375.15, 
	 "num_atms": 20, 
	 "gaussian": { 
		 "optdone": 1, 
		 "sigma_profile": "yes", 
		 "theory": "DFT", 
		 "functional": "B3LYP", 
		 "basiset": "6-31G**", 
		 "properties": { 
			 "R2extent": 3831.0838, 
			 "electric_dipole_moment_norm": 3.45248092971, 
			 "electric_quadrupole_moment_norm": 19.5315577029, 
			 "total_energy": -1352.18214824, 
			 "HOMO_LUMO_gap": 0.1596, 
			 "cosmo_polarized_energy": -12.01, 
			 "cosmo_cavitation_energy": 27.64, 
			 "cosmo_dispersion_energy": -21.04, 
			 "cosmo_repulsion_energy": 1.61, 
			 "cosmo_total_nonelectrostatic_energy": 8.22, 
			 "SMD_solvation_energy": 3.49 
		},
		"coords": [
			{
				"x": 2.7018713337,
				"y": -1.1954647791,
				"z": 2.2468178392,
				"element": "C" 
			},
			{
				"x": 1.2536480555,
				"y": -1.552891532,
				"z": 2.1032016302,
				"element": "C" 
			},
			{
				"x": 0.5431583674,
				"y": -2.3011635264,
				"z": 2.9750158859,
				"element": "C" 
			},
			{
				"x": -1.1292330406,
				"y": -2.5248663552,
				"z": 2.5103169181,
				"element": "S" 
			},
			{
				"x": -0.8565051485,
				"y": -1.5621441607,
				"z": 1.0703844323,
				"element": "C" 
			},
			{
				"x": -1.7902889622,
				"y": -1.3148726898,
				"z": 0.1967603091,
				"element": "N" 
			},
			{
				"x": -1.4184373376,
				"y": -0.5451822958,
				"z": -0.8676971188,
				"element": "C" 
			},
			{
				"x": -2.5064084607,
				"y": -0.25692009,
				"z": -1.8631668929,
				"element": "C" 
			},
			{
				"x": -3.5910399417,
				"y": 1.092489834,
				"z": -1.2889204412,
				"element": "Cl" 
			},
			{
				"x": -0.1466436893,
				"y": -0.061762663,
				"z": -1.0446639386,
				"element": "C" 
			},
			{
				"x": 0.9099423591,
				"y": -0.324788477,
				"z": -0.1026105451,
				"element": "C" 
			},
			{
				"x": 2.0699417731,
				"y": 0.05344121,
				"z": -0.1710152423,
				"element": "O" 
			},
			{
				"x": 0.4570020303,
				"y": -1.1307295522,
				"z": 1.0131553212,
				"element": "N" 
			},
			{
				"x": 3.0782917825,
				"y": -1.6393279949,
				"z": 3.1720780833,
				"element": "H" 
			},
			{
				"x": 2.8462855144,
				"y": -0.1137252543,
				"z": 2.2823650927,
				"element": "H" 
			},
			{
				"x": 3.2919847424,
				"y": -1.5629483896,
				"z": 1.4049440717,
				"element": "H" 
			},
			{
				"x": 0.9203591074,
				"y": -2.7403447892,
				"z": 3.8867259615,
				"element": "H" 
			},
			{
				"x": -3.1496182958,
				"y": -1.1278621335,
				"z": -1.985969767,
				"element": "H" 
			},
			{
				"x": -2.1032750223,
				"y": 0.0598920804,
				"z": -2.824157183,
				"element": "H" 
			},
			{
				"x": 0.119464833,
				"y": 0.547171558,
				"z": -1.8998644164,
				"element": "H" 
			}
		],
		 "valence_orbital": [ 
			{
				"type": "occ",
				"energy": -0.29709,
				"method": "rhf"
			},
			{
				"type": "occ",
				"energy": -0.29288,
				"method": "rhf"
			},
			{
				"type": "occ",
				"energy": -0.2753,
				"method": "rhf"
			},
			{
				"type": "occ",
				"energy": -0.26966,
				"method": "rhf"
			},
			{
				"type": "occ",
				"energy": -0.22412,
				"method": "rhf"
			},
			{
				"type": "unocc",
				"energy": -0.06452,
				"method": "rhf"
			},
			{
				"type": "unocc",
				"energy": -0.01568,
				"method": "rhf"
			},
			{
				"type": "unocc",
				"energy": -0.00522,
				"method": "rhf"
			},
			{
				"type": "unocc",
				"energy": -0.00162,
				"method": "rhf"
			},
			{
				"type": "unocc",
				"energy": 0.03764,
				"method": "rhf"
			}
		],
		"cosmo_sigma_profile": { 
			"-0.025": 0.0,
			"-0.024": 0.0,
			"-0.023": 0.0,
			"-0.022": 0.0,
			"-0.021": 0.0,
			"-0.02": 0.0,
			"-0.019": 0.0,
			"-0.018": 0.0,
			"-0.017": 0.0,
			"-0.016": 0.0,
			"-0.015": 0.0,
			"-0.014": 0.0,
			"-0.013": 0.0,
			"-0.012": 0.0,
			"-0.011": 0.0808590067065,
			"-0.01": 1.95803955328,
			"-0.009": 3.99670038744,
			"-0.008": 8.36886751785,
			"-0.007": 8.13510195325,
			"-0.006": 7.26674112989,
			"-0.005": 12.7637255865,
			"-0.004": 17.3846122915,
			"-0.003": 16.0399739744,
			"-0.002": 16.043453247,
			"-0.001": 21.2526151725,
			"0.0": 18.6762820075,
			"0.001": 17.9266309936,
			"0.002": 14.0360849457,
			"0.003": 10.1234491883,
			"0.004": 7.16740505732,
			"0.005": 9.13267900478,
			"0.006": 12.2978227466,
			"0.007": 5.89138091078,
			"0.008": 2.30806566646,
			"0.009": 2.45509019713,
			"0.01": 2.35709543827,
			"0.011": 3.11264339459,
			"0.012": 2.96585899451,
			"0.013": 3.52456874643,
			"0.014": 0.826486216692,
			"0.015": 0.0,
			"0.016": 0.0,
			"0.017": 0.0,
			"0.018": 0.0,
			"0.019": 0.0,
			"0.02": 0.0,
			"0.021": 0.0,
			"0.022": 0.0,
			"0.023": 0.0,
			"0.024": 0.0,
			"0.025": 0.0
		}
	}
}
