{
	 "smiles": "[O-][N+](=O)C1=CC=C(OC2CCNCC2)C=C1", 
	 "Tm": 371.15, 
	 "num_atms": 30, 
	 "gaussian": { 
		 "optdone": 1, 
		 "sigma_profile": "yes", 
		 "theory": "DFT", 
		 "functional": "B3LYP", 
		 "basiset": "6-31G**", 
		 "properties": { 
			 "R2extent": 5797.8773, 
			 "electric_dipole_moment_norm": 6.78902536009, 
			 "electric_quadrupole_moment_norm": 23.6375360408, 
			 "total_energy": -762.662730508, 
			 "HOMO_LUMO_gap": 0.15428, 
			 "cosmo_polarized_energy": -12.16, 
			 "cosmo_cavitation_energy": 32.32, 
			 "cosmo_dispersion_energy": -23.98, 
			 "cosmo_repulsion_energy": 1.87, 
			 "cosmo_total_nonelectrostatic_energy": 10.2, 
			 "SMD_solvation_energy": 5.46 
		},
		"coords": [
			{
				"x": -3.5490147631,
				"y": -3.311685055,
				"z": 3.0006347321,
				"element": "O" 
			},
			{
				"x": -4.0567739267,
				"y": -2.9007596075,
				"z": 1.9544335989,
				"element": "N" 
			},
			{
				"x": -5.1898965452,
				"y": -3.1952745334,
				"z": 1.5676123181,
				"element": "O" 
			},
			{
				"x": -3.263919445,
				"y": -2.0054977573,
				"z": 1.1170781647,
				"element": "C" 
			},
			{
				"x": -1.9801033549,
				"y": -1.6496993052,
				"z": 1.5213385411,
				"element": "C" 
			},
			{
				"x": -1.2166849207,
				"y": -0.7958696862,
				"z": 0.7307184094,
				"element": "C" 
			},
			{
				"x": -1.7436627233,
				"y": -0.2947417694,
				"z": -0.4747130693,
				"element": "C" 
			},
			{
				"x": -1.1296969415,
				"y": 0.540947142,
				"z": -1.343219244,
				"element": "O" 
			},
			{
				"x": 0.2100102413,
				"y": 1.063409603,
				"z": -1.1952446675,
				"element": "C" 
			},
			{
				"x": 0.3822128176,
				"y": 2.0071195968,
				"z": 0.0016242252,
				"element": "C" 
			},
			{
				"x": 1.7388327255,
				"y": 2.7453145045,
				"z": -0.1106799212,
				"element": "C" 
			},
			{
				"x": 2.70164816,
				"y": 1.9403817289,
				"z": -0.8766577589,
				"element": "N" 
			},
			{
				"x": 2.5996749346,
				"y": 0.5084262962,
				"z": -0.5986108649,
				"element": "C" 
			},
			{
				"x": 1.3065658189,
				"y": -0.0239566113,
				"z": -1.2507113887,
				"element": "C" 
			},
			{
				"x": -3.0465076723,
				"y": -0.6717840475,
				"z": -0.8637082232,
				"element": "C" 
			},
			{
				"x": -3.8056634055,
				"y": -1.5195686015,
				"z": -0.0769701269,
				"element": "C" 
			},
			{
				"x": -1.5913922066,
				"y": -2.0444419848,
				"z": 2.4518797295,
				"element": "H" 
			},
			{
				"x": -0.2226226114,
				"y": -0.531972222,
				"z": 1.0617338791,
				"element": "H" 
			},
			{
				"x": 0.301219233,
				"y": 1.6737111825,
				"z": -2.096662337,
				"element": "H" 
			},
			{
				"x": -0.4408268193,
				"y": 2.7275235465,
				"z": 0.0229656583,
				"element": "H" 
			},
			{
				"x": 0.340158585,
				"y": 1.4544905046,
				"z": 0.9433858785,
				"element": "H" 
			},
			{
				"x": 2.0896026087,
				"y": 2.9832207814,
				"z": 0.9083894973,
				"element": "H" 
			},
			{
				"x": 1.6040108786,
				"y": 3.7003135057,
				"z": -0.632937425,
				"element": "H" 
			},
			{
				"x": 3.6453047508,
				"y": 2.2770841734,
				"z": -0.7178722956,
				"element": "H" 
			},
			{
				"x": 3.4702399253,
				"y": 0.0025524357,
				"z": -1.0265678585,
				"element": "H" 
			},
			{
				"x": 2.6017870172,
				"y": 0.2760059701,
				"z": 0.4838018822,
				"element": "H" 
			},
			{
				"x": 1.4886843425,
				"y": -0.2805860908,
				"z": -2.2984293491,
				"element": "H" 
			},
			{
				"x": 0.9823772462,
				"y": -0.9396962788,
				"z": -0.7492346161,
				"element": "H" 
			},
			{
				"x": -3.4339250125,
				"y": -0.2764147306,
				"z": -1.7962450839,
				"element": "H" 
			},
			{
				"x": -4.8069389373,
				"y": -1.8144526899,
				"z": -0.3650322845,
				"element": "H" 
			}
		],
		 "valence_orbital": [ 
			{
				"type": "occ",
				"energy": -0.29607,
				"method": "rhf"
			},
			{
				"type": "occ",
				"energy": -0.27825,
				"method": "rhf"
			},
			{
				"type": "occ",
				"energy": -0.27384,
				"method": "rhf"
			},
			{
				"type": "occ",
				"energy": -0.24084,
				"method": "rhf"
			},
			{
				"type": "occ",
				"energy": -0.22981,
				"method": "rhf"
			},
			{
				"type": "unocc",
				"energy": -0.07553,
				"method": "rhf"
			},
			{
				"type": "unocc",
				"energy": -0.02267,
				"method": "rhf"
			},
			{
				"type": "unocc",
				"energy": 0.01748,
				"method": "rhf"
			},
			{
				"type": "unocc",
				"energy": 0.05157,
				"method": "rhf"
			},
			{
				"type": "unocc",
				"energy": 0.08142,
				"method": "rhf"
			}
		],
		"cosmo_sigma_profile": { 
			"-0.025": 0.0,
			"-0.024": 0.0,
			"-0.023": 0.0,
			"-0.022": 0.0,
			"-0.021": 0.0,
			"-0.02": 0.0,
			"-0.019": 0.0,
			"-0.018": 0.0,
			"-0.017": 0.0,
			"-0.016": 0.0,
			"-0.015": 0.0,
			"-0.014": 0.0,
			"-0.013": 0.0,
			"-0.012": 0.0,
			"-0.011": 0.148057349439,
			"-0.01": 1.1642447062,
			"-0.009": 1.4088346627,
			"-0.008": 2.50108472736,
			"-0.007": 7.93958405279,
			"-0.006": 9.16517691325,
			"-0.005": 10.9723721244,
			"-0.004": 18.6056120747,
			"-0.003": 27.8734189577,
			"-0.002": 31.6673239694,
			"-0.001": 29.0854331628,
			"0.0": 22.7249803253,
			"0.001": 18.0621241482,
			"0.002": 15.5538805049,
			"0.003": 7.80181416233,
			"0.004": 4.85456935611,
			"0.005": 5.81555391792,
			"0.006": 4.68597942307,
			"0.007": 5.68944957849,
			"0.008": 12.0153169059,
			"0.009": 7.33077295951,
			"0.01": 4.68278994913,
			"0.011": 2.39649731224,
			"0.012": 0.45149737493,
			"0.013": 0.62243852942,
			"0.014": 0.0426299253395,
			"0.015": 0.513722587661,
			"0.016": 0.689871183323,
			"0.017": 0.252619583676,
			"0.018": 0.0,
			"0.019": 0.0,
			"0.02": 0.0,
			"0.021": 0.0,
			"0.022": 0.0,
			"0.023": 0.0,
			"0.024": 0.0,
			"0.025": 0.0
		}
	}
}
