{
	 "smiles": "CN(C)[Si](N(C)C)(N(C)C)N(C)C", 
	 "Tm": 288.15, 
	 "num_atms": 37, 
	 "gaussian": { 
		 "optdone": 1, 
		 "sigma_profile": "yes", 
		 "theory": "DFT", 
		 "functional": "B3LYP", 
		 "basiset": "6-31G**", 
		 "properties": { 
			 "R2extent": 2904.4943, 
			 "electric_dipole_moment_norm": 0.00430581002832, 
			 "electric_quadrupole_moment_norm": 0.0179838816722, 
			 "total_energy": -827.883586147, 
			 "HOMO_LUMO_gap": 0.26093, 
			 "cosmo_polarized_energy": -2.25, 
			 "cosmo_cavitation_energy": 36.63, 
			 "cosmo_dispersion_energy": -22.39, 
			 "cosmo_repulsion_energy": 1.83, 
			 "cosmo_total_nonelectrostatic_energy": 16.07, 
			 "SMD_solvation_energy": 7.68 
		},
		"coords": [
			{
				"x": 0.7847967087,
				"y": -0.5840247455,
				"z": 2.272794587,
				"element": "C" 
			},
			{
				"x": 1.260020845,
				"y": -0.1435766276,
				"z": 0.9657095778,
				"element": "N" 
			},
			{
				"x": 2.2825255078,
				"y": 0.8888651679,
				"z": 1.0960093758,
				"element": "C" 
			},
			{
				"x": 0.2300067645,
				"y": -0.2217663084,
				"z": -0.4443309464,
				"element": "Si" 
			},
			{
				"x": -0.5784121516,
				"y": -1.7694728276,
				"z": -0.3651629353,
				"element": "N" 
			},
			{
				"x": 0.1469747046,
				"y": -2.9810366677,
				"z": 0.0012942466,
				"element": "C" 
			},
			{
				"x": -1.7124007161,
				"y": -2.0738789255,
				"z": -1.2309145537,
				"element": "C" 
			},
			{
				"x": -1.0357775287,
				"y": 0.9777500719,
				"z": -0.5586595311,
				"element": "N" 
			},
			{
				"x": -0.7366766411,
				"y": 2.360957538,
				"z": -0.9127078808,
				"element": "C" 
			},
			{
				"x": -2.2353865385,
				"y": 0.8907972328,
				"z": 0.2668720953,
				"element": "C" 
			},
			{
				"x": 1.2749808316,
				"y": 0.0476332575,
				"z": -1.8191897258,
				"element": "N" 
			},
			{
				"x": 0.7255809573,
				"y": 0.3145544687,
				"z": -3.1439892646,
				"element": "C" 
			},
			{
				"x": 2.5838541466,
				"y": -0.5903966572,
				"z": -1.9088217811,
				"element": "C" 
			},
			{
				"x": 0.4182410516,
				"y": 0.2584194244,
				"z": 2.883890881,
				"element": "H" 
			},
			{
				"x": -0.0321701719,
				"y": -1.3000466937,
				"z": 2.1677820035,
				"element": "H" 
			},
			{
				"x": 1.5931497303,
				"y": -1.0675968925,
				"z": 2.842339159,
				"element": "H" 
			},
			{
				"x": 3.1795473667,
				"y": 0.4926796999,
				"z": 1.5960476596,
				"element": "H" 
			},
			{
				"x": 1.9299830911,
				"y": 1.7453446535,
				"z": 1.6957253215,
				"element": "H" 
			},
			{
				"x": 2.5790558422,
				"y": 1.2674321792,
				"z": 0.1162516694,
				"element": "H" 
			},
			{
				"x": -0.4852243674,
				"y": -3.6507236877,
				"z": 0.6042268295,
				"element": "H" 
			},
			{
				"x": 0.4694840339,
				"y": -3.5527834993,
				"z": -0.8855911537,
				"element": "H" 
			},
			{
				"x": 1.0375686211,
				"y": -2.7388262584,
				"z": 0.5838363818,
				"element": "H" 
			},
			{
				"x": -2.2034907217,
				"y": -1.1577797349,
				"z": -1.5637310503,
				"element": "H" 
			},
			{
				"x": -1.4061967612,
				"y": -2.6374394492,
				"z": -2.1287533584,
				"element": "H" 
			},
			{
				"x": -2.4566066525,
				"y": -2.6890785529,
				"z": -0.7023623692,
				"element": "H" 
			},
			{
				"x": -0.6491275645,
				"y": 3.0051182698,
				"z": -0.0211907785,
				"element": "H" 
			},
			{
				"x": 0.2026831637,
				"y": 2.4259039915,
				"z": -1.4645602715,
				"element": "H" 
			},
			{
				"x": -1.5335333534,
				"y": 2.7871173883,
				"z": -1.5413150215,
				"element": "H" 
			},
			{
				"x": -2.4093604428,
				"y": -0.1365685614,
				"z": 0.5915364133,
				"element": "H" 
			},
			{
				"x": -2.1617043172,
				"y": 1.521599063,
				"z": 1.1691334556,
				"element": "H" 
			},
			{
				"x": -3.1221136855,
				"y": 1.2286120385,
				"z": -0.29109702,
				"element": "H" 
			},
			{
				"x": 1.3488946111,
				"y": 1.0397112091,
				"z": -3.6892495465,
				"element": "H" 
			},
			{
				"x": -0.2841677337,
				"y": 0.7222050817,
				"z": -3.0706128637,
				"element": "H" 
			},
			{
				"x": 0.67653528,
				"y": -0.5983351554,
				"z": -3.7618125473,
				"element": "H" 
			},
			{
				"x": 2.5530857285,
				"y": -1.5110606914,
				"z": -2.5161836533,
				"element": "H" 
			},
			{
				"x": 3.3175866988,
				"y": 0.0818688256,
				"z": -2.3793492004,
				"element": "H" 
			},
			{
				"x": 2.954193663,
				"y": -0.857177625,
				"z": -0.9174642034,
				"element": "H" 
			}
		],
		 "valence_orbital": [ 
			{
				"type": "occ",
				"energy": -0.3279,
				"method": "rhf"
			},
			{
				"type": "occ",
				"energy": -0.2411,
				"method": "rhf"
			},
			{
				"type": "occ",
				"energy": -0.21698,
				"method": "rhf"
			},
			{
				"type": "occ",
				"energy": -0.19197,
				"method": "rhf"
			},
			{
				"type": "occ",
				"energy": -0.19196,
				"method": "rhf"
			},
			{
				"type": "unocc",
				"energy": 0.06897,
				"method": "rhf"
			},
			{
				"type": "unocc",
				"energy": 0.08666,
				"method": "rhf"
			},
			{
				"type": "unocc",
				"energy": 0.10825,
				"method": "rhf"
			},
			{
				"type": "unocc",
				"energy": 0.10827,
				"method": "rhf"
			},
			{
				"type": "unocc",
				"energy": 0.12376,
				"method": "rhf"
			}
		],
		"cosmo_sigma_profile": { 
			"-0.025": 0.0,
			"-0.024": 0.0,
			"-0.023": 0.0,
			"-0.022": 0.0,
			"-0.021": 0.0,
			"-0.02": 0.0,
			"-0.019": 0.0,
			"-0.018": 0.0,
			"-0.017": 0.0,
			"-0.016": 0.0,
			"-0.015": 0.0,
			"-0.014": 0.0,
			"-0.013": 0.0,
			"-0.012": 0.0,
			"-0.011": 0.0,
			"-0.01": 0.0,
			"-0.009": 0.0,
			"-0.008": 0.0,
			"-0.007": 0.0,
			"-0.006": 0.0,
			"-0.005": 0.0,
			"-0.004": 0.0,
			"-0.003": 4.75920053423,
			"-0.002": 41.7892588399,
			"-0.001": 65.6913196479,
			"0.0": 85.8233223413,
			"0.001": 44.5161895359,
			"0.002": 10.9888122521,
			"0.003": 6.54224785493,
			"0.004": 4.91693914653,
			"0.005": 3.22984336862,
			"0.006": 3.50560242548,
			"0.007": 2.14334291508,
			"0.008": 0.880196271947,
			"0.009": 0.0,
			"0.01": 0.0,
			"0.011": 0.0,
			"0.012": 0.0,
			"0.013": 0.0,
			"0.014": 0.0,
			"0.015": 0.0,
			"0.016": 0.0,
			"0.017": 0.0,
			"0.018": 0.0,
			"0.019": 0.0,
			"0.02": 0.0,
			"0.021": 0.0,
			"0.022": 0.0,
			"0.023": 0.0,
			"0.024": 0.0,
			"0.025": 0.0
		}
	}
}
