{
	 "smiles": "O=CN(C=O)C(N(C=O)C=O)N(C=O)C=O", 
	 "Tm": 418.15, 
	 "num_atms": 23, 
	 "gaussian": { 
		 "optdone": 1, 
		 "sigma_profile": "yes", 
		 "theory": "DFT", 
		 "functional": "B3LYP", 
		 "basiset": "6-31G**", 
		 "properties": { 
			 "R2extent": 3487.0244, 
			 "electric_dipole_moment_norm": 1.06532798236, 
			 "electric_quadrupole_moment_norm": 5.14210619688, 
			 "total_energy": -886.547264014, 
			 "HOMO_LUMO_gap": 0.21115, 
			 "cosmo_polarized_energy": -20.72, 
			 "cosmo_cavitation_energy": 29.33, 
			 "cosmo_dispersion_energy": -19.47, 
			 "cosmo_repulsion_energy": 1.49, 
			 "cosmo_total_nonelectrostatic_energy": 11.35, 
			 "SMD_solvation_energy": 13.32 
		},
		"coords": [
			{
				"x": -2.7192939548,
				"y": 0.0885528808,
				"z": -1.8178678912,
				"element": "O" 
			},
			{
				"x": -2.0964327233,
				"y": -0.2176365279,
				"z": -0.8278451356,
				"element": "C" 
			},
			{
				"x": -0.7115988838,
				"y": -0.5144809552,
				"z": -0.8598357287,
				"element": "N" 
			},
			{
				"x": -0.0347264078,
				"y": -0.4453396652,
				"z": -2.0977195581,
				"element": "C" 
			},
			{
				"x": 1.1336837281,
				"y": -0.7357098029,
				"z": -2.2246828874,
				"element": "O" 
			},
			{
				"x": 0.0782723965,
				"y": -0.9902901886,
				"z": 0.2722839114,
				"element": "C" 
			},
			{
				"x": -0.5772542114,
				"y": -2.0194777368,
				"z": 1.0849004557,
				"element": "N" 
			},
			{
				"x": -0.0840991268,
				"y": -3.3473948683,
				"z": 1.0002847147,
				"element": "C" 
			},
			{
				"x": -0.5283567178,
				"y": -4.2634117143,
				"z": 1.6451661623,
				"element": "O" 
			},
			{
				"x": -1.486933042,
				"y": -1.7081681451,
				"z": 2.0985313538,
				"element": "C" 
			},
			{
				"x": -1.9563458958,
				"y": -0.5980214468,
				"z": 2.2569867655,
				"element": "O" 
			},
			{
				"x": 0.6527897913,
				"y": 0.0803495467,
				"z": 1.0894246157,
				"element": "N" 
			},
			{
				"x": 0.0502147005,
				"y": 1.3318588889,
				"z": 1.3252534861,
				"element": "C" 
			},
			{
				"x": 0.5551920017,
				"y": 2.183964763,
				"z": 2.0168481705,
				"element": "O" 
			},
			{
				"x": 1.8908113154,
				"y": -0.2160608898,
				"z": 1.6792232478,
				"element": "C" 
			},
			{
				"x": 2.4261830417,
				"y": -1.2977678247,
				"z": 1.5527078766,
				"element": "O" 
			},
			{
				"x": -2.52777158,
				"y": -0.2812139493,
				"z": 0.1794099665,
				"element": "H" 
			},
			{
				"x": -0.6931483883,
				"y": -0.1057011738,
				"z": -2.9059009319,
				"element": "H" 
			},
			{
				"x": 0.9428785281,
				"y": -1.4776338891,
				"z": -0.1852455366,
				"element": "H" 
			},
			{
				"x": 0.7425072569,
				"y": -3.4409259074,
				"z": 0.2777841631,
				"element": "H" 
			},
			{
				"x": -1.7227097229,
				"y": -2.5788432164,
				"z": 2.7236699223,
				"element": "H" 
			},
			{
				"x": -0.909804701,
				"y": 1.4573217043,
				"z": 0.8093143769,
				"element": "H" 
			},
			{
				"x": 2.2948425955,
				"y": 0.6277301179,
				"z": 2.2519084806,
				"element": "H" 
			}
		],
		 "valence_orbital": [ 
			{
				"type": "occ",
				"energy": -0.31824,
				"method": "rhf"
			},
			{
				"type": "occ",
				"energy": -0.30972,
				"method": "rhf"
			},
			{
				"type": "occ",
				"energy": -0.30478,
				"method": "rhf"
			},
			{
				"type": "occ",
				"energy": -0.29153,
				"method": "rhf"
			},
			{
				"type": "occ",
				"energy": -0.28973,
				"method": "rhf"
			},
			{
				"type": "unocc",
				"energy": -0.07858,
				"method": "rhf"
			},
			{
				"type": "unocc",
				"energy": -0.07194,
				"method": "rhf"
			},
			{
				"type": "unocc",
				"energy": -0.06024,
				"method": "rhf"
			},
			{
				"type": "unocc",
				"energy": -0.01578,
				"method": "rhf"
			},
			{
				"type": "unocc",
				"energy": -0.00933,
				"method": "rhf"
			}
		],
		"cosmo_sigma_profile": { 
			"-0.025": 0.0,
			"-0.024": 0.0,
			"-0.023": 0.0,
			"-0.022": 0.0,
			"-0.021": 0.0,
			"-0.02": 0.0,
			"-0.019": 0.0,
			"-0.018": 0.0,
			"-0.017": 0.0,
			"-0.016": 0.0,
			"-0.015": 0.0115955938711,
			"-0.014": 0.445915126223,
			"-0.013": 1.03440008053,
			"-0.012": 2.45235837361,
			"-0.011": 3.92783062076,
			"-0.01": 5.96313958638,
			"-0.009": 10.3792737649,
			"-0.008": 13.8192798502,
			"-0.007": 17.7433988421,
			"-0.006": 13.8730757688,
			"-0.005": 12.3311897595,
			"-0.004": 10.3746075966,
			"-0.003": 10.1952822144,
			"-0.002": 9.4894699294,
			"-0.001": 9.85367382242,
			"0.0": 7.14119802812,
			"0.001": 7.18336462348,
			"0.002": 9.0846252273,
			"0.003": 7.14436561246,
			"0.004": 7.64693022881,
			"0.005": 7.52021608526,
			"0.006": 7.17386449246,
			"0.007": 9.29701923644,
			"0.008": 10.9507500967,
			"0.009": 14.942301449,
			"0.01": 17.825751721,
			"0.011": 8.48116696707,
			"0.012": 0.611756809219,
			"0.013": 0.0,
			"0.014": 0.0,
			"0.015": 0.0,
			"0.016": 0.0,
			"0.017": 0.0,
			"0.018": 0.0,
			"0.019": 0.0,
			"0.02": 0.0,
			"0.021": 0.0,
			"0.022": 0.0,
			"0.023": 0.0,
			"0.024": 0.0,
			"0.025": 0.0
		}
	}
}
