{
	 "smiles": "CCOC(=O)C1C(C(C(=O)OCC)C(O)(NC1(O)C(F)(F)F)C(F)(F)F)C1=CC=CC=C1", 
	 "Tm": 507.15, 
	 "num_atms": 53, 
	 "gaussian": { 
		 "optdone": 1, 
		 "sigma_profile": "yes", 
		 "theory": "DFT", 
		 "functional": "B3LYP", 
		 "basiset": "6-31G**", 
		 "properties": { 
			 "R2extent": 12670.1779, 
			 "electric_dipole_moment_norm": 3.95879813832, 
			 "electric_quadrupole_moment_norm": 15.2160922447, 
			 "total_energy": -1841.82222666, 
			 "HOMO_LUMO_gap": 0.22442, 
			 "cosmo_polarized_energy": -21.15, 
			 "cosmo_cavitation_energy": 54.1, 
			 "cosmo_dispersion_energy": -34.18, 
			 "cosmo_repulsion_energy": 2.48, 
			 "cosmo_total_nonelectrostatic_energy": 22.39, 
			 "SMD_solvation_energy": 12.46 
		},
		"coords": [
			{
				"x": 3.6234268431,
				"y": -0.7103056177,
				"z": 3.1322415772,
				"element": "C" 
			},
			{
				"x": 3.2722283192,
				"y": -0.6539739463,
				"z": 1.6534231305,
				"element": "C" 
			},
			{
				"x": 1.8591117534,
				"y": -0.3989953081,
				"z": 1.4567943345,
				"element": "O" 
			},
			{
				"x": 1.4754589427,
				"y": 0.8948449604,
				"z": 1.4485819365,
				"element": "C" 
			},
			{
				"x": 2.225838482,
				"y": 1.8227109187,
				"z": 1.6350494325,
				"element": "O" 
			},
			{
				"x": -0.0534704158,
				"y": 0.9936997071,
				"z": 1.3085351474,
				"element": "C" 
			},
			{
				"x": -0.7558708904,
				"y": -0.2842920725,
				"z": 0.7526859604,
				"element": "C" 
			},
			{
				"x": -2.2742899225,
				"y": 0.0049978211,
				"z": 0.9387747437,
				"element": "C" 
			},
			{
				"x": -3.2839641807,
				"y": -1.1356713677,
				"z": 0.9342741954,
				"element": "C" 
			},
			{
				"x": -4.4373880704,
				"y": -0.9497633739,
				"z": 1.2863218253,
				"element": "O" 
			},
			{
				"x": -2.7942555956,
				"y": -2.3160374859,
				"z": 0.5556443184,
				"element": "O" 
			},
			{
				"x": -3.7435344782,
				"y": -3.4144649013,
				"z": 0.4404177084,
				"element": "C" 
			},
			{
				"x": -4.4024494023,
				"y": -3.3961714842,
				"z": -0.929534579,
				"element": "C" 
			},
			{
				"x": -2.8266808596,
				"y": 1.227959279,
				"z": 0.1465049881,
				"element": "C" 
			},
			{
				"x": -3.8461130934,
				"y": 1.8697849983,
				"z": 0.8918878305,
				"element": "O" 
			},
			{
				"x": -1.7500811117,
				"y": 2.1292425457,
				"z": -0.1328470852,
				"element": "N" 
			},
			{
				"x": -0.5431313758,
				"y": 2.327715586,
				"z": 0.6572809872,
				"element": "C" 
			},
			{
				"x": 0.4503687139,
				"y": 2.8433671506,
				"z": -0.1964490138,
				"element": "O" 
			},
			{
				"x": -0.8047019124,
				"y": 3.3969186366,
				"z": 1.7548374396,
				"element": "C" 
			},
			{
				"x": -1.7835916614,
				"y": 3.0167848621,
				"z": 2.5962256218,
				"element": "F" 
			},
			{
				"x": 0.276846854,
				"y": 3.6822961966,
				"z": 2.4876650538,
				"element": "F" 
			},
			{
				"x": -1.201783624,
				"y": 4.5509903342,
				"z": 1.1465715644,
				"element": "F" 
			},
			{
				"x": -3.4641054104,
				"y": 0.8780571231,
				"z": -1.2424003956,
				"element": "C" 
			},
			{
				"x": -4.7222234637,
				"y": 0.403897305,
				"z": -1.1081794309,
				"element": "F" 
			},
			{
				"x": -3.5431201666,
				"y": 1.9852265356,
				"z": -2.0098554031,
				"element": "F" 
			},
			{
				"x": -2.7670848908,
				"y": -0.0498940944,
				"z": -1.9198864406,
				"element": "F" 
			},
			{
				"x": -0.2261909272,
				"y": -0.8304475135,
				"z": -0.5771811106,
				"element": "C" 
			},
			{
				"x": 0.1423184799,
				"y": -0.0265888317,
				"z": -1.6649686627,
				"element": "C" 
			},
			{
				"x": 0.6724474686,
				"y": -0.5949987599,
				"z": -2.8252497248,
				"element": "C" 
			},
			{
				"x": 0.8482933337,
				"y": -1.9744089955,
				"z": -2.9262427894,
				"element": "C" 
			},
			{
				"x": 0.4991266456,
				"y": -2.7852501907,
				"z": -1.8453894562,
				"element": "C" 
			},
			{
				"x": -0.0232692587,
				"y": -2.2149192571,
				"z": -0.6855729177,
				"element": "C" 
			},
			{
				"x": 3.463045502,
				"y": 0.2626713849,
				"z": 3.6029339964,
				"element": "H" 
			},
			{
				"x": 3.018284473,
				"y": -1.4606427209,
				"z": 3.6499913991,
				"element": "H" 
			},
			{
				"x": 4.6781802343,
				"y": -0.9791893454,
				"z": 3.252335841,
				"element": "H" 
			},
			{
				"x": 3.8417941812,
				"y": 0.1241452686,
				"z": 1.140782249,
				"element": "H" 
			},
			{
				"x": 3.4409902104,
				"y": -1.6138940326,
				"z": 1.1604247455,
				"element": "H" 
			},
			{
				"x": -0.3761997562,
				"y": 1.0474451767,
				"z": 2.356917566,
				"element": "H" 
			},
			{
				"x": -0.5314952324,
				"y": -1.0615784058,
				"z": 1.4878008045,
				"element": "H" 
			},
			{
				"x": -2.3616290671,
				"y": 0.3711756721,
				"z": 1.9693219278,
				"element": "H" 
			},
			{
				"x": -4.476417991,
				"y": -3.3290259424,
				"z": 1.2450491741,
				"element": "H" 
			},
			{
				"x": -3.1359599187,
				"y": -4.309307366,
				"z": 0.5891636028,
				"element": "H" 
			},
			{
				"x": -3.6501358307,
				"y": -3.4553263184,
				"z": -1.7206763317,
				"element": "H" 
			},
			{
				"x": -5.0786618284,
				"y": -4.2518128395,
				"z": -1.0259626819,
				"element": "H" 
			},
			{
				"x": -4.982588503,
				"y": -2.4802729913,
				"z": -1.0657239658,
				"element": "H" 
			},
			{
				"x": -4.4953803548,
				"y": 1.1823381652,
				"z": 1.125920582,
				"element": "H" 
			},
			{
				"x": -2.1010364411,
				"y": 3.0030586206,
				"z": -0.5080432535,
				"element": "H" 
			},
			{
				"x": 0.2270691978,
				"y": 3.7605295061,
				"z": -0.4092868032,
				"element": "H" 
			},
			{
				"x": 0.0250981355,
				"y": 1.0477451269,
				"z": -1.6127414264,
				"element": "H" 
			},
			{
				"x": 0.9506344814,
				"y": 0.0510089147,
				"z": -3.6534463934,
				"element": "H" 
			},
			{
				"x": 1.2610835489,
				"y": -2.4117880885,
				"z": -3.8310462225,
				"element": "H" 
			},
			{
				"x": 0.6432263625,
				"y": -3.8610815259,
				"z": -1.8989025952,
				"element": "H" 
			},
			{
				"x": -0.2772665277,
				"y": -2.8544090184,
				"z": 0.1538269994,
				"element": "H" 
			}
		],
		 "valence_orbital": [ 
			{
				"type": "occ",
				"energy": -0.28701,
				"method": "rhf"
			},
			{
				"type": "occ",
				"energy": -0.26834,
				"method": "rhf"
			},
			{
				"type": "occ",
				"energy": -0.26572,
				"method": "rhf"
			},
			{
				"type": "occ",
				"energy": -0.24049,
				"method": "rhf"
			},
			{
				"type": "occ",
				"energy": -0.23634,
				"method": "rhf"
			},
			{
				"type": "unocc",
				"energy": -0.01192,
				"method": "rhf"
			},
			{
				"type": "unocc",
				"energy": 7e-05,
				"method": "rhf"
			},
			{
				"type": "unocc",
				"energy": 0.00232,
				"method": "rhf"
			},
			{
				"type": "unocc",
				"energy": 0.0148,
				"method": "rhf"
			},
			{
				"type": "unocc",
				"energy": 0.05989,
				"method": "rhf"
			}
		],
		"cosmo_sigma_profile": { 
			"-0.025": 0.0,
			"-0.024": 0.0,
			"-0.023": 0.0,
			"-0.022": 0.0,
			"-0.021": 0.0,
			"-0.02": 0.0,
			"-0.019": 0.0,
			"-0.018": 0.0,
			"-0.017": 0.297325982103,
			"-0.016": 1.00011707664,
			"-0.015": 1.33851227067,
			"-0.014": 1.38564936177,
			"-0.013": 1.20302260227,
			"-0.012": 1.1920884265,
			"-0.011": 2.20970519488,
			"-0.01": 4.35207320897,
			"-0.009": 5.83837370874,
			"-0.008": 4.54985656314,
			"-0.007": 5.0011550795,
			"-0.006": 10.0323581902,
			"-0.005": 23.9437476846,
			"-0.004": 33.8710554342,
			"-0.003": 35.557441628,
			"-0.002": 32.182906707,
			"-0.001": 32.989604486,
			"0.0": 32.8518938801,
			"0.001": 30.0381696809,
			"0.002": 45.6752912438,
			"0.003": 34.4916876711,
			"0.004": 20.1571247198,
			"0.005": 17.3226977532,
			"0.006": 13.8966618139,
			"0.007": 7.55792728485,
			"0.008": 4.82445849555,
			"0.009": 5.22195799623,
			"0.01": 5.9430928044,
			"0.011": 5.57869722942,
			"0.012": 3.60416581194,
			"0.013": 1.61940466455,
			"0.014": 0.678893377186,
			"0.015": 0.00745311896435,
			"0.016": 0.0,
			"0.017": 0.0,
			"0.018": 0.0,
			"0.019": 0.0,
			"0.02": 0.0,
			"0.021": 0.0,
			"0.022": 0.0,
			"0.023": 0.0,
			"0.024": 0.0,
			"0.025": 0.0
		}
	}
}
