{
	 "smiles": "ClS(=O)(=O)C1=CC2=C(CCS2(=O)=O)C=C1", 
	 "Tm": 402.15, 
	 "num_atms": 22, 
	 "gaussian": { 
		 "optdone": 1, 
		 "sigma_profile": "yes", 
		 "theory": "DFT", 
		 "functional": "B3LYP", 
		 "basiset": "6-31G**", 
		 "properties": { 
			 "R2extent": 5346.8093, 
			 "electric_dipole_moment_norm": 7.61518610016, 
			 "electric_quadrupole_moment_norm": 19.9368755998, 
			 "total_energy": -1866.39431895, 
			 "HOMO_LUMO_gap": 0.19372, 
			 "cosmo_polarized_energy": -21.07, 
			 "cosmo_cavitation_energy": 31.01, 
			 "cosmo_dispersion_energy": -23.6, 
			 "cosmo_repulsion_energy": 1.76, 
			 "cosmo_total_nonelectrostatic_energy": 9.17, 
			 "SMD_solvation_energy": 2.83 
		},
		"coords": [
			{
				"x": 0.3125767351,
				"y": -3.813261274,
				"z": -2.7317259454,
				"element": "Cl" 
			},
			{
				"x": 0.9145153423,
				"y": -3.4473280307,
				"z": -0.7245162528,
				"element": "S" 
			},
			{
				"x": 0.5801211162,
				"y": -4.6492726004,
				"z": 0.028427613,
				"element": "O" 
			},
			{
				"x": 2.2670533768,
				"y": -2.9116894304,
				"z": -0.7893771941,
				"element": "O" 
			},
			{
				"x": -0.2137288697,
				"y": -2.1362233712,
				"z": -0.2601650019,
				"element": "C" 
			},
			{
				"x": 0.1880941914,
				"y": -0.8127513419,
				"z": -0.4377721953,
				"element": "C" 
			},
			{
				"x": -0.7148376465,
				"y": 0.1627326619,
				"z": -0.0349776999,
				"element": "C" 
			},
			{
				"x": -1.9592079817,
				"y": -0.1338285229,
				"z": 0.5230528717,
				"element": "C" 
			},
			{
				"x": -2.7978156211,
				"y": 1.0799045919,
				"z": 0.8856193964,
				"element": "C" 
			},
			{
				"x": -1.8464581762,
				"y": 2.2838402197,
				"z": 0.999941069,
				"element": "C" 
			},
			{
				"x": -0.4797664067,
				"y": 1.9419687223,
				"z": -0.1709557211,
				"element": "S" 
			},
			{
				"x": -0.8818729466,
				"y": 2.379629041,
				"z": -1.5152988329,
				"element": "O" 
			},
			{
				"x": 0.8202389029,
				"y": 2.3373321518,
				"z": 0.3827344014,
				"element": "O" 
			},
			{
				"x": -2.3258299826,
				"y": -1.4717150663,
				"z": 0.6923766134,
				"element": "C" 
			},
			{
				"x": -1.4497352825,
				"y": -2.4814969931,
				"z": 0.2968958214,
				"element": "C" 
			},
			{
				"x": 1.1619929701,
				"y": -0.5654284998,
				"z": -0.8464264733,
				"element": "H" 
			},
			{
				"x": -3.5404673641,
				"y": 1.2567170865,
				"z": 0.0987809585,
				"element": "H" 
			},
			{
				"x": -3.344665869,
				"y": 0.922039459,
				"z": 1.8197535709,
				"element": "H" 
			},
			{
				"x": -2.2927188754,
				"y": 3.237939736,
				"z": 0.7167616193,
				"element": "H" 
			},
			{
				"x": -1.3940197053,
				"y": 2.3600075642,
				"z": 1.9912653796,
				"element": "H" 
			},
			{
				"x": -3.2826777883,
				"y": -1.728487013,
				"z": 1.1372811243,
				"element": "H" 
			},
			{
				"x": -1.7058901193,
				"y": -3.5264290906,
				"z": 0.4314248778,
				"element": "H" 
			}
		],
		 "valence_orbital": [ 
			{
				"type": "occ",
				"energy": -0.32208,
				"method": "rhf"
			},
			{
				"type": "occ",
				"energy": -0.31968,
				"method": "rhf"
			},
			{
				"type": "occ",
				"energy": -0.30626,
				"method": "rhf"
			},
			{
				"type": "occ",
				"energy": -0.30316,
				"method": "rhf"
			},
			{
				"type": "occ",
				"energy": -0.29447,
				"method": "rhf"
			},
			{
				"type": "unocc",
				"energy": -0.10075,
				"method": "rhf"
			},
			{
				"type": "unocc",
				"energy": -0.06918,
				"method": "rhf"
			},
			{
				"type": "unocc",
				"energy": -0.06079,
				"method": "rhf"
			},
			{
				"type": "unocc",
				"energy": 0.03036,
				"method": "rhf"
			},
			{
				"type": "unocc",
				"energy": 0.04108,
				"method": "rhf"
			}
		],
		"cosmo_sigma_profile": { 
			"-0.025": 0.0,
			"-0.024": 0.0,
			"-0.023": 0.0,
			"-0.022": 0.0,
			"-0.021": 0.0,
			"-0.02": 0.0,
			"-0.019": 0.0,
			"-0.018": 0.0,
			"-0.017": 0.0,
			"-0.016": 0.0,
			"-0.015": 0.0,
			"-0.014": 0.0,
			"-0.013": 0.0,
			"-0.012": 0.0,
			"-0.011": 0.0374747013644,
			"-0.01": 1.32757094253,
			"-0.009": 8.60760595277,
			"-0.008": 14.6358892888,
			"-0.007": 18.6081052487,
			"-0.006": 15.6728877141,
			"-0.005": 14.8464502607,
			"-0.004": 13.2489397677,
			"-0.003": 9.94446626329,
			"-0.002": 16.2979452033,
			"-0.001": 18.9998797443,
			"0.0": 13.4776654041,
			"0.001": 8.68067907199,
			"0.002": 12.4636207891,
			"0.003": 16.8430822219,
			"0.004": 6.53568795498,
			"0.005": 4.61103163516,
			"0.006": 5.25087974341,
			"0.007": 9.96703125051,
			"0.008": 12.1548235193,
			"0.009": 5.70961247879,
			"0.01": 7.86481480795,
			"0.011": 12.1350913034,
			"0.012": 3.47217601172,
			"0.013": 0.0,
			"0.014": 0.0,
			"0.015": 0.0,
			"0.016": 0.0,
			"0.017": 0.0,
			"0.018": 0.0,
			"0.019": 0.0,
			"0.02": 0.0,
			"0.021": 0.0,
			"0.022": 0.0,
			"0.023": 0.0,
			"0.024": 0.0,
			"0.025": 0.0
		}
	}
}
