{
	 "smiles": "COC1=C(OC)C=C(C=C1)C(=O)NNC(=O)CCl", 
	 "Tm": 447.15, 
	 "num_atms": 31, 
	 "gaussian": { 
		 "optdone": 1, 
		 "sigma_profile": "yes", 
		 "theory": "DFT", 
		 "functional": "B3LYP", 
		 "basiset": "6-31G**", 
		 "properties": { 
			 "R2extent": 6081.1776, 
			 "electric_dipole_moment_norm": 3.22889440521, 
			 "electric_quadrupole_moment_norm": 18.700478926, 
			 "total_energy": -1297.5470781, 
			 "HOMO_LUMO_gap": 0.19378, 
			 "cosmo_polarized_energy": -22.04, 
			 "cosmo_cavitation_energy": 37.65, 
			 "cosmo_dispersion_energy": -25.49, 
			 "cosmo_repulsion_energy": 2.03, 
			 "cosmo_total_nonelectrostatic_energy": 14.18, 
			 "SMD_solvation_energy": 9.53 
		},
		"coords": [
			{
				"x": 0.5636219136,
				"y": 3.6672903437,
				"z": 2.6309401451,
				"element": "C" 
			},
			{
				"x": 1.0149209516,
				"y": 2.3141229651,
				"z": 2.4646759239,
				"element": "O" 
			},
			{
				"x": 0.8140802985,
				"y": 1.7683719941,
				"z": 1.224130458,
				"element": "C" 
			},
			{
				"x": -0.4787388921,
				"y": 1.5225633337,
				"z": 0.7173880983,
				"element": "C" 
			},
			{
				"x": -1.6059079776,
				"y": 1.8780201327,
				"z": 1.4219978868,
				"element": "O" 
			},
			{
				"x": -1.8729924569,
				"y": 1.05881694,
				"z": 2.5705863789,
				"element": "C" 
			},
			{
				"x": -0.631362387,
				"y": 0.9392001835,
				"z": -0.5383295762,
				"element": "C" 
			},
			{
				"x": 0.4875923206,
				"y": 0.5808837804,
				"z": -1.3048849989,
				"element": "C" 
			},
			{
				"x": 1.770652441,
				"y": 0.8255391304,
				"z": -0.7913855182,
				"element": "C" 
			},
			{
				"x": 1.9284836402,
				"y": 1.4048898648,
				"z": 0.4628595001,
				"element": "C" 
			},
			{
				"x": 0.4248609437,
				"y": 0.0060103118,
				"z": -2.6828695006,
				"element": "C" 
			},
			{
				"x": 1.316597074,
				"y": 0.173621565,
				"z": -3.5027465488,
				"element": "O" 
			},
			{
				"x": -0.676275442,
				"y": -0.7595366275,
				"z": -3.0729616048,
				"element": "N" 
			},
			{
				"x": -1.6059190065,
				"y": -1.3480970101,
				"z": -2.2426439419,
				"element": "N" 
			},
			{
				"x": -1.433619397,
				"y": -2.5306185737,
				"z": -1.5404501714,
				"element": "C" 
			},
			{
				"x": -2.3477804707,
				"y": -3.0039656879,
				"z": -0.8997556072,
				"element": "O" 
			},
			{
				"x": -0.0220606433,
				"y": -3.1187754432,
				"z": -1.6334598749,
				"element": "C" 
			},
			{
				"x": 0.0971101077,
				"y": -4.7029321829,
				"z": -0.815411163,
				"element": "Cl" 
			},
			{
				"x": -0.5095612856,
				"y": 3.7569459439,
				"z": 2.4428761741,
				"element": "H" 
			},
			{
				"x": 0.7849954815,
				"y": 3.9328994818,
				"z": 3.6660054049,
				"element": "H" 
			},
			{
				"x": 1.1119531479,
				"y": 4.3384080962,
				"z": 1.9589515836,
				"element": "H" 
			},
			{
				"x": -2.7818326187,
				"y": 1.4580888267,
				"z": 3.0243958596,
				"element": "H" 
			},
			{
				"x": -1.0492756777,
				"y": 1.1029377167,
				"z": 3.2899900666,
				"element": "H" 
			},
			{
				"x": -2.0429350123,
				"y": 0.0176662889,
				"z": 2.2711604654,
				"element": "H" 
			},
			{
				"x": -1.6426423014,
				"y": 0.791791848,
				"z": -0.8943682285,
				"element": "H" 
			},
			{
				"x": 2.6323759365,
				"y": 0.5723603194,
				"z": -1.3988055296,
				"element": "H" 
			},
			{
				"x": 2.9139968127,
				"y": 1.5986158008,
				"z": 0.8736778086,
				"element": "H" 
			},
			{
				"x": -0.5903703772,
				"y": -1.1224613968,
				"z": -4.0176672018,
				"element": "H" 
			},
			{
				"x": -2.5436728204,
				"y": -0.9641174382,
				"z": -2.2261007614,
				"element": "H" 
			},
			{
				"x": 0.2764565605,
				"y": -3.2514589356,
				"z": -2.675210855,
				"element": "H" 
			},
			{
				"x": 0.6930491363,
				"y": -2.4411815715,
				"z": -1.1612846718,
				"element": "H" 
			}
		],
		 "valence_orbital": [ 
			{
				"type": "occ",
				"energy": -0.28222,
				"method": "rhf"
			},
			{
				"type": "occ",
				"energy": -0.27234,
				"method": "rhf"
			},
			{
				"type": "occ",
				"energy": -0.26738,
				"method": "rhf"
			},
			{
				"type": "occ",
				"energy": -0.26061,
				"method": "rhf"
			},
			{
				"type": "occ",
				"energy": -0.24394,
				"method": "rhf"
			},
			{
				"type": "unocc",
				"energy": -0.05016,
				"method": "rhf"
			},
			{
				"type": "unocc",
				"energy": -0.01584,
				"method": "rhf"
			},
			{
				"type": "unocc",
				"energy": -0.00096,
				"method": "rhf"
			},
			{
				"type": "unocc",
				"energy": 0.01905,
				"method": "rhf"
			},
			{
				"type": "unocc",
				"energy": 0.03795,
				"method": "rhf"
			}
		],
		"cosmo_sigma_profile": { 
			"-0.025": 0.0,
			"-0.024": 0.0,
			"-0.023": 0.0,
			"-0.022": 0.0,
			"-0.021": 0.0,
			"-0.02": 0.0,
			"-0.019": 0.0,
			"-0.018": 0.0,
			"-0.017": 0.0,
			"-0.016": 0.14208096104,
			"-0.015": 1.71630844259,
			"-0.014": 2.86881820718,
			"-0.013": 2.2961990845,
			"-0.012": 2.98325434553,
			"-0.011": 3.77088284166,
			"-0.01": 3.53993565807,
			"-0.009": 3.67527354799,
			"-0.008": 5.17443920905,
			"-0.007": 7.07870426457,
			"-0.006": 12.6581066323,
			"-0.005": 17.7718483727,
			"-0.004": 20.8039589708,
			"-0.003": 27.8598622782,
			"-0.002": 23.73468487,
			"-0.001": 19.5934743236,
			"0.0": 17.808709637,
			"0.001": 16.7843498748,
			"0.002": 17.0357342852,
			"0.003": 15.0263335351,
			"0.004": 11.2205738908,
			"0.005": 12.1280377009,
			"0.006": 10.1496154073,
			"0.007": 5.12256117367,
			"0.008": 5.03914818697,
			"0.009": 5.82265318719,
			"0.01": 4.79491080908,
			"0.011": 6.95914296614,
			"0.012": 10.7471089828,
			"0.013": 6.12697936272,
			"0.014": 0.502956350568,
			"0.015": 0.0,
			"0.016": 0.0,
			"0.017": 0.0,
			"0.018": 0.0,
			"0.019": 0.0,
			"0.02": 0.0,
			"0.021": 0.0,
			"0.022": 0.0,
			"0.023": 0.0,
			"0.024": 0.0,
			"0.025": 0.0
		}
	}
}
