{
	 "smiles": "CC1=NN(C2CCS(=O)(=O)C2)C2=C1C=C(C=O)C=N2", 
	 "Tm": 423.15, 
	 "num_atms": 32, 
	 "gaussian": { 
		 "optdone": 1, 
		 "sigma_profile": "yes", 
		 "theory": "DFT", 
		 "functional": "B3LYP", 
		 "basiset": "6-31G**", 
		 "properties": { 
			 "R2extent": 7689.0309, 
			 "electric_dipole_moment_norm": 5.72224729106, 
			 "electric_quadrupole_moment_norm": 38.7847851964, 
			 "total_energy": -1253.15125877, 
			 "HOMO_LUMO_gap": 0.17534, 
			 "cosmo_polarized_energy": -23.22, 
			 "cosmo_cavitation_energy": 37.54, 
			 "cosmo_dispersion_energy": -27.18, 
			 "cosmo_repulsion_energy": 2.04, 
			 "cosmo_total_nonelectrostatic_energy": 12.4, 
			 "SMD_solvation_energy": 4.09 
		},
		"coords": [
			{
				"x": 0.5965908446,
				"y": -0.2617181195,
				"z": 3.0392243831,
				"element": "C" 
			},
			{
				"x": 0.2518091862,
				"y": -0.2139145853,
				"z": 1.5848841008,
				"element": "C" 
			},
			{
				"x": -0.5305646501,
				"y": 0.7351201331,
				"z": 1.0978016713,
				"element": "N" 
			},
			{
				"x": -0.657145805,
				"y": 0.5128786327,
				"z": -0.24695129,
				"element": "N" 
			},
			{
				"x": -1.4621288887,
				"y": 1.3916350681,
				"z": -1.0767231333,
				"element": "C" 
			},
			{
				"x": -2.9491377739,
				"y": 1.4102002707,
				"z": -0.6527387664,
				"element": "C" 
			},
			{
				"x": -3.6270178114,
				"y": 2.5140073519,
				"z": -1.4671083871,
				"element": "C" 
			},
			{
				"x": -2.3925407985,
				"y": 3.8741713959,
				"z": -1.5575282715,
				"element": "S" 
			},
			{
				"x": -2.6821010565,
				"y": 4.868176223,
				"z": -0.5130412331,
				"element": "O" 
			},
			{
				"x": -2.2165077857,
				"y": 4.281541532,
				"z": -2.959683763,
				"element": "O" 
			},
			{
				"x": -0.9630047343,
				"y": 2.8469263498,
				"z": -1.0303222577,
				"element": "C" 
			},
			{
				"x": 0.0471881078,
				"y": -0.5861513966,
				"z": -0.6353038239,
				"element": "C" 
			},
			{
				"x": 0.6637834513,
				"y": -1.1020164098,
				"z": 0.5350087386,
				"element": "C" 
			},
			{
				"x": 1.4503888496,
				"y": -2.2465584397,
				"z": 0.3855426919,
				"element": "C" 
			},
			{
				"x": 1.5622488931,
				"y": -2.7841464548,
				"z": -0.8973841554,
				"element": "C" 
			},
			{
				"x": 2.375086344,
				"y": -3.9935361462,
				"z": -1.1344607697,
				"element": "C" 
			},
			{
				"x": 2.5227425724,
				"y": -4.5271577547,
				"z": -2.2176500102,
				"element": "O" 
			},
			{
				"x": 0.8869005901,
				"y": -2.1628166318,
				"z": -1.985175746,
				"element": "C" 
			},
			{
				"x": 0.1319903991,
				"y": -1.0765055034,
				"z": -1.8812530938,
				"element": "N" 
			},
			{
				"x": 0.2622028891,
				"y": -1.1997113787,
				"z": 3.4965238799,
				"element": "H" 
			},
			{
				"x": 1.6790475678,
				"y": -0.1894921063,
				"z": 3.1933589957,
				"element": "H" 
			},
			{
				"x": 0.1163894888,
				"y": 0.5685371321,
				"z": 3.5605675077,
				"element": "H" 
			},
			{
				"x": -1.3691408872,
				"y": 0.9935384699,
				"z": -2.0912911042,
				"element": "H" 
			},
			{
				"x": -3.0056238954,
				"y": 1.6287569281,
				"z": 0.4178535378,
				"element": "H" 
			},
			{
				"x": -3.4169633338,
				"y": 0.4373279594,
				"z": -0.8269154754,
				"element": "H" 
			},
			{
				"x": -4.5302526445,
				"y": 2.9212058779,
				"z": -1.0105318013,
				"element": "H" 
			},
			{
				"x": -3.8306177862,
				"y": 2.2132297179,
				"z": -2.4976800421,
				"element": "H" 
			},
			{
				"x": -0.7165084378,
				"y": 3.1375576584,
				"z": -0.0074749599,
				"element": "H" 
			},
			{
				"x": -0.1314306117,
				"y": 3.0544905032,
				"z": -1.7046484026,
				"element": "H" 
			},
			{
				"x": 1.9611446676,
				"y": -2.7118892877,
				"z": 1.2259500884,
				"element": "H" 
			},
			{
				"x": 2.8645051669,
				"y": -4.4038638633,
				"z": -0.2223762912,
				"element": "H" 
			},
			{
				"x": 0.9927678825,
				"y": -2.6044231263,
				"z": -2.9727728176,
				"element": "H" 
			}
		],
		 "valence_orbital": [ 
			{
				"type": "occ",
				"energy": -0.29535,
				"method": "rhf"
			},
			{
				"type": "occ",
				"energy": -0.28696,
				"method": "rhf"
			},
			{
				"type": "occ",
				"energy": -0.27429,
				"method": "rhf"
			},
			{
				"type": "occ",
				"energy": -0.26479,
				"method": "rhf"
			},
			{
				"type": "occ",
				"energy": -0.25342,
				"method": "rhf"
			},
			{
				"type": "unocc",
				"energy": -0.07808,
				"method": "rhf"
			},
			{
				"type": "unocc",
				"energy": -0.06075,
				"method": "rhf"
			},
			{
				"type": "unocc",
				"energy": 0.01174,
				"method": "rhf"
			},
			{
				"type": "unocc",
				"energy": 0.03989,
				"method": "rhf"
			},
			{
				"type": "unocc",
				"energy": 0.04929,
				"method": "rhf"
			}
		],
		"cosmo_sigma_profile": { 
			"-0.025": 0.0,
			"-0.024": 0.0,
			"-0.023": 0.0,
			"-0.022": 0.0,
			"-0.021": 0.0,
			"-0.02": 0.0,
			"-0.019": 0.0,
			"-0.018": 0.0,
			"-0.017": 0.0,
			"-0.016": 0.0,
			"-0.015": 0.0,
			"-0.014": 0.0,
			"-0.013": 0.0,
			"-0.012": 0.0,
			"-0.011": 0.0276396191438,
			"-0.01": 0.735195267902,
			"-0.009": 5.21829603633,
			"-0.008": 12.6240406162,
			"-0.007": 14.206589311,
			"-0.006": 22.8594948553,
			"-0.005": 24.330865335,
			"-0.004": 24.1745335248,
			"-0.003": 19.7718452286,
			"-0.002": 22.3495402087,
			"-0.001": 26.9676838521,
			"0.0": 20.9635764837,
			"0.001": 12.6096782566,
			"0.002": 8.7151352001,
			"0.003": 7.02952170837,
			"0.004": 6.48138116024,
			"0.005": 5.3577653915,
			"0.006": 5.32511190361,
			"0.007": 6.95979555726,
			"0.008": 5.32891009768,
			"0.009": 6.54109537236,
			"0.01": 8.33617832693,
			"0.011": 16.3411794444,
			"0.012": 13.8905504868,
			"0.013": 1.93333818727,
			"0.014": 0.0,
			"0.015": 0.0,
			"0.016": 0.0,
			"0.017": 0.0,
			"0.018": 0.0,
			"0.019": 0.0,
			"0.02": 0.0,
			"0.021": 0.0,
			"0.022": 0.0,
			"0.023": 0.0,
			"0.024": 0.0,
			"0.025": 0.0
		}
	}
}
