{
	 "smiles": "OCC1=CC=CC=C1C(C1=CC=C(O)C=C1)C1=CC=C(O)C=C1", 
	 "Tm": 475.15, 
	 "num_atms": 41, 
	 "gaussian": { 
		 "optdone": 1, 
		 "sigma_profile": "yes", 
		 "theory": "DFT", 
		 "functional": "B3LYP", 
		 "basiset": "6-31G**", 
		 "properties": { 
			 "R2extent": 8128.25, 
			 "electric_dipole_moment_norm": 0.678374689976, 
			 "electric_quadrupole_moment_norm": 14.9152611911, 
			 "total_energy": -998.634390315, 
			 "HOMO_LUMO_gap": 0.19407, 
			 "cosmo_polarized_energy": -19.46, 
			 "cosmo_cavitation_energy": 44.09, 
			 "cosmo_dispersion_energy": -29.71, 
			 "cosmo_repulsion_energy": 2.29, 
			 "cosmo_total_nonelectrostatic_energy": 16.67, 
			 "SMD_solvation_energy": 7.99 
		},
		"coords": [
			{
				"x": 1.2978186871,
				"y": -2.0961968603,
				"z": 1.9048969075,
				"element": "O" 
			},
			{
				"x": 0.7348489788,
				"y": -1.0849655539,
				"z": 2.7488552838,
				"element": "C" 
			},
			{
				"x": -0.6559843812,
				"y": -0.6568590411,
				"z": 2.3249462315,
				"element": "C" 
			},
			{
				"x": -1.7380062984,
				"y": -0.9566782238,
				"z": 3.1602542952,
				"element": "C" 
			},
			{
				"x": -3.0446526912,
				"y": -0.6063427865,
				"z": 2.8156705284,
				"element": "C" 
			},
			{
				"x": -3.2755539672,
				"y": 0.0489445712,
				"z": 1.6091055875,
				"element": "C" 
			},
			{
				"x": -2.2050887449,
				"y": 0.3475598691,
				"z": 0.7617941317,
				"element": "C" 
			},
			{
				"x": -0.8898126157,
				"y": 0.0098464583,
				"z": 1.0988056723,
				"element": "C" 
			},
			{
				"x": 0.2867009589,
				"y": 0.3730806259,
				"z": 0.1808324455,
				"element": "C" 
			},
			{
				"x": -0.1041200724,
				"y": 0.4195879435,
				"z": -1.299345539,
				"element": "C" 
			},
			{
				"x": -0.2265761889,
				"y": -0.785556026,
				"z": -2.0102142258,
				"element": "C" 
			},
			{
				"x": -0.591745604,
				"y": -0.810641331,
				"z": -3.3515261264,
				"element": "C" 
			},
			{
				"x": -0.8469339978,
				"y": 0.3911853602,
				"z": -4.0225411448,
				"element": "C" 
			},
			{
				"x": -1.1998372169,
				"y": 0.3163978445,
				"z": -5.3420424908,
				"element": "O" 
			},
			{
				"x": -0.7283270386,
				"y": 1.6016824399,
				"z": -3.3358547212,
				"element": "C" 
			},
			{
				"x": -0.3580863798,
				"y": 1.6093237309,
				"z": -1.9887420883,
				"element": "C" 
			},
			{
				"x": 1.018643324,
				"y": 1.6354136581,
				"z": 0.645513461,
				"element": "C" 
			},
			{
				"x": 2.3978846042,
				"y": 1.750881381,
				"z": 0.424653468,
				"element": "C" 
			},
			{
				"x": 3.1030329451,
				"y": 2.8932259926,
				"z": 0.799720577,
				"element": "C" 
			},
			{
				"x": 2.4313170137,
				"y": 3.9571666952,
				"z": 1.4111725264,
				"element": "C" 
			},
			{
				"x": 3.0635645185,
				"y": 5.1040761011,
				"z": 1.8051492677,
				"element": "O" 
			},
			{
				"x": 1.0561791216,
				"y": 3.861474143,
				"z": 1.6434465019,
				"element": "C" 
			},
			{
				"x": 0.366058064,
				"y": 2.7114042044,
				"z": 1.2649860277,
				"element": "C" 
			},
			{
				"x": 0.6468835759,
				"y": -2.8079862703,
				"z": 1.8423502341,
				"element": "H" 
			},
			{
				"x": 0.7059753362,
				"y": -1.4251347367,
				"z": 3.7945197592,
				"element": "H" 
			},
			{
				"x": 1.4363348654,
				"y": -0.2472451324,
				"z": 2.6978799114,
				"element": "H" 
			},
			{
				"x": -1.5495545903,
				"y": -1.472446102,
				"z": 4.0994671885,
				"element": "H" 
			},
			{
				"x": -3.8688381531,
				"y": -0.8479520037,
				"z": 3.4806147088,
				"element": "H" 
			},
			{
				"x": -4.2854191376,
				"y": 0.3257530766,
				"z": 1.3192471794,
				"element": "H" 
			},
			{
				"x": -2.3956602113,
				"y": 0.844164073,
				"z": -0.1841948436,
				"element": "H" 
			},
			{
				"x": 1.0018782187,
				"y": -0.4497501219,
				"z": 0.2739358612,
				"element": "H" 
			},
			{
				"x": -0.0294794202,
				"y": -1.7242504033,
				"z": -1.4978563326,
				"element": "H" 
			},
			{
				"x": -0.6786218089,
				"y": -1.7452286565,
				"z": -3.8961810284,
				"element": "H" 
			},
			{
				"x": -1.339589357,
				"y": 1.2101894814,
				"z": -5.6804987293,
				"element": "H" 
			},
			{
				"x": -0.9172838621,
				"y": 2.5412638238,
				"z": -3.8520104207,
				"element": "H" 
			},
			{
				"x": -0.2553393504,
				"y": 2.5605650782,
				"z": -1.4761977536,
				"element": "H" 
			},
			{
				"x": 2.9316982591,
				"y": 0.9327811238,
				"z": -0.0523998795,
				"element": "H" 
			},
			{
				"x": 4.1749893415,
				"y": 2.9551127226,
				"z": 0.6214516402,
				"element": "H" 
			},
			{
				"x": 4.002748582,
				"y": 5.0351500056,
				"z": 1.5904398077,
				"element": "H" 
			},
			{
				"x": 0.5464648306,
				"y": 4.6899125003,
				"z": 2.1246570509,
				"element": "H" 
			},
			{
				"x": -0.6990101375,
				"y": 2.6474903453,
				"z": 1.4655390693,
				"element": "H" 
			}
		],
		 "valence_orbital": [ 
			{
				"type": "occ",
				"energy": -0.24966,
				"method": "rhf"
			},
			{
				"type": "occ",
				"energy": -0.24486,
				"method": "rhf"
			},
			{
				"type": "occ",
				"energy": -0.23836,
				"method": "rhf"
			},
			{
				"type": "occ",
				"energy": -0.21854,
				"method": "rhf"
			},
			{
				"type": "occ",
				"energy": -0.20678,
				"method": "rhf"
			},
			{
				"type": "unocc",
				"energy": -0.01271,
				"method": "rhf"
			},
			{
				"type": "unocc",
				"energy": -0.00601,
				"method": "rhf"
			},
			{
				"type": "unocc",
				"energy": 0.00151,
				"method": "rhf"
			},
			{
				"type": "unocc",
				"energy": 0.00717,
				"method": "rhf"
			},
			{
				"type": "unocc",
				"energy": 0.01486,
				"method": "rhf"
			}
		],
		"cosmo_sigma_profile": { 
			"-0.025": 0.0,
			"-0.024": 0.0,
			"-0.023": 0.0,
			"-0.022": 0.0,
			"-0.021": 0.0,
			"-0.02": 0.0,
			"-0.019": 0.0,
			"-0.018": 0.426969865871,
			"-0.017": 2.02755245763,
			"-0.016": 2.27717926117,
			"-0.015": 2.53446207954,
			"-0.014": 3.0573971177,
			"-0.013": 3.40714368825,
			"-0.012": 2.77093905275,
			"-0.011": 1.73418808046,
			"-0.01": 2.56705107504,
			"-0.009": 2.97874765477,
			"-0.008": 3.69546721539,
			"-0.007": 3.8599518348,
			"-0.006": 8.7321996036,
			"-0.005": 20.8025571613,
			"-0.004": 25.328024547,
			"-0.003": 26.3994521989,
			"-0.002": 23.7074470179,
			"-0.001": 25.8975562854,
			"0.0": 21.4126800717,
			"0.001": 18.7287219627,
			"0.002": 21.0136326686,
			"0.003": 24.0924098418,
			"0.004": 30.2443873036,
			"0.005": 28.1769022999,
			"0.006": 17.0038130228,
			"0.007": 3.90226356492,
			"0.008": 3.50432296045,
			"0.009": 4.7880083818,
			"0.01": 3.83152249248,
			"0.011": 5.16359919911,
			"0.012": 3.31908153724,
			"0.013": 0.967999756513,
			"0.014": 1.72953566712,
			"0.015": 0.147212502801,
			"0.016": 0.0,
			"0.017": 0.0,
			"0.018": 0.0,
			"0.019": 0.0,
			"0.02": 0.0,
			"0.021": 0.0,
			"0.022": 0.0,
			"0.023": 0.0,
			"0.024": 0.0,
			"0.025": 0.0
		}
	}
}
