{
	 "smiles": "CCCOCC(=N/C1=CC=C(Cl)C=C1C(F)(F)F)N1C=CN=C1", 
	 "Tm": 336.65, 
	 "num_atms": 38, 
	 "gaussian": { 
		 "optdone": 1, 
		 "sigma_profile": "yes", 
		 "theory": "DFT", 
		 "functional": "B3LYP", 
		 "basiset": "6-31G**", 
		 "properties": { 
			 "R2extent": 9210.7802, 
			 "electric_dipole_moment_norm": 3.57287421973, 
			 "electric_quadrupole_moment_norm": 17.4233931374, 
			 "total_energy": -1579.80455563, 
			 "HOMO_LUMO_gap": 0.18364, 
			 "cosmo_polarized_energy": -13.51, 
			 "cosmo_cavitation_energy": 44.79, 
			 "cosmo_dispersion_energy": -29.58, 
			 "cosmo_repulsion_energy": 2.24, 
			 "cosmo_total_nonelectrostatic_energy": 17.44, 
			 "SMD_solvation_energy": 6.49 
		},
		"coords": [
			{
				"x": -3.1321559563,
				"y": 1.5242220313,
				"z": -2.7469223637,
				"element": "C" 
			},
			{
				"x": -1.809379338,
				"y": 1.5082218588,
				"z": -3.5194883246,
				"element": "C" 
			},
			{
				"x": -0.5890076551,
				"y": 1.3756122019,
				"z": -2.6176561784,
				"element": "C" 
			},
			{
				"x": -0.6424048714,
				"y": 0.1036689866,
				"z": -1.9718705998,
				"element": "O" 
			},
			{
				"x": 0.3605659486,
				"y": -0.0679138569,
				"z": -0.9973247765,
				"element": "C" 
			},
			{
				"x": 0.1321859067,
				"y": -1.3720221497,
				"z": -0.2488439213,
				"element": "C" 
			},
			{
				"x": 0.056685004,
				"y": -1.5013854667,
				"z": 1.0179066036,
				"element": "N" 
			},
			{
				"x": 0.1425166654,
				"y": -0.4365079458,
				"z": 1.9235775607,
				"element": "C" 
			},
			{
				"x": 1.3807458029,
				"y": -0.1270992863,
				"z": 2.5088411238,
				"element": "C" 
			},
			{
				"x": 1.4915964615,
				"y": 0.8535659047,
				"z": 3.490053056,
				"element": "C" 
			},
			{
				"x": 0.3494662029,
				"y": 1.53327786,
				"z": 3.9109140039,
				"element": "C" 
			},
			{
				"x": 0.4761708905,
				"y": 2.7692577911,
				"z": 5.1506912097,
				"element": "Cl" 
			},
			{
				"x": -0.8934997675,
				"y": 1.2391078482,
				"z": 3.3588777196,
				"element": "C" 
			},
			{
				"x": -1.0026322016,
				"y": 0.2578266323,
				"z": 2.3714929031,
				"element": "C" 
			},
			{
				"x": -2.3541832854,
				"y": -0.0430327539,
				"z": 1.7746526837,
				"element": "C" 
			},
			{
				"x": -3.3308961452,
				"y": 0.6957091408,
				"z": 2.3435944995,
				"element": "F" 
			},
			{
				"x": -2.3770279812,
				"y": 0.2298338662,
				"z": 0.4442936463,
				"element": "F" 
			},
			{
				"x": -2.6966368548,
				"y": -1.3380337354,
				"z": 1.9153530501,
				"element": "F" 
			},
			{
				"x": 0.0537115567,
				"y": -2.5380501864,
				"z": -1.0231171639,
				"element": "N" 
			},
			{
				"x": -0.0997759576,
				"y": -3.8320696435,
				"z": -0.5235519504,
				"element": "C" 
			},
			{
				"x": -0.0716497149,
				"y": -4.6478889921,
				"z": -1.614270499,
				"element": "C" 
			},
			{
				"x": 0.0924799938,
				"y": -3.915739762,
				"z": -2.7831202825,
				"element": "N" 
			},
			{
				"x": 0.1620536842,
				"y": -2.6698154848,
				"z": -2.404108824,
				"element": "C" 
			},
			{
				"x": -3.9846458075,
				"y": 1.5767139102,
				"z": -3.430867184,
				"element": "H" 
			},
			{
				"x": -3.2368656895,
				"y": 0.6252874219,
				"z": -2.1347864944,
				"element": "H" 
			},
			{
				"x": -3.1864373943,
				"y": 2.3907018819,
				"z": -2.0778638085,
				"element": "H" 
			},
			{
				"x": -1.7997326557,
				"y": 0.6802223333,
				"z": -4.2385186709,
				"element": "H" 
			},
			{
				"x": -1.6961967263,
				"y": 2.4310731604,
				"z": -4.1022539519,
				"element": "H" 
			},
			{
				"x": 0.3432592179,
				"y": 1.4605832531,
				"z": -3.1995666223,
				"element": "H" 
			},
			{
				"x": -0.5815279329,
				"y": 2.1749897293,
				"z": -1.858563781,
				"element": "H" 
			},
			{
				"x": 0.3500099912,
				"y": 0.7501805916,
				"z": -0.2669588977,
				"element": "H" 
			},
			{
				"x": 1.3649478446,
				"y": -0.0915748905,
				"z": -1.4565555285,
				"element": "H" 
			},
			{
				"x": 2.2589003611,
				"y": -0.678055671,
				"z": 2.1882093183,
				"element": "H" 
			},
			{
				"x": 2.4561771654,
				"y": 1.0851873625,
				"z": 3.9282447259,
				"element": "H" 
			},
			{
				"x": -1.7778939876,
				"y": 1.768046157,
				"z": 3.6904268563,
				"element": "H" 
			},
			{
				"x": -0.2050903869,
				"y": -4.0069840596,
				"z": 0.5334710956,
				"element": "H" 
			},
			{
				"x": -0.1603532327,
				"y": -5.7249922584,
				"z": -1.6380118345,
				"element": "H" 
			},
			{
				"x": 0.2504208451,
				"y": -1.8099237802,
				"z": -3.0481783983,
				"element": "H" 
			}
		],
		 "valence_orbital": [ 
			{
				"type": "occ",
				"energy": -0.28123,
				"method": "rhf"
			},
			{
				"type": "occ",
				"energy": -0.27379,
				"method": "rhf"
			},
			{
				"type": "occ",
				"energy": -0.27211,
				"method": "rhf"
			},
			{
				"type": "occ",
				"energy": -0.23952,
				"method": "rhf"
			},
			{
				"type": "occ",
				"energy": -0.23676,
				"method": "rhf"
			},
			{
				"type": "unocc",
				"energy": -0.05312,
				"method": "rhf"
			},
			{
				"type": "unocc",
				"energy": -0.03973,
				"method": "rhf"
			},
			{
				"type": "unocc",
				"energy": -0.02637,
				"method": "rhf"
			},
			{
				"type": "unocc",
				"energy": 0.01926,
				"method": "rhf"
			},
			{
				"type": "unocc",
				"energy": 0.04239,
				"method": "rhf"
			}
		],
		"cosmo_sigma_profile": { 
			"-0.025": 0.0,
			"-0.024": 0.0,
			"-0.023": 0.0,
			"-0.022": 0.0,
			"-0.021": 0.0,
			"-0.02": 0.0,
			"-0.019": 0.0,
			"-0.018": 0.0,
			"-0.017": 0.0,
			"-0.016": 0.0,
			"-0.015": 0.0,
			"-0.014": 0.0,
			"-0.013": 0.0,
			"-0.012": 0.0,
			"-0.011": 0.0,
			"-0.01": 0.0,
			"-0.009": 0.188746652613,
			"-0.008": 5.13481656528,
			"-0.007": 14.4311916173,
			"-0.006": 15.3139241933,
			"-0.005": 16.1052201982,
			"-0.004": 22.0272553363,
			"-0.003": 29.4112963439,
			"-0.002": 28.1943130943,
			"-0.001": 26.7973760638,
			"0.0": 32.789228324,
			"0.001": 39.4053507662,
			"0.002": 41.6204570434,
			"0.003": 33.1727754353,
			"0.004": 21.9611148732,
			"0.005": 9.71804735684,
			"0.006": 5.50465058359,
			"0.007": 4.13878987589,
			"0.008": 3.12330242333,
			"0.009": 1.31460738995,
			"0.01": 1.04540627912,
			"0.011": 1.33626566995,
			"0.012": 1.48150862817,
			"0.013": 1.138516685,
			"0.014": 0.879081642983,
			"0.015": 1.16428966938,
			"0.016": 1.16832557258,
			"0.017": 0.709394999829,
			"0.018": 0.0185021435247,
			"0.019": 0.0,
			"0.02": 0.0,
			"0.021": 0.0,
			"0.022": 0.0,
			"0.023": 0.0,
			"0.024": 0.0,
			"0.025": 0.0
		}
	}
}
