{
	 "smiles": "COC(=O)C1=CC(Cl)=C(O)C(Cl)=C1", 
	 "Tm": 392.15, 
	 "num_atms": 19, 
	 "gaussian": { 
		 "optdone": 1, 
		 "sigma_profile": "yes", 
		 "theory": "DFT", 
		 "functional": "B3LYP", 
		 "basiset": "6-31G**", 
		 "properties": { 
			 "R2extent": 4976.89, 
			 "electric_dipole_moment_norm": 3.1108662427, 
			 "electric_quadrupole_moment_norm": 7.00502892571, 
			 "total_energy": -1454.53043686, 
			 "HOMO_LUMO_gap": 0.19326, 
			 "cosmo_polarized_energy": -9.63, 
			 "cosmo_cavitation_energy": 27.66, 
			 "cosmo_dispersion_energy": -20.74, 
			 "cosmo_repulsion_energy": 1.65, 
			 "cosmo_total_nonelectrostatic_energy": 8.57, 
			 "SMD_solvation_energy": 6.23 
		},
		"coords": [
			{
				"x": 2.9624738845,
				"y": 2.9803474006,
				"z": -1.7210445593,
				"element": "C" 
			},
			{
				"x": 2.0057004322,
				"y": 2.61415966,
				"z": -0.7132475158,
				"element": "O" 
			},
			{
				"x": 0.8560543614,
				"y": 2.0772717675,
				"z": -1.1797303569,
				"element": "C" 
			},
			{
				"x": 0.628215025,
				"y": 1.9072806642,
				"z": -2.361407349,
				"element": "O" 
			},
			{
				"x": -0.0866924564,
				"y": 1.7213356469,
				"z": -0.0844782821,
				"element": "C" 
			},
			{
				"x": 0.2182528312,
				"y": 1.9343554476,
				"z": 1.264534903,
				"element": "C" 
			},
			{
				"x": -0.7103805572,
				"y": 1.5773283878,
				"z": 2.2308434451,
				"element": "C" 
			},
			{
				"x": -0.3544981315,
				"y": 1.83366125,
				"z": 3.9379052429,
				"element": "Cl" 
			},
			{
				"x": -1.9541377784,
				"y": 1.0058804726,
				"z": 1.9032350636,
				"element": "C" 
			},
			{
				"x": -2.8699917543,
				"y": 0.6517234763,
				"z": 2.82029094,
				"element": "O" 
			},
			{
				"x": -2.2345311523,
				"y": 0.8027469767,
				"z": 0.5377711943,
				"element": "C" 
			},
			{
				"x": -3.7676429261,
				"y": 0.0957988161,
				"z": 0.0914744721,
				"element": "Cl" 
			},
			{
				"x": -1.3170677609,
				"y": 1.1541451933,
				"z": -0.4407929565,
				"element": "C" 
			},
			{
				"x": 3.8156795585,
				"y": 3.3900823006,
				"z": -1.1811396007,
				"element": "H" 
			},
			{
				"x": 2.5400229985,
				"y": 3.7270720096,
				"z": -2.3979109535,
				"element": "H" 
			},
			{
				"x": 3.259576122,
				"y": 2.1051571495,
				"z": -2.3041225234,
				"element": "H" 
			},
			{
				"x": 1.1656041896,
				"y": 2.3717722033,
				"z": 1.552105065,
				"element": "H" 
			},
			{
				"x": -2.5255230326,
				"y": 0.8556563567,
				"z": 3.7044439932,
				"element": "H" 
			},
			{
				"x": -1.5407138533,
				"y": 0.9945248208,
				"z": -1.488930222,
				"element": "H" 
			}
		],
		 "valence_orbital": [ 
			{
				"type": "occ",
				"energy": -0.31843,
				"method": "rhf"
			},
			{
				"type": "occ",
				"energy": -0.3101,
				"method": "rhf"
			},
			{
				"type": "occ",
				"energy": -0.28332,
				"method": "rhf"
			},
			{
				"type": "occ",
				"energy": -0.26272,
				"method": "rhf"
			},
			{
				"type": "occ",
				"energy": -0.24715,
				"method": "rhf"
			},
			{
				"type": "unocc",
				"energy": -0.05389,
				"method": "rhf"
			},
			{
				"type": "unocc",
				"energy": -0.03209,
				"method": "rhf"
			},
			{
				"type": "unocc",
				"energy": -0.00586,
				"method": "rhf"
			},
			{
				"type": "unocc",
				"energy": 0.04134,
				"method": "rhf"
			},
			{
				"type": "unocc",
				"energy": 0.04804,
				"method": "rhf"
			}
		],
		"cosmo_sigma_profile": { 
			"-0.025": 0.0,
			"-0.024": 0.0,
			"-0.023": 0.0,
			"-0.022": 0.0,
			"-0.021": 0.0,
			"-0.02": 0.0,
			"-0.019": 0.0,
			"-0.018": 0.0,
			"-0.017": 0.161429477231,
			"-0.016": 0.68967319327,
			"-0.015": 0.276994732095,
			"-0.014": 0.677124947661,
			"-0.013": 1.06775452366,
			"-0.012": 1.0056296108,
			"-0.011": 0.882154964596,
			"-0.01": 0.958399151645,
			"-0.009": 0.987504899415,
			"-0.008": 1.92725883673,
			"-0.007": 3.78623345372,
			"-0.006": 9.21656680321,
			"-0.005": 11.1393491233,
			"-0.004": 12.1139667985,
			"-0.003": 17.4215230713,
			"-0.002": 18.2033904559,
			"-0.001": 22.5923650022,
			"0.0": 28.0059398037,
			"0.001": 20.0150477365,
			"0.002": 15.3271277305,
			"0.003": 16.5056289462,
			"0.004": 14.3392049632,
			"0.005": 5.34895403973,
			"0.006": 4.33868296635,
			"0.007": 3.83840448217,
			"0.008": 2.81258780604,
			"0.009": 3.88282985384,
			"0.01": 2.17007304508,
			"0.011": 3.50871189095,
			"0.012": 3.12609497892,
			"0.013": 0.0369073187057,
			"0.014": 0.0,
			"0.015": 0.0,
			"0.016": 0.0,
			"0.017": 0.0,
			"0.018": 0.0,
			"0.019": 0.0,
			"0.02": 0.0,
			"0.021": 0.0,
			"0.022": 0.0,
			"0.023": 0.0,
			"0.024": 0.0,
			"0.025": 0.0
		}
	}
}
