{
	 "smiles": "NCC1=CC=C(I)C=C1", 
	 "Tm": 320.15, 
	 "num_atms": 17, 
	 "gaussian": { 
		 "optdone": 1, 
		 "sigma_profile": "yes", 
		 "theory": "DFT", 
		 "functional": "B3LYP", 
		 "basiset": "6-31G**", 
		 "properties": { 
			 "R2extent": 1516.3586, 
			 "electric_dipole_moment_norm": 0.703163217184, 
			 "electric_quadrupole_moment_norm": 10.3478178506, 
			 "total_energy": -337.699398311, 
			 "HOMO_LUMO_gap": 0.19237, 
			 "cosmo_polarized_energy": -7.85, 
			 "cosmo_cavitation_energy": 23.88, 
			 "cosmo_dispersion_energy": -18.88, 
			 "cosmo_repulsion_energy": 1.53, 
			 "cosmo_total_nonelectrostatic_energy": 6.53, 
			 "SMD_solvation_energy": 1.71 
		},
		"coords": [
			{
				"x": 0.8173572322,
				"y": -3.4428334805,
				"z": -0.0032283511,
				"element": "N" 
			},
			{
				"x": -0.0844918028,
				"y": -2.6034117083,
				"z": -0.8082140795,
				"element": "C" 
			},
			{
				"x": -0.2591347374,
				"y": -1.1760738512,
				"z": -0.3178616076,
				"element": "C" 
			},
			{
				"x": 0.6034439773,
				"y": -0.157663381,
				"z": -0.743920034,
				"element": "C" 
			},
			{
				"x": 0.4908332275,
				"y": 1.1442723991,
				"z": -0.2538865652,
				"element": "C" 
			},
			{
				"x": -0.5055353417,
				"y": 1.4355510406,
				"z": 0.6793692087,
				"element": "C" 
			},
			{
				"x": -0.6931917611,
				"y": 3.4106195554,
				"z": 1.4319722413,
				"element": "I" 
			},
			{
				"x": -1.3844100139,
				"y": 0.4435843788,
				"z": 1.1177253011,
				"element": "C" 
			},
			{
				"x": -1.2533885256,
				"y": -0.851463231,
				"z": 0.6142439842,
				"element": "C" 
			},
			{
				"x": 0.4817971549,
				"y": -3.4731009743,
				"z": 0.9577423677,
				"element": "H" 
			},
			{
				"x": 1.7356541435,
				"y": -3.0049542672,
				"z": 0.0412224923,
				"element": "H" 
			},
			{
				"x": 0.2990246035,
				"y": -2.594711358,
				"z": -1.8347478646,
				"element": "H" 
			},
			{
				"x": -1.0597151309,
				"y": -3.1021726341,
				"z": -0.8416471644,
				"element": "H" 
			},
			{
				"x": 1.3760637839,
				"y": -0.3795978118,
				"z": -1.4769797361,
				"element": "H" 
			},
			{
				"x": 1.1665417142,
				"y": 1.9184577791,
				"z": -0.6002601395,
				"element": "H" 
			},
			{
				"x": -2.163773966,
				"y": 0.6741172094,
				"z": 1.8356089483,
				"element": "H" 
			},
			{
				"x": -1.9448745576,
				"y": -1.6204196651,
				"z": 0.9520609984,
				"element": "H" 
			}
		],
		 "valence_orbital": [ 
			{
				"type": "occ",
				"energy": -0.29569,
				"method": "rhf"
			},
			{
				"type": "occ",
				"energy": -0.26857,
				"method": "rhf"
			},
			{
				"type": "occ",
				"energy": -0.26585,
				"method": "rhf"
			},
			{
				"type": "occ",
				"energy": -0.25066,
				"method": "rhf"
			},
			{
				"type": "occ",
				"energy": -0.23119,
				"method": "rhf"
			},
			{
				"type": "unocc",
				"energy": -0.03882,
				"method": "rhf"
			},
			{
				"type": "unocc",
				"energy": -0.02062,
				"method": "rhf"
			},
			{
				"type": "unocc",
				"energy": -0.01769,
				"method": "rhf"
			},
			{
				"type": "unocc",
				"energy": 0.04246,
				"method": "rhf"
			},
			{
				"type": "unocc",
				"energy": 0.0498,
				"method": "rhf"
			}
		],
		"cosmo_sigma_profile": { 
			"-0.025": 0.0,
			"-0.024": 0.0,
			"-0.023": 0.0,
			"-0.022": 0.0,
			"-0.021": 0.0,
			"-0.02": 0.0,
			"-0.019": 0.0,
			"-0.018": 0.0,
			"-0.017": 0.0,
			"-0.016": 0.0,
			"-0.015": 0.0,
			"-0.014": 0.0,
			"-0.013": 0.0,
			"-0.012": 0.0,
			"-0.011": 0.0,
			"-0.01": 0.498975063712,
			"-0.009": 2.00441708387,
			"-0.008": 3.29286092616,
			"-0.007": 4.23093849047,
			"-0.006": 13.9685572883,
			"-0.005": 16.2653967239,
			"-0.004": 15.4876941901,
			"-0.003": 12.3821742622,
			"-0.002": 13.5854630182,
			"-0.001": 11.0430840092,
			"0.0": 11.3682693199,
			"0.001": 10.8841189011,
			"0.002": 15.9013370308,
			"0.003": 16.3723076629,
			"0.004": 23.3339509669,
			"0.005": 14.1079389428,
			"0.006": 0.28157869701,
			"0.007": 1.17239932481,
			"0.008": 0.711241005153,
			"0.009": 0.466157189469,
			"0.01": 0.889478416044,
			"0.011": 0.50105144508,
			"0.012": 0.517888145776,
			"0.013": 0.938369313262,
			"0.014": 0.745925052575,
			"0.015": 0.477333737546,
			"0.016": 0.646179182971,
			"0.017": 0.885083196042,
			"0.018": 0.50796113511,
			"0.019": 0.756665439556,
			"0.02": 0.19121236303,
			"0.021": 0.0,
			"0.022": 0.0,
			"0.023": 0.0,
			"0.024": 0.0,
			"0.025": 0.0
		}
	}
}
