{
	 "smiles": "CSC(SC)=C(C#N)S(=O)(=O)C(C)C", 
	 "Tm": 362.65, 
	 "num_atms": 27, 
	 "gaussian": { 
		 "optdone": 1, 
		 "sigma_profile": "yes", 
		 "theory": "DFT", 
		 "functional": "B3LYP", 
		 "basiset": "6-31G**", 
		 "properties": { 
			 "R2extent": 4153.4453, 
			 "electric_dipole_moment_norm": 6.38698057458, 
			 "electric_quadrupole_moment_norm": 24.0606495706, 
			 "total_energy": -1712.33733431, 
			 "HOMO_LUMO_gap": 0.16395, 
			 "cosmo_polarized_energy": -20.7, 
			 "cosmo_cavitation_energy": 34.27, 
			 "cosmo_dispersion_energy": -24.08, 
			 "cosmo_repulsion_energy": 1.78, 
			 "cosmo_total_nonelectrostatic_energy": 11.97, 
			 "SMD_solvation_energy": 6.77 
		},
		"coords": [
			{
				"x": 2.4078037843,
				"y": -1.1010301204,
				"z": -2.9802533437,
				"element": "C" 
			},
			{
				"x": 0.9349875587,
				"y": -0.1281994159,
				"z": -2.4781446071,
				"element": "S" 
			},
			{
				"x": 0.9087977347,
				"y": -0.4459597995,
				"z": -0.7110756493,
				"element": "C" 
			},
			{
				"x": 0.538444057,
				"y": -2.0735209674,
				"z": -0.1209891413,
				"element": "S" 
			},
			{
				"x": -0.3203526768,
				"y": -2.8562330002,
				"z": -1.535507236,
				"element": "C" 
			},
			{
				"x": 1.1847639246,
				"y": 0.6155729963,
				"z": 0.1119586118,
				"element": "C" 
			},
			{
				"x": 1.5753096989,
				"y": 1.8881889251,
				"z": -0.393757895,
				"element": "C" 
			},
			{
				"x": 1.8781389168,
				"y": 2.9571769606,
				"z": -0.7452222382,
				"element": "N" 
			},
			{
				"x": 1.19639224,
				"y": 0.5515254396,
				"z": 1.9467702867,
				"element": "S" 
			},
			{
				"x": 1.1830859758,
				"y": -0.8705861883,
				"z": 2.3284960635,
				"element": "O" 
			},
			{
				"x": 2.2854843053,
				"y": 1.4332234431,
				"z": 2.3848414376,
				"element": "O" 
			},
			{
				"x": -0.3988612403,
				"y": 1.2923685414,
				"z": 2.4996816744,
				"element": "C" 
			},
			{
				"x": -1.5884292848,
				"y": 0.5005144063,
				"z": 1.9588140442,
				"element": "C" 
			},
			{
				"x": -0.4559011926,
				"y": 2.7919999475,
				"z": 2.2068782467,
				"element": "C" 
			},
			{
				"x": 2.3180906116,
				"y": -2.150863631,
				"z": -2.6979807086,
				"element": "H" 
			},
			{
				"x": 3.309025916,
				"y": -0.6694597014,
				"z": -2.5430695799,
				"element": "H" 
			},
			{
				"x": 2.4559449529,
				"y": -1.0184788863,
				"z": -4.0682482271,
				"element": "H" 
			},
			{
				"x": -0.6823373235,
				"y": -3.801279368,
				"z": -1.1218764964,
				"element": "H" 
			},
			{
				"x": 0.3397273385,
				"y": -3.0685029345,
				"z": -2.3761969552,
				"element": "H" 
			},
			{
				"x": -1.1694888443,
				"y": -2.2593352696,
				"z": -1.8677889035,
				"element": "H" 
			},
			{
				"x": -0.3041166968,
				"y": 1.1277447372,
				"z": 3.5810079356,
				"element": "H" 
			},
			{
				"x": -2.5068893715,
				"y": 0.8820283846,
				"z": 2.4158451365,
				"element": "H" 
			},
			{
				"x": -1.6831239829,
				"y": 0.6194042275,
				"z": 0.8747547357,
				"element": "H" 
			},
			{
				"x": -1.5011051537,
				"y": -0.5626608756,
				"z": 2.1910100828,
				"element": "H" 
			},
			{
				"x": -0.5472538987,
				"y": 2.9923556372,
				"z": 1.1358029453,
				"element": "H" 
			},
			{
				"x": 0.432926519,
				"y": 3.3038997786,
				"z": 2.5799152171,
				"element": "H" 
			},
			{
				"x": -1.3358638684,
				"y": 3.2137067328,
				"z": 2.7033345635,
				"element": "H" 
			}
		],
		 "valence_orbital": [ 
			{
				"type": "occ",
				"energy": -0.3151,
				"method": "rhf"
			},
			{
				"type": "occ",
				"energy": -0.29911,
				"method": "rhf"
			},
			{
				"type": "occ",
				"energy": -0.28472,
				"method": "rhf"
			},
			{
				"type": "occ",
				"energy": -0.26156,
				"method": "rhf"
			},
			{
				"type": "occ",
				"energy": -0.24751,
				"method": "rhf"
			},
			{
				"type": "unocc",
				"energy": -0.08356,
				"method": "rhf"
			},
			{
				"type": "unocc",
				"energy": -0.01273,
				"method": "rhf"
			},
			{
				"type": "unocc",
				"energy": -0.00374,
				"method": "rhf"
			},
			{
				"type": "unocc",
				"energy": 0.03206,
				"method": "rhf"
			},
			{
				"type": "unocc",
				"energy": 0.04661,
				"method": "rhf"
			}
		],
		"cosmo_sigma_profile": { 
			"-0.025": 0.0,
			"-0.024": 0.0,
			"-0.023": 0.0,
			"-0.022": 0.0,
			"-0.021": 0.0,
			"-0.02": 0.0,
			"-0.019": 0.0,
			"-0.018": 0.0,
			"-0.017": 0.0,
			"-0.016": 0.0,
			"-0.015": 0.0,
			"-0.014": 0.0,
			"-0.013": 0.0,
			"-0.012": 0.0,
			"-0.011": 0.0,
			"-0.01": 0.0,
			"-0.009": 1.42270431679,
			"-0.008": 7.82690998779,
			"-0.007": 11.5590966091,
			"-0.006": 16.3965501438,
			"-0.005": 24.9264048316,
			"-0.004": 25.8688101407,
			"-0.003": 30.6580934778,
			"-0.002": 24.6916743274,
			"-0.001": 17.705369122,
			"0.0": 12.5850034161,
			"0.001": 8.93609817582,
			"0.002": 10.1733561354,
			"0.003": 9.37568702415,
			"0.004": 7.88962138594,
			"0.005": 7.52107286805,
			"0.006": 6.30081798917,
			"0.007": 8.2287272972,
			"0.008": 9.08699871983,
			"0.009": 7.35270021688,
			"0.01": 10.4319691277,
			"0.011": 10.9119344931,
			"0.012": 3.94775184599,
			"0.013": 0.824955773551,
			"0.014": 0.0,
			"0.015": 0.0,
			"0.016": 0.0,
			"0.017": 0.0,
			"0.018": 0.0,
			"0.019": 0.0,
			"0.02": 0.0,
			"0.021": 0.0,
			"0.022": 0.0,
			"0.023": 0.0,
			"0.024": 0.0,
			"0.025": 0.0
		}
	}
}
