{
	 "smiles": "FC1=C(C=C2CCC(=O)NC2=C1)C(=O)CCl", 
	 "Tm": 531.15, 
	 "num_atms": 25, 
	 "gaussian": { 
		 "optdone": 1, 
		 "sigma_profile": "yes", 
		 "theory": "DFT", 
		 "functional": "B3LYP", 
		 "basiset": "6-31G**", 
		 "properties": { 
			 "R2extent": 5699.8644, 
			 "electric_dipole_moment_norm": 1.62617080591, 
			 "electric_quadrupole_moment_norm": 21.6031515803, 
			 "total_energy": -1189.84897817, 
			 "HOMO_LUMO_gap": 0.16598, 
			 "cosmo_polarized_energy": -15.89, 
			 "cosmo_cavitation_energy": 31.13, 
			 "cosmo_dispersion_energy": -22.88, 
			 "cosmo_repulsion_energy": 1.77, 
			 "cosmo_total_nonelectrostatic_energy": 10.01, 
			 "SMD_solvation_energy": 6.13 
		},
		"coords": [
			{
				"x": -2.9441633454,
				"y": -0.9662800035,
				"z": 1.0001512947,
				"element": "F" 
			},
			{
				"x": -1.9464160232,
				"y": -0.6435679535,
				"z": 0.1507693398,
				"element": "C" 
			},
			{
				"x": -1.7868304289,
				"y": -1.3363907295,
				"z": -1.056359274,
				"element": "C" 
			},
			{
				"x": -0.7361986275,
				"y": -0.9054041558,
				"z": -1.892308009,
				"element": "C" 
			},
			{
				"x": 0.1182565422,
				"y": 0.1307791735,
				"z": -1.5557854694,
				"element": "C" 
			},
			{
				"x": 1.2989182679,
				"y": 0.5511303234,
				"z": -2.4003397997,
				"element": "C" 
			},
			{
				"x": 1.5444913433,
				"y": 2.0632612817,
				"z": -2.2904450838,
				"element": "C" 
			},
			{
				"x": 1.5931492017,
				"y": 2.5443961445,
				"z": -0.8495887476,
				"element": "C" 
			},
			{
				"x": 2.2668778416,
				"y": 3.4781762557,
				"z": -0.4546501152,
				"element": "O" 
			},
			{
				"x": 0.75200588,
				"y": 1.856391375,
				"z": 0.0190376577,
				"element": "N" 
			},
			{
				"x": -0.0927776,
				"y": 0.8039948741,
				"z": -0.3307723806,
				"element": "C" 
			},
			{
				"x": -1.1293222267,
				"y": 0.4131991276,
				"z": 0.5226909901,
				"element": "C" 
			},
			{
				"x": -2.6319458659,
				"y": -2.4605690783,
				"z": -1.5464804218,
				"element": "C" 
			},
			{
				"x": -2.5356871359,
				"y": -2.8567136535,
				"z": -2.6984158502,
				"element": "O" 
			},
			{
				"x": -3.6310779274,
				"y": -3.1567107935,
				"z": -0.6230226992,
				"element": "C" 
			},
			{
				"x": -2.7652108636,
				"y": -4.1190191197,
				"z": 0.6499915319,
				"element": "Cl" 
			},
			{
				"x": -0.6081217493,
				"y": -1.4374598536,
				"z": -2.8299406735,
				"element": "H" 
			},
			{
				"x": 1.1452254557,
				"y": 0.2640837636,
				"z": -3.4446196164,
				"element": "H" 
			},
			{
				"x": 2.1965944758,
				"y": 0.0165116054,
				"z": -2.0581915575,
				"element": "H" 
			},
			{
				"x": 2.4765708356,
				"y": 2.3677144785,
				"z": -2.770178281,
				"element": "H" 
			},
			{
				"x": 0.7300484909,
				"y": 2.6128879172,
				"z": -2.7821381824,
				"element": "H" 
			},
			{
				"x": 0.7024308372,
				"y": 2.2440318225,
				"z": 0.9531517416,
				"element": "H" 
			},
			{
				"x": -1.3191589226,
				"y": 0.9233748377,
				"z": 1.4609960012,
				"element": "H" 
			},
			{
				"x": -4.206170292,
				"y": -3.8591936516,
				"z": -1.2230753879,
				"element": "H" 
			},
			{
				"x": -4.2791881635,
				"y": -2.4551239877,
				"z": -0.1003770078,
				"element": "H" 
			}
		],
		 "valence_orbital": [ 
			{
				"type": "occ",
				"energy": -0.30231,
				"method": "rhf"
			},
			{
				"type": "occ",
				"energy": -0.27168,
				"method": "rhf"
			},
			{
				"type": "occ",
				"energy": -0.26892,
				"method": "rhf"
			},
			{
				"type": "occ",
				"energy": -0.26498,
				"method": "rhf"
			},
			{
				"type": "occ",
				"energy": -0.24158,
				"method": "rhf"
			},
			{
				"type": "unocc",
				"energy": -0.0756,
				"method": "rhf"
			},
			{
				"type": "unocc",
				"energy": -0.02468,
				"method": "rhf"
			},
			{
				"type": "unocc",
				"energy": -0.01463,
				"method": "rhf"
			},
			{
				"type": "unocc",
				"energy": 0.01703,
				"method": "rhf"
			},
			{
				"type": "unocc",
				"energy": 0.05449,
				"method": "rhf"
			}
		],
		"cosmo_sigma_profile": { 
			"-0.025": 0.0,
			"-0.024": 0.0,
			"-0.023": 0.0,
			"-0.022": 0.0,
			"-0.021": 0.0,
			"-0.02": 0.0,
			"-0.019": 0.0,
			"-0.018": 0.0,
			"-0.017": 0.0,
			"-0.016": 0.347288594218,
			"-0.015": 1.31301256006,
			"-0.014": 1.23671006646,
			"-0.013": 1.26882938356,
			"-0.012": 1.17075079734,
			"-0.011": 1.38363515676,
			"-0.01": 1.53373933693,
			"-0.009": 2.26046509277,
			"-0.008": 5.23385059487,
			"-0.007": 7.53894700723,
			"-0.006": 14.3365442103,
			"-0.005": 19.545124186,
			"-0.004": 17.1788665955,
			"-0.003": 15.6806196621,
			"-0.002": 14.9062955915,
			"-0.001": 14.1203013297,
			"0.0": 20.0945492286,
			"0.001": 22.0583167076,
			"0.002": 15.5210935318,
			"0.003": 12.5685684473,
			"0.004": 11.9001473929,
			"0.005": 12.1137315232,
			"0.006": 7.1953802057,
			"0.007": 2.06757596946,
			"0.008": 2.88542832311,
			"0.009": 3.71827707924,
			"0.01": 4.09497219218,
			"0.011": 6.18053029686,
			"0.012": 6.06623855432,
			"0.013": 4.19454147717,
			"0.014": 0.715303768225,
			"0.015": 0.0,
			"0.016": 0.0,
			"0.017": 0.0,
			"0.018": 0.0,
			"0.019": 0.0,
			"0.02": 0.0,
			"0.021": 0.0,
			"0.022": 0.0,
			"0.023": 0.0,
			"0.024": 0.0,
			"0.025": 0.0
		}
	}
}
