{
	 "smiles": "CN1C=NC2=C1C(=O)N(C)C(=O)N2C", 
	 "Tm": 509.15, 
	 "num_atms": 24, 
	 "gaussian": { 
		 "optdone": 1, 
		 "sigma_profile": "yes", 
		 "theory": "DFT", 
		 "functional": "B3LYP", 
		 "basiset": "6-31G**", 
		 "properties": { 
			 "R2extent": 2623.3427, 
			 "electric_dipole_moment_norm": 3.78642726062, 
			 "electric_quadrupole_moment_norm": 6.14898934216, 
			 "total_energy": -680.377358655, 
			 "HOMO_LUMO_gap": 0.18795, 
			 "cosmo_polarized_energy": -14.3, 
			 "cosmo_cavitation_energy": 27.51, 
			 "cosmo_dispersion_energy": -20.35, 
			 "cosmo_repulsion_energy": 1.55, 
			 "cosmo_total_nonelectrostatic_energy": 8.71, 
			 "SMD_solvation_energy": 5.05 
		},
		"coords": [
			{
				"x": -1.2059598299,
				"y": 2.7560407114,
				"z": -1.4962231229,
				"element": "C" 
			},
			{
				"x": -1.3281414908,
				"y": 1.7152734929,
				"z": -0.4837856003,
				"element": "N" 
			},
			{
				"x": -2.4277359083,
				"y": 1.386996124,
				"z": 0.2414249402,
				"element": "C" 
			},
			{
				"x": -2.2279638547,
				"y": 0.3853673792,
				"z": 1.0941770836,
				"element": "N" 
			},
			{
				"x": -0.9230437925,
				"y": 0.056972867,
				"z": 0.8996743655,
				"element": "C" 
			},
			{
				"x": -0.3297550611,
				"y": 0.849938013,
				"z": -0.0629111781,
				"element": "C" 
			},
			{
				"x": 1.0390995433,
				"y": 0.7198145341,
				"z": -0.4659020796,
				"element": "C" 
			},
			{
				"x": 1.6167018794,
				"y": 1.3955707801,
				"z": -1.3138494965,
				"element": "O" 
			},
			{
				"x": 1.6830332707,
				"y": -0.3196013337,
				"z": 0.2519747922,
				"element": "N" 
			},
			{
				"x": 3.0954721244,
				"y": -0.5834453696,
				"z": -0.0438839354,
				"element": "C" 
			},
			{
				"x": 1.1166342455,
				"y": -1.1506026308,
				"z": 1.2394989236,
				"element": "C" 
			},
			{
				"x": 1.7843519516,
				"y": -2.016674766,
				"z": 1.7869569905,
				"element": "O" 
			},
			{
				"x": -0.2259946196,
				"y": -0.9330819896,
				"z": 1.5513626342,
				"element": "N" 
			},
			{
				"x": -0.8803490878,
				"y": -1.7574156209,
				"z": 2.566041373,
				"element": "C" 
			},
			{
				"x": -0.918824542,
				"y": 2.3192225088,
				"z": -2.4546472335,
				"element": "H" 
			},
			{
				"x": -2.1696994778,
				"y": 3.2587599688,
				"z": -1.5937195264,
				"element": "H" 
			},
			{
				"x": -0.4406070947,
				"y": 3.4782297026,
				"z": -1.2055200188,
				"element": "H" 
			},
			{
				"x": -3.3663426325,
				"y": 1.9099937472,
				"z": 0.1152728763,
				"element": "H" 
			},
			{
				"x": 3.6970358536,
				"y": -0.4524760835,
				"z": 0.8580072703,
				"element": "H" 
			},
			{
				"x": 3.400807797,
				"y": 0.1212315435,
				"z": -0.8142553065,
				"element": "H" 
			},
			{
				"x": 3.2188770918,
				"y": -1.6112448499,
				"z": -0.3915157669,
				"element": "H" 
			},
			{
				"x": -1.727952116,
				"y": -2.2897769174,
				"z": 2.1266905277,
				"element": "H" 
			},
			{
				"x": -1.2480031733,
				"y": -1.1276565643,
				"z": 3.3803546516,
				"element": "H" 
			},
			{
				"x": -0.1413410764,
				"y": -2.4637352471,
				"z": 2.9378768363,
				"element": "H" 
			}
		],
		 "valence_orbital": [ 
			{
				"type": "occ",
				"energy": -0.285,
				"method": "rhf"
			},
			{
				"type": "occ",
				"energy": -0.28012,
				"method": "rhf"
			},
			{
				"type": "occ",
				"energy": -0.26513,
				"method": "rhf"
			},
			{
				"type": "occ",
				"energy": -0.25814,
				"method": "rhf"
			},
			{
				"type": "occ",
				"energy": -0.21937,
				"method": "rhf"
			},
			{
				"type": "unocc",
				"energy": -0.03142,
				"method": "rhf"
			},
			{
				"type": "unocc",
				"energy": 0.02379,
				"method": "rhf"
			},
			{
				"type": "unocc",
				"energy": 0.03696,
				"method": "rhf"
			},
			{
				"type": "unocc",
				"energy": 0.08793,
				"method": "rhf"
			},
			{
				"type": "unocc",
				"energy": 0.10967,
				"method": "rhf"
			}
		],
		"cosmo_sigma_profile": { 
			"-0.025": 0.0,
			"-0.024": 0.0,
			"-0.023": 0.0,
			"-0.022": 0.0,
			"-0.021": 0.0,
			"-0.02": 0.0,
			"-0.019": 0.0,
			"-0.018": 0.0,
			"-0.017": 0.0,
			"-0.016": 0.0,
			"-0.015": 0.0,
			"-0.014": 0.0,
			"-0.013": 0.0,
			"-0.012": 0.0,
			"-0.011": 0.661626755528,
			"-0.01": 3.30592472989,
			"-0.009": 2.39969071955,
			"-0.008": 2.99060780273,
			"-0.007": 4.44847143822,
			"-0.006": 9.72491009495,
			"-0.005": 16.4585066736,
			"-0.004": 23.1874715818,
			"-0.003": 27.848953459,
			"-0.002": 26.4441779066,
			"-0.001": 18.7118530824,
			"0.0": 12.5412987084,
			"0.001": 6.61506252301,
			"0.002": 5.84134752521,
			"0.003": 6.43891703225,
			"0.004": 5.15188685952,
			"0.005": 4.53350671152,
			"0.006": 4.22964603714,
			"0.007": 4.42821040832,
			"0.008": 3.88270174339,
			"0.009": 3.70196121857,
			"0.01": 4.63146294283,
			"0.011": 4.28555793137,
			"0.012": 7.63167729729,
			"0.013": 7.55100268811,
			"0.014": 0.693508322152,
			"0.015": 0.731105934686,
			"0.016": 0.145406131941,
			"0.017": 0.0,
			"0.018": 0.0,
			"0.019": 0.0,
			"0.02": 0.0,
			"0.021": 0.0,
			"0.022": 0.0,
			"0.023": 0.0,
			"0.024": 0.0,
			"0.025": 0.0
		}
	}
}
