{
	 "smiles": "NC1=NC(=NN1)C1=CC=C(Cl)C=C1", 
	 "Tm": 493.15, 
	 "num_atms": 20, 
	 "gaussian": { 
		 "optdone": 1, 
		 "sigma_profile": "yes", 
		 "theory": "DFT", 
		 "functional": "B3LYP", 
		 "basiset": "6-31G**", 
		 "properties": { 
			 "R2extent": 4991.4397, 
			 "electric_dipole_moment_norm": 5.87658248049, 
			 "electric_quadrupole_moment_norm": 14.6756719103, 
			 "total_energy": -988.269881808, 
			 "HOMO_LUMO_gap": 0.18736, 
			 "cosmo_polarized_energy": -17.01, 
			 "cosmo_cavitation_energy": 26.83, 
			 "cosmo_dispersion_energy": -20.42, 
			 "cosmo_repulsion_energy": 1.63, 
			 "cosmo_total_nonelectrostatic_energy": 8.04, 
			 "SMD_solvation_energy": 1.87 
		},
		"coords": [
			{
				"x": -0.314282436,
				"y": 3.0342492364,
				"z": 2.3764298781,
				"element": "N" 
			},
			{
				"x": 0.126612222,
				"y": 1.7280996733,
				"z": 2.2917084162,
				"element": "C" 
			},
			{
				"x": 0.372736367,
				"y": 1.0601411452,
				"z": 1.1798320365,
				"element": "N" 
			},
			{
				"x": 0.8551818885,
				"y": -0.1427529849,
				"z": 1.6390880875,
				"element": "C" 
			},
			{
				"x": 0.9098142717,
				"y": -0.2544404702,
				"z": 2.9597702486,
				"element": "N" 
			},
			{
				"x": 0.4352985423,
				"y": 0.962638449,
				"z": 3.3686301111,
				"element": "N" 
			},
			{
				"x": 1.2689294254,
				"y": -1.2247988242,
				"z": 0.7361659012,
				"element": "C" 
			},
			{
				"x": 1.1995151022,
				"y": -1.0458746222,
				"z": -0.6524574045,
				"element": "C" 
			},
			{
				"x": 1.5898881972,
				"y": -2.0625857637,
				"z": -1.5214821,
				"element": "C" 
			},
			{
				"x": 2.0526857933,
				"y": -3.2672362066,
				"z": -0.9938016019,
				"element": "C" 
			},
			{
				"x": 2.5472415339,
				"y": -4.5568362988,
				"z": -2.0840845078,
				"element": "Cl" 
			},
			{
				"x": 2.1304680179,
				"y": -3.4685808167,
				"z": 0.3853316679,
				"element": "C" 
			},
			{
				"x": 1.7378571506,
				"y": -2.4462343522,
				"z": 1.2439615629,
				"element": "C" 
			},
			{
				"x": -0.6241836941,
				"y": 3.3775330774,
				"z": 1.476525537,
				"element": "H" 
			},
			{
				"x": -0.9894010053,
				"y": 3.2199826536,
				"z": 3.1069413137,
				"element": "H" 
			},
			{
				"x": 0.4309683326,
				"y": 1.1987186957,
				"z": 4.3486378779,
				"element": "H" 
			},
			{
				"x": 0.8368030185,
				"y": -0.1012349991,
				"z": -1.0425931562,
				"element": "H" 
			},
			{
				"x": 1.5366905022,
				"y": -1.9243213425,
				"z": -2.5957305927,
				"element": "H" 
			},
			{
				"x": 2.4931299776,
				"y": -4.4125675897,
				"z": 0.7768640623,
				"element": "H" 
			},
			{
				"x": 1.7921467926,
				"y": -2.58729866,
				"z": 2.318162662,
				"element": "H" 
			}
		],
		 "valence_orbital": [ 
			{
				"type": "occ",
				"energy": -0.29466,
				"method": "rhf"
			},
			{
				"type": "occ",
				"energy": -0.27589,
				"method": "rhf"
			},
			{
				"type": "occ",
				"energy": -0.25575,
				"method": "rhf"
			},
			{
				"type": "occ",
				"energy": -0.24886,
				"method": "rhf"
			},
			{
				"type": "occ",
				"energy": -0.21552,
				"method": "rhf"
			},
			{
				"type": "unocc",
				"energy": -0.02816,
				"method": "rhf"
			},
			{
				"type": "unocc",
				"energy": -0.00449,
				"method": "rhf"
			},
			{
				"type": "unocc",
				"energy": 0.03255,
				"method": "rhf"
			},
			{
				"type": "unocc",
				"energy": 0.03802,
				"method": "rhf"
			},
			{
				"type": "unocc",
				"energy": 0.05575,
				"method": "rhf"
			}
		],
		"cosmo_sigma_profile": { 
			"-0.025": 0.0,
			"-0.024": 0.0,
			"-0.023": 0.0,
			"-0.022": 0.0,
			"-0.021": 0.0,
			"-0.02": 0.0,
			"-0.019": 0.0,
			"-0.018": 0.116952474865,
			"-0.017": 1.44825547217,
			"-0.016": 2.33421514265,
			"-0.015": 2.31047336205,
			"-0.014": 3.11800211309,
			"-0.013": 3.45358747769,
			"-0.012": 3.38657188832,
			"-0.011": 4.03546133757,
			"-0.01": 2.65436375201,
			"-0.009": 1.8988934213,
			"-0.008": 1.78224103941,
			"-0.007": 5.67406321669,
			"-0.006": 7.49330753061,
			"-0.005": 8.9814392522,
			"-0.004": 6.29956516275,
			"-0.003": 7.26885896939,
			"-0.002": 9.26825019675,
			"-0.001": 9.10746703376,
			"0.0": 11.1176625466,
			"0.001": 15.493227095,
			"0.002": 24.3730362295,
			"0.003": 28.0944635291,
			"0.004": 20.5524248822,
			"0.005": 10.7936282023,
			"0.006": 4.27957804646,
			"0.007": 3.72475359055,
			"0.008": 2.88183476664,
			"0.009": 3.43378020366,
			"0.01": 2.9962431393,
			"0.011": 2.75059236478,
			"0.012": 3.0463321324,
			"0.013": 1.89997760825,
			"0.014": 1.35169252201,
			"0.015": 0.0,
			"0.016": 0.0,
			"0.017": 0.0,
			"0.018": 0.0,
			"0.019": 0.0,
			"0.02": 0.0,
			"0.021": 0.0,
			"0.022": 0.0,
			"0.023": 0.0,
			"0.024": 0.0,
			"0.025": 0.0
		}
	}
}
