{
	 "smiles": "CC(C1C(CC2C3CC=C4CC(O)CCC4(C)C3CCC12C)OC(C)=O)C1CCC(C)CN1", 
	 "Tm": 483.65, 
	 "num_atms": 80, 
	 "gaussian": { 
		 "optdone": 1, 
		 "sigma_profile": "yes", 
		 "theory": "DFT", 
		 "functional": "B3LYP", 
		 "basiset": "6-31G**", 
		 "properties": { 
			 "R2extent": 20223.291, 
			 "electric_dipole_moment_norm": 2.99651819784, 
			 "electric_quadrupole_moment_norm": 13.1173547814, 
			 "total_energy": -1413.84801893, 
			 "HOMO_LUMO_gap": 0.22512, 
			 "cosmo_polarized_energy": -14.58, 
			 "cosmo_cavitation_energy": 67.4, 
			 "cosmo_dispersion_energy": -44.19, 
			 "cosmo_repulsion_energy": 3.26, 
			 "cosmo_total_nonelectrostatic_energy": 26.47, 
			 "SMD_solvation_energy": 9.56 
		},
		"coords": [
			{
				"x": 3.2723052689,
				"y": 2.2966280208,
				"z": -0.2310153286,
				"element": "C" 
			},
			{
				"x": 2.5477480697,
				"y": 2.3391551894,
				"z": 1.1257639799,
				"element": "C" 
			},
			{
				"x": 1.282247684,
				"y": 1.4342905937,
				"z": 1.3104202104,
				"element": "C" 
			},
			{
				"x": -0.0245893792,
				"y": 2.2438889411,
				"z": 1.2958304297,
				"element": "C" 
			},
			{
				"x": -1.1643313816,
				"y": 1.2077055832,
				"z": 1.2670653295,
				"element": "C" 
			},
			{
				"x": -0.4799942129,
				"y": -0.163809071,
				"z": 1.0133954976,
				"element": "C" 
			},
			{
				"x": -1.3547851655,
				"y": -1.175563521,
				"z": 0.2210393447,
				"element": "C" 
			},
			{
				"x": -1.4363585737,
				"y": -2.5651673829,
				"z": 0.8669510551,
				"element": "C" 
			},
			{
				"x": -2.2663879277,
				"y": -3.4953904668,
				"z": 0.0209509159,
				"element": "C" 
			},
			{
				"x": -2.5456765656,
				"y": -3.2956779995,
				"z": -1.2749714904,
				"element": "C" 
			},
			{
				"x": -3.5098246962,
				"y": -4.1959809145,
				"z": -2.0241516944,
				"element": "C" 
			},
			{
				"x": -4.5221250067,
				"y": -3.3876787641,
				"z": -2.8886087764,
				"element": "C" 
			},
			{
				"x": -5.8019921512,
				"y": -4.0125786231,
				"z": -2.9295508106,
				"element": "O" 
			},
			{
				"x": -4.5960467091,
				"y": -1.9404226931,
				"z": -2.394671032,
				"element": "C" 
			},
			{
				"x": -3.236194645,
				"y": -1.2124891459,
				"z": -2.4765920992,
				"element": "C" 
			},
			{
				"x": -2.0094374011,
				"y": -2.1086529373,
				"z": -2.0795956342,
				"element": "C" 
			},
			{
				"x": -1.3237355357,
				"y": -2.6454641235,
				"z": -3.3633691247,
				"element": "C" 
			},
			{
				"x": -0.9326471616,
				"y": -1.338112851,
				"z": -1.2526898903,
				"element": "C" 
			},
			{
				"x": -0.5082457592,
				"y": 0.0267504535,
				"z": -1.8093557339,
				"element": "C" 
			},
			{
				"x": 0.7690332384,
				"y": 0.5587914147,
				"z": -1.1172666849,
				"element": "C" 
			},
			{
				"x": 0.9164698361,
				"y": 0.2033356732,
				"z": 0.404417133,
				"element": "C" 
			},
			{
				"x": 1.9131109919,
				"y": -0.9540264027,
				"z": 0.5897521072,
				"element": "C" 
			},
			{
				"x": -0.0571840916,
				"y": 3.0998059911,
				"z": 2.4714878019,
				"element": "O" 
			},
			{
				"x": -0.960375782,
				"y": 4.1090059808,
				"z": 2.4545402132,
				"element": "C" 
			},
			{
				"x": -0.8642973932,
				"y": 4.940317557,
				"z": 3.7134343147,
				"element": "C" 
			},
			{
				"x": -1.7308283418,
				"y": 4.3102553416,
				"z": 1.5410241506,
				"element": "O" 
			},
			{
				"x": 3.575300641,
				"y": 2.2216297672,
				"z": 2.2901489053,
				"element": "C" 
			},
			{
				"x": 4.4444283877,
				"y": 0.9539637155,
				"z": 2.3140353078,
				"element": "C" 
			},
			{
				"x": 5.4277529184,
				"y": 0.9947029102,
				"z": 3.4978348924,
				"element": "C" 
			},
			{
				"x": 4.723474419,
				"y": 1.2517951608,
				"z": 4.8475215349,
				"element": "C" 
			},
			{
				"x": 3.9357234038,
				"y": 0.0342898111,
				"z": 5.3529808594,
				"element": "C" 
			},
			{
				"x": 3.8257254465,
				"y": 2.4949361523,
				"z": 4.7033090141,
				"element": "C" 
			},
			{
				"x": 2.899331366,
				"y": 2.3217163196,
				"z": 3.5862794956,
				"element": "N" 
			},
			{
				"x": 3.6022972985,
				"y": 1.2920998822,
				"z": -0.5069151361,
				"element": "H" 
			},
			{
				"x": 4.1622304582,
				"y": 2.9354309176,
				"z": -0.1942778762,
				"element": "H" 
			},
			{
				"x": 2.6421375354,
				"y": 2.6711181781,
				"z": -1.0406223756,
				"element": "H" 
			},
			{
				"x": 2.1731059438,
				"y": 3.3688540088,
				"z": 1.2250577388,
				"element": "H" 
			},
			{
				"x": 1.3566216311,
				"y": 1.0296238825,
				"z": 2.3275648293,
				"element": "H" 
			},
			{
				"x": -0.0802710063,
				"y": 2.9055753459,
				"z": 0.426430513,
				"element": "H" 
			},
			{
				"x": -1.8889390734,
				"y": 1.4578811747,
				"z": 0.487695766,
				"element": "H" 
			},
			{
				"x": -1.7093138425,
				"y": 1.2126211775,
				"z": 2.2160681743,
				"element": "H" 
			},
			{
				"x": -0.2747577966,
				"y": -0.6066467753,
				"z": 1.9967295471,
				"element": "H" 
			},
			{
				"x": -2.3800941102,
				"y": -0.7773866056,
				"z": 0.2190213066,
				"element": "H" 
			},
			{
				"x": -0.4253547289,
				"y": -2.9736481614,
				"z": 1.0211113532,
				"element": "H" 
			},
			{
				"x": -1.8785300872,
				"y": -2.4909065038,
				"z": 1.8701197094,
				"element": "H" 
			},
			{
				"x": -2.6944798669,
				"y": -4.36520943,
				"z": 0.5197062774,
				"element": "H" 
			},
			{
				"x": -2.9786271644,
				"y": -4.9128382599,
				"z": -2.6633476355,
				"element": "H" 
			},
			{
				"x": -4.0791419095,
				"y": -4.7948588249,
				"z": -1.3037863377,
				"element": "H" 
			},
			{
				"x": -4.1993262284,
				"y": -3.3873111728,
				"z": -3.9357934067,
				"element": "H" 
			},
			{
				"x": -6.1667538716,
				"y": -3.9811808034,
				"z": -2.0342577889,
				"element": "H" 
			},
			{
				"x": -4.935192654,
				"y": -1.9574599775,
				"z": -1.3484676291,
				"element": "H" 
			},
			{
				"x": -5.3551693498,
				"y": -1.3974213094,
				"z": -2.9673942268,
				"element": "H" 
			},
			{
				"x": -3.0861410991,
				"y": -0.8292315069,
				"z": -3.4931748142,
				"element": "H" 
			},
			{
				"x": -3.2846525595,
				"y": -0.3344907632,
				"z": -1.8245916889,
				"element": "H" 
			},
			{
				"x": -0.5223482873,
				"y": -3.3487205177,
				"z": -3.1120578217,
				"element": "H" 
			},
			{
				"x": -0.8849077401,
				"y": -1.8249735798,
				"z": -3.9397705907,
				"element": "H" 
			},
			{
				"x": -2.0239278802,
				"y": -3.1609362143,
				"z": -4.0253808267,
				"element": "H" 
			},
			{
				"x": -0.0445313416,
				"y": -1.9864753723,
				"z": -1.2709350935,
				"element": "H" 
			},
			{
				"x": -0.3254234849,
				"y": -0.0174764295,
				"z": -2.8885502786,
				"element": "H" 
			},
			{
				"x": -1.3276115961,
				"y": 0.7430473376,
				"z": -1.6738548194,
				"element": "H" 
			},
			{
				"x": 1.6436505378,
				"y": 0.1670589832,
				"z": -1.6486933373,
				"element": "H" 
			},
			{
				"x": 0.7987308432,
				"y": 1.6416736639,
				"z": -1.2634294624,
				"element": "H" 
			},
			{
				"x": 1.6039952386,
				"y": -1.8447917547,
				"z": 0.0352985285,
				"element": "H" 
			},
			{
				"x": 2.9133594343,
				"y": -0.687330009,
				"z": 0.2361894007,
				"element": "H" 
			},
			{
				"x": 1.9958251336,
				"y": -1.2346782695,
				"z": 1.6456779806,
				"element": "H" 
			},
			{
				"x": -0.9129691602,
				"y": 4.2997999253,
				"z": 4.5982826868,
				"element": "H" 
			},
			{
				"x": -1.6752090371,
				"y": 5.6678737549,
				"z": 3.7297249812,
				"element": "H" 
			},
			{
				"x": 0.0960507862,
				"y": 5.465504221,
				"z": 3.7405064552,
				"element": "H" 
			},
			{
				"x": 4.2723197677,
				"y": 3.0755418207,
				"z": 2.1469778727,
				"element": "H" 
			},
			{
				"x": 5.0062067506,
				"y": 0.8612098257,
				"z": 1.377814894,
				"element": "H" 
			},
			{
				"x": 3.7980965793,
				"y": 0.0746146077,
				"z": 2.3933489393,
				"element": "H" 
			},
			{
				"x": 6.0059782845,
				"y": 0.0635341794,
				"z": 3.5434082632,
				"element": "H" 
			},
			{
				"x": 6.152348945,
				"y": 1.8023547811,
				"z": 3.3220503528,
				"element": "H" 
			},
			{
				"x": 5.4963855741,
				"y": 1.4879318549,
				"z": 5.5920111799,
				"element": "H" 
			},
			{
				"x": 3.5420601791,
				"y": 0.2172451932,
				"z": 6.3593255511,
				"element": "H" 
			},
			{
				"x": 3.0849620376,
				"y": -0.1852755519,
				"z": 4.702843248,
				"element": "H" 
			},
			{
				"x": 4.5728119457,
				"y": -0.8559062117,
				"z": 5.4015715862,
				"element": "H" 
			},
			{
				"x": 4.4745324416,
				"y": 3.3847113563,
				"z": 4.575875817,
				"element": "H" 
			},
			{
				"x": 3.2425023365,
				"y": 2.6492895697,
				"z": 5.6189631855,
				"element": "H" 
			},
			{
				"x": 2.2007704024,
				"y": 3.0592086823,
				"z": 3.5687808153,
				"element": "H" 
			}
		],
		 "valence_orbital": [ 
			{
				"type": "occ",
				"energy": -0.27009,
				"method": "rhf"
			},
			{
				"type": "occ",
				"energy": -0.26722,
				"method": "rhf"
			},
			{
				"type": "occ",
				"energy": -0.26297,
				"method": "rhf"
			},
			{
				"type": "occ",
				"energy": -0.22563,
				"method": "rhf"
			},
			{
				"type": "occ",
				"energy": -0.21275,
				"method": "rhf"
			},
			{
				"type": "unocc",
				"energy": 0.01237,
				"method": "rhf"
			},
			{
				"type": "unocc",
				"energy": 0.02734,
				"method": "rhf"
			},
			{
				"type": "unocc",
				"energy": 0.06325,
				"method": "rhf"
			},
			{
				"type": "unocc",
				"energy": 0.07239,
				"method": "rhf"
			},
			{
				"type": "unocc",
				"energy": 0.07698,
				"method": "rhf"
			}
		],
		"cosmo_sigma_profile": { 
			"-0.025": 0.0,
			"-0.024": 0.0,
			"-0.023": 0.0,
			"-0.022": 0.0,
			"-0.021": 0.0,
			"-0.02": 0.0,
			"-0.019": 0.0,
			"-0.018": 0.0,
			"-0.017": 0.0,
			"-0.016": 0.0,
			"-0.015": 0.230423518304,
			"-0.014": 0.713792761542,
			"-0.013": 0.920625998342,
			"-0.012": 1.19179363625,
			"-0.011": 0.762465162872,
			"-0.01": 0.83021206118,
			"-0.009": 1.19041905692,
			"-0.008": 1.17660448791,
			"-0.007": 0.988059254055,
			"-0.006": 6.29387166751,
			"-0.005": 9.94222733235,
			"-0.004": 18.4189270356,
			"-0.003": 47.3403516468,
			"-0.002": 81.6693452329,
			"-0.001": 94.406937685,
			"0.0": 89.1088493741,
			"0.001": 61.6469923362,
			"0.002": 30.9548322177,
			"0.003": 10.9113547543,
			"0.004": 6.71548427244,
			"0.005": 7.49199435951,
			"0.006": 5.97711026199,
			"0.007": 5.16177506419,
			"0.008": 4.64319886768,
			"0.009": 4.42353561511,
			"0.01": 3.45681370076,
			"0.011": 4.52564461691,
			"0.012": 6.82003010709,
			"0.013": 3.78031610803,
			"0.014": 2.43024566457,
			"0.015": 1.60540102382,
			"0.016": 0.0,
			"0.017": 0.0,
			"0.018": 0.0,
			"0.019": 0.0,
			"0.02": 0.0,
			"0.021": 0.0,
			"0.022": 0.0,
			"0.023": 0.0,
			"0.024": 0.0,
			"0.025": 0.0
		}
	}
}
