{
	 "smiles": "O=[I]C1=CC=CC=C1", 
	 "Tm": 473.15, 
	 "num_atms": 13, 
	 "gaussian": { 
		 "optdone": 1, 
		 "sigma_profile": "yes", 
		 "theory": "DFT", 
		 "functional": "B3LYP", 
		 "basiset": "6-31G**", 
		 "properties": { 
			 "R2extent": 1748.0473, 
			 "electric_dipole_moment_norm": 3.88182414208, 
			 "electric_quadrupole_moment_norm": 9.99097292009, 
			 "total_energy": 0.0, 
			 "HOMO_LUMO_gap": 0.21145, 
			 "cosmo_polarized_energy": -17.33, 
			 "cosmo_cavitation_energy": 21.16, 
			 "cosmo_dispersion_energy": -16.64, 
			 "cosmo_repulsion_energy": 1.35, 
			 "cosmo_total_nonelectrostatic_energy": 5.87, 
			 "SMD_solvation_energy": 2.42 
		},
		"coords": [
			{
				"x": -1.9555517071,
				"y": -4.4926162298,
				"z": 0.2657049895,
				"element": "O" 
			},
			{
				"x": -2.1481327015,
				"y": -2.3107716105,
				"z": -0.6698794704,
				"element": "I" 
			},
			{
				"x": -1.3748115033,
				"y": -0.3191058148,
				"z": -0.5822359792,
				"element": "C" 
			},
			{
				"x": -1.9554899541,
				"y": 0.6059234517,
				"z": 0.2899886294,
				"element": "C" 
			},
			{
				"x": -1.4503726266,
				"y": 1.907038417,
				"z": 0.3354149349,
				"element": "C" 
			},
			{
				"x": -0.3723043834,
				"y": 2.2738610484,
				"z": -0.4724741118,
				"element": "C" 
			},
			{
				"x": 0.2060667774,
				"y": 1.3371700912,
				"z": -1.3313016535,
				"element": "C" 
			},
			{
				"x": -0.2879959779,
				"y": 0.0322562816,
				"z": -1.3878577642,
				"element": "C" 
			},
			{
				"x": -2.7898065478,
				"y": 0.3208258171,
				"z": 0.9221325536,
				"element": "H" 
			},
			{
				"x": -1.9018820359,
				"y": 2.6317474899,
				"z": 1.0067396401,
				"element": "H" 
			},
			{
				"x": 0.0181491013,
				"y": 3.2861981207,
				"z": -0.4305647703,
				"element": "H" 
			},
			{
				"x": 1.0463837363,
				"y": 1.6174652691,
				"z": -1.9598251901,
				"element": "H" 
			},
			{
				"x": 0.1657478226,
				"y": -0.6959923317,
				"z": -2.0517418081,
				"element": "H" 
			}
		],
		 "valence_orbital": [ 
			{
				"type": "occ",
				"energy": -0.30983,
				"method": "rhf"
			},
			{
				"type": "occ",
				"energy": -0.2939,
				"method": "rhf"
			},
			{
				"type": "occ",
				"energy": -0.28532,
				"method": "rhf"
			},
			{
				"type": "occ",
				"energy": -0.27183,
				"method": "rhf"
			},
			{
				"type": "occ",
				"energy": -0.24229,
				"method": "rhf"
			},
			{
				"type": "unocc",
				"energy": -0.03084,
				"method": "rhf"
			},
			{
				"type": "unocc",
				"energy": -0.02229,
				"method": "rhf"
			},
			{
				"type": "unocc",
				"energy": -0.01899,
				"method": "rhf"
			},
			{
				"type": "unocc",
				"energy": 0.04092,
				"method": "rhf"
			},
			{
				"type": "unocc",
				"energy": 0.0498,
				"method": "rhf"
			}
		],
		"cosmo_sigma_profile": { 
			"-0.025": 0.0,
			"-0.024": 0.0,
			"-0.023": 0.0,
			"-0.022": 0.0,
			"-0.021": 0.0,
			"-0.02": 0.0,
			"-0.019": 0.0,
			"-0.018": 0.0,
			"-0.017": 0.0,
			"-0.016": 0.0,
			"-0.015": 0.0,
			"-0.014": 0.0,
			"-0.013": 0.0,
			"-0.012": 0.0,
			"-0.011": 0.0,
			"-0.01": 0.0,
			"-0.009": 0.0908704321456,
			"-0.008": 5.03131246719,
			"-0.007": 14.0160763119,
			"-0.006": 14.1176038076,
			"-0.005": 16.0010982163,
			"-0.004": 13.3128189651,
			"-0.003": 13.2712565807,
			"-0.002": 11.1177606346,
			"-0.001": 10.8695025254,
			"0.0": 12.3807608738,
			"0.001": 12.7058553033,
			"0.002": 15.0222047969,
			"0.003": 5.03082425919,
			"0.004": 1.14958458091,
			"0.005": 1.4478156881,
			"0.006": 1.91038969547,
			"0.007": 1.43652064893,
			"0.008": 2.10346303994,
			"0.009": 1.6266423599,
			"0.01": 1.66752350713,
			"0.011": 2.64685684656,
			"0.012": 2.40577979953,
			"0.013": 2.31162653691,
			"0.014": 2.74090210602,
			"0.015": 2.24461814013,
			"0.016": 2.20875948002,
			"0.017": 2.98719709669,
			"0.018": 2.4122990064,
			"0.019": 0.00151865815086,
			"0.02": 0.0,
			"0.021": 0.0,
			"0.022": 0.0,
			"0.023": 0.0,
			"0.024": 0.0,
			"0.025": 0.0
		}
	}
}
