{
	 "smiles": "COC(C)COC(C)CO", 
	 "Tm": 190.15, 
	 "num_atms": 26, 
	 "gaussian": { 
		 "optdone": 1, 
		 "sigma_profile": "yes", 
		 "theory": "DFT", 
		 "functional": "B3LYP", 
		 "basiset": "6-31G**", 
		 "properties": { 
			 "R2extent": 2301.5907, 
			 "electric_dipole_moment_norm": 1.28831638195, 
			 "electric_quadrupole_moment_norm": 10.0546127762, 
			 "total_energy": -502.029043237, 
			 "HOMO_LUMO_gap": 0.30602, 
			 "cosmo_polarized_energy": -10.42, 
			 "cosmo_cavitation_energy": 27.96, 
			 "cosmo_dispersion_energy": -19.59, 
			 "cosmo_repulsion_energy": 1.64, 
			 "cosmo_total_nonelectrostatic_energy": 10.01, 
			 "SMD_solvation_energy": 5.57 
		},
		"coords": [
			{
				"x": 0.5519640598,
				"y": 2.9019740033,
				"z": -0.3231860294,
				"element": "C" 
			},
			{
				"x": 1.469812036,
				"y": 2.131284706,
				"z": 0.4351492525,
				"element": "O" 
			},
			{
				"x": 1.8647963361,
				"y": 0.8954426046,
				"z": -0.1479600493,
				"element": "C" 
			},
			{
				"x": 3.2577364574,
				"y": 0.580383493,
				"z": 0.3959440935,
				"element": "C" 
			},
			{
				"x": 0.8841664155,
				"y": -0.2318533733,
				"z": 0.1829028384,
				"element": "C" 
			},
			{
				"x": -0.3324295073,
				"y": -0.0319713068,
				"z": -0.5214063654,
				"element": "O" 
			},
			{
				"x": -1.3546613135,
				"y": -0.9934707155,
				"z": -0.2569204,
				"element": "C" 
			},
			{
				"x": -2.7028089178,
				"y": -0.3153327227,
				"z": -0.4592037876,
				"element": "C" 
			},
			{
				"x": -1.179902476,
				"y": -2.2101403931,
				"z": -1.1823458862,
				"element": "C" 
			},
			{
				"x": -2.1363646152,
				"y": -3.23135307,
				"z": -0.928652443,
				"element": "O" 
			},
			{
				"x": -0.4230866774,
				"y": 2.4131686587,
				"z": -0.4170544548,
				"element": "H" 
			},
			{
				"x": 0.4354537726,
				"y": 3.8540938458,
				"z": 0.2020515821,
				"element": "H" 
			},
			{
				"x": 0.9384711777,
				"y": 3.105205699,
				"z": -1.3344694422,
				"element": "H" 
			},
			{
				"x": 1.907878488,
				"y": 0.9969307777,
				"z": -1.2447625457,
				"element": "H" 
			},
			{
				"x": 3.6585204031,
				"y": -0.3392762688,
				"z": -0.0413412866,
				"element": "H" 
			},
			{
				"x": 3.225790622,
				"y": 0.4644167228,
				"z": 1.4843616404,
				"element": "H" 
			},
			{
				"x": 3.9388444601,
				"y": 1.4030527974,
				"z": 0.1659176923,
				"element": "H" 
			},
			{
				"x": 0.703608767,
				"y": -0.2341565383,
				"z": 1.2700072591,
				"element": "H" 
			},
			{
				"x": 1.341638746,
				"y": -1.1980869589,
				"z": -0.0844807341,
				"element": "H" 
			},
			{
				"x": -1.2722462925,
				"y": -1.3359827932,
				"z": 0.7903716843,
				"element": "H" 
			},
			{
				"x": -3.5071792196,
				"y": -1.0493305492,
				"z": -0.3651944947,
				"element": "H" 
			},
			{
				"x": -2.8531660164,
				"y": 0.4811444073,
				"z": 0.2746872767,
				"element": "H" 
			},
			{
				"x": -2.7503828701,
				"y": 0.1245322759,
				"z": -1.4609509186,
				"element": "H" 
			},
			{
				"x": -0.151658314,
				"y": -2.5950067354,
				"z": -1.1080355016,
				"element": "H" 
			},
			{
				"x": -1.3356297673,
				"y": -1.8933507925,
				"z": -2.2185315426,
				"element": "H" 
			},
			{
				"x": -1.9525657541,
				"y": -3.5998177739,
				"z": -0.0546974374,
				"element": "H" 
			}
		],
		 "valence_orbital": [ 
			{
				"type": "occ",
				"energy": -0.32028,
				"method": "rhf"
			},
			{
				"type": "occ",
				"energy": -0.30231,
				"method": "rhf"
			},
			{
				"type": "occ",
				"energy": -0.28827,
				"method": "rhf"
			},
			{
				"type": "occ",
				"energy": -0.25147,
				"method": "rhf"
			},
			{
				"type": "occ",
				"energy": -0.23777,
				"method": "rhf"
			},
			{
				"type": "unocc",
				"energy": 0.06825,
				"method": "rhf"
			},
			{
				"type": "unocc",
				"energy": 0.0863,
				"method": "rhf"
			},
			{
				"type": "unocc",
				"energy": 0.09546,
				"method": "rhf"
			},
			{
				"type": "unocc",
				"energy": 0.11231,
				"method": "rhf"
			},
			{
				"type": "unocc",
				"energy": 0.1229,
				"method": "rhf"
			}
		],
		"cosmo_sigma_profile": { 
			"-0.025": 0.0,
			"-0.024": 0.0,
			"-0.023": 0.0,
			"-0.022": 0.0,
			"-0.021": 0.0,
			"-0.02": 0.0,
			"-0.019": 0.0,
			"-0.018": 0.0,
			"-0.017": 0.0,
			"-0.016": 0.235282486443,
			"-0.015": 1.18701452298,
			"-0.014": 0.867586011304,
			"-0.013": 0.921377824837,
			"-0.012": 1.28169057874,
			"-0.011": 1.28819014725,
			"-0.01": 0.635920138342,
			"-0.009": 0.420249659658,
			"-0.008": 1.0234048788,
			"-0.007": 1.44032735247,
			"-0.006": 1.61972777352,
			"-0.005": 4.65741682304,
			"-0.004": 19.533932428,
			"-0.003": 32.3357719155,
			"-0.002": 27.7472715352,
			"-0.001": 27.5262186593,
			"0.0": 19.5289671127,
			"0.001": 17.4284703137,
			"0.002": 8.6240764644,
			"0.003": 5.44906287265,
			"0.004": 5.59454243458,
			"0.005": 5.28569425782,
			"0.006": 4.97757168092,
			"0.007": 4.53165831639,
			"0.008": 3.78045435893,
			"0.009": 3.1288259073,
			"0.01": 3.22040767393,
			"0.011": 1.73405183506,
			"0.012": 3.60264390344,
			"0.013": 2.95837941715,
			"0.014": 2.50121455786,
			"0.015": 0.526025638841,
			"0.016": 0.0,
			"0.017": 0.0,
			"0.018": 0.0,
			"0.019": 0.0,
			"0.02": 0.0,
			"0.021": 0.0,
			"0.022": 0.0,
			"0.023": 0.0,
			"0.024": 0.0,
			"0.025": 0.0
		}
	}
}
