{
	 "smiles": "NC1=NN=C(S1)C12CC3CC(CC(C3)C1)C2", 
	 "Tm": 471.15, 
	 "num_atms": 33, 
	 "gaussian": { 
		 "optdone": 1, 
		 "sigma_profile": "yes", 
		 "theory": "DFT", 
		 "functional": "B3LYP", 
		 "basiset": "6-31G**", 
		 "properties": { 
			 "R2extent": 4127.2157, 
			 "electric_dipole_moment_norm": 2.89924598818, 
			 "electric_quadrupole_moment_norm": 21.0895222378, 
			 "total_energy": -1029.96950985, 
			 "HOMO_LUMO_gap": 0.2137, 
			 "cosmo_polarized_energy": -13.33, 
			 "cosmo_cavitation_energy": 32.77, 
			 "cosmo_dispersion_energy": -25.13, 
			 "cosmo_repulsion_energy": 1.88, 
			 "cosmo_total_nonelectrostatic_energy": 9.52, 
			 "SMD_solvation_energy": 2.03 
		},
		"coords": [
			{
				"x": 2.8949119734,
				"y": -0.1194993791,
				"z": -4.2084008012,
				"element": "N" 
			},
			{
				"x": 2.2763175405,
				"y": -0.3142544525,
				"z": -2.9941448562,
				"element": "C" 
			},
			{
				"x": 2.6621727169,
				"y": -1.2125220547,
				"z": -2.1299895784,
				"element": "N" 
			},
			{
				"x": 1.9484823694,
				"y": -1.1557556564,
				"z": -0.9603817649,
				"element": "N" 
			},
			{
				"x": 1.0253728976,
				"y": -0.2478931141,
				"z": -0.9283527279,
				"element": "C" 
			},
			{
				"x": 0.958528074,
				"y": 0.7090925432,
				"z": -2.4361388951,
				"element": "S" 
			},
			{
				"x": 0.0888685177,
				"y": 0.0004744094,
				"z": 0.2285314627,
				"element": "C" 
			},
			{
				"x": -1.3886516851,
				"y": -0.2222601739,
				"z": -0.20571231,
				"element": "C" 
			},
			{
				"x": -2.3387823794,
				"y": 0.0211714258,
				"z": 0.9846384171,
				"element": "C" 
			},
			{
				"x": -1.9947682558,
				"y": -0.9580907801,
				"z": 2.1251999005,
				"element": "C" 
			},
			{
				"x": -0.5373167587,
				"y": -0.7291123155,
				"z": 2.5748818598,
				"element": "C" 
			},
			{
				"x": -0.3759525073,
				"y": 0.7196940882,
				"z": 3.0786510298,
				"element": "C" 
			},
			{
				"x": -0.7192699368,
				"y": 1.6997013967,
				"z": 1.9385061857,
				"element": "C" 
			},
			{
				"x": -2.1758198341,
				"y": 1.4714910583,
				"z": 1.4844987262,
				"element": "C" 
			},
			{
				"x": 0.2335887176,
				"y": 1.4591816103,
				"z": 0.7498446767,
				"element": "C" 
			},
			{
				"x": 0.4160424599,
				"y": -0.975023195,
				"z": 1.3884824263,
				"element": "C" 
			},
			{
				"x": 3.5262713718,
				"y": -0.8762590759,
				"z": -4.4414901757,
				"element": "H" 
			},
			{
				"x": 2.3035737159,
				"y": 0.1643738184,
				"z": -4.9766566791,
				"element": "H" 
			},
			{
				"x": -1.5051337633,
				"y": -1.2449056432,
				"z": -0.5854555045,
				"element": "H" 
			},
			{
				"x": -1.641781711,
				"y": 0.4554809852,
				"z": -1.0313868583,
				"element": "H" 
			},
			{
				"x": -3.3725743969,
				"y": -0.1420738755,
				"z": 0.6546458697,
				"element": "H" 
			},
			{
				"x": -2.1269224346,
				"y": -1.9938437352,
				"z": 1.7862760923,
				"element": "H" 
			},
			{
				"x": -2.6802007653,
				"y": -0.8081320092,
				"z": 2.9695799219,
				"element": "H" 
			},
			{
				"x": -0.2865143315,
				"y": -1.4294775557,
				"z": 3.3814094078,
				"element": "H" 
			},
			{
				"x": -1.0343522213,
				"y": 0.8975706755,
				"z": 3.9389784669,
				"element": "H" 
			},
			{
				"x": 0.6527129678,
				"y": 0.8871245373,
				"z": 3.423438653,
				"element": "H" 
			},
			{
				"x": -0.5988018035,
				"y": 2.7327610378,
				"z": 2.2884302219,
				"element": "H" 
			},
			{
				"x": -2.8641116188,
				"y": 1.6617697627,
				"z": 2.318149114,
				"element": "H" 
			},
			{
				"x": -2.4386485898,
				"y": 2.1786032945,
				"z": 0.6865147451,
				"element": "H" 
			},
			{
				"x": 0.0104039762,
				"y": 2.168795373,
				"z": -0.0575764817,
				"element": "H" 
			},
			{
				"x": 1.2735917135,
				"y": 1.6360979479,
				"z": 1.0506824511,
				"element": "H" 
			},
			{
				"x": 0.3315033538,
				"y": -2.0071168508,
				"z": 1.0320563954,
				"element": "H" 
			},
			{
				"x": 1.4585606273,
				"y": -0.8397640974,
				"z": 1.6958906092,
				"element": "H" 
			}
		],
		 "valence_orbital": [ 
			{
				"type": "occ",
				"energy": -0.28299,
				"method": "rhf"
			},
			{
				"type": "occ",
				"energy": -0.27895,
				"method": "rhf"
			},
			{
				"type": "occ",
				"energy": -0.27591,
				"method": "rhf"
			},
			{
				"type": "occ",
				"energy": -0.25019,
				"method": "rhf"
			},
			{
				"type": "occ",
				"energy": -0.22578,
				"method": "rhf"
			},
			{
				"type": "unocc",
				"energy": -0.01208,
				"method": "rhf"
			},
			{
				"type": "unocc",
				"energy": 0.00506,
				"method": "rhf"
			},
			{
				"type": "unocc",
				"energy": 0.05101,
				"method": "rhf"
			},
			{
				"type": "unocc",
				"energy": 0.06205,
				"method": "rhf"
			},
			{
				"type": "unocc",
				"energy": 0.07409,
				"method": "rhf"
			}
		],
		"cosmo_sigma_profile": { 
			"-0.025": 0.0,
			"-0.024": 0.0,
			"-0.023": 0.0,
			"-0.022": 0.0,
			"-0.021": 0.0,
			"-0.02": 0.0,
			"-0.019": 0.0,
			"-0.018": 0.0,
			"-0.017": 0.0,
			"-0.016": 0.0,
			"-0.015": 0.58478340897,
			"-0.014": 2.35317739767,
			"-0.013": 2.78149243831,
			"-0.012": 2.26853744308,
			"-0.011": 3.45473713918,
			"-0.01": 1.85840538853,
			"-0.009": 1.83493756488,
			"-0.008": 1.90353458635,
			"-0.007": 1.7425077948,
			"-0.006": 1.93572989385,
			"-0.005": 2.10832386259,
			"-0.004": 3.27625036203,
			"-0.003": 13.1002384193,
			"-0.002": 43.293241219,
			"-0.001": 42.9383892901,
			"0.0": 45.2361235029,
			"0.001": 29.6280846744,
			"0.002": 11.6422942544,
			"0.003": 7.08940638746,
			"0.004": 4.88541855818,
			"0.005": 3.20020062219,
			"0.006": 3.0834722785,
			"0.007": 3.04675959007,
			"0.008": 2.92212143762,
			"0.009": 2.51108912159,
			"0.01": 3.10884489434,
			"0.011": 3.10961697263,
			"0.012": 2.87099483369,
			"0.013": 3.16740185544,
			"0.014": 2.57292477147,
			"0.015": 1.93917379365,
			"0.016": 0.422024285909,
			"0.017": 0.0,
			"0.018": 0.0,
			"0.019": 0.0,
			"0.02": 0.0,
			"0.021": 0.0,
			"0.022": 0.0,
			"0.023": 0.0,
			"0.024": 0.0,
			"0.025": 0.0
		}
	}
}
