{
	 "smiles": "C=CCCCCC=C", 
	 "Tm": 203.15, 
	 "num_atms": 22, 
	 "gaussian": { 
		 "optdone": 1, 
		 "sigma_profile": "yes", 
		 "theory": "DFT", 
		 "functional": "B3LYP", 
		 "basiset": "6-31G**", 
		 "properties": { 
			 "R2extent": 1635.7766, 
			 "electric_dipole_moment_norm": 0.516674462307, 
			 "electric_quadrupole_moment_norm": 2.33129287521, 
			 "total_energy": -313.247558559, 
			 "HOMO_LUMO_gap": 0.26662, 
			 "cosmo_polarized_energy": -2.55, 
			 "cosmo_cavitation_energy": 24.19, 
			 "cosmo_dispersion_energy": -16.77, 
			 "cosmo_repulsion_energy": 1.41, 
			 "cosmo_total_nonelectrostatic_energy": 8.83, 
			 "SMD_solvation_energy": 5.08 
		},
		"coords": [
			{
				"x": 2.6754969538,
				"y": -1.6282458949,
				"z": 0.5995447502,
				"element": "C" 
			},
			{
				"x": 1.3434197458,
				"y": -1.6916781724,
				"z": 0.6434993242,
				"element": "C" 
			},
			{
				"x": 0.5160195395,
				"y": -2.7559559149,
				"z": -0.0313793236,
				"element": "C" 
			},
			{
				"x": -0.2788249762,
				"y": -2.2996064453,
				"z": -1.2811145817,
				"element": "C" 
			},
			{
				"x": -1.5927546157,
				"y": -1.53604601,
				"z": -1.0377102694,
				"element": "C" 
			},
			{
				"x": -1.5027113279,
				"y": -0.1284500893,
				"z": -0.4030157007,
				"element": "C" 
			},
			{
				"x": -0.6148018594,
				"y": 0.8320516322,
				"z": -1.1483747789,
				"element": "C" 
			},
			{
				"x": -1.0427361741,
				"y": 1.9077265688,
				"z": -1.8108288761,
				"element": "C" 
			},
			{
				"x": 3.2641324522,
				"y": -2.3707322784,
				"z": 0.0645705172,
				"element": "H" 
			},
			{
				"x": 3.2282777879,
				"y": -0.8370420128,
				"z": 1.0977617893,
				"element": "H" 
			},
			{
				"x": 0.8064002833,
				"y": -0.9258729387,
				"z": 1.2015335018,
				"element": "H" 
			},
			{
				"x": -0.1881212419,
				"y": -3.1909251697,
				"z": 0.6931598793,
				"element": "H" 
			},
			{
				"x": 1.1877361492,
				"y": -3.5681176841,
				"z": -0.3348720492,
				"element": "H" 
			},
			{
				"x": 0.3831607631,
				"y": -1.7158718773,
				"z": -1.9320169192,
				"element": "H" 
			},
			{
				"x": -0.5365683973,
				"y": -3.203032122,
				"z": -1.8484898154,
				"element": "H" 
			},
			{
				"x": -2.1011773442,
				"y": -1.4327439247,
				"z": -2.0048306504,
				"element": "H" 
			},
			{
				"x": -2.2498440723,
				"y": -2.1543798088,
				"z": -0.4105504935,
				"element": "H" 
			},
			{
				"x": -2.516555358,
				"y": 0.2866656049,
				"z": -0.3481117731,
				"element": "H" 
			},
			{
				"x": -1.1541623872,
				"y": -0.2171428275,
				"z": 0.6345322413,
				"element": "H" 
			},
			{
				"x": 0.4524627613,
				"y": 0.6110258062,
				"z": -1.1355922169,
				"element": "H" 
			},
			{
				"x": -2.09744796,
				"y": 2.1727283777,
				"z": -1.8478886067,
				"element": "H" 
			},
			{
				"x": -0.3580007218,
				"y": 2.5661451809,
				"z": -2.3377259485,
				"element": "H" 
			}
		],
		 "valence_orbital": [ 
			{
				"type": "occ",
				"energy": -0.32769,
				"method": "rhf"
			},
			{
				"type": "occ",
				"energy": -0.31592,
				"method": "rhf"
			},
			{
				"type": "occ",
				"energy": -0.31397,
				"method": "rhf"
			},
			{
				"type": "occ",
				"energy": -0.25293,
				"method": "rhf"
			},
			{
				"type": "occ",
				"energy": -0.248,
				"method": "rhf"
			},
			{
				"type": "unocc",
				"energy": 0.01862,
				"method": "rhf"
			},
			{
				"type": "unocc",
				"energy": 0.02478,
				"method": "rhf"
			},
			{
				"type": "unocc",
				"energy": 0.094,
				"method": "rhf"
			},
			{
				"type": "unocc",
				"energy": 0.10824,
				"method": "rhf"
			},
			{
				"type": "unocc",
				"energy": 0.12102,
				"method": "rhf"
			}
		],
		"cosmo_sigma_profile": { 
			"-0.025": 0.0,
			"-0.024": 0.0,
			"-0.023": 0.0,
			"-0.022": 0.0,
			"-0.021": 0.0,
			"-0.02": 0.0,
			"-0.019": 0.0,
			"-0.018": 0.0,
			"-0.017": 0.0,
			"-0.016": 0.0,
			"-0.015": 0.0,
			"-0.014": 0.0,
			"-0.013": 0.0,
			"-0.012": 0.0,
			"-0.011": 0.0,
			"-0.01": 0.0,
			"-0.009": 0.0,
			"-0.008": 0.0,
			"-0.007": 0.0,
			"-0.006": 0.010256885575,
			"-0.005": 3.30588206163,
			"-0.004": 9.20126767021,
			"-0.003": 19.4072790356,
			"-0.002": 30.1986352235,
			"-0.001": 31.2875738717,
			"0.0": 29.7581822498,
			"0.001": 21.0095582283,
			"0.002": 10.8084823548,
			"0.003": 8.11202692661,
			"0.004": 8.44654570954,
			"0.005": 6.36059074971,
			"0.006": 5.4579062736,
			"0.007": 4.05343509427,
			"0.008": 1.12351989725,
			"0.009": 0.0,
			"0.01": 0.0,
			"0.011": 0.0,
			"0.012": 0.0,
			"0.013": 0.0,
			"0.014": 0.0,
			"0.015": 0.0,
			"0.016": 0.0,
			"0.017": 0.0,
			"0.018": 0.0,
			"0.019": 0.0,
			"0.02": 0.0,
			"0.021": 0.0,
			"0.022": 0.0,
			"0.023": 0.0,
			"0.024": 0.0,
			"0.025": 0.0
		}
	}
}
