{
	 "smiles": "OCC(F)(F)C(F)(F)CO", 
	 "Tm": 359.15, 
	 "num_atms": 16, 
	 "gaussian": { 
		 "optdone": 1, 
		 "sigma_profile": "yes", 
		 "theory": "DFT", 
		 "functional": "B3LYP", 
		 "basiset": "6-31G**", 
		 "properties": { 
			 "R2extent": 1439.3405, 
			 "electric_dipole_moment_norm": 1.84232323711, 
			 "electric_quadrupole_moment_norm": 6.4211486488, 
			 "total_energy": -705.822894042, 
			 "HOMO_LUMO_gap": 0.33765, 
			 "cosmo_polarized_energy": -10.69, 
			 "cosmo_cavitation_energy": 21.0, 
			 "cosmo_dispersion_energy": -14.91, 
			 "cosmo_repulsion_energy": 1.16, 
			 "cosmo_total_nonelectrostatic_energy": 7.25, 
			 "SMD_solvation_energy": 5.13 
		},
		"coords": [
			{
				"x": -1.2163859921,
				"y": 0.1626788955,
				"z": 2.8185079258,
				"element": "O" 
			},
			{
				"x": 0.106916596,
				"y": 0.5141293958,
				"z": 2.5034326055,
				"element": "C" 
			},
			{
				"x": 0.6545947676,
				"y": -0.2517643476,
				"z": 1.3024953965,
				"element": "C" 
			},
			{
				"x": 0.5158144395,
				"y": -1.60134645,
				"z": 1.5397678168,
				"element": "F" 
			},
			{
				"x": 1.9942447874,
				"y": 0.0130773886,
				"z": 1.1988761368,
				"element": "F" 
			},
			{
				"x": 0.0166444943,
				"y": 0.0299982669,
				"z": -0.0688280112,
				"element": "C" 
			},
			{
				"x": -1.3017641633,
				"y": -0.289463111,
				"z": -0.0097950784,
				"element": "F" 
			},
			{
				"x": 0.1009484063,
				"y": 1.3908775288,
				"z": -0.2842460804,
				"element": "F" 
			},
			{
				"x": 0.6852655446,
				"y": -0.6774630621,
				"z": -1.2462319363,
				"element": "C" 
			},
			{
				"x": 0.1045492779,
				"y": -0.2832169372,
				"z": -2.4666090262,
				"element": "O" 
			},
			{
				"x": -1.2485682495,
				"y": -0.7985091085,
				"z": 2.9178055155,
				"element": "H" 
			},
			{
				"x": 0.1220379029,
				"y": 1.5822628645,
				"z": 2.2757127025,
				"element": "H" 
			},
			{
				"x": 0.8128617357,
				"y": 0.3262534557,
				"z": 3.3275813795,
				"element": "H" 
			},
			{
				"x": 0.5317522676,
				"y": -1.7535082905,
				"z": -1.138268811,
				"element": "H" 
			},
			{
				"x": 1.7637100394,
				"y": -0.4746105978,
				"z": -1.2003597523,
				"element": "H" 
			},
			{
				"x": 0.1807781455,
				"y": 0.6792041089,
				"z": -2.524640783,
				"element": "H" 
			}
		],
		 "valence_orbital": [ 
			{
				"type": "occ",
				"energy": -0.37405,
				"method": "rhf"
			},
			{
				"type": "occ",
				"energy": -0.35319,
				"method": "rhf"
			},
			{
				"type": "occ",
				"energy": -0.33947,
				"method": "rhf"
			},
			{
				"type": "occ",
				"energy": -0.29577,
				"method": "rhf"
			},
			{
				"type": "occ",
				"energy": -0.28056,
				"method": "rhf"
			},
			{
				"type": "unocc",
				"energy": 0.05709,
				"method": "rhf"
			},
			{
				"type": "unocc",
				"energy": 0.05967,
				"method": "rhf"
			},
			{
				"type": "unocc",
				"energy": 0.09655,
				"method": "rhf"
			},
			{
				"type": "unocc",
				"energy": 0.10388,
				"method": "rhf"
			},
			{
				"type": "unocc",
				"energy": 0.12409,
				"method": "rhf"
			}
		],
		"cosmo_sigma_profile": { 
			"-0.025": 0.0,
			"-0.024": 0.0,
			"-0.023": 0.0,
			"-0.022": 0.0,
			"-0.021": 0.0,
			"-0.02": 0.0,
			"-0.019": 0.0,
			"-0.018": 0.0,
			"-0.017": 0.0,
			"-0.016": 0.423257973161,
			"-0.015": 1.17720515466,
			"-0.014": 1.95652761402,
			"-0.013": 1.31296033703,
			"-0.012": 1.85171221185,
			"-0.011": 1.69409617959,
			"-0.01": 1.54009763904,
			"-0.009": 1.32663990953,
			"-0.008": 2.62711995118,
			"-0.007": 6.74108954193,
			"-0.006": 9.82246997475,
			"-0.005": 10.1661809924,
			"-0.004": 10.7481952058,
			"-0.003": 9.00676723618,
			"-0.002": 6.17514084178,
			"-0.001": 6.8317337993,
			"0.0": 7.72290799485,
			"0.001": 7.89185810077,
			"0.002": 13.1153204155,
			"0.003": 23.3151210587,
			"0.004": 11.27408559,
			"0.005": 3.66985180459,
			"0.006": 3.51644960354,
			"0.007": 2.72987448159,
			"0.008": 2.8537578453,
			"0.009": 2.64261644544,
			"0.01": 2.7226034823,
			"0.011": 2.78806299621,
			"0.012": 4.07252329202,
			"0.013": 3.2152995998,
			"0.014": 0.0229066822298,
			"0.015": 0.0,
			"0.016": 0.0,
			"0.017": 0.0,
			"0.018": 0.0,
			"0.019": 0.0,
			"0.02": 0.0,
			"0.021": 0.0,
			"0.022": 0.0,
			"0.023": 0.0,
			"0.024": 0.0,
			"0.025": 0.0
		}
	}
}
