{
	 "smiles": "NC1=NC(=C(S1)C1=C(Cl)C=CC=C1)C1=C(Cl)C=CC=C1", 
	 "Tm": 472.15, 
	 "num_atms": 30, 
	 "gaussian": { 
		 "optdone": 1, 
		 "sigma_profile": "yes", 
		 "theory": "DFT", 
		 "functional": "B3LYP", 
		 "basiset": "6-31G**", 
		 "properties": { 
			 "R2extent": 7324.1785, 
			 "electric_dipole_moment_norm": 1.55668762441, 
			 "electric_quadrupole_moment_norm": 19.7535875514, 
			 "total_energy": -2005.69606704, 
			 "HOMO_LUMO_gap": 0.17302, 
			 "cosmo_polarized_energy": -14.27, 
			 "cosmo_cavitation_energy": 39.3, 
			 "cosmo_dispersion_energy": -27.29, 
			 "cosmo_repulsion_energy": 2.08, 
			 "cosmo_total_nonelectrostatic_energy": 14.09, 
			 "SMD_solvation_energy": 3.99 
		},
		"coords": [
			{
				"x": -4.4804411692,
				"y": 0.341210296,
				"z": -4.1105513529,
				"element": "N" 
			},
			{
				"x": -3.4740886636,
				"y": 0.3624230696,
				"z": -3.1714095194,
				"element": "C" 
			},
			{
				"x": -3.1668962746,
				"y": -0.6533756157,
				"z": -2.41814856,
				"element": "N" 
			},
			{
				"x": -2.1847327083,
				"y": -0.3200296701,
				"z": -1.499922943,
				"element": "C" 
			},
			{
				"x": -1.6959317791,
				"y": 0.9602275905,
				"z": -1.5709257623,
				"element": "C" 
			},
			{
				"x": -2.569017752,
				"y": 1.8359530899,
				"z": -2.8330949335,
				"element": "S" 
			},
			{
				"x": -0.6182870427,
				"y": 1.6433078902,
				"z": -0.8278468444,
				"element": "C" 
			},
			{
				"x": 0.7403176221,
				"y": 1.2933695581,
				"z": -0.9432337727,
				"element": "C" 
			},
			{
				"x": 1.2537417196,
				"y": 0.0111420263,
				"z": -2.0308735845,
				"element": "Cl" 
			},
			{
				"x": 1.7327344203,
				"y": 1.9690936364,
				"z": -0.2313351606,
				"element": "C" 
			},
			{
				"x": 1.3867825341,
				"y": 3.0331578703,
				"z": 0.5987552458,
				"element": "C" 
			},
			{
				"x": 0.0510094778,
				"y": 3.4207774155,
				"z": 0.7135432013,
				"element": "C" 
			},
			{
				"x": -0.9308817071,
				"y": 2.7305408858,
				"z": 0.0094501101,
				"element": "C" 
			},
			{
				"x": -1.7209168635,
				"y": -1.3939401356,
				"z": -0.5832284047,
				"element": "C" 
			},
			{
				"x": -1.8053729987,
				"y": -1.3377642992,
				"z": 0.8168307164,
				"element": "C" 
			},
			{
				"x": -2.5468631701,
				"y": 0.035035263,
				"z": 1.6330360633,
				"element": "Cl" 
			},
			{
				"x": -1.356926427,
				"y": -2.3896502918,
				"z": 1.6189406806,
				"element": "C" 
			},
			{
				"x": -0.8280976932,
				"y": -3.5340648249,
				"z": 1.0275245953,
				"element": "C" 
			},
			{
				"x": -0.7611458078,
				"y": -3.6302492568,
				"z": -0.3636989527,
				"element": "C" 
			},
			{
				"x": -1.2069105038,
				"y": -2.5732732989,
				"z": -1.1502887267,
				"element": "C" 
			},
			{
				"x": -4.3576422897,
				"y": 0.9235872889,
				"z": -4.9267147456,
				"element": "H" 
			},
			{
				"x": -4.8001493893,
				"y": -0.5961293496,
				"z": -4.3186975442,
				"element": "H" 
			},
			{
				"x": 2.7674218277,
				"y": 1.6650749236,
				"z": -0.3439628886,
				"element": "H" 
			},
			{
				"x": 2.1624688932,
				"y": 3.5586266808,
				"z": 1.1477163805,
				"element": "H" 
			},
			{
				"x": -0.2265603502,
				"y": 4.2513200819,
				"z": 1.3551489966,
				"element": "H" 
			},
			{
				"x": -1.973548514,
				"y": 3.0142992186,
				"z": 0.1097209959,
				"element": "H" 
			},
			{
				"x": -1.4400328421,
				"y": -2.3078858124,
				"z": 2.6969451568,
				"element": "H" 
			},
			{
				"x": -0.4810918289,
				"y": -4.350098441,
				"z": 1.6544193629,
				"element": "H" 
			},
			{
				"x": -0.3617858823,
				"y": -4.523947224,
				"z": -0.8333664092,
				"element": "H" 
			},
			{
				"x": -1.1614548376,
				"y": -2.6384385655,
				"z": -2.2322314002,
				"element": "H" 
			}
		],
		 "valence_orbital": [ 
			{
				"type": "occ",
				"energy": -0.25774,
				"method": "rhf"
			},
			{
				"type": "occ",
				"energy": -0.25266,
				"method": "rhf"
			},
			{
				"type": "occ",
				"energy": -0.24408,
				"method": "rhf"
			},
			{
				"type": "occ",
				"energy": -0.23855,
				"method": "rhf"
			},
			{
				"type": "occ",
				"energy": -0.20625,
				"method": "rhf"
			},
			{
				"type": "unocc",
				"energy": -0.03323,
				"method": "rhf"
			},
			{
				"type": "unocc",
				"energy": -0.01431,
				"method": "rhf"
			},
			{
				"type": "unocc",
				"energy": -0.01134,
				"method": "rhf"
			},
			{
				"type": "unocc",
				"energy": -0.00425,
				"method": "rhf"
			},
			{
				"type": "unocc",
				"energy": 0.00074,
				"method": "rhf"
			}
		],
		"cosmo_sigma_profile": { 
			"-0.025": 0.0,
			"-0.024": 0.0,
			"-0.023": 0.0,
			"-0.022": 0.0,
			"-0.021": 0.0,
			"-0.02": 0.0,
			"-0.019": 0.0,
			"-0.018": 0.0,
			"-0.017": 0.0,
			"-0.016": 0.0,
			"-0.015": 0.447312726953,
			"-0.014": 2.07697277024,
			"-0.013": 2.69715881075,
			"-0.012": 3.08431457671,
			"-0.011": 2.48359737338,
			"-0.01": 1.92146657424,
			"-0.009": 2.50653763224,
			"-0.008": 1.63770084498,
			"-0.007": 8.73438554087,
			"-0.006": 17.3990657511,
			"-0.005": 19.004333451,
			"-0.004": 15.5662744657,
			"-0.003": 13.2979585267,
			"-0.002": 17.0967562918,
			"-0.001": 19.1429296956,
			"0.0": 21.6239337231,
			"0.001": 25.5754524047,
			"0.002": 38.6757242189,
			"0.003": 34.4171161092,
			"0.004": 36.1900766126,
			"0.005": 21.8480044589,
			"0.006": 3.8365336077,
			"0.007": 2.43947500514,
			"0.008": 2.12111175318,
			"0.009": 1.53095093643,
			"0.01": 1.92958934961,
			"0.011": 1.33989220259,
			"0.012": 1.19319782417,
			"0.013": 0.720133912456,
			"0.014": 0.641899814597,
			"0.015": 0.443837451463,
			"0.016": 0.0,
			"0.017": 0.0,
			"0.018": 0.0,
			"0.019": 0.0,
			"0.02": 0.0,
			"0.021": 0.0,
			"0.022": 0.0,
			"0.023": 0.0,
			"0.024": 0.0,
			"0.025": 0.0
		}
	}
}
