{
	 "smiles": "OC[C@H]1O[C@H]([C@H](O)[C@@H]1O)N1C=C(Br)C(=O)NC1=O", 
	 "Tm": 465.15, 
	 "num_atms": 29, 
	 "gaussian": { 
		 "optdone": 1, 
		 "sigma_profile": "yes", 
		 "theory": "DFT", 
		 "functional": "B3LYP", 
		 "basiset": "6-31G**", 
		 "properties": { 
			 "R2extent": 6321.3003, 
			 "electric_dipole_moment_norm": 4.88227910099, 
			 "electric_quadrupole_moment_norm": 17.8564907818, 
			 "total_energy": -3481.82966628, 
			 "HOMO_LUMO_gap": 0.18899, 
			 "cosmo_polarized_energy": -23.07, 
			 "cosmo_cavitation_energy": 34.58, 
			 "cosmo_dispersion_energy": -25.14, 
			 "cosmo_repulsion_energy": 1.95, 
			 "cosmo_total_nonelectrostatic_energy": 11.4, 
			 "SMD_solvation_energy": 6.15 
		},
		"coords": [
			{
				"x": 0.2251664645,
				"y": 0.0649974576,
				"z": -2.3497310751,
				"element": "O" 
			},
			{
				"x": 1.3722130977,
				"y": 0.8798756556,
				"z": -2.5609656062,
				"element": "C" 
			},
			{
				"x": 2.131135322,
				"y": 0.9907116529,
				"z": -1.2524833945,
				"element": "C" 
			},
			{
				"x": 1.3020652941,
				"y": 1.6576350893,
				"z": -0.2785188871,
				"element": "O" 
			},
			{
				"x": 1.4888923133,
				"y": 1.112623316,
				"z": 1.0013540238,
				"element": "C" 
			},
			{
				"x": 2.5616132259,
				"y": 0.0082143089,
				"z": 0.889471995,
				"element": "C" 
			},
			{
				"x": 3.8571205706,
				"y": 0.5392650783,
				"z": 1.1361542049,
				"element": "O" 
			},
			{
				"x": 2.5236448996,
				"y": -0.3544234928,
				"z": -0.6056120762,
				"element": "C" 
			},
			{
				"x": 3.7258265891,
				"y": -0.8931733146,
				"z": -1.0923960631,
				"element": "O" 
			},
			{
				"x": 0.1953538391,
				"y": 0.5885926226,
				"z": 1.5168961508,
				"element": "N" 
			},
			{
				"x": -0.897380188,
				"y": 0.3783718984,
				"z": 0.7056823088,
				"element": "C" 
			},
			{
				"x": -2.0815484528,
				"y": -0.0519633105,
				"z": 1.2022458053,
				"element": "C" 
			},
			{
				"x": -3.5677476387,
				"y": -0.3418476857,
				"z": 0.0683795876,
				"element": "Br" 
			},
			{
				"x": -2.2565779391,
				"y": -0.3055898805,
				"z": 2.63145439,
				"element": "C" 
			},
			{
				"x": -3.2620746707,
				"y": -0.6858567241,
				"z": 3.2009920126,
				"element": "O" 
			},
			{
				"x": -1.0705678997,
				"y": -0.0597579792,
				"z": 3.3585298098,
				"element": "N" 
			},
			{
				"x": 0.1575479198,
				"y": 0.3607211336,
				"z": 2.8913013004,
				"element": "C" 
			},
			{
				"x": 1.1393986881,
				"y": 0.519720447,
				"z": 3.607167221,
				"element": "O" 
			},
			{
				"x": -0.2671881851,
				"y": -0.0035952633,
				"z": -3.1761386536,
				"element": "H" 
			},
			{
				"x": 1.0911884419,
				"y": 1.8861812351,
				"z": -2.9028580925,
				"element": "H" 
			},
			{
				"x": 2.0533981941,
				"y": 0.4386054546,
				"z": -3.3037386608,
				"element": "H" 
			},
			{
				"x": 3.0395712448,
				"y": 1.5853470156,
				"z": -1.4219684027,
				"element": "H" 
			},
			{
				"x": 1.8080165565,
				"y": 1.8840993002,
				"z": 1.7075470269,
				"element": "H" 
			},
			{
				"x": 2.3475338612,
				"y": -0.8387718422,
				"z": 1.547312012,
				"element": "H" 
			},
			{
				"x": 3.9731383912,
				"y": 0.6213069357,
				"z": 2.0917564531,
				"element": "H" 
			},
			{
				"x": 1.7291813586,
				"y": -1.0828352366,
				"z": -0.7920714895,
				"element": "H" 
			},
			{
				"x": 4.4318623373,
				"y": -0.4701729129,
				"z": -0.5777012808,
				"element": "H" 
			},
			{
				"x": -0.7327683522,
				"y": 0.5659317096,
				"z": -0.3491723817,
				"element": "H" 
			},
			{
				"x": -1.1235152831,
				"y": -0.2312126686,
				"z": 4.3558117616,
				"element": "H" 
			}
		],
		 "valence_orbital": [ 
			{
				"type": "occ",
				"energy": -0.28937,
				"method": "rhf"
			},
			{
				"type": "occ",
				"energy": -0.28791,
				"method": "rhf"
			},
			{
				"type": "occ",
				"energy": -0.2741,
				"method": "rhf"
			},
			{
				"type": "occ",
				"energy": -0.26856,
				"method": "rhf"
			},
			{
				"type": "occ",
				"energy": -0.23261,
				"method": "rhf"
			},
			{
				"type": "unocc",
				"energy": -0.04362,
				"method": "rhf"
			},
			{
				"type": "unocc",
				"energy": 0.00175,
				"method": "rhf"
			},
			{
				"type": "unocc",
				"energy": 0.00471,
				"method": "rhf"
			},
			{
				"type": "unocc",
				"energy": 0.04502,
				"method": "rhf"
			},
			{
				"type": "unocc",
				"energy": 0.05284,
				"method": "rhf"
			}
		],
		"cosmo_sigma_profile": { 
			"-0.025": 0.0,
			"-0.024": 0.0,
			"-0.023": 0.0,
			"-0.022": 0.0,
			"-0.021": 0.0,
			"-0.02": 0.0,
			"-0.019": 0.0,
			"-0.018": 0.0,
			"-0.017": 0.847190602827,
			"-0.016": 2.38264999938,
			"-0.015": 3.28653604049,
			"-0.014": 2.52340735116,
			"-0.013": 2.02907335659,
			"-0.012": 2.05904154605,
			"-0.011": 3.27020224639,
			"-0.01": 2.87589459243,
			"-0.009": 3.07428905972,
			"-0.008": 3.74939786161,
			"-0.007": 8.87605878953,
			"-0.006": 14.5979501841,
			"-0.005": 22.0260705065,
			"-0.004": 17.2263600543,
			"-0.003": 16.5046551954,
			"-0.002": 16.9283987026,
			"-0.001": 14.1943177725,
			"0.0": 14.3719589822,
			"0.001": 15.34894235,
			"0.002": 13.5739258006,
			"0.003": 14.864458439,
			"0.004": 16.1077768928,
			"0.005": 9.88970171195,
			"0.006": 6.50728628837,
			"0.007": 6.59858257372,
			"0.008": 6.33025197131,
			"0.009": 5.74449407707,
			"0.01": 5.98547979098,
			"0.011": 7.67535527673,
			"0.012": 10.840378986,
			"0.013": 4.81420309056,
			"0.014": 0.87998805116,
			"0.015": 0.0,
			"0.016": 0.0,
			"0.017": 0.0,
			"0.018": 0.0,
			"0.019": 0.0,
			"0.02": 0.0,
			"0.021": 0.0,
			"0.022": 0.0,
			"0.023": 0.0,
			"0.024": 0.0,
			"0.025": 0.0
		}
	}
}
