{
	 "smiles": "BrC1=CN2C=CN=C2N=C1", 
	 "Tm": 475.15, 
	 "num_atms": 14, 
	 "gaussian": { 
		 "optdone": 1, 
		 "sigma_profile": "yes", 
		 "theory": "DFT", 
		 "functional": "B3LYP", 
		 "basiset": "6-31G**", 
		 "properties": { 
			 "R2extent": 3077.1937, 
			 "electric_dipole_moment_norm": 4.19785320849, 
			 "electric_quadrupole_moment_norm": 7.25596751578, 
			 "total_energy": -2966.68073019, 
			 "HOMO_LUMO_gap": 0.16831, 
			 "cosmo_polarized_energy": -13.32, 
			 "cosmo_cavitation_energy": 21.04, 
			 "cosmo_dispersion_energy": -16.39, 
			 "cosmo_repulsion_energy": 1.29, 
			 "cosmo_total_nonelectrostatic_energy": 5.94, 
			 "SMD_solvation_energy": -0.06 
		},
		"coords": [
			{
				"x": -3.3694013094,
				"y": 1.9933736984,
				"z": -1.0536788122,
				"element": "Br" 
			},
			{
				"x": -1.8778706194,
				"y": 0.9096485732,
				"z": -0.5994688505,
				"element": "C" 
			},
			{
				"x": -1.3797079146,
				"y": 0.0120467765,
				"z": -1.5031498805,
				"element": "C" 
			},
			{
				"x": -0.3055453437,
				"y": -0.7385822312,
				"z": -1.1176635501,
				"element": "N" 
			},
			{
				"x": 0.4320762928,
				"y": -1.7100326349,
				"z": -1.7514455207,
				"element": "C" 
			},
			{
				"x": 1.3913392586,
				"y": -2.087147087,
				"z": -0.8290432318,
				"element": "C" 
			},
			{
				"x": 1.2910013033,
				"y": -1.4032132724,
				"z": 0.3435427914,
				"element": "N" 
			},
			{
				"x": 0.2643816932,
				"y": -0.5810747139,
				"z": 0.1816506106,
				"element": "C" 
			},
			{
				"x": -0.2393732677,
				"y": 0.3070226359,
				"z": 1.0569225821,
				"element": "N" 
			},
			{
				"x": -1.2730407512,
				"y": 1.0291140939,
				"z": 0.6857673482,
				"element": "C" 
			},
			{
				"x": -1.7802125948,
				"y": -0.1398725721,
				"z": -2.4976625313,
				"element": "H" 
			},
			{
				"x": 0.218602762,
				"y": -2.0331131024,
				"z": -2.7584970517,
				"element": "H" 
			},
			{
				"x": 2.1585953231,
				"y": -2.8365146528,
				"z": -0.973523759,
				"element": "H" 
			},
			{
				"x": -1.6728448322,
				"y": 1.7442444888,
				"z": 1.4001498555,
				"element": "H" 
			}
		],
		 "valence_orbital": [ 
			{
				"type": "occ",
				"energy": -0.31438,
				"method": "rhf"
			},
			{
				"type": "occ",
				"energy": -0.29105,
				"method": "rhf"
			},
			{
				"type": "occ",
				"energy": -0.27627,
				"method": "rhf"
			},
			{
				"type": "occ",
				"energy": -0.25549,
				"method": "rhf"
			},
			{
				"type": "occ",
				"energy": -0.23501,
				"method": "rhf"
			},
			{
				"type": "unocc",
				"energy": -0.0667,
				"method": "rhf"
			},
			{
				"type": "unocc",
				"energy": -0.01923,
				"method": "rhf"
			},
			{
				"type": "unocc",
				"energy": -0.014,
				"method": "rhf"
			},
			{
				"type": "unocc",
				"energy": 0.05268,
				"method": "rhf"
			},
			{
				"type": "unocc",
				"energy": 0.10069,
				"method": "rhf"
			}
		],
		"cosmo_sigma_profile": { 
			"-0.025": 0.0,
			"-0.024": 0.0,
			"-0.023": 0.0,
			"-0.022": 0.0,
			"-0.021": 0.0,
			"-0.02": 0.0,
			"-0.019": 0.0,
			"-0.018": 0.0,
			"-0.017": 0.0,
			"-0.016": 0.0,
			"-0.015": 0.0,
			"-0.014": 0.0,
			"-0.013": 0.00827422598717,
			"-0.012": 1.43923536032,
			"-0.011": 3.01127076891,
			"-0.01": 2.76827680956,
			"-0.009": 3.58419560772,
			"-0.008": 6.05766790632,
			"-0.007": 6.09510423066,
			"-0.006": 6.46062890303,
			"-0.005": 8.97180616585,
			"-0.004": 11.537543796,
			"-0.003": 11.5466331573,
			"-0.002": 13.1473543415,
			"-0.001": 14.2958894035,
			"0.0": 11.146045821,
			"0.001": 9.99634047711,
			"0.002": 12.5946829429,
			"0.003": 15.4781842515,
			"0.004": 8.18066494248,
			"0.005": 2.85583353725,
			"0.006": 2.46584318334,
			"0.007": 1.94763994965,
			"0.008": 2.29793784129,
			"0.009": 2.04652704688,
			"0.01": 2.09711952988,
			"0.011": 2.31399736514,
			"0.012": 2.5348067856,
			"0.013": 3.28210558528,
			"0.014": 2.21189956807,
			"0.015": 1.84938819751,
			"0.016": 1.00034654014,
			"0.017": 0.908258589286,
			"0.018": 0.0,
			"0.019": 0.0,
			"0.02": 0.0,
			"0.021": 0.0,
			"0.022": 0.0,
			"0.023": 0.0,
			"0.024": 0.0,
			"0.025": 0.0
		}
	}
}
