{
	 "smiles": "CCOC(=O)C1=C2N=CC(CCCO)=C(N2N=C1)C(=O)OCC", 
	 "Tm": 344.15, 
	 "num_atms": 42, 
	 "gaussian": { 
		 "optdone": 1, 
		 "sigma_profile": "yes", 
		 "theory": "DFT", 
		 "functional": "B3LYP", 
		 "basiset": "6-31G**", 
		 "properties": { 
			 "R2extent": 9900.4609, 
			 "electric_dipole_moment_norm": 5.57101414645, 
			 "electric_quadrupole_moment_norm": 23.6406839017, 
			 "total_energy": -1123.41501191, 
			 "HOMO_LUMO_gap": 0.15519, 
			 "cosmo_polarized_energy": -19.9, 
			 "cosmo_cavitation_energy": 45.88, 
			 "cosmo_dispersion_energy": -31.51, 
			 "cosmo_repulsion_energy": 2.47, 
			 "cosmo_total_nonelectrostatic_energy": 16.83, 
			 "SMD_solvation_energy": 7.27 
		},
		"coords": [
			{
				"x": 1.676392689,
				"y": -4.4140993313,
				"z": -3.7358532796,
				"element": "C" 
			},
			{
				"x": 0.2650260604,
				"y": -3.937765676,
				"z": -4.0232959119,
				"element": "C" 
			},
			{
				"x": -0.1094416158,
				"y": -3.035468439,
				"z": -2.9600780998,
				"element": "O" 
			},
			{
				"x": -1.345211834,
				"y": -2.5044212435,
				"z": -3.0528765322,
				"element": "C" 
			},
			{
				"x": -2.1239157684,
				"y": -2.750408934,
				"z": -3.9578248098,
				"element": "O" 
			},
			{
				"x": -1.6589034327,
				"y": -1.594937671,
				"z": -1.94491991,
				"element": "C" 
			},
			{
				"x": -0.9077737104,
				"y": -1.1912264863,
				"z": -0.8278659877,
				"element": "C" 
			},
			{
				"x": 0.330173939,
				"y": -1.4712107171,
				"z": -0.3793916295,
				"element": "N" 
			},
			{
				"x": 0.7208250504,
				"y": -0.8579496915,
				"z": 0.7161343391,
				"element": "C" 
			},
			{
				"x": -0.0590165253,
				"y": 0.0727754067,
				"z": 1.472897718,
				"element": "C" 
			},
			{
				"x": 0.5265612236,
				"y": 0.6685846168,
				"z": 2.7355986725,
				"element": "C" 
			},
			{
				"x": 1.6788737868,
				"y": 1.6760355533,
				"z": 2.5078423621,
				"element": "C" 
			},
			{
				"x": 1.2362488248,
				"y": 3.086900339,
				"z": 2.0996229903,
				"element": "C" 
			},
			{
				"x": 0.5665264992,
				"y": 3.130362934,
				"z": 0.8546685447,
				"element": "O" 
			},
			{
				"x": -1.3359582955,
				"y": 0.3154008435,
				"z": 1.0177846907,
				"element": "C" 
			},
			{
				"x": -1.744910061,
				"y": -0.3076792877,
				"z": -0.1305789207,
				"element": "N" 
			},
			{
				"x": -2.9447907178,
				"y": -0.123640392,
				"z": -0.7367034716,
				"element": "N" 
			},
			{
				"x": -2.8781707051,
				"y": -0.9028860477,
				"z": -1.8178355611,
				"element": "C" 
			},
			{
				"x": -2.3046575697,
				"y": 1.2602511655,
				"z": 1.6761138696,
				"element": "C" 
			},
			{
				"x": -2.0599443663,
				"y": 2.4448067206,
				"z": 1.8345120458,
				"element": "O" 
			},
			{
				"x": -3.4095873454,
				"y": 0.6456521877,
				"z": 2.0759226028,
				"element": "O" 
			},
			{
				"x": -4.4662969855,
				"y": 1.4724201221,
				"z": 2.6463806252,
				"element": "C" 
			},
			{
				"x": -4.2682535421,
				"y": 1.660133457,
				"z": 4.1412555909,
				"element": "C" 
			},
			{
				"x": 1.7239944469,
				"y": -4.9351051124,
				"z": -2.7754196304,
				"element": "H" 
			},
			{
				"x": 2.0033629462,
				"y": -5.1035441613,
				"z": -4.5206968063,
				"element": "H" 
			},
			{
				"x": 2.3727570573,
				"y": -3.5714784124,
				"z": -3.7028934663,
				"element": "H" 
			},
			{
				"x": 0.1956356679,
				"y": -3.4088097005,
				"z": -4.9793919051,
				"element": "H" 
			},
			{
				"x": -0.4506983636,
				"y": -4.7657615088,
				"z": -4.0558093612,
				"element": "H" 
			},
			{
				"x": 1.7239146387,
				"y": -1.0959156818,
				"z": 1.0679024223,
				"element": "H" 
			},
			{
				"x": 0.9099071787,
				"y": -0.1641617773,
				"z": 3.3383984286,
				"element": "H" 
			},
			{
				"x": -0.2566391467,
				"y": 1.143732452,
				"z": 3.3347465694,
				"element": "H" 
			},
			{
				"x": 2.2533198973,
				"y": 1.7557960487,
				"z": 3.44025914,
				"element": "H" 
			},
			{
				"x": 2.3656330764,
				"y": 1.2849628596,
				"z": 1.7474868671,
				"element": "H" 
			},
			{
				"x": 0.6172904814,
				"y": 3.5193888001,
				"z": 2.9017823406,
				"element": "H" 
			},
			{
				"x": 2.1301238137,
				"y": 3.7176872557,
				"z": 2.0131363629,
				"element": "H" 
			},
			{
				"x": -0.3804194712,
				"y": 3.01811636,
				"z": 1.0341530563,
				"element": "H" 
			},
			{
				"x": -3.7155182509,
				"y": -0.9519497805,
				"z": -2.5000392078,
				"element": "H" 
			},
			{
				"x": -4.4804128949,
				"y": 2.4272300412,
				"z": 2.1171918862,
				"element": "H" 
			},
			{
				"x": -5.3783116348,
				"y": 0.9167794564,
				"z": 2.4223622279,
				"element": "H" 
			},
			{
				"x": -5.120115028,
				"y": 2.2088247738,
				"z": 4.5557345745,
				"element": "H" 
			},
			{
				"x": -4.2023889113,
				"y": 0.6947894181,
				"z": 4.6511055985,
				"element": "H" 
			},
			{
				"x": -3.3613311011,
				"y": 2.2345892404,
				"z": 4.3452809653,
				"element": "H" 
			}
		],
		 "valence_orbital": [ 
			{
				"type": "occ",
				"energy": -0.27446,
				"method": "rhf"
			},
			{
				"type": "occ",
				"energy": -0.27095,
				"method": "rhf"
			},
			{
				"type": "occ",
				"energy": -0.26352,
				"method": "rhf"
			},
			{
				"type": "occ",
				"energy": -0.25065,
				"method": "rhf"
			},
			{
				"type": "occ",
				"energy": -0.23299,
				"method": "rhf"
			},
			{
				"type": "unocc",
				"energy": -0.0778,
				"method": "rhf"
			},
			{
				"type": "unocc",
				"energy": -0.03386,
				"method": "rhf"
			},
			{
				"type": "unocc",
				"energy": -0.01515,
				"method": "rhf"
			},
			{
				"type": "unocc",
				"energy": 0.00411,
				"method": "rhf"
			},
			{
				"type": "unocc",
				"energy": 0.07438,
				"method": "rhf"
			}
		],
		"cosmo_sigma_profile": { 
			"-0.025": 0.0,
			"-0.024": 0.0,
			"-0.023": 0.0,
			"-0.022": 0.0,
			"-0.021": 0.0,
			"-0.02": 0.0,
			"-0.019": 0.0,
			"-0.018": 0.0,
			"-0.017": 0.0,
			"-0.016": 0.0,
			"-0.015": 0.0,
			"-0.014": 0.0,
			"-0.013": 0.0,
			"-0.012": 0.0,
			"-0.011": 0.0,
			"-0.01": 0.0,
			"-0.009": 0.647815846518,
			"-0.008": 3.76838690513,
			"-0.007": 7.12874891114,
			"-0.006": 13.0899416316,
			"-0.005": 25.4170198519,
			"-0.004": 40.9866446487,
			"-0.003": 47.3456110669,
			"-0.002": 39.2186825424,
			"-0.001": 37.81925794,
			"0.0": 32.0289225421,
			"0.001": 16.9024836228,
			"0.002": 12.4528863261,
			"0.003": 9.74661432718,
			"0.004": 9.23143742936,
			"0.005": 9.67044886067,
			"0.006": 6.67624741744,
			"0.007": 6.87291193528,
			"0.008": 7.78021381091,
			"0.009": 7.4755025032,
			"0.01": 4.59800811654,
			"0.011": 6.13875874627,
			"0.012": 7.35233870026,
			"0.013": 4.54549255576,
			"0.014": 2.93599727378,
			"0.015": 2.28985502061,
			"0.016": 0.456263516448,
			"0.017": 0.0,
			"0.018": 0.0,
			"0.019": 0.0,
			"0.02": 0.0,
			"0.021": 0.0,
			"0.022": 0.0,
			"0.023": 0.0,
			"0.024": 0.0,
			"0.025": 0.0
		}
	}
}
