{
	 "smiles": "COC1=CC=C(C=C1)C(CN)C1=CNC2=C1C=CC=C2", 
	 "Tm": 401.15, 
	 "num_atms": 38, 
	 "gaussian": { 
		 "optdone": 1, 
		 "sigma_profile": "yes", 
		 "theory": "DFT", 
		 "functional": "B3LYP", 
		 "basiset": "6-31G**", 
		 "properties": { 
			 "R2extent": 7740.7674, 
			 "electric_dipole_moment_norm": 3.5410523803, 
			 "electric_quadrupole_moment_norm": 19.8944337947, 
			 "total_energy": -843.37586183, 
			 "HOMO_LUMO_gap": 0.18838, 
			 "cosmo_polarized_energy": -15.66, 
			 "cosmo_cavitation_energy": 40.55, 
			 "cosmo_dispersion_energy": -28.52, 
			 "cosmo_repulsion_energy": 2.19, 
			 "cosmo_total_nonelectrostatic_energy": 14.22, 
			 "SMD_solvation_energy": 5.77 
		},
		"coords": [
			{
				"x": 2.6252330073,
				"y": 1.4183480367,
				"z": 5.3890299331,
				"element": "C" 
			},
			{
				"x": 1.6435513825,
				"y": 2.1759347645,
				"z": 4.7013610815,
				"element": "O" 
			},
			{
				"x": 1.2831246164,
				"y": 1.7753457745,
				"z": 3.4460153752,
				"element": "C" 
			},
			{
				"x": 1.8108260486,
				"y": 0.6652167272,
				"z": 2.7784257762,
				"element": "C" 
			},
			{
				"x": 1.3607637278,
				"y": 0.3573563343,
				"z": 1.4907916863,
				"element": "C" 
			},
			{
				"x": 0.3909693363,
				"y": 1.1235025705,
				"z": 0.8383216994,
				"element": "C" 
			},
			{
				"x": -0.1207722322,
				"y": 2.2382290377,
				"z": 1.5280878301,
				"element": "C" 
			},
			{
				"x": 0.3124060673,
				"y": 2.5617706829,
				"z": 2.8087609291,
				"element": "C" 
			},
			{
				"x": -0.0857859621,
				"y": 0.7509390456,
				"z": -0.5597195992,
				"element": "C" 
			},
			{
				"x": -0.0319649212,
				"y": 1.961825131,
				"z": -1.5425376233,
				"element": "C" 
			},
			{
				"x": 1.273558613,
				"y": 2.5903559344,
				"z": -1.7263809132,
				"element": "N" 
			},
			{
				"x": -1.4545466658,
				"y": 0.1048961003,
				"z": -0.5684008904,
				"element": "C" 
			},
			{
				"x": -2.4089206688,
				"y": 0.1270903009,
				"z": 0.4189343465,
				"element": "C" 
			},
			{
				"x": -3.5369957322,
				"y": -0.560252115,
				"z": 0.0069744091,
				"element": "N" 
			},
			{
				"x": -3.3299286297,
				"y": -1.0556952359,
				"z": -1.2629319677,
				"element": "C" 
			},
			{
				"x": -2.0241673097,
				"y": -0.6536837499,
				"z": -1.6605458395,
				"element": "C" 
			},
			{
				"x": -1.5553799879,
				"y": -1.0491333056,
				"z": -2.9265457417,
				"element": "C" 
			},
			{
				"x": -2.3780297322,
				"y": -1.8098868339,
				"z": -3.7484354334,
				"element": "C" 
			},
			{
				"x": -3.670805616,
				"y": -2.1896566371,
				"z": -3.3334362922,
				"element": "C" 
			},
			{
				"x": -4.1631401409,
				"y": -1.8197403448,
				"z": -2.0869427377,
				"element": "C" 
			},
			{
				"x": 2.3001396273,
				"y": 0.3820055738,
				"z": 5.5494365953,
				"element": "H" 
			},
			{
				"x": 2.7598494458,
				"y": 1.904921028,
				"z": 6.3564126026,
				"element": "H" 
			},
			{
				"x": 3.5832386368,
				"y": 1.4125191442,
				"z": 4.8527744509,
				"element": "H" 
			},
			{
				"x": 2.5653354635,
				"y": 0.0400604086,
				"z": 3.2414094303,
				"element": "H" 
			},
			{
				"x": 1.7788179347,
				"y": -0.510262235,
				"z": 0.9857832717,
				"element": "H" 
			},
			{
				"x": -0.8718986509,
				"y": 2.8666630661,
				"z": 1.0578071202,
				"element": "H" 
			},
			{
				"x": -0.0836914837,
				"y": 3.4235370184,
				"z": 3.3364766687,
				"element": "H" 
			},
			{
				"x": 0.6261651727,
				"y": 0.0084453988,
				"z": -0.9516066064,
				"element": "H" 
			},
			{
				"x": -0.3954195172,
				"y": 1.6301919634,
				"z": -2.5207893838,
				"element": "H" 
			},
			{
				"x": -0.7398117768,
				"y": 2.7278121341,
				"z": -1.2053338684,
				"element": "H" 
			},
			{
				"x": 1.6342197893,
				"y": 2.8951300857,
				"z": -0.824693095,
				"element": "H" 
			},
			{
				"x": 1.9400585027,
				"y": 1.9055724652,
				"z": -2.0778257848,
				"element": "H" 
			},
			{
				"x": -2.3683753196,
				"y": 0.5733676013,
				"z": 1.4014259484,
				"element": "H" 
			},
			{
				"x": -4.3643452046,
				"y": -0.7018090694,
				"z": 0.5623013404,
				"element": "H" 
			},
			{
				"x": -0.5606224833,
				"y": -0.7671124478,
				"z": -3.2607585766,
				"element": "H" 
			},
			{
				"x": -2.0225464577,
				"y": -2.1183298011,
				"z": -4.7273067854,
				"element": "H" 
			},
			{
				"x": -4.292314183,
				"y": -2.7829828986,
				"z": -3.9977897266,
				"element": "H" 
			},
			{
				"x": -5.1579946964,
				"y": -2.115491654,
				"z": -1.7650496298,
				"element": "H" 
			}
		],
		 "valence_orbital": [ 
			{
				"type": "occ",
				"energy": -0.2512,
				"method": "rhf"
			},
			{
				"type": "occ",
				"energy": -0.22887,
				"method": "rhf"
			},
			{
				"type": "occ",
				"energy": -0.21574,
				"method": "rhf"
			},
			{
				"type": "occ",
				"energy": -0.21407,
				"method": "rhf"
			},
			{
				"type": "occ",
				"energy": -0.19238,
				"method": "rhf"
			},
			{
				"type": "unocc",
				"energy": -0.004,
				"method": "rhf"
			},
			{
				"type": "unocc",
				"energy": -0.00324,
				"method": "rhf"
			},
			{
				"type": "unocc",
				"energy": 0.01196,
				"method": "rhf"
			},
			{
				"type": "unocc",
				"energy": 0.03264,
				"method": "rhf"
			},
			{
				"type": "unocc",
				"energy": 0.0726,
				"method": "rhf"
			}
		],
		"cosmo_sigma_profile": { 
			"-0.025": 0.0,
			"-0.024": 0.0,
			"-0.023": 0.0,
			"-0.022": 0.0,
			"-0.021": 0.0,
			"-0.02": 0.0,
			"-0.019": 0.0,
			"-0.018": 0.0,
			"-0.017": 0.0,
			"-0.016": 0.116667206416,
			"-0.015": 1.41136420213,
			"-0.014": 1.29422136572,
			"-0.013": 1.01772768206,
			"-0.012": 1.59255257394,
			"-0.011": 1.16053076167,
			"-0.01": 1.00294072688,
			"-0.009": 2.70660103791,
			"-0.008": 3.54034557599,
			"-0.007": 4.26041409733,
			"-0.006": 11.0969031181,
			"-0.005": 27.7842418467,
			"-0.004": 32.8327429895,
			"-0.003": 31.2407484698,
			"-0.002": 25.9006997212,
			"-0.001": 18.5731664712,
			"0.0": 16.2276655497,
			"0.001": 16.1345556832,
			"0.002": 15.6568152731,
			"0.003": 16.6590241163,
			"0.004": 21.0171364137,
			"0.005": 24.0099128488,
			"0.006": 18.5113232859,
			"0.007": 10.5555353113,
			"0.008": 4.72582191377,
			"0.009": 2.06375211925,
			"0.01": 2.79447710425,
			"0.011": 1.19280190292,
			"0.012": 0.347877612153,
			"0.013": 1.09262779937,
			"0.014": 0.860415509005,
			"0.015": 0.489009600093,
			"0.016": 0.696627036902,
			"0.017": 0.676771732007,
			"0.018": 0.450353553852,
			"0.019": 0.87002594124,
			"0.02": 0.372281883772,
			"0.021": 0.0,
			"0.022": 0.0,
			"0.023": 0.0,
			"0.024": 0.0,
			"0.025": 0.0
		}
	}
}
