{
	 "smiles": "CCOC1=CC=C(C=C1)C(=O)NCC(O)=O", 
	 "Tm": 428.15, 
	 "num_atms": 29, 
	 "gaussian": { 
		 "optdone": 1, 
		 "sigma_profile": "yes", 
		 "theory": "DFT", 
		 "functional": "B3LYP", 
		 "basiset": "6-31G**", 
		 "properties": { 
			 "R2extent": 6832.203, 
			 "electric_dipole_moment_norm": 2.19682043645, 
			 "electric_quadrupole_moment_norm": 20.4499935812, 
			 "total_energy": -782.671303515, 
			 "HOMO_LUMO_gap": 0.19933, 
			 "cosmo_polarized_energy": -18.66, 
			 "cosmo_cavitation_energy": 33.93, 
			 "cosmo_dispersion_energy": -24.3, 
			 "cosmo_repulsion_energy": 1.95, 
			 "cosmo_total_nonelectrostatic_energy": 11.58, 
			 "SMD_solvation_energy": 7.45 
		},
		"coords": [
			{
				"x": 2.4886198921,
				"y": 5.00865368,
				"z": 0.5304782525,
				"element": "C" 
			},
			{
				"x": 2.0387015945,
				"y": 3.5748113657,
				"z": 0.3134210562,
				"element": "C" 
			},
			{
				"x": 0.6694751125,
				"y": 3.4886918992,
				"z": 0.7158018589,
				"element": "O" 
			},
			{
				"x": 0.0280359349,
				"y": 2.2941857821,
				"z": 0.6209649156,
				"element": "C" 
			},
			{
				"x": -1.3083974756,
				"y": 2.2845241816,
				"z": 1.0526500169,
				"element": "C" 
			},
			{
				"x": -2.0549654207,
				"y": 1.11658136,
				"z": 0.9851156442,
				"element": "C" 
			},
			{
				"x": -1.4892482106,
				"y": -0.0727715424,
				"z": 0.4921666422,
				"element": "C" 
			},
			{
				"x": -0.147198258,
				"y": -0.0576306602,
				"z": 0.095884968,
				"element": "C" 
			},
			{
				"x": 0.6098421099,
				"y": 1.110724473,
				"z": 0.1418155565,
				"element": "C" 
			},
			{
				"x": -2.2091031786,
				"y": -1.3842293093,
				"z": 0.4646643458,
				"element": "C" 
			},
			{
				"x": -1.6229419242,
				"y": -2.439751231,
				"z": 0.6783058374,
				"element": "O" 
			},
			{
				"x": -3.5810923073,
				"y": -1.3805593333,
				"z": 0.2498713067,
				"element": "N" 
			},
			{
				"x": -4.3111568919,
				"y": -0.4655717395,
				"z": -0.6074344377,
				"element": "C" 
			},
			{
				"x": -4.7807219225,
				"y": -1.0431140676,
				"z": -1.9397449204,
				"element": "C" 
			},
			{
				"x": -4.6936821251,
				"y": -2.3905537974,
				"z": -1.9894984132,
				"element": "O" 
			},
			{
				"x": -5.2245747897,
				"y": -0.3695782598,
				"z": -2.8406481186,
				"element": "O" 
			},
			{
				"x": 2.3934689473,
				"y": 5.2873823487,
				"z": 1.5835396102,
				"element": "H" 
			},
			{
				"x": 1.8828020226,
				"y": 5.6973312996,
				"z": -0.0648598947,
				"element": "H" 
			},
			{
				"x": 3.5358747901,
				"y": 5.1219350656,
				"z": 0.2342348344,
				"element": "H" 
			},
			{
				"x": 2.1346564185,
				"y": 3.2887215169,
				"z": -0.7431775425,
				"element": "H" 
			},
			{
				"x": 2.6455874096,
				"y": 2.8781958918,
				"z": 0.9081334546,
				"element": "H" 
			},
			{
				"x": -1.7315732092,
				"y": 3.2033677231,
				"z": 1.444731289,
				"element": "H" 
			},
			{
				"x": -3.0768723534,
				"y": 1.1206721882,
				"z": 1.3519839919,
				"element": "H" 
			},
			{
				"x": 0.3008162515,
				"y": -0.9846823327,
				"z": -0.2464792886,
				"element": "H" 
			},
			{
				"x": 1.642309186,
				"y": 1.0895830767,
				"z": -0.185170867,
				"element": "H" 
			},
			{
				"x": -3.9383549054,
				"y": -2.3292487186,
				"z": 0.2583721721,
				"element": "H" 
			},
			{
				"x": -3.6987752366,
				"y": 0.4049920448,
				"z": -0.8430204485,
				"element": "H" 
			},
			{
				"x": -5.2140972852,
				"y": -0.0850802857,
				"z": -0.1091076563,
				"element": "H" 
			},
			{
				"x": -5.0355341754,
				"y": -2.6576826194,
				"z": -2.8593941657,
				"element": "H" 
			}
		],
		 "valence_orbital": [ 
			{
				"type": "occ",
				"energy": -0.30055,
				"method": "rhf"
			},
			{
				"type": "occ",
				"energy": -0.2604,
				"method": "rhf"
			},
			{
				"type": "occ",
				"energy": -0.25649,
				"method": "rhf"
			},
			{
				"type": "occ",
				"energy": -0.24373,
				"method": "rhf"
			},
			{
				"type": "occ",
				"energy": -0.22487,
				"method": "rhf"
			},
			{
				"type": "unocc",
				"energy": -0.02554,
				"method": "rhf"
			},
			{
				"type": "unocc",
				"energy": -0.01154,
				"method": "rhf"
			},
			{
				"type": "unocc",
				"energy": 0.00035,
				"method": "rhf"
			},
			{
				"type": "unocc",
				"energy": 0.05833,
				"method": "rhf"
			},
			{
				"type": "unocc",
				"energy": 0.06378,
				"method": "rhf"
			}
		],
		"cosmo_sigma_profile": { 
			"-0.025": 0.0,
			"-0.024": 0.0,
			"-0.023": 0.0,
			"-0.022": 0.0,
			"-0.021": 0.0,
			"-0.02": 0.0,
			"-0.019": 0.415595058632,
			"-0.018": 1.03119120297,
			"-0.017": 0.807104563744,
			"-0.016": 1.10030396111,
			"-0.015": 0.454503818244,
			"-0.014": 0.836832657434,
			"-0.013": 0.312037388509,
			"-0.012": 1.22316023955,
			"-0.011": 1.78854282533,
			"-0.01": 1.07469139098,
			"-0.009": 1.31585396622,
			"-0.008": 4.22289973307,
			"-0.007": 8.35547041437,
			"-0.006": 15.3335656766,
			"-0.005": 20.9455290581,
			"-0.004": 23.7168697903,
			"-0.003": 20.922927012,
			"-0.002": 18.3526675691,
			"-0.001": 16.6598895325,
			"0.0": 18.3303500318,
			"0.001": 12.5254190741,
			"0.002": 13.3549293758,
			"0.003": 16.8750223397,
			"0.004": 17.1413954439,
			"0.005": 8.06788261458,
			"0.006": 5.49362754047,
			"0.007": 3.7976956897,
			"0.008": 4.46798035755,
			"0.009": 4.92043846466,
			"0.01": 4.17449598563,
			"0.011": 6.44727142711,
			"0.012": 5.28723661571,
			"0.013": 5.25291477424,
			"0.014": 3.4118097535,
			"0.015": 0.231187984705,
			"0.016": 0.0,
			"0.017": 0.0,
			"0.018": 0.0,
			"0.019": 0.0,
			"0.02": 0.0,
			"0.021": 0.0,
			"0.022": 0.0,
			"0.023": 0.0,
			"0.024": 0.0,
			"0.0": 0.0
		}
	}
}
