{
	 "smiles": "[O-][N+](=O)C1=CC=CC=C1N1C(=O)C2ON=C(C2C1=O)C(=O)C1=CC=CO1", 
	 "Tm": 482.15, 
	 "num_atms": 35, 
	 "gaussian": { 
		 "optdone": 1, 
		 "sigma_profile": "yes", 
		 "theory": "DFT", 
		 "functional": "B3LYP", 
		 "basiset": "6-31G**", 
		 "properties": { 
			 "R2extent": 10241.5052, 
			 "electric_dipole_moment_norm": 5.12255620369, 
			 "electric_quadrupole_moment_norm": 35.3568870383, 
			 "total_energy": -1305.75501891, 
			 "HOMO_LUMO_gap": 0.15047, 
			 "cosmo_polarized_energy": -24.48, 
			 "cosmo_cavitation_energy": 42.75, 
			 "cosmo_dispersion_energy": -29.35, 
			 "cosmo_repulsion_energy": 2.19, 
			 "cosmo_total_nonelectrostatic_energy": 15.59, 
			 "SMD_solvation_energy": 12.13 
		},
		"coords": [
			{
				"x": -2.562566123,
				"y": -2.4006821029,
				"z": 1.1155853257,
				"element": "O" 
			},
			{
				"x": -1.9061131034,
				"y": -3.2759233915,
				"z": 1.6801133088,
				"element": "N" 
			},
			{
				"x": -2.3801735864,
				"y": -4.1508572232,
				"z": 2.3983002331,
				"element": "O" 
			},
			{
				"x": -0.451043544,
				"y": -3.3144338586,
				"z": 1.4432230192,
				"element": "C" 
			},
			{
				"x": 0.1753878777,
				"y": -4.5505224519,
				"z": 1.5947780968,
				"element": "C" 
			},
			{
				"x": 1.5304621793,
				"y": -4.6809851137,
				"z": 1.3046546389,
				"element": "C" 
			},
			{
				"x": 2.2587076978,
				"y": -3.5704301817,
				"z": 0.8767908631,
				"element": "C" 
			},
			{
				"x": 1.6368762865,
				"y": -2.3285021219,
				"z": 0.7588102693,
				"element": "C" 
			},
			{
				"x": 0.2772364644,
				"y": -2.1826774276,
				"z": 1.0381996889,
				"element": "C" 
			},
			{
				"x": -0.3047313878,
				"y": -0.8893651663,
				"z": 0.9330019397,
				"element": "N" 
			},
			{
				"x": -0.9236362387,
				"y": -0.2407870569,
				"z": 2.0122711761,
				"element": "C" 
			},
			{
				"x": -0.9845057229,
				"y": -0.6601858463,
				"z": 3.1413508579,
				"element": "O" 
			},
			{
				"x": -1.4782685165,
				"y": 1.085947261,
				"z": 1.4856298177,
				"element": "C" 
			},
			{
				"x": -0.6969455509,
				"y": 2.1895344489,
				"z": 2.042436395,
				"element": "O" 
			},
			{
				"x": -0.0657590277,
				"y": 2.8723574675,
				"z": 1.0217267864,
				"element": "N" 
			},
			{
				"x": -0.3205901976,
				"y": 2.3322785906,
				"z": -0.1161833069,
				"element": "C" 
			},
			{
				"x": -1.1906617547,
				"y": 1.0990558563,
				"z": -0.013948169,
				"element": "C" 
			},
			{
				"x": -0.4139226987,
				"y": -0.201750446,
				"z": -0.2912846293,
				"element": "C" 
			},
			{
				"x": 0.0374089801,
				"y": -0.5820252645,
				"z": -1.3416742814,
				"element": "O" 
			},
			{
				"x": 0.089053597,
				"y": 2.9064952335,
				"z": -1.4356278742,
				"element": "C" 
			},
			{
				"x": -0.4958745351,
				"y": 2.5126723869,
				"z": -2.4376432727,
				"element": "O" 
			},
			{
				"x": 1.1490014797,
				"y": 3.9106796617,
				"z": -1.4766575538,
				"element": "C" 
			},
			{
				"x": 1.9702255309,
				"y": 4.4942551876,
				"z": -0.5376453116,
				"element": "C" 
			},
			{
				"x": 2.8075828031,
				"y": 5.4023688245,
				"z": -1.2413784951,
				"element": "C" 
			},
			{
				"x": 2.440256617,
				"y": 5.3073823602,
				"z": -2.5563242637,
				"element": "C" 
			},
			{
				"x": 1.4432527798,
				"y": 4.4139501753,
				"z": -2.7184183972,
				"element": "O" 
			},
			{
				"x": -0.4190896519,
				"y": -5.3915506265,
				"z": 1.9287616697,
				"element": "H" 
			},
			{
				"x": 2.012061804,
				"y": -5.6474651702,
				"z": 1.4102095985,
				"element": "H" 
			},
			{
				"x": 3.3149347374,
				"y": -3.6640708121,
				"z": 0.6456940906,
				"element": "H" 
			},
			{
				"x": 2.1996827044,
				"y": -1.4549282557,
				"z": 0.4506928161,
				"element": "H" 
			},
			{
				"x": -2.5171288765,
				"y": 1.2155588334,
				"z": 1.7950428939,
				"element": "H" 
			},
			{
				"x": -2.0501289988,
				"y": 1.1465890384,
				"z": -0.6858804795,
				"element": "H" 
			},
			{
				"x": 1.9529186368,
				"y": 4.2943379195,
				"z": 0.5224406067,
				"element": "H" 
			},
			{
				"x": 3.5770188929,
				"y": 6.0396859661,
				"z": -0.8308279022,
				"element": "H" 
			},
			{
				"x": 2.7863704457,
				"y": 5.7945933063,
				"z": -3.4555201555,
				"element": "H" 
			}
		],
		 "valence_orbital": [ 
			{
				"type": "occ",
				"energy": -0.28901,
				"method": "rhf"
			},
			{
				"type": "occ",
				"energy": -0.28208,
				"method": "rhf"
			},
			{
				"type": "occ",
				"energy": -0.27405,
				"method": "rhf"
			},
			{
				"type": "occ",
				"energy": -0.26608,
				"method": "rhf"
			},
			{
				"type": "occ",
				"energy": -0.25114,
				"method": "rhf"
			},
			{
				"type": "unocc",
				"energy": -0.10067,
				"method": "rhf"
			},
			{
				"type": "unocc",
				"energy": -0.09045,
				"method": "rhf"
			},
			{
				"type": "unocc",
				"energy": -0.04911,
				"method": "rhf"
			},
			{
				"type": "unocc",
				"energy": -0.04705,
				"method": "rhf"
			},
			{
				"type": "unocc",
				"energy": -0.02285,
				"method": "rhf"
			}
		],
		"cosmo_sigma_profile": { 
			"-0.025": 0.0,
			"-0.024": 0.0,
			"-0.023": 0.0,
			"-0.022": 0.0,
			"-0.021": 0.0,
			"-0.02": 0.0,
			"-0.019": 0.0,
			"-0.018": 0.0,
			"-0.017": 0.0,
			"-0.016": 0.0,
			"-0.015": 0.0,
			"-0.014": 0.0,
			"-0.013": 0.00793328809174,
			"-0.012": 0.276806218502,
			"-0.011": 1.93822880322,
			"-0.01": 9.94668495824,
			"-0.009": 9.80441582183,
			"-0.008": 16.5185251682,
			"-0.007": 19.6369776508,
			"-0.006": 16.8029316362,
			"-0.005": 16.751806534,
			"-0.004": 15.9267687701,
			"-0.003": 16.2873060287,
			"-0.002": 17.4424550087,
			"-0.001": 21.3873202372,
			"0.0": 28.862238381,
			"0.001": 25.6338046657,
			"0.002": 16.2529675772,
			"0.003": 13.0025564972,
			"0.004": 11.7428201271,
			"0.005": 10.7784343734,
			"0.006": 12.4670368247,
			"0.007": 16.6647642142,
			"0.008": 12.8737946532,
			"0.009": 12.0918969786,
			"0.01": 12.7889675845,
			"0.011": 7.6985090153,
			"0.012": 1.77142592666,
			"0.013": 0.192015869471,
			"0.014": 0.0,
			"0.015": 0.0,
			"0.016": 0.0,
			"0.017": 0.0,
			"0.018": 0.0,
			"0.019": 0.0,
			"0.02": 0.0,
			"0.021": 0.0,
			"0.022": 0.0,
			"0.023": 0.0,
			"0.024": 0.0,
			"0.025": 0.0
		}
	}
}
