{
	 "smiles": "CC1=CC(N)=C(Cl)N=C1", 
	 "Tm": 357.65, 
	 "num_atms": 16, 
	 "gaussian": { 
		 "optdone": 1, 
		 "sigma_profile": "yes", 
		 "theory": "DFT", 
		 "functional": "B3LYP", 
		 "basiset": "6-31G**", 
		 "properties": { 
			 "R2extent": 1598.7106, 
			 "electric_dipole_moment_norm": 4.21517290986, 
			 "electric_quadrupole_moment_norm": 7.73269438618, 
			 "total_energy": -802.560801117, 
			 "HOMO_LUMO_gap": 0.19198, 
			 "cosmo_polarized_energy": -10.53, 
			 "cosmo_cavitation_energy": 21.43, 
			 "cosmo_dispersion_energy": -16.33, 
			 "cosmo_repulsion_energy": 1.35, 
			 "cosmo_total_nonelectrostatic_energy": 6.44, 
			 "SMD_solvation_energy": 2.15 
		},
		"coords": [
			{
				"x": 1.3773280155,
				"y": 2.7374067093,
				"z": 1.4679867994,
				"element": "C" 
			},
			{
				"x": 0.646816015,
				"y": 1.6640580547,
				"z": 0.7004412849,
				"element": "C" 
			},
			{
				"x": -0.6880492157,
				"y": 1.3538970227,
				"z": 0.9742061868,
				"element": "C" 
			},
			{
				"x": -1.3613105293,
				"y": 0.3571292385,
				"z": 0.2539090533,
				"element": "C" 
			},
			{
				"x": -2.6960360223,
				"y": 0.0696338405,
				"z": 0.4651989268,
				"element": "N" 
			},
			{
				"x": -0.5916926304,
				"y": -0.2925586436,
				"z": -0.7384366612,
				"element": "C" 
			},
			{
				"x": -1.3644312192,
				"y": -1.5828062826,
				"z": -1.6843065531,
				"element": "Cl" 
			},
			{
				"x": 0.65970796,
				"y": -0.0219366547,
				"z": -1.0141342477,
				"element": "N" 
			},
			{
				"x": 1.2775621535,
				"y": 0.9391601632,
				"z": -0.3145621765,
				"element": "C" 
			},
			{
				"x": 0.8959661182,
				"y": 3.7140635624,
				"z": 1.3439652644,
				"element": "H" 
			},
			{
				"x": 1.3955644382,
				"y": 2.5189855316,
				"z": 2.5416882695,
				"element": "H" 
			},
			{
				"x": 2.4122907791,
				"y": 2.8299302988,
				"z": 1.1282525008,
				"element": "H" 
			},
			{
				"x": -1.224434422,
				"y": 1.8931917321,
				"z": 1.752508216,
				"element": "H" 
			},
			{
				"x": -3.0173022793,
				"y": -0.8202522092,
				"z": 0.1115258934,
				"element": "H" 
			},
			{
				"x": -3.0663519634,
				"y": 0.3123820677,
				"z": 1.3722668326,
				"element": "H" 
			},
			{
				"x": 2.3156728021,
				"y": 1.1327155687,
				"z": -0.5749095895,
				"element": "H" 
			}
		],
		 "valence_orbital": [ 
			{
				"type": "occ",
				"energy": -0.32637,
				"method": "rhf"
			},
			{
				"type": "occ",
				"energy": -0.31289,
				"method": "rhf"
			},
			{
				"type": "occ",
				"energy": -0.26503,
				"method": "rhf"
			},
			{
				"type": "occ",
				"energy": -0.26325,
				"method": "rhf"
			},
			{
				"type": "occ",
				"energy": -0.21628,
				"method": "rhf"
			},
			{
				"type": "unocc",
				"energy": -0.0243,
				"method": "rhf"
			},
			{
				"type": "unocc",
				"energy": 0.00201,
				"method": "rhf"
			},
			{
				"type": "unocc",
				"energy": 0.03826,
				"method": "rhf"
			},
			{
				"type": "unocc",
				"energy": 0.0784,
				"method": "rhf"
			},
			{
				"type": "unocc",
				"energy": 0.10681,
				"method": "rhf"
			}
		],
		"cosmo_sigma_profile": { 
			"-0.025": 0.0,
			"-0.024": 0.0,
			"-0.023": 0.0,
			"-0.022": 0.0,
			"-0.021": 0.0,
			"-0.02": 0.0,
			"-0.019": 0.0,
			"-0.018": 0.0,
			"-0.017": 0.0,
			"-0.016": 0.0,
			"-0.015": 0.0,
			"-0.014": 0.24526133177,
			"-0.013": 1.5577367609,
			"-0.012": 1.92719518974,
			"-0.011": 2.78250393168,
			"-0.01": 2.84135041686,
			"-0.009": 2.60707719831,
			"-0.008": 2.09880855026,
			"-0.007": 3.14899733715,
			"-0.006": 5.43897616962,
			"-0.005": 8.33976804519,
			"-0.004": 11.14813226,
			"-0.003": 10.6251708759,
			"-0.002": 11.6093666139,
			"-0.001": 13.8553240881,
			"0.0": 13.096855281,
			"0.001": 14.0044425757,
			"0.002": 13.9824592766,
			"0.003": 15.1756599465,
			"0.004": 8.32732474887,
			"0.005": 8.88757780223,
			"0.006": 4.77740401843,
			"0.007": 3.58734533001,
			"0.008": 2.28742571095,
			"0.009": 2.47473321683,
			"0.01": 2.173566792,
			"0.011": 1.04261815025,
			"0.012": 1.98631423468,
			"0.013": 1.10614854863,
			"0.014": 0.907465695914,
			"0.015": 0.55770445999,
			"0.016": 0.0322226770926,
			"0.017": 0.0,
			"0.018": 0.0,
			"0.019": 0.0,
			"0.02": 0.0,
			"0.021": 0.0,
			"0.022": 0.0,
			"0.023": 0.0,
			"0.024": 0.0,
			"0.025": 0.0
		}
	}
}
