{
	 "smiles": "NC1=C(Cl)C=C(OC(F)(F)F)C=C1Cl", 
	 "Tm": 305.15, 
	 "num_atms": 18, 
	 "gaussian": { 
		 "optdone": 1, 
		 "sigma_profile": "yes", 
		 "theory": "DFT", 
		 "functional": "B3LYP", 
		 "basiset": "6-31G**", 
		 "properties": { 
			 "R2extent": 4816.3015, 
			 "electric_dipole_moment_norm": 2.40770735348, 
			 "electric_quadrupole_moment_norm": 5.15665040797, 
			 "total_energy": -1619.04107584, 
			 "HOMO_LUMO_gap": 0.19356, 
			 "cosmo_polarized_energy": -6.22, 
			 "cosmo_cavitation_energy": 27.71, 
			 "cosmo_dispersion_energy": -20.26, 
			 "cosmo_repulsion_energy": 1.55, 
			 "cosmo_total_nonelectrostatic_energy": 9.01, 
			 "SMD_solvation_energy": 5.57 
		},
		"coords": [
			{
				"x": -0.700025936,
				"y": 2.1853378464,
				"z": 1.279992419,
				"element": "N" 
			},
			{
				"x": -0.2818642668,
				"y": 0.8881531839,
				"z": 1.1117874111,
				"element": "C" 
			},
			{
				"x": -0.0450885037,
				"y": 0.026790045,
				"z": 2.2067372382,
				"element": "C" 
			},
			{
				"x": -0.3721440612,
				"y": 0.6237621696,
				"z": 3.8283693719,
				"element": "Cl" 
			},
			{
				"x": 0.4314670014,
				"y": -1.2693489117,
				"z": 2.0542952898,
				"element": "C" 
			},
			{
				"x": 0.6858805737,
				"y": -1.7435691685,
				"z": 0.7723066574,
				"element": "C" 
			},
			{
				"x": 1.2366125803,
				"y": -3.0230194029,
				"z": 0.6084308397,
				"element": "O" 
			},
			{
				"x": 0.3607622798,
				"y": -4.0514208232,
				"z": 0.4574793325,
				"element": "C" 
			},
			{
				"x": 1.0714090011,
				"y": -5.1687429023,
				"z": 0.3179297235,
				"element": "F" 
			},
			{
				"x": -0.4549200949,
				"y": -4.1876630013,
				"z": 1.5208585857,
				"element": "F" 
			},
			{
				"x": -0.4232850916,
				"y": -3.8992498145,
				"z": -0.62732888,
				"element": "F" 
			},
			{
				"x": 0.4677938628,
				"y": -0.9464008768,
				"z": -0.3457560302,
				"element": "C" 
			},
			{
				"x": -0.0091904735,
				"y": 0.3458402847,
				"z": -0.1643255922,
				"element": "C" 
			},
			{
				"x": -0.2903559026,
				"y": 1.3514297302,
				"z": -1.5795271838,
				"element": "Cl" 
			},
			{
				"x": -1.121866427,
				"y": 2.4156794325,
				"z": 2.1668239622,
				"element": "H" 
			},
			{
				"x": -1.0959903958,
				"y": 2.6435762856,
				"z": 0.4733278942,
				"element": "H" 
			},
			{
				"x": 0.6041440065,
				"y": -1.8999044486,
				"z": 2.9172620405,
				"element": "H" 
			},
			{
				"x": 0.6685618475,
				"y": -1.3271496283,
				"z": -1.3391630796,
				"element": "H" 
			}
		],
		 "valence_orbital": [ 
			{
				"type": "occ",
				"energy": -0.3378,
				"method": "rhf"
			},
			{
				"type": "occ",
				"energy": -0.33021,
				"method": "rhf"
			},
			{
				"type": "occ",
				"energy": -0.32786,
				"method": "rhf"
			},
			{
				"type": "occ",
				"energy": -0.26265,
				"method": "rhf"
			},
			{
				"type": "occ",
				"energy": -0.22642,
				"method": "rhf"
			},
			{
				"type": "unocc",
				"energy": -0.03286,
				"method": "rhf"
			},
			{
				"type": "unocc",
				"energy": -0.0136,
				"method": "rhf"
			},
			{
				"type": "unocc",
				"energy": -0.00695,
				"method": "rhf"
			},
			{
				"type": "unocc",
				"energy": 0.04086,
				"method": "rhf"
			},
			{
				"type": "unocc",
				"energy": 0.08197,
				"method": "rhf"
			}
		],
		"cosmo_sigma_profile": { 
			"-0.025": 0.0,
			"-0.024": 0.0,
			"-0.023": 0.0,
			"-0.022": 0.0,
			"-0.021": 0.0,
			"-0.02": 0.0,
			"-0.019": 0.0,
			"-0.018": 0.0,
			"-0.017": 0.0,
			"-0.016": 0.0,
			"-0.015": 0.0,
			"-0.014": 0.0,
			"-0.013": 0.867579639393,
			"-0.012": 2.1915445594,
			"-0.011": 2.13714223869,
			"-0.01": 2.05956221032,
			"-0.009": 2.54197542427,
			"-0.008": 4.40779438567,
			"-0.007": 3.91139307579,
			"-0.006": 5.00711030506,
			"-0.005": 5.43594529088,
			"-0.004": 6.48112728779,
			"-0.003": 7.73075711157,
			"-0.002": 12.3873220554,
			"-0.001": 16.4341044165,
			"0.0": 24.3874835758,
			"0.001": 42.537835418,
			"0.002": 46.5534717529,
			"0.003": 18.1781534478,
			"0.004": 13.8033853484,
			"0.005": 4.07114295012,
			"0.006": 2.25900009284,
			"0.007": 1.80143503025,
			"0.008": 0.713382843287,
			"0.009": 0.400011736601,
			"0.01": 0.625471818068,
			"0.011": 0.215278499145,
			"0.012": 0.0,
			"0.013": 0.0,
			"0.014": 0.0,
			"0.015": 0.0,
			"0.016": 0.0,
			"0.017": 0.0,
			"0.018": 0.0,
			"0.019": 0.0,
			"0.02": 0.0,
			"0.021": 0.0,
			"0.022": 0.0,
			"0.023": 0.0,
			"0.024": 0.0,
			"0.025": 0.0
		}
	}
}
