{
	 "smiles": "CCC1=NN=C(S1)N=NC1=C(N(C)C2=C1C=CC=C2)C1=CC=CC=C1", 
	 "Tm": 494.0, 
	 "num_atms": 42, 
	 "gaussian": { 
		 "optdone": 1, 
		 "sigma_profile": "yes", 
		 "theory": "DFT", 
		 "functional": "B3LYP", 
		 "basiset": "6-31G**", 
		 "properties": { 
			 "R2extent": 10880.0159, 
			 "electric_dipole_moment_norm": 3.77372672037, 
			 "electric_quadrupole_moment_norm": 28.0042670879, 
			 "total_energy": -1406.1332906, 
			 "HOMO_LUMO_gap": 0.11494, 
			 "cosmo_polarized_energy": -20.41, 
			 "cosmo_cavitation_energy": 47.29, 
			 "cosmo_dispersion_energy": -32.75, 
			 "cosmo_repulsion_energy": 2.43, 
			 "cosmo_total_nonelectrostatic_energy": 16.97, 
			 "SMD_solvation_energy": 3.55 
		},
		"coords": [
			{
				"x": -6.9704840808,
				"y": 0.6838509721,
				"z": -0.645632087,
				"element": "C" 
			},
			{
				"x": -6.2448600296,
				"y": 1.7478068545,
				"z": 0.196273524,
				"element": "C" 
			},
			{
				"x": -4.7490886787,
				"y": 1.6448553116,
				"z": 0.1401975055,
				"element": "C" 
			},
			{
				"x": -4.020971408,
				"y": 1.2655955454,
				"z": 1.1559782835,
				"element": "N" 
			},
			{
				"x": -2.6858016114,
				"y": 1.1978517733,
				"z": 0.8877921664,
				"element": "N" 
			},
			{
				"x": -2.3937909342,
				"y": 1.5263379837,
				"z": -0.3474158906,
				"element": "C" 
			},
			{
				"x": -3.8051170651,
				"y": 1.9924995863,
				"z": -1.3014150836,
				"element": "S" 
			},
			{
				"x": -1.1308892123,
				"y": 1.7811062303,
				"z": -0.8760900293,
				"element": "N" 
			},
			{
				"x": -0.0840751672,
				"y": 1.145301672,
				"z": -0.5384462298,
				"element": "N" 
			},
			{
				"x": -0.0273067176,
				"y": -0.0791808782,
				"z": 0.0919104843,
				"element": "C" 
			},
			{
				"x": 1.1795490932,
				"y": -0.4224826833,
				"z": 0.7371178511,
				"element": "C" 
			},
			{
				"x": 1.0904344921,
				"y": -1.7141353802,
				"z": 1.1962757795,
				"element": "N" 
			},
			{
				"x": 1.998395181,
				"y": -2.3974785138,
				"z": 2.1043345948,
				"element": "C" 
			},
			{
				"x": -0.1335861241,
				"y": -2.2536990932,
				"z": 0.8036903343,
				"element": "C" 
			},
			{
				"x": -0.8718233563,
				"y": -1.2623220348,
				"z": 0.1105214509,
				"element": "C" 
			},
			{
				"x": -2.1104081906,
				"y": -1.6222167235,
				"z": -0.4431699716,
				"element": "C" 
			},
			{
				"x": -2.5873288835,
				"y": -2.9167746454,
				"z": -0.258126599,
				"element": "C" 
			},
			{
				"x": -1.8525341443,
				"y": -3.8698343422,
				"z": 0.4662282637,
				"element": "C" 
			},
			{
				"x": -0.6083603328,
				"y": -3.5510280557,
				"z": 1.0032198876,
				"element": "C" 
			},
			{
				"x": 2.3662199481,
				"y": 0.4211018155,
				"z": 0.9137714969,
				"element": "C" 
			},
			{
				"x": 2.2300113889,
				"y": 1.7689565866,
				"z": 1.2916983635,
				"element": "C" 
			},
			{
				"x": 3.3539934711,
				"y": 2.5828548712,
				"z": 1.4206068957,
				"element": "C" 
			},
			{
				"x": 4.6287853304,
				"y": 2.0696108443,
				"z": 1.1763680541,
				"element": "C" 
			},
			{
				"x": 4.7767635126,
				"y": 0.7340731457,
				"z": 0.7941303825,
				"element": "C" 
			},
			{
				"x": 3.6570383613,
				"y": -0.0836528027,
				"z": 0.662823007,
				"element": "C" 
			},
			{
				"x": -6.7200666647,
				"y": 0.7737634506,
				"z": -1.7073726759,
				"element": "H" 
			},
			{
				"x": -8.0544688178,
				"y": 0.7946155313,
				"z": -0.5450047439,
				"element": "H" 
			},
			{
				"x": -6.6977069437,
				"y": -0.3234057413,
				"z": -0.3172981053,
				"element": "H" 
			},
			{
				"x": -6.5567436462,
				"y": 2.7488466673,
				"z": -0.1256872935,
				"element": "H" 
			},
			{
				"x": -6.517185093,
				"y": 1.6457460665,
				"z": 1.25098974,
				"element": "H" 
			},
			{
				"x": 1.4272199466,
				"y": -2.8340496131,
				"z": 2.9287809019,
				"element": "H" 
			},
			{
				"x": 2.7142052562,
				"y": -1.6843678003,
				"z": 2.5097617429,
				"element": "H" 
			},
			{
				"x": 2.5452151264,
				"y": -3.1978299018,
				"z": 1.5933938098,
				"element": "H" 
			},
			{
				"x": -2.6945509928,
				"y": -0.91253365,
				"z": -1.0146466154,
				"element": "H" 
			},
			{
				"x": -3.5487699709,
				"y": -3.1937744112,
				"z": -0.6799672595,
				"element": "H" 
			},
			{
				"x": -2.2517138826,
				"y": -4.8708594816,
				"z": 0.5985268937,
				"element": "H" 
			},
			{
				"x": -0.0242182915,
				"y": -4.2929743383,
				"z": 1.5380537796,
				"element": "H" 
			},
			{
				"x": 1.2426124849,
				"y": 2.1664774952,
				"z": 1.4931326738,
				"element": "H" 
			},
			{
				"x": 3.2317870284,
				"y": 3.6207122427,
				"z": 1.7156720383,
				"element": "H" 
			},
			{
				"x": 5.5024936068,
				"y": 2.7066238893,
				"z": 1.278677474,
				"element": "H" 
			},
			{
				"x": 5.7639623169,
				"y": 0.3318978553,
				"z": 0.5860519757,
				"element": "H" 
			},
			{
				"x": 3.778163695,
				"y": -1.1088863,
				"z": 0.3264932295,
				"element": "H" 
			}
		],
		 "valence_orbital": [ 
			{
				"type": "occ",
				"energy": -0.25428,
				"method": "rhf"
			},
			{
				"type": "occ",
				"energy": -0.24948,
				"method": "rhf"
			},
			{
				"type": "occ",
				"energy": -0.23016,
				"method": "rhf"
			},
			{
				"type": "occ",
				"energy": -0.22341,
				"method": "rhf"
			},
			{
				"type": "occ",
				"energy": -0.19425,
				"method": "rhf"
			},
			{
				"type": "unocc",
				"energy": -0.07931,
				"method": "rhf"
			},
			{
				"type": "unocc",
				"energy": -0.03359,
				"method": "rhf"
			},
			{
				"type": "unocc",
				"energy": -0.00942,
				"method": "rhf"
			},
			{
				"type": "unocc",
				"energy": -0.0027,
				"method": "rhf"
			},
			{
				"type": "unocc",
				"energy": 0.00199,
				"method": "rhf"
			}
		],
		"cosmo_sigma_profile": { 
			"-0.025": 0.0,
			"-0.024": 0.0,
			"-0.023": 0.0,
			"-0.022": 0.0,
			"-0.021": 0.0,
			"-0.02": 0.0,
			"-0.019": 0.0,
			"-0.018": 0.0,
			"-0.017": 0.0,
			"-0.016": 0.0,
			"-0.015": 0.0,
			"-0.014": 0.0,
			"-0.013": 0.0,
			"-0.012": 0.0,
			"-0.011": 0.0,
			"-0.01": 0.0,
			"-0.009": 0.0,
			"-0.008": 0.000712092723382,
			"-0.007": 6.73256910176,
			"-0.006": 26.9421640476,
			"-0.005": 32.3047874758,
			"-0.004": 40.6962332069,
			"-0.003": 33.8965080097,
			"-0.002": 32.449412948,
			"-0.001": 31.1035127554,
			"0.0": 29.8355563874,
			"0.001": 23.4196844492,
			"0.002": 22.9005166286,
			"0.003": 18.8031392497,
			"0.004": 21.3197876642,
			"0.005": 16.6118622022,
			"0.006": 6.30733331369,
			"0.007": 4.39201741452,
			"0.008": 4.25004010739,
			"0.009": 4.50051230973,
			"0.01": 4.99956644655,
			"0.011": 4.9027168569,
			"0.012": 6.00115884432,
			"0.013": 5.19803818131,
			"0.014": 2.71296482255,
			"0.015": 0.675291577087,
			"0.016": 0.0,
			"0.017": 0.0,
			"0.018": 0.0,
			"0.019": 0.0,
			"0.02": 0.0,
			"0.021": 0.0,
			"0.022": 0.0,
			"0.023": 0.0,
			"0.024": 0.0,
			"0.025": 0.0
		}
	}
}
