{
	 "smiles": "CC(C)OC=O", 
	 "Tm": 193.15, 
	 "num_atms": 14, 
	 "gaussian": { 
		 "optdone": 1, 
		 "sigma_profile": "yes", 
		 "theory": "DFT", 
		 "functional": "B3LYP", 
		 "basiset": "6-31G**", 
		 "properties": { 
			 "R2extent": 902.8861, 
			 "electric_dipole_moment_norm": 2.0490595721, 
			 "electric_quadrupole_moment_norm": 8.59992451537, 
			 "total_energy": -307.705993607, 
			 "HOMO_LUMO_gap": 0.28657, 
			 "cosmo_polarized_energy": -5.82, 
			 "cosmo_cavitation_energy": 17.31, 
			 "cosmo_dispersion_energy": -12.59, 
			 "cosmo_repulsion_energy": 1.1, 
			 "cosmo_total_nonelectrostatic_energy": 5.82, 
			 "SMD_solvation_energy": 5.25 
		},
		"coords": [
			{
				"x": 2.8298547562,
				"y": -0.2827040532,
				"z": 0.1113385321,
				"element": "C" 
			},
			{
				"x": 1.4985246209,
				"y": -1.0261436175,
				"z": 0.0982807503,
				"element": "C" 
			},
			{
				"x": 1.2862039099,
				"y": -1.9236945966,
				"z": 1.3084205101,
				"element": "C" 
			},
			{
				"x": 0.4029883542,
				"y": -0.0561739092,
				"z": 0.122783312,
				"element": "O" 
			},
			{
				"x": 0.0306914739,
				"y": 0.4733691431,
				"z": -1.0512264308,
				"element": "C" 
			},
			{
				"x": 0.5127884702,
				"y": 0.2368715428,
				"z": -2.1337762523,
				"element": "O" 
			},
			{
				"x": 2.9288694291,
				"y": 0.3441858564,
				"z": -0.7778009015,
				"element": "H" 
			},
			{
				"x": 3.6584431648,
				"y": -0.9982576215,
				"z": 0.1192766773,
				"element": "H" 
			},
			{
				"x": 2.9104307708,
				"y": 0.3473733715,
				"z": 1.0029642076,
				"element": "H" 
			},
			{
				"x": 1.4044343242,
				"y": -1.5969684835,
				"z": -0.8302187703,
				"element": "H" 
			},
			{
				"x": 2.0591920725,
				"y": -2.6977317556,
				"z": 1.3402761738,
				"element": "H" 
			},
			{
				"x": 1.340363343,
				"y": -1.3446670923,
				"z": 2.2357413788,
				"element": "H" 
			},
			{
				"x": 0.3094601176,
				"y": -2.4132510976,
				"z": 1.2639682293,
				"element": "H" 
			},
			{
				"x": -0.8045448073,
				"y": 1.1709923132,
				"z": -0.8775274165,
				"element": "H" 
			}
		],
		 "valence_orbital": [ 
			{
				"type": "occ",
				"energy": -0.36889,
				"method": "rhf"
			},
			{
				"type": "occ",
				"energy": -0.36202,
				"method": "rhf"
			},
			{
				"type": "occ",
				"energy": -0.33836,
				"method": "rhf"
			},
			{
				"type": "occ",
				"energy": -0.30112,
				"method": "rhf"
			},
			{
				"type": "occ",
				"energy": -0.27739,
				"method": "rhf"
			},
			{
				"type": "unocc",
				"energy": 0.00918,
				"method": "rhf"
			},
			{
				"type": "unocc",
				"energy": 0.09258,
				"method": "rhf"
			},
			{
				"type": "unocc",
				"energy": 0.10979,
				"method": "rhf"
			},
			{
				"type": "unocc",
				"energy": 0.13605,
				"method": "rhf"
			},
			{
				"type": "unocc",
				"energy": 0.1442,
				"method": "rhf"
			}
		],
		"cosmo_sigma_profile": { 
			"-0.025": 0.0,
			"-0.024": 0.0,
			"-0.023": 0.0,
			"-0.022": 0.0,
			"-0.021": 0.0,
			"-0.02": 0.0,
			"-0.019": 0.0,
			"-0.018": 0.0,
			"-0.017": 0.0,
			"-0.016": 0.0,
			"-0.015": 0.0,
			"-0.014": 0.0,
			"-0.013": 0.0,
			"-0.012": 0.0,
			"-0.011": 0.0,
			"-0.01": 0.0,
			"-0.009": 1.5367327867,
			"-0.008": 2.77283871535,
			"-0.007": 1.85478762758,
			"-0.006": 2.12867633777,
			"-0.005": 3.65972098536,
			"-0.004": 15.245410108,
			"-0.003": 19.4843341174,
			"-0.002": 15.0165795612,
			"-0.001": 15.4833516736,
			"0.0": 17.4996226999,
			"0.001": 7.68898797953,
			"0.002": 2.7457734437,
			"0.003": 4.10304683368,
			"0.004": 3.19668161973,
			"0.005": 2.45581253277,
			"0.006": 2.54492820361,
			"0.007": 2.73540503863,
			"0.008": 2.21906663678,
			"0.009": 2.72222701882,
			"0.01": 2.31990615934,
			"0.011": 3.90143968334,
			"0.012": 3.64037513108,
			"0.013": 0.598621819071,
			"0.014": 0.0,
			"0.015": 0.0,
			"0.016": 0.0,
			"0.017": 0.0,
			"0.018": 0.0,
			"0.019": 0.0,
			"0.02": 0.0,
			"0.021": 0.0,
			"0.022": 0.0,
			"0.023": 0.0,
			"0.024": 0.0,
			"0.025": 0.0
		}
	}
}
