{
	 "smiles": "CCC(C(O)=O)P(O)(O)=O", 
	 "Tm": 398.15, 
	 "num_atms": 19, 
	 "gaussian": { 
		 "optdone": 1, 
		 "sigma_profile": "yes", 
		 "theory": "DFT", 
		 "functional": "B3LYP", 
		 "basiset": "6-31G**", 
		 "properties": { 
			 "R2extent": 2508.2409, 
			 "electric_dipole_moment_norm": 2.65141919356, 
			 "electric_quadrupole_moment_norm": 14.4972746256, 
			 "total_energy": -875.411573194, 
			 "HOMO_LUMO_gap": 0.27281, 
			 "cosmo_polarized_energy": -19.94, 
			 "cosmo_cavitation_energy": 23.98, 
			 "cosmo_dispersion_energy": -17.71, 
			 "cosmo_repulsion_energy": 1.45, 
			 "cosmo_total_nonelectrostatic_energy": 7.72, 
			 "SMD_solvation_energy": 7.46 
		},
		"coords": [
			{
				"x": 1.5999138147,
				"y": -1.5789560207,
				"z": 2.208814925,
				"element": "C" 
			},
			{
				"x": 0.370591986,
				"y": -1.1017585271,
				"z": 1.4292749156,
				"element": "C" 
			},
			{
				"x": -0.2562960085,
				"y": 0.2182289719,
				"z": 1.9637089647,
				"element": "C" 
			},
			{
				"x": -1.6759035347,
				"y": 0.3616867738,
				"z": 1.4406856404,
				"element": "C" 
			},
			{
				"x": -1.6911598528,
				"y": 0.7219030222,
				"z": 0.1198330997,
				"element": "O" 
			},
			{
				"x": -2.6885796453,
				"y": 0.1503754244,
				"z": 2.0585990503,
				"element": "O" 
			},
			{
				"x": 0.6643016969,
				"y": 1.7687753429,
				"z": 1.5784892043,
				"element": "P" 
			},
			{
				"x": 1.0194078506,
				"y": 1.6600354278,
				"z": 0.0019626026,
				"element": "O" 
			},
			{
				"x": 2.1320150974,
				"y": 1.5439439346,
				"z": 2.2236301794,
				"element": "O" 
			},
			{
				"x": -0.0325402064,
				"y": 2.9967894947,
				"z": 2.0347883342,
				"element": "O" 
			},
			{
				"x": 1.3615517367,
				"y": -1.7228900559,
				"z": 3.2683915925,
				"element": "H" 
			},
			{
				"x": 1.9415173939,
				"y": -2.5398521087,
				"z": 1.811586736,
				"element": "H" 
			},
			{
				"x": 2.4256061963,
				"y": -0.8680125017,
				"z": 2.1425896806,
				"element": "H" 
			},
			{
				"x": 0.6154791289,
				"y": -0.9767762645,
				"z": 0.3700033559,
				"element": "H" 
			},
			{
				"x": -0.4057253283,
				"y": -1.8745585228,
				"z": 1.484837039,
				"element": "H" 
			},
			{
				"x": -0.3460242205,
				"y": 0.1698103818,
				"z": 3.0531015528,
				"element": "H" 
			},
			{
				"x": -2.626166041,
				"y": 0.798269509,
				"z": -0.1354395716,
				"element": "H" 
			},
			{
				"x": 0.1939388294,
				"y": 1.6247265485,
				"z": -0.5089489749,
				"element": "H" 
			},
			{
				"x": 2.4087711068,
				"y": 2.35555917,
				"z": 2.6741916737,
				"element": "H" 
			}
		],
		 "valence_orbital": [ 
			{
				"type": "occ",
				"energy": -0.33994,
				"method": "rhf"
			},
			{
				"type": "occ",
				"energy": -0.33494,
				"method": "rhf"
			},
			{
				"type": "occ",
				"energy": -0.29515,
				"method": "rhf"
			},
			{
				"type": "occ",
				"energy": -0.29343,
				"method": "rhf"
			},
			{
				"type": "occ",
				"energy": -0.28657,
				"method": "rhf"
			},
			{
				"type": "unocc",
				"energy": -0.01376,
				"method": "rhf"
			},
			{
				"type": "unocc",
				"energy": 0.04088,
				"method": "rhf"
			},
			{
				"type": "unocc",
				"energy": 0.05831,
				"method": "rhf"
			},
			{
				"type": "unocc",
				"energy": 0.08161,
				"method": "rhf"
			},
			{
				"type": "unocc",
				"energy": 0.09158,
				"method": "rhf"
			}
		],
		"cosmo_sigma_profile": { 
			"-0.025": 0.0,
			"-0.024": 0.0,
			"-0.023": 0.0,
			"-0.022": 0.0,
			"-0.021": 0.0,
			"-0.02": 0.0816292833204,
			"-0.019": 1.64611365087,
			"-0.018": 2.1001669566,
			"-0.017": 1.24992905551,
			"-0.016": 1.73193954462,
			"-0.015": 1.98997712106,
			"-0.014": 2.52256755255,
			"-0.013": 1.7025290456,
			"-0.012": 1.64762694325,
			"-0.011": 1.51437269643,
			"-0.01": 2.317385224,
			"-0.009": 3.31117544116,
			"-0.008": 4.04580168648,
			"-0.007": 3.75646366302,
			"-0.006": 5.17644070285,
			"-0.005": 8.37328334088,
			"-0.004": 13.1208814578,
			"-0.003": 12.0551409169,
			"-0.002": 12.5466092881,
			"-0.001": 13.0402462878,
			"0.0": 12.3919843021,
			"0.001": 10.2501563651,
			"0.002": 6.06829646138,
			"0.003": 5.69437649253,
			"0.004": 5.68163329719,
			"0.005": 6.04599789088,
			"0.006": 4.80992878453,
			"0.007": 3.09226264403,
			"0.008": 5.06765573713,
			"0.009": 6.13373375385,
			"0.01": 6.51716501761,
			"0.011": 6.25262890339,
			"0.012": 1.86837592208,
			"0.013": 2.44886985361,
			"0.014": 5.9270271537,
			"0.015": 2.89899447595,
			"0.016": 0.0404475210351,
			"0.017": 0.0,
			"0.018": 0.0,
			"0.019": 0.0,
			"0.02": 0.0,
			"0.021": 0.0,
			"0.022": 0.0,
			"0.023": 0.0,
			"0.024": 0.0,
			"0.025": 0.0
		}
	}
}
