{
	 "smiles": "CC(=O)NC1=CC(Cl)=C(F)C=C1[N+]([O-])=O", 
	 "Tm": 384.15, 
	 "num_atms": 21, 
	 "gaussian": { 
		 "optdone": 1, 
		 "sigma_profile": "yes", 
		 "theory": "DFT", 
		 "functional": "B3LYP", 
		 "basiset": "6-31G**", 
		 "properties": { 
			 "R2extent": 3909.7841, 
			 "electric_dipole_moment_norm": 5.21650109748, 
			 "electric_quadrupole_moment_norm": 14.6640851402, 
			 "total_energy": -1203.56833349, 
			 "HOMO_LUMO_gap": 0.16418, 
			 "cosmo_polarized_energy": -17.95, 
			 "cosmo_cavitation_energy": 29.03, 
			 "cosmo_dispersion_energy": -20.69, 
			 "cosmo_repulsion_energy": 1.6, 
			 "cosmo_total_nonelectrostatic_energy": 9.94, 
			 "SMD_solvation_energy": 8.33 
		},
		"coords": [
			{
				"x": 3.0317060797,
				"y": 1.2489679306,
				"z": -2.0925183239,
				"element": "C" 
			},
			{
				"x": 1.806143656,
				"y": 1.2366322573,
				"z": -1.2009279411,
				"element": "C" 
			},
			{
				"x": 1.238893001,
				"y": 2.2449215869,
				"z": -0.8247427002,
				"element": "O" 
			},
			{
				"x": 1.3959220182,
				"y": -0.033086108,
				"z": -0.8080021236,
				"element": "N" 
			},
			{
				"x": 0.2903053539,
				"y": -0.2874024789,
				"z": 0.0206291407,
				"element": "C" 
			},
			{
				"x": -0.628165023,
				"y": -1.2673428224,
				"z": -0.3807389429,
				"element": "C" 
			},
			{
				"x": -1.7610146556,
				"y": -1.556114072,
				"z": 0.3741439473,
				"element": "C" 
			},
			{
				"x": -2.8727308919,
				"y": -2.792846501,
				"z": -0.134220601,
				"element": "Cl" 
			},
			{
				"x": -2.0207013548,
				"y": -0.8195227713,
				"z": 1.5327689964,
				"element": "C" 
			},
			{
				"x": -3.1210651617,
				"y": -1.0677210743,
				"z": 2.252182194,
				"element": "F" 
			},
			{
				"x": -1.137449848,
				"y": 0.1617800518,
				"z": 1.9492350783,
				"element": "C" 
			},
			{
				"x": 0.0241899569,
				"y": 0.4031220569,
				"z": 1.2179670221,
				"element": "C" 
			},
			{
				"x": 0.9818533639,
				"y": 1.339329355,
				"z": 1.8326252179,
				"element": "N" 
			},
			{
				"x": 2.178012938,
				"y": 1.1131711876,
				"z": 1.6740295151,
				"element": "O" 
			},
			{
				"x": 0.5161925667,
				"y": 2.2416392099,
				"z": 2.522194883,
				"element": "O" 
			},
			{
				"x": 3.1111732504,
				"y": 0.3636719169,
				"z": -2.7307547447,
				"element": "H" 
			},
			{
				"x": 3.0045584275,
				"y": 2.1462789584,
				"z": -2.7112144093,
				"element": "H" 
			},
			{
				"x": 3.9238750713,
				"y": 1.2956127299,
				"z": -1.4585834089,
				"element": "H" 
			},
			{
				"x": 1.8082210088,
				"y": -0.8298287397,
				"z": -1.2707020913,
				"element": "H" 
			},
			{
				"x": -0.4663343263,
				"y": -1.7980628802,
				"z": -1.3126629354,
				"element": "H" 
			},
			{
				"x": -1.3330854312,
				"y": 0.7267002068,
				"z": 2.8516922274,
				"element": "H" 
			}
		],
		 "valence_orbital": [ 
			{
				"type": "occ",
				"energy": -0.304,
				"method": "rhf"
			},
			{
				"type": "occ",
				"energy": -0.30118,
				"method": "rhf"
			},
			{
				"type": "occ",
				"energy": -0.28069,
				"method": "rhf"
			},
			{
				"type": "occ",
				"energy": -0.26962,
				"method": "rhf"
			},
			{
				"type": "occ",
				"energy": -0.25531,
				"method": "rhf"
			},
			{
				"type": "unocc",
				"energy": -0.09113,
				"method": "rhf"
			},
			{
				"type": "unocc",
				"energy": -0.04543,
				"method": "rhf"
			},
			{
				"type": "unocc",
				"energy": -0.02025,
				"method": "rhf"
			},
			{
				"type": "unocc",
				"energy": 0.00149,
				"method": "rhf"
			},
			{
				"type": "unocc",
				"energy": 0.01561,
				"method": "rhf"
			}
		],
		"cosmo_sigma_profile": { 
			"-0.025": 0.0,
			"-0.024": 0.0,
			"-0.023": 0.0,
			"-0.022": 0.0,
			"-0.021": 0.0,
			"-0.02": 0.0,
			"-0.019": 0.0,
			"-0.018": 0.0,
			"-0.017": 0.0755209729984,
			"-0.016": 1.34204049591,
			"-0.015": 1.2594285594,
			"-0.014": 2.26700275481,
			"-0.013": 1.44960511924,
			"-0.012": 1.85358109509,
			"-0.011": 1.48810722269,
			"-0.01": 2.92210107375,
			"-0.009": 3.46308736409,
			"-0.008": 4.27483062288,
			"-0.007": 5.46915430899,
			"-0.006": 8.51953629827,
			"-0.005": 9.32166614673,
			"-0.004": 11.488428266,
			"-0.003": 18.0490096314,
			"-0.002": 25.8266232292,
			"-0.001": 20.0348572942,
			"0.0": 12.9046628578,
			"0.001": 9.72979414805,
			"0.002": 13.6294883892,
			"0.003": 20.75010569,
			"0.004": 10.0195079206,
			"0.005": 5.46511547389,
			"0.006": 7.52102338977,
			"0.007": 11.9414846714,
			"0.008": 8.29414980521,
			"0.009": 4.73192071026,
			"0.01": 3.11368066817,
			"0.011": 2.09915762816,
			"0.012": 3.15384099532,
			"0.013": 1.87973736212,
			"0.014": 0.652774858347,
			"0.015": 0.0,
			"0.016": 0.0,
			"0.017": 0.0,
			"0.018": 0.0,
			"0.019": 0.0,
			"0.02": 0.0,
			"0.021": 0.0,
			"0.022": 0.0,
			"0.023": 0.0,
			"0.024": 0.0,
			"0.025": 0.0
		}
	}
}
