{
	 "smiles": "NC(=O)C1CC1", 
	 "Tm": 397.15, 
	 "num_atms": 13, 
	 "gaussian": { 
		 "optdone": 1, 
		 "sigma_profile": "yes", 
		 "theory": "DFT", 
		 "functional": "B3LYP", 
		 "basiset": "6-31G**", 
		 "properties": { 
			 "R2extent": 852.6288, 
			 "electric_dipole_moment_norm": 3.53414598029, 
			 "electric_quadrupole_moment_norm": 8.40963761704, 
			 "total_energy": -286.608934753, 
			 "HOMO_LUMO_gap": 0.27813, 
			 "cosmo_polarized_energy": -12.05, 
			 "cosmo_cavitation_energy": 16.43, 
			 "cosmo_dispersion_energy": -12.29, 
			 "cosmo_repulsion_energy": 1.08, 
			 "cosmo_total_nonelectrostatic_energy": 5.22, 
			 "SMD_solvation_energy": 3.41 
		},
		"coords": [
			{
				"x": -0.5828748571,
				"y": 0.7047015364,
				"z": 1.7373081909,
				"element": "N" 
			},
			{
				"x": 0.6966949663,
				"y": 0.6832087477,
				"z": 1.2545311601,
				"element": "C" 
			},
			{
				"x": 1.6403672402,
				"y": 1.1402574311,
				"z": 1.8899041415,
				"element": "O" 
			},
			{
				"x": 0.8605845189,
				"y": 0.0677907744,
				"z": -0.1022104477,
				"element": "C" 
			},
			{
				"x": 1.9396528252,
				"y": 0.6574465536,
				"z": -0.9930943712,
				"element": "C" 
			},
			{
				"x": 2.157536189,
				"y": -0.6785899519,
				"z": -0.3607880595,
				"element": "C" 
			},
			{
				"x": -0.737042871,
				"y": 1.0949519078,
				"z": 2.6541812037,
				"element": "H" 
			},
			{
				"x": -1.3604181874,
				"y": 0.3096520862,
				"z": 1.2353260213,
				"element": "H" 
			},
			{
				"x": -0.0370429875,
				"y": -0.307518254,
				"z": -0.5870878314,
				"element": "H" 
			},
			{
				"x": 2.4828336325,
				"y": 1.4994099951,
				"z": -0.5771950684,
				"element": "H" 
			},
			{
				"x": 1.7339308253,
				"y": 0.7085575134,
				"z": -2.0576364717,
				"element": "H" 
			},
			{
				"x": 2.1053519364,
				"y": -1.5686377765,
				"z": -0.979897852,
				"element": "H" 
			},
			{
				"x": 2.8461267693,
				"y": -0.7267305633,
				"z": 0.4761593845,
				"element": "H" 
			}
		],
		 "valence_orbital": [ 
			{
				"type": "occ",
				"energy": -0.3624,
				"method": "rhf"
			},
			{
				"type": "occ",
				"energy": -0.30361,
				"method": "rhf"
			},
			{
				"type": "occ",
				"energy": -0.28927,
				"method": "rhf"
			},
			{
				"type": "occ",
				"energy": -0.26138,
				"method": "rhf"
			},
			{
				"type": "occ",
				"energy": -0.24523,
				"method": "rhf"
			},
			{
				"type": "unocc",
				"energy": 0.0329,
				"method": "rhf"
			},
			{
				"type": "unocc",
				"energy": 0.07278,
				"method": "rhf"
			},
			{
				"type": "unocc",
				"energy": 0.09982,
				"method": "rhf"
			},
			{
				"type": "unocc",
				"energy": 0.12877,
				"method": "rhf"
			},
			{
				"type": "unocc",
				"energy": 0.14439,
				"method": "rhf"
			}
		],
		"cosmo_sigma_profile": { 
			"-0.025": 0.0,
			"-0.024": 0.0,
			"-0.023": 0.0,
			"-0.022": 0.0,
			"-0.021": 0.0,
			"-0.02": 0.0,
			"-0.019": 0.0,
			"-0.018": 0.0,
			"-0.017": 0.0,
			"-0.016": 0.0,
			"-0.015": 0.108893088206,
			"-0.014": 1.65680482242,
			"-0.013": 2.77990763149,
			"-0.012": 2.14093509693,
			"-0.011": 2.626951452,
			"-0.01": 2.56934752346,
			"-0.009": 2.07116617625,
			"-0.008": 2.17009477224,
			"-0.007": 2.25276529778,
			"-0.006": 3.19486223312,
			"-0.005": 6.58931599339,
			"-0.004": 10.2480888657,
			"-0.003": 7.8638206596,
			"-0.002": 7.78018779929,
			"-0.001": 8.65374012855,
			"0.0": 8.28561260591,
			"0.001": 8.77182109327,
			"0.002": 10.691842754,
			"0.003": 7.72184204001,
			"0.004": 6.01832655957,
			"0.005": 3.67154828075,
			"0.006": 2.47249545788,
			"0.007": 1.50164995311,
			"0.008": 1.65455324527,
			"0.009": 1.06067648473,
			"0.01": 1.35773867422,
			"0.011": 1.12541499994,
			"0.012": 1.68937334672,
			"0.013": 2.24542299519,
			"0.014": 5.00348175461,
			"0.015": 2.78816059861,
			"0.016": 0.10397032074,
			"0.017": 0.0,
			"0.018": 0.0,
			"0.019": 0.0,
			"0.02": 0.0,
			"0.021": 0.0,
			"0.022": 0.0,
			"0.023": 0.0,
			"0.024": 0.0,
			"0.025": 0.0
		}
	}
}
