{
	 "smiles": "OC(=O)CSC1=CC=C(F)C=C1", 
	 "Tm": 351.15, 
	 "num_atms": 19, 
	 "gaussian": { 
		 "optdone": 1, 
		 "sigma_profile": "yes", 
		 "theory": "DFT", 
		 "functional": "B3LYP", 
		 "basiset": "6-31G**", 
		 "properties": { 
			 "R2extent": 3507.6223, 
			 "electric_dipole_moment_norm": 1.89861415511, 
			 "electric_quadrupole_moment_norm": 5.86774583209, 
			 "total_energy": -957.547275459, 
			 "HOMO_LUMO_gap": 0.19283, 
			 "cosmo_polarized_energy": -10.14, 
			 "cosmo_cavitation_energy": 25.81, 
			 "cosmo_dispersion_energy": -19.11, 
			 "cosmo_repulsion_energy": 1.46, 
			 "cosmo_total_nonelectrostatic_energy": 8.16, 
			 "SMD_solvation_energy": 5.79 
		},
		"coords": [
			{
				"x": -3.9346488114,
				"y": 1.1574934812,
				"z": 2.1162338504,
				"element": "O" 
			},
			{
				"x": -2.9076764529,
				"y": 1.3234137519,
				"z": 1.2560728982,
				"element": "C" 
			},
			{
				"x": -1.8648258363,
				"y": 1.8571748431,
				"z": 1.5707231607,
				"element": "O" 
			},
			{
				"x": -3.2254763314,
				"y": 0.7457995318,
				"z": -0.1068144274,
				"element": "C" 
			},
			{
				"x": -2.6750577218,
				"y": -1.0100358431,
				"z": -0.2523684952,
				"element": "S" 
			},
			{
				"x": -1.0584691071,
				"y": -0.8658640879,
				"z": -1.0160568163,
				"element": "C" 
			},
			{
				"x": -0.7364205807,
				"y": -1.8033734747,
				"z": -2.0078946346,
				"element": "C" 
			},
			{
				"x": 0.5244039042,
				"y": -1.7984392891,
				"z": -2.603327833,
				"element": "C" 
			},
			{
				"x": 1.4440313984,
				"y": -0.8318538756,
				"z": -2.2134584773,
				"element": "C" 
			},
			{
				"x": 2.6600336617,
				"y": -0.8114789605,
				"z": -2.7975605944,
				"element": "F" 
			},
			{
				"x": 1.1450087619,
				"y": 0.115993113,
				"z": -1.2413924015,
				"element": "C" 
			},
			{
				"x": -0.1070053067,
				"y": 0.0883139244,
				"z": -0.6266698878,
				"element": "C" 
			},
			{
				"x": -3.6368923164,
				"y": 1.5079726994,
				"z": 2.9730306629,
				"element": "H" 
			},
			{
				"x": -2.729857774,
				"y": 1.3352551128,
				"z": -0.8786838934,
				"element": "H" 
			},
			{
				"x": -4.3039137287,
				"y": 0.7434554543,
				"z": -0.274245973,
				"element": "H" 
			},
			{
				"x": -1.4760616202,
				"y": -2.5332726401,
				"z": -2.3217980586,
				"element": "H" 
			},
			{
				"x": 0.7909401812,
				"y": -2.5161822991,
				"z": -3.3715343109,
				"element": "H" 
			},
			{
				"x": 1.891857469,
				"y": 0.8514971586,
				"z": -0.9622178306,
				"element": "H" 
			},
			{
				"x": -0.3396697888,
				"y": 0.8100313995,
				"z": 0.1495630616,
				"element": "H" 
			}
		],
		 "valence_orbital": [ 
			{
				"type": "occ",
				"energy": -0.32612,
				"method": "rhf"
			},
			{
				"type": "occ",
				"energy": -0.29686,
				"method": "rhf"
			},
			{
				"type": "occ",
				"energy": -0.27207,
				"method": "rhf"
			},
			{
				"type": "occ",
				"energy": -0.26479,
				"method": "rhf"
			},
			{
				"type": "occ",
				"energy": -0.22184,
				"method": "rhf"
			},
			{
				"type": "unocc",
				"energy": -0.02901,
				"method": "rhf"
			},
			{
				"type": "unocc",
				"energy": -0.01475,
				"method": "rhf"
			},
			{
				"type": "unocc",
				"energy": -0.00429,
				"method": "rhf"
			},
			{
				"type": "unocc",
				"energy": 0.03698,
				"method": "rhf"
			},
			{
				"type": "unocc",
				"energy": 0.06517,
				"method": "rhf"
			}
		],
		"cosmo_sigma_profile": { 
			"-0.025": 0.0,
			"-0.024": 0.0,
			"-0.023": 0.0,
			"-0.022": 0.0,
			"-0.021": 0.0,
			"-0.02": 0.0,
			"-0.019": 0.401872707517,
			"-0.018": 0.86042184553,
			"-0.017": 0.839217316815,
			"-0.016": 1.01940141501,
			"-0.015": 0.775837228134,
			"-0.014": 0.85649198333,
			"-0.013": 0.373278575054,
			"-0.012": 0.63317518448,
			"-0.011": 0.91620912808,
			"-0.01": 0.315219276131,
			"-0.009": 0.767749988757,
			"-0.008": 4.9615454536,
			"-0.007": 9.57234385144,
			"-0.006": 10.7736596307,
			"-0.005": 12.0477987302,
			"-0.004": 10.2123867359,
			"-0.003": 9.52971896888,
			"-0.002": 9.36883195779,
			"-0.001": 9.96233801244,
			"0.0": 14.07776574,
			"0.001": 17.6770688333,
			"0.002": 18.8568126931,
			"0.003": 21.5970976872,
			"0.004": 20.1427517979,
			"0.005": 8.44441443159,
			"0.006": 5.20035596202,
			"0.007": 5.50620718022,
			"0.008": 3.81034016684,
			"0.009": 2.29655493487,
			"0.01": 2.91897236153,
			"0.011": 3.34111463894,
			"0.012": 0.520111457794,
			"0.013": 0.0,
			"0.014": 0.0,
			"0.015": 0.0,
			"0.016": 0.0,
			"0.017": 0.0,
			"0.018": 0.0,
			"0.019": 0.0,
			"0.02": 0.0,
			"0.021": 0.0,
			"0.022": 0.0,
			"0.023": 0.0,
			"0.024": 0.0,
			"0.025": 0.0
		}
	}
}
