{
	 "smiles": "CCS(=O)(=O)NC1=C(C)C=C(N)C=C1", 
	 "Tm": 375.15, 
	 "num_atms": 28, 
	 "gaussian": { 
		 "optdone": 1, 
		 "sigma_profile": "yes", 
		 "theory": "DFT", 
		 "functional": "B3LYP", 
		 "basiset": "6-31G**", 
		 "properties": { 
			 "R2extent": 3794.7887, 
			 "electric_dipole_moment_norm": 5.10667644657, 
			 "electric_quadrupole_moment_norm": 11.8125751223, 
			 "total_energy": -1009.48303512, 
			 "HOMO_LUMO_gap": 0.20707, 
			 "cosmo_polarized_energy": -18.54, 
			 "cosmo_cavitation_energy": 32.16, 
			 "cosmo_dispersion_energy": -23.09, 
			 "cosmo_repulsion_energy": 1.78, 
			 "cosmo_total_nonelectrostatic_energy": 10.84, 
			 "SMD_solvation_energy": 4.9 
		},
		"coords": [
			{
				"x": 2.1162140371,
				"y": 1.79014381,
				"z": -2.9441438793,
				"element": "C" 
			},
			{
				"x": 2.2643081791,
				"y": 1.2136107936,
				"z": -1.5416179724,
				"element": "C" 
			},
			{
				"x": 1.3314935887,
				"y": 2.1291304445,
				"z": -0.2850059416,
				"element": "S" 
			},
			{
				"x": 1.4572994161,
				"y": 3.5708046889,
				"z": -0.536947966,
				"element": "O" 
			},
			{
				"x": 1.7030813013,
				"y": 1.5581302957,
				"z": 1.0145900303,
				"element": "O" 
			},
			{
				"x": -0.2873665859,
				"y": 1.773086909,
				"z": -0.6854357461,
				"element": "N" 
			},
			{
				"x": -0.9591333267,
				"y": 0.6336864074,
				"z": -0.1112290662,
				"element": "C" 
			},
			{
				"x": -1.4630737323,
				"y": -0.3644479444,
				"z": -0.9689985804,
				"element": "C" 
			},
			{
				"x": -1.3015200674,
				"y": -0.2736904831,
				"z": -2.4679581797,
				"element": "C" 
			},
			{
				"x": -2.1389481378,
				"y": -1.4500375927,
				"z": -0.4085296167,
				"element": "C" 
			},
			{
				"x": -2.3257777736,
				"y": -1.5754764116,
				"z": 0.9785997389,
				"element": "C" 
			},
			{
				"x": -3.0495647776,
				"y": -2.6428484156,
				"z": 1.5032971672,
				"element": "N" 
			},
			{
				"x": -1.8185641583,
				"y": -0.568419713,
				"z": 1.8168992775,
				"element": "C" 
			},
			{
				"x": -1.1488739585,
				"y": 0.5189606999,
				"z": 1.2716803458,
				"element": "C" 
			},
			{
				"x": 1.0754878064,
				"y": 1.7560884354,
				"z": -3.2749366346,
				"element": "H" 
			},
			{
				"x": 2.7219150751,
				"y": 1.2090092039,
				"z": -3.6463224338,
				"element": "H" 
			},
			{
				"x": 2.4525592637,
				"y": 2.8288899259,
				"z": -2.9705047137,
				"element": "H" 
			},
			{
				"x": 1.9205812333,
				"y": 0.1780481488,
				"z": -1.4629257768,
				"element": "H" 
			},
			{
				"x": 3.2968696605,
				"y": 1.253722396,
				"z": -1.1824826801,
				"element": "H" 
			},
			{
				"x": -0.7899584062,
				"y": 2.6560962754,
				"z": -0.6274336997,
				"element": "H" 
			},
			{
				"x": -0.2524830542,
				"y": -0.3709352297,
				"z": -2.7687830903,
				"element": "H" 
			},
			{
				"x": -1.6486959487,
				"y": 0.6907744686,
				"z": -2.8500700149,
				"element": "H" 
			},
			{
				"x": -1.865640848,
				"y": -1.065028355,
				"z": -2.9685475787,
				"element": "H" 
			},
			{
				"x": -2.5412623821,
				"y": -2.217586775,
				"z": -1.0661323182,
				"element": "H" 
			},
			{
				"x": -3.0875382819,
				"y": -3.4715780628,
				"z": 0.9267685781,
				"element": "H" 
			},
			{
				"x": -2.8672102781,
				"y": -2.8580485352,
				"z": 2.4734178489,
				"element": "H" 
			},
			{
				"x": -1.9547395893,
				"y": -0.6395235232,
				"z": 2.8927897256,
				"element": "H" 
			},
			{
				"x": -0.744658255,
				"y": 1.2855381385,
				"z": 1.923363177,
				"element": "H" 
			}
		],
		 "valence_orbital": [ 
			{
				"type": "occ",
				"energy": -0.29959,
				"method": "rhf"
			},
			{
				"type": "occ",
				"energy": -0.2875,
				"method": "rhf"
			},
			{
				"type": "occ",
				"energy": -0.26815,
				"method": "rhf"
			},
			{
				"type": "occ",
				"energy": -0.24592,
				"method": "rhf"
			},
			{
				"type": "occ",
				"energy": -0.20742,
				"method": "rhf"
			},
			{
				"type": "unocc",
				"energy": -0.00035,
				"method": "rhf"
			},
			{
				"type": "unocc",
				"energy": -0.00013,
				"method": "rhf"
			},
			{
				"type": "unocc",
				"energy": 0.06361,
				"method": "rhf"
			},
			{
				"type": "unocc",
				"energy": 0.073,
				"method": "rhf"
			},
			{
				"type": "unocc",
				"energy": 0.07821,
				"method": "rhf"
			}
		],
		"cosmo_sigma_profile": { 
			"-0.025": 0.0,
			"-0.024": 0.0,
			"-0.023": 0.0,
			"-0.022": 0.0,
			"-0.021": 0.0,
			"-0.02": 0.0,
			"-0.019": 0.0,
			"-0.018": 0.0,
			"-0.017": 0.0,
			"-0.016": 0.0,
			"-0.015": 0.0,
			"-0.014": 0.564877071002,
			"-0.013": 1.52653178571,
			"-0.012": 3.23580896806,
			"-0.011": 3.69257690099,
			"-0.01": 3.78403437475,
			"-0.009": 4.49491669668,
			"-0.008": 5.77058179951,
			"-0.007": 6.75101141788,
			"-0.006": 10.4759455751,
			"-0.005": 16.4599324649,
			"-0.004": 20.0260952364,
			"-0.003": 20.7238010856,
			"-0.002": 17.8155743697,
			"-0.001": 19.730926375,
			"0.0": 17.219117447,
			"0.001": 11.7076457525,
			"0.002": 9.73154028277,
			"0.003": 9.35229222591,
			"0.004": 8.0922668062,
			"0.005": 10.2848200193,
			"0.006": 12.1265419076,
			"0.007": 4.1414733305,
			"0.008": 3.98983055202,
			"0.009": 5.13144785674,
			"0.01": 5.11048513475,
			"0.011": 10.78746509,
			"0.012": 8.28786210973,
			"0.013": 1.29378635824,
			"0.014": 0.573146745609,
			"0.015": 0.0,
			"0.016": 0.0,
			"0.017": 0.0,
			"0.018": 0.0,
			"0.019": 0.0,
			"0.02": 0.0,
			"0.021": 0.0,
			"0.022": 0.0,
			"0.023": 0.0,
			"0.024": 0.0,
			"0.025": 0.0
		}
	}
}
