{
	 "smiles": "NC(=S)C1=C(F)C=C(F)C=C1", 
	 "Tm": 404.15, 
	 "num_atms": 16, 
	 "gaussian": { 
		 "optdone": 1, 
		 "sigma_profile": "yes", 
		 "theory": "DFT", 
		 "functional": "B3LYP", 
		 "basiset": "6-31G**", 
		 "properties": { 
			 "R2extent": 2355.3333, 
			 "electric_dipole_moment_norm": 4.78119476805, 
			 "electric_quadrupole_moment_norm": 17.3057106803, 
			 "total_energy": -922.366733236, 
			 "HOMO_LUMO_gap": 0.1524, 
			 "cosmo_polarized_energy": -15.96, 
			 "cosmo_cavitation_energy": 23.38, 
			 "cosmo_dispersion_energy": -17.27, 
			 "cosmo_repulsion_energy": 1.32, 
			 "cosmo_total_nonelectrostatic_energy": 7.43, 
			 "SMD_solvation_energy": 4.15 
		},
		"coords": [
			{
				"x": -2.9057177961,
				"y": 1.6251979732,
				"z": 1.1470132886,
				"element": "N" 
			},
			{
				"x": -2.2940540365,
				"y": 0.4196808433,
				"z": 1.2311460832,
				"element": "C" 
			},
			{
				"x": -2.8318253525,
				"y": -0.7808990276,
				"z": 2.2464947873,
				"element": "S" 
			},
			{
				"x": -1.0619801214,
				"y": 0.3128517816,
				"z": 0.3992670394,
				"element": "C" 
			},
			{
				"x": -0.7963742784,
				"y": -0.7923296579,
				"z": -0.4249674887,
				"element": "C" 
			},
			{
				"x": -1.6951589334,
				"y": -1.7772219837,
				"z": -0.53944764,
				"element": "F" 
			},
			{
				"x": 0.367477518,
				"y": -0.8959528312,
				"z": -1.1770028574,
				"element": "C" 
			},
			{
				"x": 1.2973678449,
				"y": 0.1332664882,
				"z": -1.0923682309,
				"element": "C" 
			},
			{
				"x": 2.4300344118,
				"y": 0.0391086367,
				"z": -1.8099852479,
				"element": "F" 
			},
			{
				"x": 1.0897998048,
				"y": 1.2532666359,
				"z": -0.2943835576,
				"element": "C" 
			},
			{
				"x": -0.0931730643,
				"y": 1.3320223556,
				"z": 0.4357596631,
				"element": "C" 
			},
			{
				"x": -3.7452030277,
				"y": 1.7739137874,
				"z": 1.6889056787,
				"element": "H" 
			},
			{
				"x": -2.6802118031,
				"y": 2.2760928959,
				"z": 0.408979672,
				"element": "H" 
			},
			{
				"x": 0.5358696769,
				"y": -1.7564181514,
				"z": -1.8127988642,
				"element": "H" 
			},
			{
				"x": 1.8429784357,
				"y": 2.0311340714,
				"z": -0.2473695654,
				"element": "H" 
			},
			{
				"x": -0.2627292786,
				"y": 2.1871861827,
				"z": 1.08235724,
				"element": "H" 
			}
		],
		 "valence_orbital": [ 
			{
				"type": "occ",
				"energy": -0.3581,
				"method": "rhf"
			},
			{
				"type": "occ",
				"energy": -0.27555,
				"method": "rhf"
			},
			{
				"type": "occ",
				"energy": -0.26332,
				"method": "rhf"
			},
			{
				"type": "occ",
				"energy": -0.23373,
				"method": "rhf"
			},
			{
				"type": "occ",
				"energy": -0.21003,
				"method": "rhf"
			},
			{
				"type": "unocc",
				"energy": -0.05763,
				"method": "rhf"
			},
			{
				"type": "unocc",
				"energy": -0.02568,
				"method": "rhf"
			},
			{
				"type": "unocc",
				"energy": 0.0027,
				"method": "rhf"
			},
			{
				"type": "unocc",
				"energy": 0.06691,
				"method": "rhf"
			},
			{
				"type": "unocc",
				"energy": 0.07525,
				"method": "rhf"
			}
		],
		"cosmo_sigma_profile": { 
			"-0.025": 0.0,
			"-0.024": 0.0,
			"-0.023": 0.0,
			"-0.022": 0.0,
			"-0.021": 0.0,
			"-0.02": 0.0,
			"-0.019": 0.0,
			"-0.018": 0.0,
			"-0.017": 0.0,
			"-0.016": 0.314430551996,
			"-0.015": 2.25496841363,
			"-0.014": 2.40704595219,
			"-0.013": 2.64218896284,
			"-0.012": 2.2576014563,
			"-0.011": 2.17055736926,
			"-0.01": 2.39657784443,
			"-0.009": 2.81721668263,
			"-0.008": 6.51135104562,
			"-0.007": 6.59306853343,
			"-0.006": 7.39557849391,
			"-0.005": 6.34083119985,
			"-0.004": 6.19985363213,
			"-0.003": 6.38649159074,
			"-0.002": 7.57122287349,
			"-0.001": 12.6824293239,
			"0.0": 18.9772472776,
			"0.001": 14.4358715964,
			"0.002": 11.9560584152,
			"0.003": 15.3925637338,
			"0.004": 13.8599549458,
			"0.005": 5.67089452046,
			"0.006": 4.78139541834,
			"0.007": 5.24444483044,
			"0.008": 7.45951228699,
			"0.009": 6.43583934786,
			"0.01": 4.6639766823,
			"0.011": 3.4763402403,
			"0.012": 1.31594235817,
			"0.013": 0.0,
			"0.014": 0.0,
			"0.015": 0.0,
			"0.016": 0.0,
			"0.017": 0.0,
			"0.018": 0.0,
			"0.019": 0.0,
			"0.02": 0.0,
			"0.021": 0.0,
			"0.022": 0.0,
			"0.023": 0.0,
			"0.024": 0.0,
			"0.025": 0.0
		}
	}
}
