{
	 "smiles": "CC1=CC(C)=NC(SCC(O)=O)=N1", 
	 "Tm": 404.15, 
	 "num_atms": 23, 
	 "gaussian": { 
		 "optdone": 1, 
		 "sigma_profile": "yes", 
		 "theory": "DFT", 
		 "functional": "B3LYP", 
		 "basiset": "6-31G**", 
		 "properties": { 
			 "R2extent": 3234.1857, 
			 "electric_dipole_moment_norm": 2.88067953442, 
			 "electric_quadrupole_moment_norm": 11.2800165691, 
			 "total_energy": -969.042477242, 
			 "HOMO_LUMO_gap": 0.1916, 
			 "cosmo_polarized_energy": -14.97, 
			 "cosmo_cavitation_energy": 29.31, 
			 "cosmo_dispersion_energy": -21.06, 
			 "cosmo_repulsion_energy": 1.67, 
			 "cosmo_total_nonelectrostatic_energy": 9.92, 
			 "SMD_solvation_energy": 4.09 
		},
		"coords": [
			{
				"x": -2.2433679456,
				"y": 1.5667086978,
				"z": 3.1570172722,
				"element": "C" 
			},
			{
				"x": -1.548582753,
				"y": 0.9210533748,
				"z": 1.9873442576,
				"element": "C" 
			},
			{
				"x": -0.4572776292,
				"y": 0.0566469447,
				"z": 2.1649017979,
				"element": "C" 
			},
			{
				"x": 0.1305928167,
				"y": -0.4974123328,
				"z": 1.0303455311,
				"element": "C" 
			},
			{
				"x": 1.2957623028,
				"y": -1.4463453038,
				"z": 1.0976119566,
				"element": "C" 
			},
			{
				"x": -0.3361385812,
				"y": -0.2068056324,
				"z": -0.2002489558,
				"element": "N" 
			},
			{
				"x": -1.3747607315,
				"y": 0.6221812625,
				"z": -0.2592465451,
				"element": "C" 
			},
			{
				"x": -2.0379178872,
				"y": 1.0511943113,
				"z": -1.8510969335,
				"element": "S" 
			},
			{
				"x": -0.9827590644,
				"y": 0.0382709928,
				"z": -2.9414555088,
				"element": "C" 
			},
			{
				"x": 0.5048379865,
				"y": 0.3482788862,
				"z": -2.9924728099,
				"element": "C" 
			},
			{
				"x": 0.7972446886,
				"y": 1.6449868127,
				"z": -2.7647677034,
				"element": "O" 
			},
			{
				"x": 1.3414413589,
				"y": -0.4778394589,
				"z": -3.2793907042,
				"element": "O" 
			},
			{
				"x": -2.0130085784,
				"y": 1.2058460418,
				"z": 0.7650464847,
				"element": "N" 
			},
			{
				"x": -2.6328228228,
				"y": 0.8094446097,
				"z": 3.8464041395,
				"element": "H" 
			},
			{
				"x": -1.547398554,
				"y": 2.1942251849,
				"z": 3.7249356001,
				"element": "H" 
			},
			{
				"x": -3.0693315327,
				"y": 2.1843208286,
				"z": 2.8022661487,
				"element": "H" 
			},
			{
				"x": -0.0824779393,
				"y": -0.1720547348,
				"z": 3.157103547,
				"element": "H" 
			},
			{
				"x": 2.0748985546,
				"y": -1.1348845013,
				"z": 0.3961213487,
				"element": "H" 
			},
			{
				"x": 1.7150694142,
				"y": -1.5034754575,
				"z": 2.104914463,
				"element": "H" 
			},
			{
				"x": 0.9790735641,
				"y": -2.4504084786,
				"z": 0.7942365343,
				"element": "H" 
			},
			{
				"x": -1.0804948028,
				"y": -1.0189544375,
				"z": -2.6966216356,
				"element": "H" 
			},
			{
				"x": -1.3934508784,
				"y": 0.1989290185,
				"z": -3.9448971813,
				"element": "H" 
			},
			{
				"x": 1.761769014,
				"y": 1.7181933715,
				"z": -2.8576511037,
				"element": "H" 
			}
		],
		 "valence_orbital": [ 
			{
				"type": "occ",
				"energy": -0.301,
				"method": "rhf"
			},
			{
				"type": "occ",
				"energy": -0.29774,
				"method": "rhf"
			},
			{
				"type": "occ",
				"energy": -0.27328,
				"method": "rhf"
			},
			{
				"type": "occ",
				"energy": -0.25483,
				"method": "rhf"
			},
			{
				"type": "occ",
				"energy": -0.22823,
				"method": "rhf"
			},
			{
				"type": "unocc",
				"energy": -0.03663,
				"method": "rhf"
			},
			{
				"type": "unocc",
				"energy": -0.02236,
				"method": "rhf"
			},
			{
				"type": "unocc",
				"energy": 0.00831,
				"method": "rhf"
			},
			{
				"type": "unocc",
				"energy": 0.04015,
				"method": "rhf"
			},
			{
				"type": "unocc",
				"energy": 0.07839,
				"method": "rhf"
			}
		],
		"cosmo_sigma_profile": { 
			"-0.025": 0.0,
			"-0.024": 0.0,
			"-0.023": 0.0,
			"-0.022": 0.0,
			"-0.021": 0.0,
			"-0.02": 0.0,
			"-0.019": 0.193567053657,
			"-0.018": 0.726732354459,
			"-0.017": 1.07694228585,
			"-0.016": 0.861360108037,
			"-0.015": 0.741159035372,
			"-0.014": 0.627996950589,
			"-0.013": 0.719545826214,
			"-0.012": 0.852611859898,
			"-0.011": 0.774815138736,
			"-0.01": 1.47119304911,
			"-0.009": 3.38094134072,
			"-0.008": 2.90272797716,
			"-0.007": 5.7011885126,
			"-0.006": 8.79338058719,
			"-0.005": 16.8287457897,
			"-0.004": 18.2350101082,
			"-0.003": 16.6823156188,
			"-0.002": 18.5347120131,
			"-0.001": 23.9596811129,
			"0.0": 18.3132478727,
			"0.001": 13.4435991468,
			"0.002": 7.11044069575,
			"0.003": 8.63689028497,
			"0.004": 10.8030916607,
			"0.005": 11.4700993359,
			"0.006": 6.21121156753,
			"0.007": 6.25783293975,
			"0.008": 6.60360236514,
			"0.009": 5.47675335652,
			"0.01": 4.85478654609,
			"0.011": 5.85492301014,
			"0.012": 4.59094797909,
			"0.013": 1.26268857363,
			"0.014": 0.346368384113,
			"0.015": 0.0,
			"0.016": 0.0,
			"0.017": 0.0,
			"0.018": 0.0,
			"0.019": 0.0,
			"0.02": 0.0,
			"0.021": 0.0,
			"0.022": 0.0,
			"0.023": 0.0,
			"0.024": 0.0,
			"0.025": 0.0
		}
	}
}
