{
	 "smiles": "OS(=O)(=O)C1=CC2=C(N=C(O2)C2=CC=CC=C2)C2=CC=CC(NC(=O)C3=CC=CC=C3)=C12", 
	 "Tm": 549.15, 
	 "num_atms": 48, 
	 "gaussian": { 
		 "optdone": 1, 
		 "sigma_profile": "yes", 
		 "theory": "DFT", 
		 "functional": "B3LYP", 
		 "basiset": "6-31G**", 
		 "properties": { 
			 "R2extent": 16541.0417, 
			 "electric_dipole_moment_norm": 8.87865942471, 
			 "electric_quadrupole_moment_norm": 29.3105098929, 
			 "total_energy": -1807.95211735, 
			 "HOMO_LUMO_gap": 0.14324, 
			 "cosmo_polarized_energy": -26.15, 
			 "cosmo_cavitation_energy": 53.93, 
			 "cosmo_dispersion_energy": -37.7, 
			 "cosmo_repulsion_energy": 2.73, 
			 "cosmo_total_nonelectrostatic_energy": 18.95, 
			 "SMD_solvation_energy": 7.47 
		},
		"coords": [
			{
				"x": 2.4547462927,
				"y": -1.8852322572,
				"z": -3.0644196901,
				"element": "O" 
			},
			{
				"x": 3.0647131586,
				"y": -0.7400400946,
				"z": -2.0447854237,
				"element": "S" 
			},
			{
				"x": 3.8712565393,
				"y": -1.4758976709,
				"z": -1.0866821536,
				"element": "O" 
			},
			{
				"x": 3.6186380216,
				"y": 0.2875190155,
				"z": -2.9325978662,
				"element": "O" 
			},
			{
				"x": 1.5470222765,
				"y": -0.1130774512,
				"z": -1.2812515267,
				"element": "C" 
			},
			{
				"x": 0.4280426577,
				"y": -0.9120904701,
				"z": -1.4594666023,
				"element": "C" 
			},
			{
				"x": -0.7885911167,
				"y": -0.4036862794,
				"z": -1.0076087716,
				"element": "C" 
			},
			{
				"x": -0.940173093,
				"y": 0.8559701085,
				"z": -0.4597897955,
				"element": "C" 
			},
			{
				"x": -2.2777844236,
				"y": 1.0760024694,
				"z": -0.1877401211,
				"element": "N" 
			},
			{
				"x": -2.8734904845,
				"y": -0.0250494032,
				"z": -0.5622001029,
				"element": "C" 
			},
			{
				"x": -2.0273173656,
				"y": -0.9816731964,
				"z": -1.0793452387,
				"element": "O" 
			},
			{
				"x": -4.29397152,
				"y": -0.34134469,
				"z": -0.4917660929,
				"element": "C" 
			},
			{
				"x": -4.7851312821,
				"y": -1.5816252762,
				"z": -0.931320047,
				"element": "C" 
			},
			{
				"x": -6.1484103116,
				"y": -1.8554892986,
				"z": -0.8519175153,
				"element": "C" 
			},
			{
				"x": -7.0285589235,
				"y": -0.9009022754,
				"z": -0.3367157329,
				"element": "C" 
			},
			{
				"x": -6.5416714905,
				"y": 0.3343755212,
				"z": 0.1016084926,
				"element": "C" 
			},
			{
				"x": -5.1817098651,
				"y": 0.6172143777,
				"z": 0.026504044,
				"element": "C" 
			},
			{
				"x": 0.1888540633,
				"y": 1.6956582434,
				"z": -0.26061723,
				"element": "C" 
			},
			{
				"x": 0.0363322117,
				"y": 2.9953830613,
				"z": 0.2708656491,
				"element": "C" 
			},
			{
				"x": 1.1374206777,
				"y": 3.7963394463,
				"z": 0.4683546996,
				"element": "C" 
			},
			{
				"x": 2.4196843792,
				"y": 3.2799152162,
				"z": 0.2059179962,
				"element": "C" 
			},
			{
				"x": 2.6132867271,
				"y": 1.9955868291,
				"z": -0.2777810329,
				"element": "C" 
			},
			{
				"x": 3.95536973,
				"y": 1.5397665734,
				"z": -0.4185972434,
				"element": "N" 
			},
			{
				"x": 4.7961641603,
				"y": 0.8999766072,
				"z": 0.4864791789,
				"element": "C" 
			},
			{
				"x": 5.9649695212,
				"y": 0.7216056798,
				"z": 0.1746216304,
				"element": "O" 
			},
			{
				"x": 4.2613453609,
				"y": 0.3630916145,
				"z": 1.7869317142,
				"element": "C" 
			},
			{
				"x": 3.3394977813,
				"y": 1.0099976885,
				"z": 2.6216579735,
				"element": "C" 
			},
			{
				"x": 2.9693901475,
				"y": 0.4359946391,
				"z": 3.840074809,
				"element": "C" 
			},
			{
				"x": 3.5034548778,
				"y": -0.7910014508,
				"z": 4.2322609113,
				"element": "C" 
			},
			{
				"x": 4.4273770599,
				"y": -1.4386185415,
				"z": 3.4077236147,
				"element": "C" 
			},
			{
				"x": 4.8133326902,
				"y": -0.8596189077,
				"z": 2.2024517177,
				"element": "C" 
			},
			{
				"x": 1.4878735678,
				"y": 1.1737252544,
				"z": -0.6170503655,
				"element": "C" 
			},
			{
				"x": 2.4603734865,
				"y": -1.4810076948,
				"z": -3.9484809711,
				"element": "H" 
			},
			{
				"x": 0.4906635547,
				"y": -1.8669985117,
				"z": -1.9623427072,
				"element": "H" 
			},
			{
				"x": -4.098892377,
				"y": -2.3207018831,
				"z": -1.3299107284,
				"element": "H" 
			},
			{
				"x": -6.5244442256,
				"y": -2.8155328563,
				"z": -1.1922143758,
				"element": "H" 
			},
			{
				"x": -8.0908374967,
				"y": -1.1184708128,
				"z": -0.2763964589,
				"element": "H" 
			},
			{
				"x": -7.2245616669,
				"y": 1.0772380039,
				"z": 0.5025905708,
				"element": "H" 
			},
			{
				"x": -4.7878958828,
				"y": 1.570222197,
				"z": 0.3625354997,
				"element": "H" 
			},
			{
				"x": -0.9664440284,
				"y": 3.3342917766,
				"z": 0.5081219658,
				"element": "H" 
			},
			{
				"x": 1.0279920705,
				"y": 4.8043582368,
				"z": 0.8558275569,
				"element": "H" 
			},
			{
				"x": 3.3021917415,
				"y": 3.8749286659,
				"z": 0.4193148284,
				"element": "H" 
			},
			{
				"x": 4.4373436498,
				"y": 1.754831406,
				"z": -1.2847039307,
				"element": "H" 
			},
			{
				"x": 2.9203102819,
				"y": 1.96817341,
				"z": 2.3438693953,
				"element": "H" 
			},
			{
				"x": 2.26364218,
				"y": 0.954225481,
				"z": 4.4831873525,
				"element": "H" 
			},
			{
				"x": 3.2070010971,
				"y": -1.2377305706,
				"z": 5.1772438993,
				"element": "H" 
			},
			{
				"x": 4.851589511,
				"y": -2.3925160341,
				"z": 3.7077242674,
				"element": "H" 
			},
			{
				"x": 5.5406060783,
				"y": -1.3403858958,
				"z": 1.5585339571,
				"element": "H" 
			}
		],
		 "valence_orbital": [ 
			{
				"type": "occ",
				"energy": -0.2542,
				"method": "rhf"
			},
			{
				"type": "occ",
				"energy": -0.2504,
				"method": "rhf"
			},
			{
				"type": "occ",
				"energy": -0.2457,
				"method": "rhf"
			},
			{
				"type": "occ",
				"energy": -0.23479,
				"method": "rhf"
			},
			{
				"type": "occ",
				"energy": -0.22721,
				"method": "rhf"
			},
			{
				"type": "unocc",
				"energy": -0.08397,
				"method": "rhf"
			},
			{
				"type": "unocc",
				"energy": -0.0534,
				"method": "rhf"
			},
			{
				"type": "unocc",
				"energy": -0.03349,
				"method": "rhf"
			},
			{
				"type": "unocc",
				"energy": -0.02094,
				"method": "rhf"
			},
			{
				"type": "unocc",
				"energy": -0.02003,
				"method": "rhf"
			}
		],
		"cosmo_sigma_profile": { 
			"-0.025": 0.0,
			"-0.024": 0.0,
			"-0.023": 0.0,
			"-0.022": 0.0,
			"-0.021": 0.0300124219978,
			"-0.02": 0.535164834023,
			"-0.019": 0.908031229215,
			"-0.018": 1.39377010877,
			"-0.017": 0.155392718505,
			"-0.016": 0.537874530864,
			"-0.015": 0.368765221152,
			"-0.014": 1.00118359423,
			"-0.013": 1.13351536306,
			"-0.012": 1.45803212719,
			"-0.011": 1.05866574746,
			"-0.01": 1.59005241677,
			"-0.009": 1.88183770692,
			"-0.008": 3.21674748191,
			"-0.007": 10.4841982769,
			"-0.006": 24.3983675119,
			"-0.005": 32.3232187037,
			"-0.004": 33.1255052926,
			"-0.003": 27.3201293525,
			"-0.002": 31.9213773087,
			"-0.001": 32.1688475772,
			"0.0": 33.9191656225,
			"0.001": 36.6505072141,
			"0.002": 30.0972939165,
			"0.003": 29.6367981495,
			"0.004": 26.8271996079,
			"0.005": 14.1684077973,
			"0.006": 7.75872676074,
			"0.007": 7.51779746029,
			"0.008": 9.38156321187,
			"0.009": 9.53155153939,
			"0.01": 9.00304303004,
			"0.011": 3.33631102861,
			"0.012": 2.61213398395,
			"0.013": 5.29741130606,
			"0.014": 2.15907273975,
			"0.015": 0.0,
			"0.016": 0.0,
			"0.017": 0.0,
			"0.018": 0.0,
			"0.019": 0.0,
			"0.02": 0.0,
			"0.021": 0.0,
			"0.022": 0.0,
			"0.023": 0.0,
			"0.024": 0.0,
			"0.025": 0.0
		}
	}
}
