{
	 "smiles": "CC(C)(C)C1=CC(=CC(=C1O)C(C)(C)C)C(=S)NC1=CC=CC=C1", 
	 "Tm": 501.15, 
	 "num_atms": 51, 
	 "gaussian": { 
		 "optdone": 1, 
		 "sigma_profile": "yes", 
		 "theory": "DFT", 
		 "functional": "B3LYP", 
		 "basiset": "6-31G**", 
		 "properties": { 
			 "R2extent": 9729.7361, 
			 "electric_dipole_moment_norm": 3.93159404568, 
			 "electric_quadrupole_moment_norm": 28.9459268632, 
			 "total_energy": -1344.69588421, 
			 "HOMO_LUMO_gap": 0.14138, 
			 "cosmo_polarized_energy": -15.12, 
			 "cosmo_cavitation_energy": 51.21, 
			 "cosmo_dispersion_energy": -33.5, 
			 "cosmo_repulsion_energy": 2.53, 
			 "cosmo_total_nonelectrostatic_energy": 20.24, 
			 "SMD_solvation_energy": 7.91 
		},
		"coords": [
			{
				"x": -3.4807105453,
				"y": -2.6581774404,
				"z": -0.4096275111,
				"element": "C" 
			},
			{
				"x": -2.0051987616,
				"y": -2.5992826441,
				"z": -0.8598529345,
				"element": "C" 
			},
			{
				"x": -1.4357924476,
				"y": -4.0297496252,
				"z": -0.6526573052,
				"element": "C" 
			},
			{
				"x": -2.0275489761,
				"y": -2.2179142427,
				"z": -2.3653425622,
				"element": "C" 
			},
			{
				"x": -1.1959142544,
				"y": -1.5620670698,
				"z": -0.0404376319,
				"element": "C" 
			},
			{
				"x": -1.8099640439,
				"y": -0.822707044,
				"z": 0.9715326164,
				"element": "C" 
			},
			{
				"x": -1.1184250018,
				"y": 0.1342384521,
				"z": 1.7204201018,
				"element": "C" 
			},
			{
				"x": 0.2452489358,
				"y": 0.3351279392,
				"z": 1.4611048087,
				"element": "C" 
			},
			{
				"x": 0.9323700758,
				"y": -0.3817282916,
				"z": 0.4825182996,
				"element": "C" 
			},
			{
				"x": 0.1841644743,
				"y": -1.3237761633,
				"z": -0.2683766281,
				"element": "C" 
			},
			{
				"x": 0.8753716007,
				"y": -2.0023989608,
				"z": -1.2376497067,
				"element": "O" 
			},
			{
				"x": 2.4415388344,
				"y": -0.149252583,
				"z": 0.235506538,
				"element": "C" 
			},
			{
				"x": 3.0177848404,
				"y": 0.9164348038,
				"z": 1.1916647467,
				"element": "C" 
			},
			{
				"x": 2.674262958,
				"y": 0.3607482324,
				"z": -1.2088341487,
				"element": "C" 
			},
			{
				"x": 3.2368229724,
				"y": -1.456506623,
				"z": 0.4759891452,
				"element": "C" 
			},
			{
				"x": -1.8034099598,
				"y": 0.853334508,
				"z": 2.8200292136,
				"element": "C" 
			},
			{
				"x": -2.9159334433,
				"y": 0.1053158578,
				"z": 3.824783609,
				"element": "S" 
			},
			{
				"x": -1.4562606307,
				"y": 2.1524570105,
				"z": 3.0694603221,
				"element": "N" 
			},
			{
				"x": -0.9130006264,
				"y": 3.153840512,
				"z": 2.2212857533,
				"element": "C" 
			},
			{
				"x": -0.1756090347,
				"y": 4.1852662081,
				"z": 2.8197836317,
				"element": "C" 
			},
			{
				"x": 0.3329614371,
				"y": 5.2260705846,
				"z": 2.0443970154,
				"element": "C" 
			},
			{
				"x": 0.1213138024,
				"y": 5.244462756,
				"z": 0.6647961455,
				"element": "C" 
			},
			{
				"x": -0.6183642401,
				"y": 4.219044848,
				"z": 0.070842007,
				"element": "C" 
			},
			{
				"x": -1.1455167024,
				"y": 3.1823204901,
				"z": 0.838870611,
				"element": "C" 
			},
			{
				"x": -4.0117506801,
				"y": -3.400884178,
				"z": -1.0134889148,
				"element": "H" 
			},
			{
				"x": -3.9883950997,
				"y": -1.6986118528,
				"z": -0.545652945,
				"element": "H" 
			},
			{
				"x": -3.5782084558,
				"y": -2.9528432288,
				"z": 0.6391565133,
				"element": "H" 
			},
			{
				"x": -1.4990682536,
				"y": -4.3092585272,
				"z": 0.403174492,
				"element": "H" 
			},
			{
				"x": -2.0177643974,
				"y": -4.7539856956,
				"z": -1.2325538746,
				"element": "H" 
			},
			{
				"x": -0.3872192662,
				"y": -4.1522605325,
				"z": -0.9435650438,
				"element": "H" 
			},
			{
				"x": -2.5098587415,
				"y": -1.2447479007,
				"z": -2.4990869254,
				"element": "H" 
			},
			{
				"x": -2.5984700879,
				"y": -2.9601201412,
				"z": -2.9334579871,
				"element": "H" 
			},
			{
				"x": -1.0397932982,
				"y": -2.1419981213,
				"z": -2.8308038062,
				"element": "H" 
			},
			{
				"x": -2.8535771928,
				"y": -0.9754593646,
				"z": 1.2081776303,
				"element": "H" 
			},
			{
				"x": 0.7810698798,
				"y": 1.0550857297,
				"z": 2.0632366128,
				"element": "H" 
			},
			{
				"x": 0.2949370302,
				"y": -2.6392132018,
				"z": -1.6661271573,
				"element": "H" 
			},
			{
				"x": 4.083179428,
				"y": 1.0481578213,
				"z": 0.9777794898,
				"element": "H" 
			},
			{
				"x": 2.5349449096,
				"y": 1.8910524112,
				"z": 1.0659852204,
				"element": "H" 
			},
			{
				"x": 2.9298440067,
				"y": 0.6195841645,
				"z": 2.2421396404,
				"element": "H" 
			},
			{
				"x": 2.1444987429,
				"y": 1.305549616,
				"z": -1.3726763958,
				"element": "H" 
			},
			{
				"x": 2.3348313334,
				"y": -0.3583312461,
				"z": -1.9546331177,
				"element": "H" 
			},
			{
				"x": 3.7428260646,
				"y": 0.5436253451,
				"z": -1.3703467148,
				"element": "H" 
			},
			{
				"x": 3.1037443006,
				"y": -1.8043971066,
				"z": 1.5061484934,
				"element": "H" 
			},
			{
				"x": 4.3062651941,
				"y": -1.2742734451,
				"z": 0.3197293426,
				"element": "H" 
			},
			{
				"x": 2.9246476754,
				"y": -2.2536647123,
				"z": -0.1987918938,
				"element": "H" 
			},
			{
				"x": -1.838339247,
				"y": 2.4921548017,
				"z": 3.945008645,
				"element": "H" 
			},
			{
				"x": 0.0018198993,
				"y": 4.1614192868,
				"z": 3.8916439751,
				"element": "H" 
			},
			{
				"x": 0.9018024845,
				"y": 6.0188881826,
				"z": 2.5212180638,
				"element": "H" 
			},
			{
				"x": 0.5221993584,
				"y": 6.051683192,
				"z": 0.0596313469,
				"element": "H" 
			},
			{
				"x": -0.8029346108,
				"y": 4.2317614797,
				"z": -0.9994505938,
				"element": "H" 
			},
			{
				"x": -1.7370222397,
				"y": 2.4027857093,
				"z": 0.3740997681,
				"element": "H" 
			}
		],
		 "valence_orbital": [ 
			{
				"type": "occ",
				"energy": -0.26192,
				"method": "rhf"
			},
			{
				"type": "occ",
				"energy": -0.24483,
				"method": "rhf"
			},
			{
				"type": "occ",
				"energy": -0.22137,
				"method": "rhf"
			},
			{
				"type": "occ",
				"energy": -0.21567,
				"method": "rhf"
			},
			{
				"type": "occ",
				"energy": -0.19854,
				"method": "rhf"
			},
			{
				"type": "unocc",
				"energy": -0.05716,
				"method": "rhf"
			},
			{
				"type": "unocc",
				"energy": -0.01492,
				"method": "rhf"
			},
			{
				"type": "unocc",
				"energy": -0.00412,
				"method": "rhf"
			},
			{
				"type": "unocc",
				"energy": 0.00286,
				"method": "rhf"
			},
			{
				"type": "unocc",
				"energy": 0.03127,
				"method": "rhf"
			}
		],
		"cosmo_sigma_profile": { 
			"-0.025": 0.0,
			"-0.024": 0.0,
			"-0.023": 0.0,
			"-0.022": 0.0,
			"-0.021": 0.0,
			"-0.02": 0.0,
			"-0.019": 0.0,
			"-0.018": 0.0,
			"-0.017": 0.0,
			"-0.016": 0.0,
			"-0.015": 0.275106468825,
			"-0.014": 1.55785416562,
			"-0.013": 1.51719481081,
			"-0.012": 1.56147575649,
			"-0.011": 1.98446747054,
			"-0.01": 1.96437747542,
			"-0.009": 1.61452517811,
			"-0.008": 2.40954983988,
			"-0.007": 3.26721645236,
			"-0.006": 9.35417776372,
			"-0.005": 12.1920585182,
			"-0.004": 21.8989581661,
			"-0.003": 38.7359025833,
			"-0.002": 46.4870332237,
			"-0.001": 44.7907116161,
			"0.0": 46.7256086212,
			"0.001": 44.2716444365,
			"0.002": 31.7085211368,
			"0.003": 24.5667742278,
			"0.004": 22.020454702,
			"0.005": 12.3826795821,
			"0.006": 5.29599734188,
			"0.007": 5.21846274192,
			"0.008": 6.08238769505,
			"0.009": 6.70062391128,
			"0.01": 4.57595507207,
			"0.011": 3.26489020419,
			"0.012": 2.13362774354,
			"0.013": 0.153569587454,
			"0.014": 0.0,
			"0.015": 0.0,
			"0.016": 0.0,
			"0.017": 0.0,
			"0.018": 0.0,
			"0.019": 0.0,
			"0.02": 0.0,
			"0.021": 0.0,
			"0.022": 0.0,
			"0.023": 0.0,
			"0.024": 0.0,
			"0.025": 0.0
		}
	}
}
