{
	 "smiles": "CNCC1=CC=C(C=C1)C1=NC=CC=N1", 
	 "Tm": 325.35, 
	 "num_atms": 28, 
	 "gaussian": { 
		 "optdone": 1, 
		 "sigma_profile": "yes", 
		 "theory": "DFT", 
		 "functional": "B3LYP", 
		 "basiset": "6-31G**", 
		 "properties": { 
			 "R2extent": 4677.9797, 
			 "electric_dipole_moment_norm": 2.37543688824, 
			 "electric_quadrupole_moment_norm": 6.80347756739, 
			 "total_energy": -629.361229173, 
			 "HOMO_LUMO_gap": 0.16289, 
			 "cosmo_polarized_energy": -10.08, 
			 "cosmo_cavitation_energy": 31.69, 
			 "cosmo_dispersion_energy": -23.05, 
			 "cosmo_repulsion_energy": 1.79, 
			 "cosmo_total_nonelectrostatic_energy": 10.43, 
			 "SMD_solvation_energy": 0.98 
		},
		"coords": [
			{
				"x": 2.7037352281,
				"y": 0.4755938628,
				"z": -3.8127320551,
				"element": "C" 
			},
			{
				"x": 1.4389726084,
				"y": 0.9014836469,
				"z": -4.4049932337,
				"element": "N" 
			},
			{
				"x": 0.5753284624,
				"y": 1.6817136808,
				"z": -3.5090295406,
				"element": "C" 
			},
			{
				"x": 0.0642336765,
				"y": 0.9497753846,
				"z": -2.2774774408,
				"element": "C" 
			},
			{
				"x": 0.6886052251,
				"y": 1.0862742128,
				"z": -1.0300283009,
				"element": "C" 
			},
			{
				"x": 0.2432265373,
				"y": 0.3739319161,
				"z": 0.0810066175,
				"element": "C" 
			},
			{
				"x": -0.8488491997,
				"y": -0.4999240432,
				"z": -0.0273489562,
				"element": "C" 
			},
			{
				"x": -1.4834404087,
				"y": -0.6390402054,
				"z": -1.2728452897,
				"element": "C" 
			},
			{
				"x": -1.030085696,
				"y": 0.0764097416,
				"z": -2.3757996486,
				"element": "C" 
			},
			{
				"x": -1.3291823609,
				"y": -1.2584815941,
				"z": 1.1528998139,
				"element": "C" 
			},
			{
				"x": -0.6781312737,
				"y": -1.0757065795,
				"z": 2.3182779705,
				"element": "N" 
			},
			{
				"x": -1.1195505239,
				"y": -1.7637739769,
				"z": 3.3719314747,
				"element": "C" 
			},
			{
				"x": -2.2023491485,
				"y": -2.6383556587,
				"z": 3.2986425495,
				"element": "C" 
			},
			{
				"x": -2.8058019388,
				"y": -2.7559070603,
				"z": 2.047849594,
				"element": "C" 
			},
			{
				"x": -2.3834445714,
				"y": -2.079240178,
				"z": 0.9789859326,
				"element": "N" 
			},
			{
				"x": 3.3013276609,
				"y": 1.3614473211,
				"z": -3.5665726644,
				"element": "H" 
			},
			{
				"x": 2.6117511601,
				"y": -0.1297407725,
				"z": -2.8957219196,
				"element": "H" 
			},
			{
				"x": 3.2657086683,
				"y": -0.1053408096,
				"z": -4.5505887258,
				"element": "H" 
			},
			{
				"x": 0.9266344109,
				"y": 0.0847501845,
				"z": -4.7296724121,
				"element": "H" 
			},
			{
				"x": -0.2775980505,
				"y": 2.0327725474,
				"z": -4.1022165626,
				"element": "H" 
			},
			{
				"x": 1.1378029738,
				"y": 2.5718200011,
				"z": -3.2013626741,
				"element": "H" 
			},
			{
				"x": 1.530736447,
				"y": 1.7665077186,
				"z": -0.9268056997,
				"element": "H" 
			},
			{
				"x": 0.7294524279,
				"y": 0.4852723501,
				"z": 1.0435403932,
				"element": "H" 
			},
			{
				"x": -2.3334707868,
				"y": -1.3069915898,
				"z": -1.3537567978,
				"element": "H" 
			},
			{
				"x": -1.5392217476,
				"y": -0.0366048012,
				"z": -3.331056683,
				"element": "H" 
			},
			{
				"x": -0.5859989987,
				"y": -1.6084057878,
				"z": 4.3088165617,
				"element": "H" 
			},
			{
				"x": -2.553481405,
				"y": -3.1930817807,
				"z": 4.1614522011,
				"element": "H" 
			},
			{
				"x": -3.6587093765,
				"y": -3.4162577307,
				"z": 1.8960054958,
				"element": "H" 
			}
		],
		 "valence_orbital": [ 
			{
				"type": "occ",
				"energy": -0.29675,
				"method": "rhf"
			},
			{
				"type": "occ",
				"energy": -0.24861,
				"method": "rhf"
			},
			{
				"type": "occ",
				"energy": -0.24774,
				"method": "rhf"
			},
			{
				"type": "occ",
				"energy": -0.23483,
				"method": "rhf"
			},
			{
				"type": "occ",
				"energy": -0.21432,
				"method": "rhf"
			},
			{
				"type": "unocc",
				"energy": -0.05143,
				"method": "rhf"
			},
			{
				"type": "unocc",
				"energy": -0.04004,
				"method": "rhf"
			},
			{
				"type": "unocc",
				"energy": 0.00304,
				"method": "rhf"
			},
			{
				"type": "unocc",
				"energy": 0.02784,
				"method": "rhf"
			},
			{
				"type": "unocc",
				"energy": 0.09215,
				"method": "rhf"
			}
		],
		"cosmo_sigma_profile": { 
			"-0.025": 0.0,
			"-0.024": 0.0,
			"-0.023": 0.0,
			"-0.022": 0.0,
			"-0.021": 0.0,
			"-0.02": 0.0,
			"-0.019": 0.0,
			"-0.018": 0.0,
			"-0.017": 0.0,
			"-0.016": 0.0,
			"-0.015": 0.0,
			"-0.014": 0.0,
			"-0.013": 0.0,
			"-0.012": 0.0,
			"-0.011": 0.0,
			"-0.01": 0.211558307224,
			"-0.009": 1.31421442712,
			"-0.008": 3.94502824002,
			"-0.007": 9.78978610276,
			"-0.006": 10.829998432,
			"-0.005": 13.2589598677,
			"-0.004": 19.9155785549,
			"-0.003": 21.3962926716,
			"-0.002": 17.6717813208,
			"-0.001": 22.9733235504,
			"0.0": 29.2791963212,
			"0.001": 20.1778150838,
			"0.002": 14.3761080927,
			"0.003": 15.8088105113,
			"0.004": 14.2023908479,
			"0.005": 12.2327544879,
			"0.006": 4.00480067671,
			"0.007": 3.99677100206,
			"0.008": 3.64240185484,
			"0.009": 3.15899369299,
			"0.01": 3.41794656473,
			"0.011": 2.54276081147,
			"0.012": 0.648760592974,
			"0.013": 0.328325380945,
			"0.014": 0.967395359215,
			"0.015": 0.731541933368,
			"0.016": 0.574386977316,
			"0.017": 0.415588213015,
			"0.018": 0.45261073943,
			"0.019": 0.0726122316501,
			"0.02": 0.0,
			"0.021": 0.0,
			"0.022": 0.0,
			"0.023": 0.0,
			"0.024": 0.0,
			"0.025": 0.0
		}
	}
}
