{
	 "smiles": "COC1=C(OC)C=C(C(Br)=C1)S(N)(=O)=O", 
	 "Tm": 290.15, 
	 "num_atms": 25, 
	 "gaussian": { 
		 "optdone": 1, 
		 "sigma_profile": "yes", 
		 "theory": "DFT", 
		 "functional": "B3LYP", 
		 "basiset": "6-31G**", 
		 "properties": { 
			 "R2extent": 6226.9939, 
			 "electric_dipole_moment_norm": 5.22733606917, 
			 "electric_quadrupole_moment_norm": 22.4537384943, 
			 "total_energy": -3636.00916396, 
			 "HOMO_LUMO_gap": 0.1952, 
			 "cosmo_polarized_energy": -18.64, 
			 "cosmo_cavitation_energy": 32.19, 
			 "cosmo_dispersion_energy": -24.15, 
			 "cosmo_repulsion_energy": 1.85, 
			 "cosmo_total_nonelectrostatic_energy": 9.89, 
			 "SMD_solvation_energy": 5.77 
		},
		"coords": [
			{
				"x": -2.4970913252,
				"y": 1.5657699275,
				"z": 1.7407193021,
				"element": "C" 
			},
			{
				"x": -1.5296849589,
				"y": 0.6745226782,
				"z": 2.3142781554,
				"element": "O" 
			},
			{
				"x": -0.7434241825,
				"y": -0.0312822445,
				"z": 1.4527865212,
				"element": "C" 
			},
			{
				"x": 0.1631669551,
				"y": 0.589026102,
				"z": 0.5598339892,
				"element": "C" 
			},
			{
				"x": 0.1909183414,
				"y": 1.9484306311,
				"z": 0.5671581276,
				"element": "O" 
			},
			{
				"x": 1.1057442024,
				"y": 2.6082170166,
				"z": -0.3027867447,
				"element": "C" 
			},
			{
				"x": 0.9726695217,
				"y": -0.2099280929,
				"z": -0.2466566303,
				"element": "C" 
			},
			{
				"x": 0.9145877622,
				"y": -1.6077962083,
				"z": -0.1746565588,
				"element": "C" 
			},
			{
				"x": 0.0282393782,
				"y": -2.2124661037,
				"z": 0.7177620427,
				"element": "C" 
			},
			{
				"x": -0.1226921989,
				"y": -4.1099842324,
				"z": 0.9142728324,
				"element": "Br" 
			},
			{
				"x": -0.7919974968,
				"y": -1.4220825666,
				"z": 1.5220534319,
				"element": "C" 
			},
			{
				"x": 1.9933019721,
				"y": -2.5010762963,
				"z": -1.3251974333,
				"element": "S" 
			},
			{
				"x": 2.9961221193,
				"y": -3.4766435787,
				"z": -0.4067916459,
				"element": "N" 
			},
			{
				"x": 2.8669761254,
				"y": -1.4914932574,
				"z": -1.9254109487,
				"element": "O" 
			},
			{
				"x": 1.1638352813,
				"y": -3.3874217118,
				"z": -2.1335481632,
				"element": "O" 
			},
			{
				"x": -2.0179637943,
				"y": 2.3832807041,
				"z": 1.197872312,
				"element": "H" 
			},
			{
				"x": -3.0669329076,
				"y": 1.9630262406,
				"z": 2.5821250153,
				"element": "H" 
			},
			{
				"x": -3.1729919189,
				"y": 1.0210400297,
				"z": 1.070457974,
				"element": "H" 
			},
			{
				"x": 0.965829258,
				"y": 3.6750836222,
				"z": -0.1265184492,
				"element": "H" 
			},
			{
				"x": 0.8949781283,
				"y": 2.3811304149,
				"z": -1.3545883766,
				"element": "H" 
			},
			{
				"x": 2.1422943472,
				"y": 2.3343530835,
				"z": -0.0734666099,
				"element": "H" 
			},
			{
				"x": 1.6773413886,
				"y": 0.2241584117,
				"z": -0.9437616198,
				"element": "H" 
			},
			{
				"x": -1.4838397543,
				"y": -1.8747450121,
				"z": 2.222056965,
				"element": "H" 
			},
			{
				"x": 3.6396139744,
				"y": -2.9375799683,
				"z": 0.1642185414,
				"element": "H" 
			},
			{
				"x": 2.4804997816,
				"y": -4.1783395892,
				"z": 0.1177879702,
				"element": "H" 
			}
		],
		 "valence_orbital": [ 
			{
				"type": "occ",
				"energy": -0.30578,
				"method": "rhf"
			},
			{
				"type": "occ",
				"energy": -0.29699,
				"method": "rhf"
			},
			{
				"type": "occ",
				"energy": -0.29261,
				"method": "rhf"
			},
			{
				"type": "occ",
				"energy": -0.26272,
				"method": "rhf"
			},
			{
				"type": "occ",
				"energy": -0.23557,
				"method": "rhf"
			},
			{
				"type": "unocc",
				"energy": -0.04037,
				"method": "rhf"
			},
			{
				"type": "unocc",
				"energy": -0.02243,
				"method": "rhf"
			},
			{
				"type": "unocc",
				"energy": -0.01487,
				"method": "rhf"
			},
			{
				"type": "unocc",
				"energy": 0.06303,
				"method": "rhf"
			},
			{
				"type": "unocc",
				"energy": 0.07691,
				"method": "rhf"
			}
		],
		"cosmo_sigma_profile": { 
			"-0.025": 0.0,
			"-0.024": 0.0,
			"-0.023": 0.0,
			"-0.022": 0.0,
			"-0.021": 0.0,
			"-0.02": 0.0,
			"-0.019": 0.0,
			"-0.018": 0.0,
			"-0.017": 0.0,
			"-0.016": 0.3762465816,
			"-0.015": 1.44747264636,
			"-0.014": 1.40393066761,
			"-0.013": 1.96198985984,
			"-0.012": 2.24773841004,
			"-0.011": 1.82484604589,
			"-0.01": 2.10413913527,
			"-0.009": 1.90063108302,
			"-0.008": 3.20798856051,
			"-0.007": 7.72073613892,
			"-0.006": 13.4985208579,
			"-0.005": 18.3141640257,
			"-0.004": 20.7891396675,
			"-0.003": 21.5814097123,
			"-0.002": 16.8132229185,
			"-0.001": 13.6711075578,
			"0.0": 20.6119610395,
			"0.001": 21.274667589,
			"0.002": 12.6771467,
			"0.003": 11.453475605,
			"0.004": 6.84933772025,
			"0.005": 6.40827016402,
			"0.006": 5.93776166358,
			"0.007": 6.64885480777,
			"0.008": 8.75744794458,
			"0.009": 5.44558162118,
			"0.01": 10.9881161701,
			"0.011": 11.3250847507,
			"0.012": 2.21846676023,
			"0.013": 0.0376776935419,
			"0.014": 0.0,
			"0.015": 0.0,
			"0.016": 0.0,
			"0.017": 0.0,
			"0.018": 0.0,
			"0.019": 0.0,
			"0.02": 0.0,
			"0.021": 0.0,
			"0.022": 0.0,
			"0.023": 0.0,
			"0.024": 0.0,
			"0.025": 0.0
		}
	}
}
