{
	 "smiles": "CN(CC(C)(C)C)C(=O)C1=CC(=CC=C1)C(O)=O", 
	 "Tm": 406.15, 
	 "num_atms": 37, 
	 "gaussian": { 
		 "optdone": 1, 
		 "sigma_profile": "yes", 
		 "theory": "DFT", 
		 "functional": "B3LYP", 
		 "basiset": "6-31G**", 
		 "properties": { 
			 "R2extent": 6584.3724, 
			 "electric_dipole_moment_norm": 6.74165302875, 
			 "electric_quadrupole_moment_norm": 25.3037794855, 
			 "total_energy": -825.395269976, 
			 "HOMO_LUMO_gap": 0.18918, 
			 "cosmo_polarized_energy": -19.4, 
			 "cosmo_cavitation_energy": 38.66, 
			 "cosmo_dispersion_energy": -26.77, 
			 "cosmo_repulsion_energy": 2.04, 
			 "cosmo_total_nonelectrostatic_energy": 13.93, 
			 "SMD_solvation_energy": 8.09 
		},
		"coords": [
			{
				"x": 1.5937590652,
				"y": -1.3538236974,
				"z": -0.5086809608,
				"element": "C" 
			},
			{
				"x": 1.3489166634,
				"y": -0.0244585513,
				"z": 0.0433111341,
				"element": "N" 
			},
			{
				"x": 2.3886283207,
				"y": 0.5393587302,
				"z": 0.9192813277,
				"element": "C" 
			},
			{
				"x": 2.2716049169,
				"y": 0.2765065603,
				"z": 2.4480491846,
				"element": "C" 
			},
			{
				"x": 0.959839797,
				"y": 0.8499978695,
				"z": 3.013514907,
				"element": "C" 
			},
			{
				"x": 2.3534030139,
				"y": -1.2249423239,
				"z": 2.7844100948,
				"element": "C" 
			},
			{
				"x": 3.4682140894,
				"y": 0.9995137711,
				"z": 3.1002476384,
				"element": "C" 
			},
			{
				"x": 0.316052908,
				"y": 0.8000439085,
				"z": -0.3316263596,
				"element": "C" 
			},
			{
				"x": 0.1357994686,
				"y": 1.8978674773,
				"z": 0.1965562529,
				"element": "O" 
			},
			{
				"x": -0.6498298052,
				"y": 0.3605603876,
				"z": -1.4083498186,
				"element": "C" 
			},
			{
				"x": -2.0062730684,
				"y": 0.6228638326,
				"z": -1.174718464,
				"element": "C" 
			},
			{
				"x": -2.9722651124,
				"y": 0.3390817947,
				"z": -2.1439273539,
				"element": "C" 
			},
			{
				"x": -2.568724062,
				"y": -0.162756287,
				"z": -3.3904068292,
				"element": "C" 
			},
			{
				"x": -1.2212168086,
				"y": -0.3923141124,
				"z": -3.6453350458,
				"element": "C" 
			},
			{
				"x": -0.2643580307,
				"y": -0.1400825558,
				"z": -2.6581636208,
				"element": "C" 
			},
			{
				"x": -4.4407641253,
				"y": 0.584216891,
				"z": -1.9433385716,
				"element": "C" 
			},
			{
				"x": -4.866913505,
				"y": 0.7933963204,
				"z": -0.6718198515,
				"element": "O" 
			},
			{
				"x": -5.234968657,
				"y": 0.5947478602,
				"z": -2.8548001179,
				"element": "O" 
			},
			{
				"x": 2.3296411968,
				"y": -1.3325101454,
				"z": -1.3249285877,
				"element": "H" 
			},
			{
				"x": 0.6690214029,
				"y": -1.7917648599,
				"z": -0.8823911183,
				"element": "H" 
			},
			{
				"x": 1.9829614057,
				"y": -2.0071728654,
				"z": 0.2730737964,
				"element": "H" 
			},
			{
				"x": 2.3857783254,
				"y": 1.6195204665,
				"z": 0.7568430222,
				"element": "H" 
			},
			{
				"x": 3.3515516029,
				"y": 0.1462471525,
				"z": 0.567746693,
				"element": "H" 
			},
			{
				"x": 0.0893749602,
				"y": 0.3470433783,
				"z": 2.5818531983,
				"element": "H" 
			},
			{
				"x": 0.9244805512,
				"y": 0.7087282967,
				"z": 4.0999245447,
				"element": "H" 
			},
			{
				"x": 0.8620099032,
				"y": 1.9160355761,
				"z": 2.7952599532,
				"element": "H" 
			},
			{
				"x": 1.4860915935,
				"y": -1.7732247914,
				"z": 2.4025017142,
				"element": "H" 
			},
			{
				"x": 3.2619194566,
				"y": -1.6850906724,
				"z": 2.3771446309,
				"element": "H" 
			},
			{
				"x": 2.3718068661,
				"y": -1.3690986477,
				"z": 3.8703537748,
				"element": "H" 
			},
			{
				"x": 3.4545274287,
				"y": 0.8631646308,
				"z": 4.1866920472,
				"element": "H" 
			},
			{
				"x": 3.4401777308,
				"y": 2.0760699202,
				"z": 2.8990694164,
				"element": "H" 
			},
			{
				"x": 4.4244195433,
				"y": 0.6119718766,
				"z": 2.7289050155,
				"element": "H" 
			},
			{
				"x": -2.2584959217,
				"y": 1.1017768738,
				"z": -0.2321260087,
				"element": "H" 
			},
			{
				"x": -3.3289341908,
				"y": -0.3518700918,
				"z": -4.1402843478,
				"element": "H" 
			},
			{
				"x": -0.9082570294,
				"y": -0.7642064152,
				"z": -4.6162643561,
				"element": "H" 
			},
			{
				"x": 0.7846533034,
				"y": -0.3084347715,
				"z": -2.8782979319,
				"element": "H" 
			},
			{
				"x": -4.1478331973,
				"y": 0.6462372136,
				"z": -0.0423790022,
				"element": "H" 
			}
		],
		 "valence_orbital": [ 
			{
				"type": "occ",
				"energy": -0.28117,
				"method": "rhf"
			},
			{
				"type": "occ",
				"energy": -0.27821,
				"method": "rhf"
			},
			{
				"type": "occ",
				"energy": -0.27088,
				"method": "rhf"
			},
			{
				"type": "occ",
				"energy": -0.25178,
				"method": "rhf"
			},
			{
				"type": "occ",
				"energy": -0.24611,
				"method": "rhf"
			},
			{
				"type": "unocc",
				"energy": -0.05693,
				"method": "rhf"
			},
			{
				"type": "unocc",
				"energy": -0.03987,
				"method": "rhf"
			},
			{
				"type": "unocc",
				"energy": 0.02449,
				"method": "rhf"
			},
			{
				"type": "unocc",
				"energy": 0.05549,
				"method": "rhf"
			},
			{
				"type": "unocc",
				"energy": 0.0585,
				"method": "rhf"
			}
		],
		"cosmo_sigma_profile": { 
			"-0.025": 0.0,
			"-0.024": 0.0,
			"-0.023": 0.0,
			"-0.022": 0.0,
			"-0.021": 0.0,
			"-0.02": 0.0,
			"-0.019": 0.382683892556,
			"-0.018": 0.693867027802,
			"-0.017": 1.06576000769,
			"-0.016": 1.30453937492,
			"-0.015": 0.775982421663,
			"-0.014": 0.695336755717,
			"-0.013": 0.8870275029,
			"-0.012": 1.51478578269,
			"-0.011": 1.04223310179,
			"-0.01": 0.93882424412,
			"-0.009": 1.11499221774,
			"-0.008": 1.33436026086,
			"-0.007": 6.09211019463,
			"-0.006": 9.10866464835,
			"-0.005": 12.2375810532,
			"-0.004": 21.0758404425,
			"-0.003": 31.6687816808,
			"-0.002": 35.9095470586,
			"-0.001": 31.3523285044,
			"0.0": 28.1595892475,
			"0.001": 29.7720489116,
			"0.002": 23.5701322459,
			"0.003": 9.464420096,
			"0.004": 4.00995718257,
			"0.005": 4.4370850213,
			"0.006": 4.537659537,
			"0.007": 4.03518581637,
			"0.008": 4.39175633551,
			"0.009": 5.3134562767,
			"0.01": 6.4571982984,
			"0.011": 6.62570417877,
			"0.012": 6.17737300344,
			"0.013": 3.96618369729,
			"0.014": 2.80425243708,
			"0.015": 0.48060540465,
			"0.016": 0.0,
			"0.017": 0.0,
			"0.018": 0.0,
			"0.019": 0.0,
			"0.02": 0.0,
			"0.021": 0.0,
			"0.022": 0.0,
			"0.023": 0.0,
			"0.024": 0.0,
			"0.025": 0.0
		}
	}
}
