{
	 "smiles": "CC1=NN(N=C1C(O)=O)C1=CC=C(F)C=C1", 
	 "Tm": 441.15, 
	 "num_atms": 24, 
	 "gaussian": { 
		 "optdone": 1, 
		 "sigma_profile": "yes", 
		 "theory": "DFT", 
		 "functional": "B3LYP", 
		 "basiset": "6-31G**", 
		 "properties": { 
			 "R2extent": 4993.3224, 
			 "electric_dipole_moment_norm": 2.42417789364, 
			 "electric_quadrupole_moment_norm": 13.7338864114, 
			 "total_energy": -800.411368954, 
			 "HOMO_LUMO_gap": 0.17708, 
			 "cosmo_polarized_energy": -12.14, 
			 "cosmo_cavitation_energy": 30.35, 
			 "cosmo_dispersion_energy": -22.09, 
			 "cosmo_repulsion_energy": 1.7, 
			 "cosmo_total_nonelectrostatic_energy": 9.96, 
			 "SMD_solvation_energy": 5.62 
		},
		"coords": [
			{
				"x": -0.1984951735,
				"y": 4.3078935904,
				"z": 0.7946599511,
				"element": "C" 
			},
			{
				"x": -0.5170656245,
				"y": 2.9357532124,
				"z": 0.2963283791,
				"element": "C" 
			},
			{
				"x": 0.3214122826,
				"y": 1.917075591,
				"z": 0.4850267386,
				"element": "N" 
			},
			{
				"x": -0.2954083288,
				"y": 0.8692056043,
				"z": -0.0896039152,
				"element": "N" 
			},
			{
				"x": -1.4699952254,
				"y": 1.1295576699,
				"z": -0.636915494,
				"element": "N" 
			},
			{
				"x": -1.6448960914,
				"y": 2.438495481,
				"z": -0.4104388076,
				"element": "C" 
			},
			{
				"x": -2.8681816378,
				"y": 3.1127286249,
				"z": -0.8826093441,
				"element": "C" 
			},
			{
				"x": -2.8600606169,
				"y": 4.4333101045,
				"z": -0.5565006997,
				"element": "O" 
			},
			{
				"x": -3.7804441407,
				"y": 2.590322908,
				"z": -1.4831347852,
				"element": "O" 
			},
			{
				"x": 0.2812768612,
				"y": -0.4325814509,
				"z": -0.1053283593,
				"element": "C" 
			},
			{
				"x": -0.4092514984,
				"y": -1.4827514393,
				"z": -0.7182926701,
				"element": "C" 
			},
			{
				"x": 0.1556932369,
				"y": -2.7550052226,
				"z": -0.7328482866,
				"element": "C" 
			},
			{
				"x": 1.3968669349,
				"y": -2.9516129277,
				"z": -0.135705086,
				"element": "C" 
			},
			{
				"x": 1.9422855958,
				"y": -4.1836880011,
				"z": -0.1506927259,
				"element": "F" 
			},
			{
				"x": 2.0907675564,
				"y": -1.9132037406,
				"z": 0.4761656288,
				"element": "C" 
			},
			{
				"x": 1.52786986,
				"y": -0.639395222,
				"z": 0.4921644914,
				"element": "C" 
			},
			{
				"x": 0.770830844,
				"y": 4.2990594255,
				"z": 1.2963594417,
				"element": "H" 
			},
			{
				"x": -0.1697591321,
				"y": 5.0273367635,
				"z": -0.0286235462,
				"element": "H" 
			},
			{
				"x": -0.9619335513,
				"y": 4.6577474589,
				"z": 1.4953589103,
				"element": "H" 
			},
			{
				"x": -3.6937662915,
				"y": 4.7937527091,
				"z": -0.901788603,
				"element": "H" 
			},
			{
				"x": -1.373644006,
				"y": -1.2947347197,
				"z": -1.1737119108,
				"element": "H" 
			},
			{
				"x": -0.3538212029,
				"y": -3.5904469823,
				"z": -1.1997531633,
				"element": "H" 
			},
			{
				"x": 3.0559131562,
				"y": -2.106949635,
				"z": 0.930633609,
				"element": "H" 
			},
			{
				"x": 2.0406061933,
				"y": 0.1916301979,
				"z": 0.9597502468,
				"element": "H" 
			}
		],
		 "valence_orbital": [ 
			{
				"type": "occ",
				"energy": -0.3013,
				"method": "rhf"
			},
			{
				"type": "occ",
				"energy": -0.29874,
				"method": "rhf"
			},
			{
				"type": "occ",
				"energy": -0.27989,
				"method": "rhf"
			},
			{
				"type": "occ",
				"energy": -0.27367,
				"method": "rhf"
			},
			{
				"type": "occ",
				"energy": -0.23576,
				"method": "rhf"
			},
			{
				"type": "unocc",
				"energy": -0.05868,
				"method": "rhf"
			},
			{
				"type": "unocc",
				"energy": -0.02524,
				"method": "rhf"
			},
			{
				"type": "unocc",
				"energy": -0.01441,
				"method": "rhf"
			},
			{
				"type": "unocc",
				"energy": 0.02618,
				"method": "rhf"
			},
			{
				"type": "unocc",
				"energy": 0.07307,
				"method": "rhf"
			}
		],
		"cosmo_sigma_profile": { 
			"-0.025": 0.0,
			"-0.024": 0.0,
			"-0.023": 0.0,
			"-0.022": 0.0,
			"-0.021": 0.0,
			"-0.02": 0.0,
			"-0.019": 0.260138308277,
			"-0.018": 0.796327875024,
			"-0.017": 1.0478657967,
			"-0.016": 0.785909280934,
			"-0.015": 0.961842354796,
			"-0.014": 0.73571446848,
			"-0.013": 0.462398870068,
			"-0.012": 0.394147862482,
			"-0.011": 1.05750620419,
			"-0.01": 0.502493965725,
			"-0.009": 0.530936281883,
			"-0.008": 3.60245707544,
			"-0.007": 6.95783046255,
			"-0.006": 8.50263459698,
			"-0.005": 11.5471275847,
			"-0.004": 12.8061145578,
			"-0.003": 17.5899535063,
			"-0.002": 21.5907479299,
			"-0.001": 23.411486302,
			"0.0": 22.9325293399,
			"0.001": 22.8302465854,
			"0.002": 21.1126432195,
			"0.003": 13.0770548059,
			"0.004": 14.8992922575,
			"0.005": 7.65364345611,
			"0.006": 3.36360015936,
			"0.007": 3.08100459246,
			"0.008": 3.56980403754,
			"0.009": 3.58350488287,
			"0.01": 3.06578460217,
			"0.011": 6.07150969942,
			"0.012": 3.58571236834,
			"0.013": 1.48996847401,
			"0.014": 0.0298567384055,
			"0.015": 0.0,
			"0.016": 0.0,
			"0.017": 0.0,
			"0.018": 0.0,
			"0.019": 0.0,
			"0.02": 0.0,
			"0.021": 0.0,
			"0.022": 0.0,
			"0.023": 0.0,
			"0.024": 0.0,
			"0.025": 0.0
		}
	}
}
