{
	 "smiles": "CC(Cl)C(=O)NC1=CC(=C(Cl)C=C1)C(F)(F)F", 
	 "Tm": 405.15, 
	 "num_atms": 25, 
	 "gaussian": { 
		 "optdone": 1, 
		 "sigma_profile": "yes", 
		 "theory": "DFT", 
		 "functional": "B3LYP", 
		 "basiset": "6-31G**", 
		 "properties": { 
			 "R2extent": 6226.3803, 
			 "electric_dipole_moment_norm": 1.6283134864, 
			 "electric_quadrupole_moment_norm": 17.9025468512, 
			 "total_energy": -1735.78437554, 
			 "HOMO_LUMO_gap": 0.20167, 
			 "cosmo_polarized_energy": -13.01, 
			 "cosmo_cavitation_energy": 34.42, 
			 "cosmo_dispersion_energy": -23.46, 
			 "cosmo_repulsion_energy": 1.8, 
			 "cosmo_total_nonelectrostatic_energy": 12.76, 
			 "SMD_solvation_energy": 7.09 
		},
		"coords": [
			{
				"x": 0.4936321179,
				"y": -0.2606111147,
				"z": -3.8440838505,
				"element": "C" 
			},
			{
				"x": 0.4203022946,
				"y": -0.748820124,
				"z": -2.4094345426,
				"element": "C" 
			},
			{
				"x": 2.0853584848,
				"y": -0.7092565357,
				"z": -1.634007539,
				"element": "Cl" 
			},
			{
				"x": -0.0768632937,
				"y": -2.2001081471,
				"z": -2.3239456758,
				"element": "C" 
			},
			{
				"x": -0.0016840994,
				"y": -2.9566106554,
				"z": -3.2772756625,
				"element": "O" 
			},
			{
				"x": -0.5890339312,
				"y": -2.6351030769,
				"z": -1.1180722741,
				"element": "N" 
			},
			{
				"x": -0.7634604475,
				"y": -1.9305854885,
				"z": 0.1047631121,
				"element": "C" 
			},
			{
				"x": -1.6824709817,
				"y": -0.881860708,
				"z": 0.1997507787,
				"element": "C" 
			},
			{
				"x": -1.8773543003,
				"y": -0.1973450023,
				"z": 1.4020168109,
				"element": "C" 
			},
			{
				"x": -1.1575398876,
				"y": -0.6029064825,
				"z": 2.5364015351,
				"element": "C" 
			},
			{
				"x": -1.3511348596,
				"y": 0.1907350148,
				"z": 4.0833259185,
				"element": "Cl" 
			},
			{
				"x": -0.2587936061,
				"y": -1.6673526585,
				"z": 2.4560630052,
				"element": "C" 
			},
			{
				"x": -0.0553505751,
				"y": -2.3222470712,
				"z": 1.2453055045,
				"element": "C" 
			},
			{
				"x": -2.8780738359,
				"y": 0.9376035896,
				"z": 1.4447618964,
				"element": "C" 
			},
			{
				"x": -3.8748887663,
				"y": 0.6937810439,
				"z": 2.317495794,
				"element": "F" 
			},
			{
				"x": -2.2985811468,
				"y": 2.1004319521,
				"z": 1.8007550343,
				"element": "F" 
			},
			{
				"x": -3.4480248256,
				"y": 1.1318762628,
				"z": 0.2338943382,
				"element": "F" 
			},
			{
				"x": 0.9210387517,
				"y": 0.7433025753,
				"z": -3.8837790273,
				"element": "H" 
			},
			{
				"x": 1.0924039655,
				"y": -0.9430712073,
				"z": -4.44820076,
				"element": "H" 
			},
			{
				"x": -0.5163968392,
				"y": -0.2308817129,
				"z": -4.2668961598,
				"element": "H" 
			},
			{
				"x": -0.177584792,
				"y": -0.0814422114,
				"z": -1.7898424559,
				"element": "H" 
			},
			{
				"x": -0.7436606089,
				"y": -3.6365753382,
				"z": -1.1085278201,
				"element": "H" 
			},
			{
				"x": -2.2702154156,
				"y": -0.6030432152,
				"z": -0.6661218874,
				"element": "H" 
			},
			{
				"x": 0.2896433253,
				"y": -1.9666483017,
				"z": 3.3418726081,
				"element": "H" 
			},
			{
				"x": 0.6639332728,
				"y": -3.1322613872,
				"z": 1.178881319,
				"element": "H" 
			}
		],
		 "valence_orbital": [ 
			{
				"type": "occ",
				"energy": -0.30949,
				"method": "rhf"
			},
			{
				"type": "occ",
				"energy": -0.29722,
				"method": "rhf"
			},
			{
				"type": "occ",
				"energy": -0.29459,
				"method": "rhf"
			},
			{
				"type": "occ",
				"energy": -0.27294,
				"method": "rhf"
			},
			{
				"type": "occ",
				"energy": -0.25787,
				"method": "rhf"
			},
			{
				"type": "unocc",
				"energy": -0.0562,
				"method": "rhf"
			},
			{
				"type": "unocc",
				"energy": -0.04633,
				"method": "rhf"
			},
			{
				"type": "unocc",
				"energy": -0.02865,
				"method": "rhf"
			},
			{
				"type": "unocc",
				"energy": 0.01077,
				"method": "rhf"
			},
			{
				"type": "unocc",
				"energy": 0.04935,
				"method": "rhf"
			}
		],
		"cosmo_sigma_profile": { 
			"-0.025": 0.0,
			"-0.024": 0.0,
			"-0.023": 0.0,
			"-0.022": 0.0,
			"-0.021": 0.0,
			"-0.02": 0.0,
			"-0.019": 0.0,
			"-0.018": 0.0,
			"-0.017": 0.0,
			"-0.016": 0.0830169559332,
			"-0.015": 0.875384655161,
			"-0.014": 1.27488306589,
			"-0.013": 0.797370096162,
			"-0.012": 1.33823796363,
			"-0.011": 1.36073092551,
			"-0.01": 1.90686841952,
			"-0.009": 3.36112536791,
			"-0.008": 9.12106635686,
			"-0.007": 7.79532104683,
			"-0.006": 9.12552616285,
			"-0.005": 9.58280874055,
			"-0.004": 13.8832306902,
			"-0.003": 14.9604922034,
			"-0.002": 14.1555543485,
			"-0.001": 23.5766077374,
			"0.0": 29.3095063804,
			"0.001": 21.9099739641,
			"0.002": 32.7254921198,
			"0.003": 34.0958015019,
			"0.004": 18.3953851221,
			"0.005": 8.23311267132,
			"0.006": 6.41117791658,
			"0.007": 1.52259860969,
			"0.008": 1.18918957597,
			"0.009": 1.44510466072,
			"0.01": 1.34590597986,
			"0.011": 1.92166032589,
			"0.012": 4.0787841296,
			"0.013": 3.34354497538,
			"0.014": 0.0152885862664,
			"0.015": 0.0,
			"0.016": 0.0,
			"0.017": 0.0,
			"0.018": 0.0,
			"0.019": 0.0,
			"0.02": 0.0,
			"0.021": 0.0,
			"0.022": 0.0,
			"0.023": 0.0,
			"0.024": 0.0,
			"0.025": 0.0
		}
	}
}
