{
	 "smiles": "CN1CCN(CC1)C(=S)SSC(=S)N1CCN(C)CC1", 
	 "Tm": 415.15, 
	 "num_atms": 42, 
	 "gaussian": { 
		 "optdone": 1, 
		 "sigma_profile": "yes", 
		 "theory": "DFT", 
		 "functional": "B3LYP", 
		 "basiset": "6-31G**", 
		 "properties": { 
			 "R2extent": 11246.3946, 
			 "electric_dipole_moment_norm": 2.0595116897, 
			 "electric_quadrupole_moment_norm": 39.5129893039, 
			 "total_energy": -2282.26098041, 
			 "HOMO_LUMO_gap": 0.16938, 
			 "cosmo_polarized_energy": -18.91, 
			 "cosmo_cavitation_energy": 47.51, 
			 "cosmo_dispersion_energy": -34.34, 
			 "cosmo_repulsion_energy": 2.51, 
			 "cosmo_total_nonelectrostatic_energy": 15.67, 
			 "SMD_solvation_energy": -0.43 
		},
		"coords": [
			{
				"x": 5.3609765095,
				"y": -1.6949055989,
				"z": -0.2908998399,
				"element": "C" 
			},
			{
				"x": 4.6650346667,
				"y": -0.4823401697,
				"z": -0.6991115186,
				"element": "N" 
			},
			{
				"x": 3.5720531663,
				"y": -0.7674042845,
				"z": -1.6240263844,
				"element": "C" 
			},
			{
				"x": 2.9203000847,
				"y": 0.5296896175,
				"z": -2.1141656951,
				"element": "C" 
			},
			{
				"x": 2.4483787056,
				"y": 1.3233893674,
				"z": -0.967225832,
				"element": "N" 
			},
			{
				"x": 3.5370266997,
				"y": 1.5899084107,
				"z": -0.0126925425,
				"element": "C" 
			},
			{
				"x": 4.1737077752,
				"y": 0.2794932627,
				"z": 0.4482410728,
				"element": "C" 
			},
			{
				"x": 1.1746125141,
				"y": 1.698918117,
				"z": -0.7186906154,
				"element": "C" 
			},
			{
				"x": 0.6106058132,
				"y": 2.391278235,
				"z": 0.6782724796,
				"element": "S" 
			},
			{
				"x": 0.0869468017,
				"y": 1.4347968331,
				"z": -2.2007551083,
				"element": "S" 
			},
			{
				"x": -1.8127902829,
				"y": 1.5960988643,
				"z": -1.4842693304,
				"element": "S" 
			},
			{
				"x": -2.229569864,
				"y": -0.117955831,
				"z": -0.9051719469,
				"element": "C" 
			},
			{
				"x": -1.1824672868,
				"y": -1.3986577943,
				"z": -1.0213750559,
				"element": "S" 
			},
			{
				"x": -3.4724959429,
				"y": -0.1929257803,
				"z": -0.3879489415,
				"element": "N" 
			},
			{
				"x": -3.9750731446,
				"y": -1.4948809319,
				"z": 0.0977865427,
				"element": "C" 
			},
			{
				"x": -5.3256434871,
				"y": -1.3272460847,
				"z": 0.7977411929,
				"element": "C" 
			},
			{
				"x": -5.2312433305,
				"y": -0.2336480872,
				"z": 1.7517811265,
				"element": "N" 
			},
			{
				"x": -6.2941615579,
				"y": -0.1955289635,
				"z": 2.739721032,
				"element": "C" 
			},
			{
				"x": -5.0216471241,
				"y": 1.0623995623,
				"z": 1.0999882048,
				"element": "C" 
			},
			{
				"x": -4.4461098939,
				"y": 0.9031584218,
				"z": -0.3167266451,
				"element": "C" 
			},
			{
				"x": 6.2023892739,
				"y": -1.4343663708,
				"z": 0.3592122241,
				"element": "H" 
			},
			{
				"x": 4.714768992,
				"y": -2.4080569324,
				"z": 0.2546884221,
				"element": "H" 
			},
			{
				"x": 5.7601683535,
				"y": -2.2059936344,
				"z": -1.1729624307,
				"element": "H" 
			},
			{
				"x": 2.7903335084,
				"y": -1.4047012266,
				"z": -1.167564532,
				"element": "H" 
			},
			{
				"x": 3.9722053569,
				"y": -1.3045063036,
				"z": -2.4917247883,
				"element": "H" 
			},
			{
				"x": 3.6537351711,
				"y": 1.1270052901,
				"z": -2.6696096819,
				"element": "H" 
			},
			{
				"x": 2.0916022401,
				"y": 0.28692383,
				"z": -2.7768612052,
				"element": "H" 
			},
			{
				"x": 4.2890662714,
				"y": 2.2013865633,
				"z": -0.5273031346,
				"element": "H" 
			},
			{
				"x": 3.1281276723,
				"y": 2.1462493238,
				"z": 0.8284894691,
				"element": "H" 
			},
			{
				"x": 3.4349372624,
				"y": -0.2915744096,
				"z": 1.0427051064,
				"element": "H" 
			},
			{
				"x": 5.0190449129,
				"y": 0.5119829371,
				"z": 1.1060615388,
				"element": "H" 
			},
			{
				"x": -3.2394946312,
				"y": -1.8935282508,
				"z": 0.800572774,
				"element": "H" 
			},
			{
				"x": -4.0423113612,
				"y": -2.1962641192,
				"z": -0.7425467196,
				"element": "H" 
			},
			{
				"x": -6.1485699594,
				"y": -1.206957405,
				"z": 0.0654961092,
				"element": "H" 
			},
			{
				"x": -5.5329373383,
				"y": -2.2541629684,
				"z": 1.3422051083,
				"element": "H" 
			},
			{
				"x": -6.0833315019,
				"y": 0.5890114998,
				"z": 3.4741176255,
				"element": "H" 
			},
			{
				"x": -6.3404866864,
				"y": -1.1498742545,
				"z": 3.2737818524,
				"element": "H" 
			},
			{
				"x": -7.2931377217,
				"y": 0.0079598151,
				"z": 2.3071549656,
				"element": "H" 
			},
			{
				"x": -4.3450795711,
				"y": 1.668366662,
				"z": 1.7153153702,
				"element": "H" 
			},
			{
				"x": -5.9654050774,
				"y": 1.6291535214,
				"z": 0.9963485946,
				"element": "H" 
			},
			{
				"x": -3.9868074804,
				"y": 1.8434177676,
				"z": -0.6182879641,
				"element": "H" 
			},
			{
				"x": -5.2499585083,
				"y": 0.697191499,
				"z": -1.0341608992,
				"element": "H" 
			}
		],
		 "valence_orbital": [ 
			{
				"type": "occ",
				"energy": -0.22464,
				"method": "rhf"
			},
			{
				"type": "occ",
				"energy": -0.21881,
				"method": "rhf"
			},
			{
				"type": "occ",
				"energy": -0.21696,
				"method": "rhf"
			},
			{
				"type": "occ",
				"energy": -0.20877,
				"method": "rhf"
			},
			{
				"type": "occ",
				"energy": -0.20348,
				"method": "rhf"
			},
			{
				"type": "unocc",
				"energy": -0.0341,
				"method": "rhf"
			},
			{
				"type": "unocc",
				"energy": -0.02503,
				"method": "rhf"
			},
			{
				"type": "unocc",
				"energy": -0.02102,
				"method": "rhf"
			},
			{
				"type": "unocc",
				"energy": 0.03204,
				"method": "rhf"
			},
			{
				"type": "unocc",
				"energy": 0.03383,
				"method": "rhf"
			}
		],
		"cosmo_sigma_profile": { 
			"-0.025": 0.0,
			"-0.024": 0.0,
			"-0.023": 0.0,
			"-0.022": 0.0,
			"-0.021": 0.0,
			"-0.02": 0.0,
			"-0.019": 0.0,
			"-0.018": 0.0,
			"-0.017": 0.0,
			"-0.016": 0.0,
			"-0.015": 0.0,
			"-0.014": 0.0,
			"-0.013": 0.0,
			"-0.012": 0.0,
			"-0.011": 0.0,
			"-0.01": 0.0,
			"-0.009": 0.0,
			"-0.008": 0.384474383545,
			"-0.007": 4.36284020814,
			"-0.006": 15.9721836075,
			"-0.005": 35.0280970395,
			"-0.004": 44.9393496235,
			"-0.003": 36.4581552824,
			"-0.002": 45.0009617001,
			"-0.001": 36.5396310934,
			"0.0": 25.5125704576,
			"0.001": 15.4380671233,
			"0.002": 13.2693999679,
			"0.003": 14.4280346706,
			"0.004": 14.7888029833,
			"0.005": 15.7969891737,
			"0.006": 12.5286190301,
			"0.007": 13.3625832483,
			"0.008": 15.8882919799,
			"0.009": 11.065136974,
			"0.01": 3.76809212092,
			"0.011": 2.57870531122,
			"0.012": 1.11887938725,
			"0.013": 0.355545655049,
			"0.014": 0.893305969607,
			"0.015": 0.351421131013,
			"0.016": 0.0510765570855,
			"0.017": 0.0,
			"0.018": 0.0,
			"0.019": 0.0,
			"0.02": 0.0,
			"0.021": 0.0,
			"0.022": 0.0,
			"0.023": 0.0,
			"0.024": 0.0,
			"0.025": 0.0
		}
	}
}
