{
	 "smiles": "OC(=O)C1=CC=C(C=C1)N1N=CC(Cl)=C(Cl)C1=O", 
	 "Tm": 588.15, 
	 "num_atms": 24, 
	 "gaussian": { 
		 "optdone": 1, 
		 "sigma_profile": "yes", 
		 "theory": "DFT", 
		 "functional": "B3LYP", 
		 "basiset": "6-31G**", 
		 "properties": { 
			 "R2extent": 8392.7062, 
			 "electric_dipole_moment_norm": 1.67947158654, 
			 "electric_quadrupole_moment_norm": 19.6756129785, 
			 "total_energy": -1678.32446468, 
			 "HOMO_LUMO_gap": 0.14874, 
			 "cosmo_polarized_energy": -13.19, 
			 "cosmo_cavitation_energy": 33.43, 
			 "cosmo_dispersion_energy": -25.15, 
			 "cosmo_repulsion_energy": 1.91, 
			 "cosmo_total_nonelectrostatic_energy": 10.18, 
			 "SMD_solvation_energy": 6.76 
		},
		"coords": [
			{
				"x": 4.499089402,
				"y": 0.039745044,
				"z": -3.7569833059,
				"element": "O" 
			},
			{
				"x": 3.1686371442,
				"y": 0.1810917854,
				"z": -3.9799984728,
				"element": "C" 
			},
			{
				"x": 2.692071058,
				"y": 0.1406042916,
				"z": -5.097517521,
				"element": "O" 
			},
			{
				"x": 2.3879824372,
				"y": 0.3865896345,
				"z": -2.7330279392,
				"element": "C" 
			},
			{
				"x": 2.9790639618,
				"y": 0.4267165624,
				"z": -1.4677694322,
				"element": "C" 
			},
			{
				"x": 2.2124047747,
				"y": 0.621717235,
				"z": -0.3200772873,
				"element": "C" 
			},
			{
				"x": 0.8213255303,
				"y": 0.7810758216,
				"z": -0.432144246,
				"element": "C" 
			},
			{
				"x": 0.2224301842,
				"y": 0.7410925098,
				"z": -1.7055047032,
				"element": "C" 
			},
			{
				"x": 1.0001823324,
				"y": 0.5463064527,
				"z": -2.8364380176,
				"element": "C" 
			},
			{
				"x": -0.038503654,
				"y": 0.9873516666,
				"z": 0.7174205084,
				"element": "N" 
			},
			{
				"x": -1.3440232336,
				"y": 1.1130173041,
				"z": 0.396781962,
				"element": "N" 
			},
			{
				"x": -2.2299285769,
				"y": 1.3024151232,
				"z": 1.3245850491,
				"element": "C" 
			},
			{
				"x": -1.9070701167,
				"y": 1.3904012273,
				"z": 2.7123821178,
				"element": "C" 
			},
			{
				"x": -3.1964823691,
				"y": 1.645961512,
				"z": 3.8418874495,
				"element": "Cl" 
			},
			{
				"x": -0.5984288236,
				"y": 1.2678409436,
				"z": 3.0701727368,
				"element": "C" 
			},
			{
				"x": -0.054006103,
				"y": 1.3516137419,
				"z": 4.6992094527,
				"element": "Cl" 
			},
			{
				"x": 0.4499847892,
				"y": 1.0511577323,
				"z": 2.0557812176,
				"element": "C" 
			},
			{
				"x": 1.6280609066,
				"y": 0.939082816,
				"z": 2.3513578124,
				"element": "O" 
			},
			{
				"x": 4.9015872059,
				"y": -0.0863225521,
				"z": -4.6319026815,
				"element": "H" 
			},
			{
				"x": 4.0516633201,
				"y": 0.3046874435,
				"z": -1.3708573596,
				"element": "H" 
			},
			{
				"x": 2.688439942,
				"y": 0.6492966895,
				"z": 0.6452339461,
				"element": "H" 
			},
			{
				"x": -0.8465585148,
				"y": 0.8628912232,
				"z": -1.798336119,
				"element": "H" 
			},
			{
				"x": 0.5422420945,
				"y": 0.5150253322,
				"z": -3.8190745041,
				"element": "H" 
			},
			{
				"x": -3.2593636912,
				"y": 1.3944404597,
				"z": 0.994719337,
				"element": "H" 
			}
		],
		 "valence_orbital": [ 
			{
				"type": "occ",
				"energy": -0.28257,
				"method": "rhf"
			},
			{
				"type": "occ",
				"energy": -0.27805,
				"method": "rhf"
			},
			{
				"type": "occ",
				"energy": -0.27585,
				"method": "rhf"
			},
			{
				"type": "occ",
				"energy": -0.26821,
				"method": "rhf"
			},
			{
				"type": "occ",
				"energy": -0.2473,
				"method": "rhf"
			},
			{
				"type": "unocc",
				"energy": -0.09856,
				"method": "rhf"
			},
			{
				"type": "unocc",
				"energy": -0.04704,
				"method": "rhf"
			},
			{
				"type": "unocc",
				"energy": -0.02946,
				"method": "rhf"
			},
			{
				"type": "unocc",
				"energy": -0.0186,
				"method": "rhf"
			},
			{
				"type": "unocc",
				"energy": -0.01434,
				"method": "rhf"
			}
		],
		"cosmo_sigma_profile": { 
			"-0.025": 0.0,
			"-0.024": 0.0,
			"-0.023": 0.0,
			"-0.022": 0.0,
			"-0.021": 0.0,
			"-0.02": 0.0,
			"-0.019": 0.0556149403592,
			"-0.018": 0.892218712563,
			"-0.017": 0.928013519812,
			"-0.016": 0.630076216286,
			"-0.015": 1.16280638335,
			"-0.014": 0.659120122036,
			"-0.013": 0.190244681593,
			"-0.012": 0.454126304347,
			"-0.011": 1.59238145344,
			"-0.01": 2.17917947226,
			"-0.009": 2.06756277089,
			"-0.008": 3.43069296369,
			"-0.007": 5.34676257504,
			"-0.006": 9.74605278123,
			"-0.005": 13.8865606948,
			"-0.004": 17.449425818,
			"-0.003": 20.2062442995,
			"-0.002": 19.3967103384,
			"-0.001": 20.3553154078,
			"0.0": 23.2523183016,
			"0.001": 28.7746678523,
			"0.002": 36.0157790412,
			"0.003": 20.5079440932,
			"0.004": 7.99351428138,
			"0.005": 5.42162581289,
			"0.006": 4.35852869675,
			"0.007": 4.62285490841,
			"0.008": 3.35172745195,
			"0.009": 4.31986850692,
			"0.01": 4.05671217303,
			"0.011": 6.57529493661,
			"0.012": 4.95535559435,
			"0.013": 0.0662647640531,
			"0.014": 0.0,
			"0.015": 0.0,
			"0.016": 0.0,
			"0.017": 0.0,
			"0.018": 0.0,
			"0.019": 0.0,
			"0.02": 0.0,
			"0.021": 0.0,
			"0.022": 0.0,
			"0.023": 0.0,
			"0.024": 0.0,
			"0.025": 0.0
		}
	}
}
