{
	 "smiles": "BrC1=CC=C(NC(=O)C2CCNCC2)C=C1", 
	 "Tm": 483.15, 
	 "num_atms": 31, 
	 "gaussian": { 
		 "optdone": 1, 
		 "sigma_profile": "yes", 
		 "theory": "DFT", 
		 "functional": "B3LYP", 
		 "basiset": "6-31G**", 
		 "properties": { 
			 "R2extent": 10048.3597, 
			 "electric_dipole_moment_norm": 4.31118031518, 
			 "electric_quadrupole_moment_norm": 12.9939596017, 
			 "total_energy": -3222.45613347, 
			 "HOMO_LUMO_gap": 0.19926, 
			 "cosmo_polarized_energy": -14.82, 
			 "cosmo_cavitation_energy": 35.23, 
			 "cosmo_dispersion_energy": -26.06, 
			 "cosmo_repulsion_energy": 2.03, 
			 "cosmo_total_nonelectrostatic_energy": 11.2, 
			 "SMD_solvation_energy": 2.29 
		},
		"coords": [
			{
				"x": 0.2438719765,
				"y": 6.596324047,
				"z": -1.8330780667,
				"element": "Br" 
			},
			{
				"x": 0.0709107,
				"y": 4.7850410199,
				"z": -1.2447031229,
				"element": "C" 
			},
			{
				"x": -0.5029775435,
				"y": 3.8383204606,
				"z": -2.0910317925,
				"element": "C" 
			},
			{
				"x": -0.6254479907,
				"y": 2.5225294777,
				"z": -1.6557144854,
				"element": "C" 
			},
			{
				"x": -0.1791484298,
				"y": 2.1389586026,
				"z": -0.3804967337,
				"element": "C" 
			},
			{
				"x": -0.3396330432,
				"y": 0.7874416517,
				"z": -0.0156202543,
				"element": "N" 
			},
			{
				"x": 0.0190325894,
				"y": 0.1564779378,
				"z": 1.1604173181,
				"element": "C" 
			},
			{
				"x": 0.5511212271,
				"y": 0.7313709146,
				"z": 2.1003861961,
				"element": "O" 
			},
			{
				"x": -0.2476676427,
				"y": -1.351700052,
				"z": 1.1956598691,
				"element": "C" 
			},
			{
				"x": 0.9181225464,
				"y": -2.1107210251,
				"z": 0.5036725089,
				"element": "C" 
			},
			{
				"x": 0.5143650243,
				"y": -3.5680814316,
				"z": 0.2501272135,
				"element": "C" 
			},
			{
				"x": -0.6689529037,
				"y": -3.7009352084,
				"z": -0.6234183836,
				"element": "N" 
			},
			{
				"x": -1.4874670189,
				"y": -2.4935891699,
				"z": -0.7470762195,
				"element": "C" 
			},
			{
				"x": -1.6210714771,
				"y": -1.8145392859,
				"z": 0.6197097992,
				"element": "C" 
			},
			{
				"x": 0.396874641,
				"y": 3.1037377861,
				"z": 0.461601708,
				"element": "C" 
			},
			{
				"x": 0.5181191108,
				"y": 4.4219486088,
				"z": 0.0232581737,
				"element": "C" 
			},
			{
				"x": -0.8506107598,
				"y": 4.1228141917,
				"z": -3.0775197332,
				"element": "H" 
			},
			{
				"x": -1.073963398,
				"y": 1.7846239604,
				"z": -2.3171427443,
				"element": "H" 
			},
			{
				"x": -0.7631508498,
				"y": 0.2039512937,
				"z": -0.7234577688,
				"element": "H" 
			},
			{
				"x": -0.2167118366,
				"y": -1.5917010824,
				"z": 2.2617796819,
				"element": "H" 
			},
			{
				"x": 1.8136645938,
				"y": -2.0580723888,
				"z": 1.1307908516,
				"element": "H" 
			},
			{
				"x": 1.1724139899,
				"y": -1.6300353953,
				"z": -0.4496231914,
				"element": "H" 
			},
			{
				"x": 0.3088337834,
				"y": -4.0478028419,
				"z": 1.2186493095,
				"element": "H" 
			},
			{
				"x": 1.3481380102,
				"y": -4.1220324379,
				"z": -0.1939730837,
				"element": "H" 
			},
			{
				"x": -0.393465469,
				"y": -4.0268155466,
				"z": -1.5427345665,
				"element": "H" 
			},
			{
				"x": -2.4788608276,
				"y": -2.7755718447,
				"z": -1.1215477859,
				"element": "H" 
			},
			{
				"x": -1.0820006629,
				"y": -1.7674819733,
				"z": -1.4827753366,
				"element": "H" 
			},
			{
				"x": -2.3259665518,
				"y": -0.9783508978,
				"z": 0.559743772,
				"element": "H" 
			},
			{
				"x": -2.064035892,
				"y": -2.5412545367,
				"z": 1.3084667715,
				"element": "H" 
			},
			{
				"x": 0.7414428605,
				"y": 2.8128154918,
				"z": 1.4435110683,
				"element": "H" 
			},
			{
				"x": 0.9632212438,
				"y": 5.1650296736,
				"z": 0.6753390276,
				"element": "H" 
			}
		],
		 "valence_orbital": [ 
			{
				"type": "occ",
				"energy": -0.28353,
				"method": "rhf"
			},
			{
				"type": "occ",
				"energy": -0.26296,
				"method": "rhf"
			},
			{
				"type": "occ",
				"energy": -0.25331,
				"method": "rhf"
			},
			{
				"type": "occ",
				"energy": -0.22323,
				"method": "rhf"
			},
			{
				"type": "occ",
				"energy": -0.21964,
				"method": "rhf"
			},
			{
				"type": "unocc",
				"energy": -0.02038,
				"method": "rhf"
			},
			{
				"type": "unocc",
				"energy": -0.01312,
				"method": "rhf"
			},
			{
				"type": "unocc",
				"energy": 0.01065,
				"method": "rhf"
			},
			{
				"type": "unocc",
				"energy": 0.03504,
				"method": "rhf"
			},
			{
				"type": "unocc",
				"energy": 0.04604,
				"method": "rhf"
			}
		],
		"cosmo_sigma_profile": { 
			"-0.025": 0.0,
			"-0.024": 0.0,
			"-0.023": 0.0,
			"-0.022": 0.0,
			"-0.021": 0.0,
			"-0.02": 0.0,
			"-0.019": 0.0,
			"-0.018": 0.0,
			"-0.017": 0.0,
			"-0.016": 0.0,
			"-0.015": 0.0,
			"-0.014": 0.200911670441,
			"-0.013": 1.09205421607,
			"-0.012": 1.20750200171,
			"-0.011": 1.33111239588,
			"-0.01": 2.87750320188,
			"-0.009": 3.15063598554,
			"-0.008": 3.23371287809,
			"-0.007": 7.14619987395,
			"-0.006": 8.54998269239,
			"-0.005": 10.226030984,
			"-0.004": 20.6489639413,
			"-0.003": 29.3579837051,
			"-0.002": 31.5273385955,
			"-0.001": 24.2451830834,
			"0.0": 19.0591706091,
			"0.001": 15.5525840446,
			"0.002": 18.8842602798,
			"0.003": 23.342686998,
			"0.004": 23.2616617972,
			"0.005": 11.3413262909,
			"0.006": 2.42999038818,
			"0.007": 2.91037572865,
			"0.008": 2.36926220559,
			"0.009": 2.1002694181,
			"0.01": 1.4275772709,
			"0.011": 3.43003120602,
			"0.012": 2.52437178725,
			"0.013": 3.18841684106,
			"0.014": 2.17560759845,
			"0.015": 0.595036768846,
			"0.016": 0.544671600798,
			"0.017": 0.57093306064,
			"0.018": 0.407238208064,
			"0.019": 0.0896567474314,
			"0.02": 0.0,
			"0.021": 0.0,
			"0.022": 0.0,
			"0.023": 0.0,
			"0.024": 0.0,
			"0.025": 0.0
		}
	}
}
