{
	 "smiles": "FC1=C(F)C(Br)=C(F)C(F)=C1Br", 
	 "Tm": 352.65, 
	 "num_atms": 12, 
	 "gaussian": { 
		 "optdone": 1, 
		 "sigma_profile": "yes", 
		 "theory": "DFT", 
		 "functional": "B3LYP", 
		 "basiset": "6-31G**", 
		 "properties": { 
			 "R2extent": 4510.1915, 
			 "electric_dipole_moment_norm": 0.0, 
			 "electric_quadrupole_moment_norm": 4.50351286775, 
			 "total_energy": -5770.74584223, 
			 "HOMO_LUMO_gap": 0.21235, 
			 "cosmo_polarized_energy": -2.73, 
			 "cosmo_cavitation_energy": 23.77, 
			 "cosmo_dispersion_energy": -17.9, 
			 "cosmo_repulsion_energy": 1.35, 
			 "cosmo_total_nonelectrostatic_energy": 7.22, 
			 "SMD_solvation_energy": 3.87 
		},
		"coords": [
			{
				"x": 1.0648547302,
				"y": 0.3663847834,
				"z": -2.715586346,
				"element": "F" 
			},
			{
				"x": 0.2468165164,
				"y": 0.0671236057,
				"z": -1.7043873897,
				"element": "C" 
			},
			{
				"x": 0.3754120742,
				"y": 0.7693667503,
				"z": -0.5077456835,
				"element": "C" 
			},
			{
				"x": 1.3119469941,
				"y": 1.7158205604,
				"z": -0.4161465428,
				"element": "F" 
			},
			{
				"x": -0.4598465106,
				"y": 0.4871526577,
				"z": 0.573146742,
				"element": "C" 
			},
			{
				"x": -0.2859851416,
				"y": 1.4365501207,
				"z": 2.1909400493,
				"element": "Br" 
			},
			{
				"x": -1.4259488783,
				"y": -0.5096287173,
				"z": 0.4363816262,
				"element": "C" 
			},
			{
				"x": -2.2439630327,
				"y": -0.8089023908,
				"z": 1.447592081,
				"element": "F" 
			},
			{
				"x": -1.5545294977,
				"y": -1.2118794103,
				"z": -0.7602526938,
				"element": "C" 
			},
			{
				"x": -2.4910591058,
				"y": -2.1583413075,
				"z": -0.8518554519,
				"element": "F" 
			},
			{
				"x": -0.7192698805,
				"y": -0.9296659532,
				"z": -1.841150968,
				"element": "C" 
			},
			{
				"x": -0.8931282675,
				"y": -1.8790806991,
				"z": -3.4589354228,
				"element": "Br" 
			}
		],
		 "valence_orbital": [ 
			{
				"type": "occ",
				"energy": -0.31425,
				"method": "rhf"
			},
			{
				"type": "occ",
				"energy": -0.31316,
				"method": "rhf"
			},
			{
				"type": "occ",
				"energy": -0.31295,
				"method": "rhf"
			},
			{
				"type": "occ",
				"energy": -0.26693,
				"method": "rhf"
			},
			{
				"type": "occ",
				"energy": -0.26195,
				"method": "rhf"
			},
			{
				"type": "unocc",
				"energy": -0.0496,
				"method": "rhf"
			},
			{
				"type": "unocc",
				"energy": -0.04678,
				"method": "rhf"
			},
			{
				"type": "unocc",
				"energy": -0.0281,
				"method": "rhf"
			},
			{
				"type": "unocc",
				"energy": -0.01085,
				"method": "rhf"
			},
			{
				"type": "unocc",
				"energy": 0.09246,
				"method": "rhf"
			}
		],
		"cosmo_sigma_profile": { 
			"-0.025": 0.0,
			"-0.024": 0.0,
			"-0.023": 0.0,
			"-0.022": 0.0,
			"-0.021": 0.0,
			"-0.02": 0.0,
			"-0.019": 0.0,
			"-0.018": 0.0,
			"-0.017": 0.0,
			"-0.016": 0.0,
			"-0.015": 0.0,
			"-0.014": 0.0,
			"-0.013": 0.0,
			"-0.012": 0.0,
			"-0.011": 0.0,
			"-0.01": 0.0,
			"-0.009": 0.0,
			"-0.008": 0.00872483582825,
			"-0.007": 1.6834371235,
			"-0.006": 3.27791346037,
			"-0.005": 6.76801924354,
			"-0.004": 16.5091959528,
			"-0.003": 21.7340234662,
			"-0.002": 14.7233380564,
			"-0.001": 12.7127533711,
			"0.0": 13.9649198282,
			"0.001": 19.8016040092,
			"0.002": 49.0199578232,
			"0.003": 37.3963410337,
			"0.004": 2.46740032606,
			"0.005": 0.0,
			"0.006": 0.0,
			"0.007": 0.0,
			"0.008": 0.0,
			"0.009": 0.0,
			"0.01": 0.0,
			"0.011": 0.0,
			"0.012": 0.0,
			"0.013": 0.0,
			"0.014": 0.0,
			"0.015": 0.0,
			"0.016": 0.0,
			"0.017": 0.0,
			"0.018": 0.0,
			"0.019": 0.0,
			"0.02": 0.0,
			"0.021": 0.0,
			"0.022": 0.0,
			"0.023": 0.0,
			"0.024": 0.0,
			"0.025": 0.0
		}
	}
}
