{
	 "smiles": "CC(C)N1NC(=CC1=N)C1=CC=CC=C1", 
	 "Tm": 357.15, 
	 "num_atms": 30, 
	 "gaussian": { 
		 "optdone": 1, 
		 "sigma_profile": "yes", 
		 "theory": "DFT", 
		 "functional": "B3LYP", 
		 "basiset": "6-31G**", 
		 "properties": { 
			 "R2extent": 4105.8194, 
			 "electric_dipole_moment_norm": 3.97071055228, 
			 "electric_quadrupole_moment_norm": 8.97438203388, 
			 "total_energy": -630.540735196, 
			 "HOMO_LUMO_gap": 0.14319, 
			 "cosmo_polarized_energy": -13.39, 
			 "cosmo_cavitation_energy": 32.9, 
			 "cosmo_dispersion_energy": -23.21, 
			 "cosmo_repulsion_energy": 1.81, 
			 "cosmo_total_nonelectrostatic_energy": 11.51, 
			 "SMD_solvation_energy": 4.32 
		},
		"coords": [
			{
				"x": 2.013556225,
				"y": -1.4090513814,
				"z": 2.514301594,
				"element": "C" 
			},
			{
				"x": 1.0234988237,
				"y": -2.2715884695,
				"z": 1.7206078512,
				"element": "C" 
			},
			{
				"x": -0.0356850181,
				"y": -2.9265879693,
				"z": 2.6110048851,
				"element": "C" 
			},
			{
				"x": 0.3792439878,
				"y": -1.5215116767,
				"z": 0.630141711,
				"element": "N" 
			},
			{
				"x": -0.4288225184,
				"y": -0.4113965517,
				"z": 1.0056292761,
				"element": "N" 
			},
			{
				"x": -0.3921198555,
				"y": 0.4857108363,
				"z": -0.0700361716,
				"element": "C" 
			},
			{
				"x": 0.5380963883,
				"y": 0.088463999,
				"z": -0.9761017757,
				"element": "C" 
			},
			{
				"x": 1.1244302345,
				"y": -1.1655685074,
				"z": -0.5145613623,
				"element": "C" 
			},
			{
				"x": 2.113445927,
				"y": -1.8873731174,
				"z": -0.9157682796,
				"element": "N" 
			},
			{
				"x": -1.2856055354,
				"y": 1.6500050229,
				"z": -0.065023036,
				"element": "C" 
			},
			{
				"x": -1.6590676369,
				"y": 2.2681426334,
				"z": -1.2703690457,
				"element": "C" 
			},
			{
				"x": -2.5011832821,
				"y": 3.3771332498,
				"z": -1.2640931558,
				"element": "C" 
			},
			{
				"x": -2.9926835233,
				"y": 3.8807763225,
				"z": -0.0566117459,
				"element": "C" 
			},
			{
				"x": -2.6318263712,
				"y": 3.2704800718,
				"z": 1.1461140414,
				"element": "C" 
			},
			{
				"x": -1.782370109,
				"y": 2.1652405365,
				"z": 1.1445342854,
				"element": "C" 
			},
			{
				"x": 1.4995379015,
				"y": -0.5707600928,
				"z": 2.9955470929,
				"element": "H" 
			},
			{
				"x": 2.5028524625,
				"y": -2.0055203452,
				"z": 3.2913959317,
				"element": "H" 
			},
			{
				"x": 2.7874914158,
				"y": -1.0140990318,
				"z": 1.8508688688,
				"element": "H" 
			},
			{
				"x": 1.5812687333,
				"y": -3.04772954,
				"z": 1.1891883772,
				"element": "H" 
			},
			{
				"x": -0.6128582767,
				"y": -2.1768101046,
				"z": 3.1650844869,
				"element": "H" 
			},
			{
				"x": 0.4427305516,
				"y": -3.577744923,
				"z": 3.3488152343,
				"element": "H" 
			},
			{
				"x": -0.7278852251,
				"y": -3.5317171075,
				"z": 2.0173914903,
				"element": "H" 
			},
			{
				"x": -1.370364304,
				"y": -0.7164904248,
				"z": 1.2469052142,
				"element": "H" 
			},
			{
				"x": 0.8721168436,
				"y": 0.638955731,
				"z": -1.8437699282,
				"element": "H" 
			},
			{
				"x": 2.5196402951,
				"y": -1.4759142478,
				"z": -1.7552645358,
				"element": "H" 
			},
			{
				"x": -1.3006337557,
				"y": 1.8614657364,
				"z": -2.21100665,
				"element": "H" 
			},
			{
				"x": -2.783363004,
				"y": 3.8436397497,
				"z": -2.2034332945,
				"element": "H" 
			},
			{
				"x": -3.6530643858,
				"y": 4.7429647221,
				"z": -0.0542808736,
				"element": "H" 
			},
			{
				"x": -3.0046771441,
				"y": 3.6610903564,
				"z": 2.088521633,
				"element": "H" 
			},
			{
				"x": -1.4761998448,
				"y": 1.709794523,
				"z": 2.0813678814,
				"element": "H" 
			}
		],
		 "valence_orbital": [ 
			{
				"type": "occ",
				"energy": -0.28448,
				"method": "rhf"
			},
			{
				"type": "occ",
				"energy": -0.26315,
				"method": "rhf"
			},
			{
				"type": "occ",
				"energy": -0.24148,
				"method": "rhf"
			},
			{
				"type": "occ",
				"energy": -0.23474,
				"method": "rhf"
			},
			{
				"type": "occ",
				"energy": -0.18764,
				"method": "rhf"
			},
			{
				"type": "unocc",
				"energy": -0.04445,
				"method": "rhf"
			},
			{
				"type": "unocc",
				"energy": -0.01358,
				"method": "rhf"
			},
			{
				"type": "unocc",
				"energy": 0.03325,
				"method": "rhf"
			},
			{
				"type": "unocc",
				"energy": 0.07188,
				"method": "rhf"
			},
			{
				"type": "unocc",
				"energy": 0.08995,
				"method": "rhf"
			}
		],
		"cosmo_sigma_profile": { 
			"-0.025": 0.0,
			"-0.024": 0.0,
			"-0.023": 0.0,
			"-0.022": 0.0,
			"-0.021": 0.0,
			"-0.02": 0.0,
			"-0.019": 0.0,
			"-0.018": 0.0,
			"-0.017": 0.0,
			"-0.016": 0.0,
			"-0.015": 0.0,
			"-0.014": 0.378128699607,
			"-0.013": 0.697330084754,
			"-0.012": 1.09024184652,
			"-0.011": 1.13680383914,
			"-0.01": 1.07974487477,
			"-0.009": 2.2237539752,
			"-0.008": 2.37903095027,
			"-0.007": 5.24965447754,
			"-0.006": 13.5907220004,
			"-0.005": 14.9521946285,
			"-0.004": 17.5585307313,
			"-0.003": 22.6619091045,
			"-0.002": 22.7800593652,
			"-0.001": 21.2496535918,
			"0.0": 21.9559534604,
			"0.001": 24.7131631633,
			"0.002": 16.3582661583,
			"0.003": 16.9779534067,
			"0.004": 18.5076636125,
			"0.005": 11.6314846812,
			"0.006": 3.13108919202,
			"0.007": 2.21990646275,
			"0.008": 2.75807633106,
			"0.009": 2.4870645759,
			"0.01": 1.55245408754,
			"0.011": 1.38351601639,
			"0.012": 1.53784326466,
			"0.013": 1.62907465003,
			"0.014": 0.691457488123,
			"0.015": 1.02042856496,
			"0.016": 1.65995227415,
			"0.017": 0.820843586147,
			"0.018": 1.39310576701,
			"0.019": 0.465364893537,
			"0.02": 0.0,
			"0.021": 0.0,
			"0.022": 0.0,
			"0.023": 0.0,
			"0.024": 0.0,
			"0.025": 0.0
		}
	}
}
