{
	 "smiles": "NC(=S)C1=NC=CN=C1", 
	 "Tm": 474.15, 
	 "num_atms": 14, 
	 "gaussian": { 
		 "optdone": 1, 
		 "sigma_profile": "yes", 
		 "theory": "DFT", 
		 "functional": "B3LYP", 
		 "basiset": "6-31G**", 
		 "properties": { 
			 "R2extent": 2326.0413, 
			 "electric_dipole_moment_norm": 4.59325852527, 
			 "electric_quadrupole_moment_norm": 12.7871498048, 
			 "total_energy": -755.983054459, 
			 "HOMO_LUMO_gap": 0.12973, 
			 "cosmo_polarized_energy": -12.87, 
			 "cosmo_cavitation_energy": 20.26, 
			 "cosmo_dispersion_energy": -15.84, 
			 "cosmo_repulsion_energy": 1.25, 
			 "cosmo_total_nonelectrostatic_energy": 5.67, 
			 "SMD_solvation_energy": 0.54 
		},
		"coords": [
			{
				"x": 0.6285946394,
				"y": 2.2990402532,
				"z": -1.4702867253,
				"element": "N" 
			},
			{
				"x": 1.3263885725,
				"y": 2.3461145473,
				"z": -0.3269655232,
				"element": "C" 
			},
			{
				"x": 2.2284455612,
				"y": 3.6640499526,
				"z": 0.1536227429,
				"element": "S" 
			},
			{
				"x": 1.2110210955,
				"y": 1.0873081507,
				"z": 0.4808385434,
				"element": "C" 
			},
			{
				"x": 0.4472569424,
				"y": 0.1091145412,
				"z": -0.0347225224,
				"element": "N" 
			},
			{
				"x": 0.3371363585,
				"y": -1.0153524877,
				"z": 0.6746806247,
				"element": "C" 
			},
			{
				"x": 0.9873351109,
				"y": -1.1703416746,
				"z": 1.9008931729,
				"element": "C" 
			},
			{
				"x": 1.7502517178,
				"y": -0.2041062066,
				"z": 2.4246223454,
				"element": "N" 
			},
			{
				"x": 1.8602639751,
				"y": 0.9218060876,
				"z": 1.7138118251,
				"element": "C" 
			},
			{
				"x": 0.1053268884,
				"y": 1.4592153492,
				"z": -1.6878672006,
				"element": "H" 
			},
			{
				"x": 0.6362626227,
				"y": 3.094485955,
				"z": -2.0896315604,
				"element": "H" 
			},
			{
				"x": -0.2803551439,
				"y": -1.8087629535,
				"z": 0.2598071436,
				"element": "H" 
			},
			{
				"x": 0.8905473334,
				"y": -2.0915845847,
				"z": 2.4710246361,
				"element": "H" 
			},
			{
				"x": 2.4735243261,
				"y": 1.7214130703,
				"z": 2.1164724978,
				"element": "H" 
			}
		],
		 "valence_orbital": [ 
			{
				"type": "occ",
				"energy": -0.32896,
				"method": "rhf"
			},
			{
				"type": "occ",
				"energy": -0.28996,
				"method": "rhf"
			},
			{
				"type": "occ",
				"energy": -0.26954,
				"method": "rhf"
			},
			{
				"type": "occ",
				"energy": -0.23597,
				"method": "rhf"
			},
			{
				"type": "occ",
				"energy": -0.21701,
				"method": "rhf"
			},
			{
				"type": "unocc",
				"energy": -0.08728,
				"method": "rhf"
			},
			{
				"type": "unocc",
				"energy": -0.05494,
				"method": "rhf"
			},
			{
				"type": "unocc",
				"energy": 0.00921,
				"method": "rhf"
			},
			{
				"type": "unocc",
				"energy": 0.08048,
				"method": "rhf"
			},
			{
				"type": "unocc",
				"energy": 0.09538,
				"method": "rhf"
			}
		],
		"cosmo_sigma_profile": { 
			"-0.025": 0.0,
			"-0.024": 0.0,
			"-0.023": 0.0,
			"-0.022": 0.0,
			"-0.021": 0.0,
			"-0.02": 0.0,
			"-0.019": 0.0,
			"-0.018": 0.0,
			"-0.017": 0.0,
			"-0.016": 0.208713798528,
			"-0.015": 1.18952004239,
			"-0.014": 1.20603369275,
			"-0.013": 1.73101603831,
			"-0.012": 2.23830387026,
			"-0.011": 1.97093094045,
			"-0.01": 1.21276442307,
			"-0.009": 2.9349160225,
			"-0.008": 7.37683949089,
			"-0.007": 5.56461448798,
			"-0.006": 6.06938054336,
			"-0.005": 5.75232065668,
			"-0.004": 6.22591352853,
			"-0.003": 10.0947000618,
			"-0.002": 16.0433544744,
			"-0.001": 14.8230256768,
			"0.0": 8.79940202866,
			"0.001": 8.94271736325,
			"0.002": 7.42479564301,
			"0.003": 6.80228527132,
			"0.004": 5.92973509332,
			"0.005": 7.53725320342,
			"0.006": 5.97995219604,
			"0.007": 5.98328814042,
			"0.008": 8.0361029017,
			"0.009": 7.33518034486,
			"0.01": 2.8070185747,
			"0.011": 2.7731010333,
			"0.012": 1.11174349703,
			"0.013": 0.908717085025,
			"0.014": 0.733488938822,
			"0.015": 0.250674575499,
			"0.016": 0.0,
			"0.017": 0.0,
			"0.018": 0.0,
			"0.019": 0.0,
			"0.02": 0.0,
			"0.021": 0.0,
			"0.022": 0.0,
			"0.023": 0.0,
			"0.024": 0.0,
			"0.025": 0.0
		}
	}
}
