{
	 "smiles": "[O-][N+](=O)C1=CC(Br)=CC=C1Br", 
	 "Tm": 356.95, 
	 "num_atms": 14, 
	 "gaussian": { 
		 "optdone": 1, 
		 "sigma_profile": "yes", 
		 "theory": "DFT", 
		 "functional": "B3LYP", 
		 "basiset": "6-31G**", 
		 "properties": { 
			 "R2extent": 4585.068, 
			 "electric_dipole_moment_norm": 3.88449844124, 
			 "electric_quadrupole_moment_norm": 8.68189748845, 
			 "total_energy": -5578.33571705, 
			 "HOMO_LUMO_gap": 0.16294, 
			 "cosmo_polarized_energy": -8.02, 
			 "cosmo_cavitation_energy": 24.08, 
			 "cosmo_dispersion_energy": -18.56, 
			 "cosmo_repulsion_energy": 1.49, 
			 "cosmo_total_nonelectrostatic_energy": 7.01, 
			 "SMD_solvation_energy": 4.2 
		},
		"coords": [
			{
				"x": 2.1974284575,
				"y": -2.3325143945,
				"z": 2.4182977568,
				"element": "O" 
			},
			{
				"x": 2.0626578696,
				"y": -1.26103447,
				"z": 1.8393336183,
				"element": "N" 
			},
			{
				"x": 2.8366499226,
				"y": -0.3079009864,
				"z": 1.9157309935,
				"element": "O" 
			},
			{
				"x": 0.899001281,
				"y": -1.0978819164,
				"z": 0.9442416126,
				"element": "C" 
			},
			{
				"x": 1.1032057432,
				"y": -0.2710839815,
				"z": -0.1626463637,
				"element": "C" 
			},
			{
				"x": 0.0767044375,
				"y": -0.0889844434,
				"z": -1.0793839363,
				"element": "C" 
			},
			{
				"x": 0.3598347796,
				"y": 1.015305474,
				"z": -2.6023353937,
				"element": "Br" 
			},
			{
				"x": -1.1597662885,
				"y": -0.7064608014,
				"z": -0.8882646195,
				"element": "C" 
			},
			{
				"x": -1.359444324,
				"y": -1.5077529928,
				"z": 0.2319843156,
				"element": "C" 
			},
			{
				"x": -0.3361339472,
				"y": -1.7242042842,
				"z": 1.1601348981,
				"element": "C" 
			},
			{
				"x": -0.7538853705,
				"y": -2.7910121375,
				"z": 2.6706000222,
				"element": "Br" 
			},
			{
				"x": 2.0638836919,
				"y": 0.2122764563,
				"z": -0.2818028581,
				"element": "H" 
			},
			{
				"x": -1.9622266149,
				"y": -0.559397322,
				"z": -1.6017981403,
				"element": "H" 
			},
			{
				"x": -2.323409638,
				"y": -1.9744542002,
				"z": 0.3974080944,
				"element": "H" 
			}
		],
		 "valence_orbital": [ 
			{
				"type": "occ",
				"energy": -0.31097,
				"method": "rhf"
			},
			{
				"type": "occ",
				"energy": -0.30917,
				"method": "rhf"
			},
			{
				"type": "occ",
				"energy": -0.29909,
				"method": "rhf"
			},
			{
				"type": "occ",
				"energy": -0.2867,
				"method": "rhf"
			},
			{
				"type": "occ",
				"energy": -0.26256,
				"method": "rhf"
			},
			{
				"type": "unocc",
				"energy": -0.09962,
				"method": "rhf"
			},
			{
				"type": "unocc",
				"energy": -0.05078,
				"method": "rhf"
			},
			{
				"type": "unocc",
				"energy": -0.03061,
				"method": "rhf"
			},
			{
				"type": "unocc",
				"energy": -0.02254,
				"method": "rhf"
			},
			{
				"type": "unocc",
				"energy": -0.00877,
				"method": "rhf"
			}
		],
		"cosmo_sigma_profile": { 
			"-0.025": 0.0,
			"-0.024": 0.0,
			"-0.023": 0.0,
			"-0.022": 0.0,
			"-0.021": 0.0,
			"-0.02": 0.0,
			"-0.019": 0.0,
			"-0.018": 0.0,
			"-0.017": 0.0,
			"-0.016": 0.0,
			"-0.015": 0.0,
			"-0.014": 0.0,
			"-0.013": 0.0,
			"-0.012": 0.0,
			"-0.011": 0.0,
			"-0.01": 0.0562362159819,
			"-0.009": 3.47877307134,
			"-0.008": 7.07108936608,
			"-0.007": 6.71590234702,
			"-0.006": 7.39112477291,
			"-0.005": 9.61209413695,
			"-0.004": 9.20279241832,
			"-0.003": 10.6156745951,
			"-0.002": 16.2797344981,
			"-0.001": 25.3350475663,
			"0.0": 18.9680915809,
			"0.001": 11.4135326813,
			"0.002": 14.5561828749,
			"0.003": 20.1132391334,
			"0.004": 10.3728323363,
			"0.005": 3.1790227039,
			"0.006": 5.73071962347,
			"0.007": 11.2452425325,
			"0.008": 6.17605000575,
			"0.009": 3.04557769165,
			"0.01": 0.405992606791,
			"0.011": 0.0,
			"0.012": 0.0,
			"0.013": 0.0,
			"0.014": 0.0,
			"0.015": 0.0,
			"0.016": 0.0,
			"0.017": 0.0,
			"0.018": 0.0,
			"0.019": 0.0,
			"0.02": 0.0,
			"0.021": 0.0,
			"0.022": 0.0,
			"0.023": 0.0,
			"0.024": 0.0,
			"0.025": 0.0
		}
	}
}
