{
	 "smiles": "CCC12CCCN3CCC4=C(C13)N(C1=CC=CC=C41)C(O)(C2)C(=O)OC", 
	 "Tm": 505.15, 
	 "num_atms": 52, 
	 "gaussian": { 
		 "optdone": 1, 
		 "sigma_profile": "yes", 
		 "theory": "DFT", 
		 "functional": "B3LYP", 
		 "basiset": "6-31G**", 
		 "properties": { 
			 "R2extent": 8513.8723, 
			 "electric_dipole_moment_norm": 3.2795310305, 
			 "electric_quadrupole_moment_norm": 12.3257277797, 
			 "total_energy": -1151.07737744, 
			 "HOMO_LUMO_gap": 0.16987, 
			 "cosmo_polarized_energy": -11.96, 
			 "cosmo_cavitation_energy": 47.71, 
			 "cosmo_dispersion_energy": -32.78, 
			 "cosmo_repulsion_energy": 2.44, 
			 "cosmo_total_nonelectrostatic_energy": 17.38, 
			 "SMD_solvation_energy": 5.5 
		},
		"coords": [
			{
				"x": 0.7854653703,
				"y": 3.3828859759,
				"z": 1.8446980103,
				"element": "C" 
			},
			{
				"x": 0.5133509305,
				"y": 1.8841422231,
				"z": 2.0162323296,
				"element": "C" 
			},
			{
				"x": 0.8359374591,
				"y": 0.9657398053,
				"z": 0.8017698402,
				"element": "C" 
			},
			{
				"x": 2.3596005328,
				"y": 0.9308633746,
				"z": 0.5562647361,
				"element": "C" 
			},
			{
				"x": 2.7947092806,
				"y": -0.080243438,
				"z": -0.5223456722,
				"element": "C" 
			},
			{
				"x": 1.9150470875,
				"y": -1.3479204844,
				"z": -0.5281112982,
				"element": "C" 
			},
			{
				"x": 1.3037917463,
				"y": -1.5737768473,
				"z": 0.78204294,
				"element": "N" 
			},
			{
				"x": 0.7204050328,
				"y": -2.9413956053,
				"z": 0.8711581151,
				"element": "C" 
			},
			{
				"x": -0.6994882947,
				"y": -3.0424504952,
				"z": 1.4929483581,
				"element": "C" 
			},
			{
				"x": -1.5729379503,
				"y": -2.0026902439,
				"z": 0.8576520257,
				"element": "C" 
			},
			{
				"x": -1.0050215626,
				"y": -0.7773200155,
				"z": 0.6762058369,
				"element": "C" 
			},
			{
				"x": 0.3694556828,
				"y": -0.4786837877,
				"z": 1.1752498768,
				"element": "C" 
			},
			{
				"x": -1.8627641024,
				"y": 0.0828908484,
				"z": 0.0138457025,
				"element": "N" 
			},
			{
				"x": -3.0582615971,
				"y": -0.6060416678,
				"z": -0.2063647693,
				"element": "C" 
			},
			{
				"x": -4.2560675313,
				"y": -0.1838006949,
				"z": -0.7921247098,
				"element": "C" 
			},
			{
				"x": -5.2941415513,
				"y": -1.1077660789,
				"z": -0.8890566786,
				"element": "C" 
			},
			{
				"x": -5.1502877521,
				"y": -2.4215843186,
				"z": -0.4055680382,
				"element": "C" 
			},
			{
				"x": -3.9661948236,
				"y": -2.8380528448,
				"z": 0.1920321622,
				"element": "C" 
			},
			{
				"x": -2.8978173879,
				"y": -1.9333354032,
				"z": 0.3039919343,
				"element": "C" 
			},
			{
				"x": -1.441869831,
				"y": 1.389324452,
				"z": -0.4678430204,
				"element": "C" 
			},
			{
				"x": -1.9846912825,
				"y": 2.425416498,
				"z": 0.314335958,
				"element": "O" 
			},
			{
				"x": 0.1104256538,
				"y": 1.4406160864,
				"z": -0.4866638645,
				"element": "C" 
			},
			{
				"x": -1.9580939395,
				"y": 1.6017376915,
				"z": -1.9173636811,
				"element": "C" 
			},
			{
				"x": -2.6761578394,
				"y": 2.5405216473,
				"z": -2.2094299653,
				"element": "O" 
			},
			{
				"x": -1.5280954965,
				"y": 0.6803447887,
				"z": -2.7745788588,
				"element": "O" 
			},
			{
				"x": -2.018245623,
				"y": 0.8006506236,
				"z": -4.1264025102,
				"element": "C" 
			},
			{
				"x": 1.8175577793,
				"y": 3.5903232131,
				"z": 1.5428317641,
				"element": "H" 
			},
			{
				"x": 0.10970932,
				"y": 3.8281866574,
				"z": 1.1104927552,
				"element": "H" 
			},
			{
				"x": 0.6165318211,
				"y": 3.9002074388,
				"z": 2.7949069786,
				"element": "H" 
			},
			{
				"x": 1.1015404609,
				"y": 1.5088711849,
				"z": 2.8641012877,
				"element": "H" 
			},
			{
				"x": -0.5398370178,
				"y": 1.7544092233,
				"z": 2.2875165657,
				"element": "H" 
			},
			{
				"x": 2.8329150858,
				"y": 0.6587686889,
				"z": 1.5061209334,
				"element": "H" 
			},
			{
				"x": 2.7267870529,
				"y": 1.9300026256,
				"z": 0.2977120562,
				"element": "H" 
			},
			{
				"x": 3.8396729448,
				"y": -0.3515856536,
				"z": -0.3385717571,
				"element": "H" 
			},
			{
				"x": 2.7689487111,
				"y": 0.3770370882,
				"z": -1.5183590333,
				"element": "H" 
			},
			{
				"x": 2.5330952347,
				"y": -2.2200606238,
				"z": -0.7648039906,
				"element": "H" 
			},
			{
				"x": 1.1519673123,
				"y": -1.2929203157,
				"z": -1.3298509113,
				"element": "H" 
			},
			{
				"x": 1.4126314815,
				"y": -3.5843805267,
				"z": 1.4312654332,
				"element": "H" 
			},
			{
				"x": 0.6410901816,
				"y": -3.3603067711,
				"z": -0.1422556976,
				"element": "H" 
			},
			{
				"x": -1.0726613365,
				"y": -4.0601568537,
				"z": 1.3371950308,
				"element": "H" 
			},
			{
				"x": -0.6419069601,
				"y": -2.8976860009,
				"z": 2.581858648,
				"element": "H" 
			},
			{
				"x": 0.3320696647,
				"y": -0.5226318227,
				"z": 2.2730811194,
				"element": "H" 
			},
			{
				"x": -4.3909124022,
				"y": 0.8337327525,
				"z": -1.1422079793,
				"element": "H" 
			},
			{
				"x": -6.2360797217,
				"y": -0.8012154472,
				"z": -1.3345772617,
				"element": "H" 
			},
			{
				"x": -5.9820462273,
				"y": -3.1149402014,
				"z": -0.4920469996,
				"element": "H" 
			},
			{
				"x": -3.8690606992,
				"y": -3.8500476209,
				"z": 0.5758890777,
				"element": "H" 
			},
			{
				"x": -2.562734877,
				"y": 2.9388098558,
				"z": -0.2775810344,
				"element": "H" 
			},
			{
				"x": 0.4434624712,
				"y": 0.8328456427,
				"z": -1.330611157,
				"element": "H" 
			},
			{
				"x": 0.3862900621,
				"y": 2.4761041503,
				"z": -0.7064003328,
				"element": "H" 
			},
			{
				"x": -1.5399074901,
				"y": -0.0052160294,
				"z": -4.6808652833,
				"element": "H" 
			},
			{
				"x": -1.7508014934,
				"y": 1.7739902273,
				"z": -4.5430400538,
				"element": "H" 
			},
			{
				"x": -3.1040735697,
				"y": 0.6852870291,
				"z": -4.1392749174,
				"element": "H" 
			}
		],
		 "valence_orbital": [ 
			{
				"type": "occ",
				"energy": -0.28258,
				"method": "rhf"
			},
			{
				"type": "occ",
				"energy": -0.26105,
				"method": "rhf"
			},
			{
				"type": "occ",
				"energy": -0.21478,
				"method": "rhf"
			},
			{
				"type": "occ",
				"energy": -0.20063,
				"method": "rhf"
			},
			{
				"type": "occ",
				"energy": -0.18819,
				"method": "rhf"
			},
			{
				"type": "unocc",
				"energy": -0.01832,
				"method": "rhf"
			},
			{
				"type": "unocc",
				"energy": -0.00275,
				"method": "rhf"
			},
			{
				"type": "unocc",
				"energy": 0.02754,
				"method": "rhf"
			},
			{
				"type": "unocc",
				"energy": 0.06653,
				"method": "rhf"
			},
			{
				"type": "unocc",
				"energy": 0.07619,
				"method": "rhf"
			}
		],
		"cosmo_sigma_profile": { 
			"-0.025": 0.0,
			"-0.024": 0.0,
			"-0.023": 0.0,
			"-0.022": 0.0,
			"-0.021": 0.0,
			"-0.02": 0.0,
			"-0.019": 0.0,
			"-0.018": 0.0,
			"-0.017": 0.0,
			"-0.016": 0.0,
			"-0.015": 0.0,
			"-0.014": 0.0,
			"-0.013": 0.0,
			"-0.012": 0.07571664637,
			"-0.011": 0.608947531962,
			"-0.01": 0.438431745453,
			"-0.009": 0.431598708051,
			"-0.008": 0.626475488275,
			"-0.007": 4.57708864333,
			"-0.006": 8.48951208791,
			"-0.005": 16.4340692765,
			"-0.004": 26.6261640917,
			"-0.003": 44.946780285,
			"-0.002": 51.3295739968,
			"-0.001": 44.9066504448,
			"0.0": 41.8755709028,
			"0.001": 26.4466964045,
			"0.002": 16.7678554864,
			"0.003": 14.1759353915,
			"0.004": 14.4438370799,
			"0.005": 15.6957025039,
			"0.006": 15.9275575626,
			"0.007": 10.6311567192,
			"0.008": 4.54337570533,
			"0.009": 3.60158107735,
			"0.01": 4.01307267353,
			"0.011": 2.12179299502,
			"0.012": 1.14753921563,
			"0.013": 0.646186917601,
			"0.014": 0.48226707385,
			"0.015": 0.349256727029,
			"0.016": 0.161000056754,
			"0.017": 0.0,
			"0.018": 0.0,
			"0.019": 0.0,
			"0.02": 0.0,
			"0.021": 0.0,
			"0.022": 0.0,
			"0.023": 0.0,
			"0.024": 0.0,
			"0.025": 0.0
		}
	}
}
