{
	 "smiles": "COC(=O)C1=C(C)C=C(C)C=C1", 
	 "Tm": 271.15, 
	 "num_atms": 24, 
	 "gaussian": { 
		 "optdone": 1, 
		 "sigma_profile": "yes", 
		 "theory": "DFT", 
		 "functional": "B3LYP", 
		 "basiset": "6-31G**", 
		 "properties": { 
			 "R2extent": 2628.5793, 
			 "electric_dipole_moment_norm": 2.08878654008, 
			 "electric_quadrupole_moment_norm": 11.5737098154, 
			 "total_energy": -538.7676719, 
			 "HOMO_LUMO_gap": 0.20313, 
			 "cosmo_polarized_energy": -7.14, 
			 "cosmo_cavitation_energy": 27.28, 
			 "cosmo_dispersion_energy": -19.81, 
			 "cosmo_repulsion_energy": 1.57, 
			 "cosmo_total_nonelectrostatic_energy": 9.04, 
			 "SMD_solvation_energy": 6.35 
		},
		"coords": [
			{
				"x": 1.1743854451,
				"y": 2.2893042915,
				"z": -3.3346872163,
				"element": "C" 
			},
			{
				"x": 0.5121568672,
				"y": 1.5695528642,
				"z": -2.2835661273,
				"element": "O" 
			},
			{
				"x": 1.0860481483,
				"y": 0.3894003225,
				"z": -1.9483817922,
				"element": "C" 
			},
			{
				"x": 2.0891537158,
				"y": -0.0186905922,
				"z": -2.5051769942,
				"element": "O" 
			},
			{
				"x": 0.3837528458,
				"y": -0.3444626927,
				"z": -0.8532392304,
				"element": "C" 
			},
			{
				"x": -0.7845763631,
				"y": 0.0806217349,
				"z": -0.1755093256,
				"element": "C" 
			},
			{
				"x": -1.5231547624,
				"y": 1.3699462218,
				"z": -0.45737938,
				"element": "C" 
			},
			{
				"x": -1.2932560905,
				"y": -0.7570520214,
				"z": 0.8274933477,
				"element": "C" 
			},
			{
				"x": -0.7051815556,
				"y": -1.9743590415,
				"z": 1.1836620308,
				"element": "C" 
			},
			{
				"x": -1.2835733188,
				"y": -2.8243678507,
				"z": 2.2887350771,
				"element": "C" 
			},
			{
				"x": 0.4483484364,
				"y": -2.3739578676,
				"z": 0.4961818644,
				"element": "C" 
			},
			{
				"x": 0.977698223,
				"y": -1.5689943645,
				"z": -0.5013559887,
				"element": "C" 
			},
			{
				"x": 0.5924893207,
				"y": 3.200037526,
				"z": -3.4780293034,
				"element": "H" 
			},
			{
				"x": 1.195990194,
				"y": 1.6979110846,
				"z": -4.2534003695,
				"element": "H" 
			},
			{
				"x": 2.2016831041,
				"y": 2.5299302384,
				"z": -3.0500480463,
				"element": "H" 
			},
			{
				"x": -2.390659288,
				"y": 1.4561161757,
				"z": 0.2024198118,
				"element": "H" 
			},
			{
				"x": -1.8694414908,
				"y": 1.419674075,
				"z": -1.4931832918,
				"element": "H" 
			},
			{
				"x": -0.8838202845,
				"y": 2.2435880242,
				"z": -0.3046671432,
				"element": "H" 
			},
			{
				"x": -2.1919455733,
				"y": -0.4407101626,
				"z": 1.352119276,
				"element": "H" 
			},
			{
				"x": -0.6859997923,
				"y": -2.737768935,
				"z": 3.2047076253,
				"element": "H" 
			},
			{
				"x": -1.2947427898,
				"y": -3.8837079829,
				"z": 2.012082276,
				"element": "H" 
			},
			{
				"x": -2.3065331992,
				"y": -2.5253611044,
				"z": 2.5332277986,
				"element": "H" 
			},
			{
				"x": 0.9291512433,
				"y": -3.3169589333,
				"z": 0.7433861187,
				"element": "H" 
			},
			{
				"x": 1.8693269647,
				"y": -1.8675910099,
				"z": -1.0414910176,
				"element": "H" 
			}
		],
		 "valence_orbital": [ 
			{
				"type": "occ",
				"energy": -0.33455,
				"method": "rhf"
			},
			{
				"type": "occ",
				"energy": -0.29631,
				"method": "rhf"
			},
			{
				"type": "occ",
				"energy": -0.26774,
				"method": "rhf"
			},
			{
				"type": "occ",
				"energy": -0.24676,
				"method": "rhf"
			},
			{
				"type": "occ",
				"energy": -0.24145,
				"method": "rhf"
			},
			{
				"type": "unocc",
				"energy": -0.03832,
				"method": "rhf"
			},
			{
				"type": "unocc",
				"energy": 0.00066,
				"method": "rhf"
			},
			{
				"type": "unocc",
				"energy": 0.06109,
				"method": "rhf"
			},
			{
				"type": "unocc",
				"energy": 0.09902,
				"method": "rhf"
			},
			{
				"type": "unocc",
				"energy": 0.11163,
				"method": "rhf"
			}
		],
		"cosmo_sigma_profile": { 
			"-0.025": 0.0,
			"-0.024": 0.0,
			"-0.023": 0.0,
			"-0.022": 0.0,
			"-0.021": 0.0,
			"-0.02": 0.0,
			"-0.019": 0.0,
			"-0.018": 0.0,
			"-0.017": 0.0,
			"-0.016": 0.0,
			"-0.015": 0.0,
			"-0.014": 0.0,
			"-0.013": 0.0,
			"-0.012": 0.0,
			"-0.011": 0.0,
			"-0.01": 0.0,
			"-0.009": 0.0,
			"-0.008": 0.0,
			"-0.007": 0.264716874788,
			"-0.006": 4.64537151129,
			"-0.005": 14.7882405723,
			"-0.004": 22.4387443729,
			"-0.003": 24.8670521065,
			"-0.002": 21.0032409281,
			"-0.001": 23.0639373648,
			"0.0": 23.5211620179,
			"0.001": 16.9270189485,
			"0.002": 13.5830057624,
			"0.003": 13.4131319756,
			"0.004": 13.4788570072,
			"0.005": 7.8919710506,
			"0.006": 2.44976038357,
			"0.007": 1.15250893814,
			"0.008": 0.816168896817,
			"0.009": 1.83446104957,
			"0.01": 1.74479773422,
			"0.011": 2.39140426054,
			"0.012": 4.16201276964,
			"0.013": 1.33788840653,
			"0.014": 0.0,
			"0.015": 0.0,
			"0.016": 0.0,
			"0.017": 0.0,
			"0.018": 0.0,
			"0.019": 0.0,
			"0.02": 0.0,
			"0.021": 0.0,
			"0.022": 0.0,
			"0.023": 0.0,
			"0.024": 0.0,
			"0.025": 0.0
		}
	}
}
