{
	 "smiles": "OC(=O)C1=CC(=CC=C1)S(=O)(=O)NCC1=CC=CO1", 
	 "Tm": 464.15, 
	 "num_atms": 30, 
	 "gaussian": { 
		 "optdone": 1, 
		 "sigma_profile": "yes", 
		 "theory": "DFT", 
		 "functional": "B3LYP", 
		 "basiset": "6-31G**", 
		 "properties": { 
			 "R2extent": 6094.4514, 
			 "electric_dipole_moment_norm": 5.23520341725, 
			 "electric_quadrupole_moment_norm": 32.2765706234, 
			 "total_energy": -1292.87165121, 
			 "HOMO_LUMO_gap": 0.18425, 
			 "cosmo_polarized_energy": -21.1, 
			 "cosmo_cavitation_energy": 35.7, 
			 "cosmo_dispersion_energy": -25.56, 
			 "cosmo_repulsion_energy": 1.87, 
			 "cosmo_total_nonelectrostatic_energy": 12.01, 
			 "SMD_solvation_energy": 6.68 
		},
		"coords": [
			{
				"x": 0.5109057472,
				"y": -1.5749679304,
				"z": 2.6775496937,
				"element": "O" 
			},
			{
				"x": -0.6316231931,
				"y": -0.8460876342,
				"z": 2.5919009892,
				"element": "C" 
			},
			{
				"x": -1.238691255,
				"y": -0.537562429,
				"z": 3.5900734119,
				"element": "O" 
			},
			{
				"x": -1.0612601026,
				"y": -0.4402630702,
				"z": 1.2116803337,
				"element": "C" 
			},
			{
				"x": -0.5901135339,
				"y": -1.0901011727,
				"z": 0.0711814995,
				"element": "C" 
			},
			{
				"x": -0.9377349608,
				"y": -0.6103734118,
				"z": -1.1895295279,
				"element": "C" 
			},
			{
				"x": -1.7946195767,
				"y": 0.4765571584,
				"z": -1.3410913348,
				"element": "C" 
			},
			{
				"x": -2.3148135139,
				"y": 1.0874736704,
				"z": -0.1942250444,
				"element": "C" 
			},
			{
				"x": -1.9472761155,
				"y": 0.6393085434,
				"z": 1.0718601798,
				"element": "C" 
			},
			{
				"x": -0.1860653345,
				"y": -1.3987342188,
				"z": -2.6157599698,
				"element": "S" 
			},
			{
				"x": -0.3734854049,
				"y": -2.8446771117,
				"z": -2.4657096393,
				"element": "O" 
			},
			{
				"x": -0.6115870757,
				"y": -0.6636886903,
				"z": -3.8086118886,
				"element": "O" 
			},
			{
				"x": 1.4450325712,
				"y": -1.0747154745,
				"z": -2.4068714846,
				"element": "N" 
			},
			{
				"x": 2.4007055934,
				"y": -2.0899024108,
				"z": -1.9371127079,
				"element": "C" 
			},
			{
				"x": 3.2498752822,
				"y": -1.6245526347,
				"z": -0.7991806443,
				"element": "C" 
			},
			{
				"x": 4.566514135,
				"y": -1.2843189241,
				"z": -0.7154847647,
				"element": "C" 
			},
			{
				"x": 4.8211965303,
				"y": -0.9182150083,
				"z": 0.6479823888,
				"element": "C" 
			},
			{
				"x": 3.6406712161,
				"y": -1.0591769102,
				"z": 1.3036912416,
				"element": "C" 
			},
			{
				"x": 2.6662196298,
				"y": -1.4926350334,
				"z": 0.4417770989,
				"element": "O" 
			},
			{
				"x": 0.9613639883,
				"y": -1.6282402124,
				"z": 1.8194414722,
				"element": "H" 
			},
			{
				"x": 0.037826118,
				"y": -1.9702869551,
				"z": 0.1448295479,
				"element": "H" 
			},
			{
				"x": -2.0436902453,
				"y": 0.8288423964,
				"z": -2.3360203062,
				"element": "H" 
			},
			{
				"x": -2.9965327227,
				"y": 1.9261220069,
				"z": -0.2953328108,
				"element": "H" 
			},
			{
				"x": -2.324312536,
				"y": 1.1153959952,
				"z": 1.9706276377,
				"element": "H" 
			},
			{
				"x": 1.7762491671,
				"y": -0.3805217617,
				"z": -3.0659042388,
				"element": "H" 
			},
			{
				"x": 1.8216919659,
				"y": -2.9766079437,
				"z": -1.6631986458,
				"element": "H" 
			},
			{
				"x": 3.0653741879,
				"y": -2.3915943613,
				"z": -2.7540183636,
				"element": "H" 
			},
			{
				"x": 5.2759831098,
				"y": -1.295121614,
				"z": -1.5309760501,
				"element": "H" 
			},
			{
				"x": 5.7587537722,
				"y": -0.595333062,
				"z": 1.0763782399,
				"element": "H" 
			},
			{
				"x": 3.327242556,
				"y": -0.9093217953,
				"z": 2.325553687,
				"element": "H" 
			}
		],
		 "valence_orbital": [ 
			{
				"type": "occ",
				"energy": -0.30068,
				"method": "rhf"
			},
			{
				"type": "occ",
				"energy": -0.28707,
				"method": "rhf"
			},
			{
				"type": "occ",
				"energy": -0.27737,
				"method": "rhf"
			},
			{
				"type": "occ",
				"energy": -0.27077,
				"method": "rhf"
			},
			{
				"type": "occ",
				"energy": -0.24678,
				"method": "rhf"
			},
			{
				"type": "unocc",
				"energy": -0.06253,
				"method": "rhf"
			},
			{
				"type": "unocc",
				"energy": -0.04882,
				"method": "rhf"
			},
			{
				"type": "unocc",
				"energy": -0.01647,
				"method": "rhf"
			},
			{
				"type": "unocc",
				"energy": 0.03313,
				"method": "rhf"
			},
			{
				"type": "unocc",
				"energy": 0.04084,
				"method": "rhf"
			}
		],
		"cosmo_sigma_profile": { 
			"-0.025": 0.0,
			"-0.024": 0.0,
			"-0.023": 0.0,
			"-0.022": 0.0,
			"-0.021": 0.0,
			"-0.02": 0.0,
			"-0.019": 0.0,
			"-0.018": 0.0,
			"-0.017": 0.0,
			"-0.016": 0.013158482807,
			"-0.015": 0.934764771089,
			"-0.014": 1.10063212496,
			"-0.013": 1.31220159089,
			"-0.012": 1.71520835879,
			"-0.011": 1.94352598643,
			"-0.01": 2.17142198726,
			"-0.009": 3.65136910268,
			"-0.008": 7.91027295583,
			"-0.007": 17.8578633476,
			"-0.006": 18.2589974992,
			"-0.005": 18.5476863652,
			"-0.004": 18.399033212,
			"-0.003": 16.1048199683,
			"-0.002": 16.3387504854,
			"-0.001": 15.1474775839,
			"0.0": 18.9330771874,
			"0.001": 21.7330350739,
			"0.002": 15.1307054811,
			"0.003": 12.3353382969,
			"0.004": 11.081519288,
			"0.005": 11.7099230565,
			"0.006": 4.90851482844,
			"0.007": 6.12983155556,
			"0.008": 5.82293531747,
			"0.009": 7.08380600338,
			"0.01": 13.1595200218,
			"0.011": 12.8531230218,
			"0.012": 3.85501399268,
			"0.013": 0.717649882789,
			"0.014": 0.0,
			"0.015": 0.0,
			"0.016": 0.0,
			"0.017": 0.0,
			"0.018": 0.0,
			"0.019": 0.0,
			"0.02": 0.0,
			"0.021": 0.0,
			"0.022": 0.0,
			"0.023": 0.0,
			"0.024": 0.0,
			"0.025": 0.0
		}
	}
}
