{
	 "smiles": "NC1=CC=C(SC2=CC=NC=C2)C=C1", 
	 "Tm": 443.15, 
	 "num_atms": 24, 
	 "gaussian": { 
		 "optdone": 1, 
		 "sigma_profile": "yes", 
		 "theory": "DFT", 
		 "functional": "B3LYP", 
		 "basiset": "6-31G**", 
		 "properties": { 
			 "R2extent": 3921.9406, 
			 "electric_dipole_moment_norm": 4.91519292093, 
			 "electric_quadrupole_moment_norm": 25.2552687776, 
			 "total_energy": -932.88345251, 
			 "HOMO_LUMO_gap": 0.20112, 
			 "cosmo_polarized_energy": -13.0, 
			 "cosmo_cavitation_energy": 29.99, 
			 "cosmo_dispersion_energy": -22.1, 
			 "cosmo_repulsion_energy": 1.7, 
			 "cosmo_total_nonelectrostatic_energy": 9.58, 
			 "SMD_solvation_energy": 3.25 
		},
		"coords": [
			{
				"x": -0.9630125364,
				"y": -4.8415218085,
				"z": 0.730336173,
				"element": "N" 
			},
			{
				"x": -0.8353510121,
				"y": -3.4908008161,
				"z": 0.4389544173,
				"element": "C" 
			},
			{
				"x": -0.0948052513,
				"y": -3.0629686821,
				"z": -0.6795290518,
				"element": "C" 
			},
			{
				"x": -0.0141692041,
				"y": -1.713083731,
				"z": -1.0010805904,
				"element": "C" 
			},
			{
				"x": -0.6628745485,
				"y": -0.7486449042,
				"z": -0.2162253835,
				"element": "C" 
			},
			{
				"x": -0.6157724941,
				"y": 0.9783375249,
				"z": -0.6737751357,
				"element": "S" 
			},
			{
				"x": 0.806213102,
				"y": 1.6261042717,
				"z": 0.1904606689,
				"element": "C" 
			},
			{
				"x": 1.645914077,
				"y": 0.8756697107,
				"z": 1.0196721923,
				"element": "C" 
			},
			{
				"x": 2.7230612797,
				"y": 1.5177039104,
				"z": 1.631390821,
				"element": "C" 
			},
			{
				"x": 3.017889191,
				"y": 2.814738618,
				"z": 1.4830581259,
				"element": "N" 
			},
			{
				"x": 2.2033392603,
				"y": 3.5195529207,
				"z": 0.6852021354,
				"element": "C" 
			},
			{
				"x": 1.1001382986,
				"y": 2.9871610226,
				"z": 0.023377254,
				"element": "C" 
			},
			{
				"x": -1.406301221,
				"y": -1.1725717017,
				"z": 0.8949451301,
				"element": "C" 
			},
			{
				"x": -1.4905576351,
				"y": -2.5209678137,
				"z": 1.2216362134,
				"element": "C" 
			},
			{
				"x": -0.2505707411,
				"y": -5.4504942942,
				"z": 0.3547751575,
				"element": "H" 
			},
			{
				"x": -1.2208119701,
				"y": -5.0732704409,
				"z": 1.6786503494,
				"element": "H" 
			},
			{
				"x": 0.4110015132,
				"y": -3.7981434846,
				"z": -1.3003664884,
				"element": "H" 
			},
			{
				"x": 0.5579325156,
				"y": -1.3998400458,
				"z": -1.8687735649,
				"element": "H" 
			},
			{
				"x": 1.4702639032,
				"y": -0.1805517629,
				"z": 1.1878461419,
				"element": "H" 
			},
			{
				"x": 3.3866076281,
				"y": 0.947267549,
				"z": 2.2802600196,
				"element": "H" 
			},
			{
				"x": 2.4442827436,
				"y": 4.574808518,
				"z": 0.5653386521,
				"element": "H" 
			},
			{
				"x": 0.4838975797,
				"y": 3.6200875027,
				"z": -0.6083132256,
				"element": "H" 
			},
			{
				"x": -1.9203928653,
				"y": -0.4376236885,
				"z": 1.5063824319,
				"element": "H" 
			},
			{
				"x": -2.0740216129,
				"y": -2.8332483744,
				"z": 2.0840775569,
				"element": "H" 
			}
		],
		 "valence_orbital": [ 
			{
				"type": "occ",
				"energy": -0.26286,
				"method": "rhf"
			},
			{
				"type": "occ",
				"energy": -0.25516,
				"method": "rhf"
			},
			{
				"type": "occ",
				"energy": -0.24606,
				"method": "rhf"
			},
			{
				"type": "occ",
				"energy": -0.22279,
				"method": "rhf"
			},
			{
				"type": "occ",
				"energy": -0.21717,
				"method": "rhf"
			},
			{
				"type": "unocc",
				"energy": -0.01605,
				"method": "rhf"
			},
			{
				"type": "unocc",
				"energy": -0.01281,
				"method": "rhf"
			},
			{
				"type": "unocc",
				"energy": -0.01067,
				"method": "rhf"
			},
			{
				"type": "unocc",
				"energy": -0.00135,
				"method": "rhf"
			},
			{
				"type": "unocc",
				"energy": 0.04653,
				"method": "rhf"
			}
		],
		"cosmo_sigma_profile": { 
			"-0.025": 0.0,
			"-0.024": 0.0,
			"-0.023": 0.0,
			"-0.022": 0.0,
			"-0.021": 0.0,
			"-0.02": 0.0,
			"-0.019": 0.0,
			"-0.018": 0.0,
			"-0.017": 0.0,
			"-0.016": 0.0,
			"-0.015": 0.0,
			"-0.014": 0.0136001260523,
			"-0.013": 1.70712440783,
			"-0.012": 2.86015833519,
			"-0.011": 3.14703896568,
			"-0.01": 2.69402928471,
			"-0.009": 3.16100127376,
			"-0.008": 2.99938313009,
			"-0.007": 6.65510113019,
			"-0.006": 14.3523255884,
			"-0.005": 15.9608687238,
			"-0.004": 15.3214616328,
			"-0.003": 11.5653023878,
			"-0.002": 11.0891532745,
			"-0.001": 12.7995358374,
			"0.0": 16.1353677068,
			"0.001": 17.8359266546,
			"0.002": 21.0289875168,
			"0.003": 26.8785523657,
			"0.004": 17.1177637242,
			"0.005": 14.0098472161,
			"0.006": 5.51570202597,
			"0.007": 4.22079109639,
			"0.008": 3.17506362152,
			"0.009": 1.78255033761,
			"0.01": 1.91869430612,
			"0.011": 1.50521333209,
			"0.012": 1.99560565924,
			"0.013": 1.21968791032,
			"0.014": 1.03455732248,
			"0.015": 0.68476618382,
			"0.016": 1.10557554857,
			"0.017": 0.485637958482,
			"0.018": 0.0327123518823,
			"0.019": 0.0,
			"0.02": 0.0,
			"0.021": 0.0,
			"0.022": 0.0,
			"0.023": 0.0,
			"0.024": 0.0,
			"0.025": 0.0
		}
	}
}
