{
	 "smiles": "S=C=NC1=CC=CC=C1", 
	 "Tm": 252.15, 
	 "num_atms": 14, 
	 "gaussian": { 
		 "optdone": 1, 
		 "sigma_profile": "yes", 
		 "theory": "DFT", 
		 "functional": "B3LYP", 
		 "basiset": "6-31G**", 
		 "properties": { 
			 "R2extent": 2811.9702, 
			 "electric_dipole_moment_norm": 3.94826464412, 
			 "electric_quadrupole_moment_norm": 14.858717658, 
			 "total_energy": -722.691276716, 
			 "HOMO_LUMO_gap": 0.18333, 
			 "cosmo_polarized_energy": -5.37, 
			 "cosmo_cavitation_energy": 21.44, 
			 "cosmo_dispersion_energy": -16.2, 
			 "cosmo_repulsion_energy": 1.3, 
			 "cosmo_total_nonelectrostatic_energy": 6.54, 
			 "SMD_solvation_energy": 4.35 
		},
		"coords": [
			{
				"x": 5.0278980565,
				"y": 1.0823831474,
				"z": 1.5870230615,
				"element": "S" 
			},
			{
				"x": 3.609980708,
				"y": 0.4803512462,
				"z": 1.1750051413,
				"element": "C" 
			},
			{
				"x": 2.5549668718,
				"y": 0.0322032731,
				"z": 0.8685412393,
				"element": "N" 
			},
			{
				"x": 1.3337097092,
				"y": -0.4865645761,
				"z": 0.5137668855,
				"element": "C" 
			},
			{
				"x": 0.2831825784,
				"y": 0.3767545612,
				"z": 0.1609064793,
				"element": "C" 
			},
			{
				"x": -0.951504944,
				"y": -0.1581802645,
				"z": -0.1972153163,
				"element": "C" 
			},
			{
				"x": -1.1489554529,
				"y": -1.5412321749,
				"z": -0.2071297625,
				"element": "C" 
			},
			{
				"x": -0.1005227742,
				"y": -2.3950657769,
				"z": 0.1446161861,
				"element": "C" 
			},
			{
				"x": 1.140968952,
				"y": -1.878074122,
				"z": 0.5054802476,
				"element": "C" 
			},
			{
				"x": 0.4496927435,
				"y": 1.4484936721,
				"z": 0.1726526833,
				"element": "H" 
			},
			{
				"x": -1.7628019624,
				"y": 0.5100374445,
				"z": -0.4697781944,
				"element": "H" 
			},
			{
				"x": -2.1142478559,
				"y": -1.9512568862,
				"z": -0.4873233486,
				"element": "H" 
			},
			{
				"x": -0.2483625028,
				"y": -3.470756722,
				"z": 0.1385429738,
				"element": "H" 
			},
			{
				"x": 1.9631958728,
				"y": -2.529792822,
				"z": 0.7806117241,
				"element": "H" 
			}
		],
		 "valence_orbital": [ 
			{
				"type": "occ",
				"energy": -0.36249,
				"method": "rhf"
			},
			{
				"type": "occ",
				"energy": -0.29272,
				"method": "rhf"
			},
			{
				"type": "occ",
				"energy": -0.27193,
				"method": "rhf"
			},
			{
				"type": "occ",
				"energy": -0.2509,
				"method": "rhf"
			},
			{
				"type": "occ",
				"energy": -0.23096,
				"method": "rhf"
			},
			{
				"type": "unocc",
				"energy": -0.04763,
				"method": "rhf"
			},
			{
				"type": "unocc",
				"energy": -0.02081,
				"method": "rhf"
			},
			{
				"type": "unocc",
				"energy": 0.00566,
				"method": "rhf"
			},
			{
				"type": "unocc",
				"energy": 0.04632,
				"method": "rhf"
			},
			{
				"type": "unocc",
				"energy": 0.07352,
				"method": "rhf"
			}
		],
		"cosmo_sigma_profile": { 
			"-0.025": 0.0,
			"-0.024": 0.0,
			"-0.023": 0.0,
			"-0.022": 0.0,
			"-0.021": 0.0,
			"-0.02": 0.0,
			"-0.019": 0.0,
			"-0.018": 0.0,
			"-0.017": 0.0,
			"-0.016": 0.0,
			"-0.015": 0.0,
			"-0.014": 0.0,
			"-0.013": 0.0,
			"-0.012": 0.0,
			"-0.011": 0.0,
			"-0.01": 0.0,
			"-0.009": 0.0,
			"-0.008": 0.48404662284,
			"-0.007": 6.32739403379,
			"-0.006": 10.764550991,
			"-0.005": 13.1065304577,
			"-0.004": 10.751106113,
			"-0.003": 8.82030362213,
			"-0.002": 11.0389354571,
			"-0.001": 18.4721233976,
			"0.0": 15.1176227969,
			"0.001": 13.3930229671,
			"0.002": 13.7435123192,
			"0.003": 16.1742380666,
			"0.004": 14.988044233,
			"0.005": 7.46698545918,
			"0.006": 13.3634529459,
			"0.007": 2.93968497195,
			"0.008": 0.0,
			"0.009": 0.0,
			"0.01": 0.0,
			"0.011": 0.0,
			"0.012": 0.0,
			"0.013": 0.0,
			"0.014": 0.0,
			"0.015": 0.0,
			"0.016": 0.0,
			"0.017": 0.0,
			"0.018": 0.0,
			"0.019": 0.0,
			"0.02": 0.0,
			"0.021": 0.0,
			"0.022": 0.0,
			"0.023": 0.0,
			"0.024": 0.0,
			"0.025": 0.0
		}
	}
}
