{
	 "smiles": "CC(C)NCC(O)COC1=C2C=C(C)NC2=CC=C1", 
	 "Tm": 369.15, 
	 "num_atms": 41, 
	 "gaussian": { 
		 "optdone": 1, 
		 "sigma_profile": "yes", 
		 "theory": "DFT", 
		 "functional": "B3LYP", 
		 "basiset": "6-31G**", 
		 "properties": { 
			 "R2extent": 8057.5517, 
			 "electric_dipole_moment_norm": 3.06589146905, 
			 "electric_quadrupole_moment_norm": 18.2393783822, 
			 "total_energy": -844.796799229, 
			 "HOMO_LUMO_gap": 0.18924, 
			 "cosmo_polarized_energy": -16.69, 
			 "cosmo_cavitation_energy": 42.08, 
			 "cosmo_dispersion_energy": -29.52, 
			 "cosmo_repulsion_energy": 2.29, 
			 "cosmo_total_nonelectrostatic_energy": 14.85, 
			 "SMD_solvation_energy": 5.92 
		},
		"coords": [
			{
				"x": 1.8021293831,
				"y": -2.394154284,
				"z": -3.9961603498,
				"element": "C" 
			},
			{
				"x": 1.1088838343,
				"y": -1.0289267325,
				"z": -4.1482914611,
				"element": "C" 
			},
			{
				"x": 2.1306957669,
				"y": 0.0920461389,
				"z": -4.3842957619,
				"element": "C" 
			},
			{
				"x": 0.1603465958,
				"y": -0.6788061263,
				"z": -3.0651699301,
				"element": "N" 
			},
			{
				"x": 0.391881056,
				"y": -1.0962081178,
				"z": -1.6829154782,
				"element": "C" 
			},
			{
				"x": 1.2323376332,
				"y": -0.1407955237,
				"z": -0.8177930083,
				"element": "C" 
			},
			{
				"x": 2.6119575717,
				"y": -0.0888240229,
				"z": -1.1892962685,
				"element": "O" 
			},
			{
				"x": 0.7302320694,
				"y": 1.3042574961,
				"z": -0.8781555544,
				"element": "C" 
			},
			{
				"x": -0.5489198904,
				"y": 1.4370186801,
				"z": -0.260866375,
				"element": "O" 
			},
			{
				"x": -0.6349936722,
				"y": 1.5624338892,
				"z": 1.0997125046,
				"element": "C" 
			},
			{
				"x": -1.9445054173,
				"y": 1.6887851454,
				"z": 1.610155905,
				"element": "C" 
			},
			{
				"x": -3.2453980491,
				"y": 1.7092980772,
				"z": 1.0053108225,
				"element": "C" 
			},
			{
				"x": -4.1657979149,
				"y": 1.8635499346,
				"z": 2.012040143,
				"element": "C" 
			},
			{
				"x": -5.6565492373,
				"y": 1.9512506116,
				"z": 1.9587275674,
				"element": "C" 
			},
			{
				"x": -3.486146276,
				"y": 1.9387529633,
				"z": 3.2222683929,
				"element": "N" 
			},
			{
				"x": -2.1257299754,
				"y": 1.8363598194,
				"z": 3.0077842676,
				"element": "C" 
			},
			{
				"x": -1.0552322882,
				"y": 1.8633226263,
				"z": 3.9125290058,
				"element": "C" 
			},
			{
				"x": 0.2179294803,
				"y": 1.7358754257,
				"z": 3.3758256032,
				"element": "C" 
			},
			{
				"x": 0.4386314175,
				"y": 1.5847938578,
				"z": 1.9893341921,
				"element": "C" 
			},
			{
				"x": 1.0795247792,
				"y": -3.199402464,
				"z": -3.8230148415,
				"element": "H" 
			},
			{
				"x": 2.5179165032,
				"y": -2.3956253509,
				"z": -3.1667475867,
				"element": "H" 
			},
			{
				"x": 2.363184456,
				"y": -2.6345235146,
				"z": -4.9049743969,
				"element": "H" 
			},
			{
				"x": 0.4843210264,
				"y": -1.08819081,
				"z": -5.0497050059,
				"element": "H" 
			},
			{
				"x": 2.7527079033,
				"y": 0.239184218,
				"z": -3.4981786516,
				"element": "H" 
			},
			{
				"x": 1.6137301582,
				"y": 1.0325799178,
				"z": -4.596942958,
				"element": "H" 
			},
			{
				"x": 2.777470537,
				"y": -0.1459911186,
				"z": -5.2368566931,
				"element": "H" 
			},
			{
				"x": -0.7659449563,
				"y": -0.9838168113,
				"z": -3.3355409699,
				"element": "H" 
			},
			{
				"x": 0.8314309873,
				"y": -2.105850437,
				"z": -1.5922644239,
				"element": "H" 
			},
			{
				"x": -0.5895306695,
				"y": -1.1492693414,
				"z": -1.1988696449,
				"element": "H" 
			},
			{
				"x": 1.143062364,
				"y": -0.4973825561,
				"z": 0.2204368874,
				"element": "H" 
			},
			{
				"x": 2.967415175,
				"y": -0.9853777345,
				"z": -1.1381743873,
				"element": "H" 
			},
			{
				"x": 0.5807054264,
				"y": 1.5882312666,
				"z": -1.9210227625,
				"element": "H" 
			},
			{
				"x": 1.4665300844,
				"y": 1.9759499204,
				"z": -0.4248407087,
				"element": "H" 
			},
			{
				"x": -3.4681424097,
				"y": 1.623780215,
				"z": -0.0479493109,
				"element": "H" 
			},
			{
				"x": -6.0255746303,
				"y": 2.902789312,
				"z": 2.3626540814,
				"element": "H" 
			},
			{
				"x": -6.1355056844,
				"y": 1.1458563568,
				"z": 2.5303994732,
				"element": "H" 
			},
			{
				"x": -5.9986917099,
				"y": 1.8742925224,
				"z": 0.92439486,
				"element": "H" 
			},
			{
				"x": -3.9225763882,
				"y": 2.0602473736,
				"z": 4.1216936085,
				"element": "H" 
			},
			{
				"x": -1.2115698132,
				"y": 1.977444029,
				"z": 4.9808977903,
				"element": "H" 
			},
			{
				"x": 1.07936999,
				"y": 1.7495798031,
				"z": 4.0374076765,
				"element": "H" 
			},
			{
				"x": 1.4568147838,
				"y": 1.4853653452,
				"z": 1.6328537476,
				"element": "H" 
			}
		],
		 "valence_orbital": [ 
			{
				"type": "occ",
				"energy": -0.27008,
				"method": "rhf"
			},
			{
				"type": "occ",
				"energy": -0.24431,
				"method": "rhf"
			},
			{
				"type": "occ",
				"energy": -0.2127,
				"method": "rhf"
			},
			{
				"type": "occ",
				"energy": -0.20699,
				"method": "rhf"
			},
			{
				"type": "occ",
				"energy": -0.17894,
				"method": "rhf"
			},
			{
				"type": "unocc",
				"energy": 0.0103,
				"method": "rhf"
			},
			{
				"type": "unocc",
				"energy": 0.04054,
				"method": "rhf"
			},
			{
				"type": "unocc",
				"energy": 0.05705,
				"method": "rhf"
			},
			{
				"type": "unocc",
				"energy": 0.08054,
				"method": "rhf"
			},
			{
				"type": "unocc",
				"energy": 0.08147,
				"method": "rhf"
			}
		],
		"cosmo_sigma_profile": { 
			"-0.025": 0.0,
			"-0.024": 0.0,
			"-0.023": 0.0,
			"-0.022": 0.0,
			"-0.021": 0.0,
			"-0.02": 0.0,
			"-0.019": 0.0,
			"-0.018": 0.0,
			"-0.017": 0.0,
			"-0.016": 0.0,
			"-0.015": 1.12322946128,
			"-0.014": 2.27304711346,
			"-0.013": 2.48624104493,
			"-0.012": 1.46044271095,
			"-0.011": 1.71112448895,
			"-0.01": 4.15174871235,
			"-0.009": 4.22692753639,
			"-0.008": 3.8543909109,
			"-0.007": 4.05261175935,
			"-0.006": 6.21216370305,
			"-0.005": 13.8370181561,
			"-0.004": 21.8111814257,
			"-0.003": 26.5403646111,
			"-0.002": 33.8955631595,
			"-0.001": 35.2504505725,
			"0.0": 27.7393422367,
			"0.001": 22.315993361,
			"0.002": 21.1574553251,
			"0.003": 15.2771643964,
			"0.004": 11.7756020004,
			"0.005": 14.6150660957,
			"0.006": 19.5927569014,
			"0.007": 15.9569935033,
			"0.008": 7.03736444111,
			"0.009": 3.18320810844,
			"0.01": 2.72104251332,
			"0.011": 1.40849258308,
			"0.012": 1.56894658277,
			"0.013": 1.24554132793,
			"0.014": 0.4024601958,
			"0.015": 0.0,
			"0.016": 0.0,
			"0.017": 0.0,
			"0.018": 0.0,
			"0.019": 0.0,
			"0.02": 0.0,
			"0.021": 0.0,
			"0.022": 0.0,
			"0.023": 0.0,
			"0.024": 0.0,
			"0.025": 0.0
		}
	}
}
