{
	 "smiles": "COC1=CC(=CC=C1)P(C1=CC=CC(OC)=C1)C1=CC=CC(OC)=C1", 
	 "Tm": 388.15, 
	 "num_atms": 46, 
	 "gaussian": { 
		 "optdone": 1, 
		 "sigma_profile": "yes", 
		 "theory": "DFT", 
		 "functional": "B3LYP", 
		 "basiset": "6-31G**", 
		 "properties": { 
			 "R2extent": 10292.1697, 
			 "electric_dipole_moment_norm": 3.58632068142, 
			 "electric_quadrupole_moment_norm": 17.2907812738, 
			 "total_energy": -1379.8756672, 
			 "HOMO_LUMO_gap": 0.18732, 
			 "cosmo_polarized_energy": -13.35, 
			 "cosmo_cavitation_energy": 50.88, 
			 "cosmo_dispersion_energy": -33.5, 
			 "cosmo_repulsion_energy": 2.68, 
			 "cosmo_total_nonelectrostatic_energy": 20.06, 
			 "SMD_solvation_energy": 10.9 
		},
		"coords": [
			{
				"x": 1.8151065615,
				"y": 1.7566731085,
				"z": -3.4343771182,
				"element": "C" 
			},
			{
				"x": 1.9998269703,
				"y": 0.4214242675,
				"z": -3.8776900043,
				"element": "O" 
			},
			{
				"x": 1.2385209779,
				"y": -0.560086101,
				"z": -3.3089913275,
				"element": "C" 
			},
			{
				"x": 0.3086649923,
				"y": -0.3446975639,
				"z": -2.2848193522,
				"element": "C" 
			},
			{
				"x": -0.4325022925,
				"y": -1.4208780825,
				"z": -1.7675978389,
				"element": "C" 
			},
			{
				"x": -0.2356747243,
				"y": -2.7066022696,
				"z": -2.2889563457,
				"element": "C" 
			},
			{
				"x": 0.7062264358,
				"y": -2.9154710882,
				"z": -3.3005705514,
				"element": "C" 
			},
			{
				"x": 1.4408623898,
				"y": -1.8529670868,
				"z": -3.8142001295,
				"element": "C" 
			},
			{
				"x": -1.7059709697,
				"y": -1.2463442602,
				"z": -0.4307820073,
				"element": "P" 
			},
			{
				"x": -0.7158458861,
				"y": -1.5526622369,
				"z": 1.1070285545,
				"element": "C" 
			},
			{
				"x": -1.4360493245,
				"y": -1.781450722,
				"z": 2.2870154721,
				"element": "C" 
			},
			{
				"x": -0.757915033,
				"y": -2.0293982737,
				"z": 3.4838191744,
				"element": "C" 
			},
			{
				"x": 0.6310937422,
				"y": -2.0736239244,
				"z": 3.5145120565,
				"element": "C" 
			},
			{
				"x": 1.3590417695,
				"y": -1.8619922275,
				"z": 2.3343617593,
				"element": "C" 
			},
			{
				"x": 2.717612785,
				"y": -1.9310389763,
				"z": 2.4585373841,
				"element": "O" 
			},
			{
				"x": 3.5087387014,
				"y": -1.7526118913,
				"z": 1.2941039719,
				"element": "C" 
			},
			{
				"x": 0.6882775803,
				"y": -1.5971119522,
				"z": 1.1344060723,
				"element": "C" 
			},
			{
				"x": -1.970960808,
				"y": 0.5890194237,
				"z": -0.3692812778,
				"element": "C" 
			},
			{
				"x": -1.2329738418,
				"y": 1.4728126626,
				"z": 0.439003832,
				"element": "C" 
			},
			{
				"x": -1.5260759951,
				"y": 2.8342566297,
				"z": 0.4220592043,
				"element": "C" 
			},
			{
				"x": -2.5427239686,
				"y": 3.3476849058,
				"z": -0.3893926856,
				"element": "C" 
			},
			{
				"x": -3.2805749951,
				"y": 2.4712751523,
				"z": -1.1936534663,
				"element": "C" 
			},
			{
				"x": -4.2983157101,
				"y": 2.8484172022,
				"z": -2.0223423602,
				"element": "O" 
			},
			{
				"x": -4.6544235949,
				"y": 4.2202612402,
				"z": -2.0671285142,
				"element": "C" 
			},
			{
				"x": -2.9960469329,
				"y": 1.0982625991,
				"z": -1.1718870835,
				"element": "C" 
			},
			{
				"x": 0.7855759744,
				"y": 2.0995853714,
				"z": -3.5974437744,
				"element": "H" 
			},
			{
				"x": 2.4966897092,
				"y": 2.3678781391,
				"z": -4.0282425308,
				"element": "H" 
			},
			{
				"x": 2.0629691862,
				"y": 1.870484132,
				"z": -2.3710145295,
				"element": "H" 
			},
			{
				"x": 0.1485493341,
				"y": 0.6489817104,
				"z": -1.8856361483,
				"element": "H" 
			},
			{
				"x": -0.8199301027,
				"y": -3.5404782512,
				"z": -1.9102899488,
				"element": "H" 
			},
			{
				"x": 0.8590663558,
				"y": -3.9142613114,
				"z": -3.7000167567,
				"element": "H" 
			},
			{
				"x": 2.1663830892,
				"y": -1.9926589611,
				"z": -4.608969961,
				"element": "H" 
			},
			{
				"x": -2.522237515,
				"y": -1.7712318062,
				"z": 2.2704732406,
				"element": "H" 
			},
			{
				"x": -1.3190023611,
				"y": -2.2015231294,
				"z": 4.3981732678,
				"element": "H" 
			},
			{
				"x": 1.1750686119,
				"y": -2.2777596445,
				"z": 4.4309784545,
				"element": "H" 
			},
			{
				"x": 4.545748861,
				"y": -1.8646993066,
				"z": 1.614728483,
				"element": "H" 
			},
			{
				"x": 3.3722805034,
				"y": -0.7540525684,
				"z": 0.8590098282,
				"element": "H" 
			},
			{
				"x": 3.2825929525,
				"y": -2.5068704117,
				"z": 0.5298527937,
				"element": "H" 
			},
			{
				"x": 1.2418687318,
				"y": -1.4289720082,
				"z": 0.2192774575,
				"element": "H" 
			},
			{
				"x": -0.4431412192,
				"y": 1.0946879653,
				"z": 1.0789025947,
				"element": "H" 
			},
			{
				"x": -0.9582248873,
				"y": 3.5155533455,
				"z": 1.0502910036,
				"element": "H" 
			},
			{
				"x": -2.7518874021,
				"y": 4.4108404612,
				"z": -0.3803445173,
				"element": "H" 
			},
			{
				"x": -3.8228676888,
				"y": 4.8451330056,
				"z": -2.4187299142,
				"element": "H" 
			},
			{
				"x": -4.9860351085,
				"y": 4.5861002123,
				"z": -1.0866102999,
				"element": "H" 
			},
			{
				"x": -5.4812149666,
				"y": 4.2944637623,
				"z": -2.7752585812,
				"element": "H" 
			},
			{
				"x": -3.6007708877,
				"y": 0.4422487587,
				"z": -1.7913075804,
				"element": "H" 
			}
		],
		 "valence_orbital": [ 
			{
				"type": "occ",
				"energy": -0.24955,
				"method": "rhf"
			},
			{
				"type": "occ",
				"energy": -0.22743,
				"method": "rhf"
			},
			{
				"type": "occ",
				"energy": -0.22114,
				"method": "rhf"
			},
			{
				"type": "occ",
				"energy": -0.21667,
				"method": "rhf"
			},
			{
				"type": "occ",
				"energy": -0.20492,
				"method": "rhf"
			},
			{
				"type": "unocc",
				"energy": -0.0176,
				"method": "rhf"
			},
			{
				"type": "unocc",
				"energy": -0.01665,
				"method": "rhf"
			},
			{
				"type": "unocc",
				"energy": 0.00039,
				"method": "rhf"
			},
			{
				"type": "unocc",
				"energy": 0.00364,
				"method": "rhf"
			},
			{
				"type": "unocc",
				"energy": 0.01472,
				"method": "rhf"
			}
		],
		"cosmo_sigma_profile": { 
			"-0.025": 0.0,
			"-0.024": 0.0,
			"-0.023": 0.0,
			"-0.022": 0.0,
			"-0.021": 0.0,
			"-0.02": 0.0,
			"-0.019": 0.0,
			"-0.018": 0.0,
			"-0.017": 0.0,
			"-0.016": 0.0,
			"-0.015": 0.0,
			"-0.014": 0.0,
			"-0.013": 0.0,
			"-0.012": 0.0,
			"-0.011": 0.0,
			"-0.01": 0.0,
			"-0.009": 0.0,
			"-0.008": 0.0,
			"-0.007": 0.7966842178,
			"-0.006": 17.6297496332,
			"-0.005": 40.7224084618,
			"-0.004": 47.0475200086,
			"-0.003": 45.143757974,
			"-0.002": 27.9476520891,
			"-0.001": 26.1287109921,
			"0.0": 24.4740801597,
			"0.001": 22.1218652862,
			"0.002": 25.0365984294,
			"0.003": 34.2318792591,
			"0.004": 33.2653533731,
			"0.005": 27.5299206209,
			"0.006": 11.2033580595,
			"0.007": 4.43470024516,
			"0.008": 5.05754608586,
			"0.009": 4.65400956455,
			"0.01": 5.16683615243,
			"0.011": 2.17859870516,
			"0.012": 0.508827666404,
			"0.013": 0.562854630182,
			"0.014": 0.114049026678,
			"0.015": 0.0,
			"0.016": 0.0,
			"0.017": 0.0,
			"0.018": 0.0,
			"0.019": 0.0,
			"0.02": 0.0,
			"0.021": 0.0,
			"0.022": 0.0,
			"0.023": 0.0,
			"0.024": 0.0,
			"0.025": 0.0
		}
	}
}
