{
	 "smiles": "CC1=CC=C(NC(=O)C(F)(F)C(F)(F)C(F)(F)C(F)(F)C(F)(F)C(F)(F)C(F)(F)C(F)(F)F)C(C)=C1", 
	 "Tm": 356.15, 
	 "num_atms": 46, 
	 "gaussian": { 
		 "optdone": 1, 
		 "sigma_profile": "yes", 
		 "theory": "DFT", 
		 "functional": "B3LYP", 
		 "basiset": "6-31G**", 
		 "properties": { 
			 "R2extent": 14711.6218, 
			 "electric_dipole_moment_norm": 4.66414075045, 
			 "electric_quadrupole_moment_norm": 15.6837861048, 
			 "total_energy": -2481.03412128, 
			 "HOMO_LUMO_gap": 0.21499, 
			 "cosmo_polarized_energy": -10.42, 
			 "cosmo_cavitation_energy": 53.21, 
			 "cosmo_dispersion_energy": -32.75, 
			 "cosmo_repulsion_energy": 2.19, 
			 "cosmo_total_nonelectrostatic_energy": 22.65, 
			 "SMD_solvation_energy": 14.45 
		},
		"coords": [
			{
				"x": 1.6770981094,
				"y": -3.2861728612,
				"z": 2.586021209,
				"element": "C" 
			},
			{
				"x": 0.6096365718,
				"y": -2.2210225628,
				"z": 2.5017225455,
				"element": "C" 
			},
			{
				"x": -0.6008751358,
				"y": -2.466115172,
				"z": 1.84162364,
				"element": "C" 
			},
			{
				"x": -1.5945778254,
				"y": -1.4928249593,
				"z": 1.7962434589,
				"element": "C" 
			},
			{
				"x": -1.3840656055,
				"y": -0.2433190398,
				"z": 2.3842487156,
				"element": "C" 
			},
			{
				"x": -2.4288944102,
				"y": 0.7419719267,
				"z": 2.3991229994,
				"element": "N" 
			},
			{
				"x": -3.0423322955,
				"y": 1.4810617787,
				"z": 1.4282244977,
				"element": "C" 
			},
			{
				"x": -3.9788559241,
				"y": 2.2228656043,
				"z": 1.6610728614,
				"element": "O" 
			},
			{
				"x": -2.5040984794,
				"y": 1.4287800475,
				"z": -0.0361330189,
				"element": "C" 
			},
			{
				"x": -3.4740165303,
				"y": 1.9068040888,
				"z": -0.8432045407,
				"element": "F" 
			},
			{
				"x": -2.2070245063,
				"y": 0.1564416744,
				"z": -0.433223211,
				"element": "F" 
			},
			{
				"x": -1.2454761965,
				"y": 2.3046326018,
				"z": -0.244292472,
				"element": "C" 
			},
			{
				"x": -0.2080868191,
				"y": 1.763961986,
				"z": 0.4379252961,
				"element": "F" 
			},
			{
				"x": -1.4997938002,
				"y": 3.5231718064,
				"z": 0.2945681544,
				"element": "F" 
			},
			{
				"x": -0.7938821272,
				"y": 2.5834670465,
				"z": -1.7203432603,
				"element": "C" 
			},
			{
				"x": -1.6393649373,
				"y": 3.5138892238,
				"z": -2.2176008113,
				"element": "F" 
			},
			{
				"x": 0.4456011502,
				"y": 3.1256440117,
				"z": -1.6400535065,
				"element": "F" 
			},
			{
				"x": -0.7593895941,
				"y": 1.4590056393,
				"z": -2.8097802034,
				"element": "C" 
			},
			{
				"x": -0.3785564129,
				"y": 2.0782338143,
				"z": -3.9550942966,
				"element": "F" 
			},
			{
				"x": -2.0256012488,
				"y": 1.0240283011,
				"z": -2.9742677938,
				"element": "F" 
			},
			{
				"x": 0.1606921244,
				"y": 0.1966760936,
				"z": -2.600305134,
				"element": "C" 
			},
			{
				"x": -0.5395759309,
				"y": -0.8724975142,
				"z": -3.0417248354,
				"element": "F" 
			},
			{
				"x": 0.4206397767,
				"y": 0.0154347686,
				"z": -1.2850756951,
				"element": "F" 
			},
			{
				"x": 1.5152586245,
				"y": 0.1117338203,
				"z": -3.3772064773,
				"element": "C" 
			},
			{
				"x": 1.2350781685,
				"y": 0.1555782837,
				"z": -4.6984422476,
				"element": "F" 
			},
			{
				"x": 2.0170138547,
				"y": -1.1142432152,
				"z": -3.0836438979,
				"element": "F" 
			},
			{
				"x": 2.6643648939,
				"y": 1.1322706985,
				"z": -3.1308350417,
				"element": "C" 
			},
			{
				"x": 3.6421453261,
				"y": 0.7956271562,
				"z": -4.0061714956,
				"element": "F" 
			},
			{
				"x": 2.233088286,
				"y": 2.3790149438,
				"z": -3.419050471,
				"element": "F" 
			},
			{
				"x": 3.3264879082,
				"y": 1.1632010441,
				"z": -1.728703546,
				"element": "C" 
			},
			{
				"x": 4.3618367418,
				"y": 2.0105829414,
				"z": -1.7736849265,
				"element": "F" 
			},
			{
				"x": 3.7750122157,
				"y": -0.049738388,
				"z": -1.3877088561,
				"element": "F" 
			},
			{
				"x": 2.4664958812,
				"y": 1.5892122204,
				"z": -0.795891229,
				"element": "F" 
			},
			{
				"x": -0.1824187419,
				"y": 0.0335980096,
				"z": 3.0607837364,
				"element": "C" 
			},
			{
				"x": 0.0560753725,
				"y": 1.3731556582,
				"z": 3.7134688678,
				"element": "C" 
			},
			{
				"x": 0.791611433,
				"y": -0.970181702,
				"z": 3.1026652497,
				"element": "C" 
			},
			{
				"x": 2.6617750569,
				"y": -2.8521972324,
				"z": 2.7811333921,
				"element": "H" 
			},
			{
				"x": 1.7386367435,
				"y": -3.8643016909,
				"z": 1.658900225,
				"element": "H" 
			},
			{
				"x": 1.4646831894,
				"y": -3.9949442911,
				"z": 3.3961255534,
				"element": "H" 
			},
			{
				"x": -0.7735065956,
				"y": -3.4287942335,
				"z": 1.3679168971,
				"element": "H" 
			},
			{
				"x": -2.5364357147,
				"y": -1.6918654139,
				"z": 1.2973102787,
				"element": "H" 
			},
			{
				"x": -2.8325218334,
				"y": 0.958108439,
				"z": 3.3053174702,
				"element": "H" 
			},
			{
				"x": -0.0853191628,
				"y": 2.190077171,
				"z": 2.999566497,
				"element": "H" 
			},
			{
				"x": 1.0721838554,
				"y": 1.436139987,
				"z": 4.1103020832,
				"element": "H" 
			},
			{
				"x": -0.6339781717,
				"y": 1.5517892182,
				"z": 4.5476732651,
				"element": "H" 
			},
			{
				"x": 1.7276327159,
				"y": -0.7627417285,
				"z": 3.6163000739,
				"element": "H" 
			}
		],
		 "valence_orbital": [ 
			{
				"type": "occ",
				"energy": -0.35246,
				"method": "rhf"
			},
			{
				"type": "occ",
				"energy": -0.29063,
				"method": "rhf"
			},
			{
				"type": "occ",
				"energy": -0.27958,
				"method": "rhf"
			},
			{
				"type": "occ",
				"energy": -0.25714,
				"method": "rhf"
			},
			{
				"type": "occ",
				"energy": -0.24432,
				"method": "rhf"
			},
			{
				"type": "unocc",
				"energy": -0.02933,
				"method": "rhf"
			},
			{
				"type": "unocc",
				"energy": -0.01481,
				"method": "rhf"
			},
			{
				"type": "unocc",
				"energy": -0.01023,
				"method": "rhf"
			},
			{
				"type": "unocc",
				"energy": 0.01141,
				"method": "rhf"
			},
			{
				"type": "unocc",
				"energy": 0.01504,
				"method": "rhf"
			}
		],
		"cosmo_sigma_profile": { 
			"-0.025": 0.0,
			"-0.024": 0.0,
			"-0.023": 0.0,
			"-0.022": 0.0,
			"-0.021": 0.0,
			"-0.02": 0.0,
			"-0.019": 0.0,
			"-0.018": 0.0,
			"-0.017": 0.0,
			"-0.016": 0.0,
			"-0.015": 0.569835600979,
			"-0.014": 0.875845100998,
			"-0.013": 1.15138018004,
			"-0.012": 1.15720367756,
			"-0.011": 0.964543817215,
			"-0.01": 1.10556401703,
			"-0.009": 1.45338064551,
			"-0.008": 0.864169001913,
			"-0.007": 1.79447808985,
			"-0.006": 7.81254565653,
			"-0.005": 13.3483474565,
			"-0.004": 21.0612038889,
			"-0.003": 22.1140003496,
			"-0.002": 29.392994174,
			"-0.001": 46.3367894635,
			"0.0": 71.9734419822,
			"0.001": 120.728358949,
			"0.002": 32.3301872066,
			"0.003": 15.2610586219,
			"0.004": 11.931499389,
			"0.005": 5.40700153939,
			"0.006": 1.65716514766,
			"0.007": 1.45793075193,
			"0.008": 1.77043743908,
			"0.009": 1.87131561361,
			"0.01": 2.05251010244,
			"0.011": 4.63893095328,
			"0.012": 3.71542203044,
			"0.013": 0.0499337654895,
			"0.014": 0.0,
			"0.015": 0.0,
			"0.016": 0.0,
			"0.017": 0.0,
			"0.018": 0.0,
			"0.019": 0.0,
			"0.02": 0.0,
			"0.021": 0.0,
			"0.022": 0.0,
			"0.023": 0.0,
			"0.024": 0.0,
			"0.025": 0.0
		}
	}
}
