{
	 "smiles": "CC(NC(=O)C1=C(N)C=CC=C1)C1=CC=CC=C1", 
	 "Tm": 401.15, 
	 "num_atms": 34, 
	 "gaussian": { 
		 "optdone": 1, 
		 "sigma_profile": "yes", 
		 "theory": "DFT", 
		 "functional": "B3LYP", 
		 "basiset": "6-31G**", 
		 "properties": { 
			 "R2extent": 6510.1356, 
			 "electric_dipole_moment_norm": 4.08785645907, 
			 "electric_quadrupole_moment_norm": 10.8301277033, 
			 "total_energy": -765.997312049, 
			 "HOMO_LUMO_gap": 0.18853, 
			 "cosmo_polarized_energy": -15.32, 
			 "cosmo_cavitation_energy": 37.24, 
			 "cosmo_dispersion_energy": -26.02, 
			 "cosmo_repulsion_energy": 2.02, 
			 "cosmo_total_nonelectrostatic_energy": 13.23, 
			 "SMD_solvation_energy": 6.61 
		},
		"coords": [
			{
				"x": 1.742994195,
				"y": 0.772022944,
				"z": -2.9003198118,
				"element": "C" 
			},
			{
				"x": 0.8037296896,
				"y": -0.4300095813,
				"z": -2.7067852801,
				"element": "C" 
			},
			{
				"x": 0.0777938687,
				"y": -0.3525504048,
				"z": -1.4315497611,
				"element": "N" 
			},
			{
				"x": -1.0161116132,
				"y": 0.4633456818,
				"z": -1.2886464875,
				"element": "C" 
			},
			{
				"x": -1.4717638937,
				"y": 1.1006685067,
				"z": -2.2380316073,
				"element": "O" 
			},
			{
				"x": -1.6213563989,
				"y": 0.5621556051,
				"z": 0.0861136761,
				"element": "C" 
			},
			{
				"x": -1.4919455431,
				"y": -0.4013048503,
				"z": 1.1168460482,
				"element": "C" 
			},
			{
				"x": -0.7652787036,
				"y": -1.5928044378,
				"z": 0.9429008919,
				"element": "N" 
			},
			{
				"x": -2.0783486257,
				"y": -0.1358775182,
				"z": 2.3665464877,
				"element": "C" 
			},
			{
				"x": -2.7854422532,
				"y": 1.0390056932,
				"z": 2.5963863759,
				"element": "C" 
			},
			{
				"x": -2.9453953647,
				"y": 1.9761272817,
				"z": 1.5722696226,
				"element": "C" 
			},
			{
				"x": -2.3697207975,
				"y": 1.7230878291,
				"z": 0.3328840042,
				"element": "C" 
			},
			{
				"x": 1.5033433365,
				"y": -1.7781584675,
				"z": -2.806385686,
				"element": "C" 
			},
			{
				"x": 1.000842261,
				"y": -2.7697771806,
				"z": -3.6583671863,
				"element": "C" 
			},
			{
				"x": 1.618046118,
				"y": -4.0185043337,
				"z": -3.7494464691,
				"element": "C" 
			},
			{
				"x": 2.7493744049,
				"y": -4.2973243364,
				"z": -2.9811392937,
				"element": "C" 
			},
			{
				"x": 3.2592242993,
				"y": -3.3188717024,
				"z": -2.1254059984,
				"element": "C" 
			},
			{
				"x": 2.6428286258,
				"y": -2.0695326993,
				"z": -2.042214609,
				"element": "C" 
			},
			{
				"x": 2.5049511249,
				"y": 0.8204669286,
				"z": -2.115689944,
				"element": "H" 
			},
			{
				"x": 2.2526935506,
				"y": 0.708408345,
				"z": -3.8669017833,
				"element": "H" 
			},
			{
				"x": 1.1577593468,
				"y": 1.6942285725,
				"z": -2.8729160855,
				"element": "H" 
			},
			{
				"x": 0.033298784,
				"y": -0.3754225275,
				"z": -3.4805827701,
				"element": "H" 
			},
			{
				"x": 0.5363902726,
				"y": -0.6986097477,
				"z": -0.5974974707,
				"element": "H" 
			},
			{
				"x": -0.9182764321,
				"y": -2.2634231104,
				"z": 1.6856999015,
				"element": "H" 
			},
			{
				"x": -0.8821031491,
				"y": -2.0266032274,
				"z": 0.0345081311,
				"element": "H" 
			},
			{
				"x": -1.9800976234,
				"y": -0.8741665155,
				"z": 3.1593739688,
				"element": "H" 
			},
			{
				"x": -3.2253335036,
				"y": 1.2138713511,
				"z": 3.5743678428,
				"element": "H" 
			},
			{
				"x": -3.5090522485,
				"y": 2.8882526581,
				"z": 1.7401544982,
				"element": "H" 
			},
			{
				"x": -2.4769040574,
				"y": 2.42204299,
				"z": -0.489704182,
				"element": "H" 
			},
			{
				"x": 0.1182010721,
				"y": -2.5586396078,
				"z": -4.2569210763,
				"element": "H" 
			},
			{
				"x": 1.2153698965,
				"y": -4.7719653632,
				"z": -4.4206219652,
				"element": "H" 
			},
			{
				"x": 3.2320602299,
				"y": -5.2679610874,
				"z": -3.0502577239,
				"element": "H" 
			},
			{
				"x": 4.1411697464,
				"y": -3.5259695734,
				"z": -1.5256699385,
				"element": "H" 
			},
			{
				"x": 3.0592593851,
				"y": -1.3156081141,
				"z": -1.3789963191,
				"element": "H" 
			}
		],
		 "valence_orbital": [ 
			{
				"type": "occ",
				"energy": -0.25485,
				"method": "rhf"
			},
			{
				"type": "occ",
				"energy": -0.25079,
				"method": "rhf"
			},
			{
				"type": "occ",
				"energy": -0.24576,
				"method": "rhf"
			},
			{
				"type": "occ",
				"energy": -0.2366,
				"method": "rhf"
			},
			{
				"type": "occ",
				"energy": -0.21425,
				"method": "rhf"
			},
			{
				"type": "unocc",
				"energy": -0.02572,
				"method": "rhf"
			},
			{
				"type": "unocc",
				"energy": -0.00733,
				"method": "rhf"
			},
			{
				"type": "unocc",
				"energy": -0.00539,
				"method": "rhf"
			},
			{
				"type": "unocc",
				"energy": 0.00955,
				"method": "rhf"
			},
			{
				"type": "unocc",
				"energy": 0.06562,
				"method": "rhf"
			}
		],
		"cosmo_sigma_profile": { 
			"-0.025": 0.0,
			"-0.024": 0.0,
			"-0.023": 0.0,
			"-0.022": 0.0,
			"-0.021": 0.0,
			"-0.02": 0.0,
			"-0.019": 0.0,
			"-0.018": 0.0,
			"-0.017": 0.0,
			"-0.016": 0.0,
			"-0.015": 0.0,
			"-0.014": 0.0,
			"-0.013": 0.62069147613,
			"-0.012": 1.9327568998,
			"-0.011": 2.45641534635,
			"-0.01": 2.51836571309,
			"-0.009": 3.91397069921,
			"-0.008": 4.37471672633,
			"-0.007": 4.53746345578,
			"-0.006": 11.2064249315,
			"-0.005": 21.7993579207,
			"-0.004": 24.7300067305,
			"-0.003": 24.279951939,
			"-0.002": 20.8788912862,
			"-0.001": 20.5898037427,
			"0.0": 19.7663742852,
			"0.001": 23.2577070536,
			"0.002": 17.4592432773,
			"0.003": 17.3644603457,
			"0.004": 19.5845738267,
			"0.005": 20.7347432971,
			"0.006": 13.6698591614,
			"0.007": 2.84193947303,
			"0.008": 2.11303137065,
			"0.009": 1.79332674623,
			"0.01": 2.56647407041,
			"0.011": 1.36850238102,
			"0.012": 1.74751572205,
			"0.013": 2.35437129759,
			"0.014": 4.50206893625,
			"0.015": 0.761584324511,
			"0.016": 0.0,
			"0.017": 0.0,
			"0.018": 0.0,
			"0.019": 0.0,
			"0.02": 0.0,
			"0.021": 0.0,
			"0.022": 0.0,
			"0.023": 0.0,
			"0.024": 0.0,
			"0.025": 0.0
		}
	}
}
