{
	 "smiles": "O=C1NC(=NO1)C1=NC=CC=N1", 
	 "Tm": 495.15, 
	 "num_atms": 16, 
	 "gaussian": { 
		 "optdone": 1, 
		 "sigma_profile": "yes", 
		 "theory": "DFT", 
		 "functional": "B3LYP", 
		 "basiset": "6-31G**", 
		 "properties": { 
			 "R2extent": 2540.7204, 
			 "electric_dipole_moment_norm": 8.03803588447, 
			 "electric_quadrupole_moment_norm": 10.6307465829, 
			 "total_energy": -600.461973522, 
			 "HOMO_LUMO_gap": 0.1717, 
			 "cosmo_polarized_energy": -18.09, 
			 "cosmo_cavitation_energy": 22.16, 
			 "cosmo_dispersion_energy": -16.86, 
			 "cosmo_repulsion_energy": 1.34, 
			 "cosmo_total_nonelectrostatic_energy": 6.64, 
			 "SMD_solvation_energy": 2.46 
		},
		"coords": [
			{
				"x": 3.0362451001,
				"y": -2.3022243858,
				"z": -1.9662220653,
				"element": "O" 
			},
			{
				"x": 2.0765431766,
				"y": -2.0669760581,
				"z": -1.2809293287,
				"element": "C" 
			},
			{
				"x": 1.0144148043,
				"y": -1.2013278771,
				"z": -1.4815174492,
				"element": "N" 
			},
			{
				"x": 0.172362124,
				"y": -1.2944968144,
				"z": -0.4053583824,
				"element": "C" 
			},
			{
				"x": 0.5953714907,
				"y": -2.1468906385,
				"z": 0.4791518259,
				"element": "N" 
			},
			{
				"x": 1.8022511144,
				"y": -2.6494467326,
				"z": -0.0550094087,
				"element": "O" 
			},
			{
				"x": -1.0616688535,
				"y": -0.4941744874,
				"z": -0.313160583,
				"element": "C" 
			},
			{
				"x": -1.8315462381,
				"y": -0.642216544,
				"z": 0.7701832092,
				"element": "N" 
			},
			{
				"x": -2.9364799082,
				"y": 0.1062486141,
				"z": 0.8020387167,
				"element": "C" 
			},
			{
				"x": -3.2744769112,
				"y": 0.9895691007,
				"z": -0.2252813878,
				"element": "C" 
			},
			{
				"x": -2.3949748902,
				"y": 1.0576878628,
				"z": -1.3028347795,
				"element": "C" 
			},
			{
				"x": -1.281370575,
				"y": 0.3182191481,
				"z": -1.3585269935,
				"element": "N" 
			},
			{
				"x": 0.8753508547,
				"y": -0.6009515746,
				"z": -2.279718581,
				"element": "H" 
			},
			{
				"x": -3.5705038503,
				"y": -0.0062169573,
				"z": 1.6792253384,
				"element": "H" 
			},
			{
				"x": -4.1752561293,
				"y": 1.5914632455,
				"z": -0.1861716279,
				"element": "H" 
			},
			{
				"x": -2.5812613092,
				"y": 1.7193340983,
				"z": -2.1460685033,
				"element": "H" 
			}
		],
		 "valence_orbital": [ 
			{
				"type": "occ",
				"energy": -0.33957,
				"method": "rhf"
			},
			{
				"type": "occ",
				"energy": -0.31391,
				"method": "rhf"
			},
			{
				"type": "occ",
				"energy": -0.28469,
				"method": "rhf"
			},
			{
				"type": "occ",
				"energy": -0.28393,
				"method": "rhf"
			},
			{
				"type": "occ",
				"energy": -0.25576,
				"method": "rhf"
			},
			{
				"type": "unocc",
				"energy": -0.08406,
				"method": "rhf"
			},
			{
				"type": "unocc",
				"energy": -0.07057,
				"method": "rhf"
			},
			{
				"type": "unocc",
				"energy": 0.02205,
				"method": "rhf"
			},
			{
				"type": "unocc",
				"energy": 0.04672,
				"method": "rhf"
			},
			{
				"type": "unocc",
				"energy": 0.07018,
				"method": "rhf"
			}
		],
		"cosmo_sigma_profile": { 
			"-0.025": 0.0,
			"-0.024": 0.0,
			"-0.023": 0.0,
			"-0.022": 0.0,
			"-0.021": 0.0,
			"-0.02": 0.0,
			"-0.019": 0.0,
			"-0.018": 0.169227268166,
			"-0.017": 1.0697294486,
			"-0.016": 0.776496663455,
			"-0.015": 0.411714789767,
			"-0.014": 0.971218078343,
			"-0.013": 0.54546259622,
			"-0.012": 0.861364527196,
			"-0.011": 0.55735006968,
			"-0.01": 0.642189362788,
			"-0.009": 5.85814416562,
			"-0.008": 9.90880650167,
			"-0.007": 7.38546553666,
			"-0.006": 8.5889322393,
			"-0.005": 11.0881911655,
			"-0.004": 15.2349241628,
			"-0.003": 12.1374168338,
			"-0.002": 13.7091413139,
			"-0.001": 11.360573376,
			"0.0": 5.98374553955,
			"0.001": 5.08176561166,
			"0.002": 5.06083202244,
			"0.003": 3.82905531138,
			"0.004": 5.15194219459,
			"0.005": 7.24463474708,
			"0.006": 7.3860781913,
			"0.007": 8.23654457128,
			"0.008": 3.97933703266,
			"0.009": 4.719122601,
			"0.01": 4.83364376904,
			"0.011": 9.09606190864,
			"0.012": 5.02236978482,
			"0.013": 2.17086851356,
			"0.014": 0.853340825057,
			"0.015": 0.0196174215528,
			"0.016": 0.0,
			"0.017": 0.0,
			"0.018": 0.0,
			"0.019": 0.0,
			"0.02": 0.0,
			"0.021": 0.0,
			"0.022": 0.0,
			"0.023": 0.0,
			"0.024": 0.0,
			"0.025": 0.0
		}
	}
}
