{
	 "smiles": "NC1=CC(=C(Cl)C=C1)C(F)(F)F", 
	 "Tm": 310.15, 
	 "num_atms": 17, 
	 "gaussian": { 
		 "optdone": 1, 
		 "sigma_profile": "yes", 
		 "theory": "DFT", 
		 "functional": "B3LYP", 
		 "basiset": "6-31G**", 
		 "properties": { 
			 "R2extent": 3214.0628, 
			 "electric_dipole_moment_norm": 5.00535825291, 
			 "electric_quadrupole_moment_norm": 5.72802897426, 
			 "total_energy": -1084.22929712, 
			 "HOMO_LUMO_gap": 0.18728, 
			 "cosmo_polarized_energy": -9.66, 
			 "cosmo_cavitation_energy": 24.16, 
			 "cosmo_dispersion_energy": -17.66, 
			 "cosmo_repulsion_energy": 1.35, 
			 "cosmo_total_nonelectrostatic_energy": 7.85, 
			 "SMD_solvation_energy": 4.98 
		},
		"coords": [
			{
				"x": 1.9889307618,
				"y": -0.6370157776,
				"z": 0.4878085924,
				"element": "N" 
			},
			{
				"x": 0.6382150622,
				"y": -0.3637217028,
				"z": 0.299869744,
				"element": "C" 
			},
			{
				"x": 0.1966481551,
				"y": 0.3024140661,
				"z": -0.8543063685,
				"element": "C" 
			},
			{
				"x": -1.1458879825,
				"y": 0.6360078115,
				"z": -1.0359227455,
				"element": "C" 
			},
			{
				"x": -2.078012917,
				"y": 0.2990107117,
				"z": -0.0434064394,
				"element": "C" 
			},
			{
				"x": -3.7854469194,
				"y": 0.6796007087,
				"z": -0.1955284631,
				"element": "Cl" 
			},
			{
				"x": -1.6512354413,
				"y": -0.3624381582,
				"z": 1.1074173939,
				"element": "C" 
			},
			{
				"x": -0.3115940843,
				"y": -0.6915259316,
				"z": 1.2808879538,
				"element": "C" 
			},
			{
				"x": -1.5509769153,
				"y": 1.3491434064,
				"z": -2.3067385886,
				"element": "C" 
			},
			{
				"x": -2.4429976829,
				"y": 0.6337287984,
				"z": -3.0221261146,
				"element": "F" 
			},
			{
				"x": -2.1053156878,
				"y": 2.5519634084,
				"z": -2.0546128592,
				"element": "F" 
			},
			{
				"x": -0.4860354892,
				"y": 1.567900342,
				"z": -3.1131444977,
				"element": "F" 
			},
			{
				"x": 2.5507553006,
				"y": -0.6802442865,
				"z": -0.350643291,
				"element": "H" 
			},
			{
				"x": 2.2011828948,
				"y": -1.3843530961,
				"z": 1.1334559248,
				"element": "H" 
			},
			{
				"x": 0.909414822,
				"y": 0.5708178944,
				"z": -1.6258721781,
				"element": "H" 
			},
			{
				"x": -2.377879367,
				"y": -0.6212988941,
				"z": 1.8696164349,
				"element": "H" 
			},
			{
				"x": 0.0014354901,
				"y": -1.2035893008,
				"z": 2.1868455018,
				"element": "H" 
			}
		],
		 "valence_orbital": [ 
			{
				"type": "occ",
				"energy": -0.36059,
				"method": "rhf"
			},
			{
				"type": "occ",
				"energy": -0.31012,
				"method": "rhf"
			},
			{
				"type": "occ",
				"energy": -0.30323,
				"method": "rhf"
			},
			{
				"type": "occ",
				"energy": -0.2742,
				"method": "rhf"
			},
			{
				"type": "occ",
				"energy": -0.21729,
				"method": "rhf"
			},
			{
				"type": "unocc",
				"energy": -0.03001,
				"method": "rhf"
			},
			{
				"type": "unocc",
				"energy": -0.0087,
				"method": "rhf"
			},
			{
				"type": "unocc",
				"energy": 0.02826,
				"method": "rhf"
			},
			{
				"type": "unocc",
				"energy": 0.06889,
				"method": "rhf"
			},
			{
				"type": "unocc",
				"energy": 0.10566,
				"method": "rhf"
			}
		],
		"cosmo_sigma_profile": { 
			"-0.025": 0.0,
			"-0.024": 0.0,
			"-0.023": 0.0,
			"-0.022": 0.0,
			"-0.021": 0.0,
			"-0.02": 0.0,
			"-0.019": 0.0,
			"-0.018": 0.0,
			"-0.017": 0.0,
			"-0.016": 0.0,
			"-0.015": 0.0,
			"-0.014": 0.111587934446,
			"-0.013": 2.48999586841,
			"-0.012": 3.00962745589,
			"-0.011": 3.79962763691,
			"-0.01": 2.68850118573,
			"-0.009": 3.14950527948,
			"-0.008": 3.9795890521,
			"-0.007": 5.71259347322,
			"-0.006": 6.05626804803,
			"-0.005": 5.93703733864,
			"-0.004": 4.61096557337,
			"-0.003": 5.17950793564,
			"-0.002": 9.50581580715,
			"-0.001": 9.58032669847,
			"0.0": 10.4688117395,
			"0.001": 16.1035163296,
			"0.002": 30.9045326818,
			"0.003": 39.2411607464,
			"0.004": 19.1731478334,
			"0.005": 8.39437802402,
			"0.006": 1.05916981244,
			"0.007": 0.646942570493,
			"0.008": 0.3599960894,
			"0.009": 0.68353754084,
			"0.01": 0.750711203299,
			"0.011": 0.621170313335,
			"0.012": 0.789907229856,
			"0.013": 0.43221051526,
			"0.014": 0.0526965538334,
			"0.015": 0.0,
			"0.016": 0.0,
			"0.017": 0.0,
			"0.018": 0.0,
			"0.019": 0.0,
			"0.02": 0.0,
			"0.021": 0.0,
			"0.022": 0.0,
			"0.023": 0.0,
			"0.024": 0.0,
			"0.025": 0.0
		}
	}
}
