{
	 "smiles": "C1CC2=CC=CC=C2OC1C1=CC=CC=C1", 
	 "Tm": 319.45, 
	 "num_atms": 30, 
	 "gaussian": { 
		 "optdone": 1, 
		 "sigma_profile": "yes", 
		 "theory": "DFT", 
		 "functional": "B3LYP", 
		 "basiset": "6-31G**", 
		 "properties": { 
			 "R2extent": 3734.867, 
			 "electric_dipole_moment_norm": 1.55718788205, 
			 "electric_quadrupole_moment_norm": 4.74571265881, 
			 "total_energy": -655.262441196, 
			 "HOMO_LUMO_gap": 0.20494, 
			 "cosmo_polarized_energy": -6.88, 
			 "cosmo_cavitation_energy": 31.88, 
			 "cosmo_dispersion_energy": -23.19, 
			 "cosmo_repulsion_energy": 1.79, 
			 "cosmo_total_nonelectrostatic_energy": 10.47, 
			 "SMD_solvation_energy": 4.85 
		},
		"coords": [
			{
				"x": -1.93736477,
				"y": 0.1588103277,
				"z": -0.809795514,
				"element": "C" 
			},
			{
				"x": -1.9906602743,
				"y": 0.8408790125,
				"z": 0.5600131249,
				"element": "C" 
			},
			{
				"x": -1.5479759404,
				"y": -0.1283120084,
				"z": 1.6318249289,
				"element": "C" 
			},
			{
				"x": -1.9406913808,
				"y": 0.0013954675,
				"z": 2.9694400865,
				"element": "C" 
			},
			{
				"x": -1.5319270142,
				"y": -0.9069622606,
				"z": 3.9437648198,
				"element": "C" 
			},
			{
				"x": -0.7168059714,
				"y": -1.9827043334,
				"z": 3.5784722452,
				"element": "C" 
			},
			{
				"x": -0.3160224656,
				"y": -2.1385344024,
				"z": 2.2552438979,
				"element": "C" 
			},
			{
				"x": -0.7260967167,
				"y": -1.2133333584,
				"z": 1.2867065862,
				"element": "C" 
			},
			{
				"x": -0.2836651783,
				"y": -1.4542163819,
				"z": 0.0086786555,
				"element": "O" 
			},
			{
				"x": -0.5641227242,
				"y": -0.4984934047,
				"z": -1.0251214809,
				"element": "C" 
			},
			{
				"x": 0.5696863237,
				"y": 0.5112921523,
				"z": -1.1788644756,
				"element": "C" 
			},
			{
				"x": 0.5751201184,
				"y": 1.3668930534,
				"z": -2.2905586312,
				"element": "C" 
			},
			{
				"x": 1.5949530723,
				"y": 2.3002942821,
				"z": -2.4689514016,
				"element": "C" 
			},
			{
				"x": 2.6310760544,
				"y": 2.3916386657,
				"z": -1.5363536604,
				"element": "C" 
			},
			{
				"x": 2.638935286,
				"y": 1.5378579493,
				"z": -0.433832584,
				"element": "C" 
			},
			{
				"x": 1.6179598275,
				"y": 0.6002672344,
				"z": -0.2573422136,
				"element": "C" 
			},
			{
				"x": -2.1306226155,
				"y": 0.8730615984,
				"z": -1.6155940425,
				"element": "H" 
			},
			{
				"x": -2.705509962,
				"y": -0.6210984649,
				"z": -0.8697863304,
				"element": "H" 
			},
			{
				"x": -1.3385077252,
				"y": 1.7246404015,
				"z": 0.5526810977,
				"element": "H" 
			},
			{
				"x": -3.0035653923,
				"y": 1.2011371083,
				"z": 0.7711679733,
				"element": "H" 
			},
			{
				"x": -2.5843585622,
				"y": 0.8349522095,
				"z": 3.2423679709,
				"element": "H" 
			},
			{
				"x": -1.8497884458,
				"y": -0.7824317547,
				"z": 4.9743742404,
				"element": "H" 
			},
			{
				"x": -0.393820332,
				"y": -2.7032306894,
				"z": 4.324503236,
				"element": "H" 
			},
			{
				"x": 0.3123515146,
				"y": -2.9673410338,
				"z": 1.9450263015,
				"element": "H" 
			},
			{
				"x": -0.6035199961,
				"y": -1.105430269,
				"z": -1.9374090498,
				"element": "H" 
			},
			{
				"x": -0.2198825636,
				"y": 1.2976047193,
				"z": -3.0298233579,
				"element": "H" 
			},
			{
				"x": 1.5833502684,
				"y": 2.9525877086,
				"z": -3.3377326377,
				"element": "H" 
			},
			{
				"x": 3.4272456079,
				"y": 3.1177249155,
				"z": -1.6731904218,
				"element": "H" 
			},
			{
				"x": 3.4442822522,
				"y": 1.5953447559,
				"z": 0.2931496565,
				"element": "H" 
			},
			{
				"x": 1.6402477054,
				"y": -0.0696932006,
				"z": 0.5943409804,
				"element": "H" 
			}
		],
		 "valence_orbital": [ 
			{
				"type": "occ",
				"energy": -0.30513,
				"method": "rhf"
			},
			{
				"type": "occ",
				"energy": -0.24946,
				"method": "rhf"
			},
			{
				"type": "occ",
				"energy": -0.24316,
				"method": "rhf"
			},
			{
				"type": "occ",
				"energy": -0.23825,
				"method": "rhf"
			},
			{
				"type": "occ",
				"energy": -0.21077,
				"method": "rhf"
			},
			{
				"type": "unocc",
				"energy": -0.00583,
				"method": "rhf"
			},
			{
				"type": "unocc",
				"energy": -0.00021,
				"method": "rhf"
			},
			{
				"type": "unocc",
				"energy": 0.00561,
				"method": "rhf"
			},
			{
				"type": "unocc",
				"energy": 0.0197,
				"method": "rhf"
			},
			{
				"type": "unocc",
				"energy": 0.08916,
				"method": "rhf"
			}
		],
		"cosmo_sigma_profile": { 
			"-0.025": 0.0,
			"-0.024": 0.0,
			"-0.023": 0.0,
			"-0.022": 0.0,
			"-0.021": 0.0,
			"-0.02": 0.0,
			"-0.019": 0.0,
			"-0.018": 0.0,
			"-0.017": 0.0,
			"-0.016": 0.0,
			"-0.015": 0.0,
			"-0.014": 0.0,
			"-0.013": 0.0,
			"-0.012": 0.0,
			"-0.011": 0.0,
			"-0.01": 0.0,
			"-0.009": 0.0,
			"-0.008": 0.0,
			"-0.007": 0.0367493678519,
			"-0.006": 7.91266762068,
			"-0.005": 21.4920875179,
			"-0.004": 25.9044842105,
			"-0.003": 29.4232880655,
			"-0.002": 23.3785992748,
			"-0.001": 23.1392646015,
			"0.0": 16.1602678848,
			"0.001": 16.2371004496,
			"0.002": 14.4966973393,
			"0.003": 15.785176188,
			"0.004": 17.052962561,
			"0.005": 17.6955177206,
			"0.006": 16.3289662086,
			"0.007": 3.96728077275,
			"0.008": 1.16875393023,
			"0.009": 1.4552565335,
			"0.01": 1.01858413641,
			"0.011": 0.685273020532,
			"0.012": 0.0,
			"0.013": 0.0,
			"0.014": 0.0,
			"0.015": 0.0,
			"0.016": 0.0,
			"0.017": 0.0,
			"0.018": 0.0,
			"0.019": 0.0,
			"0.02": 0.0,
			"0.021": 0.0,
			"0.022": 0.0,
			"0.023": 0.0,
			"0.024": 0.0,
			"0.025": 0.0
		}
	}
}
