{
	 "smiles": "CCC1=CC(CC)=CC(CC)=C1", 
	 "Tm": 206.65, 
	 "num_atms": 30, 
	 "gaussian": { 
		 "optdone": 1, 
		 "sigma_profile": "yes", 
		 "theory": "DFT", 
		 "functional": "B3LYP", 
		 "basiset": "6-31G**", 
		 "properties": { 
			 "R2extent": 3040.6391, 
			 "electric_dipole_moment_norm": 0.0386192956953, 
			 "electric_quadrupole_moment_norm": 4.42011212527, 
			 "total_energy": -468.159277162, 
			 "HOMO_LUMO_gap": 0.23598, 
			 "cosmo_polarized_energy": -3.08, 
			 "cosmo_cavitation_energy": 31.97, 
			 "cosmo_dispersion_energy": -22.07, 
			 "cosmo_repulsion_energy": 1.82, 
			 "cosmo_total_nonelectrostatic_energy": 11.72, 
			 "SMD_solvation_energy": 5.26 
		},
		"coords": [
			{
				"x": -1.9437537077,
				"y": 1.9272762975,
				"z": -1.1725566148,
				"element": "C" 
			},
			{
				"x": -1.2694012325,
				"y": 0.7924624245,
				"z": -1.9639443052,
				"element": "C" 
			},
			{
				"x": -0.2136717094,
				"y": 0.0608380315,
				"z": -1.1606119863,
				"element": "C" 
			},
			{
				"x": 1.1169558948,
				"y": 0.4958007698,
				"z": -1.1628202055,
				"element": "C" 
			},
			{
				"x": 2.0982900859,
				"y": -0.1455463595,
				"z": -0.3976960205,
				"element": "C" 
			},
			{
				"x": 3.5430957877,
				"y": 0.3067340917,
				"z": -0.4543460212,
				"element": "C" 
			},
			{
				"x": 4.347957124,
				"y": -0.397387464,
				"z": -1.5612391304,
				"element": "C" 
			},
			{
				"x": 1.7221933881,
				"y": -1.2437736276,
				"z": 0.3847495143,
				"element": "C" 
			},
			{
				"x": 0.401029073,
				"y": -1.7059351768,
				"z": 0.4112012404,
				"element": "C" 
			},
			{
				"x": 0.0050785336,
				"y": -2.8707669781,
				"z": 1.2952797728,
				"element": "C" 
			},
			{
				"x": -0.4272571377,
				"y": -2.4314283442,
				"z": 2.7055695799,
				"element": "C" 
			},
			{
				"x": -0.5533493238,
				"y": -1.0430858365,
				"z": -0.3695580412,
				"element": "C" 
			},
			{
				"x": -2.7004337514,
				"y": 2.4352815571,
				"z": -1.7800652605,
				"element": "H" 
			},
			{
				"x": -1.2080973502,
				"y": 2.672563406,
				"z": -0.8528393497,
				"element": "H" 
			},
			{
				"x": -2.4337708505,
				"y": 1.5400185327,
				"z": -0.2732368984,
				"element": "H" 
			},
			{
				"x": -0.8160934277,
				"y": 1.2072501508,
				"z": -2.8723714201,
				"element": "H" 
			},
			{
				"x": -2.0349590335,
				"y": 0.0804823246,
				"z": -2.29534898,
				"element": "H" 
			},
			{
				"x": 1.3961062213,
				"y": 1.3501700418,
				"z": -1.7775730957,
				"element": "H" 
			},
			{
				"x": 3.580695375,
				"y": 1.3908253249,
				"z": -0.6160740402,
				"element": "H" 
			},
			{
				"x": 4.0228914317,
				"y": 0.1197814334,
				"z": 0.5139862325,
				"element": "H" 
			},
			{
				"x": 5.3862524794,
				"y": -0.048894019,
				"z": -1.5754208168,
				"element": "H" 
			},
			{
				"x": 4.3554104847,
				"y": -1.4818380672,
				"z": -1.4103928931,
				"element": "H" 
			},
			{
				"x": 3.9110161084,
				"y": -0.2040363602,
				"z": -2.5464011657,
				"element": "H" 
			},
			{
				"x": 2.4758180477,
				"y": -1.7531977017,
				"z": 0.9833496296,
				"element": "H" 
			},
			{
				"x": -0.8153195017,
				"y": -3.4251006281,
				"z": 0.8236073597,
				"element": "H" 
			},
			{
				"x": 0.845926824,
				"y": -3.5699721071,
				"z": 1.3780923155,
				"element": "H" 
			},
			{
				"x": -0.7066594383,
				"y": -3.2949887451,
				"z": 3.3186760216,
				"element": "H" 
			},
			{
				"x": 0.3829288317,
				"y": -1.9002268727,
				"z": 3.2157462878,
				"element": "H" 
			},
			{
				"x": -1.2872589358,
				"y": -1.7553680293,
				"z": 2.6586573497,
				"element": "H" 
			},
			{
				"x": -1.5832202906,
				"y": -1.3968380692,
				"z": -0.3644190586,
				"element": "H" 
			}
		],
		 "valence_orbital": [ 
			{
				"type": "occ",
				"energy": -0.32298,
				"method": "rhf"
			},
			{
				"type": "occ",
				"energy": -0.31278,
				"method": "rhf"
			},
			{
				"type": "occ",
				"energy": -0.31271,
				"method": "rhf"
			},
			{
				"type": "occ",
				"energy": -0.22835,
				"method": "rhf"
			},
			{
				"type": "occ",
				"energy": -0.22833,
				"method": "rhf"
			},
			{
				"type": "unocc",
				"energy": 0.00765,
				"method": "rhf"
			},
			{
				"type": "unocc",
				"energy": 0.00784,
				"method": "rhf"
			},
			{
				"type": "unocc",
				"energy": 0.09328,
				"method": "rhf"
			},
			{
				"type": "unocc",
				"energy": 0.10751,
				"method": "rhf"
			},
			{
				"type": "unocc",
				"energy": 0.11499,
				"method": "rhf"
			}
		],
		"cosmo_sigma_profile": { 
			"-0.025": 0.0,
			"-0.024": 0.0,
			"-0.023": 0.0,
			"-0.022": 0.0,
			"-0.021": 0.0,
			"-0.02": 0.0,
			"-0.019": 0.0,
			"-0.018": 0.0,
			"-0.017": 0.0,
			"-0.016": 0.0,
			"-0.015": 0.0,
			"-0.014": 0.0,
			"-0.013": 0.0,
			"-0.012": 0.0,
			"-0.011": 0.0,
			"-0.01": 0.0,
			"-0.009": 0.0,
			"-0.008": 0.0,
			"-0.007": 0.0,
			"-0.006": 0.0,
			"-0.005": 0.424449175279,
			"-0.004": 6.62115592211,
			"-0.003": 32.406238302,
			"-0.002": 36.5383448381,
			"-0.001": 42.0836418324,
			"0.0": 42.4187065255,
			"0.001": 36.6566013808,
			"0.002": 17.6334776997,
			"0.003": 7.67231389824,
			"0.004": 6.8326446673,
			"0.005": 6.90992562056,
			"0.006": 5.67386369041,
			"0.007": 5.8564325446,
			"0.008": 1.05093710288,
			"0.009": 0.0,
			"0.01": 0.0,
			"0.011": 0.0,
			"0.012": 0.0,
			"0.013": 0.0,
			"0.014": 0.0,
			"0.015": 0.0,
			"0.016": 0.0,
			"0.017": 0.0,
			"0.018": 0.0,
			"0.019": 0.0,
			"0.02": 0.0,
			"0.021": 0.0,
			"0.022": 0.0,
			"0.023": 0.0,
			"0.024": 0.0,
			"0.025": 0.0
		}
	}
}
