{
	 "smiles": "CN1C(=O)C(C2=NNC(=O)C2=C/NC2=CC=CN=C2)=C(O)C2=CC=CC=C12", 
	 "Tm": 554.15, 
	 "num_atms": 42, 
	 "gaussian": { 
		 "optdone": 1, 
		 "sigma_profile": "yes", 
		 "theory": "DFT", 
		 "functional": "B3LYP", 
		 "basiset": "6-31G**", 
		 "properties": { 
			 "R2extent": 13558.0608, 
			 "electric_dipole_moment_norm": 1.81816701928, 
			 "electric_quadrupole_moment_norm": 20.7629980995, 
			 "total_energy": -1232.51864493, 
			 "HOMO_LUMO_gap": 0.13417, 
			 "cosmo_polarized_energy": -17.97, 
			 "cosmo_cavitation_energy": 45.63, 
			 "cosmo_dispersion_energy": -33.94, 
			 "cosmo_repulsion_energy": 2.45, 
			 "cosmo_total_nonelectrostatic_energy": 14.14, 
			 "SMD_solvation_energy": 6.78 
		},
		"coords": [
			{
				"x": 2.8118933032,
				"y": -0.7600753968,
				"z": 0.4446751214,
				"element": "C" 
			},
			{
				"x": 1.7865011679,
				"y": -1.6105760758,
				"z": -0.1611551451,
				"element": "N" 
			},
			{
				"x": 0.4520878394,
				"y": -1.172389583,
				"z": -0.0646021692,
				"element": "C" 
			},
			{
				"x": 0.2215844263,
				"y": -0.1113257289,
				"z": 0.5309611673,
				"element": "O" 
			},
			{
				"x": -0.5822152003,
				"y": -2.0053860779,
				"z": -0.6679343235,
				"element": "C" 
			},
			{
				"x": -2.0017503917,
				"y": -1.6032087562,
				"z": -0.6489967514,
				"element": "C" 
			},
			{
				"x": -2.8814855369,
				"y": -2.5099284457,
				"z": -1.064957881,
				"element": "N" 
			},
			{
				"x": -4.1329949652,
				"y": -1.9514283004,
				"z": -1.033572006,
				"element": "N" 
			},
			{
				"x": -4.1299220754,
				"y": -0.6569024567,
				"z": -0.5853066467,
				"element": "C" 
			},
			{
				"x": -5.123455387,
				"y": 0.083095155,
				"z": -0.458693615,
				"element": "O" 
			},
			{
				"x": -2.7161813269,
				"y": -0.3784118944,
				"z": -0.3167365422,
				"element": "C" 
			},
			{
				"x": -2.3340317421,
				"y": 0.8767704469,
				"z": 0.1247864732,
				"element": "C" 
			},
			{
				"x": -3.2458432286,
				"y": 1.8411137606,
				"z": 0.3170162603,
				"element": "N" 
			},
			{
				"x": -3.0085083164,
				"y": 3.1414043297,
				"z": 0.7875630939,
				"element": "C" 
			},
			{
				"x": -4.0330118774,
				"y": 4.0917472786,
				"z": 0.6908696744,
				"element": "C" 
			},
			{
				"x": -3.7977204662,
				"y": 5.3802825362,
				"z": 1.1568906251,
				"element": "C" 
			},
			{
				"x": -2.5473819831,
				"y": 5.6805962732,
				"z": 1.6999405928,
				"element": "C" 
			},
			{
				"x": -1.5636703533,
				"y": 4.7789630013,
				"z": 1.8080593646,
				"element": "N" 
			},
			{
				"x": -1.7923852395,
				"y": 3.5395999089,
				"z": 1.3698506235,
				"element": "C" 
			},
			{
				"x": -0.219198526,
				"y": -3.2197232349,
				"z": -1.2568281743,
				"element": "C" 
			},
			{
				"x": -1.0904987862,
				"y": -4.0715193105,
				"z": -1.7824352665,
				"element": "O" 
			},
			{
				"x": 1.1651576785,
				"y": -3.6276716477,
				"z": -1.3390094338,
				"element": "C" 
			},
			{
				"x": 1.5313778054,
				"y": -4.8354766207,
				"z": -1.9626641646,
				"element": "C" 
			},
			{
				"x": 2.8601203163,
				"y": -5.2173376164,
				"z": -2.0420772292,
				"element": "C" 
			},
			{
				"x": 3.8465082162,
				"y": -4.3877496734,
				"z": -1.4898185112,
				"element": "C" 
			},
			{
				"x": 3.5100133712,
				"y": -3.1936666187,
				"z": -0.8667287831,
				"element": "C" 
			},
			{
				"x": 2.1605385784,
				"y": -2.7937516925,
				"z": -0.7812831572,
				"element": "C" 
			},
			{
				"x": 3.5240319465,
				"y": -0.4182434405,
				"z": -0.3128828762,
				"element": "H" 
			},
			{
				"x": 2.3066127126,
				"y": 0.0959255899,
				"z": 0.8832289627,
				"element": "H" 
			},
			{
				"x": 3.3518175354,
				"y": -1.3064825688,
				"z": 1.2240771112,
				"element": "H" 
			},
			{
				"x": -4.9379099924,
				"y": -2.4967149009,
				"z": -1.2975073274,
				"element": "H" 
			},
			{
				"x": -1.2909024323,
				"y": 1.0855826689,
				"z": 0.3160813344,
				"element": "H" 
			},
			{
				"x": -4.2120649899,
				"y": 1.5539145439,
				"z": 0.0932943249,
				"element": "H" 
			},
			{
				"x": -4.989057094,
				"y": 3.8183020433,
				"z": 0.2525537393,
				"element": "H" 
			},
			{
				"x": -4.5697498328,
				"y": 6.1407318423,
				"z": 1.0962702216,
				"element": "H" 
			},
			{
				"x": -2.3277432974,
				"y": 6.6804836889,
				"z": 2.0678319567,
				"element": "H" 
			},
			{
				"x": -0.9789375797,
				"y": 2.8293494895,
				"z": 1.4979654169,
				"element": "H" 
			},
			{
				"x": -2.0147492406,
				"y": -3.6873889921,
				"z": -1.6317002013,
				"element": "H" 
			},
			{
				"x": 0.7446238381,
				"y": -5.4541566144,
				"z": -2.3776944609,
				"element": "H" 
			},
			{
				"x": 3.1348000421,
				"y": -6.1491992714,
				"z": -2.5255942903,
				"element": "H" 
			},
			{
				"x": 4.8920485871,
				"y": -4.6769166706,
				"z": -1.5452531797,
				"element": "H" 
			},
			{
				"x": 4.2925524968,
				"y": -2.574330968,
				"z": -0.4485839284,
				"element": "H" 
			}
		],
		 "valence_orbital": [ 
			{
				"type": "occ",
				"energy": -0.26153,
				"method": "rhf"
			},
			{
				"type": "occ",
				"energy": -0.25202,
				"method": "rhf"
			},
			{
				"type": "occ",
				"energy": -0.22743,
				"method": "rhf"
			},
			{
				"type": "occ",
				"energy": -0.21963,
				"method": "rhf"
			},
			{
				"type": "occ",
				"energy": -0.2042,
				"method": "rhf"
			},
			{
				"type": "unocc",
				"energy": -0.07003,
				"method": "rhf"
			},
			{
				"type": "unocc",
				"energy": -0.04573,
				"method": "rhf"
			},
			{
				"type": "unocc",
				"energy": -0.0303,
				"method": "rhf"
			},
			{
				"type": "unocc",
				"energy": -0.01079,
				"method": "rhf"
			},
			{
				"type": "unocc",
				"energy": 0.00624,
				"method": "rhf"
			}
		],
		"cosmo_sigma_profile": { 
			"-0.025": 0.0,
			"-0.024": 0.0,
			"-0.023": 0.0,
			"-0.022": 0.0,
			"-0.021": 0.0,
			"-0.02": 0.0,
			"-0.019": 0.0,
			"-0.018": 0.0,
			"-0.017": 0.145267267903,
			"-0.016": 1.3986858331,
			"-0.015": 1.44609624269,
			"-0.014": 0.563704856834,
			"-0.013": 1.23215336415,
			"-0.012": 0.720966780994,
			"-0.011": 0.956464157558,
			"-0.01": 2.10034538201,
			"-0.009": 2.42497200948,
			"-0.008": 3.97378311966,
			"-0.007": 9.16014965871,
			"-0.006": 21.9756283116,
			"-0.005": 24.4233686887,
			"-0.004": 22.2792314371,
			"-0.003": 20.7778175177,
			"-0.002": 24.6732022236,
			"-0.001": 29.3602129253,
			"0.0": 36.6542711243,
			"0.001": 37.1147960089,
			"0.002": 33.6804802308,
			"0.003": 22.2444559393,
			"0.004": 19.2415431658,
			"0.005": 9.64226134586,
			"0.006": 4.83654592375,
			"0.007": 6.39525735021,
			"0.008": 7.44006729398,
			"0.009": 4.23264443321,
			"0.01": 2.74041491231,
			"0.011": 3.48515851781,
			"0.012": 4.18240482868,
			"0.013": 3.26342903043,
			"0.014": 3.38255202837,
			"0.015": 1.30164449506,
			"0.016": 0.74034258052,
			"0.017": 0.0510676837378,
			"0.018": 0.0,
			"0.019": 0.0,
			"0.02": 0.0,
			"0.021": 0.0,
			"0.022": 0.0,
			"0.023": 0.0,
			"0.024": 0.0,
			"0.025": 0.0
		}
	}
}
