{
	 "smiles": "OC(=O)C1=CC=NN=C1", 
	 "Tm": 511.15, 
	 "num_atms": 13, 
	 "gaussian": { 
		 "optdone": 1, 
		 "sigma_profile": "yes", 
		 "theory": "DFT", 
		 "functional": "B3LYP", 
		 "basiset": "6-31G**", 
		 "properties": { 
			 "R2extent": 1860.3661, 
			 "electric_dipole_moment_norm": 2.82071106993, 
			 "electric_quadrupole_moment_norm": 9.97027479611, 
			 "total_energy": -452.857300407, 
			 "HOMO_LUMO_gap": 0.15616, 
			 "cosmo_polarized_energy": -13.68, 
			 "cosmo_cavitation_energy": 18.39, 
			 "cosmo_dispersion_energy": -13.75, 
			 "cosmo_repulsion_energy": 1.12, 
			 "cosmo_total_nonelectrostatic_energy": 5.76, 
			 "SMD_solvation_energy": 3.1 
		},
		"coords": [
			{
				"x": -2.4733058704,
				"y": -1.7848304863,
				"z": -0.0030803663,
				"element": "O" 
			},
			{
				"x": -1.8153087542,
				"y": -2.0047074554,
				"z": 1.1556294141,
				"element": "C" 
			},
			{
				"x": -2.0245634805,
				"y": -2.9632451094,
				"z": 1.8682093113,
				"element": "O" 
			},
			{
				"x": -0.8109984809,
				"y": -0.943031405,
				"z": 1.4554651424,
				"element": "C" 
			},
			{
				"x": -0.0518488726,
				"y": -1.0269346132,
				"z": 2.6139730223,
				"element": "C" 
			},
			{
				"x": 0.8705690612,
				"y": -0.0037041708,
				"z": 2.8388134567,
				"element": "C" 
			},
			{
				"x": 1.0502674451,
				"y": 1.028437566,
				"z": 2.0071079884,
				"element": "N" 
			},
			{
				"x": 0.3208230178,
				"y": 1.1107715084,
				"z": 0.8921074508,
				"element": "N" 
			},
			{
				"x": -0.5789454304,
				"y": 0.1609584709,
				"z": 0.6220669388,
				"element": "C" 
			},
			{
				"x": -3.0982169409,
				"y": -2.5214136818,
				"z": -0.1097368857,
				"element": "H" 
			},
			{
				"x": -0.1812739779,
				"y": -1.8553028593,
				"z": 3.3022972381,
				"element": "H" 
			},
			{
				"x": 1.5020965858,
				"y": 0.0020617906,
				"z": 3.7231531131,
				"element": "H" 
			},
			{
				"x": -1.1356943019,
				"y": 0.2918404452,
				"z": -0.300405824,
				"element": "H" 
			}
		],
		 "valence_orbital": [ 
			{
				"type": "occ",
				"energy": -0.32173,
				"method": "rhf"
			},
			{
				"type": "occ",
				"energy": -0.31731,
				"method": "rhf"
			},
			{
				"type": "occ",
				"energy": -0.30637,
				"method": "rhf"
			},
			{
				"type": "occ",
				"energy": -0.30473,
				"method": "rhf"
			},
			{
				"type": "occ",
				"energy": -0.24439,
				"method": "rhf"
			},
			{
				"type": "unocc",
				"energy": -0.08823,
				"method": "rhf"
			},
			{
				"type": "unocc",
				"energy": -0.04553,
				"method": "rhf"
			},
			{
				"type": "unocc",
				"energy": 0.02255,
				"method": "rhf"
			},
			{
				"type": "unocc",
				"energy": 0.0591,
				"method": "rhf"
			},
			{
				"type": "unocc",
				"energy": 0.10289,
				"method": "rhf"
			}
		],
		"cosmo_sigma_profile": { 
			"-0.025": 0.0,
			"-0.024": 0.0,
			"-0.023": 0.0,
			"-0.022": 0.0,
			"-0.021": 0.0,
			"-0.02": 0.0278567103642,
			"-0.019": 0.726505620992,
			"-0.018": 1.05043504545,
			"-0.017": 0.98957906359,
			"-0.016": 0.79751236071,
			"-0.015": 0.58317398654,
			"-0.014": 0.569876016719,
			"-0.013": 0.570564140103,
			"-0.012": 1.22690601935,
			"-0.011": 0.722497181502,
			"-0.01": 0.316278115689,
			"-0.009": 3.12845368742,
			"-0.008": 6.97144750344,
			"-0.007": 5.68089959997,
			"-0.006": 5.49855821077,
			"-0.005": 7.06188602223,
			"-0.004": 9.83178909625,
			"-0.003": 14.42322039,
			"-0.002": 14.658669692,
			"-0.001": 8.03917577954,
			"0.0": 6.02233911465,
			"0.001": 5.0051258658,
			"0.002": 5.88752312319,
			"0.003": 5.12665747703,
			"0.004": 2.95774861433,
			"0.005": 4.25410304627,
			"0.006": 5.07469993282,
			"0.007": 3.98695366598,
			"0.008": 2.68428757825,
			"0.009": 3.28766259872,
			"0.01": 6.4181599277,
			"0.011": 5.11470927838,
			"0.012": 2.81525104906,
			"0.013": 2.43767032689,
			"0.014": 2.48462828438,
			"0.015": 1.56084172478,
			"0.016": 0.28720347412,
			"0.017": 0.0,
			"0.018": 0.0,
			"0.019": 0.0,
			"0.02": 0.0,
			"0.021": 0.0,
			"0.022": 0.0,
			"0.023": 0.0,
			"0.024": 0.0,
			"0.025": 0.0
		}
	}
}
