{
	 "smiles": "COC1CN(CCCOC2=CC=C(F)C=C2)CCC1NC(=O)C1=C(OC)C=C(N)C(Cl)=C1", 
	 "Tm": 383.15, 
	 "num_atms": 61, 
	 "gaussian": { 
		 "optdone": 1, 
		 "sigma_profile": "yes", 
		 "theory": "DFT", 
		 "functional": "B3LYP", 
		 "basiset": "6-31G**", 
		 "properties": { 
			 "R2extent": 25970.457, 
			 "electric_dipole_moment_norm": 5.79961504757, 
			 "electric_quadrupole_moment_norm": 32.5533028604, 
			 "total_energy": -1919.0711204, 
			 "HOMO_LUMO_gap": 0.17992, 
			 "cosmo_polarized_energy": -25.4, 
			 "cosmo_cavitation_energy": 64.45, 
			 "cosmo_dispersion_energy": -42.89, 
			 "cosmo_repulsion_energy": 3.23, 
			 "cosmo_total_nonelectrostatic_energy": 24.79, 
			 "SMD_solvation_energy": 10.9 
		},
		"coords": [
			{
				"x": -4.2181448817,
				"y": 0.5734104357,
				"z": -2.0411792777,
				"element": "C" 
			},
			{
				"x": -3.0139791212,
				"y": 1.2928638632,
				"z": -1.8561537934,
				"element": "O" 
			},
			{
				"x": -2.1941028132,
				"y": 0.8082047203,
				"z": -0.7968004355,
				"element": "C" 
			},
			{
				"x": -2.6194190932,
				"y": 1.3802420452,
				"z": 0.5673765383,
				"element": "C" 
			},
			{
				"x": -1.8360249617,
				"y": 0.8523567018,
				"z": 1.6981459898,
				"element": "N" 
			},
			{
				"x": -2.5261301942,
				"y": -0.1368306795,
				"z": 2.5316558617,
				"element": "C" 
			},
			{
				"x": -2.0593164651,
				"y": -0.089897897,
				"z": 3.9951608088,
				"element": "C" 
			},
			{
				"x": -2.5178481192,
				"y": 1.1929352064,
				"z": 4.6934175857,
				"element": "C" 
			},
			{
				"x": -1.896990749,
				"y": 1.3848027969,
				"z": 5.9667336527,
				"element": "O" 
			},
			{
				"x": -0.6357600972,
				"y": 1.9096759204,
				"z": 6.0213485565,
				"element": "C" 
			},
			{
				"x": 0.1066856429,
				"y": 2.3432916079,
				"z": 4.9138395613,
				"element": "C" 
			},
			{
				"x": 1.3835061645,
				"y": 2.8835005426,
				"z": 5.1002651559,
				"element": "C" 
			},
			{
				"x": 1.9048610875,
				"y": 2.9833210205,
				"z": 6.3810246732,
				"element": "C" 
			},
			{
				"x": 3.1419224063,
				"y": 3.5055682826,
				"z": 6.5565776917,
				"element": "F" 
			},
			{
				"x": 1.1843682962,
				"y": 2.55546727,
				"z": 7.4926711342,
				"element": "C" 
			},
			{
				"x": -0.0849850201,
				"y": 2.0183247443,
				"z": 7.3082683986,
				"element": "C" 
			},
			{
				"x": -0.4875064528,
				"y": 0.3904849522,
				"z": 1.3083210342,
				"element": "C" 
			},
			{
				"x": 0.1085492884,
				"y": 1.2529610574,
				"z": 0.1944542135,
				"element": "C" 
			},
			{
				"x": -0.7605866973,
				"y": 1.2752311982,
				"z": -1.0957476811,
				"element": "C" 
			},
			{
				"x": -0.1737680518,
				"y": 0.5695509902,
				"z": -2.2371292238,
				"element": "N" 
			},
			{
				"x": 0.0927782154,
				"y": -0.7728270069,
				"z": -2.2621380239,
				"element": "C" 
			},
			{
				"x": 0.026706988,
				"y": -1.4832774438,
				"z": -1.2620275512,
				"element": "O" 
			},
			{
				"x": 0.4412962249,
				"y": -1.3060805544,
				"z": -3.6247696954,
				"element": "C" 
			},
			{
				"x": 1.5326755423,
				"y": -2.1847820933,
				"z": -3.8251497426,
				"element": "C" 
			},
			{
				"x": 2.3172989066,
				"y": -2.4267563585,
				"z": -2.7458860544,
				"element": "O" 
			},
			{
				"x": 3.4042148628,
				"y": -3.3286652508,
				"z": -2.8742971683,
				"element": "C" 
			},
			{
				"x": 1.7786943635,
				"y": -2.7199818731,
				"z": -5.0895586159,
				"element": "C" 
			},
			{
				"x": 0.9555016937,
				"y": -2.4178248556,
				"z": -6.1928370823,
				"element": "C" 
			},
			{
				"x": 1.1829333424,
				"y": -3.0080414839,
				"z": -7.4199414257,
				"element": "N" 
			},
			{
				"x": -0.1205884867,
				"y": -1.5387829499,
				"z": -5.9793621187,
				"element": "C" 
			},
			{
				"x": -1.1797870141,
				"y": -1.1195550307,
				"z": -7.3274901107,
				"element": "Cl" 
			},
			{
				"x": -0.3649288221,
				"y": -0.9979689813,
				"z": -4.7225654946,
				"element": "C" 
			},
			{
				"x": -4.7294483176,
				"y": 1.0211868037,
				"z": -2.8971213919,
				"element": "H" 
			},
			{
				"x": -4.8861885098,
				"y": 0.6330631943,
				"z": -1.1693380346,
				"element": "H" 
			},
			{
				"x": -4.0273421639,
				"y": -0.4887964761,
				"z": -2.2561433034,
				"element": "H" 
			},
			{
				"x": -2.2215711083,
				"y": -0.289648251,
				"z": -0.7699383119,
				"element": "H" 
			},
			{
				"x": -2.5220773826,
				"y": 2.4751724643,
				"z": 0.5125222622,
				"element": "H" 
			},
			{
				"x": -3.6800205157,
				"y": 1.176745337,
				"z": 0.7413663689,
				"element": "H" 
			},
			{
				"x": -2.396163346,
				"y": -1.1638737472,
				"z": 2.1436304756,
				"element": "H" 
			},
			{
				"x": -3.6019617342,
				"y": 0.0753618973,
				"z": 2.501610444,
				"element": "H" 
			},
			{
				"x": -2.452952391,
				"y": -0.9593985816,
				"z": 4.5342883982,
				"element": "H" 
			},
			{
				"x": -0.9682275285,
				"y": -0.164820462,
				"z": 4.042038648,
				"element": "H" 
			},
			{
				"x": -3.5890216917,
				"y": 1.1410362653,
				"z": 4.9135168603,
				"element": "H" 
			},
			{
				"x": -2.3537848743,
				"y": 2.060717738,
				"z": 4.0454100378,
				"element": "H" 
			},
			{
				"x": -0.2907869212,
				"y": 2.2658088983,
				"z": 3.9087267472,
				"element": "H" 
			},
			{
				"x": 1.9724695376,
				"y": 3.2234024975,
				"z": 4.2549417719,
				"element": "H" 
			},
			{
				"x": 1.6194013311,
				"y": 2.6466174304,
				"z": 8.4822458964,
				"element": "H" 
			},
			{
				"x": -0.674751959,
				"y": 1.6770678177,
				"z": 8.1525233877,
				"element": "H" 
			},
			{
				"x": 0.1716813387,
				"y": 0.4372915781,
				"z": 2.1830910267,
				"element": "H" 
			},
			{
				"x": -0.5026493978,
				"y": -0.6554402114,
				"z": 0.9663135676,
				"element": "H" 
			},
			{
				"x": 1.1065865865,
				"y": 0.880695525,
				"z": -0.0472176225,
				"element": "H" 
			},
			{
				"x": 0.226262948,
				"y": 2.2796498507,
				"z": 0.5598975721,
				"element": "H" 
			},
			{
				"x": -0.8568532092,
				"y": 2.3133562722,
				"z": -1.4301906835,
				"element": "H" 
			},
			{
				"x": -0.1066497308,
				"y": 1.0745800607,
				"z": -3.1067565763,
				"element": "H" 
			},
			{
				"x": 3.8585417673,
				"y": -3.389038087,
				"z": -1.8846485608,
				"element": "H" 
			},
			{
				"x": 3.0659485616,
				"y": -4.3274076007,
				"z": -3.1777054516,
				"element": "H" 
			},
			{
				"x": 4.1508838778,
				"y": -2.9659320513,
				"z": -3.5930210538,
				"element": "H" 
			},
			{
				"x": 2.6150815725,
				"y": -3.3905014861,
				"z": -5.2485329383,
				"element": "H" 
			},
			{
				"x": 0.7502316493,
				"y": -2.5658536671,
				"z": -8.2178417456,
				"element": "H" 
			},
			{
				"x": 2.1156721868,
				"y": -3.3525618183,
				"z": -7.5894123964,
				"element": "H" 
			},
			{
				"x": -1.2215365607,
				"y": -0.3447020878,
				"z": -4.5902827556,
				"element": "H" 
			}
		],
		 "valence_orbital": [ 
			{
				"type": "occ",
				"energy": -0.24394,
				"method": "rhf"
			},
			{
				"type": "occ",
				"energy": -0.23743,
				"method": "rhf"
			},
			{
				"type": "occ",
				"energy": -0.2096,
				"method": "rhf"
			},
			{
				"type": "occ",
				"energy": -0.20652,
				"method": "rhf"
			},
			{
				"type": "occ",
				"energy": -0.19841,
				"method": "rhf"
			},
			{
				"type": "unocc",
				"energy": -0.01849,
				"method": "rhf"
			},
			{
				"type": "unocc",
				"energy": -0.00272,
				"method": "rhf"
			},
			{
				"type": "unocc",
				"energy": -0.00171,
				"method": "rhf"
			},
			{
				"type": "unocc",
				"energy": 0.0258,
				"method": "rhf"
			},
			{
				"type": "unocc",
				"energy": 0.02588,
				"method": "rhf"
			}
		],
		"cosmo_sigma_profile": { 
			"-0.025": 0.0,
			"-0.024": 0.0,
			"-0.023": 0.0,
			"-0.022": 0.0,
			"-0.021": 0.0,
			"-0.02": 0.0,
			"-0.019": 0.0,
			"-0.018": 0.0,
			"-0.017": 0.0,
			"-0.016": 0.0,
			"-0.015": 0.0,
			"-0.014": 0.977386767528,
			"-0.013": 2.44831139321,
			"-0.012": 2.53173812662,
			"-0.011": 4.31521309309,
			"-0.01": 4.07149187529,
			"-0.009": 3.25128140331,
			"-0.008": 3.4878770456,
			"-0.007": 8.04828653206,
			"-0.006": 17.4384097691,
			"-0.005": 27.9032242323,
			"-0.004": 40.7412487655,
			"-0.003": 49.4004210504,
			"-0.002": 51.0706988207,
			"-0.001": 42.8210472541,
			"0.0": 33.9863716349,
			"0.001": 30.3241381867,
			"0.002": 32.7226820695,
			"0.003": 37.3123821758,
			"0.004": 40.6185310099,
			"0.005": 28.7174383861,
			"0.006": 8.58248560999,
			"0.007": 5.33577452522,
			"0.008": 6.07714091732,
			"0.009": 5.24325068979,
			"0.01": 4.89372870205,
			"0.011": 4.49732339386,
			"0.012": 2.93315218684,
			"0.013": 2.65471493638,
			"0.014": 3.02905957416,
			"0.015": 2.2779080274,
			"0.016": 1.71790480936,
			"0.017": 0.0666599999223,
			"0.018": 0.0,
			"0.019": 0.0,
			"0.02": 0.0,
			"0.021": 0.0,
			"0.022": 0.0,
			"0.023": 0.0,
			"0.024": 0.0,
			"0.025": 0.0
		}
	}
}
