{
	 "smiles": "CC(C)(C)CC(C)(C)C", 
	 "Tm": 206.35, 
	 "num_atms": 29, 
	 "gaussian": { 
		 "optdone": 1, 
		 "sigma_profile": "yes", 
		 "theory": "DFT", 
		 "functional": "B3LYP", 
		 "basiset": "6-31G**", 
		 "properties": { 
			 "R2extent": 1864.8214, 
			 "electric_dipole_moment_norm": 0.00642261628933, 
			 "electric_quadrupole_moment_norm": 0.118423224074, 
			 "total_energy": -355.035854929, 
			 "HOMO_LUMO_gap": 0.35472, 
			 "cosmo_polarized_energy": -0.88, 
			 "cosmo_cavitation_energy": 27.33, 
			 "cosmo_dispersion_energy": -19.09, 
			 "cosmo_repulsion_energy": 1.52, 
			 "cosmo_total_nonelectrostatic_energy": 9.76, 
			 "SMD_solvation_energy": 4.81 
		},
		"coords": [
			{
				"x": -0.3423233047,
				"y": 3.0527148249,
				"z": 1.4461576501,
				"element": "C" 
			},
			{
				"x": 0.0710143484,
				"y": 1.5797580257,
				"z": 1.655717891,
				"element": "C" 
			},
			{
				"x": -0.3607924865,
				"y": 1.1769663962,
				"z": 3.0851660768,
				"element": "C" 
			},
			{
				"x": 1.6053378788,
				"y": 1.4668958043,
				"z": 1.5729431929,
				"element": "C" 
			},
			{
				"x": -0.6861697113,
				"y": 0.615011497,
				"z": 0.6877339248,
				"element": "C" 
			},
			{
				"x": -0.3760886555,
				"y": 0.4494545259,
				"z": -0.834664596,
				"element": "C" 
			},
			{
				"x": -0.2796212816,
				"y": 1.7835692022,
				"z": -1.5993269762,
				"element": "C" 
			},
			{
				"x": 0.9095503373,
				"y": -0.3703019337,
				"z": -1.0784345296,
				"element": "C" 
			},
			{
				"x": -1.556944231,
				"y": -0.3553371777,
				"z": -1.4262725194,
				"element": "C" 
			},
			{
				"x": -1.430737114,
				"y": 3.1687918481,
				"z": 1.5054861198,
				"element": "H" 
			},
			{
				"x": -0.0162894646,
				"y": 3.4476775227,
				"z": 0.4818504305,
				"element": "H" 
			},
			{
				"x": 0.0995687442,
				"y": 3.6849372442,
				"z": 2.225168861,
				"element": "H" 
			},
			{
				"x": -1.4500458928,
				"y": 1.2225384003,
				"z": 3.1989578216,
				"element": "H" 
			},
			{
				"x": -0.0427474723,
				"y": 0.1558134855,
				"z": 3.3242350804,
				"element": "H" 
			},
			{
				"x": 0.0805667097,
				"y": 1.8483711072,
				"z": 3.8303928354,
				"element": "H" 
			},
			{
				"x": 1.9408684357,
				"y": 0.4313914556,
				"z": 1.6951073755,
				"element": "H" 
			},
			{
				"x": 2.0699497339,
				"y": 2.0608479306,
				"z": 2.3688164639,
				"element": "H" 
			},
			{
				"x": 1.9955556005,
				"y": 1.8397546105,
				"z": 0.6214670733,
				"element": "H" 
			},
			{
				"x": -0.6115602733,
				"y": -0.3941744479,
				"z": 1.1171766976,
				"element": "H" 
			},
			{
				"x": -1.7486828578,
				"y": 0.8842989344,
				"z": 0.7714517278,
				"element": "H" 
			},
			{
				"x": -0.20361607,
				"y": 1.5952285734,
				"z": -2.6767474007,
				"element": "H" 
			},
			{
				"x": 0.6021348273,
				"y": 2.3625300524,
				"z": -1.3094506372,
				"element": "H" 
			},
			{
				"x": -1.1647067102,
				"y": 2.4075991062,
				"z": -1.4350549008,
				"element": "H" 
			},
			{
				"x": 0.8699486631,
				"y": -1.3308930551,
				"z": -0.5518223201,
				"element": "H" 
			},
			{
				"x": 1.0253149476,
				"y": -0.5847952056,
				"z": -2.1472726206,
				"element": "H" 
			},
			{
				"x": 1.8103756281,
				"y": 0.1530412524,
				"z": -0.7515435233,
				"element": "H" 
			},
			{
				"x": -1.6851332206,
				"y": -1.312398223,
				"z": -0.9075064619,
				"element": "H" 
			},
			{
				"x": -1.3898247255,
				"y": -0.5712587745,
				"z": -2.4875898832,
				"element": "H" 
			},
			{
				"x": -2.498602383,
				"y": 0.198867018,
				"z": -1.3414428533,
				"element": "H" 
			}
		],
		 "valence_orbital": [ 
			{
				"type": "occ",
				"energy": -0.32324,
				"method": "rhf"
			},
			{
				"type": "occ",
				"energy": -0.31745,
				"method": "rhf"
			},
			{
				"type": "occ",
				"energy": -0.30817,
				"method": "rhf"
			},
			{
				"type": "occ",
				"energy": -0.30122,
				"method": "rhf"
			},
			{
				"type": "occ",
				"energy": -0.2882,
				"method": "rhf"
			},
			{
				"type": "unocc",
				"energy": 0.06652,
				"method": "rhf"
			},
			{
				"type": "unocc",
				"energy": 0.10876,
				"method": "rhf"
			},
			{
				"type": "unocc",
				"energy": 0.11697,
				"method": "rhf"
			},
			{
				"type": "unocc",
				"energy": 0.12625,
				"method": "rhf"
			},
			{
				"type": "unocc",
				"energy": 0.12921,
				"method": "rhf"
			}
		],
		"cosmo_sigma_profile": { 
			"-0.025": 0.0,
			"-0.024": 0.0,
			"-0.023": 0.0,
			"-0.022": 0.0,
			"-0.021": 0.0,
			"-0.02": 0.0,
			"-0.019": 0.0,
			"-0.018": 0.0,
			"-0.017": 0.0,
			"-0.016": 0.0,
			"-0.015": 0.0,
			"-0.014": 0.0,
			"-0.013": 0.0,
			"-0.012": 0.0,
			"-0.011": 0.0,
			"-0.01": 0.0,
			"-0.009": 0.0,
			"-0.008": 0.0,
			"-0.007": 0.0,
			"-0.006": 0.0,
			"-0.005": 0.0,
			"-0.004": 0.0,
			"-0.003": 4.80822312629,
			"-0.002": 32.019239381,
			"-0.001": 50.0791398584,
			"0.0": 40.0653584303,
			"0.001": 36.7501006383,
			"0.002": 39.6196741696,
			"0.003": 4.59785210005,
			"0.004": 0.0,
			"0.005": 0.0,
			"0.006": 0.0,
			"0.007": 0.0,
			"0.008": 0.0,
			"0.009": 0.0,
			"0.01": 0.0,
			"0.011": 0.0,
			"0.012": 0.0,
			"0.013": 0.0,
			"0.014": 0.0,
			"0.015": 0.0,
			"0.016": 0.0,
			"0.017": 0.0,
			"0.018": 0.0,
			"0.019": 0.0,
			"0.02": 0.0,
			"0.021": 0.0,
			"0.022": 0.0,
			"0.023": 0.0,
			"0.024": 0.0,
			"0.025": 0.0
		}
	}
}
