{
	 "smiles": "BrC1=CN2C(C=O)=CN=C2C=C1", 
	 "Tm": 436.15, 
	 "num_atms": 17, 
	 "gaussian": { 
		 "optdone": 1, 
		 "sigma_profile": "yes", 
		 "theory": "DFT", 
		 "functional": "B3LYP", 
		 "basiset": "6-31G**", 
		 "properties": { 
			 "R2extent": 4094.3511, 
			 "electric_dipole_moment_norm": 3.8445879233, 
			 "electric_quadrupole_moment_norm": 9.58238489156, 
			 "total_energy": -3063.97169723, 
			 "HOMO_LUMO_gap": 0.16612, 
			 "cosmo_polarized_energy": -13.15, 
			 "cosmo_cavitation_energy": 24.62, 
			 "cosmo_dispersion_energy": -18.52, 
			 "cosmo_repulsion_energy": 1.44, 
			 "cosmo_total_nonelectrostatic_energy": 7.55, 
			 "SMD_solvation_energy": 2.66 
		},
		"coords": [
			{
				"x": -1.5110769566,
				"y": 3.5249805669,
				"z": -1.107045857,
				"element": "Br" 
			},
			{
				"x": -1.164757391,
				"y": 1.76656211,
				"z": -0.4718452992,
				"element": "C" 
			},
			{
				"x": -1.0485849708,
				"y": 0.747241372,
				"z": -1.3786960695,
				"element": "C" 
			},
			{
				"x": -0.7988886734,
				"y": -0.5196270213,
				"z": -0.9161498018,
				"element": "N" 
			},
			{
				"x": -0.6327376341,
				"y": -1.7359222327,
				"z": -1.5813339434,
				"element": "C" 
			},
			{
				"x": -0.6939494505,
				"y": -1.9310520597,
				"z": -3.0157886662,
				"element": "C" 
			},
			{
				"x": -0.542008627,
				"y": -3.0163412707,
				"z": -3.554738646,
				"element": "O" 
			},
			{
				"x": -0.4049070272,
				"y": -2.6626003328,
				"z": -0.5598060169,
				"element": "C" 
			},
			{
				"x": -0.4207287955,
				"y": -2.1022183364,
				"z": 0.6632911169,
				"element": "N" 
			},
			{
				"x": -0.6598082071,
				"y": -0.7998105993,
				"z": 0.4521919317,
				"element": "C" 
			},
			{
				"x": -0.7820368464,
				"y": 0.2602622402,
				"z": 1.3733356517,
				"element": "C" 
			},
			{
				"x": -1.032322991,
				"y": 1.5348649524,
				"z": 0.9220579068,
				"element": "C" 
			},
			{
				"x": -1.1434511614,
				"y": 0.8865263739,
				"z": -2.4463346861,
				"element": "H" 
			},
			{
				"x": -0.8915905339,
				"y": -1.0202026077,
				"z": -3.6234731319,
				"element": "H" 
			},
			{
				"x": -0.2319007537,
				"y": -3.7203087979,
				"z": -0.7073936531,
				"element": "H" 
			},
			{
				"x": -0.6731309147,
				"y": 0.0343094123,
				"z": 2.4273884267,
				"element": "H" 
			},
			{
				"x": -1.1298190657,
				"y": 2.3634362308,
				"z": 1.6129407374,
				"element": "H" 
			}
		],
		 "valence_orbital": [ 
			{
				"type": "occ",
				"energy": -0.31318,
				"method": "rhf"
			},
			{
				"type": "occ",
				"energy": -0.29534,
				"method": "rhf"
			},
			{
				"type": "occ",
				"energy": -0.26132,
				"method": "rhf"
			},
			{
				"type": "occ",
				"energy": -0.26007,
				"method": "rhf"
			},
			{
				"type": "occ",
				"energy": -0.23806,
				"method": "rhf"
			},
			{
				"type": "unocc",
				"energy": -0.07194,
				"method": "rhf"
			},
			{
				"type": "unocc",
				"energy": -0.05614,
				"method": "rhf"
			},
			{
				"type": "unocc",
				"energy": -0.01979,
				"method": "rhf"
			},
			{
				"type": "unocc",
				"energy": -0.00523,
				"method": "rhf"
			},
			{
				"type": "unocc",
				"energy": 0.08159,
				"method": "rhf"
			}
		],
		"cosmo_sigma_profile": { 
			"-0.025": 0.0,
			"-0.024": 0.0,
			"-0.023": 0.0,
			"-0.022": 0.0,
			"-0.021": 0.0,
			"-0.02": 0.0,
			"-0.019": 0.0,
			"-0.018": 0.0,
			"-0.017": 0.0,
			"-0.016": 0.0,
			"-0.015": 0.0,
			"-0.014": 0.0,
			"-0.013": 0.0,
			"-0.012": 1.39669111359,
			"-0.011": 2.48799118677,
			"-0.01": 2.09747889443,
			"-0.009": 4.48373142651,
			"-0.008": 7.71039402227,
			"-0.007": 8.15702764478,
			"-0.006": 8.4276508035,
			"-0.005": 8.38774064529,
			"-0.004": 11.6858788191,
			"-0.003": 14.1192965052,
			"-0.002": 14.0413833688,
			"-0.001": 15.1594070235,
			"0.0": 21.5690617673,
			"0.001": 16.3708523106,
			"0.002": 10.3967393155,
			"0.003": 13.3415132206,
			"0.004": 9.80474643685,
			"0.005": 2.53227838529,
			"0.006": 2.45611697423,
			"0.007": 3.28068756143,
			"0.008": 3.66303597582,
			"0.009": 2.1276527028,
			"0.01": 3.25611744083,
			"0.011": 4.08819160886,
			"0.012": 5.99553488601,
			"0.013": 2.85878583513,
			"0.014": 1.06956486386,
			"0.015": 1.01924787563,
			"0.016": 0.732531754422,
			"0.017": 0.106026453097,
			"0.018": 0.0,
			"0.019": 0.0,
			"0.02": 0.0,
			"0.021": 0.0,
			"0.022": 0.0,
			"0.023": 0.0,
			"0.024": 0.0,
			"0.025": 0.0
		}
	}
}
