{
	 "smiles": "CC1=C(C2=C(S1)N=C(S)NC2=O)C1=CC=CC=C1", 
	 "Tm": 290.15, 
	 "num_atms": 28, 
	 "gaussian": { 
		 "optdone": 1, 
		 "sigma_profile": "yes", 
		 "theory": "DFT", 
		 "functional": "B3LYP", 
		 "basiset": "6-31G**", 
		 "properties": { 
			 "R2extent": 6071.4038, 
			 "electric_dipole_moment_norm": 1.36701327718, 
			 "electric_quadrupole_moment_norm": 12.9676209491, 
			 "total_energy": -1482.532185, 
			 "HOMO_LUMO_gap": 0.16546, 
			 "cosmo_polarized_energy": -14.42, 
			 "cosmo_cavitation_energy": 35.46, 
			 "cosmo_dispersion_energy": -26.52, 
			 "cosmo_repulsion_energy": 1.96, 
			 "cosmo_total_nonelectrostatic_energy": 10.89, 
			 "SMD_solvation_energy": 3.93 
		},
		"coords": [
			{
				"x": -2.828566065,
				"y": 0.9641460593,
				"z": -1.2335929387,
				"element": "C" 
			},
			{
				"x": -1.8588569431,
				"y": 0.3355689365,
				"z": -0.2761126718,
				"element": "C" 
			},
			{
				"x": -0.4966256615,
				"y": 0.5104649325,
				"z": -0.1781625394,
				"element": "C" 
			},
			{
				"x": 0.061267593,
				"y": -0.2444226813,
				"z": 0.9227382602,
				"element": "C" 
			},
			{
				"x": -0.8922174416,
				"y": -0.9804546524,
				"z": 1.6237274799,
				"element": "C" 
			},
			{
				"x": -2.4834446161,
				"y": -0.752518658,
				"z": 0.9561304388,
				"element": "S" 
			},
			{
				"x": -0.6876268047,
				"y": -1.8057123572,
				"z": 2.6906326201,
				"element": "N" 
			},
			{
				"x": 0.5511039205,
				"y": -1.9011189085,
				"z": 3.0722253966,
				"element": "C" 
			},
			{
				"x": 1.004694514,
				"y": -2.9328484362,
				"z": 4.4503641917,
				"element": "S" 
			},
			{
				"x": 1.5788077169,
				"y": -1.2371300558,
				"z": 2.4659763403,
				"element": "N" 
			},
			{
				"x": 1.4462555694,
				"y": -0.3611454588,
				"z": 1.3487151554,
				"element": "C" 
			},
			{
				"x": 2.4481985948,
				"y": 0.1688313995,
				"z": 0.8946553505,
				"element": "O" 
			},
			{
				"x": 0.2794382113,
				"y": 1.3813316096,
				"z": -1.1008055754,
				"element": "C" 
			},
			{
				"x": 1.0692746164,
				"y": 2.4339508884,
				"z": -0.6117934079,
				"element": "C" 
			},
			{
				"x": 1.7628291678,
				"y": 3.2665086206,
				"z": -1.4870888803,
				"element": "C" 
			},
			{
				"x": 1.685367726,
				"y": 3.0612551145,
				"z": -2.8668432853,
				"element": "C" 
			},
			{
				"x": 0.9112324304,
				"y": 2.0135124445,
				"z": -3.3653557888,
				"element": "C" 
			},
			{
				"x": 0.2146322159,
				"y": 1.1802468897,
				"z": -2.4886355824,
				"element": "C" 
			},
			{
				"x": -3.2025237053,
				"y": 0.2424337476,
				"z": -1.9698952074,
				"element": "H" 
			},
			{
				"x": -2.3456971981,
				"y": 1.7778234223,
				"z": -1.7778486358,
				"element": "H" 
			},
			{
				"x": -3.6981864615,
				"y": 1.3720155988,
				"z": -0.7068610667,
				"element": "H" 
			},
			{
				"x": -0.2595962238,
				"y": -3.3393815521,
				"z": 4.6653704391,
				"element": "H" 
			},
			{
				"x": 2.5334876043,
				"y": -1.3456504086,
				"z": 2.7887623903,
				"element": "H" 
			},
			{
				"x": 1.1418889198,
				"y": 2.5945042052,
				"z": 0.4582829942,
				"element": "H" 
			},
			{
				"x": 2.3682090646,
				"y": 4.0765919401,
				"z": -1.0906245692,
				"element": "H" 
			},
			{
				"x": 2.2295567464,
				"y": 3.7104254159,
				"z": -3.5468777965,
				"element": "H" 
			},
			{
				"x": 0.8526798059,
				"y": 1.8381860407,
				"z": -4.4359054682,
				"element": "H" 
			},
			{
				"x": -0.3715832967,
				"y": 0.353585903,
				"z": -2.8792776435,
				"element": "H" 
			}
		],
		 "valence_orbital": [ 
			{
				"type": "occ",
				"energy": -0.27125,
				"method": "rhf"
			},
			{
				"type": "occ",
				"energy": -0.26379,
				"method": "rhf"
			},
			{
				"type": "occ",
				"energy": -0.24445,
				"method": "rhf"
			},
			{
				"type": "occ",
				"energy": -0.23759,
				"method": "rhf"
			},
			{
				"type": "occ",
				"energy": -0.21163,
				"method": "rhf"
			},
			{
				"type": "unocc",
				"energy": -0.04617,
				"method": "rhf"
			},
			{
				"type": "unocc",
				"energy": -0.01857,
				"method": "rhf"
			},
			{
				"type": "unocc",
				"energy": -0.01471,
				"method": "rhf"
			},
			{
				"type": "unocc",
				"energy": -0.00336,
				"method": "rhf"
			},
			{
				"type": "unocc",
				"energy": 0.00439,
				"method": "rhf"
			}
		],
		"cosmo_sigma_profile": { 
			"-0.025": 0.0,
			"-0.024": 0.0,
			"-0.023": 0.0,
			"-0.022": 0.0,
			"-0.021": 0.0,
			"-0.02": 0.0,
			"-0.019": 0.0,
			"-0.018": 0.0129415674992,
			"-0.017": 0.652209138101,
			"-0.016": 1.26889255858,
			"-0.015": 1.02981967635,
			"-0.014": 0.93423481767,
			"-0.013": 1.35658095378,
			"-0.012": 2.44377077582,
			"-0.011": 2.26424633227,
			"-0.01": 2.06415974711,
			"-0.009": 2.01926842612,
			"-0.008": 1.36661923321,
			"-0.007": 2.22649081153,
			"-0.006": 6.30623323803,
			"-0.005": 16.5427477784,
			"-0.004": 22.4048710506,
			"-0.003": 27.3025368925,
			"-0.002": 22.8482906516,
			"-0.001": 23.0455687858,
			"0.0": 21.1381956434,
			"0.001": 26.4986287503,
			"0.002": 25.7480185843,
			"0.003": 21.0188274793,
			"0.004": 13.9882371049,
			"0.005": 12.3502114433,
			"0.006": 9.17796941055,
			"0.007": 3.75355178979,
			"0.008": 2.21657523676,
			"0.009": 2.98527850337,
			"0.01": 2.34133902319,
			"0.011": 3.00247469274,
			"0.012": 3.02599313241,
			"0.013": 5.45420111145,
			"0.014": 0.436852598554,
			"0.015": 0.0,
			"0.016": 0.0,
			"0.017": 0.0,
			"0.018": 0.0,
			"0.019": 0.0,
			"0.02": 0.0,
			"0.021": 0.0,
			"0.022": 0.0,
			"0.023": 0.0,
			"0.024": 0.0,
			"0.025": 0.0
		}
	}
}
