{
	 "smiles": "OC(NC=O)C(Cl)(Cl)Cl", 
	 "Tm": 393.15, 
	 "num_atms": 13, 
	 "gaussian": { 
		 "optdone": 1, 
		 "sigma_profile": "yes", 
		 "theory": "DFT", 
		 "functional": "B3LYP", 
		 "basiset": "6-31G**", 
		 "properties": { 
			 "R2extent": 2429.8682, 
			 "electric_dipole_moment_norm": 3.70589783184, 
			 "electric_quadrupole_moment_norm": 12.4527157247, 
			 "total_energy": -1702.48961613, 
			 "HOMO_LUMO_gap": 0.23781, 
			 "cosmo_polarized_energy": -12.74, 
			 "cosmo_cavitation_energy": 21.92, 
			 "cosmo_dispersion_energy": -16.45, 
			 "cosmo_repulsion_energy": 1.34, 
			 "cosmo_total_nonelectrostatic_energy": 6.81, 
			 "SMD_solvation_energy": 3.76 
		},
		"coords": [
			{
				"x": 0.2083908413,
				"y": 0.5789259256,
				"z": 0.4759452727,
				"element": "O" 
			},
			{
				"x": -0.7439575073,
				"y": -0.3552651746,
				"z": 0.1466398073,
				"element": "C" 
			},
			{
				"x": -1.7416329653,
				"y": -0.5429775725,
				"z": 1.1979005801,
				"element": "N" 
			},
			{
				"x": -1.537720959,
				"y": -0.2754511736,
				"z": 2.516795516,
				"element": "C" 
			},
			{
				"x": -0.5008639107,
				"y": 0.1649207152,
				"z": 3.0003792695,
				"element": "O" 
			},
			{
				"x": -0.093276767,
				"y": -1.7403048647,
				"z": -0.255658371,
				"element": "C" 
			},
			{
				"x": 1.0137412276,
				"y": -1.4707711921,
				"z": -1.6351319518,
				"element": "Cl" 
			},
			{
				"x": -1.4207110987,
				"y": -2.8645574412,
				"z": -0.7790571788,
				"element": "Cl" 
			},
			{
				"x": 0.7979120678,
				"y": -2.4606772813,
				"z": 1.1167816997,
				"element": "Cl" 
			},
			{
				"x": 0.3573199196,
				"y": 0.5225549998,
				"z": 1.4451425559,
				"element": "H" 
			},
			{
				"x": -1.2617648105,
				"y": -0.0267275699,
				"z": -0.7630722946,
				"element": "H" 
			},
			{
				"x": -2.6277328517,
				"y": -0.9457368642,
				"z": 0.9287580979,
				"element": "H" 
			},
			{
				"x": -2.4293031859,
				"y": -0.4873325066,
				"z": 3.1327769972,
				"element": "H" 
			}
		],
		 "valence_orbital": [ 
			{
				"type": "occ",
				"energy": -0.32712,
				"method": "rhf"
			},
			{
				"type": "occ",
				"energy": -0.31323,
				"method": "rhf"
			},
			{
				"type": "occ",
				"energy": -0.30919,
				"method": "rhf"
			},
			{
				"type": "occ",
				"energy": -0.29206,
				"method": "rhf"
			},
			{
				"type": "occ",
				"energy": -0.28475,
				"method": "rhf"
			},
			{
				"type": "unocc",
				"energy": -0.04694,
				"method": "rhf"
			},
			{
				"type": "unocc",
				"energy": -0.01661,
				"method": "rhf"
			},
			{
				"type": "unocc",
				"energy": -0.00216,
				"method": "rhf"
			},
			{
				"type": "unocc",
				"energy": 0.00594,
				"method": "rhf"
			},
			{
				"type": "unocc",
				"energy": 0.05538,
				"method": "rhf"
			}
		],
		"cosmo_sigma_profile": { 
			"-0.025": 0.0,
			"-0.024": 0.0,
			"-0.023": 0.0,
			"-0.022": 0.0,
			"-0.021": 0.0,
			"-0.02": 0.0,
			"-0.019": 0.0,
			"-0.018": 0.0,
			"-0.017": 0.165210068821,
			"-0.016": 1.28408170612,
			"-0.015": 1.57234645112,
			"-0.014": 1.23047030789,
			"-0.013": 1.2869104597,
			"-0.012": 1.85345149723,
			"-0.011": 1.81716510129,
			"-0.01": 2.58163464778,
			"-0.009": 5.41868483421,
			"-0.008": 4.5338107816,
			"-0.007": 4.61320498323,
			"-0.006": 3.77570097021,
			"-0.005": 4.38317416214,
			"-0.004": 6.65483322999,
			"-0.003": 8.52852059353,
			"-0.002": 10.3491391968,
			"-0.001": 11.7548580407,
			"0.0": 12.9904978365,
			"0.001": 14.9069971403,
			"0.002": 21.1241894393,
			"0.003": 27.8226566484,
			"0.004": 5.24585561416,
			"0.005": 3.59481630619,
			"0.006": 3.1637972833,
			"0.007": 3.07219467035,
			"0.008": 2.8356346391,
			"0.009": 2.56433334646,
			"0.01": 3.39324350401,
			"0.011": 3.87614565471,
			"0.012": 3.11071231203,
			"0.013": 1.15859808445,
			"0.014": 0.0295432665098,
			"0.015": 0.0,
			"0.016": 0.0,
			"0.017": 0.0,
			"0.018": 0.0,
			"0.019": 0.0,
			"0.02": 0.0,
			"0.021": 0.0,
			"0.022": 0.0,
			"0.023": 0.0,
			"0.024": 0.0,
			"0.025": 0.0
		}
	}
}
