{
	 "smiles": "NS(=O)(=O)C1CCCOC1", 
	 "Tm": 370.15, 
	 "num_atms": 21, 
	 "gaussian": { 
		 "optdone": 1, 
		 "sigma_profile": "yes", 
		 "theory": "DFT", 
		 "functional": "B3LYP", 
		 "basiset": "6-31G**", 
		 "properties": { 
			 "R2extent": 1934.4217, 
			 "electric_dipole_moment_norm": 3.92987070271, 
			 "electric_quadrupole_moment_norm": 14.2670261947, 
			 "total_energy": -875.703267305, 
			 "HOMO_LUMO_gap": 0.30788, 
			 "cosmo_polarized_energy": -15.58, 
			 "cosmo_cavitation_energy": 23.92, 
			 "cosmo_dispersion_energy": -18.59, 
			 "cosmo_repulsion_energy": 1.46, 
			 "cosmo_total_nonelectrostatic_energy": 6.79, 
			 "SMD_solvation_energy": 3.22 
		},
		"coords": [
			{
				"x": 0.5398976873,
				"y": 1.8580631439,
				"z": 1.5766183501,
				"element": "N" 
			},
			{
				"x": 0.7610752884,
				"y": 0.2365377878,
				"z": 2.0385562351,
				"element": "S" 
			},
			{
				"x": -0.0126668852,
				"y": 0.0282584026,
				"z": 3.2685388037,
				"element": "O" 
			},
			{
				"x": 2.1987654749,
				"y": -0.0491311485,
				"z": 1.9695655899,
				"element": "O" 
			},
			{
				"x": -0.0564369536,
				"y": -0.6920918166,
				"z": 0.7075505366,
				"element": "C" 
			},
			{
				"x": 0.6031966679,
				"y": -0.4554632695,
				"z": -0.6568536952,
				"element": "C" 
			},
			{
				"x": -0.1696302476,
				"y": -1.2357668243,
				"z": -1.7342333673,
				"element": "C" 
			},
			{
				"x": -1.6655052432,
				"y": -0.9275066501,
				"z": -1.6490753591,
				"element": "C" 
			},
			{
				"x": -2.1775396737,
				"y": -1.2013856136,
				"z": -0.3481048508,
				"element": "O" 
			},
			{
				"x": -1.5669030529,
				"y": -0.404114951,
				"z": 0.6522006878,
				"element": "C" 
			},
			{
				"x": 1.4490838333,
				"y": 2.2872395437,
				"z": 1.4241813745,
				"element": "H" 
			},
			{
				"x": 0.0292817017,
				"y": 2.3404952325,
				"z": 2.3119824618,
				"element": "H" 
			},
			{
				"x": 0.0907904481,
				"y": -1.7318342418,
				"z": 1.0240347153,
				"element": "H" 
			},
			{
				"x": 1.6544752309,
				"y": -0.754166457,
				"z": -0.6265398926,
				"element": "H" 
			},
			{
				"x": 0.5682799983,
				"y": 0.6172996186,
				"z": -0.8854678713,
				"element": "H" 
			},
			{
				"x": 0.2097466816,
				"y": -0.9815250902,
				"z": -2.7307731271,
				"element": "H" 
			},
			{
				"x": -0.0204962367,
				"y": -2.3130083593,
				"z": -1.5928045799,
				"element": "H" 
			},
			{
				"x": -1.8498406151,
				"y": 0.1288303033,
				"z": -1.9102160078,
				"element": "H" 
			},
			{
				"x": -2.2416200109,
				"y": -1.5522370132,
				"z": -2.3372447019,
				"element": "H" 
			},
			{
				"x": -2.0447452005,
				"y": -0.659983774,
				"z": 1.5996103319,
				"element": "H" 
			},
			{
				"x": -1.7291088931,
				"y": 0.6667911767,
				"z": 0.4493743665,
				"element": "H" 
			}
		],
		 "valence_orbital": [ 
			{
				"type": "occ",
				"energy": -0.31623,
				"method": "rhf"
			},
			{
				"type": "occ",
				"energy": -0.31226,
				"method": "rhf"
			},
			{
				"type": "occ",
				"energy": -0.3049,
				"method": "rhf"
			},
			{
				"type": "occ",
				"energy": -0.29147,
				"method": "rhf"
			},
			{
				"type": "occ",
				"energy": -0.26172,
				"method": "rhf"
			},
			{
				"type": "unocc",
				"energy": 0.04616,
				"method": "rhf"
			},
			{
				"type": "unocc",
				"energy": 0.0695,
				"method": "rhf"
			},
			{
				"type": "unocc",
				"energy": 0.07709,
				"method": "rhf"
			},
			{
				"type": "unocc",
				"energy": 0.08843,
				"method": "rhf"
			},
			{
				"type": "unocc",
				"energy": 0.0926,
				"method": "rhf"
			}
		],
		"cosmo_sigma_profile": { 
			"-0.025": 0.0,
			"-0.024": 0.0,
			"-0.023": 0.0,
			"-0.022": 0.0,
			"-0.021": 0.0,
			"-0.02": 0.0,
			"-0.019": 0.0,
			"-0.018": 0.0,
			"-0.017": 0.0,
			"-0.016": 0.0,
			"-0.015": 0.599312659526,
			"-0.014": 2.70531634657,
			"-0.013": 2.42189028639,
			"-0.012": 2.37064151737,
			"-0.011": 2.39029051158,
			"-0.01": 2.13382568755,
			"-0.009": 1.66887433741,
			"-0.008": 3.16655245147,
			"-0.007": 3.39461550483,
			"-0.006": 4.12100574306,
			"-0.005": 8.9898202619,
			"-0.004": 21.9632337289,
			"-0.003": 24.3960081457,
			"-0.002": 18.3749579346,
			"-0.001": 12.65645577,
			"0.0": 6.99361789342,
			"0.001": 4.96952615445,
			"0.002": 5.55249422192,
			"0.003": 5.1966206632,
			"0.004": 3.84595750242,
			"0.005": 3.08284720329,
			"0.006": 3.97537075842,
			"0.007": 4.67712252453,
			"0.008": 5.01621203025,
			"0.009": 4.05056594147,
			"0.01": 7.02840725604,
			"0.011": 11.3854116164,
			"0.012": 7.33893833937,
			"0.013": 1.49654468538,
			"0.014": 0.00463686859038,
			"0.015": 0.0,
			"0.016": 0.0,
			"0.017": 0.0,
			"0.018": 0.0,
			"0.019": 0.0,
			"0.02": 0.0,
			"0.021": 0.0,
			"0.022": 0.0,
			"0.023": 0.0,
			"0.024": 0.0,
			"0.025": 0.0
		}
	}
}
