{
	 "smiles": "CC12CCC3C(CCC4C(C)(C)CCCC34C)C1CC[C@@]2(O)C#C", 
	 "Tm": 430.15, 
	 "num_atms": 60, 
	 "gaussian": { 
		 "optdone": 1, 
		 "sigma_profile": "yes", 
		 "theory": "DFT", 
		 "functional": "B3LYP", 
		 "basiset": "6-31G**", 
		 "properties": { 
			 "R2extent": 8665.4017, 
			 "electric_dipole_moment_norm": 1.24332398835, 
			 "electric_quadrupole_moment_norm": 9.7862986522, 
			 "total_energy": -973.303963728, 
			 "HOMO_LUMO_gap": 0.29152, 
			 "cosmo_polarized_energy": -7.27, 
			 "cosmo_cavitation_energy": 48.9, 
			 "cosmo_dispersion_energy": -33.6, 
			 "cosmo_repulsion_energy": 2.42, 
			 "cosmo_total_nonelectrostatic_energy": 17.72, 
			 "SMD_solvation_energy": 8.11 
		},
		"coords": [
			{
				"x": -0.8152762935,
				"y": -0.1407322594,
				"z": -3.0841639861,
				"element": "C" 
			},
			{
				"x": -1.1315005632,
				"y": -1.3078861443,
				"z": -2.13683417,
				"element": "C" 
			},
			{
				"x": -2.0436921131,
				"y": -0.835601953,
				"z": -0.9803706639,
				"element": "C" 
			},
			{
				"x": -1.3026302737,
				"y": 0.0436678733,
				"z": 0.0382758747,
				"element": "C" 
			},
			{
				"x": -0.0889813181,
				"y": -0.6763481031,
				"z": 0.6634590908,
				"element": "C" 
			},
			{
				"x": 0.8710879414,
				"y": -1.284149275,
				"z": -0.4009734964,
				"element": "C" 
			},
			{
				"x": 1.9551739298,
				"y": -0.267210473,
				"z": -0.8753439477,
				"element": "C" 
			},
			{
				"x": 1.7152818499,
				"y": 1.1776427207,
				"z": -0.4222032494,
				"element": "C" 
			},
			{
				"x": 1.5195629097,
				"y": 1.3614659489,
				"z": 1.1040029514,
				"element": "C" 
			},
			{
				"x": 1.1195302705,
				"y": 2.856493091,
				"z": 1.456388269,
				"element": "C" 
			},
			{
				"x": 2.4141245842,
				"y": 3.699109901,
				"z": 1.506100605,
				"element": "C" 
			},
			{
				"x": 0.1812432993,
				"y": 3.5318145095,
				"z": 0.427625334,
				"element": "C" 
			},
			{
				"x": 0.4493058299,
				"y": 2.9294349713,
				"z": 2.845516389,
				"element": "C" 
			},
			{
				"x": -0.752245758,
				"y": 1.9929137793,
				"z": 2.9573858389,
				"element": "C" 
			},
			{
				"x": -0.2679110577,
				"y": 0.5432264751,
				"z": 2.9128956369,
				"element": "C" 
			},
			{
				"x": 0.695964279,
				"y": 0.14981766,
				"z": 1.7425149281,
				"element": "C" 
			},
			{
				"x": 1.7395849081,
				"y": -0.8046566881,
				"z": 2.3885492241,
				"element": "C" 
			},
			{
				"x": 0.1257823418,
				"y": -2.0111359893,
				"z": -1.5508262571,
				"element": "C" 
			},
			{
				"x": -0.3746290251,
				"y": -3.4259511939,
				"z": -1.1427878607,
				"element": "C" 
			},
			{
				"x": -1.6342769475,
				"y": -3.7195849046,
				"z": -1.9927658099,
				"element": "C" 
			},
			{
				"x": -1.8029488072,
				"y": -2.4960357476,
				"z": -2.9257300248,
				"element": "C" 
			},
			{
				"x": -1.038925705,
				"y": -2.8156710214,
				"z": -4.1024904531,
				"element": "O" 
			},
			{
				"x": -3.1970490077,
				"y": -2.2293975146,
				"z": -3.3101848575,
				"element": "C" 
			},
			{
				"x": -4.3282734636,
				"y": -1.9904384758,
				"z": -3.6634902015,
				"element": "C" 
			},
			{
				"x": -0.1005141371,
				"y": -0.439917352,
				"z": -3.8565862985,
				"element": "H" 
			},
			{
				"x": -1.7294620672,
				"y": 0.2166154951,
				"z": -3.574022317,
				"element": "H" 
			},
			{
				"x": -0.3787113895,
				"y": 0.70915188,
				"z": -2.5552096023,
				"element": "H" 
			},
			{
				"x": -2.4582449512,
				"y": -1.7045134637,
				"z": -0.454405202,
				"element": "H" 
			},
			{
				"x": -2.9034187461,
				"y": -0.2929393812,
				"z": -1.388936159,
				"element": "H" 
			},
			{
				"x": -2.0064128543,
				"y": 0.3225769911,
				"z": 0.8305025141,
				"element": "H" 
			},
			{
				"x": -1.0053940641,
				"y": 0.979356095,
				"z": -0.4404045294,
				"element": "H" 
			},
			{
				"x": -0.5157917655,
				"y": -1.5277520224,
				"z": 1.2153093825,
				"element": "H" 
			},
			{
				"x": 1.4153388611,
				"y": -2.0857838712,
				"z": 0.1102126754,
				"element": "H" 
			},
			{
				"x": 2.9369399251,
				"y": -0.5945681558,
				"z": -0.5097701747,
				"element": "H" 
			},
			{
				"x": 2.0317316022,
				"y": -0.2818568127,
				"z": -1.968677146,
				"element": "H" 
			},
			{
				"x": 0.8453478906,
				"y": 1.5630852302,
				"z": -0.9575606472,
				"element": "H" 
			},
			{
				"x": 2.5578858522,
				"y": 1.7974165179,
				"z": -0.7521894996,
				"element": "H" 
			},
			{
				"x": 2.5191566845,
				"y": 1.2579230627,
				"z": 1.5448238183,
				"element": "H" 
			},
			{
				"x": 3.0938276112,
				"y": 3.3355369176,
				"z": 2.2849249247,
				"element": "H" 
			},
			{
				"x": 2.1858373976,
				"y": 4.748262767,
				"z": 1.7273678811,
				"element": "H" 
			},
			{
				"x": 2.952546689,
				"y": 3.6752489726,
				"z": 0.5525460083,
				"element": "H" 
			},
			{
				"x": -0.1027602648,
				"y": 4.5254267262,
				"z": 0.7925971544,
				"element": "H" 
			},
			{
				"x": 0.6702150582,
				"y": 3.674568336,
				"z": -0.5399644188,
				"element": "H" 
			},
			{
				"x": -0.7425822297,
				"y": 2.9744056025,
				"z": 0.2537838681,
				"element": "H" 
			},
			{
				"x": 1.1808676152,
				"y": 2.6595794813,
				"z": 3.6214060093,
				"element": "H" 
			},
			{
				"x": 0.1588945494,
				"y": 3.9689106662,
				"z": 3.0452072255,
				"element": "H" 
			},
			{
				"x": -1.4733897215,
				"y": 2.2023770499,
				"z": 2.1594059398,
				"element": "H" 
			},
			{
				"x": -1.2838611744,
				"y": 2.1638808309,
				"z": 3.9016483203,
				"element": "H" 
			},
			{
				"x": 0.2572800727,
				"y": 0.3663499153,
				"z": 3.8600888977,
				"element": "H" 
			},
			{
				"x": -1.1195820305,
				"y": -0.1485228818,
				"z": 2.9209222618,
				"element": "H" 
			},
			{
				"x": 2.2572863023,
				"y": -0.2935441365,
				"z": 3.207206461,
				"element": "H" 
			},
			{
				"x": 2.5053421263,
				"y": -1.1433177221,
				"z": 1.6864194667,
				"element": "H" 
			},
			{
				"x": 1.2517570614,
				"y": -1.692324313,
				"z": 2.8094875045,
				"element": "H" 
			},
			{
				"x": 0.8333460746,
				"y": -2.1460408063,
				"z": -2.3768681948,
				"element": "H" 
			},
			{
				"x": -0.6193371011,
				"y": -3.4589150654,
				"z": -0.0759016089,
				"element": "H" 
			},
			{
				"x": 0.4106015849,
				"y": -4.1704733649,
				"z": -1.3043507413,
				"element": "H" 
			},
			{
				"x": -1.5406693208,
				"y": -4.6125358029,
				"z": -2.6145949184,
				"element": "H" 
			},
			{
				"x": -2.5228374459,
				"y": -3.8451243059,
				"z": -1.3697049861,
				"element": "H" 
			},
			{
				"x": -1.2158059342,
				"y": -2.131716616,
				"z": -4.7618034401,
				"element": "H" 
			},
			{
				"x": -5.3303295708,
				"y": -1.796713651,
				"z": -3.9694595926,
				"element": "H" 
			}
		],
		 "valence_orbital": [ 
			{
				"type": "occ",
				"energy": -0.27418,
				"method": "rhf"
			},
			{
				"type": "occ",
				"energy": -0.27084,
				"method": "rhf"
			},
			{
				"type": "occ",
				"energy": -0.26735,
				"method": "rhf"
			},
			{
				"type": "occ",
				"energy": -0.26438,
				"method": "rhf"
			},
			{
				"type": "occ",
				"energy": -0.2529,
				"method": "rhf"
			},
			{
				"type": "unocc",
				"energy": 0.03862,
				"method": "rhf"
			},
			{
				"type": "unocc",
				"energy": 0.04805,
				"method": "rhf"
			},
			{
				"type": "unocc",
				"energy": 0.06963,
				"method": "rhf"
			},
			{
				"type": "unocc",
				"energy": 0.07966,
				"method": "rhf"
			},
			{
				"type": "unocc",
				"energy": 0.08254,
				"method": "rhf"
			}
		],
		"cosmo_sigma_profile": { 
			"-0.025": 0.0,
			"-0.024": 0.0,
			"-0.023": 0.0,
			"-0.022": 0.0,
			"-0.021": 0.0,
			"-0.02": 0.0,
			"-0.019": 0.0,
			"-0.018": 0.0,
			"-0.017": 0.0,
			"-0.016": 0.0,
			"-0.015": 0.252699625949,
			"-0.014": 0.565791936006,
			"-0.013": 0.503050011812,
			"-0.012": 1.13451192579,
			"-0.011": 2.04415883265,
			"-0.01": 2.27786120728,
			"-0.009": 1.36650458184,
			"-0.008": 1.98166886029,
			"-0.007": 2.07225746883,
			"-0.006": 2.14379296801,
			"-0.005": 1.83152529559,
			"-0.004": 5.0987338374,
			"-0.003": 14.166260999,
			"-0.002": 50.3705896572,
			"-0.001": 81.0322738092,
			"0.0": 70.411493125,
			"0.001": 57.2414871072,
			"0.002": 36.4211801311,
			"0.003": 9.16520654329,
			"0.004": 7.24511914728,
			"0.005": 7.95883110628,
			"0.006": 5.76924453721,
			"0.007": 5.14036606599,
			"0.008": 1.9589268036,
			"0.009": 1.27825816009,
			"0.01": 0.87404077155,
			"0.011": 1.34228116777,
			"0.012": 1.3148710739,
			"0.013": 1.59494415835,
			"0.014": 0.282993322483,
			"0.015": 0.0,
			"0.016": 0.0,
			"0.017": 0.0,
			"0.018": 0.0,
			"0.019": 0.0,
			"0.02": 0.0,
			"0.021": 0.0,
			"0.022": 0.0,
			"0.023": 0.0,
			"0.024": 0.0,
			"0.025": 0.0
		}
	}
}
