{
	 "smiles": "CC(C)C(C)C(C)C", 
	 "Tm": 163.15, 
	 "num_atms": 26, 
	 "gaussian": { 
		 "optdone": 1, 
		 "sigma_profile": "yes", 
		 "theory": "DFT", 
		 "functional": "B3LYP", 
		 "basiset": "6-31G**", 
		 "properties": { 
			 "R2extent": 1241.6184, 
			 "electric_dipole_moment_norm": 0.10967283164, 
			 "electric_quadrupole_moment_norm": 0.582099974231, 
			 "total_energy": -315.718087333, 
			 "HOMO_LUMO_gap": 0.35627, 
			 "cosmo_polarized_energy": -0.76, 
			 "cosmo_cavitation_energy": 24.9, 
			 "cosmo_dispersion_energy": -17.75, 
			 "cosmo_repulsion_energy": 1.44, 
			 "cosmo_total_nonelectrostatic_energy": 8.59, 
			 "SMD_solvation_energy": 4.41 
		},
		"coords": [
			{
				"x": 2.105303206,
				"y": 0.1199995247,
				"z": -0.3215766466,
				"element": "C" 
			},
			{
				"x": 0.7422661616,
				"y": -0.3357842211,
				"z": -0.8668156053,
				"element": "C" 
			},
			{
				"x": 0.7582940402,
				"y": -1.8540235027,
				"z": -1.1270394233,
				"element": "C" 
			},
			{
				"x": -0.4862533799,
				"y": 0.2144166232,
				"z": -0.072779611,
				"element": "C" 
			},
			{
				"x": -1.7997800515,
				"y": -0.1943260114,
				"z": -0.768265594,
				"element": "C" 
			},
			{
				"x": -0.6051318255,
				"y": -0.0266798867,
				"z": 1.4676599902,
				"element": "C" 
			},
			{
				"x": 0.2785342451,
				"y": 0.9033584417,
				"z": 2.3190848138,
				"element": "C" 
			},
			{
				"x": -0.4467999556,
				"y": -1.484230555,
				"z": 1.9323491539,
				"element": "C" 
			},
			{
				"x": 2.1257137787,
				"y": 1.1972394426,
				"z": -0.1254384963,
				"element": "H" 
			},
			{
				"x": 2.3683160413,
				"y": -0.3962890323,
				"z": 0.6073414629,
				"element": "H" 
			},
			{
				"x": 2.8965519641,
				"y": -0.1008184346,
				"z": -1.0470252224,
				"element": "H" 
			},
			{
				"x": 0.6375683707,
				"y": 0.1344492562,
				"z": -1.8566873645,
				"element": "H" 
			},
			{
				"x": 1.5562378786,
				"y": -2.0979338557,
				"z": -1.8376153007,
				"element": "H" 
			},
			{
				"x": 0.9476615796,
				"y": -2.4307141375,
				"z": -0.2179309344,
				"element": "H" 
			},
			{
				"x": -0.1810388032,
				"y": -2.2099562202,
				"z": -1.5600075842,
				"element": "H" 
			},
			{
				"x": -0.4131121439,
				"y": 1.3074798924,
				"z": -0.1803021381,
				"element": "H" 
			},
			{
				"x": -2.0419362147,
				"y": -1.2502692421,
				"z": -0.6081905463,
				"element": "H" 
			},
			{
				"x": -2.6405851462,
				"y": 0.3934655688,
				"z": -0.3848681665,
				"element": "H" 
			},
			{
				"x": -1.7465586089,
				"y": -0.0305402694,
				"z": -1.8504430774,
				"element": "H" 
			},
			{
				"x": -1.6414471272,
				"y": 0.2591982781,
				"z": 1.7022394355,
				"element": "H" 
			},
			{
				"x": 1.3400142011,
				"y": 0.6508201399,
				"z": 2.2517407406,
				"element": "H" 
			},
			{
				"x": 0.1644784342,
				"y": 1.9501297833,
				"z": 2.0159893359,
				"element": "H" 
			},
			{
				"x": -0.0053504294,
				"y": 0.8328158604,
				"z": 3.3754188431,
				"element": "H" 
			},
			{
				"x": -1.0531528805,
				"y": -2.1777295494,
				"z": 1.3416269455,
				"element": "H" 
			},
			{
				"x": -0.7608835659,
				"y": -1.582128965,
				"z": 2.9776994976,
				"element": "H" 
			},
			{
				"x": 0.5947902309,
				"y": -1.8170489282,
				"z": 1.8769354919,
				"element": "H" 
			}
		],
		 "valence_orbital": [ 
			{
				"type": "occ",
				"energy": -0.32891,
				"method": "rhf"
			},
			{
				"type": "occ",
				"energy": -0.32492,
				"method": "rhf"
			},
			{
				"type": "occ",
				"energy": -0.30375,
				"method": "rhf"
			},
			{
				"type": "occ",
				"energy": -0.29914,
				"method": "rhf"
			},
			{
				"type": "occ",
				"energy": -0.28562,
				"method": "rhf"
			},
			{
				"type": "unocc",
				"energy": 0.07065,
				"method": "rhf"
			},
			{
				"type": "unocc",
				"energy": 0.10662,
				"method": "rhf"
			},
			{
				"type": "unocc",
				"energy": 0.11844,
				"method": "rhf"
			},
			{
				"type": "unocc",
				"energy": 0.12203,
				"method": "rhf"
			},
			{
				"type": "unocc",
				"energy": 0.13697,
				"method": "rhf"
			}
		],
		"cosmo_sigma_profile": { 
			"-0.025": 0.0,
			"-0.024": 0.0,
			"-0.023": 0.0,
			"-0.022": 0.0,
			"-0.021": 0.0,
			"-0.02": 0.0,
			"-0.019": 0.0,
			"-0.018": 0.0,
			"-0.017": 0.0,
			"-0.016": 0.0,
			"-0.015": 0.0,
			"-0.014": 0.0,
			"-0.013": 0.0,
			"-0.012": 0.0,
			"-0.011": 0.0,
			"-0.01": 0.0,
			"-0.009": 0.0,
			"-0.008": 0.0,
			"-0.007": 0.0,
			"-0.006": 0.0,
			"-0.005": 0.0,
			"-0.004": 0.0,
			"-0.003": 3.37344031884,
			"-0.002": 30.1260302633,
			"-0.001": 40.2456212212,
			"0.0": 44.3954603572,
			"0.001": 37.2466435722,
			"0.002": 30.8817604594,
			"0.003": 3.73137618392,
			"0.004": 0.0,
			"0.005": 0.0,
			"0.006": 0.0,
			"0.007": 0.0,
			"0.008": 0.0,
			"0.009": 0.0,
			"0.01": 0.0,
			"0.011": 0.0,
			"0.012": 0.0,
			"0.013": 0.0,
			"0.014": 0.0,
			"0.015": 0.0,
			"0.016": 0.0,
			"0.017": 0.0,
			"0.018": 0.0,
			"0.019": 0.0,
			"0.02": 0.0,
			"0.021": 0.0,
			"0.022": 0.0,
			"0.023": 0.0,
			"0.024": 0.0,
			"0.025": 0.0
		}
	}
}
