{
	 "smiles": "ClS(=O)(=O)C1=CC2=C(NC(=O)NC2=O)N=C1", 
	 "Tm": 585.15, 
	 "num_atms": 20, 
	 "gaussian": { 
		 "optdone": 1, 
		 "sigma_profile": "yes", 
		 "theory": "DFT", 
		 "functional": "B3LYP", 
		 "basiset": "6-31G**", 
		 "properties": { 
			 "R2extent": 9234.9178, 
			 "electric_dipole_moment_norm": 3.24952036769, 
			 "electric_quadrupole_moment_norm": 28.0048776032, 
			 "total_energy": -1592.664679, 
			 "HOMO_LUMO_gap": 0.17978, 
			 "cosmo_polarized_energy": -19.4, 
			 "cosmo_cavitation_energy": 29.62, 
			 "cosmo_dispersion_energy": -22.44, 
			 "cosmo_repulsion_energy": 1.69, 
			 "cosmo_total_nonelectrostatic_energy": 8.87, 
			 "SMD_solvation_energy": 3.8 
		},
		"coords": [
			{
				"x": -2.6166017536,
				"y": -1.6634715086,
				"z": 5.5194356856,
				"element": "Cl" 
			},
			{
				"x": -2.2448982963,
				"y": 0.3977089732,
				"z": 5.1454597967,
				"element": "S" 
			},
			{
				"x": -3.5439692529,
				"y": 1.0117346254,
				"z": 4.9056347259,
				"element": "O" 
			},
			{
				"x": -1.3387605289,
				"y": 0.8481839876,
				"z": 6.1923350033,
				"element": "O" 
			},
			{
				"x": -1.3567039423,
				"y": 0.3197811161,
				"z": 3.6050566673,
				"element": "C" 
			},
			{
				"x": 0.0296440002,
				"y": 0.1940559156,
				"z": 3.6035620069,
				"element": "C" 
			},
			{
				"x": 0.6707029731,
				"y": 0.1562630539,
				"z": 2.3710296328,
				"element": "C" 
			},
			{
				"x": -0.1191172923,
				"y": 0.2470227408,
				"z": 1.2050341995,
				"element": "C" 
			},
			{
				"x": 0.4954890028,
				"y": 0.2080836177,
				"z": -0.02224373,
				"element": "N" 
			},
			{
				"x": 1.8677215059,
				"y": 0.0865809657,
				"z": -0.2276614626,
				"element": "C" 
			},
			{
				"x": 2.3685307074,
				"y": 0.0568809271,
				"z": -1.3316607328,
				"element": "O" 
			},
			{
				"x": 2.6061814236,
				"y": 0.003393174,
				"z": 0.9518902564,
				"element": "N" 
			},
			{
				"x": 2.1408957418,
				"y": 0.0277235995,
				"z": 2.2683361788,
				"element": "C" 
			},
			{
				"x": 2.895857334,
				"y": -0.0525284287,
				"z": 3.2194822234,
				"element": "O" 
			},
			{
				"x": -1.4546982561,
				"y": 0.3743476866,
				"z": 1.2093264827,
				"element": "N" 
			},
			{
				"x": -2.0591867585,
				"y": 0.4087427223,
				"z": 2.3937316844,
				"element": "C" 
			},
			{
				"x": 0.6109695285,
				"y": 0.1338172096,
				"z": 4.5178540216,
				"element": "H" 
			},
			{
				"x": -0.0822431255,
				"y": 0.2752196603,
				"z": -0.8510717182,
				"element": "H" 
			},
			{
				"x": 3.6082080843,
				"y": -0.0846679186,
				"z": 0.8271794882,
				"element": "H" 
			},
			{
				"x": -3.1398210955,
				"y": 0.5214278806,
				"z": 2.3940895903,
				"element": "H" 
			}
		],
		 "valence_orbital": [ 
			{
				"type": "occ",
				"energy": -0.32658,
				"method": "rhf"
			},
			{
				"type": "occ",
				"energy": -0.32305,
				"method": "rhf"
			},
			{
				"type": "occ",
				"energy": -0.31634,
				"method": "rhf"
			},
			{
				"type": "occ",
				"energy": -0.29481,
				"method": "rhf"
			},
			{
				"type": "occ",
				"energy": -0.28495,
				"method": "rhf"
			},
			{
				"type": "unocc",
				"energy": -0.10517,
				"method": "rhf"
			},
			{
				"type": "unocc",
				"energy": -0.09931,
				"method": "rhf"
			},
			{
				"type": "unocc",
				"energy": -0.06773,
				"method": "rhf"
			},
			{
				"type": "unocc",
				"energy": -0.01754,
				"method": "rhf"
			},
			{
				"type": "unocc",
				"energy": 0.01499,
				"method": "rhf"
			}
		],
		"cosmo_sigma_profile": { 
			"-0.025": 0.0,
			"-0.024": 0.0,
			"-0.023": 0.0,
			"-0.022": 0.0,
			"-0.021": 0.0,
			"-0.02": 0.0,
			"-0.019": 0.0,
			"-0.018": 0.120005620475,
			"-0.017": 1.20837004184,
			"-0.016": 2.4774746177,
			"-0.015": 1.01347502958,
			"-0.014": 1.53671375208,
			"-0.013": 2.12147549062,
			"-0.012": 1.43294527021,
			"-0.011": 1.17056011784,
			"-0.01": 2.21689841064,
			"-0.009": 5.85065327649,
			"-0.008": 6.57109645095,
			"-0.007": 8.27603317913,
			"-0.006": 11.1274959176,
			"-0.005": 14.7342090021,
			"-0.004": 20.066106948,
			"-0.003": 19.2129821768,
			"-0.002": 10.5669454675,
			"-0.001": 10.1895702771,
			"0.0": 9.86975379391,
			"0.001": 11.5171440011,
			"0.002": 13.5149150674,
			"0.003": 16.7519680623,
			"0.004": 8.00867316881,
			"0.005": 5.61509096578,
			"0.006": 6.17601817816,
			"0.007": 11.5063474155,
			"0.008": 11.9980710526,
			"0.009": 6.12032792813,
			"0.01": 4.72748864927,
			"0.011": 11.2204925524,
			"0.012": 4.88761176407,
			"0.013": 0.0132595340176,
			"0.014": 0.0,
			"0.015": 0.0,
			"0.016": 0.0,
			"0.017": 0.0,
			"0.018": 0.0,
			"0.019": 0.0,
			"0.02": 0.0,
			"0.021": 0.0,
			"0.022": 0.0,
			"0.023": 0.0,
			"0.024": 0.0,
			"0.025": 0.0
		}
	}
}
