{
	 "smiles": "COC(=O)CC1=C(O)C=CC=C1", 
	 "Tm": 343.15, 
	 "num_atms": 22, 
	 "gaussian": { 
		 "optdone": 1, 
		 "sigma_profile": "yes", 
		 "theory": "DFT", 
		 "functional": "B3LYP", 
		 "basiset": "6-31G**", 
		 "properties": { 
			 "R2extent": 2718.0153, 
			 "electric_dipole_moment_norm": 1.39887879747, 
			 "electric_quadrupole_moment_norm": 9.64901233909, 
			 "total_energy": -574.661590405, 
			 "HOMO_LUMO_gap": 0.2182, 
			 "cosmo_polarized_energy": -13.63, 
			 "cosmo_cavitation_energy": 26.41, 
			 "cosmo_dispersion_energy": -18.99, 
			 "cosmo_repulsion_energy": 1.54, 
			 "cosmo_total_nonelectrostatic_energy": 8.96, 
			 "SMD_solvation_energy": 6.3 
		},
		"coords": [
			{
				"x": 0.7512435437,
				"y": -3.6040260341,
				"z": 3.1421414671,
				"element": "C" 
			},
			{
				"x": -0.2935428156,
				"y": -3.121698691,
				"z": 2.2836475845,
				"element": "O" 
			},
			{
				"x": -0.21464428,
				"y": -1.8081372452,
				"z": 1.9634495212,
				"element": "C" 
			},
			{
				"x": 0.6652609998,
				"y": -1.0766597308,
				"z": 2.3550776053,
				"element": "O" 
			},
			{
				"x": -1.4004887349,
				"y": -1.4114341984,
				"z": 1.0909202643,
				"element": "C" 
			},
			{
				"x": -1.225412882,
				"y": -0.0849876861,
				"z": 0.3991806419,
				"element": "C" 
			},
			{
				"x": -0.3157117167,
				"y": 0.0285868253,
				"z": -0.6664854986,
				"element": "C" 
			},
			{
				"x": 0.3652130299,
				"y": -1.1063612096,
				"z": -1.0168253118,
				"element": "O" 
			},
			{
				"x": -0.1379139538,
				"y": 1.2448563662,
				"z": -1.3287488999,
				"element": "C" 
			},
			{
				"x": -0.867933443,
				"y": 2.3665206018,
				"z": -0.93224939,
				"element": "C" 
			},
			{
				"x": -1.776194787,
				"y": 2.2735001695,
				"z": 0.1208214275,
				"element": "C" 
			},
			{
				"x": -1.9447977079,
				"y": 1.0502640925,
				"z": 0.7744811225,
				"element": "C" 
			},
			{
				"x": 0.7531191193,
				"y": -3.0630657342,
				"z": 4.0921205417,
				"element": "H" 
			},
			{
				"x": 0.5366501123,
				"y": -4.6605222797,
				"z": 3.3044543298,
				"element": "H" 
			},
			{
				"x": 1.7279542659,
				"y": -3.480224619,
				"z": 2.6673552222,
				"element": "H" 
			},
			{
				"x": -2.2834182836,
				"y": -1.3872067041,
				"z": 1.7406861929,
				"element": "H" 
			},
			{
				"x": -1.5657592697,
				"y": -2.2202554115,
				"z": 0.372073253,
				"element": "H" 
			},
			{
				"x": 0.9906051448,
				"y": -0.8970403341,
				"z": -1.7221844319,
				"element": "H" 
			},
			{
				"x": 0.5706149167,
				"y": 1.3125558767,
				"z": -2.1520348238,
				"element": "H" 
			},
			{
				"x": -0.723345075,
				"y": 3.3094269912,
				"z": -1.4516014243,
				"element": "H" 
			},
			{
				"x": -2.3473346293,
				"y": 3.1420322972,
				"z": 0.433061798,
				"element": "H" 
			},
			{
				"x": -2.6499635541,
				"y": 0.9723766574,
				"z": 1.5983588084,
				"element": "H" 
			}
		],
		 "valence_orbital": [ 
			{
				"type": "occ",
				"energy": -0.33065,
				"method": "rhf"
			},
			{
				"type": "occ",
				"energy": -0.29397,
				"method": "rhf"
			},
			{
				"type": "occ",
				"energy": -0.26466,
				"method": "rhf"
			},
			{
				"type": "occ",
				"energy": -0.2449,
				"method": "rhf"
			},
			{
				"type": "occ",
				"energy": -0.21828,
				"method": "rhf"
			},
			{
				"type": "unocc",
				"energy": -8e-05,
				"method": "rhf"
			},
			{
				"type": "unocc",
				"energy": 0.01456,
				"method": "rhf"
			},
			{
				"type": "unocc",
				"energy": 0.0232,
				"method": "rhf"
			},
			{
				"type": "unocc",
				"energy": 0.06976,
				"method": "rhf"
			},
			{
				"type": "unocc",
				"energy": 0.09785,
				"method": "rhf"
			}
		],
		"cosmo_sigma_profile": { 
			"-0.025": 0.0,
			"-0.024": 0.0,
			"-0.023": 0.0,
			"-0.022": 0.0,
			"-0.021": 0.0,
			"-0.02": 0.0,
			"-0.019": 0.0,
			"-0.018": 0.22709868129,
			"-0.017": 1.21848914089,
			"-0.016": 0.910999565584,
			"-0.015": 1.36025386828,
			"-0.014": 1.06135918641,
			"-0.013": 1.07363997186,
			"-0.012": 0.412955472511,
			"-0.011": 1.29000893378,
			"-0.01": 1.10198362506,
			"-0.009": 0.862064436199,
			"-0.008": 0.970431395725,
			"-0.007": 4.64604322759,
			"-0.006": 11.8906774249,
			"-0.005": 18.626632188,
			"-0.004": 17.7767195311,
			"-0.003": 21.1585648027,
			"-0.002": 12.3931069661,
			"-0.001": 10.8662571566,
			"0.0": 9.58619684097,
			"0.001": 8.37760786495,
			"0.002": 10.3265149543,
			"0.003": 10.9325494775,
			"0.004": 9.95680560657,
			"0.005": 11.4776583174,
			"0.006": 11.8670162779,
			"0.007": 5.78254517416,
			"0.008": 5.86982404934,
			"0.009": 4.96925541626,
			"0.01": 2.84095925251,
			"0.011": 3.43504482317,
			"0.012": 4.71210076584,
			"0.013": 1.21932645723,
			"0.014": 0.020785089357,
			"0.015": 0.0,
			"0.016": 0.0,
			"0.017": 0.0,
			"0.018": 0.0,
			"0.019": 0.0,
			"0.02": 0.0,
			"0.021": 0.0,
			"0.022": 0.0,
			"0.023": 0.0,
			"0.024": 0.0,
			"0.025": 0.0
		}
	}
}
