{
	 "smiles": "C1CCN(CC1)C1(CCCCC1)C1=CC=CC=C1", 
	 "Tm": 319.65, 
	 "num_atms": 43, 
	 "gaussian": { 
		 "optdone": 1, 
		 "sigma_profile": "yes", 
		 "theory": "DFT", 
		 "functional": "B3LYP", 
		 "basiset": "6-31G**", 
		 "properties": { 
			 "R2extent": 4620.7481, 
			 "electric_dipole_moment_norm": 0.227803994697, 
			 "electric_quadrupole_moment_norm": 3.90059031686, 
			 "total_energy": -717.638814734, 
			 "HOMO_LUMO_gap": 0.20372, 
			 "cosmo_polarized_energy": -4.22, 
			 "cosmo_cavitation_energy": 38.55, 
			 "cosmo_dispersion_energy": -27.55, 
			 "cosmo_repulsion_energy": 2.11, 
			 "cosmo_total_nonelectrostatic_energy": 13.12, 
			 "SMD_solvation_energy": 4.68 
		},
		"coords": [
			{
				"x": -1.5259463679,
				"y": 1.0496802791,
				"z": 3.05693922,
				"element": "C" 
			},
			{
				"x": -2.2779264669,
				"y": 1.4085263417,
				"z": 1.7714952344,
				"element": "C" 
			},
			{
				"x": -1.3311475992,
				"y": 1.4323948753,
				"z": 0.5631826138,
				"element": "C" 
			},
			{
				"x": -0.6607575603,
				"y": 0.1364157522,
				"z": 0.3970345187,
				"element": "N" 
			},
			{
				"x": 0.1473939234,
				"y": -0.1500333748,
				"z": 1.5919745119,
				"element": "C" 
			},
			{
				"x": -0.7325299993,
				"y": -0.2436504957,
				"z": 2.8451148636,
				"element": "C" 
			},
			{
				"x": 0.035370901,
				"y": -0.1044699843,
				"z": -0.9108830908,
				"element": "C" 
			},
			{
				"x": 0.3559885243,
				"y": -1.6244258585,
				"z": -1.0297179862,
				"element": "C" 
			},
			{
				"x": -0.8950891492,
				"y": -2.5149718322,
				"z": -1.0079754155,
				"element": "C" 
			},
			{
				"x": -1.866482248,
				"y": -2.1539252645,
				"z": -2.1374950757,
				"element": "C" 
			},
			{
				"x": -2.1987522605,
				"y": -0.6575569337,
				"z": -2.1056915621,
				"element": "C" 
			},
			{
				"x": -0.9232774546,
				"y": 0.1985964128,
				"z": -2.100683377,
				"element": "C" 
			},
			{
				"x": 1.3187611477,
				"y": 0.7561459096,
				"z": -1.0375323436,
				"element": "C" 
			},
			{
				"x": 1.2442687205,
				"y": 2.1194695999,
				"z": -1.377287519,
				"element": "C" 
			},
			{
				"x": 2.3835746516,
				"y": 2.9223678368,
				"z": -1.4419825733,
				"element": "C" 
			},
			{
				"x": 3.6414773779,
				"y": 2.3848235035,
				"z": -1.1691173598,
				"element": "C" 
			},
			{
				"x": 3.7401184642,
				"y": 1.0363256776,
				"z": -0.8302713102,
				"element": "C" 
			},
			{
				"x": 2.5958657945,
				"y": 0.2384064092,
				"z": -0.7651621962,
				"element": "C" 
			},
			{
				"x": -0.831187825,
				"y": 1.8633512736,
				"z": 3.3093219419,
				"element": "H" 
			},
			{
				"x": -2.2180328509,
				"y": 0.9520412446,
				"z": 3.9016804016,
				"element": "H" 
			},
			{
				"x": -3.0659896006,
				"y": 0.6676972477,
				"z": 1.585739833,
				"element": "H" 
			},
			{
				"x": -2.7654960477,
				"y": 2.3867525038,
				"z": 1.8645112985,
				"element": "H" 
			},
			{
				"x": -0.603580497,
				"y": 2.2560801204,
				"z": 0.6960306843,
				"element": "H" 
			},
			{
				"x": -1.9145979184,
				"y": 1.6617593114,
				"z": -0.3299130125,
				"element": "H" 
			},
			{
				"x": 0.6735848152,
				"y": -1.0968368286,
				"z": 1.4601859898,
				"element": "H" 
			},
			{
				"x": 0.9220348458,
				"y": 0.62380948,
				"z": 1.7509993398,
				"element": "H" 
			},
			{
				"x": -0.0990043742,
				"y": -0.4595062359,
				"z": 3.7142028842,
				"element": "H" 
			},
			{
				"x": -1.42483765,
				"y": -1.0871787938,
				"z": 2.7289236781,
				"element": "H" 
			},
			{
				"x": 1.0397398305,
				"y": -1.9560559267,
				"z": -0.2447283864,
				"element": "H" 
			},
			{
				"x": 0.8944096102,
				"y": -1.7712135079,
				"z": -1.9748216795,
				"element": "H" 
			},
			{
				"x": -0.5910045097,
				"y": -3.5659473382,
				"z": -1.0878388008,
				"element": "H" 
			},
			{
				"x": -1.3998093339,
				"y": -2.3974900654,
				"z": -0.0427006352,
				"element": "H" 
			},
			{
				"x": -1.4064809187,
				"y": -2.401701198,
				"z": -3.1052592712,
				"element": "H" 
			},
			{
				"x": -2.7820604586,
				"y": -2.7532613205,
				"z": -2.0641304908,
				"element": "H" 
			},
			{
				"x": -2.7936137072,
				"y": -0.4368777597,
				"z": -1.2119133095,
				"element": "H" 
			},
			{
				"x": -2.8126612996,
				"y": -0.3839594638,
				"z": -2.9727756349,
				"element": "H" 
			},
			{
				"x": -1.1911508533,
				"y": 1.256356473,
				"z": -2.1469117657,
				"element": "H" 
			},
			{
				"x": -0.3528980645,
				"y": 0.0030289907,
				"z": -3.0175418964,
				"element": "H" 
			},
			{
				"x": 0.2854687512,
				"y": 2.571835694,
				"z": -1.6041964772,
				"element": "H" 
			},
			{
				"x": 2.2848697188,
				"y": 3.9705982266,
				"z": -1.7111633383,
				"element": "H" 
			},
			{
				"x": 4.5303669163,
				"y": 3.0069022786,
				"z": -1.222340532,
				"element": "H" 
			},
			{
				"x": 4.7109425125,
				"y": 0.5969507801,
				"z": -0.6169626232,
				"element": "H" 
			},
			{
				"x": 2.71517851,
				"y": -0.80655404,
				"z": -0.5029393507,
				"element": "H" 
			}
		],
		 "valence_orbital": [ 
			{
				"type": "occ",
				"energy": -0.29906,
				"method": "rhf"
			},
			{
				"type": "occ",
				"energy": -0.28245,
				"method": "rhf"
			},
			{
				"type": "occ",
				"energy": -0.24348,
				"method": "rhf"
			},
			{
				"type": "occ",
				"energy": -0.24023,
				"method": "rhf"
			},
			{
				"type": "occ",
				"energy": -0.201,
				"method": "rhf"
			},
			{
				"type": "unocc",
				"energy": 0.00272,
				"method": "rhf"
			},
			{
				"type": "unocc",
				"energy": 0.00435,
				"method": "rhf"
			},
			{
				"type": "unocc",
				"energy": 0.07633,
				"method": "rhf"
			},
			{
				"type": "unocc",
				"energy": 0.09796,
				"method": "rhf"
			},
			{
				"type": "unocc",
				"energy": 0.10276,
				"method": "rhf"
			}
		],
		"cosmo_sigma_profile": { 
			"-0.025": 0.0,
			"-0.024": 0.0,
			"-0.023": 0.0,
			"-0.022": 0.0,
			"-0.021": 0.0,
			"-0.02": 0.0,
			"-0.019": 0.0,
			"-0.018": 0.0,
			"-0.017": 0.0,
			"-0.016": 0.0,
			"-0.015": 0.0,
			"-0.014": 0.0,
			"-0.013": 0.0,
			"-0.012": 0.0,
			"-0.011": 0.0,
			"-0.01": 0.0,
			"-0.009": 0.0,
			"-0.008": 0.0,
			"-0.007": 0.0,
			"-0.006": 1.70706535178,
			"-0.005": 11.0942058888,
			"-0.004": 12.8160902508,
			"-0.003": 18.0881090815,
			"-0.002": 36.9957697813,
			"-0.001": 49.7295760436,
			"0.0": 61.5030109573,
			"0.001": 44.7302136491,
			"0.002": 19.1844380253,
			"0.003": 9.75471666849,
			"0.004": 9.18951494521,
			"0.005": 7.56667657957,
			"0.006": 8.84622754064,
			"0.007": 4.99536883,
			"0.008": 0.641043772835,
			"0.009": 0.600240384195,
			"0.01": 0.805086022755,
			"0.011": 0.095473756822,
			"0.012": 0.0,
			"0.013": 0.0,
			"0.014": 0.0,
			"0.015": 0.0,
			"0.016": 0.0,
			"0.017": 0.0,
			"0.018": 0.0,
			"0.019": 0.0,
			"0.02": 0.0,
			"0.021": 0.0,
			"0.022": 0.0,
			"0.023": 0.0,
			"0.024": 0.0,
			"0.025": 0.0
		}
	}
}
