{
	 "smiles": "CN1N=CC(Br)=C1N", 
	 "Tm": 377.15, 
	 "num_atms": 14, 
	 "gaussian": { 
		 "optdone": 1, 
		 "sigma_profile": "yes", 
		 "theory": "DFT", 
		 "functional": "B3LYP", 
		 "basiset": "6-31G**", 
		 "properties": { 
			 "R2extent": 3117.8385, 
			 "electric_dipole_moment_norm": 3.264946387, 
			 "electric_quadrupole_moment_norm": 7.77875402298, 
			 "total_energy": -2891.67192851, 
			 "HOMO_LUMO_gap": 0.23282, 
			 "cosmo_polarized_energy": -10.67, 
			 "cosmo_cavitation_energy": 20.21, 
			 "cosmo_dispersion_energy": -15.53, 
			 "cosmo_repulsion_energy": 1.3, 
			 "cosmo_total_nonelectrostatic_energy": 5.98, 
			 "SMD_solvation_energy": 1.83 
		},
		"coords": [
			{
				"x": 0.2767567788,
				"y": -1.553019411,
				"z": 0.2194222523,
				"element": "C" 
			},
			{
				"x": 0.442564545,
				"y": -0.1556956066,
				"z": 0.5618307604,
				"element": "N" 
			},
			{
				"x": -0.5890396867,
				"y": 0.5445685896,
				"z": 1.1109670402,
				"element": "N" 
			},
			{
				"x": -0.1117497504,
				"y": 1.7715809504,
				"z": 1.2963292013,
				"element": "C" 
			},
			{
				"x": 1.2344476204,
				"y": 1.8592814885,
				"z": 0.8922173142,
				"element": "C" 
			},
			{
				"x": 2.3993907553,
				"y": 3.34311578,
				"z": 0.9422064501,
				"element": "Br" 
			},
			{
				"x": 1.5698987828,
				"y": 0.5950948334,
				"z": 0.4262792153,
				"element": "C" 
			},
			{
				"x": 2.734051439,
				"y": 0.1011710655,
				"z": -0.1616161214,
				"element": "N" 
			},
			{
				"x": 0.8441724559,
				"y": -1.7710636459,
				"z": -0.688940779,
				"element": "H" 
			},
			{
				"x": -0.7849121641,
				"y": -1.7271696615,
				"z": 0.0444279892,
				"element": "H" 
			},
			{
				"x": 0.6168139769,
				"y": -2.2133931297,
				"z": 1.026203632,
				"element": "H" 
			},
			{
				"x": -0.7377895438,
				"y": 2.5474437481,
				"z": 1.7139841046,
				"element": "H" 
			},
			{
				"x": 3.4247806693,
				"y": 0.8378800025,
				"z": -0.258008736,
				"element": "H" 
			},
			{
				"x": 3.1434141218,
				"y": -0.6807950034,
				"z": 0.3403976768,
				"element": "H" 
			}
		],
		 "valence_orbital": [ 
			{
				"type": "occ",
				"energy": -0.31553,
				"method": "rhf"
			},
			{
				"type": "occ",
				"energy": -0.30086,
				"method": "rhf"
			},
			{
				"type": "occ",
				"energy": -0.27811,
				"method": "rhf"
			},
			{
				"type": "occ",
				"energy": -0.24039,
				"method": "rhf"
			},
			{
				"type": "occ",
				"energy": -0.21233,
				"method": "rhf"
			},
			{
				"type": "unocc",
				"energy": 0.02049,
				"method": "rhf"
			},
			{
				"type": "unocc",
				"energy": 0.02334,
				"method": "rhf"
			},
			{
				"type": "unocc",
				"energy": 0.06498,
				"method": "rhf"
			},
			{
				"type": "unocc",
				"energy": 0.07113,
				"method": "rhf"
			},
			{
				"type": "unocc",
				"energy": 0.11652,
				"method": "rhf"
			}
		],
		"cosmo_sigma_profile": { 
			"-0.025": 0.0,
			"-0.024": 0.0,
			"-0.023": 0.0,
			"-0.022": 0.0,
			"-0.021": 0.0,
			"-0.02": 0.0,
			"-0.019": 0.0,
			"-0.018": 0.0,
			"-0.017": 0.0,
			"-0.016": 0.0,
			"-0.015": 0.0,
			"-0.014": 0.327353621879,
			"-0.013": 1.32988988244,
			"-0.012": 2.13009755876,
			"-0.011": 2.98665956484,
			"-0.01": 2.77854007439,
			"-0.009": 1.87844999832,
			"-0.008": 2.55646825728,
			"-0.007": 5.0243678719,
			"-0.006": 8.50050618086,
			"-0.005": 10.2461854327,
			"-0.004": 11.6591576262,
			"-0.003": 11.8737568928,
			"-0.002": 8.67284787857,
			"-0.001": 6.48423015086,
			"0.0": 7.32559733951,
			"0.001": 9.38687350914,
			"0.002": 9.80861537272,
			"0.003": 13.5908852931,
			"0.004": 16.3516759464,
			"0.005": 11.2802017773,
			"0.006": 2.99251583306,
			"0.007": 2.45677926671,
			"0.008": 2.58431588679,
			"0.009": 2.07198780488,
			"0.01": 1.60946008595,
			"0.011": 2.26161192263,
			"0.012": 1.5577586428,
			"0.013": 1.47785316737,
			"0.014": 1.21381124995,
			"0.015": 1.31732577488,
			"0.016": 0.326718806017,
			"0.017": 0.0,
			"0.018": 0.0,
			"0.019": 0.0,
			"0.02": 0.0,
			"0.021": 0.0,
			"0.022": 0.0,
			"0.023": 0.0,
			"0.024": 0.0,
			"0.025": 0.0
		}
	}
}
