{
	 "smiles": "CC(=O)C=CC1C(C)=CCCC1(C)C", 
	 "Tm": 298.15, 
	 "num_atms": 34, 
	 "gaussian": { 
		 "optdone": 1, 
		 "sigma_profile": "yes", 
		 "theory": "DFT", 
		 "functional": "B3LYP", 
		 "basiset": "6-31G**", 
		 "properties": { 
			 "R2extent": 3458.9926, 
			 "electric_dipole_moment_norm": 2.9311697972, 
			 "electric_quadrupole_moment_norm": 14.5055578073, 
			 "total_energy": -582.649918978, 
			 "HOMO_LUMO_gap": 0.18984, 
			 "cosmo_polarized_energy": -7.41, 
			 "cosmo_cavitation_energy": 34.13, 
			 "cosmo_dispersion_energy": -23.19, 
			 "cosmo_repulsion_energy": 1.85, 
			 "cosmo_total_nonelectrostatic_energy": 12.79, 
			 "SMD_solvation_energy": 6.48 
		},
		"coords": [
			{
				"x": 4.3936360538,
				"y": -0.7940113248,
				"z": 1.5665927691,
				"element": "C" 
			},
			{
				"x": 3.7146292117,
				"y": -0.6082046722,
				"z": 0.2206765512,
				"element": "C" 
			},
			{
				"x": 4.2977846783,
				"y": -0.8516620931,
				"z": -0.826265969,
				"element": "O" 
			},
			{
				"x": 2.3085804008,
				"y": -0.1155636551,
				"z": 0.2552958144,
				"element": "C" 
			},
			{
				"x": 1.6147228561,
				"y": 0.0747923323,
				"z": -0.8771027895,
				"element": "C" 
			},
			{
				"x": 0.1826889497,
				"y": 0.5493060332,
				"z": -0.9983469023,
				"element": "C" 
			},
			{
				"x": -0.2770366176,
				"y": 1.327379367,
				"z": 0.2289468436,
				"element": "C" 
			},
			{
				"x": 0.2605531171,
				"y": 2.7308716868,
				"z": 0.3623877674,
				"element": "C" 
			},
			{
				"x": -1.1145575796,
				"y": 0.7982384232,
				"z": 1.131481273,
				"element": "C" 
			},
			{
				"x": -1.7299075289,
				"y": -0.571622381,
				"z": 1.0282617172,
				"element": "C" 
			},
			{
				"x": -1.0980196565,
				"y": -1.4233796958,
				"z": -0.0819234443,
				"element": "C" 
			},
			{
				"x": -0.8070731287,
				"y": -0.6199113226,
				"z": -1.3679435871,
				"element": "C" 
			},
			{
				"x": -0.2012942909,
				"y": -1.5566138529,
				"z": -2.4290438572,
				"element": "C" 
			},
			{
				"x": -2.1024601047,
				"y": -0.0130709108,
				"z": -1.9450126923,
				"element": "C" 
			},
			{
				"x": 4.4184656446,
				"y": 0.1555000755,
				"z": 2.1148774857,
				"element": "H" 
			},
			{
				"x": 5.4102781416,
				"y": -1.1612324531,
				"z": 1.4220230215,
				"element": "H" 
			},
			{
				"x": 3.828982487,
				"y": -1.5021338164,
				"z": 2.1849676614,
				"element": "H" 
			},
			{
				"x": 1.8607927182,
				"y": 0.0862576909,
				"z": 1.225797762,
				"element": "H" 
			},
			{
				"x": 2.1396255921,
				"y": -0.1451795887,
				"z": -1.8055814191,
				"element": "H" 
			},
			{
				"x": 0.1708191856,
				"y": 1.2409365006,
				"z": -1.8563102016,
				"element": "H" 
			},
			{
				"x": 1.3566321191,
				"y": 2.7433110024,
				"z": 0.3385915281,
				"element": "H" 
			},
			{
				"x": -0.0666668769,
				"y": 3.2011585526,
				"z": 1.2940785951,
				"element": "H" 
			},
			{
				"x": -0.0778863692,
				"y": 3.360576085,
				"z": -0.4713144991,
				"element": "H" 
			},
			{
				"x": -1.4160099614,
				"y": 1.4049211454,
				"z": 1.9855106975,
				"element": "H" 
			},
			{
				"x": -1.6480444193,
				"y": -1.092794845,
				"z": 1.9915561611,
				"element": "H" 
			},
			{
				"x": -2.8111850922,
				"y": -0.4597046795,
				"z": 0.8551769716,
				"element": "H" 
			},
			{
				"x": -0.1527572394,
				"y": -1.846128637,
				"z": 0.2798005793,
				"element": "H" 
			},
			{
				"x": -1.749489539,
				"y": -2.2733074405,
				"z": -0.319940274,
				"element": "H" 
			},
			{
				"x": 0.6720427549,
				"y": -2.0969611633,
				"z": -2.0517162951,
				"element": "H" 
			},
			{
				"x": -0.9433387785,
				"y": -2.3006754281,
				"z": -2.7393125403,
				"element": "H" 
			},
			{
				"x": 0.1045902084,
				"y": -1.0033387442,
				"z": -3.3248185845,
				"element": "H" 
			},
			{
				"x": -2.845991453,
				"y": -0.7974135041,
				"z": -2.1269322476,
				"element": "H" 
			},
			{
				"x": -1.9032395435,
				"y": 0.4813758275,
				"z": -2.9026048635,
				"element": "H" 
			},
			{
				"x": -2.5466659396,
				"y": 0.727285486,
				"z": -1.2747530326,
				"element": "H" 
			}
		],
		 "valence_orbital": [ 
			{
				"type": "occ",
				"energy": -0.31087,
				"method": "rhf"
			},
			{
				"type": "occ",
				"energy": -0.30305,
				"method": "rhf"
			},
			{
				"type": "occ",
				"energy": -0.25805,
				"method": "rhf"
			},
			{
				"type": "occ",
				"energy": -0.24077,
				"method": "rhf"
			},
			{
				"type": "occ",
				"energy": -0.23592,
				"method": "rhf"
			},
			{
				"type": "unocc",
				"energy": -0.04608,
				"method": "rhf"
			},
			{
				"type": "unocc",
				"energy": 0.0255,
				"method": "rhf"
			},
			{
				"type": "unocc",
				"energy": 0.06499,
				"method": "rhf"
			},
			{
				"type": "unocc",
				"energy": 0.07742,
				"method": "rhf"
			},
			{
				"type": "unocc",
				"energy": 0.10647,
				"method": "rhf"
			}
		],
		"cosmo_sigma_profile": { 
			"-0.025": 0.0,
			"-0.024": 0.0,
			"-0.023": 0.0,
			"-0.022": 0.0,
			"-0.021": 0.0,
			"-0.02": 0.0,
			"-0.019": 0.0,
			"-0.018": 0.0,
			"-0.017": 0.0,
			"-0.016": 0.0,
			"-0.015": 0.0,
			"-0.014": 0.0,
			"-0.013": 0.0,
			"-0.012": 0.0,
			"-0.011": 0.0,
			"-0.01": 0.0,
			"-0.009": 0.0,
			"-0.008": 0.0,
			"-0.007": 0.0,
			"-0.006": 1.76335602368,
			"-0.005": 7.92048174865,
			"-0.004": 14.6452953527,
			"-0.003": 30.6207148706,
			"-0.002": 38.2669788045,
			"-0.001": 43.9524002529,
			"0.0": 41.301183051,
			"0.001": 36.2568810998,
			"0.002": 16.4603895746,
			"0.003": 6.14571801804,
			"0.004": 4.91169957429,
			"0.005": 3.00716751946,
			"0.006": 1.85790066406,
			"0.007": 1.671258572,
			"0.008": 1.32676356127,
			"0.009": 1.92145915867,
			"0.01": 2.10770161665,
			"0.011": 1.74620262657,
			"0.012": 3.87924364758,
			"0.013": 3.93171377129,
			"0.014": 0.887817535403,
			"0.015": 0.00358141128357,
			"0.016": 0.0,
			"0.017": 0.0,
			"0.018": 0.0,
			"0.019": 0.0,
			"0.02": 0.0,
			"0.021": 0.0,
			"0.022": 0.0,
			"0.023": 0.0,
			"0.024": 0.0,
			"0.025": 0.0
		}
	}
}
