{
	 "smiles": "OC(=O)C(CN1C=CC(=N1)C(F)(F)F)NC1CC1", 
	 "Tm": 449.15, 
	 "num_atms": 30, 
	 "gaussian": { 
		 "optdone": 1, 
		 "sigma_profile": "yes", 
		 "theory": "DFT", 
		 "functional": "B3LYP", 
		 "basiset": "6-31G**", 
		 "properties": { 
			 "R2extent": 6550.6688, 
			 "electric_dipole_moment_norm": 5.62106359864, 
			 "electric_quadrupole_moment_norm": 15.6063321187, 
			 "total_energy": -1002.46825715, 
			 "HOMO_LUMO_gap": 0.22113, 
			 "cosmo_polarized_energy": -16.04, 
			 "cosmo_cavitation_energy": 35.92, 
			 "cosmo_dispersion_energy": -24.18, 
			 "cosmo_repulsion_energy": 1.84, 
			 "cosmo_total_nonelectrostatic_energy": 13.57, 
			 "SMD_solvation_energy": 5.25 
		},
		"coords": [
			{
				"x": -0.7037292362,
				"y": -1.5644639103,
				"z": -1.5223223256,
				"element": "O" 
			},
			{
				"x": -0.3119788624,
				"y": -0.2788233298,
				"z": -1.6901276505,
				"element": "C" 
			},
			{
				"x": -0.0165735235,
				"y": 0.1758094275,
				"z": -2.7733388588,
				"element": "O" 
			},
			{
				"x": -0.3369584049,
				"y": 0.561362284,
				"z": -0.4045054258,
				"element": "C" 
			},
			{
				"x": -0.4440967173,
				"y": -0.2506780397,
				"z": 0.8964547962,
				"element": "C" 
			},
			{
				"x": 0.7551735078,
				"y": -1.0367571114,
				"z": 1.1569205893,
				"element": "N" 
			},
			{
				"x": 0.8956401608,
				"y": -2.3912837072,
				"z": 1.1577984286,
				"element": "C" 
			},
			{
				"x": 2.2170105112,
				"y": -2.65671421,
				"z": 1.457440823,
				"element": "C" 
			},
			{
				"x": 2.7931731243,
				"y": -1.3792306414,
				"z": 1.6165170003,
				"element": "C" 
			},
			{
				"x": 1.907249246,
				"y": -0.399778388,
				"z": 1.4361121052,
				"element": "N" 
			},
			{
				"x": 4.2074333265,
				"y": -1.0579353125,
				"z": 1.9832043897,
				"element": "C" 
			},
			{
				"x": 4.742747355,
				"y": -0.1212951649,
				"z": 1.1762064794,
				"element": "F" 
			},
			{
				"x": 4.9754840826,
				"y": -2.1685174159,
				"z": 1.8951870316,
				"element": "F" 
			},
			{
				"x": 4.3135576726,
				"y": -0.5973699451,
				"z": 3.2489303117,
				"element": "F" 
			},
			{
				"x": -1.3759921144,
				"y": 1.5942989108,
				"z": -0.4487278302,
				"element": "N" 
			},
			{
				"x": -2.7431145686,
				"y": 1.149011967,
				"z": -0.6097549979,
				"element": "C" 
			},
			{
				"x": -3.7226300739,
				"y": 2.04398213,
				"z": -1.3081189121,
				"element": "C" 
			},
			{
				"x": -3.3429000373,
				"y": 0.7210561347,
				"z": -1.9395614567,
				"element": "C" 
			},
			{
				"x": -0.6707416122,
				"y": -1.9754552045,
				"z": -2.403634962,
				"element": "H" 
			},
			{
				"x": 0.6248244413,
				"y": 1.0829816246,
				"z": -0.3773753683,
				"element": "H" 
			},
			{
				"x": -0.5810612408,
				"y": 0.4564596667,
				"z": 1.7177796547,
				"element": "H" 
			},
			{
				"x": -1.2895767606,
				"y": -0.9394022096,
				"z": 0.8747843493,
				"element": "H" 
			},
			{
				"x": 0.0639014145,
				"y": -3.0414390124,
				"z": 0.9339174616,
				"element": "H" 
			},
			{
				"x": 2.6977947196,
				"y": -3.61793469,
				"z": 1.5460117941,
				"element": "H" 
			},
			{
				"x": -1.1367040306,
				"y": 2.2724228439,
				"z": -1.1657141293,
				"element": "H" 
			},
			{
				"x": -3.119636541,
				"y": 0.6347815319,
				"z": 0.2721179422,
				"element": "H" 
			},
			{
				"x": -4.7130175819,
				"y": 2.160980476,
				"z": -0.8796432285,
				"element": "H" 
			},
			{
				"x": -3.3356140339,
				"y": 2.9487961168,
				"z": -1.7705487669,
				"element": "H" 
			},
			{
				"x": -2.7054898562,
				"y": 0.7556482043,
				"z": -2.8173200676,
				"element": "H" 
			},
			{
				"x": -4.0756743666,
				"y": -0.0809130252,
				"z": -1.9439891768,
				"element": "H" 
			}
		],
		 "valence_orbital": [ 
			{
				"type": "occ",
				"energy": -0.30479,
				"method": "rhf"
			},
			{
				"type": "occ",
				"energy": -0.29056,
				"method": "rhf"
			},
			{
				"type": "occ",
				"energy": -0.26648,
				"method": "rhf"
			},
			{
				"type": "occ",
				"energy": -0.26025,
				"method": "rhf"
			},
			{
				"type": "occ",
				"energy": -0.23303,
				"method": "rhf"
			},
			{
				"type": "unocc",
				"energy": -0.0119,
				"method": "rhf"
			},
			{
				"type": "unocc",
				"energy": -0.00132,
				"method": "rhf"
			},
			{
				"type": "unocc",
				"energy": 0.04361,
				"method": "rhf"
			},
			{
				"type": "unocc",
				"energy": 0.05937,
				"method": "rhf"
			},
			{
				"type": "unocc",
				"energy": 0.07862,
				"method": "rhf"
			}
		],
		"cosmo_sigma_profile": { 
			"-0.025": 0.0,
			"-0.024": 0.0,
			"-0.023": 0.0,
			"-0.022": 0.0,
			"-0.021": 0.0,
			"-0.02": 0.0,
			"-0.019": 0.0657085712487,
			"-0.018": 0.928588135184,
			"-0.017": 0.986667042234,
			"-0.016": 0.552370822146,
			"-0.015": 1.02739493615,
			"-0.014": 0.828542404658,
			"-0.013": 0.414428509911,
			"-0.012": 0.658622392036,
			"-0.011": 1.87250451943,
			"-0.01": 2.33474100544,
			"-0.009": 3.08625874945,
			"-0.008": 6.61788053205,
			"-0.007": 9.1107415966,
			"-0.006": 9.96110798667,
			"-0.005": 13.8828188373,
			"-0.004": 16.9300855233,
			"-0.003": 17.8518233504,
			"-0.002": 18.7070669361,
			"-0.001": 17.5920844022,
			"0.0": 18.7693706589,
			"0.001": 18.5393655318,
			"0.002": 28.6234551625,
			"0.003": 42.1023904896,
			"0.004": 15.4933149748,
			"0.005": 8.07377351853,
			"0.006": 4.86355576031,
			"0.007": 3.26392474211,
			"0.008": 2.98338116425,
			"0.009": 2.48187685872,
			"0.01": 4.07696974879,
			"0.011": 4.81272063691,
			"0.012": 4.58905860864,
			"0.013": 1.14549908429,
			"0.014": 0.621907284753,
			"0.015": 0.274723659669,
			"0.016": 0.0,
			"0.017": 0.0,
			"0.018": 0.0,
			"0.019": 0.0,
			"0.02": 0.0,
			"0.021": 0.0,
			"0.022": 0.0,
			"0.023": 0.0,
			"0.024": 0.0,
			"0.025": 0.0
		}
	}
}
