{
	 "smiles": "COC1=CC=C2C(CC2=C1C)C#N", 
	 "Tm": 353.15, 
	 "num_atms": 24, 
	 "gaussian": { 
		 "optdone": 1, 
		 "sigma_profile": "yes", 
		 "theory": "DFT", 
		 "functional": "B3LYP", 
		 "basiset": "6-31G**", 
		 "properties": { 
			 "R2extent": 3602.7314, 
			 "electric_dipole_moment_norm": 4.89468596439, 
			 "electric_quadrupole_moment_norm": 31.5488917831, 
			 "total_energy": -555.715047148, 
			 "HOMO_LUMO_gap": 0.20897, 
			 "cosmo_polarized_energy": -10.8, 
			 "cosmo_cavitation_energy": 28.42, 
			 "cosmo_dispersion_energy": -19.98, 
			 "cosmo_repulsion_energy": 1.61, 
			 "cosmo_total_nonelectrostatic_energy": 10.05, 
			 "SMD_solvation_energy": 6.69 
		},
		"coords": [
			{
				"x": -0.1321295563,
				"y": -1.3694855403,
				"z": -3.3254082671,
				"element": "C" 
			},
			{
				"x": -0.3021123065,
				"y": -0.2702613065,
				"z": -2.4451688227,
				"element": "O" 
			},
			{
				"x": -0.8105835215,
				"y": -0.4955468087,
				"z": -1.1955504223,
				"element": "C" 
			},
			{
				"x": -1.1703694953,
				"y": -1.771070852,
				"z": -0.7257563044,
				"element": "C" 
			},
			{
				"x": -1.6885236851,
				"y": -1.9595805105,
				"z": 0.5669413917,
				"element": "C" 
			},
			{
				"x": -1.8191433866,
				"y": -0.8178287519,
				"z": 1.3337972905,
				"element": "C" 
			},
			{
				"x": -2.2353000827,
				"y": -0.2904518696,
				"z": 2.709217395,
				"element": "C" 
			},
			{
				"x": -1.8722220949,
				"y": 1.1550837205,
				"z": 2.1424282509,
				"element": "C" 
			},
			{
				"x": -1.4683160607,
				"y": 0.4445836757,
				"z": 0.8593433248,
				"element": "C" 
			},
			{
				"x": -0.9496832444,
				"y": 0.6747449717,
				"z": -0.4042594441,
				"element": "C" 
			},
			{
				"x": -0.5610558777,
				"y": 2.0268130796,
				"z": -0.9376718648,
				"element": "C" 
			},
			{
				"x": -3.6244307158,
				"y": -0.4898283132,
				"z": 3.1159747621,
				"element": "C" 
			},
			{
				"x": -4.7314263579,
				"y": -0.6473327965,
				"z": 3.4307496052,
				"element": "N" 
			},
			{
				"x": 0.571272646,
				"y": -2.1083009847,
				"z": -2.9203547393,
				"element": "H" 
			},
			{
				"x": -1.0866608006,
				"y": -1.8652350825,
				"z": -3.5435330957,
				"element": "H" 
			},
			{
				"x": 0.2758535755,
				"y": -0.9548083854,
				"z": -4.248534981,
				"element": "H" 
			},
			{
				"x": -1.0493448499,
				"y": -2.6336947268,
				"z": -1.3698549696,
				"element": "H" 
			},
			{
				"x": -1.9642386016,
				"y": -2.9514899932,
				"z": 0.9115418197,
				"element": "H" 
			},
			{
				"x": -1.5803359931,
				"y": -0.5996045269,
				"z": 3.5322786418,
				"element": "H" 
			},
			{
				"x": -2.7328060884,
				"y": 1.8258475417,
				"z": 2.0669516711,
				"element": "H" 
			},
			{
				"x": -1.0762047121,
				"y": 1.6574403608,
				"z": 2.7009721283,
				"element": "H" 
			},
			{
				"x": -1.129946983,
				"y": 2.2745925035,
				"z": -1.8403700226,
				"element": "H" 
			},
			{
				"x": 0.4972092026,
				"y": 2.0527005306,
				"z": -1.2195071456,
				"element": "H" 
			},
			{
				"x": -0.7396010098,
				"y": 2.8061140646,
				"z": -0.192426202,
				"element": "H" 
			}
		],
		 "valence_orbital": [ 
			{
				"type": "occ",
				"energy": -0.32327,
				"method": "rhf"
			},
			{
				"type": "occ",
				"energy": -0.30966,
				"method": "rhf"
			},
			{
				"type": "occ",
				"energy": -0.30852,
				"method": "rhf"
			},
			{
				"type": "occ",
				"energy": -0.24882,
				"method": "rhf"
			},
			{
				"type": "occ",
				"energy": -0.22211,
				"method": "rhf"
			},
			{
				"type": "unocc",
				"energy": -0.01314,
				"method": "rhf"
			},
			{
				"type": "unocc",
				"energy": 0.00549,
				"method": "rhf"
			},
			{
				"type": "unocc",
				"energy": 0.03012,
				"method": "rhf"
			},
			{
				"type": "unocc",
				"energy": 0.04528,
				"method": "rhf"
			},
			{
				"type": "unocc",
				"energy": 0.09077,
				"method": "rhf"
			}
		],
		"cosmo_sigma_profile": { 
			"-0.025": 0.0,
			"-0.024": 0.0,
			"-0.023": 0.0,
			"-0.022": 0.0,
			"-0.021": 0.0,
			"-0.02": 0.0,
			"-0.019": 0.0,
			"-0.018": 0.0,
			"-0.017": 0.0,
			"-0.016": 0.0,
			"-0.015": 0.0,
			"-0.014": 0.0,
			"-0.013": 0.0,
			"-0.012": 0.0,
			"-0.011": 0.0,
			"-0.01": 0.0,
			"-0.009": 0.278605632497,
			"-0.008": 2.76897890946,
			"-0.007": 3.27099776027,
			"-0.006": 11.917273563,
			"-0.005": 20.7004541389,
			"-0.004": 24.0006527514,
			"-0.003": 25.2269517629,
			"-0.002": 20.0238417042,
			"-0.001": 14.098738749,
			"0.0": 15.6339498254,
			"0.001": 13.3753367911,
			"0.002": 9.58422308339,
			"0.003": 12.2379850061,
			"0.004": 11.6634600766,
			"0.005": 9.90395154879,
			"0.006": 6.79898918782,
			"0.007": 3.95951795547,
			"0.008": 5.16147588188,
			"0.009": 4.52691536103,
			"0.01": 3.39367446618,
			"0.011": 2.97997099006,
			"0.012": 2.51786715879,
			"0.013": 2.25045518876,
			"0.014": 0.381078072151,
			"0.015": 0.0,
			"0.016": 0.0,
			"0.017": 0.0,
			"0.018": 0.0,
			"0.019": 0.0,
			"0.02": 0.0,
			"0.021": 0.0,
			"0.022": 0.0,
			"0.023": 0.0,
			"0.024": 0.0,
			"0.025": 0.0
		}
	}
}
