{
	 "smiles": "OC(=O)C1=NC(=NC=C1)C1CC1", 
	 "Tm": 492.15, 
	 "num_atms": 20, 
	 "gaussian": { 
		 "optdone": 1, 
		 "sigma_profile": "yes", 
		 "theory": "DFT", 
		 "functional": "B3LYP", 
		 "basiset": "6-31G**", 
		 "properties": { 
			 "R2extent": 2169.3729, 
			 "electric_dipole_moment_norm": 3.77971735716, 
			 "electric_quadrupole_moment_norm": 12.9549106188, 
			 "total_energy": -569.609318715, 
			 "HOMO_LUMO_gap": 0.18806, 
			 "cosmo_polarized_energy": -11.01, 
			 "cosmo_cavitation_energy": 24.7, 
			 "cosmo_dispersion_energy": -18.01, 
			 "cosmo_repulsion_energy": 1.43, 
			 "cosmo_total_nonelectrostatic_energy": 8.12, 
			 "SMD_solvation_energy": 3.48 
		},
		"coords": [
			{
				"x": -2.5800992127,
				"y": 1.4467628984,
				"z": 0.3198319028,
				"element": "O" 
			},
			{
				"x": -1.404264782,
				"y": 1.8901128323,
				"z": 0.7851303561,
				"element": "C" 
			},
			{
				"x": -1.2624048051,
				"y": 2.952091632,
				"z": 1.3451877258,
				"element": "O" 
			},
			{
				"x": -0.2576421442,
				"y": 0.9318837796,
				"z": 0.5437041586,
				"element": "C" 
			},
			{
				"x": -0.5651903812,
				"y": -0.2063307819,
				"z": -0.0894873843,
				"element": "N" 
			},
			{
				"x": 0.4343359443,
				"y": -1.0777826065,
				"z": -0.3181614707,
				"element": "C" 
			},
			{
				"x": 1.7140675269,
				"y": -0.8787767314,
				"z": 0.0465307606,
				"element": "N" 
			},
			{
				"x": 1.9967429816,
				"y": 0.2651267661,
				"z": 0.6774924497,
				"element": "C" 
			},
			{
				"x": 1.0336768314,
				"y": 1.232295475,
				"z": 0.9616538616,
				"element": "C" 
			},
			{
				"x": 0.1262857253,
				"y": -2.3451763044,
				"z": -1.0163630286,
				"element": "C" 
			},
			{
				"x": -1.210035864,
				"y": -3.0365080538,
				"z": -0.7881713478,
				"element": "C" 
			},
			{
				"x": -0.939820997,
				"y": -2.3789972285,
				"z": -2.1016760107,
				"element": "C" 
			},
			{
				"x": -2.4036663241,
				"y": 0.5701717716,
				"z": -0.0815274023,
				"element": "H" 
			},
			{
				"x": 3.0363828966,
				"y": 0.4101587425,
				"z": 0.9655408918,
				"element": "H" 
			},
			{
				"x": 1.2509795235,
				"y": 2.1622170254,
				"z": 1.4717488295,
				"element": "H" 
			},
			{
				"x": 0.9994337745,
				"y": -2.9732132541,
				"z": -1.1510358882,
				"element": "H" 
			},
			{
				"x": -1.8986635148,
				"y": -2.5469793078,
				"z": -0.1072378091,
				"element": "H" 
			},
			{
				"x": -1.1984431021,
				"y": -4.1202091636,
				"z": -0.7300632036,
				"element": "H" 
			},
			{
				"x": -1.4448120969,
				"y": -1.4425249354,
				"z": -2.3149677761,
				"element": "H" 
			},
			{
				"x": -0.73756198,
				"y": -2.9997225555,
				"z": -2.9687296154,
				"element": "H" 
			}
		],
		 "valence_orbital": [ 
			{
				"type": "occ",
				"energy": -0.31792,
				"method": "rhf"
			},
			{
				"type": "occ",
				"energy": -0.31628,
				"method": "rhf"
			},
			{
				"type": "occ",
				"energy": -0.28908,
				"method": "rhf"
			},
			{
				"type": "occ",
				"energy": -0.27529,
				"method": "rhf"
			},
			{
				"type": "occ",
				"energy": -0.26919,
				"method": "rhf"
			},
			{
				"type": "unocc",
				"energy": -0.08113,
				"method": "rhf"
			},
			{
				"type": "unocc",
				"energy": -0.0487,
				"method": "rhf"
			},
			{
				"type": "unocc",
				"energy": 0.03704,
				"method": "rhf"
			},
			{
				"type": "unocc",
				"energy": 0.07867,
				"method": "rhf"
			},
			{
				"type": "unocc",
				"energy": 0.08669,
				"method": "rhf"
			}
		],
		"cosmo_sigma_profile": { 
			"-0.025": 0.0,
			"-0.024": 0.0,
			"-0.023": 0.0,
			"-0.022": 0.0,
			"-0.021": 0.0,
			"-0.02": 0.0,
			"-0.019": 0.0,
			"-0.018": 0.0,
			"-0.017": 0.0,
			"-0.016": 0.0,
			"-0.015": 0.0,
			"-0.014": 0.0,
			"-0.013": 0.262059576626,
			"-0.012": 0.418494587462,
			"-0.011": 0.520472729249,
			"-0.01": 1.04680234895,
			"-0.009": 1.56091845917,
			"-0.008": 4.20182705466,
			"-0.007": 5.3736195451,
			"-0.006": 9.15253947914,
			"-0.005": 15.2823350484,
			"-0.004": 14.7719768858,
			"-0.003": 17.7859418132,
			"-0.002": 17.4577126391,
			"-0.001": 21.4393330939,
			"0.0": 15.092653021,
			"0.001": 13.0247701915,
			"0.002": 10.0265313762,
			"0.003": 7.759016871,
			"0.004": 5.53912390971,
			"0.005": 3.47240492957,
			"0.006": 3.34849615025,
			"0.007": 3.51781928091,
			"0.008": 4.22907529435,
			"0.009": 5.66924721996,
			"0.01": 5.65505691049,
			"0.011": 6.38508736495,
			"0.012": 3.16264970024,
			"0.013": 0.821389221175,
			"0.014": 0.613757293291,
			"0.015": 0.126808141458,
			"0.016": 0.0,
			"0.017": 0.0,
			"0.018": 0.0,
			"0.019": 0.0,
			"0.02": 0.0,
			"0.021": 0.0,
			"0.022": 0.0,
			"0.023": 0.0,
			"0.024": 0.0,
			"0.025": 0.0
		}
	}
}
