{
	 "smiles": "OC(=O)C1=C(CSC2=CC=CC=C2)C=CO1", 
	 "Tm": 388.15, 
	 "num_atms": 26, 
	 "gaussian": { 
		 "optdone": 1, 
		 "sigma_profile": "yes", 
		 "theory": "DFT", 
		 "functional": "B3LYP", 
		 "basiset": "6-31G**", 
		 "properties": { 
			 "R2extent": 4559.7399, 
			 "electric_dipole_moment_norm": 4.58150240314, 
			 "electric_quadrupole_moment_norm": 14.1336274643, 
			 "total_energy": -1087.14812338, 
			 "HOMO_LUMO_gap": 0.15717, 
			 "cosmo_polarized_energy": -14.0, 
			 "cosmo_cavitation_energy": 31.83, 
			 "cosmo_dispersion_energy": -22.83, 
			 "cosmo_repulsion_energy": 1.74, 
			 "cosmo_total_nonelectrostatic_energy": 10.73, 
			 "SMD_solvation_energy": 6.94 
		},
		"coords": [
			{
				"x": 3.3073103867,
				"y": 2.8237537988,
				"z": 0.5352333568,
				"element": "O" 
			},
			{
				"x": 3.1569192746,
				"y": 1.4816268695,
				"z": 0.6110420627,
				"element": "C" 
			},
			{
				"x": 3.410191036,
				"y": 0.8801282265,
				"z": 1.6354095738,
				"element": "O" 
			},
			{
				"x": 2.6734850036,
				"y": 0.8275638177,
				"z": -0.6117829764,
				"element": "C" 
			},
			{
				"x": 2.4181235847,
				"y": -0.4841869364,
				"z": -0.9326210163,
				"element": "C" 
			},
			{
				"x": 2.5844114081,
				"y": -1.6776203059,
				"z": -0.0462931217,
				"element": "C" 
			},
			{
				"x": 1.0559672407,
				"y": -2.6881621153,
				"z": 0.1713876624,
				"element": "S" 
			},
			{
				"x": -0.0941961977,
				"y": -1.5809694604,
				"z": 0.9832042324,
				"element": "C" 
			},
			{
				"x": -1.4574431798,
				"y": -1.7896957893,
				"z": 0.7267780733,
				"element": "C" 
			},
			{
				"x": -2.4198324932,
				"y": -1.0191093483,
				"z": 1.3784073341,
				"element": "C" 
			},
			{
				"x": -2.03398877,
				"y": -0.018407022,
				"z": 2.2722185694,
				"element": "C" 
			},
			{
				"x": -0.6768658945,
				"y": 0.1972157445,
				"z": 2.5166688019,
				"element": "C" 
			},
			{
				"x": 0.294822693,
				"y": -0.5836704369,
				"z": 1.8875605607,
				"element": "C" 
			},
			{
				"x": 1.971829623,
				"y": -0.4698822139,
				"z": -2.294981028,
				"element": "C" 
			},
			{
				"x": 1.9904084864,
				"y": 0.8288888464,
				"z": -2.7006324946,
				"element": "C" 
			},
			{
				"x": 2.4154487498,
				"y": 1.6393486282,
				"z": -1.6947031438,
				"element": "O" 
			},
			{
				"x": 3.0565650158,
				"y": 3.1311970452,
				"z": -0.3503434173,
				"element": "H" 
			},
			{
				"x": 2.9960004583,
				"y": -1.3816362427,
				"z": 0.9179842662,
				"element": "H" 
			},
			{
				"x": 3.277519454,
				"y": -2.3939861245,
				"z": -0.5002222931,
				"element": "H" 
			},
			{
				"x": -1.7607440277,
				"y": -2.5517511386,
				"z": 0.0146874681,
				"element": "H" 
			},
			{
				"x": -3.4725657187,
				"y": -1.1937521941,
				"z": 1.1743349732,
				"element": "H" 
			},
			{
				"x": -2.7834687156,
				"y": 0.5888050708,
				"z": 2.7711303173,
				"element": "H" 
			},
			{
				"x": -0.3636329265,
				"y": 0.9730247676,
				"z": 3.209704455,
				"element": "H" 
			},
			{
				"x": 1.3417818088,
				"y": -0.4014075332,
				"z": 2.1038668563,
				"element": "H" 
			},
			{
				"x": 1.66394261,
				"y": -1.3247749676,
				"z": -2.8792566064,
				"element": "H" 
			},
			{
				"x": 1.74071109,
				"y": 1.3203590139,
				"z": -3.6283824659,
				"element": "H" 
			}
		],
		 "valence_orbital": [ 
			{
				"type": "occ",
				"energy": -0.28557,
				"method": "rhf"
			},
			{
				"type": "occ",
				"energy": -0.27554,
				"method": "rhf"
			},
			{
				"type": "occ",
				"energy": -0.25643,
				"method": "rhf"
			},
			{
				"type": "occ",
				"energy": -0.24847,
				"method": "rhf"
			},
			{
				"type": "occ",
				"energy": -0.21288,
				"method": "rhf"
			},
			{
				"type": "unocc",
				"energy": -0.05571,
				"method": "rhf"
			},
			{
				"type": "unocc",
				"energy": -0.00689,
				"method": "rhf"
			},
			{
				"type": "unocc",
				"energy": -0.00163,
				"method": "rhf"
			},
			{
				"type": "unocc",
				"energy": 0.0196,
				"method": "rhf"
			},
			{
				"type": "unocc",
				"energy": 0.04554,
				"method": "rhf"
			}
		],
		"cosmo_sigma_profile": { 
			"-0.025": 0.0,
			"-0.024": 0.0,
			"-0.023": 0.0,
			"-0.022": 0.0,
			"-0.021": 0.0,
			"-0.02": 0.0,
			"-0.019": 0.0,
			"-0.018": 0.0,
			"-0.017": 0.150110561674,
			"-0.016": 0.686465018902,
			"-0.015": 0.687060161907,
			"-0.014": 0.893276177366,
			"-0.013": 0.603507479126,
			"-0.012": 0.634282982937,
			"-0.011": 1.1361378628,
			"-0.01": 2.95490869966,
			"-0.009": 2.59038826833,
			"-0.008": 6.24103100755,
			"-0.007": 6.49344389878,
			"-0.006": 13.94638251,
			"-0.005": 15.8160628633,
			"-0.004": 17.1541080477,
			"-0.003": 17.5855729082,
			"-0.002": 15.945185352,
			"-0.001": 16.330265312,
			"0.0": 19.3336386047,
			"0.001": 17.7989796023,
			"0.002": 16.5246565615,
			"0.003": 15.7887997354,
			"0.004": 17.4631526896,
			"0.005": 17.1342874516,
			"0.006": 8.33821244726,
			"0.007": 4.97578328791,
			"0.008": 4.06661557747,
			"0.009": 4.7349410371,
			"0.01": 4.33498200926,
			"0.011": 3.43956469003,
			"0.012": 2.5667205977,
			"0.013": 1.28445084111,
			"0.014": 0.0,
			"0.015": 0.0,
			"0.016": 0.0,
			"0.017": 0.0,
			"0.018": 0.0,
			"0.019": 0.0,
			"0.02": 0.0,
			"0.021": 0.0,
			"0.022": 0.0,
			"0.023": 0.0,
			"0.024": 0.0,
			"0.025": 0.0
		}
	}
}
