{
	 "smiles": "CC1=CC(=O)NC2=C1C=NN2C1CCCC1", 
	 "Tm": 533.15, 
	 "num_atms": 31, 
	 "gaussian": { 
		 "optdone": 1, 
		 "sigma_profile": "yes", 
		 "theory": "DFT", 
		 "functional": "B3LYP", 
		 "basiset": "6-31G**", 
		 "properties": { 
			 "R2extent": 5148.464, 
			 "electric_dipole_moment_norm": 3.25786798535, 
			 "electric_quadrupole_moment_norm": 25.4248369474, 
			 "total_energy": -705.804726687, 
			 "HOMO_LUMO_gap": 0.17665, 
			 "cosmo_polarized_energy": -15.55, 
			 "cosmo_cavitation_energy": 33.12, 
			 "cosmo_dispersion_energy": -24.05, 
			 "cosmo_repulsion_energy": 1.88, 
			 "cosmo_total_nonelectrostatic_energy": 10.95, 
			 "SMD_solvation_energy": 4.98 
		},
		"coords": [
			{
				"x": 1.9092770163,
				"y": -1.3863328805,
				"z": 4.1446209737,
				"element": "C" 
			},
			{
				"x": 1.8631083908,
				"y": -1.4586638526,
				"z": 2.6422778434,
				"element": "C" 
			},
			{
				"x": 2.9964915696,
				"y": -1.5410782944,
				"z": 1.8809376879,
				"element": "C" 
			},
			{
				"x": 3.0006302513,
				"y": -1.6125922401,
				"z": 0.4224012821,
				"element": "C" 
			},
			{
				"x": 3.9943037813,
				"y": -1.686069351,
				"z": -0.2922275498,
				"element": "O" 
			},
			{
				"x": 1.7170475678,
				"y": -1.5913277516,
				"z": -0.1786302366,
				"element": "N" 
			},
			{
				"x": 0.5767465148,
				"y": -1.5103063294,
				"z": 0.5652000983,
				"element": "C" 
			},
			{
				"x": 0.5998530706,
				"y": -1.4423835227,
				"z": 1.9622811062,
				"element": "C" 
			},
			{
				"x": -0.7750826763,
				"y": -1.372177274,
				"z": 2.3123049074,
				"element": "C" 
			},
			{
				"x": -1.5604945814,
				"y": -1.3936681915,
				"z": 1.2456908381,
				"element": "N" 
			},
			{
				"x": -0.7157782553,
				"y": -1.4799191018,
				"z": 0.164059244,
				"element": "N" 
			},
			{
				"x": -1.2729590365,
				"y": -1.5288641902,
				"z": -1.1863425662,
				"element": "C" 
			},
			{
				"x": -2.0564331931,
				"y": -0.2347532991,
				"z": -1.5458302519,
				"element": "C" 
			},
			{
				"x": -3.2870634884,
				"y": -0.7198326065,
				"z": -2.3295694129,
				"element": "C" 
			},
			{
				"x": -3.6472050931,
				"y": -2.0398811187,
				"z": -1.6278369109,
				"element": "C" 
			},
			{
				"x": -2.27956256,
				"y": -2.7050425288,
				"z": -1.3850389021,
				"element": "C" 
			},
			{
				"x": 1.4328203003,
				"y": -0.4667936282,
				"z": 4.5041897745,
				"element": "H" 
			},
			{
				"x": 1.3626633059,
				"y": -2.2252349993,
				"z": 4.5910546536,
				"element": "H" 
			},
			{
				"x": 2.9365688611,
				"y": -1.4090450704,
				"z": 4.5146540173,
				"element": "H" 
			},
			{
				"x": 3.9798347487,
				"y": -1.5573873354,
				"z": 2.337193782,
				"element": "H" 
			},
			{
				"x": 1.7149131764,
				"y": -1.6372731493,
				"z": -1.188893159,
				"element": "H" 
			},
			{
				"x": -1.2175963133,
				"y": -1.3071842236,
				"z": 3.2975698266,
				"element": "H" 
			},
			{
				"x": -0.4161462246,
				"y": -1.6566676241,
				"z": -1.8546381489,
				"element": "H" 
			},
			{
				"x": -1.4401204413,
				"y": 0.4859546894,
				"z": -2.0914666607,
				"element": "H" 
			},
			{
				"x": -2.3752538705,
				"y": 0.2353237996,
				"z": -0.6108326148,
				"element": "H" 
			},
			{
				"x": -3.0252118937,
				"y": -0.9096260245,
				"z": -3.378825576,
				"element": "H" 
			},
			{
				"x": -4.101486957,
				"y": 0.0109606254,
				"z": -2.3241884771,
				"element": "H" 
			},
			{
				"x": -4.1286343813,
				"y": -1.8263056597,
				"z": -0.6670261262,
				"element": "H" 
			},
			{
				"x": -4.3261908629,
				"y": -2.670047069,
				"z": -2.2102008235,
				"element": "H" 
			},
			{
				"x": -1.9807418902,
				"y": -3.2875247383,
				"z": -2.2636766462,
				"element": "H" 
			},
			{
				"x": -2.2747968359,
				"y": -3.3764570596,
				"z": -0.524111972,
				"element": "H" 
			}
		],
		 "valence_orbital": [ 
			{
				"type": "occ",
				"energy": -0.29647,
				"method": "rhf"
			},
			{
				"type": "occ",
				"energy": -0.29592,
				"method": "rhf"
			},
			{
				"type": "occ",
				"energy": -0.24783,
				"method": "rhf"
			},
			{
				"type": "occ",
				"energy": -0.24164,
				"method": "rhf"
			},
			{
				"type": "occ",
				"energy": -0.20886,
				"method": "rhf"
			},
			{
				"type": "unocc",
				"energy": -0.03221,
				"method": "rhf"
			},
			{
				"type": "unocc",
				"energy": 0.01715,
				"method": "rhf"
			},
			{
				"type": "unocc",
				"energy": 0.05038,
				"method": "rhf"
			},
			{
				"type": "unocc",
				"energy": 0.05637,
				"method": "rhf"
			},
			{
				"type": "unocc",
				"energy": 0.08615,
				"method": "rhf"
			}
		],
		"cosmo_sigma_profile": { 
			"-0.025": 0.0,
			"-0.024": 0.0,
			"-0.023": 0.0,
			"-0.022": 0.0,
			"-0.021": 0.0,
			"-0.02": 0.0,
			"-0.019": 0.0,
			"-0.018": 0.0,
			"-0.017": 0.0,
			"-0.016": 0.452125366319,
			"-0.015": 1.12501272513,
			"-0.014": 1.54072209515,
			"-0.013": 1.75202566013,
			"-0.012": 0.760268341646,
			"-0.011": 1.16314174457,
			"-0.01": 1.52265809971,
			"-0.009": 1.65362567653,
			"-0.008": 1.85930050255,
			"-0.007": 3.45305097247,
			"-0.006": 5.25732498026,
			"-0.005": 11.9670387544,
			"-0.004": 17.9989954735,
			"-0.003": 25.0442053846,
			"-0.002": 28.1311726304,
			"-0.001": 32.2525377865,
			"0.0": 33.7821961555,
			"0.001": 23.1607761888,
			"0.002": 12.5444998319,
			"0.003": 12.6833456059,
			"0.004": 6.25028288498,
			"0.005": 4.09482328958,
			"0.006": 3.82246682657,
			"0.007": 2.62994123119,
			"0.008": 2.33379561586,
			"0.009": 2.07849924362,
			"0.01": 3.45183744012,
			"0.011": 2.75386462768,
			"0.012": 2.42718139493,
			"0.013": 3.51216531115,
			"0.014": 6.56481146275,
			"0.015": 2.73085523531,
			"0.016": 0.144562945252,
			"0.017": 0.0,
			"0.018": 0.0,
			"0.019": 0.0,
			"0.02": 0.0,
			"0.021": 0.0,
			"0.022": 0.0,
			"0.023": 0.0,
			"0.024": 0.0,
			"0.025": 0.0
		}
	}
}
