{
	 "smiles": "C=CC(=O)NCC1CCCCC1", 
	 "Tm": 321.15, 
	 "num_atms": 29, 
	 "gaussian": { 
		 "optdone": 1, 
		 "sigma_profile": "yes", 
		 "theory": "DFT", 
		 "functional": "B3LYP", 
		 "basiset": "6-31G**", 
		 "properties": { 
			 "R2extent": 2937.7191, 
			 "electric_dipole_moment_norm": 3.52200323964, 
			 "electric_quadrupole_moment_norm": 12.8838879163, 
			 "total_energy": -521.287308834, 
			 "HOMO_LUMO_gap": 0.21416, 
			 "cosmo_polarized_energy": -11.08, 
			 "cosmo_cavitation_energy": 30.08, 
			 "cosmo_dispersion_energy": -21.07, 
			 "cosmo_repulsion_energy": 1.7, 
			 "cosmo_total_nonelectrostatic_energy": 10.71, 
			 "SMD_solvation_energy": 5.32 
		},
		"coords": [
			{
				"x": -1.9434612484,
				"y": -0.8285883027,
				"z": -3.4886867201,
				"element": "C" 
			},
			{
				"x": -0.7894247964,
				"y": -0.3395217114,
				"z": -3.9490023214,
				"element": "C" 
			},
			{
				"x": 0.4378670911,
				"y": -0.0681811512,
				"z": -3.1346795403,
				"element": "C" 
			},
			{
				"x": 1.2122283172,
				"y": 0.8290804768,
				"z": -3.4566880197,
				"element": "O" 
			},
			{
				"x": 0.6218289652,
				"y": -0.8614984498,
				"z": -2.0328023057,
				"element": "N" 
			},
			{
				"x": 1.7832877293,
				"y": -0.7384366385,
				"z": -1.1602923246,
				"element": "C" 
			},
			{
				"x": 1.4591637574,
				"y": -0.2365616638,
				"z": 0.2594406118,
				"element": "C" 
			},
			{
				"x": 0.4689648708,
				"y": -1.1453322716,
				"z": 1.0071814968,
				"element": "C" 
			},
			{
				"x": 0.3509948372,
				"y": -0.7518326324,
				"z": 2.4989869754,
				"element": "C" 
			},
			{
				"x": 0.5363921117,
				"y": 0.7690707511,
				"z": 2.7228556788,
				"element": "C" 
			},
			{
				"x": 0.0849604974,
				"y": 1.5657465046,
				"z": 1.492076864,
				"element": "C" 
			},
			{
				"x": 0.9566227703,
				"y": 1.2304598993,
				"z": 0.2597899539,
				"element": "C" 
			},
			{
				"x": -2.0866673243,
				"y": -1.0979926669,
				"z": -2.4452507539,
				"element": "H" 
			},
			{
				"x": -2.8051091657,
				"y": -0.9502573868,
				"z": -4.1380463548,
				"element": "H" 
			},
			{
				"x": -0.6939644045,
				"y": -0.0179728288,
				"z": -4.9826150743,
				"element": "H" 
			},
			{
				"x": 0.0209057098,
				"y": -1.6635772849,
				"z": -1.9239045989,
				"element": "H" 
			},
			{
				"x": 2.4650233357,
				"y": -0.0449151164,
				"z": -1.6593789515,
				"element": "H" 
			},
			{
				"x": 2.2814186591,
				"y": -1.7149692796,
				"z": -1.0973917289,
				"element": "H" 
			},
			{
				"x": 2.4130844201,
				"y": -0.2777586695,
				"z": 0.8062414921,
				"element": "H" 
			},
			{
				"x": -0.5144136392,
				"y": -1.0658351763,
				"z": 0.5246395813,
				"element": "H" 
			},
			{
				"x": 0.7704130194,
				"y": -2.1976130039,
				"z": 0.9212564573,
				"element": "H" 
			},
			{
				"x": 1.0969744017,
				"y": -1.3004355621,
				"z": 3.0863361494,
				"element": "H" 
			},
			{
				"x": -0.628369548,
				"y": -1.0685666268,
				"z": 2.8771046628,
				"element": "H" 
			},
			{
				"x": 1.5937248665,
				"y": 0.9909773571,
				"z": 2.9186390864,
				"element": "H" 
			},
			{
				"x": -0.0114401121,
				"y": 1.0875718399,
				"z": 3.6168011241,
				"element": "H" 
			},
			{
				"x": -0.9668398042,
				"y": 1.3299147748,
				"z": 1.2819633213,
				"element": "H" 
			},
			{
				"x": 0.1189735504,
				"y": 2.6424312132,
				"z": 1.6925496659,
				"element": "H" 
			},
			{
				"x": 0.3874260718,
				"y": 1.4242160337,
				"z": -0.6556399355,
				"element": "H" 
			},
			{
				"x": 1.8249350607,
				"y": 1.899277573,
				"z": 0.2240155079,
				"element": "H" 
			}
		],
		 "valence_orbital": [ 
			{
				"type": "occ",
				"energy": -0.29658,
				"method": "rhf"
			},
			{
				"type": "occ",
				"energy": -0.29392,
				"method": "rhf"
			},
			{
				"type": "occ",
				"energy": -0.28121,
				"method": "rhf"
			},
			{
				"type": "occ",
				"energy": -0.24752,
				"method": "rhf"
			},
			{
				"type": "occ",
				"energy": -0.24533,
				"method": "rhf"
			},
			{
				"type": "unocc",
				"energy": -0.03117,
				"method": "rhf"
			},
			{
				"type": "unocc",
				"energy": 0.06554,
				"method": "rhf"
			},
			{
				"type": "unocc",
				"energy": 0.07834,
				"method": "rhf"
			},
			{
				"type": "unocc",
				"energy": 0.08939,
				"method": "rhf"
			},
			{
				"type": "unocc",
				"energy": 0.104,
				"method": "rhf"
			}
		],
		"cosmo_sigma_profile": { 
			"-0.025": 0.0,
			"-0.024": 0.0,
			"-0.023": 0.0,
			"-0.022": 0.0,
			"-0.021": 0.0,
			"-0.02": 0.0,
			"-0.019": 0.0,
			"-0.018": 0.0,
			"-0.017": 0.0,
			"-0.016": 0.0,
			"-0.015": 0.0,
			"-0.014": 0.0300552708806,
			"-0.013": 0.557512451548,
			"-0.012": 0.647210890499,
			"-0.011": 1.15136417172,
			"-0.01": 1.40753342275,
			"-0.009": 1.50816742024,
			"-0.008": 1.50656354458,
			"-0.007": 3.55278878336,
			"-0.006": 6.01854407558,
			"-0.005": 6.0637525405,
			"-0.004": 10.6708547323,
			"-0.003": 13.120563625,
			"-0.002": 32.2406472758,
			"-0.001": 41.076635784,
			"0.0": 35.4444848498,
			"0.001": 28.1849638115,
			"0.002": 15.7509982666,
			"0.003": 5.3382868912,
			"0.004": 5.1755641877,
			"0.005": 2.6048012235,
			"0.006": 2.28919251875,
			"0.007": 1.64035195808,
			"0.008": 1.98395268751,
			"0.009": 1.06225568969,
			"0.01": 1.17424901516,
			"0.011": 1.77424736038,
			"0.012": 1.72881721864,
			"0.013": 1.91846192786,
			"0.014": 5.60292903191,
			"0.015": 2.05340190339,
			"0.016": 0.0597985225511,
			"0.017": 0.0,
			"0.018": 0.0,
			"0.019": 0.0,
			"0.02": 0.0,
			"0.021": 0.0,
			"0.022": 0.0,
			"0.023": 0.0,
			"0.024": 0.0,
			"0.025": 0.0
		}
	}
}
