{
	 "smiles": "NNC(=O)CN1C(=O)COC2=C1C=CC=C2", 
	 "Tm": 426.15, 
	 "num_atms": 27, 
	 "gaussian": { 
		 "optdone": 1, 
		 "sigma_profile": "yes", 
		 "theory": "DFT", 
		 "functional": "B3LYP", 
		 "basiset": "6-31G**", 
		 "properties": { 
			 "R2extent": 3516.2013, 
			 "electric_dipole_moment_norm": 2.50998810555, 
			 "electric_quadrupole_moment_norm": 3.50032986731, 
			 "total_energy": -777.600663805, 
			 "HOMO_LUMO_gap": 0.19774, 
			 "cosmo_polarized_energy": -17.06, 
			 "cosmo_cavitation_energy": 30.97, 
			 "cosmo_dispersion_energy": -22.02, 
			 "cosmo_repulsion_energy": 1.73, 
			 "cosmo_total_nonelectrostatic_energy": 10.67, 
			 "SMD_solvation_energy": 7.2 
		},
		"coords": [
			{
				"x": 0.7947853362,
				"y": -3.0967585138,
				"z": -2.4167242905,
				"element": "N" 
			},
			{
				"x": 0.8858737897,
				"y": -1.8744668508,
				"z": -1.72661435,
				"element": "N" 
			},
			{
				"x": 1.3743585846,
				"y": -1.7914887042,
				"z": -0.4600719113,
				"element": "C" 
			},
			{
				"x": 1.7639508835,
				"y": -2.7678173972,
				"z": 0.1688141642,
				"element": "O" 
			},
			{
				"x": 1.4665260781,
				"y": -0.3787376852,
				"z": 0.1257300818,
				"element": "C" 
			},
			{
				"x": 0.368751538,
				"y": 0.5146574351,
				"z": -0.2369792094,
				"element": "N" 
			},
			{
				"x": 0.6742807107,
				"y": 1.7012046743,
				"z": -0.8803789132,
				"element": "C" 
			},
			{
				"x": 1.8013208482,
				"y": 2.0005554009,
				"z": -1.2447822487,
				"element": "O" 
			},
			{
				"x": -0.5007465917,
				"y": 2.6516707231,
				"z": -1.0658707693,
				"element": "C" 
			},
			{
				"x": -1.7484254671,
				"y": 1.991488008,
				"z": -1.2481719195,
				"element": "O" 
			},
			{
				"x": -2.0058853939,
				"y": 1.0185434152,
				"z": -0.3151966626,
				"element": "C" 
			},
			{
				"x": -0.9527343712,
				"y": 0.2528029696,
				"z": 0.2170863554,
				"element": "C" 
			},
			{
				"x": -1.2494932628,
				"y": -0.7660080725,
				"z": 1.1293709309,
				"element": "C" 
			},
			{
				"x": -2.5739579132,
				"y": -1.0129680789,
				"z": 1.4976480928,
				"element": "C" 
			},
			{
				"x": -3.6108617746,
				"y": -0.2511142563,
				"z": 0.9604410055,
				"element": "C" 
			},
			{
				"x": -3.3238523095,
				"y": 0.7708162686,
				"z": 0.054245439,
				"element": "C" 
			},
			{
				"x": 0.1688550098,
				"y": -3.7034409155,
				"z": -1.8867655599,
				"element": "H" 
			},
			{
				"x": 1.710787743,
				"y": -3.5420469145,
				"z": -2.3642069102,
				"element": "H" 
			},
			{
				"x": 0.5845132389,
				"y": -1.0579552022,
				"z": -2.2362021971,
				"element": "H" 
			},
			{
				"x": 1.5438103034,
				"y": -0.4866390986,
				"z": 1.210688416,
				"element": "H" 
			},
			{
				"x": 2.379991875,
				"y": 0.100315835,
				"z": -0.2358015908,
				"element": "H" 
			},
			{
				"x": -0.3174063691,
				"y": 3.2497141593,
				"z": -1.9583459006,
				"element": "H" 
			},
			{
				"x": -0.5422214428,
				"y": 3.3241741136,
				"z": -0.1942508926,
				"element": "H" 
			},
			{
				"x": -0.4584563767,
				"y": -1.3851749571,
				"z": 1.5361472201,
				"element": "H" 
			},
			{
				"x": -2.7874944395,
				"y": -1.8096734686,
				"z": 2.202931853,
				"element": "H" 
			},
			{
				"x": -4.6399195664,
				"y": -0.4446458956,
				"z": 1.2460795754,
				"element": "H" 
			},
			{
				"x": -4.1048506608,
				"y": 1.3832930081,
				"z": -0.3839198086,
				"element": "H" 
			}
		],
		 "valence_orbital": [ 
			{
				"type": "occ",
				"energy": -0.27442,
				"method": "rhf"
			},
			{
				"type": "occ",
				"energy": -0.26711,
				"method": "rhf"
			},
			{
				"type": "occ",
				"energy": -0.26425,
				"method": "rhf"
			},
			{
				"type": "occ",
				"energy": -0.24888,
				"method": "rhf"
			},
			{
				"type": "occ",
				"energy": -0.22426,
				"method": "rhf"
			},
			{
				"type": "unocc",
				"energy": -0.02652,
				"method": "rhf"
			},
			{
				"type": "unocc",
				"energy": -0.01212,
				"method": "rhf"
			},
			{
				"type": "unocc",
				"energy": 0.01496,
				"method": "rhf"
			},
			{
				"type": "unocc",
				"energy": 0.01794,
				"method": "rhf"
			},
			{
				"type": "unocc",
				"energy": 0.07746,
				"method": "rhf"
			}
		],
		"cosmo_sigma_profile": { 
			"-0.025": 0.0,
			"-0.024": 0.0,
			"-0.023": 0.0,
			"-0.022": 0.0,
			"-0.021": 0.0,
			"-0.02": 0.0,
			"-0.019": 0.0,
			"-0.018": 0.0,
			"-0.017": 0.0,
			"-0.016": 0.0,
			"-0.015": 0.0,
			"-0.014": 0.561092876858,
			"-0.013": 0.71575224318,
			"-0.012": 1.3751338678,
			"-0.011": 3.70121573338,
			"-0.01": 3.70768161711,
			"-0.009": 3.98697524894,
			"-0.008": 7.83846076668,
			"-0.007": 11.870471731,
			"-0.006": 18.2870653619,
			"-0.005": 17.7236745405,
			"-0.004": 18.2986790823,
			"-0.003": 15.1207131613,
			"-0.002": 12.5664639538,
			"-0.001": 12.254203135,
			"0.0": 11.6867352534,
			"0.001": 12.0643365326,
			"0.002": 13.0158565915,
			"0.003": 13.5244345796,
			"0.004": 12.3217677946,
			"0.005": 10.4655421504,
			"0.006": 4.41636700589,
			"0.007": 4.40055093778,
			"0.008": 3.85132436007,
			"0.009": 3.93000096444,
			"0.01": 5.10743202619,
			"0.011": 4.96453431818,
			"0.012": 7.20943324186,
			"0.013": 6.13629858417,
			"0.014": 3.38211997949,
			"0.015": 0.674245736032,
			"0.016": 0.66342604671,
			"0.017": 0.0206366782643,
			"0.018": 0.0,
			"0.019": 0.0,
			"0.02": 0.0,
			"0.021": 0.0,
			"0.022": 0.0,
			"0.023": 0.0,
			"0.024": 0.0,
			"0.025": 0.0
		}
	}
}
