{
	 "smiles": "OC(=O)C1(CC1)C1=CC=C(F)C=C1", 
	 "Tm": 400.15, 
	 "num_atms": 22, 
	 "gaussian": { 
		 "optdone": 1, 
		 "sigma_profile": "yes", 
		 "theory": "DFT", 
		 "functional": "B3LYP", 
		 "basiset": "6-31G**", 
		 "properties": { 
			 "R2extent": 2739.5736, 
			 "electric_dipole_moment_norm": 3.74081649376, 
			 "electric_quadrupole_moment_norm": 13.2397946914, 
			 "total_energy": -636.753876396, 
			 "HOMO_LUMO_gap": 0.21896, 
			 "cosmo_polarized_energy": -12.07, 
			 "cosmo_cavitation_energy": 26.57, 
			 "cosmo_dispersion_energy": -18.63, 
			 "cosmo_repulsion_energy": 1.44, 
			 "cosmo_total_nonelectrostatic_energy": 9.38, 
			 "SMD_solvation_energy": 6.04 
		},
		"coords": [
			{
				"x": 1.9109310583,
				"y": -0.6919692383,
				"z": 1.4225860458,
				"element": "O" 
			},
			{
				"x": 1.3479372039,
				"y": 0.5363635865,
				"z": 1.3550923499,
				"element": "C" 
			},
			{
				"x": 1.7511868564,
				"y": 1.4351922003,
				"z": 2.0571512376,
				"element": "O" 
			},
			{
				"x": 0.2104484742,
				"y": 0.7059094011,
				"z": 0.3684318767,
				"element": "C" 
			},
			{
				"x": -0.8449529552,
				"y": 1.7131407295,
				"z": 0.8152212506,
				"element": "C" 
			},
			{
				"x": 0.1319627502,
				"y": 2.1012721483,
				"z": -0.2439189614,
				"element": "C" 
			},
			{
				"x": -0.1995125115,
				"y": -0.4901328339,
				"z": -0.4477663607,
				"element": "C" 
			},
			{
				"x": -1.1716843511,
				"y": -1.3869410153,
				"z": 0.0270980103,
				"element": "C" 
			},
			{
				"x": -1.5365881237,
				"y": -2.5139031525,
				"z": -0.7086183976,
				"element": "C" 
			},
			{
				"x": -0.9150819905,
				"y": -2.7414348322,
				"z": -1.9319742448,
				"element": "C" 
			},
			{
				"x": -1.2641014329,
				"y": -3.8255730293,
				"z": -2.6507917485,
				"element": "F" 
			},
			{
				"x": 0.0562786763,
				"y": -1.8822317158,
				"z": -2.434729863,
				"element": "C" 
			},
			{
				"x": 0.4087027716,
				"y": -0.7601700977,
				"z": -1.6854728732,
				"element": "C" 
			},
			{
				"x": 1.4678162358,
				"y": -1.2857367962,
				"z": 0.7958566895,
				"element": "H" 
			},
			{
				"x": -0.7104878193,
				"y": 2.1368468813,
				"z": 1.8043286613,
				"element": "H" 
			},
			{
				"x": -1.8690829582,
				"y": 1.5058308207,
				"z": 0.5216443572,
				"element": "H" 
			},
			{
				"x": -0.2163695155,
				"y": 2.1627171832,
				"z": -1.2700255046,
				"element": "H" 
			},
			{
				"x": 0.9260898943,
				"y": 2.7869502594,
				"z": 0.0302489036,
				"element": "H" 
			},
			{
				"x": -1.6522476218,
				"y": -1.1930086613,
				"z": 0.9818251894,
				"element": "H" 
			},
			{
				"x": -2.2897518175,
				"y": -3.2082662996,
				"z": -0.3523776953,
				"element": "H" 
			},
			{
				"x": 0.5164761975,
				"y": -2.0953841123,
				"z": -3.3934161947,
				"element": "H" 
			},
			{
				"x": 1.1618309788,
				"y": -0.0769714261,
				"z": -2.0676927279,
				"element": "H" 
			}
		],
		 "valence_orbital": [ 
			{
				"type": "occ",
				"energy": -0.31698,
				"method": "rhf"
			},
			{
				"type": "occ",
				"energy": -0.29551,
				"method": "rhf"
			},
			{
				"type": "occ",
				"energy": -0.2809,
				"method": "rhf"
			},
			{
				"type": "occ",
				"energy": -0.28016,
				"method": "rhf"
			},
			{
				"type": "occ",
				"energy": -0.25129,
				"method": "rhf"
			},
			{
				"type": "unocc",
				"energy": -0.03233,
				"method": "rhf"
			},
			{
				"type": "unocc",
				"energy": -0.02467,
				"method": "rhf"
			},
			{
				"type": "unocc",
				"energy": 0.01186,
				"method": "rhf"
			},
			{
				"type": "unocc",
				"energy": 0.07486,
				"method": "rhf"
			},
			{
				"type": "unocc",
				"energy": 0.08954,
				"method": "rhf"
			}
		],
		"cosmo_sigma_profile": { 
			"-0.025": 0.0,
			"-0.024": 0.0,
			"-0.023": 0.0,
			"-0.022": 0.0,
			"-0.021": 0.0,
			"-0.02": 0.0,
			"-0.019": 0.0,
			"-0.018": 0.0,
			"-0.017": 0.0,
			"-0.016": 0.0,
			"-0.015": 0.125670340245,
			"-0.014": 0.386706225114,
			"-0.013": 0.230934470869,
			"-0.012": 0.751256093007,
			"-0.011": 1.2476650762,
			"-0.01": 0.5305118231,
			"-0.009": 0.946191242503,
			"-0.008": 1.9365629212,
			"-0.007": 6.69338234987,
			"-0.006": 11.1007401527,
			"-0.005": 17.3295174714,
			"-0.004": 17.3593774461,
			"-0.003": 18.0543445407,
			"-0.002": 14.4412795233,
			"-0.001": 16.4339942559,
			"0.0": 15.8455572831,
			"0.001": 15.9315795128,
			"0.002": 14.9809710697,
			"0.003": 13.0215612011,
			"0.004": 13.3534572312,
			"0.005": 4.41283046018,
			"0.006": 2.89460919496,
			"0.007": 1.86248252034,
			"0.008": 2.06373809135,
			"0.009": 3.48035557536,
			"0.01": 4.21039260234,
			"0.011": 4.02688021821,
			"0.012": 5.00492394009,
			"0.013": 2.8490345632,
			"0.014": 0.445508559759,
			"0.015": 0.0,
			"0.016": 0.0,
			"0.017": 0.0,
			"0.018": 0.0,
			"0.019": 0.0,
			"0.02": 0.0,
			"0.021": 0.0,
			"0.022": 0.0,
			"0.023": 0.0,
			"0.024": 0.0,
			"0.025": 0.0
		}
	}
}
