{
	 "smiles": "CC(OC1=CC=C(O)C=C1)C(N)=O", 
	 "Tm": 412.15, 
	 "num_atms": 24, 
	 "gaussian": { 
		 "optdone": 1, 
		 "sigma_profile": "yes", 
		 "theory": "DFT", 
		 "functional": "B3LYP", 
		 "basiset": "6-31G**", 
		 "properties": { 
			 "R2extent": 3838.5077, 
			 "electric_dipole_moment_norm": 3.82131349277, 
			 "electric_quadrupole_moment_norm": 16.7162143415, 
			 "total_energy": -630.003543108, 
			 "HOMO_LUMO_gap": 0.20814, 
			 "cosmo_polarized_energy": -20.03, 
			 "cosmo_cavitation_energy": 27.64, 
			 "cosmo_dispersion_energy": -19.91, 
			 "cosmo_repulsion_energy": 1.6, 
			 "cosmo_total_nonelectrostatic_energy": 9.33, 
			 "SMD_solvation_energy": 5.69 
		},
		"coords": [
			{
				"x": 0.2319773194,
				"y": 0.9665367791,
				"z": -0.6871442197,
				"element": "C" 
			},
			{
				"x": -0.7447222375,
				"y": -0.0498522144,
				"z": -0.0923494066,
				"element": "C" 
			},
			{
				"x": -0.2810555498,
				"y": -0.5811694147,
				"z": 1.1545607944,
				"element": "O" 
			},
			{
				"x": 0.8217786459,
				"y": -1.4241162151,
				"z": 1.1376452053,
				"element": "C" 
			},
			{
				"x": 0.6521027354,
				"y": -2.802596708,
				"z": 0.9813378107,
				"element": "C" 
			},
			{
				"x": 1.7567785734,
				"y": -3.6518902367,
				"z": 1.0487333114,
				"element": "C" 
			},
			{
				"x": 3.0343596615,
				"y": -3.1319536291,
				"z": 1.282260825,
				"element": "C" 
			},
			{
				"x": 4.151769729,
				"y": -3.9185067083,
				"z": 1.3585658054,
				"element": "O" 
			},
			{
				"x": 3.2021939103,
				"y": -1.7538160957,
				"z": 1.455577295,
				"element": "C" 
			},
			{
				"x": 2.0984379573,
				"y": -0.9071156607,
				"z": 1.3857406526,
				"element": "C" 
			},
			{
				"x": -1.2133901802,
				"y": -1.1862222207,
				"z": -1.0383968606,
				"element": "C" 
			},
			{
				"x": -0.7648802919,
				"y": -1.1395330942,
				"z": -2.3274888883,
				"element": "N" 
			},
			{
				"x": -1.9887753589,
				"y": -2.0464859026,
				"z": -0.6491141017,
				"element": "O" 
			},
			{
				"x": -0.2053171336,
				"y": 1.4630380312,
				"z": -1.5596447725,
				"element": "H" 
			},
			{
				"x": 0.4515825333,
				"y": 1.7351505928,
				"z": 0.0583064299,
				"element": "H" 
			},
			{
				"x": 1.1805034713,
				"y": 0.5028030376,
				"z": -0.9768692787,
				"element": "H" 
			},
			{
				"x": -1.6679139763,
				"y": 0.4711858575,
				"z": 0.1844075847,
				"element": "H" 
			},
			{
				"x": -0.3442574225,
				"y": -3.1921997743,
				"z": 0.8091738337,
				"element": "H" 
			},
			{
				"x": 1.6203881128,
				"y": -4.7249789241,
				"z": 0.9282770274,
				"element": "H" 
			},
			{
				"x": 3.8935871453,
				"y": -4.8424117659,
				"z": 1.2469042092,
				"element": "H" 
			},
			{
				"x": 4.196418219,
				"y": -1.3662874534,
				"z": 1.6521096991,
				"element": "H" 
			},
			{
				"x": 2.2157412295,
				"y": 0.1600999976,
				"z": 1.5439398352,
				"element": "H" 
			},
			{
				"x": -0.0122851585,
				"y": -0.5389813311,
				"z": -2.6197998202,
				"element": "H" 
			},
			{
				"x": -1.0329219343,
				"y": -1.9027969466,
				"z": -2.9314329705,
				"element": "H" 
			}
		],
		 "valence_orbital": [ 
			{
				"type": "occ",
				"energy": -0.27796,
				"method": "rhf"
			},
			{
				"type": "occ",
				"energy": -0.27073,
				"method": "rhf"
			},
			{
				"type": "occ",
				"energy": -0.25131,
				"method": "rhf"
			},
			{
				"type": "occ",
				"energy": -0.2452,
				"method": "rhf"
			},
			{
				"type": "occ",
				"energy": -0.21199,
				"method": "rhf"
			},
			{
				"type": "unocc",
				"energy": -0.00385,
				"method": "rhf"
			},
			{
				"type": "unocc",
				"energy": 0.0138,
				"method": "rhf"
			},
			{
				"type": "unocc",
				"energy": 0.01857,
				"method": "rhf"
			},
			{
				"type": "unocc",
				"energy": 0.068,
				"method": "rhf"
			},
			{
				"type": "unocc",
				"energy": 0.07225,
				"method": "rhf"
			}
		],
		"cosmo_sigma_profile": { 
			"-0.025": 0.0,
			"-0.024": 0.0,
			"-0.023": 0.0,
			"-0.022": 0.0,
			"-0.021": 0.0,
			"-0.02": 0.0,
			"-0.019": 0.0,
			"-0.018": 0.294293582221,
			"-0.017": 1.0638422731,
			"-0.016": 1.09366724346,
			"-0.015": 1.08489666574,
			"-0.014": 2.30928413694,
			"-0.013": 3.32331233043,
			"-0.012": 3.28027531513,
			"-0.011": 3.00868846975,
			"-0.01": 4.07221357453,
			"-0.009": 3.14550694342,
			"-0.008": 3.43121326063,
			"-0.007": 5.35021882165,
			"-0.006": 10.019567844,
			"-0.005": 12.185753931,
			"-0.004": 14.8749033684,
			"-0.003": 13.5114048102,
			"-0.002": 12.5985411964,
			"-0.001": 13.8469046074,
			"0.0": 9.67761038963,
			"0.001": 8.29165276136,
			"0.002": 9.88354364953,
			"0.003": 11.4019007953,
			"0.004": 17.0818939493,
			"0.005": 14.4446990346,
			"0.006": 4.75072600996,
			"0.007": 4.28100383523,
			"0.008": 2.9182697026,
			"0.009": 3.69447061486,
			"0.01": 4.62578225697,
			"0.011": 4.76984303582,
			"0.012": 4.75644599781,
			"0.013": 4.07427918588,
			"0.014": 3.85699440594,
			"0.015": 0.964494526759,
			"0.016": 0.0,
			"0.017": 0.0,
			"0.018": 0.0,
			"0.019": 0.0,
			"0.02": 0.0,
			"0.021": 0.0,
			"0.022": 0.0,
			"0.023": 0.0,
			"0.024": 0.0,
			"0.025": 0.0
		}
	}
}
