{
	 "smiles": "CC(C)(C)C(=O)NC1=CNN=C1", 
	 "Tm": 474.15, 
	 "num_atms": 25, 
	 "gaussian": { 
		 "optdone": 1, 
		 "sigma_profile": "yes", 
		 "theory": "DFT", 
		 "functional": "B3LYP", 
		 "basiset": "6-31G**", 
		 "properties": { 
			 "R2extent": 2468.4071, 
			 "electric_dipole_moment_norm": 2.90531483492, 
			 "electric_quadrupole_moment_norm": 17.1691982501, 
			 "total_energy": -552.147224193, 
			 "HOMO_LUMO_gap": 0.21905, 
			 "cosmo_polarized_energy": -15.73, 
			 "cosmo_cavitation_energy": 26.86, 
			 "cosmo_dispersion_energy": -19.67, 
			 "cosmo_repulsion_energy": 1.55, 
			 "cosmo_total_nonelectrostatic_energy": 8.75, 
			 "SMD_solvation_energy": 4.78 
		},
		"coords": [
			{
				"x": 1.4101120305,
				"y": -1.933736774,
				"z": -1.0682407442,
				"element": "C" 
			},
			{
				"x": 1.6844339799,
				"y": -0.4799710507,
				"z": -0.6166487467,
				"element": "C" 
			},
			{
				"x": 1.0321777507,
				"y": 0.5698288156,
				"z": -1.5467832012,
				"element": "C" 
			},
			{
				"x": 3.2087291976,
				"y": -0.2547128864,
				"z": -0.6417833972,
				"element": "C" 
			},
			{
				"x": 1.203089351,
				"y": -0.2755311598,
				"z": 0.8324442548,
				"element": "C" 
			},
			{
				"x": 1.9870446936,
				"y": 0.0152355653,
				"z": 1.7299533998,
				"element": "O" 
			},
			{
				"x": -0.1327361727,
				"y": -0.4071840894,
				"z": 1.203529332,
				"element": "N" 
			},
			{
				"x": -1.3831544903,
				"y": -0.7058536033,
				"z": 0.6343645076,
				"element": "C" 
			},
			{
				"x": -2.5417167686,
				"y": -0.7362400975,
				"z": 1.4029306618,
				"element": "C" 
			},
			{
				"x": -3.5564866154,
				"y": -1.0517025686,
				"z": 0.5557380529,
				"element": "N" 
			},
			{
				"x": -3.1533852257,
				"y": -1.2306775975,
				"z": -0.7093187365,
				"element": "N" 
			},
			{
				"x": -1.8353501394,
				"y": -1.0237805409,
				"z": -0.676781792,
				"element": "C" 
			},
			{
				"x": 1.9960871321,
				"y": -2.6315386662,
				"z": -0.4613819369,
				"element": "H" 
			},
			{
				"x": 0.3641407039,
				"y": -2.2309138304,
				"z": -0.9877346503,
				"element": "H" 
			},
			{
				"x": 1.7174810747,
				"y": -2.0611161569,
				"z": -2.1118675757,
				"element": "H" 
			},
			{
				"x": -0.0578937127,
				"y": 0.5648582941,
				"z": -1.5219274794,
				"element": "H" 
			},
			{
				"x": 1.3611624606,
				"y": 1.5754554166,
				"z": -1.2656348435,
				"element": "H" 
			},
			{
				"x": 1.3466950674,
				"y": 0.3938404343,
				"z": -2.5811720711,
				"element": "H" 
			},
			{
				"x": 3.7238501717,
				"y": -0.9572550883,
				"z": 0.0170163441,
				"element": "H" 
			},
			{
				"x": 3.5804524791,
				"y": -0.3940451345,
				"z": -1.6627613869,
				"element": "H" 
			},
			{
				"x": 3.4656488987,
				"y": 0.7538332517,
				"z": -0.3104860114,
				"element": "H" 
			},
			{
				"x": -0.1828175541,
				"y": -0.2244258675,
				"z": 2.1989632771,
				"element": "H" 
			},
			{
				"x": -2.6978386917,
				"y": -0.559757922,
				"z": 2.4570833111,
				"element": "H" 
			},
			{
				"x": -4.5331288107,
				"y": -1.1576698527,
				"z": 0.7807720314,
				"element": "H" 
			},
			{
				"x": -1.2771968101,
				"y": -1.1128388909,
				"z": -1.5932725994,
				"element": "H" 
			}
		],
		 "valence_orbital": [ 
			{
				"type": "occ",
				"energy": -0.31607,
				"method": "rhf"
			},
			{
				"type": "occ",
				"energy": -0.29829,
				"method": "rhf"
			},
			{
				"type": "occ",
				"energy": -0.26411,
				"method": "rhf"
			},
			{
				"type": "occ",
				"energy": -0.24822,
				"method": "rhf"
			},
			{
				"type": "occ",
				"energy": -0.21412,
				"method": "rhf"
			},
			{
				"type": "unocc",
				"energy": 0.00493,
				"method": "rhf"
			},
			{
				"type": "unocc",
				"energy": 0.0127,
				"method": "rhf"
			},
			{
				"type": "unocc",
				"energy": 0.06916,
				"method": "rhf"
			},
			{
				"type": "unocc",
				"energy": 0.08356,
				"method": "rhf"
			},
			{
				"type": "unocc",
				"energy": 0.08954,
				"method": "rhf"
			}
		],
		"cosmo_sigma_profile": { 
			"-0.025": 0.0,
			"-0.024": 0.0,
			"-0.023": 0.0,
			"-0.022": 0.0,
			"-0.021": 0.0,
			"-0.02": 0.0,
			"-0.019": 0.0,
			"-0.018": 0.0254161010606,
			"-0.017": 1.06033050861,
			"-0.016": 1.86650509898,
			"-0.015": 1.19534660303,
			"-0.014": 1.41528386476,
			"-0.013": 1.8183919305,
			"-0.012": 2.49161375624,
			"-0.011": 2.32288953615,
			"-0.01": 3.36591390222,
			"-0.009": 3.59118914059,
			"-0.008": 3.29831623924,
			"-0.007": 3.19276798315,
			"-0.006": 2.84796574135,
			"-0.005": 4.53690408751,
			"-0.004": 8.01720972346,
			"-0.003": 20.7942903481,
			"-0.002": 21.6179095901,
			"-0.001": 20.5524561249,
			"0.0": 22.2160440353,
			"0.001": 18.9291476699,
			"0.002": 10.6777351534,
			"0.003": 9.46054144653,
			"0.004": 8.64778984663,
			"0.005": 3.50009900893,
			"0.006": 3.84738254877,
			"0.007": 3.41641093494,
			"0.008": 3.31615921164,
			"0.009": 2.46722221787,
			"0.01": 2.28610424278,
			"0.011": 2.92606730298,
			"0.012": 3.29567192026,
			"0.013": 5.64475499333,
			"0.014": 4.5349096838,
			"0.015": 1.19921145202,
			"0.016": 0.585467756452,
			"0.017": 0.00890657153939,
			"0.018": 0.0,
			"0.019": 0.0,
			"0.02": 0.0,
			"0.021": 0.0,
			"0.022": 0.0,
			"0.023": 0.0,
			"0.024": 0.0,
			"0.025": 0.0
		}
	}
}
