{
	 "smiles": "NC1=NN2C(NC(=O)C=C2C(F)(F)F)=C1N=NC1=C(Br)C=C(Br)C=C1Br", 
	 "Tm": 366.15, 
	 "num_atms": 32, 
	 "gaussian": { 
		 "optdone": 1, 
		 "sigma_profile": "yes", 
		 "theory": "DFT", 
		 "functional": "B3LYP", 
		 "basiset": "6-31G**", 
		 "properties": { 
			 "R2extent": 22260.6522, 
			 "electric_dipole_moment_norm": 3.19307854116, 
			 "electric_quadrupole_moment_norm": 8.01650745899, 
			 "total_energy": -8916.40554999, 
			 "HOMO_LUMO_gap": 0.13066, 
			 "cosmo_polarized_energy": -15.61, 
			 "cosmo_cavitation_energy": 47.0, 
			 "cosmo_dispersion_energy": -33.51, 
			 "cosmo_repulsion_energy": 2.45, 
			 "cosmo_total_nonelectrostatic_energy": 15.94, 
			 "SMD_solvation_energy": 4.84 
		},
		"coords": [
			{
				"x": 2.233250201,
				"y": 2.0673926724,
				"z": 1.4306374349,
				"element": "N" 
			},
			{
				"x": 1.4363483253,
				"y": 0.9752439933,
				"z": 1.5730731394,
				"element": "C" 
			},
			{
				"x": 1.7170052772,
				"y": -0.0145179115,
				"z": 2.4104052704,
				"element": "N" 
			},
			{
				"x": 0.6875118113,
				"y": -0.9296507357,
				"z": 2.1970008971,
				"element": "N" 
			},
			{
				"x": -0.2117956979,
				"y": -0.5100135677,
				"z": 1.2604304365,
				"element": "C" 
			},
			{
				"x": -1.2658409218,
				"y": -1.2908870656,
				"z": 0.9285295554,
				"element": "N" 
			},
			{
				"x": -1.5052647571,
				"y": -2.5604477841,
				"z": 1.501002044,
				"element": "C" 
			},
			{
				"x": -2.4624117181,
				"y": -3.2326871397,
				"z": 1.1585335376,
				"element": "O" 
			},
			{
				"x": -0.5079879521,
				"y": -2.9427528923,
				"z": 2.5050336379,
				"element": "C" 
			},
			{
				"x": 0.5425242084,
				"y": -2.1446194877,
				"z": 2.8233181758,
				"element": "C" 
			},
			{
				"x": 1.5855171199,
				"y": -2.5312068259,
				"z": 3.8551323082,
				"element": "C" 
			},
			{
				"x": 1.2928322114,
				"y": -3.7393165852,
				"z": 4.373836743,
				"element": "F" 
			},
			{
				"x": 1.6208776147,
				"y": -1.6467384863,
				"z": 4.8636637738,
				"element": "F" 
			},
			{
				"x": 2.8080280063,
				"y": -2.6019932564,
				"z": 3.3078700546,
				"element": "F" 
			},
			{
				"x": 0.2287130412,
				"y": 0.7440454007,
				"z": 0.8169569285,
				"element": "C" 
			},
			{
				"x": -0.3034251773,
				"y": 1.5991916564,
				"z": -0.0982819318,
				"element": "N" 
			},
			{
				"x": -1.4029499263,
				"y": 1.2000786971,
				"z": -0.6078515781,
				"element": "N" 
			},
			{
				"x": -2.0043400742,
				"y": 2.0551965162,
				"z": -1.5449967701,
				"element": "C" 
			},
			{
				"x": -1.9583433231,
				"y": 3.4683932244,
				"z": -1.5866801566,
				"element": "C" 
			},
			{
				"x": -1.0468405406,
				"y": 4.5311943116,
				"z": -0.2841964282,
				"element": "Br" 
			},
			{
				"x": -2.6494826914,
				"y": 4.194736727,
				"z": -2.5547051575,
				"element": "C" 
			},
			{
				"x": -3.4072193253,
				"y": 3.5230656312,
				"z": -3.5090909623,
				"element": "C" 
			},
			{
				"x": -4.3410420609,
				"y": 4.519414459,
				"z": -4.8341827331,
				"element": "Br" 
			},
			{
				"x": -3.5046561645,
				"y": 2.1343510567,
				"z": -3.4982130824,
				"element": "C" 
			},
			{
				"x": -2.8180264722,
				"y": 1.429463575,
				"z": -2.5184167588,
				"element": "C" 
			},
			{
				"x": -2.9879720914,
				"y": -0.4727475385,
				"z": -2.5322135749,
				"element": "Br" 
			},
			{
				"x": 2.9120403558,
				"y": 2.2454171549,
				"z": 2.1549478469,
				"element": "H" 
			},
			{
				"x": 1.8255671192,
				"y": 2.8672803029,
				"z": 0.9705700085,
				"element": "H" 
			},
			{
				"x": -1.8915169897,
				"y": -0.9370863085,
				"z": 0.2061962151,
				"element": "H" 
			},
			{
				"x": -0.6357885749,
				"y": -3.9004451988,
				"z": 2.9880146843,
				"element": "H" 
			},
			{
				"x": -2.6008508135,
				"y": 5.2757145896,
				"z": -2.5528629759,
				"element": "H" 
			},
			{
				"x": -4.1024600194,
				"y": 1.6112308155,
				"z": -4.2327605823,
				"element": "H" 
			}
		],
		 "valence_orbital": [ 
			{
				"type": "occ",
				"energy": -0.27934,
				"method": "rhf"
			},
			{
				"type": "occ",
				"energy": -0.26159,
				"method": "rhf"
			},
			{
				"type": "occ",
				"energy": -0.24618,
				"method": "rhf"
			},
			{
				"type": "occ",
				"energy": -0.234,
				"method": "rhf"
			},
			{
				"type": "occ",
				"energy": -0.2289,
				"method": "rhf"
			},
			{
				"type": "unocc",
				"energy": -0.09824,
				"method": "rhf"
			},
			{
				"type": "unocc",
				"energy": -0.07023,
				"method": "rhf"
			},
			{
				"type": "unocc",
				"energy": -0.04396,
				"method": "rhf"
			},
			{
				"type": "unocc",
				"energy": -0.04065,
				"method": "rhf"
			},
			{
				"type": "unocc",
				"energy": -0.0202,
				"method": "rhf"
			}
		],
		"cosmo_sigma_profile": { 
			"-0.025": 0.0,
			"-0.024": 0.0,
			"-0.023": 0.0,
			"-0.022": 0.0,
			"-0.021": 0.0,
			"-0.02": 0.0,
			"-0.019": 0.0,
			"-0.018": 0.0,
			"-0.017": 0.0,
			"-0.016": 0.0,
			"-0.015": 0.419503885151,
			"-0.014": 1.15543890459,
			"-0.013": 1.53574709621,
			"-0.012": 1.32919383232,
			"-0.011": 1.78596093612,
			"-0.01": 2.37231879157,
			"-0.009": 3.91597885565,
			"-0.008": 6.75849345734,
			"-0.007": 8.18852838851,
			"-0.006": 10.0269701893,
			"-0.005": 18.1347764374,
			"-0.004": 24.6909809993,
			"-0.003": 25.1731728567,
			"-0.002": 25.1845189266,
			"-0.001": 33.2747741873,
			"0.0": 46.9692493815,
			"0.001": 43.0995385431,
			"0.002": 42.9517889908,
			"0.003": 31.2809673266,
			"0.004": 22.3967321479,
			"0.005": 6.43306178138,
			"0.006": 4.56470242808,
			"0.007": 3.53079401365,
			"0.008": 4.59636060021,
			"0.009": 3.81755050555,
			"0.01": 3.65175755887,
			"0.011": 4.16816124049,
			"0.012": 5.73844259274,
			"0.013": 2.37742295895,
			"0.014": 0.0181730179658,
			"0.015": 0.0,
			"0.016": 0.0,
			"0.017": 0.0,
			"0.018": 0.0,
			"0.019": 0.0,
			"0.02": 0.0,
			"0.021": 0.0,
			"0.022": 0.0,
			"0.023": 0.0,
			"0.024": 0.0,
			"0.025": 0.0
		}
	}
}
