{
	 "smiles": "CCCCCCCCCCCCCCCCCC=C", 
	 "Tm": 296.15, 
	 "num_atms": 57, 
	 "gaussian": { 
		 "optdone": 1, 
		 "sigma_profile": "yes", 
		 "theory": "DFT", 
		 "functional": "B3LYP", 
		 "basiset": "6-31G**", 
		 "properties": { 
			 "R2extent": 12948.8856, 
			 "electric_dipole_moment_norm": 0.43705863451, 
			 "electric_quadrupole_moment_norm": 4.56827550505, 
			 "total_energy": -746.953036701, 
			 "HOMO_LUMO_gap": 0.27236, 
			 "cosmo_polarized_energy": -2.19, 
			 "cosmo_cavitation_energy": 55.55, 
			 "cosmo_dispersion_energy": -36.51, 
			 "cosmo_repulsion_energy": 2.99, 
			 "cosmo_total_nonelectrostatic_energy": 22.02, 
			 "SMD_solvation_energy": 7.8 
		},
		"coords": [
			{
				"x": 1.1490401538,
				"y": 1.0071516581,
				"z": -4.7518271885,
				"element": "C" 
			},
			{
				"x": 2.2005815618,
				"y": 0.6969619376,
				"z": -3.6816716687,
				"element": "C" 
			},
			{
				"x": 2.0658926073,
				"y": -0.711722699,
				"z": -3.089317043,
				"element": "C" 
			},
			{
				"x": 3.1138782502,
				"y": -1.0308515929,
				"z": -2.0157466989,
				"element": "C" 
			},
			{
				"x": 2.9951318006,
				"y": -2.4567383457,
				"z": -1.4554553599,
				"element": "C" 
			},
			{
				"x": 4.0297474874,
				"y": -2.8223730467,
				"z": -0.3679749905,
				"element": "C" 
			},
			{
				"x": 3.6373186985,
				"y": -2.5841167255,
				"z": 1.1041919634,
				"element": "C" 
			},
			{
				"x": 3.387040299,
				"y": -1.1276781002,
				"z": 1.5542920847,
				"element": "C" 
			},
			{
				"x": 1.9301811392,
				"y": -0.6508157712,
				"z": 1.4442957477,
				"element": "C" 
			},
			{
				"x": 1.7397875184,
				"y": 0.8010008853,
				"z": 1.9064316222,
				"element": "C" 
			},
			{
				"x": 0.3032269883,
				"y": 1.3358825322,
				"z": 1.7804354766,
				"element": "C" 
			},
			{
				"x": -0.7127489294,
				"y": 0.6573668482,
				"z": 2.7126255705,
				"element": "C" 
			},
			{
				"x": -2.1141408692,
				"y": 1.2909104925,
				"z": 2.6967978715,
				"element": "C" 
			},
			{
				"x": -2.8716863082,
				"y": 1.143981225,
				"z": 1.3694353445,
				"element": "C" 
			},
			{
				"x": -4.2924717725,
				"y": 1.7221153356,
				"z": 1.4161617439,
				"element": "C" 
			},
			{
				"x": -5.0490196073,
				"y": 1.572850033,
				"z": 0.0893936721,
				"element": "C" 
			},
			{
				"x": -6.4572178919,
				"y": 2.2076117681,
				"z": 0.0739768069,
				"element": "C" 
			},
			{
				"x": -7.4359250708,
				"y": 1.5670080434,
				"z": 1.0220906941,
				"element": "C" 
			},
			{
				"x": -8.5401502297,
				"y": 0.9159513361,
				"z": 0.6538342396,
				"element": "C" 
			},
			{
				"x": 0.1343900797,
				"y": 0.9326730639,
				"z": -4.3438614894,
				"element": "H" 
			},
			{
				"x": 1.2183086497,
				"y": 0.3050175043,
				"z": -5.5906666266,
				"element": "H" 
			},
			{
				"x": 1.2716915001,
				"y": 2.0181805158,
				"z": -5.1541991932,
				"element": "H" 
			},
			{
				"x": 3.2051659311,
				"y": 0.8138826143,
				"z": -4.110737329,
				"element": "H" 
			},
			{
				"x": 2.1294778261,
				"y": 1.4374156389,
				"z": -2.8731312481,
				"element": "H" 
			},
			{
				"x": 1.0594351955,
				"y": -0.8292200274,
				"z": -2.6617480483,
				"element": "H" 
			},
			{
				"x": 2.1368849237,
				"y": -1.4530829096,
				"z": -3.8985363813,
				"element": "H" 
			},
			{
				"x": 4.1194186065,
				"y": -0.9023087567,
				"z": -2.4414667412,
				"element": "H" 
			},
			{
				"x": 3.0355781426,
				"y": -0.2941210804,
				"z": -1.2065688036,
				"element": "H" 
			},
			{
				"x": 3.1075437307,
				"y": -3.1539908361,
				"z": -2.2966214442,
				"element": "H" 
			},
			{
				"x": 1.9793690281,
				"y": -2.6227194778,
				"z": -1.070357213,
				"element": "H" 
			},
			{
				"x": 4.9707047413,
				"y": -2.2935754171,
				"z": -0.5773795316,
				"element": "H" 
			},
			{
				"x": 4.2666944262,
				"y": -3.8899328743,
				"z": -0.4616130548,
				"element": "H" 
			},
			{
				"x": 2.7499941213,
				"y": -3.188951557,
				"z": 1.3402548333,
				"element": "H" 
			},
			{
				"x": 4.4470597531,
				"y": -3.0005741327,
				"z": 1.7169796921,
				"element": "H" 
			},
			{
				"x": 3.6897392016,
				"y": -1.0279639517,
				"z": 2.605437137,
				"element": "H" 
			},
			{
				"x": 4.0451043083,
				"y": -0.4491125119,
				"z": 0.9937296136,
				"element": "H" 
			},
			{
				"x": 1.300207103,
				"y": -1.3207346099,
				"z": 2.0441092822,
				"element": "H" 
			},
			{
				"x": 1.5728507739,
				"y": -0.7466971619,
				"z": 0.4111269285,
				"element": "H" 
			},
			{
				"x": 2.4080730745,
				"y": 1.4465080405,
				"z": 1.3198623057,
				"element": "H" 
			},
			{
				"x": 2.0712389941,
				"y": 0.8951525453,
				"z": 2.9509136754,
				"element": "H" 
			},
			{
				"x": 0.308855827,
				"y": 2.413461901,
				"z": 1.9962909762,
				"element": "H" 
			},
			{
				"x": -0.0222908322,
				"y": 1.2381254066,
				"z": 0.7361400086,
				"element": "H" 
			},
			{
				"x": -0.8012628157,
				"y": -0.4075966008,
				"z": 2.4597083885,
				"element": "H" 
			},
			{
				"x": -0.3222700266,
				"y": 0.6934296259,
				"z": 3.7392336876,
				"element": "H" 
			},
			{
				"x": -2.032094869,
				"y": 2.3576872469,
				"z": 2.9510343958,
				"element": "H" 
			},
			{
				"x": -2.7151722084,
				"y": 0.8357596496,
				"z": 3.4959131641,
				"element": "H" 
			},
			{
				"x": -2.3129510718,
				"y": 1.6352917365,
				"z": 0.5619642045,
				"element": "H" 
			},
			{
				"x": -2.9227006271,
				"y": 0.0791426507,
				"z": 1.0993347725,
				"element": "H" 
			},
			{
				"x": -4.2419091409,
				"y": 2.7870160734,
				"z": 1.6866861192,
				"element": "H" 
			},
			{
				"x": -4.8517882127,
				"y": 1.2294481161,
				"z": 2.2225733284,
				"element": "H" 
			},
			{
				"x": -5.1359337675,
				"y": 0.5081145055,
				"z": -0.1646007184,
				"element": "H" 
			},
			{
				"x": -4.4552127806,
				"y": 2.0340427894,
				"z": -0.7114536539,
				"element": "H" 
			},
			{
				"x": -6.8608743191,
				"y": 2.1578726267,
				"z": -0.9445284052,
				"element": "H" 
			},
			{
				"x": -6.3595316229,
				"y": 3.275673008,
				"z": 0.3202600833,
				"element": "H" 
			},
			{
				"x": -7.20661133,
				"y": 1.6479276541,
				"z": 2.0848882918,
				"element": "H" 
			},
			{
				"x": -8.81713094,
				"y": 0.8110613252,
				"z": -0.3931191547,
				"element": "H" 
			},
			{
				"x": -9.2105171996,
				"y": 0.466701853,
				"z": 1.3809782598,
				"element": "H" 
			}
		],
		 "valence_orbital": [ 
			{
				"type": "occ",
				"energy": -0.3033,
				"method": "rhf"
			},
			{
				"type": "occ",
				"energy": -0.30074,
				"method": "rhf"
			},
			{
				"type": "occ",
				"energy": -0.29834,
				"method": "rhf"
			},
			{
				"type": "occ",
				"energy": -0.28976,
				"method": "rhf"
			},
			{
				"type": "occ",
				"energy": -0.24918,
				"method": "rhf"
			},
			{
				"type": "unocc",
				"energy": 0.02318,
				"method": "rhf"
			},
			{
				"type": "unocc",
				"energy": 0.07573,
				"method": "rhf"
			},
			{
				"type": "unocc",
				"energy": 0.09268,
				"method": "rhf"
			},
			{
				"type": "unocc",
				"energy": 0.09585,
				"method": "rhf"
			},
			{
				"type": "unocc",
				"energy": 0.09987,
				"method": "rhf"
			}
		],
		"cosmo_sigma_profile": { 
			"-0.025": 0.0,
			"-0.024": 0.0,
			"-0.023": 0.0,
			"-0.022": 0.0,
			"-0.021": 0.0,
			"-0.02": 0.0,
			"-0.019": 0.0,
			"-0.018": 0.0,
			"-0.017": 0.0,
			"-0.016": 0.0,
			"-0.015": 0.0,
			"-0.014": 0.0,
			"-0.013": 0.0,
			"-0.012": 0.0,
			"-0.011": 0.0,
			"-0.01": 0.0,
			"-0.009": 0.0,
			"-0.008": 0.0,
			"-0.007": 0.0,
			"-0.006": 0.0,
			"-0.005": 0.845824418,
			"-0.004": 5.27016790527,
			"-0.003": 10.1716550101,
			"-0.002": 45.8128394681,
			"-0.001": 110.240001408,
			"0.0": 108.020478623,
			"0.001": 84.1089429627,
			"0.002": 40.8379444193,
			"0.003": 5.61094125179,
			"0.004": 4.37956683034,
			"0.005": 2.93005334251,
			"0.006": 3.18712396131,
			"0.007": 2.45275863559,
			"0.008": 0.874963223743,
			"0.009": 0.0,
			"0.01": 0.0,
			"0.011": 0.0,
			"0.012": 0.0,
			"0.013": 0.0,
			"0.014": 0.0,
			"0.015": 0.0,
			"0.016": 0.0,
			"0.017": 0.0,
			"0.018": 0.0,
			"0.019": 0.0,
			"0.02": 0.0,
			"0.021": 0.0,
			"0.022": 0.0,
			"0.023": 0.0,
			"0.024": 0.0,
			"0.025": 0.0
		}
	}
}
