{
	 "smiles": "OC(=O)CCC(F)(F)F", 
	 "Tm": 304.15, 
	 "num_atms": 14, 
	 "gaussian": { 
		 "optdone": 1, 
		 "sigma_profile": "yes", 
		 "theory": "DFT", 
		 "functional": "B3LYP", 
		 "basiset": "6-31G**", 
		 "properties": { 
			 "R2extent": 1563.1377, 
			 "electric_dipole_moment_norm": 2.8052711295, 
			 "electric_quadrupole_moment_norm": 17.4769766213, 
			 "total_energy": -605.428723066, 
			 "HOMO_LUMO_gap": 0.28383, 
			 "cosmo_polarized_energy": -14.23, 
			 "cosmo_cavitation_energy": 19.86, 
			 "cosmo_dispersion_energy": -14.04, 
			 "cosmo_repulsion_energy": 1.13, 
			 "cosmo_total_nonelectrostatic_energy": 6.95, 
			 "SMD_solvation_energy": 5.81 
		},
		"coords": [
			{
				"x": 2.5820553494,
				"y": 0.0701601491,
				"z": -2.4796273088,
				"element": "O" 
			},
			{
				"x": 2.2862768391,
				"y": -0.1985056251,
				"z": -1.1817387255,
				"element": "C" 
			},
			{
				"x": 3.1397908552,
				"y": -0.6027602544,
				"z": -0.4335478708,
				"element": "O" 
			},
			{
				"x": 0.8375565403,
				"y": 0.0474917106,
				"z": -0.7801391764,
				"element": "C" 
			},
			{
				"x": 0.5926154542,
				"y": -0.2802147179,
				"z": 0.6919384027,
				"element": "C" 
			},
			{
				"x": -0.8421608267,
				"y": -0.0383051244,
				"z": 1.0973300571,
				"element": "C" 
			},
			{
				"x": -1.0413642808,
				"y": -0.332282636,
				"z": 2.3972102246,
				"element": "F" 
			},
			{
				"x": -1.7003264987,
				"y": -0.7951508966,
				"z": 0.3722330854,
				"element": "F" 
			},
			{
				"x": -1.2022158785,
				"y": 1.254394689,
				"z": 0.9121125855,
				"element": "F" 
			},
			{
				"x": 1.7967465584,
				"y": 0.3843788728,
				"z": -2.950283342,
				"element": "H" 
			},
			{
				"x": 0.5836899255,
				"y": 1.0956711289,
				"z": -0.9829229095,
				"element": "H" 
			},
			{
				"x": 0.182147796,
				"y": -0.5589197394,
				"z": -1.418073324,
				"element": "H" 
			},
			{
				"x": 0.8332053036,
				"y": -1.3259297762,
				"z": 0.8973084672,
				"element": "H" 
			},
			{
				"x": 1.235082863,
				"y": 0.3284722197,
				"z": 1.3324998346,
				"element": "H" 
			}
		],
		 "valence_orbital": [ 
			{
				"type": "occ",
				"energy": -0.39427,
				"method": "rhf"
			},
			{
				"type": "occ",
				"energy": -0.38372,
				"method": "rhf"
			},
			{
				"type": "occ",
				"energy": -0.3689,
				"method": "rhf"
			},
			{
				"type": "occ",
				"energy": -0.32854,
				"method": "rhf"
			},
			{
				"type": "occ",
				"energy": -0.28615,
				"method": "rhf"
			},
			{
				"type": "unocc",
				"energy": -0.00232,
				"method": "rhf"
			},
			{
				"type": "unocc",
				"energy": 0.04315,
				"method": "rhf"
			},
			{
				"type": "unocc",
				"energy": 0.09251,
				"method": "rhf"
			},
			{
				"type": "unocc",
				"energy": 0.11514,
				"method": "rhf"
			},
			{
				"type": "unocc",
				"energy": 0.12187,
				"method": "rhf"
			}
		],
		"cosmo_sigma_profile": { 
			"-0.025": 0.0,
			"-0.024": 0.0,
			"-0.023": 0.0,
			"-0.022": 0.0,
			"-0.021": 0.0,
			"-0.02": 0.0302766017996,
			"-0.019": 0.888302947453,
			"-0.018": 1.18351271547,
			"-0.017": 1.23664773506,
			"-0.016": 1.32707845527,
			"-0.015": 1.00368092218,
			"-0.014": 1.11472890165,
			"-0.013": 1.03127091527,
			"-0.012": 1.44715901906,
			"-0.011": 1.5250438725,
			"-0.01": 1.06498678291,
			"-0.009": 1.88943785784,
			"-0.008": 3.89298375318,
			"-0.007": 8.38056441355,
			"-0.006": 9.27131268892,
			"-0.005": 6.51132004181,
			"-0.004": 5.8644733099,
			"-0.003": 6.33855505856,
			"-0.002": 5.6932195911,
			"-0.001": 4.86702280825,
			"0.0": 5.46980098361,
			"0.001": 7.42544353427,
			"0.002": 12.8038036902,
			"0.003": 31.9138421568,
			"0.004": 6.23783381382,
			"0.005": 2.04484200229,
			"0.006": 1.5644434677,
			"0.007": 2.98131375078,
			"0.008": 2.93039694626,
			"0.009": 2.99467099444,
			"0.01": 5.32668529784,
			"0.011": 5.51814000899,
			"0.012": 4.12268977757,
			"0.013": 1.01713655168,
			"0.014": 0.0,
			"0.015": 0.0,
			"0.016": 0.0,
			"0.017": 0.0,
			"0.018": 0.0,
			"0.019": 0.0,
			"0.02": 0.0,
			"0.021": 0.0,
			"0.022": 0.0,
			"0.023": 0.0,
			"0.024": 0.0,
			"0.025": 0.0
		}
	}
}
