{
	 "smiles": "CC(=O)NC(CC1=CNC2=C1C=C(Br)C=C2)C(O)=O", 
	 "Tm": 480.15, 
	 "num_atms": 32, 
	 "gaussian": { 
		 "optdone": 1, 
		 "sigma_profile": "yes", 
		 "theory": "DFT", 
		 "functional": "B3LYP", 
		 "basiset": "6-31G**", 
		 "properties": { 
			 "R2extent": 8523.2842, 
			 "electric_dipole_moment_norm": 6.05202444228, 
			 "electric_quadrupole_moment_norm": 17.371868217, 
			 "total_energy": -3409.83944622, 
			 "HOMO_LUMO_gap": 0.18946, 
			 "cosmo_polarized_energy": -22.9, 
			 "cosmo_cavitation_energy": 38.88, 
			 "cosmo_dispersion_energy": -26.6, 
			 "cosmo_repulsion_energy": 2.08, 
			 "cosmo_total_nonelectrostatic_energy": 14.37, 
			 "SMD_solvation_energy": 6.81 
		},
		"coords": [
			{
				"x": 1.0129035356,
				"y": 0.9897249522,
				"z": -4.2529564227,
				"element": "C" 
			},
			{
				"x": -0.3340049593,
				"y": 1.0396809155,
				"z": -3.5490253476,
				"element": "C" 
			},
			{
				"x": -1.2507642155,
				"y": 1.7529791891,
				"z": -3.9417691834,
				"element": "O" 
			},
			{
				"x": -0.4593170222,
				"y": 0.2252445813,
				"z": -2.4573556424,
				"element": "N" 
			},
			{
				"x": -1.70730363,
				"y": 0.1408962565,
				"z": -1.7257044222,
				"element": "C" 
			},
			{
				"x": -1.8389305748,
				"y": 1.2196834598,
				"z": -0.6055652324,
				"element": "C" 
			},
			{
				"x": -0.7384626203,
				"y": 1.215387274,
				"z": 0.4152183458,
				"element": "C" 
			},
			{
				"x": 0.3936821028,
				"y": 1.9936341249,
				"z": 0.3754085133,
				"element": "C" 
			},
			{
				"x": 1.1973693454,
				"y": 1.7274826229,
				"z": 1.4668900339,
				"element": "N" 
			},
			{
				"x": 0.5909401775,
				"y": 0.7689833087,
				"z": 2.2510955212,
				"element": "C" 
			},
			{
				"x": -0.6329183996,
				"y": 0.4163444965,
				"z": 1.6161411576,
				"element": "C" 
			},
			{
				"x": -1.4609084981,
				"y": -0.5493546041,
				"z": 2.2196426243,
				"element": "C" 
			},
			{
				"x": -1.0379881091,
				"y": -1.1157389831,
				"z": 3.4120561294,
				"element": "C" 
			},
			{
				"x": -2.1385913592,
				"y": -2.4395284342,
				"z": 4.2587009505,
				"element": "Br" 
			},
			{
				"x": 0.1746919222,
				"y": -0.7635755626,
				"z": 4.0342724962,
				"element": "C" 
			},
			{
				"x": 1.0035959867,
				"y": 0.1883539387,
				"z": 3.4543187975,
				"element": "C" 
			},
			{
				"x": -1.9624699909,
				"y": -1.2457650263,
				"z": -1.1573480586,
				"element": "C" 
			},
			{
				"x": -0.9248062129,
				"y": -2.0998631538,
				"z": -1.3133788502,
				"element": "O" 
			},
			{
				"x": -2.9887013419,
				"y": -1.557022579,
				"z": -0.594107971,
				"element": "O" 
			},
			{
				"x": 0.8711889607,
				"y": 0.5636539204,
				"z": -5.2506120195,
				"element": "H" 
			},
			{
				"x": 1.3793997686,
				"y": 2.0106216182,
				"z": -4.385153812,
				"element": "H" 
			},
			{
				"x": 1.7663723762,
				"y": 0.4011493346,
				"z": -3.7223132432,
				"element": "H" 
			},
			{
				"x": 0.313763903,
				"y": -0.344337404,
				"z": -2.1512721711,
				"element": "H" 
			},
			{
				"x": -2.5109726578,
				"y": 0.3388348072,
				"z": -2.443016071,
				"element": "H" 
			},
			{
				"x": -1.8650249232,
				"y": 2.183448545,
				"z": -1.1221414292,
				"element": "H" 
			},
			{
				"x": -2.8143100157,
				"y": 1.0792022579,
				"z": -0.1288092466,
				"element": "H" 
			},
			{
				"x": 0.6851531978,
				"y": 2.7364547946,
				"z": -0.3540620231,
				"element": "H" 
			},
			{
				"x": 2.0600851155,
				"y": 2.1991334978,
				"z": 1.6833002884,
				"element": "H" 
			},
			{
				"x": -2.3960771527,
				"y": -0.8524441755,
				"z": 1.7634045129,
				"element": "H" 
			},
			{
				"x": 0.4556640406,
				"y": -1.2383840756,
				"z": 4.9668906938,
				"element": "H" 
			},
			{
				"x": 1.9399043331,
				"y": 0.4681394079,
				"z": 3.9285266729,
				"element": "H" 
			},
			{
				"x": -1.1883630827,
				"y": -2.9300193056,
				"z": -0.8806755916,
				"element": "H" 
			}
		],
		 "valence_orbital": [ 
			{
				"type": "occ",
				"energy": -0.27668,
				"method": "rhf"
			},
			{
				"type": "occ",
				"energy": -0.25685,
				"method": "rhf"
			},
			{
				"type": "occ",
				"energy": -0.25067,
				"method": "rhf"
			},
			{
				"type": "occ",
				"energy": -0.22249,
				"method": "rhf"
			},
			{
				"type": "occ",
				"energy": -0.21138,
				"method": "rhf"
			},
			{
				"type": "unocc",
				"energy": -0.02192,
				"method": "rhf"
			},
			{
				"type": "unocc",
				"energy": -0.00675,
				"method": "rhf"
			},
			{
				"type": "unocc",
				"energy": 0.01417,
				"method": "rhf"
			},
			{
				"type": "unocc",
				"energy": 0.01682,
				"method": "rhf"
			},
			{
				"type": "unocc",
				"energy": 0.02502,
				"method": "rhf"
			}
		],
		"cosmo_sigma_profile": { 
			"-0.025": 0.0,
			"-0.024": 0.0,
			"-0.023": 0.0,
			"-0.022": 0.0,
			"-0.021": 0.0,
			"-0.02": 0.0,
			"-0.019": 0.361604640259,
			"-0.018": 0.787288807956,
			"-0.017": 0.845644837045,
			"-0.016": 1.70890476808,
			"-0.015": 2.54166554785,
			"-0.014": 1.87706223894,
			"-0.013": 2.71464793996,
			"-0.012": 2.78360629229,
			"-0.011": 2.52316654909,
			"-0.01": 3.05488927209,
			"-0.009": 3.34765883235,
			"-0.008": 4.51379754423,
			"-0.007": 8.0978521146,
			"-0.006": 12.6964561556,
			"-0.005": 14.5900630685,
			"-0.004": 17.5550808192,
			"-0.003": 21.0603727279,
			"-0.002": 23.4069097958,
			"-0.001": 22.346290858,
			"0.0": 16.7858006074,
			"0.001": 18.168368741,
			"0.002": 15.9696950359,
			"0.003": 22.4206196205,
			"0.004": 29.346556657,
			"0.005": 27.0509105191,
			"0.006": 6.72643049327,
			"0.007": 2.57793329336,
			"0.008": 2.55794101398,
			"0.009": 2.99563312921,
			"0.01": 3.48102161791,
			"0.011": 4.50016391979,
			"0.012": 3.54865879343,
			"0.013": 2.83211796128,
			"0.014": 4.60800603772,
			"0.015": 1.49314670264,
			"0.016": 0.075596458918,
			"0.017": 0.0,
			"0.018": 0.0,
			"0.019": 0.0,
			"0.02": 0.0,
			"0.021": 0.0,
			"0.022": 0.0,
			"0.023": 0.0,
			"0.024": 0.0,
			"0.025": 0.0
		}
	}
}
