{
	 "smiles": "CC(C)(C)OC(=O)C=C", 
	 "Tm": 204.15, 
	 "num_atms": 21, 
	 "gaussian": { 
		 "optdone": 1, 
		 "sigma_profile": "yes", 
		 "theory": "DFT", 
		 "functional": "B3LYP", 
		 "basiset": "6-31G**", 
		 "properties": { 
			 "R2extent": 1584.0124, 
			 "electric_dipole_moment_norm": 2.15506011749, 
			 "electric_quadrupole_moment_norm": 8.76716996927, 
			 "total_energy": -424.426911403, 
			 "HOMO_LUMO_gap": 0.21953, 
			 "cosmo_polarized_energy": -6.08, 
			 "cosmo_cavitation_energy": 23.87, 
			 "cosmo_dispersion_energy": -16.57, 
			 "cosmo_repulsion_energy": 1.36, 
			 "cosmo_total_nonelectrostatic_energy": 8.66, 
			 "SMD_solvation_energy": 6.12 
		},
		"coords": [
			{
				"x": -1.791589389,
				"y": 0.2852152661,
				"z": 0.5761691193,
				"element": "C" 
			},
			{
				"x": -0.7387583875,
				"y": 0.794053018,
				"z": -0.4115985146,
				"element": "C" 
			},
			{
				"x": 0.2242767864,
				"y": 1.7695939674,
				"z": 0.2735674929,
				"element": "C" 
			},
			{
				"x": -1.404110742,
				"y": 1.406177768,
				"z": -1.6490295949,
				"element": "C" 
			},
			{
				"x": -0.0239601467,
				"y": -0.4403936886,
				"z": -0.7837155628,
				"element": "O" 
			},
			{
				"x": 1.003468502,
				"y": -0.4280938516,
				"z": -1.6559212761,
				"element": "C" 
			},
			{
				"x": 1.4454184631,
				"y": 0.5589396898,
				"z": -2.2167555795,
				"element": "O" 
			},
			{
				"x": 1.5725764139,
				"y": -1.7845287343,
				"z": -1.8812078209,
				"element": "C" 
			},
			{
				"x": 1.1357069342,
				"y": -2.9040802469,
				"z": -1.300051537,
				"element": "C" 
			},
			{
				"x": -2.4495266784,
				"y": -0.4457329783,
				"z": 0.0970575949,
				"element": "H" 
			},
			{
				"x": -1.3147450294,
				"y": -0.1918721972,
				"z": 1.437401867,
				"element": "H" 
			},
			{
				"x": -2.4031758114,
				"y": 1.1178924429,
				"z": 0.9362273523,
				"element": "H" 
			},
			{
				"x": 0.7186732469,
				"y": 1.2837722915,
				"z": 1.1206937538,
				"element": "H" 
			},
			{
				"x": 0.9837125526,
				"y": 2.1265730152,
				"z": -0.4223157898,
				"element": "H" 
			},
			{
				"x": -0.3365243071,
				"y": 2.6290116315,
				"z": 0.6552918162,
				"element": "H" 
			},
			{
				"x": -0.659116596,
				"y": 1.7602698641,
				"z": -2.3618056691,
				"element": "H" 
			},
			{
				"x": -2.0319041029,
				"y": 2.2505552725,
				"z": -1.3461668129,
				"element": "H" 
			},
			{
				"x": -2.0440294149,
				"y": 0.6671465912,
				"z": -2.1413778947,
				"element": "H" 
			},
			{
				"x": 2.4018853377,
				"y": -1.7884174144,
				"z": -2.5823452408,
				"element": "H" 
			},
			{
				"x": 1.5977976392,
				"y": -3.8640744586,
				"z": -1.5097909125,
				"element": "H" 
			},
			{
				"x": 0.3063247291,
				"y": -2.8887072485,
				"z": -0.6011267907,
				"element": "H" 
			}
		],
		 "valence_orbital": [ 
			{
				"type": "occ",
				"energy": -0.34847,
				"method": "rhf"
			},
			{
				"type": "occ",
				"energy": -0.32958,
				"method": "rhf"
			},
			{
				"type": "occ",
				"energy": -0.29156,
				"method": "rhf"
			},
			{
				"type": "occ",
				"energy": -0.28081,
				"method": "rhf"
			},
			{
				"type": "occ",
				"energy": -0.26162,
				"method": "rhf"
			},
			{
				"type": "unocc",
				"energy": -0.04209,
				"method": "rhf"
			},
			{
				"type": "unocc",
				"energy": 0.08556,
				"method": "rhf"
			},
			{
				"type": "unocc",
				"energy": 0.08876,
				"method": "rhf"
			},
			{
				"type": "unocc",
				"energy": 0.0977,
				"method": "rhf"
			},
			{
				"type": "unocc",
				"energy": 0.12482,
				"method": "rhf"
			}
		],
		"cosmo_sigma_profile": { 
			"-0.025": 0.0,
			"-0.024": 0.0,
			"-0.023": 0.0,
			"-0.022": 0.0,
			"-0.021": 0.0,
			"-0.02": 0.0,
			"-0.019": 0.0,
			"-0.018": 0.0,
			"-0.017": 0.0,
			"-0.016": 0.0,
			"-0.015": 0.0,
			"-0.014": 0.0,
			"-0.013": 0.0,
			"-0.012": 0.0,
			"-0.011": 0.0,
			"-0.01": 0.0,
			"-0.009": 0.0,
			"-0.008": 0.0718616492607,
			"-0.007": 2.02679277808,
			"-0.006": 4.54901861763,
			"-0.005": 6.06852756896,
			"-0.004": 16.2639814693,
			"-0.003": 20.0734403384,
			"-0.002": 21.3269972153,
			"-0.001": 21.936632663,
			"0.0": 29.5128751186,
			"0.001": 20.9539515434,
			"0.002": 9.46219609736,
			"0.003": 8.7174325007,
			"0.004": 5.87281814645,
			"0.005": 4.30954482271,
			"0.006": 2.85450048719,
			"0.007": 1.18915138024,
			"0.008": 1.71183832187,
			"0.009": 1.5427229014,
			"0.01": 1.59191660587,
			"0.011": 1.72214413387,
			"0.012": 3.15450825655,
			"0.013": 1.95289272096,
			"0.014": 0.111151043753,
			"0.015": 0.0,
			"0.016": 0.0,
			"0.017": 0.0,
			"0.018": 0.0,
			"0.019": 0.0,
			"0.02": 0.0,
			"0.021": 0.0,
			"0.022": 0.0,
			"0.023": 0.0,
			"0.024": 0.0,
			"0.025": 0.0
		}
	}
}
