{
	 "smiles": "OC1CS(=O)(=O)CC1Cl", 
	 "Tm": 437.15, 
	 "num_atms": 16, 
	 "gaussian": { 
		 "optdone": 1, 
		 "sigma_profile": "yes", 
		 "theory": "DFT", 
		 "functional": "B3LYP", 
		 "basiset": "6-31G**", 
		 "properties": { 
			 "R2extent": 2572.3613, 
			 "electric_dipole_moment_norm": 5.17572449904, 
			 "electric_quadrupole_moment_norm": 20.5021010506, 
			 "total_energy": -1240.61682528, 
			 "HOMO_LUMO_gap": 0.28416, 
			 "cosmo_polarized_energy": -20.92, 
			 "cosmo_cavitation_energy": 21.8, 
			 "cosmo_dispersion_energy": -16.96, 
			 "cosmo_repulsion_energy": 1.34, 
			 "cosmo_total_nonelectrostatic_energy": 6.18, 
			 "SMD_solvation_energy": 2.46 
		},
		"coords": [
			{
				"x": 0.2279488412,
				"y": -1.9287735792,
				"z": -0.5758409224,
				"element": "O" 
			},
			{
				"x": 1.0717757504,
				"y": -0.8710637097,
				"z": -0.9442105075,
				"element": "C" 
			},
			{
				"x": 2.3932253894,
				"y": -1.0126661149,
				"z": -0.1900043734,
				"element": "C" 
			},
			{
				"x": 3.2408777695,
				"y": 0.580311281,
				"z": -0.4675336539,
				"element": "S" 
			},
			{
				"x": 3.8753421184,
				"y": 1.0590523743,
				"z": 0.765587484,
				"element": "O" 
			},
			{
				"x": 4.0001189681,
				"y": 0.4877538124,
				"z": -1.7247471817,
				"element": "O" 
			},
			{
				"x": 1.6929081662,
				"y": 1.5326162584,
				"z": -0.8195749276,
				"element": "C" 
			},
			{
				"x": 0.5290580117,
				"y": 0.5537771541,
				"z": -0.642032955,
				"element": "C" 
			},
			{
				"x": -0.1554732058,
				"y": 0.6420634506,
				"z": 1.0403982347,
				"element": "Cl" 
			},
			{
				"x": -0.6082002971,
				"y": -1.8490795337,
				"z": -1.0544274654,
				"element": "H" 
			},
			{
				"x": 1.2816156534,
				"y": -0.8802494175,
				"z": -2.0276843183,
				"element": "H" 
			},
			{
				"x": 3.0329215678,
				"y": -1.8071993604,
				"z": -0.5744227513,
				"element": "H" 
			},
			{
				"x": 2.2177199461,
				"y": -1.1369610969,
				"z": 0.8801741644,
				"element": "H" 
			},
			{
				"x": 1.6475474643,
				"y": 2.3905104078,
				"z": -0.1493293525,
				"element": "H" 
			},
			{
				"x": 1.7812793825,
				"y": 1.8674275142,
				"z": -1.8559327927,
				"element": "H" 
			},
			{
				"x": -0.303065526,
				"y": 0.8064805594,
				"z": -1.3028186813,
				"element": "H" 
			}
		],
		 "valence_orbital": [ 
			{
				"type": "occ",
				"energy": -0.31943,
				"method": "rhf"
			},
			{
				"type": "occ",
				"energy": -0.3152,
				"method": "rhf"
			},
			{
				"type": "occ",
				"energy": -0.30678,
				"method": "rhf"
			},
			{
				"type": "occ",
				"energy": -0.30253,
				"method": "rhf"
			},
			{
				"type": "occ",
				"energy": -0.29006,
				"method": "rhf"
			},
			{
				"type": "unocc",
				"energy": -0.0059,
				"method": "rhf"
			},
			{
				"type": "unocc",
				"energy": 0.0242,
				"method": "rhf"
			},
			{
				"type": "unocc",
				"energy": 0.05112,
				"method": "rhf"
			},
			{
				"type": "unocc",
				"energy": 0.05663,
				"method": "rhf"
			},
			{
				"type": "unocc",
				"energy": 0.06148,
				"method": "rhf"
			}
		],
		"cosmo_sigma_profile": { 
			"-0.025": 0.0,
			"-0.024": 0.0,
			"-0.023": 0.0,
			"-0.022": 0.0,
			"-0.021": 0.0,
			"-0.02": 0.0,
			"-0.019": 0.0,
			"-0.018": 0.228386467206,
			"-0.017": 1.16221229412,
			"-0.016": 1.31264662906,
			"-0.015": 1.36015292499,
			"-0.014": 1.0471370532,
			"-0.013": 0.998883222939,
			"-0.012": 1.08529848303,
			"-0.011": 1.85087346696,
			"-0.01": 5.90734801597,
			"-0.009": 9.58513958694,
			"-0.008": 9.24842892727,
			"-0.007": 11.6134898733,
			"-0.006": 9.48248127113,
			"-0.005": 8.42481824357,
			"-0.004": 5.53467034767,
			"-0.003": 5.16271276113,
			"-0.002": 5.02835168446,
			"-0.001": 5.27639163897,
			"0.0": 5.85344065562,
			"0.001": 5.92857653281,
			"0.002": 6.54548760106,
			"0.003": 6.43115936325,
			"0.004": 6.92608947681,
			"0.005": 9.34041017361,
			"0.006": 5.81689262596,
			"0.007": 4.13643205697,
			"0.008": 3.85270671239,
			"0.009": 4.40953390246,
			"0.01": 7.55935608763,
			"0.011": 13.8160471857,
			"0.012": 8.38501377406,
			"0.013": 0.226235350795,
			"0.014": 0.0,
			"0.015": 0.0,
			"0.016": 0.0,
			"0.017": 0.0,
			"0.018": 0.0,
			"0.019": 0.0,
			"0.02": 0.0,
			"0.021": 0.0,
			"0.022": 0.0,
			"0.023": 0.0,
			"0.024": 0.0,
			"0.025": 0.0
		}
	}
}
