{
	 "smiles": "OCC1=C(Cl)C=CC=C1Cl", 
	 "Tm": 370.65, 
	 "num_atms": 16, 
	 "gaussian": { 
		 "optdone": 1, 
		 "sigma_profile": "yes", 
		 "theory": "DFT", 
		 "functional": "B3LYP", 
		 "basiset": "6-31G**", 
		 "properties": { 
			 "R2extent": 3511.0803, 
			 "electric_dipole_moment_norm": 2.74141978726, 
			 "electric_quadrupole_moment_norm": 6.69970368673, 
			 "total_energy": -1265.95601642, 
			 "HOMO_LUMO_gap": 0.224, 
			 "cosmo_polarized_energy": -7.17, 
			 "cosmo_cavitation_energy": 22.97, 
			 "cosmo_dispersion_energy": -17.44, 
			 "cosmo_repulsion_energy": 1.41, 
			 "cosmo_total_nonelectrostatic_energy": 6.93, 
			 "SMD_solvation_energy": 3.37 
		},
		"coords": [
			{
				"x": -0.0516636079,
				"y": -1.2223377151,
				"z": 1.799479627,
				"element": "O" 
			},
			{
				"x": -0.7949658922,
				"y": -0.0385672193,
				"z": 2.0453522011,
				"element": "C" 
			},
			{
				"x": -0.012027989,
				"y": 1.229371495,
				"z": 1.7410340901,
				"element": "C" 
			},
			{
				"x": 1.0239263991,
				"y": 1.6624477812,
				"z": 2.5852467991,
				"element": "C" 
			},
			{
				"x": 1.4155775806,
				"y": 0.7147788378,
				"z": 4.0279553152,
				"element": "Cl" 
			},
			{
				"x": 1.7795592069,
				"y": 2.8069614376,
				"z": 2.3497810334,
				"element": "C" 
			},
			{
				"x": 1.5037008517,
				"y": 3.5710800018,
				"z": 1.2174516343,
				"element": "C" 
			},
			{
				"x": 0.4905113625,
				"y": 3.1869791921,
				"z": 0.3436244574,
				"element": "C" 
			},
			{
				"x": -0.2457512501,
				"y": 2.0321616598,
				"z": 0.611686348,
				"element": "C" 
			},
			{
				"x": -1.5110138114,
				"y": 1.610064065,
				"z": -0.539328352,
				"element": "Cl" 
			},
			{
				"x": 0.6392996922,
				"y": -1.2782299289,
				"z": 2.4733128213,
				"element": "H" 
			},
			{
				"x": -1.6707972569,
				"y": -0.091863429,
				"z": 1.3999972463,
				"element": "H" 
			},
			{
				"x": -1.1478715037,
				"y": 0.0079597596,
				"z": 3.0848299539,
				"element": "H" 
			},
			{
				"x": 2.5662282314,
				"y": 3.0886154257,
				"z": 3.0400513332,
				"element": "H" 
			},
			{
				"x": 2.0815856863,
				"y": 4.4674340137,
				"z": 1.0155857754,
				"element": "H" 
			},
			{
				"x": 0.2670023005,
				"y": 3.7707446229,
				"z": -0.5417602838,
				"element": "H" 
			}
		],
		 "valence_orbital": [ 
			{
				"type": "occ",
				"energy": -0.32862,
				"method": "rhf"
			},
			{
				"type": "occ",
				"energy": -0.31653,
				"method": "rhf"
			},
			{
				"type": "occ",
				"energy": -0.27748,
				"method": "rhf"
			},
			{
				"type": "occ",
				"energy": -0.26427,
				"method": "rhf"
			},
			{
				"type": "occ",
				"energy": -0.25692,
				"method": "rhf"
			},
			{
				"type": "unocc",
				"energy": -0.03292,
				"method": "rhf"
			},
			{
				"type": "unocc",
				"energy": -0.02863,
				"method": "rhf"
			},
			{
				"type": "unocc",
				"energy": -0.00145,
				"method": "rhf"
			},
			{
				"type": "unocc",
				"energy": 0.04335,
				"method": "rhf"
			},
			{
				"type": "unocc",
				"energy": 0.09199,
				"method": "rhf"
			}
		],
		"cosmo_sigma_profile": { 
			"-0.025": 0.0,
			"-0.024": 0.0,
			"-0.023": 0.0,
			"-0.022": 0.0,
			"-0.021": 0.0,
			"-0.02": 0.0,
			"-0.019": 0.0,
			"-0.018": 0.0,
			"-0.017": 0.0,
			"-0.016": 0.0,
			"-0.015": 0.0,
			"-0.014": 0.0,
			"-0.013": 0.0990029335837,
			"-0.012": 0.664366814745,
			"-0.011": 0.581147083005,
			"-0.01": 0.950678851004,
			"-0.009": 0.552359397785,
			"-0.008": 3.32362962798,
			"-0.007": 7.25618377917,
			"-0.006": 9.03936575145,
			"-0.005": 8.57283446073,
			"-0.004": 11.026782737,
			"-0.003": 13.1790625274,
			"-0.002": 11.6034298504,
			"-0.001": 13.540468534,
			"0.0": 15.8296188695,
			"0.001": 21.7067067239,
			"0.002": 22.7603658373,
			"0.003": 17.3755552864,
			"0.004": 13.6404204259,
			"0.005": 4.11799609472,
			"0.006": 1.2206904507,
			"0.007": 0.616034634203,
			"0.008": 0.878623013656,
			"0.009": 1.91530165216,
			"0.01": 0.910142229934,
			"0.011": 1.48681334951,
			"0.012": 1.579684402,
			"0.013": 1.89203739113,
			"0.014": 1.62712629871,
			"0.015": 0.0,
			"0.016": 0.0,
			"0.017": 0.0,
			"0.018": 0.0,
			"0.019": 0.0,
			"0.02": 0.0,
			"0.021": 0.0,
			"0.022": 0.0,
			"0.023": 0.0,
			"0.024": 0.0,
			"0.025": 0.0
		}
	}
}
