{
	 "smiles": "CC(=O)NC1=C(C(O)=O)C(=CS1)C1=CC=CS1", 
	 "Tm": 501.15, 
	 "num_atms": 26, 
	 "gaussian": { 
		 "optdone": 1, 
		 "sigma_profile": "yes", 
		 "theory": "DFT", 
		 "functional": "B3LYP", 
		 "basiset": "6-31G**", 
		 "properties": { 
			 "R2extent": 6515.6892, 
			 "electric_dipole_moment_norm": 4.01919037743, 
			 "electric_quadrupole_moment_norm": 14.7839213404, 
			 "total_energy": -1501.38884933, 
			 "HOMO_LUMO_gap": 0.1647, 
			 "cosmo_polarized_energy": -20.08, 
			 "cosmo_cavitation_energy": 33.94, 
			 "cosmo_dispersion_energy": -25.21, 
			 "cosmo_repulsion_energy": 1.88, 
			 "cosmo_total_nonelectrostatic_energy": 10.6, 
			 "SMD_solvation_energy": 7.27 
		},
		"coords": [
			{
				"x": -2.7210938512,
				"y": 2.8840849942,
				"z": -1.5071443576,
				"element": "C" 
			},
			{
				"x": -1.7842324595,
				"y": 1.7480383126,
				"z": -1.1342607336,
				"element": "C" 
			},
			{
				"x": -2.1536936295,
				"y": 0.5960146236,
				"z": -1.0068050508,
				"element": "O" 
			},
			{
				"x": -0.457208893,
				"y": 2.1370007873,
				"z": -0.9909602441,
				"element": "N" 
			},
			{
				"x": 0.6044305574,
				"y": 1.2900423765,
				"z": -0.6623199186,
				"element": "C" 
			},
			{
				"x": 0.9150815401,
				"y": 0.0332627236,
				"z": -1.1369509975,
				"element": "C" 
			},
			{
				"x": 0.1551790879,
				"y": -0.635987232,
				"z": -2.2250135773,
				"element": "C" 
			},
			{
				"x": -0.2043883358,
				"y": 0.2239189977,
				"z": -3.209708567,
				"element": "O" 
			},
			{
				"x": -0.1038306685,
				"y": -1.8191075457,
				"z": -2.2832341764,
				"element": "O" 
			},
			{
				"x": 2.0863177255,
				"y": -0.530461625,
				"z": -0.4831301528,
				"element": "C" 
			},
			{
				"x": 2.6112912875,
				"y": 0.3366774853,
				"z": 0.4444654743,
				"element": "C" 
			},
			{
				"x": 1.7018710243,
				"y": 1.7980007004,
				"z": 0.5983312695,
				"element": "S" 
			},
			{
				"x": 2.7486603258,
				"y": -1.8071335746,
				"z": -0.7864918986,
				"element": "C" 
			},
			{
				"x": 2.2303155402,
				"y": -3.0625768522,
				"z": -1.0017086496,
				"element": "C" 
			},
			{
				"x": 3.2294932555,
				"y": -4.0623105242,
				"z": -1.1870586526,
				"element": "C" 
			},
			{
				"x": 4.5035925032,
				"y": -3.5697165206,
				"z": -1.1154320644,
				"element": "C" 
			},
			{
				"x": 4.5062510942,
				"y": -1.862619705,
				"z": -0.8264475752,
				"element": "S" 
			},
			{
				"x": -3.7191937471,
				"y": 2.6435498984,
				"z": -1.1399198635,
				"element": "H" 
			},
			{
				"x": -2.7692930806,
				"y": 2.9650520402,
				"z": -2.5986904516,
				"element": "H" 
			},
			{
				"x": -2.4068519545,
				"y": 3.8523736037,
				"z": -1.1059693001,
				"element": "H" 
			},
			{
				"x": -0.2480122246,
				"y": 3.1215248561,
				"z": -1.0753899635,
				"element": "H" 
			},
			{
				"x": -0.7429745056,
				"y": -0.3041045763,
				"z": -3.8228579284,
				"element": "H" 
			},
			{
				"x": 3.4904403179,
				"y": 0.183327902,
				"z": 1.0534479312,
				"element": "H" 
			},
			{
				"x": 1.1664872972,
				"y": -3.2498900716,
				"z": -1.0293430443,
				"element": "H" 
			},
			{
				"x": 3.0040406329,
				"y": -5.1077106816,
				"z": -1.3655155221,
				"element": "H" 
			},
			{
				"x": 5.4382211602,
				"y": -4.1021503927,
				"z": -1.2255919854,
				"element": "H" 
			}
		],
		 "valence_orbital": [ 
			{
				"type": "occ",
				"energy": -0.27211,
				"method": "rhf"
			},
			{
				"type": "occ",
				"energy": -0.2645,
				"method": "rhf"
			},
			{
				"type": "occ",
				"energy": -0.24419,
				"method": "rhf"
			},
			{
				"type": "occ",
				"energy": -0.23919,
				"method": "rhf"
			},
			{
				"type": "occ",
				"energy": -0.20991,
				"method": "rhf"
			},
			{
				"type": "unocc",
				"energy": -0.04521,
				"method": "rhf"
			},
			{
				"type": "unocc",
				"energy": -0.0251,
				"method": "rhf"
			},
			{
				"type": "unocc",
				"energy": 0.00504,
				"method": "rhf"
			},
			{
				"type": "unocc",
				"energy": 0.01494,
				"method": "rhf"
			},
			{
				"type": "unocc",
				"energy": 0.02105,
				"method": "rhf"
			}
		],
		"cosmo_sigma_profile": { 
			"-0.025": 0.0,
			"-0.024": 0.0,
			"-0.023": 0.0,
			"-0.022": 0.0,
			"-0.021": 0.0,
			"-0.02": 0.0,
			"-0.019": 0.0,
			"-0.018": 0.563640800305,
			"-0.017": 1.18183616775,
			"-0.016": 2.12095440665,
			"-0.015": 1.64817254024,
			"-0.014": 1.88723667754,
			"-0.013": 1.43562926703,
			"-0.012": 2.78272576946,
			"-0.011": 2.30419441426,
			"-0.01": 2.32454855078,
			"-0.009": 3.34886239511,
			"-0.008": 5.88334768031,
			"-0.007": 7.59266580299,
			"-0.006": 10.7227454881,
			"-0.005": 13.3114624011,
			"-0.004": 13.7933722596,
			"-0.003": 16.9696219379,
			"-0.002": 17.0425055215,
			"-0.001": 18.7753140125,
			"0.0": 16.5534897521,
			"0.001": 22.2765632747,
			"0.002": 22.9120225428,
			"0.003": 18.8221209952,
			"0.004": 18.6986482256,
			"0.005": 13.1342431691,
			"0.006": 6.38454361439,
			"0.007": 5.23890757975,
			"0.008": 4.33900495716,
			"0.009": 5.49624861582,
			"0.01": 5.59705551725,
			"0.011": 4.49839228418,
			"0.012": 4.88143425734,
			"0.013": 2.60986427554,
			"0.014": 0.834881510765,
			"0.015": 0.0,
			"0.016": 0.0,
			"0.017": 0.0,
			"0.018": 0.0,
			"0.019": 0.0,
			"0.02": 0.0,
			"0.021": 0.0,
			"0.022": 0.0,
			"0.023": 0.0,
			"0.024": 0.0,
			"0.025": 0.0
		}
	}
}
