{
	 "smiles": "CC1=C(O)C(=CC=C1)C1=NC2=C(N1)C=CC(F)=C2", 
	 "Tm": 525.15, 
	 "num_atms": 29, 
	 "gaussian": { 
		 "optdone": 1, 
		 "sigma_profile": "yes", 
		 "theory": "DFT", 
		 "functional": "B3LYP", 
		 "basiset": "6-31G**", 
		 "properties": { 
			 "R2extent": 6394.4588, 
			 "electric_dipole_moment_norm": 6.69834867411, 
			 "electric_quadrupole_moment_norm": 10.766763731, 
			 "total_energy": -824.708931572, 
			 "HOMO_LUMO_gap": 0.1632, 
			 "cosmo_polarized_energy": -15.18, 
			 "cosmo_cavitation_energy": 33.27, 
			 "cosmo_dispersion_energy": -24.94, 
			 "cosmo_repulsion_energy": 1.85, 
			 "cosmo_total_nonelectrostatic_energy": 10.18, 
			 "SMD_solvation_energy": 4.12 
		},
		"coords": [
			{
				"x": -2.5334525273,
				"y": 4.3025536994,
				"z": 0.0023084269,
				"element": "C" 
			},
			{
				"x": -2.5019462615,
				"y": 2.8403927938,
				"z": -0.3796595588,
				"element": "C" 
			},
			{
				"x": -1.6474961905,
				"y": 1.9519385199,
				"z": 0.2961839643,
				"element": "C" 
			},
			{
				"x": -0.833037399,
				"y": 2.406418001,
				"z": 1.310956693,
				"element": "O" 
			},
			{
				"x": -1.5938551555,
				"y": 0.5837488001,
				"z": -0.0350627957,
				"element": "C" 
			},
			{
				"x": -2.425207885,
				"y": 0.1209845283,
				"z": -1.0703392287,
				"element": "C" 
			},
			{
				"x": -3.2749481928,
				"y": 0.9841012056,
				"z": -1.7481632638,
				"element": "C" 
			},
			{
				"x": -3.3099041996,
				"y": 2.3363566334,
				"z": -1.4012828812,
				"element": "C" 
			},
			{
				"x": -0.7225320969,
				"y": -0.3881508135,
				"z": 0.6351728469,
				"element": "C" 
			},
			{
				"x": -0.6779270876,
				"y": -1.6726554648,
				"z": 0.3182201037,
				"element": "N" 
			},
			{
				"x": 0.252027147,
				"y": -2.2262099433,
				"z": 1.1708363511,
				"element": "C" 
			},
			{
				"x": 0.7859110887,
				"y": -1.2329053745,
				"z": 2.0332742007,
				"element": "C" 
			},
			{
				"x": 0.1404040495,
				"y": -0.0707121806,
				"z": 1.6628231336,
				"element": "N" 
			},
			{
				"x": 1.7513289269,
				"y": -1.5208823604,
				"z": 2.9998288289,
				"element": "C" 
			},
			{
				"x": 2.1829276559,
				"y": -2.8413314406,
				"z": 3.0929307114,
				"element": "C" 
			},
			{
				"x": 1.6503764378,
				"y": -3.8190199903,
				"z": 2.2364756755,
				"element": "C" 
			},
			{
				"x": 2.1073870512,
				"y": -5.0870829132,
				"z": 2.3721336324,
				"element": "F" 
			},
			{
				"x": 0.6935598419,
				"y": -3.5545529747,
				"z": 1.2725393466,
				"element": "C" 
			},
			{
				"x": -1.5575425426,
				"y": 4.7896754397,
				"z": -0.1327259272,
				"element": "H" 
			},
			{
				"x": -3.2472005017,
				"y": 4.8477122764,
				"z": -0.6190916843,
				"element": "H" 
			},
			{
				"x": -2.8407286857,
				"y": 4.4539510403,
				"z": 1.0466147677,
				"element": "H" 
			},
			{
				"x": -0.9682654142,
				"y": 3.3538353235,
				"z": 1.4338536319,
				"element": "H" 
			},
			{
				"x": -2.3751646657,
				"y": -0.9336231543,
				"z": -1.3161654399,
				"element": "H" 
			},
			{
				"x": -3.9095982026,
				"y": 0.6089917587,
				"z": -2.5446790493,
				"element": "H" 
			},
			{
				"x": -3.9731693166,
				"y": 3.0170997883,
				"z": -1.9284442208,
				"element": "H" 
			},
			{
				"x": 0.244513297,
				"y": 0.858800167,
				"z": 2.0404240225,
				"element": "H" 
			},
			{
				"x": 2.1554713666,
				"y": -0.7564988666,
				"z": 3.6561451814,
				"element": "H" 
			},
			{
				"x": 2.9303312432,
				"y": -3.1386893418,
				"z": 3.8200033236,
				"element": "H" 
			},
			{
				"x": 0.3088382189,
				"y": -4.3389451566,
				"z": 0.6315892074,
				"element": "H" 
			}
		],
		 "valence_orbital": [ 
			{
				"type": "occ",
				"energy": -0.26595,
				"method": "rhf"
			},
			{
				"type": "occ",
				"energy": -0.26583,
				"method": "rhf"
			},
			{
				"type": "occ",
				"energy": -0.23716,
				"method": "rhf"
			},
			{
				"type": "occ",
				"energy": -0.21778,
				"method": "rhf"
			},
			{
				"type": "occ",
				"energy": -0.20488,
				"method": "rhf"
			},
			{
				"type": "unocc",
				"energy": -0.04168,
				"method": "rhf"
			},
			{
				"type": "unocc",
				"energy": -0.00152,
				"method": "rhf"
			},
			{
				"type": "unocc",
				"energy": 0.01349,
				"method": "rhf"
			},
			{
				"type": "unocc",
				"energy": 0.03568,
				"method": "rhf"
			},
			{
				"type": "unocc",
				"energy": 0.04577,
				"method": "rhf"
			}
		],
		"cosmo_sigma_profile": { 
			"-0.025": 0.0,
			"-0.024": 0.0,
			"-0.023": 0.0,
			"-0.022": 0.0,
			"-0.021": 0.0,
			"-0.02": 0.0,
			"-0.019": 0.0,
			"-0.018": 0.0,
			"-0.017": 0.156496190306,
			"-0.016": 0.796480779965,
			"-0.015": 1.19081830147,
			"-0.014": 1.00798123772,
			"-0.013": 1.31988611504,
			"-0.012": 1.86586250556,
			"-0.011": 2.13763572367,
			"-0.01": 2.11484992449,
			"-0.009": 2.5639455498,
			"-0.008": 2.21610319171,
			"-0.007": 6.14231725656,
			"-0.006": 12.6572152064,
			"-0.005": 15.5556283433,
			"-0.004": 16.0940936287,
			"-0.003": 14.6959973443,
			"-0.002": 16.1316852584,
			"-0.001": 15.1853772999,
			"0.0": 16.218368899,
			"0.001": 20.7068765823,
			"0.002": 26.0022843719,
			"0.003": 24.388738279,
			"0.004": 30.6828010604,
			"0.005": 21.7550798567,
			"0.006": 3.84043476122,
			"0.007": 1.56953187412,
			"0.008": 2.0092123551,
			"0.009": 1.72970148764,
			"0.01": 1.30007568396,
			"0.011": 0.783301787992,
			"0.012": 1.31040840141,
			"0.013": 1.1168249987,
			"0.014": 1.40616870167,
			"0.015": 0.464789127454,
			"0.016": 0.0,
			"0.017": 0.0,
			"0.018": 0.0,
			"0.019": 0.0,
			"0.02": 0.0,
			"0.021": 0.0,
			"0.022": 0.0,
			"0.023": 0.0,
			"0.024": 0.0,
			"0.025": 0.0
		}
	}
}
