{
	 "smiles": "OC(CCl)CNCC1=CC=CC=C1", 
	 "Tm": 337.15, 
	 "num_atms": 27, 
	 "gaussian": { 
		 "optdone": 1, 
		 "sigma_profile": "yes", 
		 "theory": "DFT", 
		 "functional": "B3LYP", 
		 "basiset": "6-31G**", 
		 "properties": { 
			 "R2extent": 5110.9349, 
			 "electric_dipole_moment_norm": 2.27937919838, 
			 "electric_quadrupole_moment_norm": 9.84534859413, 
			 "total_energy": -979.663154215, 
			 "HOMO_LUMO_gap": 0.22153, 
			 "cosmo_polarized_energy": -10.29, 
			 "cosmo_cavitation_energy": 31.68, 
			 "cosmo_dispersion_energy": -22.63, 
			 "cosmo_repulsion_energy": 1.83, 
			 "cosmo_total_nonelectrostatic_energy": 10.88, 
			 "SMD_solvation_energy": 3.16 
		},
		"coords": [
			{
				"x": 0.7773180196,
				"y": -1.30099945,
				"z": 3.0411045507,
				"element": "O" 
			},
			{
				"x": 1.1058874247,
				"y": 0.0413155491,
				"z": 2.7347494008,
				"element": "C" 
			},
			{
				"x": 0.8633689502,
				"y": 0.9727218169,
				"z": 3.9182907914,
				"element": "C" 
			},
			{
				"x": 1.9591596,
				"y": 0.5431151895,
				"z": 5.3138406854,
				"element": "Cl" 
			},
			{
				"x": 0.2284764916,
				"y": 0.4419626626,
				"z": 1.542831689,
				"element": "C" 
			},
			{
				"x": 0.5684109982,
				"y": 1.7855600927,
				"z": 1.0783620447,
				"element": "N" 
			},
			{
				"x": -0.3326260933,
				"y": 2.3296121493,
				"z": 0.0499370919,
				"element": "C" 
			},
			{
				"x": -0.3461173303,
				"y": 1.5879643548,
				"z": -1.2778805071,
				"element": "C" 
			},
			{
				"x": -1.3158686303,
				"y": 0.6176025088,
				"z": -1.5619146638,
				"element": "C" 
			},
			{
				"x": -1.290935467,
				"y": -0.0898203775,
				"z": -2.7656978347,
				"element": "C" 
			},
			{
				"x": -0.2926556716,
				"y": 0.1658416122,
				"z": -3.7068066006,
				"element": "C" 
			},
			{
				"x": 0.6779525383,
				"y": 1.134189904,
				"z": -3.4390049522,
				"element": "C" 
			},
			{
				"x": 0.6482546437,
				"y": 1.8375472649,
				"z": -2.2348910442,
				"element": "C" 
			},
			{
				"x": 1.2972561737,
				"y": -1.5567569072,
				"z": 3.8160658848,
				"element": "H" 
			},
			{
				"x": 2.1662560095,
				"y": 0.1279970262,
				"z": 2.4406071263,
				"element": "H" 
			},
			{
				"x": 1.0654172097,
				"y": 2.0090498845,
				"z": 3.6529279251,
				"element": "H" 
			},
			{
				"x": -0.1570611033,
				"y": 0.8666924253,
				"z": 4.2904584028,
				"element": "H" 
			},
			{
				"x": 0.3243356728,
				"y": -0.3460377766,
				"z": 0.7795291758,
				"element": "H" 
			},
			{
				"x": -0.8210666381,
				"y": 0.4416960815,
				"z": 1.864069604,
				"element": "H" 
			},
			{
				"x": 1.5172714802,
				"y": 1.7789779832,
				"z": 0.7077447529,
				"element": "H" 
			},
			{
				"x": -0.0375399827,
				"y": 3.3720411551,
				"z": -0.117409174,
				"element": "H" 
			},
			{
				"x": -1.3432039328,
				"y": 2.3490400322,
				"z": 0.4747495849,
				"element": "H" 
			},
			{
				"x": -2.1017228992,
				"y": 0.4193582319,
				"z": -0.8367753247,
				"element": "H" 
			},
			{
				"x": -2.0524368028,
				"y": -0.8375761629,
				"z": -2.9689134763,
				"element": "H" 
			},
			{
				"x": -0.2735270678,
				"y": -0.381114712,
				"z": -4.6450448625,
				"element": "H" 
			},
			{
				"x": 1.4525064181,
				"y": 1.3457323162,
				"z": -4.1709765116,
				"element": "H" 
			},
			{
				"x": 1.4013899889,
				"y": 2.5981871454,
				"z": -2.0374537589,
				"element": "H" 
			}
		],
		 "valence_orbital": [ 
			{
				"type": "occ",
				"energy": -0.29813,
				"method": "rhf"
			},
			{
				"type": "occ",
				"energy": -0.27368,
				"method": "rhf"
			},
			{
				"type": "occ",
				"energy": -0.25427,
				"method": "rhf"
			},
			{
				"type": "occ",
				"energy": -0.2517,
				"method": "rhf"
			},
			{
				"type": "occ",
				"energy": -0.2293,
				"method": "rhf"
			},
			{
				"type": "unocc",
				"energy": -0.00777,
				"method": "rhf"
			},
			{
				"type": "unocc",
				"energy": -0.0054,
				"method": "rhf"
			},
			{
				"type": "unocc",
				"energy": 0.0238,
				"method": "rhf"
			},
			{
				"type": "unocc",
				"energy": 0.08316,
				"method": "rhf"
			},
			{
				"type": "unocc",
				"energy": 0.08908,
				"method": "rhf"
			}
		],
		"cosmo_sigma_profile": { 
			"-0.025": 0.0,
			"-0.024": 0.0,
			"-0.023": 0.0,
			"-0.022": 0.0,
			"-0.021": 0.0,
			"-0.02": 0.0,
			"-0.019": 0.0,
			"-0.018": 0.0,
			"-0.017": 0.0,
			"-0.016": 0.0,
			"-0.015": 0.0,
			"-0.014": 0.0413373008313,
			"-0.013": 0.615794676071,
			"-0.012": 0.493339736272,
			"-0.011": 1.00264078825,
			"-0.01": 1.28852212561,
			"-0.009": 1.5827972581,
			"-0.008": 2.64569601495,
			"-0.007": 4.44916081006,
			"-0.006": 9.84806919085,
			"-0.005": 19.3839575951,
			"-0.004": 27.4397787745,
			"-0.003": 24.6263295102,
			"-0.002": 17.9094828263,
			"-0.001": 15.7447442361,
			"0.0": 16.4421765123,
			"0.001": 15.9274163561,
			"0.002": 11.9040254685,
			"0.003": 14.7974693851,
			"0.004": 14.0872566984,
			"0.005": 14.7502533997,
			"0.006": 17.1382224196,
			"0.007": 6.33130107612,
			"0.008": 1.62284568993,
			"0.009": 2.13528678964,
			"0.01": 1.82444138379,
			"0.011": 1.28751219342,
			"0.012": 2.49588957923,
			"0.013": 2.06823309484,
			"0.014": 0.860022961229,
			"0.015": 0.0,
			"0.016": 0.0,
			"0.017": 0.0,
			"0.018": 0.0,
			"0.019": 0.0,
			"0.02": 0.0,
			"0.021": 0.0,
			"0.022": 0.0,
			"0.023": 0.0,
			"0.024": 0.0,
			"0.025": 0.0
		}
	}
}
