{
	 "smiles": "CCCCCCCCC(N)=O", 
	 "Tm": 372.65, 
	 "num_atms": 30, 
	 "gaussian": { 
		 "optdone": 1, 
		 "sigma_profile": "yes", 
		 "theory": "DFT", 
		 "functional": "B3LYP", 
		 "basiset": "6-31G**", 
		 "properties": { 
			 "R2extent": 3340.9344, 
			 "electric_dipole_moment_norm": 3.41317633591, 
			 "electric_quadrupole_moment_norm": 18.1760989844, 
			 "total_energy": -484.425601964, 
			 "HOMO_LUMO_gap": 0.27622, 
			 "cosmo_polarized_energy": -11.99, 
			 "cosmo_cavitation_energy": 31.2, 
			 "cosmo_dispersion_energy": -21.41, 
			 "cosmo_repulsion_energy": 1.79, 
			 "cosmo_total_nonelectrostatic_energy": 11.58, 
			 "SMD_solvation_energy": 5.3 
		},
		"coords": [
			{
				"x": 1.6489140332,
				"y": -0.3225539022,
				"z": -3.6043282037,
				"element": "C" 
			},
			{
				"x": 1.4065263597,
				"y": -1.5189530771,
				"z": -2.6764583452,
				"element": "C" 
			},
			{
				"x": -0.0513598873,
				"y": -1.6728015078,
				"z": -2.2071614086,
				"element": "C" 
			},
			{
				"x": -0.6094226739,
				"y": -0.5195816566,
				"z": -1.3540273533,
				"element": "C" 
			},
			{
				"x": 0.100655421,
				"y": -0.3270485923,
				"z": -0.005385298,
				"element": "C" 
			},
			{
				"x": -0.5679163349,
				"y": 0.6988976485,
				"z": 0.9269611965,
				"element": "C" 
			},
			{
				"x": -0.6165761494,
				"y": 2.1501511701,
				"z": 0.4166515583,
				"element": "C" 
			},
			{
				"x": 0.7546447223,
				"y": 2.8024816532,
				"z": 0.1960514355,
				"element": "C" 
			},
			{
				"x": 1.5201236937,
				"y": 3.0215443033,
				"z": 1.5024428034,
				"element": "C" 
			},
			{
				"x": 2.8830509123,
				"y": 3.0510239973,
				"z": 1.3787546267,
				"element": "N" 
			},
			{
				"x": 0.9645812673,
				"y": 3.1782026102,
				"z": 2.5809229467,
				"element": "O" 
			},
			{
				"x": 1.4486102941,
				"y": 0.6311773203,
				"z": -3.104146154,
				"element": "H" 
			},
			{
				"x": 2.6864943523,
				"y": -0.2974645282,
				"z": -3.9539076127,
				"element": "H" 
			},
			{
				"x": 1.0021867567,
				"y": -0.3707898983,
				"z": -4.4882998212,
				"element": "H" 
			},
			{
				"x": 1.6978028901,
				"y": -2.4385867299,
				"z": -3.1999558824,
				"element": "H" 
			},
			{
				"x": 2.0725458285,
				"y": -1.448595919,
				"z": -1.8069752899,
				"element": "H" 
			},
			{
				"x": -0.1390350127,
				"y": -2.6068442937,
				"z": -1.6352977966,
				"element": "H" 
			},
			{
				"x": -0.691430776,
				"y": -1.7978801598,
				"z": -3.091549838,
				"element": "H" 
			},
			{
				"x": -0.5791369656,
				"y": 0.4131161699,
				"z": -1.9314490581,
				"element": "H" 
			},
			{
				"x": -1.6738614755,
				"y": -0.7153868779,
				"z": -1.1641241087,
				"element": "H" 
			},
			{
				"x": 1.1502534552,
				"y": -0.050134675,
				"z": -0.1704855605,
				"element": "H" 
			},
			{
				"x": 0.132327919,
				"y": -1.293995686,
				"z": 0.5156651838,
				"element": "H" 
			},
			{
				"x": -0.0571136574,
				"y": 0.6918545109,
				"z": 1.8968047384,
				"element": "H" 
			},
			{
				"x": -1.5980451874,
				"y": 0.3731114082,
				"z": 1.1250538971,
				"element": "H" 
			},
			{
				"x": -1.1557460754,
				"y": 2.7555578178,
				"z": 1.1520007357,
				"element": "H" 
			},
			{
				"x": -1.1846557873,
				"y": 2.2045850442,
				"z": -0.5193980973,
				"element": "H" 
			},
			{
				"x": 0.6165581774,
				"y": 3.7931657112,
				"z": -0.2585813138,
				"element": "H" 
			},
			{
				"x": 1.3664882317,
				"y": 2.2268488783,
				"z": -0.509094065,
				"element": "H" 
			},
			{
				"x": 3.4269968115,
				"y": 3.2879351709,
				"z": 2.1947078029,
				"element": "H" 
			},
			{
				"x": 3.3450388568,
				"y": 2.9930640896,
				"z": 0.4861082818,
				"element": "H" 
			}
		],
		 "valence_orbital": [ 
			{
				"type": "occ",
				"energy": -0.30768,
				"method": "rhf"
			},
			{
				"type": "occ",
				"energy": -0.30489,
				"method": "rhf"
			},
			{
				"type": "occ",
				"energy": -0.30215,
				"method": "rhf"
			},
			{
				"type": "occ",
				"energy": -0.26411,
				"method": "rhf"
			},
			{
				"type": "occ",
				"energy": -0.24358,
				"method": "rhf"
			},
			{
				"type": "unocc",
				"energy": 0.03264,
				"method": "rhf"
			},
			{
				"type": "unocc",
				"energy": 0.06022,
				"method": "rhf"
			},
			{
				"type": "unocc",
				"energy": 0.08373,
				"method": "rhf"
			},
			{
				"type": "unocc",
				"energy": 0.10503,
				"method": "rhf"
			},
			{
				"type": "unocc",
				"energy": 0.11111,
				"method": "rhf"
			}
		],
		"cosmo_sigma_profile": { 
			"-0.025": 0.0,
			"-0.024": 0.0,
			"-0.023": 0.0,
			"-0.022": 0.0,
			"-0.021": 0.0,
			"-0.02": 0.0,
			"-0.019": 0.0,
			"-0.018": 0.0,
			"-0.017": 0.0,
			"-0.016": 0.0,
			"-0.015": 0.0106235889624,
			"-0.014": 0.97481208215,
			"-0.013": 2.33018790039,
			"-0.012": 2.82063761527,
			"-0.011": 2.01679754673,
			"-0.01": 2.00999581837,
			"-0.009": 2.48556409819,
			"-0.008": 2.59139859649,
			"-0.007": 2.30143346058,
			"-0.006": 2.06073960722,
			"-0.005": 3.50870794496,
			"-0.004": 5.64043729588,
			"-0.003": 8.49830794841,
			"-0.002": 30.1159331174,
			"-0.001": 41.8679037821,
			"0.0": 41.854205135,
			"0.001": 40.8061539625,
			"0.002": 15.8602835907,
			"0.003": 4.17626886918,
			"0.004": 3.3650080889,
			"0.005": 2.01931088352,
			"0.006": 2.32241976616,
			"0.007": 1.89347106774,
			"0.008": 1.76171269892,
			"0.009": 1.86361160536,
			"0.01": 1.4196723066,
			"0.011": 1.17730973418,
			"0.012": 1.96747890963,
			"0.013": 2.16412963591,
			"0.014": 5.28009719387,
			"0.015": 2.57186667545,
			"0.016": 0.010737230222,
			"0.017": 0.0,
			"0.018": 0.0,
			"0.019": 0.0,
			"0.02": 0.0,
			"0.021": 0.0,
			"0.022": 0.0,
			"0.023": 0.0,
			"0.024": 0.0,
			"0.025": 0.0
		}
	}
}
