{
	 "smiles": "COC1=C(NC(=O)CC2NC3=C(NC2=O)C=CC=C3)C=CC=C1", 
	 "Tm": 446.15, 
	 "num_atms": 40, 
	 "gaussian": { 
		 "optdone": 1, 
		 "sigma_profile": "yes", 
		 "theory": "DFT", 
		 "functional": "B3LYP", 
		 "basiset": "6-31G**", 
		 "properties": { 
			 "R2extent": 8460.1355, 
			 "electric_dipole_moment_norm": 4.82666763513, 
			 "electric_quadrupole_moment_norm": 10.3382429697, 
			 "total_energy": -1048.00831419, 
			 "HOMO_LUMO_gap": 0.16263, 
			 "cosmo_polarized_energy": -20.23, 
			 "cosmo_cavitation_energy": 43.76, 
			 "cosmo_dispersion_energy": -30.01, 
			 "cosmo_repulsion_energy": 2.3, 
			 "cosmo_total_nonelectrostatic_energy": 16.05, 
			 "SMD_solvation_energy": 7.88 
		},
		"coords": [
			{
				"x": 2.5926466017,
				"y": -2.6208127637,
				"z": -2.0377526254,
				"element": "C" 
			},
			{
				"x": 1.3697140152,
				"y": -2.3593607741,
				"z": -1.3584116543,
				"element": "O" 
			},
			{
				"x": 1.2826428158,
				"y": -2.6583092858,
				"z": -0.0338994305,
				"element": "C" 
			},
			{
				"x": 0.0472677637,
				"y": -2.3669554921,
				"z": 0.5906057374,
				"element": "C" 
			},
			{
				"x": -1.0458251747,
				"y": -1.8448730566,
				"z": -0.1607326419,
				"element": "N" 
			},
			{
				"x": -1.1653587302,
				"y": -0.6163440707,
				"z": -0.7588307239,
				"element": "C" 
			},
			{
				"x": -2.1569347635,
				"y": -0.3523345891,
				"z": -1.4371007402,
				"element": "O" 
			},
			{
				"x": -0.0532642091,
				"y": 0.3918930721,
				"z": -0.502823557,
				"element": "C" 
			},
			{
				"x": -0.263103061,
				"y": 1.6884432473,
				"z": -1.3187024763,
				"element": "C" 
			},
			{
				"x": -1.4904151821,
				"y": 2.4126388976,
				"z": -1.0079539141,
				"element": "N" 
			},
			{
				"x": -1.5274538272,
				"y": 3.2482435931,
				"z": 0.1005827553,
				"element": "C" 
			},
			{
				"x": -0.3349574982,
				"y": 3.8997454631,
				"z": 0.4820313222,
				"element": "C" 
			},
			{
				"x": 0.8269853743,
				"y": 3.6157607471,
				"z": -0.2629878212,
				"element": "N" 
			},
			{
				"x": 0.9689999412,
				"y": 2.5794413887,
				"z": -1.1476547039,
				"element": "C" 
			},
			{
				"x": 2.0228972665,
				"y": 2.346169134,
				"z": -1.7238126121,
				"element": "O" 
			},
			{
				"x": -0.3246953666,
				"y": 4.8030321456,
				"z": 1.5423433891,
				"element": "C" 
			},
			{
				"x": -1.5037785821,
				"y": 5.0846593096,
				"z": 2.237080204,
				"element": "C" 
			},
			{
				"x": -2.6888456723,
				"y": 4.4484820655,
				"z": 1.8658755883,
				"element": "C" 
			},
			{
				"x": -2.7003291824,
				"y": 3.533906199,
				"z": 0.8114235256,
				"element": "C" 
			},
			{
				"x": -0.1216492451,
				"y": -2.6600703692,
				"z": 1.9442979113,
				"element": "C" 
			},
			{
				"x": 0.9090857217,
				"y": -3.2310825744,
				"z": 2.6929208049,
				"element": "C" 
			},
			{
				"x": 2.1281713929,
				"y": -3.5007106229,
				"z": 2.07561358,
				"element": "C" 
			},
			{
				"x": 2.3210460156,
				"y": -3.214606929,
				"z": 0.7218818609,
				"element": "C" 
			},
			{
				"x": 2.4316278304,
				"y": -2.3065205894,
				"z": -3.0692607041,
				"element": "H" 
			},
			{
				"x": 2.841486376,
				"y": -3.6888688352,
				"z": -2.016655783,
				"element": "H" 
			},
			{
				"x": 3.4213385583,
				"y": -2.044415831,
				"z": -1.6096805054,
				"element": "H" 
			},
			{
				"x": -1.8358551099,
				"y": -2.4528642989,
				"z": -0.34229195,
				"element": "H" 
			},
			{
				"x": -0.0150482672,
				"y": 0.6138322296,
				"z": 0.5714391372,
				"element": "H" 
			},
			{
				"x": 0.9100603108,
				"y": -0.0453231789,
				"z": -0.7776422438,
				"element": "H" 
			},
			{
				"x": -0.2934066847,
				"y": 1.4150940588,
				"z": -2.3766913925,
				"element": "H" 
			},
			{
				"x": -2.3057563428,
				"y": 1.8299009571,
				"z": -1.1601714635,
				"element": "H" 
			},
			{
				"x": 1.6615592401,
				"y": 4.1673300384,
				"z": -0.1092832006,
				"element": "H" 
			},
			{
				"x": 0.6081586729,
				"y": 5.2889314853,
				"z": 1.8184257771,
				"element": "H" 
			},
			{
				"x": -1.4904925664,
				"y": 5.7932740751,
				"z": 3.0588433595,
				"element": "H" 
			},
			{
				"x": -3.6110020464,
				"y": 4.6575835132,
				"z": 2.3999520601,
				"element": "H" 
			},
			{
				"x": -3.6238196725,
				"y": 3.0392679589,
				"z": 0.5219395143,
				"element": "H" 
			},
			{
				"x": -1.0790613187,
				"y": -2.4304627701,
				"z": 2.4028452772,
				"element": "H" 
			},
			{
				"x": 0.7605136001,
				"y": -3.4537159099,
				"z": 3.7444707108,
				"element": "H" 
			},
			{
				"x": 2.9436967063,
				"y": -3.9375622845,
				"z": 2.644481868,
				"element": "H" 
			},
			{
				"x": 3.2754542995,
				"y": -3.4365353536,
				"z": 0.2599857605,
				"element": "H" 
			}
		],
		 "valence_orbital": [ 
			{
				"type": "occ",
				"energy": -0.25424,
				"method": "rhf"
			},
			{
				"type": "occ",
				"energy": -0.24967,
				"method": "rhf"
			},
			{
				"type": "occ",
				"energy": -0.23177,
				"method": "rhf"
			},
			{
				"type": "occ",
				"energy": -0.22334,
				"method": "rhf"
			},
			{
				"type": "occ",
				"energy": -0.18483,
				"method": "rhf"
			},
			{
				"type": "unocc",
				"energy": -0.0222,
				"method": "rhf"
			},
			{
				"type": "unocc",
				"energy": -0.00359,
				"method": "rhf"
			},
			{
				"type": "unocc",
				"energy": -0.00134,
				"method": "rhf"
			},
			{
				"type": "unocc",
				"energy": 0.0135,
				"method": "rhf"
			},
			{
				"type": "unocc",
				"energy": 0.02396,
				"method": "rhf"
			}
		],
		"cosmo_sigma_profile": { 
			"-0.025": 0.0,
			"-0.024": 0.0,
			"-0.023": 0.0,
			"-0.022": 0.0,
			"-0.021": 0.0,
			"-0.02": 0.0,
			"-0.019": 0.0,
			"-0.018": 0.0,
			"-0.017": 0.0,
			"-0.016": 0.0,
			"-0.015": 0.634471152112,
			"-0.014": 2.40239458411,
			"-0.013": 1.77039162933,
			"-0.012": 1.6983229714,
			"-0.011": 2.41140086222,
			"-0.01": 2.28480355298,
			"-0.009": 2.57086407182,
			"-0.008": 3.24697678012,
			"-0.007": 5.53279378176,
			"-0.006": 21.232184997,
			"-0.005": 30.383033843,
			"-0.004": 29.6825195794,
			"-0.003": 31.9447096281,
			"-0.002": 23.3507718308,
			"-0.001": 21.3709146363,
			"0.0": 18.7116690176,
			"0.001": 19.3520046235,
			"0.002": 19.0504566645,
			"0.003": 18.3131393202,
			"0.004": 19.7164383351,
			"0.005": 18.7674439176,
			"0.006": 13.4417676875,
			"0.007": 9.30332129889,
			"0.008": 3.71098957341,
			"0.009": 3.07665519268,
			"0.01": 2.96052666927,
			"0.011": 4.12138482596,
			"0.012": 4.95772800085,
			"0.013": 8.17565605521,
			"0.014": 3.62376646503,
			"0.015": 0.0437046442048,
			"0.016": 0.0,
			"0.017": 0.0,
			"0.018": 0.0,
			"0.019": 0.0,
			"0.02": 0.0,
			"0.021": 0.0,
			"0.022": 0.0,
			"0.023": 0.0,
			"0.024": 0.0,
			"0.025": 0.0
		}
	}
}
