{
	 "smiles": "CCC1=CC(CC)=CC=C1", 
	 "Tm": 189.15, 
	 "num_atms": 24, 
	 "gaussian": { 
		 "optdone": 1, 
		 "sigma_profile": "yes", 
		 "theory": "DFT", 
		 "functional": "B3LYP", 
		 "basiset": "6-31G**", 
		 "properties": { 
			 "R2extent": 1850.6391, 
			 "electric_dipole_moment_norm": 0.276428960133, 
			 "electric_quadrupole_moment_norm": 4.37488344073, 
			 "total_energy": -389.523944945, 
			 "HOMO_LUMO_gap": 0.23646, 
			 "cosmo_polarized_energy": -3.05, 
			 "cosmo_cavitation_energy": 26.41, 
			 "cosmo_dispersion_energy": -18.7, 
			 "cosmo_repulsion_energy": 1.55, 
			 "cosmo_total_nonelectrostatic_energy": 9.25, 
			 "SMD_solvation_energy": 4.43 
		},
		"coords": [
			{
				"x": 1.8338001846,
				"y": -1.5864062847,
				"z": 2.2673763843,
				"element": "C" 
			},
			{
				"x": 2.11383722,
				"y": -0.2649797336,
				"z": 1.5289597548,
				"element": "C" 
			},
			{
				"x": 0.8609772354,
				"y": 0.3676842366,
				"z": 0.9593036305,
				"element": "C" 
			},
			{
				"x": 0.4252259737,
				"y": 0.0548072608,
				"z": -0.3344991375,
				"element": "C" 
			},
			{
				"x": -0.7476331179,
				"y": 0.5972350717,
				"z": -0.8747800527,
				"element": "C" 
			},
			{
				"x": -1.2121974513,
				"y": 0.2097538372,
				"z": -2.2634687212,
				"element": "C" 
			},
			{
				"x": -2.1383677726,
				"y": -1.0199159885,
				"z": -2.2628445964,
				"element": "C" 
			},
			{
				"x": -1.4962766467,
				"y": 1.481188154,
				"z": -0.0866587163,
				"element": "C" 
			},
			{
				"x": -1.0784785638,
				"y": 1.8074227003,
				"z": 1.2037033156,
				"element": "C" 
			},
			{
				"x": 0.0918726563,
				"y": 1.2546482686,
				"z": 1.7240111559,
				"element": "C" 
			},
			{
				"x": 2.7579886605,
				"y": -2.0171125615,
				"z": 2.6673780866,
				"element": "H" 
			},
			{
				"x": 1.3790605969,
				"y": -2.3215970789,
				"z": 1.5954473672,
				"element": "H" 
			},
			{
				"x": 1.1427181737,
				"y": -1.4297937939,
				"z": 3.1020193072,
				"element": "H" 
			},
			{
				"x": 2.5972440009,
				"y": 0.437178137,
				"z": 2.2189428083,
				"element": "H" 
			},
			{
				"x": 2.8311622619,
				"y": -0.4496153418,
				"z": 0.7202090209,
				"element": "H" 
			},
			{
				"x": 1.0211619996,
				"y": -0.6247109502,
				"z": -0.9422001482,
				"element": "H" 
			},
			{
				"x": -0.3409695484,
				"y": 0.0038162367,
				"z": -2.896935054,
				"element": "H" 
			},
			{
				"x": -1.7376647038,
				"y": 1.0556281717,
				"z": -2.7229916447,
				"element": "H" 
			},
			{
				"x": -1.6306293238,
				"y": -1.8922318831,
				"z": -1.8385262214,
				"element": "H" 
			},
			{
				"x": -2.4569065658,
				"y": -1.2730916451,
				"z": -3.279736289,
				"element": "H" 
			},
			{
				"x": -3.0347533462,
				"y": -0.8347728765,
				"z": -1.6620412383,
				"element": "H" 
			},
			{
				"x": -2.4049897225,
				"y": 1.9219128132,
				"z": -0.4901988679,
				"element": "H" 
			},
			{
				"x": -1.6618446548,
				"y": 2.502004645,
				"z": 1.8022769518,
				"element": "H" 
			},
			{
				"x": 0.4172624539,
				"y": 1.5193486049,
				"z": 2.7274529041,
				"element": "H" 
			}
		],
		 "valence_orbital": [ 
			{
				"type": "occ",
				"energy": -0.33346,
				"method": "rhf"
			},
			{
				"type": "occ",
				"energy": -0.32096,
				"method": "rhf"
			},
			{
				"type": "occ",
				"energy": -0.31713,
				"method": "rhf"
			},
			{
				"type": "occ",
				"energy": -0.23742,
				"method": "rhf"
			},
			{
				"type": "occ",
				"energy": -0.23044,
				"method": "rhf"
			},
			{
				"type": "unocc",
				"energy": 0.00602,
				"method": "rhf"
			},
			{
				"type": "unocc",
				"energy": 0.00658,
				"method": "rhf"
			},
			{
				"type": "unocc",
				"energy": 0.09191,
				"method": "rhf"
			},
			{
				"type": "unocc",
				"energy": 0.11406,
				"method": "rhf"
			},
			{
				"type": "unocc",
				"energy": 0.12093,
				"method": "rhf"
			}
		],
		"cosmo_sigma_profile": { 
			"-0.025": 0.0,
			"-0.024": 0.0,
			"-0.023": 0.0,
			"-0.022": 0.0,
			"-0.021": 0.0,
			"-0.02": 0.0,
			"-0.019": 0.0,
			"-0.018": 0.0,
			"-0.017": 0.0,
			"-0.016": 0.0,
			"-0.015": 0.0,
			"-0.014": 0.0,
			"-0.013": 0.0,
			"-0.012": 0.0,
			"-0.011": 0.0,
			"-0.01": 0.0,
			"-0.009": 0.0,
			"-0.008": 0.0,
			"-0.007": 0.0,
			"-0.006": 0.104779380028,
			"-0.005": 4.03791201102,
			"-0.004": 10.1628419507,
			"-0.003": 27.2877239066,
			"-0.002": 27.8193726303,
			"-0.001": 31.171126169,
			"0.0": 30.0997205584,
			"0.001": 26.337561133,
			"0.002": 13.9498222322,
			"0.003": 7.3878864584,
			"0.004": 7.78094619185,
			"0.005": 6.99502493974,
			"0.006": 7.15775155369,
			"0.007": 5.9463992427,
			"0.008": 0.392553298411,
			"0.009": 0.0,
			"0.01": 0.0,
			"0.011": 0.0,
			"0.012": 0.0,
			"0.013": 0.0,
			"0.014": 0.0,
			"0.015": 0.0,
			"0.016": 0.0,
			"0.017": 0.0,
			"0.018": 0.0,
			"0.019": 0.0,
			"0.02": 0.0,
			"0.021": 0.0,
			"0.022": 0.0,
			"0.023": 0.0,
			"0.024": 0.0,
			"0.025": 0.0
		}
	}
}
