{
	 "smiles": "CCOC(CN1C(=O)C2=C(C=CC=C2)C1=O)OCC", 
	 "Tm": 346.15, 
	 "num_atms": 36, 
	 "gaussian": { 
		 "optdone": 1, 
		 "sigma_profile": "yes", 
		 "theory": "DFT", 
		 "functional": "B3LYP", 
		 "basiset": "6-31G**", 
		 "properties": { 
			 "R2extent": 5412.3192, 
			 "electric_dipole_moment_norm": 1.41125932769, 
			 "electric_quadrupole_moment_norm": 19.4156664274, 
			 "total_energy": -899.405789637, 
			 "HOMO_LUMO_gap": 0.17465, 
			 "cosmo_polarized_energy": -14.74, 
			 "cosmo_cavitation_energy": 39.4, 
			 "cosmo_dispersion_energy": -26.29, 
			 "cosmo_repulsion_energy": 2.05, 
			 "cosmo_total_nonelectrostatic_energy": 15.17, 
			 "SMD_solvation_energy": 7.88 
		},
		"coords": [
			{
				"x": 0.8260865766,
				"y": 3.9125344646,
				"z": 0.361792113,
				"element": "C" 
			},
			{
				"x": 0.7967210926,
				"y": 2.7870087265,
				"z": 1.381403251,
				"element": "C" 
			},
			{
				"x": -0.0980544493,
				"y": 1.7835088221,
				"z": 0.9017350246,
				"element": "O" 
			},
			{
				"x": -0.3155017875,
				"y": 0.6953681328,
				"z": 1.7778164366,
				"element": "C" 
			},
			{
				"x": 0.8094956008,
				"y": -0.3535524484,
				"z": 1.7109868631,
				"element": "C" 
			},
			{
				"x": 1.0359010755,
				"y": -0.853199985,
				"z": 0.3688909322,
				"element": "N" 
			},
			{
				"x": 0.4319975348,
				"y": -2.0166632777,
				"z": -0.1490252793,
				"element": "C" 
			},
			{
				"x": -0.2825541217,
				"y": -2.7771423137,
				"z": 0.468730144,
				"element": "O" 
			},
			{
				"x": 0.9041381243,
				"y": -2.1126238645,
				"z": -1.563160882,
				"element": "C" 
			},
			{
				"x": 1.7758031119,
				"y": -1.0501957962,
				"z": -1.8081716651,
				"element": "C" 
			},
			{
				"x": 2.3923251524,
				"y": -0.8863903691,
				"z": -3.0401353626,
				"element": "C" 
			},
			{
				"x": 2.1008377557,
				"y": -1.8270533952,
				"z": -4.0369524647,
				"element": "C" 
			},
			{
				"x": 1.2259499126,
				"y": -2.8933558275,
				"z": -3.7910854143,
				"element": "C" 
			},
			{
				"x": 0.6145180308,
				"y": -3.0535870315,
				"z": -2.5404448696,
				"element": "C" 
			},
			{
				"x": 1.8873891165,
				"y": -0.2380384792,
				"z": -0.5600829773,
				"element": "C" 
			},
			{
				"x": 2.5887572043,
				"y": 0.7332627183,
				"z": -0.346967843,
				"element": "O" 
			},
			{
				"x": -1.4937069211,
				"y": 0.0535283377,
				"z": 1.4215558437,
				"element": "O" 
			},
			{
				"x": -2.6903465394,
				"y": 0.8360313044,
				"z": 1.5240499032,
				"element": "C" 
			},
			{
				"x": -3.1674804018,
				"y": 1.3142989627,
				"z": 0.1588073047,
				"element": "C" 
			},
			{
				"x": -0.1739712227,
				"y": 4.33168569,
				"z": 0.2152441473,
				"element": "H" 
			},
			{
				"x": 1.1926525964,
				"y": 3.5376515068,
				"z": -0.5973641335,
				"element": "H" 
			},
			{
				"x": 1.4930508659,
				"y": 4.7123180322,
				"z": 0.699053837,
				"element": "H" 
			},
			{
				"x": 0.4516100858,
				"y": 3.1530870462,
				"z": 2.3625905799,
				"element": "H" 
			},
			{
				"x": 1.8050586359,
				"y": 2.3719159748,
				"z": 1.503590483,
				"element": "H" 
			},
			{
				"x": -0.3695239385,
				"y": 1.0793116742,
				"z": 2.8177318604,
				"element": "H" 
			},
			{
				"x": 0.5372583678,
				"y": -1.2016765029,
				"z": 2.3433316679,
				"element": "H" 
			},
			{
				"x": 1.7434227427,
				"y": 0.0851134453,
				"z": 2.0711707708,
				"element": "H" 
			},
			{
				"x": 3.0720987063,
				"y": -0.0591694959,
				"z": -3.2171716357,
				"element": "H" 
			},
			{
				"x": 2.5604757232,
				"y": -1.7309584255,
				"z": -5.0161774582,
				"element": "H" 
			},
			{
				"x": 1.0211147471,
				"y": -3.6069353339,
				"z": -4.5837003407,
				"element": "H" 
			},
			{
				"x": -0.0609998628,
				"y": -3.8780619612,
				"z": -2.336394321,
				"element": "H" 
			},
			{
				"x": -3.4400003478,
				"y": 0.1828816166,
				"z": 1.9856308773,
				"element": "H" 
			},
			{
				"x": -2.5260335907,
				"y": 1.6866469494,
				"z": 2.199218646,
				"element": "H" 
			},
			{
				"x": -2.4298606326,
				"y": 1.9830157001,
				"z": -0.2891957126,
				"element": "H" 
			},
			{
				"x": -3.3151955915,
				"y": 0.4611791903,
				"z": -0.5101920242,
				"element": "H" 
			},
			{
				"x": -4.1217333524,
				"y": 1.8451562125,
				"z": 0.2532916981,
				"element": "H" 
			}
		],
		 "valence_orbital": [ 
			{
				"type": "occ",
				"energy": -0.27317,
				"method": "rhf"
			},
			{
				"type": "occ",
				"energy": -0.27246,
				"method": "rhf"
			},
			{
				"type": "occ",
				"energy": -0.26249,
				"method": "rhf"
			},
			{
				"type": "occ",
				"energy": -0.26008,
				"method": "rhf"
			},
			{
				"type": "occ",
				"energy": -0.24944,
				"method": "rhf"
			},
			{
				"type": "unocc",
				"energy": -0.07479,
				"method": "rhf"
			},
			{
				"type": "unocc",
				"energy": -0.03554,
				"method": "rhf"
			},
			{
				"type": "unocc",
				"energy": 0.03402,
				"method": "rhf"
			},
			{
				"type": "unocc",
				"energy": 0.07323,
				"method": "rhf"
			},
			{
				"type": "unocc",
				"energy": 0.08954,
				"method": "rhf"
			}
		],
		"cosmo_sigma_profile": { 
			"-0.025": 0.0,
			"-0.024": 0.0,
			"-0.023": 0.0,
			"-0.022": 0.0,
			"-0.021": 0.0,
			"-0.02": 0.0,
			"-0.019": 0.0,
			"-0.018": 0.0,
			"-0.017": 0.0,
			"-0.016": 0.0,
			"-0.015": 0.0,
			"-0.014": 0.0,
			"-0.013": 0.0,
			"-0.012": 0.0,
			"-0.011": 0.0,
			"-0.01": 0.0,
			"-0.009": 0.0,
			"-0.008": 1.35779246879,
			"-0.007": 8.74690335832,
			"-0.006": 15.5484540678,
			"-0.005": 21.0236136047,
			"-0.004": 24.5260367149,
			"-0.003": 34.238310495,
			"-0.002": 30.451780758,
			"-0.001": 29.1740267023,
			"0.0": 28.4618200363,
			"0.001": 27.7987009245,
			"0.002": 22.5975076161,
			"0.003": 8.71926191622,
			"0.004": 6.90171556173,
			"0.005": 8.07086135208,
			"0.006": 5.94608919028,
			"0.007": 6.5852297769,
			"0.008": 6.03778068159,
			"0.009": 4.90572602636,
			"0.01": 5.3073091581,
			"0.011": 8.57561351096,
			"0.012": 4.89475819149,
			"0.013": 1.29590275688,
			"0.014": 0.091635076793,
			"0.015": 0.0,
			"0.016": 0.0,
			"0.017": 0.0,
			"0.018": 0.0,
			"0.019": 0.0,
			"0.02": 0.0,
			"0.021": 0.0,
			"0.022": 0.0,
			"0.023": 0.0,
			"0.024": 0.0,
			"0.025": 0.0
		}
	}
}
