{
	 "smiles": "OC(=O)C1CCCN(C1)C(=O)OCC1=CC=CC=C1", 
	 "Tm": 365.15, 
	 "num_atms": 36, 
	 "gaussian": { 
		 "optdone": 1, 
		 "sigma_profile": "yes", 
		 "theory": "DFT", 
		 "functional": "B3LYP", 
		 "basiset": "6-31G**", 
		 "properties": { 
			 "R2extent": 8080.4668, 
			 "electric_dipole_moment_norm": 2.99686884765, 
			 "electric_quadrupole_moment_norm": 11.2363750062, 
			 "total_energy": -899.420397624, 
			 "HOMO_LUMO_gap": 0.2309, 
			 "cosmo_polarized_energy": -16.38, 
			 "cosmo_cavitation_energy": 38.79, 
			 "cosmo_dispersion_energy": -27.28, 
			 "cosmo_repulsion_energy": 2.13, 
			 "cosmo_total_nonelectrostatic_energy": 13.63, 
			 "SMD_solvation_energy": 7.76 
		},
		"coords": [
			{
				"x": 5.6345744047,
				"y": 0.1775980068,
				"z": 2.4981481491,
				"element": "O" 
			},
			{
				"x": 4.6864799067,
				"y": -0.4799701527,
				"z": 1.7853835269,
				"element": "C" 
			},
			{
				"x": 4.9110541422,
				"y": -0.9453069607,
				"z": 0.6899069356,
				"element": "O" 
			},
			{
				"x": 3.3759607008,
				"y": -0.5749604672,
				"z": 2.5539436087,
				"element": "C" 
			},
			{
				"x": 2.9936531696,
				"y": 0.7656528451,
				"z": 3.2349488689,
				"element": "C" 
			},
			{
				"x": 1.4843999558,
				"y": 0.7992883973,
				"z": 3.4961581566,
				"element": "C" 
			},
			{
				"x": 0.7144823803,
				"y": 0.8244162345,
				"z": 2.1664964213,
				"element": "C" 
			},
			{
				"x": 1.3832961594,
				"y": -0.028513022,
				"z": 1.1751212169,
				"element": "N" 
			},
			{
				"x": 2.2278297762,
				"y": -1.1131168108,
				"z": 1.6661873401,
				"element": "C" 
			},
			{
				"x": 1.0447786451,
				"y": 0.1562223531,
				"z": -0.1359333583,
				"element": "C" 
			},
			{
				"x": 0.2848309685,
				"y": 1.0362896385,
				"z": -0.5198542799,
				"element": "O" 
			},
			{
				"x": 1.6545263106,
				"y": -0.7396165154,
				"z": -0.9550318878,
				"element": "O" 
			},
			{
				"x": 1.3755831468,
				"y": -0.6037634573,
				"z": -2.3709124509,
				"element": "C" 
			},
			{
				"x": 0.2412260985,
				"y": -1.4980818635,
				"z": -2.8103206754,
				"element": "C" 
			},
			{
				"x": 0.5046909791,
				"y": -2.7369219593,
				"z": -3.4065254392,
				"element": "C" 
			},
			{
				"x": -0.5404166588,
				"y": -3.569433664,
				"z": -3.8109198947,
				"element": "C" 
			},
			{
				"x": -1.863623435,
				"y": -3.1691050494,
				"z": -3.6191083171,
				"element": "C" 
			},
			{
				"x": -2.1362392216,
				"y": -1.934941519,
				"z": -3.0231766156,
				"element": "C" 
			},
			{
				"x": -1.0914550544,
				"y": -1.1026961575,
				"z": -2.6220470081,
				"element": "C" 
			},
			{
				"x": 6.4360537572,
				"y": 0.1720701688,
				"z": 1.9480700183,
				"element": "H" 
			},
			{
				"x": 3.5637402851,
				"y": -1.3155934117,
				"z": 3.3444622956,
				"element": "H" 
			},
			{
				"x": 3.5651745598,
				"y": 0.8933424542,
				"z": 4.1575874874,
				"element": "H" 
			},
			{
				"x": 3.2615373866,
				"y": 1.6039414673,
				"z": 2.5814929972,
				"element": "H" 
			},
			{
				"x": 1.1935425274,
				"y": -0.0716653449,
				"z": 4.0972092172,
				"element": "H" 
			},
			{
				"x": 1.2095917365,
				"y": 1.6833716286,
				"z": 4.0803915157,
				"element": "H" 
			},
			{
				"x": -0.3282671042,
				"y": 0.5077690287,
				"z": 2.3098223022,
				"element": "H" 
			},
			{
				"x": 0.6841676999,
				"y": 1.8386396754,
				"z": 1.7603658306,
				"element": "H" 
			},
			{
				"x": 2.6380541695,
				"y": -1.6500684752,
				"z": 0.8145482824,
				"element": "H" 
			},
			{
				"x": 1.6169313574,
				"y": -1.8149090254,
				"z": 2.2497255883,
				"element": "H" 
			},
			{
				"x": 2.3087685107,
				"y": -0.8902020027,
				"z": -2.8609550755,
				"element": "H" 
			},
			{
				"x": 1.15616725,
				"y": 0.4448134292,
				"z": -2.5798136623,
				"element": "H" 
			},
			{
				"x": 1.535263943,
				"y": -3.0498801367,
				"z": -3.5568597664,
				"element": "H" 
			},
			{
				"x": -0.3217360241,
				"y": -4.526928919,
				"z": -4.2753863862,
				"element": "H" 
			},
			{
				"x": -2.6790291615,
				"y": -3.8141037991,
				"z": -3.9346342609,
				"element": "H" 
			},
			{
				"x": -3.1651071161,
				"y": -1.6186962994,
				"z": -2.8749585155,
				"element": "H" 
			},
			{
				"x": -1.2941861518,
				"y": -0.1451403143,
				"z": -2.1521321653,
				"element": "H" 
			}
		],
		 "valence_orbital": [ 
			{
				"type": "occ",
				"energy": -0.27821,
				"method": "rhf"
			},
			{
				"type": "occ",
				"energy": -0.26257,
				"method": "rhf"
			},
			{
				"type": "occ",
				"energy": -0.2447,
				"method": "rhf"
			},
			{
				"type": "occ",
				"energy": -0.2418,
				"method": "rhf"
			},
			{
				"type": "occ",
				"energy": -0.23437,
				"method": "rhf"
			},
			{
				"type": "unocc",
				"energy": -0.00347,
				"method": "rhf"
			},
			{
				"type": "unocc",
				"energy": 0.00389,
				"method": "rhf"
			},
			{
				"type": "unocc",
				"energy": 0.00448,
				"method": "rhf"
			},
			{
				"type": "unocc",
				"energy": 0.05543,
				"method": "rhf"
			},
			{
				"type": "unocc",
				"energy": 0.07214,
				"method": "rhf"
			}
		],
		"cosmo_sigma_profile": { 
			"-0.025": 0.0,
			"-0.024": 0.0,
			"-0.023": 0.0,
			"-0.022": 0.0,
			"-0.021": 0.0,
			"-0.02": 0.0,
			"-0.019": 0.0412456160433,
			"-0.018": 0.691586264971,
			"-0.017": 0.902130493064,
			"-0.016": 0.826507301021,
			"-0.015": 0.627445853218,
			"-0.014": 0.689494821212,
			"-0.013": 0.810408764183,
			"-0.012": 0.692932886047,
			"-0.011": 0.670122335669,
			"-0.01": 0.90527160191,
			"-0.009": 0.50443538901,
			"-0.008": 0.25997415907,
			"-0.007": 3.2227832942,
			"-0.006": 13.3897506792,
			"-0.005": 21.7742285737,
			"-0.004": 31.2886296584,
			"-0.003": 37.6970045447,
			"-0.002": 28.9774695297,
			"-0.001": 23.6102135313,
			"0.0": 19.3830362582,
			"0.001": 13.3604904314,
			"0.002": 14.5518405086,
			"0.003": 13.6423048518,
			"0.004": 14.50559564,
			"0.005": 16.5857458265,
			"0.006": 11.2340519993,
			"0.007": 5.47143883528,
			"0.008": 5.72159289768,
			"0.009": 4.69432030073,
			"0.01": 3.67842564938,
			"0.011": 5.80224712735,
			"0.012": 4.52339299036,
			"0.013": 3.27446703597,
			"0.014": 1.55609953085,
			"0.015": 0.0,
			"0.016": 0.0,
			"0.017": 0.0,
			"0.018": 0.0,
			"0.019": 0.0,
			"0.02": 0.0,
			"0.021": 0.0,
			"0.022": 0.0,
			"0.023": 0.0,
			"0.024": 0.0,
			"0.025": 0.0
		}
	}
}
