{
	 "smiles": "CC(C)(C)OC(=O)NCC1CCCCC1N", 
	 "Tm": 335.15, 
	 "num_atms": 40, 
	 "gaussian": { 
		 "optdone": 1, 
		 "sigma_profile": "yes", 
		 "theory": "DFT", 
		 "functional": "B3LYP", 
		 "basiset": "6-31G**", 
		 "properties": { 
			 "R2extent": 5134.1204, 
			 "electric_dipole_moment_norm": 1.86618573567, 
			 "electric_quadrupole_moment_norm": 11.1005323444, 
			 "total_energy": -731.735871212, 
			 "HOMO_LUMO_gap": 0.28905, 
			 "cosmo_polarized_energy": -12.02, 
			 "cosmo_cavitation_energy": 39.0, 
			 "cosmo_dispersion_energy": -25.93, 
			 "cosmo_repulsion_energy": 2.05, 
			 "cosmo_total_nonelectrostatic_energy": 15.13, 
			 "SMD_solvation_energy": 5.7 
		},
		"coords": [
			{
				"x": -2.8567093857,
				"y": 0.6100676276,
				"z": 1.4637372243,
				"element": "C" 
			},
			{
				"x": -1.7437238608,
				"y": 1.0741013633,
				"z": 2.4071970071,
				"element": "C" 
			},
			{
				"x": -2.2050571654,
				"y": 1.001790735,
				"z": 3.8669532817,
				"element": "C" 
			},
			{
				"x": -1.2543722723,
				"y": 2.4744515007,
				"z": 2.0223285616,
				"element": "C" 
			},
			{
				"x": -0.6839283354,
				"y": 0.0836425143,
				"z": 2.1633214335,
				"element": "O" 
			},
			{
				"x": 0.4919795615,
				"y": 0.1464601776,
				"z": 2.8367677685,
				"element": "C" 
			},
			{
				"x": 0.8049294393,
				"y": 0.9971262536,
				"z": 3.656795853,
				"element": "O" 
			},
			{
				"x": 1.3264481252,
				"y": -0.8758970766,
				"z": 2.4768831909,
				"element": "N" 
			},
			{
				"x": 1.0588091925,
				"y": -1.9943988572,
				"z": 1.5810800014,
				"element": "C" 
			},
			{
				"x": 1.9852332954,
				"y": -2.0081632046,
				"z": 0.3481133828,
				"element": "C" 
			},
			{
				"x": 1.8472695843,
				"y": -3.3219442931,
				"z": -0.4426162352,
				"element": "C" 
			},
			{
				"x": 0.4706767551,
				"y": -3.4755632258,
				"z": -1.1255353459,
				"element": "C" 
			},
			{
				"x": -0.050105122,
				"y": -2.1316662214,
				"z": -1.698120465,
				"element": "C" 
			},
			{
				"x": 1.0947579382,
				"y": -1.1327832982,
				"z": -1.9053827737,
				"element": "C" 
			},
			{
				"x": 1.7727909578,
				"y": -0.7645024066,
				"z": -0.572377091,
				"element": "C" 
			},
			{
				"x": 3.0789108712,
				"y": -0.148627119,
				"z": -0.8598587424,
				"element": "N" 
			},
			{
				"x": -2.5126057455,
				"y": 0.6196690395,
				"z": 0.4251886833,
				"element": "H" 
			},
			{
				"x": -3.1761008418,
				"y": -0.4062615836,
				"z": 1.7126003975,
				"element": "H" 
			},
			{
				"x": -3.7217832415,
				"y": 1.274651907,
				"z": 1.5473485994,
				"element": "H" 
			},
			{
				"x": -3.0688329831,
				"y": 1.658772194,
				"z": 4.0123150782,
				"element": "H" 
			},
			{
				"x": -1.4075509506,
				"y": 1.3106879611,
				"z": 4.5427732706,
				"element": "H" 
			},
			{
				"x": -2.5092877255,
				"y": -0.0192733838,
				"z": 4.1186496476,
				"element": "H" 
			},
			{
				"x": -2.0811811873,
				"y": 3.187879518,
				"z": 2.1022230571,
				"element": "H" 
			},
			{
				"x": -0.4440395044,
				"y": 2.7959115472,
				"z": 2.6766050229,
				"element": "H" 
			},
			{
				"x": -0.899945841,
				"y": 2.4811363434,
				"z": 0.9864521107,
				"element": "H" 
			},
			{
				"x": 2.1981586299,
				"y": -0.8617403968,
				"z": 2.9860546122,
				"element": "H" 
			},
			{
				"x": 1.1845152902,
				"y": -2.9346990033,
				"z": 2.1360775611,
				"element": "H" 
			},
			{
				"x": 0.0103703929,
				"y": -1.9318923685,
				"z": 1.2894457783,
				"element": "H" 
			},
			{
				"x": 3.0174895908,
				"y": -1.9574877952,
				"z": 0.7209250604,
				"element": "H" 
			},
			{
				"x": 2.0406129195,
				"y": -4.1807492025,
				"z": 0.2121868613,
				"element": "H" 
			},
			{
				"x": 2.6362257701,
				"y": -3.3361091017,
				"z": -1.2026334472,
				"element": "H" 
			},
			{
				"x": -0.260367458,
				"y": -3.8843324195,
				"z": -0.4182072032,
				"element": "H" 
			},
			{
				"x": 0.5591464121,
				"y": -4.2172153723,
				"z": -1.9277262338,
				"element": "H" 
			},
			{
				"x": -0.7825899064,
				"y": -1.6875270661,
				"z": -1.0114141564,
				"element": "H" 
			},
			{
				"x": -0.5839285098,
				"y": -2.2999585851,
				"z": -2.6396271585,
				"element": "H" 
			},
			{
				"x": 0.7241491869,
				"y": -0.2198450064,
				"z": -2.3889057484,
				"element": "H" 
			},
			{
				"x": 1.8512992144,
				"y": -1.5570856032,
				"z": -2.5775594515,
				"element": "H" 
			},
			{
				"x": 1.0948356353,
				"y": -0.0739194558,
				"z": -0.0434462065,
				"element": "H" 
			},
			{
				"x": 2.9525609493,
				"y": 0.6310754327,
				"z": -1.5035761631,
				"element": "H" 
			},
			{
				"x": 3.4555403246,
				"y": 0.2570179316,
				"z": -0.0047370232,
				"element": "H" 
			}
		],
		 "valence_orbital": [ 
			{
				"type": "occ",
				"energy": -0.29709,
				"method": "rhf"
			},
			{
				"type": "occ",
				"energy": -0.285,
				"method": "rhf"
			},
			{
				"type": "occ",
				"energy": -0.25691,
				"method": "rhf"
			},
			{
				"type": "occ",
				"energy": -0.24411,
				"method": "rhf"
			},
			{
				"type": "occ",
				"energy": -0.22967,
				"method": "rhf"
			},
			{
				"type": "unocc",
				"energy": 0.05938,
				"method": "rhf"
			},
			{
				"type": "unocc",
				"energy": 0.06796,
				"method": "rhf"
			},
			{
				"type": "unocc",
				"energy": 0.08286,
				"method": "rhf"
			},
			{
				"type": "unocc",
				"energy": 0.08635,
				"method": "rhf"
			},
			{
				"type": "unocc",
				"energy": 0.09298,
				"method": "rhf"
			}
		],
		"cosmo_sigma_profile": { 
			"-0.025": 0.0,
			"-0.024": 0.0,
			"-0.023": 0.0,
			"-0.022": 0.0,
			"-0.021": 0.0,
			"-0.02": 0.0,
			"-0.019": 0.0,
			"-0.018": 0.0,
			"-0.017": 0.0,
			"-0.016": 0.0,
			"-0.015": 0.0,
			"-0.014": 0.116607780621,
			"-0.013": 0.865700969529,
			"-0.012": 1.13924805987,
			"-0.011": 0.743431497781,
			"-0.01": 1.22267880086,
			"-0.009": 2.3341932283,
			"-0.008": 3.77064989013,
			"-0.007": 3.58302958162,
			"-0.006": 4.27788116739,
			"-0.005": 4.29366377324,
			"-0.004": 16.1839937225,
			"-0.003": 28.1948834983,
			"-0.002": 37.4723463444,
			"-0.001": 42.8159643165,
			"0.0": 49.9592111331,
			"0.001": 42.6138510831,
			"0.002": 15.9243947714,
			"0.003": 6.7713824584,
			"0.004": 6.13749208124,
			"0.005": 4.52620970949,
			"0.006": 2.68956790388,
			"0.007": 2.01075957998,
			"0.008": 2.59733272889,
			"0.009": 2.51357641073,
			"0.01": 2.22263088983,
			"0.011": 2.15298712152,
			"0.012": 2.0510061463,
			"0.013": 2.98376066274,
			"0.014": 3.73091265284,
			"0.015": 1.24271599657,
			"0.016": 0.404700276714,
			"0.017": 0.627740718155,
			"0.018": 0.541681952251,
			"0.019": 0.336054157747,
			"0.02": 0.481042217155,
			"0.021": 0.000540514052156,
			"0.022": 0.0,
			"0.023": 0.0,
			"0.024": 0.0,
			"0.025": 0.0
		}
	}
}
