{
	 "smiles": "OC(=O)CSC1=CC=C(O)C=C1", 
	 "Tm": 415.15, 
	 "num_atms": 20, 
	 "gaussian": { 
		 "optdone": 1, 
		 "sigma_profile": "yes", 
		 "theory": "DFT", 
		 "functional": "B3LYP", 
		 "basiset": "6-31G**", 
		 "properties": { 
			 "R2extent": 2895.4978, 
			 "electric_dipole_moment_norm": 5.03769047084, 
			 "electric_quadrupole_moment_norm": 16.4511343703, 
			 "total_energy": -933.533116269, 
			 "HOMO_LUMO_gap": 0.21131, 
			 "cosmo_polarized_energy": -16.57, 
			 "cosmo_cavitation_energy": 26.13, 
			 "cosmo_dispersion_energy": -19.45, 
			 "cosmo_repulsion_energy": 1.52, 
			 "cosmo_total_nonelectrostatic_energy": 8.21, 
			 "SMD_solvation_energy": 5.71 
		},
		"coords": [
			{
				"x": 1.6251512208,
				"y": -1.6372538288,
				"z": 2.4994395527,
				"element": "O" 
			},
			{
				"x": 2.5854088834,
				"y": -1.1840155735,
				"z": 1.6680197524,
				"element": "C" 
			},
			{
				"x": 3.4719269825,
				"y": -1.8956819638,
				"z": 1.2668661442,
				"element": "O" 
			},
			{
				"x": 2.5205659542,
				"y": 0.3040284276,
				"z": 1.2981600884,
				"element": "C" 
			},
			{
				"x": 0.8872797166,
				"y": 1.1248628376,
				"z": 1.5105771686,
				"element": "S" 
			},
			{
				"x": 0.0044063657,
				"y": 0.6003565195,
				"z": 0.0372363863,
				"element": "C" 
			},
			{
				"x": -0.2280007478,
				"y": 1.5333912255,
				"z": -0.9799580027,
				"element": "C" 
			},
			{
				"x": -0.9475614477,
				"y": 1.1752456023,
				"z": -2.1186966263,
				"element": "C" 
			},
			{
				"x": -1.4364901906,
				"y": -0.1290787438,
				"z": -2.2537286423,
				"element": "C" 
			},
			{
				"x": -2.1421952814,
				"y": -0.5437918992,
				"z": -3.3414378652,
				"element": "O" 
			},
			{
				"x": -1.2071135029,
				"y": -1.0694529315,
				"z": -1.2405516993,
				"element": "C" 
			},
			{
				"x": -0.5006751017,
				"y": -0.7025069447,
				"z": -0.1013680622,
				"element": "C" 
			},
			{
				"x": 1.0016817227,
				"y": -0.9043488164,
				"z": 2.6740366696,
				"element": "H" 
			},
			{
				"x": 3.2088491787,
				"y": 0.8411679868,
				"z": 1.960476398,
				"element": "H" 
			},
			{
				"x": 2.8824310436,
				"y": 0.4232790187,
				"z": 0.2762144657,
				"element": "H" 
			},
			{
				"x": 0.1539947143,
				"y": 2.5443044721,
				"z": -0.8798679353,
				"element": "H" 
			},
			{
				"x": -1.1244810045,
				"y": 1.9085184576,
				"z": -2.9025278899,
				"element": "H" 
			},
			{
				"x": -2.2334541676,
				"y": 0.1882653844,
				"z": -3.9653825848,
				"element": "H" 
			},
			{
				"x": -1.5947417266,
				"y": -2.0754124698,
				"z": -1.3605939585,
				"element": "H" 
			},
			{
				"x": -0.3316826117,
				"y": -1.4370767608,
				"z": 0.6790866406,
				"element": "H" 
			}
		],
		 "valence_orbital": [ 
			{
				"type": "occ",
				"energy": -0.31385,
				"method": "rhf"
			},
			{
				"type": "occ",
				"energy": -0.28664,
				"method": "rhf"
			},
			{
				"type": "occ",
				"energy": -0.27135,
				"method": "rhf"
			},
			{
				"type": "occ",
				"energy": -0.25175,
				"method": "rhf"
			},
			{
				"type": "occ",
				"energy": -0.23682,
				"method": "rhf"
			},
			{
				"type": "unocc",
				"energy": -0.02551,
				"method": "rhf"
			},
			{
				"type": "unocc",
				"energy": -0.02075,
				"method": "rhf"
			},
			{
				"type": "unocc",
				"energy": 0.00892,
				"method": "rhf"
			},
			{
				"type": "unocc",
				"energy": 0.03222,
				"method": "rhf"
			},
			{
				"type": "unocc",
				"energy": 0.05458,
				"method": "rhf"
			}
		],
		"cosmo_sigma_profile": { 
			"-0.025": 0.0,
			"-0.024": 0.0,
			"-0.023": 0.0,
			"-0.022": 0.0,
			"-0.021": 0.0,
			"-0.02": 0.0,
			"-0.019": 0.0422907462344,
			"-0.018": 0.90745783266,
			"-0.017": 1.12838642594,
			"-0.016": 1.44248979663,
			"-0.015": 0.902543153554,
			"-0.014": 0.945760890222,
			"-0.013": 0.806552151537,
			"-0.012": 1.00302950178,
			"-0.011": 2.77420165813,
			"-0.01": 4.34521571311,
			"-0.009": 5.92576815349,
			"-0.008": 5.38974369806,
			"-0.007": 7.00744394834,
			"-0.006": 9.69337295316,
			"-0.005": 12.8478417477,
			"-0.004": 10.5529563538,
			"-0.003": 11.0328248072,
			"-0.002": 9.45490556868,
			"-0.001": 9.19020797202,
			"0.0": 11.5054915183,
			"0.001": 11.2743305735,
			"0.002": 13.1923299922,
			"0.003": 15.7726830774,
			"0.004": 17.5778630941,
			"0.005": 7.54325024592,
			"0.006": 4.47748344883,
			"0.007": 3.92480152691,
			"0.008": 4.41620501462,
			"0.009": 5.38127601266,
			"0.01": 6.75730464307,
			"0.011": 6.72941422803,
			"0.012": 4.97433336619,
			"0.013": 1.25102562309,
			"0.014": 0.0,
			"0.015": 0.0,
			"0.016": 0.0,
			"0.017": 0.0,
			"0.018": 0.0,
			"0.019": 0.0,
			"0.02": 0.0,
			"0.021": 0.0,
			"0.022": 0.0,
			"0.023": 0.0,
			"0.024": 0.0,
			"0.025": 0.0
		}
	}
}
