{
	 "smiles": "CCOC1OC(CON(=O)=O)C(ON(=O)=O)C(ON(=O)=O)C1ON(=O)=O", 
	 "Tm": 472.15, 
	 "num_atms": 38, 
	 "gaussian": { 
		 "optdone": 1, 
		 "sigma_profile": "yes", 
		 "theory": "DFT", 
		 "functional": "B3LYP", 
		 "basiset": "6-31G**", 
		 "properties": { 
			 "R2extent": 11109.2342, 
			 "electric_dipole_moment_norm": 5.39351288308, 
			 "electric_quadrupole_moment_norm": 22.003393806, 
			 "total_energy": -1583.60460593, 
			 "HOMO_LUMO_gap": 0.20488, 
			 "cosmo_polarized_energy": -22.79, 
			 "cosmo_cavitation_energy": 46.43, 
			 "cosmo_dispersion_energy": -29.2, 
			 "cosmo_repulsion_energy": 2.32, 
			 "cosmo_total_nonelectrostatic_energy": 19.54, 
			 "SMD_solvation_energy": 19.33 
		},
		"coords": [
			{
				"x": 2.2715686451,
				"y": 2.626998332,
				"z": 1.3654313872,
				"element": "C" 
			},
			{
				"x": 2.9357664067,
				"y": 2.0726283992,
				"z": 0.1138157583,
				"element": "C" 
			},
			{
				"x": 2.9711787582,
				"y": 0.6309674288,
				"z": 0.1200237172,
				"element": "O" 
			},
			{
				"x": 2.0059379074,
				"y": -0.0118366813,
				"z": -0.6053215257,
				"element": "C" 
			},
			{
				"x": 0.7361373314,
				"y": 0.1142351821,
				"z": 0.0455606946,
				"element": "O" 
			},
			{
				"x": -0.356649499,
				"y": -0.3349770314,
				"z": -0.7439111026,
				"element": "C" 
			},
			{
				"x": -1.5596266027,
				"y": -0.334897024,
				"z": 0.203510567,
				"element": "C" 
			},
			{
				"x": -2.7163081192,
				"y": -0.2105969886,
				"z": -0.6468299508,
				"element": "O" 
			},
			{
				"x": -3.9440530269,
				"y": -0.2078416836,
				"z": 0.0670452596,
				"element": "N" 
			},
			{
				"x": -3.8821419767,
				"y": -0.2919279594,
				"z": 1.2757305663,
				"element": "O" 
			},
			{
				"x": -4.9001756137,
				"y": -0.113638917,
				"z": -0.6596706993,
				"element": "O" 
			},
			{
				"x": -0.0136560217,
				"y": -1.7195726249,
				"z": -1.3837506097,
				"element": "C" 
			},
			{
				"x": -1.1985502463,
				"y": -2.5238531275,
				"z": -1.370333633,
				"element": "O" 
			},
			{
				"x": -1.271422815,
				"y": -3.5124019576,
				"z": -2.4199240915,
				"element": "N" 
			},
			{
				"x": -0.3370818866,
				"y": -3.5787218506,
				"z": -3.1903413385,
				"element": "O" 
			},
			{
				"x": -2.2875187267,
				"y": -4.1464576502,
				"z": -2.3660670933,
				"element": "O" 
			},
			{
				"x": 1.1358697182,
				"y": -2.40892651,
				"z": -0.6388749647,
				"element": "C" 
			},
			{
				"x": 0.7226181049,
				"y": -2.5812409561,
				"z": 0.7229046576,
				"element": "O" 
			},
			{
				"x": 1.0699384894,
				"y": -3.8582421741,
				"z": 1.3161572812,
				"element": "N" 
			},
			{
				"x": 1.6214447993,
				"y": -4.6766442824,
				"z": 0.6180773265,
				"element": "O" 
			},
			{
				"x": 0.7279181119,
				"y": -3.9097917335,
				"z": 2.4645239491,
				"element": "O" 
			},
			{
				"x": 2.3898660567,
				"y": -1.5154400627,
				"z": -0.7343875984,
				"element": "C" 
			},
			{
				"x": 3.2586551615,
				"y": -1.9504647722,
				"z": 0.3090680583,
				"element": "O" 
			},
			{
				"x": 4.6581401778,
				"y": -1.7187992917,
				"z": 0.0549468213,
				"element": "N" 
			},
			{
				"x": 5.3314583303,
				"y": -1.9844348079,
				"z": 1.0123492529,
				"element": "O" 
			},
			{
				"x": 4.9730586188,
				"y": -1.3270247651,
				"z": -1.0459167693,
				"element": "O" 
			},
			{
				"x": 2.3355801458,
				"y": 3.7205108163,
				"z": 1.3676430386,
				"element": "H" 
			},
			{
				"x": 1.2206667095,
				"y": 2.3345477344,
				"z": 1.4123669819,
				"element": "H" 
			},
			{
				"x": 2.7751743768,
				"y": 2.2516566094,
				"z": 2.2605140778,
				"element": "H" 
			},
			{
				"x": 2.4293474083,
				"y": 2.4221215825,
				"z": -0.795979021,
				"element": "H" 
			},
			{
				"x": 3.9825626846,
				"y": 2.3863054484,
				"z": 0.0571384919,
				"element": "H" 
			},
			{
				"x": 1.9048877155,
				"y": 0.4184324423,
				"z": -1.62195166,
				"element": "H" 
			},
			{
				"x": -0.5582248181,
				"y": 0.3788607959,
				"z": -1.5570170791,
				"element": "H" 
			},
			{
				"x": -1.6145851448,
				"y": -1.2413088005,
				"z": 0.8067497155,
				"element": "H" 
			},
			{
				"x": -1.4794747966,
				"y": 0.5333873985,
				"z": 0.862205178,
				"element": "H" 
			},
			{
				"x": 0.3023225492,
				"y": -1.5785578704,
				"z": -2.4209460371,
				"element": "H" 
			},
			{
				"x": 1.3391928971,
				"y": -3.3874648123,
				"z": -1.0739143164,
				"element": "H" 
			},
			{
				"x": 2.8748781894,
				"y": -1.6804878346,
				"z": -1.7002252906,
				"element": "H" 
			}
		],
		 "valence_orbital": [ 
			{
				"type": "occ",
				"energy": -0.33493,
				"method": "rhf"
			},
			{
				"type": "occ",
				"energy": -0.3275,
				"method": "rhf"
			},
			{
				"type": "occ",
				"energy": -0.3241,
				"method": "rhf"
			},
			{
				"type": "occ",
				"energy": -0.30769,
				"method": "rhf"
			},
			{
				"type": "occ",
				"energy": -0.29967,
				"method": "rhf"
			},
			{
				"type": "unocc",
				"energy": -0.09479,
				"method": "rhf"
			},
			{
				"type": "unocc",
				"energy": -0.08355,
				"method": "rhf"
			},
			{
				"type": "unocc",
				"energy": -0.08001,
				"method": "rhf"
			},
			{
				"type": "unocc",
				"energy": -0.07275,
				"method": "rhf"
			},
			{
				"type": "unocc",
				"energy": -0.01107,
				"method": "rhf"
			}
		],
		"cosmo_sigma_profile": { 
			"-0.025": 0.0,
			"-0.024": 0.0,
			"-0.023": 0.0,
			"-0.022": 0.0,
			"-0.021": 0.0,
			"-0.02": 0.0,
			"-0.019": 0.0,
			"-0.018": 0.0,
			"-0.017": 0.0,
			"-0.016": 0.0,
			"-0.015": 0.297787589289,
			"-0.014": 1.05257026262,
			"-0.013": 1.4750061165,
			"-0.012": 2.45842049664,
			"-0.011": 4.83532083922,
			"-0.01": 6.08145214804,
			"-0.009": 7.53623688413,
			"-0.008": 11.7816749649,
			"-0.007": 13.2917988757,
			"-0.006": 14.4447015101,
			"-0.005": 15.0153743495,
			"-0.004": 20.2752304325,
			"-0.003": 21.1599907593,
			"-0.002": 20.1646375111,
			"-0.001": 20.1952727207,
			"0.0": 20.921692646,
			"0.001": 19.2984387486,
			"0.002": 18.5087347677,
			"0.003": 21.3696824497,
			"0.004": 28.5360461622,
			"0.005": 45.124035331,
			"0.006": 35.3230491662,
			"0.007": 13.953288342,
			"0.008": 3.27579191113,
			"0.009": 1.07503543226,
			"0.01": 0.0451058260571,
			"0.011": 0.0,
			"0.012": 0.0,
			"0.013": 0.0,
			"0.014": 0.0,
			"0.015": 0.0,
			"0.016": 0.0,
			"0.017": 0.0,
			"0.018": 0.0,
			"0.019": 0.0,
			"0.02": 0.0,
			"0.021": 0.0,
			"0.022": 0.0,
			"0.023": 0.0,
			"0.024": 0.0,
			"0.025": 0.0
		}
	}
}
