{
	 "smiles": "BrC1CCCN(C1=O)C1=CC=C(C=C1)C#N", 
	 "Tm": 398.15, 
	 "num_atms": 27, 
	 "gaussian": { 
		 "optdone": 1, 
		 "sigma_profile": "yes", 
		 "theory": "DFT", 
		 "functional": "B3LYP", 
		 "basiset": "6-31G**", 
		 "properties": { 
			 "R2extent": 6469.6107, 
			 "electric_dipole_moment_norm": 6.81957046448, 
			 "electric_quadrupole_moment_norm": 22.9175313328, 
			 "total_energy": -3220.03554683, 
			 "HOMO_LUMO_gap": 0.18022, 
			 "cosmo_polarized_energy": -16.16, 
			 "cosmo_cavitation_energy": 32.99, 
			 "cosmo_dispersion_energy": -23.73, 
			 "cosmo_repulsion_energy": 1.84, 
			 "cosmo_total_nonelectrostatic_energy": 11.1, 
			 "SMD_solvation_energy": 5.64 
		},
		"coords": [
			{
				"x": 2.3014625289,
				"y": 3.4470491819,
				"z": -0.6068162365,
				"element": "Br" 
			},
			{
				"x": 2.1611391809,
				"y": 1.5262945816,
				"z": -1.1708094877,
				"element": "C" 
			},
			{
				"x": 1.53434569,
				"y": 1.3928164026,
				"z": -2.5539806288,
				"element": "C" 
			},
			{
				"x": -0.0059205301,
				"y": 1.5519358383,
				"z": -2.5387309485,
				"element": "C" 
			},
			{
				"x": -0.5779707213,
				"y": 1.7652929825,
				"z": -1.129112948,
				"element": "C" 
			},
			{
				"x": 0.032621542,
				"y": 0.8439274151,
				"z": -0.1479328349,
				"element": "N" 
			},
			{
				"x": 1.4144277738,
				"y": 0.7426335737,
				"z": -0.0942771358,
				"element": "C" 
			},
			{
				"x": 2.027994682,
				"y": 0.0533963991,
				"z": 0.7054064574,
				"element": "O" 
			},
			{
				"x": -0.7876662951,
				"y": 0.2405574533,
				"z": 0.8460736809,
				"element": "C" 
			},
			{
				"x": -0.5050736469,
				"y": -1.0446166846,
				"z": 1.3406290501,
				"element": "C" 
			},
			{
				"x": -1.338703133,
				"y": -1.6280532051,
				"z": 2.28546719,
				"element": "C" 
			},
			{
				"x": -2.4735186511,
				"y": -0.9466548018,
				"z": 2.7578616138,
				"element": "C" 
			},
			{
				"x": -2.7526825784,
				"y": 0.338992952,
				"z": 2.2699992494,
				"element": "C" 
			},
			{
				"x": -1.9151013776,
				"y": 0.9255870365,
				"z": 1.328455437,
				"element": "C" 
			},
			{
				"x": -3.3358873803,
				"y": -1.5560028191,
				"z": 3.7261306622,
				"element": "C" 
			},
			{
				"x": -4.038989046,
				"y": -2.0510533887,
				"z": 4.5100768327,
				"element": "N" 
			},
			{
				"x": 3.1943295825,
				"y": 1.1893812761,
				"z": -1.145589033,
				"element": "H" 
			},
			{
				"x": 2.0073567995,
				"y": 2.0987235379,
				"z": -3.240616508,
				"element": "H" 
			},
			{
				"x": 1.7977159927,
				"y": 0.389169022,
				"z": -2.9107625745,
				"element": "H" 
			},
			{
				"x": -0.4667135054,
				"y": 0.6607021599,
				"z": -2.9753454859,
				"element": "H" 
			},
			{
				"x": -0.3137770887,
				"y": 2.401717178,
				"z": -3.1551814564,
				"element": "H" 
			},
			{
				"x": -1.6498708013,
				"y": 1.5652921681,
				"z": -1.144796712,
				"element": "H" 
			},
			{
				"x": -0.4325317175,
				"y": 2.8021526487,
				"z": -0.8093698705,
				"element": "H" 
			},
			{
				"x": 0.3685965163,
				"y": -1.5747690543,
				"z": 0.9901827769,
				"element": "H" 
			},
			{
				"x": -1.11805479,
				"y": -2.6226254263,
				"z": 2.6580934144,
				"element": "H" 
			},
			{
				"x": -3.6184126567,
				"y": 0.8788529783,
				"z": 2.6382907831,
				"element": "H" 
			},
			{
				"x": -2.1313163692,
				"y": 1.9315005945,
				"z": 0.9872547127,
				"element": "H" 
			}
		],
		 "valence_orbital": [ 
			{
				"type": "occ",
				"energy": -0.29754,
				"method": "rhf"
			},
			{
				"type": "occ",
				"energy": -0.28829,
				"method": "rhf"
			},
			{
				"type": "occ",
				"energy": -0.27911,
				"method": "rhf"
			},
			{
				"type": "occ",
				"energy": -0.26619,
				"method": "rhf"
			},
			{
				"type": "occ",
				"energy": -0.24208,
				"method": "rhf"
			},
			{
				"type": "unocc",
				"energy": -0.06186,
				"method": "rhf"
			},
			{
				"type": "unocc",
				"energy": -0.03765,
				"method": "rhf"
			},
			{
				"type": "unocc",
				"energy": -0.02568,
				"method": "rhf"
			},
			{
				"type": "unocc",
				"energy": 0.03076,
				"method": "rhf"
			},
			{
				"type": "unocc",
				"energy": 0.03859,
				"method": "rhf"
			}
		],
		"cosmo_sigma_profile": { 
			"-0.025": 0.0,
			"-0.024": 0.0,
			"-0.023": 0.0,
			"-0.022": 0.0,
			"-0.021": 0.0,
			"-0.02": 0.0,
			"-0.019": 0.0,
			"-0.018": 0.0,
			"-0.017": 0.0,
			"-0.016": 0.0,
			"-0.015": 0.0,
			"-0.014": 0.0,
			"-0.013": 0.0,
			"-0.012": 0.0,
			"-0.011": 0.0,
			"-0.01": 0.0,
			"-0.009": 0.241924612023,
			"-0.008": 6.66029290657,
			"-0.007": 12.8867901923,
			"-0.006": 16.684805373,
			"-0.005": 21.0624600186,
			"-0.004": 25.5180176305,
			"-0.003": 19.6030645937,
			"-0.002": 19.8969048533,
			"-0.001": 19.1915177863,
			"0.0": 15.3936933009,
			"0.001": 16.2115535323,
			"0.002": 20.0576886747,
			"0.003": 12.2073032705,
			"0.004": 9.17593541032,
			"0.005": 11.5274205361,
			"0.006": 6.12113690146,
			"0.007": 3.76110161171,
			"0.008": 5.27273431375,
			"0.009": 5.17701020592,
			"0.01": 5.03669947771,
			"0.011": 5.22984550873,
			"0.012": 6.18003893638,
			"0.013": 3.41340386819,
			"0.014": 0.198776415959,
			"0.015": 0.0,
			"0.016": 0.0,
			"0.017": 0.0,
			"0.018": 0.0,
			"0.019": 0.0,
			"0.02": 0.0,
			"0.021": 0.0,
			"0.022": 0.0,
			"0.023": 0.0,
			"0.024": 0.0,
			"0.025": 0.0
		}
	}
}
