{
	 "smiles": "OC(=O)C1=CC(=C(F)C=C1)S(=O)(=O)N1CCC1", 
	 "Tm": 454.15, 
	 "num_atms": 27, 
	 "gaussian": { 
		 "optdone": 1, 
		 "sigma_profile": "yes", 
		 "theory": "DFT", 
		 "functional": "B3LYP", 
		 "basiset": "6-31G**", 
		 "properties": { 
			 "R2extent": 5381.058, 
			 "electric_dipole_moment_norm": 5.77501479219, 
			 "electric_quadrupole_moment_norm": 14.5627543772, 
			 "total_energy": -1240.66008924, 
			 "HOMO_LUMO_gap": 0.19845, 
			 "cosmo_polarized_energy": -19.92, 
			 "cosmo_cavitation_energy": 32.76, 
			 "cosmo_dispersion_energy": -24.12, 
			 "cosmo_repulsion_energy": 1.81, 
			 "cosmo_total_nonelectrostatic_energy": 10.45, 
			 "SMD_solvation_energy": 5.09 
		},
		"coords": [
			{
				"x": 3.1196180368,
				"y": -0.0996562825,
				"z": -4.0940871997,
				"element": "O" 
			},
			{
				"x": 3.547533223,
				"y": -0.5015526008,
				"z": -2.8716089977,
				"element": "C" 
			},
			{
				"x": 4.6538461304,
				"y": -0.9701654104,
				"z": -2.7409266066,
				"element": "O" 
			},
			{
				"x": 2.5968897003,
				"y": -0.3399181912,
				"z": -1.7207365182,
				"element": "C" 
			},
			{
				"x": 1.4634835392,
				"y": 0.4806430888,
				"z": -1.7662536908,
				"element": "C" 
			},
			{
				"x": 0.6296950318,
				"y": 0.590018548,
				"z": -0.6555486542,
				"element": "C" 
			},
			{
				"x": 0.9400026854,
				"y": -0.1213582413,
				"z": 0.5031900194,
				"element": "C" 
			},
			{
				"x": 0.1318969058,
				"y": -0.028390095,
				"z": 1.5707575398,
				"element": "F" 
			},
			{
				"x": 2.0657339516,
				"y": -0.9338280875,
				"z": 0.5746140624,
				"element": "C" 
			},
			{
				"x": 2.8955583016,
				"y": -1.0316579631,
				"z": -0.5374664589,
				"element": "C" 
			},
			{
				"x": -0.7831818599,
				"y": 1.6995625726,
				"z": -0.7302217204,
				"element": "S" 
			},
			{
				"x": -0.6239934865,
				"y": 2.7002593303,
				"z": 0.3284713701,
				"element": "O" 
			},
			{
				"x": -0.9176619662,
				"y": 2.0934705189,
				"z": -2.1385405243,
				"element": "O" 
			},
			{
				"x": -2.077950691,
				"y": 0.6873799271,
				"z": -0.3705286645,
				"element": "N" 
			},
			{
				"x": -2.8507622259,
				"y": 0.8226186732,
				"z": 0.9021112508,
				"element": "C" 
			},
			{
				"x": -4.1355394351,
				"y": 0.4978285421,
				"z": 0.1015042722,
				"element": "C" 
			},
			{
				"x": -3.3240965908,
				"y": 0.7282478597,
				"z": -1.1979079858,
				"element": "C" 
			},
			{
				"x": 2.1784463229,
				"y": 0.1215996008,
				"z": -4.0798173315,
				"element": "H" 
			},
			{
				"x": 1.2022675103,
				"y": 1.0750718465,
				"z": -2.636861478,
				"element": "H" 
			},
			{
				"x": 2.2740351833,
				"y": -1.4696638226,
				"z": 1.4940709881,
				"element": "H" 
			},
			{
				"x": 3.7888161549,
				"y": -1.6458364703,
				"z": -0.5132632709,
				"element": "H" 
			},
			{
				"x": -2.5362096473,
				"y": 0.1122290612,
				"z": 1.6691773809,
				"element": "H" 
			},
			{
				"x": -2.8191741514,
				"y": 1.83851893,
				"z": 1.3062633639,
				"element": "H" 
			},
			{
				"x": -4.9813390763,
				"y": 1.168096095,
				"z": 0.2611519269,
				"element": "H" 
			},
			{
				"x": -4.4628976368,
				"y": -0.5364734303,
				"z": 0.2208847833,
				"element": "H" 
			},
			{
				"x": -3.4994433686,
				"y": 1.7007597198,
				"z": -1.6663133035,
				"element": "H" 
			},
			{
				"x": -3.3582725416,
				"y": -0.052403719,
				"z": -1.9615145529,
				"element": "H" 
			}
		],
		 "valence_orbital": [ 
			{
				"type": "occ",
				"energy": -0.31537,
				"method": "rhf"
			},
			{
				"type": "occ",
				"energy": -0.29682,
				"method": "rhf"
			},
			{
				"type": "occ",
				"energy": -0.28779,
				"method": "rhf"
			},
			{
				"type": "occ",
				"energy": -0.27907,
				"method": "rhf"
			},
			{
				"type": "occ",
				"energy": -0.26465,
				"method": "rhf"
			},
			{
				"type": "unocc",
				"energy": -0.0662,
				"method": "rhf"
			},
			{
				"type": "unocc",
				"energy": -0.05367,
				"method": "rhf"
			},
			{
				"type": "unocc",
				"energy": 0.02865,
				"method": "rhf"
			},
			{
				"type": "unocc",
				"energy": 0.03275,
				"method": "rhf"
			},
			{
				"type": "unocc",
				"energy": 0.05059,
				"method": "rhf"
			}
		],
		"cosmo_sigma_profile": { 
			"-0.025": 0.0,
			"-0.024": 0.0,
			"-0.023": 0.0,
			"-0.022": 0.0,
			"-0.021": 0.0,
			"-0.02": 0.607158469883,
			"-0.019": 0.765428279675,
			"-0.018": 1.27987272223,
			"-0.017": 0.555133369563,
			"-0.016": 0.577403881031,
			"-0.015": 0.912640351254,
			"-0.014": 1.14118317367,
			"-0.013": 1.34778893533,
			"-0.012": 1.2311578911,
			"-0.011": 0.749167568487,
			"-0.01": 1.03722908759,
			"-0.009": 2.80631223806,
			"-0.008": 4.3594995569,
			"-0.007": 6.1180174961,
			"-0.006": 8.01524512315,
			"-0.005": 18.2860888549,
			"-0.004": 24.6169771524,
			"-0.003": 22.9739168161,
			"-0.002": 25.2385464189,
			"-0.001": 24.3584249739,
			"0.0": 16.4030858681,
			"0.001": 9.85799887412,
			"0.002": 10.4689010929,
			"0.003": 8.41375822017,
			"0.004": 7.27205537964,
			"0.005": 7.28970790634,
			"0.006": 5.0840854966,
			"0.007": 5.54859244469,
			"0.008": 7.02112750192,
			"0.009": 8.67967168667,
			"0.01": 13.9546745197,
			"0.011": 10.7467839518,
			"0.012": 3.39772647978,
			"0.013": 0.715956818348,
			"0.014": 0.0,
			"0.015": 0.0,
			"0.016": 0.0,
			"0.017": 0.0,
			"0.018": 0.0,
			"0.019": 0.0,
			"0.02": 0.0,
			"0.021": 0.0,
			"0.022": 0.0,
			"0.023": 0.0,
			"0.024": 0.0,
			"0.025": 0.0
		}
	}
}
