{
	 "smiles": "NC1=CSC(=C1C1=CC=CC=C1)C(F)(F)F", 
	 "Tm": 338.65, 
	 "num_atms": 24, 
	 "gaussian": { 
		 "optdone": 1, 
		 "sigma_profile": "yes", 
		 "theory": "DFT", 
		 "functional": "B3LYP", 
		 "basiset": "6-31G**", 
		 "properties": { 
			 "R2extent": 4511.9808, 
			 "electric_dipole_moment_norm": 3.76157836154, 
			 "electric_quadrupole_moment_norm": 10.0753054261, 
			 "total_energy": -1176.44514874, 
			 "HOMO_LUMO_gap": 0.17056, 
			 "cosmo_polarized_energy": -8.5, 
			 "cosmo_cavitation_energy": 30.31, 
			 "cosmo_dispersion_energy": -22.03, 
			 "cosmo_repulsion_energy": 1.62, 
			 "cosmo_total_nonelectrostatic_energy": 9.89, 
			 "SMD_solvation_energy": 6.03 
		},
		"coords": [
			{
				"x": -2.3921926193,
				"y": -1.3338161721,
				"z": 0.2087295848,
				"element": "N" 
			},
			{
				"x": -1.5321218749,
				"y": -1.4401837846,
				"z": -0.8893237163,
				"element": "C" 
			},
			{
				"x": -1.8955953017,
				"y": -1.8961313591,
				"z": -2.1328498595,
				"element": "C" 
			},
			{
				"x": -0.5579878836,
				"y": -1.9745588652,
				"z": -3.2262110958,
				"element": "S" 
			},
			{
				"x": 0.5132271634,
				"y": -1.3597294699,
				"z": -2.0083612822,
				"element": "C" 
			},
			{
				"x": -0.122810605,
				"y": -1.1160578857,
				"z": -0.8085807261,
				"element": "C" 
			},
			{
				"x": 0.5089291421,
				"y": -0.5789715478,
				"z": 0.4240361781,
				"element": "C" 
			},
			{
				"x": 0.3264653197,
				"y": -1.2354392242,
				"z": 1.6547721845,
				"element": "C" 
			},
			{
				"x": 0.9050633369,
				"y": -0.7339198395,
				"z": 2.8206704907,
				"element": "C" 
			},
			{
				"x": 1.6713486844,
				"y": 0.4321487604,
				"z": 2.7799399207,
				"element": "C" 
			},
			{
				"x": 1.8562808096,
				"y": 1.0934865592,
				"z": 1.5643458339,
				"element": "C" 
			},
			{
				"x": 1.2792708628,
				"y": 0.5959659616,
				"z": 0.3969088998,
				"element": "C" 
			},
			{
				"x": 1.9516077144,
				"y": -1.1515826119,
				"z": -2.357004065,
				"element": "C" 
			},
			{
				"x": 2.2414178569,
				"y": 0.1545112299,
				"z": -2.6027098318,
				"element": "F" 
			},
			{
				"x": 2.2795952667,
				"y": -1.830900935,
				"z": -3.4802868181,
				"element": "F" 
			},
			{
				"x": 2.7825730909,
				"y": -1.5550368874,
				"z": -1.3769792971,
				"element": "F" 
			},
			{
				"x": -2.1258927287,
				"y": -0.6095801218,
				"z": 0.8645184919,
				"element": "H" 
			},
			{
				"x": -3.3694121125,
				"y": -1.2598362729,
				"z": -0.0419906204,
				"element": "H" 
			},
			{
				"x": -2.8788308641,
				"y": -2.2045619898,
				"z": -2.4599237044,
				"element": "H" 
			},
			{
				"x": -0.2630242265,
				"y": -2.1461270969,
				"z": 1.6901511735,
				"element": "H" 
			},
			{
				"x": 0.7604872171,
				"y": -1.2592173201,
				"z": 3.7604908899,
				"element": "H" 
			},
			{
				"x": 2.121003894,
				"y": 0.8224853819,
				"z": 3.6883516284,
				"element": "H" 
			},
			{
				"x": 2.4493810709,
				"y": 2.0025957491,
				"z": 1.5235382461,
				"element": "H" 
			},
			{
				"x": 1.4268167863,
				"y": 1.1146577419,
				"z": -0.5435325056,
				"element": "H" 
			}
		],
		 "valence_orbital": [ 
			{
				"type": "occ",
				"energy": -0.31988,
				"method": "rhf"
			},
			{
				"type": "occ",
				"energy": -0.27268,
				"method": "rhf"
			},
			{
				"type": "occ",
				"energy": -0.25558,
				"method": "rhf"
			},
			{
				"type": "occ",
				"energy": -0.23434,
				"method": "rhf"
			},
			{
				"type": "occ",
				"energy": -0.20877,
				"method": "rhf"
			},
			{
				"type": "unocc",
				"energy": -0.03821,
				"method": "rhf"
			},
			{
				"type": "unocc",
				"energy": -0.00717,
				"method": "rhf"
			},
			{
				"type": "unocc",
				"energy": -0.00145,
				"method": "rhf"
			},
			{
				"type": "unocc",
				"energy": 0.02827,
				"method": "rhf"
			},
			{
				"type": "unocc",
				"energy": 0.06506,
				"method": "rhf"
			}
		],
		"cosmo_sigma_profile": { 
			"-0.025": 0.0,
			"-0.024": 0.0,
			"-0.023": 0.0,
			"-0.022": 0.0,
			"-0.021": 0.0,
			"-0.02": 0.0,
			"-0.019": 0.0,
			"-0.018": 0.0,
			"-0.017": 0.0,
			"-0.016": 0.0,
			"-0.015": 0.0,
			"-0.014": 0.00131312865142,
			"-0.013": 0.754669276885,
			"-0.012": 1.24758246969,
			"-0.011": 2.46062280547,
			"-0.01": 2.53798491509,
			"-0.009": 3.46919296418,
			"-0.008": 3.39891040515,
			"-0.007": 4.76872115752,
			"-0.006": 9.06598376113,
			"-0.005": 12.10326106,
			"-0.004": 14.4492937804,
			"-0.003": 11.4802362563,
			"-0.002": 11.8982264994,
			"-0.001": 14.5094384098,
			"0.0": 16.5105929637,
			"0.001": 21.4172873411,
			"0.002": 38.0659194319,
			"0.003": 38.3898789978,
			"0.004": 19.2460844326,
			"0.005": 12.6769018537,
			"0.006": 1.84672811788,
			"0.007": 0.921796083743,
			"0.008": 0.942928847846,
			"0.009": 0.469873308677,
			"0.01": 0.71605138192,
			"0.011": 0.686809587942,
			"0.012": 0.349520337743,
			"0.013": 0.501039529212,
			"0.014": 0.278433182687,
			"0.015": 0.0,
			"0.016": 0.0,
			"0.017": 0.0,
			"0.018": 0.0,
			"0.019": 0.0,
			"0.02": 0.0,
			"0.021": 0.0,
			"0.022": 0.0,
			"0.023": 0.0,
			"0.024": 0.0,
			"0.025": 0.0
		}
	}
}
