{
	 "smiles": "CCCCCCC(=O)OC1=C(Br)C=C(C=C1Br)C#N", 
	 "Tm": 317.25, 
	 "num_atms": 34, 
	 "gaussian": { 
		 "optdone": 1, 
		 "sigma_profile": "yes", 
		 "theory": "DFT", 
		 "functional": "B3LYP", 
		 "basiset": "6-31G**", 
		 "properties": { 
			 "R2extent": 13832.9983, 
			 "electric_dipole_moment_norm": 4.46417448696, 
			 "electric_quadrupole_moment_norm": 25.5303863878, 
			 "total_energy": -5890.53868475, 
			 "HOMO_LUMO_gap": 0.19892, 
			 "cosmo_polarized_energy": -11.43, 
			 "cosmo_cavitation_energy": 44.06, 
			 "cosmo_dispersion_energy": -29.94, 
			 "cosmo_repulsion_energy": 2.37, 
			 "cosmo_total_nonelectrostatic_energy": 16.49, 
			 "SMD_solvation_energy": 6.9 
		},
		"coords": [
			{
				"x": 0.7298134024,
				"y": -3.3321942242,
				"z": 5.0522370862,
				"element": "C" 
			},
			{
				"x": -0.1169900577,
				"y": -2.2822940758,
				"z": 4.3251353679,
				"element": "C" 
			},
			{
				"x": 0.3152894298,
				"y": -2.0736109771,
				"z": 2.8666091425,
				"element": "C" 
			},
			{
				"x": -0.548143856,
				"y": -1.0836586336,
				"z": 2.0681792049,
				"element": "C" 
			},
			{
				"x": -0.461810357,
				"y": 0.368620141,
				"z": 2.5612496853,
				"element": "C" 
			},
			{
				"x": -1.2828727218,
				"y": 1.3493063043,
				"z": 1.7168960693,
				"element": "C" 
			},
			{
				"x": -0.6969681443,
				"y": 1.5990583226,
				"z": 0.3489374959,
				"element": "C" 
			},
			{
				"x": 0.3873126436,
				"y": 1.2851052423,
				"z": -0.0618299115,
				"element": "O" 
			},
			{
				"x": -1.6114286754,
				"y": 2.3097038331,
				"z": -0.4275520188,
				"element": "O" 
			},
			{
				"x": -1.2282177622,
				"y": 2.6672524713,
				"z": -1.6961255004,
				"element": "C" 
			},
			{
				"x": -1.5145492032,
				"y": 1.8356509854,
				"z": -2.7869458535,
				"element": "C" 
			},
			{
				"x": -2.3556405396,
				"y": 0.1593330198,
				"z": -2.4964336234,
				"element": "Br" 
			},
			{
				"x": -1.1992873114,
				"y": 2.2228237053,
				"z": -4.0842503031,
				"element": "C" 
			},
			{
				"x": -0.5820109942,
				"y": 3.4634339232,
				"z": -4.3013894444,
				"element": "C" 
			},
			{
				"x": -0.28771401,
				"y": 4.3082117484,
				"z": -3.2210530353,
				"element": "C" 
			},
			{
				"x": -0.6108754977,
				"y": 3.9029557265,
				"z": -1.9313753094,
				"element": "C" 
			},
			{
				"x": -0.2174360439,
				"y": 5.0503208542,
				"z": -0.4711756368,
				"element": "Br" 
			},
			{
				"x": -0.255119087,
				"y": 3.873078788,
				"z": -5.6361175082,
				"element": "C" 
			},
			{
				"x": 0.0086840822,
				"y": 4.2058914094,
				"z": -6.7186087589,
				"element": "N" 
			},
			{
				"x": 0.4014213711,
				"y": -3.4654330495,
				"z": 6.0882174526,
				"element": "H" 
			},
			{
				"x": 0.6655916071,
				"y": -4.3065798936,
				"z": 4.5545134244,
				"element": "H" 
			},
			{
				"x": 1.7867289381,
				"y": -3.0428038086,
				"z": 5.0732120894,
				"element": "H" 
			},
			{
				"x": -1.1735263084,
				"y": -2.5840931344,
				"z": 4.3475983992,
				"element": "H" 
			},
			{
				"x": -0.0600878958,
				"y": -1.3334868786,
				"z": 4.8737310063,
				"element": "H" 
			},
			{
				"x": 1.3626810902,
				"y": -1.7406261108,
				"z": 2.8417426652,
				"element": "H" 
			},
			{
				"x": 0.2967227854,
				"y": -3.0445936227,
				"z": 2.3536323101,
				"element": "H" 
			},
			{
				"x": -1.597384954,
				"y": -1.4125023716,
				"z": 2.0960085289,
				"element": "H" 
			},
			{
				"x": -0.2391529131,
				"y": -1.1161496265,
				"z": 1.0171769644,
				"element": "H" 
			},
			{
				"x": -0.8167415761,
				"y": 0.4376735354,
				"z": 3.5953105643,
				"element": "H" 
			},
			{
				"x": 0.5855263702,
				"y": 0.6925745762,
				"z": 2.5628143242,
				"element": "H" 
			},
			{
				"x": -2.3172226051,
				"y": 1.009931956,
				"z": 1.5876410862,
				"element": "H" 
			},
			{
				"x": -1.3515963262,
				"y": 2.3308908756,
				"z": 2.20429439,
				"element": "H" 
			},
			{
				"x": -1.4272640859,
				"y": 1.5709615819,
				"z": -4.9181613882,
				"element": "H" 
			},
			{
				"x": 0.1879692061,
				"y": 5.2663474071,
				"z": -3.3884189654,
				"element": "H" 
			}
		],
		 "valence_orbital": [ 
			{
				"type": "occ",
				"energy": -0.31424,
				"method": "rhf"
			},
			{
				"type": "occ",
				"energy": -0.30702,
				"method": "rhf"
			},
			{
				"type": "occ",
				"energy": -0.29844,
				"method": "rhf"
			},
			{
				"type": "occ",
				"energy": -0.27149,
				"method": "rhf"
			},
			{
				"type": "occ",
				"energy": -0.27033,
				"method": "rhf"
			},
			{
				"type": "unocc",
				"energy": -0.07141,
				"method": "rhf"
			},
			{
				"type": "unocc",
				"energy": -0.05106,
				"method": "rhf"
			},
			{
				"type": "unocc",
				"energy": -0.03723,
				"method": "rhf"
			},
			{
				"type": "unocc",
				"energy": -0.01231,
				"method": "rhf"
			},
			{
				"type": "unocc",
				"energy": -0.00128,
				"method": "rhf"
			}
		],
		"cosmo_sigma_profile": { 
			"-0.025": 0.0,
			"-0.024": 0.0,
			"-0.023": 0.0,
			"-0.022": 0.0,
			"-0.021": 0.0,
			"-0.02": 0.0,
			"-0.019": 0.0,
			"-0.018": 0.0,
			"-0.017": 0.0,
			"-0.016": 0.0,
			"-0.015": 0.0,
			"-0.014": 0.0,
			"-0.013": 0.0,
			"-0.012": 0.0,
			"-0.011": 0.0809582562127,
			"-0.01": 2.64509064291,
			"-0.009": 3.98675958411,
			"-0.008": 3.33219556918,
			"-0.007": 4.25030309495,
			"-0.006": 9.73168357392,
			"-0.005": 11.6685434895,
			"-0.004": 14.9748141054,
			"-0.003": 27.9513244633,
			"-0.002": 47.5723098151,
			"-0.001": 49.1714180093,
			"0.0": 42.8808860188,
			"0.001": 37.3887157573,
			"0.002": 28.6927527986,
			"0.003": 22.1930480558,
			"0.004": 9.76946764909,
			"0.005": 5.6892614602,
			"0.006": 5.37290332888,
			"0.007": 5.06866664126,
			"0.008": 5.54235146198,
			"0.009": 4.96379030046,
			"0.01": 6.34982558375,
			"0.011": 4.2768744974,
			"0.012": 2.01439059487,
			"0.013": 0.265646857689,
			"0.014": 0.0,
			"0.015": 0.0,
			"0.016": 0.0,
			"0.017": 0.0,
			"0.018": 0.0,
			"0.019": 0.0,
			"0.02": 0.0,
			"0.021": 0.0,
			"0.022": 0.0,
			"0.023": 0.0,
			"0.024": 0.0,
			"0.025": 0.0
		}
	}
}
