{
	 "smiles": "CC(=O)OCCOCCOC(C)=O", 
	 "Tm": 291.15, 
	 "num_atms": 27, 
	 "gaussian": { 
		 "optdone": 1, 
		 "sigma_profile": "yes", 
		 "theory": "DFT", 
		 "functional": "B3LYP", 
		 "basiset": "6-31G**", 
		 "properties": { 
			 "R2extent": 3515.6941, 
			 "electric_dipole_moment_norm": 0.895132560016, 
			 "electric_quadrupole_moment_norm": 20.2785520213, 
			 "total_energy": -689.417283763, 
			 "HOMO_LUMO_gap": 0.27013, 
			 "cosmo_polarized_energy": -14.39, 
			 "cosmo_cavitation_energy": 31.66, 
			 "cosmo_dispersion_energy": -21.39, 
			 "cosmo_repulsion_energy": 1.77, 
			 "cosmo_total_nonelectrostatic_energy": 12.04, 
			 "SMD_solvation_energy": 8.02 
		},
		"coords": [
			{
				"x": -2.6275096286,
				"y": 2.2213881858,
				"z": -1.089314739,
				"element": "C" 
			},
			{
				"x": -1.1420304423,
				"y": 2.4428150502,
				"z": -0.9365076088,
				"element": "C" 
			},
			{
				"x": -0.6248126003,
				"y": 3.3087636751,
				"z": -0.2629682699,
				"element": "O" 
			},
			{
				"x": -0.4462662865,
				"y": 1.5311603438,
				"z": -1.656512107,
				"element": "O" 
			},
			{
				"x": 0.990283621,
				"y": 1.6224691952,
				"z": -1.586874436,
				"element": "C" 
			},
			{
				"x": 1.5521088276,
				"y": 0.9384801081,
				"z": -0.3536827621,
				"element": "C" 
			},
			{
				"x": 1.3221487846,
				"y": -0.4539786695,
				"z": -0.4617219167,
				"element": "O" 
			},
			{
				"x": 1.8138571358,
				"y": -1.2190665525,
				"z": 0.6231435459,
				"element": "C" 
			},
			{
				"x": 0.9359406056,
				"y": -1.1707701401,
				"z": 1.8712634469,
				"element": "C" 
			},
			{
				"x": -0.3988929055,
				"y": -1.6461764242,
				"z": 1.6075593368,
				"element": "O" 
			},
			{
				"x": -0.5725452162,
				"y": -2.989763147,
				"z": 1.6275552755,
				"element": "C" 
			},
			{
				"x": -2.0048525784,
				"y": -3.3475466618,
				"z": 1.3122716084,
				"element": "C" 
			},
			{
				"x": 0.3149123617,
				"y": -3.7808670947,
				"z": 1.8654522188,
				"element": "O" 
			},
			{
				"x": -3.1678582756,
				"y": 3.0080768311,
				"z": -0.5638166897,
				"element": "H" 
			},
			{
				"x": -2.8976597763,
				"y": 1.2451759962,
				"z": -0.6750934359,
				"element": "H" 
			},
			{
				"x": -2.9034201655,
				"y": 2.2141162319,
				"z": -2.1474171224,
				"element": "H" 
			},
			{
				"x": 1.2902958834,
				"y": 2.6735427707,
				"z": -1.5910910283,
				"element": "H" 
			},
			{
				"x": 1.3488041481,
				"y": 1.1223492656,
				"z": -2.4888096112,
				"element": "H" 
			},
			{
				"x": 2.634503913,
				"y": 1.1506292712,
				"z": -0.3005682716,
				"element": "H" 
			},
			{
				"x": 1.0864860508,
				"y": 1.3696267654,
				"z": 0.5427264909,
				"element": "H" 
			},
			{
				"x": 1.8717322051,
				"y": -2.2518094536,
				"z": 0.2701656547,
				"element": "H" 
			},
			{
				"x": 2.8321144558,
				"y": -0.9005465919,
				"z": 0.9048618774,
				"element": "H" 
			},
			{
				"x": 0.8001823494,
				"y": -0.149700379,
				"z": 2.2346277587,
				"element": "H" 
			},
			{
				"x": 1.3946963375,
				"y": -1.7777502996,
				"z": 2.6571692833,
				"element": "H" 
			},
			{
				"x": -2.6857852594,
				"y": -2.8169299032,
				"z": 1.9835351595,
				"element": "H" 
			},
			{
				"x": -2.2448201256,
				"y": -3.0371817805,
				"z": 0.2906250808,
				"element": "H" 
			},
			{
				"x": -2.1401134192,
				"y": -4.4240065926,
				"z": 1.411721261,
				"element": "H" 
			}
		],
		 "valence_orbital": [ 
			{
				"type": "occ",
				"energy": -0.30378,
				"method": "rhf"
			},
			{
				"type": "occ",
				"energy": -0.29759,
				"method": "rhf"
			},
			{
				"type": "occ",
				"energy": -0.27299,
				"method": "rhf"
			},
			{
				"type": "occ",
				"energy": -0.27143,
				"method": "rhf"
			},
			{
				"type": "occ",
				"energy": -0.25853,
				"method": "rhf"
			},
			{
				"type": "unocc",
				"energy": 0.0116,
				"method": "rhf"
			},
			{
				"type": "unocc",
				"energy": 0.01237,
				"method": "rhf"
			},
			{
				"type": "unocc",
				"energy": 0.08576,
				"method": "rhf"
			},
			{
				"type": "unocc",
				"energy": 0.10091,
				"method": "rhf"
			},
			{
				"type": "unocc",
				"energy": 0.11238,
				"method": "rhf"
			}
		],
		"cosmo_sigma_profile": { 
			"-0.025": 0.0,
			"-0.024": 0.0,
			"-0.023": 0.0,
			"-0.022": 0.0,
			"-0.021": 0.0,
			"-0.02": 0.0,
			"-0.019": 0.0,
			"-0.018": 0.0,
			"-0.017": 0.0,
			"-0.016": 0.0,
			"-0.015": 0.0,
			"-0.014": 0.0,
			"-0.013": 0.0,
			"-0.012": 0.0,
			"-0.011": 0.0,
			"-0.01": 0.0,
			"-0.009": 0.0,
			"-0.008": 0.0316748278767,
			"-0.007": 4.23804460371,
			"-0.006": 19.5835274898,
			"-0.005": 32.2524286492,
			"-0.004": 28.6101649764,
			"-0.003": 28.5182843978,
			"-0.002": 25.0188596365,
			"-0.001": 17.5985514848,
			"0.0": 9.38172482946,
			"0.001": 7.24880997244,
			"0.002": 6.69284562341,
			"0.003": 6.7583567172,
			"0.004": 6.16360127067,
			"0.005": 6.08145674859,
			"0.006": 5.9026622216,
			"0.007": 5.12334468642,
			"0.008": 5.38012362642,
			"0.009": 7.43640083021,
			"0.01": 6.60231893094,
			"0.011": 6.59734411537,
			"0.012": 9.99339359129,
			"0.013": 3.04780244004,
			"0.014": 0.0154140789715,
			"0.015": 0.0,
			"0.016": 0.0,
			"0.017": 0.0,
			"0.018": 0.0,
			"0.019": 0.0,
			"0.02": 0.0,
			"0.021": 0.0,
			"0.022": 0.0,
			"0.023": 0.0,
			"0.024": 0.0,
			"0.025": 0.0
		}
	}
}
