{
	 "smiles": "COC(=O)C1=CC2=CC=CC=C2C(OC(=O)C2=CC=CC=C2C)=C1C(=O)OC", 
	 "Tm": 412.15, 
	 "num_atms": 46, 
	 "gaussian": { 
		 "optdone": 1, 
		 "sigma_profile": "yes", 
		 "theory": "DFT", 
		 "functional": "B3LYP", 
		 "basiset": "6-31G**", 
		 "properties": { 
			 "R2extent": 11615.906, 
			 "electric_dipole_moment_norm": 5.10284050799, 
			 "electric_quadrupole_moment_norm": 16.6768348295, 
			 "total_energy": -1300.56719721, 
			 "HOMO_LUMO_gap": 0.16368, 
			 "cosmo_polarized_energy": -18.2, 
			 "cosmo_cavitation_energy": 51.14, 
			 "cosmo_dispersion_energy": -33.53, 
			 "cosmo_repulsion_energy": 2.51, 
			 "cosmo_total_nonelectrostatic_energy": 20.12, 
			 "SMD_solvation_energy": 11.51 
		},
		"coords": [
			{
				"x": 3.4441100165,
				"y": -4.3756355649,
				"z": -1.2268053822,
				"element": "C" 
			},
			{
				"x": 2.2249401248,
				"y": -3.6259495078,
				"z": -1.3462638242,
				"element": "O" 
			},
			{
				"x": 1.2431159304,
				"y": -3.9883717314,
				"z": -0.4953959112,
				"element": "C" 
			},
			{
				"x": 1.2994000823,
				"y": -4.9618376658,
				"z": 0.2260022556,
				"element": "O" 
			},
			{
				"x": 0.0322934933,
				"y": -3.114133345,
				"z": -0.633758931,
				"element": "C" 
			},
			{
				"x": -1.1819083607,
				"y": -3.7608206558,
				"z": -0.6580855466,
				"element": "C" 
			},
			{
				"x": -2.3887485909,
				"y": -3.0544670203,
				"z": -0.8861389542,
				"element": "C" 
			},
			{
				"x": -3.6487434915,
				"y": -3.7074830314,
				"z": -0.9285804167,
				"element": "C" 
			},
			{
				"x": -4.8029909971,
				"y": -2.9926403917,
				"z": -1.1571345586,
				"element": "C" 
			},
			{
				"x": -4.7459113573,
				"y": -1.5921626539,
				"z": -1.3553231361,
				"element": "C" 
			},
			{
				"x": -3.5396829875,
				"y": -0.9274126023,
				"z": -1.3215560975,
				"element": "C" 
			},
			{
				"x": -2.3348379371,
				"y": -1.6403936033,
				"z": -1.0861838454,
				"element": "C" 
			},
			{
				"x": -1.0641961686,
				"y": -0.994899586,
				"z": -1.0267865502,
				"element": "C" 
			},
			{
				"x": -1.0864252641,
				"y": 0.3734329026,
				"z": -1.2583093731,
				"element": "O" 
			},
			{
				"x": -0.7456927261,
				"y": 1.2500064017,
				"z": -0.2474918218,
				"element": "C" 
			},
			{
				"x": -0.4618256777,
				"y": 0.8698365291,
				"z": 0.8655073698,
				"element": "O" 
			},
			{
				"x": -0.7939320616,
				"y": 2.6588357143,
				"z": -0.7185940203,
				"element": "C" 
			},
			{
				"x": -0.8959860409,
				"y": 2.9239772033,
				"z": -2.0956719815,
				"element": "C" 
			},
			{
				"x": -0.9252853753,
				"y": 4.2297209021,
				"z": -2.57288915,
				"element": "C" 
			},
			{
				"x": -0.8592177203,
				"y": 5.2890926558,
				"z": -1.6674788005,
				"element": "C" 
			},
			{
				"x": -0.7601692052,
				"y": 5.0323278304,
				"z": -0.3009529395,
				"element": "C" 
			},
			{
				"x": -0.7194358437,
				"y": 3.727963663,
				"z": 0.209844846,
				"element": "C" 
			},
			{
				"x": -0.6069578356,
				"y": 3.5347438039,
				"z": 1.7031928064,
				"element": "C" 
			},
			{
				"x": 0.1091646771,
				"y": -1.693257361,
				"z": -0.7978182703,
				"element": "C" 
			},
			{
				"x": 1.4223371472,
				"y": -1.0129029984,
				"z": -0.5483778201,
				"element": "C" 
			},
			{
				"x": 2.1933897399,
				"y": -1.3492700318,
				"z": 0.3240390276,
				"element": "O" 
			},
			{
				"x": 1.6522508678,
				"y": 0.0141247141,
				"z": -1.3922507086,
				"element": "O" 
			},
			{
				"x": 2.873267561,
				"y": 0.7338029815,
				"z": -1.1481160659,
				"element": "C" 
			},
			{
				"x": 3.8904418937,
				"y": -4.2139474852,
				"z": -0.2423830971,
				"element": "H" 
			},
			{
				"x": 4.1003270156,
				"y": -3.9963549188,
				"z": -2.0101069725,
				"element": "H" 
			},
			{
				"x": 3.2557721681,
				"y": -5.4429494394,
				"z": -1.3638859099,
				"element": "H" 
			},
			{
				"x": -1.2055277532,
				"y": -4.8364711451,
				"z": -0.5160012778,
				"element": "H" 
			},
			{
				"x": -3.6836936604,
				"y": -4.7825877276,
				"z": -0.7762005005,
				"element": "H" 
			},
			{
				"x": -5.7620203387,
				"y": -3.5012662944,
				"z": -1.1864661549,
				"element": "H" 
			},
			{
				"x": -5.6623821766,
				"y": -1.0384143628,
				"z": -1.5364905325,
				"element": "H" 
			},
			{
				"x": -3.4941695462,
				"y": 0.1439851858,
				"z": -1.477365699,
				"element": "H" 
			},
			{
				"x": -0.9436017063,
				"y": 2.0905034032,
				"z": -2.7856654435,
				"element": "H" 
			},
			{
				"x": -0.9995220135,
				"y": 4.4178885249,
				"z": -3.6395397162,
				"element": "H" 
			},
			{
				"x": -0.8846653348,
				"y": 6.3155220871,
				"z": -2.0226779205,
				"element": "H" 
			},
			{
				"x": -0.7116776419,
				"y": 5.864290852,
				"z": 0.3962547676,
				"element": "H" 
			},
			{
				"x": 0.3244401534,
				"y": 3.029622963,
				"z": 1.972750745,
				"element": "H" 
			},
			{
				"x": -0.6426915118,
				"y": 4.5028909143,
				"z": 2.2099881533,
				"element": "H" 
			},
			{
				"x": -1.4103330133,
				"y": 2.9039442587,
				"z": 2.0931667753,
				"element": "H" 
			},
			{
				"x": 3.7365210423,
				"y": 0.0755442903,
				"z": -1.272169728,
				"element": "H" 
			},
			{
				"x": 2.8914913106,
				"y": 1.5357558653,
				"z": -1.8857377795,
				"element": "H" 
			},
			{
				"x": 2.8804691142,
				"y": 1.1404154778,
				"z": -0.1340919089,
				"element": "H" 
			}
		],
		 "valence_orbital": [ 
			{
				"type": "occ",
				"energy": -0.26982,
				"method": "rhf"
			},
			{
				"type": "occ",
				"energy": -0.26465,
				"method": "rhf"
			},
			{
				"type": "occ",
				"energy": -0.25472,
				"method": "rhf"
			},
			{
				"type": "occ",
				"energy": -0.25235,
				"method": "rhf"
			},
			{
				"type": "occ",
				"energy": -0.22517,
				"method": "rhf"
			},
			{
				"type": "unocc",
				"energy": -0.06149,
				"method": "rhf"
			},
			{
				"type": "unocc",
				"energy": -0.04924,
				"method": "rhf"
			},
			{
				"type": "unocc",
				"energy": -0.0459,
				"method": "rhf"
			},
			{
				"type": "unocc",
				"energy": -0.01025,
				"method": "rhf"
			},
			{
				"type": "unocc",
				"energy": 0.01333,
				"method": "rhf"
			}
		],
		"cosmo_sigma_profile": { 
			"-0.025": 0.0,
			"-0.024": 0.0,
			"-0.023": 0.0,
			"-0.022": 0.0,
			"-0.021": 0.0,
			"-0.02": 0.0,
			"-0.019": 0.0,
			"-0.018": 0.0,
			"-0.017": 0.0,
			"-0.016": 0.0,
			"-0.015": 0.0,
			"-0.014": 0.0,
			"-0.013": 0.0,
			"-0.012": 0.0,
			"-0.011": 0.0,
			"-0.01": 0.0,
			"-0.009": 0.0,
			"-0.008": 1.11700158754,
			"-0.007": 9.09221006714,
			"-0.006": 26.6691317523,
			"-0.005": 32.73393221,
			"-0.004": 38.1196169605,
			"-0.003": 34.1303887436,
			"-0.002": 27.6650003647,
			"-0.001": 26.8085373042,
			"0.0": 35.5131880342,
			"0.001": 38.8213342367,
			"0.002": 31.6572163701,
			"0.003": 30.2095131167,
			"0.004": 21.057559156,
			"0.005": 8.55548285234,
			"0.006": 7.64507316067,
			"0.007": 7.75319178041,
			"0.008": 5.61009930916,
			"0.009": 5.51475785878,
			"0.01": 6.43713061081,
			"0.011": 9.31031695421,
			"0.012": 4.3043756993,
			"0.013": 0.155165260442,
			"0.014": 0.0,
			"0.015": 0.0,
			"0.016": 0.0,
			"0.017": 0.0,
			"0.018": 0.0,
			"0.019": 0.0,
			"0.02": 0.0,
			"0.021": 0.0,
			"0.022": 0.0,
			"0.023": 0.0,
			"0.024": 0.0,
			"0.025": 0.0
		}
	}
}
