{
	 "smiles": "FC1=CN=C(Br)C=C1", 
	 "Tm": 301.65, 
	 "num_atms": 11, 
	 "gaussian": { 
		 "optdone": 1, 
		 "sigma_profile": "yes", 
		 "theory": "DFT", 
		 "functional": "B3LYP", 
		 "basiset": "6-31G**", 
		 "properties": { 
			 "R2extent": 4100.6553, 
			 "electric_dipole_moment_norm": 2.42437278074, 
			 "electric_quadrupole_moment_norm": 12.4330811865, 
			 "total_energy": -2918.31730201, 
			 "HOMO_LUMO_gap": 0.20586, 
			 "cosmo_polarized_energy": -5.97, 
			 "cosmo_cavitation_energy": 18.44, 
			 "cosmo_dispersion_energy": -14.18, 
			 "cosmo_repulsion_energy": 1.15, 
			 "cosmo_total_nonelectrostatic_energy": 5.42, 
			 "SMD_solvation_energy": 1.28 
		},
		"coords": [
			{
				"x": -1.0576788803,
				"y": -0.6408585314,
				"z": 1.5399494296,
				"element": "F" 
			},
			{
				"x": -1.4035236009,
				"y": 0.1563907038,
				"z": 0.5148413075,
				"element": "C" 
			},
			{
				"x": -0.4191011794,
				"y": 0.856189169,
				"z": -0.1741255027,
				"element": "C" 
			},
			{
				"x": -0.7165907736,
				"y": 1.6618135603,
				"z": -1.2014492916,
				"element": "N" 
			},
			{
				"x": -1.9842228054,
				"y": 1.7773494987,
				"z": -1.5492577037,
				"element": "C" 
			},
			{
				"x": -2.3807586402,
				"y": 2.939365401,
				"z": -3.025742198,
				"element": "Br" 
			},
			{
				"x": -3.0449342284,
				"y": 1.116817297,
				"z": -0.9205659534,
				"element": "C" 
			},
			{
				"x": -2.7396324723,
				"y": 0.2786848179,
				"z": 0.1475520719,
				"element": "C" 
			},
			{
				"x": 0.6253264328,
				"y": 0.7621118765,
				"z": 0.1111348172,
				"element": "H" 
			},
			{
				"x": -4.0647731166,
				"y": 1.2564554085,
				"z": -1.2571944223,
				"element": "H" 
			},
			{
				"x": -3.5077107356,
				"y": -0.2672192012,
				"z": 0.6849574457,
				"element": "H" 
			}
		],
		 "valence_orbital": [ 
			{
				"type": "occ",
				"energy": -0.31725,
				"method": "rhf"
			},
			{
				"type": "occ",
				"energy": -0.31012,
				"method": "rhf"
			},
			{
				"type": "occ",
				"energy": -0.29249,
				"method": "rhf"
			},
			{
				"type": "occ",
				"energy": -0.28109,
				"method": "rhf"
			},
			{
				"type": "occ",
				"energy": -0.25518,
				"method": "rhf"
			},
			{
				"type": "unocc",
				"energy": -0.04932,
				"method": "rhf"
			},
			{
				"type": "unocc",
				"energy": -0.02745,
				"method": "rhf"
			},
			{
				"type": "unocc",
				"energy": 0.00406,
				"method": "rhf"
			},
			{
				"type": "unocc",
				"energy": 0.08452,
				"method": "rhf"
			},
			{
				"type": "unocc",
				"energy": 0.1255,
				"method": "rhf"
			}
		],
		"cosmo_sigma_profile": { 
			"-0.025": 0.0,
			"-0.024": 0.0,
			"-0.023": 0.0,
			"-0.022": 0.0,
			"-0.021": 0.0,
			"-0.02": 0.0,
			"-0.019": 0.0,
			"-0.018": 0.0,
			"-0.017": 0.0,
			"-0.016": 0.0,
			"-0.015": 0.0,
			"-0.014": 0.0,
			"-0.013": 0.0,
			"-0.012": 0.0,
			"-0.011": 0.0,
			"-0.01": 0.215472253753,
			"-0.009": 3.61206053062,
			"-0.008": 6.36398141578,
			"-0.007": 4.8896565432,
			"-0.006": 5.457237729,
			"-0.005": 4.21893620001,
			"-0.004": 6.5004395289,
			"-0.003": 7.30045872513,
			"-0.002": 14.0786569931,
			"-0.001": 17.228262007,
			"0.0": 14.9212342248,
			"0.001": 10.7342764893,
			"0.002": 8.32173883776,
			"0.003": 16.9355244599,
			"0.004": 14.2994797422,
			"0.005": 6.83074423975,
			"0.006": 2.4629067154,
			"0.007": 1.84445546202,
			"0.008": 0.928769634568,
			"0.009": 1.48088024682,
			"0.01": 0.937937919403,
			"0.011": 0.886752343944,
			"0.012": 0.931824955532,
			"0.013": 0.913560864026,
			"0.014": 0.348237685176,
			"0.015": 0.0,
			"0.016": 0.0,
			"0.017": 0.0,
			"0.018": 0.0,
			"0.019": 0.0,
			"0.02": 0.0,
			"0.021": 0.0,
			"0.022": 0.0,
			"0.023": 0.0,
			"0.024": 0.0,
			"0.025": 0.0
		}
	}
}
