{
	 "smiles": "NC1=CC=C(Br)C(Cl)=C1Cl", 
	 "Tm": 349.15, 
	 "num_atms": 14, 
	 "gaussian": { 
		 "optdone": 1, 
		 "sigma_profile": "yes", 
		 "theory": "DFT", 
		 "functional": "B3LYP", 
		 "basiset": "6-31G**", 
		 "properties": { 
			 "R2extent": 3008.7775, 
			 "electric_dipole_moment_norm": 4.09099214494, 
			 "electric_quadrupole_moment_norm": 10.5334763715, 
			 "total_energy": -3777.58451599, 
			 "HOMO_LUMO_gap": 0.1904, 
			 "cosmo_polarized_energy": -8.62, 
			 "cosmo_cavitation_energy": 23.61, 
			 "cosmo_dispersion_energy": -18.52, 
			 "cosmo_repulsion_energy": 1.49, 
			 "cosmo_total_nonelectrostatic_energy": 6.58, 
			 "SMD_solvation_energy": 2.42 
		},
		"coords": [
			{
				"x": -3.1819308196,
				"y": -0.8813983642,
				"z": -1.6066616886,
				"element": "N" 
			},
			{
				"x": -1.8859650297,
				"y": -0.5511911939,
				"z": -1.2607065194,
				"element": "C" 
			},
			{
				"x": -1.2745299234,
				"y": 0.603499113,
				"z": -1.7807192364,
				"element": "C" 
			},
			{
				"x": 0.0046455348,
				"y": 0.9735441804,
				"z": -1.3973049646,
				"element": "C" 
			},
			{
				"x": 0.7260178166,
				"y": 0.2068997606,
				"z": -0.4815272049,
				"element": "C" 
			},
			{
				"x": 2.4759171817,
				"y": 0.7758727319,
				"z": 0.0004302866,
				"element": "Br" 
			},
			{
				"x": 0.1486781563,
				"y": -0.9518266195,
				"z": 0.0545424286,
				"element": "C" 
			},
			{
				"x": 1.0216558604,
				"y": -1.9342330746,
				"z": 1.1932513948,
				"element": "Cl" 
			},
			{
				"x": -1.1474497857,
				"y": -1.3222696415,
				"z": -0.3385549005,
				"element": "C" 
			},
			{
				"x": -1.8950516075,
				"y": -2.7716150083,
				"z": 0.3047932145,
				"element": "Cl" 
			},
			{
				"x": -3.4660852064,
				"y": -1.8355232267,
				"z": -1.4389897145,
				"element": "H" 
			},
			{
				"x": -3.5216092314,
				"y": -0.4945651935,
				"z": -2.474413656,
				"element": "H" 
			},
			{
				"x": -1.8233801012,
				"y": 1.2164020346,
				"z": -2.489820345,
				"element": "H" 
			},
			{
				"x": 0.4577871552,
				"y": 1.8676045018,
				"z": -1.8093190945,
				"element": "H" 
			}
		],
		 "valence_orbital": [ 
			{
				"type": "occ",
				"energy": -0.31668,
				"method": "rhf"
			},
			{
				"type": "occ",
				"energy": -0.29002,
				"method": "rhf"
			},
			{
				"type": "occ",
				"energy": -0.28347,
				"method": "rhf"
			},
			{
				"type": "occ",
				"energy": -0.2547,
				"method": "rhf"
			},
			{
				"type": "occ",
				"energy": -0.21768,
				"method": "rhf"
			},
			{
				"type": "unocc",
				"energy": -0.02728,
				"method": "rhf"
			},
			{
				"type": "unocc",
				"energy": -0.0235,
				"method": "rhf"
			},
			{
				"type": "unocc",
				"energy": -0.01131,
				"method": "rhf"
			},
			{
				"type": "unocc",
				"energy": 0.03633,
				"method": "rhf"
			},
			{
				"type": "unocc",
				"energy": 0.0616,
				"method": "rhf"
			}
		],
		"cosmo_sigma_profile": { 
			"-0.025": 0.0,
			"-0.024": 0.0,
			"-0.023": 0.0,
			"-0.022": 0.0,
			"-0.021": 0.0,
			"-0.02": 0.0,
			"-0.019": 0.0,
			"-0.018": 0.0,
			"-0.017": 0.0,
			"-0.016": 0.0,
			"-0.015": 0.0,
			"-0.014": 0.625650127586,
			"-0.013": 1.76137714112,
			"-0.012": 2.15096104183,
			"-0.011": 3.17103212127,
			"-0.01": 3.07366531804,
			"-0.009": 1.80655208619,
			"-0.008": 4.19325026489,
			"-0.007": 5.31086957359,
			"-0.006": 5.18471757962,
			"-0.005": 5.52228576622,
			"-0.004": 5.53765391766,
			"-0.003": 8.98358809258,
			"-0.002": 8.0371035596,
			"-0.001": 10.0314097439,
			"0.0": 18.0232001282,
			"0.001": 23.7101763065,
			"0.002": 24.5454256706,
			"0.003": 23.6742883555,
			"0.004": 25.0858938211,
			"0.005": 11.3619892502,
			"0.006": 1.70513683304,
			"0.007": 0.480092838059,
			"0.008": 0.890415961116,
			"0.009": 0.47625871473,
			"0.01": 0.609276631796,
			"0.011": 0.586361280131,
			"0.012": 0.329626352976,
			"0.013": 0.0,
			"0.014": 0.0,
			"0.015": 0.0,
			"0.016": 0.0,
			"0.017": 0.0,
			"0.018": 0.0,
			"0.019": 0.0,
			"0.02": 0.0,
			"0.021": 0.0,
			"0.022": 0.0,
			"0.023": 0.0,
			"0.024": 0.0,
			"0.025": 0.0
		}
	}
}
