{
	 "smiles": "CC1=C(CC(O)=O)C(=O)NC(=N1)C1=CC=NC=C1", 
	 "Tm": 526.15, 
	 "num_atms": 29, 
	 "gaussian": { 
		 "optdone": 1, 
		 "sigma_profile": "yes", 
		 "theory": "DFT", 
		 "functional": "B3LYP", 
		 "basiset": "6-31G**", 
		 "properties": { 
			 "R2extent": 6716.0397, 
			 "electric_dipole_moment_norm": 5.48735505412, 
			 "electric_quadrupole_moment_norm": 43.6373837747, 
			 "total_energy": -853.871370494, 
			 "HOMO_LUMO_gap": 0.14942, 
			 "cosmo_polarized_energy": -22.02, 
			 "cosmo_cavitation_energy": 33.67, 
			 "cosmo_dispersion_energy": -24.51, 
			 "cosmo_repulsion_energy": 1.86, 
			 "cosmo_total_nonelectrostatic_energy": 11.02, 
			 "SMD_solvation_energy": 4.81 
		},
		"coords": [
			{
				"x": -1.4944794672,
				"y": 1.1353630356,
				"z": 3.0625784478,
				"element": "C" 
			},
			{
				"x": -0.7633903305,
				"y": 0.0513800814,
				"z": 2.3132526601,
				"element": "C" 
			},
			{
				"x": -0.4052917358,
				"y": -1.143810439,
				"z": 2.9047884662,
				"element": "C" 
			},
			{
				"x": -0.7457444456,
				"y": -1.5337299781,
				"z": 4.3217123746,
				"element": "C" 
			},
			{
				"x": 0.4528281244,
				"y": -1.4412533285,
				"z": 5.2867173047,
				"element": "C" 
			},
			{
				"x": 1.4465135924,
				"y": -2.3106803764,
				"z": 5.0524676869,
				"element": "O" 
			},
			{
				"x": 0.4934924423,
				"y": -0.6431626348,
				"z": 6.1933750493,
				"element": "O" 
			},
			{
				"x": 0.3447789072,
				"y": -2.1058936862,
				"z": 2.1323973204,
				"element": "C" 
			},
			{
				"x": 0.795790104,
				"y": -3.1844017345,
				"z": 2.5495033356,
				"element": "O" 
			},
			{
				"x": 0.5531300975,
				"y": -1.7389397672,
				"z": 0.8033398897,
				"element": "N" 
			},
			{
				"x": 0.1512387664,
				"y": -0.5438085129,
				"z": 0.2773313254,
				"element": "C" 
			},
			{
				"x": -0.4847445375,
				"y": 0.3406736722,
				"z": 0.9992689983,
				"element": "N" 
			},
			{
				"x": 0.4509461186,
				"y": -0.2543363785,
				"z": -1.1457179434,
				"element": "C" 
			},
			{
				"x": -0.2187999713,
				"y": 0.7976487002,
				"z": -1.7846331423,
				"element": "C" 
			},
			{
				"x": 0.0629812496,
				"y": 1.0575985346,
				"z": -3.1233569356,
				"element": "C" 
			},
			{
				"x": 0.9485335326,
				"y": 0.3618092223,
				"z": -3.8501569812,
				"element": "N" 
			},
			{
				"x": 1.5925996302,
				"y": -0.6330725242,
				"z": -3.2311497174,
				"element": "C" 
			},
			{
				"x": 1.3854133368,
				"y": -0.9807621246,
				"z": -1.8958061161,
				"element": "C" 
			},
			{
				"x": -1.4686693875,
				"y": 2.0576049884,
				"z": 2.48119658,
				"element": "H" 
			},
			{
				"x": -1.0490267196,
				"y": 1.3123158562,
				"z": 4.0452098334,
				"element": "H" 
			},
			{
				"x": -2.5447541166,
				"y": 0.8611026633,
				"z": 3.2206270388,
				"element": "H" 
			},
			{
				"x": -1.5329736977,
				"y": -0.9017141269,
				"z": 4.7285846161,
				"element": "H" 
			},
			{
				"x": -1.0998909422,
				"y": -2.5722203726,
				"z": 4.3186531469,
				"element": "H" 
			},
			{
				"x": 1.2545802188,
				"y": -2.8376342772,
				"z": 4.2410863504,
				"element": "H" 
			},
			{
				"x": 1.0408352676,
				"y": -2.4266967721,
				"z": 0.2415576569,
				"element": "H" 
			},
			{
				"x": -0.9402261927,
				"y": 1.3881511615,
				"z": -1.2329761774,
				"element": "H" 
			},
			{
				"x": -0.4501793108,
				"y": 1.8660617732,
				"z": -3.6399229743,
				"element": "H" 
			},
			{
				"x": 2.3174793178,
				"y": -1.1830699573,
				"z": -3.8278825935,
				"element": "H" 
			},
			{
				"x": 1.9767301486,
				"y": -1.7854226979,
				"z": -1.4688455002,
				"element": "H" 
			}
		],
		 "valence_orbital": [ 
			{
				"type": "occ",
				"energy": -0.29505,
				"method": "rhf"
			},
			{
				"type": "occ",
				"energy": -0.2887,
				"method": "rhf"
			},
			{
				"type": "occ",
				"energy": -0.27835,
				"method": "rhf"
			},
			{
				"type": "occ",
				"energy": -0.27043,
				"method": "rhf"
			},
			{
				"type": "occ",
				"energy": -0.24517,
				"method": "rhf"
			},
			{
				"type": "unocc",
				"energy": -0.09575,
				"method": "rhf"
			},
			{
				"type": "unocc",
				"energy": -0.04611,
				"method": "rhf"
			},
			{
				"type": "unocc",
				"energy": -0.03509,
				"method": "rhf"
			},
			{
				"type": "unocc",
				"energy": -0.00353,
				"method": "rhf"
			},
			{
				"type": "unocc",
				"energy": 0.02398,
				"method": "rhf"
			}
		],
		"cosmo_sigma_profile": { 
			"-0.025": 0.0,
			"-0.024": 0.0,
			"-0.023": 0.0,
			"-0.022": 0.0,
			"-0.021": 0.0,
			"-0.02": 0.0,
			"-0.019": 0.0,
			"-0.018": 0.221621447352,
			"-0.017": 1.00609962519,
			"-0.016": 1.69919302989,
			"-0.015": 0.853379461777,
			"-0.014": 0.935755653945,
			"-0.013": 1.29044330411,
			"-0.012": 1.19469033489,
			"-0.011": 1.35062196204,
			"-0.01": 1.32390912789,
			"-0.009": 1.54971507442,
			"-0.008": 3.01764509434,
			"-0.007": 10.3787339885,
			"-0.006": 16.3360274833,
			"-0.005": 18.2663045561,
			"-0.004": 23.7629802134,
			"-0.003": 23.5522739375,
			"-0.002": 21.1813287356,
			"-0.001": 19.9652948276,
			"0.0": 17.3189508442,
			"0.001": 20.051834948,
			"0.002": 10.7176454921,
			"0.003": 7.27959247576,
			"0.004": 6.30798099862,
			"0.005": 4.80775104928,
			"0.006": 6.45304988817,
			"0.007": 6.75366333472,
			"0.008": 5.47007557351,
			"0.009": 5.73318385633,
			"0.01": 6.07774737334,
			"0.011": 8.79035361143,
			"0.012": 8.68291450233,
			"0.013": 4.8014609237,
			"0.014": 1.30865776972,
			"0.015": 0.965147270166,
			"0.016": 0.452158060971,
			"0.017": 0.0112019608123,
			"0.018": 0.0,
			"0.019": 0.0,
			"0.02": 0.0,
			"0.021": 0.0,
			"0.022": 0.0,
			"0.023": 0.0,
			"0.024": 0.0,
			"0.025": 0.0
		}
	}
}
