{
	 "smiles": "CC(C)(C)OC(=O)N[C@@H](CCC(N)=O)C(O)=O", 
	 "Tm": 392.15, 
	 "num_atms": 35, 
	 "gaussian": { 
		 "optdone": 1, 
		 "sigma_profile": "yes", 
		 "theory": "DFT", 
		 "functional": "B3LYP", 
		 "basiset": "6-31G**", 
		 "properties": { 
			 "R2extent": 5332.1917, 
			 "electric_dipole_moment_norm": 3.93273208342, 
			 "electric_quadrupole_moment_norm": 36.4199093353, 
			 "total_energy": -877.612287755, 
			 "HOMO_LUMO_gap": 0.25272, 
			 "cosmo_polarized_energy": -22.55, 
			 "cosmo_cavitation_energy": 37.57, 
			 "cosmo_dispersion_energy": -25.39, 
			 "cosmo_repulsion_energy": 2.03, 
			 "cosmo_total_nonelectrostatic_energy": 14.2, 
			 "SMD_solvation_energy": 9.25 
		},
		"coords": [
			{
				"x": -0.3228986173,
				"y": -3.3675226957,
				"z": 2.15304431,
				"element": "C" 
			},
			{
				"x": -0.2325297047,
				"y": -1.8674759309,
				"z": 2.4507527605,
				"element": "C" 
			},
			{
				"x": 1.0502270704,
				"y": -1.498946921,
				"z": 3.2029135927,
				"element": "C" 
			},
			{
				"x": -1.469472348,
				"y": -1.3882601206,
				"z": 3.2143050078,
				"element": "C" 
			},
			{
				"x": -0.3168290407,
				"y": -1.101532595,
				"z": 1.1929584352,
				"element": "O" 
			},
			{
				"x": 0.6189755282,
				"y": -1.2438472496,
				"z": 0.2266203526,
				"element": "C" 
			},
			{
				"x": 1.5884476829,
				"y": -1.978648597,
				"z": 0.267908178,
				"element": "O" 
			},
			{
				"x": 0.316293315,
				"y": -0.4692530039,
				"z": -0.88345068,
				"element": "N" 
			},
			{
				"x": -0.5832543348,
				"y": 0.6850968541,
				"z": -0.8594075389,
				"element": "C" 
			},
			{
				"x": 0.1119874105,
				"y": 2.0489269639,
				"z": -1.0886127017,
				"element": "C" 
			},
			{
				"x": 0.467810918,
				"y": 2.4477291128,
				"z": -2.5315144712,
				"element": "C" 
			},
			{
				"x": 1.6343132376,
				"y": 1.7066199239,
				"z": -3.1732556449,
				"element": "C" 
			},
			{
				"x": 2.2221185942,
				"y": 2.354265788,
				"z": -4.2153444232,
				"element": "N" 
			},
			{
				"x": 2.0332773098,
				"y": 0.5993534924,
				"z": -2.8123208116,
				"element": "O" 
			},
			{
				"x": -1.7674663856,
				"y": 0.4942991608,
				"z": -1.8307125,
				"element": "C" 
			},
			{
				"x": -1.9123614675,
				"y": -0.7497701174,
				"z": -2.3082010741,
				"element": "O" 
			},
			{
				"x": -2.5208371604,
				"y": 1.3966125143,
				"z": -2.1222057053,
				"element": "O" 
			},
			{
				"x": -1.2296696214,
				"y": -3.587702667,
				"z": 1.5807355176,
				"element": "H" 
			},
			{
				"x": 0.5453457989,
				"y": -3.7066784682,
				"z": 1.5878379093,
				"element": "H" 
			},
			{
				"x": -0.372743317,
				"y": -3.924746683,
				"z": 3.0941020932,
				"element": "H" 
			},
			{
				"x": 1.0504250394,
				"y": -1.9833367199,
				"z": 4.1847214716,
				"element": "H" 
			},
			{
				"x": 1.9335637209,
				"y": -1.8199650497,
				"z": 2.6507200614,
				"element": "H" 
			},
			{
				"x": 1.1017423612,
				"y": -0.4166639735,
				"z": 3.3596068131,
				"element": "H" 
			},
			{
				"x": -2.3812250031,
				"y": -1.6076918976,
				"z": 2.6512780574,
				"element": "H" 
			},
			{
				"x": -1.5306377176,
				"y": -1.893270933,
				"z": 4.1828028674,
				"element": "H" 
			},
			{
				"x": -1.4229630338,
				"y": -0.3094116427,
				"z": 3.3902656783,
				"element": "H" 
			},
			{
				"x": 1.1050901969,
				"y": -0.3644465154,
				"z": -1.5289472041,
				"element": "H" 
			},
			{
				"x": -1.0357270274,
				"y": 0.7176804169,
				"z": 0.1350946753,
				"element": "H" 
			},
			{
				"x": -0.5799129258,
				"y": 2.8117532863,
				"z": -0.7215693903,
				"element": "H" 
			},
			{
				"x": 1.0024255403,
				"y": 2.0872830414,
				"z": -0.4526946116,
				"element": "H" 
			},
			{
				"x": -0.4134257521,
				"y": 2.3158913907,
				"z": -3.1716116036,
				"element": "H" 
			},
			{
				"x": 0.6875483568,
				"y": 3.5220580443,
				"z": -2.5490788271,
				"element": "H" 
			},
			{
				"x": 2.9439847438,
				"y": 1.8703115081,
				"z": -4.7281267072,
				"element": "H" 
			},
			{
				"x": 1.8823374327,
				"y": 3.2350858266,
				"z": -4.5653682256,
				"element": "H" 
			},
			{
				"x": -1.1510608004,
				"y": -1.2605955433,
				"z": -1.9620456611,
				"element": "H" 
			}
		],
		 "valence_orbital": [ 
			{
				"type": "occ",
				"energy": -0.28905,
				"method": "rhf"
			},
			{
				"type": "occ",
				"energy": -0.2869,
				"method": "rhf"
			},
			{
				"type": "occ",
				"energy": -0.27487,
				"method": "rhf"
			},
			{
				"type": "occ",
				"energy": -0.26534,
				"method": "rhf"
			},
			{
				"type": "occ",
				"energy": -0.24481,
				"method": "rhf"
			},
			{
				"type": "unocc",
				"energy": 0.00791,
				"method": "rhf"
			},
			{
				"type": "unocc",
				"energy": 0.01449,
				"method": "rhf"
			},
			{
				"type": "unocc",
				"energy": 0.04487,
				"method": "rhf"
			},
			{
				"type": "unocc",
				"energy": 0.05778,
				"method": "rhf"
			},
			{
				"type": "unocc",
				"energy": 0.07878,
				"method": "rhf"
			}
		],
		"cosmo_sigma_profile": { 
			"-0.025": 0.0,
			"-0.024": 0.0,
			"-0.023": 0.0,
			"-0.022": 0.0,
			"-0.021": 0.0,
			"-0.02": 0.0,
			"-0.019": 0.0,
			"-0.018": 0.0,
			"-0.017": 0.0,
			"-0.016": 0.0,
			"-0.015": 0.433872864612,
			"-0.014": 2.46357863772,
			"-0.013": 3.05871430237,
			"-0.012": 3.32512302893,
			"-0.011": 3.20380619757,
			"-0.01": 3.94682819462,
			"-0.009": 3.0187150926,
			"-0.008": 3.72473752758,
			"-0.007": 5.33709291234,
			"-0.006": 8.96387008592,
			"-0.005": 13.9271373037,
			"-0.004": 27.5055520108,
			"-0.003": 26.3157845075,
			"-0.002": 23.7655375196,
			"-0.001": 25.540789028,
			"0.0": 29.6882361758,
			"0.001": 21.4137725245,
			"0.002": 10.0206239056,
			"0.003": 8.86663025556,
			"0.004": 8.01210734609,
			"0.005": 6.07711983545,
			"0.006": 5.60996123331,
			"0.007": 5.70111982455,
			"0.008": 5.62547385683,
			"0.009": 5.75728313265,
			"0.01": 7.35594189252,
			"0.011": 6.78066633315,
			"0.012": 9.05569635741,
			"0.013": 7.14656222888,
			"0.014": 1.57017558577,
			"0.015": 0.0,
			"0.016": 0.0,
			"0.017": 0.0,
			"0.018": 0.0,
			"0.019": 0.0,
			"0.02": 0.0,
			"0.021": 0.0,
			"0.022": 0.0,
			"0.023": 0.0,
			"0.024": 0.0,
			"0.025": 0.0
		}
	}
}
