{
	 "smiles": "OC(=O)[C@@H]1CCC(=O)C2=CC=CC=C12", 
	 "Tm": 368.0, 
	 "num_atms": 24, 
	 "gaussian": { 
		 "optdone": 1, 
		 "sigma_profile": "yes", 
		 "theory": "DFT", 
		 "functional": "B3LYP", 
		 "basiset": "6-31G**", 
		 "properties": { 
			 "R2extent": 2764.2342, 
			 "electric_dipole_moment_norm": 3.61672349648, 
			 "electric_quadrupole_moment_norm": 23.1622431519, 
			 "total_energy": -650.884290807, 
			 "HOMO_LUMO_gap": 0.1856, 
			 "cosmo_polarized_energy": -18.93, 
			 "cosmo_cavitation_energy": 27.24, 
			 "cosmo_dispersion_energy": -19.98, 
			 "cosmo_repulsion_energy": 1.55, 
			 "cosmo_total_nonelectrostatic_energy": 8.81, 
			 "SMD_solvation_energy": 5.76 
		},
		"coords": [
			{
				"x": 0.0327233705,
				"y": -1.5254672819,
				"z": 3.0081158425,
				"element": "O" 
			},
			{
				"x": 0.9440864063,
				"y": -0.6935065488,
				"z": 2.4288053079,
				"element": "C" 
			},
			{
				"x": 1.6998881685,
				"y": -0.0584220223,
				"z": 3.1175080976,
				"element": "O" 
			},
			{
				"x": 0.9180912937,
				"y": -0.6337854178,
				"z": 0.8962881765,
				"element": "C" 
			},
			{
				"x": 2.3242013117,
				"y": -0.3217053354,
				"z": 0.3610892921,
				"element": "C" 
			},
			{
				"x": 2.3163427857,
				"y": -0.2462542436,
				"z": -1.1664898227,
				"element": "C" 
			},
			{
				"x": 1.3063876565,
				"y": 0.756067934,
				"z": -1.7013042419,
				"element": "C" 
			},
			{
				"x": 1.4676233336,
				"y": 1.3073525546,
				"z": -2.7791835997,
				"element": "O" 
			},
			{
				"x": 0.0971172915,
				"y": 1.0194655275,
				"z": -0.8604759518,
				"element": "C" 
			},
			{
				"x": -0.8485392187,
				"y": 1.9350044299,
				"z": -1.3470212308,
				"element": "C" 
			},
			{
				"x": -1.9974247474,
				"y": 2.2241677245,
				"z": -0.6217375955,
				"element": "C" 
			},
			{
				"x": -2.2067623285,
				"y": 1.5932879246,
				"z": 0.6071718285,
				"element": "C" 
			},
			{
				"x": -1.2745130621,
				"y": 0.6804498644,
				"z": 1.1003740599,
				"element": "C" 
			},
			{
				"x": -0.110395943,
				"y": 0.3795259671,
				"z": 0.3810752541,
				"element": "C" 
			},
			{
				"x": -0.4767962603,
				"y": -1.9898751671,
				"z": 2.3290406913,
				"element": "H" 
			},
			{
				"x": 0.6266699688,
				"y": -1.6298607941,
				"z": 0.5220911291,
				"element": "H" 
			},
			{
				"x": 3.0276228017,
				"y": -1.0868994738,
				"z": 0.7038286503,
				"element": "H" 
			},
			{
				"x": 2.6555572969,
				"y": 0.625806022,
				"z": 0.7970718651,
				"element": "H" 
			},
			{
				"x": 3.2970255255,
				"y": 0.0142217529,
				"z": -1.5736482771,
				"element": "H" 
			},
			{
				"x": 2.0521295557,
				"y": -1.2275560995,
				"z": -1.5898028343,
				"element": "H" 
			},
			{
				"x": -0.6466851977,
				"y": 2.4032797185,
				"z": -2.3047878577,
				"element": "H" 
			},
			{
				"x": -2.7240320465,
				"y": 2.9343368608,
				"z": -1.0045730354,
				"element": "H" 
			},
			{
				"x": -3.0962109103,
				"y": 1.8148673144,
				"z": 1.190009744,
				"element": "H" 
			},
			{
				"x": -1.4545070519,
				"y": 0.2153987893,
				"z": 2.0644545078,
				"element": "H" 
			}
		],
		 "valence_orbital": [ 
			{
				"type": "occ",
				"energy": -0.3262,
				"method": "rhf"
			},
			{
				"type": "occ",
				"energy": -0.28569,
				"method": "rhf"
			},
			{
				"type": "occ",
				"energy": -0.2673,
				"method": "rhf"
			},
			{
				"type": "occ",
				"energy": -0.2631,
				"method": "rhf"
			},
			{
				"type": "occ",
				"energy": -0.25054,
				"method": "rhf"
			},
			{
				"type": "unocc",
				"energy": -0.06494,
				"method": "rhf"
			},
			{
				"type": "unocc",
				"energy": -0.02301,
				"method": "rhf"
			},
			{
				"type": "unocc",
				"energy": -0.00299,
				"method": "rhf"
			},
			{
				"type": "unocc",
				"energy": 0.03013,
				"method": "rhf"
			},
			{
				"type": "unocc",
				"energy": 0.04694,
				"method": "rhf"
			}
		],
		"cosmo_sigma_profile": { 
			"-0.025": 0.0,
			"-0.024": 0.0,
			"-0.023": 0.0,
			"-0.022": 0.0,
			"-0.021": 0.0,
			"-0.02": 0.0151221074336,
			"-0.019": 0.785285148364,
			"-0.018": 1.16020882485,
			"-0.017": 1.06663014508,
			"-0.016": 0.896816095021,
			"-0.015": 1.48370430766,
			"-0.014": 1.17155454576,
			"-0.013": 0.787363248611,
			"-0.012": 1.14697741674,
			"-0.011": 1.49172949961,
			"-0.01": 1.29038124707,
			"-0.009": 0.860993099994,
			"-0.008": 2.91874365444,
			"-0.007": 8.14407338591,
			"-0.006": 12.4109671702,
			"-0.005": 16.6199409603,
			"-0.004": 18.2143349711,
			"-0.003": 15.5740361507,
			"-0.002": 13.5877700176,
			"-0.001": 10.6356063745,
			"0.0": 10.4197022741,
			"0.001": 11.689360707,
			"0.002": 12.1510152689,
			"0.003": 14.4592996036,
			"0.004": 10.2663682663,
			"0.005": 3.80067033623,
			"0.006": 4.02659699898,
			"0.007": 3.6995265627,
			"0.008": 3.81016297027,
			"0.009": 5.79957998485,
			"0.01": 7.37431866226,
			"0.011": 8.22828557983,
			"0.012": 7.77083379537,
			"0.013": 2.22777147118,
			"0.014": 0.233118255452,
			"0.015": 0.0,
			"0.016": 0.0,
			"0.017": 0.0,
			"0.018": 0.0,
			"0.019": 0.0,
			"0.02": 0.0,
			"0.021": 0.0,
			"0.022": 0.0,
			"0.023": 0.0,
			"0.024": 0.0,
			"0.025": 0.0
		}
	}
}
