{
	 "smiles": "COC(F)(F)C(Cl)Cl", 
	 "Tm": 237.65, 
	 "num_atms": 12, 
	 "gaussian": { 
		 "optdone": 1, 
		 "sigma_profile": "yes", 
		 "theory": "DFT", 
		 "functional": "B3LYP", 
		 "basiset": "6-31G**", 
		 "properties": { 
			 "R2extent": 2243.9896, 
			 "electric_dipole_moment_norm": 2.68176274491, 
			 "electric_quadrupole_moment_norm": 6.81327183004, 
			 "total_energy": -1312.00586335, 
			 "HOMO_LUMO_gap": 0.2928, 
			 "cosmo_polarized_energy": -5.51, 
			 "cosmo_cavitation_energy": 20.13, 
			 "cosmo_dispersion_energy": -14.8, 
			 "cosmo_repulsion_energy": 1.22, 
			 "cosmo_total_nonelectrostatic_energy": 6.54, 
			 "SMD_solvation_energy": 4.36 
		},
		"coords": [
			{
				"x": 2.6466451313,
				"y": 0.0662364696,
				"z": 0.2272066922,
				"element": "C" 
			},
			{
				"x": 1.9054632354,
				"y": 0.4957253821,
				"z": -0.9303969595,
				"element": "O" 
			},
			{
				"x": 0.5942804809,
				"y": 0.7520429024,
				"z": -0.7208711214,
				"element": "C" 
			},
			{
				"x": 0.40194941,
				"y": 1.6713622038,
				"z": 0.2626715312,
				"element": "F" 
			},
			{
				"x": -0.0682809961,
				"y": -0.3758310086,
				"z": -0.3162109757,
				"element": "F" 
			},
			{
				"x": -0.0278200558,
				"y": 1.226218401,
				"z": -2.0517586964,
				"element": "C" 
			},
			{
				"x": -1.7979932896,
				"y": 1.4214464676,
				"z": -1.8892931754,
				"element": "Cl" 
			},
			{
				"x": 0.7491784753,
				"y": 2.7348114631,
				"z": -2.6173154618,
				"element": "Cl" 
			},
			{
				"x": 3.6598540313,
				"y": -0.1174052238,
				"z": -0.1278740535,
				"element": "H" 
			},
			{
				"x": 2.6523669755,
				"y": 0.8492467936,
				"z": 0.9891600259,
				"element": "H" 
			},
			{
				"x": 2.2200716258,
				"y": -0.853531231,
				"z": 0.6358991707,
				"element": "H" 
			},
			{
				"x": 0.1517849759,
				"y": 0.4629773801,
				"z": -2.8060169763,
				"element": "H" 
			}
		],
		 "valence_orbital": [ 
			{
				"type": "occ",
				"energy": -0.33959,
				"method": "rhf"
			},
			{
				"type": "occ",
				"energy": -0.33065,
				"method": "rhf"
			},
			{
				"type": "occ",
				"energy": -0.32237,
				"method": "rhf"
			},
			{
				"type": "occ",
				"energy": -0.3143,
				"method": "rhf"
			},
			{
				"type": "occ",
				"energy": -0.30929,
				"method": "rhf"
			},
			{
				"type": "unocc",
				"energy": -0.01649,
				"method": "rhf"
			},
			{
				"type": "unocc",
				"energy": 0.0109,
				"method": "rhf"
			},
			{
				"type": "unocc",
				"energy": 0.08863,
				"method": "rhf"
			},
			{
				"type": "unocc",
				"energy": 0.10526,
				"method": "rhf"
			},
			{
				"type": "unocc",
				"energy": 0.11937,
				"method": "rhf"
			}
		],
		"cosmo_sigma_profile": { 
			"-0.025": 0.0,
			"-0.024": 0.0,
			"-0.023": 0.0,
			"-0.022": 0.0,
			"-0.021": 0.0,
			"-0.02": 0.0,
			"-0.019": 0.0,
			"-0.018": 0.0,
			"-0.017": 0.0,
			"-0.016": 0.0,
			"-0.015": 0.0,
			"-0.014": 0.0,
			"-0.013": 0.134784587905,
			"-0.012": 1.78518172061,
			"-0.011": 1.7382502354,
			"-0.01": 1.43777518388,
			"-0.009": 1.21598942295,
			"-0.008": 0.915968238177,
			"-0.007": 4.05537975541,
			"-0.006": 6.49103886243,
			"-0.005": 8.86349848245,
			"-0.004": 11.1087124585,
			"-0.003": 9.6056254907,
			"-0.002": 8.00084091285,
			"-0.001": 8.38644915959,
			"0.0": 8.79396100104,
			"0.001": 10.2371289948,
			"0.002": 16.8490326148,
			"0.003": 33.4665328342,
			"0.004": 24.1757948435,
			"0.005": 2.41561932837,
			"0.006": 1.77445881065,
			"0.007": 2.06398354977,
			"0.008": 0.797304107088,
			"0.009": 0.0,
			"0.01": 0.0,
			"0.011": 0.0,
			"0.012": 0.0,
			"0.013": 0.0,
			"0.014": 0.0,
			"0.015": 0.0,
			"0.016": 0.0,
			"0.017": 0.0,
			"0.018": 0.0,
			"0.019": 0.0,
			"0.02": 0.0,
			"0.021": 0.0,
			"0.022": 0.0,
			"0.023": 0.0,
			"0.024": 0.0,
			"0.025": 0.0
		}
	}
}
