{
	 "smiles": "OC(=O)C1=CN(C(=O)C=C1)C1=CC(Br)=CC=C1", 
	 "Tm": 553.15, 
	 "num_atms": 25, 
	 "gaussian": { 
		 "optdone": 1, 
		 "sigma_profile": "yes", 
		 "theory": "DFT", 
		 "functional": "B3LYP", 
		 "basiset": "6-31G**", 
		 "properties": { 
			 "R2extent": 7293.9868, 
			 "electric_dipole_moment_norm": 0.999737230476, 
			 "electric_quadrupole_moment_norm": 34.5564492115, 
			 "total_energy": -3313.93098756, 
			 "HOMO_LUMO_gap": 0.16615, 
			 "cosmo_polarized_energy": -21.04, 
			 "cosmo_cavitation_energy": 32.88, 
			 "cosmo_dispersion_energy": -24.09, 
			 "cosmo_repulsion_energy": 1.86, 
			 "cosmo_total_nonelectrostatic_energy": 10.65, 
			 "SMD_solvation_energy": 6.46 
		},
		"coords": [
			{
				"x": 2.0614994512,
				"y": 4.3823800886,
				"z": -1.6260071431,
				"element": "O" 
			},
			{
				"x": 1.6484749321,
				"y": 3.606764323,
				"z": -0.5886774247,
				"element": "C" 
			},
			{
				"x": 1.5983310612,
				"y": 4.0743835616,
				"z": 0.5271479773,
				"element": "O" 
			},
			{
				"x": 1.2773358076,
				"y": 2.1990735073,
				"z": -0.9005345378,
				"element": "C" 
			},
			{
				"x": 0.6410465463,
				"y": 1.4974555852,
				"z": 0.0940942302,
				"element": "C" 
			},
			{
				"x": 0.2387583183,
				"y": 0.2069015057,
				"z": -0.0541733939,
				"element": "N" 
			},
			{
				"x": 0.439276517,
				"y": -0.5279287671,
				"z": -1.2827094658,
				"element": "C" 
			},
			{
				"x": 0.0405118672,
				"y": -1.6772935352,
				"z": -1.3934303092,
				"element": "O" 
			},
			{
				"x": 1.1443667327,
				"y": 0.2230294534,
				"z": -2.3045592703,
				"element": "C" 
			},
			{
				"x": 1.54140827,
				"y": 1.5126485951,
				"z": -2.1266267177,
				"element": "C" 
			},
			{
				"x": -0.3672875241,
				"y": -0.462868718,
				"z": 1.0688409385,
				"element": "C" 
			},
			{
				"x": -1.5870284606,
				"y": -1.1270843157,
				"z": 0.9105957512,
				"element": "C" 
			},
			{
				"x": -2.1629118132,
				"y": -1.7308656634,
				"z": 2.0242095161,
				"element": "C" 
			},
			{
				"x": -3.8332509972,
				"y": -2.6334869021,
				"z": 1.8272125644,
				"element": "Br" 
			},
			{
				"x": -1.5548386645,
				"y": -1.686943345,
				"z": 3.2792006776,
				"element": "C" 
			},
			{
				"x": -0.3355521846,
				"y": -1.0247749353,
				"z": 3.4137042954,
				"element": "C" 
			},
			{
				"x": 0.2672877509,
				"y": -0.4169222946,
				"z": 2.312496093,
				"element": "C" 
			},
			{
				"x": 1.9166244494,
				"y": 3.938413611,
				"z": -2.4722255365,
				"element": "H" 
			},
			{
				"x": 0.4260987015,
				"y": 1.9741163628,
				"z": 1.0429062976,
				"element": "H" 
			},
			{
				"x": 1.3430443626,
				"y": -0.3194899131,
				"z": -3.2211586018,
				"element": "H" 
			},
			{
				"x": 2.0889330433,
				"y": 2.0033416058,
				"z": -2.9290746936,
				"element": "H" 
			},
			{
				"x": -2.065423855,
				"y": -1.1776197002,
				"z": -0.0571782106,
				"element": "H" 
			},
			{
				"x": -2.0249240547,
				"y": -2.1659635912,
				"z": 4.1300190491,
				"element": "H" 
			},
			{
				"x": 0.1534466614,
				"y": -0.9903215005,
				"z": 4.3820684192,
				"element": "H" 
			},
			{
				"x": 1.2282730813,
				"y": 0.076654982,
				"z": 2.4137594953,
				"element": "H" 
			}
		],
		 "valence_orbital": [ 
			{
				"type": "occ",
				"energy": -0.28483,
				"method": "rhf"
			},
			{
				"type": "occ",
				"energy": -0.28073,
				"method": "rhf"
			},
			{
				"type": "occ",
				"energy": -0.27079,
				"method": "rhf"
			},
			{
				"type": "occ",
				"energy": -0.25611,
				"method": "rhf"
			},
			{
				"type": "occ",
				"energy": -0.23841,
				"method": "rhf"
			},
			{
				"type": "unocc",
				"energy": -0.07226,
				"method": "rhf"
			},
			{
				"type": "unocc",
				"energy": -0.04623,
				"method": "rhf"
			},
			{
				"type": "unocc",
				"energy": -0.03007,
				"method": "rhf"
			},
			{
				"type": "unocc",
				"energy": -0.02582,
				"method": "rhf"
			},
			{
				"type": "unocc",
				"energy": -0.00266,
				"method": "rhf"
			}
		],
		"cosmo_sigma_profile": { 
			"-0.025": 0.0,
			"-0.024": 0.0,
			"-0.023": 0.0,
			"-0.022": 0.0,
			"-0.021": 0.0,
			"-0.02": 0.0810866782268,
			"-0.019": 1.00879510767,
			"-0.018": 0.796624426859,
			"-0.017": 1.23042178675,
			"-0.016": 1.16318281161,
			"-0.015": 0.964102965297,
			"-0.014": 0.765314583598,
			"-0.013": 0.984615781372,
			"-0.012": 1.76971987506,
			"-0.011": 1.48477205576,
			"-0.01": 1.03174263984,
			"-0.009": 2.28969183516,
			"-0.008": 8.43616310895,
			"-0.007": 13.6442035115,
			"-0.006": 13.5033624689,
			"-0.005": 13.6088306561,
			"-0.004": 15.5278846712,
			"-0.003": 16.3350002601,
			"-0.002": 14.3622141499,
			"-0.001": 17.090492515,
			"0.0": 18.2667683134,
			"0.001": 21.7322365538,
			"0.002": 22.8611426752,
			"0.003": 14.4650446123,
			"0.004": 14.6924656513,
			"0.005": 6.32980537658,
			"0.006": 3.48578609383,
			"0.007": 4.03801883837,
			"0.008": 3.95447878444,
			"0.009": 4.65269722623,
			"0.01": 6.35681876044,
			"0.011": 6.8575497835,
			"0.012": 7.50902294622,
			"0.013": 5.87169905338,
			"0.014": 1.10388698127,
			"0.015": 0.0,
			"0.016": 0.0,
			"0.017": 0.0,
			"0.018": 0.0,
			"0.019": 0.0,
			"0.02": 0.0,
			"0.021": 0.0,
			"0.022": 0.0,
			"0.023": 0.0,
			"0.024": 0.0,
			"0.025": 0.0
		}
	}
}
