{
	 "smiles": "CC1C(SC(=O)N1C(=O)NC1CCCCC1)C1=CC=C(Cl)C=C1", 
	 "Tm": 381.15, 
	 "num_atms": 44, 
	 "gaussian": { 
		 "optdone": 1, 
		 "sigma_profile": "yes", 
		 "theory": "DFT", 
		 "functional": "B3LYP", 
		 "basiset": "6-31G**", 
		 "properties": { 
			 "R2extent": 15238.0719, 
			 "electric_dipole_moment_norm": 1.3968196734, 
			 "electric_quadrupole_moment_norm": 16.4209018888, 
			 "total_energy": -1778.86014708, 
			 "HOMO_LUMO_gap": 0.2099, 
			 "cosmo_polarized_energy": -12.53, 
			 "cosmo_cavitation_energy": 48.33, 
			 "cosmo_dispersion_energy": -34.2, 
			 "cosmo_repulsion_energy": 2.58, 
			 "cosmo_total_nonelectrostatic_energy": 16.71, 
			 "SMD_solvation_energy": 6.89 
		},
		"coords": [
			{
				"x": -0.0010333052,
				"y": -0.8380224526,
				"z": -2.6489504873,
				"element": "C" 
			},
			{
				"x": -0.5355966432,
				"y": -1.3515498029,
				"z": -1.3099933252,
				"element": "C" 
			},
			{
				"x": -1.9367810791,
				"y": -1.9928096994,
				"z": -1.5188638206,
				"element": "C" 
			},
			{
				"x": -2.9035963221,
				"y": -1.6605091764,
				"z": 0.0174291299,
				"element": "S" 
			},
			{
				"x": -1.8226499902,
				"y": -0.3103502913,
				"z": 0.4899171807,
				"element": "C" 
			},
			{
				"x": -2.0906407061,
				"y": 0.4412951261,
				"z": 1.4121033184,
				"element": "O" 
			},
			{
				"x": -0.6804106556,
				"y": -0.2794889136,
				"z": -0.2979835841,
				"element": "N" 
			},
			{
				"x": 0.5323266369,
				"y": 0.3942946484,
				"z": 0.1119467614,
				"element": "C" 
			},
			{
				"x": 1.6062704547,
				"y": 0.0106952481,
				"z": -0.3362700768,
				"element": "O" 
			},
			{
				"x": 0.3613909868,
				"y": 1.4395642997,
				"z": 0.9510343461,
				"element": "N" 
			},
			{
				"x": 1.5109733412,
				"y": 2.1333557176,
				"z": 1.5389138917,
				"element": "C" 
			},
			{
				"x": 1.9418774431,
				"y": 1.4735234745,
				"z": 2.8727204194,
				"element": "C" 
			},
			{
				"x": 2.7446445834,
				"y": 2.4552592972,
				"z": 3.7358898522,
				"element": "C" 
			},
			{
				"x": 1.8698492668,
				"y": 3.6553338732,
				"z": 4.1773611337,
				"element": "C" 
			},
			{
				"x": 0.7482650383,
				"y": 3.9652854425,
				"z": 3.1573952591,
				"element": "C" 
			},
			{
				"x": 1.1980725363,
				"y": 3.641550602,
				"z": 1.7260758579,
				"element": "C" 
			},
			{
				"x": -1.8869081926,
				"y": -3.4596694654,
				"z": -1.8858655515,
				"element": "C" 
			},
			{
				"x": -2.3639966308,
				"y": -3.8819794584,
				"z": -3.1322497903,
				"element": "C" 
			},
			{
				"x": -2.3106269174,
				"y": -5.2240876625,
				"z": -3.5112078577,
				"element": "C" 
			},
			{
				"x": -1.7745350071,
				"y": -6.1555248908,
				"z": -2.6252819694,
				"element": "C" 
			},
			{
				"x": -1.7019062054,
				"y": -7.8481655786,
				"z": -3.0865276865,
				"element": "Cl" 
			},
			{
				"x": -1.2973817995,
				"y": -5.7640685553,
				"z": -1.3729861336,
				"element": "C" 
			},
			{
				"x": -1.3584243043,
				"y": -4.4209098628,
				"z": -1.0114220602,
				"element": "C" 
			},
			{
				"x": 1.0179915351,
				"y": -0.4705961719,
				"z": -2.5388490902,
				"element": "H" 
			},
			{
				"x": -0.0062457373,
				"y": -1.6565526176,
				"z": -3.3758529052,
				"element": "H" 
			},
			{
				"x": -0.6362612695,
				"y": -0.0315923893,
				"z": -3.0303547735,
				"element": "H" 
			},
			{
				"x": 0.1566223877,
				"y": -2.0995306829,
				"z": -0.9088569062,
				"element": "H" 
			},
			{
				"x": -2.4470429871,
				"y": -1.450759675,
				"z": -2.319824067,
				"element": "H" 
			},
			{
				"x": -0.5579205827,
				"y": 1.5376936537,
				"z": 1.3742917396,
				"element": "H" 
			},
			{
				"x": 2.3205144513,
				"y": 2.0212366928,
				"z": 0.8139624713,
				"element": "H" 
			},
			{
				"x": 1.0452234212,
				"y": 1.1554556081,
				"z": 3.4208308046,
				"element": "H" 
			},
			{
				"x": 2.5137282061,
				"y": 0.5653296382,
				"z": 2.6564449889,
				"element": "H" 
			},
			{
				"x": 3.1588778493,
				"y": 1.944565966,
				"z": 4.611767236,
				"element": "H" 
			},
			{
				"x": 3.6075283376,
				"y": 2.8116947621,
				"z": 3.1580607754,
				"element": "H" 
			},
			{
				"x": 1.4207708156,
				"y": 3.4500950606,
				"z": 5.1561217674,
				"element": "H" 
			},
			{
				"x": 2.5051718983,
				"y": 4.5388834427,
				"z": 4.3107638974,
				"element": "H" 
			},
			{
				"x": -0.1469413721,
				"y": 3.3769194841,
				"z": 3.3977347095,
				"element": "H" 
			},
			{
				"x": 0.4453502085,
				"y": 5.0152606617,
				"z": 3.2329415172,
				"element": "H" 
			},
			{
				"x": 2.1020328596,
				"y": 4.2196567541,
				"z": 1.4983903437,
				"element": "H" 
			},
			{
				"x": 0.4450404908,
				"y": 3.9479796236,
				"z": 0.992450896,
				"element": "H" 
			},
			{
				"x": -2.784845893,
				"y": -3.1548486668,
				"z": -3.8215689502,
				"element": "H" 
			},
			{
				"x": -2.6818305997,
				"y": -5.5421717885,
				"z": -4.4789770246,
				"element": "H" 
			},
			{
				"x": -0.8886167252,
				"y": -6.5024649406,
				"z": -0.6923037072,
				"element": "H" 
			},
			{
				"x": -1.0021298235,
				"y": -4.1209763346,
				"z": -0.0303585303,
				"element": "H" 
			}
		],
		 "valence_orbital": [ 
			{
				"type": "occ",
				"energy": -0.27469,
				"method": "rhf"
			},
			{
				"type": "occ",
				"energy": -0.27143,
				"method": "rhf"
			},
			{
				"type": "occ",
				"energy": -0.2624,
				"method": "rhf"
			},
			{
				"type": "occ",
				"energy": -0.25198,
				"method": "rhf"
			},
			{
				"type": "occ",
				"energy": -0.24586,
				"method": "rhf"
			},
			{
				"type": "unocc",
				"energy": -0.03596,
				"method": "rhf"
			},
			{
				"type": "unocc",
				"energy": -0.02716,
				"method": "rhf"
			},
			{
				"type": "unocc",
				"energy": -0.01067,
				"method": "rhf"
			},
			{
				"type": "unocc",
				"energy": 0.00211,
				"method": "rhf"
			},
			{
				"type": "unocc",
				"energy": 0.0218,
				"method": "rhf"
			}
		],
		"cosmo_sigma_profile": { 
			"-0.025": 0.0,
			"-0.024": 0.0,
			"-0.023": 0.0,
			"-0.022": 0.0,
			"-0.021": 0.0,
			"-0.02": 0.0,
			"-0.019": 0.0,
			"-0.018": 0.0,
			"-0.017": 0.0,
			"-0.016": 0.0,
			"-0.015": 0.0,
			"-0.014": 0.0,
			"-0.013": 0.0,
			"-0.012": 0.0,
			"-0.011": 0.0,
			"-0.01": 0.0,
			"-0.009": 0.121093866493,
			"-0.008": 3.3906111507,
			"-0.007": 12.7240434403,
			"-0.006": 13.4802140547,
			"-0.005": 14.3858832994,
			"-0.004": 16.9353601847,
			"-0.003": 32.0971794711,
			"-0.002": 42.4279027483,
			"-0.001": 49.0590872531,
			"0.0": 48.9185959532,
			"0.001": 40.372965262,
			"0.002": 28.0742194341,
			"0.003": 25.3471827864,
			"0.004": 17.5605649328,
			"0.005": 11.8864163277,
			"0.006": 4.27941329085,
			"0.007": 3.20883439377,
			"0.008": 2.93010280025,
			"0.009": 3.35074929223,
			"0.01": 3.352452121,
			"0.011": 3.84863588791,
			"0.012": 3.16841284992,
			"0.013": 3.20701351176,
			"0.014": 0.430266780174,
			"0.015": 0.0,
			"0.016": 0.0,
			"0.017": 0.0,
			"0.018": 0.0,
			"0.019": 0.0,
			"0.02": 0.0,
			"0.021": 0.0,
			"0.022": 0.0,
			"0.023": 0.0,
			"0.024": 0.0,
			"0.025": 0.0
		}
	}
}
