{
	 "smiles": "NC(=O)C1=CC=C(C=C1)N=C=S", 
	 "Tm": 463.15, 
	 "num_atms": 18, 
	 "gaussian": { 
		 "optdone": 1, 
		 "sigma_profile": "yes", 
		 "theory": "DFT", 
		 "functional": "B3LYP", 
		 "basiset": "6-31G**", 
		 "properties": { 
			 "R2extent": 4191.2319, 
			 "electric_dipole_moment_norm": 3.90544208253, 
			 "electric_quadrupole_moment_norm": 17.6520918047, 
			 "total_energy": -891.394822638, 
			 "HOMO_LUMO_gap": 0.16877, 
			 "cosmo_polarized_energy": -14.46, 
			 "cosmo_cavitation_energy": 26.25, 
			 "cosmo_dispersion_energy": -19.6, 
			 "cosmo_repulsion_energy": 1.54, 
			 "cosmo_total_nonelectrostatic_energy": 8.19, 
			 "SMD_solvation_energy": 5.9 
		},
		"coords": [
			{
				"x": -3.271898783,
				"y": 0.1842772597,
				"z": 0.0825156935,
				"element": "N" 
			},
			{
				"x": -2.5292137329,
				"y": -0.971926326,
				"z": 0.1165759854,
				"element": "C" 
			},
			{
				"x": -3.0535523689,
				"y": -2.0769478431,
				"z": 0.1761930318,
				"element": "O" 
			},
			{
				"x": -1.0369558356,
				"y": -0.8093842198,
				"z": 0.0479882646,
				"element": "C" 
			},
			{
				"x": -0.2527719535,
				"y": -1.908343053,
				"z": 0.4260960443,
				"element": "C" 
			},
			{
				"x": 1.133154302,
				"y": -1.8407962764,
				"z": 0.3926731401,
				"element": "C" 
			},
			{
				"x": 1.7594454042,
				"y": -0.6581512522,
				"z": -0.0399181439,
				"element": "C" 
			},
			{
				"x": 0.985137961,
				"y": 0.4433249817,
				"z": -0.4416222547,
				"element": "C" 
			},
			{
				"x": -0.4022088719,
				"y": 0.3600537054,
				"z": -0.3951180295,
				"element": "C" 
			},
			{
				"x": 3.127099388,
				"y": -0.581012867,
				"z": -0.077649624,
				"element": "N" 
			},
			{
				"x": 4.3122540404,
				"y": -0.5129285296,
				"z": -0.1079950635,
				"element": "C" 
			},
			{
				"x": 5.901250884,
				"y": -0.420497821,
				"z": -0.14867196,
				"element": "S" 
			},
			{
				"x": -4.2615874641,
				"y": 0.0635598627,
				"z": 0.2445290155,
				"element": "H" 
			},
			{
				"x": -2.8686214653,
				"y": 1.0612344304,
				"z": 0.3730611531,
				"element": "H" 
			},
			{
				"x": -0.7591845061,
				"y": -2.8133939626,
				"z": 0.7432579492,
				"element": "H" 
			},
			{
				"x": 1.7429508566,
				"y": -2.6862835023,
				"z": 0.6920123657,
				"element": "H" 
			},
			{
				"x": 1.4800248337,
				"y": 1.3425403698,
				"z": -0.7917940985,
				"element": "H" 
			},
			{
				"x": -0.9874226885,
				"y": 1.2063750434,
				"z": -0.7415334689,
				"element": "H" 
			}
		],
		 "valence_orbital": [ 
			{
				"type": "occ",
				"energy": -0.28428,
				"method": "rhf"
			},
			{
				"type": "occ",
				"energy": -0.27904,
				"method": "rhf"
			},
			{
				"type": "occ",
				"energy": -0.26174,
				"method": "rhf"
			},
			{
				"type": "occ",
				"energy": -0.25732,
				"method": "rhf"
			},
			{
				"type": "occ",
				"energy": -0.23807,
				"method": "rhf"
			},
			{
				"type": "unocc",
				"energy": -0.0693,
				"method": "rhf"
			},
			{
				"type": "unocc",
				"energy": -0.02902,
				"method": "rhf"
			},
			{
				"type": "unocc",
				"energy": -0.00134,
				"method": "rhf"
			},
			{
				"type": "unocc",
				"energy": 0.00821,
				"method": "rhf"
			},
			{
				"type": "unocc",
				"energy": 0.05922,
				"method": "rhf"
			}
		],
		"cosmo_sigma_profile": { 
			"-0.025": 0.0,
			"-0.024": 0.0,
			"-0.023": 0.0,
			"-0.022": 0.0,
			"-0.021": 0.0,
			"-0.02": 0.0,
			"-0.019": 0.0,
			"-0.018": 0.0,
			"-0.017": 0.0,
			"-0.016": 0.0,
			"-0.015": 0.296509004749,
			"-0.014": 1.69715793431,
			"-0.013": 2.53813174343,
			"-0.012": 2.88723104677,
			"-0.011": 1.75057689752,
			"-0.01": 2.9338912669,
			"-0.009": 3.22463750462,
			"-0.008": 5.17504671664,
			"-0.007": 7.61097968263,
			"-0.006": 9.32582301487,
			"-0.005": 7.64942983034,
			"-0.004": 8.54857610806,
			"-0.003": 8.64734300656,
			"-0.002": 15.2279741405,
			"-0.001": 20.0981644665,
			"0.0": 16.8648091974,
			"0.001": 16.9466581709,
			"0.002": 20.4197711749,
			"0.003": 10.6797618421,
			"0.004": 7.70917454885,
			"0.005": 13.6203110968,
			"0.006": 12.7558633424,
			"0.007": 1.95978758929,
			"0.008": 1.84261363789,
			"0.009": 0.951413880545,
			"0.01": 1.88604082023,
			"0.011": 1.61544274226,
			"0.012": 2.15587456127,
			"0.013": 5.153659524,
			"0.014": 2.67424900094,
			"0.015": 0.0670009628634,
			"0.016": 0.0,
			"0.017": 0.0,
			"0.018": 0.0,
			"0.019": 0.0,
			"0.02": 0.0,
			"0.021": 0.0,
			"0.022": 0.0,
			"0.023": 0.0,
			"0.024": 0.0,
			"0.025": 0.0
		}
	}
}
