{
	 "smiles": "CN1C2=C(C=CC=C2)C(C(=O)CCl)=C1C1=CC=CC=C1", 
	 "Tm": 420.15, 
	 "num_atms": 34, 
	 "gaussian": { 
		 "optdone": 1, 
		 "sigma_profile": "yes", 
		 "theory": "DFT", 
		 "functional": "B3LYP", 
		 "basiset": "6-31G**", 
		 "properties": { 
			 "R2extent": 6850.3922, 
			 "electric_dipole_moment_norm": 5.06111943151, 
			 "electric_quadrupole_moment_norm": 9.04695869726, 
			 "total_energy": -1246.42327366, 
			 "HOMO_LUMO_gap": 0.15642, 
			 "cosmo_polarized_energy": -13.9, 
			 "cosmo_cavitation_energy": 38.59, 
			 "cosmo_dispersion_energy": -27.2, 
			 "cosmo_repulsion_energy": 2.07, 
			 "cosmo_total_nonelectrostatic_energy": 13.46, 
			 "SMD_solvation_energy": 6.19 
		},
		"coords": [
			{
				"x": -0.8915794767,
				"y": -1.3125972034,
				"z": 1.6053287936,
				"element": "C" 
			},
			{
				"x": -0.1255949281,
				"y": -1.1036311903,
				"z": 0.3863443358,
				"element": "N" 
			},
			{
				"x": 0.723434933,
				"y": -2.0663222038,
				"z": -0.1424116158,
				"element": "C" 
			},
			{
				"x": 1.4007236196,
				"y": -1.5013755365,
				"z": -1.2523465327,
				"element": "C" 
			},
			{
				"x": 2.3432235518,
				"y": -2.3035667077,
				"z": -1.9233891601,
				"element": "C" 
			},
			{
				"x": 2.5550681269,
				"y": -3.6099776424,
				"z": -1.4957829469,
				"element": "C" 
			},
			{
				"x": 1.8570484841,
				"y": -4.146734329,
				"z": -0.3993602967,
				"element": "C" 
			},
			{
				"x": 0.9334790092,
				"y": -3.376391021,
				"z": 0.2978367489,
				"element": "C" 
			},
			{
				"x": 0.9166853216,
				"y": -0.136847161,
				"z": -1.3785194871,
				"element": "C" 
			},
			{
				"x": 1.1864992339,
				"y": 0.8574721842,
				"z": -2.4201046783,
				"element": "C" 
			},
			{
				"x": 0.805161406,
				"y": 2.0215876343,
				"z": -2.3666780098,
				"element": "O" 
			},
			{
				"x": 1.9388701847,
				"y": 0.4261159249,
				"z": -3.6858472242,
				"element": "C" 
			},
			{
				"x": 3.7372208767,
				"y": 0.6002827715,
				"z": -3.463458837,
				"element": "Cl" 
			},
			{
				"x": -0.0125121867,
				"y": 0.0595911164,
				"z": -0.3447181285,
				"element": "C" 
			},
			{
				"x": -0.8467348798,
				"y": 1.236458815,
				"z": -0.0149248035,
				"element": "C" 
			},
			{
				"x": -2.2476733681,
				"y": 1.1335729001,
				"z": -0.0247135524,
				"element": "C" 
			},
			{
				"x": -3.0428649397,
				"y": 2.2298854725,
				"z": 0.3108298105,
				"element": "C" 
			},
			{
				"x": -2.4473055188,
				"y": 3.4399359047,
				"z": 0.6682087802,
				"element": "C" 
			},
			{
				"x": -1.0545736636,
				"y": 3.5514544928,
				"z": 0.6796517918,
				"element": "C" 
			},
			{
				"x": -0.2588922614,
				"y": 2.4615208224,
				"z": 0.3354390278,
				"element": "C" 
			},
			{
				"x": -1.321749578,
				"y": -0.3682796679,
				"z": 1.9325866624,
				"element": "H" 
			},
			{
				"x": -1.7002332458,
				"y": -2.0329615415,
				"z": 1.441128352,
				"element": "H" 
			},
			{
				"x": -0.2340581003,
				"y": -1.6970422925,
				"z": 2.391192887,
				"element": "H" 
			},
			{
				"x": 2.9320909878,
				"y": -1.9136159574,
				"z": -2.7443130895,
				"element": "H" 
			},
			{
				"x": 3.2839626312,
				"y": -4.2251146267,
				"z": -2.015051755,
				"element": "H" 
			},
			{
				"x": 2.0458246223,
				"y": -5.1699443971,
				"z": -0.0890051211,
				"element": "H" 
			},
			{
				"x": 0.3957797632,
				"y": -3.7813716137,
				"z": 1.149132874,
				"element": "H" 
			},
			{
				"x": 1.7505744196,
				"y": -0.6077760845,
				"z": -3.9751114646,
				"element": "H" 
			},
			{
				"x": 1.6612808694,
				"y": 1.1102545724,
				"z": -4.4859160823,
				"element": "H" 
			},
			{
				"x": -2.7140064573,
				"y": 0.1964660705,
				"z": -0.316018886,
				"element": "H" 
			},
			{
				"x": -4.1248674622,
				"y": 2.1380424881,
				"z": 0.2880345692,
				"element": "H" 
			},
			{
				"x": -3.0644974753,
				"y": 4.2942249565,
				"z": 0.9310432723,
				"element": "H" 
			},
			{
				"x": -0.5862410298,
				"y": 4.4931245907,
				"z": 0.9501915702,
				"element": "H" 
			},
			{
				"x": 0.8208565304,
				"y": 2.5542584595,
				"z": 0.3259221957,
				"element": "H" 
			}
		],
		 "valence_orbital": [ 
			{
				"type": "occ",
				"energy": -0.26458,
				"method": "rhf"
			},
			{
				"type": "occ",
				"energy": -0.25746,
				"method": "rhf"
			},
			{
				"type": "occ",
				"energy": -0.23679,
				"method": "rhf"
			},
			{
				"type": "occ",
				"energy": -0.22728,
				"method": "rhf"
			},
			{
				"type": "occ",
				"energy": -0.21192,
				"method": "rhf"
			},
			{
				"type": "unocc",
				"energy": -0.0555,
				"method": "rhf"
			},
			{
				"type": "unocc",
				"energy": -0.01798,
				"method": "rhf"
			},
			{
				"type": "unocc",
				"energy": -0.00611,
				"method": "rhf"
			},
			{
				"type": "unocc",
				"energy": -0.00271,
				"method": "rhf"
			},
			{
				"type": "unocc",
				"energy": 0.01677,
				"method": "rhf"
			}
		],
		"cosmo_sigma_profile": { 
			"-0.025": 0.0,
			"-0.024": 0.0,
			"-0.023": 0.0,
			"-0.022": 0.0,
			"-0.021": 0.0,
			"-0.02": 0.0,
			"-0.019": 0.0,
			"-0.018": 0.0,
			"-0.017": 0.0,
			"-0.016": 0.0,
			"-0.015": 0.0,
			"-0.014": 0.0,
			"-0.013": 0.0,
			"-0.012": 0.0,
			"-0.011": 0.0,
			"-0.01": 0.0,
			"-0.009": 0.0,
			"-0.008": 1.40609539676,
			"-0.007": 6.44511765321,
			"-0.006": 22.9050666259,
			"-0.005": 29.0591975624,
			"-0.004": 31.8146752536,
			"-0.003": 26.5052650233,
			"-0.002": 18.1370710066,
			"-0.001": 18.3014570054,
			"0.0": 16.1767847793,
			"0.001": 18.6389969393,
			"0.002": 20.6524605956,
			"0.003": 21.6024100496,
			"0.004": 25.2378895069,
			"0.005": 23.6532877099,
			"0.006": 14.1378318921,
			"0.007": 2.39295986182,
			"0.008": 1.74645128786,
			"0.009": 1.59188631984,
			"0.01": 2.06435723529,
			"0.011": 2.26788222606,
			"0.012": 3.27964777459,
			"0.013": 2.72745566969,
			"0.014": 0.403165628954,
			"0.015": 0.0,
			"0.016": 0.0,
			"0.017": 0.0,
			"0.018": 0.0,
			"0.019": 0.0,
			"0.02": 0.0,
			"0.021": 0.0,
			"0.022": 0.0,
			"0.023": 0.0,
			"0.024": 0.0,
			"0.025": 0.0
		}
	}
}
