{
	 "smiles": "CC(O)C(NC(=O)C1CC1)C(O)=O", 
	 "Tm": 412.15, 
	 "num_atms": 26, 
	 "gaussian": { 
		 "optdone": 1, 
		 "sigma_profile": "yes", 
		 "theory": "DFT", 
		 "functional": "B3LYP", 
		 "basiset": "6-31G**", 
		 "properties": { 
			 "R2extent": 3024.5639, 
			 "electric_dipole_moment_norm": 3.06437424118, 
			 "electric_quadrupole_moment_norm": 19.6086496922, 
			 "total_energy": -668.334222627, 
			 "HOMO_LUMO_gap": 0.25307, 
			 "cosmo_polarized_energy": -17.87, 
			 "cosmo_cavitation_energy": 28.85, 
			 "cosmo_dispersion_energy": -20.33, 
			 "cosmo_repulsion_energy": 1.63, 
			 "cosmo_total_nonelectrostatic_energy": 10.14, 
			 "SMD_solvation_energy": 6.2 
		},
		"coords": [
			{
				"x": -2.7782042318,
				"y": -0.6236775949,
				"z": 0.3355929722,
				"element": "C" 
			},
			{
				"x": -1.6814617324,
				"y": -0.3512425281,
				"z": -0.6869016846,
				"element": "C" 
			},
			{
				"x": -1.503849288,
				"y": -1.466492388,
				"z": -1.5916808916,
				"element": "O" 
			},
			{
				"x": -0.2797425546,
				"y": -0.1208932978,
				"z": -0.0724452209,
				"element": "C" 
			},
			{
				"x": -0.2220274283,
				"y": 1.0837489189,
				"z": 0.7263020977,
				"element": "N" 
			},
			{
				"x": -0.0878211577,
				"y": 2.3118734306,
				"z": 0.1216118994,
				"element": "C" 
			},
			{
				"x": -0.2443137113,
				"y": 2.4504051777,
				"z": -1.0890105092,
				"element": "O" 
			},
			{
				"x": 0.231163968,
				"y": 3.478258675,
				"z": 1.0059016439,
				"element": "C" 
			},
			{
				"x": -0.2687217225,
				"y": 3.5706573881,
				"z": 2.4374320285,
				"element": "C" 
			},
			{
				"x": 1.1910524753,
				"y": 3.3605331934,
				"z": 2.1795803544,
				"element": "C" 
			},
			{
				"x": 0.1963467404,
				"y": -1.290279602,
				"z": 0.8090185625,
				"element": "C" 
			},
			{
				"x": 0.0417480184,
				"y": -2.5097750197,
				"z": 0.2857996375,
				"element": "O" 
			},
			{
				"x": 0.6931261959,
				"y": -1.1134772649,
				"z": 1.9013457556,
				"element": "O" 
			},
			{
				"x": -2.8454177626,
				"y": 0.2061491727,
				"z": 1.0442323537,
				"element": "H" 
			},
			{
				"x": -2.5826978308,
				"y": -1.5456351597,
				"z": 0.8928987457,
				"element": "H" 
			},
			{
				"x": -3.7524954409,
				"y": -0.7188901757,
				"z": -0.1572821246,
				"element": "H" 
			},
			{
				"x": -1.9102738988,
				"y": 0.5478533844,
				"z": -1.2680167892,
				"element": "H" 
			},
			{
				"x": -2.3686816363,
				"y": -1.7461000604,
				"z": -1.9179565117,
				"element": "H" 
			},
			{
				"x": 0.4079815275,
				"y": -0.0386141105,
				"z": -0.9269907166,
				"element": "H" 
			},
			{
				"x": 0.1375299613,
				"y": 0.9219332103,
				"z": 1.6609065407,
				"element": "H" 
			},
			{
				"x": 0.265995735,
				"y": 4.3972592216,
				"z": 0.4313191197,
				"element": "H" 
			},
			{
				"x": -0.6016112858,
				"y": 4.5445063482,
				"z": 2.7823049828,
				"element": "H" 
			},
			{
				"x": -0.8539771992,
				"y": 2.7401832555,
				"z": 2.8205837279,
				"element": "H" 
			},
			{
				"x": 1.6259365416,
				"y": 2.3873787907,
				"z": 2.3894763877,
				"element": "H" 
			},
			{
				"x": 1.8728094473,
				"y": 4.1893775855,
				"z": 2.3413783869,
				"element": "H" 
			},
			{
				"x": -0.4652937299,
				"y": -2.4287405508,
				"z": -0.5559007486,
				"element": "H" 
			}
		],
		 "valence_orbital": [ 
			{
				"type": "occ",
				"energy": -0.308,
				"method": "rhf"
			},
			{
				"type": "occ",
				"energy": -0.2977,
				"method": "rhf"
			},
			{
				"type": "occ",
				"energy": -0.27898,
				"method": "rhf"
			},
			{
				"type": "occ",
				"energy": -0.2611,
				"method": "rhf"
			},
			{
				"type": "occ",
				"energy": -0.24906,
				"method": "rhf"
			},
			{
				"type": "unocc",
				"energy": 0.00401,
				"method": "rhf"
			},
			{
				"type": "unocc",
				"energy": 0.01757,
				"method": "rhf"
			},
			{
				"type": "unocc",
				"energy": 0.04599,
				"method": "rhf"
			},
			{
				"type": "unocc",
				"energy": 0.0768,
				"method": "rhf"
			},
			{
				"type": "unocc",
				"energy": 0.09012,
				"method": "rhf"
			}
		],
		"cosmo_sigma_profile": { 
			"-0.025": 0.0,
			"-0.024": 0.0,
			"-0.023": 0.0,
			"-0.022": 0.0,
			"-0.021": 0.0,
			"-0.02": 0.0,
			"-0.019": 0.0,
			"-0.018": 0.0732141673979,
			"-0.017": 1.01229369044,
			"-0.016": 0.898750927467,
			"-0.015": 1.06960674594,
			"-0.014": 1.2190225183,
			"-0.013": 1.01243234656,
			"-0.012": 0.376525624007,
			"-0.011": 0.71043114311,
			"-0.01": 2.22005852971,
			"-0.009": 2.32396424286,
			"-0.008": 4.30846550339,
			"-0.007": 6.33506889052,
			"-0.006": 10.4169236117,
			"-0.005": 17.2714461679,
			"-0.004": 19.6735678466,
			"-0.003": 19.3983888385,
			"-0.002": 19.2061670532,
			"-0.001": 16.8462287224,
			"0.0": 15.6060935459,
			"0.001": 12.1837861813,
			"0.002": 11.1634036369,
			"0.003": 8.40133646047,
			"0.004": 4.96463217591,
			"0.005": 4.82905081184,
			"0.006": 4.14436110897,
			"0.007": 4.07118745576,
			"0.008": 5.00643150254,
			"0.009": 5.74336447626,
			"0.01": 6.79128236376,
			"0.011": 5.96869919618,
			"0.012": 4.79583764705,
			"0.013": 4.24095601473,
			"0.014": 3.24578955573,
			"0.015": 0.744046689824,
			"0.016": 0.0,
			"0.017": 0.0,
			"0.018": 0.0,
			"0.019": 0.0,
			"0.02": 0.0,
			"0.021": 0.0,
			"0.022": 0.0,
			"0.023": 0.0,
			"0.024": 0.0,
			"0.025": 0.0
		}
	}
}
