{
	 "smiles": "FC1=CC=CC(F)=C1C=O", 
	 "Tm": 289.15, 
	 "num_atms": 14, 
	 "gaussian": { 
		 "optdone": 1, 
		 "sigma_profile": "yes", 
		 "theory": "DFT", 
		 "functional": "B3LYP", 
		 "basiset": "6-31G**", 
		 "properties": { 
			 "R2extent": 2412.3948, 
			 "electric_dipole_moment_norm": 4.25167218986, 
			 "electric_quadrupole_moment_norm": 10.8010210679, 
			 "total_energy": -544.029726269, 
			 "HOMO_LUMO_gap": 0.18296, 
			 "cosmo_polarized_energy": -8.1, 
			 "cosmo_cavitation_energy": 19.77, 
			 "cosmo_dispersion_energy": -14.36, 
			 "cosmo_repulsion_energy": 1.11, 
			 "cosmo_total_nonelectrostatic_energy": 6.52, 
			 "SMD_solvation_energy": 5.47 
		},
		"coords": [
			{
				"x": 3.1819561304,
				"y": 1.8778780902,
				"z": 0.1843482511,
				"element": "F" 
			},
			{
				"x": 2.2852053271,
				"y": 0.9204923851,
				"z": -0.1255272255,
				"element": "C" 
			},
			{
				"x": 1.2946319703,
				"y": 1.2222618623,
				"z": -1.0483330201,
				"element": "C" 
			},
			{
				"x": 0.3668475797,
				"y": 0.2298847445,
				"z": -1.368193283,
				"element": "C" 
			},
			{
				"x": 0.4329653306,
				"y": -1.0320779031,
				"z": -0.7762502782,
				"element": "C" 
			},
			{
				"x": 1.4415937259,
				"y": -1.292684097,
				"z": 0.1435185653,
				"element": "C" 
			},
			{
				"x": 1.4884262374,
				"y": -2.5062853999,
				"z": 0.6993854337,
				"element": "F" 
			},
			{
				"x": 2.4033663168,
				"y": -0.3302240715,
				"z": 0.5033165699,
				"element": "C" 
			},
			{
				"x": 3.4920165519,
				"y": -0.5763928605,
				"z": 1.4808532782,
				"element": "C" 
			},
			{
				"x": 3.6759008579,
				"y": -1.6207296273,
				"z": 2.0741065663,
				"element": "O" 
			},
			{
				"x": 1.2623959346,
				"y": 2.2088451392,
				"z": -1.495434947,
				"element": "H" 
			},
			{
				"x": -0.4174738469,
				"y": 0.4426721994,
				"z": -2.0877347037,
				"element": "H" 
			},
			{
				"x": -0.2789908134,
				"y": -1.8142692536,
				"z": -1.0128789437,
				"element": "H" 
			},
			{
				"x": 4.1549586979,
				"y": 0.2957287922,
				"z": 1.6391237368,
				"element": "H" 
			}
		],
		 "valence_orbital": [ 
			{
				"type": "occ",
				"energy": -0.38268,
				"method": "rhf"
			},
			{
				"type": "occ",
				"energy": -0.36698,
				"method": "rhf"
			},
			{
				"type": "occ",
				"energy": -0.27757,
				"method": "rhf"
			},
			{
				"type": "occ",
				"energy": -0.26475,
				"method": "rhf"
			},
			{
				"type": "occ",
				"energy": -0.25551,
				"method": "rhf"
			},
			{
				"type": "unocc",
				"energy": -0.07255,
				"method": "rhf"
			},
			{
				"type": "unocc",
				"energy": -0.01799,
				"method": "rhf"
			},
			{
				"type": "unocc",
				"energy": 0.02476,
				"method": "rhf"
			},
			{
				"type": "unocc",
				"energy": 0.06429,
				"method": "rhf"
			},
			{
				"type": "unocc",
				"energy": 0.12198,
				"method": "rhf"
			}
		],
		"cosmo_sigma_profile": { 
			"-0.025": 0.0,
			"-0.024": 0.0,
			"-0.023": 0.0,
			"-0.022": 0.0,
			"-0.021": 0.0,
			"-0.02": 0.0,
			"-0.019": 0.0,
			"-0.018": 0.0,
			"-0.017": 0.0,
			"-0.016": 0.0,
			"-0.015": 0.0,
			"-0.014": 0.0,
			"-0.013": 0.0,
			"-0.012": 0.0,
			"-0.011": 0.0,
			"-0.01": 0.0,
			"-0.009": 0.331261092255,
			"-0.008": 5.4228864562,
			"-0.007": 6.98903575284,
			"-0.006": 8.82171742035,
			"-0.005": 9.65528899254,
			"-0.004": 8.96303233799,
			"-0.003": 8.74991348868,
			"-0.002": 12.298605041,
			"-0.001": 18.0701262394,
			"0.0": 14.2906323243,
			"0.001": 12.5385655249,
			"0.002": 12.1215435587,
			"0.003": 13.2835907533,
			"0.004": 6.23548644152,
			"0.005": 2.5053555224,
			"0.006": 2.03376261773,
			"0.007": 1.95494881608,
			"0.008": 2.115999505,
			"0.009": 2.48318128848,
			"0.01": 3.47523286274,
			"0.011": 4.8305127285,
			"0.012": 2.50994592131,
			"0.013": 0.350319631764,
			"0.014": 0.0,
			"0.015": 0.0,
			"0.016": 0.0,
			"0.017": 0.0,
			"0.018": 0.0,
			"0.019": 0.0,
			"0.02": 0.0,
			"0.021": 0.0,
			"0.022": 0.0,
			"0.023": 0.0,
			"0.024": 0.0,
			"0.025": 0.0
		}
	}
}
