{
	 "smiles": "SC1=NC(S)=NC(S)=N1", 
	 "Tm": 573.15, 
	 "num_atms": 12, 
	 "gaussian": { 
		 "optdone": 1, 
		 "sigma_profile": "yes", 
		 "theory": "DFT", 
		 "functional": "B3LYP", 
		 "basiset": "6-31G**", 
		 "properties": { 
			 "R2extent": 3896.8402, 
			 "electric_dipole_moment_norm": 1.84811040796, 
			 "electric_quadrupole_moment_norm": 8.48715325418, 
			 "total_energy": -1474.93875849, 
			 "HOMO_LUMO_gap": 0.21206, 
			 "cosmo_polarized_energy": -8.56, 
			 "cosmo_cavitation_energy": 22.46, 
			 "cosmo_dispersion_energy": -18.5, 
			 "cosmo_repulsion_energy": 1.4, 
			 "cosmo_total_nonelectrostatic_energy": 5.36, 
			 "SMD_solvation_energy": -1.79 
		},
		"coords": [
			{
				"x": 0.56844492,
				"y": -2.9492411398,
				"z": -4.369853544,
				"element": "S" 
			},
			{
				"x": 0.651414785,
				"y": -1.8740741815,
				"z": -2.9716876651,
				"element": "C" 
			},
			{
				"x": 0.0404065771,
				"y": -0.6948410717,
				"z": -3.1260458557,
				"element": "N" 
			},
			{
				"x": 0.1182863498,
				"y": 0.1002232305,
				"z": -2.0552351816,
				"element": "C" 
			},
			{
				"x": -0.6812940437,
				"y": 1.6661077931,
				"z": -2.2284267445,
				"element": "S" 
			},
			{
				"x": 0.7327402232,
				"y": -0.1856493047,
				"z": -0.8990262725,
				"element": "N" 
			},
			{
				"x": 1.3026302236,
				"y": -1.3971779552,
				"z": -0.8807754968,
				"element": "C" 
			},
			{
				"x": 2.1519741634,
				"y": -1.9154637488,
				"z": 0.5802270959,
				"element": "S" 
			},
			{
				"x": 1.3007985573,
				"y": -2.2891388614,
				"z": -1.8772807186,
				"element": "N" 
			},
			{
				"x": 1.2715929188,
				"y": -3.9393576821,
				"z": -3.7868085772,
				"element": "H" 
			},
			{
				"x": -0.3625739115,
				"y": 2.090014192,
				"z": -0.9901523565,
				"element": "H" 
			},
			{
				"x": 1.906479237,
				"y": -0.7784012704,
				"z": 1.2593653167,
				"element": "H" 
			}
		],
		 "valence_orbital": [ 
			{
				"type": "occ",
				"energy": -0.28967,
				"method": "rhf"
			},
			{
				"type": "occ",
				"energy": -0.28915,
				"method": "rhf"
			},
			{
				"type": "occ",
				"energy": -0.2746,
				"method": "rhf"
			},
			{
				"type": "occ",
				"energy": -0.26864,
				"method": "rhf"
			},
			{
				"type": "occ",
				"energy": -0.26805,
				"method": "rhf"
			},
			{
				"type": "unocc",
				"energy": -0.05599,
				"method": "rhf"
			},
			{
				"type": "unocc",
				"energy": -0.05573,
				"method": "rhf"
			},
			{
				"type": "unocc",
				"energy": -0.00679,
				"method": "rhf"
			},
			{
				"type": "unocc",
				"energy": 0.00697,
				"method": "rhf"
			},
			{
				"type": "unocc",
				"energy": 0.01485,
				"method": "rhf"
			}
		],
		"cosmo_sigma_profile": { 
			"-0.025": 0.0,
			"-0.024": 0.0,
			"-0.023": 0.0,
			"-0.022": 0.0,
			"-0.021": 0.0,
			"-0.02": 0.0,
			"-0.019": 0.0,
			"-0.018": 0.0,
			"-0.017": 0.0,
			"-0.016": 0.0,
			"-0.015": 0.0,
			"-0.014": 0.0,
			"-0.013": 0.0302968791009,
			"-0.012": 2.97405292166,
			"-0.011": 4.75622857065,
			"-0.01": 4.15528546394,
			"-0.009": 3.39290876634,
			"-0.008": 3.49891606319,
			"-0.007": 4.08293053447,
			"-0.006": 5.4467039086,
			"-0.005": 7.22407855142,
			"-0.004": 6.41995844641,
			"-0.003": 8.50908031502,
			"-0.002": 10.8301793092,
			"-0.001": 12.9659748421,
			"0.0": 13.594424875,
			"0.001": 15.2420433169,
			"0.002": 21.8908057486,
			"0.003": 18.266526042,
			"0.004": 14.9540543368,
			"0.005": 12.0397535817,
			"0.006": 8.80796743011,
			"0.007": 3.55766345769,
			"0.008": 2.64862990544,
			"0.009": 1.69243268124,
			"0.01": 1.2957141929,
			"0.011": 0.592025846257,
			"0.012": 0.0633602502201,
			"0.013": 0.0,
			"0.014": 0.0,
			"0.015": 0.0,
			"0.016": 0.0,
			"0.017": 0.0,
			"0.018": 0.0,
			"0.019": 0.0,
			"0.02": 0.0,
			"0.021": 0.0,
			"0.022": 0.0,
			"0.023": 0.0,
			"0.024": 0.0,
			"0.025": 0.0
		}
	}
}
