{
	 "smiles": "OC1=CC(=CC(=C1)C(F)(F)F)C(F)(F)F", 
	 "Tm": 293.65, 
	 "num_atms": 19, 
	 "gaussian": { 
		 "optdone": 1, 
		 "sigma_profile": "yes", 
		 "theory": "DFT", 
		 "functional": "B3LYP", 
		 "basiset": "6-31G**", 
		 "properties": { 
			 "R2extent": 3598.8267, 
			 "electric_dipole_moment_norm": 2.93529679249, 
			 "electric_quadrupole_moment_norm": 10.9597975109, 
			 "total_energy": -981.536975731, 
			 "HOMO_LUMO_gap": 0.20528, 
			 "cosmo_polarized_energy": -8.6, 
			 "cosmo_cavitation_energy": 26.89, 
			 "cosmo_dispersion_energy": -18.61, 
			 "cosmo_repulsion_energy": 1.34, 
			 "cosmo_total_nonelectrostatic_energy": 9.62, 
			 "SMD_solvation_energy": 7.34 
		},
		"coords": [
			{
				"x": -3.557680188,
				"y": -0.8457818717,
				"z": -1.4960909197,
				"element": "O" 
			},
			{
				"x": -2.2546070441,
				"y": -0.6487389636,
				"z": -1.1592750908,
				"element": "C" 
			},
			{
				"x": -1.9808931899,
				"y": 0.3694684458,
				"z": -0.2387688333,
				"element": "C" 
			},
			{
				"x": -0.664213591,
				"y": 0.6162541935,
				"z": 0.1396771406,
				"element": "C" 
			},
			{
				"x": 0.3905775289,
				"y": -0.1379188309,
				"z": -0.3815592924,
				"element": "C" 
			},
			{
				"x": 0.1040685647,
				"y": -1.1489090909,
				"z": -1.2960841268,
				"element": "C" 
			},
			{
				"x": -1.2101170989,
				"y": -1.4096863277,
				"z": -1.6903898344,
				"element": "C" 
			},
			{
				"x": 1.2140274278,
				"y": -2.0216169844,
				"z": -1.8230029012,
				"element": "C" 
			},
			{
				"x": 0.9614499252,
				"y": -2.4428750697,
				"z": -3.0828162162,
				"element": "F" 
			},
			{
				"x": 2.39811479,
				"y": -1.3762950117,
				"z": -1.8367192407,
				"element": "F" 
			},
			{
				"x": 1.372828863,
				"y": -3.1293249819,
				"z": -1.0639202121,
				"element": "F" 
			},
			{
				"x": -0.3647240613,
				"y": 1.7573382397,
				"z": 1.0787933166,
				"element": "C" 
			},
			{
				"x": -1.3960282565,
				"y": 2.0050186979,
				"z": 1.9138658619,
				"element": "F" 
			},
			{
				"x": -0.1203808527,
				"y": 2.9008643021,
				"z": 0.4001209792,
				"element": "F" 
			},
			{
				"x": 0.7248305118,
				"y": 1.5070352602,
				"z": 1.8358263682,
				"element": "F" 
			},
			{
				"x": -3.625176589,
				"y": -1.5730619455,
				"z": -2.1286184132,
				"element": "H" 
			},
			{
				"x": -2.8006940809,
				"y": 0.9485662822,
				"z": 0.1694012313,
				"element": "H" 
			},
			{
				"x": 1.4114054584,
				"y": 0.0591498654,
				"z": -0.0799697715,
				"element": "H" 
			},
			{
				"x": -1.4122881176,
				"y": -2.1962862088,
				"z": -2.4116700454,
				"element": "H" 
			}
		],
		 "valence_orbital": [ 
			{
				"type": "occ",
				"energy": -0.386,
				"method": "rhf"
			},
			{
				"type": "occ",
				"energy": -0.36424,
				"method": "rhf"
			},
			{
				"type": "occ",
				"energy": -0.36196,
				"method": "rhf"
			},
			{
				"type": "occ",
				"energy": -0.28766,
				"method": "rhf"
			},
			{
				"type": "occ",
				"energy": -0.25367,
				"method": "rhf"
			},
			{
				"type": "unocc",
				"energy": -0.04839,
				"method": "rhf"
			},
			{
				"type": "unocc",
				"energy": -0.02548,
				"method": "rhf"
			},
			{
				"type": "unocc",
				"energy": 0.04965,
				"method": "rhf"
			},
			{
				"type": "unocc",
				"energy": 0.09427,
				"method": "rhf"
			},
			{
				"type": "unocc",
				"energy": 0.10379,
				"method": "rhf"
			}
		],
		"cosmo_sigma_profile": { 
			"-0.025": 0.0,
			"-0.024": 0.0,
			"-0.023": 0.0,
			"-0.022": 0.0,
			"-0.021": 0.0,
			"-0.02": 0.0,
			"-0.019": 0.672933270893,
			"-0.018": 1.11691732921,
			"-0.017": 1.20720820607,
			"-0.016": 1.28768857993,
			"-0.015": 1.00115109387,
			"-0.014": 0.924910398434,
			"-0.013": 0.54573972731,
			"-0.012": 1.1223235414,
			"-0.011": 1.88756756987,
			"-0.01": 0.814908163315,
			"-0.009": 1.40543498541,
			"-0.008": 1.74210574211,
			"-0.007": 3.92322469834,
			"-0.006": 4.98486410578,
			"-0.005": 5.11048884478,
			"-0.004": 6.3092536799,
			"-0.003": 7.22009668233,
			"-0.002": 9.35129912185,
			"-0.001": 11.5453968148,
			"0.0": 20.9173524503,
			"0.001": 32.3759590305,
			"0.002": 45.8151511359,
			"0.003": 43.4277238574,
			"0.004": 2.40254242405,
			"0.005": 1.30878650014,
			"0.006": 1.36111011762,
			"0.007": 1.24568349532,
			"0.008": 1.3778142946,
			"0.009": 1.43634077326,
			"0.01": 1.94989988297,
			"0.011": 0.284346938339,
			"0.012": 0.0,
			"0.013": 0.0,
			"0.014": 0.0,
			"0.015": 0.0,
			"0.016": 0.0,
			"0.017": 0.0,
			"0.018": 0.0,
			"0.019": 0.0,
			"0.02": 0.0,
			"0.021": 0.0,
			"0.022": 0.0,
			"0.023": 0.0,
			"0.024": 0.0,
			"0.025": 0.0
		}
	}
}
