{
	 "smiles": "FC(F)(F)C(Cl)Cl", 
	 "Tm": 166.15, 
	 "num_atms": 8, 
	 "gaussian": { 
		 "optdone": 1, 
		 "sigma_profile": "yes", 
		 "theory": "DFT", 
		 "functional": "B3LYP", 
		 "basiset": "6-31G**", 
		 "properties": { 
			 "R2extent": 1464.0042, 
			 "electric_dipole_moment_norm": 1.27679949091, 
			 "electric_quadrupole_moment_norm": 2.08485296364, 
			 "total_energy": -1296.71294191, 
			 "HOMO_LUMO_gap": 0.29597, 
			 "cosmo_polarized_energy": -3.66, 
			 "cosmo_cavitation_energy": 17.0, 
			 "cosmo_dispersion_energy": -12.47, 
			 "cosmo_repulsion_energy": 1.01, 
			 "cosmo_total_nonelectrostatic_energy": 5.54, 
			 "SMD_solvation_energy": 3.55 
		},
		"coords": [
			{
				"x": -1.6936008717,
				"y": 2.0409802904,
				"z": -1.2282502264,
				"element": "F" 
			},
			{
				"x": -1.0647919614,
				"y": 1.8550263608,
				"z": -0.0649662915,
				"element": "C" 
			},
			{
				"x": -1.8138126531,
				"y": 2.3785630791,
				"z": 0.9193336806,
				"element": "F" 
			},
			{
				"x": 0.1039904598,
				"y": 2.5160806427,
				"z": -0.0953345429,
				"element": "F" 
			},
			{
				"x": -0.8030698388,
				"y": 0.3655115002,
				"z": 0.2277961737,
				"element": "C" 
			},
			{
				"x": 0.2679063833,
				"y": -0.3370483412,
				"z": -1.0173851303,
				"element": "Cl" 
			},
			{
				"x": -2.3457585207,
				"y": -0.524506819,
				"z": 0.3657944416,
				"element": "Cl" 
			},
			{
				"x": -0.2908629973,
				"y": 0.288993287,
				"z": 1.1853118953,
				"element": "H" 
			}
		],
		 "valence_orbital": [ 
			{
				"type": "occ",
				"energy": -0.42223,
				"method": "rhf"
			},
			{
				"type": "occ",
				"energy": -0.35131,
				"method": "rhf"
			},
			{
				"type": "occ",
				"energy": -0.34373,
				"method": "rhf"
			},
			{
				"type": "occ",
				"energy": -0.3284,
				"method": "rhf"
			},
			{
				"type": "occ",
				"energy": -0.32616,
				"method": "rhf"
			},
			{
				"type": "unocc",
				"energy": -0.03019,
				"method": "rhf"
			},
			{
				"type": "unocc",
				"energy": -0.00265,
				"method": "rhf"
			},
			{
				"type": "unocc",
				"energy": 0.07654,
				"method": "rhf"
			},
			{
				"type": "unocc",
				"energy": 0.15632,
				"method": "rhf"
			},
			{
				"type": "unocc",
				"energy": 0.17142,
				"method": "rhf"
			}
		],
		"cosmo_sigma_profile": { 
			"-0.025": 0.0,
			"-0.024": 0.0,
			"-0.023": 0.0,
			"-0.022": 0.0,
			"-0.021": 0.0,
			"-0.02": 0.0,
			"-0.019": 0.0,
			"-0.018": 0.0,
			"-0.017": 0.0,
			"-0.016": 0.0,
			"-0.015": 0.0,
			"-0.014": 0.046833167317,
			"-0.013": 2.53127211315,
			"-0.012": 1.95025129983,
			"-0.011": 1.70222604411,
			"-0.01": 1.21674137226,
			"-0.009": 0.998450397402,
			"-0.008": 1.46751681333,
			"-0.007": 1.08709368574,
			"-0.006": 1.15267700837,
			"-0.005": 1.71401053924,
			"-0.004": 2.79221278268,
			"-0.003": 5.81637818579,
			"-0.002": 5.34655270684,
			"-0.001": 8.70239995829,
			"0.0": 13.9482383521,
			"0.001": 27.8165584096,
			"0.002": 39.7393604498,
			"0.003": 20.0486083131,
			"0.004": 2.53398825721,
			"0.005": 0.0,
			"0.006": 0.0,
			"0.007": 0.0,
			"0.008": 0.0,
			"0.009": 0.0,
			"0.01": 0.0,
			"0.011": 0.0,
			"0.012": 0.0,
			"0.013": 0.0,
			"0.014": 0.0,
			"0.015": 0.0,
			"0.016": 0.0,
			"0.017": 0.0,
			"0.018": 0.0,
			"0.019": 0.0,
			"0.02": 0.0,
			"0.021": 0.0,
			"0.022": 0.0,
			"0.023": 0.0,
			"0.024": 0.0,
			"0.025": 0.0
		}
	}
}
