{
	 "smiles": "BrCC(Br)C1=CC=CC=C1", 
	 "Tm": 346.65, 
	 "num_atms": 18, 
	 "gaussian": { 
		 "optdone": 1, 
		 "sigma_profile": "yes", 
		 "theory": "DFT", 
		 "functional": "B3LYP", 
		 "basiset": "6-31G**", 
		 "properties": { 
			 "R2extent": 5454.2201, 
			 "electric_dipole_moment_norm": 1.2384964675, 
			 "electric_quadrupole_moment_norm": 10.7665109163, 
			 "total_energy": -5452.49049109, 
			 "HOMO_LUMO_gap": 0.20394, 
			 "cosmo_polarized_energy": -7.25, 
			 "cosmo_cavitation_energy": 26.04, 
			 "cosmo_dispersion_energy": -19.19, 
			 "cosmo_repulsion_energy": 1.58, 
			 "cosmo_total_nonelectrostatic_energy": 8.43, 
			 "SMD_solvation_energy": 1.97 
		},
		"coords": [
			{
				"x": 2.8921757449,
				"y": 0.0077675467,
				"z": 3.3511167017,
				"element": "Br" 
			},
			{
				"x": 3.4148338815,
				"y": -0.4938028787,
				"z": 1.5034449899,
				"element": "C" 
			},
			{
				"x": 2.6891570533,
				"y": 0.3820696101,
				"z": 0.4966408909,
				"element": "C" 
			},
			{
				"x": 3.5604792478,
				"y": -0.0495989018,
				"z": -1.2841844699,
				"element": "Br" 
			},
			{
				"x": 1.1996348434,
				"y": 0.2122945415,
				"z": 0.404931144,
				"element": "C" 
			},
			{
				"x": 0.3729715336,
				"y": 1.3341012409,
				"z": 0.5371466151,
				"element": "C" 
			},
			{
				"x": -1.0157217892,
				"y": 1.2034325786,
				"z": 0.4871263321,
				"element": "C" 
			},
			{
				"x": -1.5917478099,
				"y": -0.0525520025,
				"z": 0.2994641478,
				"element": "C" 
			},
			{
				"x": -0.7732330324,
				"y": -1.1771350971,
				"z": 0.1589634315,
				"element": "C" 
			},
			{
				"x": 0.6119108496,
				"y": -1.0459095748,
				"z": 0.2092703176,
				"element": "C" 
			},
			{
				"x": 4.4918815381,
				"y": -0.3533553483,
				"z": 1.4548883939,
				"element": "H" 
			},
			{
				"x": 3.1681714628,
				"y": -1.5480691865,
				"z": 1.3962159603,
				"element": "H" 
			},
			{
				"x": 2.9518932971,
				"y": 1.4276102913,
				"z": 0.6491835053,
				"element": "H" 
			},
			{
				"x": 0.8186309236,
				"y": 2.3138599886,
				"z": 0.6868869553,
				"element": "H" 
			},
			{
				"x": -1.644067115,
				"y": 2.0825684292,
				"z": 0.5949605262,
				"element": "H" 
			},
			{
				"x": -2.6719970411,
				"y": -0.1570555179,
				"z": 0.2588177567,
				"element": "H" 
			},
			{
				"x": -1.2161855964,
				"y": -2.1567779235,
				"z": 0.0055493553,
				"element": "H" 
			},
			{
				"x": 1.2399120082,
				"y": -1.9219477957,
				"z": 0.0745774462,
				"element": "H" 
			}
		],
		 "valence_orbital": [ 
			{
				"type": "occ",
				"energy": -0.28361,
				"method": "rhf"
			},
			{
				"type": "occ",
				"energy": -0.27925,
				"method": "rhf"
			},
			{
				"type": "occ",
				"energy": -0.27755,
				"method": "rhf"
			},
			{
				"type": "occ",
				"energy": -0.26018,
				"method": "rhf"
			},
			{
				"type": "occ",
				"energy": -0.25241,
				"method": "rhf"
			},
			{
				"type": "unocc",
				"energy": -0.04847,
				"method": "rhf"
			},
			{
				"type": "unocc",
				"energy": -0.01242,
				"method": "rhf"
			},
			{
				"type": "unocc",
				"energy": -0.01015,
				"method": "rhf"
			},
			{
				"type": "unocc",
				"energy": 0.02807,
				"method": "rhf"
			},
			{
				"type": "unocc",
				"energy": 0.0827,
				"method": "rhf"
			}
		],
		"cosmo_sigma_profile": { 
			"-0.025": 0.0,
			"-0.024": 0.0,
			"-0.023": 0.0,
			"-0.022": 0.0,
			"-0.021": 0.0,
			"-0.02": 0.0,
			"-0.019": 0.0,
			"-0.018": 0.0,
			"-0.017": 0.0,
			"-0.016": 0.0,
			"-0.015": 0.0,
			"-0.014": 0.0,
			"-0.013": 0.0,
			"-0.012": 0.0,
			"-0.011": 0.0,
			"-0.01": 0.0,
			"-0.009": 1.18324656443,
			"-0.008": 6.89786816457,
			"-0.007": 7.36640821477,
			"-0.006": 13.8178634546,
			"-0.005": 14.6391040356,
			"-0.004": 15.3586752835,
			"-0.003": 11.7967558858,
			"-0.002": 12.4085141579,
			"-0.001": 11.8164628999,
			"0.0": 11.304340854,
			"0.001": 13.0906261202,
			"0.002": 12.6749198971,
			"0.003": 16.281366715,
			"0.004": 20.6814736071,
			"0.005": 30.4689022552,
			"0.006": 14.0242266771,
			"0.007": 0.0265462821739,
			"0.008": 0.0,
			"0.009": 0.0,
			"0.01": 0.0,
			"0.011": 0.0,
			"0.012": 0.0,
			"0.013": 0.0,
			"0.014": 0.0,
			"0.015": 0.0,
			"0.016": 0.0,
			"0.017": 0.0,
			"0.018": 0.0,
			"0.019": 0.0,
			"0.02": 0.0,
			"0.021": 0.0,
			"0.022": 0.0,
			"0.023": 0.0,
			"0.024": 0.0,
			"0.025": 0.0
		}
	}
}
