{
	 "smiles": "OC(=O)C1=CSC(CC2=CC(F)=CC=C2)=N1", 
	 "Tm": 423.15, 
	 "num_atms": 24, 
	 "gaussian": { 
		 "optdone": 1, 
		 "sigma_profile": "yes", 
		 "theory": "DFT", 
		 "functional": "B3LYP", 
		 "basiset": "6-31G**", 
		 "properties": { 
			 "R2extent": 5650.3334, 
			 "electric_dipole_moment_norm": 4.4339210108, 
			 "electric_quadrupole_moment_norm": 28.3555791367, 
			 "total_energy": -1127.22323138, 
			 "HOMO_LUMO_gap": 0.19312, 
			 "cosmo_polarized_energy": -13.69, 
			 "cosmo_cavitation_energy": 31.91, 
			 "cosmo_dispersion_energy": -22.86, 
			 "cosmo_repulsion_energy": 1.73, 
			 "cosmo_total_nonelectrostatic_energy": 10.78, 
			 "SMD_solvation_energy": 5.84 
		},
		"coords": [
			{
				"x": 3.9722112238,
				"y": 1.8597226122,
				"z": 1.0340737163,
				"element": "O" 
			},
			{
				"x": 3.1067939799,
				"y": 2.8341553572,
				"z": 1.3822918359,
				"element": "C" 
			},
			{
				"x": 3.4300585328,
				"y": 3.7854571531,
				"z": 2.0549742784,
				"element": "O" 
			},
			{
				"x": 1.7251926187,
				"y": 2.6232800267,
				"z": 0.8607055238,
				"element": "C" 
			},
			{
				"x": 0.6717195729,
				"y": 3.4680872702,
				"z": 1.0667059621,
				"element": "C" 
			},
			{
				"x": -0.7348994485,
				"y": 2.8427301109,
				"z": 0.2878848185,
				"element": "S" 
			},
			{
				"x": 0.2095356502,
				"y": 1.463797991,
				"z": -0.2771921245,
				"element": "C" 
			},
			{
				"x": -0.3974105627,
				"y": 0.3567801132,
				"z": -1.0974853791,
				"element": "C" 
			},
			{
				"x": -1.3668093651,
				"y": -0.5196730057,
				"z": -0.3172726163,
				"element": "C" 
			},
			{
				"x": -2.7051976383,
				"y": -0.6147433746,
				"z": -0.7098031074,
				"element": "C" 
			},
			{
				"x": -3.5694959619,
				"y": -1.429204627,
				"z": 0.0156913946,
				"element": "C" 
			},
			{
				"x": -4.8577403494,
				"y": -1.5126933912,
				"z": -0.3748148832,
				"element": "F" 
			},
			{
				"x": -3.1501716017,
				"y": -2.1549876687,
				"z": 1.1227890919,
				"element": "C" 
			},
			{
				"x": -1.8115698887,
				"y": -2.0540145255,
				"z": 1.5089548351,
				"element": "C" 
			},
			{
				"x": -0.9255933791,
				"y": -1.2448628789,
				"z": 0.7988106568,
				"element": "C" 
			},
			{
				"x": 1.454518476,
				"y": 1.4996684451,
				"z": 0.104721282,
				"element": "N" 
			},
			{
				"x": 3.4833821634,
				"y": 1.2099281087,
				"z": 0.4952426851,
				"element": "H" 
			},
			{
				"x": 0.6724567238,
				"y": 4.3943677271,
				"z": 1.6223845018,
				"element": "H" 
			},
			{
				"x": -0.9047862327,
				"y": 0.7793902328,
				"z": -1.971108418,
				"element": "H" 
			},
			{
				"x": 0.440916549,
				"y": -0.2417849847,
				"z": -1.4685693527,
				"element": "H" 
			},
			{
				"x": -3.0859975478,
				"y": -0.0722648079,
				"z": -1.56942277,
				"element": "H" 
			},
			{
				"x": -3.8583496019,
				"y": -2.7774352163,
				"z": 1.6583905364,
				"element": "H" 
			},
			{
				"x": -1.4603922118,
				"y": -2.6131495812,
				"z": 2.3709309064,
				"element": "H" 
			},
			{
				"x": 0.1124282994,
				"y": -1.1709510863,
				"z": 1.109716626,
				"element": "H" 
			}
		],
		 "valence_orbital": [ 
			{
				"type": "occ",
				"energy": -0.31035,
				"method": "rhf"
			},
			{
				"type": "occ",
				"energy": -0.2742,
				"method": "rhf"
			},
			{
				"type": "occ",
				"energy": -0.27177,
				"method": "rhf"
			},
			{
				"type": "occ",
				"energy": -0.26617,
				"method": "rhf"
			},
			{
				"type": "occ",
				"energy": -0.25331,
				"method": "rhf"
			},
			{
				"type": "unocc",
				"energy": -0.06019,
				"method": "rhf"
			},
			{
				"type": "unocc",
				"energy": -0.03146,
				"method": "rhf"
			},
			{
				"type": "unocc",
				"energy": -0.01823,
				"method": "rhf"
			},
			{
				"type": "unocc",
				"energy": -0.01268,
				"method": "rhf"
			},
			{
				"type": "unocc",
				"energy": 4e-05,
				"method": "rhf"
			}
		],
		"cosmo_sigma_profile": { 
			"-0.025": 0.0,
			"-0.024": 0.0,
			"-0.023": 0.0,
			"-0.022": 0.0,
			"-0.021": 0.0,
			"-0.02": 0.0,
			"-0.019": 0.0,
			"-0.018": 0.0,
			"-0.017": 0.0,
			"-0.016": 0.0,
			"-0.015": 0.0,
			"-0.014": 0.201873787106,
			"-0.013": 0.511430678894,
			"-0.012": 0.512423305276,
			"-0.011": 1.13564420476,
			"-0.01": 2.77954028567,
			"-0.009": 2.00520784322,
			"-0.008": 4.29539557915,
			"-0.007": 10.5354609521,
			"-0.006": 13.1023630039,
			"-0.005": 15.4850083186,
			"-0.004": 16.5340664089,
			"-0.003": 15.2820347915,
			"-0.002": 17.0493393922,
			"-0.001": 20.6153139444,
			"0.0": 24.4008193374,
			"0.001": 23.643781935,
			"0.002": 17.9493608742,
			"0.003": 15.8549139516,
			"0.004": 19.7326505539,
			"0.005": 8.76818988128,
			"0.006": 2.912372479,
			"0.007": 2.62107379466,
			"0.008": 2.89660871667,
			"0.009": 3.23728058188,
			"0.01": 5.20076792816,
			"0.011": 5.14175875055,
			"0.012": 4.76700459537,
			"0.013": 1.5082383973,
			"0.014": 0.0514729202669,
			"0.015": 0.0,
			"0.016": 0.0,
			"0.017": 0.0,
			"0.018": 0.0,
			"0.019": 0.0,
			"0.02": 0.0,
			"0.021": 0.0,
			"0.022": 0.0,
			"0.023": 0.0,
			"0.024": 0.0,
			"0.025": 0.0
		}
	}
}
