{
	 "smiles": "NC1=CN=C(C=C1)N1C=NC=N1", 
	 "Tm": 462.15, 
	 "num_atms": 19, 
	 "gaussian": { 
		 "optdone": 1, 
		 "sigma_profile": "yes", 
		 "theory": "DFT", 
		 "functional": "B3LYP", 
		 "basiset": "6-31G**", 
		 "properties": { 
			 "R2extent": 2433.4919, 
			 "electric_dipole_moment_norm": 5.80699830549, 
			 "electric_quadrupole_moment_norm": 9.95239901129, 
			 "total_energy": -544.704462809, 
			 "HOMO_LUMO_gap": 0.17826, 
			 "cosmo_polarized_energy": -14.51, 
			 "cosmo_cavitation_energy": 23.92, 
			 "cosmo_dispersion_energy": -18.03, 
			 "cosmo_repulsion_energy": 1.41, 
			 "cosmo_total_nonelectrostatic_energy": 7.3, 
			 "SMD_solvation_energy": 1.35 
		},
		"coords": [
			{
				"x": 1.8827871398,
				"y": -2.9385247909,
				"z": 2.4467176719,
				"element": "N" 
			},
			{
				"x": 1.4210782631,
				"y": -1.8772856797,
				"z": 1.6756216885,
				"element": "C" 
			},
			{
				"x": 1.1956096692,
				"y": -2.0228710098,
				"z": 0.2949732272,
				"element": "C" 
			},
			{
				"x": 0.8065574273,
				"y": -1.0277860307,
				"z": -0.5017009172,
				"element": "N" 
			},
			{
				"x": 0.6209812084,
				"y": 0.1720324523,
				"z": 0.0411662576,
				"element": "C" 
			},
			{
				"x": 0.8099070329,
				"y": 0.4461404089,
				"z": 1.3984629505,
				"element": "C" 
			},
			{
				"x": 1.2153096026,
				"y": -0.5972675234,
				"z": 2.2188034473,
				"element": "C" 
			},
			{
				"x": 0.2053352276,
				"y": 1.1941995672,
				"z": -0.8515776885,
				"element": "N" 
			},
			{
				"x": -0.0200992301,
				"y": 1.1131279951,
				"z": -2.1898274359,
				"element": "C" 
			},
			{
				"x": -0.395597361,
				"y": 2.2883588982,
				"z": -2.6620064461,
				"element": "N" 
			},
			{
				"x": -0.3848600069,
				"y": 3.0742461429,
				"z": -1.5465218092,
				"element": "C" 
			},
			{
				"x": -0.0305243757,
				"y": 2.4666987534,
				"z": -0.4254617285,
				"element": "N" 
			},
			{
				"x": 1.7047287722,
				"y": -3.8604644619,
				"z": 2.0729746804,
				"element": "H" 
			},
			{
				"x": 1.6837815503,
				"y": -2.8819425219,
				"z": 3.4356896532,
				"element": "H" 
			},
			{
				"x": 1.340833474,
				"y": -2.9926958384,
				"z": -0.179793434,
				"element": "H" 
			},
			{
				"x": 0.6391197158,
				"y": 1.4450732779,
				"z": 1.7788317697,
				"element": "H" 
			},
			{
				"x": 1.377313784,
				"y": -0.4239918881,
				"z": 3.2795104586,
				"element": "H" 
			},
			{
				"x": 0.105623606,
				"y": 0.1942665126,
				"z": -2.7407701037,
				"element": "H" 
			},
			{
				"x": -0.6456854995,
				"y": 4.1236857363,
				"z": -1.5602922418,
				"element": "H" 
			}
		],
		 "valence_orbital": [ 
			{
				"type": "occ",
				"energy": -0.2849,
				"method": "rhf"
			},
			{
				"type": "occ",
				"energy": -0.27808,
				"method": "rhf"
			},
			{
				"type": "occ",
				"energy": -0.26931,
				"method": "rhf"
			},
			{
				"type": "occ",
				"energy": -0.2663,
				"method": "rhf"
			},
			{
				"type": "occ",
				"energy": -0.21447,
				"method": "rhf"
			},
			{
				"type": "unocc",
				"energy": -0.03621,
				"method": "rhf"
			},
			{
				"type": "unocc",
				"energy": -0.02427,
				"method": "rhf"
			},
			{
				"type": "unocc",
				"energy": 0.04003,
				"method": "rhf"
			},
			{
				"type": "unocc",
				"energy": 0.06111,
				"method": "rhf"
			},
			{
				"type": "unocc",
				"energy": 0.06573,
				"method": "rhf"
			}
		],
		"cosmo_sigma_profile": { 
			"-0.025": 0.0,
			"-0.024": 0.0,
			"-0.023": 0.0,
			"-0.022": 0.0,
			"-0.021": 0.0,
			"-0.02": 0.0,
			"-0.019": 0.0,
			"-0.018": 0.0,
			"-0.017": 0.0,
			"-0.016": 0.0,
			"-0.015": 0.0,
			"-0.014": 0.114706976822,
			"-0.013": 2.47079966159,
			"-0.012": 3.14909009553,
			"-0.011": 3.56554296209,
			"-0.01": 3.84504479293,
			"-0.009": 4.77697538941,
			"-0.008": 7.00043122109,
			"-0.007": 8.35640692096,
			"-0.006": 7.83264147689,
			"-0.005": 7.66837215557,
			"-0.004": 6.45880602466,
			"-0.003": 7.92945146133,
			"-0.002": 8.60835989464,
			"-0.001": 13.1510642893,
			"0.0": 12.7812149957,
			"0.001": 17.627970013,
			"0.002": 17.4424791269,
			"0.003": 13.3920078395,
			"0.004": 6.44248271439,
			"0.005": 4.80900943232,
			"0.006": 5.97905916913,
			"0.007": 5.6839487852,
			"0.008": 4.53423147664,
			"0.009": 3.66671803795,
			"0.01": 4.10419538314,
			"0.011": 3.75004477748,
			"0.012": 1.9747097241,
			"0.013": 2.07953403862,
			"0.014": 0.843427394393,
			"0.015": 1.26563646996,
			"0.016": 0.936488266041,
			"0.017": 0.206520259659,
			"0.018": 0.0,
			"0.019": 0.0,
			"0.02": 0.0,
			"0.021": 0.0,
			"0.022": 0.0,
			"0.023": 0.0,
			"0.024": 0.0,
			"0.025": 0.0
		}
	}
}
