{
	 "smiles": "COC1=CC=CC(=C1)S(N)(=O)=O", 
	 "Tm": 405.15, 
	 "num_atms": 21, 
	 "gaussian": { 
		 "optdone": 1, 
		 "sigma_profile": "yes", 
		 "theory": "DFT", 
		 "functional": "B3LYP", 
		 "basiset": "6-31G**", 
		 "properties": { 
			 "R2extent": 3033.3886, 
			 "electric_dipole_moment_norm": 5.52952529427, 
			 "electric_quadrupole_moment_norm": 19.9429676653, 
			 "total_energy": -950.696449904, 
			 "HOMO_LUMO_gap": 0.20095, 
			 "cosmo_polarized_energy": -19.0, 
			 "cosmo_cavitation_energy": 26.49, 
			 "cosmo_dispersion_energy": -19.88, 
			 "cosmo_repulsion_energy": 1.55, 
			 "cosmo_total_nonelectrostatic_energy": 8.15, 
			 "SMD_solvation_energy": 5.05 
		},
		"coords": [
			{
				"x": 1.9129971623,
				"y": -0.3512838297,
				"z": -2.9532763328,
				"element": "C" 
			},
			{
				"x": 0.7333322365,
				"y": -0.9203224491,
				"z": -2.3994717788,
				"element": "O" 
			},
			{
				"x": 0.2559561482,
				"y": -0.4083789488,
				"z": -1.2337038291,
				"element": "C" 
			},
			{
				"x": -0.8915103887,
				"y": -1.0325681109,
				"z": -0.7158778268,
				"element": "C" 
			},
			{
				"x": -1.4476150868,
				"y": -0.5971115774,
				"z": 0.4809886016,
				"element": "C" 
			},
			{
				"x": -0.883360707,
				"y": 0.4722199151,
				"z": 1.1846882968,
				"element": "C" 
			},
			{
				"x": 0.2450603726,
				"y": 1.0884095132,
				"z": 0.6494889217,
				"element": "C" 
			},
			{
				"x": 0.832606148,
				"y": 0.6661162952,
				"z": -0.5471899383,
				"element": "C" 
			},
			{
				"x": 0.9684240017,
				"y": 2.499021097,
				"z": 1.5047256868,
				"element": "S" 
			},
			{
				"x": 0.1375459988,
				"y": 3.8626457241,
				"z": 0.9707757656,
				"element": "N" 
			},
			{
				"x": 2.3366246633,
				"y": 2.6568202113,
				"z": 1.012204415,
				"element": "O" 
			},
			{
				"x": 0.6419468182,
				"y": 2.3720079555,
				"z": 2.9235004705,
				"element": "O" 
			},
			{
				"x": 2.1178673528,
				"y": -0.9150047386,
				"z": -3.8640724944,
				"element": "H" 
			},
			{
				"x": 1.7695060662,
				"y": 0.7064929804,
				"z": -3.2073812873,
				"element": "H" 
			},
			{
				"x": 2.7648208358,
				"y": -0.4448178057,
				"z": -2.268703874,
				"element": "H" 
			},
			{
				"x": -1.3170767334,
				"y": -1.8644455196,
				"z": -1.2672049621,
				"element": "H" 
			},
			{
				"x": -2.3245167165,
				"y": -1.1001053817,
				"z": 0.8774119034,
				"element": "H" 
			},
			{
				"x": -1.288756608,
				"y": 0.8020469881,
				"z": 2.1344459238,
				"element": "H" 
			},
			{
				"x": 1.7317127804,
				"y": 1.1583846658,
				"z": -0.8950163615,
				"element": "H" 
			},
			{
				"x": -0.8409644766,
				"y": 3.8536864233,
				"z": 1.2412946797,
				"element": "H" 
			},
			{
				"x": 0.2716001323,
				"y": 4.0386865926,
				"z": -0.0200259799,
				"element": "H" 
			}
		],
		 "valence_orbital": [ 
			{
				"type": "occ",
				"energy": -0.31195,
				"method": "rhf"
			},
			{
				"type": "occ",
				"energy": -0.30289,
				"method": "rhf"
			},
			{
				"type": "occ",
				"energy": -0.30013,
				"method": "rhf"
			},
			{
				"type": "occ",
				"energy": -0.27079,
				"method": "rhf"
			},
			{
				"type": "occ",
				"energy": -0.24008,
				"method": "rhf"
			},
			{
				"type": "unocc",
				"energy": -0.03913,
				"method": "rhf"
			},
			{
				"type": "unocc",
				"energy": -0.01152,
				"method": "rhf"
			},
			{
				"type": "unocc",
				"energy": 0.0505,
				"method": "rhf"
			},
			{
				"type": "unocc",
				"energy": 0.07578,
				"method": "rhf"
			},
			{
				"type": "unocc",
				"energy": 0.0936,
				"method": "rhf"
			}
		],
		"cosmo_sigma_profile": { 
			"-0.025": 0.0,
			"-0.024": 0.0,
			"-0.023": 0.0,
			"-0.022": 0.0,
			"-0.021": 0.0,
			"-0.02": 0.0,
			"-0.019": 0.0,
			"-0.018": 0.0,
			"-0.017": 0.0,
			"-0.016": 0.148906382005,
			"-0.015": 2.20608323085,
			"-0.014": 2.13725740589,
			"-0.013": 2.84960689279,
			"-0.012": 2.61341757289,
			"-0.011": 2.98462013969,
			"-0.01": 2.45950612617,
			"-0.009": 1.68392605388,
			"-0.008": 2.19358738744,
			"-0.007": 7.08228908709,
			"-0.006": 15.843911548,
			"-0.005": 16.5063193716,
			"-0.004": 14.2537040806,
			"-0.003": 12.9648960117,
			"-0.002": 10.0780330285,
			"-0.001": 8.73107115273,
			"0.0": 7.64233910983,
			"0.001": 10.2131103523,
			"0.002": 15.0331127675,
			"0.003": 14.0505019313,
			"0.004": 7.17863072109,
			"0.005": 4.91351949385,
			"0.006": 6.05208316704,
			"0.007": 4.60230403256,
			"0.008": 5.45215109518,
			"0.009": 6.08168256693,
			"0.01": 8.50733103612,
			"0.011": 10.6228419305,
			"0.012": 5.40614980598,
			"0.013": 0.258453185013,
			"0.014": 0.0,
			"0.015": 0.0,
			"0.016": 0.0,
			"0.017": 0.0,
			"0.018": 0.0,
			"0.019": 0.0,
			"0.02": 0.0,
			"0.021": 0.0,
			"0.022": 0.0,
			"0.023": 0.0,
			"0.024": 0.0,
			"0.025": 0.0
		}
	}
}
