{
	 "smiles": "CC1=NC=C(CN2CCNCC2)S1", 
	 "Tm": 353.15, 
	 "num_atms": 28, 
	 "gaussian": { 
		 "optdone": 1, 
		 "sigma_profile": "yes", 
		 "theory": "DFT", 
		 "functional": "B3LYP", 
		 "basiset": "6-31G**", 
		 "properties": { 
			 "R2extent": 4062.3076, 
			 "electric_dipole_moment_norm": 2.34108002853, 
			 "electric_quadrupole_moment_norm": 5.59972556113, 
			 "total_energy": -914.420015438, 
			 "HOMO_LUMO_gap": 0.19474, 
			 "cosmo_polarized_energy": -9.84, 
			 "cosmo_cavitation_energy": 30.98, 
			 "cosmo_dispersion_energy": -23.02, 
			 "cosmo_repulsion_energy": 1.79, 
			 "cosmo_total_nonelectrostatic_energy": 9.75, 
			 "SMD_solvation_energy": -1.31 
		},
		"coords": [
			{
				"x": 2.4224361708,
				"y": 4.2545162539,
				"z": 1.7236266883,
				"element": "C" 
			},
			{
				"x": 1.7867067215,
				"y": 2.9294718053,
				"z": 1.4322471277,
				"element": "C" 
			},
			{
				"x": 2.0072685993,
				"y": 2.224867062,
				"z": 0.3616567525,
				"element": "N" 
			},
			{
				"x": 1.2894723347,
				"y": 1.0480515239,
				"z": 0.3739368878,
				"element": "C" 
			},
			{
				"x": 0.4930106106,
				"y": 0.8244401785,
				"z": 1.4611243242,
				"element": "C" 
			},
			{
				"x": -0.3608391399,
				"y": -0.3782708183,
				"z": 1.7738399611,
				"element": "C" 
			},
			{
				"x": -0.8633239334,
				"y": -1.023104177,
				"z": 0.5639251452,
				"element": "N" 
			},
			{
				"x": -1.9321087299,
				"y": -0.2515037195,
				"z": -0.0784797421,
				"element": "C" 
			},
			{
				"x": -2.3533484831,
				"y": -0.9196443383,
				"z": -1.3934556331,
				"element": "C" 
			},
			{
				"x": -2.7418635461,
				"y": -2.3241810051,
				"z": -1.2397915215,
				"element": "N" 
			},
			{
				"x": -1.7124681525,
				"y": -3.0669801646,
				"z": -0.5092715243,
				"element": "C" 
			},
			{
				"x": -1.2918919667,
				"y": -2.4022124852,
				"z": 0.8089243209,
				"element": "C" 
			},
			{
				"x": 0.6441874492,
				"y": 2.1792929397,
				"z": 2.5536355814,
				"element": "S" 
			},
			{
				"x": 3.0758833192,
				"y": 4.512184467,
				"z": 0.8879649138,
				"element": "H" 
			},
			{
				"x": 1.6739080087,
				"y": 5.0453292371,
				"z": 1.842460792,
				"element": "H" 
			},
			{
				"x": 3.0202774468,
				"y": 4.2228795632,
				"z": 2.6409328,
				"element": "H" 
			},
			{
				"x": 1.3719200766,
				"y": 0.3611903561,
				"z": -0.4592251425,
				"element": "H" 
			},
			{
				"x": 0.2463379503,
				"y": -1.1154866088,
				"z": 2.315892802,
				"element": "H" 
			},
			{
				"x": -1.1782874863,
				"y": -0.091183912,
				"z": 2.4642218866,
				"element": "H" 
			},
			{
				"x": -2.8152319069,
				"y": -0.1663551402,
				"z": 0.589717285,
				"element": "H" 
			},
			{
				"x": -1.567991033,
				"y": 0.7632476551,
				"z": -0.2681966093,
				"element": "H" 
			},
			{
				"x": -3.1851504222,
				"y": -0.3669270904,
				"z": -1.8434148184,
				"element": "H" 
			},
			{
				"x": -1.5117418308,
				"y": -0.8775554633,
				"z": -2.0963768312,
				"element": "H" 
			},
			{
				"x": -3.6160651546,
				"y": -2.3701169146,
				"z": -0.7180010328,
				"element": "H" 
			},
			{
				"x": -0.8308329492,
				"y": -3.147047929,
				"z": -1.1577256383,
				"element": "H" 
			},
			{
				"x": -2.0737459849,
				"y": -4.0830818696,
				"z": -0.3165303333,
				"element": "H" 
			},
			{
				"x": -2.1392323725,
				"y": -2.4446329079,
				"z": 1.5256452089,
				"element": "H" 
			},
			{
				"x": -0.4585855953,
				"y": -2.9553864978,
				"z": 1.2593163493,
				"element": "H" 
			}
		],
		 "valence_orbital": [ 
			{
				"type": "occ",
				"energy": -0.27388,
				"method": "rhf"
			},
			{
				"type": "occ",
				"energy": -0.26463,
				"method": "rhf"
			},
			{
				"type": "occ",
				"energy": -0.23159,
				"method": "rhf"
			},
			{
				"type": "occ",
				"energy": -0.22882,
				"method": "rhf"
			},
			{
				"type": "occ",
				"energy": -0.21313,
				"method": "rhf"
			},
			{
				"type": "unocc",
				"energy": -0.01839,
				"method": "rhf"
			},
			{
				"type": "unocc",
				"energy": 0.01898,
				"method": "rhf"
			},
			{
				"type": "unocc",
				"energy": 0.056,
				"method": "rhf"
			},
			{
				"type": "unocc",
				"energy": 0.08031,
				"method": "rhf"
			},
			{
				"type": "unocc",
				"energy": 0.09918,
				"method": "rhf"
			}
		],
		"cosmo_sigma_profile": { 
			"-0.025": 0.0,
			"-0.024": 0.0,
			"-0.023": 0.0,
			"-0.022": 0.0,
			"-0.021": 0.0,
			"-0.02": 0.0,
			"-0.019": 0.0,
			"-0.018": 0.0,
			"-0.017": 0.0,
			"-0.016": 0.0,
			"-0.015": 0.0,
			"-0.014": 0.0,
			"-0.013": 0.0,
			"-0.012": 0.0,
			"-0.011": 0.0,
			"-0.01": 0.217517601313,
			"-0.009": 1.07185855578,
			"-0.008": 1.89528985792,
			"-0.007": 0.998626232077,
			"-0.006": 4.68822997584,
			"-0.005": 13.7192074287,
			"-0.004": 23.0320726861,
			"-0.003": 29.1229163887,
			"-0.002": 36.477644141,
			"-0.001": 32.0267425221,
			"0.0": 19.3219148365,
			"0.001": 13.3327845904,
			"0.002": 14.811160209,
			"0.003": 12.185190958,
			"0.004": 9.8134576642,
			"0.005": 5.55761302979,
			"0.006": 3.50299947561,
			"0.007": 3.22389078365,
			"0.008": 3.25478004046,
			"0.009": 2.98665695899,
			"0.01": 1.92205013662,
			"0.011": 1.89110344164,
			"0.012": 2.21219802331,
			"0.013": 1.29828709889,
			"0.014": 1.27151489077,
			"0.015": 1.7936885973,
			"0.016": 1.08055557729,
			"0.017": 0.71341797489,
			"0.018": 0.487209576822,
			"0.019": 0.241622021418,
			"0.02": 0.0,
			"0.021": 0.0,
			"0.022": 0.0,
			"0.023": 0.0,
			"0.024": 0.0,
			"0.025": 0.0
		}
	}
}
