{
	 "smiles": "CCOP(=O)(OCC)SCC[N+](C)(C)C", 
	 "Tm": 411.15, 
	 "num_atms": 38, 
	 "gaussian": { 
		 "optdone": 1, 
		 "sigma_profile": "yes", 
		 "theory": "DFT", 
		 "functional": "B3LYP", 
		 "basiset": "6-31G**", 
		 "properties": { 
			 "R2extent": 5266.1582, 
			 "electric_dipole_moment_norm": 8.41421506084, 
			 "electric_quadrupole_moment_norm": 39.5180915135, 
			 "total_energy": -1376.63785154, 
			 "HOMO_LUMO_gap": 0.25016, 
			 "cosmo_polarized_energy": -56.72, 
			 "cosmo_cavitation_energy": 40.58, 
			 "cosmo_dispersion_energy": -28.06, 
			 "cosmo_repulsion_energy": 2.17, 
			 "cosmo_total_nonelectrostatic_energy": 14.7, 
			 "SMD_solvation_energy": 8.91 
		},
		"coords": [
			{
				"x": 4.0959549751,
				"y": -2.4067748932,
				"z": -0.503127458,
				"element": "C" 
			},
			{
				"x": 2.9710862836,
				"y": -1.6803726686,
				"z": -1.2118844577,
				"element": "C" 
			},
			{
				"x": 1.801675348,
				"y": -1.7080040828,
				"z": -0.3345407167,
				"element": "O" 
			},
			{
				"x": 0.3715531932,
				"y": -1.1233883853,
				"z": -0.7607214247,
				"element": "P" 
			},
			{
				"x": -0.6153882608,
				"y": -1.3463778124,
				"z": 0.3351746588,
				"element": "O" 
			},
			{
				"x": 0.0481381333,
				"y": -1.6650901061,
				"z": -2.2264872722,
				"element": "O" 
			},
			{
				"x": -0.2445437123,
				"y": -3.0879787547,
				"z": -2.4662239247,
				"element": "C" 
			},
			{
				"x": -1.7258433082,
				"y": -3.3699889672,
				"z": -2.3077501982,
				"element": "C" 
			},
			{
				"x": 0.5912453953,
				"y": 0.9354779969,
				"z": -1.2442942549,
				"element": "S" 
			},
			{
				"x": 0.2785543332,
				"y": 1.5771677955,
				"z": 0.4604186731,
				"element": "C" 
			},
			{
				"x": -1.2267438593,
				"y": 1.5731717558,
				"z": 0.7408975343,
				"element": "C" 
			},
			{
				"x": -1.6175630642,
				"y": 1.6631844986,
				"z": 2.2219743599,
				"element": "N" 
			},
			{
				"x": -1.0428745548,
				"y": 0.4956516569,
				"z": 2.9973094923,
				"element": "C" 
			},
			{
				"x": -1.1597896908,
				"y": 2.9609292603,
				"z": 2.8284171472,
				"element": "C" 
			},
			{
				"x": -3.1226013471,
				"y": 1.5877275719,
				"z": 2.2917769816,
				"element": "C" 
			},
			{
				"x": 3.8245864189,
				"y": -3.445983324,
				"z": -0.3004378726,
				"element": "H" 
			},
			{
				"x": 4.9885888595,
				"y": -2.3996292272,
				"z": -1.135814897,
				"element": "H" 
			},
			{
				"x": 4.3408830575,
				"y": -1.9189085753,
				"z": 0.4438808294,
				"element": "H" 
			},
			{
				"x": 3.2267625127,
				"y": -0.6343466255,
				"z": -1.411014202,
				"element": "H" 
			},
			{
				"x": 2.7106847813,
				"y": -2.1614116005,
				"z": -2.1593990584,
				"element": "H" 
			},
			{
				"x": 0.3641539718,
				"y": -3.6958513589,
				"z": -1.7894958371,
				"element": "H" 
			},
			{
				"x": 0.0972728547,
				"y": -3.2586311721,
				"z": -3.4886230968,
				"element": "H" 
			},
			{
				"x": -1.9234543795,
				"y": -4.4175745949,
				"z": -2.5567581433,
				"element": "H" 
			},
			{
				"x": -2.0496328492,
				"y": -3.1904122282,
				"z": -1.2797382658,
				"element": "H" 
			},
			{
				"x": -2.312572259,
				"y": -2.7408114685,
				"z": -2.982168267,
				"element": "H" 
			},
			{
				"x": 0.7006650426,
				"y": 2.5842224468,
				"z": 0.4691909009,
				"element": "H" 
			},
			{
				"x": 0.837605336,
				"y": 0.966269885,
				"z": 1.1697294986,
				"element": "H" 
			},
			{
				"x": -1.6554581034,
				"y": 0.6342375091,
				"z": 0.3947342924,
				"element": "H" 
			},
			{
				"x": -1.7167072797,
				"y": 2.4121728393,
				"z": 0.2414506968,
				"element": "H" 
			},
			{
				"x": -1.1836939581,
				"y": -0.4157419075,
				"z": 2.4141235781,
				"element": "H" 
			},
			{
				"x": -1.5519526262,
				"y": 0.4411240076,
				"z": 3.9599487105,
				"element": "H" 
			},
			{
				"x": 0.0205121555,
				"y": 0.6621777384,
				"z": 3.1613292054,
				"element": "H" 
			},
			{
				"x": -1.6138608154,
				"y": 3.788705582,
				"z": 2.2820046857,
				"element": "H" 
			},
			{
				"x": -0.0738848642,
				"y": 3.0240353246,
				"z": 2.7671917362,
				"element": "H" 
			},
			{
				"x": -1.4696286044,
				"y": 2.9910522138,
				"z": 3.8738220507,
				"element": "H" 
			},
			{
				"x": -3.442798077,
				"y": 0.622298473,
				"z": 1.8995288928,
				"element": "H" 
			},
			{
				"x": -3.4336757067,
				"y": 1.6906840929,
				"z": 3.3318347295,
				"element": "H" 
			},
			{
				"x": -3.5477553321,
				"y": 2.3944871047,
				"z": 1.6939406929,
				"element": "H" 
			}
		],
		 "valence_orbital": [ 
			{
				"type": "occ",
				"energy": -0.42397,
				"method": "rhf"
			},
			{
				"type": "occ",
				"energy": -0.41692,
				"method": "rhf"
			},
			{
				"type": "occ",
				"energy": -0.40481,
				"method": "rhf"
			},
			{
				"type": "occ",
				"energy": -0.40022,
				"method": "rhf"
			},
			{
				"type": "occ",
				"energy": -0.37186,
				"method": "rhf"
			},
			{
				"type": "unocc",
				"energy": -0.1217,
				"method": "rhf"
			},
			{
				"type": "unocc",
				"energy": -0.09652,
				"method": "rhf"
			},
			{
				"type": "unocc",
				"energy": -0.07967,
				"method": "rhf"
			},
			{
				"type": "unocc",
				"energy": -0.05354,
				"method": "rhf"
			},
			{
				"type": "unocc",
				"energy": -0.04619,
				"method": "rhf"
			}
		],
		"cosmo_sigma_profile": { 
			"-0.025": 0.0,
			"-0.024": 0.0,
			"-0.023": 0.0,
			"-0.022": 0.0,
			"-0.021": 0.0,
			"-0.02": 0.0,
			"-0.019": 0.0,
			"-0.018": 0.0,
			"-0.017": 0.0,
			"-0.016": 0.0,
			"-0.015": 0.0,
			"-0.014": 0.13272551126,
			"-0.013": 1.39629752167,
			"-0.012": 2.39712508282,
			"-0.011": 4.98149759002,
			"-0.01": 7.66718569663,
			"-0.009": 18.5023857895,
			"-0.008": 22.337749922,
			"-0.007": 20.5084584169,
			"-0.006": 27.8215525697,
			"-0.005": 39.2340870143,
			"-0.004": 32.9779364303,
			"-0.003": 22.1216583966,
			"-0.002": 19.169040849,
			"-0.001": 19.7450686363,
			"0.0": 15.9509029354,
			"0.001": 8.87996995461,
			"0.002": 7.01940741872,
			"0.003": 9.06501730298,
			"0.004": 7.01256089567,
			"0.005": 5.85327363351,
			"0.006": 5.40101121257,
			"0.007": 3.59963383162,
			"0.008": 3.36287479418,
			"0.009": 2.5145421737,
			"0.01": 2.43577655025,
			"0.011": 1.50818205747,
			"0.012": 1.43246112931,
			"0.013": 1.02214242897,
			"0.014": 0.22973406524,
			"0.015": 0.0,
			"0.016": 0.0,
			"0.017": 0.0,
			"0.018": 0.0,
			"0.019": 0.0,
			"0.02": 0.0,
			"0.021": 0.0,
			"0.022": 0.0,
			"0.023": 0.0,
			"0.024": 0.0,
			"0.025": 0.0
		}
	}
}
