{
	 "smiles": "CCCS(=O)(=O)NC1=C(C=CC=C1)C(O)=O", 
	 "Tm": 424.15, 
	 "num_atms": 29, 
	 "gaussian": { 
		 "optdone": 1, 
		 "sigma_profile": "yes", 
		 "theory": "DFT", 
		 "functional": "B3LYP", 
		 "basiset": "6-31G**", 
		 "properties": { 
			 "R2extent": 4559.4663, 
			 "electric_dipole_moment_norm": 6.96503264099, 
			 "electric_quadrupole_moment_norm": 15.4323693508, 
			 "total_energy": -1142.69102883, 
			 "HOMO_LUMO_gap": 0.17662, 
			 "cosmo_polarized_energy": -21.34, 
			 "cosmo_cavitation_energy": 33.84, 
			 "cosmo_dispersion_energy": -24.59, 
			 "cosmo_repulsion_energy": 1.89, 
			 "cosmo_total_nonelectrostatic_energy": 11.13, 
			 "SMD_solvation_energy": 5.86 
		},
		"coords": [
			{
				"x": 3.4810501246,
				"y": 2.9184112546,
				"z": -0.8231452742,
				"element": "C" 
			},
			{
				"x": 2.7800276182,
				"y": 1.8818379425,
				"z": -1.7083258999,
				"element": "C" 
			},
			{
				"x": 1.5589804277,
				"y": 1.2784541184,
				"z": -1.007890669,
				"element": "C" 
			},
			{
				"x": 0.7212704333,
				"y": 0.0592015041,
				"z": -2.0617293772,
				"element": "S" 
			},
			{
				"x": 0.0616401559,
				"y": 0.7595838971,
				"z": -3.1615045022,
				"element": "O" 
			},
			{
				"x": 1.6617822008,
				"y": -1.0368646655,
				"z": -2.3107942668,
				"element": "O" 
			},
			{
				"x": -0.5502784386,
				"y": -0.5068498219,
				"z": -1.1034227414,
				"element": "N" 
			},
			{
				"x": -0.467090108,
				"y": -1.2677428678,
				"z": 0.0660636896,
				"element": "C" 
			},
			{
				"x": -1.4836334117,
				"y": -1.1433242283,
				"z": 1.0574529134,
				"element": "C" 
			},
			{
				"x": -1.4392259288,
				"y": -1.9876511951,
				"z": 2.1826947151,
				"element": "C" 
			},
			{
				"x": -0.4049610708,
				"y": -2.8904524896,
				"z": 2.3804627994,
				"element": "C" 
			},
			{
				"x": 0.613311605,
				"y": -2.9677000167,
				"z": 1.4250411601,
				"element": "C" 
			},
			{
				"x": 0.5818521612,
				"y": -2.1827992783,
				"z": 0.2796044483,
				"element": "C" 
			},
			{
				"x": -2.5789519175,
				"y": -0.1467285333,
				"z": 0.8989227216,
				"element": "C" 
			},
			{
				"x": -3.2926741739,
				"y": 0.1784747902,
				"z": 2.0028217742,
				"element": "O" 
			},
			{
				"x": -2.8641549426,
				"y": 0.4011000371,
				"z": -0.1530766485,
				"element": "O" 
			},
			{
				"x": 3.832568657,
				"y": 2.4724235497,
				"z": 0.1138029635,
				"element": "H" 
			},
			{
				"x": 4.3498980874,
				"y": 3.3387335109,
				"z": -1.3382472982,
				"element": "H" 
			},
			{
				"x": 2.8108534138,
				"y": 3.7469275676,
				"z": -0.5695787758,
				"element": "H" 
			},
			{
				"x": 3.4726886678,
				"y": 1.0756309782,
				"z": -1.9704996334,
				"element": "H" 
			},
			{
				"x": 2.4572376565,
				"y": 2.3446914364,
				"z": -2.6468819824,
				"element": "H" 
			},
			{
				"x": 0.8061899628,
				"y": 2.0364556191,
				"z": -0.7712070853,
				"element": "H" 
			},
			{
				"x": 1.8352949461,
				"y": 0.7521191621,
				"z": -0.0883621031,
				"element": "H" 
			},
			{
				"x": -1.4160851462,
				"y": 0.0320121053,
				"z": -1.2030727952,
				"element": "H" 
			},
			{
				"x": -2.2533280415,
				"y": -1.9677874405,
				"z": 2.9033421071,
				"element": "H" 
			},
			{
				"x": -0.397972861,
				"y": -3.5342158222,
				"z": 3.2535093091,
				"element": "H" 
			},
			{
				"x": 1.4298711323,
				"y": -3.6713547241,
				"z": 1.5582540292,
				"element": "H" 
			},
			{
				"x": 1.3468656236,
				"y": -2.2865506399,
				"z": -0.4791879775,
				"element": "H" 
			},
			{
				"x": -2.8721268333,
				"y": -0.18003575,
				"z": 2.7959543996,
				"element": "H" 
			}
		],
		 "valence_orbital": [ 
			{
				"type": "occ",
				"energy": -0.30691,
				"method": "rhf"
			},
			{
				"type": "occ",
				"energy": -0.30527,
				"method": "rhf"
			},
			{
				"type": "occ",
				"energy": -0.28945,
				"method": "rhf"
			},
			{
				"type": "occ",
				"energy": -0.28063,
				"method": "rhf"
			},
			{
				"type": "occ",
				"energy": -0.24176,
				"method": "rhf"
			},
			{
				"type": "unocc",
				"energy": -0.06514,
				"method": "rhf"
			},
			{
				"type": "unocc",
				"energy": -0.0269,
				"method": "rhf"
			},
			{
				"type": "unocc",
				"energy": 0.0331,
				"method": "rhf"
			},
			{
				"type": "unocc",
				"energy": 0.04915,
				"method": "rhf"
			},
			{
				"type": "unocc",
				"energy": 0.0618,
				"method": "rhf"
			}
		],
		"cosmo_sigma_profile": { 
			"-0.025": 0.0,
			"-0.024": 0.0,
			"-0.023": 0.0,
			"-0.022": 0.0,
			"-0.021": 0.0,
			"-0.02": 0.0,
			"-0.019": 0.885990937793,
			"-0.018": 0.484633331102,
			"-0.017": 1.10150669488,
			"-0.016": 0.816550469562,
			"-0.015": 0.768086198626,
			"-0.014": 1.29929639612,
			"-0.013": 1.25998948673,
			"-0.012": 0.880755379625,
			"-0.011": 0.941116570933,
			"-0.01": 1.43376266617,
			"-0.009": 2.51884375405,
			"-0.008": 3.72041549949,
			"-0.007": 8.33761474641,
			"-0.006": 14.0981248121,
			"-0.005": 16.6047368668,
			"-0.004": 20.7852999599,
			"-0.003": 21.4567006622,
			"-0.002": 21.2470516702,
			"-0.001": 21.6848759201,
			"0.0": 18.4039936844,
			"0.001": 15.5720638244,
			"0.002": 15.2415487729,
			"0.003": 14.8411365308,
			"0.004": 8.89374012859,
			"0.005": 5.16790427269,
			"0.006": 4.32649703751,
			"0.007": 4.61755912523,
			"0.008": 6.65248963859,
			"0.009": 7.653674869,
			"0.01": 10.9731404415,
			"0.011": 11.6227527237,
			"0.012": 3.96816665943,
			"0.013": 0.430807808523,
			"0.014": 0.0,
			"0.015": 0.0,
			"0.016": 0.0,
			"0.017": 0.0,
			"0.018": 0.0,
			"0.019": 0.0,
			"0.02": 0.0,
			"0.021": 0.0,
			"0.022": 0.0,
			"0.023": 0.0,
			"0.024": 0.0,
			"0.025": 0.0
		}
	}
}
