{
	 "smiles": "CC1(CCCC2=C1C=CC=C2)C(O)=O", 
	 "Tm": 387.15, 
	 "num_atms": 28, 
	 "gaussian": { 
		 "optdone": 1, 
		 "sigma_profile": "yes", 
		 "theory": "DFT", 
		 "functional": "B3LYP", 
		 "basiset": "6-31G**", 
		 "properties": { 
			 "R2extent": 2852.3922, 
			 "electric_dipole_moment_norm": 4.65187273902, 
			 "electric_quadrupole_moment_norm": 15.9063328121, 
			 "total_energy": -616.189211337, 
			 "HOMO_LUMO_gap": 0.22857, 
			 "cosmo_polarized_energy": -11.62, 
			 "cosmo_cavitation_energy": 28.93, 
			 "cosmo_dispersion_energy": -20.9, 
			 "cosmo_repulsion_energy": 1.62, 
			 "cosmo_total_nonelectrostatic_energy": 9.65, 
			 "SMD_solvation_energy": 5.36 
		},
		"coords": [
			{
				"x": -0.975218122,
				"y": -2.7759875815,
				"z": -1.3092718679,
				"element": "C" 
			},
			{
				"x": -0.8798476266,
				"y": -1.7987773437,
				"z": -0.1186934911,
				"element": "C" 
			},
			{
				"x": -0.4654158185,
				"y": -2.5640186615,
				"z": 1.1745653377,
				"element": "C" 
			},
			{
				"x": 1.0358940973,
				"y": -2.8554271741,
				"z": 1.2188098702,
				"element": "C" 
			},
			{
				"x": 1.8201656752,
				"y": -1.541562498,
				"z": 1.2482449928,
				"element": "C" 
			},
			{
				"x": 1.3706683907,
				"y": -0.5649123215,
				"z": 0.1768514084,
				"element": "C" 
			},
			{
				"x": 0.1068108631,
				"y": -0.6652824713,
				"z": -0.4395622039,
				"element": "C" 
			},
			{
				"x": -0.2442203091,
				"y": 0.2811731557,
				"z": -1.4213135728,
				"element": "C" 
			},
			{
				"x": 0.6186158798,
				"y": 1.3104178267,
				"z": -1.7847720734,
				"element": "C" 
			},
			{
				"x": 1.8694544779,
				"y": 1.4075849552,
				"z": -1.1708112341,
				"element": "C" 
			},
			{
				"x": 2.2328179183,
				"y": 0.474907571,
				"z": -0.2044367346,
				"element": "C" 
			},
			{
				"x": -2.2975354916,
				"y": -1.2521605499,
				"z": 0.1772205063,
				"element": "C" 
			},
			{
				"x": -2.3584069625,
				"y": -0.0682054258,
				"z": 0.8382945454,
				"element": "O" 
			},
			{
				"x": -3.3117824491,
				"y": -1.8560838443,
				"z": -0.0748771129,
				"element": "O" 
			},
			{
				"x": -1.7409238795,
				"y": -3.5290270938,
				"z": -1.1123312605,
				"element": "H" 
			},
			{
				"x": -1.249077215,
				"y": -2.2507849554,
				"z": -2.2281169472,
				"element": "H" 
			},
			{
				"x": -0.0152491007,
				"y": -3.2699943986,
				"z": -1.4809111223,
				"element": "H" 
			},
			{
				"x": -1.0546300161,
				"y": -3.4842869915,
				"z": 1.2352812573,
				"element": "H" 
			},
			{
				"x": -0.7306630054,
				"y": -1.9626624303,
				"z": 2.054465749,
				"element": "H" 
			},
			{
				"x": 1.2743450387,
				"y": -3.4560120062,
				"z": 2.1034467116,
				"element": "H" 
			},
			{
				"x": 1.3331570835,
				"y": -3.4497581332,
				"z": 0.3466917192,
				"element": "H" 
			},
			{
				"x": 1.6929231945,
				"y": -1.0716364886,
				"z": 2.2350263187,
				"element": "H" 
			},
			{
				"x": 2.8951337211,
				"y": -1.7277238221,
				"z": 1.1425809917,
				"element": "H" 
			},
			{
				"x": -1.2152670556,
				"y": 0.2071068819,
				"z": -1.9052469256,
				"element": "H" 
			},
			{
				"x": 0.3188971103,
				"y": 2.0281260513,
				"z": -2.5425732565,
				"element": "H" 
			},
			{
				"x": 2.5567449449,
				"y": 2.2020260901,
				"z": -1.4468913216,
				"element": "H" 
			},
			{
				"x": 3.2089719644,
				"y": 0.5445266414,
				"z": 0.2701359589,
				"element": "H" 
			},
			{
				"x": -1.4727633081,
				"y": 0.327935018,
				"z": 0.8648937573,
				"element": "H" 
			}
		],
		 "valence_orbital": [ 
			{
				"type": "occ",
				"energy": -0.31879,
				"method": "rhf"
			},
			{
				"type": "occ",
				"energy": -0.30609,
				"method": "rhf"
			},
			{
				"type": "occ",
				"energy": -0.26983,
				"method": "rhf"
			},
			{
				"type": "occ",
				"energy": -0.25429,
				"method": "rhf"
			},
			{
				"type": "occ",
				"energy": -0.24772,
				"method": "rhf"
			},
			{
				"type": "unocc",
				"energy": -0.01915,
				"method": "rhf"
			},
			{
				"type": "unocc",
				"energy": -0.01383,
				"method": "rhf"
			},
			{
				"type": "unocc",
				"energy": 0.01462,
				"method": "rhf"
			},
			{
				"type": "unocc",
				"energy": 0.07533,
				"method": "rhf"
			},
			{
				"type": "unocc",
				"energy": 0.09297,
				"method": "rhf"
			}
		],
		"cosmo_sigma_profile": { 
			"-0.025": 0.0,
			"-0.024": 0.0,
			"-0.023": 0.0,
			"-0.022": 0.0,
			"-0.021": 0.0,
			"-0.02": 0.0,
			"-0.019": 0.0,
			"-0.018": 0.0,
			"-0.017": 0.0,
			"-0.016": 0.0,
			"-0.015": 0.327325791426,
			"-0.014": 0.733895451085,
			"-0.013": 0.795214081489,
			"-0.012": 0.0512864008556,
			"-0.011": 1.23368379737,
			"-0.01": 1.37166886436,
			"-0.009": 0.869510527147,
			"-0.008": 0.884106395576,
			"-0.007": 1.7154636774,
			"-0.006": 6.71723297562,
			"-0.005": 11.0199583762,
			"-0.004": 22.2822053564,
			"-0.003": 28.3839192854,
			"-0.002": 26.1936758838,
			"-0.001": 27.4890395829,
			"0.0": 20.1243682138,
			"0.001": 11.4653366362,
			"0.002": 8.94750266694,
			"0.003": 7.86414919887,
			"0.004": 9.0200620049,
			"0.005": 8.8917473533,
			"0.006": 4.87408048801,
			"0.007": 2.57328104998,
			"0.008": 2.54525717242,
			"0.009": 3.1691617134,
			"0.01": 4.47938110596,
			"0.011": 5.34276005805,
			"0.012": 5.37582887723,
			"0.013": 2.05974344417,
			"0.014": 0.198701741722,
			"0.015": 0.0,
			"0.016": 0.0,
			"0.017": 0.0,
			"0.018": 0.0,
			"0.019": 0.0,
			"0.02": 0.0,
			"0.021": 0.0,
			"0.022": 0.0,
			"0.023": 0.0,
			"0.024": 0.0,
			"0.025": 0.0
		}
	}
}
