{
	 "smiles": "CSC1=NC(N)=NC(=N1)C1=CC=NC=C1", 
	 "Tm": 509.15, 
	 "num_atms": 24, 
	 "gaussian": { 
		 "optdone": 1, 
		 "sigma_profile": "yes", 
		 "theory": "DFT", 
		 "functional": "B3LYP", 
		 "basiset": "6-31G**", 
		 "properties": { 
			 "R2extent": 4336.1058, 
			 "electric_dipole_moment_norm": 2.32062693253, 
			 "electric_quadrupole_moment_norm": 23.4685676487, 
			 "total_energy": -1020.35402542, 
			 "HOMO_LUMO_gap": 0.1707, 
			 "cosmo_polarized_energy": -13.25, 
			 "cosmo_cavitation_energy": 30.69, 
			 "cosmo_dispersion_energy": -23.0, 
			 "cosmo_repulsion_energy": 1.76, 
			 "cosmo_total_nonelectrostatic_energy": 9.45, 
			 "SMD_solvation_energy": 0.74 
		},
		"coords": [
			{
				"x": -0.1763701803,
				"y": -3.0174831865,
				"z": 2.4963250948,
				"element": "C" 
			},
			{
				"x": 1.1986557304,
				"y": -2.0407894471,
				"z": 3.1919285381,
				"element": "S" 
			},
			{
				"x": 1.4254809036,
				"y": -0.8014054786,
				"z": 1.9517699429,
				"element": "C" 
			},
			{
				"x": 2.4006665708,
				"y": 0.0673749221,
				"z": 2.2233566205,
				"element": "N" 
			},
			{
				"x": 2.5714290786,
				"y": 1.0088218663,
				"z": 1.2786552541,
				"element": "C" 
			},
			{
				"x": 3.5417071458,
				"y": 1.9248577222,
				"z": 1.4824366849,
				"element": "N" 
			},
			{
				"x": 1.8523830733,
				"y": 1.1152862077,
				"z": 0.1400466249,
				"element": "N" 
			},
			{
				"x": 0.9086942859,
				"y": 0.1851289708,
				"z": -0.010002805,
				"element": "C" 
			},
			{
				"x": 0.6453811866,
				"y": -0.8036980596,
				"z": 0.8642877403,
				"element": "N" 
			},
			{
				"x": 0.0783353254,
				"y": 0.2433455317,
				"z": -1.2431873109,
				"element": "C" 
			},
			{
				"x": -0.9347082806,
				"y": -0.6934238951,
				"z": -1.4777254374,
				"element": "C" 
			},
			{
				"x": -1.6820995157,
				"y": -0.5913300216,
				"z": -2.6499805623,
				"element": "C" 
			},
			{
				"x": -1.4917637028,
				"y": 0.3560411005,
				"z": -3.5778511573,
				"element": "N" 
			},
			{
				"x": -0.5192723371,
				"y": 1.2475179564,
				"z": -3.3430579557,
				"element": "C" 
			},
			{
				"x": 0.2863782661,
				"y": 1.2380900189,
				"z": -2.2059540723,
				"element": "C" 
			},
			{
				"x": 0.1039959725,
				"y": -3.4528558431,
				"z": 1.5370409133,
				"element": "H" 
			},
			{
				"x": -0.3692632611,
				"y": -3.810518915,
				"z": 3.222160383,
				"element": "H" 
			},
			{
				"x": -1.0671963992,
				"y": -2.4009340761,
				"z": 2.3751513902,
				"element": "H" 
			},
			{
				"x": 3.6938620831,
				"y": 2.6446345427,
				"z": 0.7964238939,
				"element": "H" 
			},
			{
				"x": 4.0960130666,
				"y": 1.878435428,
				"z": 2.3209177927,
				"element": "H" 
			},
			{
				"x": -1.1250784364,
				"y": -1.4778934585,
				"z": -0.7553088404,
				"element": "H" 
			},
			{
				"x": -2.475389592,
				"y": -1.3082748997,
				"z": -2.8543950364,
				"element": "H" 
			},
			{
				"x": -0.3764112084,
				"y": 2.0110572894,
				"z": -4.1057334604,
				"element": "H" 
			},
			{
				"x": 1.0616702248,
				"y": 1.980415724,
				"z": -2.0584042356,
				"element": "H" 
			}
		],
		 "valence_orbital": [ 
			{
				"type": "occ",
				"energy": -0.2704,
				"method": "rhf"
			},
			{
				"type": "occ",
				"energy": -0.26378,
				"method": "rhf"
			},
			{
				"type": "occ",
				"energy": -0.25817,
				"method": "rhf"
			},
			{
				"type": "occ",
				"energy": -0.25475,
				"method": "rhf"
			},
			{
				"type": "occ",
				"energy": -0.24083,
				"method": "rhf"
			},
			{
				"type": "unocc",
				"energy": -0.07013,
				"method": "rhf"
			},
			{
				"type": "unocc",
				"energy": -0.02369,
				"method": "rhf"
			},
			{
				"type": "unocc",
				"energy": -0.00626,
				"method": "rhf"
			},
			{
				"type": "unocc",
				"energy": 0.01823,
				"method": "rhf"
			},
			{
				"type": "unocc",
				"energy": 0.03366,
				"method": "rhf"
			}
		],
		"cosmo_sigma_profile": { 
			"-0.025": 0.0,
			"-0.024": 0.0,
			"-0.023": 0.0,
			"-0.022": 0.0,
			"-0.021": 0.0,
			"-0.02": 0.0,
			"-0.019": 0.0,
			"-0.018": 0.0,
			"-0.017": 0.0,
			"-0.016": 0.0,
			"-0.015": 1.00975427478,
			"-0.014": 2.39691693318,
			"-0.013": 2.51016208492,
			"-0.012": 1.40369531372,
			"-0.011": 2.05612015319,
			"-0.01": 1.73443095081,
			"-0.009": 2.29672678146,
			"-0.008": 1.82673420886,
			"-0.007": 4.93954765819,
			"-0.006": 11.501566268,
			"-0.005": 13.3474436819,
			"-0.004": 15.0554775312,
			"-0.003": 13.9311997497,
			"-0.002": 18.343041159,
			"-0.001": 17.842928347,
			"0.0": 17.9174655179,
			"0.001": 25.0881728414,
			"0.002": 24.5579946963,
			"0.003": 13.3784688913,
			"0.004": 13.4297583797,
			"0.005": 11.8910523188,
			"0.006": 8.98490260329,
			"0.007": 6.74499718932,
			"0.008": 4.00068736848,
			"0.009": 3.59919722718,
			"0.01": 1.33694247065,
			"0.011": 1.07940045607,
			"0.012": 2.21945467661,
			"0.013": 1.42734630734,
			"0.014": 0.755325449174,
			"0.015": 0.712497877592,
			"0.016": 0.922452076988,
			"0.017": 0.10635078406,
			"0.018": 0.0,
			"0.019": 0.0,
			"0.02": 0.0,
			"0.021": 0.0,
			"0.022": 0.0,
			"0.023": 0.0,
			"0.024": 0.0,
			"0.025": 0.0
		}
	}
}
