{
	 "smiles": "NC1=CC(=CC=C1)S(=O)(=O)N1CCOCC1", 
	 "Tm": 407.15, 
	 "num_atms": 30, 
	 "gaussian": { 
		 "optdone": 1, 
		 "sigma_profile": "yes", 
		 "theory": "DFT", 
		 "functional": "B3LYP", 
		 "basiset": "6-31G**", 
		 "properties": { 
			 "R2extent": 3911.7996, 
			 "electric_dipole_moment_norm": 5.85280067062, 
			 "electric_quadrupole_moment_norm": 23.7849618186, 
			 "total_energy": -1122.77011368, 
			 "HOMO_LUMO_gap": 0.18798, 
			 "cosmo_polarized_energy": -20.07, 
			 "cosmo_cavitation_energy": 33.22, 
			 "cosmo_dispersion_energy": -24.27, 
			 "cosmo_repulsion_energy": 1.86, 
			 "cosmo_total_nonelectrostatic_energy": 10.81, 
			 "SMD_solvation_energy": 3.52 
		},
		"coords": [
			{
				"x": -0.6065349713,
				"y": -4.1700698231,
				"z": -0.5476434397,
				"element": "N" 
			},
			{
				"x": -0.3743085485,
				"y": -3.1120125917,
				"z": 0.3218994452,
				"element": "C" 
			},
			{
				"x": 0.4195844689,
				"y": -2.0209468686,
				"z": -0.0752129167,
				"element": "C" 
			},
			{
				"x": 0.6961090573,
				"y": -1.0015073762,
				"z": 0.8344167677,
				"element": "C" 
			},
			{
				"x": 0.21532311,
				"y": -1.026980138,
				"z": 2.1465463637,
				"element": "C" 
			},
			{
				"x": -0.5750972721,
				"y": -2.1113028404,
				"z": 2.531544543,
				"element": "C" 
			},
			{
				"x": -0.8744538007,
				"y": -3.1357697066,
				"z": 1.6373717657,
				"element": "C" 
			},
			{
				"x": 1.6574363332,
				"y": 0.4151257543,
				"z": 0.2760702126,
				"element": "S" 
			},
			{
				"x": 2.4281290661,
				"y": -0.0150155679,
				"z": -0.8931764916,
				"element": "O" 
			},
			{
				"x": 2.2831852652,
				"y": 1.0139121382,
				"z": 1.4571207752,
				"element": "O" 
			},
			{
				"x": 0.5606773829,
				"y": 1.5505254716,
				"z": -0.2978958497,
				"element": "N" 
			},
			{
				"x": -0.1373711042,
				"y": 1.2404122347,
				"z": -1.5588360682,
				"element": "C" 
			},
			{
				"x": -1.118488046,
				"y": 2.3709673615,
				"z": -1.8528805431,
				"element": "C" 
			},
			{
				"x": -2.1232148011,
				"y": 2.5046419596,
				"z": -0.8528874314,
				"element": "O" 
			},
			{
				"x": -1.6923217299,
				"y": 2.1962311961,
				"z": 0.4734957236,
				"element": "C" 
			},
			{
				"x": -0.1897460066,
				"y": 2.3839574292,
				"z": 0.6621063067,
				"element": "C" 
			},
			{
				"x": -1.4134320454,
				"y": -4.7435304692,
				"z": -0.3491569002,
				"element": "H" 
			},
			{
				"x": -0.4941321475,
				"y": -3.9740033336,
				"z": -1.5316249972,
				"element": "H" 
			},
			{
				"x": 0.8531441411,
				"y": -1.9849539603,
				"z": -1.069338936,
				"element": "H" 
			},
			{
				"x": 0.4855935832,
				"y": -0.2451093073,
				"z": 2.8458510367,
				"element": "H" 
			},
			{
				"x": -0.9576183474,
				"y": -2.1639721146,
				"z": 3.5467550687,
				"element": "H" 
			},
			{
				"x": -1.4848783283,
				"y": -3.9755418886,
				"z": 1.9595411967,
				"element": "H" 
			},
			{
				"x": 0.5977627331,
				"y": 1.154333972,
				"z": -2.3626265293,
				"element": "H" 
			},
			{
				"x": -0.6910874237,
				"y": 0.2911040197,
				"z": -1.4942879934,
				"element": "H" 
			},
			{
				"x": -0.5623712846,
				"y": 3.3133555655,
				"z": -1.9721430739,
				"element": "H" 
			},
			{
				"x": -1.6381913139,
				"y": 2.1689946399,
				"z": -2.794655019,
				"element": "H" 
			},
			{
				"x": -2.2401431548,
				"y": 2.8606370955,
				"z": 1.151049547,
				"element": "H" 
			},
			{
				"x": -1.9652274402,
				"y": 1.1601028716,
				"z": 0.7243867958,
				"element": "H" 
			},
			{
				"x": 0.1066453408,
				"y": 2.1268546779,
				"z": 1.6806780377,
				"element": "H" 
			},
			{
				"x": 0.081427284,
				"y": 3.4354595987,
				"z": 0.5082326034,
				"element": "H" 
			}
		],
		 "valence_orbital": [ 
			{
				"type": "occ",
				"energy": -0.29432,
				"method": "rhf"
			},
			{
				"type": "occ",
				"energy": -0.27285,
				"method": "rhf"
			},
			{
				"type": "occ",
				"energy": -0.25814,
				"method": "rhf"
			},
			{
				"type": "occ",
				"energy": -0.24674,
				"method": "rhf"
			},
			{
				"type": "occ",
				"energy": -0.21989,
				"method": "rhf"
			},
			{
				"type": "unocc",
				"energy": -0.03191,
				"method": "rhf"
			},
			{
				"type": "unocc",
				"energy": -0.00586,
				"method": "rhf"
			},
			{
				"type": "unocc",
				"energy": 0.05797,
				"method": "rhf"
			},
			{
				"type": "unocc",
				"energy": 0.06754,
				"method": "rhf"
			},
			{
				"type": "unocc",
				"energy": 0.08014,
				"method": "rhf"
			}
		],
		"cosmo_sigma_profile": { 
			"-0.025": 0.0,
			"-0.024": 0.0,
			"-0.023": 0.0,
			"-0.022": 0.0,
			"-0.021": 0.0,
			"-0.02": 0.0,
			"-0.019": 0.0,
			"-0.018": 0.0,
			"-0.017": 0.0,
			"-0.016": 0.0,
			"-0.015": 0.0,
			"-0.014": 0.00485369421766,
			"-0.013": 1.80418493299,
			"-0.012": 3.45916308399,
			"-0.011": 2.13769921497,
			"-0.01": 4.01753547455,
			"-0.009": 3.0679105121,
			"-0.008": 3.59005219222,
			"-0.007": 3.94666948559,
			"-0.006": 16.8547023709,
			"-0.005": 25.1463937928,
			"-0.004": 26.8050134416,
			"-0.003": 22.5437896783,
			"-0.002": 17.2749641069,
			"-0.001": 11.0115365175,
			"0.0": 10.1038379193,
			"0.001": 9.69251077554,
			"0.002": 11.2589296999,
			"0.003": 13.6750129983,
			"0.004": 16.3172836888,
			"0.005": 8.76412868817,
			"0.006": 5.72978450429,
			"0.007": 6.52999104999,
			"0.008": 5.68512120306,
			"0.009": 4.56067952431,
			"0.01": 8.77048468501,
			"0.011": 9.61330287378,
			"0.012": 6.99279579978,
			"0.013": 2.34253452954,
			"0.014": 0.183763166552,
			"0.015": 0.0,
			"0.016": 0.0,
			"0.017": 0.0,
			"0.018": 0.0,
			"0.019": 0.0,
			"0.02": 0.0,
			"0.021": 0.0,
			"0.022": 0.0,
			"0.023": 0.0,
			"0.024": 0.0,
			"0.025": 0.0
		}
	}
}
