{
	 "smiles": "OC(=O)CCCCCC1=CC=CC=C1", 
	 "Tm": 293.65, 
	 "num_atms": 30, 
	 "gaussian": { 
		 "optdone": 1, 
		 "sigma_profile": "yes", 
		 "theory": "DFT", 
		 "functional": "B3LYP", 
		 "basiset": "6-31G**", 
		 "properties": { 
			 "R2extent": 3689.2218, 
			 "electric_dipole_moment_norm": 4.22210332536, 
			 "electric_quadrupole_moment_norm": 11.188807634, 
			 "total_energy": -617.390283334, 
			 "HOMO_LUMO_gap": 0.23646, 
			 "cosmo_polarized_energy": -15.05, 
			 "cosmo_cavitation_energy": 32.26, 
			 "cosmo_dispersion_energy": -22.24, 
			 "cosmo_repulsion_energy": 1.77, 
			 "cosmo_total_nonelectrostatic_energy": 11.79, 
			 "SMD_solvation_energy": 5.68 
		},
		"coords": [
			{
				"x": 1.0451793501,
				"y": 1.8653889814,
				"z": -3.1907595257,
				"element": "O" 
			},
			{
				"x": 0.3442968865,
				"y": 0.7441655982,
				"z": -2.8656405759,
				"element": "C" 
			},
			{
				"x": 0.9260219807,
				"y": -0.2213537934,
				"z": -2.4338359272,
				"element": "O" 
			},
			{
				"x": -1.1627578458,
				"y": 0.8257876471,
				"z": -3.0620389515,
				"element": "C" 
			},
			{
				"x": -1.8480446962,
				"y": 1.8409247579,
				"z": -2.1173075817,
				"element": "C" 
			},
			{
				"x": -1.5086725307,
				"y": 1.6649708151,
				"z": -0.6275874966,
				"element": "C" 
			},
			{
				"x": -1.8093840277,
				"y": 0.2674585795,
				"z": -0.0691500897,
				"element": "C" 
			},
			{
				"x": -1.5506006003,
				"y": 0.1355808264,
				"z": 1.4435296108,
				"element": "C" 
			},
			{
				"x": -0.1297347342,
				"y": 0.4223042392,
				"z": 1.9020345638,
				"element": "C" 
			},
			{
				"x": 0.0920338792,
				"y": 1.1608890436,
				"z": 3.0726390072,
				"element": "C" 
			},
			{
				"x": 1.3842426278,
				"y": 1.4039779093,
				"z": 3.5412423118,
				"element": "C" 
			},
			{
				"x": 2.4856960451,
				"y": 0.9156613616,
				"z": 2.8374994941,
				"element": "C" 
			},
			{
				"x": 2.2808098088,
				"y": 0.1857402802,
				"z": 1.665086863,
				"element": "C" 
			},
			{
				"x": 0.9871802922,
				"y": -0.0608883767,
				"z": 1.2025480691,
				"element": "C" 
			},
			{
				"x": 0.4456002279,
				"y": 2.550213421,
				"z": -3.5193921918,
				"element": "H" 
			},
			{
				"x": -1.3768244193,
				"y": 1.0950434284,
				"z": -4.1048734801,
				"element": "H" 
			},
			{
				"x": -1.5544761751,
				"y": -0.1795035764,
				"z": -2.8999244071,
				"element": "H" 
			},
			{
				"x": -1.5876524988,
				"y": 2.8644293221,
				"z": -2.4214624687,
				"element": "H" 
			},
			{
				"x": -2.9311064467,
				"y": 1.7534919088,
				"z": -2.2682671987,
				"element": "H" 
			},
			{
				"x": -0.4492066949,
				"y": 1.8969330538,
				"z": -0.4651682311,
				"element": "H" 
			},
			{
				"x": -2.0721248085,
				"y": 2.4143954163,
				"z": -0.0560003509,
				"element": "H" 
			},
			{
				"x": -1.2125214768,
				"y": -0.4784954527,
				"z": -0.6049318424,
				"element": "H" 
			},
			{
				"x": -2.8611476,
				"y": 0.0139120358,
				"z": -0.2611596732,
				"element": "H" 
			},
			{
				"x": -2.2345690422,
				"y": 0.8011985218,
				"z": 1.9852540418,
				"element": "H" 
			},
			{
				"x": -1.824237851,
				"y": -0.8846539697,
				"z": 1.7476782096,
				"element": "H" 
			},
			{
				"x": -0.760805831,
				"y": 1.5486513245,
				"z": 3.6255297207,
				"element": "H" 
			},
			{
				"x": 1.5287913354,
				"y": 1.9786577876,
				"z": 4.4522085598,
				"element": "H" 
			},
			{
				"x": 3.4935554553,
				"y": 1.1061271345,
				"z": 3.1954762199,
				"element": "H" 
			},
			{
				"x": 3.1298214277,
				"y": -0.1918451472,
				"z": 1.1021957765,
				"element": "H" 
			},
			{
				"x": 0.8576379621,
				"y": -0.6187630777,
				"z": 0.2796775443,
				"element": "H" 
			}
		],
		 "valence_orbital": [ 
			{
				"type": "occ",
				"energy": -0.31631,
				"method": "rhf"
			},
			{
				"type": "occ",
				"energy": -0.31373,
				"method": "rhf"
			},
			{
				"type": "occ",
				"energy": -0.26894,
				"method": "rhf"
			},
			{
				"type": "occ",
				"energy": -0.23799,
				"method": "rhf"
			},
			{
				"type": "occ",
				"energy": -0.23054,
				"method": "rhf"
			},
			{
				"type": "unocc",
				"energy": 0.00592,
				"method": "rhf"
			},
			{
				"type": "unocc",
				"energy": 0.00864,
				"method": "rhf"
			},
			{
				"type": "unocc",
				"energy": 0.01091,
				"method": "rhf"
			},
			{
				"type": "unocc",
				"energy": 0.04254,
				"method": "rhf"
			},
			{
				"type": "unocc",
				"energy": 0.09501,
				"method": "rhf"
			}
		],
		"cosmo_sigma_profile": { 
			"-0.025": 0.0,
			"-0.024": 0.0,
			"-0.023": 0.0,
			"-0.022": 0.0,
			"-0.021": 0.0,
			"-0.02": 0.0,
			"-0.019": 0.0,
			"-0.018": 0.800378871786,
			"-0.017": 0.993068825616,
			"-0.016": 0.939965589071,
			"-0.015": 1.18196518286,
			"-0.014": 1.19514683032,
			"-0.013": 0.990964264871,
			"-0.012": 1.19520530679,
			"-0.011": 1.03314432579,
			"-0.01": 1.29528966422,
			"-0.009": 1.50162759216,
			"-0.008": 1.05296880246,
			"-0.007": 2.20150147641,
			"-0.006": 4.23470850752,
			"-0.005": 11.5910555527,
			"-0.004": 15.8577604198,
			"-0.003": 27.5112271085,
			"-0.002": 34.3853729032,
			"-0.001": 28.6029247277,
			"0.0": 20.6728888955,
			"0.001": 13.5614773559,
			"0.002": 11.9613152303,
			"0.003": 10.2475688063,
			"0.004": 11.2419282147,
			"0.005": 10.785683674,
			"0.006": 10.0113197624,
			"0.007": 7.54145203894,
			"0.008": 2.6309511977,
			"0.009": 2.80233851113,
			"0.01": 4.13103851378,
			"0.011": 5.01955744539,
			"0.012": 3.77144952726,
			"0.013": 1.88350798756,
			"0.014": 0.147528730364,
			"0.015": 0.0,
			"0.016": 0.0,
			"0.017": 0.0,
			"0.018": 0.0,
			"0.019": 0.0,
			"0.02": 0.0,
			"0.021": 0.0,
			"0.022": 0.0,
			"0.023": 0.0,
			"0.024": 0.0,
			"0.025": 0.0
		}
	}
}
