{
	 "smiles": "CC1=C(OCC(=O)NN)C=CC=C1", 
	 "Tm": 394.15, 
	 "num_atms": 25, 
	 "gaussian": { 
		 "optdone": 1, 
		 "sigma_profile": "yes", 
		 "theory": "DFT", 
		 "functional": "B3LYP", 
		 "basiset": "6-31G**", 
		 "properties": { 
			 "R2extent": 3607.8177, 
			 "electric_dipole_moment_norm": 1.83024687406, 
			 "electric_quadrupole_moment_norm": 7.31198012648, 
			 "total_energy": -610.117798586, 
			 "HOMO_LUMO_gap": 0.22055, 
			 "cosmo_polarized_energy": -12.66, 
			 "cosmo_cavitation_energy": 29.13, 
			 "cosmo_dispersion_energy": -20.89, 
			 "cosmo_repulsion_energy": 1.67, 
			 "cosmo_total_nonelectrostatic_energy": 9.91, 
			 "SMD_solvation_energy": 6.32 
		},
		"coords": [
			{
				"x": -1.5228638753,
				"y": -0.1299095081,
				"z": -1.1752785495,
				"element": "C" 
			},
			{
				"x": -0.9909363457,
				"y": -0.6724297276,
				"z": 0.1269007558,
				"element": "C" 
			},
			{
				"x": 0.0472363819,
				"y": -0.0014984221,
				"z": 0.8052296526,
				"element": "C" 
			},
			{
				"x": 0.5049917145,
				"y": 1.1414521306,
				"z": 0.1917901429,
				"element": "O" 
			},
			{
				"x": 1.5486977302,
				"y": 1.8808266463,
				"z": 0.8071517445,
				"element": "C" 
			},
			{
				"x": 1.9055377626,
				"y": 3.1071521662,
				"z": -0.0284161161,
				"element": "C" 
			},
			{
				"x": 2.7879193133,
				"y": 3.8727665851,
				"z": 0.3400911665,
				"element": "O" 
			},
			{
				"x": 1.1920134807,
				"y": 3.2736029015,
				"z": -1.1701508379,
				"element": "N" 
			},
			{
				"x": 1.413417593,
				"y": 4.3579695579,
				"z": -2.0387827468,
				"element": "N" 
			},
			{
				"x": 0.5537050587,
				"y": -0.4878556875,
				"z": 2.012401489,
				"element": "C" 
			},
			{
				"x": 0.0239342335,
				"y": -1.6604910605,
				"z": 2.5605821476,
				"element": "C" 
			},
			{
				"x": -1.0007155002,
				"y": -2.3395891734,
				"z": 1.9094259507,
				"element": "C" 
			},
			{
				"x": -1.4964205422,
				"y": -1.8390790634,
				"z": 0.7014056456,
				"element": "C" 
			},
			{
				"x": -2.3203899137,
				"y": -0.7675238702,
				"z": -1.5650379543,
				"element": "H" 
			},
			{
				"x": -1.9265181864,
				"y": 0.8818650795,
				"z": -1.0527244843,
				"element": "H" 
			},
			{
				"x": -0.7353197565,
				"y": -0.0686506042,
				"z": -1.9353257098,
				"element": "H" 
			},
			{
				"x": 1.256210526,
				"y": 2.2310742379,
				"z": 1.8055372526,
				"element": "H" 
			},
			{
				"x": 2.4578437947,
				"y": 1.2752548681,
				"z": 0.9157519754,
				"element": "H" 
			},
			{
				"x": 0.4750929998,
				"y": 2.6147647083,
				"z": -1.4326121132,
				"element": "H" 
			},
			{
				"x": 2.3984969885,
				"y": 4.3395162145,
				"z": -2.303558229,
				"element": "H" 
			},
			{
				"x": 1.3010433383,
				"y": 5.2126554681,
				"z": -1.4931755785,
				"element": "H" 
			},
			{
				"x": 1.3516684512,
				"y": 0.0308328653,
				"z": 2.5303337204,
				"element": "H" 
			},
			{
				"x": 0.4217730694,
				"y": -2.0339617654,
				"z": 3.4996155403,
				"element": "H" 
			},
			{
				"x": -1.4139901828,
				"y": -3.2499694092,
				"z": 2.3323417684,
				"element": "H" 
			},
			{
				"x": -2.2971281333,
				"y": -2.3656751376,
				"z": 0.1881033672,
				"element": "H" 
			}
		],
		 "valence_orbital": [ 
			{
				"type": "occ",
				"energy": -0.28022,
				"method": "rhf"
			},
			{
				"type": "occ",
				"energy": -0.26379,
				"method": "rhf"
			},
			{
				"type": "occ",
				"energy": -0.25735,
				"method": "rhf"
			},
			{
				"type": "occ",
				"energy": -0.24921,
				"method": "rhf"
			},
			{
				"type": "occ",
				"energy": -0.22435,
				"method": "rhf"
			},
			{
				"type": "unocc",
				"energy": -0.0038,
				"method": "rhf"
			},
			{
				"type": "unocc",
				"energy": 0.00671,
				"method": "rhf"
			},
			{
				"type": "unocc",
				"energy": 0.025,
				"method": "rhf"
			},
			{
				"type": "unocc",
				"energy": 0.07558,
				"method": "rhf"
			},
			{
				"type": "unocc",
				"energy": 0.0887,
				"method": "rhf"
			}
		],
		"cosmo_sigma_profile": { 
			"-0.025": 0.0,
			"-0.024": 0.0,
			"-0.023": 0.0,
			"-0.022": 0.0,
			"-0.021": 0.0,
			"-0.02": 0.0,
			"-0.019": 0.0,
			"-0.018": 0.0,
			"-0.017": 0.0,
			"-0.016": 0.0,
			"-0.015": 0.0,
			"-0.014": 0.0,
			"-0.013": 0.0,
			"-0.012": 0.519107452769,
			"-0.011": 2.28352558754,
			"-0.01": 3.26982151112,
			"-0.009": 2.7913050368,
			"-0.008": 3.18581993017,
			"-0.007": 10.177443587,
			"-0.006": 10.7466139342,
			"-0.005": 14.2461765883,
			"-0.004": 20.1990435417,
			"-0.003": 19.2347681186,
			"-0.002": 15.6755200838,
			"-0.001": 15.8952510367,
			"0.0": 18.4619989922,
			"0.001": 15.7716272804,
			"0.002": 11.1576284816,
			"0.003": 11.1788735289,
			"0.004": 11.0798322097,
			"0.005": 9.89918797137,
			"0.006": 9.88180542429,
			"0.007": 3.28702681165,
			"0.008": 1.33316475673,
			"0.009": 1.44137742856,
			"0.01": 1.90119789059,
			"0.011": 2.36186422152,
			"0.012": 2.56085625434,
			"0.013": 4.97486731057,
			"0.014": 4.66315703551,
			"0.015": 0.815727834262,
			"0.016": 0.846542583925,
			"0.017": 0.0559814931066,
			"0.018": 0.0,
			"0.019": 0.0,
			"0.02": 0.0,
			"0.021": 0.0,
			"0.022": 0.0,
			"0.023": 0.0,
			"0.024": 0.0,
			"0.025": 0.0
		}
	}
}
