{
	 "smiles": "N#CCON=C(C#N)C1=CC=CC=C1", 
	 "Tm": 328.15, 
	 "num_atms": 21, 
	 "gaussian": { 
		 "optdone": 1, 
		 "sigma_profile": "yes", 
		 "theory": "DFT", 
		 "functional": "B3LYP", 
		 "basiset": "6-31G**", 
		 "properties": { 
			 "R2extent": 3979.3996, 
			 "electric_dipole_moment_norm": 5.69229184073, 
			 "electric_quadrupole_moment_norm": 22.2446351139, 
			 "total_energy": -624.640157994, 
			 "HOMO_LUMO_gap": 0.17525, 
			 "cosmo_polarized_energy": -14.32, 
			 "cosmo_cavitation_energy": 28.64, 
			 "cosmo_dispersion_energy": -19.47, 
			 "cosmo_repulsion_energy": 1.56, 
			 "cosmo_total_nonelectrostatic_energy": 10.72, 
			 "SMD_solvation_energy": 7.76 
		},
		"coords": [
			{
				"x": 1.9770456323,
				"y": 2.879779229,
				"z": -2.66458838,
				"element": "N" 
			},
			{
				"x": 1.0717982535,
				"y": 2.3299933802,
				"z": -2.1921547072,
				"element": "C" 
			},
			{
				"x": -0.0860453376,
				"y": 1.6317193521,
				"z": -1.609995049,
				"element": "C" 
			},
			{
				"x": 0.2871476657,
				"y": 0.4116631881,
				"z": -0.9700365099,
				"element": "O" 
			},
			{
				"x": 0.7824197979,
				"y": 0.7056973751,
				"z": 0.2922244593,
				"element": "N" 
			},
			{
				"x": 1.2779687652,
				"y": -0.3176842152,
				"z": 0.9171151161,
				"element": "C" 
			},
			{
				"x": 1.7586775944,
				"y": 0.076612786,
				"z": 2.2258188231,
				"element": "C" 
			},
			{
				"x": 2.1499037646,
				"y": 0.3625892728,
				"z": 3.2817727659,
				"element": "N" 
			},
			{
				"x": 1.4332566473,
				"y": -1.7411699384,
				"z": 0.5387448425,
				"element": "C" 
			},
			{
				"x": 0.745202062,
				"y": -2.3351625148,
				"z": -0.5382366394,
				"element": "C" 
			},
			{
				"x": 0.9350416045,
				"y": -3.6834199848,
				"z": -0.8318554888,
				"element": "C" 
			},
			{
				"x": 1.8105445247,
				"y": -4.4611399065,
				"z": -0.0721786044,
				"element": "C" 
			},
			{
				"x": 2.4950405078,
				"y": -3.8836820139,
				"z": 0.9986148921,
				"element": "C" 
			},
			{
				"x": 2.3045987746,
				"y": -2.5401790377,
				"z": 1.3060342984,
				"element": "C" 
			},
			{
				"x": -0.7786138967,
				"y": 1.3478166245,
				"z": -2.4068501688,
				"element": "H" 
			},
			{
				"x": -0.5948208784,
				"y": 2.2892696806,
				"z": -0.8985251077,
				"element": "H" 
			},
			{
				"x": 0.0615301013,
				"y": -1.749613874,
				"z": -1.1340586379,
				"element": "H" 
			},
			{
				"x": 0.3933447806,
				"y": -4.1274525652,
				"z": -1.6615784735,
				"element": "H" 
			},
			{
				"x": 1.955888179,
				"y": -5.5104911991,
				"z": -0.3110686362,
				"element": "H" 
			},
			{
				"x": 3.1763107907,
				"y": -4.4790284019,
				"z": 1.5985422064,
				"element": "H" 
			},
			{
				"x": 2.8362606668,
				"y": -2.1039172368,
				"z": 2.145058999,
				"element": "H" 
			}
		],
		 "valence_orbital": [ 
			{
				"type": "occ",
				"energy": -0.34297,
				"method": "rhf"
			},
			{
				"type": "occ",
				"energy": -0.31351,
				"method": "rhf"
			},
			{
				"type": "occ",
				"energy": -0.30639,
				"method": "rhf"
			},
			{
				"type": "occ",
				"energy": -0.27426,
				"method": "rhf"
			},
			{
				"type": "occ",
				"energy": -0.26219,
				"method": "rhf"
			},
			{
				"type": "unocc",
				"energy": -0.08694,
				"method": "rhf"
			},
			{
				"type": "unocc",
				"energy": -0.02453,
				"method": "rhf"
			},
			{
				"type": "unocc",
				"energy": -0.0123,
				"method": "rhf"
			},
			{
				"type": "unocc",
				"energy": -0.00876,
				"method": "rhf"
			},
			{
				"type": "unocc",
				"energy": 0.01586,
				"method": "rhf"
			}
		],
		"cosmo_sigma_profile": { 
			"-0.025": 0.0,
			"-0.024": 0.0,
			"-0.023": 0.0,
			"-0.022": 0.0,
			"-0.021": 0.0,
			"-0.02": 0.0,
			"-0.019": 0.0,
			"-0.018": 0.0,
			"-0.017": 0.0,
			"-0.016": 0.0,
			"-0.015": 0.0,
			"-0.014": 0.0,
			"-0.013": 0.0,
			"-0.012": 0.308684072751,
			"-0.011": 3.91882284344,
			"-0.01": 5.06612215432,
			"-0.009": 4.74734071351,
			"-0.008": 4.55026513576,
			"-0.007": 6.71887441739,
			"-0.006": 11.510634965,
			"-0.005": 14.5445607004,
			"-0.004": 14.4138888754,
			"-0.003": 14.3499297377,
			"-0.002": 16.6143308781,
			"-0.001": 14.8472379303,
			"0.0": 13.879456714,
			"0.001": 15.0459957094,
			"0.002": 17.4173929279,
			"0.003": 19.7678025673,
			"0.004": 10.5165237886,
			"0.005": 5.94514109076,
			"0.006": 7.36594876344,
			"0.007": 6.09196184874,
			"0.008": 7.24699825063,
			"0.009": 5.36799964418,
			"0.01": 5.45244541471,
			"0.011": 4.41661062499,
			"0.012": 2.83662589093,
			"0.013": 0.129976193379,
			"0.014": 0.0,
			"0.015": 0.0,
			"0.016": 0.0,
			"0.017": 0.0,
			"0.018": 0.0,
			"0.019": 0.0,
			"0.02": 0.0,
			"0.021": 0.0,
			"0.022": 0.0,
			"0.023": 0.0,
			"0.024": 0.0,
			"0.025": 0.0
		}
	}
}
