{
	 "smiles": "CC(CC(O)=O)C1=C(C)C=CC=C1", 
	 "Tm": 321.15, 
	 "num_atms": 27, 
	 "gaussian": { 
		 "optdone": 1, 
		 "sigma_profile": "yes", 
		 "theory": "DFT", 
		 "functional": "B3LYP", 
		 "basiset": "6-31G**", 
		 "properties": { 
			 "R2extent": 2610.6216, 
			 "electric_dipole_moment_norm": 1.52201081139, 
			 "electric_quadrupole_moment_norm": 4.05348116192, 
			 "total_energy": -578.083024748, 
			 "HOMO_LUMO_gap": 0.23517, 
			 "cosmo_polarized_energy": -10.08, 
			 "cosmo_cavitation_energy": 29.18, 
			 "cosmo_dispersion_energy": -20.62, 
			 "cosmo_repulsion_energy": 1.65, 
			 "cosmo_total_nonelectrostatic_energy": 10.2, 
			 "SMD_solvation_energy": 6.09 
		},
		"coords": [
			{
				"x": -0.4638814103,
				"y": 2.0300743825,
				"z": 1.0677438595,
				"element": "C" 
			},
			{
				"x": -0.4871595867,
				"y": 0.5247046791,
				"z": 0.7417390921,
				"element": "C" 
			},
			{
				"x": -1.4585677063,
				"y": 0.2164043298,
				"z": -0.420100444,
				"element": "C" 
			},
			{
				"x": -1.8928188398,
				"y": -1.2349274646,
				"z": -0.4514481701,
				"element": "C" 
			},
			{
				"x": -2.1954178781,
				"y": -1.6430352509,
				"z": -1.7071409374,
				"element": "O" 
			},
			{
				"x": -2.0054275694,
				"y": -1.9627097759,
				"z": 0.5115361125,
				"element": "O" 
			},
			{
				"x": 0.8896188721,
				"y": -0.1165306955,
				"z": 0.5397973538,
				"element": "C" 
			},
			{
				"x": 1.8653435564,
				"y": 0.3340224086,
				"z": -0.3823376738,
				"element": "C" 
			},
			{
				"x": 1.6923970686,
				"y": 1.5471135369,
				"z": -1.2749257131,
				"element": "C" 
			},
			{
				"x": 3.0803144297,
				"y": -0.3618987278,
				"z": -0.4694302735,
				"element": "C" 
			},
			{
				"x": 3.3568483708,
				"y": -1.4756573716,
				"z": 0.3209539532,
				"element": "C" 
			},
			{
				"x": 2.3967029114,
				"y": -1.9228310726,
				"z": 1.2249049712,
				"element": "C" 
			},
			{
				"x": 1.1826987631,
				"y": -1.2451568062,
				"z": 1.3224019873,
				"element": "C" 
			},
			{
				"x": -0.2165765787,
				"y": 2.6517091265,
				"z": 0.204254611,
				"element": "H" 
			},
			{
				"x": 0.2655342747,
				"y": 2.2427610376,
				"z": 1.8551426646,
				"element": "H" 
			},
			{
				"x": -1.4484880743,
				"y": 2.348643944,
				"z": 1.4280286226,
				"element": "H" 
			},
			{
				"x": -0.9201390366,
				"y": 0.0267360361,
				"z": 1.6152733958,
				"element": "H" 
			},
			{
				"x": -2.3771842456,
				"y": 0.8070162322,
				"z": -0.2945360298,
				"element": "H" 
			},
			{
				"x": -1.0506069073,
				"y": 0.4856139767,
				"z": -1.396954976,
				"element": "H" 
			},
			{
				"x": -2.4943846756,
				"y": -2.564759762,
				"z": -1.6254010971,
				"element": "H" 
			},
			{
				"x": 1.8503595793,
				"y": 2.4809942094,
				"z": -0.7231523826,
				"element": "H" 
			},
			{
				"x": 0.700838243,
				"y": 1.6080499621,
				"z": -1.7305701489,
				"element": "H" 
			},
			{
				"x": 2.4238788505,
				"y": 1.5258160199,
				"z": -2.0876685999,
				"element": "H" 
			},
			{
				"x": 3.826891741,
				"y": -0.0148521608,
				"z": -1.180017888,
				"element": "H" 
			},
			{
				"x": 4.3099222366,
				"y": -1.9881693533,
				"z": 0.2249559348,
				"element": "H" 
			},
			{
				"x": 2.5844835517,
				"y": -2.792480851,
				"z": 1.8481234074,
				"element": "H" 
			},
			{
				"x": 0.42662006,
				"y": -1.6058505892,
				"z": 2.0135283686,
				"element": "H" 
			}
		],
		 "valence_orbital": [ 
			{
				"type": "occ",
				"energy": -0.31867,
				"method": "rhf"
			},
			{
				"type": "occ",
				"energy": -0.31453,
				"method": "rhf"
			},
			{
				"type": "occ",
				"energy": -0.27413,
				"method": "rhf"
			},
			{
				"type": "occ",
				"energy": -0.23823,
				"method": "rhf"
			},
			{
				"type": "occ",
				"energy": -0.23282,
				"method": "rhf"
			},
			{
				"type": "unocc",
				"energy": 0.00235,
				"method": "rhf"
			},
			{
				"type": "unocc",
				"energy": 0.00751,
				"method": "rhf"
			},
			{
				"type": "unocc",
				"energy": 0.01075,
				"method": "rhf"
			},
			{
				"type": "unocc",
				"energy": 0.07945,
				"method": "rhf"
			},
			{
				"type": "unocc",
				"energy": 0.08818,
				"method": "rhf"
			}
		],
		"cosmo_sigma_profile": { 
			"-0.025": 0.0,
			"-0.024": 0.0,
			"-0.023": 0.0,
			"-0.022": 0.0,
			"-0.021": 0.0,
			"-0.02": 0.0,
			"-0.019": 0.0,
			"-0.018": 0.507582145361,
			"-0.017": 0.987681746618,
			"-0.016": 0.985881635514,
			"-0.015": 0.542314432419,
			"-0.014": 0.616521279245,
			"-0.013": 0.507583106856,
			"-0.012": 0.819384438525,
			"-0.011": 1.04700876481,
			"-0.01": 0.773066807182,
			"-0.009": 0.727948899394,
			"-0.008": 0.403143667854,
			"-0.007": 1.72393757808,
			"-0.006": 5.53660803836,
			"-0.005": 11.8396363367,
			"-0.004": 18.5065937037,
			"-0.003": 26.718027746,
			"-0.002": 23.3160382576,
			"-0.001": 20.8801737993,
			"0.0": 23.0689582477,
			"0.001": 16.7880067811,
			"0.002": 10.0824723076,
			"0.003": 9.28827556762,
			"0.004": 9.74387719502,
			"0.005": 11.3938537563,
			"0.006": 10.4514854171,
			"0.007": 6.66239886218,
			"0.008": 2.67307977383,
			"0.009": 3.32404328445,
			"0.01": 2.42001059669,
			"0.011": 2.89888848757,
			"0.012": 3.80374269269,
			"0.013": 0.321964276698,
			"0.014": 0.0,
			"0.015": 0.0,
			"0.016": 0.0,
			"0.017": 0.0,
			"0.018": 0.0,
			"0.019": 0.0,
			"0.02": 0.0,
			"0.021": 0.0,
			"0.022": 0.0,
			"0.023": 0.0,
			"0.024": 0.0,
			"0.025": 0.0
		}
	}
}
