{
	 "smiles": "COC1=CC=CC=C1N1CCNCC1", 
	 "Tm": 310.95, 
	 "num_atms": 30, 
	 "gaussian": { 
		 "optdone": 1, 
		 "sigma_profile": "yes", 
		 "theory": "DFT", 
		 "functional": "B3LYP", 
		 "basiset": "6-31G**", 
		 "properties": { 
			 "R2extent": 2976.3576, 
			 "electric_dipole_moment_norm": 1.51590047826, 
			 "electric_quadrupole_moment_norm": 7.52086424754, 
			 "total_energy": -613.498738706, 
			 "HOMO_LUMO_gap": 0.18839, 
			 "cosmo_polarized_energy": -9.24, 
			 "cosmo_cavitation_energy": 30.45, 
			 "cosmo_dispersion_energy": -22.42, 
			 "cosmo_repulsion_energy": 1.75, 
			 "cosmo_total_nonelectrostatic_energy": 9.78, 
			 "SMD_solvation_energy": 1.92 
		},
		"coords": [
			{
				"x": -2.9312773488,
				"y": -1.2106372967,
				"z": 1.0476902839,
				"element": "C" 
			},
			{
				"x": -1.7724556399,
				"y": -0.6770564809,
				"z": 0.4336356566,
				"element": "O" 
			},
			{
				"x": -0.7520207901,
				"y": -0.2374605724,
				"z": 1.2391472625,
				"element": "C" 
			},
			{
				"x": -0.7802978918,
				"y": -0.3139447567,
				"z": 2.6309880207,
				"element": "C" 
			},
			{
				"x": 0.2641674386,
				"y": 0.2157697055,
				"z": 3.3982070097,
				"element": "C" 
			},
			{
				"x": 1.3411338028,
				"y": 0.8193109363,
				"z": 2.7619947708,
				"element": "C" 
			},
			{
				"x": 1.3892452261,
				"y": 0.8700780546,
				"z": 1.3658327708,
				"element": "C" 
			},
			{
				"x": 0.3617077964,
				"y": 0.3443642664,
				"z": 0.5661810291,
				"element": "C" 
			},
			{
				"x": 0.3660895604,
				"y": 0.4384471195,
				"z": -0.8327409333,
				"element": "N" 
			},
			{
				"x": 0.081074158,
				"y": -0.7449756622,
				"z": -1.6619954778,
				"element": "C" 
			},
			{
				"x": 1.2488298284,
				"y": -1.0215917445,
				"z": -2.6486715052,
				"element": "C" 
			},
			{
				"x": 2.5538689031,
				"y": -0.6372646995,
				"z": -2.1125856509,
				"element": "N" 
			},
			{
				"x": 2.6096196399,
				"y": 0.8142204434,
				"z": -1.8850658013,
				"element": "C" 
			},
			{
				"x": 1.2222140157,
				"y": 1.4073932385,
				"z": -1.5017020556,
				"element": "C" 
			},
			{
				"x": -3.4143881092,
				"y": -0.4786469326,
				"z": 1.7082633091,
				"element": "H" 
			},
			{
				"x": -3.6136458891,
				"y": -1.4646478458,
				"z": 0.2345240265,
				"element": "H" 
			},
			{
				"x": -2.7081094468,
				"y": -2.1174103027,
				"z": 1.6257071843,
				"element": "H" 
			},
			{
				"x": -1.6305048344,
				"y": -0.7628247722,
				"z": 3.1309579227,
				"element": "H" 
			},
			{
				"x": 0.2192187075,
				"y": 0.1557398805,
				"z": 4.4812491672,
				"element": "H" 
			},
			{
				"x": 2.1593604378,
				"y": 1.2388756268,
				"z": 3.3399059326,
				"element": "H" 
			},
			{
				"x": 2.2514982452,
				"y": 1.3218038981,
				"z": 0.8881287197,
				"element": "H" 
			},
			{
				"x": -0.8647668194,
				"y": -0.6259569146,
				"z": -2.2112761288,
				"element": "H" 
			},
			{
				"x": -0.0435835339,
				"y": -1.605079001,
				"z": -1.0021004541,
				"element": "H" 
			},
			{
				"x": 1.2583636428,
				"y": -2.0848993089,
				"z": -2.9127003327,
				"element": "H" 
			},
			{
				"x": 1.1008892677,
				"y": -0.4717517746,
				"z": -3.5865740127,
				"element": "H" 
			},
			{
				"x": 2.6911006175,
				"y": -1.1136157802,
				"z": -1.2240708748,
				"element": "H" 
			},
			{
				"x": 3.3542830268,
				"y": 1.0072899539,
				"z": -1.1060947726,
				"element": "H" 
			},
			{
				"x": 2.9707786906,
				"y": 1.3104481612,
				"z": -2.7971627764,
				"element": "H" 
			},
			{
				"x": 0.702730517,
				"y": 1.7261376581,
				"z": -2.4159849409,
				"element": "H" 
			},
			{
				"x": 1.3226767809,
				"y": 2.2998849026,
				"z": -0.879087349,
				"element": "H" 
			}
		],
		 "valence_orbital": [ 
			{
				"type": "occ",
				"energy": -0.31104,
				"method": "rhf"
			},
			{
				"type": "occ",
				"energy": -0.26806,
				"method": "rhf"
			},
			{
				"type": "occ",
				"energy": -0.22697,
				"method": "rhf"
			},
			{
				"type": "occ",
				"energy": -0.21575,
				"method": "rhf"
			},
			{
				"type": "occ",
				"energy": -0.1749,
				"method": "rhf"
			},
			{
				"type": "unocc",
				"energy": 0.01349,
				"method": "rhf"
			},
			{
				"type": "unocc",
				"energy": 0.02158,
				"method": "rhf"
			},
			{
				"type": "unocc",
				"energy": 0.07934,
				"method": "rhf"
			},
			{
				"type": "unocc",
				"energy": 0.09182,
				"method": "rhf"
			},
			{
				"type": "unocc",
				"energy": 0.1036,
				"method": "rhf"
			}
		],
		"cosmo_sigma_profile": { 
			"-0.025": 0.0,
			"-0.024": 0.0,
			"-0.023": 0.0,
			"-0.022": 0.0,
			"-0.021": 0.0,
			"-0.02": 0.0,
			"-0.019": 0.0,
			"-0.018": 0.0,
			"-0.017": 0.0,
			"-0.016": 0.0,
			"-0.015": 0.0,
			"-0.014": 0.0,
			"-0.013": 0.0,
			"-0.012": 0.0,
			"-0.011": 0.0,
			"-0.01": 0.0269068793979,
			"-0.009": 0.797712597165,
			"-0.008": 1.22115053602,
			"-0.007": 0.988221877095,
			"-0.006": 5.17053252796,
			"-0.005": 18.2092903963,
			"-0.004": 27.4071235149,
			"-0.003": 35.2997601293,
			"-0.002": 30.5175376248,
			"-0.001": 21.7122115126,
			"0.0": 13.4299947122,
			"0.001": 10.3432301368,
			"0.002": 10.0987284364,
			"0.003": 9.4442904972,
			"0.004": 8.8920009622,
			"0.005": 10.0649752291,
			"0.006": 9.39131812397,
			"0.007": 9.59601607194,
			"0.008": 5.25127843795,
			"0.009": 1.25430532006,
			"0.01": 1.85221979455,
			"0.011": 1.59002773262,
			"0.012": 1.5065058635,
			"0.013": 1.54130718108,
			"0.014": 0.571636593738,
			"0.015": 0.327272702617,
			"0.016": 0.555286441789,
			"0.017": 0.603875862249,
			"0.018": 0.621289356207,
			"0.019": 0.2518366102,
			"0.02": 0.0,
			"0.021": 0.0,
			"0.022": 0.0,
			"0.023": 0.0,
			"0.024": 0.0,
			"0.025": 0.0
		}
	}
}
