{
	 "smiles": "ClC1(CC2=CC=CC=C12)C1=CC=CC=C1", 
	 "Tm": 333.15, 
	 "num_atms": 26, 
	 "gaussian": { 
		 "optdone": 1, 
		 "sigma_profile": "yes", 
		 "theory": "DFT", 
		 "functional": "B3LYP", 
		 "basiset": "6-31G**", 
		 "properties": { 
			 "R2extent": 3691.1471, 
			 "electric_dipole_moment_norm": 2.45680830754, 
			 "electric_quadrupole_moment_norm": 9.91173505043, 
			 "total_energy": -1000.28002467, 
			 "HOMO_LUMO_gap": 0.20883, 
			 "cosmo_polarized_energy": -7.09, 
			 "cosmo_cavitation_energy": 31.0, 
			 "cosmo_dispersion_energy": -22.15, 
			 "cosmo_repulsion_energy": 1.74, 
			 "cosmo_total_nonelectrostatic_energy": 10.59, 
			 "SMD_solvation_energy": 4.5 
		},
		"coords": [
			{
				"x": 1.5961966541,
				"y": -1.0693061354,
				"z": 1.5316154844,
				"element": "Cl" 
			},
			{
				"x": 0.7986087033,
				"y": -0.1936784477,
				"z": 0.0983439139,
				"element": "C" 
			},
			{
				"x": 0.2489026896,
				"y": -1.221329302,
				"z": -0.9821909001,
				"element": "C" 
			},
			{
				"x": -1.1315925022,
				"y": -0.7118745392,
				"z": -0.6034691753,
				"element": "C" 
			},
			{
				"x": -2.4870104872,
				"y": -0.83492769,
				"z": -0.8772347552,
				"element": "C" 
			},
			{
				"x": -3.3448487804,
				"y": -0.0498005871,
				"z": -0.0918098035,
				"element": "C" 
			},
			{
				"x": -2.8588021297,
				"y": 0.8035366923,
				"z": 0.9116275343,
				"element": "C" 
			},
			{
				"x": -1.4868062374,
				"y": 0.9240145313,
				"z": 1.1752120635,
				"element": "C" 
			},
			{
				"x": -0.6516380432,
				"y": 0.1523117759,
				"z": 0.3773209803,
				"element": "C" 
			},
			{
				"x": 1.7407931433,
				"y": 0.8728471215,
				"z": -0.4083887073,
				"element": "C" 
			},
			{
				"x": 2.95892733,
				"y": 0.5005093035,
				"z": -0.9985582645,
				"element": "C" 
			},
			{
				"x": 3.8304584818,
				"y": 1.4655067117,
				"z": -1.495703266,
				"element": "C" 
			},
			{
				"x": 3.4990447892,
				"y": 2.8213096093,
				"z": -1.4113710368,
				"element": "C" 
			},
			{
				"x": 2.29137108,
				"y": 3.1999462812,
				"z": -0.8276471945,
				"element": "C" 
			},
			{
				"x": 1.4162657225,
				"y": 2.2311055908,
				"z": -0.3296505788,
				"element": "C" 
			},
			{
				"x": 0.4511025354,
				"y": -2.2666444879,
				"z": -0.7351943555,
				"element": "H" 
			},
			{
				"x": 0.5862136423,
				"y": -1.0146932424,
				"z": -2.0028266549,
				"element": "H" 
			},
			{
				"x": -2.880524965,
				"y": -1.5005486762,
				"z": -1.6400655372,
				"element": "H" 
			},
			{
				"x": -4.4175007648,
				"y": -0.1076050444,
				"z": -0.2552877738,
				"element": "H" 
			},
			{
				"x": -3.5673193857,
				"y": 1.3805848071,
				"z": 1.4991037653,
				"element": "H" 
			},
			{
				"x": -1.1206833833,
				"y": 1.5733020009,
				"z": 1.9648261872,
				"element": "H" 
			},
			{
				"x": 3.2271686929,
				"y": -0.5507777476,
				"z": -1.0525929981,
				"element": "H" 
			},
			{
				"x": 4.7698193204,
				"y": 1.1614043419,
				"z": -1.948556633,
				"element": "H" 
			},
			{
				"x": 4.1790523716,
				"y": 3.5743588593,
				"z": -1.7990275538,
				"element": "H" 
			},
			{
				"x": 2.0241605902,
				"y": 4.2505791571,
				"z": -0.758773912,
				"element": "H" 
			},
			{
				"x": 0.4721409321,
				"y": 2.5340691159,
				"z": 0.1101991712,
				"element": "H" 
			}
		],
		 "valence_orbital": [ 
			{
				"type": "occ",
				"energy": -0.28452,
				"method": "rhf"
			},
			{
				"type": "occ",
				"energy": -0.25787,
				"method": "rhf"
			},
			{
				"type": "occ",
				"energy": -0.25403,
				"method": "rhf"
			},
			{
				"type": "occ",
				"energy": -0.24714,
				"method": "rhf"
			},
			{
				"type": "occ",
				"energy": -0.2447,
				"method": "rhf"
			},
			{
				"type": "unocc",
				"energy": -0.03587,
				"method": "rhf"
			},
			{
				"type": "unocc",
				"energy": -0.009,
				"method": "rhf"
			},
			{
				"type": "unocc",
				"energy": -0.00333,
				"method": "rhf"
			},
			{
				"type": "unocc",
				"energy": -0.00295,
				"method": "rhf"
			},
			{
				"type": "unocc",
				"energy": 0.04941,
				"method": "rhf"
			}
		],
		"cosmo_sigma_profile": { 
			"-0.025": 0.0,
			"-0.024": 0.0,
			"-0.023": 0.0,
			"-0.022": 0.0,
			"-0.021": 0.0,
			"-0.02": 0.0,
			"-0.019": 0.0,
			"-0.018": 0.0,
			"-0.017": 0.0,
			"-0.016": 0.0,
			"-0.015": 0.0,
			"-0.014": 0.0,
			"-0.013": 0.0,
			"-0.012": 0.0,
			"-0.011": 0.0,
			"-0.01": 0.0,
			"-0.009": 0.0,
			"-0.008": 0.0,
			"-0.007": 0.940826871629,
			"-0.006": 13.315247326,
			"-0.005": 21.9583467784,
			"-0.004": 25.8832986603,
			"-0.003": 21.8152525489,
			"-0.002": 20.567069749,
			"-0.001": 16.8963667358,
			"0.0": 13.9803007026,
			"0.001": 16.7351448829,
			"0.002": 17.0328872583,
			"0.003": 17.1915520092,
			"0.004": 22.3212501679,
			"0.005": 24.5507235051,
			"0.006": 12.2095496432,
			"0.007": 5.11524431177,
			"0.008": 0.0,
			"0.009": 0.0,
			"0.01": 0.0,
			"0.011": 0.0,
			"0.012": 0.0,
			"0.013": 0.0,
			"0.014": 0.0,
			"0.015": 0.0,
			"0.016": 0.0,
			"0.017": 0.0,
			"0.018": 0.0,
			"0.019": 0.0,
			"0.02": 0.0,
			"0.021": 0.0,
			"0.022": 0.0,
			"0.023": 0.0,
			"0.024": 0.0,
			"0.025": 0.0
		}
	}
}
