{
	 "smiles": "CC(Cl)C(=O)C1=CC=C(Cl)C=C1", 
	 "Tm": 332.15, 
	 "num_atms": 20, 
	 "gaussian": { 
		 "optdone": 1, 
		 "sigma_profile": "yes", 
		 "theory": "DFT", 
		 "functional": "B3LYP", 
		 "basiset": "6-31G**", 
		 "properties": { 
			 "R2extent": 3866.941, 
			 "electric_dipole_moment_norm": 2.06428306683, 
			 "electric_quadrupole_moment_norm": 8.66735922874, 
			 "total_energy": -1343.39434967, 
			 "HOMO_LUMO_gap": 0.18201, 
			 "cosmo_polarized_energy": -8.2, 
			 "cosmo_cavitation_energy": 27.58, 
			 "cosmo_dispersion_energy": -20.23, 
			 "cosmo_repulsion_energy": 1.62, 
			 "cosmo_total_nonelectrostatic_energy": 8.96, 
			 "SMD_solvation_energy": 4.64 
		},
		"coords": [
			{
				"x": -1.358000945,
				"y": -1.1625004559,
				"z": 3.522255291,
				"element": "C" 
			},
			{
				"x": -1.5639188189,
				"y": -0.910587672,
				"z": 2.0401490323,
				"element": "C" 
			},
			{
				"x": -3.2820075983,
				"y": -0.3346358799,
				"z": 1.7284428954,
				"element": "Cl" 
			},
			{
				"x": -0.608159598,
				"y": 0.1609715146,
				"z": 1.4799889195,
				"element": "C" 
			},
			{
				"x": 0.005622365,
				"y": 0.8728784466,
				"z": 2.2575266743,
				"element": "O" 
			},
			{
				"x": -0.4213052469,
				"y": 0.2877613978,
				"z": 0.0026588585,
				"element": "C" 
			},
			{
				"x": -1.0980359722,
				"y": -0.5034587048,
				"z": -0.9387520506,
				"element": "C" 
			},
			{
				"x": -0.8570438946,
				"y": -0.349478106,
				"z": -2.3020137488,
				"element": "C" 
			},
			{
				"x": 0.069016817,
				"y": 0.6044811634,
				"z": -2.7252020658,
				"element": "C" 
			},
			{
				"x": 0.3782158334,
				"y": 0.8002830833,
				"z": -4.4390178321,
				"element": "Cl" 
			},
			{
				"x": 0.7533828277,
				"y": 1.4073228579,
				"z": -1.8090387483,
				"element": "C" 
			},
			{
				"x": 0.5027196438,
				"y": 1.2432130712,
				"z": -0.4522853548,
				"element": "C" 
			},
			{
				"x": -1.4508978893,
				"y": -0.2342660462,
				"z": 4.0873758762,
				"element": "H" 
			},
			{
				"x": -2.0843533324,
				"y": -1.890677073,
				"z": 3.8890168103,
				"element": "H" 
			},
			{
				"x": -0.3495598956,
				"y": -1.5571163207,
				"z": 3.6843874666,
				"element": "H" 
			},
			{
				"x": -1.4753310433,
				"y": -1.8361079973,
				"z": 1.4672879339,
				"element": "H" 
			},
			{
				"x": -1.8348898113,
				"y": -1.2332279555,
				"z": -0.622965472,
				"element": "H" 
			},
			{
				"x": -1.3820975573,
				"y": -0.9575817969,
				"z": -3.0298227918,
				"element": "H" 
			},
			{
				"x": 1.46765159,
				"y": 2.1439794429,
				"z": -2.1593477075,
				"element": "H" 
			},
			{
				"x": 1.019392526,
				"y": 1.8500470306,
				"z": 0.2833560136,
				"element": "H" 
			}
		],
		 "valence_orbital": [ 
			{
				"type": "occ",
				"energy": -0.31765,
				"method": "rhf"
			},
			{
				"type": "occ",
				"energy": -0.30815,
				"method": "rhf"
			},
			{
				"type": "occ",
				"energy": -0.27858,
				"method": "rhf"
			},
			{
				"type": "occ",
				"energy": -0.26726,
				"method": "rhf"
			},
			{
				"type": "occ",
				"energy": -0.2617,
				"method": "rhf"
			},
			{
				"type": "unocc",
				"energy": -0.07969,
				"method": "rhf"
			},
			{
				"type": "unocc",
				"energy": -0.02763,
				"method": "rhf"
			},
			{
				"type": "unocc",
				"energy": -0.00733,
				"method": "rhf"
			},
			{
				"type": "unocc",
				"energy": 0.01906,
				"method": "rhf"
			},
			{
				"type": "unocc",
				"energy": 0.04508,
				"method": "rhf"
			}
		],
		"cosmo_sigma_profile": { 
			"-0.025": 0.0,
			"-0.024": 0.0,
			"-0.023": 0.0,
			"-0.022": 0.0,
			"-0.021": 0.0,
			"-0.02": 0.0,
			"-0.019": 0.0,
			"-0.018": 0.0,
			"-0.017": 0.0,
			"-0.016": 0.0,
			"-0.015": 0.0,
			"-0.014": 0.0,
			"-0.013": 0.0,
			"-0.012": 0.0,
			"-0.011": 0.0,
			"-0.01": 0.260519004139,
			"-0.009": 3.11878176845,
			"-0.008": 5.90465137846,
			"-0.007": 8.78204330311,
			"-0.006": 10.5685113431,
			"-0.005": 10.5712695242,
			"-0.004": 12.0913319805,
			"-0.003": 11.686791105,
			"-0.002": 12.7036991588,
			"-0.001": 17.7738854341,
			"0.0": 22.6466306785,
			"0.001": 23.7041555964,
			"0.002": 24.925988981,
			"0.003": 14.9951557075,
			"0.004": 18.3995284659,
			"0.005": 9.71536067592,
			"0.006": 5.54765539676,
			"0.007": 1.27103648994,
			"0.008": 1.75694935482,
			"0.009": 2.42305589169,
			"0.01": 2.86064155986,
			"0.011": 2.85529126768,
			"0.012": 0.123450118317,
			"0.013": 0.0,
			"0.014": 0.0,
			"0.015": 0.0,
			"0.016": 0.0,
			"0.017": 0.0,
			"0.018": 0.0,
			"0.019": 0.0,
			"0.02": 0.0,
			"0.021": 0.0,
			"0.022": 0.0,
			"0.023": 0.0,
			"0.024": 0.0,
			"0.025": 0.0
		}
	}
}
