{
	 "smiles": "CC(CP(C1=CC=CC=C1)C1=CC=CC=C1)P(C1=CC=CC=C1)C1=CC=CC=C1", 
	 "Tm": 343.65, 
	 "num_atms": 55, 
	 "gaussian": { 
		 "optdone": 1, 
		 "sigma_profile": "yes", 
		 "theory": "DFT", 
		 "functional": "B3LYP", 
		 "basiset": "6-31G**", 
		 "properties": { 
			 "R2extent": 12666.4785, 
			 "electric_dipole_moment_norm": 2.05320456604, 
			 "electric_quadrupole_moment_norm": 12.7588496723, 
			 "total_energy": -1727.23435737, 
			 "HOMO_LUMO_gap": 0.17715, 
			 "cosmo_polarized_energy": -12.83, 
			 "cosmo_cavitation_energy": 58.4, 
			 "cosmo_dispersion_energy": -37.19, 
			 "cosmo_repulsion_energy": 2.92, 
			 "cosmo_total_nonelectrostatic_energy": 24.13, 
			 "SMD_solvation_energy": 9.4 
		},
		"coords": [
			{
				"x": -1.4627494943,
				"y": 1.2973752495,
				"z": 0.939129034,
				"element": "C" 
			},
			{
				"x": -0.3396070542,
				"y": 0.2468706268,
				"z": 0.8665847717,
				"element": "C" 
			},
			{
				"x": 1.0740592037,
				"y": 0.8818884348,
				"z": 0.7837428892,
				"element": "C" 
			},
			{
				"x": 1.8226096987,
				"y": 1.8903980877,
				"z": -0.6366905871,
				"element": "P" 
			},
			{
				"x": 2.3642702223,
				"y": 0.6679519919,
				"z": -1.9158160939,
				"element": "C" 
			},
			{
				"x": 2.4627878891,
				"y": 1.0704146352,
				"z": -3.2612337205,
				"element": "C" 
			},
			{
				"x": 3.0361514703,
				"y": 0.2385979437,
				"z": -4.2222868296,
				"element": "C" 
			},
			{
				"x": 3.537609932,
				"y": -1.0139090572,
				"z": -3.8632849987,
				"element": "C" 
			},
			{
				"x": 3.4665879091,
				"y": -1.4190658364,
				"z": -2.5306570368,
				"element": "C" 
			},
			{
				"x": 2.8945498745,
				"y": -0.5854058053,
				"z": -1.5680516454,
				"element": "C" 
			},
			{
				"x": 0.4229942703,
				"y": 2.7861999819,
				"z": -1.4567337217,
				"element": "C" 
			},
			{
				"x": 0.2567712777,
				"y": 4.1359307737,
				"z": -1.1066998666,
				"element": "C" 
			},
			{
				"x": -0.7737508448,
				"y": 4.9007046424,
				"z": -1.6580832888,
				"element": "C" 
			},
			{
				"x": -1.6429008023,
				"y": 4.3305596222,
				"z": -2.5883310898,
				"element": "C" 
			},
			{
				"x": -1.4770479082,
				"y": 2.9939224831,
				"z": -2.9622332961,
				"element": "C" 
			},
			{
				"x": -0.4564288831,
				"y": 2.2262485463,
				"z": -2.4003945423,
				"element": "C" 
			},
			{
				"x": -0.6963102239,
				"y": -1.03290823,
				"z": -0.4848895581,
				"element": "P" 
			},
			{
				"x": 0.3563007272,
				"y": -2.4809096715,
				"z": 0.0114931105,
				"element": "C" 
			},
			{
				"x": 0.5497499444,
				"y": -3.4691912039,
				"z": -0.9696497669,
				"element": "C" 
			},
			{
				"x": 1.3168251182,
				"y": -4.604501823,
				"z": -0.7101528089,
				"element": "C" 
			},
			{
				"x": 1.9280024132,
				"y": -4.767096227,
				"z": 0.5352146177,
				"element": "C" 
			},
			{
				"x": 1.758442276,
				"y": -3.7903524088,
				"z": 1.5167985202,
				"element": "C" 
			},
			{
				"x": 0.9764069619,
				"y": -2.6610109929,
				"z": 1.258677494,
				"element": "C" 
			},
			{
				"x": -2.3780030089,
				"y": -1.6245718263,
				"z": 0.0467098857,
				"element": "C" 
			},
			{
				"x": -2.6128193571,
				"y": -2.4469206556,
				"z": 1.1605103399,
				"element": "C" 
			},
			{
				"x": -3.9087498513,
				"y": -2.8404502068,
				"z": 1.4961184545,
				"element": "C" 
			},
			{
				"x": -4.9938818611,
				"y": -2.4188008165,
				"z": 0.7238741803,
				"element": "C" 
			},
			{
				"x": -4.7757150996,
				"y": -1.6057640814,
				"z": -0.3889361179,
				"element": "C" 
			},
			{
				"x": -3.4773646206,
				"y": -1.2180202115,
				"z": -0.7264687833,
				"element": "C" 
			},
			{
				"x": -1.6249182579,
				"y": 1.8065046612,
				"z": -0.0121199692,
				"element": "H" 
			},
			{
				"x": -2.4061434245,
				"y": 0.8371475508,
				"z": 1.2423641279,
				"element": "H" 
			},
			{
				"x": -1.2078212811,
				"y": 2.0603921193,
				"z": 1.6839355078,
				"element": "H" 
			},
			{
				"x": -0.3611267527,
				"y": -0.2855881316,
				"z": 1.8283123127,
				"element": "H" 
			},
			{
				"x": 1.151326601,
				"y": 1.579165436,
				"z": 1.6280959462,
				"element": "H" 
			},
			{
				"x": 1.8351180947,
				"y": 0.1192657553,
				"z": 0.9857456709,
				"element": "H" 
			},
			{
				"x": 2.0852346774,
				"y": 2.0423226856,
				"z": -3.5633776604,
				"element": "H" 
			},
			{
				"x": 3.0909894174,
				"y": 0.5727115563,
				"z": -5.2549485934,
				"element": "H" 
			},
			{
				"x": 3.9833083203,
				"y": -1.6624970783,
				"z": -4.6120379448,
				"element": "H" 
			},
			{
				"x": 3.8518674999,
				"y": -2.38989265,
				"z": -2.2321215479,
				"element": "H" 
			},
			{
				"x": 2.862366857,
				"y": -0.9326583974,
				"z": -0.541068456,
				"element": "H" 
			},
			{
				"x": 0.9458933676,
				"y": 4.5911710987,
				"z": -0.3998870058,
				"element": "H" 
			},
			{
				"x": -0.8885114556,
				"y": 5.9418986979,
				"z": -1.3696801496,
				"element": "H" 
			},
			{
				"x": -2.4402431634,
				"y": 4.9245269285,
				"z": -3.0263709619,
				"element": "H" 
			},
			{
				"x": -2.1478207478,
				"y": 2.5463370502,
				"z": -3.6908291626,
				"element": "H" 
			},
			{
				"x": -0.3456183406,
				"y": 1.1859676916,
				"z": -2.6871664087,
				"element": "H" 
			},
			{
				"x": 0.0986819249,
				"y": -3.339733218,
				"z": -1.9500424203,
				"element": "H" 
			},
			{
				"x": 1.4458251616,
				"y": -5.3569216189,
				"z": -1.4832750513,
				"element": "H" 
			},
			{
				"x": 2.5344666422,
				"y": -5.6454381578,
				"z": 0.7370942567,
				"element": "H" 
			},
			{
				"x": 2.2315325361,
				"y": -3.9062455814,
				"z": 2.4882162844,
				"element": "H" 
			},
			{
				"x": 0.8562564664,
				"y": -1.9223310792,
				"z": 2.0451559082,
				"element": "H" 
			},
			{
				"x": -1.7780612768,
				"y": -2.7937775554,
				"z": 1.7623912334,
				"element": "H" 
			},
			{
				"x": -4.0717369638,
				"y": -3.4794572504,
				"z": 2.359893774,
				"element": "H" 
			},
			{
				"x": -6.0020683174,
				"y": -2.7280413677,
				"z": 0.9851302979,
				"element": "H" 
			},
			{
				"x": -5.6135042618,
				"y": -1.2791346552,
				"z": -0.9988617185,
				"element": "H" 
			},
			{
				"x": -3.3118835028,
				"y": -0.5937784553,
				"z": -1.600707815,
				"element": "H" 
			}
		],
		 "valence_orbital": [ 
			{
				"type": "occ",
				"energy": -0.24943,
				"method": "rhf"
			},
			{
				"type": "occ",
				"energy": -0.2482,
				"method": "rhf"
			},
			{
				"type": "occ",
				"energy": -0.23946,
				"method": "rhf"
			},
			{
				"type": "occ",
				"energy": -0.21604,
				"method": "rhf"
			},
			{
				"type": "occ",
				"energy": -0.19927,
				"method": "rhf"
			},
			{
				"type": "unocc",
				"energy": -0.02212,
				"method": "rhf"
			},
			{
				"type": "unocc",
				"energy": -0.0166,
				"method": "rhf"
			},
			{
				"type": "unocc",
				"energy": -0.01012,
				"method": "rhf"
			},
			{
				"type": "unocc",
				"energy": -0.00768,
				"method": "rhf"
			},
			{
				"type": "unocc",
				"energy": -0.00288,
				"method": "rhf"
			}
		],
		"cosmo_sigma_profile": { 
			"-0.025": 0.0,
			"-0.024": 0.0,
			"-0.023": 0.0,
			"-0.022": 0.0,
			"-0.021": 0.0,
			"-0.02": 0.0,
			"-0.019": 0.0,
			"-0.018": 0.0,
			"-0.017": 0.0,
			"-0.016": 0.0,
			"-0.015": 0.0,
			"-0.014": 0.0,
			"-0.013": 0.0,
			"-0.012": 0.0,
			"-0.011": 0.00173071037316,
			"-0.01": 0.0306727061703,
			"-0.009": 0.126677627551,
			"-0.008": 0.0602557877255,
			"-0.007": 0.963905681371,
			"-0.006": 16.5068668963,
			"-0.005": 36.9130820984,
			"-0.004": 46.6264213723,
			"-0.003": 49.0381869271,
			"-0.002": 36.1148609085,
			"-0.001": 34.2477323436,
			"0.0": 31.7325941417,
			"0.001": 38.1343796525,
			"0.002": 37.3407038309,
			"0.003": 36.5812469395,
			"0.004": 37.56135867,
			"0.005": 31.3114645613,
			"0.006": 15.9171386787,
			"0.007": 3.54323260821,
			"0.008": 2.13704286697,
			"0.009": 1.6130178847,
			"0.01": 1.90269387127,
			"0.011": 0.505136378586,
			"0.012": 0.851799447258,
			"0.013": 0.108714684807,
			"0.014": 1.07318556255,
			"0.015": 0.137341660648,
			"0.016": 0.0,
			"0.017": 0.0,
			"0.018": 0.0,
			"0.019": 0.0,
			"0.02": 0.0,
			"0.021": 0.0,
			"0.022": 0.0,
			"0.023": 0.0,
			"0.024": 0.0,
			"0.025": 0.0
		}
	}
}
