{
	 "smiles": "COC1=CC=CC=C1OCC(O)CO", 
	 "Tm": 352.95, 
	 "num_atms": 28, 
	 "gaussian": { 
		 "optdone": 1, 
		 "sigma_profile": "yes", 
		 "theory": "DFT", 
		 "functional": "B3LYP", 
		 "basiset": "6-31G**", 
		 "properties": { 
			 "R2extent": 3355.7682, 
			 "electric_dipole_moment_norm": 2.58691942859, 
			 "electric_quadrupole_moment_norm": 10.376250129, 
			 "total_energy": -690.353355419, 
			 "HOMO_LUMO_gap": 0.23228, 
			 "cosmo_polarized_energy": -11.06, 
			 "cosmo_cavitation_energy": 30.66, 
			 "cosmo_dispersion_energy": -21.52, 
			 "cosmo_repulsion_energy": 1.7, 
			 "cosmo_total_nonelectrostatic_energy": 10.85, 
			 "SMD_solvation_energy": 5.67 
		},
		"coords": [
			{
				"x": -1.9433991144,
				"y": -1.0578897701,
				"z": 0.3059727163,
				"element": "C" 
			},
			{
				"x": -1.318743323,
				"y": -0.1056112917,
				"z": -0.5599739097,
				"element": "O" 
			},
			{
				"x": -0.7203545625,
				"y": 0.9555847773,
				"z": 0.0855708384,
				"element": "C" 
			},
			{
				"x": -1.3499276238,
				"y": 2.2010555444,
				"z": 0.0958731963,
				"element": "C" 
			},
			{
				"x": -0.7386526047,
				"y": 3.29508961,
				"z": 0.7115503358,
				"element": "C" 
			},
			{
				"x": 0.5054955602,
				"y": 3.1453398659,
				"z": 1.3263608198,
				"element": "C" 
			},
			{
				"x": 1.1456482534,
				"y": 1.9046028666,
				"z": 1.3109944041,
				"element": "C" 
			},
			{
				"x": 0.5400038672,
				"y": 0.8116106905,
				"z": 0.692051755,
				"element": "C" 
			},
			{
				"x": 1.1754910204,
				"y": -0.4158155695,
				"z": 0.7145736856,
				"element": "O" 
			},
			{
				"x": 1.7600509072,
				"y": -0.8325611936,
				"z": -0.5438433176,
				"element": "C" 
			},
			{
				"x": 2.4297591171,
				"y": -2.1945349455,
				"z": -0.3524367243,
				"element": "C" 
			},
			{
				"x": 3.6139111524,
				"y": -2.0949400217,
				"z": 0.4180929009,
				"element": "O" 
			},
			{
				"x": 1.4856680256,
				"y": -3.2300919356,
				"z": 0.2823052793,
				"element": "C" 
			},
			{
				"x": 1.3449911056,
				"y": -2.9866841309,
				"z": 1.6794106443,
				"element": "O" 
			},
			{
				"x": -2.4104601648,
				"y": -1.8029451539,
				"z": -0.3414146823,
				"element": "H" 
			},
			{
				"x": -1.2142676251,
				"y": -1.5507190804,
				"z": 0.9586287699,
				"element": "H" 
			},
			{
				"x": -2.7147308019,
				"y": -0.5805359221,
				"z": 0.9231694287,
				"element": "H" 
			},
			{
				"x": -2.3169885108,
				"y": 2.2919570174,
				"z": -0.3889781827,
				"element": "H" 
			},
			{
				"x": -1.236931813,
				"y": 4.2598139233,
				"z": 0.7136920028,
				"element": "H" 
			},
			{
				"x": 0.9827397671,
				"y": 3.9921053227,
				"z": 1.8100785552,
				"element": "H" 
			},
			{
				"x": 2.1168155122,
				"y": 1.7615176492,
				"z": 1.7744091776,
				"element": "H" 
			},
			{
				"x": 2.5101020596,
				"y": -0.0945758843,
				"z": -0.8512314588,
				"element": "H" 
			},
			{
				"x": 0.9723599343,
				"y": -0.8919953656,
				"z": -1.3040285437,
				"element": "H" 
			},
			{
				"x": 2.7172139001,
				"y": -2.5396968821,
				"z": -1.3555545503,
				"element": "H" 
			},
			{
				"x": 3.3311602335,
				"y": -2.2474160419,
				"z": 1.3342164823,
				"element": "H" 
			},
			{
				"x": 1.9223123958,
				"y": -4.2288077839,
				"z": 0.1905193787,
				"element": "H" 
			},
			{
				"x": 0.5138524854,
				"y": -3.2329295486,
				"z": -0.2339385456,
				"element": "H" 
			},
			{
				"x": 1.0281808469,
				"y": -2.0717267458,
				"z": 1.7585295441,
				"element": "H" 
			}
		],
		 "valence_orbital": [ 
			{
				"type": "occ",
				"energy": -0.28248,
				"method": "rhf"
			},
			{
				"type": "occ",
				"energy": -0.27296,
				"method": "rhf"
			},
			{
				"type": "occ",
				"energy": -0.25904,
				"method": "rhf"
			},
			{
				"type": "occ",
				"energy": -0.25387,
				"method": "rhf"
			},
			{
				"type": "occ",
				"energy": -0.24034,
				"method": "rhf"
			},
			{
				"type": "unocc",
				"energy": -0.00806,
				"method": "rhf"
			},
			{
				"type": "unocc",
				"energy": -0.00542,
				"method": "rhf"
			},
			{
				"type": "unocc",
				"energy": 0.06127,
				"method": "rhf"
			},
			{
				"type": "unocc",
				"energy": 0.08916,
				"method": "rhf"
			},
			{
				"type": "unocc",
				"energy": 0.10465,
				"method": "rhf"
			}
		],
		"cosmo_sigma_profile": { 
			"-0.025": 0.0,
			"-0.024": 0.0,
			"-0.023": 0.0,
			"-0.022": 0.0,
			"-0.021": 0.0,
			"-0.02": 0.0,
			"-0.019": 0.0,
			"-0.018": 0.0,
			"-0.017": 0.0,
			"-0.016": 0.0,
			"-0.015": 0.0,
			"-0.014": 0.0,
			"-0.013": 0.0,
			"-0.012": 0.0,
			"-0.011": 0.428408794944,
			"-0.01": 0.463595022056,
			"-0.009": 0.239515868061,
			"-0.008": 1.10442598035,
			"-0.007": 2.48166165656,
			"-0.006": 11.9461979338,
			"-0.005": 24.2164432359,
			"-0.004": 28.1267820575,
			"-0.003": 29.2565523426,
			"-0.002": 23.4664371613,
			"-0.001": 15.6911873212,
			"0.0": 12.1991099595,
			"0.001": 11.902273482,
			"0.002": 11.7292814308,
			"0.003": 13.2106979448,
			"0.004": 12.0258862095,
			"0.005": 11.9525878874,
			"0.006": 4.8049793587,
			"0.007": 3.69302733169,
			"0.008": 2.1326783691,
			"0.009": 2.83942926306,
			"0.01": 3.91022197634,
			"0.011": 3.14730594244,
			"0.012": 2.74587483813,
			"0.013": 3.38353682634,
			"0.014": 3.58121549474,
			"0.015": 0.718818790162,
			"0.016": 0.0,
			"0.017": 0.0,
			"0.018": 0.0,
			"0.019": 0.0,
			"0.02": 0.0,
			"0.021": 0.0,
			"0.022": 0.0,
			"0.023": 0.0,
			"0.024": 0.0,
			"0.025": 0.0
		}
	}
}
