{
	 "smiles": "CC1=NC(Cl)=C(C#N)C(C)=C1", 
	 "Tm": 371.65, 
	 "num_atms": 18, 
	 "gaussian": { 
		 "optdone": 1, 
		 "sigma_profile": "yes", 
		 "theory": "DFT", 
		 "functional": "B3LYP", 
		 "basiset": "6-31G**", 
		 "properties": { 
			 "R2extent": 2922.6598, 
			 "electric_dipole_moment_norm": 5.58623519824, 
			 "electric_quadrupole_moment_norm": 7.85564514664, 
			 "total_energy": -878.759788943, 
			 "HOMO_LUMO_gap": 0.1978, 
			 "cosmo_polarized_energy": -10.75, 
			 "cosmo_cavitation_energy": 24.93, 
			 "cosmo_dispersion_energy": -17.74, 
			 "cosmo_repulsion_energy": 1.44, 
			 "cosmo_total_nonelectrostatic_energy": 8.63, 
			 "SMD_solvation_energy": 4.02 
		},
		"coords": [
			{
				"x": 1.2099776548,
				"y": -3.6324491133,
				"z": 0.3713037281,
				"element": "C" 
			},
			{
				"x": 1.26813346,
				"y": -2.1391439427,
				"z": 0.1850457857,
				"element": "C" 
			},
			{
				"x": 2.4826825272,
				"y": -1.5974104888,
				"z": -0.0090380672,
				"element": "N" 
			},
			{
				"x": 2.5688343717,
				"y": -0.2928148649,
				"z": -0.1754689975,
				"element": "C" 
			},
			{
				"x": 4.1782450282,
				"y": 0.3551636845,
				"z": -0.4244318481,
				"element": "Cl" 
			},
			{
				"x": 1.4688716221,
				"y": 0.5850942692,
				"z": -0.1647563408,
				"element": "C" 
			},
			{
				"x": 1.6160255529,
				"y": 1.9940770794,
				"z": -0.3504092155,
				"element": "C" 
			},
			{
				"x": 1.680250124,
				"y": 3.1466518097,
				"z": -0.4959003353,
				"element": "N" 
			},
			{
				"x": 0.1849942727,
				"y": 0.0259045055,
				"z": 0.038839811,
				"element": "C" 
			},
			{
				"x": -1.0405018494,
				"y": 0.8992021815,
				"z": 0.0634473286,
				"element": "C" 
			},
			{
				"x": 0.1087687442,
				"y": -1.3534305236,
				"z": 0.2132386029,
				"element": "C" 
			},
			{
				"x": 0.5868003414,
				"y": -4.0993675384,
				"z": -0.3995662616,
				"element": "H" 
			},
			{
				"x": 2.2150295717,
				"y": -4.0516551478,
				"z": 0.3152012359,
				"element": "H" 
			},
			{
				"x": 0.7716292078,
				"y": -3.8893442427,
				"z": 1.3421089142,
				"element": "H" 
			},
			{
				"x": -1.1517148763,
				"y": 1.4438764109,
				"z": -0.880085583,
				"element": "H" 
			},
			{
				"x": -0.9678877358,
				"y": 1.6529741722,
				"z": 0.8545548366,
				"element": "H" 
			},
			{
				"x": -1.9417901533,
				"y": 0.3058286874,
				"z": 0.2304889839,
				"element": "H" 
			},
			{
				"x": -0.8568478639,
				"y": -1.8238569382,
				"z": 0.3723274223,
				"element": "H" 
			}
		],
		 "valence_orbital": [ 
			{
				"type": "occ",
				"energy": -0.34265,
				"method": "rhf"
			},
			{
				"type": "occ",
				"energy": -0.32212,
				"method": "rhf"
			},
			{
				"type": "occ",
				"energy": -0.29612,
				"method": "rhf"
			},
			{
				"type": "occ",
				"energy": -0.28734,
				"method": "rhf"
			},
			{
				"type": "occ",
				"energy": -0.26623,
				"method": "rhf"
			},
			{
				"type": "unocc",
				"energy": -0.06843,
				"method": "rhf"
			},
			{
				"type": "unocc",
				"energy": -0.04389,
				"method": "rhf"
			},
			{
				"type": "unocc",
				"energy": 0.01622,
				"method": "rhf"
			},
			{
				"type": "unocc",
				"energy": 0.03537,
				"method": "rhf"
			},
			{
				"type": "unocc",
				"energy": 0.0559,
				"method": "rhf"
			}
		],
		"cosmo_sigma_profile": { 
			"-0.025": 0.0,
			"-0.024": 0.0,
			"-0.023": 0.0,
			"-0.022": 0.0,
			"-0.021": 0.0,
			"-0.02": 0.0,
			"-0.019": 0.0,
			"-0.018": 0.0,
			"-0.017": 0.0,
			"-0.016": 0.0,
			"-0.015": 0.0,
			"-0.014": 0.0,
			"-0.013": 0.0,
			"-0.012": 0.0,
			"-0.011": 0.0,
			"-0.01": 0.0,
			"-0.009": 0.0,
			"-0.008": 1.80884697745,
			"-0.007": 3.84486172983,
			"-0.006": 11.0746260499,
			"-0.005": 14.8570421965,
			"-0.004": 15.3004652906,
			"-0.003": 20.6698032092,
			"-0.002": 29.0563105975,
			"-0.001": 21.3012828245,
			"0.0": 12.5658953191,
			"0.001": 8.23503657888,
			"0.002": 8.03749357032,
			"0.003": 12.238726769,
			"0.004": 8.73417367928,
			"0.005": 6.2617375462,
			"0.006": 3.76630277425,
			"0.007": 4.21173308574,
			"0.008": 4.60530850694,
			"0.009": 4.37511460644,
			"0.01": 3.80390856482,
			"0.011": 3.55548133232,
			"0.012": 2.79466645144,
			"0.013": 1.22736413695,
			"0.014": 0.0,
			"0.015": 0.0,
			"0.016": 0.0,
			"0.017": 0.0,
			"0.018": 0.0,
			"0.019": 0.0,
			"0.02": 0.0,
			"0.021": 0.0,
			"0.022": 0.0,
			"0.023": 0.0,
			"0.024": 0.0,
			"0.025": 0.0
		}
	}
}
