{
	 "smiles": "CC(=NO)C1=CC=C(S1)C1=CC=C(F)C=C1", 
	 "Tm": 413.15, 
	 "num_atms": 26, 
	 "gaussian": { 
		 "optdone": 1, 
		 "sigma_profile": "yes", 
		 "theory": "DFT", 
		 "functional": "B3LYP", 
		 "basiset": "6-31G**", 
		 "properties": { 
			 "R2extent": 6434.8409, 
			 "electric_dipole_moment_norm": 1.09362531975, 
			 "electric_quadrupole_moment_norm": 6.66901354625, 
			 "total_energy": -1091.2404863, 
			 "HOMO_LUMO_gap": 0.1465, 
			 "cosmo_polarized_energy": -9.38, 
			 "cosmo_cavitation_energy": 32.66, 
			 "cosmo_dispersion_energy": -24.21, 
			 "cosmo_repulsion_energy": 1.81, 
			 "cosmo_total_nonelectrostatic_energy": 10.26, 
			 "SMD_solvation_energy": 5.98 
		},
		"coords": [
			{
				"x": -1.9796193596,
				"y": 3.4460890604,
				"z": -0.4964747452,
				"element": "C" 
			},
			{
				"x": -0.5811888107,
				"y": 3.1598654017,
				"z": -0.0107336035,
				"element": "C" 
			},
			{
				"x": 0.1771455426,
				"y": 4.0094432822,
				"z": 0.5977533012,
				"element": "N" 
			},
			{
				"x": -0.4437254871,
				"y": 5.2540502866,
				"z": 0.77453826,
				"element": "O" 
			},
			{
				"x": 0.0022621579,
				"y": 1.8284957264,
				"z": -0.2102306126,
				"element": "C" 
			},
			{
				"x": 1.2426150669,
				"y": 1.3662208149,
				"z": 0.1755757298,
				"element": "C" 
			},
			{
				"x": 1.4797020502,
				"y": 0.0173673979,
				"z": -0.1830242257,
				"element": "C" 
			},
			{
				"x": 0.4269834618,
				"y": -0.5790482071,
				"z": -0.8466638409,
				"element": "C" 
			},
			{
				"x": -0.890568268,
				"y": 0.559314323,
				"z": -1.0218636944,
				"element": "S" 
			},
			{
				"x": 0.3278892291,
				"y": -1.9509294303,
				"z": -1.3561244236,
				"element": "C" 
			},
			{
				"x": -0.4949621026,
				"y": -2.2770922531,
				"z": -2.4505499427,
				"element": "C" 
			},
			{
				"x": -0.5775004294,
				"y": -3.5818441671,
				"z": -2.9299109395,
				"element": "C" 
			},
			{
				"x": 0.1799236376,
				"y": -4.5716397126,
				"z": -2.3142783713,
				"element": "C" 
			},
			{
				"x": 0.1090081313,
				"y": -5.836891851,
				"z": -2.7763689475,
				"element": "F" 
			},
			{
				"x": 1.0069758119,
				"y": -4.2916076769,
				"z": -1.2316667476,
				"element": "C" 
			},
			{
				"x": 1.0701839824,
				"y": -2.9857226965,
				"z": -0.7544063322,
				"element": "C" 
			},
			{
				"x": -2.7125633098,
				"y": 2.895045271,
				"z": 0.1040000273,
				"element": "H" 
			},
			{
				"x": -2.2021630809,
				"y": 4.5090891808,
				"z": -0.4249949462,
				"element": "H" 
			},
			{
				"x": -2.0990171735,
				"y": 3.1248578994,
				"z": -1.5362082153,
				"element": "H" 
			},
			{
				"x": 0.2525616269,
				"y": 5.7626705893,
				"z": 1.2101017912,
				"element": "H" 
			},
			{
				"x": 1.9540857752,
				"y": 1.9978433011,
				"z": 0.6924891478,
				"element": "H" 
			},
			{
				"x": 2.4139170813,
				"y": -0.4962432601,
				"z": 0.0142356292,
				"element": "H" 
			},
			{
				"x": -1.0637491664,
				"y": -1.496347872,
				"z": -2.9464827179,
				"element": "H" 
			},
			{
				"x": -1.2077027652,
				"y": -3.8361539914,
				"z": -3.7751680885,
				"element": "H" 
			},
			{
				"x": 1.5745245935,
				"y": -5.0920278201,
				"z": -0.7694463588,
				"element": "H" 
			},
			{
				"x": 1.6880818046,
				"y": -2.7671035968,
				"z": 0.1104028673,
				"element": "H" 
			}
		],
		 "valence_orbital": [ 
			{
				"type": "occ",
				"energy": -0.27524,
				"method": "rhf"
			},
			{
				"type": "occ",
				"energy": -0.26609,
				"method": "rhf"
			},
			{
				"type": "occ",
				"energy": -0.25618,
				"method": "rhf"
			},
			{
				"type": "occ",
				"energy": -0.25241,
				"method": "rhf"
			},
			{
				"type": "occ",
				"energy": -0.20131,
				"method": "rhf"
			},
			{
				"type": "unocc",
				"energy": -0.05481,
				"method": "rhf"
			},
			{
				"type": "unocc",
				"energy": -0.01709,
				"method": "rhf"
			},
			{
				"type": "unocc",
				"energy": -0.00476,
				"method": "rhf"
			},
			{
				"type": "unocc",
				"energy": 0.02748,
				"method": "rhf"
			},
			{
				"type": "unocc",
				"energy": 0.04783,
				"method": "rhf"
			}
		],
		"cosmo_sigma_profile": { 
			"-0.025": 0.0,
			"-0.024": 0.0,
			"-0.023": 0.0,
			"-0.022": 0.0,
			"-0.021": 0.0,
			"-0.02": 0.0,
			"-0.019": 0.0,
			"-0.018": 0.139281517143,
			"-0.017": 0.829278917738,
			"-0.016": 0.842790645518,
			"-0.015": 1.42689485454,
			"-0.014": 0.555723609184,
			"-0.013": 0.388349084932,
			"-0.012": 0.694632351677,
			"-0.011": 0.573379780839,
			"-0.01": 0.574478394274,
			"-0.009": 0.656340528292,
			"-0.008": 1.69975086959,
			"-0.007": 8.80533071364,
			"-0.006": 12.2597934757,
			"-0.005": 15.5581854789,
			"-0.004": 16.0005904001,
			"-0.003": 15.099152529,
			"-0.002": 17.3534425408,
			"-0.001": 17.491725794,
			"0.0": 17.8510477791,
			"0.001": 20.6383652144,
			"0.002": 23.2280399775,
			"0.003": 32.6858249423,
			"0.004": 30.6033427817,
			"0.005": 9.8077402152,
			"0.006": 4.54126582162,
			"0.007": 3.92934552264,
			"0.008": 3.94710152515,
			"0.009": 2.84970565548,
			"0.01": 2.10457816017,
			"0.011": 0.468601500743,
			"0.012": 0.0,
			"0.013": 0.0,
			"0.014": 0.0,
			"0.015": 0.0,
			"0.016": 0.0,
			"0.017": 0.0,
			"0.018": 0.0,
			"0.019": 0.0,
			"0.02": 0.0,
			"0.021": 0.0,
			"0.022": 0.0,
			"0.023": 0.0,
			"0.024": 0.0,
			"0.025": 0.0
		}
	}
}
