{
	 "smiles": "NC1=C(C=C(OC2=CC=CC=C2)C=C1)C(O)=O", 
	 "Tm": 412.15, 
	 "num_atms": 28, 
	 "gaussian": { 
		 "optdone": 1, 
		 "sigma_profile": "yes", 
		 "theory": "DFT", 
		 "functional": "B3LYP", 
		 "basiset": "6-31G**", 
		 "properties": { 
			 "R2extent": 5730.0043, 
			 "electric_dipole_moment_norm": 4.17639395891, 
			 "electric_quadrupole_moment_norm": 25.2168048486, 
			 "total_energy": -782.449246816, 
			 "HOMO_LUMO_gap": 0.15845, 
			 "cosmo_polarized_energy": -14.9, 
			 "cosmo_cavitation_energy": 32.82, 
			 "cosmo_dispersion_energy": -24.02, 
			 "cosmo_repulsion_energy": 1.87, 
			 "cosmo_total_nonelectrostatic_energy": 10.67, 
			 "SMD_solvation_energy": 6.79 
		},
		"coords": [
			{
				"x": -0.1266732148,
				"y": 5.0994827625,
				"z": -0.7579410272,
				"element": "N" 
			},
			{
				"x": 0.0517879107,
				"y": 3.7430748152,
				"z": -0.6339088119,
				"element": "C" 
			},
			{
				"x": 1.0260542769,
				"y": 3.1440040048,
				"z": 0.2136652765,
				"element": "C" 
			},
			{
				"x": 1.1684732846,
				"y": 1.7410237501,
				"z": 0.2273958578,
				"element": "C" 
			},
			{
				"x": 0.3804386736,
				"y": 0.930425408,
				"z": -0.5651626711,
				"element": "C" 
			},
			{
				"x": 0.6169890166,
				"y": -0.4362895997,
				"z": -0.5920280289,
				"element": "O" 
			},
			{
				"x": -0.3273934474,
				"y": -1.3038750741,
				"z": -0.0839439594,
				"element": "C" 
			},
			{
				"x": -0.1587157075,
				"y": -2.6512973246,
				"z": -0.4218632465,
				"element": "C" 
			},
			{
				"x": -1.0484919816,
				"y": -3.6019082542,
				"z": 0.0715540801,
				"element": "C" 
			},
			{
				"x": -2.1099196947,
				"y": -3.2200176879,
				"z": 0.8976469408,
				"element": "C" 
			},
			{
				"x": -2.2668488573,
				"y": -1.8743572455,
				"z": 1.2290769019,
				"element": "C" 
			},
			{
				"x": -1.3805787188,
				"y": -0.9084467688,
				"z": 0.7457477425,
				"element": "C" 
			},
			{
				"x": -0.5853910764,
				"y": 1.5088784494,
				"z": -1.4027508979,
				"element": "C" 
			},
			{
				"x": -0.7433919948,
				"y": 2.8822275509,
				"z": -1.4291858607,
				"element": "C" 
			},
			{
				"x": 1.932984835,
				"y": 3.86945349,
				"z": 1.1284334371,
				"element": "C" 
			},
			{
				"x": 1.7479059322,
				"y": 5.2267879732,
				"z": 1.1628760138,
				"element": "O" 
			},
			{
				"x": 2.7855871256,
				"y": 3.3545811609,
				"z": 1.8261153422,
				"element": "O" 
			},
			{
				"x": 0.2965025179,
				"y": 5.702690836,
				"z": -0.0707476664,
				"element": "H" 
			},
			{
				"x": -0.9808086561,
				"y": 5.4175402935,
				"z": -1.1866338457,
				"element": "H" 
			},
			{
				"x": 1.9209118502,
				"y": 1.3072161308,
				"z": 0.875543148,
				"element": "H" 
			},
			{
				"x": 0.6704100807,
				"y": -2.927512924,
				"z": -1.0650627005,
				"element": "H" 
			},
			{
				"x": -0.9128120352,
				"y": -4.6466414131,
				"z": -0.1936929923,
				"element": "H" 
			},
			{
				"x": -2.8035216942,
				"y": -3.9632583915,
				"z": 1.2784856438,
				"element": "H" 
			},
			{
				"x": -3.0837804774,
				"y": -1.5649520292,
				"z": 1.8751885913,
				"element": "H" 
			},
			{
				"x": -1.5014516775,
				"y": 0.1346020665,
				"z": 1.0147713535,
				"element": "H" 
			},
			{
				"x": -1.2005667947,
				"y": 0.872462014,
				"z": -2.031203986,
				"element": "H" 
			},
			{
				"x": -1.4854521117,
				"y": 3.3244382129,
				"z": -2.0889098282,
				"element": "H" 
			},
			{
				"x": 2.4026526362,
				"y": 5.5561677937,
				"z": 1.8004351934,
				"element": "H" 
			}
		],
		 "valence_orbital": [ 
			{
				"type": "occ",
				"energy": -0.27861,
				"method": "rhf"
			},
			{
				"type": "occ",
				"energy": -0.26289,
				"method": "rhf"
			},
			{
				"type": "occ",
				"energy": -0.24739,
				"method": "rhf"
			},
			{
				"type": "occ",
				"energy": -0.22304,
				"method": "rhf"
			},
			{
				"type": "occ",
				"energy": -0.20444,
				"method": "rhf"
			},
			{
				"type": "unocc",
				"energy": -0.04599,
				"method": "rhf"
			},
			{
				"type": "unocc",
				"energy": 0.00128,
				"method": "rhf"
			},
			{
				"type": "unocc",
				"energy": 0.00559,
				"method": "rhf"
			},
			{
				"type": "unocc",
				"energy": 0.01709,
				"method": "rhf"
			},
			{
				"type": "unocc",
				"energy": 0.05712,
				"method": "rhf"
			}
		],
		"cosmo_sigma_profile": { 
			"-0.025": 0.0,
			"-0.024": 0.0,
			"-0.023": 0.0,
			"-0.022": 0.0,
			"-0.021": 0.0,
			"-0.02": 0.0,
			"-0.019": 0.0547049923663,
			"-0.018": 0.632302720331,
			"-0.017": 0.877308899593,
			"-0.016": 0.920944064126,
			"-0.015": 0.992335146305,
			"-0.014": 1.10979433978,
			"-0.013": 1.56729432737,
			"-0.012": 1.74001828946,
			"-0.011": 2.2912624846,
			"-0.01": 2.94254822079,
			"-0.009": 3.48161034715,
			"-0.008": 2.96801934209,
			"-0.007": 5.03626380732,
			"-0.006": 10.7067829508,
			"-0.005": 15.217612622,
			"-0.004": 16.0799093096,
			"-0.003": 15.8434264725,
			"-0.002": 15.7452012,
			"-0.001": 16.5281791923,
			"0.0": 17.9711161316,
			"0.001": 17.3395019143,
			"0.002": 21.3383571625,
			"0.003": 25.7827773078,
			"0.004": 19.6607926786,
			"0.005": 14.4967269391,
			"0.006": 9.85541181084,
			"0.007": 3.0748519047,
			"0.008": 3.80780285259,
			"0.009": 3.33885309408,
			"0.01": 2.4005070918,
			"0.011": 3.54220925572,
			"0.012": 5.03804717294,
			"0.013": 0.278742678963,
			"0.014": 0.0,
			"0.015": 0.0,
			"0.016": 0.0,
			"0.017": 0.0,
			"0.018": 0.0,
			"0.019": 0.0,
			"0.02": 0.0,
			"0.021": 0.0,
			"0.022": 0.0,
			"0.023": 0.0,
			"0.024": 0.0,
			"0.025": 0.0
		}
	}
}
