{
	 "smiles": "CC(=O)C(=O)NC1=CC=C(Br)C=C1", 
	 "Tm": 439.15, 
	 "num_atms": 21, 
	 "gaussian": { 
		 "optdone": 1, 
		 "sigma_profile": "yes", 
		 "theory": "DFT", 
		 "functional": "B3LYP", 
		 "basiset": "6-31G**", 
		 "properties": { 
			 "R2extent": 6354.3471, 
			 "electric_dipole_moment_norm": 1.90921484386, 
			 "electric_quadrupole_moment_norm": 4.73030000211, 
			 "total_energy": -3124.39952728, 
			 "HOMO_LUMO_gap": 0.14653, 
			 "cosmo_polarized_energy": -10.32, 
			 "cosmo_cavitation_energy": 28.5, 
			 "cosmo_dispersion_energy": -21.28, 
			 "cosmo_repulsion_energy": 1.68, 
			 "cosmo_total_nonelectrostatic_energy": 8.91, 
			 "SMD_solvation_energy": 5.09 
		},
		"coords": [
			{
				"x": -0.6166670496,
				"y": -1.1557912279,
				"z": -4.125834032,
				"element": "C" 
			},
			{
				"x": -0.5987904419,
				"y": -1.5976792914,
				"z": -2.6900296875,
				"element": "C" 
			},
			{
				"x": -0.6032288845,
				"y": -2.7612251509,
				"z": -2.3269678219,
				"element": "O" 
			},
			{
				"x": -0.572936988,
				"y": -0.4639643392,
				"z": -1.6379279365,
				"element": "C" 
			},
			{
				"x": -0.5675645896,
				"y": 0.714999988,
				"z": -1.9728898785,
				"element": "O" 
			},
			{
				"x": -0.5573883756,
				"y": -0.9664795483,
				"z": -0.3723072977,
				"element": "N" 
			},
			{
				"x": -0.5320964717,
				"y": -0.2807060849,
				"z": 0.853738984,
				"element": "C" 
			},
			{
				"x": -0.5185349694,
				"y": 1.1203656508,
				"z": 0.9407653662,
				"element": "C" 
			},
			{
				"x": -0.4934284297,
				"y": 1.7335527514,
				"z": 2.192265422,
				"element": "C" 
			},
			{
				"x": -0.4818618789,
				"y": 0.9598028367,
				"z": 3.3509764461,
				"element": "C" 
			},
			{
				"x": -0.4473250869,
				"y": 1.8123225929,
				"z": 5.0602043863,
				"element": "Br" 
			},
			{
				"x": -0.4951770716,
				"y": -0.4324945273,
				"z": 3.2769297812,
				"element": "C" 
			},
			{
				"x": -0.5202239261,
				"y": -1.0474815833,
				"z": 2.0295145746,
				"element": "C" 
			},
			{
				"x": -0.6341963992,
				"y": -2.0267489417,
				"z": -4.7809966559,
				"element": "H" 
			},
			{
				"x": -1.4884611465,
				"y": -0.5188592147,
				"z": -4.3075172469,
				"element": "H" 
			},
			{
				"x": 0.2602315542,
				"y": -0.534148386,
				"z": -4.3339974947,
				"element": "H" 
			},
			{
				"x": -0.5658005235,
				"y": -1.9818318951,
				"z": -0.3482732219,
				"element": "H" 
			},
			{
				"x": -0.5276955563,
				"y": 1.7117561379,
				"z": 0.0355281183,
				"element": "H" 
			},
			{
				"x": -0.4828932844,
				"y": 2.8153639455,
				"z": 2.2615612752,
				"element": "H" 
			},
			{
				"x": -0.4861007788,
				"y": -1.0297099964,
				"z": 4.1813508779,
				"element": "H" 
			},
			{
				"x": -0.5306597022,
				"y": -2.1327437164,
				"z": 1.9678060415,
				"element": "H" 
			}
		],
		 "valence_orbital": [ 
			{
				"type": "occ",
				"energy": -0.29187,
				"method": "rhf"
			},
			{
				"type": "occ",
				"energy": -0.28862,
				"method": "rhf"
			},
			{
				"type": "occ",
				"energy": -0.27002,
				"method": "rhf"
			},
			{
				"type": "occ",
				"energy": -0.25529,
				"method": "rhf"
			},
			{
				"type": "occ",
				"energy": -0.22821,
				"method": "rhf"
			},
			{
				"type": "unocc",
				"energy": -0.08168,
				"method": "rhf"
			},
			{
				"type": "unocc",
				"energy": -0.01987,
				"method": "rhf"
			},
			{
				"type": "unocc",
				"energy": -0.01057,
				"method": "rhf"
			},
			{
				"type": "unocc",
				"energy": 0.00571,
				"method": "rhf"
			},
			{
				"type": "unocc",
				"energy": 0.06417,
				"method": "rhf"
			}
		],
		"cosmo_sigma_profile": { 
			"-0.025": 0.0,
			"-0.024": 0.0,
			"-0.023": 0.0,
			"-0.022": 0.0,
			"-0.021": 0.0,
			"-0.02": 0.0,
			"-0.019": 0.0,
			"-0.018": 0.0,
			"-0.017": 0.0,
			"-0.016": 0.0,
			"-0.015": 0.0,
			"-0.014": 0.295852229364,
			"-0.013": 1.41906760898,
			"-0.012": 0.654406461618,
			"-0.011": 1.32793956274,
			"-0.01": 0.959043387369,
			"-0.009": 1.31069973431,
			"-0.008": 3.08885187496,
			"-0.007": 10.0497236314,
			"-0.006": 13.0093907258,
			"-0.005": 14.6217682475,
			"-0.004": 14.6283633327,
			"-0.003": 14.2114323379,
			"-0.002": 17.5653603661,
			"-0.001": 13.7529036162,
			"0.0": 15.1358170672,
			"0.001": 15.9357425171,
			"0.002": 19.6814890927,
			"0.003": 25.348715548,
			"0.004": 15.3072692945,
			"0.005": 9.36993132883,
			"0.006": 1.97166130847,
			"0.007": 4.3629340139,
			"0.008": 3.24915586877,
			"0.009": 3.22351285498,
			"0.01": 4.96820931019,
			"0.011": 3.72042016305,
			"0.012": 2.51212752182,
			"0.013": 0.207360041452,
			"0.014": 0.0,
			"0.015": 0.0,
			"0.016": 0.0,
			"0.017": 0.0,
			"0.018": 0.0,
			"0.019": 0.0,
			"0.02": 0.0,
			"0.021": 0.0,
			"0.022": 0.0,
			"0.023": 0.0,
			"0.024": 0.0,
			"0.025": 0.0
		}
	}
}
