{
	 "smiles": "CC(C)(C)OC(=O)N1CCC(CO)CC1", 
	 "Tm": 353.15, 
	 "num_atms": 36, 
	 "gaussian": { 
		 "optdone": 1, 
		 "sigma_profile": "yes", 
		 "theory": "DFT", 
		 "functional": "B3LYP", 
		 "basiset": "6-31G**", 
		 "properties": { 
			 "R2extent": 4964.5348, 
			 "electric_dipole_moment_norm": 2.70053763906, 
			 "electric_quadrupole_moment_norm": 13.3483138988, 
			 "total_energy": -712.281295742, 
			 "HOMO_LUMO_gap": 0.28587, 
			 "cosmo_polarized_energy": -11.74, 
			 "cosmo_cavitation_energy": 35.8, 
			 "cosmo_dispersion_energy": -25.25, 
			 "cosmo_repulsion_energy": 2.01, 
			 "cosmo_total_nonelectrostatic_energy": 12.57, 
			 "SMD_solvation_energy": 6.22 
		},
		"coords": [
			{
				"x": 2.746654809,
				"y": -2.5778519897,
				"z": 0.6198963252,
				"element": "C" 
			},
			{
				"x": 1.6711063818,
				"y": -2.6656735786,
				"z": 1.7085247903,
				"element": "C" 
			},
			{
				"x": 1.0688687072,
				"y": -4.0727507237,
				"z": 1.7618222941,
				"element": "C" 
			},
			{
				"x": 2.2043929545,
				"y": -2.2526810196,
				"z": 3.0850474128,
				"element": "C" 
			},
			{
				"x": 0.5138840486,
				"y": -1.8372795997,
				"z": 1.3458342264,
				"element": "O" 
			},
			{
				"x": 0.640480997,
				"y": -0.4936262363,
				"z": 1.1892001683,
				"element": "C" 
			},
			{
				"x": 1.675589187,
				"y": 0.1435218668,
				"z": 1.3427188861,
				"element": "O" 
			},
			{
				"x": -0.5604721545,
				"y": 0.0554396506,
				"z": 0.8301740185,
				"element": "N" 
			},
			{
				"x": -0.6645835382,
				"y": 1.5030607,
				"z": 0.6707754619,
				"element": "C" 
			},
			{
				"x": -1.2304321956,
				"y": 1.8731883528,
				"z": -0.7131248573,
				"element": "C" 
			},
			{
				"x": -2.3192271719,
				"y": 0.8720676875,
				"z": -1.1841801068,
				"element": "C" 
			},
			{
				"x": -3.4057916938,
				"y": 1.5823369426,
				"z": -1.9860442969,
				"element": "C" 
			},
			{
				"x": -4.2911062357,
				"y": 0.602863983,
				"z": -2.5153138055,
				"element": "O" 
			},
			{
				"x": -2.8869058061,
				"y": 0.0927720921,
				"z": 0.0111205674,
				"element": "C" 
			},
			{
				"x": -1.7884329127,
				"y": -0.7407898659,
				"z": 0.6841724392,
				"element": "C" 
			},
			{
				"x": 3.1621113598,
				"y": -1.5716380695,
				"z": 0.5643973766,
				"element": "H" 
			},
			{
				"x": 3.5532476817,
				"y": -3.2846424898,
				"z": 0.8411802402,
				"element": "H" 
			},
			{
				"x": 2.3222482701,
				"y": -2.8417414078,
				"z": -0.3542188037,
				"element": "H" 
			},
			{
				"x": 1.8390299879,
				"y": -4.8021578154,
				"z": 2.0301094889,
				"element": "H" 
			},
			{
				"x": 0.2695972904,
				"y": -4.1224007785,
				"z": 2.5071102296,
				"element": "H" 
			},
			{
				"x": 0.6512561605,
				"y": -4.3514669355,
				"z": 0.7898183387,
				"element": "H" 
			},
			{
				"x": 2.6117466659,
				"y": -1.2420993096,
				"z": 3.0564486313,
				"element": "H" 
			},
			{
				"x": 2.9920142239,
				"y": -2.9460644025,
				"z": 3.3980639942,
				"element": "H" 
			},
			{
				"x": 1.4023709163,
				"y": -2.2918204479,
				"z": 3.829250382,
				"element": "H" 
			},
			{
				"x": 0.3321341141,
				"y": 1.9168866443,
				"z": 0.8196688785,
				"element": "H" 
			},
			{
				"x": -1.3103365586,
				"y": 1.910152542,
				"z": 1.4615395659,
				"element": "H" 
			},
			{
				"x": -0.4204099449,
				"y": 1.9091605378,
				"z": -1.4492134179,
				"element": "H" 
			},
			{
				"x": -1.6448631976,
				"y": 2.8886944418,
				"z": -0.6516617548,
				"element": "H" 
			},
			{
				"x": -1.8559292101,
				"y": 0.1403577513,
				"z": -1.8595469898,
				"element": "H" 
			},
			{
				"x": -2.9375220677,
				"y": 2.1734818537,
				"z": -2.7903705596,
				"element": "H" 
			},
			{
				"x": -3.9391665466,
				"y": 2.2908232887,
				"z": -1.3286647813,
				"element": "H" 
			},
			{
				"x": -4.9933838351,
				"y": 1.0571621623,
				"z": -2.9961411458,
				"element": "H" 
			},
			{
				"x": -3.3351743148,
				"y": 0.7926420163,
				"z": 0.7292077818,
				"element": "H" 
			},
			{
				"x": -3.6883118959,
				"y": -0.57211994,
				"z": -0.3216038949,
				"element": "H" 
			},
			{
				"x": -1.5630479286,
				"y": -1.6184627031,
				"z": 0.0708264801,
				"element": "H" 
			},
			{
				"x": -2.1272365471,
				"y": -1.1132452007,
				"z": 1.660576436,
				"element": "H" 
			}
		],
		 "valence_orbital": [ 
			{
				"type": "occ",
				"energy": -0.31341,
				"method": "rhf"
			},
			{
				"type": "occ",
				"energy": -0.27836,
				"method": "rhf"
			},
			{
				"type": "occ",
				"energy": -0.26951,
				"method": "rhf"
			},
			{
				"type": "occ",
				"energy": -0.25063,
				"method": "rhf"
			},
			{
				"type": "occ",
				"energy": -0.22471,
				"method": "rhf"
			},
			{
				"type": "unocc",
				"energy": 0.06116,
				"method": "rhf"
			},
			{
				"type": "unocc",
				"energy": 0.07325,
				"method": "rhf"
			},
			{
				"type": "unocc",
				"energy": 0.08585,
				"method": "rhf"
			},
			{
				"type": "unocc",
				"energy": 0.09642,
				"method": "rhf"
			},
			{
				"type": "unocc",
				"energy": 0.10812,
				"method": "rhf"
			}
		],
		"cosmo_sigma_profile": { 
			"-0.025": 0.0,
			"-0.024": 0.0,
			"-0.023": 0.0,
			"-0.022": 0.0,
			"-0.021": 0.0,
			"-0.02": 0.0,
			"-0.019": 0.0,
			"-0.018": 0.0,
			"-0.017": 0.0,
			"-0.016": 0.368177914777,
			"-0.015": 1.02294367378,
			"-0.014": 0.914588714008,
			"-0.013": 0.967224612689,
			"-0.012": 0.998849494658,
			"-0.011": 0.646264452914,
			"-0.01": 0.86092239228,
			"-0.009": 0.398315201031,
			"-0.008": 0.926958633608,
			"-0.007": 1.07465175159,
			"-0.006": 1.15333171236,
			"-0.005": 1.1551954558,
			"-0.004": 16.5684544491,
			"-0.003": 45.4458443572,
			"-0.002": 46.6948431764,
			"-0.001": 34.2202348482,
			"0.0": 30.7201213488,
			"0.001": 29.6667388274,
			"0.002": 11.3010639612,
			"0.003": 7.37924315757,
			"0.004": 5.19746850857,
			"0.005": 6.37928730307,
			"0.006": 4.81960423418,
			"0.007": 3.95420900827,
			"0.008": 4.64275925307,
			"0.009": 2.33702864869,
			"0.01": 2.18132029845,
			"0.011": 3.5296945859,
			"0.012": 2.78973909044,
			"0.013": 3.40936551887,
			"0.014": 3.9601965374,
			"0.015": 0.261205059753,
			"0.016": 0.0,
			"0.017": 0.0,
			"0.018": 0.0,
			"0.019": 0.0,
			"0.02": 0.0,
			"0.021": 0.0,
			"0.022": 0.0,
			"0.023": 0.0,
			"0.024": 0.0,
			"0.025": 0.0
		}
	}
}
