{
	 "smiles": "CCCCCCCCC(C)O", 
	 "Tm": 269.65, 
	 "num_atms": 33, 
	 "gaussian": { 
		 "optdone": 1, 
		 "sigma_profile": "yes", 
		 "theory": "DFT", 
		 "functional": "B3LYP", 
		 "basiset": "6-31G**", 
		 "properties": { 
			 "R2extent": 4113.6299, 
			 "electric_dipole_moment_norm": 1.64272963692, 
			 "electric_quadrupole_moment_norm": 12.5942825167, 
			 "total_energy": -469.5630824, 
			 "HOMO_LUMO_gap": 0.33458, 
			 "cosmo_polarized_energy": -6.02, 
			 "cosmo_cavitation_energy": 32.68, 
			 "cosmo_dispersion_energy": -22.5, 
			 "cosmo_repulsion_energy": 1.86, 
			 "cosmo_total_nonelectrostatic_energy": 12.03, 
			 "SMD_solvation_energy": 4.77 
		},
		"coords": [
			{
				"x": -2.4850582161,
				"y": -2.0871728391,
				"z": 1.2780763492,
				"element": "C" 
			},
			{
				"x": -2.4585254888,
				"y": -0.8314690963,
				"z": 0.3982588052,
				"element": "C" 
			},
			{
				"x": -2.0038521628,
				"y": 0.4399823944,
				"z": 1.1408543974,
				"element": "C" 
			},
			{
				"x": -0.5074632343,
				"y": 0.498606714,
				"z": 1.5292863953,
				"element": "C" 
			},
			{
				"x": 0.4063622369,
				"y": 1.2413776804,
				"z": 0.5371466225,
				"element": "C" 
			},
			{
				"x": 0.5393198522,
				"y": 0.6011436018,
				"z": -0.8527657464,
				"element": "C" 
			},
			{
				"x": 1.5442577361,
				"y": 1.3221950183,
				"z": -1.7722663182,
				"element": "C" 
			},
			{
				"x": 1.1001340994,
				"y": 2.7020312962,
				"z": -2.3112255408,
				"element": "C" 
			},
			{
				"x": 0.4713772547,
				"y": 2.6934834672,
				"z": -3.7151546677,
				"element": "C" 
			},
			{
				"x": -0.8404409392,
				"y": 1.9133126899,
				"z": -3.823275482,
				"element": "C" 
			},
			{
				"x": 0.2990993996,
				"y": 4.0319919472,
				"z": -4.1878991024,
				"element": "O" 
			},
			{
				"x": -1.4950330972,
				"y": -2.3259020032,
				"z": 1.6812359369,
				"element": "H" 
			},
			{
				"x": -2.8262526649,
				"y": -2.9600000038,
				"z": 0.711538161,
				"element": "H" 
			},
			{
				"x": -3.1637793479,
				"y": -1.9563903015,
				"z": 2.1290158334,
				"element": "H" 
			},
			{
				"x": -1.814853275,
				"y": -1.0103599841,
				"z": -0.4713069405,
				"element": "H" 
			},
			{
				"x": -3.4665409757,
				"y": -0.6607093574,
				"z": -0.0016772004,
				"element": "H" 
			},
			{
				"x": -2.2467531173,
				"y": 1.3210031091,
				"z": 0.5310206828,
				"element": "H" 
			},
			{
				"x": -2.6150400596,
				"y": 0.5327699397,
				"z": 2.048552272,
				"element": "H" 
			},
			{
				"x": -0.413005748,
				"y": 1.0000229994,
				"z": 2.5003579345,
				"element": "H" 
			},
			{
				"x": -0.1210918777,
				"y": -0.517623908,
				"z": 1.6853857666,
				"element": "H" 
			},
			{
				"x": 1.4093983798,
				"y": 1.3171026298,
				"z": 0.9802116403,
				"element": "H" 
			},
			{
				"x": 0.0451045414,
				"y": 2.2743483789,
				"z": 0.4366010944,
				"element": "H" 
			},
			{
				"x": 0.8634694503,
				"y": -0.4412409795,
				"z": -0.7282373012,
				"element": "H" 
			},
			{
				"x": -0.4422009728,
				"y": 0.558018605,
				"z": -1.3384629322,
				"element": "H" 
			},
			{
				"x": 1.7867655803,
				"y": 0.6705285341,
				"z": -2.6227022532,
				"element": "H" 
			},
			{
				"x": 2.4843437054,
				"y": 1.4412021461,
				"z": -1.2185885779,
				"element": "H" 
			},
			{
				"x": 1.9624100117,
				"y": 3.3752842941,
				"z": -2.3671408966,
				"element": "H" 
			},
			{
				"x": 0.3930670646,
				"y": 3.1734693919,
				"z": -1.6125530832,
				"element": "H" 
			},
			{
				"x": 1.1978339154,
				"y": 2.2546693727,
				"z": -4.4115498442,
				"element": "H" 
			},
			{
				"x": -1.242788929,
				"y": 2.0041938583,
				"z": -4.8363250359,
				"element": "H" 
			},
			{
				"x": -0.7038881564,
				"y": 0.8502946464,
				"z": -3.6019850616,
				"element": "H" 
			},
			{
				"x": -1.5878933508,
				"y": 2.3075698202,
				"z": -3.1223427734,
				"element": "H" 
			},
			{
				"x": -0.3419816141,
				"y": 4.4622659376,
				"z": -3.6053831337,
				"element": "H" 
			}
		],
		 "valence_orbital": [ 
			{
				"type": "occ",
				"energy": -0.31149,
				"method": "rhf"
			},
			{
				"type": "occ",
				"energy": -0.30887,
				"method": "rhf"
			},
			{
				"type": "occ",
				"energy": -0.30293,
				"method": "rhf"
			},
			{
				"type": "occ",
				"energy": -0.30118,
				"method": "rhf"
			},
			{
				"type": "occ",
				"energy": -0.25857,
				"method": "rhf"
			},
			{
				"type": "unocc",
				"energy": 0.07601,
				"method": "rhf"
			},
			{
				"type": "unocc",
				"energy": 0.08658,
				"method": "rhf"
			},
			{
				"type": "unocc",
				"energy": 0.09706,
				"method": "rhf"
			},
			{
				"type": "unocc",
				"energy": 0.10148,
				"method": "rhf"
			},
			{
				"type": "unocc",
				"energy": 0.10813,
				"method": "rhf"
			}
		],
		"cosmo_sigma_profile": { 
			"-0.025": 0.0,
			"-0.024": 0.0,
			"-0.023": 0.0,
			"-0.022": 0.0,
			"-0.021": 0.0,
			"-0.02": 0.0,
			"-0.019": 0.0,
			"-0.018": 0.0,
			"-0.017": 0.0,
			"-0.016": 0.0,
			"-0.015": 0.0345767127553,
			"-0.014": 0.846218918551,
			"-0.013": 0.756074323545,
			"-0.012": 1.09678493886,
			"-0.011": 0.728492226357,
			"-0.01": 1.36646091083,
			"-0.009": 0.781297883985,
			"-0.008": 1.04382219688,
			"-0.007": 0.70191934572,
			"-0.006": 1.0886405905,
			"-0.005": 1.65428602047,
			"-0.004": 2.47268894295,
			"-0.003": 11.6854354015,
			"-0.002": 35.8628527589,
			"-0.001": 51.3574725972,
			"0.0": 53.0669897839,
			"0.001": 46.3913128968,
			"0.002": 20.102350903,
			"0.003": 2.17895211604,
			"0.004": 1.4916009884,
			"0.005": 1.04000592201,
			"0.006": 1.15337849765,
			"0.007": 1.03139820466,
			"0.008": 1.6280528206,
			"0.009": 1.25567089284,
			"0.01": 0.732737103853,
			"0.011": 1.53116198823,
			"0.012": 1.13826797119,
			"0.013": 1.39157414604,
			"0.014": 1.89885842857,
			"0.015": 2.18421189836,
			"0.016": 0.10850580889,
			"0.017": 0.0,
			"0.018": 0.0,
			"0.019": 0.0,
			"0.02": 0.0,
			"0.021": 0.0,
			"0.022": 0.0,
			"0.023": 0.0,
			"0.024": 0.0,
			"0.025": 0.0
		}
	}
}
