{
	 "smiles": "CN(C)C(=O)CNC1=CC=CC=C1", 
	 "Tm": 388.15, 
	 "num_atms": 27, 
	 "gaussian": { 
		 "optdone": 1, 
		 "sigma_profile": "yes", 
		 "theory": "DFT", 
		 "functional": "B3LYP", 
		 "basiset": "6-31G**", 
		 "properties": { 
			 "R2extent": 3950.3068, 
			 "electric_dipole_moment_norm": 4.4475351477, 
			 "electric_quadrupole_moment_norm": 8.72769925868, 
			 "total_energy": -574.238995699, 
			 "HOMO_LUMO_gap": 0.19583, 
			 "cosmo_polarized_energy": -11.97, 
			 "cosmo_cavitation_energy": 29.86, 
			 "cosmo_dispersion_energy": -21.95, 
			 "cosmo_repulsion_energy": 1.73, 
			 "cosmo_total_nonelectrostatic_energy": 9.65, 
			 "SMD_solvation_energy": 4.67 
		},
		"coords": [
			{
				"x": -1.8965533961,
				"y": -2.195955706,
				"z": -1.3758032768,
				"element": "C" 
			},
			{
				"x": -0.495503711,
				"y": -2.0832836841,
				"z": -1.7472860661,
				"element": "N" 
			},
			{
				"x": 0.0435002769,
				"y": -3.1926978212,
				"z": -2.5234808754,
				"element": "C" 
			},
			{
				"x": 0.3085293334,
				"y": -1.0123069776,
				"z": -1.4717778901,
				"element": "C" 
			},
			{
				"x": 1.4877634654,
				"y": -0.9645641949,
				"z": -1.8180457796,
				"element": "O" 
			},
			{
				"x": -0.3085335974,
				"y": 0.1566853965,
				"z": -0.6861283294,
				"element": "C" 
			},
			{
				"x": 0.6623659773,
				"y": 1.2110809509,
				"z": -0.6096704321,
				"element": "N" 
			},
			{
				"x": 0.5802780591,
				"y": 2.2472980158,
				"z": 0.3022557003,
				"element": "C" 
			},
			{
				"x": 1.70803334,
				"y": 3.0659532966,
				"z": 0.5267880165,
				"element": "C" 
			},
			{
				"x": 1.6466404761,
				"y": 4.1291959711,
				"z": 1.4189121022,
				"element": "C" 
			},
			{
				"x": 0.4673235557,
				"y": 4.414197126,
				"z": 2.1163752952,
				"element": "C" 
			},
			{
				"x": -0.6508710685,
				"y": 3.6111333557,
				"z": 1.8978806124,
				"element": "C" 
			},
			{
				"x": -0.6054421785,
				"y": 2.5393174872,
				"z": 1.0046383242,
				"element": "C" 
			},
			{
				"x": -2.5483185018,
				"y": -2.1314266129,
				"z": -2.2576426782,
				"element": "H" 
			},
			{
				"x": -2.1893143651,
				"y": -1.4181451539,
				"z": -0.6730534827,
				"element": "H" 
			},
			{
				"x": -2.0751873272,
				"y": -3.1650893107,
				"z": -0.8949341009,
				"element": "H" 
			},
			{
				"x": -0.5128983615,
				"y": -3.3113387444,
				"z": -3.4617458106,
				"element": "H" 
			},
			{
				"x": 1.0884736854,
				"y": -2.984088151,
				"z": -2.744889035,
				"element": "H" 
			},
			{
				"x": -0.0322284478,
				"y": -4.1281797553,
				"z": -1.9560181969,
				"element": "H" 
			},
			{
				"x": -1.2306232033,
				"y": 0.4926051826,
				"z": -1.184525995,
				"element": "H" 
			},
			{
				"x": -0.609697442,
				"y": -0.2050414193,
				"z": 0.3135233629,
				"element": "H" 
			},
			{
				"x": 1.5786973116,
				"y": 0.9183694747,
				"z": -0.9281254248,
				"element": "H" 
			},
			{
				"x": 2.629989881,
				"y": 2.853830691,
				"z": -0.0093021357,
				"element": "H" 
			},
			{
				"x": 2.5312041131,
				"y": 4.74144689,
				"z": 1.5740037266,
				"element": "H" 
			},
			{
				"x": 0.4243915941,
				"y": 5.2455336556,
				"z": 2.8129456058,
				"element": "H" 
			},
			{
				"x": -1.5781067824,
				"y": 3.8160155313,
				"z": 2.426971091,
				"element": "H" 
			},
			{
				"x": -1.4954126864,
				"y": 1.9389545064,
				"z": 0.8461356721,
				"element": "H" 
			}
		],
		 "valence_orbital": [ 
			{
				"type": "occ",
				"energy": -0.28553,
				"method": "rhf"
			},
			{
				"type": "occ",
				"energy": -0.26489,
				"method": "rhf"
			},
			{
				"type": "occ",
				"energy": -0.25092,
				"method": "rhf"
			},
			{
				"type": "occ",
				"energy": -0.2354,
				"method": "rhf"
			},
			{
				"type": "occ",
				"energy": -0.18445,
				"method": "rhf"
			},
			{
				"type": "unocc",
				"energy": 0.01138,
				"method": "rhf"
			},
			{
				"type": "unocc",
				"energy": 0.02034,
				"method": "rhf"
			},
			{
				"type": "unocc",
				"energy": 0.03166,
				"method": "rhf"
			},
			{
				"type": "unocc",
				"energy": 0.07242,
				"method": "rhf"
			},
			{
				"type": "unocc",
				"energy": 0.09768,
				"method": "rhf"
			}
		],
		"cosmo_sigma_profile": { 
			"-0.025": 0.0,
			"-0.024": 0.0,
			"-0.023": 0.0,
			"-0.022": 0.0,
			"-0.021": 0.0,
			"-0.02": 0.0,
			"-0.019": 0.0,
			"-0.018": 0.0,
			"-0.017": 0.0,
			"-0.016": 0.0,
			"-0.015": 0.0,
			"-0.014": 0.0,
			"-0.013": 0.0,
			"-0.012": 0.0,
			"-0.011": 0.0,
			"-0.01": 0.0383843596444,
			"-0.009": 0.685528459183,
			"-0.008": 0.94922713433,
			"-0.007": 4.66072483868,
			"-0.006": 9.81228677795,
			"-0.005": 23.5849651088,
			"-0.004": 27.0280245212,
			"-0.003": 26.75409271,
			"-0.002": 26.8144870509,
			"-0.001": 14.4588001477,
			"0.0": 12.1333070225,
			"0.001": 11.1641517066,
			"0.002": 9.03430312961,
			"0.003": 8.45607127694,
			"0.004": 9.68478221776,
			"0.005": 9.90151954673,
			"0.006": 11.2922614499,
			"0.007": 11.0064217207,
			"0.008": 6.59759655986,
			"0.009": 1.44516270962,
			"0.01": 1.61804995022,
			"0.011": 2.49897908929,
			"0.012": 2.29835734533,
			"0.013": 3.51390862476,
			"0.014": 0.496445355965,
			"0.015": 0.0,
			"0.016": 0.0,
			"0.017": 0.0,
			"0.018": 0.0,
			"0.019": 0.0,
			"0.02": 0.0,
			"0.021": 0.0,
			"0.022": 0.0,
			"0.023": 0.0,
			"0.024": 0.0,
			"0.025": 0.0
		}
	}
}
