{
	 "smiles": "CCC(O)CN", 
	 "Tm": 276.15, 
	 "num_atms": 17, 
	 "gaussian": { 
		 "optdone": 1, 
		 "sigma_profile": "yes", 
		 "theory": "DFT", 
		 "functional": "B3LYP", 
		 "basiset": "6-31G**", 
		 "properties": { 
			 "R2extent": 823.2837, 
			 "electric_dipole_moment_norm": 1.1118043398, 
			 "electric_quadrupole_moment_norm": 7.34614763056, 
			 "total_energy": -289.021742148, 
			 "HOMO_LUMO_gap": 0.28375, 
			 "cosmo_polarized_energy": -8.83, 
			 "cosmo_cavitation_energy": 18.51, 
			 "cosmo_dispersion_energy": -13.84, 
			 "cosmo_repulsion_energy": 1.21, 
			 "cosmo_total_nonelectrostatic_energy": 5.87, 
			 "SMD_solvation_energy": 1.76 
		},
		"coords": [
			{
				"x": 1.2419050589,
				"y": 1.0924062358,
				"z": 0.1520385125,
				"element": "C" 
			},
			{
				"x": -0.0392167469,
				"y": 1.9038873625,
				"z": 0.3858892881,
				"element": "C" 
			},
			{
				"x": -1.3728110395,
				"y": 1.1791791352,
				"z": 0.1500194324,
				"element": "C" 
			},
			{
				"x": -1.3280915064,
				"y": 0.63702912,
				"z": -1.1759522425,
				"element": "O" 
			},
			{
				"x": -1.7638893492,
				"y": 0.0789208157,
				"z": 1.1621693482,
				"element": "C" 
			},
			{
				"x": -1.0163411692,
				"y": -1.176728164,
				"z": 1.1125329874,
				"element": "N" 
			},
			{
				"x": 1.392222597,
				"y": 0.3149051689,
				"z": 0.9064448985,
				"element": "H" 
			},
			{
				"x": 2.1167072608,
				"y": 1.7500195531,
				"z": 0.1877446257,
				"element": "H" 
			},
			{
				"x": 1.2200277914,
				"y": 0.6116902175,
				"z": -0.8292354347,
				"element": "H" 
			},
			{
				"x": -0.0258004868,
				"y": 2.7664527741,
				"z": -0.2912252465,
				"element": "H" 
			},
			{
				"x": -0.0510210751,
				"y": 2.3123443873,
				"z": 1.4047082701,
				"element": "H" 
			},
			{
				"x": -2.1601391042,
				"y": 1.9510873265,
				"z": 0.2089262761,
				"element": "H" 
			},
			{
				"x": -2.2176612032,
				"y": 0.3349880443,
				"z": -1.402324724,
				"element": "H" 
			},
			{
				"x": -2.8244701448,
				"y": -0.1586108122,
				"z": 0.9843027359,
				"element": "H" 
			},
			{
				"x": -1.7167627269,
				"y": 0.4845194934,
				"z": 2.1802055301,
				"element": "H" 
			},
			{
				"x": -0.0907037864,
				"y": -1.0514243197,
				"z": 1.5107362752,
				"element": "H" 
			},
			{
				"x": -0.8703543695,
				"y": -1.4208663383,
				"z": 0.1347194674,
				"element": "H" 
			}
		],
		 "valence_orbital": [ 
			{
				"type": "occ",
				"energy": -0.34105,
				"method": "rhf"
			},
			{
				"type": "occ",
				"energy": -0.33929,
				"method": "rhf"
			},
			{
				"type": "occ",
				"energy": -0.3171,
				"method": "rhf"
			},
			{
				"type": "occ",
				"energy": -0.27661,
				"method": "rhf"
			},
			{
				"type": "occ",
				"energy": -0.2251,
				"method": "rhf"
			},
			{
				"type": "unocc",
				"energy": 0.05865,
				"method": "rhf"
			},
			{
				"type": "unocc",
				"energy": 0.09457,
				"method": "rhf"
			},
			{
				"type": "unocc",
				"energy": 0.11489,
				"method": "rhf"
			},
			{
				"type": "unocc",
				"energy": 0.12865,
				"method": "rhf"
			},
			{
				"type": "unocc",
				"energy": 0.14733,
				"method": "rhf"
			}
		],
		"cosmo_sigma_profile": { 
			"-0.025": 0.0,
			"-0.024": 0.0,
			"-0.023": 0.0,
			"-0.022": 0.0,
			"-0.021": 0.0,
			"-0.02": 0.0,
			"-0.019": 0.0,
			"-0.018": 0.0,
			"-0.017": 0.0,
			"-0.016": 0.0,
			"-0.015": 0.618864040915,
			"-0.014": 1.28818164379,
			"-0.013": 0.383013370768,
			"-0.012": 1.49885170532,
			"-0.011": 0.744222636127,
			"-0.01": 1.08234757428,
			"-0.009": 1.767812812,
			"-0.008": 2.60990605507,
			"-0.007": 2.74180425348,
			"-0.006": 4.72640944704,
			"-0.005": 4.90825207509,
			"-0.004": 5.44118444593,
			"-0.003": 16.5315557285,
			"-0.002": 17.7324087571,
			"-0.001": 14.9223651028,
			"0.0": 14.7448075065,
			"0.001": 13.8296941133,
			"0.002": 7.48681305525,
			"0.003": 2.2508249649,
			"0.004": 2.46451884588,
			"0.005": 2.84608205293,
			"0.006": 2.15496568789,
			"0.007": 2.30865833751,
			"0.008": 1.52886887101,
			"0.009": 2.12982129077,
			"0.01": 1.66357327096,
			"0.011": 2.15451039387,
			"0.012": 1.87213930505,
			"0.013": 2.12038396043,
			"0.014": 1.70831250025,
			"0.015": 0.680160748594,
			"0.016": 0.179292679795,
			"0.017": 0.665549597014,
			"0.018": 1.11473759688,
			"0.019": 0.505562163447,
			"0.02": 0.424363638239,
			"0.021": 0.0570729313822,
			"0.022": 0.0,
			"0.023": 0.0,
			"0.024": 0.0,
			"0.025": 0.0
		}
	}
}
