{
	 "smiles": "CN(C)C(=O)SC1=CC2=C(N=C1)N(C)N=C2C", 
	 "Tm": 418.15, 
	 "num_atms": 31, 
	 "gaussian": { 
		 "optdone": 1, 
		 "sigma_profile": "yes", 
		 "theory": "DFT", 
		 "functional": "B3LYP", 
		 "basiset": "6-31G**", 
		 "properties": { 
			 "R2extent": 6261.5911, 
			 "electric_dipole_moment_norm": 3.16575941916, 
			 "electric_quadrupole_moment_norm": 19.9663112166, 
			 "total_energy": -1120.0302408, 
			 "HOMO_LUMO_gap": 0.17874, 
			 "cosmo_polarized_energy": -13.61, 
			 "cosmo_cavitation_energy": 36.49, 
			 "cosmo_dispersion_energy": -26.65, 
			 "cosmo_repulsion_energy": 2.04, 
			 "cosmo_total_nonelectrostatic_energy": 11.88, 
			 "SMD_solvation_energy": 4.53 
		},
		"coords": [
			{
				"x": -4.6192474514,
				"y": 0.2992199934,
				"z": -3.0704367636,
				"element": "C" 
			},
			{
				"x": -3.893547542,
				"y": -0.8984392429,
				"z": -2.6765476858,
				"element": "N" 
			},
			{
				"x": -4.5844302266,
				"y": -2.1688896895,
				"z": -2.875176676,
				"element": "C" 
			},
			{
				"x": -2.7224413942,
				"y": -0.9044262145,
				"z": -1.9722071808,
				"element": "C" 
			},
			{
				"x": -2.1552781499,
				"y": -1.9061277939,
				"z": -1.5806870173,
				"element": "O" 
			},
			{
				"x": -2.0123616718,
				"y": 0.7760282306,
				"z": -1.6630440588,
				"element": "S" 
			},
			{
				"x": -0.5518804779,
				"y": 0.3085689508,
				"z": -0.7557068443,
				"element": "C" 
			},
			{
				"x": -0.4443885018,
				"y": 0.6204446745,
				"z": 0.5963252818,
				"element": "C" 
			},
			{
				"x": 0.7558285686,
				"y": 0.2862061731,
				"z": 1.2360070412,
				"element": "C" 
			},
			{
				"x": 1.7518600483,
				"y": -0.3534329116,
				"z": 0.4553673206,
				"element": "C" 
			},
			{
				"x": 1.6746032135,
				"y": -0.669092047,
				"z": -0.8452226007,
				"element": "N" 
			},
			{
				"x": 0.5291366139,
				"y": -0.3281850944,
				"z": -1.4235798435,
				"element": "C" 
			},
			{
				"x": 2.807768275,
				"y": -0.5814653165,
				"z": 1.285250586,
				"element": "N" 
			},
			{
				"x": 4.0690927592,
				"y": -1.2139187374,
				"z": 0.9622251078,
				"element": "C" 
			},
			{
				"x": 2.551725539,
				"y": -0.1306117249,
				"z": 2.5473206208,
				"element": "N" 
			},
			{
				"x": 1.3333898125,
				"y": 0.3912266262,
				"z": 2.5426391719,
				"element": "C" 
			},
			{
				"x": 0.7413156321,
				"y": 0.9784008122,
				"z": 3.7846687141,
				"element": "C" 
			},
			{
				"x": -5.3985777932,
				"y": 0.5649003333,
				"z": -2.3435145361,
				"element": "H" 
			},
			{
				"x": -5.0977318773,
				"y": 0.1212127113,
				"z": -4.0387767338,
				"element": "H" 
			},
			{
				"x": -3.9440046419,
				"y": 1.1475349452,
				"z": -3.1869655985,
				"element": "H" 
			},
			{
				"x": -5.5127156466,
				"y": -2.2044343325,
				"z": -2.2901973346,
				"element": "H" 
			},
			{
				"x": -4.835642827,
				"y": -2.2965627378,
				"z": -3.9341973011,
				"element": "H" 
			},
			{
				"x": -3.9276650521,
				"y": -2.9755373315,
				"z": -2.5552342864,
				"element": "H" 
			},
			{
				"x": -1.2647074039,
				"y": 1.1006875307,
				"z": 1.120758399,
				"element": "H" 
			},
			{
				"x": 0.4275344423,
				"y": -0.5642712663,
				"z": -2.4795909588,
				"element": "H" 
			},
			{
				"x": 4.0362384895,
				"y": -1.4953093667,
				"z": -0.09098962,
				"element": "H" 
			},
			{
				"x": 4.8981290265,
				"y": -0.5214086946,
				"z": 1.1337508814,
				"element": "H" 
			},
			{
				"x": 4.2158765005,
				"y": -2.1056128079,
				"z": 1.5780664007,
				"element": "H" 
			},
			{
				"x": 1.4558221186,
				"y": 0.8979191923,
				"z": 4.6065214561,
				"element": "H" 
			},
			{
				"x": 0.4889433373,
				"y": 2.0361629215,
				"z": 3.6467577002,
				"element": "H" 
			},
			{
				"x": -0.1792437192,
				"y": 0.4581122148,
				"z": 4.0734163588,
				"element": "H" 
			}
		],
		 "valence_orbital": [ 
			{
				"type": "occ",
				"energy": -0.2603,
				"method": "rhf"
			},
			{
				"type": "occ",
				"energy": -0.25443,
				"method": "rhf"
			},
			{
				"type": "occ",
				"energy": -0.24879,
				"method": "rhf"
			},
			{
				"type": "occ",
				"energy": -0.23868,
				"method": "rhf"
			},
			{
				"type": "occ",
				"energy": -0.22092,
				"method": "rhf"
			},
			{
				"type": "unocc",
				"energy": -0.04218,
				"method": "rhf"
			},
			{
				"type": "unocc",
				"energy": -0.00533,
				"method": "rhf"
			},
			{
				"type": "unocc",
				"energy": 0.02891,
				"method": "rhf"
			},
			{
				"type": "unocc",
				"energy": 0.04023,
				"method": "rhf"
			},
			{
				"type": "unocc",
				"energy": 0.04871,
				"method": "rhf"
			}
		],
		"cosmo_sigma_profile": { 
			"-0.025": 0.0,
			"-0.024": 0.0,
			"-0.023": 0.0,
			"-0.022": 0.0,
			"-0.021": 0.0,
			"-0.02": 0.0,
			"-0.019": 0.0,
			"-0.018": 0.0,
			"-0.017": 0.0,
			"-0.016": 0.0,
			"-0.015": 0.0,
			"-0.014": 0.0,
			"-0.013": 0.0,
			"-0.012": 0.0,
			"-0.011": 0.0,
			"-0.01": 0.0,
			"-0.009": 0.0,
			"-0.008": 0.653598173761,
			"-0.007": 3.0220526426,
			"-0.006": 11.9453465136,
			"-0.005": 25.5610644472,
			"-0.004": 31.246437762,
			"-0.003": 34.9098196236,
			"-0.002": 28.3071321039,
			"-0.001": 24.2963808309,
			"0.0": 25.7668932987,
			"0.001": 23.3753432064,
			"0.002": 14.3615258074,
			"0.003": 11.2735650045,
			"0.004": 9.75397527683,
			"0.005": 7.75224611924,
			"0.006": 7.71983303937,
			"0.007": 5.33946531905,
			"0.008": 3.46429792478,
			"0.009": 4.03377950569,
			"0.01": 4.57509148227,
			"0.011": 4.12488705388,
			"0.012": 5.8200137702,
			"0.013": 3.43243963785,
			"0.014": 0.629411220319,
			"0.015": 0.601155160063,
			"0.016": 0.00174395692903,
			"0.017": 0.0,
			"0.018": 0.0,
			"0.019": 0.0,
			"0.02": 0.0,
			"0.021": 0.0,
			"0.022": 0.0,
			"0.023": 0.0,
			"0.024": 0.0,
			"0.025": 0.0
		}
	}
}
