{
	 "smiles": "NC1=C(C=C(F)C(=C1)N1CCOCC1)[N+]([O-])=O", 
	 "Tm": 459.15, 
	 "num_atms": 29, 
	 "gaussian": { 
		 "optdone": 1, 
		 "sigma_profile": "yes", 
		 "theory": "DFT", 
		 "functional": "B3LYP", 
		 "basiset": "6-31G**", 
		 "properties": { 
			 "R2extent": 5712.9232, 
			 "electric_dipole_moment_norm": 5.98263318113, 
			 "electric_quadrupole_moment_norm": 29.3614224858, 
			 "total_energy": -877.936005141, 
			 "HOMO_LUMO_gap": 0.13974, 
			 "cosmo_polarized_energy": -16.96, 
			 "cosmo_cavitation_energy": 31.87, 
			 "cosmo_dispersion_energy": -24.02, 
			 "cosmo_repulsion_energy": 1.83, 
			 "cosmo_total_nonelectrostatic_energy": 9.68, 
			 "SMD_solvation_energy": 6.6 
		},
		"coords": [
			{
				"x": 1.9335953586,
				"y": -3.8669297617,
				"z": 0.0865904942,
				"element": "N" 
			},
			{
				"x": 1.5183680646,
				"y": -2.7397608866,
				"z": -0.5508779954,
				"element": "C" 
			},
			{
				"x": 1.7542017947,
				"y": -2.4980251074,
				"z": -1.9336968555,
				"element": "C" 
			},
			{
				"x": 1.3259501472,
				"y": -1.2899740236,
				"z": -2.5169340289,
				"element": "C" 
			},
			{
				"x": 0.672582414,
				"y": -0.3488978414,
				"z": -1.7752452802,
				"element": "C" 
			},
			{
				"x": 0.3341179226,
				"y": 0.827255419,
				"z": -2.369402672,
				"element": "F" 
			},
			{
				"x": 0.3765244919,
				"y": -0.5431362289,
				"z": -0.3925550314,
				"element": "C" 
			},
			{
				"x": 0.8244549607,
				"y": -1.7455981828,
				"z": 0.1729404892,
				"element": "C" 
			},
			{
				"x": -0.2681162469,
				"y": 0.4131862823,
				"z": 0.3598275001,
				"element": "N" 
			},
			{
				"x": -1.2078157792,
				"y": 1.3956789465,
				"z": -0.2093820007,
				"element": "C" 
			},
			{
				"x": -2.4031058862,
				"y": 1.5686714914,
				"z": 0.7247905102,
				"element": "C" 
			},
			{
				"x": -2.0398092344,
				"y": 2.0125637033,
				"z": 2.0292340025,
				"element": "O" 
			},
			{
				"x": -0.7269758141,
				"y": 1.6358467766,
				"z": 2.4249353639,
				"element": "C" 
			},
			{
				"x": -0.2819878567,
				"y": 0.3080381737,
				"z": 1.8186499287,
				"element": "C" 
			},
			{
				"x": 2.4176225655,
				"y": -3.4394228252,
				"z": -2.7870977538,
				"element": "N" 
			},
			{
				"x": 2.8043426527,
				"y": -4.5275403596,
				"z": -2.3069187628,
				"element": "O" 
			},
			{
				"x": 2.5837735288,
				"y": -3.1461692677,
				"z": -3.9756048186,
				"element": "O" 
			},
			{
				"x": 2.3302555281,
				"y": -4.6013972985,
				"z": -0.4838471686,
				"element": "H" 
			},
			{
				"x": 1.6146189526,
				"y": -4.0516018443,
				"z": 1.0226483396,
				"element": "H" 
			},
			{
				"x": 1.5421839491,
				"y": -1.1051027435,
				"z": -3.5607469413,
				"element": "H" 
			},
			{
				"x": 0.6162200274,
				"y": -1.9516662584,
				"z": 1.2157866265,
				"element": "H" 
			},
			{
				"x": -1.5678983084,
				"y": 1.0454017592,
				"z": -1.1761436785,
				"element": "H" 
			},
			{
				"x": -0.7149710387,
				"y": 2.3621944039,
				"z": -0.3743629376,
				"element": "H" 
			},
			{
				"x": -2.9524338181,
				"y": 0.6167344995,
				"z": 0.7911615776,
				"element": "H" 
			},
			{
				"x": -3.0847715875,
				"y": 2.318150431,
				"z": 0.3088649632,
				"element": "H" 
			},
			{
				"x": -0.7327484929,
				"y": 1.5568712073,
				"z": 3.5166745073,
				"element": "H" 
			},
			{
				"x": -0.0028230768,
				"y": 2.4179573719,
				"z": 2.1492145044,
				"element": "H" 
			},
			{
				"x": -0.9496278433,
				"y": -0.4970395507,
				"z": 2.1662435238,
				"element": "H" 
			},
			{
				"x": 0.7280726247,
				"y": 0.0742117149,
				"z": 2.1746535945,
				"element": "H" 
			}
		],
		 "valence_orbital": [ 
			{
				"type": "occ",
				"energy": -0.28768,
				"method": "rhf"
			},
			{
				"type": "occ",
				"energy": -0.27269,
				"method": "rhf"
			},
			{
				"type": "occ",
				"energy": -0.26501,
				"method": "rhf"
			},
			{
				"type": "occ",
				"energy": -0.22593,
				"method": "rhf"
			},
			{
				"type": "occ",
				"energy": -0.21026,
				"method": "rhf"
			},
			{
				"type": "unocc",
				"energy": -0.07052,
				"method": "rhf"
			},
			{
				"type": "unocc",
				"energy": -0.00115,
				"method": "rhf"
			},
			{
				"type": "unocc",
				"energy": 0.02339,
				"method": "rhf"
			},
			{
				"type": "unocc",
				"energy": 0.06661,
				"method": "rhf"
			},
			{
				"type": "unocc",
				"energy": 0.07138,
				"method": "rhf"
			}
		],
		"cosmo_sigma_profile": { 
			"-0.025": 0.0,
			"-0.024": 0.0,
			"-0.023": 0.0,
			"-0.022": 0.0,
			"-0.021": 0.0,
			"-0.02": 0.0,
			"-0.019": 0.0,
			"-0.018": 0.0,
			"-0.017": 0.0,
			"-0.016": 0.0,
			"-0.015": 0.107135639349,
			"-0.014": 1.06455145221,
			"-0.013": 1.59121544601,
			"-0.012": 1.7010740165,
			"-0.011": 1.25437568225,
			"-0.01": 1.32253471174,
			"-0.009": 2.95567428502,
			"-0.008": 2.13975775403,
			"-0.007": 4.71106980009,
			"-0.006": 12.9226758875,
			"-0.005": 22.9360681697,
			"-0.004": 26.9827126146,
			"-0.003": 18.150111355,
			"-0.002": 14.0728490301,
			"-0.001": 13.4534770092,
			"0.0": 13.4565598214,
			"0.001": 22.6662468675,
			"0.002": 19.1978879491,
			"0.003": 13.0500881202,
			"0.004": 11.711535254,
			"0.005": 6.43909400704,
			"0.006": 4.22376723622,
			"0.007": 4.7448499136,
			"0.008": 5.16451120822,
			"0.009": 7.80595610089,
			"0.01": 6.53859542917,
			"0.011": 4.65062321227,
			"0.012": 5.00916130814,
			"0.013": 1.77662200864,
			"0.014": 0.316829698414,
			"0.015": 0.0,
			"0.016": 0.0,
			"0.017": 0.0,
			"0.018": 0.0,
			"0.019": 0.0,
			"0.02": 0.0,
			"0.021": 0.0,
			"0.022": 0.0,
			"0.023": 0.0,
			"0.024": 0.0,
			"0.025": 0.0
		}
	}
}
