{
	 "smiles": "CCSC(SCC)[C@H](O)[C@@H](O)[C@@H](O)[C@H](O)CO", 
	 "Tm": 414.15, 
	 "num_atms": 39, 
	 "gaussian": { 
		 "optdone": 1, 
		 "sigma_profile": "no", 
		 "theory": "DFT", 
		 "functional": "B3LYP", 
		 "basiset": "6-31G**", 
		 "properties": { 
			 "R2extent": 6762.1007, 
			 "electric_dipole_moment_norm": 2.01324962685, 
			 "electric_quadrupole_moment_norm": 9.98358545664, 
			 "total_energy": -1566.79284382, 
			 "HOMO_LUMO_gap": 0.23446, 
			 "cosmo_polarized_energy": -30.03, 
			 "cosmo_cavitation_energy": 41.62, 
			 "cosmo_dispersion_energy": -29.25, 
			 "cosmo_repulsion_energy": 2.23, 
			 "cosmo_total_nonelectrostatic_energy": 14.59, 
			 "SMD_solvation_energy": 5.86 
		},
		"coords": [
			{
				"x": 0.2020670378,
				"y": 4.3839460304,
				"z": 0.4629161955,
				"element": "C" 
			},
			{
				"x": 0.84533973,
				"y": 3.3749796921,
				"z": 1.4110938294,
				"element": "C" 
			},
			{
				"x": -0.3070022965,
				"y": 2.1057515132,
				"z": 2.0911304365,
				"element": "S" 
			},
			{
				"x": -0.972311827,
				"y": 1.1849072791,
				"z": 0.6275069892,
				"element": "C" 
			},
			{
				"x": -2.4204526078,
				"y": 0.2068545468,
				"z": 1.2140464234,
				"element": "S" 
			},
			{
				"x": -1.6410060068,
				"y": -1.1035375756,
				"z": 2.2559917948,
				"element": "C" 
			},
			{
				"x": -2.7317654938,
				"y": -1.8258734329,
				"z": 3.0464705049,
				"element": "C" 
			},
			{
				"x": 0.0741498442,
				"y": 0.3285854229,
				"z": -0.1254733258,
				"element": "C" 
			},
			{
				"x": 1.182521693,
				"y": 1.1083436542,
				"z": -0.556072898,
				"element": "O" 
			},
			{
				"x": -0.50977042,
				"y": -0.3882760305,
				"z": -1.3572412412,
				"element": "C" 
			},
			{
				"x": -0.6555301685,
				"y": 0.6135030073,
				"z": -2.3602817649,
				"element": "O" 
			},
			{
				"x": 0.4032056023,
				"y": -1.5572434925,
				"z": -1.7989889272,
				"element": "C" 
			},
			{
				"x": 0.0606914892,
				"y": -2.7244650302,
				"z": -1.0208945498,
				"element": "O" 
			},
			{
				"x": 0.3293373965,
				"y": -1.8108905835,
				"z": -3.3133857152,
				"element": "C" 
			},
			{
				"x": -1.0312687508,
				"y": -1.817560522,
				"z": -3.7570494321,
				"element": "O" 
			},
			{
				"x": 1.0031232054,
				"y": -3.1198674107,
				"z": -3.7406269854,
				"element": "C" 
			},
			{
				"x": 0.192590476,
				"y": -4.2318439562,
				"z": -3.3701719216,
				"element": "O" 
			},
			{
				"x": -0.6601959487,
				"y": 4.8737373557,
				"z": 0.9245540406,
				"element": "H" 
			},
			{
				"x": -0.1333251132,
				"y": 3.9057805203,
				"z": -0.4627711948,
				"element": "H" 
			},
			{
				"x": 0.929525547,
				"y": 5.1558469007,
				"z": 0.185285,
				"element": "H" 
			},
			{
				"x": 1.1987599549,
				"y": 3.876112784,
				"z": 2.3191595701,
				"element": "H" 
			},
			{
				"x": 1.6905065568,
				"y": 2.8711716111,
				"z": 0.9439090795,
				"element": "H" 
			},
			{
				"x": -1.4182609277,
				"y": 1.8986637564,
				"z": -0.0720241092,
				"element": "H" 
			},
			{
				"x": -1.100868475,
				"y": -1.8079933466,
				"z": 1.6156146374,
				"element": "H" 
			},
			{
				"x": -0.9229900537,
				"y": -0.6298992139,
				"z": 2.9298657355,
				"element": "H" 
			},
			{
				"x": -3.4745760841,
				"y": -2.281684927,
				"z": 2.3835369604,
				"element": "H" 
			},
			{
				"x": -3.2535282486,
				"y": -1.13881181,
				"z": 3.7184677171,
				"element": "H" 
			},
			{
				"x": -2.2871272285,
				"y": -2.6239330631,
				"z": 3.649923183,
				"element": "H" 
			},
			{
				"x": 0.4769427714,
				"y": -0.4189265274,
				"z": 0.5638709787,
				"element": "H" 
			},
			{
				"x": 0.9027298935,
				"y": 1.5194483275,
				"z": -1.3898706994,
				"element": "H" 
			},
			{
				"x": -1.4942526631,
				"y": -0.8051878545,
				"z": -1.1076610289,
				"element": "H" 
			},
			{
				"x": -1.1445537456,
				"y": 0.2046682339,
				"z": -3.0908225102,
				"element": "H" 
			},
			{
				"x": 1.4441534583,
				"y": -1.3351146227,
				"z": -1.5394607791,
				"element": "H" 
			},
			{
				"x": -0.9060816998,
				"y": -2.7841681791,
				"z": -1.0150568347,
				"element": "H" 
			},
			{
				"x": 0.8270232862,
				"y": -0.9687999321,
				"z": -3.8086276774,
				"element": "H" 
			},
			{
				"x": -1.2901456216,
				"y": -2.7546750566,
				"z": -3.7697037372,
				"element": "H" 
			},
			{
				"x": 2.0155156836,
				"y": -3.1900939176,
				"z": -3.3183281044,
				"element": "H" 
			},
			{
				"x": 1.0859150688,
				"y": -3.1490384372,
				"z": -4.8311029773,
				"element": "H" 
			},
			{
				"x": 0.197914686,
				"y": -4.2291157139,
				"z": -2.3983266623,
				"element": "H" 
			}
		],
		 "valence_orbital": [ 
			{
				"type": "occ",
				"energy": -0.29044,
				"method": "rhf"
			},
			{
				"type": "occ",
				"energy": -0.27982,
				"method": "rhf"
			},
			{
				"type": "occ",
				"energy": -0.26633,
				"method": "rhf"
			},
			{
				"type": "occ",
				"energy": -0.22748,
				"method": "rhf"
			},
			{
				"type": "occ",
				"energy": -0.21085,
				"method": "rhf"
			},
			{
				"type": "unocc",
				"energy": 0.02361,
				"method": "rhf"
			},
			{
				"type": "unocc",
				"energy": 0.03996,
				"method": "rhf"
			},
			{
				"type": "unocc",
				"energy": 0.04732,
				"method": "rhf"
			},
			{
				"type": "unocc",
				"energy": 0.06086,
				"method": "rhf"
			},
			{
				"type": "unocc",
				"energy": 0.06906,
				"method": "rhf"
			}
		],
		"cosmo_sigma_profile": { 
			"0.0": 0.0,
			"0.0": 0.0,
			"0.0": 0.0,
			"0.0": 0.0,
			"0.0": 0.0,
			"0.0": 0.0,
			"0.0": 0.0,
			"0.0": 0.0,
			"0.0": 0.0,
			"0.0": 0.0,
			"0.0": 0.0,
			"0.0": 0.0,
			"0.0": 0.0,
			"0.0": 0.0,
			"0.0": 0.0,
			"0.0": 0.0,
			"0.0": 0.0,
			"0.0": 0.0,
			"0.0": 0.0,
			"0.0": 0.0,
			"0.0": 0.0,
			"0.0": 0.0,
			"0.0": 0.0,
			"0.0": 0.0,
			"0.0": 0.0,
			"0.0": 0.0,
			"0.0": 0.0,
			"0.0": 0.0,
			"0.0": 0.0,
			"0.0": 0.0,
			"0.0": 0.0,
			"0.0": 0.0,
			"0.0": 0.0,
			"0.0": 0.0,
			"0.0": 0.0,
			"0.0": 0.0,
			"0.0": 0.0,
			"0.0": 0.0,
			"0.0": 0.0,
			"0.0": 0.0,
			"0.0": 0.0,
			"0.0": 0.0,
			"0.0": 0.0,
			"0.0": 0.0,
			"0.0": 0.0,
			"0.0": 0.0,
			"0.0": 0.0,
			"0.0": 0.0,
			"0.0": 0.0,
			"0.0": 0.0,
			"0.0": 0.0
		}
	}
}
