{
	 "smiles": "CC1=C(C)C(C(O)=O)=C(N)S1", 
	 "Tm": 394.15, 
	 "num_atms": 20, 
	 "gaussian": { 
		 "optdone": 1, 
		 "sigma_profile": "yes", 
		 "theory": "DFT", 
		 "functional": "B3LYP", 
		 "basiset": "6-31G**", 
		 "properties": { 
			 "R2extent": 2407.2175, 
			 "electric_dipole_moment_norm": 4.05254120892, 
			 "electric_quadrupole_moment_norm": 12.2687196781, 
			 "total_energy": -875.569284446, 
			 "HOMO_LUMO_gap": 0.18049, 
			 "cosmo_polarized_energy": -14.17, 
			 "cosmo_cavitation_energy": 24.28, 
			 "cosmo_dispersion_energy": -19.04, 
			 "cosmo_repulsion_energy": 1.47, 
			 "cosmo_total_nonelectrostatic_energy": 6.7, 
			 "SMD_solvation_energy": 4.77 
		},
		"coords": [
			{
				"x": 1.6377087997,
				"y": -3.9201859056,
				"z": -0.8751876309,
				"element": "C" 
			},
			{
				"x": 0.8756874071,
				"y": -2.6813812501,
				"z": -0.50865882,
				"element": "C" 
			},
			{
				"x": 1.174267081,
				"y": -1.35986698,
				"z": -0.6698889877,
				"element": "C" 
			},
			{
				"x": 2.4584966189,
				"y": -0.8889569203,
				"z": -1.3074950687,
				"element": "C" 
			},
			{
				"x": 0.1411093543,
				"y": -0.4620572118,
				"z": -0.1571191036,
				"element": "C" 
			},
			{
				"x": 0.1030701232,
				"y": 1.003848745,
				"z": -0.1076377935,
				"element": "C" 
			},
			{
				"x": 1.1224367413,
				"y": 1.7189460818,
				"z": -0.6522297061,
				"element": "O" 
			},
			{
				"x": -0.8106756462,
				"y": 1.6378043689,
				"z": 0.4098577693,
				"element": "O" 
			},
			{
				"x": -0.9358218607,
				"y": -1.1670508267,
				"z": 0.3901276303,
				"element": "C" 
			},
			{
				"x": -2.0706815031,
				"y": -0.650721126,
				"z": 0.9154661313,
				"element": "N" 
			},
			{
				"x": -0.6975846378,
				"y": -2.8925068771,
				"z": 0.2744817615,
				"element": "S" 
			},
			{
				"x": 1.8502513226,
				"y": -4.5405766955,
				"z": 0.0038682126,
				"element": "H" 
			},
			{
				"x": 1.0829994241,
				"y": -4.5431323272,
				"z": -1.5873370308,
				"element": "H" 
			},
			{
				"x": 2.5955592692,
				"y": -3.6726380233,
				"z": -1.3376485191,
				"element": "H" 
			},
			{
				"x": 3.0978939772,
				"y": -1.7253034314,
				"z": -1.5924788954,
				"element": "H" 
			},
			{
				"x": 2.2748640012,
				"y": -0.319201051,
				"z": -2.2295689001,
				"element": "H" 
			},
			{
				"x": 3.0512858305,
				"y": -0.2669814988,
				"z": -0.6234907494,
				"element": "H" 
			},
			{
				"x": 1.77353053,
				"y": 1.138278913,
				"z": -1.0642298159,
				"element": "H" 
			},
			{
				"x": -2.6670445967,
				"y": -1.2198720883,
				"z": 1.4936736866,
				"element": "H" 
			},
			{
				"x": -2.0470522356,
				"y": 0.3609541045,
				"z": 1.0322958296,
				"element": "H" 
			}
		],
		 "valence_orbital": [ 
			{
				"type": "occ",
				"energy": -0.30718,
				"method": "rhf"
			},
			{
				"type": "occ",
				"energy": -0.30168,
				"method": "rhf"
			},
			{
				"type": "occ",
				"energy": -0.26493,
				"method": "rhf"
			},
			{
				"type": "occ",
				"energy": -0.25226,
				"method": "rhf"
			},
			{
				"type": "occ",
				"energy": -0.19708,
				"method": "rhf"
			},
			{
				"type": "unocc",
				"energy": -0.01659,
				"method": "rhf"
			},
			{
				"type": "unocc",
				"energy": 0.00719,
				"method": "rhf"
			},
			{
				"type": "unocc",
				"energy": 0.01271,
				"method": "rhf"
			},
			{
				"type": "unocc",
				"energy": 0.06704,
				"method": "rhf"
			},
			{
				"type": "unocc",
				"energy": 0.08886,
				"method": "rhf"
			}
		],
		"cosmo_sigma_profile": { 
			"-0.025": 0.0,
			"-0.024": 0.0,
			"-0.023": 0.0,
			"-0.022": 0.0,
			"-0.021": 0.0,
			"-0.02": 0.0,
			"-0.019": 0.0,
			"-0.018": 0.0,
			"-0.017": 0.0,
			"-0.016": 0.0,
			"-0.015": 0.513557141946,
			"-0.014": 1.51256842379,
			"-0.013": 2.61973344011,
			"-0.012": 2.20979700514,
			"-0.011": 2.39021492171,
			"-0.01": 3.16962760628,
			"-0.009": 3.81524769963,
			"-0.008": 3.21558094567,
			"-0.007": 5.34890846587,
			"-0.006": 7.3853318946,
			"-0.005": 7.35089213178,
			"-0.004": 11.7017078654,
			"-0.003": 14.5635182252,
			"-0.002": 14.434062823,
			"-0.001": 16.5260060936,
			"0.0": 11.3882895809,
			"0.001": 8.97748214658,
			"0.002": 13.7534886374,
			"0.003": 13.6408006204,
			"0.004": 13.537810442,
			"0.005": 8.42818335095,
			"0.006": 3.55219350207,
			"0.007": 3.41360672842,
			"0.008": 3.13712905787,
			"0.009": 2.20579110107,
			"0.01": 3.54664390686,
			"0.011": 3.31868989009,
			"0.012": 4.13666499743,
			"0.013": 2.54394358674,
			"0.014": 2.18265754255,
			"0.015": 0.337277374965,
			"0.016": 0.0,
			"0.017": 0.0,
			"0.018": 0.0,
			"0.019": 0.0,
			"0.02": 0.0,
			"0.021": 0.0,
			"0.022": 0.0,
			"0.023": 0.0,
			"0.024": 0.0,
			"0.025": 0.0
		}
	}
}
