{
	 "smiles": "COC1=CC=C(C=C1)N1CC(CC1=O)C(O)=O", 
	 "Tm": 445.15, 
	 "num_atms": 30, 
	 "gaussian": { 
		 "optdone": 1, 
		 "sigma_profile": "yes", 
		 "theory": "DFT", 
		 "functional": "B3LYP", 
		 "basiset": "6-31G**", 
		 "properties": { 
			 "R2extent": 6500.915, 
			 "electric_dipole_moment_norm": 3.08615319289, 
			 "electric_quadrupole_moment_norm": 25.4826568273, 
			 "total_energy": -820.777770525, 
			 "HOMO_LUMO_gap": 0.19158, 
			 "cosmo_polarized_energy": -17.87, 
			 "cosmo_cavitation_energy": 33.74, 
			 "cosmo_dispersion_energy": -24.78, 
			 "cosmo_repulsion_energy": 1.91, 
			 "cosmo_total_nonelectrostatic_energy": 10.88, 
			 "SMD_solvation_energy": 7.63 
		},
		"coords": [
			{
				"x": 3.7878685629,
				"y": -1.4281757841,
				"z": -3.0089008964,
				"element": "C" 
			},
			{
				"x": 2.3893657029,
				"y": -1.6428773659,
				"z": -2.9151970588,
				"element": "O" 
			},
			{
				"x": 1.6637464249,
				"y": -0.8099597854,
				"z": -2.110642768,
				"element": "C" 
			},
			{
				"x": 0.2887092194,
				"y": -1.0633156821,
				"z": -2.0456033721,
				"element": "C" 
			},
			{
				"x": -0.5377069994,
				"y": -0.2741883338,
				"z": -1.2555362387,
				"element": "C" 
			},
			{
				"x": -0.0146559617,
				"y": 0.7967413116,
				"z": -0.5076228067,
				"element": "C" 
			},
			{
				"x": 1.3640748074,
				"y": 1.0468756857,
				"z": -0.5757616013,
				"element": "C" 
			},
			{
				"x": 2.1927610333,
				"y": 0.2504004099,
				"z": -1.3670702646,
				"element": "C" 
			},
			{
				"x": -0.8852971874,
				"y": 1.5984996852,
				"z": 0.2781769915,
				"element": "N" 
			},
			{
				"x": -2.3368977012,
				"y": 1.4464746439,
				"z": 0.1824067729,
				"element": "C" 
			},
			{
				"x": -2.8904195718,
				"y": 2.6661031718,
				"z": 0.9659102954,
				"element": "C" 
			},
			{
				"x": -1.7749020332,
				"y": 2.9971533298,
				"z": 1.9546808766,
				"element": "C" 
			},
			{
				"x": -0.5068554468,
				"y": 2.4701069625,
				"z": 1.2917011164,
				"element": "C" 
			},
			{
				"x": 0.6325352138,
				"y": 2.761385251,
				"z": 1.6143909126,
				"element": "O" 
			},
			{
				"x": -4.2270865325,
				"y": 2.3571042521,
				"z": 1.6085964288,
				"element": "C" 
			},
			{
				"x": -5.2053009542,
				"y": 2.2660695927,
				"z": 0.6758763787,
				"element": "O" 
			},
			{
				"x": -4.4278303832,
				"y": 2.1837994675,
				"z": 2.7894584207,
				"element": "O" 
			},
			{
				"x": 4.1662623681,
				"y": -2.193114326,
				"z": -3.6889581803,
				"element": "H" 
			},
			{
				"x": 4.0203692404,
				"y": -0.436200932,
				"z": -3.4180169602,
				"element": "H" 
			},
			{
				"x": 4.2818293639,
				"y": -1.5365861589,
				"z": -2.0344474546,
				"element": "H" 
			},
			{
				"x": -0.1172314702,
				"y": -1.8890410869,
				"z": -2.6205793121,
				"element": "H" 
			},
			{
				"x": -1.5951714761,
				"y": -0.509517807,
				"z": -1.2227072666,
				"element": "H" 
			},
			{
				"x": 1.7849585563,
				"y": 1.8565005484,
				"z": 0.00246098,
				"element": "H" 
			},
			{
				"x": 3.2526911702,
				"y": 0.4744815721,
				"z": -1.3921828588,
				"element": "H" 
			},
			{
				"x": -2.6616177253,
				"y": 0.4982774441,
				"z": 0.6345735719,
				"element": "H" 
			},
			{
				"x": -2.6641600949,
				"y": 1.4511687881,
				"z": -0.8604607025,
				"element": "H" 
			},
			{
				"x": -3.0394598366,
				"y": 3.4880722536,
				"z": 0.2580910264,
				"element": "H" 
			},
			{
				"x": -1.9301416118,
				"y": 2.473211124,
				"z": 2.9046776627,
				"element": "H" 
			},
			{
				"x": -1.6721516579,
				"y": 4.0607135806,
				"z": 2.1777787697,
				"element": "H" 
			},
			{
				"x": -6.0216850193,
				"y": 2.0409381879,
				"z": 1.1538075375,
				"element": "H" 
			}
		],
		 "valence_orbital": [ 
			{
				"type": "occ",
				"energy": -0.29098,
				"method": "rhf"
			},
			{
				"type": "occ",
				"energy": -0.27425,
				"method": "rhf"
			},
			{
				"type": "occ",
				"energy": -0.25288,
				"method": "rhf"
			},
			{
				"type": "occ",
				"energy": -0.24877,
				"method": "rhf"
			},
			{
				"type": "occ",
				"energy": -0.20055,
				"method": "rhf"
			},
			{
				"type": "unocc",
				"energy": -0.00897,
				"method": "rhf"
			},
			{
				"type": "unocc",
				"energy": -0.00363,
				"method": "rhf"
			},
			{
				"type": "unocc",
				"energy": -0.00097,
				"method": "rhf"
			},
			{
				"type": "unocc",
				"energy": 0.04683,
				"method": "rhf"
			},
			{
				"type": "unocc",
				"energy": 0.06469,
				"method": "rhf"
			}
		],
		"cosmo_sigma_profile": { 
			"-0.025": 0.0,
			"-0.024": 0.0,
			"-0.023": 0.0,
			"-0.022": 0.0,
			"-0.021": 0.0,
			"-0.02": 0.0,
			"-0.019": 0.166307531539,
			"-0.018": 0.821634012295,
			"-0.017": 0.922195293513,
			"-0.016": 0.979370397623,
			"-0.015": 1.10479973111,
			"-0.014": 0.36388933029,
			"-0.013": 0.539913045591,
			"-0.012": 0.801845634768,
			"-0.011": 1.00666559307,
			"-0.01": 0.551774638304,
			"-0.009": 0.471009252922,
			"-0.008": 0.843952664684,
			"-0.007": 11.2817703532,
			"-0.006": 24.9209801762,
			"-0.005": 26.2122040798,
			"-0.004": 20.7678771578,
			"-0.003": 20.6182818836,
			"-0.002": 15.9929186217,
			"-0.001": 10.9548589951,
			"0.0": 11.082682733,
			"0.001": 11.192741142,
			"0.002": 12.7430571809,
			"0.003": 14.116438902,
			"0.004": 14.4648837158,
			"0.005": 17.4816826959,
			"0.006": 8.37170604868,
			"0.007": 5.83345765147,
			"0.008": 4.15082485103,
			"0.009": 6.25167928919,
			"0.01": 6.22149692123,
			"0.011": 7.39225589553,
			"0.012": 4.4017152918,
			"0.013": 3.0752468779,
			"0.014": 1.36797194675,
			"0.015": 0.00103134680403,
			"0.016": 0.0,
			"0.017": 0.0,
			"0.018": 0.0,
			"0.019": 0.0,
			"0.02": 0.0,
			"0.021": 0.0,
			"0.022": 0.0,
			"0.023": 0.0,
			"0.024": 0.0,
			"0.025": 0.0
		}
	}
}
