{
	 "smiles": "NC(=O)NC1=CC(=CC=C1)C#C", 
	 "Tm": 427.15, 
	 "num_atms": 20, 
	 "gaussian": { 
		 "optdone": 1, 
		 "sigma_profile": "yes", 
		 "theory": "DFT", 
		 "functional": "B3LYP", 
		 "basiset": "6-31G**", 
		 "properties": { 
			 "R2extent": 2787.7052, 
			 "electric_dipole_moment_norm": 3.1503323904, 
			 "electric_quadrupole_moment_norm": 15.3206765849, 
			 "total_energy": -532.462561801, 
			 "HOMO_LUMO_gap": 0.18686, 
			 "cosmo_polarized_energy": -15.22, 
			 "cosmo_cavitation_energy": 25.76, 
			 "cosmo_dispersion_energy": -18.32, 
			 "cosmo_repulsion_energy": 1.46, 
			 "cosmo_total_nonelectrostatic_energy": 8.9, 
			 "SMD_solvation_energy": 6.77 
		},
		"coords": [
			{
				"x": -0.3736677108,
				"y": 0.7446122235,
				"z": -3.6957810246,
				"element": "N" 
			},
			{
				"x": 0.929615865,
				"y": 0.9284348469,
				"z": -3.2742547413,
				"element": "C" 
			},
			{
				"x": 1.8670604059,
				"y": 1.0564585097,
				"z": -4.0481296037,
				"element": "O" 
			},
			{
				"x": 1.1387696966,
				"y": 0.9831330779,
				"z": -1.89841984,
				"element": "N" 
			},
			{
				"x": 0.2415158912,
				"y": 0.944042748,
				"z": -0.8143425908,
				"element": "C" 
			},
			{
				"x": 0.6688766782,
				"y": 0.3423202154,
				"z": 0.3772649662,
				"element": "C" 
			},
			{
				"x": -0.1632562137,
				"y": 0.3100458027,
				"z": 1.5070601029,
				"element": "C" 
			},
			{
				"x": -1.4516297658,
				"y": 0.8731537988,
				"z": 1.4345231872,
				"element": "C" 
			},
			{
				"x": -1.8706709266,
				"y": 1.4720426632,
				"z": 0.2507770138,
				"element": "C" 
			},
			{
				"x": -1.0363069927,
				"y": 1.527081811,
				"z": -0.8666573555,
				"element": "C" 
			},
			{
				"x": 0.2934801909,
				"y": -0.3043558233,
				"z": 2.7148524502,
				"element": "C" 
			},
			{
				"x": 0.6764287856,
				"y": -0.8230192377,
				"z": 3.7387340176,
				"element": "C" 
			},
			{
				"x": -0.4289775661,
				"y": 0.5139161689,
				"z": -4.6773243291,
				"element": "H" 
			},
			{
				"x": -1.0144724949,
				"y": 0.2473275126,
				"z": -3.0931686305,
				"element": "H" 
			},
			{
				"x": 2.1256522877,
				"y": 0.980721216,
				"z": -1.6820543493,
				"element": "H" 
			},
			{
				"x": 1.654030302,
				"y": -0.1109352471,
				"z": 0.4291035755,
				"element": "H" 
			},
			{
				"x": -2.099418514,
				"y": 0.8407700408,
				"z": 2.3034459667,
				"element": "H" 
			},
			{
				"x": -2.856242597,
				"y": 1.9252567144,
				"z": 0.1973003586,
				"element": "H" 
			},
			{
				"x": -1.3584960506,
				"y": 2.0422382888,
				"z": -1.7639407328,
				"element": "H" 
			},
			{
				"x": 1.014808729,
				"y": -1.2794453305,
				"z": 4.6399115588,
				"element": "H" 
			}
		],
		 "valence_orbital": [ 
			{
				"type": "occ",
				"energy": -0.28021,
				"method": "rhf"
			},
			{
				"type": "occ",
				"energy": -0.27703,
				"method": "rhf"
			},
			{
				"type": "occ",
				"energy": -0.25977,
				"method": "rhf"
			},
			{
				"type": "occ",
				"energy": -0.24561,
				"method": "rhf"
			},
			{
				"type": "occ",
				"energy": -0.2266,
				"method": "rhf"
			},
			{
				"type": "unocc",
				"energy": -0.03974,
				"method": "rhf"
			},
			{
				"type": "unocc",
				"energy": -0.01637,
				"method": "rhf"
			},
			{
				"type": "unocc",
				"energy": 0.04794,
				"method": "rhf"
			},
			{
				"type": "unocc",
				"energy": 0.05484,
				"method": "rhf"
			},
			{
				"type": "unocc",
				"energy": 0.07997,
				"method": "rhf"
			}
		],
		"cosmo_sigma_profile": { 
			"-0.025": 0.0,
			"-0.024": 0.0,
			"-0.023": 0.0,
			"-0.022": 0.0,
			"-0.021": 0.0,
			"-0.02": 0.0,
			"-0.019": 0.0,
			"-0.018": 0.0,
			"-0.017": 0.0,
			"-0.016": 0.0,
			"-0.015": 0.198203698148,
			"-0.014": 1.19930878255,
			"-0.013": 3.05126222108,
			"-0.012": 3.73024425855,
			"-0.011": 4.63142661763,
			"-0.01": 4.11921744286,
			"-0.009": 4.5651093805,
			"-0.008": 5.10842726637,
			"-0.007": 5.47046569635,
			"-0.006": 9.94742594975,
			"-0.005": 11.3572664662,
			"-0.004": 9.79403514,
			"-0.003": 7.5817190348,
			"-0.002": 10.900325051,
			"-0.001": 9.64197653236,
			"0.0": 10.515917001,
			"0.001": 13.2326342648,
			"0.002": 14.7824736041,
			"0.003": 19.8505035752,
			"0.004": 16.4172175774,
			"0.005": 8.99680186533,
			"0.006": 10.6626200559,
			"0.007": 2.99468078489,
			"0.008": 1.25582631135,
			"0.009": 1.95276300108,
			"0.01": 1.15920563471,
			"0.011": 1.20219115318,
			"0.012": 1.86086437004,
			"0.013": 3.17490959294,
			"0.014": 6.41606204692,
			"0.015": 1.30007422998,
			"0.016": 0.0,
			"0.017": 0.0,
			"0.018": 0.0,
			"0.019": 0.0,
			"0.02": 0.0,
			"0.021": 0.0,
			"0.022": 0.0,
			"0.023": 0.0,
			"0.024": 0.0,
			"0.025": 0.0
		}
	}
}
