{
	 "smiles": "CC1(O)CCC2C3CCC4=C(O)C(=O)CCC4(C)C3CCC12C", 
	 "Tm": 443.15, 
	 "num_atms": 53, 
	 "gaussian": { 
		 "optdone": 1, 
		 "sigma_profile": "yes", 
		 "theory": "DFT", 
		 "functional": "B3LYP", 
		 "basiset": "6-31G**", 
		 "properties": { 
			 "R2extent": 7308.6618, 
			 "electric_dipole_moment_norm": 4.03943370536, 
			 "electric_quadrupole_moment_norm": 36.1257060397, 
			 "total_energy": -1005.85615805, 
			 "HOMO_LUMO_gap": 0.17976, 
			 "cosmo_polarized_energy": -19.22, 
			 "cosmo_cavitation_energy": 44.23, 
			 "cosmo_dispersion_energy": -31.15, 
			 "cosmo_repulsion_energy": 2.27, 
			 "cosmo_total_nonelectrostatic_energy": 15.35, 
			 "SMD_solvation_energy": 7.22 
		},
		"coords": [
			{
				"x": -0.6981207361,
				"y": -1.1338645587,
				"z": 4.481237433,
				"element": "C" 
			},
			{
				"x": 0.2689139902,
				"y": -1.2035104912,
				"z": 3.2974071369,
				"element": "C" 
			},
			{
				"x": 1.1095535232,
				"y": -2.3642828193,
				"z": 3.4466661693,
				"element": "O" 
			},
			{
				"x": 1.166988845,
				"y": 0.043125737,
				"z": 3.1536481247,
				"element": "C" 
			},
			{
				"x": 1.6772935171,
				"y": 0.0235583167,
				"z": 1.6930766451,
				"element": "C" 
			},
			{
				"x": 0.8199893434,
				"y": -1.0381047928,
				"z": 0.9413334617,
				"element": "C" 
			},
			{
				"x": 0.4255405614,
				"y": -0.7372514885,
				"z": -0.5272152489,
				"element": "C" 
			},
			{
				"x": 1.6675049852,
				"y": -0.3801785236,
				"z": -1.4014782117,
				"element": "C" 
			},
			{
				"x": 1.478581476,
				"y": 0.8965936151,
				"z": -2.254097129,
				"element": "C" 
			},
			{
				"x": 0.9230222096,
				"y": 1.981386314,
				"z": -1.3638412904,
				"element": "C" 
			},
			{
				"x": 1.6824588452,
				"y": 3.0034354456,
				"z": -0.8967742789,
				"element": "C" 
			},
			{
				"x": 2.9506182823,
				"y": 3.29903385,
				"z": -1.3124586632,
				"element": "O" 
			},
			{
				"x": 1.2515008198,
				"y": 3.8795915865,
				"z": 0.228873306,
				"element": "C" 
			},
			{
				"x": 1.8639507935,
				"y": 4.8873980014,
				"z": 0.5377390001,
				"element": "O" 
			},
			{
				"x": 0.0714327296,
				"y": 3.35695813,
				"z": 1.0262100088,
				"element": "C" 
			},
			{
				"x": -1.0137149485,
				"y": 2.7659892645,
				"z": 0.1233614141,
				"element": "C" 
			},
			{
				"x": -0.5401833637,
				"y": 1.7766437283,
				"z": -0.992749554,
				"element": "C" 
			},
			{
				"x": -1.397336713,
				"y": 2.1582165273,
				"z": -2.2416055515,
				"element": "C" 
			},
			{
				"x": -0.7983081856,
				"y": 0.2120840528,
				"z": -0.766427677,
				"element": "C" 
			},
			{
				"x": -1.9348812498,
				"y": -0.1563395663,
				"z": 0.2107669541,
				"element": "C" 
			},
			{
				"x": -1.4964749891,
				"y": -0.2895322327,
				"z": 1.6772651765,
				"element": "C" 
			},
			{
				"x": -0.3859646493,
				"y": -1.3507423351,
				"z": 1.8829466692,
				"element": "C" 
			},
			{
				"x": -0.9515500025,
				"y": -2.7646673934,
				"z": 1.6638858702,
				"element": "C" 
			},
			{
				"x": -1.303718077,
				"y": -2.0429254783,
				"z": 4.5419227388,
				"element": "H" 
			},
			{
				"x": -1.3669690634,
				"y": -0.270884298,
				"z": 4.42170805,
				"element": "H" 
			},
			{
				"x": -0.1360237413,
				"y": -1.0454721901,
				"z": 5.4193709744,
				"element": "H" 
			},
			{
				"x": 1.6081759466,
				"y": -2.2544490724,
				"z": 4.2668158946,
				"element": "H" 
			},
			{
				"x": 0.5937849278,
				"y": 0.9526381469,
				"z": 3.365287969,
				"element": "H" 
			},
			{
				"x": 1.9798929668,
				"y": 0.0179846047,
				"z": 3.8887003818,
				"element": "H" 
			},
			{
				"x": 1.603518241,
				"y": 1.0091124527,
				"z": 1.2305126301,
				"element": "H" 
			},
			{
				"x": 2.735806733,
				"y": -0.2482263601,
				"z": 1.6557246456,
				"element": "H" 
			},
			{
				"x": 1.4217433665,
				"y": -1.9532787924,
				"z": 0.9040454419,
				"element": "H" 
			},
			{
				"x": 0.0515335524,
				"y": -1.6993086854,
				"z": -0.9014094714,
				"element": "H" 
			},
			{
				"x": 1.9217577791,
				"y": -1.2182787748,
				"z": -2.0608127868,
				"element": "H" 
			},
			{
				"x": 2.5384460047,
				"y": -0.220635956,
				"z": -0.7587666675,
				"element": "H" 
			},
			{
				"x": 0.7995814187,
				"y": 0.6932869079,
				"z": -3.0899161754,
				"element": "H" 
			},
			{
				"x": 2.4386172171,
				"y": 1.1602884848,
				"z": -2.7140857464,
				"element": "H" 
			},
			{
				"x": 3.1504606855,
				"y": 2.7867377881,
				"z": -2.106057369,
				"element": "H" 
			},
			{
				"x": -0.3246286354,
				"y": 4.1807354423,
				"z": 1.6267719508,
				"element": "H" 
			},
			{
				"x": 0.45958273,
				"y": 2.6105416812,
				"z": 1.7296826739,
				"element": "H" 
			},
			{
				"x": -1.4979719674,
				"y": 3.6129575297,
				"z": -0.3749819286,
				"element": "H" 
			},
			{
				"x": -1.795655335,
				"y": 2.3099826487,
				"z": 0.7329071018,
				"element": "H" 
			},
			{
				"x": -1.1521618986,
				"y": 1.5512692646,
				"z": -3.1179346198,
				"element": "H" 
			},
			{
				"x": -1.2505950793,
				"y": 3.2097883976,
				"z": -2.505685992,
				"element": "H" 
			},
			{
				"x": -2.4615973454,
				"y": 2.0076658449,
				"z": -2.0241220359,
				"element": "H" 
			},
			{
				"x": -1.1612547664,
				"y": -0.110812861,
				"z": -1.7486912817,
				"element": "H" 
			},
			{
				"x": -2.359130794,
				"y": -1.1133428069,
				"z": -0.1155661145,
				"element": "H" 
			},
			{
				"x": -2.7587993563,
				"y": 0.5621930886,
				"z": 0.1302351155,
				"element": "H" 
			},
			{
				"x": -1.1521904441,
				"y": 0.6846604962,
				"z": 2.0414816942,
				"element": "H" 
			},
			{
				"x": -2.3709403651,
				"y": -0.5508600579,
				"z": 2.2851854658,
				"element": "H" 
			},
			{
				"x": -0.1896828672,
				"y": -3.5186405836,
				"z": 1.866825212,
				"element": "H" 
			},
			{
				"x": -1.8022492291,
				"y": -2.9568367547,
				"z": 2.3279758685,
				"element": "H" 
			},
			{
				"x": -1.3054476882,
				"y": -2.9044304749,
				"z": 0.6381066151,
				"element": "H" 
			}
		],
		 "valence_orbital": [ 
			{
				"type": "occ",
				"energy": -0.28437,
				"method": "rhf"
			},
			{
				"type": "occ",
				"energy": -0.27855,
				"method": "rhf"
			},
			{
				"type": "occ",
				"energy": -0.26111,
				"method": "rhf"
			},
			{
				"type": "occ",
				"energy": -0.23297,
				"method": "rhf"
			},
			{
				"type": "occ",
				"energy": -0.21848,
				"method": "rhf"
			},
			{
				"type": "unocc",
				"energy": -0.03872,
				"method": "rhf"
			},
			{
				"type": "unocc",
				"energy": 0.05256,
				"method": "rhf"
			},
			{
				"type": "unocc",
				"energy": 0.05584,
				"method": "rhf"
			},
			{
				"type": "unocc",
				"energy": 0.06841,
				"method": "rhf"
			},
			{
				"type": "unocc",
				"energy": 0.07619,
				"method": "rhf"
			}
		],
		"cosmo_sigma_profile": { 
			"-0.025": 0.0,
			"-0.024": 0.0,
			"-0.023": 0.0,
			"-0.022": 0.0,
			"-0.021": 0.0,
			"-0.02": 0.0,
			"-0.019": 0.0,
			"-0.018": 0.0,
			"-0.017": 0.0240879738073,
			"-0.016": 0.797863020326,
			"-0.015": 0.843163651324,
			"-0.014": 1.58380180158,
			"-0.013": 1.98767546367,
			"-0.012": 2.24346222781,
			"-0.011": 1.75335012851,
			"-0.01": 1.74251960264,
			"-0.009": 1.99434862585,
			"-0.008": 2.26979622855,
			"-0.007": 1.79297367321,
			"-0.006": 4.32243596214,
			"-0.005": 7.08014707268,
			"-0.004": 15.0837690959,
			"-0.003": 37.8414051343,
			"-0.002": 52.9944783982,
			"-0.001": 53.1295775942,
			"0.0": 44.9116261322,
			"0.001": 35.0242596349,
			"0.002": 15.8170265822,
			"0.003": 5.98909172857,
			"0.004": 4.17050755079,
			"0.005": 3.67082033728,
			"0.006": 3.39031489357,
			"0.007": 3.61365740802,
			"0.008": 4.0135769718,
			"0.009": 4.05069859479,
			"0.01": 4.11316637073,
			"0.011": 4.47206601915,
			"0.012": 7.11716915221,
			"0.013": 6.17349783985,
			"0.014": 2.89569116209,
			"0.015": 1.53246014089,
			"0.016": 1.23483626455,
			"0.017": 0.277835077659,
			"0.018": 0.0,
			"0.019": 0.0,
			"0.02": 0.0,
			"0.021": 0.0,
			"0.022": 0.0,
			"0.023": 0.0,
			"0.024": 0.0,
			"0.025": 0.0
		}
	}
}
