{
	 "smiles": "OC(=O)CSC1=NN=C(N1)C1=C(Cl)C=C(Cl)C=C1", 
	 "Tm": 435.15, 
	 "num_atms": 25, 
	 "gaussian": { 
		 "optdone": 1, 
		 "sigma_profile": "yes", 
		 "theory": "DFT", 
		 "functional": "B3LYP", 
		 "basiset": "6-31G**", 
		 "properties": { 
			 "R2extent": 9015.0339, 
			 "electric_dipole_moment_norm": 1.57641746374, 
			 "electric_quadrupole_moment_norm": 10.2824518025, 
			 "total_energy": -2018.54805741, 
			 "HOMO_LUMO_gap": 0.16663, 
			 "cosmo_polarized_energy": -19.73, 
			 "cosmo_cavitation_energy": 36.18, 
			 "cosmo_dispersion_energy": -26.94, 
			 "cosmo_repulsion_energy": 2.05, 
			 "cosmo_total_nonelectrostatic_energy": 11.29, 
			 "SMD_solvation_energy": 4.35 
		},
		"coords": [
			{
				"x": 3.4665846887,
				"y": 3.9790967771,
				"z": -1.9629520366,
				"element": "O" 
			},
			{
				"x": 3.1150662412,
				"y": 2.7190365052,
				"z": -1.6180649263,
				"element": "C" 
			},
			{
				"x": 3.3050768681,
				"y": 2.2489259524,
				"z": -0.5235028343,
				"element": "O" 
			},
			{
				"x": 2.4624099684,
				"y": 2.0341070125,
				"z": -2.8109930194,
				"element": "C" 
			},
			{
				"x": 1.986459226,
				"y": 0.3034435617,
				"z": -2.5114106797,
				"element": "S" 
			},
			{
				"x": 0.578257201,
				"y": 0.6062968966,
				"z": -1.4976185848,
				"element": "C" 
			},
			{
				"x": -0.1350508621,
				"y": 1.7121381724,
				"z": -1.4446287799,
				"element": "N" 
			},
			{
				"x": -1.1449944258,
				"y": 1.4986942615,
				"z": -0.5427971555,
				"element": "N" 
			},
			{
				"x": -1.0326183286,
				"y": 0.2683502298,
				"z": -0.0728333198,
				"element": "C" 
			},
			{
				"x": 0.0582735768,
				"y": -0.334115734,
				"z": -0.6574629158,
				"element": "N" 
			},
			{
				"x": -1.9579615194,
				"y": -0.2998421248,
				"z": 0.9137945385,
				"element": "C" 
			},
			{
				"x": -1.9350413262,
				"y": -1.5988332491,
				"z": 1.4513358405,
				"element": "C" 
			},
			{
				"x": -0.7220945766,
				"y": -2.7984097491,
				"z": 0.9858200677,
				"element": "Cl" 
			},
			{
				"x": -2.8732594684,
				"y": -2.0298551773,
				"z": 2.3901806178,
				"element": "C" 
			},
			{
				"x": -3.8645718157,
				"y": -1.1501810123,
				"z": 2.810413201,
				"element": "C" 
			},
			{
				"x": -5.0435091869,
				"y": -1.6873291534,
				"z": 3.9886183825,
				"element": "Cl" 
			},
			{
				"x": -3.9266499751,
				"y": 0.1495508567,
				"z": 2.3039530572,
				"element": "C" 
			},
			{
				"x": -2.9833315337,
				"y": 0.5547827495,
				"z": 1.3730552387,
				"element": "C" 
			},
			{
				"x": 3.8569433719,
				"y": 4.3818547525,
				"z": -1.1689976234,
				"element": "H" 
			},
			{
				"x": 3.1561423869,
				"y": 2.0262777054,
				"z": -3.6559595298,
				"element": "H" 
			},
			{
				"x": 1.5771941418,
				"y": 2.6033741636,
				"z": -3.1035193012,
				"element": "H" 
			},
			{
				"x": 0.4219413462,
				"y": -1.2541896266,
				"z": -0.4576398924,
				"element": "H" 
			},
			{
				"x": -2.8242894844,
				"y": -3.0379135343,
				"z": 2.7823185113,
				"element": "H" 
			},
			{
				"x": -4.7019739728,
				"y": 0.8300220448,
				"z": 2.6363894495,
				"element": "H" 
			},
			{
				"x": -3.0103025414,
				"y": 1.5591177192,
				"z": 0.9660016943,
				"element": "H" 
			}
		],
		 "valence_orbital": [ 
			{
				"type": "occ",
				"energy": -0.28874,
				"method": "rhf"
			},
			{
				"type": "occ",
				"energy": -0.27493,
				"method": "rhf"
			},
			{
				"type": "occ",
				"energy": -0.26994,
				"method": "rhf"
			},
			{
				"type": "occ",
				"energy": -0.26354,
				"method": "rhf"
			},
			{
				"type": "occ",
				"energy": -0.22381,
				"method": "rhf"
			},
			{
				"type": "unocc",
				"energy": -0.05718,
				"method": "rhf"
			},
			{
				"type": "unocc",
				"energy": -0.03395,
				"method": "rhf"
			},
			{
				"type": "unocc",
				"energy": -0.00864,
				"method": "rhf"
			},
			{
				"type": "unocc",
				"energy": -0.00232,
				"method": "rhf"
			},
			{
				"type": "unocc",
				"energy": 0.00086,
				"method": "rhf"
			}
		],
		"cosmo_sigma_profile": { 
			"-0.025": 0.0,
			"-0.024": 0.0,
			"-0.023": 0.0,
			"-0.022": 0.0,
			"-0.021": 0.0,
			"-0.02": 0.0,
			"-0.019": 0.331838311949,
			"-0.018": 0.923071730417,
			"-0.017": 0.892869332096,
			"-0.016": 1.73100374679,
			"-0.015": 1.49763626448,
			"-0.014": 1.06002000067,
			"-0.013": 1.88117906472,
			"-0.012": 2.15406755355,
			"-0.011": 1.79159690025,
			"-0.01": 3.55549799568,
			"-0.009": 5.41700468015,
			"-0.008": 7.52243068753,
			"-0.007": 10.8625787102,
			"-0.006": 10.8841115949,
			"-0.005": 10.6702421312,
			"-0.004": 12.4829479508,
			"-0.003": 14.4847533293,
			"-0.002": 18.0585516607,
			"-0.001": 22.4723704355,
			"0.0": 28.8621141076,
			"0.001": 28.7370805442,
			"0.002": 22.8113863162,
			"0.003": 20.3902654287,
			"0.004": 16.6493800185,
			"0.005": 6.6175115349,
			"0.006": 6.88483152089,
			"0.007": 6.53803887025,
			"0.008": 4.34966341116,
			"0.009": 4.5489734128,
			"0.01": 5.75624614605,
			"0.011": 7.20493589492,
			"0.012": 4.45262940129,
			"0.013": 3.1646403583,
			"0.014": 1.84656585726,
			"0.015": 0.162509644227,
			"0.016": 0.0,
			"0.017": 0.0,
			"0.018": 0.0,
			"0.019": 0.0,
			"0.02": 0.0,
			"0.021": 0.0,
			"0.022": 0.0,
			"0.023": 0.0,
			"0.024": 0.0,
			"0.025": 0.0
		}
	}
}
