{
	 "smiles": "COC1=CC=C(C=C1OC)C(=O)NN", 
	 "Tm": 418.15, 
	 "num_atms": 26, 
	 "gaussian": { 
		 "optdone": 1, 
		 "sigma_profile": "yes", 
		 "theory": "DFT", 
		 "functional": "B3LYP", 
		 "basiset": "6-31G**", 
		 "properties": { 
			 "R2extent": 3545.5111, 
			 "electric_dipole_moment_norm": 4.20647467364, 
			 "electric_quadrupole_moment_norm": 16.2583467367, 
			 "total_energy": -685.30804212, 
			 "HOMO_LUMO_gap": 0.19353, 
			 "cosmo_polarized_energy": -16.57, 
			 "cosmo_cavitation_energy": 30.02, 
			 "cosmo_dispersion_energy": -21.56, 
			 "cosmo_repulsion_energy": 1.73, 
			 "cosmo_total_nonelectrostatic_energy": 10.19, 
			 "SMD_solvation_energy": 7.83 
		},
		"coords": [
			{
				"x": -0.2891873596,
				"y": -1.5242972549,
				"z": -3.5007852318,
				"element": "C" 
			},
			{
				"x": -0.3960312449,
				"y": -0.3090817131,
				"z": -2.771449572,
				"element": "O" 
			},
			{
				"x": -0.6121397744,
				"y": -0.3784635697,
				"z": -1.429089148,
				"element": "C" 
			},
			{
				"x": -0.7531126297,
				"y": -1.5675887206,
				"z": -0.7046805784,
				"element": "C" 
			},
			{
				"x": -0.9508475309,
				"y": -1.5326162532,
				"z": 0.6751123876,
				"element": "C" 
			},
			{
				"x": -0.9856048606,
				"y": -0.3177967629,
				"z": 1.3650586408,
				"element": "C" 
			},
			{
				"x": -0.8697349567,
				"y": 0.874346851,
				"z": 0.6311607379,
				"element": "C" 
			},
			{
				"x": -0.6920794619,
				"y": 0.8593915165,
				"z": -0.7469388116,
				"element": "C" 
			},
			{
				"x": -0.5331895638,
				"y": 2.0550920957,
				"z": -1.4015581431,
				"element": "O" 
			},
			{
				"x": -1.5703483942,
				"y": 2.4121576493,
				"z": -2.320622348,
				"element": "C" 
			},
			{
				"x": -1.248962245,
				"y": -0.3687907404,
				"z": 2.8391980119,
				"element": "C" 
			},
			{
				"x": -1.9439485015,
				"y": -1.2486934191,
				"z": 3.337142143,
				"element": "O" 
			},
			{
				"x": -0.7010940271,
				"y": 0.6141035133,
				"z": 3.6464517538,
				"element": "N" 
			},
			{
				"x": 0.503277056,
				"y": 1.313904601,
				"z": 3.3997736808,
				"element": "N" 
			},
			{
				"x": -1.2148534642,
				"y": -2.1107331005,
				"z": -3.447196478,
				"element": "H" 
			},
			{
				"x": -0.1043022165,
				"y": -1.236002448,
				"z": -4.5363462277,
				"element": "H" 
			},
			{
				"x": 0.5468950704,
				"y": -2.1360808671,
				"z": -3.1404743048,
				"element": "H" 
			},
			{
				"x": -0.7086003402,
				"y": -2.5248989036,
				"z": -1.2101941286,
				"element": "H" 
			},
			{
				"x": -1.0836702776,
				"y": -2.4526984061,
				"z": 1.2337096326,
				"element": "H" 
			},
			{
				"x": -0.9443712992,
				"y": 1.8454536736,
				"z": 1.1075888415,
				"element": "H" 
			},
			{
				"x": -1.6314592461,
				"y": 1.7046809485,
				"z": -3.1522976184,
				"element": "H" 
			},
			{
				"x": -2.5413550094,
				"y": 2.4660603377,
				"z": -1.8117560597,
				"element": "H" 
			},
			{
				"x": -1.3089175497,
				"y": 3.4014533765,
				"z": -2.7014140392,
				"element": "H" 
			},
			{
				"x": -0.8485149522,
				"y": 0.4163241341,
				"z": 4.6295876554,
				"element": "H" 
			},
			{
				"x": 1.1318373391,
				"y": 0.7430278521,
				"z": 2.8392295902,
				"element": "H" 
			},
			{
				"x": 0.3043154397,
				"y": 2.1605456097,
				"z": 2.8749896139,
				"element": "H" 
			}
		],
		 "valence_orbital": [ 
			{
				"type": "occ",
				"energy": -0.28294,
				"method": "rhf"
			},
			{
				"type": "occ",
				"energy": -0.25501,
				"method": "rhf"
			},
			{
				"type": "occ",
				"energy": -0.24574,
				"method": "rhf"
			},
			{
				"type": "occ",
				"energy": -0.242,
				"method": "rhf"
			},
			{
				"type": "occ",
				"energy": -0.22247,
				"method": "rhf"
			},
			{
				"type": "unocc",
				"energy": -0.02894,
				"method": "rhf"
			},
			{
				"type": "unocc",
				"energy": -0.00655,
				"method": "rhf"
			},
			{
				"type": "unocc",
				"energy": 0.05512,
				"method": "rhf"
			},
			{
				"type": "unocc",
				"energy": 0.07026,
				"method": "rhf"
			},
			{
				"type": "unocc",
				"energy": 0.08902,
				"method": "rhf"
			}
		],
		"cosmo_sigma_profile": { 
			"-0.025": 0.0,
			"-0.024": 0.0,
			"-0.023": 0.0,
			"-0.022": 0.0,
			"-0.021": 0.0,
			"-0.02": 0.0,
			"-0.019": 0.0,
			"-0.018": 0.0,
			"-0.017": 0.0,
			"-0.016": 0.0,
			"-0.015": 0.0,
			"-0.014": 0.0,
			"-0.013": 0.417269720232,
			"-0.012": 2.56198089578,
			"-0.011": 3.64133966937,
			"-0.01": 3.14438936557,
			"-0.009": 4.38776649011,
			"-0.008": 3.76170734787,
			"-0.007": 4.74528521124,
			"-0.006": 13.6840708862,
			"-0.005": 19.1635925599,
			"-0.004": 20.7156646793,
			"-0.003": 19.9440500332,
			"-0.002": 16.2083259948,
			"-0.001": 15.1704528279,
			"0.0": 11.8921464488,
			"0.001": 12.2665045787,
			"0.002": 12.7781164044,
			"0.003": 13.9382320522,
			"0.004": 11.1625266067,
			"0.005": 6.93999105111,
			"0.006": 5.05626061177,
			"0.007": 3.63368938697,
			"0.008": 4.63012300622,
			"0.009": 4.38227867578,
			"0.01": 4.53639683844,
			"0.011": 3.87479683058,
			"0.012": 3.38677754975,
			"0.013": 5.40718146559,
			"0.014": 4.76435601672,
			"0.015": 0.690562336581,
			"0.016": 0.450951621028,
			"0.017": 0.0774592761267,
			"0.018": 0.0,
			"0.019": 0.0,
			"0.02": 0.0,
			"0.021": 0.0,
			"0.022": 0.0,
			"0.023": 0.0,
			"0.024": 0.0,
			"0.025": 0.0
		}
	}
}
