{
	 "smiles": "CN1CSCSC1", 
	 "Tm": 338.15, 
	 "num_atms": 16, 
	 "gaussian": { 
		 "optdone": 1, 
		 "sigma_profile": "yes", 
		 "theory": "DFT", 
		 "functional": "B3LYP", 
		 "basiset": "6-31G**", 
		 "properties": { 
			 "R2extent": 1318.6947, 
			 "electric_dipole_moment_norm": 2.39089620436, 
			 "electric_quadrupole_moment_norm": 4.80421651469, 
			 "total_energy": -1008.95167268, 
			 "HOMO_LUMO_gap": 0.22117, 
			 "cosmo_polarized_energy": -7.69, 
			 "cosmo_cavitation_energy": 20.19, 
			 "cosmo_dispersion_energy": -16.5, 
			 "cosmo_repulsion_energy": 1.26, 
			 "cosmo_total_nonelectrostatic_energy": 4.94, 
			 "SMD_solvation_energy": 0.79 
		},
		"coords": [
			{
				"x": 1.9581446784,
				"y": 0.4600483792,
				"z": 2.2247029574,
				"element": "C" 
			},
			{
				"x": 0.6677936359,
				"y": 0.4280460051,
				"z": 1.5449896622,
				"element": "N" 
			},
			{
				"x": 0.1683293236,
				"y": -0.8561916638,
				"z": 1.1167047696,
				"element": "C" 
			},
			{
				"x": 0.4095048005,
				"y": -1.2843806667,
				"z": -0.705193345,
				"element": "S" 
			},
			{
				"x": 1.8394358454,
				"y": -0.2102158293,
				"z": -1.0755348308,
				"element": "C" 
			},
			{
				"x": 1.5503002183,
				"y": 1.5979523392,
				"z": -0.8532842498,
				"element": "S" 
			},
			{
				"x": 0.4056762971,
				"y": 1.5107848337,
				"z": 0.6454095993,
				"element": "C" 
			},
			{
				"x": 2.0586282603,
				"y": 1.4179487005,
				"z": 2.7451915778,
				"element": "H" 
			},
			{
				"x": 2.8270302374,
				"y": 0.3523936186,
				"z": 1.5587792771,
				"element": "H" 
			},
			{
				"x": 1.9900595954,
				"y": -0.3343546993,
				"z": 2.9749723734,
				"element": "H" 
			},
			{
				"x": -0.9185724535,
				"y": -0.9063710645,
				"z": 1.2426461757,
				"element": "H" 
			},
			{
				"x": 0.6263518381,
				"y": -1.6370033419,
				"z": 1.7265344308,
				"element": "H" 
			},
			{
				"x": 2.7042768475,
				"y": -0.5250399696,
				"z": -0.4881759466,
				"element": "H" 
			},
			{
				"x": 2.069694273,
				"y": -0.3650716902,
				"z": -2.1309485445,
				"element": "H" 
			},
			{
				"x": -0.6177773736,
				"y": 1.4300765395,
				"z": 0.2744723298,
				"element": "H" 
			},
			{
				"x": 0.5330239763,
				"y": 2.4733785097,
				"z": 1.1468337637,
				"element": "H" 
			}
		],
		 "valence_orbital": [ 
			{
				"type": "occ",
				"energy": -0.36754,
				"method": "rhf"
			},
			{
				"type": "occ",
				"energy": -0.31293,
				"method": "rhf"
			},
			{
				"type": "occ",
				"energy": -0.22944,
				"method": "rhf"
			},
			{
				"type": "occ",
				"energy": -0.22675,
				"method": "rhf"
			},
			{
				"type": "occ",
				"energy": -0.21418,
				"method": "rhf"
			},
			{
				"type": "unocc",
				"energy": 0.00699,
				"method": "rhf"
			},
			{
				"type": "unocc",
				"energy": 0.03104,
				"method": "rhf"
			},
			{
				"type": "unocc",
				"energy": 0.06243,
				"method": "rhf"
			},
			{
				"type": "unocc",
				"energy": 0.07836,
				"method": "rhf"
			},
			{
				"type": "unocc",
				"energy": 0.09694,
				"method": "rhf"
			}
		],
		"cosmo_sigma_profile": { 
			"-0.025": 0.0,
			"-0.024": 0.0,
			"-0.023": 0.0,
			"-0.022": 0.0,
			"-0.021": 0.0,
			"-0.02": 0.0,
			"-0.019": 0.0,
			"-0.018": 0.0,
			"-0.017": 0.0,
			"-0.016": 0.0,
			"-0.015": 0.0,
			"-0.014": 0.0,
			"-0.013": 0.0,
			"-0.012": 0.0,
			"-0.011": 0.0,
			"-0.01": 0.0,
			"-0.009": 0.0,
			"-0.008": 0.877475068565,
			"-0.007": 4.2909943503,
			"-0.006": 13.9275291994,
			"-0.005": 16.733664636,
			"-0.004": 17.1813078099,
			"-0.003": 15.2169479179,
			"-0.002": 13.6842200384,
			"-0.001": 11.6870435648,
			"0.0": 6.47684068542,
			"0.001": 5.47573631486,
			"0.002": 6.16140411765,
			"0.003": 5.77204892671,
			"0.004": 4.92745062873,
			"0.005": 7.35367628002,
			"0.006": 7.30909440826,
			"0.007": 6.33592854783,
			"0.008": 6.05431742909,
			"0.009": 4.92710290381,
			"0.01": 4.47758912505,
			"0.011": 2.93572561913,
			"0.012": 0.330664088238,
			"0.013": 0.0,
			"0.014": 0.0,
			"0.015": 0.0,
			"0.016": 0.0,
			"0.017": 0.0,
			"0.018": 0.0,
			"0.019": 0.0,
			"0.02": 0.0,
			"0.021": 0.0,
			"0.022": 0.0,
			"0.023": 0.0,
			"0.024": 0.0,
			"0.025": 0.0
		}
	}
}
