{
	 "smiles": "CCCCCCCBr", 
	 "Tm": 216.15, 
	 "num_atms": 23, 
	 "gaussian": { 
		 "optdone": 1, 
		 "sigma_profile": "yes", 
		 "theory": "DFT", 
		 "functional": "B3LYP", 
		 "basiset": "6-31G**", 
		 "properties": { 
			 "R2extent": 3598.63, 
			 "electric_dipole_moment_norm": 2.23667272081, 
			 "electric_quadrupole_moment_norm": 8.67103207064, 
			 "total_energy": -2847.21166373, 
			 "HOMO_LUMO_gap": 0.27181, 
			 "cosmo_polarized_energy": -3.82, 
			 "cosmo_cavitation_energy": 26.14, 
			 "cosmo_dispersion_energy": -19.15, 
			 "cosmo_repulsion_energy": 1.62, 
			 "cosmo_total_nonelectrostatic_energy": 8.61, 
			 "SMD_solvation_energy": 2.78 
		},
		"coords": [
			{
				"x": -1.8725673264,
				"y": -1.5475875035,
				"z": -0.7543018171,
				"element": "C" 
			},
			{
				"x": -0.7974061324,
				"y": -1.9512564398,
				"z": 0.2612124965,
				"element": "C" 
			},
			{
				"x": 0.5882749355,
				"y": -2.220018822,
				"z": -0.3510818507,
				"element": "C" 
			},
			{
				"x": 1.2968619502,
				"y": -1.047933066,
				"z": -1.0581918848,
				"element": "C" 
			},
			{
				"x": 1.7275459803,
				"y": 0.1334559532,
				"z": -0.1622828877,
				"element": "C" 
			},
			{
				"x": 0.6781073435,
				"y": 1.2414219925,
				"z": 0.0044730718,
				"element": "C" 
			},
			{
				"x": 1.1189733896,
				"y": 2.4030603531,
				"z": 0.8834818711,
				"element": "C" 
			},
			{
				"x": 2.6221473773,
				"y": 3.4423099383,
				"z": 0.0953450257,
				"element": "Br" 
			},
			{
				"x": -1.9773161707,
				"y": -2.3073285499,
				"z": -1.5376085269,
				"element": "H" 
			},
			{
				"x": -2.8487385503,
				"y": -1.4328098464,
				"z": -0.2715563135,
				"element": "H" 
			},
			{
				"x": -1.637231074,
				"y": -0.5988242831,
				"z": -1.2476266137,
				"element": "H" 
			},
			{
				"x": -0.7209377884,
				"y": -1.1866655932,
				"z": 1.0449226574,
				"element": "H" 
			},
			{
				"x": -1.1227269267,
				"y": -2.8647427724,
				"z": 0.7757583505,
				"element": "H" 
			},
			{
				"x": 0.4887136649,
				"y": -3.0415721973,
				"z": -1.0742505197,
				"element": "H" 
			},
			{
				"x": 1.2526121844,
				"y": -2.5959118064,
				"z": 0.4392450226,
				"element": "H" 
			},
			{
				"x": 0.6789728072,
				"y": -0.6735107615,
				"z": -1.8853184365,
				"element": "H" 
			},
			{
				"x": 2.1962050854,
				"y": -1.4600750739,
				"z": -1.5319212176,
				"element": "H" 
			},
			{
				"x": 2.6265452894,
				"y": 0.593355807,
				"z": -0.5870252151,
				"element": "H" 
			},
			{
				"x": 2.0204478184,
				"y": -0.2440190156,
				"z": 0.8281395907,
				"element": "H" 
			},
			{
				"x": 0.3830165167,
				"y": 1.6254645515,
				"z": -0.9793921331,
				"element": "H" 
			},
			{
				"x": -0.2339153704,
				"y": 0.840166017,
				"z": 0.4665323122,
				"element": "H" 
			},
			{
				"x": 1.4870619548,
				"y": 2.073725333,
				"z": 1.8559983773,
				"element": "H" 
			},
			{
				"x": 0.3259530416,
				"y": 3.1366957853,
				"z": 1.0242486405,
				"element": "H" 
			}
		],
		 "valence_orbital": [ 
			{
				"type": "occ",
				"energy": -0.31909,
				"method": "rhf"
			},
			{
				"type": "occ",
				"energy": -0.31445,
				"method": "rhf"
			},
			{
				"type": "occ",
				"energy": -0.30987,
				"method": "rhf"
			},
			{
				"type": "occ",
				"energy": -0.26858,
				"method": "rhf"
			},
			{
				"type": "occ",
				"energy": -0.26609,
				"method": "rhf"
			},
			{
				"type": "unocc",
				"energy": 0.00572,
				"method": "rhf"
			},
			{
				"type": "unocc",
				"energy": 0.07558,
				"method": "rhf"
			},
			{
				"type": "unocc",
				"energy": 0.09704,
				"method": "rhf"
			},
			{
				"type": "unocc",
				"energy": 0.10497,
				"method": "rhf"
			},
			{
				"type": "unocc",
				"energy": 0.12454,
				"method": "rhf"
			}
		],
		"cosmo_sigma_profile": { 
			"-0.025": 0.0,
			"-0.024": 0.0,
			"-0.023": 0.0,
			"-0.022": 0.0,
			"-0.021": 0.0,
			"-0.02": 0.0,
			"-0.019": 0.0,
			"-0.018": 0.0,
			"-0.017": 0.0,
			"-0.016": 0.0,
			"-0.015": 0.0,
			"-0.014": 0.0,
			"-0.013": 0.0,
			"-0.012": 0.0,
			"-0.011": 0.0,
			"-0.01": 0.0,
			"-0.009": 0.0,
			"-0.008": 0.0,
			"-0.007": 1.20701484527,
			"-0.006": 4.31713577737,
			"-0.005": 4.91394698526,
			"-0.004": 9.2926729402,
			"-0.003": 13.2060424413,
			"-0.002": 29.1582739421,
			"-0.001": 32.810088265,
			"0.0": 33.1615000574,
			"0.001": 30.3826815936,
			"0.002": 14.4287835749,
			"0.003": 5.21134581876,
			"0.004": 4.74559765028,
			"0.005": 6.6771015422,
			"0.006": 8.64746667296,
			"0.007": 6.79263175568,
			"0.008": 0.0254918766217,
			"0.009": 0.0,
			"0.01": 0.0,
			"0.011": 0.0,
			"0.012": 0.0,
			"0.013": 0.0,
			"0.014": 0.0,
			"0.015": 0.0,
			"0.016": 0.0,
			"0.017": 0.0,
			"0.018": 0.0,
			"0.019": 0.0,
			"0.02": 0.0,
			"0.021": 0.0,
			"0.022": 0.0,
			"0.023": 0.0,
			"0.024": 0.0,
			"0.025": 0.0
		}
	}
}
