{
	 "smiles": "CC1=C2NC(=O)C(=O)C2=C(Cl)C=C1", 
	 "Tm": 549.15, 
	 "num_atms": 19, 
	 "gaussian": { 
		 "optdone": 1, 
		 "sigma_profile": "yes", 
		 "theory": "DFT", 
		 "functional": "B3LYP", 
		 "basiset": "6-31G**", 
		 "properties": { 
			 "R2extent": 2668.246, 
			 "electric_dipole_moment_norm": 6.95142735559, 
			 "electric_quadrupole_moment_norm": 9.69901442519, 
			 "total_energy": -1011.97029429, 
			 "HOMO_LUMO_gap": 0.14118, 
			 "cosmo_polarized_energy": -16.73, 
			 "cosmo_cavitation_energy": 25.83, 
			 "cosmo_dispersion_energy": -19.01, 
			 "cosmo_repulsion_energy": 1.49, 
			 "cosmo_total_nonelectrostatic_energy": 8.31, 
			 "SMD_solvation_energy": 5.43 
		},
		"coords": [
			{
				"x": -1.70110901,
				"y": 0.6470260308,
				"z": -2.6091939196,
				"element": "C" 
			},
			{
				"x": -1.3654839241,
				"y": 0.6036496153,
				"z": -1.1400407402,
				"element": "C" 
			},
			{
				"x": -0.0862122377,
				"y": 0.2802437015,
				"z": -0.6878086486,
				"element": "C" 
			},
			{
				"x": 1.0295424539,
				"y": -0.03817052,
				"z": -1.4746498043,
				"element": "N" 
			},
			{
				"x": 2.1521804778,
				"y": -0.3111924336,
				"z": -0.709003345,
				"element": "C" 
			},
			{
				"x": 3.2531251135,
				"y": -0.6134608626,
				"z": -1.1073873335,
				"element": "O" 
			},
			{
				"x": 1.6796266496,
				"y": -0.1398163457,
				"z": 0.7767194179,
				"element": "C" 
			},
			{
				"x": 2.3989086452,
				"y": -0.3005857701,
				"z": 1.7360464073,
				"element": "O" 
			},
			{
				"x": 0.2541545918,
				"y": 0.2325606512,
				"z": 0.6818565514,
				"element": "C" 
			},
			{
				"x": -0.7197265309,
				"y": 0.5185096955,
				"z": 1.6391776792,
				"element": "C" 
			},
			{
				"x": -0.3433054638,
				"y": 0.4714385172,
				"z": 3.3394343318,
				"element": "Cl" 
			},
			{
				"x": -2.0123005064,
				"y": 0.8465339358,
				"z": 1.224780153,
				"element": "C" 
			},
			{
				"x": -2.3097426332,
				"y": 0.8832146855,
				"z": -0.1396664092,
				"element": "C" 
			},
			{
				"x": -1.538574528,
				"y": -0.3250776486,
				"z": -3.0911144921,
				"element": "H" 
			},
			{
				"x": -1.0882294038,
				"y": 1.3835795156,
				"z": -3.1435268698,
				"element": "H" 
			},
			{
				"x": -2.7481032891,
				"y": 0.9182462792,
				"z": -2.7630379888,
				"element": "H" 
			},
			{
				"x": 1.0354468631,
				"y": -0.0706854002,
				"z": -2.4831313795,
				"element": "H" 
			},
			{
				"x": -2.7745964038,
				"y": 1.0700576341,
				"z": 1.9618862297,
				"element": "H" 
			},
			{
				"x": -3.3215008642,
				"y": 1.1406287194,
				"z": -0.4425398397,
				"element": "H" 
			}
		],
		 "valence_orbital": [ 
			{
				"type": "occ",
				"energy": -0.32247,
				"method": "rhf"
			},
			{
				"type": "occ",
				"energy": -0.3104,
				"method": "rhf"
			},
			{
				"type": "occ",
				"energy": -0.26896,
				"method": "rhf"
			},
			{
				"type": "occ",
				"energy": -0.24985,
				"method": "rhf"
			},
			{
				"type": "occ",
				"energy": -0.24265,
				"method": "rhf"
			},
			{
				"type": "unocc",
				"energy": -0.10147,
				"method": "rhf"
			},
			{
				"type": "unocc",
				"energy": -0.02948,
				"method": "rhf"
			},
			{
				"type": "unocc",
				"energy": 0.00028,
				"method": "rhf"
			},
			{
				"type": "unocc",
				"energy": 0.02306,
				"method": "rhf"
			},
			{
				"type": "unocc",
				"energy": 0.05731,
				"method": "rhf"
			}
		],
		"cosmo_sigma_profile": { 
			"-0.025": 0.0,
			"-0.024": 0.0,
			"-0.023": 0.0,
			"-0.022": 0.0,
			"-0.021": 0.0,
			"-0.02": 0.0,
			"-0.019": 0.0,
			"-0.018": 0.0,
			"-0.017": 0.171082450716,
			"-0.016": 0.839947121917,
			"-0.015": 0.766621599668,
			"-0.014": 1.23497599741,
			"-0.013": 1.06598825547,
			"-0.012": 0.993688724791,
			"-0.011": 1.5068750106,
			"-0.01": 1.41475350302,
			"-0.009": 1.54736734989,
			"-0.008": 3.61733792652,
			"-0.007": 8.88527286893,
			"-0.006": 10.3020350272,
			"-0.005": 12.0307869465,
			"-0.004": 11.3632102942,
			"-0.003": 13.747452359,
			"-0.002": 15.5291247451,
			"-0.001": 19.8796199011,
			"0.0": 17.4772748936,
			"0.001": 16.3601233101,
			"0.002": 12.7256147058,
			"0.003": 9.77883518144,
			"0.004": 8.83537443624,
			"0.005": 3.20738897888,
			"0.006": 2.34472385944,
			"0.007": 4.1992383392,
			"0.008": 4.39340385993,
			"0.009": 5.10862560057,
			"0.01": 8.80813616635,
			"0.011": 8.50636687586,
			"0.012": 2.93315150134,
			"0.013": 0.14220283913,
			"0.014": 0.0,
			"0.015": 0.0,
			"0.016": 0.0,
			"0.017": 0.0,
			"0.018": 0.0,
			"0.019": 0.0,
			"0.02": 0.0,
			"0.021": 0.0,
			"0.022": 0.0,
			"0.023": 0.0,
			"0.024": 0.0,
			"0.025": 0.0
		}
	}
}
