{
	 "smiles": "OCCC1CCCCN1S(=O)(=O)C1=C(SC=C1)C(O)=O", 
	 "Tm": 395.15, 
	 "num_atms": 37, 
	 "gaussian": { 
		 "optdone": 1, 
		 "sigma_profile": "yes", 
		 "theory": "DFT", 
		 "functional": "B3LYP", 
		 "basiset": "6-31G**", 
		 "properties": { 
			 "R2extent": 8215.3939, 
			 "electric_dipole_moment_norm": 4.31923064214, 
			 "electric_quadrupole_moment_norm": 17.3277237755, 
			 "total_energy": -1694.68320993, 
			 "HOMO_LUMO_gap": 0.17572, 
			 "cosmo_polarized_energy": -23.79, 
			 "cosmo_cavitation_energy": 41.39, 
			 "cosmo_dispersion_energy": -29.37, 
			 "cosmo_repulsion_energy": 2.17, 
			 "cosmo_total_nonelectrostatic_energy": 14.19, 
			 "SMD_solvation_energy": 7.05 
		},
		"coords": [
			{
				"x": 4.6212498669,
				"y": -1.632497347,
				"z": -0.4895938789,
				"element": "O" 
			},
			{
				"x": 3.3582761897,
				"y": -1.2294189303,
				"z": -0.9991281288,
				"element": "C" 
			},
			{
				"x": 2.3032390439,
				"y": -1.1002976292,
				"z": 0.1056159791,
				"element": "C" 
			},
			{
				"x": 0.9311811108,
				"y": -0.6103828602,
				"z": -0.4066578669,
				"element": "C" 
			},
			{
				"x": 0.1832618947,
				"y": -1.6368702624,
				"z": -1.2829139329,
				"element": "C" 
			},
			{
				"x": -0.3675923591,
				"y": -2.8207710115,
				"z": -0.4747017161,
				"element": "C" 
			},
			{
				"x": -1.253032494,
				"y": -2.3222816768,
				"z": 0.6745590462,
				"element": "C" 
			},
			{
				"x": -0.5163689521,
				"y": -1.2991389651,
				"z": 1.5449111757,
				"element": "C" 
			},
			{
				"x": 0.0127756544,
				"y": -0.2109343915,
				"z": 0.6951731399,
				"element": "N" 
			},
			{
				"x": 0.2446373455,
				"y": 1.2927987663,
				"z": 1.4133911951,
				"element": "S" 
			},
			{
				"x": 1.4409205117,
				"y": 1.8934033355,
				"z": 0.816326461,
				"element": "O" 
			},
			{
				"x": 0.1011004529,
				"y": 1.1357241726,
				"z": 2.8621686707,
				"element": "O" 
			},
			{
				"x": -1.1841257101,
				"y": 2.2373996719,
				"z": 0.8248679576,
				"element": "C" 
			},
			{
				"x": -1.4687613835,
				"y": 3.5502716181,
				"z": 1.1648935013,
				"element": "C" 
			},
			{
				"x": -2.9343752567,
				"y": 4.0859865793,
				"z": 0.3954365794,
				"element": "S" 
			},
			{
				"x": -3.1483829933,
				"y": 2.5610848655,
				"z": -0.3698087225,
				"element": "C" 
			},
			{
				"x": -2.150205104,
				"y": 1.6750691795,
				"z": -0.0563359808,
				"element": "C" 
			},
			{
				"x": -0.7999532576,
				"y": 4.5521459211,
				"z": 2.0177000379,
				"element": "C" 
			},
			{
				"x": 0.3445084289,
				"y": 4.1113178007,
				"z": 2.5616307741,
				"element": "O" 
			},
			{
				"x": -1.2479361272,
				"y": 5.6689448511,
				"z": 2.2008821244,
				"element": "O" 
			},
			{
				"x": 4.9234035043,
				"y": -0.9451432672,
				"z": 0.1186240231,
				"element": "H" 
			},
			{
				"x": 3.0802013572,
				"y": -2.0023260291,
				"z": -1.7229667796,
				"element": "H" 
			},
			{
				"x": 3.4330695047,
				"y": -0.2787403228,
				"z": -1.5528700459,
				"element": "H" 
			},
			{
				"x": 2.2210426068,
				"y": -2.0619705758,
				"z": 0.6233127175,
				"element": "H" 
			},
			{
				"x": 2.6642898382,
				"y": -0.367249877,
				"z": 0.8353476988,
				"element": "H" 
			},
			{
				"x": 1.103713934,
				"y": 0.2899556158,
				"z": -1.0023365143,
				"element": "H" 
			},
			{
				"x": -0.6487233128,
				"y": -1.1224188247,
				"z": -1.7803713365,
				"element": "H" 
			},
			{
				"x": 0.8503402006,
				"y": -1.9901259371,
				"z": -2.0762631076,
				"element": "H" 
			},
			{
				"x": 0.4593299329,
				"y": -3.4172598897,
				"z": -0.0687699785,
				"element": "H" 
			},
			{
				"x": -0.9357295731,
				"y": -3.4883889255,
				"z": -1.1319127458,
				"element": "H" 
			},
			{
				"x": -1.5769028907,
				"y": -3.1565807212,
				"z": 1.3073636296,
				"element": "H" 
			},
			{
				"x": -2.1604498451,
				"y": -1.8583843862,
				"z": 0.2661001529,
				"element": "H" 
			},
			{
				"x": -1.1862252835,
				"y": -0.8627494632,
				"z": 2.2864194409,
				"element": "H" 
			},
			{
				"x": 0.2969349501,
				"y": -1.7869339235,
				"z": 2.0998413777,
				"element": "H" 
			},
			{
				"x": -4.0000524356,
				"y": 2.3906221162,
				"z": -1.0144991485,
				"element": "H" 
			},
			{
				"x": -2.0898935871,
				"y": 0.6620635054,
				"z": -0.4282022533,
				"element": "H" 
			},
			{
				"x": 0.6975342375,
				"y": 4.8365772179,
				"z": 3.1027664539,
				"element": "H" 
			}
		],
		 "valence_orbital": [ 
			{
				"type": "occ",
				"energy": -0.28798,
				"method": "rhf"
			},
			{
				"type": "occ",
				"energy": -0.27456,
				"method": "rhf"
			},
			{
				"type": "occ",
				"energy": -0.27168,
				"method": "rhf"
			},
			{
				"type": "occ",
				"energy": -0.26282,
				"method": "rhf"
			},
			{
				"type": "occ",
				"energy": -0.25058,
				"method": "rhf"
			},
			{
				"type": "unocc",
				"energy": -0.07486,
				"method": "rhf"
			},
			{
				"type": "unocc",
				"energy": 0.00236,
				"method": "rhf"
			},
			{
				"type": "unocc",
				"energy": 0.01137,
				"method": "rhf"
			},
			{
				"type": "unocc",
				"energy": 0.05029,
				"method": "rhf"
			},
			{
				"type": "unocc",
				"energy": 0.062,
				"method": "rhf"
			}
		],
		"cosmo_sigma_profile": { 
			"-0.025": 0.0,
			"-0.024": 0.0,
			"-0.023": 0.0,
			"-0.022": 0.0,
			"-0.021": 0.0,
			"-0.02": 0.0660799521033,
			"-0.019": 0.857900447523,
			"-0.018": 0.867927394368,
			"-0.017": 1.00462782892,
			"-0.016": 0.965881925592,
			"-0.015": 1.46919461171,
			"-0.014": 1.96184306078,
			"-0.013": 1.00307326138,
			"-0.012": 1.93472633525,
			"-0.011": 1.98955445353,
			"-0.01": 3.44072180821,
			"-0.009": 3.96652031332,
			"-0.008": 4.18050621438,
			"-0.007": 3.78174143282,
			"-0.006": 5.49341794597,
			"-0.005": 13.3417752504,
			"-0.004": 32.2838854887,
			"-0.003": 40.6454550141,
			"-0.002": 32.994273519,
			"-0.001": 29.8000545023,
			"0.0": 29.47184099,
			"0.001": 19.946960423,
			"0.002": 12.2518430835,
			"0.003": 7.68130909635,
			"0.004": 6.19988109833,
			"0.005": 6.26441881251,
			"0.006": 4.95088653936,
			"0.007": 5.33296813026,
			"0.008": 6.40261139617,
			"0.009": 6.16482141283,
			"0.01": 12.6838269763,
			"0.011": 16.0046069423,
			"0.012": 6.62741461579,
			"0.013": 1.45640542689,
			"0.014": 2.49093124508,
			"0.015": 1.09485788797,
			"0.016": 0.0,
			"0.017": 0.0,
			"0.018": 0.0,
			"0.019": 0.0,
			"0.02": 0.0,
			"0.021": 0.0,
			"0.022": 0.0,
			"0.023": 0.0,
			"0.024": 0.0,
			"0.025": 0.0
		}
	}
}
