{
	 "smiles": "COC1=CC=CC=C1C(N)=O", 
	 "Tm": 402.15, 
	 "num_atms": 20, 
	 "gaussian": { 
		 "optdone": 1, 
		 "sigma_profile": "yes", 
		 "theory": "DFT", 
		 "functional": "B3LYP", 
		 "basiset": "6-31G**", 
		 "properties": { 
			 "R2extent": 1811.9011, 
			 "electric_dipole_moment_norm": 5.22957758619, 
			 "electric_quadrupole_moment_norm": 13.1889030514, 
			 "total_energy": -515.482932768, 
			 "HOMO_LUMO_gap": 0.20184, 
			 "cosmo_polarized_energy": -13.26, 
			 "cosmo_cavitation_energy": 23.53, 
			 "cosmo_dispersion_energy": -17.72, 
			 "cosmo_repulsion_energy": 1.42, 
			 "cosmo_total_nonelectrostatic_energy": 7.23, 
			 "SMD_solvation_energy": 5.54 
		},
		"coords": [
			{
				"x": 0.1855149868,
				"y": 2.3853748978,
				"z": 1.9588039198,
				"element": "C" 
			},
			{
				"x": 0.5628102118,
				"y": 1.7442002866,
				"z": 0.747208586,
				"element": "O" 
			},
			{
				"x": 0.154700155,
				"y": 0.4528707971,
				"z": 0.5162992803,
				"element": "C" 
			},
			{
				"x": -0.6244671558,
				"y": -0.2542189424,
				"z": 1.4405001426,
				"element": "C" 
			},
			{
				"x": -1.0198515213,
				"y": -1.564631287,
				"z": 1.17081104,
				"element": "C" 
			},
			{
				"x": -0.6438017157,
				"y": -2.1826428593,
				"z": -0.0197499264,
				"element": "C" 
			},
			{
				"x": 0.1304874296,
				"y": -1.4751648616,
				"z": -0.9344158998,
				"element": "C" 
			},
			{
				"x": 0.5461597442,
				"y": -0.1587779178,
				"z": -0.6985996337,
				"element": "C" 
			},
			{
				"x": 1.3815660595,
				"y": 0.4543177761,
				"z": -1.8025168854,
				"element": "C" 
			},
			{
				"x": 1.8176598061,
				"y": 1.732473748,
				"z": -1.6373566511,
				"element": "N" 
			},
			{
				"x": 1.6516761645,
				"y": -0.1916228721,
				"z": -2.8126596147,
				"element": "O" 
			},
			{
				"x": 0.6194343028,
				"y": 3.3852693237,
				"z": 1.9151084881,
				"element": "H" 
			},
			{
				"x": 0.5828047321,
				"y": 1.8566340851,
				"z": 2.8332453668,
				"element": "H" 
			},
			{
				"x": -0.9042283896,
				"y": 2.4675807311,
				"z": 2.0468977666,
				"element": "H" 
			},
			{
				"x": -0.9270633977,
				"y": 0.208361597,
				"z": 2.3716482646,
				"element": "H" 
			},
			{
				"x": -1.6241462205,
				"y": -2.0957208043,
				"z": 1.9009168363,
				"element": "H" 
			},
			{
				"x": -0.9491136411,
				"y": -3.201937017,
				"z": -0.2337317803,
				"element": "H" 
			},
			{
				"x": 0.4452626593,
				"y": -1.9178966002,
				"z": -1.8731158146,
				"element": "H" 
			},
			{
				"x": 2.37194241,
				"y": 2.1228344065,
				"z": -2.3830302824,
				"element": "H" 
			},
			{
				"x": 1.59665338,
				"y": 2.2626955127,
				"z": -0.8099632025,
				"element": "H" 
			}
		],
		 "valence_orbital": [ 
			{
				"type": "occ",
				"energy": -0.33082,
				"method": "rhf"
			},
			{
				"type": "occ",
				"energy": -0.25573,
				"method": "rhf"
			},
			{
				"type": "occ",
				"energy": -0.24801,
				"method": "rhf"
			},
			{
				"type": "occ",
				"energy": -0.24018,
				"method": "rhf"
			},
			{
				"type": "occ",
				"energy": -0.23096,
				"method": "rhf"
			},
			{
				"type": "unocc",
				"energy": -0.02912,
				"method": "rhf"
			},
			{
				"type": "unocc",
				"energy": 0.00576,
				"method": "rhf"
			},
			{
				"type": "unocc",
				"energy": 0.07553,
				"method": "rhf"
			},
			{
				"type": "unocc",
				"energy": 0.08353,
				"method": "rhf"
			},
			{
				"type": "unocc",
				"energy": 0.08772,
				"method": "rhf"
			}
		],
		"cosmo_sigma_profile": { 
			"-0.025": 0.0,
			"-0.024": 0.0,
			"-0.023": 0.0,
			"-0.022": 0.0,
			"-0.021": 0.0,
			"-0.02": 0.0,
			"-0.019": 0.0,
			"-0.018": 0.0,
			"-0.017": 0.0,
			"-0.016": 0.0,
			"-0.015": 0.0,
			"-0.014": 0.206219146959,
			"-0.013": 1.18285961056,
			"-0.012": 0.815552323927,
			"-0.011": 1.10364616027,
			"-0.01": 1.68252735552,
			"-0.009": 1.78948955415,
			"-0.008": 1.8952226012,
			"-0.007": 4.50581467214,
			"-0.006": 14.2578187217,
			"-0.005": 15.9498742157,
			"-0.004": 17.3225324726,
			"-0.003": 14.2521204847,
			"-0.002": 9.7701474544,
			"-0.001": 8.51673588923,
			"0.0": 7.60184469715,
			"0.001": 13.0494492283,
			"0.002": 14.4334175319,
			"0.003": 14.0983187225,
			"0.004": 14.5958817623,
			"0.005": 9.69572001698,
			"0.006": 2.04544709757,
			"0.007": 1.30807262971,
			"0.008": 1.30536371341,
			"0.009": 2.02532763976,
			"0.01": 1.23330448364,
			"0.011": 1.59892752066,
			"0.012": 1.14708072006,
			"0.013": 2.78025132192,
			"0.014": 5.67380488561,
			"0.015": 1.58334379056,
			"0.016": 0.00720082784602,
			"0.017": 0.0,
			"0.018": 0.0,
			"0.019": 0.0,
			"0.02": 0.0,
			"0.021": 0.0,
			"0.022": 0.0,
			"0.023": 0.0,
			"0.024": 0.0,
			"0.025": 0.0
		}
	}
}
