{
	 "smiles": "CC1=CC=C(I)C=C1[N+]([O-])=O", 
	 "Tm": 333.15, 
	 "num_atms": 17, 
	 "gaussian": { 
		 "optdone": 1, 
		 "sigma_profile": "no", 
		 "theory": "DFT", 
		 "functional": "B3LYP", 
		 "basiset": "6-31G**", 
		 "properties": { 
			 "R2extent": 1872.9761, 
			 "electric_dipole_moment_norm": 3.86396312871, 
			 "electric_quadrupole_moment_norm": 6.76832473216, 
			 "total_energy": -486.846334573, 
			 "HOMO_LUMO_gap": 0.16034, 
			 "cosmo_polarized_energy": -99966.25, 
			 "cosmo_cavitation_energy": 24.74, 
			 "cosmo_dispersion_energy": -19.69, 
			 "cosmo_repulsion_energy": 1.54, 
			 "cosmo_total_nonelectrostatic_energy": 6.59, 
			 "SMD_solvation_energy": 5.47 
		},
		"coords": [
			{
				"x": -1.1593627159,
				"y": -0.9130765451,
				"z": -2.5296852791,
				"element": "C" 
			},
			{
				"x": -0.3699229443,
				"y": -0.7629257029,
				"z": -1.2529264462,
				"element": "C" 
			},
			{
				"x": 0.1039669762,
				"y": -1.9197655178,
				"z": -0.6142074164,
				"element": "C" 
			},
			{
				"x": 0.8420695914,
				"y": -1.886174344,
				"z": 0.5661506346,
				"element": "C" 
			},
			{
				"x": 1.1416744905,
				"y": -0.6537775231,
				"z": 1.1507541861,
				"element": "C" 
			},
			{
				"x": 2.2621973161,
				"y": -0.5724493774,
				"z": 2.9431955431,
				"element": "I" 
			},
			{
				"x": 0.7057165679,
				"y": 0.522431701,
				"z": 0.5545958477,
				"element": "C" 
			},
			{
				"x": -0.0412703481,
				"y": 0.4549623861,
				"z": -0.6254528813,
				"element": "C" 
			},
			{
				"x": -0.4683008266,
				"y": 1.7568262438,
				"z": -1.1797971526,
				"element": "N" 
			},
			{
				"x": -1.2927215958,
				"y": 1.7574037415,
				"z": -2.0937041626,
				"element": "O" 
			},
			{
				"x": 0.0211785419,
				"y": 2.7740642668,
				"z": -0.6907940855,
				"element": "O" 
			},
			{
				"x": -2.1894027737,
				"y": -0.5702752348,
				"z": -2.4040986943,
				"element": "H" 
			},
			{
				"x": -0.7373993963,
				"y": -0.3154844195,
				"z": -3.3411404554,
				"element": "H" 
			},
			{
				"x": -1.1700260289,
				"y": -1.9634196752,
				"z": -2.8317591945,
				"element": "H" 
			},
			{
				"x": -0.1173669218,
				"y": -2.883203079,
				"z": -1.0639552532,
				"element": "H" 
			},
			{
				"x": 1.179943961,
				"y": -2.8108901388,
				"z": 1.0204278386,
				"element": "H" 
			},
			{
				"x": 0.9251261065,
				"y": 1.4955532185,
				"z": 0.9718969711,
				"element": "H" 
			}
		],
		 "valence_orbital": [ 
			{
				"type": "occ",
				"energy": -0.31055,
				"method": "rhf"
			},
			{
				"type": "occ",
				"energy": -0.2968,
				"method": "rhf"
			},
			{
				"type": "occ",
				"energy": -0.28832,
				"method": "rhf"
			},
			{
				"type": "occ",
				"energy": -0.28112,
				"method": "rhf"
			},
			{
				"type": "occ",
				"energy": -0.25511,
				"method": "rhf"
			},
			{
				"type": "unocc",
				"energy": -0.09477,
				"method": "rhf"
			},
			{
				"type": "unocc",
				"energy": -0.05235,
				"method": "rhf"
			},
			{
				"type": "unocc",
				"energy": -0.03765,
				"method": "rhf"
			},
			{
				"type": "unocc",
				"energy": -0.01298,
				"method": "rhf"
			},
			{
				"type": "unocc",
				"energy": 0.03762,
				"method": "rhf"
			}
		],
		"cosmo_sigma_profile": { 
			"0.0": 0.0,
			"0.0": 0.0,
			"0.0": 0.0,
			"0.0": 0.0,
			"0.0": 0.0,
			"0.0": 0.0,
			"0.0": 0.0,
			"0.0": 0.0,
			"0.0": 0.0,
			"0.0": 0.0,
			"0.0": 0.0,
			"0.0": 0.0,
			"0.0": 0.0,
			"0.0": 0.0,
			"0.0": 0.0,
			"0.0": 0.0,
			"0.0": 0.0,
			"0.0": 0.0,
			"0.0": 0.0,
			"0.0": 0.0,
			"0.0": 0.0,
			"0.0": 0.0,
			"0.0": 0.0,
			"0.0": 0.0,
			"0.0": 0.0,
			"0.0": 0.0,
			"0.0": 0.0,
			"0.0": 0.0,
			"0.0": 0.0,
			"0.0": 0.0,
			"0.0": 0.0,
			"0.0": 0.0,
			"0.0": 0.0,
			"0.0": 0.0,
			"0.0": 0.0,
			"0.0": 0.0,
			"0.0": 0.0,
			"0.0": 0.0,
			"0.0": 0.0,
			"0.0": 0.0,
			"0.0": 0.0,
			"0.0": 0.0,
			"0.0": 0.0,
			"0.0": 0.0,
			"0.0": 0.0,
			"0.0": 0.0,
			"0.0": 0.0,
			"0.0": 0.0,
			"0.0": 0.0,
			"0.0": 0.0,
			"0.0": 0.0
		}
	}
}
