{
	 "smiles": "OCC1=C(F)C(=CC=C1)C(F)(F)F", 
	 "Tm": 298.15, 
	 "num_atms": 19, 
	 "gaussian": { 
		 "optdone": 1, 
		 "sigma_profile": "yes", 
		 "theory": "DFT", 
		 "functional": "B3LYP", 
		 "basiset": "6-31G**", 
		 "properties": { 
			 "R2extent": 2797.6395, 
			 "electric_dipole_moment_norm": 2.58595555646, 
			 "electric_quadrupole_moment_norm": 9.28438606586, 
			 "total_energy": -783.041577947, 
			 "HOMO_LUMO_gap": 0.2251, 
			 "cosmo_polarized_energy": -7.74, 
			 "cosmo_cavitation_energy": 24.91, 
			 "cosmo_dispersion_energy": -17.8, 
			 "cosmo_repulsion_energy": 1.34, 
			 "cosmo_total_nonelectrostatic_energy": 8.45, 
			 "SMD_solvation_energy": 5.85 
		},
		"coords": [
			{
				"x": -2.0582867139,
				"y": -2.5512021422,
				"z": 1.2890162919,
				"element": "O" 
			},
			{
				"x": -2.1717587606,
				"y": -1.1702964186,
				"z": 0.9896675613,
				"element": "C" 
			},
			{
				"x": -1.0785638384,
				"y": -0.6667771389,
				"z": 0.0634033231,
				"element": "C" 
			},
			{
				"x": -0.8042100985,
				"y": 0.6953948668,
				"z": -0.0327596398,
				"element": "C" 
			},
			{
				"x": -1.5277382227,
				"y": 1.5500875162,
				"z": 0.7240590903,
				"element": "F" 
			},
			{
				"x": 0.1837607183,
				"y": 1.2097573723,
				"z": -0.8724704972,
				"element": "C" 
			},
			{
				"x": 0.9258736465,
				"y": 0.3191821452,
				"z": -1.6526587015,
				"element": "C" 
			},
			{
				"x": 0.6723092375,
				"y": -1.049768525,
				"z": -1.5806732339,
				"element": "C" 
			},
			{
				"x": -0.3219692946,
				"y": -1.5349230318,
				"z": -0.7304419336,
				"element": "C" 
			},
			{
				"x": 0.429865759,
				"y": 2.6942812168,
				"z": -0.9192230434,
				"element": "C" 
			},
			{
				"x": -0.6701936509,
				"y": 3.3723423653,
				"z": -1.3091120752,
				"element": "F" 
			},
			{
				"x": 0.7878935766,
				"y": 3.1799040982,
				"z": 0.2887782868,
				"element": "F" 
			},
			{
				"x": 1.4201482536,
				"y": 3.0035231851,
				"z": -1.7853057837,
				"element": "F" 
			},
			{
				"x": -1.2655758884,
				"y": -2.6721897831,
				"z": 1.828515218,
				"element": "H" 
			},
			{
				"x": -3.1480411522,
				"y": -1.0523035335,
				"z": 0.5054286432,
				"element": "H" 
			},
			{
				"x": -2.1974630639,
				"y": -0.5532466416,
				"z": 1.8983705917,
				"element": "H" 
			},
			{
				"x": 1.6952486663,
				"y": 0.7087202918,
				"z": -2.3088286388,
				"element": "H" 
			},
			{
				"x": 1.2496104288,
				"y": -1.7383936641,
				"z": -2.1891937025,
				"element": "H" 
			},
			{
				"x": -0.5298096025,
				"y": -2.597892179,
				"z": -0.6636717567,
				"element": "H" 
			}
		],
		 "valence_orbital": [ 
			{
				"type": "occ",
				"energy": -0.36551,
				"method": "rhf"
			},
			{
				"type": "occ",
				"energy": -0.34453,
				"method": "rhf"
			},
			{
				"type": "occ",
				"energy": -0.29309,
				"method": "rhf"
			},
			{
				"type": "occ",
				"energy": -0.27235,
				"method": "rhf"
			},
			{
				"type": "occ",
				"energy": -0.25864,
				"method": "rhf"
			},
			{
				"type": "unocc",
				"energy": -0.03354,
				"method": "rhf"
			},
			{
				"type": "unocc",
				"energy": -0.01863,
				"method": "rhf"
			},
			{
				"type": "unocc",
				"energy": 0.06811,
				"method": "rhf"
			},
			{
				"type": "unocc",
				"energy": 0.08274,
				"method": "rhf"
			},
			{
				"type": "unocc",
				"energy": 0.11058,
				"method": "rhf"
			}
		],
		"cosmo_sigma_profile": { 
			"-0.025": 0.0,
			"-0.024": 0.0,
			"-0.023": 0.0,
			"-0.022": 0.0,
			"-0.021": 0.0,
			"-0.02": 0.0,
			"-0.019": 0.0,
			"-0.018": 0.0,
			"-0.017": 0.00660524976741,
			"-0.016": 0.956269868334,
			"-0.015": 0.788283527194,
			"-0.014": 0.819018165255,
			"-0.013": 1.11327087898,
			"-0.012": 1.09761947846,
			"-0.011": 0.595705424787,
			"-0.01": 0.993476639418,
			"-0.009": 0.824562751877,
			"-0.008": 1.12454745313,
			"-0.007": 3.72226665439,
			"-0.006": 9.02755735872,
			"-0.005": 10.8779687256,
			"-0.004": 10.2983972446,
			"-0.003": 11.2712930928,
			"-0.002": 12.3352138156,
			"-0.001": 11.462351232,
			"0.0": 16.0172273382,
			"0.001": 16.8517104696,
			"0.002": 27.2115787494,
			"0.003": 40.6184846737,
			"0.004": 9.37310643138,
			"0.005": 1.18493484291,
			"0.006": 1.19482746328,
			"0.007": 0.455688670735,
			"0.008": 1.03636144911,
			"0.009": 1.51264063366,
			"0.01": 1.20127186698,
			"0.011": 1.04019465178,
			"0.012": 1.33608450575,
			"0.013": 1.9993156612,
			"0.014": 0.728316386441,
			"0.015": 0.0,
			"0.016": 0.0,
			"0.017": 0.0,
			"0.018": 0.0,
			"0.019": 0.0,
			"0.02": 0.0,
			"0.021": 0.0,
			"0.022": 0.0,
			"0.023": 0.0,
			"0.024": 0.0,
			"0.025": 0.0
		}
	}
}
