{
	 "smiles": "CC1=CC(C(O)=O)=C(C)N1C1=CC=C(F)C=C1", 
	 "Tm": 506.15, 
	 "num_atms": 29, 
	 "gaussian": { 
		 "optdone": 1, 
		 "sigma_profile": "yes", 
		 "theory": "DFT", 
		 "functional": "B3LYP", 
		 "basiset": "6-31G**", 
		 "properties": { 
			 "R2extent": 5045.1464, 
			 "electric_dipole_moment_norm": 2.97252025897, 
			 "electric_quadrupole_moment_norm": 9.12328806845, 
			 "total_energy": -807.674741742, 
			 "HOMO_LUMO_gap": 0.17408, 
			 "cosmo_polarized_energy": -12.01, 
			 "cosmo_cavitation_energy": 34.07, 
			 "cosmo_dispersion_energy": -23.3, 
			 "cosmo_repulsion_energy": 1.79, 
			 "cosmo_total_nonelectrostatic_energy": 12.57, 
			 "SMD_solvation_energy": 7.73 
		},
		"coords": [
			{
				"x": 0.2938597217,
				"y": -2.4118987506,
				"z": -2.2483201854,
				"element": "C" 
			},
			{
				"x": -0.0169775479,
				"y": -2.1780643567,
				"z": -0.8052545518,
				"element": "C" 
			},
			{
				"x": -0.4272174588,
				"y": -3.0446950726,
				"z": 0.1722055404,
				"element": "C" 
			},
			{
				"x": -0.5763919185,
				"y": -2.3025974885,
				"z": 1.3885887665,
				"element": "C" 
			},
			{
				"x": -0.9981501702,
				"y": -2.8259029842,
				"z": 2.6844360169,
				"element": "C" 
			},
			{
				"x": -1.2550566522,
				"y": -4.1640612447,
				"z": 2.6400178308,
				"element": "O" 
			},
			{
				"x": -1.1271224499,
				"y": -2.1980738898,
				"z": 3.7248531085,
				"element": "O" 
			},
			{
				"x": -0.2471899957,
				"y": -0.9766602467,
				"z": 1.1205498123,
				"element": "C" 
			},
			{
				"x": -0.2303022906,
				"y": 0.2243628525,
				"z": 2.0091104624,
				"element": "C" 
			},
			{
				"x": 0.091425362,
				"y": -0.9111083436,
				"z": -0.2155120712,
				"element": "N" 
			},
			{
				"x": 0.4949831921,
				"y": 0.2780812621,
				"z": -0.9020925188,
				"element": "C" 
			},
			{
				"x": 1.8404717875,
				"y": 0.6613942099,
				"z": -0.90630903,
				"element": "C" 
			},
			{
				"x": 2.2394428772,
				"y": 1.8172089199,
				"z": -1.5761907207,
				"element": "C" 
			},
			{
				"x": 1.2760014605,
				"y": 2.5724996766,
				"z": -2.2367438573,
				"element": "C" 
			},
			{
				"x": 1.6561903512,
				"y": 3.6892119513,
				"z": -2.8865140622,
				"element": "F" 
			},
			{
				"x": -0.0673616663,
				"y": 2.2115992145,
				"z": -2.248135689,
				"element": "C" 
			},
			{
				"x": -0.4554260462,
				"y": 1.0549542999,
				"z": -1.5732715413,
				"element": "C" 
			},
			{
				"x": -0.3541502642,
				"y": -1.8306361038,
				"z": -2.9153404167,
				"element": "H" 
			},
			{
				"x": 1.3291439164,
				"y": -2.1507078727,
				"z": -2.4988408033,
				"element": "H" 
			},
			{
				"x": 0.1500096468,
				"y": -3.469517019,
				"z": -2.4809169056,
				"element": "H" 
			},
			{
				"x": -0.6062465652,
				"y": -4.1026093645,
				"z": 0.0496810801,
				"element": "H" 
			},
			{
				"x": -1.5230389506,
				"y": -4.3994014196,
				"z": 3.5431367379,
				"element": "H" 
			},
			{
				"x": 0.7709476615,
				"y": 0.6668801139,
				"z": 2.0731203858,
				"element": "H" 
			},
			{
				"x": -0.9043214666,
				"y": 1.0073787929,
				"z": 1.6416487046,
				"element": "H" 
			},
			{
				"x": -0.5469470174,
				"y": -0.0749251757,
				"z": 3.0076290568,
				"element": "H" 
			},
			{
				"x": 2.5693276275,
				"y": 0.0503173226,
				"z": -0.3837104625,
				"element": "H" 
			},
			{
				"x": 3.275725299,
				"y": 2.1360408586,
				"z": -1.5935510703,
				"element": "H" 
			},
			{
				"x": -0.7846678954,
				"y": 2.8308965137,
				"z": -2.7751868284,
				"element": "H" 
			},
			{
				"x": -1.4966605478,
				"y": 0.7492333443,
				"z": -1.5614867886,
				"element": "H" 
			}
		],
		 "valence_orbital": [ 
			{
				"type": "occ",
				"energy": -0.27996,
				"method": "rhf"
			},
			{
				"type": "occ",
				"energy": -0.26279,
				"method": "rhf"
			},
			{
				"type": "occ",
				"energy": -0.25709,
				"method": "rhf"
			},
			{
				"type": "occ",
				"energy": -0.24464,
				"method": "rhf"
			},
			{
				"type": "occ",
				"energy": -0.20544,
				"method": "rhf"
			},
			{
				"type": "unocc",
				"energy": -0.03136,
				"method": "rhf"
			},
			{
				"type": "unocc",
				"energy": -0.02141,
				"method": "rhf"
			},
			{
				"type": "unocc",
				"energy": -0.0073,
				"method": "rhf"
			},
			{
				"type": "unocc",
				"energy": 0.04185,
				"method": "rhf"
			},
			{
				"type": "unocc",
				"energy": 0.07059,
				"method": "rhf"
			}
		],
		"cosmo_sigma_profile": { 
			"-0.025": 0.0,
			"-0.024": 0.0,
			"-0.023": 0.0,
			"-0.022": 0.0,
			"-0.021": 0.0,
			"-0.02": 0.0,
			"-0.019": 0.0,
			"-0.018": 0.0237259971508,
			"-0.017": 0.813632327748,
			"-0.016": 0.858689867005,
			"-0.015": 0.705390175993,
			"-0.014": 0.815806805457,
			"-0.013": 0.294065009433,
			"-0.012": 1.38018884651,
			"-0.011": 0.69764110622,
			"-0.01": 0.127433669197,
			"-0.009": 0.704559889209,
			"-0.008": 2.82734233644,
			"-0.007": 8.22383386358,
			"-0.006": 10.0166619092,
			"-0.005": 12.1549312647,
			"-0.004": 18.3526985102,
			"-0.003": 22.9546831261,
			"-0.002": 20.2325459408,
			"-0.001": 24.4349294483,
			"0.0": 29.1437359342,
			"0.001": 21.2916836754,
			"0.002": 20.4402068915,
			"0.003": 17.1492782929,
			"0.004": 19.4763596926,
			"0.005": 9.13955949695,
			"0.006": 7.1102311414,
			"0.007": 5.47278326012,
			"0.008": 2.998572807,
			"0.009": 2.94723528923,
			"0.01": 2.60744275359,
			"0.011": 1.90637142734,
			"0.012": 3.46992044825,
			"0.013": 2.68588326568,
			"0.014": 0.104296319418,
			"0.015": 0.0,
			"0.016": 0.0,
			"0.017": 0.0,
			"0.018": 0.0,
			"0.019": 0.0,
			"0.02": 0.0,
			"0.021": 0.0,
			"0.022": 0.0,
			"0.023": 0.0,
			"0.024": 0.0,
			"0.0": 0.0
		}
	}
}
