{
	 "smiles": "CC1=CC(C)=NC(SCC2=CC=C(C=C2)C(=O)NN)=N1", 
	 "Tm": 409.15, 
	 "num_atms": 36, 
	 "gaussian": { 
		 "optdone": 1, 
		 "sigma_profile": "yes", 
		 "theory": "DFT", 
		 "functional": "B3LYP", 
		 "basiset": "6-31G**", 
		 "properties": { 
			 "R2extent": 9291.7152, 
			 "electric_dipole_moment_norm": 6.13134026539, 
			 "electric_quadrupole_moment_norm": 17.9914647764, 
			 "total_energy": -1235.54586047, 
			 "HOMO_LUMO_gap": 0.18401, 
			 "cosmo_polarized_energy": -20.71, 
			 "cosmo_cavitation_energy": 42.17, 
			 "cosmo_dispersion_energy": -29.76, 
			 "cosmo_repulsion_energy": 2.28, 
			 "cosmo_total_nonelectrostatic_energy": 14.68, 
			 "SMD_solvation_energy": 6.06 
		},
		"coords": [
			{
				"x": 0.1616221278,
				"y": -0.8788489222,
				"z": -3.8177012507,
				"element": "C" 
			},
			{
				"x": 0.0977215157,
				"y": -2.1143178016,
				"z": -2.9603767405,
				"element": "C" 
			},
			{
				"x": -0.5238179303,
				"y": -3.2871564539,
				"z": -3.3883942335,
				"element": "C" 
			},
			{
				"x": -0.5409462155,
				"y": -4.3773049656,
				"z": -2.5092024286,
				"element": "C" 
			},
			{
				"x": -1.1901513573,
				"y": -5.6873949766,
				"z": -2.8649966779,
				"element": "C" 
			},
			{
				"x": 0.0283760782,
				"y": -4.2976738562,
				"z": -1.2996476387,
				"element": "N" 
			},
			{
				"x": 0.6035168284,
				"y": -3.1305534493,
				"z": -0.9849704102,
				"element": "C" 
			},
			{
				"x": 1.3560639668,
				"y": -3.1584197287,
				"z": 0.6275442956,
				"element": "S" 
			},
			{
				"x": 2.0556313833,
				"y": -1.4536727398,
				"z": 0.7928566895,
				"element": "C" 
			},
			{
				"x": 1.1530059259,
				"y": -0.4748079267,
				"z": 1.5009123123,
				"element": "C" 
			},
			{
				"x": 1.2218319412,
				"y": -0.3162406998,
				"z": 2.8922043732,
				"element": "C" 
			},
			{
				"x": 0.3881079114,
				"y": 0.5827277931,
				"z": 3.5504079658,
				"element": "C" 
			},
			{
				"x": -0.5171170311,
				"y": 1.372026334,
				"z": 2.828506339,
				"element": "C" 
			},
			{
				"x": -0.5973823279,
				"y": 1.2077451825,
				"z": 1.4377570542,
				"element": "C" 
			},
			{
				"x": 0.2232283628,
				"y": 0.2916827254,
				"z": 0.7838785479,
				"element": "C" 
			},
			{
				"x": -1.4177376949,
				"y": 2.2833760543,
				"z": 3.6103952513,
				"element": "C" 
			},
			{
				"x": -1.8457940289,
				"y": 1.9699593817,
				"z": 4.7152614674,
				"element": "O" 
			},
			{
				"x": -1.7771587241,
				"y": 3.4954715502,
				"z": 3.0459078365,
				"element": "N" 
			},
			{
				"x": -1.0020703185,
				"y": 4.2429680575,
				"z": 2.1294312719,
				"element": "N" 
			},
			{
				"x": 0.6663152594,
				"y": -2.0339285427,
				"z": -1.743152537,
				"element": "N" 
			},
			{
				"x": -0.2070604071,
				"y": -1.068244167,
				"z": -4.8284715477,
				"element": "H" 
			},
			{
				"x": 1.1905703426,
				"y": -0.5114834565,
				"z": -3.8746917883,
				"element": "H" 
			},
			{
				"x": -0.4416152464,
				"y": -0.0792235782,
				"z": -3.373377945,
				"element": "H" 
			},
			{
				"x": -0.9817182666,
				"y": -3.3517148324,
				"z": -4.3692974681,
				"element": "H" 
			},
			{
				"x": -1.9790577324,
				"y": -5.9216683204,
				"z": -2.1431802699,
				"element": "H" 
			},
			{
				"x": -0.4557319535,
				"y": -6.4969618812,
				"z": -2.8077475,
				"element": "H" 
			},
			{
				"x": -1.6214263338,
				"y": -5.6685838793,
				"z": -3.8685635109,
				"element": "H" 
			},
			{
				"x": 2.9851100109,
				"y": -1.5974388031,
				"z": 1.349742294,
				"element": "H" 
			},
			{
				"x": 2.2972391218,
				"y": -1.1206532459,
				"z": -0.2174339015,
				"element": "H" 
			},
			{
				"x": 1.9300570416,
				"y": -0.9096265038,
				"z": 3.4652079994,
				"element": "H" 
			},
			{
				"x": 0.4219061211,
				"y": 0.6856329717,
				"z": 4.6300134656,
				"element": "H" 
			},
			{
				"x": -1.3290603023,
				"y": 1.7692817358,
				"z": 0.8648154388,
				"element": "H" 
			},
			{
				"x": 0.1446948709,
				"y": 0.151710469,
				"z": -0.289633008,
				"element": "H" 
			},
			{
				"x": -2.2957409027,
				"y": 4.0770903405,
				"z": 3.6941032268,
				"element": "H" 
			},
			{
				"x": -0.0113482911,
				"y": 4.0708771387,
				"z": 2.2848443531,
				"element": "H" 
			},
			{
				"x": -1.2214637455,
				"y": 3.9523689966,
				"z": 1.1814486743,
				"element": "H" 
			}
		],
		 "valence_orbital": [ 
			{
				"type": "occ",
				"energy": -0.25827,
				"method": "rhf"
			},
			{
				"type": "occ",
				"energy": -0.25656,
				"method": "rhf"
			},
			{
				"type": "occ",
				"energy": -0.24993,
				"method": "rhf"
			},
			{
				"type": "occ",
				"energy": -0.23913,
				"method": "rhf"
			},
			{
				"type": "occ",
				"energy": -0.22673,
				"method": "rhf"
			},
			{
				"type": "unocc",
				"energy": -0.04272,
				"method": "rhf"
			},
			{
				"type": "unocc",
				"energy": -0.0397,
				"method": "rhf"
			},
			{
				"type": "unocc",
				"energy": -0.02158,
				"method": "rhf"
			},
			{
				"type": "unocc",
				"energy": -0.00983,
				"method": "rhf"
			},
			{
				"type": "unocc",
				"energy": 0.0323,
				"method": "rhf"
			}
		],
		"cosmo_sigma_profile": { 
			"-0.025": 0.0,
			"-0.024": 0.0,
			"-0.023": 0.0,
			"-0.022": 0.0,
			"-0.021": 0.0,
			"-0.02": 0.0,
			"-0.019": 0.0,
			"-0.018": 0.0,
			"-0.017": 0.0,
			"-0.016": 0.0,
			"-0.015": 0.0,
			"-0.014": 0.0,
			"-0.013": 0.537672974823,
			"-0.012": 2.33613314094,
			"-0.011": 3.57416224917,
			"-0.01": 4.44843778409,
			"-0.009": 3.64487316676,
			"-0.008": 3.67557976699,
			"-0.007": 9.93568627204,
			"-0.006": 15.2026756296,
			"-0.005": 22.6375595328,
			"-0.004": 24.5231010368,
			"-0.003": 24.4986637003,
			"-0.002": 26.9733450119,
			"-0.001": 33.8436472132,
			"0.0": 25.6948148153,
			"0.001": 20.6730737596,
			"0.002": 18.7274350071,
			"0.003": 14.1906507234,
			"0.004": 19.2470833553,
			"0.005": 13.6428653503,
			"0.006": 9.88926735151,
			"0.007": 8.10005169619,
			"0.008": 5.04455776992,
			"0.009": 3.54119299613,
			"0.01": 3.33284715608,
			"0.011": 3.34697387947,
			"0.012": 3.48036519088,
			"0.013": 6.48771917688,
			"0.014": 4.34035708573,
			"0.015": 0.91844192436,
			"0.016": 0.331574718651,
			"0.017": 0.0117400987769,
			"0.018": 0.0,
			"0.019": 0.0,
			"0.02": 0.0,
			"0.021": 0.0,
			"0.022": 0.0,
			"0.023": 0.0,
			"0.024": 0.0,
			"0.025": 0.0
		}
	}
}
