{
	 "smiles": "CC(N)C1=CC(=CC=C1)N1CCCS1(=O)=O", 
	 "Tm": 334.15, 
	 "num_atms": 32, 
	 "gaussian": { 
		 "optdone": 1, 
		 "sigma_profile": "yes", 
		 "theory": "DFT", 
		 "functional": "B3LYP", 
		 "basiset": "6-31G**", 
		 "properties": { 
			 "R2extent": 4699.7186, 
			 "electric_dipole_moment_norm": 4.2750871266, 
			 "electric_quadrupole_moment_norm": 23.0442088215, 
			 "total_energy": -1086.88386575, 
			 "HOMO_LUMO_gap": 0.21334, 
			 "cosmo_polarized_energy": -19.51, 
			 "cosmo_cavitation_energy": 34.98, 
			 "cosmo_dispersion_energy": -25.3, 
			 "cosmo_repulsion_energy": 1.94, 
			 "cosmo_total_nonelectrostatic_energy": 11.62, 
			 "SMD_solvation_energy": 3.56 
		},
		"coords": [
			{
				"x": 4.2679725962,
				"y": 0.1826856912,
				"z": -0.0022553692,
				"element": "C" 
			},
			{
				"x": 3.5848139222,
				"y": -0.6679442231,
				"z": 1.080828888,
				"element": "C" 
			},
			{
				"x": 4.4735125477,
				"y": -1.7851431561,
				"z": 1.4312232309,
				"element": "N" 
			},
			{
				"x": 2.2439197163,
				"y": -1.1966939431,
				"z": 0.588366864,
				"element": "C" 
			},
			{
				"x": 1.0774047371,
				"y": -0.4838863742,
				"z": 0.8684140995,
				"element": "C" 
			},
			{
				"x": -0.1639640177,
				"y": -0.9120571247,
				"z": 0.3717776926,
				"element": "C" 
			},
			{
				"x": -0.2346455676,
				"y": -2.0885928436,
				"z": -0.3853875947,
				"element": "C" 
			},
			{
				"x": 0.9302198039,
				"y": -2.8170662866,
				"z": -0.6344051271,
				"element": "C" 
			},
			{
				"x": 2.1645053256,
				"y": -2.3780106932,
				"z": -0.1626768873,
				"element": "C" 
			},
			{
				"x": -1.3343241469,
				"y": -0.1682619052,
				"z": 0.6897776749,
				"element": "N" 
			},
			{
				"x": -2.670612272,
				"y": -0.6836797017,
				"z": 0.3899503077,
				"element": "C" 
			},
			{
				"x": -3.6413373981,
				"y": 0.3543874637,
				"z": 0.968762018,
				"element": "C" 
			},
			{
				"x": -3.1086988279,
				"y": 1.7179931504,
				"z": 0.5261406014,
				"element": "C" 
			},
			{
				"x": -1.2882022235,
				"y": 1.5512512121,
				"z": 0.5149497128,
				"element": "S" 
			},
			{
				"x": -0.6979056816,
				"y": 2.1354054914,
				"z": 1.7241344417,
				"element": "O" 
			},
			{
				"x": -0.7561266337,
				"y": 1.9397544799,
				"z": -0.7966441783,
				"element": "O" 
			},
			{
				"x": 4.4828334355,
				"y": -0.4294724457,
				"z": -0.8830873174,
				"element": "H" 
			},
			{
				"x": 3.6273405314,
				"y": 1.0163671665,
				"z": -0.3020059789,
				"element": "H" 
			},
			{
				"x": 5.2131993524,
				"y": 0.5959829203,
				"z": 0.370034962,
				"element": "H" 
			},
			{
				"x": 3.376987661,
				"y": -0.0045246246,
				"z": 1.9388426653,
				"element": "H" 
			},
			{
				"x": 4.0844694375,
				"y": -2.3059139583,
				"z": 2.2140379124,
				"element": "H" 
			},
			{
				"x": 5.3724466834,
				"y": -1.4215020992,
				"z": 1.7384333801,
				"element": "H" 
			},
			{
				"x": 1.1236594494,
				"y": 0.4082326489,
				"z": 1.4853051856,
				"element": "H" 
			},
			{
				"x": -1.1818838874,
				"y": -2.4407759303,
				"z": -0.7780328422,
				"element": "H" 
			},
			{
				"x": 0.866835739,
				"y": -3.7345129419,
				"z": -1.2132205297,
				"element": "H" 
			},
			{
				"x": 3.0705462098,
				"y": -2.9430252861,
				"z": -0.3521994416,
				"element": "H" 
			},
			{
				"x": -2.83884649,
				"y": -0.813623847,
				"z": -0.6912047918,
				"element": "H" 
			},
			{
				"x": -2.7864542157,
				"y": -1.6583273305,
				"z": 0.8721504888,
				"element": "H" 
			},
			{
				"x": -3.6433686773,
				"y": 0.2848643638,
				"z": 2.0599108729,
				"element": "H" 
			},
			{
				"x": -4.6610337994,
				"y": 0.1928570722,
				"z": 0.6090835744,
				"element": "H" 
			},
			{
				"x": -3.38684107,
				"y": 1.9654968201,
				"z": -0.5007839732,
				"element": "H" 
			},
			{
				"x": -3.3534222396,
				"y": 2.5467362348,
				"z": 1.1917794582,
				"element": "H" 
			}
		],
		 "valence_orbital": [ 
			{
				"type": "occ",
				"energy": -0.29877,
				"method": "rhf"
			},
			{
				"type": "occ",
				"energy": -0.27913,
				"method": "rhf"
			},
			{
				"type": "occ",
				"energy": -0.24439,
				"method": "rhf"
			},
			{
				"type": "occ",
				"energy": -0.2312,
				"method": "rhf"
			},
			{
				"type": "occ",
				"energy": -0.21445,
				"method": "rhf"
			},
			{
				"type": "unocc",
				"energy": -0.00111,
				"method": "rhf"
			},
			{
				"type": "unocc",
				"energy": 0.00205,
				"method": "rhf"
			},
			{
				"type": "unocc",
				"energy": 0.05286,
				"method": "rhf"
			},
			{
				"type": "unocc",
				"energy": 0.05952,
				"method": "rhf"
			},
			{
				"type": "unocc",
				"energy": 0.07427,
				"method": "rhf"
			}
		],
		"cosmo_sigma_profile": { 
			"-0.025": 0.0,
			"-0.024": 0.0,
			"-0.023": 0.0,
			"-0.022": 0.0,
			"-0.021": 0.0,
			"-0.02": 0.0,
			"-0.019": 0.0,
			"-0.018": 0.0,
			"-0.017": 0.0,
			"-0.016": 0.0,
			"-0.015": 0.0,
			"-0.014": 0.0,
			"-0.013": 0.0,
			"-0.012": 0.0,
			"-0.011": 0.0,
			"-0.01": 0.948588837701,
			"-0.009": 3.97011614186,
			"-0.008": 7.91443016055,
			"-0.007": 10.8528855643,
			"-0.006": 23.0997372373,
			"-0.005": 24.618582542,
			"-0.004": 22.9518368885,
			"-0.003": 21.0038622155,
			"-0.002": 19.2121070419,
			"-0.001": 16.1131232813,
			"0.0": 13.0287335545,
			"0.001": 14.6655502293,
			"0.002": 11.0386327583,
			"0.003": 9.97453846086,
			"0.004": 11.3604740267,
			"0.005": 13.0079389635,
			"0.006": 9.45457195249,
			"0.007": 5.10307043706,
			"0.008": 3.57221022817,
			"0.009": 5.06358015838,
			"0.01": 8.32766828356,
			"0.011": 12.8531772282,
			"0.012": 3.85540376022,
			"0.013": 0.794164649176,
			"0.014": 0.564515844095,
			"0.015": 0.212192600228,
			"0.016": 0.732940286606,
			"0.017": 0.322239107711,
			"0.018": 0.0,
			"0.019": 0.0,
			"0.02": 0.0,
			"0.021": 0.0,
			"0.022": 0.0,
			"0.023": 0.0,
			"0.024": 0.0,
			"0.025": 0.0
		}
	}
}
