{
	 "smiles": "CCC(N)C(=O)NC(CC)C1=CC=C(C)C=C1", 
	 "Tm": 333.15, 
	 "num_atms": 39, 
	 "gaussian": { 
		 "optdone": 1, 
		 "sigma_profile": "yes", 
		 "theory": "DFT", 
		 "functional": "B3LYP", 
		 "basiset": "6-31G**", 
		 "properties": { 
			 "R2extent": 4575.8236, 
			 "electric_dipole_moment_norm": 5.12539106898, 
			 "electric_quadrupole_moment_norm": 17.8017258486, 
			 "total_energy": -731.496336774, 
			 "HOMO_LUMO_gap": 0.21516, 
			 "cosmo_polarized_energy": -17.56, 
			 "cosmo_cavitation_energy": 39.68, 
			 "cosmo_dispersion_energy": -26.15, 
			 "cosmo_repulsion_energy": 2.08, 
			 "cosmo_total_nonelectrostatic_energy": 15.61, 
			 "SMD_solvation_energy": 5.87 
		},
		"coords": [
			{
				"x": 3.2291413674,
				"y": 0.2035684064,
				"z": -0.2333438417,
				"element": "C" 
			},
			{
				"x": 2.9303203889,
				"y": -0.1097148987,
				"z": -1.7021269086,
				"element": "C" 
			},
			{
				"x": 1.459699968,
				"y": -0.4475628284,
				"z": -1.9753770154,
				"element": "C" 
			},
			{
				"x": 1.2704401284,
				"y": -0.6290137995,
				"z": -3.4271473017,
				"element": "N" 
			},
			{
				"x": 1.0806180346,
				"y": -1.7779961754,
				"z": -1.2998181698,
				"element": "C" 
			},
			{
				"x": 1.8823843003,
				"y": -2.6963689989,
				"z": -1.1875780865,
				"element": "O" 
			},
			{
				"x": -0.2190400907,
				"y": -1.9554199002,
				"z": -0.8735342942,
				"element": "N" 
			},
			{
				"x": -1.3342968336,
				"y": -1.0113351458,
				"z": -0.6452121729,
				"element": "C" 
			},
			{
				"x": -1.9764520411,
				"y": -0.5199306208,
				"z": -1.9591485488,
				"element": "C" 
			},
			{
				"x": -3.3965456638,
				"y": 0.0320263705,
				"z": -1.7818415729,
				"element": "C" 
			},
			{
				"x": -0.9854599005,
				"y": 0.0738039619,
				"z": 0.3812456837,
				"element": "C" 
			},
			{
				"x": -0.6716581862,
				"y": -0.3210186994,
				"z": 1.6916508725,
				"element": "C" 
			},
			{
				"x": -0.3393743275,
				"y": 0.6112971505,
				"z": 2.6679338734,
				"element": "C" 
			},
			{
				"x": -0.3096373442,
				"y": 1.9848438065,
				"z": 2.3778121637,
				"element": "C" 
			},
			{
				"x": 0.0499756283,
				"y": 2.9928042605,
				"z": 3.4433996979,
				"element": "C" 
			},
			{
				"x": -0.6270989667,
				"y": 2.3791307059,
				"z": 1.0757780226,
				"element": "C" 
			},
			{
				"x": -0.9610210088,
				"y": 1.4413281327,
				"z": 0.0931177926,
				"element": "C" 
			},
			{
				"x": 4.279671067,
				"y": 0.4822703221,
				"z": -0.1024962686,
				"element": "H" 
			},
			{
				"x": 3.0376773427,
				"y": -0.669368014,
				"z": 0.3975912098,
				"element": "H" 
			},
			{
				"x": 2.6149456361,
				"y": 1.0320080386,
				"z": 0.1380094968,
				"element": "H" 
			},
			{
				"x": 3.1966062287,
				"y": 0.7548059041,
				"z": -2.3257660926,
				"element": "H" 
			},
			{
				"x": 3.5321520157,
				"y": -0.9560825328,
				"z": -2.0435088086,
				"element": "H" 
			},
			{
				"x": 0.8363636232,
				"y": 0.3561845201,
				"z": -1.5550259329,
				"element": "H" 
			},
			{
				"x": 0.3008265742,
				"y": -0.847069246,
				"z": -3.6404963321,
				"element": "H" 
			},
			{
				"x": 1.4875674302,
				"y": 0.2433512418,
				"z": -3.9036362277,
				"element": "H" 
			},
			{
				"x": -0.3357117158,
				"y": -2.8803938353,
				"z": -0.4796373119,
				"element": "H" 
			},
			{
				"x": -2.0937518551,
				"y": -1.6427245147,
				"z": -0.1667835626,
				"element": "H" 
			},
			{
				"x": -2.0089348388,
				"y": -1.3818644583,
				"z": -2.6351477443,
				"element": "H" 
			},
			{
				"x": -1.3378210834,
				"y": 0.2271359342,
				"z": -2.4446360877,
				"element": "H" 
			},
			{
				"x": -3.4223842958,
				"y": 0.8969193799,
				"z": -1.1134676281,
				"element": "H" 
			},
			{
				"x": -4.061112784,
				"y": -0.7306034428,
				"z": -1.3602310587,
				"element": "H" 
			},
			{
				"x": -3.8159144703,
				"y": 0.3388111331,
				"z": -2.7450567437,
				"element": "H" 
			},
			{
				"x": -0.6788430411,
				"y": -1.3783832275,
				"z": 1.9455774477,
				"element": "H" 
			},
			{
				"x": -0.0999262252,
				"y": 0.2710633982,
				"z": 3.672734326,
				"element": "H" 
			},
			{
				"x": 1.0501036101,
				"y": 2.8033038022,
				"z": 3.8496886677,
				"element": "H" 
			},
			{
				"x": -0.651068591,
				"y": 2.950755294,
				"z": 4.2851218296,
				"element": "H" 
			},
			{
				"x": 0.0373204158,
				"y": 4.0127528533,
				"z": 3.0496000523,
				"element": "H" 
			},
			{
				"x": -0.6151513022,
				"y": 3.4355835034,
				"z": 0.8191779801,
				"element": "H" 
			},
			{
				"x": -1.2001091938,
				"y": 1.7968022188,
				"z": -0.9040214044,
				"element": "H" 
			}
		],
		 "valence_orbital": [ 
			{
				"type": "occ",
				"energy": -0.25952,
				"method": "rhf"
			},
			{
				"type": "occ",
				"energy": -0.25564,
				"method": "rhf"
			},
			{
				"type": "occ",
				"energy": -0.23911,
				"method": "rhf"
			},
			{
				"type": "occ",
				"energy": -0.23428,
				"method": "rhf"
			},
			{
				"type": "occ",
				"energy": -0.22538,
				"method": "rhf"
			},
			{
				"type": "unocc",
				"energy": -0.01022,
				"method": "rhf"
			},
			{
				"type": "unocc",
				"energy": -0.0084,
				"method": "rhf"
			},
			{
				"type": "unocc",
				"energy": 0.02627,
				"method": "rhf"
			},
			{
				"type": "unocc",
				"energy": 0.0688,
				"method": "rhf"
			},
			{
				"type": "unocc",
				"energy": 0.07878,
				"method": "rhf"
			}
		],
		"cosmo_sigma_profile": { 
			"-0.025": 0.0,
			"-0.024": 0.0,
			"-0.023": 0.0,
			"-0.022": 0.0,
			"-0.021": 0.0,
			"-0.02": 0.0,
			"-0.019": 0.0,
			"-0.018": 0.0,
			"-0.017": 0.0,
			"-0.016": 0.0,
			"-0.015": 0.0,
			"-0.014": 0.0,
			"-0.013": 0.770919729406,
			"-0.012": 1.07295555072,
			"-0.011": 1.24562084811,
			"-0.01": 2.32182873248,
			"-0.009": 2.86825452714,
			"-0.008": 3.05672027186,
			"-0.007": 5.75559961311,
			"-0.006": 8.66132028315,
			"-0.005": 15.3547987817,
			"-0.004": 23.5603155917,
			"-0.003": 30.7679228233,
			"-0.002": 31.3672724712,
			"-0.001": 33.5558179815,
			"0.0": 33.711495968,
			"0.001": 32.0084753537,
			"0.002": 18.6959829594,
			"0.003": 14.5290558651,
			"0.004": 9.15920856504,
			"0.005": 6.70126490472,
			"0.006": 5.73094495253,
			"0.007": 2.51846910308,
			"0.008": 1.81950340808,
			"0.009": 1.6341255103,
			"0.01": 2.15005962423,
			"0.011": 2.34811250558,
			"0.012": 2.65616263882,
			"0.013": 3.51563846364,
			"0.014": 6.96308886314,
			"0.015": 2.07253583586,
			"0.016": 0.590405467655,
			"0.017": 0.829385401745,
			"0.018": 0.396038737885,
			"0.019": 0.497682557657,
			"0.02": 0.00275684461972,
			"0.021": 0.0,
			"0.022": 0.0,
			"0.023": 0.0,
			"0.024": 0.0,
			"0.025": 0.0
		}
	}
}
