{
	 "smiles": "OCC1=CN(CC2=CC=CC=C2)N=C1", 
	 "Tm": 329.15, 
	 "num_atms": 26, 
	 "gaussian": { 
		 "optdone": 1, 
		 "sigma_profile": "yes", 
		 "theory": "DFT", 
		 "functional": "B3LYP", 
		 "basiset": "6-31G**", 
		 "properties": { 
			 "R2extent": 3940.8065, 
			 "electric_dipole_moment_norm": 2.00397262706, 
			 "electric_quadrupole_moment_norm": 8.71861782911, 
			 "total_energy": -611.093144021, 
			 "HOMO_LUMO_gap": 0.22105, 
			 "cosmo_polarized_energy": -12.72, 
			 "cosmo_cavitation_energy": 30.14, 
			 "cosmo_dispersion_energy": -21.66, 
			 "cosmo_repulsion_energy": 1.73, 
			 "cosmo_total_nonelectrostatic_energy": 10.21, 
			 "SMD_solvation_energy": 4.7 
		},
		"coords": [
			{
				"x": 3.0555812261,
				"y": 0.6062905844,
				"z": 1.7387010484,
				"element": "O" 
			},
			{
				"x": 2.5227948333,
				"y": -0.6874238509,
				"z": 1.4719738892,
				"element": "C" 
			},
			{
				"x": 1.4342621708,
				"y": -0.5526623431,
				"z": 0.4528074302,
				"element": "C" 
			},
			{
				"x": 0.7348509832,
				"y": 0.5954464464,
				"z": 0.1285950529,
				"element": "C" 
			},
			{
				"x": -0.155499725,
				"y": 0.2575618681,
				"z": -0.8431512001,
				"element": "N" 
			},
			{
				"x": -1.1664723241,
				"y": 1.1039860541,
				"z": -1.4641360843,
				"element": "C" 
			},
			{
				"x": -2.442856014,
				"y": 1.2367102209,
				"z": -0.6510726776,
				"element": "C" 
			},
			{
				"x": -2.9764974143,
				"y": 2.4986186957,
				"z": -0.3721133045,
				"element": "C" 
			},
			{
				"x": -4.1661207777,
				"y": 2.6240666503,
				"z": 0.3496655286,
				"element": "C" 
			},
			{
				"x": -4.8289017744,
				"y": 1.4842214175,
				"z": 0.8041899615,
				"element": "C" 
			},
			{
				"x": -4.2986861321,
				"y": 0.2196702294,
				"z": 0.5320954956,
				"element": "C" 
			},
			{
				"x": -3.1147016308,
				"y": 0.0951262872,
				"z": -0.1928748717,
				"element": "C" 
			},
			{
				"x": -0.0919498348,
				"y": -1.0545116201,
				"z": -1.164382785,
				"element": "N" 
			},
			{
				"x": 0.8731134123,
				"y": -1.5445408229,
				"z": -0.3847701198,
				"element": "C" 
			},
			{
				"x": 3.6596197119,
				"y": 0.5291794547,
				"z": 2.4871127303,
				"element": "H" 
			},
			{
				"x": 3.3001553815,
				"y": -1.3732174802,
				"z": 1.0963669346,
				"element": "H" 
			},
			{
				"x": 2.1222095694,
				"y": -1.140070369,
				"z": 2.3950370825,
				"element": "H" 
			},
			{
				"x": 0.8248394735,
				"y": 1.6033025254,
				"z": 0.5035344374,
				"element": "H" 
			},
			{
				"x": -1.3724574789,
				"y": 0.6512093617,
				"z": -2.4381332441,
				"element": "H" 
			},
			{
				"x": -0.7270451781,
				"y": 2.0904364639,
				"z": -1.6406015146,
				"element": "H" 
			},
			{
				"x": -2.4601281328,
				"y": 3.3901454528,
				"z": -0.7209553826,
				"element": "H" 
			},
			{
				"x": -4.568986603,
				"y": 3.6107845689,
				"z": 0.5601062666,
				"element": "H" 
			},
			{
				"x": -5.7523467328,
				"y": 1.5786489342,
				"z": 1.3684149913,
				"element": "H" 
			},
			{
				"x": -4.8108426021,
				"y": -0.6713934449,
				"z": 0.8842944953,
				"element": "H" 
			},
			{
				"x": -2.6969719328,
				"y": -0.8851324562,
				"z": -0.4040891426,
				"element": "H" 
			},
			{
				"x": 1.1396375255,
				"y": -2.5912528282,
				"z": -0.4597150178,
				"element": "H" 
			}
		],
		 "valence_orbital": [ 
			{
				"type": "occ",
				"energy": -0.2748,
				"method": "rhf"
			},
			{
				"type": "occ",
				"energy": -0.25011,
				"method": "rhf"
			},
			{
				"type": "occ",
				"energy": -0.24933,
				"method": "rhf"
			},
			{
				"type": "occ",
				"energy": -0.23698,
				"method": "rhf"
			},
			{
				"type": "occ",
				"energy": -0.2266,
				"method": "rhf"
			},
			{
				"type": "unocc",
				"energy": -0.00555,
				"method": "rhf"
			},
			{
				"type": "unocc",
				"energy": -0.00056,
				"method": "rhf"
			},
			{
				"type": "unocc",
				"energy": 0.027,
				"method": "rhf"
			},
			{
				"type": "unocc",
				"energy": 0.06212,
				"method": "rhf"
			},
			{
				"type": "unocc",
				"energy": 0.08336,
				"method": "rhf"
			}
		],
		"cosmo_sigma_profile": { 
			"-0.025": 0.0,
			"-0.024": 0.0,
			"-0.023": 0.0,
			"-0.022": 0.0,
			"-0.021": 0.0,
			"-0.02": 0.0,
			"-0.019": 0.0,
			"-0.018": 0.0,
			"-0.017": 0.0,
			"-0.016": 0.583509316288,
			"-0.015": 1.23075766401,
			"-0.014": 0.960989976566,
			"-0.013": 1.0886855685,
			"-0.012": 0.735669811679,
			"-0.011": 1.05516742479,
			"-0.01": 0.550591879605,
			"-0.009": 0.234313959211,
			"-0.008": 2.98084470717,
			"-0.007": 7.43686911393,
			"-0.006": 12.6982351886,
			"-0.005": 17.9581142276,
			"-0.004": 24.0142889551,
			"-0.003": 21.689051709,
			"-0.002": 15.8952677438,
			"-0.001": 12.7134539121,
			"0.0": 10.7060075434,
			"0.001": 11.9252002809,
			"0.002": 12.8528624306,
			"0.003": 14.6694182085,
			"0.004": 16.0727563922,
			"0.005": 17.9244702278,
			"0.006": 12.2160698743,
			"0.007": 3.22625382431,
			"0.008": 3.10275165465,
			"0.009": 2.49103531614,
			"0.01": 2.91287615554,
			"0.011": 2.54735087491,
			"0.012": 2.53899251986,
			"0.013": 1.79612024008,
			"0.014": 1.77756082711,
			"0.015": 0.540863904574,
			"0.016": 0.478018035476,
			"0.017": 0.00878255351085,
			"0.018": 0.0,
			"0.019": 0.0,
			"0.02": 0.0,
			"0.021": 0.0,
			"0.022": 0.0,
			"0.023": 0.0,
			"0.024": 0.0,
			"0.025": 0.0
		}
	}
}
