{
	 "smiles": "CCN(CC)S(=O)(=O)C1=CC(N)=C(Cl)C=C1", 
	 "Tm": 359.15, 
	 "num_atms": 31, 
	 "gaussian": { 
		 "optdone": 1, 
		 "sigma_profile": "yes", 
		 "theory": "DFT", 
		 "functional": "B3LYP", 
		 "basiset": "6-31G**", 
		 "properties": { 
			 "R2extent": 6071.768, 
			 "electric_dipole_moment_norm": 4.54435120342, 
			 "electric_quadrupole_moment_norm": 20.7869568744, 
			 "total_energy": -1508.37454616, 
			 "HOMO_LUMO_gap": 0.18534, 
			 "cosmo_polarized_energy": -15.97, 
			 "cosmo_cavitation_energy": 36.34, 
			 "cosmo_dispersion_energy": -25.77, 
			 "cosmo_repulsion_energy": 1.99, 
			 "cosmo_total_nonelectrostatic_energy": 12.55, 
			 "SMD_solvation_energy": 4.77 
		},
		"coords": [
			{
				"x": -2.5823219919,
				"y": -2.626228782,
				"z": -1.3373361525,
				"element": "C" 
			},
			{
				"x": -2.2369963765,
				"y": -1.1861424837,
				"z": -0.9439866497,
				"element": "C" 
			},
			{
				"x": -0.9122390097,
				"y": -0.9882404413,
				"z": -0.3140641901,
				"element": "N" 
			},
			{
				"x": -0.6596783944,
				"y": -1.6750213511,
				"z": 0.9696510466,
				"element": "C" 
			},
			{
				"x": -1.5719470135,
				"y": -1.1590008247,
				"z": 2.0821243834,
				"element": "C" 
			},
			{
				"x": 0.4026306991,
				"y": -1.0290818666,
				"z": -1.3859640896,
				"element": "S" 
			},
			{
				"x": 1.0739139179,
				"y": -2.3388161896,
				"z": -1.3657610664,
				"element": "O" 
			},
			{
				"x": -0.0808431746,
				"y": -0.472281856,
				"z": -2.6542988664,
				"element": "O" 
			},
			{
				"x": 1.5229576104,
				"y": 0.1529052449,
				"z": -0.6208138134,
				"element": "C" 
			},
			{
				"x": 2.8009048112,
				"y": -0.276302775,
				"z": -0.2866830048,
				"element": "C" 
			},
			{
				"x": 3.7369105739,
				"y": 0.624178333,
				"z": 0.2591050117,
				"element": "C" 
			},
			{
				"x": 5.0250938547,
				"y": 0.2204569339,
				"z": 0.5439683951,
				"element": "N" 
			},
			{
				"x": 3.3082716542,
				"y": 1.9536413326,
				"z": 0.4487040923,
				"element": "C" 
			},
			{
				"x": 4.4298045151,
				"y": 3.1162726872,
				"z": 1.1486795778,
				"element": "Cl" 
			},
			{
				"x": 2.0251548455,
				"y": 2.3754866647,
				"z": 0.1045722342,
				"element": "C" 
			},
			{
				"x": 1.1138103331,
				"y": 1.4767991378,
				"z": -0.4409623696,
				"element": "C" 
			},
			{
				"x": -2.5883088374,
				"y": -3.3005828537,
				"z": -0.4752655092,
				"element": "H" 
			},
			{
				"x": -3.5810693462,
				"y": -2.6544414712,
				"z": -1.7857065817,
				"element": "H" 
			},
			{
				"x": -1.8707024401,
				"y": -3.0159232739,
				"z": -2.0705112204,
				"element": "H" 
			},
			{
				"x": -2.2667978779,
				"y": -0.5403290556,
				"z": -1.8226864454,
				"element": "H" 
			},
			{
				"x": -2.9737109972,
				"y": -0.7958594588,
				"z": -0.2349111379,
				"element": "H" 
			},
			{
				"x": -0.7512785646,
				"y": -2.7639742043,
				"z": 0.8648746178,
				"element": "H" 
			},
			{
				"x": 0.3797079351,
				"y": -1.4751220981,
				"z": 1.2451480579,
				"element": "H" 
			},
			{
				"x": -1.4890326158,
				"y": -0.0724701801,
				"z": 2.1782382607,
				"element": "H" 
			},
			{
				"x": -1.2807724367,
				"y": -1.6142166585,
				"z": 3.0339889401,
				"element": "H" 
			},
			{
				"x": -2.6222157758,
				"y": -1.4104168562,
				"z": 1.9082295672,
				"element": "H" 
			},
			{
				"x": 3.0755772572,
				"y": -1.3119786846,
				"z": -0.4589484131,
				"element": "H" 
			},
			{
				"x": 5.1737212728,
				"y": -0.7707560875,
				"z": 0.6562923156,
				"element": "H" 
			},
			{
				"x": 5.5571104511,
				"y": 0.801169035,
				"z": 1.1750655715,
				"element": "H" 
			},
			{
				"x": 1.749101991,
				"y": 3.4112630465,
				"z": 0.2689834502,
				"element": "H" 
			},
			{
				"x": 0.1141431301,
				"y": 1.791915037,
				"z": -0.7140260116,
				"element": "H" 
			}
		],
		 "valence_orbital": [ 
			{
				"type": "occ",
				"energy": -0.30213,
				"method": "rhf"
			},
			{
				"type": "occ",
				"energy": -0.29336,
				"method": "rhf"
			},
			{
				"type": "occ",
				"energy": -0.26641,
				"method": "rhf"
			},
			{
				"type": "occ",
				"energy": -0.2467,
				"method": "rhf"
			},
			{
				"type": "occ",
				"energy": -0.22191,
				"method": "rhf"
			},
			{
				"type": "unocc",
				"energy": -0.03657,
				"method": "rhf"
			},
			{
				"type": "unocc",
				"energy": -0.01119,
				"method": "rhf"
			},
			{
				"type": "unocc",
				"energy": 0.02016,
				"method": "rhf"
			},
			{
				"type": "unocc",
				"energy": 0.06746,
				"method": "rhf"
			},
			{
				"type": "unocc",
				"energy": 0.07079,
				"method": "rhf"
			}
		],
		"cosmo_sigma_profile": { 
			"-0.025": 0.0,
			"-0.024": 0.0,
			"-0.023": 0.0,
			"-0.022": 0.0,
			"-0.021": 0.0,
			"-0.02": 0.0,
			"-0.019": 0.0,
			"-0.018": 0.0,
			"-0.017": 0.0,
			"-0.016": 0.0,
			"-0.015": 0.0,
			"-0.014": 0.827216812324,
			"-0.013": 1.90605063972,
			"-0.012": 2.25753050605,
			"-0.011": 2.46834251985,
			"-0.01": 3.71547229521,
			"-0.009": 1.89798191878,
			"-0.008": 3.03206347635,
			"-0.007": 5.41001455951,
			"-0.006": 6.25912430136,
			"-0.005": 10.3411587661,
			"-0.004": 21.370109299,
			"-0.003": 28.1424751039,
			"-0.002": 26.8700875864,
			"-0.001": 25.5530389033,
			"0.0": 27.6532055079,
			"0.001": 25.9071889108,
			"0.002": 22.9623436206,
			"0.003": 16.8842697461,
			"0.004": 13.7189836493,
			"0.005": 6.1334752496,
			"0.006": 3.83458140626,
			"0.007": 3.36704665511,
			"0.008": 3.7901557623,
			"0.009": 4.4435043118,
			"0.01": 5.99668777188,
			"0.011": 9.36569214509,
			"0.012": 4.70293026608,
			"0.013": 0.028087074355,
			"0.014": 0.0,
			"0.015": 0.0,
			"0.016": 0.0,
			"0.017": 0.0,
			"0.018": 0.0,
			"0.019": 0.0,
			"0.02": 0.0,
			"0.021": 0.0,
			"0.022": 0.0,
			"0.023": 0.0,
			"0.024": 0.0,
			"0.025": 0.0
		}
	}
}
