{
	 "smiles": "OC1=CC(Cl)=CC(Cl)=C1Cl", 
	 "Tm": 335.15, 
	 "num_atms": 13, 
	 "gaussian": { 
		 "optdone": 1, 
		 "sigma_profile": "yes", 
		 "theory": "DFT", 
		 "functional": "B3LYP", 
		 "basiset": "6-31G**", 
		 "properties": { 
			 "R2extent": 2958.2294, 
			 "electric_dipole_moment_norm": 1.03953243817, 
			 "electric_quadrupole_moment_norm": 7.3585563326, 
			 "total_energy": -1686.2396239, 
			 "HOMO_LUMO_gap": 0.21117, 
			 "cosmo_polarized_energy": -5.41, 
			 "cosmo_cavitation_energy": 22.76, 
			 "cosmo_dispersion_energy": -17.6, 
			 "cosmo_repulsion_energy": 1.42, 
			 "cosmo_total_nonelectrostatic_energy": 6.59, 
			 "SMD_solvation_energy": 3.51 
		},
		"coords": [
			{
				"x": 0.3425930926,
				"y": 0.0497634799,
				"z": 3.564645439,
				"element": "O" 
			},
			{
				"x": 0.1552794289,
				"y": 0.2422717826,
				"z": 2.2408191924,
				"element": "C" 
			},
			{
				"x": 0.574306565,
				"y": -0.7721286099,
				"z": 1.3740129265,
				"element": "C" 
			},
			{
				"x": 0.3983763459,
				"y": -0.6103777909,
				"z": 0.0055895443,
				"element": "C" 
			},
			{
				"x": 0.924562317,
				"y": -1.8833197049,
				"z": -1.0774776929,
				"element": "Cl" 
			},
			{
				"x": -0.1847756156,
				"y": 0.5349600842,
				"z": -0.5352916361,
				"element": "C" 
			},
			{
				"x": -0.6004914141,
				"y": 1.5427549934,
				"z": 0.3337801117,
				"element": "C" 
			},
			{
				"x": -1.3304398472,
				"y": 2.9769789762,
				"z": -0.3406554116,
				"element": "Cl" 
			},
			{
				"x": -0.4361402387,
				"y": 1.4076248756,
				"z": 1.7170864574,
				"element": "C" 
			},
			{
				"x": -0.9444412163,
				"y": 2.6492817332,
				"z": 2.841146357,
				"element": "Cl" 
			},
			{
				"x": 0.0111015444,
				"y": 0.8216551958,
				"z": 4.0493384505,
				"element": "H" 
			},
			{
				"x": 1.0276918115,
				"y": -1.6632511524,
				"z": 1.7897932179,
				"element": "H" 
			},
			{
				"x": -0.3155227733,
				"y": 0.6473861371,
				"z": -1.603486956,
				"element": "H" 
			}
		],
		 "valence_orbital": [ 
			{
				"type": "occ",
				"energy": -0.33027,
				"method": "rhf"
			},
			{
				"type": "occ",
				"energy": -0.32246,
				"method": "rhf"
			},
			{
				"type": "occ",
				"energy": -0.31425,
				"method": "rhf"
			},
			{
				"type": "occ",
				"energy": -0.25936,
				"method": "rhf"
			},
			{
				"type": "occ",
				"energy": -0.24804,
				"method": "rhf"
			},
			{
				"type": "unocc",
				"energy": -0.03687,
				"method": "rhf"
			},
			{
				"type": "unocc",
				"energy": -0.02224,
				"method": "rhf"
			},
			{
				"type": "unocc",
				"energy": -0.02015,
				"method": "rhf"
			},
			{
				"type": "unocc",
				"energy": 0.0234,
				"method": "rhf"
			},
			{
				"type": "unocc",
				"energy": 0.05318,
				"method": "rhf"
			}
		],
		"cosmo_sigma_profile": { 
			"-0.025": 0.0,
			"-0.024": 0.0,
			"-0.023": 0.0,
			"-0.022": 0.0,
			"-0.021": 0.0,
			"-0.02": 0.0,
			"-0.019": 0.0,
			"-0.018": 0.0,
			"-0.017": 0.0,
			"-0.016": 0.437429581922,
			"-0.015": 0.457827483192,
			"-0.014": 0.722598748453,
			"-0.013": 0.773565522996,
			"-0.012": 0.92894659381,
			"-0.011": 1.07635264828,
			"-0.01": 0.985748701853,
			"-0.009": 1.79546606488,
			"-0.008": 3.73445373754,
			"-0.007": 3.88438488589,
			"-0.006": 3.9327768361,
			"-0.005": 4.4932947646,
			"-0.004": 6.25689936385,
			"-0.003": 8.33811366066,
			"-0.002": 11.211326777,
			"-0.001": 17.8371014651,
			"0.0": 27.9694575882,
			"0.001": 25.6769279014,
			"0.002": 19.2188682737,
			"0.003": 21.438994547,
			"0.004": 19.6543981242,
			"0.005": 2.80124358806,
			"0.006": 1.22828419972,
			"0.007": 1.09849628751,
			"0.008": 1.42768762941,
			"0.009": 2.02188039691,
			"0.01": 0.682199747914,
			"0.011": 0.0,
			"0.012": 0.0,
			"0.013": 0.0,
			"0.014": 0.0,
			"0.015": 0.0,
			"0.016": 0.0,
			"0.017": 0.0,
			"0.018": 0.0,
			"0.019": 0.0,
			"0.02": 0.0,
			"0.021": 0.0,
			"0.022": 0.0,
			"0.023": 0.0,
			"0.024": 0.0,
			"0.025": 0.0
		}
	}
}
