{
	 "smiles": "[O-][N+](=O)C1=CC=C(N=C1)N1CCCNCC1", 
	 "Tm": 385.15, 
	 "num_atms": 30, 
	 "gaussian": { 
		 "optdone": 1, 
		 "sigma_profile": "yes", 
		 "theory": "DFT", 
		 "functional": "B3LYP", 
		 "basiset": "6-31G**", 
		 "properties": { 
			 "R2extent": 4983.0504, 
			 "electric_dipole_moment_norm": 8.64854976629, 
			 "electric_quadrupole_moment_norm": 10.2452512936, 
			 "total_energy": -758.841234883, 
			 "HOMO_LUMO_gap": 0.14726, 
			 "cosmo_polarized_energy": -14.99, 
			 "cosmo_cavitation_energy": 31.98, 
			 "cosmo_dispersion_energy": -23.86, 
			 "cosmo_repulsion_energy": 1.84, 
			 "cosmo_total_nonelectrostatic_energy": 9.96, 
			 "SMD_solvation_energy": 4.3 
		},
		"coords": [
			{
				"x": 3.8415329688,
				"y": 2.5780733756,
				"z": -0.4430106146,
				"element": "O" 
			},
			{
				"x": 2.7065489002,
				"y": 2.5935757083,
				"z": -0.9297440507,
				"element": "N" 
			},
			{
				"x": 2.2411065475,
				"y": 3.5329830116,
				"z": -1.5838416482,
				"element": "O" 
			},
			{
				"x": 1.8643710795,
				"y": 1.4356540123,
				"z": -0.7224262727,
				"element": "C" 
			},
			{
				"x": 0.5647781451,
				"y": 1.3985215531,
				"z": -1.2442586719,
				"element": "C" 
			},
			{
				"x": -0.2074750022,
				"y": 0.2796555903,
				"z": -1.0245140736,
				"element": "C" 
			},
			{
				"x": 0.3439512767,
				"y": -0.8079434664,
				"z": -0.2828446444,
				"element": "C" 
			},
			{
				"x": 1.5981817663,
				"y": -0.7425796363,
				"z": 0.2301613954,
				"element": "N" 
			},
			{
				"x": 2.3279734567,
				"y": 0.3446114304,
				"z": 0.0126023318,
				"element": "C" 
			},
			{
				"x": -0.3300253719,
				"y": -1.9700956183,
				"z": -0.043524818,
				"element": "N" 
			},
			{
				"x": 0.2666342299,
				"y": -2.937706507,
				"z": 0.9071256203,
				"element": "C" 
			},
			{
				"x": -0.6444466099,
				"y": -4.1245518459,
				"z": 1.2298467902,
				"element": "C" 
			},
			{
				"x": -1.9428817955,
				"y": -3.7608054337,
				"z": 2.0059264903,
				"element": "C" 
			},
			{
				"x": -2.2863121208,
				"y": -2.3449328353,
				"z": 1.8941801646,
				"element": "N" 
			},
			{
				"x": -2.751203357,
				"y": -1.8950738239,
				"z": 0.5901334756,
				"element": "C" 
			},
			{
				"x": -1.6959595799,
				"y": -2.1929488847,
				"z": -0.4948815656,
				"element": "C" 
			},
			{
				"x": 0.1896900122,
				"y": 2.2496568502,
				"z": -1.7998262013,
				"element": "H" 
			},
			{
				"x": -1.2212102277,
				"y": 0.2540929403,
				"z": -1.4018838152,
				"element": "H" 
			},
			{
				"x": 3.3287327251,
				"y": 0.3675440919,
				"z": 0.433971824,
				"element": "H" 
			},
			{
				"x": 1.2087067771,
				"y": -3.3047729082,
				"z": 0.4866644906,
				"element": "H" 
			},
			{
				"x": 0.5211870644,
				"y": -2.4024284367,
				"z": 1.826046733,
				"element": "H" 
			},
			{
				"x": -0.8804338079,
				"y": -4.6811434615,
				"z": 0.316852782,
				"element": "H" 
			},
			{
				"x": -0.0503193477,
				"y": -4.8143659449,
				"z": 1.8393511157,
				"element": "H" 
			},
			{
				"x": -2.7555759852,
				"y": -4.4362803389,
				"z": 1.6792724134,
				"element": "H" 
			},
			{
				"x": -1.7867609501,
				"y": -3.9557662924,
				"z": 3.0719062391,
				"element": "H" 
			},
			{
				"x": -2.9550227681,
				"y": -2.0871824103,
				"z": 2.611845923,
				"element": "H" 
			},
			{
				"x": -3.7027047459,
				"y": -2.357069469,
				"z": 0.2615358382,
				"element": "H" 
			},
			{
				"x": -2.9195037894,
				"y": -0.8137217806,
				"z": 0.6551295153,
				"element": "H" 
			},
			{
				"x": -1.7839793202,
				"y": -3.2328141725,
				"z": -0.8186022185,
				"element": "H" 
			},
			{
				"x": -1.8961801699,
				"y": -1.5976852973,
				"z": -1.3863945479,
				"element": "H" 
			}
		],
		 "valence_orbital": [ 
			{
				"type": "occ",
				"energy": -0.28794,
				"method": "rhf"
			},
			{
				"type": "occ",
				"energy": -0.2727,
				"method": "rhf"
			},
			{
				"type": "occ",
				"energy": -0.26315,
				"method": "rhf"
			},
			{
				"type": "occ",
				"energy": -0.23615,
				"method": "rhf"
			},
			{
				"type": "occ",
				"energy": -0.21676,
				"method": "rhf"
			},
			{
				"type": "unocc",
				"energy": -0.0695,
				"method": "rhf"
			},
			{
				"type": "unocc",
				"energy": -0.02832,
				"method": "rhf"
			},
			{
				"type": "unocc",
				"energy": 0.02138,
				"method": "rhf"
			},
			{
				"type": "unocc",
				"energy": 0.05653,
				"method": "rhf"
			},
			{
				"type": "unocc",
				"energy": 0.08085,
				"method": "rhf"
			}
		],
		"cosmo_sigma_profile": { 
			"-0.025": 0.0,
			"-0.024": 0.0,
			"-0.023": 0.0,
			"-0.022": 0.0,
			"-0.021": 0.0,
			"-0.02": 0.0,
			"-0.019": 0.0,
			"-0.018": 0.0,
			"-0.017": 0.0,
			"-0.016": 0.0,
			"-0.015": 0.0,
			"-0.014": 0.0,
			"-0.013": 0.0,
			"-0.012": 0.0,
			"-0.011": 0.262850992074,
			"-0.01": 1.5361893807,
			"-0.009": 2.34049244295,
			"-0.008": 3.73690522602,
			"-0.007": 6.8445238307,
			"-0.006": 9.01253427194,
			"-0.005": 11.0729348057,
			"-0.004": 20.990673507,
			"-0.003": 29.2571480308,
			"-0.002": 30.9625934345,
			"-0.001": 27.9822913873,
			"0.0": 21.8903268713,
			"0.001": 14.5442987498,
			"0.002": 10.380172802,
			"0.003": 5.862684054,
			"0.004": 5.55776287496,
			"0.005": 4.93098191224,
			"0.006": 5.83330289992,
			"0.007": 5.54785756767,
			"0.008": 9.89460979347,
			"0.009": 9.87050298149,
			"0.01": 6.02743766163,
			"0.011": 4.91169045072,
			"0.012": 0.995800189852,
			"0.013": 0.867660218725,
			"0.014": 0.701873612443,
			"0.015": 0.0155312381294,
			"0.016": 0.0,
			"0.017": 0.0,
			"0.018": 0.0,
			"0.019": 0.0,
			"0.02": 0.0,
			"0.021": 0.0,
			"0.022": 0.0,
			"0.023": 0.0,
			"0.024": 0.0,
			"0.025": 0.0
		}
	}
}
