{
	 "smiles": "COC1=CC=C(OCC(N)=S)C=C1", 
	 "Tm": 387.15, 
	 "num_atms": 24, 
	 "gaussian": { 
		 "optdone": 1, 
		 "sigma_profile": "yes", 
		 "theory": "DFT", 
		 "functional": "B3LYP", 
		 "basiset": "6-31G**", 
		 "properties": { 
			 "R2extent": 4173.7652, 
			 "electric_dipole_moment_norm": 3.35310925858, 
			 "electric_quadrupole_moment_norm": 21.3243468627, 
			 "total_energy": -952.95691017, 
			 "HOMO_LUMO_gap": 0.17295, 
			 "cosmo_polarized_energy": -15.66, 
			 "cosmo_cavitation_energy": 29.69, 
			 "cosmo_dispersion_energy": -22.0, 
			 "cosmo_repulsion_energy": 1.72, 
			 "cosmo_total_nonelectrostatic_energy": 9.4, 
			 "SMD_solvation_energy": 4.97 
		},
		"coords": [
			{
				"x": 4.043419895,
				"y": 2.2292618924,
				"z": 0.0763231123,
				"element": "C" 
			},
			{
				"x": 4.1135486036,
				"y": 0.8225007686,
				"z": 0.2370304673,
				"element": "O" 
			},
			{
				"x": 2.9514433458,
				"y": 0.1074881342,
				"z": 0.1513050617,
				"element": "C" 
			},
			{
				"x": 1.6904997619,
				"y": 0.6557962742,
				"z": -0.09187462,
				"element": "C" 
			},
			{
				"x": 0.560772618,
				"y": -0.1714511049,
				"z": -0.1625637233,
				"element": "C" 
			},
			{
				"x": 0.6924418993,
				"y": -1.5467290315,
				"z": 0.0189566412,
				"element": "C" 
			},
			{
				"x": -0.3536027103,
				"y": -2.4533749102,
				"z": -0.0406713236,
				"element": "O" 
			},
			{
				"x": -1.6821386069,
				"y": -1.9499665955,
				"z": 0.0266167855,
				"element": "C" 
			},
			{
				"x": -2.2555939087,
				"y": -1.5363163529,
				"z": -1.3271027223,
				"element": "C" 
			},
			{
				"x": -1.5990529372,
				"y": -2.0544077938,
				"z": -2.3714026876,
				"element": "N" 
			},
			{
				"x": -3.6160250444,
				"y": -0.5875321608,
				"z": -1.4295752435,
				"element": "S" 
			},
			{
				"x": 1.9579240621,
				"y": -2.0985670092,
				"z": 0.2620998397,
				"element": "C" 
			},
			{
				"x": 3.0754563487,
				"y": -1.2808066694,
				"z": 0.3249367216,
				"element": "C" 
			},
			{
				"x": 3.4085900923,
				"y": 2.6943012793,
				"z": 0.8420907532,
				"element": "H" 
			},
			{
				"x": 3.6652599075,
				"y": 2.5065482925,
				"z": -0.9166176249,
				"element": "H" 
			},
			{
				"x": 5.0646058202,
				"y": 2.5977204278,
				"z": 0.18578394,
				"element": "H" 
			},
			{
				"x": 1.5623641031,
				"y": 1.7219491739,
				"z": -0.2352412712,
				"element": "H" 
			},
			{
				"x": -0.40330816,
				"y": 0.2795563547,
				"z": -0.3702813587,
				"element": "H" 
			},
			{
				"x": -1.7675508411,
				"y": -1.1157295204,
				"z": 0.7275478964,
				"element": "H" 
			},
			{
				"x": -2.2945047077,
				"y": -2.7747188444,
				"z": 0.4060160767,
				"element": "H" 
			},
			{
				"x": -1.9120458679,
				"y": -1.8516620088,
				"z": -3.3091635775,
				"element": "H" 
			},
			{
				"x": -0.7644518171,
				"y": -2.6046618126,
				"z": -2.2161803245,
				"element": "H" 
			},
			{
				"x": 2.0424554421,
				"y": -3.170945461,
				"z": 0.4056087748,
				"element": "H" 
			},
			{
				"x": 4.0603927018,
				"y": -1.6939533222,
				"z": 0.5158584066,
				"element": "H" 
			}
		],
		 "valence_orbital": [ 
			{
				"type": "occ",
				"energy": -0.30046,
				"method": "rhf"
			},
			{
				"type": "occ",
				"energy": -0.25842,
				"method": "rhf"
			},
			{
				"type": "occ",
				"energy": -0.23483,
				"method": "rhf"
			},
			{
				"type": "occ",
				"energy": -0.21527,
				"method": "rhf"
			},
			{
				"type": "occ",
				"energy": -0.2073,
				"method": "rhf"
			},
			{
				"type": "unocc",
				"energy": -0.03435,
				"method": "rhf"
			},
			{
				"type": "unocc",
				"energy": -0.00962,
				"method": "rhf"
			},
			{
				"type": "unocc",
				"energy": 0.01591,
				"method": "rhf"
			},
			{
				"type": "unocc",
				"energy": 0.07127,
				"method": "rhf"
			},
			{
				"type": "unocc",
				"energy": 0.08384,
				"method": "rhf"
			}
		],
		"cosmo_sigma_profile": { 
			"-0.025": 0.0,
			"-0.024": 0.0,
			"-0.023": 0.0,
			"-0.022": 0.0,
			"-0.021": 0.0,
			"-0.02": 0.0,
			"-0.019": 0.0,
			"-0.018": 0.0,
			"-0.017": 0.0,
			"-0.016": 0.189443423053,
			"-0.015": 1.78981363269,
			"-0.014": 1.36093859981,
			"-0.013": 2.19858928216,
			"-0.012": 2.92591370664,
			"-0.011": 1.36194660373,
			"-0.01": 1.48879707472,
			"-0.009": 1.79052518714,
			"-0.008": 3.91183014141,
			"-0.007": 4.75788132129,
			"-0.006": 13.6775941936,
			"-0.005": 20.5951533409,
			"-0.004": 20.7334694276,
			"-0.003": 17.879348902,
			"-0.002": 12.9709145508,
			"-0.001": 10.4934658531,
			"0.0": 11.0836233588,
			"0.001": 11.833362904,
			"0.002": 10.2438894351,
			"0.003": 13.4918524132,
			"0.004": 16.5890253692,
			"0.005": 14.6500626107,
			"0.006": 6.62709015561,
			"0.007": 6.90637750001,
			"0.008": 7.23715166312,
			"0.009": 9.07667574969,
			"0.01": 5.83027754021,
			"0.011": 4.39179023477,
			"0.012": 2.40630185856,
			"0.013": 0.0860109363327,
			"0.014": 0.0,
			"0.015": 0.0,
			"0.016": 0.0,
			"0.017": 0.0,
			"0.018": 0.0,
			"0.019": 0.0,
			"0.02": 0.0,
			"0.021": 0.0,
			"0.022": 0.0,
			"0.023": 0.0,
			"0.024": 0.0,
			"0.025": 0.0
		}
	}
}
