{
	 "smiles": "OC(=O)C1=CC=C(C=C1)S(=O)(=O)C1CCCC1", 
	 "Tm": 473.15, 
	 "num_atms": 31, 
	 "gaussian": { 
		 "optdone": 1, 
		 "sigma_profile": "yes", 
		 "theory": "DFT", 
		 "functional": "B3LYP", 
		 "basiset": "6-31G**", 
		 "properties": { 
			 "R2extent": 6410.7546, 
			 "electric_dipole_moment_norm": 4.52997694586, 
			 "electric_quadrupole_moment_norm": 16.7040106711, 
			 "total_energy": -1164.76001671, 
			 "HOMO_LUMO_gap": 0.20336, 
			 "cosmo_polarized_energy": -18.13, 
			 "cosmo_cavitation_energy": 35.12, 
			 "cosmo_dispersion_energy": -25.58, 
			 "cosmo_repulsion_energy": 1.94, 
			 "cosmo_total_nonelectrostatic_energy": 11.49, 
			 "SMD_solvation_energy": 5.83 
		},
		"coords": [
			{
				"x": -2.9578607052,
				"y": 4.0430141377,
				"z": 3.8633795804,
				"element": "O" 
			},
			{
				"x": -2.3642291883,
				"y": 4.2214308212,
				"z": 2.6589858267,
				"element": "C" 
			},
			{
				"x": -2.0907399424,
				"y": 5.3215302512,
				"z": 2.2242587608,
				"element": "O" 
			},
			{
				"x": -2.0914194852,
				"y": 2.9388404717,
				"z": 1.9493584241,
				"element": "C" 
			},
			{
				"x": -1.4871781666,
				"y": 3.0086371549,
				"z": 0.6873636514,
				"element": "C" 
			},
			{
				"x": -1.2064664447,
				"y": 1.8416050647,
				"z": -0.0184919384,
				"element": "C" 
			},
			{
				"x": -1.5329711582,
				"y": 0.6098131322,
				"z": 0.552794271,
				"element": "C" 
			},
			{
				"x": -2.1532532036,
				"y": 0.5247538146,
				"z": 1.8016029434,
				"element": "C" 
			},
			{
				"x": -2.4289381506,
				"y": 1.6957687124,
				"z": 2.5036578428,
				"element": "C" 
			},
			{
				"x": -1.1812758022,
				"y": -0.9102993992,
				"z": -0.3601420306,
				"element": "S" 
			},
			{
				"x": -2.2499764157,
				"y": -1.8723012447,
				"z": -0.0393890096,
				"element": "O" 
			},
			{
				"x": -0.9022091518,
				"y": -0.5293864237,
				"z": -1.7573951406,
				"element": "O" 
			},
			{
				"x": 0.3654651038,
				"y": -1.5475845218,
				"z": 0.3851585757,
				"element": "C" 
			},
			{
				"x": 0.6931401903,
				"y": -2.9343278192,
				"z": -0.2466631431,
				"element": "C" 
			},
			{
				"x": 2.1878075307,
				"y": -2.8543359795,
				"z": -0.618656911,
				"element": "C" 
			},
			{
				"x": 2.3955925783,
				"y": -1.374456108,
				"z": -0.9721907292,
				"element": "C" 
			},
			{
				"x": 1.5929200443,
				"y": -0.638560345,
				"z": 0.1144167735,
				"element": "C" 
			},
			{
				"x": -3.0897718746,
				"y": 4.9323729953,
				"z": 4.2312090623,
				"element": "H" 
			},
			{
				"x": -1.2507094474,
				"y": 3.9841454952,
				"z": 0.2765969653,
				"element": "H" 
			},
			{
				"x": -0.7609007276,
				"y": 1.8718245434,
				"z": -1.006783479,
				"element": "H" 
			},
			{
				"x": -2.4359789006,
				"y": -0.4432862765,
				"z": 2.201501009,
				"element": "H" 
			},
			{
				"x": -2.9116049069,
				"y": 1.6528663618,
				"z": 3.4730511555,
				"element": "H" 
			},
			{
				"x": 0.1331652932,
				"y": -1.6260660054,
				"z": 1.4505681767,
				"element": "H" 
			},
			{
				"x": 0.0973397648,
				"y": -3.0895398633,
				"z": -1.1516518761,
				"element": "H" 
			},
			{
				"x": 0.4538329936,
				"y": -3.7511547804,
				"z": 0.4373871684,
				"element": "H" 
			},
			{
				"x": 2.4476019252,
				"y": -3.5361048064,
				"z": -1.4338994539,
				"element": "H" 
			},
			{
				"x": 2.8091160491,
				"y": -3.1232643746,
				"z": 0.2450139039,
				"element": "H" 
			},
			{
				"x": 3.4477624235,
				"y": -1.0749057238,
				"z": -0.992901297,
				"element": "H" 
			},
			{
				"x": 1.9625655532,
				"y": -1.1604252813,
				"z": -1.9553879979,
				"element": "H" 
			},
			{
				"x": 1.321692911,
				"y": 0.3820050475,
				"z": -0.1666605382,
				"element": "H" 
			},
			{
				"x": 2.1795813106,
				"y": -0.5706090506,
				"z": 1.0376094535,
				"element": "H" 
			}
		],
		 "valence_orbital": [ 
			{
				"type": "occ",
				"energy": -0.29564,
				"method": "rhf"
			},
			{
				"type": "occ",
				"energy": -0.29094,
				"method": "rhf"
			},
			{
				"type": "occ",
				"energy": -0.28611,
				"method": "rhf"
			},
			{
				"type": "occ",
				"energy": -0.28036,
				"method": "rhf"
			},
			{
				"type": "occ",
				"energy": -0.27814,
				"method": "rhf"
			},
			{
				"type": "unocc",
				"energy": -0.07478,
				"method": "rhf"
			},
			{
				"type": "unocc",
				"energy": -0.03137,
				"method": "rhf"
			},
			{
				"type": "unocc",
				"energy": 0.02371,
				"method": "rhf"
			},
			{
				"type": "unocc",
				"energy": 0.05047,
				"method": "rhf"
			},
			{
				"type": "unocc",
				"energy": 0.0653,
				"method": "rhf"
			}
		],
		"cosmo_sigma_profile": { 
			"-0.025": 0.0,
			"-0.024": 0.0,
			"-0.023": 0.0,
			"-0.022": 0.0,
			"-0.021": 0.0,
			"-0.02": 0.0,
			"-0.019": 0.16002305835,
			"-0.018": 1.15925407278,
			"-0.017": 0.727475913701,
			"-0.016": 0.964088976822,
			"-0.015": 0.697364731864,
			"-0.014": 0.736565212738,
			"-0.013": 0.780852156404,
			"-0.012": 0.657637625279,
			"-0.011": 0.54632566056,
			"-0.01": 0.727388883867,
			"-0.009": 0.457825171647,
			"-0.008": 3.95626328094,
			"-0.007": 10.5720146892,
			"-0.006": 10.0466813017,
			"-0.005": 12.3057088394,
			"-0.004": 20.5750622755,
			"-0.003": 25.351065774,
			"-0.002": 27.6855916918,
			"-0.001": 30.3167253455,
			"0.0": 30.3191907193,
			"0.001": 22.8331652017,
			"0.002": 9.03236085916,
			"0.003": 6.51527164872,
			"0.004": 6.14058020735,
			"0.005": 5.63266969897,
			"0.006": 5.75825731535,
			"0.007": 4.78834383543,
			"0.008": 3.93715920217,
			"0.009": 5.59214221917,
			"0.01": 7.01526851754,
			"0.011": 12.0853032194,
			"0.012": 8.53504609174,
			"0.013": 0.967592132919,
			"0.014": 0.0,
			"0.015": 0.0,
			"0.016": 0.0,
			"0.017": 0.0,
			"0.018": 0.0,
			"0.019": 0.0,
			"0.02": 0.0,
			"0.021": 0.0,
			"0.022": 0.0,
			"0.023": 0.0,
			"0.024": 0.0,
			"0.025": 0.0
		}
	}
}
