{
	 "smiles": "OC(=O)C1=C(Cl)C(Cl)=CC=C1", 
	 "Tm": 441.15, 
	 "num_atms": 15, 
	 "gaussian": { 
		 "optdone": 1, 
		 "sigma_profile": "yes", 
		 "theory": "DFT", 
		 "functional": "B3LYP", 
		 "basiset": "6-31G**", 
		 "properties": { 
			 "R2extent": 2445.6163, 
			 "electric_dipole_moment_norm": 1.4385431728, 
			 "electric_quadrupole_moment_norm": 10.8622387062, 
			 "total_energy": -1339.99159422, 
			 "HOMO_LUMO_gap": 0.19363, 
			 "cosmo_polarized_energy": -9.25, 
			 "cosmo_cavitation_energy": 23.27, 
			 "cosmo_dispersion_energy": -17.67, 
			 "cosmo_repulsion_energy": 1.42, 
			 "cosmo_total_nonelectrostatic_energy": 7.01, 
			 "SMD_solvation_energy": 4.84 
		},
		"coords": [
			{
				"x": 0.0864849859,
				"y": 1.2072216251,
				"z": 2.3173291654,
				"element": "O" 
			},
			{
				"x": 0.2936710538,
				"y": -0.0614535938,
				"z": 1.919983241,
				"element": "C" 
			},
			{
				"x": 0.4094900714,
				"y": -0.9755035995,
				"z": 2.7128971319,
				"element": "O" 
			},
			{
				"x": 0.3118302882,
				"y": -0.2736957626,
				"z": 0.4338845948,
				"element": "C" 
			},
			{
				"x": 0.5723377957,
				"y": 0.696230486,
				"z": -0.5589112458,
				"element": "C" 
			},
			{
				"x": 0.9965498489,
				"y": 2.3407478445,
				"z": -0.1724695009,
				"element": "Cl" 
			},
			{
				"x": 0.5313512647,
				"y": 0.3135152766,
				"z": -1.9122155904,
				"element": "C" 
			},
			{
				"x": 0.8505750523,
				"y": 1.4616640726,
				"z": -3.1909616862,
				"element": "Cl" 
			},
			{
				"x": 0.2391732184,
				"y": -1.0006511244,
				"z": -2.2779472861,
				"element": "C" 
			},
			{
				"x": -0.0026888809,
				"y": -1.9576032849,
				"z": -1.2968296341,
				"element": "C" 
			},
			{
				"x": 0.0417291612,
				"y": -1.5940682333,
				"z": 0.0425571135,
				"element": "C" 
			},
			{
				"x": 0.0845993009,
				"y": 1.1792073671,
				"z": 3.2893693677,
				"element": "H" 
			},
			{
				"x": 0.2122084149,
				"y": -1.2584095818,
				"z": -3.3307964702,
				"element": "H" 
			},
			{
				"x": -0.2225517504,
				"y": -2.9815568125,
				"z": -1.5803355816,
				"element": "H" 
			},
			{
				"x": -0.131959825,
				"y": -2.3201446791,
				"z": 0.8279463811,
				"element": "H" 
			}
		],
		 "valence_orbital": [ 
			{
				"type": "occ",
				"energy": -0.32686,
				"method": "rhf"
			},
			{
				"type": "occ",
				"energy": -0.30799,
				"method": "rhf"
			},
			{
				"type": "occ",
				"energy": -0.2903,
				"method": "rhf"
			},
			{
				"type": "occ",
				"energy": -0.2727,
				"method": "rhf"
			},
			{
				"type": "occ",
				"energy": -0.25845,
				"method": "rhf"
			},
			{
				"type": "unocc",
				"energy": -0.06482,
				"method": "rhf"
			},
			{
				"type": "unocc",
				"energy": -0.03228,
				"method": "rhf"
			},
			{
				"type": "unocc",
				"energy": -0.00327,
				"method": "rhf"
			},
			{
				"type": "unocc",
				"energy": 0.03341,
				"method": "rhf"
			},
			{
				"type": "unocc",
				"energy": 0.05683,
				"method": "rhf"
			}
		],
		"cosmo_sigma_profile": { 
			"-0.025": 0.0,
			"-0.024": 0.0,
			"-0.023": 0.0,
			"-0.022": 0.0,
			"-0.021": 0.0,
			"-0.02": 0.0,
			"-0.019": 0.446580197663,
			"-0.018": 1.00249417994,
			"-0.017": 0.618606899882,
			"-0.016": 1.03703698081,
			"-0.015": 0.430980680794,
			"-0.014": 0.881274195298,
			"-0.013": 0.850733750918,
			"-0.012": 0.356186239205,
			"-0.011": 0.699717854959,
			"-0.01": 0.454477841314,
			"-0.009": 0.843617266094,
			"-0.008": 4.64600280349,
			"-0.007": 7.228298279,
			"-0.006": 6.82690203516,
			"-0.005": 5.03104246684,
			"-0.004": 7.0529345097,
			"-0.003": 10.3192900827,
			"-0.002": 11.7333611309,
			"-0.001": 17.7276905156,
			"0.0": 22.6657638584,
			"0.001": 19.5378593411,
			"0.002": 15.1065199552,
			"0.003": 13.6312615141,
			"0.004": 15.3434517693,
			"0.005": 6.84627119437,
			"0.006": 3.47894877003,
			"0.007": 3.37276708692,
			"0.008": 2.79853480601,
			"0.009": 2.50669693962,
			"0.01": 2.09248274985,
			"0.011": 4.73852597375,
			"0.012": 1.23665001416,
			"0.013": 0.0,
			"0.014": 0.0,
			"0.015": 0.0,
			"0.016": 0.0,
			"0.017": 0.0,
			"0.018": 0.0,
			"0.019": 0.0,
			"0.02": 0.0,
			"0.021": 0.0,
			"0.022": 0.0,
			"0.023": 0.0,
			"0.024": 0.0,
			"0.025": 0.0
		}
	}
}
