{
	 "smiles": "CCOC(=O)NNC(=O)NC1CCCCC1", 
	 "Tm": 389.15, 
	 "num_atms": 35, 
	 "gaussian": { 
		 "optdone": 1, 
		 "sigma_profile": "yes", 
		 "theory": "DFT", 
		 "functional": "B3LYP", 
		 "basiset": "6-31G**", 
		 "properties": { 
			 "R2extent": 5095.6862, 
			 "electric_dipole_moment_norm": 6.01269571324, 
			 "electric_quadrupole_moment_norm": 12.0539607333, 
			 "total_energy": -782.464322711, 
			 "HOMO_LUMO_gap": 0.29018, 
			 "cosmo_polarized_energy": -18.35, 
			 "cosmo_cavitation_energy": 37.02, 
			 "cosmo_dispersion_energy": -25.16, 
			 "cosmo_repulsion_energy": 2.01, 
			 "cosmo_total_nonelectrostatic_energy": 13.87, 
			 "SMD_solvation_energy": 6.78 
		},
		"coords": [
			{
				"x": 2.7800854374,
				"y": -3.3642960917,
				"z": -1.3911781282,
				"element": "C" 
			},
			{
				"x": 2.9402401638,
				"y": -3.109157281,
				"z": 0.0951779763,
				"element": "C" 
			},
			{
				"x": 2.202793537,
				"y": -1.9069985334,
				"z": 0.4114027438,
				"element": "O" 
			},
			{
				"x": 2.2404432058,
				"y": -1.5489548131,
				"z": 1.7133516976,
				"element": "C" 
			},
			{
				"x": 2.8861461654,
				"y": -2.1020472397,
				"z": 2.5779469376,
				"element": "O" 
			},
			{
				"x": 1.5134732553,
				"y": -0.3839540271,
				"z": 1.9378481156,
				"element": "N" 
			},
			{
				"x": 0.4865122375,
				"y": 0.0029784717,
				"z": 1.0856739391,
				"element": "N" 
			},
			{
				"x": -0.5931296066,
				"y": -0.8869861374,
				"z": 0.9300004262,
				"element": "C" 
			},
			{
				"x": -0.7689757552,
				"y": -1.8234633115,
				"z": 1.6952561009,
				"element": "O" 
			},
			{
				"x": -1.4658803793,
				"y": -0.5738263605,
				"z": -0.0821567781,
				"element": "N" 
			},
			{
				"x": -1.2947369667,
				"y": 0.4043058407,
				"z": -1.1520031004,
				"element": "C" 
			},
			{
				"x": -2.6810726229,
				"y": 0.7902039143,
				"z": -1.7190940149,
				"element": "C" 
			},
			{
				"x": -2.5945847721,
				"y": 1.3730333107,
				"z": -3.1502791377,
				"element": "C" 
			},
			{
				"x": -1.2524387468,
				"y": 2.0775870856,
				"z": -3.3900215997,
				"element": "C" 
			},
			{
				"x": -0.0732901399,
				"y": 1.0800272616,
				"z": -3.2809951684,
				"element": "C" 
			},
			{
				"x": -0.3673630997,
				"y": -0.0706054242,
				"z": -2.2879878655,
				"element": "C" 
			},
			{
				"x": 3.1794808195,
				"y": -2.5317543611,
				"z": -1.9782709965,
				"element": "H" 
			},
			{
				"x": 3.3233476268,
				"y": -4.2722151563,
				"z": -1.6712001107,
				"element": "H" 
			},
			{
				"x": 1.7266857891,
				"y": -3.4999453284,
				"z": -1.6528724336,
				"element": "H" 
			},
			{
				"x": 2.543717659,
				"y": -3.9324377878,
				"z": 0.6967147038,
				"element": "H" 
			},
			{
				"x": 3.9878426148,
				"y": -2.9662566276,
				"z": 0.3772820313,
				"element": "H" 
			},
			{
				"x": 1.3067014423,
				"y": -0.2472329988,
				"z": 2.9186020884,
				"element": "H" 
			},
			{
				"x": 0.8244586917,
				"y": 0.4971325607,
				"z": 0.2727519782,
				"element": "H" 
			},
			{
				"x": -2.1935932911,
				"y": -1.2673319781,
				"z": -0.1853508233,
				"element": "H" 
			},
			{
				"x": -0.8575003396,
				"y": 1.3040133779,
				"z": -0.6991939963,
				"element": "H" 
			},
			{
				"x": -3.320216922,
				"y": -0.1025443797,
				"z": -1.7299983098,
				"element": "H" 
			},
			{
				"x": -3.1580547629,
				"y": 1.5013590809,
				"z": -1.0362208293,
				"element": "H" 
			},
			{
				"x": -2.7069416773,
				"y": 0.5671572396,
				"z": -3.8865676634,
				"element": "H" 
			},
			{
				"x": -3.4298071824,
				"y": 2.0601827778,
				"z": -3.3217924356,
				"element": "H" 
			},
			{
				"x": -1.2441003627,
				"y": 2.5649830085,
				"z": -4.3707944018,
				"element": "H" 
			},
			{
				"x": -1.1344694954,
				"y": 2.8811677689,
				"z": -2.6512964515,
				"element": "H" 
			},
			{
				"x": 0.8316887907,
				"y": 1.6176934174,
				"z": -2.9739160226,
				"element": "H" 
			},
			{
				"x": 0.1463081749,
				"y": 0.6530019782,
				"z": -4.2659423864,
				"element": "H" 
			},
			{
				"x": -0.8606513248,
				"y": -0.9057356577,
				"z": -2.8020074421,
				"element": "H" 
			},
			{
				"x": 0.562781836,
				"y": -0.4776835993,
				"z": -1.8761686429,
				"element": "H" 
			}
		],
		 "valence_orbital": [ 
			{
				"type": "occ",
				"energy": -0.28946,
				"method": "rhf"
			},
			{
				"type": "occ",
				"energy": -0.2753,
				"method": "rhf"
			},
			{
				"type": "occ",
				"energy": -0.26159,
				"method": "rhf"
			},
			{
				"type": "occ",
				"energy": -0.25086,
				"method": "rhf"
			},
			{
				"type": "occ",
				"energy": -0.24544,
				"method": "rhf"
			},
			{
				"type": "unocc",
				"energy": 0.04474,
				"method": "rhf"
			},
			{
				"type": "unocc",
				"energy": 0.05005,
				"method": "rhf"
			},
			{
				"type": "unocc",
				"energy": 0.06122,
				"method": "rhf"
			},
			{
				"type": "unocc",
				"energy": 0.07724,
				"method": "rhf"
			},
			{
				"type": "unocc",
				"energy": 0.09418,
				"method": "rhf"
			}
		],
		"cosmo_sigma_profile": { 
			"-0.025": 0.0,
			"-0.024": 0.0,
			"-0.023": 0.0,
			"-0.022": 0.0,
			"-0.021": 0.0,
			"-0.02": 0.0,
			"-0.019": 0.0,
			"-0.018": 0.0,
			"-0.017": 0.0,
			"-0.016": 0.0,
			"-0.015": 0.102158597227,
			"-0.014": 1.22310403964,
			"-0.013": 1.85198417126,
			"-0.012": 2.53184674789,
			"-0.011": 2.8643962501,
			"-0.01": 2.51769638159,
			"-0.009": 3.95482193589,
			"-0.008": 2.93133462153,
			"-0.007": 3.05562062055,
			"-0.006": 2.93779206248,
			"-0.005": 10.1545518351,
			"-0.004": 18.4091332448,
			"-0.003": 28.5347277816,
			"-0.002": 38.2936008021,
			"-0.001": 35.1763496702,
			"0.0": 35.0401605002,
			"0.001": 25.8641198586,
			"0.002": 10.1078752187,
			"0.003": 8.44900049879,
			"0.004": 7.02297239988,
			"0.005": 4.55741285307,
			"0.006": 5.68524400924,
			"0.007": 4.69619877533,
			"0.008": 3.44719704685,
			"0.009": 3.17920872591,
			"0.01": 1.67032692447,
			"0.011": 3.97644448839,
			"0.012": 6.87203183392,
			"0.013": 5.94264096902,
			"0.014": 5.24901818558,
			"0.015": 0.744784263018,
			"0.016": 0.0,
			"0.017": 0.0,
			"0.018": 0.0,
			"0.019": 0.0,
			"0.02": 0.0,
			"0.021": 0.0,
			"0.022": 0.0,
			"0.023": 0.0,
			"0.024": 0.0,
			"0.025": 0.0
		}
	}
}
