{
	 "smiles": "NC1=CC(Br)=C(F)C=C1", 
	 "Tm": 308.15, 
	 "num_atms": 14, 
	 "gaussian": { 
		 "optdone": 1, 
		 "sigma_profile": "yes", 
		 "theory": "DFT", 
		 "functional": "B3LYP", 
		 "basiset": "6-31G**", 
		 "properties": { 
			 "R2extent": 4235.5022, 
			 "electric_dipole_moment_norm": 3.88679952403, 
			 "electric_quadrupole_moment_norm": 8.25380094441, 
			 "total_energy": -2957.63894953, 
			 "HOMO_LUMO_gap": 0.19211, 
			 "cosmo_polarized_energy": -8.91, 
			 "cosmo_cavitation_energy": 20.9, 
			 "cosmo_dispersion_energy": -15.97, 
			 "cosmo_repulsion_energy": 1.29, 
			 "cosmo_total_nonelectrostatic_energy": 6.22, 
			 "SMD_solvation_energy": 2.96 
		},
		"coords": [
			{
				"x": 1.0302147033,
				"y": -1.0632255435,
				"z": -1.3461372104,
				"element": "N" 
			},
			{
				"x": 0.9652714003,
				"y": -1.0061009674,
				"z": 0.0481965669,
				"element": "C" 
			},
			{
				"x": 1.8429415876,
				"y": -0.1789720049,
				"z": 0.7689741586,
				"element": "C" 
			},
			{
				"x": 1.8175883994,
				"y": -0.1684091706,
				"z": 2.1609991891,
				"element": "C" 
			},
			{
				"x": 3.0066869197,
				"y": 0.9574685181,
				"z": 3.1292000867,
				"element": "Br" 
			},
			{
				"x": 0.9207439533,
				"y": -0.9776820868,
				"z": 2.8540776785,
				"element": "C" 
			},
			{
				"x": 0.8908370486,
				"y": -0.9681631771,
				"z": 4.2000508608,
				"element": "F" 
			},
			{
				"x": 0.046227776,
				"y": -1.8001616175,
				"z": 2.1537132311,
				"element": "C" 
			},
			{
				"x": 0.0656601696,
				"y": -1.8169095774,
				"z": 0.7621312429,
				"element": "C" 
			},
			{
				"x": 1.4185886734,
				"y": -0.2431924005,
				"z": -1.7915247659,
				"element": "H" 
			},
			{
				"x": 0.1797065525,
				"y": -1.3662211675,
				"z": -1.8005534667,
				"element": "H" 
			},
			{
				"x": 2.5513994885,
				"y": 0.4549882397,
				"z": 0.2463156751,
				"element": "H" 
			},
			{
				"x": -0.6457369388,
				"y": -2.4209117633,
				"z": 2.71308486,
				"element": "H" 
			},
			{
				"x": -0.6176297334,
				"y": -2.4669072812,
				"z": 0.2228718934,
				"element": "H" 
			}
		],
		 "valence_orbital": [ 
			{
				"type": "occ",
				"energy": -0.33314,
				"method": "rhf"
			},
			{
				"type": "occ",
				"energy": -0.29609,
				"method": "rhf"
			},
			{
				"type": "occ",
				"energy": -0.28536,
				"method": "rhf"
			},
			{
				"type": "occ",
				"energy": -0.248,
				"method": "rhf"
			},
			{
				"type": "occ",
				"energy": -0.20939,
				"method": "rhf"
			},
			{
				"type": "unocc",
				"energy": -0.01728,
				"method": "rhf"
			},
			{
				"type": "unocc",
				"energy": 0.0057,
				"method": "rhf"
			},
			{
				"type": "unocc",
				"energy": 0.01024,
				"method": "rhf"
			},
			{
				"type": "unocc",
				"energy": 0.0715,
				"method": "rhf"
			},
			{
				"type": "unocc",
				"energy": 0.10469,
				"method": "rhf"
			}
		],
		"cosmo_sigma_profile": { 
			"-0.025": 0.0,
			"-0.024": 0.0,
			"-0.023": 0.0,
			"-0.022": 0.0,
			"-0.021": 0.0,
			"-0.02": 0.0,
			"-0.019": 0.0,
			"-0.018": 0.0,
			"-0.017": 0.0,
			"-0.016": 0.0,
			"-0.015": 0.0,
			"-0.014": 0.0,
			"-0.013": 1.12925064071,
			"-0.012": 3.50631427539,
			"-0.011": 2.27338083204,
			"-0.01": 3.42891451915,
			"-0.009": 3.28257326172,
			"-0.008": 3.88343215157,
			"-0.007": 6.33871967862,
			"-0.006": 6.75605054118,
			"-0.005": 6.77542194009,
			"-0.004": 6.47572127881,
			"-0.003": 6.20452066686,
			"-0.002": 5.78463302514,
			"-0.001": 6.16388576099,
			"0.0": 8.82313259521,
			"0.001": 14.3737181688,
			"0.002": 17.510776046,
			"0.003": 19.0763909752,
			"0.004": 27.0790334308,
			"0.005": 12.6704942437,
			"0.006": 3.23139003931,
			"0.007": 1.05755874146,
			"0.008": 0.68689403129,
			"0.009": 0.917790230763,
			"0.01": 0.776274225352,
			"0.011": 0.447787578688,
			"0.012": 0.585263038363,
			"0.013": 0.596625571166,
			"0.014": 0.550782351225,
			"0.015": 0.050689893376,
			"0.016": 0.0,
			"0.017": 0.0,
			"0.018": 0.0,
			"0.019": 0.0,
			"0.02": 0.0,
			"0.021": 0.0,
			"0.022": 0.0,
			"0.023": 0.0,
			"0.024": 0.0,
			"0.025": 0.0
		}
	}
}
