{
	 "smiles": "CCC(C)(C)CC", 
	 "Tm": 139.15, 
	 "num_atms": 23, 
	 "gaussian": { 
		 "optdone": 1, 
		 "sigma_profile": "yes", 
		 "theory": "DFT", 
		 "functional": "B3LYP", 
		 "basiset": "6-31G**", 
		 "properties": { 
			 "R2extent": 1061.1058, 
			 "electric_dipole_moment_norm": 0.0436926767319, 
			 "electric_quadrupole_moment_norm": 0.319261695166, 
			 "total_energy": -276.411227112, 
			 "HOMO_LUMO_gap": 0.37597, 
			 "cosmo_polarized_energy": -0.67, 
			 "cosmo_cavitation_energy": 22.74, 
			 "cosmo_dispersion_energy": -16.38, 
			 "cosmo_repulsion_energy": 1.36, 
			 "cosmo_total_nonelectrostatic_energy": 7.72, 
			 "SMD_solvation_energy": 4.07 
		},
		"coords": [
			{
				"x": 0.8138446482,
				"y": 0.2949761553,
				"z": 2.0962292302,
				"element": "C" 
			},
			{
				"x": 0.4891032313,
				"y": 0.2096739552,
				"z": 0.5987875832,
				"element": "C" 
			},
			{
				"x": -0.6862049411,
				"y": -0.7189623076,
				"z": 0.1903698992,
				"element": "C" 
			},
			{
				"x": -2.0097573739,
				"y": -0.2363574363,
				"z": 0.8178021821,
				"element": "C" 
			},
			{
				"x": -0.4118147453,
				"y": -2.1644110799,
				"z": 0.6540523659,
				"element": "C" 
			},
			{
				"x": -0.8079284245,
				"y": -0.7478599671,
				"z": -1.35946209,
				"element": "C" 
			},
			{
				"x": -1.1153913897,
				"y": 0.5782812733,
				"z": -2.0672304806,
				"element": "C" 
			},
			{
				"x": 1.6440555428,
				"y": 0.9890543424,
				"z": 2.2647696845,
				"element": "H" 
			},
			{
				"x": -0.037211368,
				"y": 0.6599626858,
				"z": 2.6803338394,
				"element": "H" 
			},
			{
				"x": 1.1113656022,
				"y": -0.6733138019,
				"z": 2.5106111938,
				"element": "H" 
			},
			{
				"x": 0.277759013,
				"y": 1.2231428024,
				"z": 0.2363675884,
				"element": "H" 
			},
			{
				"x": 1.3888158074,
				"y": -0.1220238979,
				"z": 0.0615349325,
				"element": "H" 
			},
			{
				"x": -1.9915185142,
				"y": -0.3252020604,
				"z": 1.9086731279,
				"element": "H" 
			},
			{
				"x": -2.8527319626,
				"y": -0.8366957083,
				"z": 0.456114408,
				"element": "H" 
			},
			{
				"x": -2.2182832641,
				"y": 0.8112368483,
				"z": 0.5766695997,
				"element": "H" 
			},
			{
				"x": -0.3642036814,
				"y": -2.2417044782,
				"z": 1.7446650953,
				"element": "H" 
			},
			{
				"x": 0.5364280965,
				"y": -2.5376274365,
				"z": 0.2492828422,
				"element": "H" 
			},
			{
				"x": -1.2061606896,
				"y": -2.8382612312,
				"z": 0.3131616131,
				"element": "H" 
			},
			{
				"x": 0.1268210983,
				"y": -1.1571690328,
				"z": -1.7673043511,
				"element": "H" 
			},
			{
				"x": -1.5912656935,
				"y": -1.4723919586,
				"z": -1.6212673445,
				"element": "H" 
			},
			{
				"x": -1.1976095221,
				"y": 0.4191506645,
				"z": -3.1476657732,
				"element": "H" 
			},
			{
				"x": -2.0617926873,
				"y": 1.013402201,
				"z": -1.7304746529,
				"element": "H" 
			},
			{
				"x": -0.3306187823,
				"y": 1.3245994684,
				"z": -1.9093204931,
				"element": "H" 
			}
		],
		 "valence_orbital": [ 
			{
				"type": "occ",
				"energy": -0.34411,
				"method": "rhf"
			},
			{
				"type": "occ",
				"energy": -0.32906,
				"method": "rhf"
			},
			{
				"type": "occ",
				"energy": -0.30706,
				"method": "rhf"
			},
			{
				"type": "occ",
				"energy": -0.30107,
				"method": "rhf"
			},
			{
				"type": "occ",
				"energy": -0.29743,
				"method": "rhf"
			},
			{
				"type": "unocc",
				"energy": 0.07854,
				"method": "rhf"
			},
			{
				"type": "unocc",
				"energy": 0.11245,
				"method": "rhf"
			},
			{
				"type": "unocc",
				"energy": 0.12541,
				"method": "rhf"
			},
			{
				"type": "unocc",
				"energy": 0.13017,
				"method": "rhf"
			},
			{
				"type": "unocc",
				"energy": 0.1419,
				"method": "rhf"
			}
		],
		"cosmo_sigma_profile": { 
			"-0.025": 0.0,
			"-0.024": 0.0,
			"-0.023": 0.0,
			"-0.022": 0.0,
			"-0.021": 0.0,
			"-0.02": 0.0,
			"-0.019": 0.0,
			"-0.018": 0.0,
			"-0.017": 0.0,
			"-0.016": 0.0,
			"-0.015": 0.0,
			"-0.014": 0.0,
			"-0.013": 0.0,
			"-0.012": 0.0,
			"-0.011": 0.0,
			"-0.01": 0.0,
			"-0.009": 0.0,
			"-0.008": 0.0,
			"-0.007": 0.0,
			"-0.006": 0.0,
			"-0.005": 0.0,
			"-0.004": 0.0,
			"-0.003": 3.05419901858,
			"-0.002": 26.6951218628,
			"-0.001": 37.6399391323,
			"0.0": 37.4619525112,
			"0.001": 39.4458146903,
			"0.002": 26.9389536536,
			"0.003": 2.49016322826,
			"0.004": 0.0,
			"0.005": 0.0,
			"0.006": 0.0,
			"0.007": 0.0,
			"0.008": 0.0,
			"0.009": 0.0,
			"0.01": 0.0,
			"0.011": 0.0,
			"0.012": 0.0,
			"0.013": 0.0,
			"0.014": 0.0,
			"0.015": 0.0,
			"0.016": 0.0,
			"0.017": 0.0,
			"0.018": 0.0,
			"0.019": 0.0,
			"0.02": 0.0,
			"0.021": 0.0,
			"0.022": 0.0,
			"0.023": 0.0,
			"0.024": 0.0,
			"0.025": 0.0
		}
	}
}
