{
	 "smiles": "CC12CC1(C)C(=O)N(C2=O)C1=CC(Cl)=CC(Cl)=C1", 
	 "Tm": 439.15, 
	 "num_atms": 29, 
	 "gaussian": { 
		 "optdone": 1, 
		 "sigma_profile": "yes", 
		 "theory": "DFT", 
		 "functional": "B3LYP", 
		 "basiset": "6-31G**", 
		 "properties": { 
			 "R2extent": 8272.0968, 
			 "electric_dipole_moment_norm": 4.55715810676, 
			 "electric_quadrupole_moment_norm": 8.40703825434, 
			 "total_energy": -1627.60720897, 
			 "HOMO_LUMO_gap": 0.20987, 
			 "cosmo_polarized_energy": -11.7, 
			 "cosmo_cavitation_energy": 36.68, 
			 "cosmo_dispersion_energy": -25.82, 
			 "cosmo_repulsion_energy": 2.0, 
			 "cosmo_total_nonelectrostatic_energy": 12.87, 
			 "SMD_solvation_energy": 6.92 
		},
		"coords": [
			{
				"x": 1.3225113424,
				"y": 2.2285168885,
				"z": -1.0797747367,
				"element": "C" 
			},
			{
				"x": 0.2769142964,
				"y": 1.2841054379,
				"z": -0.5361534129,
				"element": "C" 
			},
			{
				"x": -1.2107978821,
				"y": 1.5541820159,
				"z": -0.6732088345,
				"element": "C" 
			},
			{
				"x": -0.5943663328,
				"y": 0.3421947708,
				"z": -1.3476175462,
				"element": "C" 
			},
			{
				"x": -0.5763463739,
				"y": 0.1771100188,
				"z": -2.8488202885,
				"element": "C" 
			},
			{
				"x": -0.7284580421,
				"y": -0.9090688522,
				"z": -0.5225422833,
				"element": "C" 
			},
			{
				"x": -1.2701803326,
				"y": -1.940055783,
				"z": -0.8592368341,
				"element": "O" 
			},
			{
				"x": -0.0885677609,
				"y": -0.685575728,
				"z": 0.7220942038,
				"element": "N" 
			},
			{
				"x": 0.6099904783,
				"y": 0.549351455,
				"z": 0.7333144305,
				"element": "C" 
			},
			{
				"x": 1.3514615228,
				"y": 0.9237130176,
				"z": 1.615422323,
				"element": "O" 
			},
			{
				"x": -0.0849612904,
				"y": -1.6088303292,
				"z": 1.8089550327,
				"element": "C" 
			},
			{
				"x": -0.1191090518,
				"y": -1.1206321553,
				"z": 3.121315212,
				"element": "C" 
			},
			{
				"x": -0.1148321817,
				"y": -2.0314410035,
				"z": 4.1730779774,
				"element": "C" 
			},
			{
				"x": -0.1537113394,
				"y": -1.4277903536,
				"z": 5.820580616,
				"element": "Cl" 
			},
			{
				"x": -0.0884554896,
				"y": -3.4089823386,
				"z": 3.9617320582,
				"element": "C" 
			},
			{
				"x": -0.0593126271,
				"y": -3.859408006,
				"z": 2.6437429725,
				"element": "C" 
			},
			{
				"x": -0.0230304333,
				"y": -5.5877326549,
				"z": 2.3409926294,
				"element": "Cl" 
			},
			{
				"x": -0.0506082889,
				"y": -2.9859720515,
				"z": 1.5590504842,
				"element": "C" 
			},
			{
				"x": 1.5716602893,
				"y": 2.9803822244,
				"z": -0.325978984,
				"element": "H" 
			},
			{
				"x": 0.9612789519,
				"y": 2.7424154812,
				"z": -1.9742163838,
				"element": "H" 
			},
			{
				"x": 2.2429592796,
				"y": 1.6953154857,
				"z": -1.3370837643,
				"element": "H" 
			},
			{
				"x": -1.8674460476,
				"y": 1.4226794877,
				"z": 0.1819959234,
				"element": "H" 
			},
			{
				"x": -1.4850518901,
				"y": 2.3747529567,
				"z": -1.3305911367,
				"element": "H" 
			},
			{
				"x": 0.2757018833,
				"y": -0.4296360075,
				"z": -3.1708417501,
				"element": "H" 
			},
			{
				"x": -1.4889878037,
				"y": -0.3267534665,
				"z": -3.1785431137,
				"element": "H" 
			},
			{
				"x": -0.5168481366,
				"y": 1.1465603273,
				"z": -3.3500856959,
				"element": "H" 
			},
			{
				"x": -0.1280160919,
				"y": -0.0582718327,
				"z": 3.318776572,
				"element": "H" 
			},
			{
				"x": -0.0896163672,
				"y": -4.1035602437,
				"z": 4.7920153751,
				"element": "H" 
			},
			{
				"x": -0.0389742804,
				"y": -3.3650687615,
				"z": 0.5480289543,
				"element": "H" 
			}
		],
		 "valence_orbital": [ 
			{
				"type": "occ",
				"energy": -0.30079,
				"method": "rhf"
			},
			{
				"type": "occ",
				"energy": -0.28891,
				"method": "rhf"
			},
			{
				"type": "occ",
				"energy": -0.27109,
				"method": "rhf"
			},
			{
				"type": "occ",
				"energy": -0.25295,
				"method": "rhf"
			},
			{
				"type": "occ",
				"energy": -0.25195,
				"method": "rhf"
			},
			{
				"type": "unocc",
				"energy": -0.04208,
				"method": "rhf"
			},
			{
				"type": "unocc",
				"energy": -0.03639,
				"method": "rhf"
			},
			{
				"type": "unocc",
				"energy": -0.02425,
				"method": "rhf"
			},
			{
				"type": "unocc",
				"energy": 0.00487,
				"method": "rhf"
			},
			{
				"type": "unocc",
				"energy": 0.02791,
				"method": "rhf"
			}
		],
		"cosmo_sigma_profile": { 
			"-0.025": 0.0,
			"-0.024": 0.0,
			"-0.023": 0.0,
			"-0.022": 0.0,
			"-0.021": 0.0,
			"-0.02": 0.0,
			"-0.019": 0.0,
			"-0.018": 0.0,
			"-0.017": 0.0,
			"-0.016": 0.0,
			"-0.015": 0.0,
			"-0.014": 0.0,
			"-0.013": 0.0,
			"-0.012": 0.0,
			"-0.011": 0.0,
			"-0.01": 0.0,
			"-0.009": 0.439196291378,
			"-0.008": 3.02762814456,
			"-0.007": 11.3619467081,
			"-0.006": 11.8548030528,
			"-0.005": 18.3797271869,
			"-0.004": 21.281196307,
			"-0.003": 20.9604579691,
			"-0.002": 24.6804198436,
			"-0.001": 29.6659910099,
			"0.0": 33.3501355751,
			"0.001": 31.8791245809,
			"0.002": 15.0726444952,
			"0.003": 18.9281317587,
			"0.004": 22.566833129,
			"0.005": 5.45674453669,
			"0.006": 3.32084861661,
			"0.007": 3.07828384912,
			"0.008": 3.7606883272,
			"0.009": 4.05351946351,
			"0.01": 5.06314153784,
			"0.011": 7.44289342423,
			"0.012": 1.53496623145,
			"0.013": 0.0,
			"0.014": 0.0,
			"0.015": 0.0,
			"0.016": 0.0,
			"0.017": 0.0,
			"0.018": 0.0,
			"0.019": 0.0,
			"0.02": 0.0,
			"0.021": 0.0,
			"0.022": 0.0,
			"0.023": 0.0,
			"0.024": 0.0,
			"0.025": 0.0
		}
	}
}
