{
	 "smiles": "OC(=O)C=C1CCOCC1", 
	 "Tm": 373.15, 
	 "num_atms": 20, 
	 "gaussian": { 
		 "optdone": 1, 
		 "sigma_profile": "yes", 
		 "theory": "DFT", 
		 "functional": "B3LYP", 
		 "basiset": "6-31G**", 
		 "properties": { 
			 "R2extent": 1798.7005, 
			 "electric_dipole_moment_norm": 1.4771693234, 
			 "electric_quadrupole_moment_norm": 2.11480352988, 
			 "total_energy": -498.43642858, 
			 "HOMO_LUMO_gap": 0.20424, 
			 "cosmo_polarized_energy": -10.06, 
			 "cosmo_cavitation_energy": 22.83, 
			 "cosmo_dispersion_energy": -17.17, 
			 "cosmo_repulsion_energy": 1.41, 
			 "cosmo_total_nonelectrostatic_energy": 7.07, 
			 "SMD_solvation_energy": 4.9 
		},
		"coords": [
			{
				"x": 2.5551178537,
				"y": 1.8030051143,
				"z": -2.2875112079,
				"element": "O" 
			},
			{
				"x": 1.3222083513,
				"y": 1.3446842013,
				"z": -1.9372548845,
				"element": "C" 
			},
			{
				"x": 0.310491144,
				"y": 1.8184180161,
				"z": -2.4260004806,
				"element": "O" 
			},
			{
				"x": 1.4389404548,
				"y": 0.2634992122,
				"z": -0.9421370806,
				"element": "C" 
			},
			{
				"x": 0.4177722877,
				"y": -0.427810484,
				"z": -0.3971332068,
				"element": "C" 
			},
			{
				"x": -1.0499475533,
				"y": -0.208872125,
				"z": -0.6629862738,
				"element": "C" 
			},
			{
				"x": -1.7974065517,
				"y": -0.0329415507,
				"z": 0.6738946204,
				"element": "C" 
			},
			{
				"x": -1.5573470496,
				"y": -1.1145919402,
				"z": 1.5630521284,
				"element": "O" 
			},
			{
				"x": -0.1841060606,
				"y": -1.2328332108,
				"z": 1.8902367156,
				"element": "C" 
			},
			{
				"x": 0.6707430587,
				"y": -1.5000217745,
				"z": 0.6341684779,
				"element": "C" 
			},
			{
				"x": 2.3966205958,
				"y": 2.5058238025,
				"z": -2.9392509738,
				"element": "H" 
			},
			{
				"x": 2.4579912249,
				"y": 0.0216694979,
				"z": -0.6540187719,
				"element": "H" 
			},
			{
				"x": -1.2146013247,
				"y": 0.6461619168,
				"z": -1.3182984378,
				"element": "H" 
			},
			{
				"x": -1.4514364291,
				"y": -1.1054039436,
				"z": -1.1554063832,
				"element": "H" 
			},
			{
				"x": -1.4973195068,
				"y": 0.9184160718,
				"z": 1.1432979193,
				"element": "H" 
			},
			{
				"x": -2.8775024924,
				"y": -0.0043313119,
				"z": 0.5070042016,
				"element": "H" 
			},
			{
				"x": -0.1008720648,
				"y": -2.062866458,
				"z": 2.597588423,
				"element": "H" 
			},
			{
				"x": 0.1724954919,
				"y": -0.3169317926,
				"z": 2.3907671905,
				"element": "H" 
			},
			{
				"x": 1.7311024388,
				"y": -1.5615924095,
				"z": 0.9008441773,
				"element": "H" 
			},
			{
				"x": 0.3675561315,
				"y": -2.4731808321,
				"z": 0.2247438468,
				"element": "H" 
			}
		],
		 "valence_orbital": [ 
			{
				"type": "occ",
				"energy": -0.31521,
				"method": "rhf"
			},
			{
				"type": "occ",
				"energy": -0.31218,
				"method": "rhf"
			},
			{
				"type": "occ",
				"energy": -0.27921,
				"method": "rhf"
			},
			{
				"type": "occ",
				"energy": -0.26735,
				"method": "rhf"
			},
			{
				"type": "occ",
				"energy": -0.24838,
				"method": "rhf"
			},
			{
				"type": "unocc",
				"energy": -0.04414,
				"method": "rhf"
			},
			{
				"type": "unocc",
				"energy": 0.08259,
				"method": "rhf"
			},
			{
				"type": "unocc",
				"energy": 0.08743,
				"method": "rhf"
			},
			{
				"type": "unocc",
				"energy": 0.10191,
				"method": "rhf"
			},
			{
				"type": "unocc",
				"energy": 0.11113,
				"method": "rhf"
			}
		],
		"cosmo_sigma_profile": { 
			"-0.025": 0.0,
			"-0.024": 0.0,
			"-0.023": 0.0,
			"-0.022": 0.0,
			"-0.021": 0.0,
			"-0.02": 0.0,
			"-0.019": 0.0,
			"-0.018": 0.123930625732,
			"-0.017": 1.08405582946,
			"-0.016": 0.742783173116,
			"-0.015": 0.661796608603,
			"-0.014": 0.827496282746,
			"-0.013": 0.675012942842,
			"-0.012": 0.629929414179,
			"-0.011": 0.579704486457,
			"-0.01": 1.15561216441,
			"-0.009": 0.713271300383,
			"-0.008": 0.330152456171,
			"-0.007": 0.813317241955,
			"-0.006": 3.06771523325,
			"-0.005": 13.6624211579,
			"-0.004": 22.4185734522,
			"-0.003": 23.3931675303,
			"-0.002": 16.5446185846,
			"-0.001": 13.8093260033,
			"0.0": 10.0440349445,
			"0.001": 11.6637969727,
			"0.002": 8.89206974801,
			"0.003": 6.4340293326,
			"0.004": 3.78435121994,
			"0.005": 3.70545549194,
			"0.006": 4.76130468058,
			"0.007": 4.07436775901,
			"0.008": 3.5404282126,
			"0.009": 4.89799594437,
			"0.01": 3.79416242949,
			"0.011": 3.96907806623,
			"0.012": 4.92867089854,
			"0.013": 2.97134179745,
			"0.014": 0.18593144745,
			"0.015": 0.0,
			"0.016": 0.0,
			"0.017": 0.0,
			"0.018": 0.0,
			"0.019": 0.0,
			"0.02": 0.0,
			"0.021": 0.0,
			"0.022": 0.0,
			"0.023": 0.0,
			"0.024": 0.0,
			"0.025": 0.0
		}
	}
}
