{
	 "smiles": "COC(=O)C1=C(N)SC=C1C1CC1", 
	 "Tm": 346.15, 
	 "num_atms": 24, 
	 "gaussian": { 
		 "optdone": 1, 
		 "sigma_profile": "yes", 
		 "theory": "DFT", 
		 "functional": "B3LYP", 
		 "basiset": "6-31G**", 
		 "properties": { 
			 "R2extent": 2997.2756, 
			 "electric_dipole_moment_norm": 2.88026076944, 
			 "electric_quadrupole_moment_norm": 12.3368725064, 
			 "total_energy": -952.943602778, 
			 "HOMO_LUMO_gap": 0.17853, 
			 "cosmo_polarized_energy": -11.51, 
			 "cosmo_cavitation_energy": 28.8, 
			 "cosmo_dispersion_energy": -21.49, 
			 "cosmo_repulsion_energy": 1.67, 
			 "cosmo_total_nonelectrostatic_energy": 8.97, 
			 "SMD_solvation_energy": 5.75 
		},
		"coords": [
			{
				"x": 1.9650909727,
				"y": 2.9838055985,
				"z": 1.5142958972,
				"element": "C" 
			},
			{
				"x": 1.7203222385,
				"y": 1.5829834253,
				"z": 1.3205144254,
				"element": "O" 
			},
			{
				"x": 0.4224740015,
				"y": 1.2617499671,
				"z": 0.9910682078,
				"element": "C" 
			},
			{
				"x": -0.4219372619,
				"y": 2.1306444542,
				"z": 0.8701005462,
				"element": "O" 
			},
			{
				"x": 0.219530019,
				"y": -0.1771587153,
				"z": 0.8186477486,
				"element": "C" 
			},
			{
				"x": 1.1873262503,
				"y": -1.1538835363,
				"z": 1.0525852156,
				"element": "C" 
			},
			{
				"x": 2.4612911012,
				"y": -1.0165632355,
				"z": 1.5318836891,
				"element": "N" 
			},
			{
				"x": 0.5626406026,
				"y": -2.7555318484,
				"z": 0.7358091558,
				"element": "S" 
			},
			{
				"x": -0.998890532,
				"y": -2.1043609049,
				"z": 0.282877574,
				"element": "C" 
			},
			{
				"x": -1.0458301397,
				"y": -0.7480339487,
				"z": 0.3683423816,
				"element": "C" 
			},
			{
				"x": -2.2447746851,
				"y": 0.0638927358,
				"z": 0.0179696638,
				"element": "C" 
			},
			{
				"x": -3.3951242583,
				"y": -0.5110677015,
				"z": -0.7714766074,
				"element": "C" 
			},
			{
				"x": -2.4830121939,
				"y": 0.5038070278,
				"z": -1.4133885866,
				"element": "C" 
			},
			{
				"x": 1.7564659344,
				"y": 3.5434612107,
				"z": 0.5992290643,
				"element": "H" 
			},
			{
				"x": 3.0198221932,
				"y": 3.0655401608,
				"z": 1.7794348918,
				"element": "H" 
			},
			{
				"x": 1.3374390645,
				"y": 3.3784901708,
				"z": 2.316836287,
				"element": "H" 
			},
			{
				"x": 2.8209984206,
				"y": -0.0719924877,
				"z": 1.5123909838,
				"element": "H" 
			},
			{
				"x": 3.1189515924,
				"y": -1.7562124215,
				"z": 1.3382885547,
				"element": "H" 
			},
			{
				"x": -1.7863530356,
				"y": -2.7848348096,
				"z": -0.0033676071,
				"element": "H" 
			},
			{
				"x": -2.4985883933,
				"y": 0.8138851489,
				"z": 0.7595300388,
				"element": "H" 
			},
			{
				"x": -4.3977854655,
				"y": -0.2037742062,
				"z": -0.4900755895,
				"element": "H" 
			},
			{
				"x": -3.3327571415,
				"y": -1.5356910166,
				"z": -1.1246836604,
				"element": "H" 
			},
			{
				"x": -1.7888888391,
				"y": 0.1450376225,
				"z": -2.1674856513,
				"element": "H" 
			},
			{
				"x": -2.8466104451,
				"y": 1.5134073098,
				"z": -1.5770266231,
				"element": "H" 
			}
		],
		 "valence_orbital": [ 
			{
				"type": "occ",
				"energy": -0.28766,
				"method": "rhf"
			},
			{
				"type": "occ",
				"energy": -0.28727,
				"method": "rhf"
			},
			{
				"type": "occ",
				"energy": -0.26197,
				"method": "rhf"
			},
			{
				"type": "occ",
				"energy": -0.23921,
				"method": "rhf"
			},
			{
				"type": "occ",
				"energy": -0.19655,
				"method": "rhf"
			},
			{
				"type": "unocc",
				"energy": -0.01802,
				"method": "rhf"
			},
			{
				"type": "unocc",
				"energy": 0.0137,
				"method": "rhf"
			},
			{
				"type": "unocc",
				"energy": 0.02121,
				"method": "rhf"
			},
			{
				"type": "unocc",
				"energy": 0.08294,
				"method": "rhf"
			},
			{
				"type": "unocc",
				"energy": 0.10239,
				"method": "rhf"
			}
		],
		"cosmo_sigma_profile": { 
			"-0.025": 0.0,
			"-0.024": 0.0,
			"-0.023": 0.0,
			"-0.022": 0.0,
			"-0.021": 0.0,
			"-0.02": 0.0,
			"-0.019": 0.0,
			"-0.018": 0.0,
			"-0.017": 0.0,
			"-0.016": 0.0,
			"-0.015": 0.404114639795,
			"-0.014": 1.3710864462,
			"-0.013": 1.36613208906,
			"-0.012": 1.01266813406,
			"-0.011": 1.50724153642,
			"-0.01": 3.14878774252,
			"-0.009": 1.75533036403,
			"-0.008": 2.30232586759,
			"-0.007": 4.48533879254,
			"-0.006": 6.87270241043,
			"-0.005": 11.6332050992,
			"-0.004": 17.7016509518,
			"-0.003": 21.3438538253,
			"-0.002": 16.7767652874,
			"-0.001": 15.0166932256,
			"0.0": 17.3419641245,
			"0.001": 17.101745724,
			"0.002": 17.2192905058,
			"0.003": 18.8238767268,
			"0.004": 17.4726447697,
			"0.005": 12.0077833219,
			"0.006": 6.12320452144,
			"0.007": 2.75396985989,
			"0.008": 2.18648283132,
			"0.009": 2.76134022348,
			"0.01": 2.87295773264,
			"0.011": 2.33426275299,
			"0.012": 2.81626447458,
			"0.013": 2.07049770524,
			"0.014": 0.000288221814808,
			"0.015": 0.0,
			"0.016": 0.0,
			"0.017": 0.0,
			"0.018": 0.0,
			"0.019": 0.0,
			"0.02": 0.0,
			"0.021": 0.0,
			"0.022": 0.0,
			"0.023": 0.0,
			"0.024": 0.0,
			"0.025": 0.0
		}
	}
}
