{
	 "smiles": "COC1=C(OCC2CC2)C=C(C=O)C=C1", 
	 "Tm": 342.15, 
	 "num_atms": 29, 
	 "gaussian": { 
		 "optdone": 1, 
		 "sigma_profile": "yes", 
		 "theory": "DFT", 
		 "functional": "B3LYP", 
		 "basiset": "6-31G**", 
		 "properties": { 
			 "R2extent": 5104.8153, 
			 "electric_dipole_moment_norm": 4.46524883741, 
			 "electric_quadrupole_moment_norm": 25.5265000917, 
			 "total_energy": -691.321220248, 
			 "HOMO_LUMO_gap": 0.17577, 
			 "cosmo_polarized_energy": -11.39, 
			 "cosmo_cavitation_energy": 32.95, 
			 "cosmo_dispersion_energy": -23.03, 
			 "cosmo_repulsion_energy": 1.82, 
			 "cosmo_total_nonelectrostatic_energy": 11.74, 
			 "SMD_solvation_energy": 7.27 
		},
		"coords": [
			{
				"x": -1.8148628431,
				"y": 2.0176729537,
				"z": -0.3258431928,
				"element": "C" 
			},
			{
				"x": -0.6000014479,
				"y": 1.2844091266,
				"z": -0.2273185381,
				"element": "O" 
			},
			{
				"x": 0.1519041237,
				"y": 1.4208847304,
				"z": 0.894719529,
				"element": "C" 
			},
			{
				"x": 1.3673355656,
				"y": 0.6922498916,
				"z": 0.9142193709,
				"element": "C" 
			},
			{
				"x": 1.7591487537,
				"y": -0.0514205316,
				"z": -0.1694641909,
				"element": "O" 
			},
			{
				"x": 1.0534411516,
				"y": -1.28679207,
				"z": -0.3783960382,
				"element": "C" 
			},
			{
				"x": 1.5820254425,
				"y": -1.94800194,
				"z": -1.6306098226,
				"element": "C" 
			},
			{
				"x": 1.9712067679,
				"y": -1.1314035696,
				"z": -2.835599556,
				"element": "C" 
			},
			{
				"x": 3.0330203349,
				"y": -1.8393844839,
				"z": -2.0235431331,
				"element": "C" 
			},
			{
				"x": 2.2038934082,
				"y": 0.7923181432,
				"z": 2.016446651,
				"element": "C" 
			},
			{
				"x": 1.86295443,
				"y": 1.6014831991,
				"z": 3.1122880669,
				"element": "C" 
			},
			{
				"x": 2.7688515771,
				"y": 1.6971116052,
				"z": 4.2720484109,
				"element": "C" 
			},
			{
				"x": 2.5547151873,
				"y": 2.3634274482,
				"z": 5.2690994209,
				"element": "O" 
			},
			{
				"x": 0.6558110296,
				"y": 2.3096061521,
				"z": 3.0912287836,
				"element": "C" 
			},
			{
				"x": -0.1943489248,
				"y": 2.2222618836,
				"z": 1.9934992494,
				"element": "C" 
			},
			{
				"x": -2.5257985241,
				"y": 1.727268972,
				"z": 0.4573441093,
				"element": "H" 
			},
			{
				"x": -2.2327673964,
				"y": 1.7707969684,
				"z": -1.3024038424,
				"element": "H" 
			},
			{
				"x": -1.6357265756,
				"y": 3.0980753034,
				"z": -0.2702162258,
				"element": "H" 
			},
			{
				"x": -0.0205227914,
				"y": -1.0871096792,
				"z": -0.4760036494,
				"element": "H" 
			},
			{
				"x": 1.2065096902,
				"y": -1.9377593899,
				"z": 0.4955486915,
				"element": "H" 
			},
			{
				"x": 1.0958005742,
				"y": -2.9023784651,
				"z": -1.8250575563,
				"element": "H" 
			},
			{
				"x": 1.9144741679,
				"y": -0.0520978263,
				"z": -2.7409457953,
				"element": "H" 
			},
			{
				"x": 1.7254551969,
				"y": -1.5179203833,
				"z": -3.8202753158,
				"element": "H" 
			},
			{
				"x": 3.5161985854,
				"y": -2.7139015729,
				"z": -2.4490512753,
				"element": "H" 
			},
			{
				"x": 3.6731577039,
				"y": -1.2217830722,
				"z": -1.4025179368,
				"element": "H" 
			},
			{
				"x": 3.1373829121,
				"y": 0.2356921777,
				"z": 2.0053096037,
				"element": "H" 
			},
			{
				"x": 3.7022077757,
				"y": 1.0969630857,
				"z": 4.178503586,
				"element": "H" 
			},
			{
				"x": 0.4016559982,
				"y": 2.9288025027,
				"z": 3.9453713036,
				"element": "H" 
			},
			{
				"x": -1.1217218734,
				"y": 2.7826288407,
				"z": 1.989019292,
				"element": "H" 
			}
		],
		 "valence_orbital": [ 
			{
				"type": "occ",
				"energy": -0.28723,
				"method": "rhf"
			},
			{
				"type": "occ",
				"energy": -0.26839,
				"method": "rhf"
			},
			{
				"type": "occ",
				"energy": -0.257,
				"method": "rhf"
			},
			{
				"type": "occ",
				"energy": -0.24691,
				"method": "rhf"
			},
			{
				"type": "occ",
				"energy": -0.22855,
				"method": "rhf"
			},
			{
				"type": "unocc",
				"energy": -0.05278,
				"method": "rhf"
			},
			{
				"type": "unocc",
				"energy": -0.00967,
				"method": "rhf"
			},
			{
				"type": "unocc",
				"energy": 0.04988,
				"method": "rhf"
			},
			{
				"type": "unocc",
				"energy": 0.07776,
				"method": "rhf"
			},
			{
				"type": "unocc",
				"energy": 0.08833,
				"method": "rhf"
			}
		],
		"cosmo_sigma_profile": { 
			"-0.025": 0.0,
			"-0.024": 0.0,
			"-0.023": 0.0,
			"-0.022": 0.0,
			"-0.021": 0.0,
			"-0.02": 0.0,
			"-0.019": 0.0,
			"-0.018": 0.0,
			"-0.017": 0.0,
			"-0.016": 0.0,
			"-0.015": 0.0,
			"-0.014": 0.0,
			"-0.013": 0.0,
			"-0.012": 0.0,
			"-0.011": 0.0,
			"-0.01": 0.0,
			"-0.009": 0.0,
			"-0.008": 0.792147033069,
			"-0.007": 6.88562976472,
			"-0.006": 15.6184994883,
			"-0.005": 17.5795927125,
			"-0.004": 25.2452934325,
			"-0.003": 26.1646624613,
			"-0.002": 21.7142356462,
			"-0.001": 18.7328965669,
			"0.0": 17.5640913567,
			"0.001": 19.2863545518,
			"0.002": 19.4629954386,
			"0.003": 22.1494326172,
			"0.004": 11.7895420682,
			"0.005": 8.61944886232,
			"0.006": 4.66062713641,
			"0.007": 5.09460601171,
			"0.008": 4.05207920714,
			"0.009": 3.94636243529,
			"0.01": 2.10972554607,
			"0.011": 3.88177025206,
			"0.012": 4.01780441534,
			"0.013": 1.61561113615,
			"0.014": 0.135268298565,
			"0.015": 0.0,
			"0.016": 0.0,
			"0.017": 0.0,
			"0.018": 0.0,
			"0.019": 0.0,
			"0.02": 0.0,
			"0.021": 0.0,
			"0.022": 0.0,
			"0.023": 0.0,
			"0.024": 0.0,
			"0.025": 0.0
		}
	}
}
