{
	 "smiles": "OC(=O)C1=CC(=NN1C1=CC=CC=C1)C1=CC=C(Cl)C=C1", 
	 "Tm": 488.15, 
	 "num_atms": 32, 
	 "gaussian": { 
		 "optdone": 1, 
		 "sigma_profile": "yes", 
		 "theory": "DFT", 
		 "functional": "B3LYP", 
		 "basiset": "6-31G**", 
		 "properties": { 
			 "R2extent": 9812.2106, 
			 "electric_dipole_moment_norm": 4.14737796807, 
			 "electric_quadrupole_moment_norm": 11.3547490805, 
			 "total_energy": -1336.47542495, 
			 "HOMO_LUMO_gap": 0.16577, 
			 "cosmo_polarized_energy": -13.94, 
			 "cosmo_cavitation_energy": 39.67, 
			 "cosmo_dispersion_energy": -28.38, 
			 "cosmo_repulsion_energy": 2.16, 
			 "cosmo_total_nonelectrostatic_energy": 13.46, 
			 "SMD_solvation_energy": 6.8 
		},
		"coords": [
			{
				"x": -2.3014057665,
				"y": -3.4973062198,
				"z": -2.0401432595,
				"element": "O" 
			},
			{
				"x": -1.087202308,
				"y": -3.050857171,
				"z": -2.4336403518,
				"element": "C" 
			},
			{
				"x": -0.3714846657,
				"y": -3.6773711595,
				"z": -3.1893171154,
				"element": "O" 
			},
			{
				"x": -0.6827996162,
				"y": -1.7658913286,
				"z": -1.8362270474,
				"element": "C" 
			},
			{
				"x": 0.6121712842,
				"y": -1.2761819912,
				"z": -1.8519808961,
				"element": "C" 
			},
			{
				"x": 0.5848237194,
				"y": -0.105403601,
				"z": -1.0646893815,
				"element": "C" 
			},
			{
				"x": -0.6562918689,
				"y": 0.1173225227,
				"z": -0.6048533403,
				"element": "N" 
			},
			{
				"x": -1.4223750651,
				"y": -0.887260504,
				"z": -1.070802576,
				"element": "N" 
			},
			{
				"x": -2.8224576531,
				"y": -0.8466843073,
				"z": -0.7759053424,
				"element": "C" 
			},
			{
				"x": -3.7676320625,
				"y": -0.9418736743,
				"z": -1.7989418481,
				"element": "C" 
			},
			{
				"x": -5.1235808541,
				"y": -0.8608921598,
				"z": -1.4856650988,
				"element": "C" 
			},
			{
				"x": -5.531906679,
				"y": -0.6693940147,
				"z": -0.1640914997,
				"element": "C" 
			},
			{
				"x": -4.5774836781,
				"y": -0.5575513597,
				"z": 0.8491077186,
				"element": "C" 
			},
			{
				"x": -3.2193540104,
				"y": -0.646920999,
				"z": 0.5480398553,
				"element": "C" 
			},
			{
				"x": 1.6816711657,
				"y": 0.8171843037,
				"z": -0.7322881557,
				"element": "C" 
			},
			{
				"x": 2.981612174,
				"y": 0.6001830677,
				"z": -1.2133191587,
				"element": "C" 
			},
			{
				"x": 4.0208405952,
				"y": 1.4731885778,
				"z": -0.8984742931,
				"element": "C" 
			},
			{
				"x": 3.7586674072,
				"y": 2.5793677932,
				"z": -0.0918924757,
				"element": "C" 
			},
			{
				"x": 5.0633928183,
				"y": 3.6865574496,
				"z": 0.3110372095,
				"element": "Cl" 
			},
			{
				"x": 2.4750948088,
				"y": 2.8202227116,
				"z": 0.39974026,
				"element": "C" 
			},
			{
				"x": 1.446252557,
				"y": 1.9404176665,
				"z": 0.0778877483,
				"element": "C" 
			},
			{
				"x": -2.4244013069,
				"y": -4.3527509428,
				"z": -2.4851876685,
				"element": "H" 
			},
			{
				"x": 1.4418873301,
				"y": -1.7478925981,
				"z": -2.3544793811,
				"element": "H" 
			},
			{
				"x": -3.4437294866,
				"y": -1.0687175886,
				"z": -2.8257190987,
				"element": "H" 
			},
			{
				"x": -5.860786166,
				"y": -0.9342776199,
				"z": -2.2794726063,
				"element": "H" 
			},
			{
				"x": -6.5891723154,
				"y": -0.6014965504,
				"z": 0.0739181216,
				"element": "H" 
			},
			{
				"x": -4.8887228146,
				"y": -0.4037325587,
				"z": 1.8779020144,
				"element": "H" 
			},
			{
				"x": -2.4636783085,
				"y": -0.5577970231,
				"z": 1.320122317,
				"element": "H" 
			},
			{
				"x": 3.1933610051,
				"y": -0.2585547651,
				"z": -1.8426240918,
				"element": "H" 
			},
			{
				"x": 5.0227950228,
				"y": 1.2982885691,
				"z": -1.2742471086,
				"element": "H" 
			},
			{
				"x": 2.2866977048,
				"y": 3.6857805558,
				"z": 1.0252981865,
				"element": "H" 
			},
			{
				"x": 0.444197033,
				"y": 2.1177949189,
				"z": 0.4526083642,
				"element": "H" 
			}
		],
		 "valence_orbital": [ 
			{
				"type": "occ",
				"energy": -0.27144,
				"method": "rhf"
			},
			{
				"type": "occ",
				"energy": -0.26387,
				"method": "rhf"
			},
			{
				"type": "occ",
				"energy": -0.26277,
				"method": "rhf"
			},
			{
				"type": "occ",
				"energy": -0.25491,
				"method": "rhf"
			},
			{
				"type": "occ",
				"energy": -0.22288,
				"method": "rhf"
			},
			{
				"type": "unocc",
				"energy": -0.05711,
				"method": "rhf"
			},
			{
				"type": "unocc",
				"energy": -0.03231,
				"method": "rhf"
			},
			{
				"type": "unocc",
				"energy": -0.01439,
				"method": "rhf"
			},
			{
				"type": "unocc",
				"energy": -0.01225,
				"method": "rhf"
			},
			{
				"type": "unocc",
				"energy": -0.00989,
				"method": "rhf"
			}
		],
		"cosmo_sigma_profile": { 
			"-0.025": 0.0,
			"-0.024": 0.0,
			"-0.023": 0.0,
			"-0.022": 0.0,
			"-0.021": 0.0,
			"-0.02": 0.0,
			"-0.019": 0.262483869833,
			"-0.018": 1.43866894042,
			"-0.017": 0.402789795871,
			"-0.016": 1.07042008594,
			"-0.015": 0.722409366054,
			"-0.014": 0.622959622811,
			"-0.013": 0.432611041184,
			"-0.012": 0.828772330312,
			"-0.011": 0.929022809121,
			"-0.01": 0.62842637277,
			"-0.009": 1.98849484412,
			"-0.008": 4.14758595947,
			"-0.007": 11.6451832163,
			"-0.006": 17.0077117927,
			"-0.005": 19.290408416,
			"-0.004": 19.5366769621,
			"-0.003": 16.7547244012,
			"-0.002": 19.8885024225,
			"-0.001": 18.1511109404,
			"0.0": 20.5320194005,
			"0.001": 26.3313417049,
			"0.002": 34.5713824965,
			"0.003": 33.0973704547,
			"0.004": 28.6875981081,
			"0.005": 15.6035439535,
			"0.006": 5.08344120206,
			"0.007": 4.53717230629,
			"0.008": 4.06750757562,
			"0.009": 2.83921209565,
			"0.01": 3.04459612933,
			"0.011": 5.78529155341,
			"0.012": 1.81250225124,
			"0.013": 0.0,
			"0.014": 0.0,
			"0.015": 0.0,
			"0.016": 0.0,
			"0.017": 0.0,
			"0.018": 0.0,
			"0.019": 0.0,
			"0.02": 0.0,
			"0.021": 0.0,
			"0.022": 0.0,
			"0.023": 0.0,
			"0.024": 0.0,
			"0.025": 0.0
		}
	}
}
