{
	 "smiles": "CC1=CC=C(NC(=O)OCC(F)(F)F)C=C1", 
	 "Tm": 364.15, 
	 "num_atms": 26, 
	 "gaussian": { 
		 "optdone": 1, 
		 "sigma_profile": "yes", 
		 "theory": "DFT", 
		 "functional": "B3LYP", 
		 "basiset": "6-31G**", 
		 "properties": { 
			 "R2extent": 5475.6659, 
			 "electric_dipole_moment_norm": 2.69327257068, 
			 "electric_quadrupole_moment_norm": 8.46468756659, 
			 "total_energy": -891.843358187, 
			 "HOMO_LUMO_gap": 0.21176, 
			 "cosmo_polarized_energy": -10.45, 
			 "cosmo_cavitation_energy": 32.1, 
			 "cosmo_dispersion_energy": -22.34, 
			 "cosmo_repulsion_energy": 1.69, 
			 "cosmo_total_nonelectrostatic_energy": 11.45, 
			 "SMD_solvation_energy": 7.78 
		},
		"coords": [
			{
				"x": 1.0636097072,
				"y": 1.3833142787,
				"z": 3.8428556694,
				"element": "C" 
			},
			{
				"x": 0.7604352131,
				"y": 1.1530798031,
				"z": 2.3813108011,
				"element": "C" 
			},
			{
				"x": -0.0795802675,
				"y": 0.1118113391,
				"z": 1.9680650281,
				"element": "C" 
			},
			{
				"x": -0.391073782,
				"y": -0.104111657,
				"z": 0.6266146305,
				"element": "C" 
			},
			{
				"x": 0.1343615405,
				"y": 0.7510152723,
				"z": -0.3514793476,
				"element": "C" 
			},
			{
				"x": -0.0873749448,
				"y": 0.5953954195,
				"z": -1.7435363933,
				"element": "N" 
			},
			{
				"x": -1.0977216991,
				"y": 0.0124723646,
				"z": -2.4565831543,
				"element": "C" 
			},
			{
				"x": -1.1146789282,
				"y": -0.0502182325,
				"z": -3.6703541207,
				"element": "O" 
			},
			{
				"x": -2.0914658607,
				"y": -0.4597911151,
				"z": -1.6449143753,
				"element": "O" 
			},
			{
				"x": -3.0978802654,
				"y": -1.2392086074,
				"z": -2.2767177745,
				"element": "C" 
			},
			{
				"x": -2.8700431132,
				"y": -2.7028178426,
				"z": -1.9408951979,
				"element": "C" 
			},
			{
				"x": -1.6928179489,
				"y": -3.1431127573,
				"z": -2.4200511104,
				"element": "F" 
			},
			{
				"x": -3.854836225,
				"y": -3.4516953729,
				"z": -2.476995502,
				"element": "F" 
			},
			{
				"x": -2.869243749,
				"y": -2.9100546245,
				"z": -0.6065865203,
				"element": "F" 
			},
			{
				"x": 0.9816575945,
				"y": 1.7950173078,
				"z": 0.0449368075,
				"element": "C" 
			},
			{
				"x": 1.2914534959,
				"y": 1.9855160673,
				"z": 1.3884791534,
				"element": "C" 
			},
			{
				"x": 2.0522123651,
				"y": 1.8316675706,
				"z": 3.981389523,
				"element": "H" 
			},
			{
				"x": 0.3324150879,
				"y": 2.0618108564,
				"z": 4.3005190493,
				"element": "H" 
			},
			{
				"x": 1.0352781357,
				"y": 0.4474930069,
				"z": 4.4092896469,
				"element": "H" 
			},
			{
				"x": -0.4966636067,
				"y": -0.5624006128,
				"z": 2.712171147,
				"element": "H" 
			},
			{
				"x": -1.0329757238,
				"y": -0.9280968135,
				"z": 0.3474404224,
				"element": "H" 
			},
			{
				"x": 0.5880250653,
				"y": 1.0314887419,
				"z": -2.355294947,
				"element": "H" 
			},
			{
				"x": -3.0695909287,
				"y": -1.1054209449,
				"z": -3.359380815,
				"element": "H" 
			},
			{
				"x": -4.0647926827,
				"y": -0.9308616054,
				"z": -1.8742693956,
				"element": "H" 
			},
			{
				"x": 1.3994714162,
				"y": 2.4618334248,
				"z": -0.7056745099,
				"element": "H" 
			},
			{
				"x": 1.9547201043,
				"y": 2.8004747331,
				"z": 1.6673612852,
				"element": "H" 
			}
		],
		 "valence_orbital": [ 
			{
				"type": "occ",
				"energy": -0.31679,
				"method": "rhf"
			},
			{
				"type": "occ",
				"energy": -0.30355,
				"method": "rhf"
			},
			{
				"type": "occ",
				"energy": -0.29128,
				"method": "rhf"
			},
			{
				"type": "occ",
				"energy": -0.25495,
				"method": "rhf"
			},
			{
				"type": "occ",
				"energy": -0.22087,
				"method": "rhf"
			},
			{
				"type": "unocc",
				"energy": -0.00911,
				"method": "rhf"
			},
			{
				"type": "unocc",
				"energy": -0.00652,
				"method": "rhf"
			},
			{
				"type": "unocc",
				"energy": 0.0515,
				"method": "rhf"
			},
			{
				"type": "unocc",
				"energy": 0.07183,
				"method": "rhf"
			},
			{
				"type": "unocc",
				"energy": 0.09412,
				"method": "rhf"
			}
		],
		"cosmo_sigma_profile": { 
			"-0.025": 0.0,
			"-0.024": 0.0,
			"-0.023": 0.0,
			"-0.022": 0.0,
			"-0.021": 0.0,
			"-0.02": 0.0,
			"-0.019": 0.0,
			"-0.018": 0.0,
			"-0.017": 0.0,
			"-0.016": 0.026295481124,
			"-0.015": 1.02041429521,
			"-0.014": 0.900299752671,
			"-0.013": 1.15892713246,
			"-0.012": 1.13147204063,
			"-0.011": 0.858354953498,
			"-0.01": 1.91014795467,
			"-0.009": 4.14128822215,
			"-0.008": 4.88706207066,
			"-0.007": 4.87059217422,
			"-0.006": 7.15515379299,
			"-0.005": 10.0188221145,
			"-0.004": 15.6139450192,
			"-0.003": 17.3785105421,
			"-0.002": 19.3342681868,
			"-0.001": 19.1001549745,
			"0.0": 22.9777446985,
			"0.001": 19.8803748935,
			"0.002": 33.6576618067,
			"0.003": 26.0342062637,
			"0.004": 10.0816875555,
			"0.005": 12.577617753,
			"0.006": 7.58322852436,
			"0.007": 1.12670960888,
			"0.008": 1.03927794497,
			"0.009": 1.63895876345,
			"0.01": 1.76663818777,
			"0.011": 2.02660968598,
			"0.012": 5.08552637823,
			"0.013": 0.841040397136,
			"0.014": 0.0,
			"0.015": 0.0,
			"0.016": 0.0,
			"0.017": 0.0,
			"0.018": 0.0,
			"0.019": 0.0,
			"0.02": 0.0,
			"0.021": 0.0,
			"0.022": 0.0,
			"0.023": 0.0,
			"0.024": 0.0,
			"0.025": 0.0
		}
	}
}
