{
	 "smiles": "CC(NNC(=O)C1=CC=CC=C1)C1=CC=CC=C1", 
	 "Tm": 366.65, 
	 "num_atms": 34, 
	 "gaussian": { 
		 "optdone": 1, 
		 "sigma_profile": "yes", 
		 "theory": "DFT", 
		 "functional": "B3LYP", 
		 "basiset": "6-31G**", 
		 "properties": { 
			 "R2extent": 5844.9198, 
			 "electric_dipole_moment_norm": 3.65783609939, 
			 "electric_quadrupole_moment_norm": 22.007975139, 
			 "total_energy": -765.949264903, 
			 "HOMO_LUMO_gap": 0.20639, 
			 "cosmo_polarized_energy": -13.67, 
			 "cosmo_cavitation_energy": 37.44, 
			 "cosmo_dispersion_energy": -25.61, 
			 "cosmo_repulsion_energy": 1.97, 
			 "cosmo_total_nonelectrostatic_energy": 13.81, 
			 "SMD_solvation_energy": 7.08 
		},
		"coords": [
			{
				"x": 3.2979053711,
				"y": -1.4677604338,
				"z": -2.0981206801,
				"element": "C" 
			},
			{
				"x": 2.1697275889,
				"y": -1.0027122739,
				"z": -1.1679146786,
				"element": "C" 
			},
			{
				"x": 1.8583595435,
				"y": 0.4458046823,
				"z": -1.2775297111,
				"element": "N" 
			},
			{
				"x": 1.508246072,
				"y": 0.8872051336,
				"z": -2.5596759511,
				"element": "N" 
			},
			{
				"x": 0.1998994787,
				"y": 1.0161351644,
				"z": -2.9984585752,
				"element": "C" 
			},
			{
				"x": -0.0149903342,
				"y": 1.0040917659,
				"z": -4.2067297073,
				"element": "O" 
			},
			{
				"x": -0.914560388,
				"y": 1.2072613543,
				"z": -2.0118099786,
				"element": "C" 
			},
			{
				"x": -0.7649458747,
				"y": 1.7820419242,
				"z": -0.7405528261,
				"element": "C" 
			},
			{
				"x": -1.881482124,
				"y": 1.9847100544,
				"z": 0.0715118277,
				"element": "C" 
			},
			{
				"x": -3.152209617,
				"y": 1.6094425378,
				"z": -0.3695737942,
				"element": "C" 
			},
			{
				"x": -3.3085013361,
				"y": 1.0446404685,
				"z": -1.6375733034,
				"element": "C" 
			},
			{
				"x": -2.1981397584,
				"y": 0.8571609732,
				"z": -2.4571556153,
				"element": "C" 
			},
			{
				"x": 2.3995129601,
				"y": -1.2993972403,
				"z": 0.3117504874,
				"element": "C" 
			},
			{
				"x": 1.363636872,
				"y": -1.0221061233,
				"z": 1.218869132,
				"element": "C" 
			},
			{
				"x": 1.519919717,
				"y": -1.271522389,
				"z": 2.5801798389,
				"element": "C" 
			},
			{
				"x": 2.7198299945,
				"y": -1.8010324381,
				"z": 3.0641733879,
				"element": "C" 
			},
			{
				"x": 3.7561010034,
				"y": -2.0771758089,
				"z": 2.1745665196,
				"element": "C" 
			},
			{
				"x": 3.5968088452,
				"y": -1.8270788604,
				"z": 0.8079459222,
				"element": "C" 
			},
			{
				"x": 3.4665246314,
				"y": -2.5444661401,
				"z": -2.0027920999,
				"element": "H" 
			},
			{
				"x": 3.0411015476,
				"y": -1.2772248909,
				"z": -3.1444266124,
				"element": "H" 
			},
			{
				"x": 4.2407407943,
				"y": -0.9536460019,
				"z": -1.8792978706,
				"element": "H" 
			},
			{
				"x": 1.2474962467,
				"y": -1.5145321775,
				"z": -1.4737366399,
				"element": "H" 
			},
			{
				"x": 2.6427988966,
				"y": 0.9997927262,
				"z": -0.9401707097,
				"element": "H" 
			},
			{
				"x": 2.1353750226,
				"y": 0.6899783337,
				"z": -3.3373362138,
				"element": "H" 
			},
			{
				"x": 0.2179863268,
				"y": 2.0677161163,
				"z": -0.390275723,
				"element": "H" 
			},
			{
				"x": -1.7578770932,
				"y": 2.4399120334,
				"z": 1.0501163454,
				"element": "H" 
			},
			{
				"x": -4.0173828295,
				"y": 1.762782267,
				"z": 0.2695250779,
				"element": "H" 
			},
			{
				"x": -4.2954896775,
				"y": 0.7589892299,
				"z": -1.9898306832,
				"element": "H" 
			},
			{
				"x": -2.3016126277,
				"y": 0.446414459,
				"z": -3.4556747432,
				"element": "H" 
			},
			{
				"x": 0.4354833006,
				"y": -0.5995044031,
				"z": 0.8455820389,
				"element": "H" 
			},
			{
				"x": 0.7050590441,
				"y": -1.0544347421,
				"z": 3.2652113547,
				"element": "H" 
			},
			{
				"x": 2.8428694579,
				"y": -1.996994168,
				"z": 4.1255222454,
				"element": "H" 
			},
			{
				"x": 4.6930323651,
				"y": -2.4890290167,
				"z": 2.5390046847,
				"element": "H" 
			},
			{
				"x": 4.4161765805,
				"y": -2.0549621163,
				"z": 0.134377254,
				"element": "H" 
			}
		],
		 "valence_orbital": [ 
			{
				"type": "occ",
				"energy": -0.25542,
				"method": "rhf"
			},
			{
				"type": "occ",
				"energy": -0.25254,
				"method": "rhf"
			},
			{
				"type": "occ",
				"energy": -0.24677,
				"method": "rhf"
			},
			{
				"type": "occ",
				"energy": -0.24426,
				"method": "rhf"
			},
			{
				"type": "occ",
				"energy": -0.23916,
				"method": "rhf"
			},
			{
				"type": "unocc",
				"energy": -0.03277,
				"method": "rhf"
			},
			{
				"type": "unocc",
				"energy": -0.0088,
				"method": "rhf"
			},
			{
				"type": "unocc",
				"energy": -0.00366,
				"method": "rhf"
			},
			{
				"type": "unocc",
				"energy": 0.00067,
				"method": "rhf"
			},
			{
				"type": "unocc",
				"energy": 0.0594,
				"method": "rhf"
			}
		],
		"cosmo_sigma_profile": { 
			"-0.025": 0.0,
			"-0.024": 0.0,
			"-0.023": 0.0,
			"-0.022": 0.0,
			"-0.021": 0.0,
			"-0.02": 0.0,
			"-0.019": 0.0,
			"-0.018": 0.0,
			"-0.017": 0.0,
			"-0.016": 0.0,
			"-0.015": 0.0,
			"-0.014": 0.0,
			"-0.013": 0.0,
			"-0.012": 0.718481999578,
			"-0.011": 2.27758793922,
			"-0.01": 2.07212631795,
			"-0.009": 2.38880515706,
			"-0.008": 3.17431323261,
			"-0.007": 3.18765813655,
			"-0.006": 10.2135888916,
			"-0.005": 19.7886083366,
			"-0.004": 30.1792406206,
			"-0.003": 30.2953196937,
			"-0.002": 24.0034531523,
			"-0.001": 23.561950446,
			"0.0": 21.1375294795,
			"0.001": 19.2780891487,
			"0.002": 17.5878815065,
			"0.003": 17.9650647335,
			"0.004": 20.9099788556,
			"0.005": 19.5456710767,
			"0.006": 10.2448122726,
			"0.007": 2.52092653169,
			"0.008": 2.09452342848,
			"0.009": 0.992449395349,
			"0.01": 1.18638082632,
			"0.011": 1.70161397254,
			"0.012": 2.13573674308,
			"0.013": 4.48209156391,
			"0.014": 3.63938652645,
			"0.015": 0.154218255431,
			"0.016": 0.0,
			"0.017": 0.0,
			"0.018": 0.0,
			"0.019": 0.0,
			"0.02": 0.0,
			"0.021": 0.0,
			"0.022": 0.0,
			"0.023": 0.0,
			"0.024": 0.0,
			"0.025": 0.0
		}
	}
}
