{
	 "smiles": "COC1=CC=C2C(OC(=O)C2=C1OC)C1N(C)CCC2=CC3=C(OCO3)C=C12", 
	 "Tm": 405.15, 
	 "num_atms": 49, 
	 "gaussian": { 
		 "optdone": 1, 
		 "sigma_profile": "yes", 
		 "theory": "DFT", 
		 "functional": "B3LYP", 
		 "basiset": "6-31G**", 
		 "properties": { 
			 "R2extent": 12145.3762, 
			 "electric_dipole_moment_norm": 6.40784834636, 
			 "electric_quadrupole_moment_norm": 29.2780061901, 
			 "total_energy": -1318.91917622, 
			 "HOMO_LUMO_gap": 0.16622, 
			 "cosmo_polarized_energy": -20.6, 
			 "cosmo_cavitation_energy": 49.2, 
			 "cosmo_dispersion_energy": -34.77, 
			 "cosmo_repulsion_energy": 2.59, 
			 "cosmo_total_nonelectrostatic_energy": 17.01, 
			 "SMD_solvation_energy": 8.63 
		},
		"coords": [
			{
				"x": 2.8069511072,
				"y": -4.8262235451,
				"z": -0.4963978181,
				"element": "C" 
			},
			{
				"x": 2.3027127932,
				"y": -4.129016546,
				"z": -1.623328206,
				"element": "O" 
			},
			{
				"x": 1.9498628898,
				"y": -2.8243631487,
				"z": -1.4695240235,
				"element": "C" 
			},
			{
				"x": 2.0197748747,
				"y": -2.1235413853,
				"z": -0.2602735433,
				"element": "C" 
			},
			{
				"x": 1.6303573836,
				"y": -0.7809982696,
				"z": -0.1706755665,
				"element": "C" 
			},
			{
				"x": 1.172149043,
				"y": -0.1508185411,
				"z": -1.3161574443,
				"element": "C" 
			},
			{
				"x": 0.7614153859,
				"y": 1.2846760521,
				"z": -1.5566358445,
				"element": "C" 
			},
			{
				"x": 0.4749338029,
				"y": 1.3393853315,
				"z": -2.9680295302,
				"element": "O" 
			},
			{
				"x": 0.6740013804,
				"y": 0.1312080168,
				"z": -3.5795318615,
				"element": "C" 
			},
			{
				"x": 0.5154763255,
				"y": -0.0023711214,
				"z": -4.7708329679,
				"element": "O" 
			},
			{
				"x": 1.1084142457,
				"y": -0.8349502276,
				"z": -2.539529928,
				"element": "C" 
			},
			{
				"x": 1.4810785727,
				"y": -2.1818549458,
				"z": -2.6476652818,
				"element": "C" 
			},
			{
				"x": 1.4949652153,
				"y": -2.9186183908,
				"z": -3.784057163,
				"element": "O" 
			},
			{
				"x": 0.2758652188,
				"y": -3.0433313483,
				"z": -4.533989508,
				"element": "C" 
			},
			{
				"x": -0.4275081002,
				"y": 1.9276453057,
				"z": -0.8012211172,
				"element": "C" 
			},
			{
				"x": -1.7205657078,
				"y": 1.2699141687,
				"z": -1.0251686847,
				"element": "N" 
			},
			{
				"x": -1.8586659164,
				"y": -0.1051389089,
				"z": -0.5396425368,
				"element": "C" 
			},
			{
				"x": -2.7695034228,
				"y": 2.1413663712,
				"z": -0.4912184938,
				"element": "C" 
			},
			{
				"x": -2.6847282677,
				"y": 2.3087157737,
				"z": 1.0362674804,
				"element": "C" 
			},
			{
				"x": -1.2556362792,
				"y": 2.4730893674,
				"z": 1.5293111201,
				"element": "C" 
			},
			{
				"x": -1.0632703707,
				"y": 2.8445962042,
				"z": 2.878958438,
				"element": "C" 
			},
			{
				"x": 0.2269328311,
				"y": 2.9973199356,
				"z": 3.3348078607,
				"element": "C" 
			},
			{
				"x": 1.3176575511,
				"y": 2.7925057573,
				"z": 2.4968955613,
				"element": "C" 
			},
			{
				"x": 2.4849941541,
				"y": 2.9884767614,
				"z": 3.1983522137,
				"element": "O" 
			},
			{
				"x": 2.0833400694,
				"y": 3.4954716301,
				"z": 4.476718444,
				"element": "C" 
			},
			{
				"x": 0.6647964741,
				"y": 3.3303741583,
				"z": 4.5945376812,
				"element": "O" 
			},
			{
				"x": 1.1617677463,
				"y": 2.4255198969,
				"z": 1.1775674867,
				"element": "C" 
			},
			{
				"x": -0.1530445947,
				"y": 2.248866048,
				"z": 0.6814725606,
				"element": "C" 
			},
			{
				"x": 3.7233473784,
				"y": -4.3626344544,
				"z": -0.1085058109,
				"element": "H" 
			},
			{
				"x": 2.0656434841,
				"y": -4.8856272379,
				"z": 0.3115971439,
				"element": "H" 
			},
			{
				"x": 3.0356741822,
				"y": -5.833726661,
				"z": -0.8466923585,
				"element": "H" 
			},
			{
				"x": 2.3723227343,
				"y": -2.6263211082,
				"z": 0.6324666432,
				"element": "H" 
			},
			{
				"x": 1.6877811685,
				"y": -0.2633391902,
				"z": 0.7799531527,
				"element": "H" 
			},
			{
				"x": 1.6224059964,
				"y": 1.946005077,
				"z": -1.402521727,
				"element": "H" 
			},
			{
				"x": 0.4820990753,
				"y": -3.7955536529,
				"z": -5.297306493,
				"element": "H" 
			},
			{
				"x": -0.5339445937,
				"y": -3.4005791491,
				"z": -3.886262119,
				"element": "H" 
			},
			{
				"x": 0.0022459449,
				"y": -2.0968374461,
				"z": -5.0021328011,
				"element": "H" 
			},
			{
				"x": -0.5250283266,
				"y": 2.8957971065,
				"z": -1.3143175641,
				"element": "H" 
			},
			{
				"x": -2.9075601766,
				"y": -0.3985448353,
				"z": -0.6492289433,
				"element": "H" 
			},
			{
				"x": -1.2639048191,
				"y": -0.7879104793,
				"z": -1.1458498145,
				"element": "H" 
			},
			{
				"x": -1.5717532272,
				"y": -0.252849789,
				"z": 0.5147037592,
				"element": "H" 
			},
			{
				"x": -2.6746993402,
				"y": 3.1182388101,
				"z": -0.9805848744,
				"element": "H" 
			},
			{
				"x": -3.7467663501,
				"y": 1.7356801009,
				"z": -0.7752296322,
				"element": "H" 
			},
			{
				"x": -3.1309096496,
				"y": 1.4342346028,
				"z": 1.5298636311,
				"element": "H" 
			},
			{
				"x": -3.2884417785,
				"y": 3.1686620864,
				"z": 1.3521779451,
				"element": "H" 
			},
			{
				"x": -1.9118469783,
				"y": 3.0104666224,
				"z": 3.5350184556,
				"element": "H" 
			},
			{
				"x": 2.3351836257,
				"y": 4.5637150622,
				"z": 4.5437326506,
				"element": "H" 
			},
			{
				"x": 2.5829471074,
				"y": 2.927621017,
				"z": 5.2674716212,
				"element": "H" 
			},
			{
				"x": 2.0396801374,
				"y": 2.281299118,
				"z": 0.5598378078,
				"element": "H" 
			}
		],
		 "valence_orbital": [ 
			{
				"type": "occ",
				"energy": -0.25252,
				"method": "rhf"
			},
			{
				"type": "occ",
				"energy": -0.24871,
				"method": "rhf"
			},
			{
				"type": "occ",
				"energy": -0.21751,
				"method": "rhf"
			},
			{
				"type": "occ",
				"energy": -0.21203,
				"method": "rhf"
			},
			{
				"type": "occ",
				"energy": -0.20698,
				"method": "rhf"
			},
			{
				"type": "unocc",
				"energy": -0.04076,
				"method": "rhf"
			},
			{
				"type": "unocc",
				"energy": -0.01098,
				"method": "rhf"
			},
			{
				"type": "unocc",
				"energy": -0.00529,
				"method": "rhf"
			},
			{
				"type": "unocc",
				"energy": 0.00394,
				"method": "rhf"
			},
			{
				"type": "unocc",
				"energy": 0.06288,
				"method": "rhf"
			}
		],
		"cosmo_sigma_profile": { 
			"-0.025": 0.0,
			"-0.024": 0.0,
			"-0.023": 0.0,
			"-0.022": 0.0,
			"-0.021": 0.0,
			"-0.02": 0.0,
			"-0.019": 0.0,
			"-0.018": 0.0,
			"-0.017": 0.0,
			"-0.016": 0.0,
			"-0.015": 0.0,
			"-0.014": 0.0,
			"-0.013": 0.0,
			"-0.012": 0.0,
			"-0.011": 0.0,
			"-0.01": 0.388947686773,
			"-0.009": 1.89815588431,
			"-0.008": 4.98660488875,
			"-0.007": 12.1048211124,
			"-0.006": 22.8870497477,
			"-0.005": 28.3767992717,
			"-0.004": 33.9525769936,
			"-0.003": 41.8193106642,
			"-0.002": 36.5327910757,
			"-0.001": 30.5311816527,
			"0.0": 26.3308924048,
			"0.001": 23.1659221482,
			"0.002": 22.3437413212,
			"0.003": 19.8309224922,
			"0.004": 15.1684447111,
			"0.005": 9.60999821924,
			"0.006": 7.82413622176,
			"0.007": 8.5512188921,
			"0.008": 7.74172609275,
			"0.009": 10.1726254862,
			"0.01": 9.28906347579,
			"0.011": 6.30345618478,
			"0.012": 5.3460442644,
			"0.013": 2.73491594469,
			"0.014": 1.53014838936,
			"0.015": 0.520403950212,
			"0.016": 0.0622654762981,
			"0.017": 0.0,
			"0.018": 0.0,
			"0.019": 0.0,
			"0.02": 0.0,
			"0.021": 0.0,
			"0.022": 0.0,
			"0.023": 0.0,
			"0.024": 0.0,
			"0.025": 0.0
		}
	}
}
