{
	 "smiles": "IC1=CC=CC2=CC=CC=C12", 
	 "Tm": 277.15, 
	 "num_atms": 18, 
	 "gaussian": { 
		 "optdone": 1, 
		 "sigma_profile": "no", 
		 "theory": "DFT", 
		 "functional": "B3LYP", 
		 "basiset": "6-31G**", 
		 "properties": { 
			 "R2extent": 1820.5285, 
			 "electric_dipole_moment_norm": 1.88229829995, 
			 "electric_quadrupole_moment_norm": 9.70518191844, 
			 "total_energy": -396.67775115, 
			 "HOMO_LUMO_gap": 0.1696, 
			 "cosmo_polarized_energy": -88244.83, 
			 "cosmo_cavitation_energy": 24.46, 
			 "cosmo_dispersion_energy": -19.78, 
			 "cosmo_repulsion_energy": 1.52, 
			 "cosmo_total_nonelectrostatic_energy": 6.2, 
			 "SMD_solvation_energy": 3.07 
		},
		"coords": [
			{
				"x": -3.366147034,
				"y": -0.3841819525,
				"z": 0.2533022152,
				"element": "I" 
			},
			{
				"x": -1.4316687843,
				"y": 0.3112941801,
				"z": -0.3128971358,
				"element": "C" 
			},
			{
				"x": -1.2384503813,
				"y": 1.6750682869,
				"z": -0.3339921325,
				"element": "C" 
			},
			{
				"x": 0.0208002687,
				"y": 2.2065669658,
				"z": -0.7006117489,
				"element": "C" 
			},
			{
				"x": 1.0561069445,
				"y": 1.3681526676,
				"z": -1.0371034832,
				"element": "C" 
			},
			{
				"x": 0.8829822041,
				"y": -0.0406473258,
				"z": -1.0233060959,
				"element": "C" 
			},
			{
				"x": 1.9484210961,
				"y": -0.9151397129,
				"z": -1.3699647576,
				"element": "C" 
			},
			{
				"x": 1.7823854835,
				"y": -2.2800732203,
				"z": -1.3570701865,
				"element": "C" 
			},
			{
				"x": 0.5322475565,
				"y": -2.8336470354,
				"z": -0.9935100586,
				"element": "C" 
			},
			{
				"x": -0.5231285599,
				"y": -2.018372095,
				"z": -0.6515317841,
				"element": "C" 
			},
			{
				"x": -0.3898059139,
				"y": -0.6037544842,
				"z": -0.6533032667,
				"element": "C" 
			},
			{
				"x": -2.046947444,
				"y": 2.3473798247,
				"z": -0.0708264609,
				"element": "H" 
			},
			{
				"x": 0.1557073178,
				"y": 3.2839437037,
				"z": -0.7119029419,
				"element": "H" 
			},
			{
				"x": 2.0247940818,
				"y": 1.771565828,
				"z": -1.3193875305,
				"element": "H" 
			},
			{
				"x": 2.9041175694,
				"y": -0.4779922444,
				"z": -1.6474779076,
				"element": "H" 
			},
			{
				"x": 2.6066371103,
				"y": -2.9344921524,
				"z": -1.6246907265,
				"element": "H" 
			},
			{
				"x": 0.4033836874,
				"y": -3.9119166132,
				"z": -0.9839236124,
				"element": "H" 
			},
			{
				"x": -1.4763352026,
				"y": -2.4542546206,
				"z": -0.3746023856,
				"element": "H" 
			}
		],
		 "valence_orbital": [ 
			{
				"type": "occ",
				"energy": -0.30748,
				"method": "rhf"
			},
			{
				"type": "occ",
				"energy": -0.2657,
				"method": "rhf"
			},
			{
				"type": "occ",
				"energy": -0.26138,
				"method": "rhf"
			},
			{
				"type": "occ",
				"energy": -0.25303,
				"method": "rhf"
			},
			{
				"type": "occ",
				"energy": -0.21977,
				"method": "rhf"
			},
			{
				"type": "unocc",
				"energy": -0.05017,
				"method": "rhf"
			},
			{
				"type": "unocc",
				"energy": -0.03661,
				"method": "rhf"
			},
			{
				"type": "unocc",
				"energy": -0.01897,
				"method": "rhf"
			},
			{
				"type": "unocc",
				"energy": 0.02317,
				"method": "rhf"
			},
			{
				"type": "unocc",
				"energy": 0.04394,
				"method": "rhf"
			}
		],
		"cosmo_sigma_profile": { 
			"0.0": 0.0,
			"0.0": 0.0,
			"0.0": 0.0,
			"0.0": 0.0,
			"0.0": 0.0,
			"0.0": 0.0,
			"0.0": 0.0,
			"0.0": 0.0,
			"0.0": 0.0,
			"0.0": 0.0,
			"0.0": 0.0,
			"0.0": 0.0,
			"0.0": 0.0,
			"0.0": 0.0,
			"0.0": 0.0,
			"0.0": 0.0,
			"0.0": 0.0,
			"0.0": 0.0,
			"0.0": 0.0,
			"0.0": 0.0,
			"0.0": 0.0,
			"0.0": 0.0,
			"0.0": 0.0,
			"0.0": 0.0,
			"0.0": 0.0,
			"0.0": 0.0,
			"0.0": 0.0,
			"0.0": 0.0,
			"0.0": 0.0,
			"0.0": 0.0,
			"0.0": 0.0,
			"0.0": 0.0,
			"0.0": 0.0,
			"0.0": 0.0,
			"0.0": 0.0,
			"0.0": 0.0,
			"0.0": 0.0,
			"0.0": 0.0,
			"0.0": 0.0,
			"0.0": 0.0,
			"0.0": 0.0,
			"0.0": 0.0,
			"0.0": 0.0,
			"0.0": 0.0,
			"0.0": 0.0,
			"0.0": 0.0,
			"0.0": 0.0,
			"0.0": 0.0,
			"0.0": 0.0,
			"0.0": 0.0,
			"0.0": 0.0
		}
	}
}
