{
	 "smiles": "OC(=O)CC1=C(Cl)C=CC(Cl)=C1", 
	 "Tm": 375.15, 
	 "num_atms": 18, 
	 "gaussian": { 
		 "optdone": 1, 
		 "sigma_profile": "yes", 
		 "theory": "DFT", 
		 "functional": "B3LYP", 
		 "basiset": "6-31G**", 
		 "properties": { 
			 "R2extent": 3613.5792, 
			 "electric_dipole_moment_norm": 3.95555776724, 
			 "electric_quadrupole_moment_norm": 22.6866881918, 
			 "total_energy": -1379.30689648, 
			 "HOMO_LUMO_gap": 0.21744, 
			 "cosmo_polarized_energy": -17.19, 
			 "cosmo_cavitation_energy": 26.57, 
			 "cosmo_dispersion_energy": -19.2, 
			 "cosmo_repulsion_energy": 1.55, 
			 "cosmo_total_nonelectrostatic_energy": 8.92, 
			 "SMD_solvation_energy": 5.11 
		},
		"coords": [
			{
				"x": -3.5803761946,
				"y": 2.7230689389,
				"z": 1.4724130964,
				"element": "O" 
			},
			{
				"x": -2.2895210811,
				"y": 2.2977455767,
				"z": 1.4401579171,
				"element": "C" 
			},
			{
				"x": -1.4254699105,
				"y": 2.9229461381,
				"z": 1.9937427591,
				"element": "O" 
			},
			{
				"x": -2.0618381152,
				"y": 1.0182298875,
				"z": 0.6217157528,
				"element": "C" 
			},
			{
				"x": -0.6709697135,
				"y": 0.457303134,
				"z": 0.7652828313,
				"element": "C" 
			},
			{
				"x": -0.2876315806,
				"y": -0.3198260655,
				"z": 1.8677007497,
				"element": "C" 
			},
			{
				"x": -1.446762048,
				"y": -0.6812899215,
				"z": 3.1398966623,
				"element": "Cl" 
			},
			{
				"x": 1.0048327828,
				"y": -0.826949723,
				"z": 1.9903821622,
				"element": "C" 
			},
			{
				"x": 1.9521042627,
				"y": -0.5643426557,
				"z": 1.0031180497,
				"element": "C" 
			},
			{
				"x": 1.5834631238,
				"y": 0.2070547772,
				"z": -0.0970666481,
				"element": "C" 
			},
			{
				"x": 2.7607008019,
				"y": 0.5448397332,
				"z": -1.3536925776,
				"element": "Cl" 
			},
			{
				"x": 0.2914627149,
				"y": 0.712277471,
				"z": -0.218140637,
				"element": "C" 
			},
			{
				"x": -4.1573828302,
				"y": 2.1007981984,
				"z": 1.0073356341,
				"element": "H" 
			},
			{
				"x": -2.8092848108,
				"y": 0.2726250937,
				"z": 0.9169207318,
				"element": "H" 
			},
			{
				"x": -2.2566806389,
				"y": 1.2641402808,
				"z": -0.4295305677,
				"element": "H" 
			},
			{
				"x": 1.2679622104,
				"y": -1.4240727989,
				"z": 2.8561174043,
				"element": "H" 
			},
			{
				"x": 2.9600133159,
				"y": -0.9540253741,
				"z": 1.0884566262,
				"element": "H" 
			},
			{
				"x": 0.0294777109,
				"y": 1.3132773092,
				"z": -1.0824099467,
				"element": "H" 
			}
		],
		 "valence_orbital": [ 
			{
				"type": "occ",
				"energy": -0.32183,
				"method": "rhf"
			},
			{
				"type": "occ",
				"energy": -0.32072,
				"method": "rhf"
			},
			{
				"type": "occ",
				"energy": -0.28325,
				"method": "rhf"
			},
			{
				"type": "occ",
				"energy": -0.27357,
				"method": "rhf"
			},
			{
				"type": "occ",
				"energy": -0.24984,
				"method": "rhf"
			},
			{
				"type": "unocc",
				"energy": -0.0324,
				"method": "rhf"
			},
			{
				"type": "unocc",
				"energy": -0.02957,
				"method": "rhf"
			},
			{
				"type": "unocc",
				"energy": 0.00281,
				"method": "rhf"
			},
			{
				"type": "unocc",
				"energy": 0.01206,
				"method": "rhf"
			},
			{
				"type": "unocc",
				"energy": 0.03087,
				"method": "rhf"
			}
		],
		"cosmo_sigma_profile": { 
			"-0.025": 0.0,
			"-0.024": 0.0,
			"-0.023": 0.0,
			"-0.022": 0.0,
			"-0.021": 0.0,
			"-0.02": 0.123122003541,
			"-0.019": 1.07770577873,
			"-0.018": 1.38786153049,
			"-0.017": 1.15505080773,
			"-0.016": 1.17553186164,
			"-0.015": 0.791660516865,
			"-0.014": 0.526160248756,
			"-0.013": 1.35100687647,
			"-0.012": 1.62102950449,
			"-0.011": 1.94893742176,
			"-0.01": 0.799930214956,
			"-0.009": 5.12525013849,
			"-0.008": 7.66494067718,
			"-0.007": 9.29080270223,
			"-0.006": 7.03428769136,
			"-0.005": 7.0676166661,
			"-0.004": 7.91356876881,
			"-0.003": 8.44035448507,
			"-0.002": 9.85542855168,
			"-0.001": 11.1768903089,
			"0.0": 14.9629182372,
			"0.001": 21.7158624876,
			"0.002": 23.5540119464,
			"0.003": 15.1835417552,
			"0.004": 20.0814626875,
			"0.005": 7.24584292815,
			"0.006": 2.15796824663,
			"0.007": 3.17848410576,
			"0.008": 3.2395108711,
			"0.009": 3.70349951759,
			"0.01": 5.40990640676,
			"0.011": 5.66513441673,
			"0.012": 4.47516510831,
			"0.013": 0.826672904789,
			"0.014": 0.0,
			"0.015": 0.0,
			"0.016": 0.0,
			"0.017": 0.0,
			"0.018": 0.0,
			"0.019": 0.0,
			"0.02": 0.0,
			"0.021": 0.0,
			"0.022": 0.0,
			"0.023": 0.0,
			"0.024": 0.0,
			"0.025": 0.0
		}
	}
}
