{
	 "smiles": "ClC1=CC=C(C=C2C(=O)NC(=O)NC2=O)C=C1", 
	 "Tm": 516.15, 
	 "num_atms": 24, 
	 "gaussian": { 
		 "optdone": 1, 
		 "sigma_profile": "yes", 
		 "theory": "DFT", 
		 "functional": "B3LYP", 
		 "basiset": "6-31G**", 
		 "properties": { 
			 "R2extent": 6338.5331, 
			 "electric_dipole_moment_norm": 0.847618971001, 
			 "electric_quadrupole_moment_norm": 15.3196503772, 
			 "total_energy": -1218.79074347, 
			 "HOMO_LUMO_gap": 0.14892, 
			 "cosmo_polarized_energy": -18.29, 
			 "cosmo_cavitation_energy": 32.28, 
			 "cosmo_dispersion_energy": -23.28, 
			 "cosmo_repulsion_energy": 1.82, 
			 "cosmo_total_nonelectrostatic_energy": 10.82, 
			 "SMD_solvation_energy": 7.43 
		},
		"coords": [
			{
				"x": -1.5998463608,
				"y": 5.0845563508,
				"z": 3.1402542921,
				"element": "Cl" 
			},
			{
				"x": -1.0589799561,
				"y": 3.901003232,
				"z": 1.9605381655,
				"element": "C" 
			},
			{
				"x": 0.2755475854,
				"y": 3.4986216738,
				"z": 1.9542596751,
				"element": "C" 
			},
			{
				"x": 0.700397946,
				"y": 2.5614265802,
				"z": 1.0141920709,
				"element": "C" 
			},
			{
				"x": -0.2003737235,
				"y": 2.0195013518,
				"z": 0.0882125416,
				"element": "C" 
			},
			{
				"x": 0.2723478854,
				"y": 1.077600389,
				"z": -0.9543872578,
				"element": "C" 
			},
			{
				"x": 0.3226290159,
				"y": -0.2690957368,
				"z": -0.9047103863,
				"element": "C" 
			},
			{
				"x": 0.8520540448,
				"y": -0.9726339839,
				"z": -2.1162333623,
				"element": "C" 
			},
			{
				"x": 1.2321920326,
				"y": -0.4045517094,
				"z": -3.12527737,
				"element": "O" 
			},
			{
				"x": 0.8883370662,
				"y": -2.3591635559,
				"z": -2.0253897122,
				"element": "N" 
			},
			{
				"x": 0.4945233447,
				"y": -3.1546633116,
				"z": -0.9537697938,
				"element": "C" 
			},
			{
				"x": 0.5663557677,
				"y": -4.3661236009,
				"z": -0.9730964408,
				"element": "O" 
			},
			{
				"x": 0.0131593457,
				"y": -2.4422293495,
				"z": 0.1377275815,
				"element": "N" 
			},
			{
				"x": -0.1178109349,
				"y": -1.0595624902,
				"z": 0.2810460219,
				"element": "C" 
			},
			{
				"x": -0.5622847713,
				"y": -0.5883035076,
				"z": 1.3110086806,
				"element": "O" 
			},
			{
				"x": -1.5350652692,
				"y": 2.4446960319,
				"z": 0.1063450357,
				"element": "C" 
			},
			{
				"x": -1.9699290963,
				"y": 3.3813591339,
				"z": 1.0423514899,
				"element": "C" 
			},
			{
				"x": 0.9724845027,
				"y": 3.9114442142,
				"z": 2.6749771107,
				"element": "H" 
			},
			{
				"x": 1.7389582711,
				"y": 2.2453964718,
				"z": 1.0082348498,
				"element": "H" 
			},
			{
				"x": 0.6299672671,
				"y": 1.511015309,
				"z": -1.890151298,
				"element": "H" 
			},
			{
				"x": 1.2427512911,
				"y": -2.8583359803,
				"z": -2.8323830486,
				"element": "H" 
			},
			{
				"x": -0.278926111,
				"y": -3.0039760024,
				"z": 0.9285105562,
				"element": "H" 
			},
			{
				"x": -2.2429977174,
				"y": 2.0374770178,
				"z": -0.6088578766,
				"element": "H" 
			},
			{
				"x": -3.0049914255,
				"y": 3.7037414725,
				"z": 1.059698475,
				"element": "H" 
			}
		],
		 "valence_orbital": [ 
			{
				"type": "occ",
				"energy": -0.30691,
				"method": "rhf"
			},
			{
				"type": "occ",
				"energy": -0.30288,
				"method": "rhf"
			},
			{
				"type": "occ",
				"energy": -0.27477,
				"method": "rhf"
			},
			{
				"type": "occ",
				"energy": -0.27242,
				"method": "rhf"
			},
			{
				"type": "occ",
				"energy": -0.24871,
				"method": "rhf"
			},
			{
				"type": "unocc",
				"energy": -0.09979,
				"method": "rhf"
			},
			{
				"type": "unocc",
				"energy": -0.02365,
				"method": "rhf"
			},
			{
				"type": "unocc",
				"energy": -0.02309,
				"method": "rhf"
			},
			{
				"type": "unocc",
				"energy": -0.01163,
				"method": "rhf"
			},
			{
				"type": "unocc",
				"energy": 0.00874,
				"method": "rhf"
			}
		],
		"cosmo_sigma_profile": { 
			"-0.025": 0.0,
			"-0.024": 0.0,
			"-0.023": 0.0,
			"-0.022": 0.0,
			"-0.021": 0.0,
			"-0.02": 0.0,
			"-0.019": 0.0,
			"-0.018": 0.0,
			"-0.017": 0.542664395548,
			"-0.016": 1.89966467151,
			"-0.015": 1.6531696585,
			"-0.014": 1.67919866909,
			"-0.013": 1.51575914575,
			"-0.012": 2.12858361871,
			"-0.011": 1.26465209283,
			"-0.01": 1.81643311036,
			"-0.009": 2.81882717249,
			"-0.008": 6.2057156747,
			"-0.007": 12.8959409545,
			"-0.006": 16.9807154002,
			"-0.005": 15.5271554769,
			"-0.004": 14.8031547547,
			"-0.003": 19.5328068249,
			"-0.002": 14.3802529587,
			"-0.001": 12.5915772783,
			"0.0": 11.736554346,
			"0.001": 15.4306295382,
			"0.002": 16.9016706786,
			"0.003": 16.4375092416,
			"0.004": 15.5840428229,
			"0.005": 10.4997265831,
			"0.006": 3.71809818424,
			"0.007": 4.82892123705,
			"0.008": 4.27298782742,
			"0.009": 5.75423174265,
			"0.01": 7.88132468013,
			"0.011": 14.0519476435,
			"0.012": 6.61941945868,
			"0.013": 0.0035705252869,
			"0.014": 0.0,
			"0.015": 0.0,
			"0.016": 0.0,
			"0.017": 0.0,
			"0.018": 0.0,
			"0.019": 0.0,
			"0.02": 0.0,
			"0.021": 0.0,
			"0.022": 0.0,
			"0.023": 0.0,
			"0.024": 0.0,
			"0.025": 0.0
		}
	}
}
