{
	 "smiles": "ClC(=O)C(Cl)=O", 
	 "Tm": 261.15, 
	 "num_atms": 6, 
	 "gaussian": { 
		 "optdone": 1, 
		 "sigma_profile": "yes", 
		 "theory": "DFT", 
		 "functional": "B3LYP", 
		 "basiset": "6-31G**", 
		 "properties": { 
			 "R2extent": 2889.7931, 
			 "electric_dipole_moment_norm": 0.0001, 
			 "electric_quadrupole_moment_norm": 4.41349936332, 
			 "total_energy": -1147.02357099, 
			 "HOMO_LUMO_gap": 0.18173, 
			 "cosmo_polarized_energy": -4.04, 
			 "cosmo_cavitation_energy": 15.4, 
			 "cosmo_dispersion_energy": -11.53, 
			 "cosmo_repulsion_energy": 1.03, 
			 "cosmo_total_nonelectrostatic_energy": 4.9, 
			 "SMD_solvation_energy": 4.34 
		},
		"coords": [
			{
				"x": -1.5055309626,
				"y": 1.451395784,
				"z": 0.3468924772,
				"element": "Cl" 
			},
			{
				"x": -0.8424398195,
				"y": 1.9863934815,
				"z": 1.9000981371,
				"element": "C" 
			},
			{
				"x": -1.341620363,
				"y": 1.7423730496,
				"z": 2.9494895369,
				"element": "O" 
			},
			{
				"x": 0.4662113167,
				"y": 2.8098172042,
				"z": 1.7158847177,
				"element": "C" 
			},
			{
				"x": 1.1288343102,
				"y": 3.3455717098,
				"z": 3.2690314693,
				"element": "Cl" 
			},
			{
				"x": 0.9655455182,
				"y": 3.0535487709,
				"z": 0.6665036618,
				"element": "O" 
			}
		],
		 "valence_orbital": [ 
			{
				"type": "occ",
				"energy": -0.3613,
				"method": "rhf"
			},
			{
				"type": "occ",
				"energy": -0.36037,
				"method": "rhf"
			},
			{
				"type": "occ",
				"energy": -0.354,
				"method": "rhf"
			},
			{
				"type": "occ",
				"energy": -0.34669,
				"method": "rhf"
			},
			{
				"type": "occ",
				"energy": -0.31514,
				"method": "rhf"
			},
			{
				"type": "unocc",
				"energy": -0.13341,
				"method": "rhf"
			},
			{
				"type": "unocc",
				"energy": -0.03341,
				"method": "rhf"
			},
			{
				"type": "unocc",
				"energy": -0.00227,
				"method": "rhf"
			},
			{
				"type": "unocc",
				"energy": 0.0399,
				"method": "rhf"
			},
			{
				"type": "unocc",
				"energy": 0.19083,
				"method": "rhf"
			}
		],
		"cosmo_sigma_profile": { 
			"-0.025": 0.0,
			"-0.024": 0.0,
			"-0.023": 0.0,
			"-0.022": 0.0,
			"-0.021": 0.0,
			"-0.02": 0.0,
			"-0.019": 0.0,
			"-0.018": 0.0,
			"-0.017": 0.0,
			"-0.016": 0.0,
			"-0.015": 0.0,
			"-0.014": 0.0,
			"-0.013": 0.0499270464031,
			"-0.012": 1.65773650096,
			"-0.011": 1.05571537421,
			"-0.01": 2.14165636609,
			"-0.009": 2.22610248067,
			"-0.008": 2.0991186592,
			"-0.007": 2.09512050286,
			"-0.006": 3.52426337312,
			"-0.005": 2.98574303927,
			"-0.004": 6.04681628326,
			"-0.003": 7.90972114223,
			"-0.002": 8.42049696101,
			"-0.001": 8.60238705143,
			"0.0": 12.6165833929,
			"0.001": 18.9195664813,
			"0.002": 16.384255221,
			"0.003": 6.89662188456,
			"0.004": 5.90069791745,
			"0.005": 5.9545777451,
			"0.006": 10.0619810724,
			"0.007": 3.91330781102,
			"0.008": 0.0403777834702,
			"0.009": 0.0,
			"0.01": 0.0,
			"0.011": 0.0,
			"0.012": 0.0,
			"0.013": 0.0,
			"0.014": 0.0,
			"0.015": 0.0,
			"0.016": 0.0,
			"0.017": 0.0,
			"0.018": 0.0,
			"0.019": 0.0,
			"0.02": 0.0,
			"0.021": 0.0,
			"0.022": 0.0,
			"0.023": 0.0,
			"0.024": 0.0,
			"0.025": 0.0
		}
	}
}
