{
	 "smiles": "NC1=C2N=CNC2=CC(Cl)=C1", 
	 "Tm": 363.15, 
	 "num_atms": 17, 
	 "gaussian": { 
		 "optdone": 1, 
		 "sigma_profile": "yes", 
		 "theory": "DFT", 
		 "functional": "B3LYP", 
		 "basiset": "6-31G**", 
		 "properties": { 
			 "R2extent": 2388.7404, 
			 "electric_dipole_moment_norm": 2.49799721577, 
			 "electric_quadrupole_moment_norm": 20.5058665113, 
			 "total_energy": -894.804049368, 
			 "HOMO_LUMO_gap": 0.20042, 
			 "cosmo_polarized_energy": -18.92, 
			 "cosmo_cavitation_energy": 23.19, 
			 "cosmo_dispersion_energy": -17.66, 
			 "cosmo_repulsion_energy": 1.43, 
			 "cosmo_total_nonelectrostatic_energy": 6.96, 
			 "SMD_solvation_energy": 2.04 
		},
		"coords": [
			{
				"x": -0.9118818832,
				"y": 0.1711943115,
				"z": 2.5183029164,
				"element": "N" 
			},
			{
				"x": -0.8680462839,
				"y": 0.3341183211,
				"z": 1.0934823364,
				"element": "C" 
			},
			{
				"x": -1.6186893286,
				"y": -0.5268807317,
				"z": 0.269870171,
				"element": "C" 
			},
			{
				"x": -2.4550999199,
				"y": -1.5822945323,
				"z": 0.608128593,
				"element": "N" 
			},
			{
				"x": -2.894947403,
				"y": -2.0363616939,
				"z": -0.5341561728,
				"element": "C" 
			},
			{
				"x": -2.4073856722,
				"y": -1.3524734372,
				"z": -1.6283380636,
				"element": "N" 
			},
			{
				"x": -1.5740729477,
				"y": -0.3641670984,
				"z": -1.13920065,
				"element": "C" 
			},
			{
				"x": -0.8163183711,
				"y": 0.6175381457,
				"z": -1.7786773441,
				"element": "C" 
			},
			{
				"x": -0.0880676158,
				"y": 1.4495721556,
				"z": -0.9368657992,
				"element": "C" 
			},
			{
				"x": 0.900922462,
				"y": 2.721637139,
				"z": -1.6523140476,
				"element": "Cl" 
			},
			{
				"x": -0.1056200945,
				"y": 1.320873367,
				"z": 0.4626053935,
				"element": "C" 
			},
			{
				"x": 0.0210761898,
				"y": -0.0042675442,
				"z": 2.882681658,
				"element": "H" 
			},
			{
				"x": -1.2442739768,
				"y": 1.0239722348,
				"z": 2.9613088428,
				"element": "H" 
			},
			{
				"x": -3.5779974,
				"y": -2.8680062986,
				"z": -0.6535496324,
				"element": "H" 
			},
			{
				"x": -2.6188897612,
				"y": -1.538768052,
				"z": -2.5961826137,
				"element": "H" 
			},
			{
				"x": -0.786590449,
				"y": 0.736538184,
				"z": -2.8554685511,
				"element": "H" 
			},
			{
				"x": 0.4865824552,
				"y": 2.0038755294,
				"z": 1.0626729634,
				"element": "H" 
			}
		],
		 "valence_orbital": [ 
			{
				"type": "occ",
				"energy": -0.30455,
				"method": "rhf"
			},
			{
				"type": "occ",
				"energy": -0.273,
				"method": "rhf"
			},
			{
				"type": "occ",
				"energy": -0.24637,
				"method": "rhf"
			},
			{
				"type": "occ",
				"energy": -0.23645,
				"method": "rhf"
			},
			{
				"type": "occ",
				"energy": -0.22397,
				"method": "rhf"
			},
			{
				"type": "unocc",
				"energy": -0.02355,
				"method": "rhf"
			},
			{
				"type": "unocc",
				"energy": 0.00857,
				"method": "rhf"
			},
			{
				"type": "unocc",
				"energy": 0.03102,
				"method": "rhf"
			},
			{
				"type": "unocc",
				"energy": 0.04925,
				"method": "rhf"
			},
			{
				"type": "unocc",
				"energy": 0.06909,
				"method": "rhf"
			}
		],
		"cosmo_sigma_profile": { 
			"-0.025": 0.0,
			"-0.024": 0.0,
			"-0.023": 0.0,
			"-0.022": 0.0,
			"-0.021": 0.0,
			"-0.02": 0.0,
			"-0.019": 0.0,
			"-0.018": 0.0,
			"-0.017": 0.847603727543,
			"-0.016": 1.99837721025,
			"-0.015": 1.24505998303,
			"-0.014": 1.86441641222,
			"-0.013": 1.39625170127,
			"-0.012": 1.19995826745,
			"-0.011": 3.77452338229,
			"-0.01": 4.86457272238,
			"-0.009": 6.45685515866,
			"-0.008": 7.27394528172,
			"-0.007": 7.28695288931,
			"-0.006": 7.11834066856,
			"-0.005": 7.49970249681,
			"-0.004": 5.59700685778,
			"-0.003": 5.30983775571,
			"-0.002": 6.50655418492,
			"-0.001": 7.96888009702,
			"0.0": 9.75922203088,
			"0.001": 12.7855417503,
			"0.002": 15.3547350929,
			"0.003": 20.3473868265,
			"0.004": 16.0953423156,
			"0.005": 11.7120331502,
			"0.006": 2.92195059154,
			"0.007": 1.49442383832,
			"0.008": 1.62789492416,
			"0.009": 1.62540683727,
			"0.01": 1.06349797246,
			"0.011": 2.17212312694,
			"0.012": 1.24986245111,
			"0.013": 1.76474744626,
			"0.014": 1.35676849791,
			"0.015": 1.19389610781,
			"0.016": 1.53744779786,
			"0.017": 1.67550996096,
			"0.018": 1.40849041617,
			"0.019": 1.2660083948,
			"0.02": 1.01925467904,
			"0.021": 0.23192517409,
			"0.022": 0.0,
			"0.023": 0.0,
			"0.024": 0.0,
			"0.025": 0.0
		}
	}
}
