{
	 "smiles": "CC(C)N1C=NN=C1S", 
	 "Tm": 390.15, 
	 "num_atms": 18, 
	 "gaussian": { 
		 "optdone": 1, 
		 "sigma_profile": "yes", 
		 "theory": "DFT", 
		 "functional": "B3LYP", 
		 "basiset": "6-31G**", 
		 "properties": { 
			 "R2extent": 2079.2303, 
			 "electric_dipole_moment_norm": 5.17117799442, 
			 "electric_quadrupole_moment_norm": 16.8992267359, 
			 "total_energy": -758.372331338, 
			 "HOMO_LUMO_gap": 0.23581, 
			 "cosmo_polarized_energy": -14.99, 
			 "cosmo_cavitation_energy": 22.48, 
			 "cosmo_dispersion_energy": -16.83, 
			 "cosmo_repulsion_energy": 1.33, 
			 "cosmo_total_nonelectrostatic_energy": 6.98, 
			 "SMD_solvation_energy": 2.51 
		},
		"coords": [
			{
				"x": 1.1189050194,
				"y": 0.2172780628,
				"z": 0.6374719017,
				"element": "C" 
			},
			{
				"x": -0.3262228541,
				"y": 0.241885936,
				"z": 0.125328594,
				"element": "C" 
			},
			{
				"x": -1.2687874751,
				"y": 1.065449098,
				"z": 1.0111361686,
				"element": "C" 
			},
			{
				"x": -0.8455482253,
				"y": -1.1234274861,
				"z": -0.0945425935,
				"element": "N" 
			},
			{
				"x": -1.2217328091,
				"y": -1.6493194553,
				"z": -1.3090085842,
				"element": "C" 
			},
			{
				"x": -1.6414740218,
				"y": -2.8811320191,
				"z": -1.1905609307,
				"element": "N" 
			},
			{
				"x": -1.5502781792,
				"y": -3.2132731804,
				"z": 0.1471176388,
				"element": "N" 
			},
			{
				"x": -1.077450854,
				"y": -2.1598074227,
				"z": 0.7777814119,
				"element": "C" 
			},
			{
				"x": -0.7846447829,
				"y": -2.1032957728,
				"z": 2.5227317527,
				"element": "S" 
			},
			{
				"x": 1.5079250847,
				"y": 1.2387466384,
				"z": 0.6871658238,
				"element": "H" 
			},
			{
				"x": 1.1864488083,
				"y": -0.2176399398,
				"z": 1.6386223751,
				"element": "H" 
			},
			{
				"x": 1.7591329836,
				"y": -0.3640342541,
				"z": -0.0316839428,
				"element": "H" 
			},
			{
				"x": -0.3240447293,
				"y": 0.6886620841,
				"z": -0.8747477429,
				"element": "H" 
			},
			{
				"x": -2.2824070438,
				"y": 1.0710425501,
				"z": 0.6010990397,
				"element": "H" 
			},
			{
				"x": -1.3143665727,
				"y": 0.6713172502,
				"z": 2.0302532347,
				"element": "H" 
			},
			{
				"x": -0.9120949822,
				"y": 2.0984262597,
				"z": 1.065292313,
				"element": "H" 
			},
			{
				"x": -1.1642077365,
				"y": -1.0835538697,
				"z": -2.2284995239,
				"element": "H" 
			},
			{
				"x": -1.2093516297,
				"y": -3.3705244792,
				"z": 2.6887430639,
				"element": "H" 
			}
		],
		 "valence_orbital": [ 
			{
				"type": "occ",
				"energy": -0.31239,
				"method": "rhf"
			},
			{
				"type": "occ",
				"energy": -0.30413,
				"method": "rhf"
			},
			{
				"type": "occ",
				"energy": -0.28834,
				"method": "rhf"
			},
			{
				"type": "occ",
				"energy": -0.25305,
				"method": "rhf"
			},
			{
				"type": "occ",
				"energy": -0.23077,
				"method": "rhf"
			},
			{
				"type": "unocc",
				"energy": 0.00504,
				"method": "rhf"
			},
			{
				"type": "unocc",
				"energy": 0.01965,
				"method": "rhf"
			},
			{
				"type": "unocc",
				"energy": 0.04403,
				"method": "rhf"
			},
			{
				"type": "unocc",
				"energy": 0.05622,
				"method": "rhf"
			},
			{
				"type": "unocc",
				"energy": 0.07538,
				"method": "rhf"
			}
		],
		"cosmo_sigma_profile": { 
			"-0.025": 0.0,
			"-0.024": 0.0,
			"-0.023": 0.0,
			"-0.022": 0.0,
			"-0.021": 0.0,
			"-0.02": 0.0,
			"-0.019": 0.0,
			"-0.018": 0.0,
			"-0.017": 0.0,
			"-0.016": 0.0,
			"-0.015": 0.0,
			"-0.014": 0.0,
			"-0.013": 0.0211440192917,
			"-0.012": 1.02365782558,
			"-0.011": 1.8496283773,
			"-0.01": 4.1984135513,
			"-0.009": 4.17794550389,
			"-0.008": 3.2631987483,
			"-0.007": 4.0796076162,
			"-0.006": 4.5594999708,
			"-0.005": 11.6920216169,
			"-0.004": 16.9198497521,
			"-0.003": 14.6940320159,
			"-0.002": 15.7354869113,
			"-0.001": 21.0085544582,
			"0.0": 17.2835519684,
			"0.001": 8.51987003714,
			"0.002": 7.24913988919,
			"0.003": 4.47011872715,
			"0.004": 5.39173442111,
			"0.005": 4.46170977907,
			"0.006": 3.18066119129,
			"0.007": 2.90390555647,
			"0.008": 1.69138218894,
			"0.009": 2.00570925249,
			"0.01": 2.42332229557,
			"0.011": 1.7463705061,
			"0.012": 2.65470411313,
			"0.013": 3.79365764668,
			"0.014": 3.19070523243,
			"0.015": 3.17220934583,
			"0.016": 1.79762482437,
			"0.017": 1.04944902862,
			"0.018": 0.0,
			"0.019": 0.0,
			"0.02": 0.0,
			"0.021": 0.0,
			"0.022": 0.0,
			"0.023": 0.0,
			"0.024": 0.0,
			"0.025": 0.0
		}
	}
}
