{
	 "smiles": "COCCO", 
	 "Tm": 188.15, 
	 "num_atms": 13, 
	 "gaussian": { 
		 "optdone": 1, 
		 "sigma_profile": "yes", 
		 "theory": "DFT", 
		 "functional": "B3LYP", 
		 "basiset": "6-31G**", 
		 "properties": { 
			 "R2extent": 1076.3276, 
			 "electric_dipole_moment_norm": 2.36919847417, 
			 "electric_quadrupole_moment_norm": 7.52337109147, 
			 "total_energy": -269.558688277, 
			 "HOMO_LUMO_gap": 0.32884, 
			 "cosmo_polarized_energy": -6.97, 
			 "cosmo_cavitation_energy": 15.59, 
			 "cosmo_dispersion_energy": -11.81, 
			 "cosmo_repulsion_energy": 1.06, 
			 "cosmo_total_nonelectrostatic_energy": 4.84, 
			 "SMD_solvation_energy": 3.47 
		},
		"coords": [
			{
				"x": -0.102320875,
				"y": 1.5969269422,
				"z": -0.2097525385,
				"element": "C" 
			},
			{
				"x": 1.2662215301,
				"y": 1.9614201359,
				"z": -0.1532090684,
				"element": "O" 
			},
			{
				"x": 2.1167741785,
				"y": 1.1718585629,
				"z": -0.9830259356,
				"element": "C" 
			},
			{
				"x": 2.5173518032,
				"y": -0.1189498539,
				"z": -0.2731430585,
				"element": "C" 
			},
			{
				"x": 3.1064519016,
				"y": 0.1648946492,
				"z": 0.981813579,
				"element": "O" 
			},
			{
				"x": -0.6427362079,
				"y": 2.2862709484,
				"z": 0.4433713362,
				"element": "H" 
			},
			{
				"x": -0.2853437556,
				"y": 0.5701338911,
				"z": 0.1377704707,
				"element": "H" 
			},
			{
				"x": -0.4984942204,
				"y": 1.6917944839,
				"z": -1.2319130549,
				"element": "H" 
			},
			{
				"x": 1.6400016837,
				"y": 0.9640987022,
				"z": -1.9536048958,
				"element": "H" 
			},
			{
				"x": 3.0092647719,
				"y": 1.7820166087,
				"z": -1.1559349969,
				"element": "H" 
			},
			{
				"x": 1.6413822038,
				"y": -0.7814434791,
				"z": -0.1658728389,
				"element": "H" 
			},
			{
				"x": 3.2579842479,
				"y": -0.6585098476,
				"z": -0.8744298455,
				"element": "H" 
			},
			{
				"x": 2.5576627381,
				"y": 0.8624882562,
				"z": 1.3707308469,
				"element": "H" 
			}
		],
		 "valence_orbital": [ 
			{
				"type": "occ",
				"energy": -0.37845,
				"method": "rhf"
			},
			{
				"type": "occ",
				"energy": -0.32848,
				"method": "rhf"
			},
			{
				"type": "occ",
				"energy": -0.3206,
				"method": "rhf"
			},
			{
				"type": "occ",
				"energy": -0.27849,
				"method": "rhf"
			},
			{
				"type": "occ",
				"energy": -0.25157,
				"method": "rhf"
			},
			{
				"type": "unocc",
				"energy": 0.07727,
				"method": "rhf"
			},
			{
				"type": "unocc",
				"energy": 0.11059,
				"method": "rhf"
			},
			{
				"type": "unocc",
				"energy": 0.12543,
				"method": "rhf"
			},
			{
				"type": "unocc",
				"energy": 0.13571,
				"method": "rhf"
			},
			{
				"type": "unocc",
				"energy": 0.1451,
				"method": "rhf"
			}
		],
		"cosmo_sigma_profile": { 
			"-0.025": 0.0,
			"-0.024": 0.0,
			"-0.023": 0.0,
			"-0.022": 0.0,
			"-0.021": 0.0,
			"-0.02": 0.0,
			"-0.019": 0.0,
			"-0.018": 0.0,
			"-0.017": 0.0,
			"-0.016": 0.0,
			"-0.015": 0.0,
			"-0.014": 0.0,
			"-0.013": 0.0,
			"-0.012": 0.148064535171,
			"-0.011": 0.648731412123,
			"-0.01": 0.62403615231,
			"-0.009": 0.628530957915,
			"-0.008": 0.473581088711,
			"-0.007": 0.936191933083,
			"-0.006": 0.529546864626,
			"-0.005": 7.68827418825,
			"-0.004": 24.3589785651,
			"-0.003": 18.8021716601,
			"-0.002": 16.3226703758,
			"-0.001": 8.57717100598,
			"0.0": 5.03407659349,
			"0.001": 3.67559360537,
			"0.002": 3.25425915144,
			"0.003": 2.76069999736,
			"0.004": 2.39076616807,
			"0.005": 2.27431756489,
			"0.006": 1.98407896563,
			"0.007": 2.56966389615,
			"0.008": 2.32217594045,
			"0.009": 1.55720882819,
			"0.01": 2.37610948514,
			"0.011": 2.28182961922,
			"0.012": 2.44046476608,
			"0.013": 2.4555019525,
			"0.014": 2.32306818702,
			"0.015": 1.45450497877,
			"0.016": 0.0,
			"0.017": 0.0,
			"0.018": 0.0,
			"0.019": 0.0,
			"0.02": 0.0,
			"0.021": 0.0,
			"0.022": 0.0,
			"0.023": 0.0,
			"0.024": 0.0,
			"0.025": 0.0
		}
	}
}
