{
	 "smiles": "COC1=C(C=C(C=C1)S(N)(=O)=O)C(O)=O", 
	 "Tm": 498.15, 
	 "num_atms": 24, 
	 "gaussian": { 
		 "optdone": 1, 
		 "sigma_profile": "yes", 
		 "theory": "DFT", 
		 "functional": "B3LYP", 
		 "basiset": "6-31G**", 
		 "properties": { 
			 "R2extent": 5061.3991, 
			 "electric_dipole_moment_norm": 8.85146458503, 
			 "electric_quadrupole_moment_norm": 30.4986935686, 
			 "total_energy": -1139.26328492, 
			 "HOMO_LUMO_gap": 0.19789, 
			 "cosmo_polarized_energy": -28.78, 
			 "cosmo_cavitation_energy": 30.1, 
			 "cosmo_dispersion_energy": -22.53, 
			 "cosmo_repulsion_energy": 1.71, 
			 "cosmo_total_nonelectrostatic_energy": 9.29, 
			 "SMD_solvation_energy": 6.8 
		},
		"coords": [
			{
				"x": 0.6838921548,
				"y": 2.3425703131,
				"z": 1.9649865671,
				"element": "C" 
			},
			{
				"x": 1.4874702591,
				"y": 1.6925795345,
				"z": 0.9780530699,
				"element": "O" 
			},
			{
				"x": 1.058395127,
				"y": 0.5249560817,
				"z": 0.4076231827,
				"element": "C" 
			},
			{
				"x": 1.9183301421,
				"y": -0.0794317454,
				"z": -0.5408837328,
				"element": "C" 
			},
			{
				"x": 1.5125770572,
				"y": -1.2773770088,
				"z": -1.133421656,
				"element": "C" 
			},
			{
				"x": 0.2854210166,
				"y": -1.8540056837,
				"z": -0.8153774671,
				"element": "C" 
			},
			{
				"x": -0.5562640017,
				"y": -1.2537116847,
				"z": 0.1204822461,
				"element": "C" 
			},
			{
				"x": -0.1686702707,
				"y": -0.06451943,
				"z": 0.7335679866,
				"element": "C" 
			},
			{
				"x": -0.2196008822,
				"y": -3.3913152764,
				"z": -1.6022811353,
				"element": "S" 
			},
			{
				"x": -0.7204059792,
				"y": -3.0052310343,
				"z": -3.1564240641,
				"element": "N" 
			},
			{
				"x": -1.4174634311,
				"y": -3.8484531684,
				"z": -0.8991077887,
				"element": "O" 
			},
			{
				"x": 0.9749225448,
				"y": -4.2142707689,
				"z": -1.7677027179,
				"element": "O" 
			},
			{
				"x": 3.2626938046,
				"y": 0.4525958926,
				"z": -0.9888277799,
				"element": "C" 
			},
			{
				"x": 3.7212629527,
				"y": 1.5759764425,
				"z": -0.4113925855,
				"element": "O" 
			},
			{
				"x": 3.9069733392,
				"y": -0.1130476009,
				"z": -1.8440189033,
				"element": "O" 
			},
			{
				"x": 0.5306156363,
				"y": 1.6945637127,
				"z": 2.8341047614,
				"element": "H" 
			},
			{
				"x": 1.2431941542,
				"y": 3.2289412951,
				"z": 2.2635513865,
				"element": "H" 
			},
			{
				"x": -0.2826125842,
				"y": 2.6425989663,
				"z": 1.5469799673,
				"element": "H" 
			},
			{
				"x": 2.196071122,
				"y": -1.7434865026,
				"z": -1.8353420475,
				"element": "H" 
			},
			{
				"x": -1.4979020737,
				"y": -1.7270421204,
				"z": 0.3764360793,
				"element": "H" 
			},
			{
				"x": -0.8233796093,
				"y": 0.3909190207,
				"z": 1.4657875842,
				"element": "H" 
			},
			{
				"x": 0.0348703791,
				"y": -2.6856795623,
				"z": -3.7541919094,
				"element": "H" 
			},
			{
				"x": -1.5403672586,
				"y": -2.4081249224,
				"z": -3.180421073,
				"element": "H" 
			},
			{
				"x": 3.0751764012,
				"y": 1.8997952501,
				"z": 0.2427200297,
				"element": "H" 
			}
		],
		 "valence_orbital": [ 
			{
				"type": "occ",
				"energy": -0.30878,
				"method": "rhf"
			},
			{
				"type": "occ",
				"energy": -0.30798,
				"method": "rhf"
			},
			{
				"type": "occ",
				"energy": -0.2874,
				"method": "rhf"
			},
			{
				"type": "occ",
				"energy": -0.27729,
				"method": "rhf"
			},
			{
				"type": "occ",
				"energy": -0.2644,
				"method": "rhf"
			},
			{
				"type": "unocc",
				"energy": -0.06651,
				"method": "rhf"
			},
			{
				"type": "unocc",
				"energy": -0.04405,
				"method": "rhf"
			},
			{
				"type": "unocc",
				"energy": 0.03289,
				"method": "rhf"
			},
			{
				"type": "unocc",
				"energy": 0.04541,
				"method": "rhf"
			},
			{
				"type": "unocc",
				"energy": 0.05997,
				"method": "rhf"
			}
		],
		"cosmo_sigma_profile": { 
			"-0.025": 0.0,
			"-0.024": 0.0,
			"-0.023": 0.0,
			"-0.022": 0.0,
			"-0.021": 0.0,
			"-0.02": 0.0,
			"-0.019": 0.0,
			"-0.018": 0.0,
			"-0.017": 0.0,
			"-0.016": 0.392557952448,
			"-0.015": 2.50760174011,
			"-0.014": 2.89404667805,
			"-0.013": 2.97360553905,
			"-0.012": 2.74384671134,
			"-0.011": 3.03291266609,
			"-0.01": 2.29347430517,
			"-0.009": 3.36737317298,
			"-0.008": 9.04436722351,
			"-0.007": 15.6437965885,
			"-0.006": 15.531701315,
			"-0.005": 14.4809581721,
			"-0.004": 14.636670662,
			"-0.003": 10.4170880434,
			"-0.002": 12.43510948,
			"-0.001": 13.4825170814,
			"0.0": 16.1964052484,
			"0.001": 12.2474174743,
			"0.002": 6.66829249968,
			"0.003": 4.04790504683,
			"0.004": 4.52483236873,
			"0.005": 4.88713125,
			"0.006": 5.7208446752,
			"0.007": 6.88231518868,
			"0.008": 7.77088030696,
			"0.009": 6.27365108573,
			"0.01": 12.0571372367,
			"0.011": 16.6645439321,
			"0.012": 8.42997826872,
			"0.013": 2.00039149433,
			"0.014": 0.173765606507,
			"0.015": 0.0,
			"0.016": 0.0,
			"0.017": 0.0,
			"0.018": 0.0,
			"0.019": 0.0,
			"0.02": 0.0,
			"0.021": 0.0,
			"0.022": 0.0,
			"0.023": 0.0,
			"0.024": 0.0,
			"0.025": 0.0
		}
	}
}
