{
	 "smiles": "CC1(C)NC(=O)N(CC#N)C1=O", 
	 "Tm": 429.15, 
	 "num_atms": 21, 
	 "gaussian": { 
		 "optdone": 1, 
		 "sigma_profile": "yes", 
		 "theory": "DFT", 
		 "functional": "B3LYP", 
		 "basiset": "6-31G**", 
		 "properties": { 
			 "R2extent": 2934.4968, 
			 "electric_dipole_moment_norm": 5.3846037078, 
			 "electric_quadrupole_moment_norm": 17.7309799413, 
			 "total_energy": -586.895127981, 
			 "HOMO_LUMO_gap": 0.25522, 
			 "cosmo_polarized_energy": -18.67, 
			 "cosmo_cavitation_energy": 26.35, 
			 "cosmo_dispersion_energy": -17.61, 
			 "cosmo_repulsion_energy": 1.43, 
			 "cosmo_total_nonelectrostatic_energy": 10.17, 
			 "SMD_solvation_energy": 7.46 
		},
		"coords": [
			{
				"x": 0.1555752119,
				"y": 0.6937284221,
				"z": 0.8551685311,
				"element": "C" 
			},
			{
				"x": 1.047359931,
				"y": 0.430979835,
				"z": -0.3698680842,
				"element": "C" 
			},
			{
				"x": 1.3444993246,
				"y": 1.7268755248,
				"z": -1.1401607917,
				"element": "C" 
			},
			{
				"x": 2.2673833592,
				"y": -0.3004306833,
				"z": -0.0218392314,
				"element": "N" 
			},
			{
				"x": 2.3512113667,
				"y": -1.5480262922,
				"z": -0.5667072367,
				"element": "C" 
			},
			{
				"x": 3.2256202962,
				"y": -2.3833856378,
				"z": -0.460935606,
				"element": "O" 
			},
			{
				"x": 1.171679406,
				"y": -1.702107178,
				"z": -1.345291664,
				"element": "N" 
			},
			{
				"x": 0.8782806305,
				"y": -2.9114711232,
				"z": -2.0866054251,
				"element": "C" 
			},
			{
				"x": 0.0061966344,
				"y": -3.838853063,
				"z": -1.3439380136,
				"element": "C" 
			},
			{
				"x": -0.6794185916,
				"y": -4.5717986144,
				"z": -0.7629159993,
				"element": "N" 
			},
			{
				"x": 0.3573644138,
				"y": -0.586334857,
				"z": -1.3015358793,
				"element": "C" 
			},
			{
				"x": -0.6931468393,
				"y": -0.4405799521,
				"z": -1.8907934319,
				"element": "O" 
			},
			{
				"x": 0.6400025259,
				"y": 1.406064455,
				"z": 1.5308492092,
				"element": "H" 
			},
			{
				"x": -0.8006784347,
				"y": 1.1137316557,
				"z": 0.533165941,
				"element": "H" 
			},
			{
				"x": -0.0366765231,
				"y": -0.2315778528,
				"z": 1.4050099805,
				"element": "H" 
			},
			{
				"x": 2.0047840543,
				"y": 1.5338779563,
				"z": -1.9900750865,
				"element": "H" 
			},
			{
				"x": 0.4109821213,
				"y": 2.1562577996,
				"z": -1.5125418474,
				"element": "H" 
			},
			{
				"x": 1.828067505,
				"y": 2.457557458,
				"z": -0.4839569184,
				"element": "H" 
			},
			{
				"x": 2.9775903317,
				"y": 0.0311699081,
				"z": 0.6120199181,
				"element": "H" 
			},
			{
				"x": 0.3876353585,
				"y": -2.6382407975,
				"z": -3.0254566042,
				"element": "H" 
			},
			{
				"x": 1.8287879177,
				"y": -3.4091369633,
				"z": -2.2993917602,
				"element": "H" 
			}
		],
		 "valence_orbital": [ 
			{
				"type": "occ",
				"energy": -0.3341,
				"method": "rhf"
			},
			{
				"type": "occ",
				"energy": -0.30312,
				"method": "rhf"
			},
			{
				"type": "occ",
				"energy": -0.29701,
				"method": "rhf"
			},
			{
				"type": "occ",
				"energy": -0.27919,
				"method": "rhf"
			},
			{
				"type": "occ",
				"energy": -0.27788,
				"method": "rhf"
			},
			{
				"type": "unocc",
				"energy": -0.02266,
				"method": "rhf"
			},
			{
				"type": "unocc",
				"energy": 0.01347,
				"method": "rhf"
			},
			{
				"type": "unocc",
				"energy": 0.03143,
				"method": "rhf"
			},
			{
				"type": "unocc",
				"energy": 0.04636,
				"method": "rhf"
			},
			{
				"type": "unocc",
				"energy": 0.06532,
				"method": "rhf"
			}
		],
		"cosmo_sigma_profile": { 
			"-0.025": 0.0,
			"-0.024": 0.0,
			"-0.023": 0.0,
			"-0.022": 0.0,
			"-0.021": 0.0,
			"-0.02": 0.0,
			"-0.019": 0.0,
			"-0.018": 0.0,
			"-0.017": 0.0,
			"-0.016": 0.476322544155,
			"-0.015": 1.28060007823,
			"-0.014": 1.48666308554,
			"-0.013": 0.722937457358,
			"-0.012": 0.82485524127,
			"-0.011": 1.65648565264,
			"-0.01": 5.11015096586,
			"-0.009": 5.23822430088,
			"-0.008": 5.72113065995,
			"-0.007": 6.6259814951,
			"-0.006": 8.81319043518,
			"-0.005": 16.2102521391,
			"-0.004": 15.1657637616,
			"-0.003": 14.7762736761,
			"-0.002": 14.65989906,
			"-0.001": 20.4372735662,
			"0.0": 12.2637696211,
			"0.001": 6.50947257189,
			"0.002": 5.79784728252,
			"0.003": 5.72460949821,
			"0.004": 4.24109034639,
			"0.005": 5.30607535603,
			"0.006": 4.9277245639,
			"0.007": 5.85054265833,
			"0.008": 5.58943821086,
			"0.009": 5.68943957772,
			"0.01": 6.81648449826,
			"0.011": 8.39153599168,
			"0.012": 9.89400691234,
			"0.013": 2.83397239462,
			"0.014": 0.0607569650524,
			"0.015": 0.0,
			"0.016": 0.0,
			"0.017": 0.0,
			"0.018": 0.0,
			"0.019": 0.0,
			"0.02": 0.0,
			"0.021": 0.0,
			"0.022": 0.0,
			"0.023": 0.0,
			"0.024": 0.0,
			"0.025": 0.0
		}
	}
}
