{
	 "smiles": "CCNS(=O)(=O)C1=C(F)C=CC(F)=C1", 
	 "Tm": 342.15, 
	 "num_atms": 23, 
	 "gaussian": { 
		 "optdone": 1, 
		 "sigma_profile": "yes", 
		 "theory": "DFT", 
		 "functional": "B3LYP", 
		 "basiset": "6-31G**", 
		 "properties": { 
			 "R2extent": 3700.2675, 
			 "electric_dipole_moment_norm": 3.58827519012, 
			 "electric_quadrupole_moment_norm": 18.2932218737, 
			 "total_energy": -1113.25394209, 
			 "HOMO_LUMO_gap": 0.20967, 
			 "cosmo_polarized_energy": -14.2, 
			 "cosmo_cavitation_energy": 29.34, 
			 "cosmo_dispersion_energy": -21.1, 
			 "cosmo_repulsion_energy": 1.58, 
			 "cosmo_total_nonelectrostatic_energy": 9.82, 
			 "SMD_solvation_energy": 5.32 
		},
		"coords": [
			{
				"x": -1.2419197448,
				"y": 0.9106870261,
				"z": -2.942572383,
				"element": "C" 
			},
			{
				"x": 0.1126529138,
				"y": 0.7060342366,
				"z": -2.2650972512,
				"element": "C" 
			},
			{
				"x": 0.1601507796,
				"y": -0.432216777,
				"z": -1.3260268158,
				"element": "N" 
			},
			{
				"x": -0.4452314609,
				"y": -0.2476351685,
				"z": 0.2322310029,
				"element": "S" 
			},
			{
				"x": -1.0795167987,
				"y": 1.0663265894,
				"z": 0.3585912286,
				"element": "O" 
			},
			{
				"x": -1.1639383667,
				"y": -1.4851225681,
				"z": 0.5443499903,
				"element": "O" 
			},
			{
				"x": 1.0520007971,
				"y": -0.2052700697,
				"z": 1.2349154582,
				"element": "C" 
			},
			{
				"x": 0.9264142628,
				"y": 0.0299210528,
				"z": 2.6074661313,
				"element": "C" 
			},
			{
				"x": -0.2899431827,
				"y": 0.2203434087,
				"z": 3.1410020031,
				"element": "F" 
			},
			{
				"x": 2.0400666563,
				"y": 0.0650495067,
				"z": 3.4374017848,
				"element": "C" 
			},
			{
				"x": 3.3084494536,
				"y": -0.1393522501,
				"z": 2.8943097523,
				"element": "C" 
			},
			{
				"x": 3.424964742,
				"y": -0.37721551,
				"z": 1.5295530256,
				"element": "C" 
			},
			{
				"x": 4.6477528761,
				"y": -0.5775520129,
				"z": 0.9999316238,
				"element": "F" 
			},
			{
				"x": 2.3183641473,
				"y": -0.4162415213,
				"z": 0.6888129261,
				"element": "C" 
			},
			{
				"x": -1.5467640007,
				"y": 0.0147376221,
				"z": -3.4953635433,
				"element": "H" 
			},
			{
				"x": -2.0100414335,
				"y": 1.1427072081,
				"z": -2.2011443085,
				"element": "H" 
			},
			{
				"x": -1.1863607538,
				"y": 1.7394548846,
				"z": -3.6562223867,
				"element": "H" 
			},
			{
				"x": 0.8972231521,
				"y": 0.5284059781,
				"z": -3.0093977943,
				"element": "H" 
			},
			{
				"x": 0.3974276847,
				"y": 1.5996418794,
				"z": -1.7049497515,
				"element": "H" 
			},
			{
				"x": -0.2002702048,
				"y": -1.307666859,
				"z": -1.6966320877,
				"element": "H" 
			},
			{
				"x": 1.9000607327,
				"y": 0.2509528371,
				"z": 4.4963668947,
				"element": "H" 
			},
			{
				"x": 4.1977214012,
				"y": -0.1176232913,
				"z": 3.5141371031,
				"element": "H" 
			},
			{
				"x": 2.4342363474,
				"y": -0.6076662021,
				"z": -0.3703626026,
				"element": "H" 
			}
		],
		 "valence_orbital": [ 
			{
				"type": "occ",
				"energy": -0.31433,
				"method": "rhf"
			},
			{
				"type": "occ",
				"energy": -0.30926,
				"method": "rhf"
			},
			{
				"type": "occ",
				"energy": -0.28271,
				"method": "rhf"
			},
			{
				"type": "occ",
				"energy": -0.27831,
				"method": "rhf"
			},
			{
				"type": "occ",
				"energy": -0.25597,
				"method": "rhf"
			},
			{
				"type": "unocc",
				"energy": -0.0463,
				"method": "rhf"
			},
			{
				"type": "unocc",
				"energy": -0.01771,
				"method": "rhf"
			},
			{
				"type": "unocc",
				"energy": 0.041,
				"method": "rhf"
			},
			{
				"type": "unocc",
				"energy": 0.06463,
				"method": "rhf"
			},
			{
				"type": "unocc",
				"energy": 0.07395,
				"method": "rhf"
			}
		],
		"cosmo_sigma_profile": { 
			"-0.025": 0.0,
			"-0.024": 0.0,
			"-0.023": 0.0,
			"-0.022": 0.0,
			"-0.021": 0.0,
			"-0.02": 0.0,
			"-0.019": 0.0,
			"-0.018": 0.0,
			"-0.017": 0.0,
			"-0.016": 0.0,
			"-0.015": 0.192893142301,
			"-0.014": 0.887239766458,
			"-0.013": 1.12373779217,
			"-0.012": 0.508062099794,
			"-0.011": 1.21647742935,
			"-0.01": 1.02319242931,
			"-0.009": 3.33223536763,
			"-0.008": 5.96686693253,
			"-0.007": 6.66888556551,
			"-0.006": 7.51337243716,
			"-0.005": 11.140316568,
			"-0.004": 15.2199843107,
			"-0.003": 16.7321345433,
			"-0.002": 20.1919364663,
			"-0.001": 25.5189543787,
			"0.0": 26.3097477985,
			"0.001": 15.2251725936,
			"0.002": 9.04828139875,
			"0.003": 14.6489611666,
			"0.004": 13.6135709277,
			"0.005": 4.38265727579,
			"0.006": 3.22605394355,
			"0.007": 3.94824640432,
			"0.008": 3.79030502877,
			"0.009": 4.00993208477,
			"0.01": 9.90499699252,
			"0.011": 7.94964612258,
			"0.012": 0.642350407323,
			"0.013": 0.0,
			"0.014": 0.0,
			"0.015": 0.0,
			"0.016": 0.0,
			"0.017": 0.0,
			"0.018": 0.0,
			"0.019": 0.0,
			"0.02": 0.0,
			"0.021": 0.0,
			"0.022": 0.0,
			"0.023": 0.0,
			"0.024": 0.0,
			"0.025": 0.0
		}
	}
}
