{
	 "smiles": "CO[C@]1(C)OC(CNC2=CC=C(C=C2)S(C)(=O)=O)C(CNC2=CC=C(C=C2)S(C)(=O)=O)O[C@@]1(C)OC", 
	 "Tm": 467.15, 
	 "num_atms": 70, 
	 "gaussian": { 
		 "optdone": 1, 
		 "sigma_profile": "yes", 
		 "theory": "DFT", 
		 "functional": "B3LYP", 
		 "basiset": "6-31G**", 
		 "properties": { 
			 "R2extent": 24012.7055, 
			 "electric_dipole_moment_norm": 13.5680989884, 
			 "electric_quadrupole_moment_norm": 44.5138201208, 
			 "total_energy": -2442.56312624, 
			 "HOMO_LUMO_gap": 0.19256, 
			 "cosmo_polarized_energy": -39.08, 
			 "cosmo_cavitation_energy": 71.8, 
			 "cosmo_dispersion_energy": -44.5, 
			 "cosmo_repulsion_energy": 3.17, 
			 "cosmo_total_nonelectrostatic_energy": 30.47, 
			 "SMD_solvation_energy": 10.8 
		},
		"coords": [
			{
				"x": 5.4074531788,
				"y": -0.4023114256,
				"z": 0.8453992415,
				"element": "C" 
			},
			{
				"x": 4.3277092742,
				"y": -0.926403921,
				"z": 1.6129268059,
				"element": "O" 
			},
			{
				"x": 3.6245137,
				"y": -2.0202498501,
				"z": 1.0381994355,
				"element": "C" 
			},
			{
				"x": 4.5440381393,
				"y": -3.195284534,
				"z": 0.7092276352,
				"element": "C" 
			},
			{
				"x": 3.0406072182,
				"y": -1.6422308323,
				"z": -0.1967503653,
				"element": "O" 
			},
			{
				"x": 1.8000277325,
				"y": -0.9273699264,
				"z": -0.195115134,
				"element": "C" 
			},
			{
				"x": 0.7761744603,
				"y": -1.8519787865,
				"z": -0.9103664989,
				"element": "C" 
			},
			{
				"x": -0.5860578741,
				"y": -1.3572606413,
				"z": -0.946712847,
				"element": "N" 
			},
			{
				"x": -1.1036701516,
				"y": -0.4124076356,
				"z": -1.8063519844,
				"element": "C" 
			},
			{
				"x": -2.4909179125,
				"y": -0.1371236605,
				"z": -1.7660320144,
				"element": "C" 
			},
			{
				"x": -3.0520697186,
				"y": 0.8245489372,
				"z": -2.5905166257,
				"element": "C" 
			},
			{
				"x": -2.23979881,
				"y": 1.5439321081,
				"z": -3.4756215147,
				"element": "C" 
			},
			{
				"x": -0.8731355552,
				"y": 1.2685174071,
				"z": -3.5504875178,
				"element": "C" 
			},
			{
				"x": -0.3046678456,
				"y": 0.3013456684,
				"z": -2.7254853787,
				"element": "C" 
			},
			{
				"x": -2.9698206199,
				"y": 2.7803165373,
				"z": -4.5464036385,
				"element": "S" 
			},
			{
				"x": -2.928540441,
				"y": 4.3084841418,
				"z": -3.5831797086,
				"element": "C" 
			},
			{
				"x": -2.0671070757,
				"y": 2.9612027017,
				"z": -5.6969145836,
				"element": "O" 
			},
			{
				"x": -4.38463703,
				"y": 2.4201297495,
				"z": -4.7426152687,
				"element": "O" 
			},
			{
				"x": 1.3387714447,
				"y": -0.4213126687,
				"z": 1.1820271733,
				"element": "C" 
			},
			{
				"x": 1.8832968113,
				"y": 0.9782579677,
				"z": 1.557915464,
				"element": "C" 
			},
			{
				"x": 1.0444945103,
				"y": 1.6969043229,
				"z": 2.499953231,
				"element": "N" 
			},
			{
				"x": -0.1640047982,
				"y": 2.2673013389,
				"z": 2.1615888814,
				"element": "C" 
			},
			{
				"x": -1.006056588,
				"y": 2.7856742791,
				"z": 3.1751911476,
				"element": "C" 
			},
			{
				"x": -2.2095105458,
				"y": 3.3970798004,
				"z": 2.8606291787,
				"element": "C" 
			},
			{
				"x": -2.6110215818,
				"y": 3.4975692116,
				"z": 1.5216276163,
				"element": "C" 
			},
			{
				"x": -1.7921560024,
				"y": 3.0000515923,
				"z": 0.5073200198,
				"element": "C" 
			},
			{
				"x": -0.5832657523,
				"y": 2.3922218058,
				"z": 0.8182535163,
				"element": "C" 
			},
			{
				"x": -4.1655440458,
				"y": 4.2587858899,
				"z": 1.0954369624,
				"element": "S" 
			},
			{
				"x": -5.3761994661,
				"y": 2.9192922449,
				"z": 1.2252980186,
				"element": "C" 
			},
			{
				"x": -4.5019841984,
				"y": 5.2494951579,
				"z": 2.1303602019,
				"element": "O" 
			},
			{
				"x": -4.1086442015,
				"y": 4.6421265486,
				"z": -0.3284684193,
				"element": "O" 
			},
			{
				"x": 1.6117989748,
				"y": -1.3157247748,
				"z": 2.2734779324,
				"element": "O" 
			},
			{
				"x": 2.5302663577,
				"y": -2.3805018626,
				"z": 2.0942628217,
				"element": "C" 
			},
			{
				"x": 3.1117103868,
				"y": -2.6615528384,
				"z": 3.4797168832,
				"element": "C" 
			},
			{
				"x": 1.8691493638,
				"y": -3.5173002772,
				"z": 1.5481919238,
				"element": "O" 
			},
			{
				"x": 0.8257012627,
				"y": -4.0732776116,
				"z": 2.3402711254,
				"element": "C" 
			},
			{
				"x": 6.2864871439,
				"y": -1.0575260166,
				"z": 0.8771916266,
				"element": "H" 
			},
			{
				"x": 5.1150340657,
				"y": -0.2409406687,
				"z": -0.1975735632,
				"element": "H" 
			},
			{
				"x": 5.6693458728,
				"y": 0.5560686908,
				"z": 1.2988911528,
				"element": "H" 
			},
			{
				"x": 5.1716388263,
				"y": -2.9417812687,
				"z": -0.1479508592,
				"element": "H" 
			},
			{
				"x": 5.1861843472,
				"y": -3.432213255,
				"z": 1.5609639659,
				"element": "H" 
			},
			{
				"x": 3.9455736538,
				"y": -4.0687826839,
				"z": 0.4533222118,
				"element": "H" 
			},
			{
				"x": 1.9530573392,
				"y": -0.0394938877,
				"z": -0.8216662438,
				"element": "H" 
			},
			{
				"x": 1.1517310569,
				"y": -2.0396169672,
				"z": -1.9239533227,
				"element": "H" 
			},
			{
				"x": 0.7806570361,
				"y": -2.8060805311,
				"z": -0.3834767742,
				"element": "H" 
			},
			{
				"x": -1.2592693185,
				"y": -1.8532256446,
				"z": -0.3850209148,
				"element": "H" 
			},
			{
				"x": -3.1228871309,
				"y": -0.6991478102,
				"z": -1.0824140396,
				"element": "H" 
			},
			{
				"x": -4.1210050706,
				"y": 1.0112303243,
				"z": -2.5745727511,
				"element": "H" 
			},
			{
				"x": -0.2619486023,
				"y": 1.8005195149,
				"z": -4.2723857984,
				"element": "H" 
			},
			{
				"x": 0.7560490936,
				"y": 0.0909214804,
				"z": -2.8071313677,
				"element": "H" 
			},
			{
				"x": -1.8888484055,
				"y": 4.5675147378,
				"z": -3.3768020766,
				"element": "H" 
			},
			{
				"x": -3.3856408391,
				"y": 5.0731786658,
				"z": -4.2151746908,
				"element": "H" 
			},
			{
				"x": -3.4959441738,
				"y": 4.1950721923,
				"z": -2.6573680779,
				"element": "H" 
			},
			{
				"x": 0.2476849323,
				"y": -0.3375501703,
				"z": 1.1238339858,
				"element": "H" 
			},
			{
				"x": 2.8719770259,
				"y": 0.8543462998,
				"z": 1.999047078,
				"element": "H" 
			},
			{
				"x": 2.0021776237,
				"y": 1.5926675678,
				"z": 0.6590560593,
				"element": "H" 
			},
			{
				"x": 1.1618912444,
				"y": 1.449126086,
				"z": 3.4711981681,
				"element": "H" 
			},
			{
				"x": -0.6904098914,
				"y": 2.7173109711,
				"z": 4.2132090706,
				"element": "H" 
			},
			{
				"x": -2.8328546436,
				"y": 3.8166850764,
				"z": 3.6437882269,
				"element": "H" 
			},
			{
				"x": -2.0997914171,
				"y": 3.0924044234,
				"z": -0.5277337283,
				"element": "H" 
			},
			{
				"x": 0.0271831418,
				"y": 2.0142422493,
				"z": 0.0082252922,
				"element": "H" 
			},
			{
				"x": -5.3930445233,
				"y": 2.5486496741,
				"z": 2.2511325062,
				"element": "H" 
			},
			{
				"x": -6.343870325,
				"y": 3.3505003903,
				"z": 0.9605219449,
				"element": "H" 
			},
			{
				"x": -5.1081636267,
				"y": 2.1272064792,
				"z": 0.5248285236,
				"element": "H" 
			},
			{
				"x": 3.7772000735,
				"y": -1.8489499027,
				"z": 3.7692160412,
				"element": "H" 
			},
			{
				"x": 2.3036021216,
				"y": -2.7262768312,
				"z": 4.2118805873,
				"element": "H" 
			},
			{
				"x": 3.6681147178,
				"y": -3.6019931126,
				"z": 3.4825578468,
				"element": "H" 
			},
			{
				"x": 0.2926585832,
				"y": -4.7762745748,
				"z": 1.6959961208,
				"element": "H" 
			},
			{
				"x": 0.131591893,
				"y": -3.2998976242,
				"z": 2.6877800523,
				"element": "H" 
			},
			{
				"x": 1.215335574,
				"y": -4.6221400387,
				"z": 3.2064300311,
				"element": "H" 
			}
		],
		 "valence_orbital": [ 
			{
				"type": "occ",
				"energy": -0.27061,
				"method": "rhf"
			},
			{
				"type": "occ",
				"energy": -0.26925,
				"method": "rhf"
			},
			{
				"type": "occ",
				"energy": -0.26589,
				"method": "rhf"
			},
			{
				"type": "occ",
				"energy": -0.21807,
				"method": "rhf"
			},
			{
				"type": "occ",
				"energy": -0.2156,
				"method": "rhf"
			},
			{
				"type": "unocc",
				"energy": -0.02304,
				"method": "rhf"
			},
			{
				"type": "unocc",
				"energy": -0.02092,
				"method": "rhf"
			},
			{
				"type": "unocc",
				"energy": -0.01882,
				"method": "rhf"
			},
			{
				"type": "unocc",
				"energy": -0.01618,
				"method": "rhf"
			},
			{
				"type": "unocc",
				"energy": 0.05036,
				"method": "rhf"
			}
		],
		"cosmo_sigma_profile": { 
			"-0.025": 0.0,
			"-0.024": 0.0,
			"-0.023": 0.0,
			"-0.022": 0.0,
			"-0.021": 0.0,
			"-0.02": 0.0,
			"-0.019": 0.0,
			"-0.018": 0.0,
			"-0.017": 0.0,
			"-0.016": 0.0,
			"-0.015": 0.0,
			"-0.014": 0.353958275783,
			"-0.013": 2.54713962955,
			"-0.012": 2.78680209402,
			"-0.011": 2.8286853191,
			"-0.01": 2.81534721055,
			"-0.009": 3.06574887154,
			"-0.008": 11.0681223138,
			"-0.007": 19.2245194993,
			"-0.006": 24.3310600684,
			"-0.005": 33.9317702693,
			"-0.004": 47.6660388326,
			"-0.003": 55.7652326196,
			"-0.002": 55.5920568778,
			"-0.001": 41.9850818761,
			"0.0": 40.6997170314,
			"0.001": 33.2308842376,
			"0.002": 25.7177963402,
			"0.003": 29.85265146,
			"0.004": 28.7975879014,
			"0.005": 15.6054767837,
			"0.006": 12.0543881826,
			"0.007": 10.4619194167,
			"0.008": 9.73615066934,
			"0.009": 8.29969661831,
			"0.01": 9.0773056176,
			"0.011": 12.8907595104,
			"0.012": 17.2823066487,
			"0.013": 8.25262171056,
			"0.014": 0.0,
			"0.015": 0.0,
			"0.016": 0.0,
			"0.017": 0.0,
			"0.018": 0.0,
			"0.019": 0.0,
			"0.02": 0.0,
			"0.021": 0.0,
			"0.022": 0.0,
			"0.023": 0.0,
			"0.024": 0.0,
			"0.025": 0.0
		}
	}
}
