{
	 "smiles": "OCCC1=CC(N2N=C3C=CC=CC3=N2)=C(O)C=C1", 
	 "Tm": 395.15, 
	 "num_atms": 32, 
	 "gaussian": { 
		 "optdone": 1, 
		 "sigma_profile": "yes", 
		 "theory": "DFT", 
		 "functional": "B3LYP", 
		 "basiset": "6-31G**", 
		 "properties": { 
			 "R2extent": 6900.9867, 
			 "electric_dipole_moment_norm": 3.31965870234, 
			 "electric_quadrupole_moment_norm": 16.4685421917, 
			 "total_energy": -855.976855394, 
			 "HOMO_LUMO_gap": 0.16991, 
			 "cosmo_polarized_energy": -19.31, 
			 "cosmo_cavitation_energy": 36.51, 
			 "cosmo_dispersion_energy": -26.57, 
			 "cosmo_repulsion_energy": 2.07, 
			 "cosmo_total_nonelectrostatic_energy": 12.01, 
			 "SMD_solvation_energy": 4.56 
		},
		"coords": [
			{
				"x": 0.332563082,
				"y": 1.4407525309,
				"z": 3.6673980107,
				"element": "O" 
			},
			{
				"x": -0.4537359754,
				"y": 0.7263572435,
				"z": 4.6130851366,
				"element": "C" 
			},
			{
				"x": -1.6491213037,
				"y": 0.1129039673,
				"z": 3.8776852184,
				"element": "C" 
			},
			{
				"x": -1.2914272996,
				"y": -1.0227098284,
				"z": 2.9424841813,
				"element": "C" 
			},
			{
				"x": -0.5588095458,
				"y": -0.7929497308,
				"z": 1.7722008758,
				"element": "C" 
			},
			{
				"x": -0.2126377555,
				"y": -1.8393098571,
				"z": 0.9182589849,
				"element": "C" 
			},
			{
				"x": 0.527966485,
				"y": -1.5355394498,
				"z": -0.2626830535,
				"element": "N" 
			},
			{
				"x": 0.2255325387,
				"y": -0.4552966643,
				"z": -0.9909953629,
				"element": "N" 
			},
			{
				"x": 1.1646775811,
				"y": -0.4783600082,
				"z": -1.9597950485,
				"element": "C" 
			},
			{
				"x": 1.3826820456,
				"y": 0.3980803663,
				"z": -3.0493805508,
				"element": "C" 
			},
			{
				"x": 2.4393197434,
				"y": 0.1071754299,
				"z": -3.883823878,
				"element": "C" 
			},
			{
				"x": 3.2833158833,
				"y": -1.0257133094,
				"z": -3.6694569846,
				"element": "C" 
			},
			{
				"x": 3.0866976579,
				"y": -1.8921978448,
				"z": -2.6169913569,
				"element": "C" 
			},
			{
				"x": 2.0058937179,
				"y": -1.6118775341,
				"z": -1.7473922548,
				"element": "C" 
			},
			{
				"x": 1.5768062359,
				"y": -2.2644607208,
				"z": -0.6468706459,
				"element": "N" 
			},
			{
				"x": -0.6090732007,
				"y": -3.1598874478,
				"z": 1.2021741618,
				"element": "C" 
			},
			{
				"x": -0.3077830774,
				"y": -4.1501006147,
				"z": 0.3223895255,
				"element": "O" 
			},
			{
				"x": -1.3309889651,
				"y": -3.3907927591,
				"z": 2.3768092954,
				"element": "C" 
			},
			{
				"x": -1.664221041,
				"y": -2.340571347,
				"z": 3.2300513375,
				"element": "C" 
			},
			{
				"x": 1.1802857931,
				"y": 1.6576182366,
				"z": 4.0732765026,
				"element": "H" 
			},
			{
				"x": -0.8244678321,
				"y": 1.3988780913,
				"z": 5.4035655851,
				"element": "H" 
			},
			{
				"x": 0.1283851319,
				"y": -0.0714866936,
				"z": 5.0992652925,
				"element": "H" 
			},
			{
				"x": -2.3637403248,
				"y": -0.2438547183,
				"z": 4.6283334714,
				"element": "H" 
			},
			{
				"x": -2.1453718592,
				"y": 0.9209649147,
				"z": 3.3261965851,
				"element": "H" 
			},
			{
				"x": -0.2372292981,
				"y": 0.2089193678,
				"z": 1.5175910295,
				"element": "H" 
			},
			{
				"x": 0.740285387,
				"y": 1.2573177073,
				"z": -3.2100266682,
				"element": "H" 
			},
			{
				"x": 2.6443314167,
				"y": 0.7531069123,
				"z": -4.7326743603,
				"element": "H" 
			},
			{
				"x": 4.1008194307,
				"y": -1.2017952595,
				"z": -4.3625943502,
				"element": "H" 
			},
			{
				"x": 3.7243791143,
				"y": -2.7540700152,
				"z": -2.4518728115,
				"element": "H" 
			},
			{
				"x": -0.6808768316,
				"y": -4.9792834513,
				"z": 0.6489207569,
				"element": "H" 
			},
			{
				"x": -1.6465693161,
				"y": -4.4051190271,
				"z": 2.6120852441,
				"element": "H" 
			},
			{
				"x": -2.2313876181,
				"y": -2.5551984867,
				"z": 4.132286131,
				"element": "H" 
			}
		],
		 "valence_orbital": [ 
			{
				"type": "occ",
				"energy": -0.27344,
				"method": "rhf"
			},
			{
				"type": "occ",
				"energy": -0.26741,
				"method": "rhf"
			},
			{
				"type": "occ",
				"energy": -0.23713,
				"method": "rhf"
			},
			{
				"type": "occ",
				"energy": -0.21835,
				"method": "rhf"
			},
			{
				"type": "occ",
				"energy": -0.21774,
				"method": "rhf"
			},
			{
				"type": "unocc",
				"energy": -0.04783,
				"method": "rhf"
			},
			{
				"type": "unocc",
				"energy": -0.00308,
				"method": "rhf"
			},
			{
				"type": "unocc",
				"energy": 0.00788,
				"method": "rhf"
			},
			{
				"type": "unocc",
				"energy": 0.03218,
				"method": "rhf"
			},
			{
				"type": "unocc",
				"energy": 0.04479,
				"method": "rhf"
			}
		],
		"cosmo_sigma_profile": { 
			"-0.025": 0.0,
			"-0.024": 0.0,
			"-0.023": 0.0,
			"-0.022": 0.0,
			"-0.021": 0.0,
			"-0.02": 0.0,
			"-0.019": 0.148067936753,
			"-0.018": 1.12704181257,
			"-0.017": 0.9196593818,
			"-0.016": 1.51722612702,
			"-0.015": 2.43130606526,
			"-0.014": 2.01234252146,
			"-0.013": 1.3249864872,
			"-0.012": 2.01651735516,
			"-0.011": 2.26404593198,
			"-0.01": 1.84637957345,
			"-0.009": 1.38103735937,
			"-0.008": 2.20152657495,
			"-0.007": 5.90095831169,
			"-0.006": 12.3652659793,
			"-0.005": 16.8667625424,
			"-0.004": 19.7383868513,
			"-0.003": 22.0847524628,
			"-0.002": 20.3822577348,
			"-0.001": 18.9644743254,
			"0.0": 15.8324843234,
			"0.001": 19.3695235196,
			"0.002": 22.3480640541,
			"0.003": 25.6456356514,
			"0.004": 24.2178930229,
			"0.005": 9.86973057517,
			"0.006": 6.30134190148,
			"0.007": 6.25596473083,
			"0.008": 4.39607404213,
			"0.009": 4.19202704088,
			"0.01": 3.79828894857,
			"0.011": 3.22052354822,
			"0.012": 3.28613873818,
			"0.013": 3.37477231567,
			"0.014": 1.58328857894,
			"0.015": 1.4984807407,
			"0.016": 0.278260504381,
			"0.017": 0.0,
			"0.018": 0.0,
			"0.019": 0.0,
			"0.02": 0.0,
			"0.021": 0.0,
			"0.022": 0.0,
			"0.023": 0.0,
			"0.024": 0.0,
			"0.025": 0.0
		}
	}
}
