{
	 "smiles": "CNC(=O)C1=CC(CCl)=CC=C1", 
	 "Tm": 335.15, 
	 "num_atms": 22, 
	 "gaussian": { 
		 "optdone": 1, 
		 "sigma_profile": "yes", 
		 "theory": "DFT", 
		 "functional": "B3LYP", 
		 "basiset": "6-31G**", 
		 "properties": { 
			 "R2extent": 3506.4522, 
			 "electric_dipole_moment_norm": 3.5669738673, 
			 "electric_quadrupole_moment_norm": 13.7554944502, 
			 "total_energy": -939.169135184, 
			 "HOMO_LUMO_gap": 0.20144, 
			 "cosmo_polarized_energy": -14.03, 
			 "cosmo_cavitation_energy": 27.78, 
			 "cosmo_dispersion_energy": -20.03, 
			 "cosmo_repulsion_energy": 1.63, 
			 "cosmo_total_nonelectrostatic_energy": 9.38, 
			 "SMD_solvation_energy": 4.68 
		},
		"coords": [
			{
				"x": -1.3327862965,
				"y": -1.5673232797,
				"z": 1.4932816474,
				"element": "C" 
			},
			{
				"x": -0.4471191271,
				"y": -0.5711657649,
				"z": 2.0806178225,
				"element": "N" 
			},
			{
				"x": 0.2787493306,
				"y": 0.411732581,
				"z": 1.4538333312,
				"element": "C" 
			},
			{
				"x": 0.6654757263,
				"y": 1.399409516,
				"z": 2.0727084789,
				"element": "O" 
			},
			{
				"x": 0.6225886126,
				"y": 0.2391864868,
				"z": -0.0010054715,
				"element": "C" 
			},
			{
				"x": 0.6810503967,
				"y": 1.3967890759,
				"z": -0.7866103239,
				"element": "C" 
			},
			{
				"x": 1.0569799694,
				"y": 1.335864314,
				"z": -2.130176425,
				"element": "C" 
			},
			{
				"x": 1.1006246443,
				"y": 2.5826913919,
				"z": -2.9624441941,
				"element": "C" 
			},
			{
				"x": -0.4515476611,
				"y": 2.8408452681,
				"z": -3.9119460268,
				"element": "Cl" 
			},
			{
				"x": 1.4054527487,
				"y": 0.0954903496,
				"z": -2.6847078634,
				"element": "C" 
			},
			{
				"x": 1.3788164822,
				"y": -1.0578536101,
				"z": -1.9041386417,
				"element": "C" 
			},
			{
				"x": 0.9839130175,
				"y": -0.9905135674,
				"z": -0.5664348698,
				"element": "C" 
			},
			{
				"x": -0.9489453872,
				"y": -2.5879192496,
				"z": 1.6161898766,
				"element": "H" 
			},
			{
				"x": -1.4649375536,
				"y": -1.3758826302,
				"z": 0.4280083577,
				"element": "H" 
			},
			{
				"x": -2.3176317079,
				"y": -1.5151321481,
				"z": 1.9688427023,
				"element": "H" 
			},
			{
				"x": -0.5890854682,
				"y": -0.3530662455,
				"z": 3.0586685027,
				"element": "H" 
			},
			{
				"x": 0.4367938212,
				"y": 2.3476915392,
				"z": -0.3231072307,
				"element": "H" 
			},
			{
				"x": 1.8914521692,
				"y": 2.5483556152,
				"z": -3.7121123868,
				"element": "H" 
			},
			{
				"x": 1.218952309,
				"y": 3.4763953988,
				"z": -2.3502106354,
				"element": "H" 
			},
			{
				"x": 1.7029506495,
				"y": 0.0386447117,
				"z": -3.7284995811,
				"element": "H" 
			},
			{
				"x": 1.6725458681,
				"y": -2.0107873399,
				"z": -2.3341477318,
				"element": "H" 
			},
			{
				"x": 0.9874074562,
				"y": -1.8894524127,
				"z": 0.0416906627,
				"element": "H" 
			}
		],
		 "valence_orbital": [ 
			{
				"type": "occ",
				"energy": -0.29397,
				"method": "rhf"
			},
			{
				"type": "occ",
				"energy": -0.26893,
				"method": "rhf"
			},
			{
				"type": "occ",
				"energy": -0.26069,
				"method": "rhf"
			},
			{
				"type": "occ",
				"energy": -0.25618,
				"method": "rhf"
			},
			{
				"type": "occ",
				"energy": -0.24329,
				"method": "rhf"
			},
			{
				"type": "unocc",
				"energy": -0.04185,
				"method": "rhf"
			},
			{
				"type": "unocc",
				"energy": -0.02716,
				"method": "rhf"
			},
			{
				"type": "unocc",
				"energy": 0.03035,
				"method": "rhf"
			},
			{
				"type": "unocc",
				"energy": 0.05727,
				"method": "rhf"
			},
			{
				"type": "unocc",
				"energy": 0.07577,
				"method": "rhf"
			}
		],
		"cosmo_sigma_profile": { 
			"-0.025": 0.0,
			"-0.024": 0.0,
			"-0.023": 0.0,
			"-0.022": 0.0,
			"-0.021": 0.0,
			"-0.02": 0.0,
			"-0.019": 0.0,
			"-0.018": 0.0,
			"-0.017": 0.0,
			"-0.016": 0.0,
			"-0.015": 0.0,
			"-0.014": 0.274005846952,
			"-0.013": 0.883943489187,
			"-0.012": 0.891456822271,
			"-0.011": 1.55912358024,
			"-0.01": 0.799011319759,
			"-0.009": 0.535762878899,
			"-0.008": 4.1193572708,
			"-0.007": 10.7026713798,
			"-0.006": 14.1555183857,
			"-0.005": 17.9225873572,
			"-0.004": 18.1586778625,
			"-0.003": 17.2113371241,
			"-0.002": 18.278902319,
			"-0.001": 10.7688747847,
			"0.0": 10.5705803397,
			"0.001": 11.550078192,
			"0.002": 10.8542260397,
			"0.003": 14.9712352866,
			"0.004": 14.5963992456,
			"0.005": 7.93459448869,
			"0.006": 10.4775158583,
			"0.007": 8.4239438204,
			"0.008": 1.08297049431,
			"0.009": 1.94123747774,
			"0.01": 1.28786487414,
			"0.011": 0.995961053453,
			"0.012": 1.94307215098,
			"0.013": 3.44501452425,
			"0.014": 5.50893636277,
			"0.015": 0.963583000197,
			"0.016": 0.0,
			"0.017": 0.0,
			"0.018": 0.0,
			"0.019": 0.0,
			"0.02": 0.0,
			"0.021": 0.0,
			"0.022": 0.0,
			"0.023": 0.0,
			"0.024": 0.0,
			"0.025": 0.0
		}
	}
}
