{
	 "smiles": "NCC1=NC=CC(OCC(F)F)=C1", 
	 "Tm": 345.15, 
	 "num_atms": 23, 
	 "gaussian": { 
		 "optdone": 1, 
		 "sigma_profile": "yes", 
		 "theory": "DFT", 
		 "functional": "B3LYP", 
		 "basiset": "6-31G**", 
		 "properties": { 
			 "R2extent": 3283.3393, 
			 "electric_dipole_moment_norm": 3.50965183601, 
			 "electric_quadrupole_moment_norm": 6.02931675897, 
			 "total_energy": -695.262445278, 
			 "HOMO_LUMO_gap": 0.21748, 
			 "cosmo_polarized_energy": -11.46, 
			 "cosmo_cavitation_energy": 27.54, 
			 "cosmo_dispersion_energy": -19.96, 
			 "cosmo_repulsion_energy": 1.59, 
			 "cosmo_total_nonelectrostatic_energy": 9.17, 
			 "SMD_solvation_energy": 3.31 
		},
		"coords": [
			{
				"x": 0.0530124535,
				"y": -3.1763872011,
				"z": 2.6834524453,
				"element": "N" 
			},
			{
				"x": 0.4698451914,
				"y": -2.161352192,
				"z": 1.720303136,
				"element": "C" 
			},
			{
				"x": -0.6488561678,
				"y": -1.3109083355,
				"z": 1.1237234848,
				"element": "C" 
			},
			{
				"x": -1.8295805968,
				"y": -1.9219613705,
				"z": 0.9591472876,
				"element": "N" 
			},
			{
				"x": -2.8176292603,
				"y": -1.2130243632,
				"z": 0.3943652759,
				"element": "C" 
			},
			{
				"x": -2.6942907764,
				"y": 0.1083550319,
				"z": -0.0138542056,
				"element": "C" 
			},
			{
				"x": -1.4590203022,
				"y": 0.7419272969,
				"z": 0.171196858,
				"element": "C" 
			},
			{
				"x": -1.3987823403,
				"y": 2.0469047598,
				"z": -0.2330904885,
				"element": "O" 
			},
			{
				"x": -0.327552793,
				"y": 2.8844812233,
				"z": 0.1729796935,
				"element": "C" 
			},
			{
				"x": 0.7813526956,
				"y": 2.9405455583,
				"z": -0.8665277082,
				"element": "C" 
			},
			{
				"x": 1.6485247764,
				"y": 3.9310079381,
				"z": -0.4991800602,
				"element": "F" 
			},
			{
				"x": 1.4774620271,
				"y": 1.7646633675,
				"z": -0.9014531225,
				"element": "F" 
			},
			{
				"x": -0.4123452889,
				"y": 0.017416983,
				"z": 0.7445853155,
				"element": "C" 
			},
			{
				"x": -0.7229540746,
				"y": -3.6888288949,
				"z": 2.266920982,
				"element": "H" 
			},
			{
				"x": -0.3503284509,
				"y": -2.7114972134,
				"z": 3.4952238684,
				"element": "H" 
			},
			{
				"x": 1.219100564,
				"y": -1.5099958679,
				"z": 2.1843942962,
				"element": "H" 
			},
			{
				"x": 0.9833492444,
				"y": -2.6701855486,
				"z": 0.8921238509,
				"element": "H" 
			},
			{
				"x": -3.7670033617,
				"y": -1.7305347205,
				"z": 0.2667450678,
				"element": "H" 
			},
			{
				"x": -3.5229052285,
				"y": 0.6518850675,
				"z": -0.4534836918,
				"element": "H" 
			},
			{
				"x": -0.74555771,
				"y": 3.8904701348,
				"z": 0.2696227702,
				"element": "H" 
			},
			{
				"x": 0.0932212721,
				"y": 2.5866784482,
				"z": 1.1392778118,
				"element": "H" 
			},
			{
				"x": 0.4067231309,
				"y": 3.1453468198,
				"z": -1.8757364148,
				"element": "H" 
			},
			{
				"x": 0.5762149961,
				"y": 0.4415930785,
				"z": 0.8642635476,
				"element": "H" 
			}
		],
		 "valence_orbital": [ 
			{
				"type": "occ",
				"energy": -0.33409,
				"method": "rhf"
			},
			{
				"type": "occ",
				"energy": -0.25935,
				"method": "rhf"
			},
			{
				"type": "occ",
				"energy": -0.25793,
				"method": "rhf"
			},
			{
				"type": "occ",
				"energy": -0.25392,
				"method": "rhf"
			},
			{
				"type": "occ",
				"energy": -0.23072,
				"method": "rhf"
			},
			{
				"type": "unocc",
				"energy": -0.01324,
				"method": "rhf"
			},
			{
				"type": "unocc",
				"energy": -0.01263,
				"method": "rhf"
			},
			{
				"type": "unocc",
				"energy": 0.07334,
				"method": "rhf"
			},
			{
				"type": "unocc",
				"energy": 0.09557,
				"method": "rhf"
			},
			{
				"type": "unocc",
				"energy": 0.10181,
				"method": "rhf"
			}
		],
		"cosmo_sigma_profile": { 
			"-0.025": 0.0,
			"-0.024": 0.0,
			"-0.023": 0.0,
			"-0.022": 0.0,
			"-0.021": 0.0,
			"-0.02": 0.0,
			"-0.019": 0.0,
			"-0.018": 0.0,
			"-0.017": 0.0,
			"-0.016": 0.0,
			"-0.015": 0.0,
			"-0.014": 0.0,
			"-0.013": 0.0,
			"-0.012": 0.0,
			"-0.011": 0.0,
			"-0.01": 0.568360281419,
			"-0.009": 4.39969960129,
			"-0.008": 9.15157838162,
			"-0.007": 9.98962385085,
			"-0.006": 12.1507934353,
			"-0.005": 15.9868719478,
			"-0.004": 14.6858321764,
			"-0.003": 13.5068194711,
			"-0.002": 13.0401688931,
			"-0.001": 10.5287628682,
			"0.0": 10.2683020785,
			"0.001": 12.9270549628,
			"0.002": 18.4601145408,
			"0.003": 18.2162118836,
			"0.004": 21.5840931358,
			"0.005": 9.4224544682,
			"0.006": 3.61915600465,
			"0.007": 2.96969257963,
			"0.008": 3.47563282317,
			"0.009": 2.87174984286,
			"0.01": 1.75711002266,
			"0.011": 1.24855354613,
			"0.012": 1.55135752478,
			"0.013": 1.39245508907,
			"0.014": 0.556986671721,
			"0.015": 1.21517714934,
			"0.016": 0.417722980402,
			"0.017": 0.648116451256,
			"0.018": 0.651142156956,
			"0.019": 0.683566184255,
			"0.02": 0.244929709261,
			"0.021": 0.0,
			"0.022": 0.0,
			"0.023": 0.0,
			"0.024": 0.0,
			"0.025": 0.0
		}
	}
}
