{
	 "smiles": "CC(=NO)C1=C(C)N=C(S1)C(C)(C)C", 
	 "Tm": 391.15, 
	 "num_atms": 30, 
	 "gaussian": { 
		 "optdone": 1, 
		 "sigma_profile": "yes", 
		 "theory": "DFT", 
		 "functional": "B3LYP", 
		 "basiset": "6-31G**", 
		 "properties": { 
			 "R2extent": 4094.108, 
			 "electric_dipole_moment_norm": 0.351609527743, 
			 "electric_quadrupole_moment_norm": 6.40704607756, 
			 "total_energy": -973.583063402, 
			 "HOMO_LUMO_gap": 0.17015, 
			 "cosmo_polarized_energy": -9.45, 
			 "cosmo_cavitation_energy": 33.37, 
			 "cosmo_dispersion_energy": -24.06, 
			 "cosmo_repulsion_energy": 1.88, 
			 "cosmo_total_nonelectrostatic_energy": 11.18, 
			 "SMD_solvation_energy": 4.84 
		},
		"coords": [
			{
				"x": 0.8460548424,
				"y": -2.9996116086,
				"z": 1.2990115271,
				"element": "C" 
			},
			{
				"x": 0.856833494,
				"y": -1.5373921827,
				"z": 1.669158017,
				"element": "C" 
			},
			{
				"x": 1.516440257,
				"y": -1.0610655167,
				"z": 2.6733822004,
				"element": "N" 
			},
			{
				"x": 2.1995977409,
				"y": -2.0542679517,
				"z": 3.3901365326,
				"element": "O" 
			},
			{
				"x": 0.1283795397,
				"y": -0.541560582,
				"z": 0.8780608646,
				"element": "C" 
			},
			{
				"x": -0.8311779492,
				"y": -0.6773702599,
				"z": -0.1093491429,
				"element": "C" 
			},
			{
				"x": -1.4368663085,
				"y": -1.9420584041,
				"z": -0.6598323136,
				"element": "C" 
			},
			{
				"x": -1.2928308611,
				"y": 0.50807097,
				"z": -0.6387803457,
				"element": "N" 
			},
			{
				"x": -0.7308751584,
				"y": 1.5536160862,
				"z": -0.0958782067,
				"element": "C" 
			},
			{
				"x": 0.4391253547,
				"y": 1.1624114724,
				"z": 1.1478836628,
				"element": "S" 
			},
			{
				"x": -1.0837499487,
				"y": 2.9785112303,
				"z": -0.5014665478,
				"element": "C" 
			},
			{
				"x": -0.2427010336,
				"y": 4.0149649403,
				"z": 0.2641559861,
				"element": "C" 
			},
			{
				"x": -2.5843884507,
				"y": 3.2048459778,
				"z": -0.2041810792,
				"element": "C" 
			},
			{
				"x": -0.8316305818,
				"y": 3.1236967464,
				"z": -2.0196971902,
				"element": "C" 
			},
			{
				"x": 0.8317929752,
				"y": -3.1319447507,
				"z": 0.2163594297,
				"element": "H" 
			},
			{
				"x": -0.0350417123,
				"y": -3.5026361296,
				"z": 1.7135766933,
				"element": "H" 
			},
			{
				"x": 1.7296503857,
				"y": -3.4868988722,
				"z": 1.7113807607,
				"element": "H" 
			},
			{
				"x": 2.6604954175,
				"y": -1.5329514436,
				"z": 4.0603858388,
				"element": "H" 
			},
			{
				"x": -2.3742197236,
				"y": -1.6852055062,
				"z": -1.1571153026,
				"element": "H" 
			},
			{
				"x": -1.64475299,
				"y": -2.681161314,
				"z": 0.1167455723,
				"element": "H" 
			},
			{
				"x": -0.7875779884,
				"y": -2.4153777597,
				"z": -1.4064535108,
				"element": "H" 
			},
			{
				"x": -0.5210210872,
				"y": 5.024956031,
				"z": -0.0530180953,
				"element": "H" 
			},
			{
				"x": 0.8279171065,
				"y": 3.8894848679,
				"z": 0.0709859486,
				"element": "H" 
			},
			{
				"x": -0.4063765966,
				"y": 3.9510328809,
				"z": 1.3452046419,
				"element": "H" 
			},
			{
				"x": -2.7898652918,
				"y": 3.1227290904,
				"z": 0.8682762129,
				"element": "H" 
			},
			{
				"x": -3.193943449,
				"y": 2.4630598009,
				"z": -0.7258232702,
				"element": "H" 
			},
			{
				"x": -2.8875333982,
				"y": 4.2047921929,
				"z": -0.5338327724,
				"element": "H" 
			},
			{
				"x": -1.4030385809,
				"y": 2.3771131783,
				"z": -2.5761390769,
				"element": "H" 
			},
			{
				"x": 0.2287765302,
				"y": 2.9882237575,
				"z": -2.2569504193,
				"element": "H" 
			},
			{
				"x": -1.1317725339,
				"y": 4.1217930586,
				"z": -2.3573866153,
				"element": "H" 
			}
		],
		 "valence_orbital": [ 
			{
				"type": "occ",
				"energy": -0.28871,
				"method": "rhf"
			},
			{
				"type": "occ",
				"energy": -0.27984,
				"method": "rhf"
			},
			{
				"type": "occ",
				"energy": -0.2578,
				"method": "rhf"
			},
			{
				"type": "occ",
				"energy": -0.25614,
				"method": "rhf"
			},
			{
				"type": "occ",
				"energy": -0.21172,
				"method": "rhf"
			},
			{
				"type": "unocc",
				"energy": -0.04157,
				"method": "rhf"
			},
			{
				"type": "unocc",
				"energy": 0.02267,
				"method": "rhf"
			},
			{
				"type": "unocc",
				"energy": 0.03737,
				"method": "rhf"
			},
			{
				"type": "unocc",
				"energy": 0.06876,
				"method": "rhf"
			},
			{
				"type": "unocc",
				"energy": 0.07738,
				"method": "rhf"
			}
		],
		"cosmo_sigma_profile": { 
			"-0.025": 0.0,
			"-0.024": 0.0,
			"-0.023": 0.0,
			"-0.022": 0.0,
			"-0.021": 0.0,
			"-0.02": 0.0,
			"-0.019": 0.0,
			"-0.018": 0.0557057138799,
			"-0.017": 1.07491288317,
			"-0.016": 0.896995878567,
			"-0.015": 0.757820265426,
			"-0.014": 0.734915264032,
			"-0.013": 0.78652157633,
			"-0.012": 0.4368641942,
			"-0.011": 0.764667987363,
			"-0.01": 1.20988727053,
			"-0.009": 0.452400366791,
			"-0.008": 0.478644127642,
			"-0.007": 0.4985588192,
			"-0.006": 4.99150456556,
			"-0.005": 8.5440571376,
			"-0.004": 14.4525202422,
			"-0.003": 30.7825617817,
			"-0.002": 27.8605346023,
			"-0.001": 32.001350277,
			"0.0": 32.8372773598,
			"0.001": 25.5301486807,
			"0.002": 15.3692454834,
			"0.003": 14.7565218069,
			"0.004": 10.5335090119,
			"0.005": 8.63260031769,
			"0.006": 6.90156627149,
			"0.007": 5.56183469252,
			"0.008": 5.42260126599,
			"0.009": 4.23495700263,
			"0.01": 2.91898287653,
			"0.011": 1.88450736804,
			"0.012": 0.865131232246,
			"0.013": 0.442200051809,
			"0.014": 0.0701838690485,
			"0.015": 0.0,
			"0.016": 0.0,
			"0.017": 0.0,
			"0.018": 0.0,
			"0.019": 0.0,
			"0.02": 0.0,
			"0.021": 0.0,
			"0.022": 0.0,
			"0.023": 0.0,
			"0.024": 0.0,
			"0.025": 0.0
		}
	}
}
