{
	 "smiles": "CC(C)OC1=CC(N2N=C(OC2=O)C(C)(C)C)=C(Cl)C=C1Cl", 
	 "Tm": 363.15, 
	 "num_atms": 40, 
	 "gaussian": { 
		 "optdone": 1, 
		 "sigma_profile": "yes", 
		 "theory": "DFT", 
		 "functional": "B3LYP", 
		 "basiset": "6-31G**", 
		 "properties": { 
			 "R2extent": 10846.1206, 
			 "electric_dipole_moment_norm": 5.78182740835, 
			 "electric_quadrupole_moment_norm": 11.3527780133, 
			 "total_energy": -1838.00658098, 
			 "HOMO_LUMO_gap": 0.1913, 
			 "cosmo_polarized_energy": -13.55, 
			 "cosmo_cavitation_energy": 46.9, 
			 "cosmo_dispersion_energy": -31.47, 
			 "cosmo_repulsion_energy": 2.47, 
			 "cosmo_total_nonelectrostatic_energy": 17.91, 
			 "SMD_solvation_energy": 8.62 
		},
		"coords": [
			{
				"x": 1.512365452,
				"y": 0.2654294516,
				"z": 4.1520190713,
				"element": "C" 
			},
			{
				"x": 2.4396452491,
				"y": -0.4562699739,
				"z": 3.1751029706,
				"element": "C" 
			},
			{
				"x": 3.8679529991,
				"y": -0.5741202416,
				"z": 3.6924720936,
				"element": "C" 
			},
			{
				"x": 1.9953919064,
				"y": -1.8162470308,
				"z": 2.9680095564,
				"element": "O" 
			},
			{
				"x": 0.9536657945,
				"y": -2.0920862615,
				"z": 2.1529320815,
				"element": "C" 
			},
			{
				"x": 0.2606500354,
				"y": -1.1573979883,
				"z": 1.3797593658,
				"element": "C" 
			},
			{
				"x": -0.8024408796,
				"y": -1.538413429,
				"z": 0.5523698784,
				"element": "C" 
			},
			{
				"x": -1.4671700174,
				"y": -0.5317151887,
				"z": -0.1892854162,
				"element": "N" 
			},
			{
				"x": -1.9154631172,
				"y": 0.6324645296,
				"z": 0.4334717746,
				"element": "N" 
			},
			{
				"x": -2.3384004623,
				"y": 1.3667896006,
				"z": -0.537276168,
				"element": "C" 
			},
			{
				"x": -2.1855512138,
				"y": 0.791518607,
				"z": -1.768726333,
				"element": "O" 
			},
			{
				"x": -1.5693162473,
				"y": -0.447833101,
				"z": -1.5649219553,
				"element": "C" 
			},
			{
				"x": -1.2276590169,
				"y": -1.1980964273,
				"z": -2.4385486728,
				"element": "O" 
			},
			{
				"x": -2.9654336797,
				"y": 2.732022027,
				"z": -0.458456817,
				"element": "C" 
			},
			{
				"x": -2.1168277176,
				"y": 3.7177713264,
				"z": -1.2955784743,
				"element": "C" 
			},
			{
				"x": -3.0165578599,
				"y": 3.1859755821,
				"z": 1.010314354,
				"element": "C" 
			},
			{
				"x": -4.3957695421,
				"y": 2.6515054437,
				"z": -1.0431201585,
				"element": "C" 
			},
			{
				"x": -1.1971586773,
				"y": -2.8791058832,
				"z": 0.4991540848,
				"element": "C" 
			},
			{
				"x": -2.58136987,
				"y": -3.3951456567,
				"z": -0.4309612841,
				"element": "Cl" 
			},
			{
				"x": -0.4962919281,
				"y": -3.8297116541,
				"z": 1.2445582149,
				"element": "C" 
			},
			{
				"x": 0.5598056012,
				"y": -3.4448032653,
				"z": 2.0587356331,
				"element": "C" 
			},
			{
				"x": 1.407100881,
				"y": -4.6560408843,
				"z": 2.9895075134,
				"element": "Cl" 
			},
			{
				"x": 0.4834828652,
				"y": 0.3050117459,
				"z": 3.7849195398,
				"element": "H" 
			},
			{
				"x": 1.8568299416,
				"y": 1.2925464508,
				"z": 4.3090647247,
				"element": "H" 
			},
			{
				"x": 1.5123075606,
				"y": -0.2505468135,
				"z": 5.1169594764,
				"element": "H" 
			},
			{
				"x": 2.4527459096,
				"y": 0.0607620012,
				"z": 2.2064462984,
				"element": "H" 
			},
			{
				"x": 3.8857458891,
				"y": -1.1240383448,
				"z": 4.6381323907,
				"element": "H" 
			},
			{
				"x": 4.4960116287,
				"y": -1.1052990322,
				"z": 2.9728159979,
				"element": "H" 
			},
			{
				"x": 4.2917302403,
				"y": 0.4205208755,
				"z": 3.8601223534,
				"element": "H" 
			},
			{
				"x": 0.5216033213,
				"y": -0.1081495767,
				"z": 1.4055007389,
				"element": "H" 
			},
			{
				"x": -1.1016643337,
				"y": 3.8034885179,
				"z": -0.8948236172,
				"element": "H" 
			},
			{
				"x": -2.5762181572,
				"y": 4.7109486775,
				"z": -1.2716739663,
				"element": "H" 
			},
			{
				"x": -2.048055612,
				"y": 3.3968561804,
				"z": -2.3384757052,
				"element": "H" 
			},
			{
				"x": -3.4774328353,
				"y": 4.1767193372,
				"z": 1.0688090991,
				"element": "H" 
			},
			{
				"x": -2.0143609051,
				"y": 3.246239776,
				"z": 1.4436085145,
				"element": "H" 
			},
			{
				"x": -3.6037938464,
				"y": 2.4946154217,
				"z": 1.6204200423,
				"element": "H" 
			},
			{
				"x": -4.8600297639,
				"y": 3.6424223494,
				"z": -1.0169573166,
				"element": "H" 
			},
			{
				"x": -4.3820300455,
				"y": 2.3065553375,
				"z": -2.0805831759,
				"element": "H" 
			},
			{
				"x": -5.0208953984,
				"y": 1.966864523,
				"z": -0.4614098354,
				"element": "H" 
			},
			{
				"x": -0.7904441485,
				"y": -4.8711070092,
				"z": 1.2023931273,
				"element": "H" 
			}
		],
		 "valence_orbital": [ 
			{
				"type": "occ",
				"energy": -0.30987,
				"method": "rhf"
			},
			{
				"type": "occ",
				"energy": -0.28576,
				"method": "rhf"
			},
			{
				"type": "occ",
				"energy": -0.27075,
				"method": "rhf"
			},
			{
				"type": "occ",
				"energy": -0.24313,
				"method": "rhf"
			},
			{
				"type": "occ",
				"energy": -0.22631,
				"method": "rhf"
			},
			{
				"type": "unocc",
				"energy": -0.03501,
				"method": "rhf"
			},
			{
				"type": "unocc",
				"energy": -0.01546,
				"method": "rhf"
			},
			{
				"type": "unocc",
				"energy": -0.00031,
				"method": "rhf"
			},
			{
				"type": "unocc",
				"energy": 0.01057,
				"method": "rhf"
			},
			{
				"type": "unocc",
				"energy": 0.04077,
				"method": "rhf"
			}
		],
		"cosmo_sigma_profile": { 
			"-0.025": 0.0,
			"-0.024": 0.0,
			"-0.023": 0.0,
			"-0.022": 0.0,
			"-0.021": 0.0,
			"-0.02": 0.0,
			"-0.019": 0.0,
			"-0.018": 0.0,
			"-0.017": 0.0,
			"-0.016": 0.0,
			"-0.015": 0.0,
			"-0.014": 0.0,
			"-0.013": 0.0,
			"-0.012": 0.0,
			"-0.011": 0.0,
			"-0.01": 0.00158627965909,
			"-0.009": 1.76115881664,
			"-0.008": 2.61948478473,
			"-0.007": 4.63414750211,
			"-0.006": 6.73737632477,
			"-0.005": 9.87095542557,
			"-0.004": 37.122225362,
			"-0.003": 43.0817652692,
			"-0.002": 35.8416582495,
			"-0.001": 40.8033950242,
			"0.0": 59.581925921,
			"0.001": 34.6229200212,
			"0.002": 17.4050595195,
			"0.003": 17.0938320414,
			"0.004": 17.9241420831,
			"0.005": 9.61526577672,
			"0.006": 8.31457855667,
			"0.007": 4.44025883875,
			"0.008": 5.30772333286,
			"0.009": 4.49560314848,
			"0.01": 3.91618939892,
			"0.011": 7.03295560038,
			"0.012": 2.55017659805,
			"0.013": 0.0258304676809,
			"0.014": 0.0,
			"0.015": 0.0,
			"0.016": 0.0,
			"0.017": 0.0,
			"0.018": 0.0,
			"0.019": 0.0,
			"0.02": 0.0,
			"0.021": 0.0,
			"0.022": 0.0,
			"0.023": 0.0,
			"0.024": 0.0,
			"0.025": 0.0
		}
	}
}
