{
	 "smiles": "NC1=CC(=NN1)C1=CC2=C(O1)C=CC=C2", 
	 "Tm": 398.15, 
	 "num_atms": 24, 
	 "gaussian": { 
		 "optdone": 1, 
		 "sigma_profile": "yes", 
		 "theory": "DFT", 
		 "functional": "B3LYP", 
		 "basiset": "6-31G**", 
		 "properties": { 
			 "R2extent": 4391.3439, 
			 "electric_dipole_moment_norm": 3.91079630127, 
			 "electric_quadrupole_moment_norm": 28.7079332701, 
			 "total_energy": -664.046374237, 
			 "HOMO_LUMO_gap": 0.16866, 
			 "cosmo_polarized_energy": -16.34, 
			 "cosmo_cavitation_energy": 29.08, 
			 "cosmo_dispersion_energy": -21.87, 
			 "cosmo_repulsion_energy": 1.71, 
			 "cosmo_total_nonelectrostatic_energy": 8.92, 
			 "SMD_solvation_energy": 4.11 
		},
		"coords": [
			{
				"x": -1.3698050426,
				"y": 0.9835910269,
				"z": 5.508210855,
				"element": "N" 
			},
			{
				"x": -0.8582178197,
				"y": 0.5159466965,
				"z": 4.2941780587,
				"element": "C" 
			},
			{
				"x": -1.3499388747,
				"y": 0.5284070595,
				"z": 3.0015069939,
				"element": "C" 
			},
			{
				"x": -0.3040397398,
				"y": -0.0294182725,
				"z": 2.2171140594,
				"element": "C" 
			},
			{
				"x": 0.754438108,
				"y": -0.370892465,
				"z": 2.9584997231,
				"element": "N" 
			},
			{
				"x": 0.3914168547,
				"y": -0.0234819327,
				"z": 4.2184212963,
				"element": "N" 
			},
			{
				"x": -0.3042418228,
				"y": -0.2554463697,
				"z": 0.7854114978,
				"element": "C" 
			},
			{
				"x": 0.6163142271,
				"y": -0.7917006265,
				"z": -0.0665134088,
				"element": "C" 
			},
			{
				"x": 0.033064939,
				"y": -0.7435972336,
				"z": -1.3803284402,
				"element": "C" 
			},
			{
				"x": -1.2390314504,
				"y": -0.1611031411,
				"z": -1.2062532194,
				"element": "C" 
			},
			{
				"x": -1.4462753075,
				"y": 0.1368219339,
				"z": 0.1132457464,
				"element": "O" 
			},
			{
				"x": -2.1331545542,
				"y": 0.065959222,
				"z": -2.2443217093,
				"element": "C" 
			},
			{
				"x": -1.7160038124,
				"y": -0.3168002556,
				"z": -3.5197424282,
				"element": "C" 
			},
			{
				"x": -0.4525501761,
				"y": -0.9011432182,
				"z": -3.7290597358,
				"element": "C" 
			},
			{
				"x": 0.4292431009,
				"y": -1.1200069585,
				"z": -2.6740561981,
				"element": "C" 
			},
			{
				"x": -2.297577751,
				"y": 1.3728967235,
				"z": 5.3979788763,
				"element": "H" 
			},
			{
				"x": -1.3846843531,
				"y": 0.2796894657,
				"z": 6.2393349025,
				"element": "H" 
			},
			{
				"x": -2.3173358194,
				"y": 0.8669638533,
				"z": 2.6653915784,
				"element": "H" 
			},
			{
				"x": 1.0636420511,
				"y": -0.1065524976,
				"z": 4.9648668863,
				"element": "H" 
			},
			{
				"x": 1.5859329945,
				"y": -1.1697914202,
				"z": 0.2210762635,
				"element": "H" 
			},
			{
				"x": -3.1028876622,
				"y": 0.5177503421,
				"z": -2.0650599724,
				"element": "H" 
			},
			{
				"x": -2.3788465205,
				"y": -0.1604029346,
				"z": -4.3654850149,
				"element": "H" 
			},
			{
				"x": -0.1622747877,
				"y": -1.1861407619,
				"z": -4.736162211,
				"element": "H" 
			},
			{
				"x": 1.4016132187,
				"y": -1.5714482358,
				"z": -2.8474543995,
				"element": "H" 
			}
		],
		 "valence_orbital": [ 
			{
				"type": "occ",
				"energy": -0.28636,
				"method": "rhf"
			},
			{
				"type": "occ",
				"energy": -0.264,
				"method": "rhf"
			},
			{
				"type": "occ",
				"energy": -0.22725,
				"method": "rhf"
			},
			{
				"type": "occ",
				"energy": -0.22027,
				"method": "rhf"
			},
			{
				"type": "occ",
				"energy": -0.19382,
				"method": "rhf"
			},
			{
				"type": "unocc",
				"energy": -0.02516,
				"method": "rhf"
			},
			{
				"type": "unocc",
				"energy": 0.02036,
				"method": "rhf"
			},
			{
				"type": "unocc",
				"energy": 0.0308,
				"method": "rhf"
			},
			{
				"type": "unocc",
				"energy": 0.05474,
				"method": "rhf"
			},
			{
				"type": "unocc",
				"energy": 0.06421,
				"method": "rhf"
			}
		],
		"cosmo_sigma_profile": { 
			"-0.025": 0.0,
			"-0.024": 0.0,
			"-0.023": 0.0,
			"-0.022": 0.0,
			"-0.021": 0.0,
			"-0.02": 0.0,
			"-0.019": 0.0,
			"-0.018": 0.0,
			"-0.017": 0.0999451041117,
			"-0.016": 1.41454974577,
			"-0.015": 1.38853852622,
			"-0.014": 1.57021184449,
			"-0.013": 4.14151480263,
			"-0.012": 4.48687069543,
			"-0.011": 3.61321544651,
			"-0.01": 3.64075138908,
			"-0.009": 2.81871176204,
			"-0.008": 3.1230727111,
			"-0.007": 4.6253625138,
			"-0.006": 10.5177650399,
			"-0.005": 12.3058454639,
			"-0.004": 13.0407707253,
			"-0.003": 12.0135141112,
			"-0.002": 9.54908711844,
			"-0.001": 8.31144630839,
			"0.0": 10.042356145,
			"0.001": 12.5968696566,
			"0.002": 16.5195938553,
			"0.003": 21.9475519106,
			"0.004": 25.8505812601,
			"0.005": 19.4347151178,
			"0.006": 11.7135125594,
			"0.007": 3.92883159759,
			"0.008": 2.95698452855,
			"0.009": 1.3594980154,
			"0.01": 1.94518699471,
			"0.011": 1.84452834124,
			"0.012": 2.10945135823,
			"0.013": 1.66104898045,
			"0.014": 1.48271700899,
			"0.015": 1.03969943006,
			"0.016": 0.168770919635,
			"0.017": 0.0,
			"0.018": 0.0,
			"0.019": 0.0,
			"0.02": 0.0,
			"0.021": 0.0,
			"0.022": 0.0,
			"0.023": 0.0,
			"0.024": 0.0,
			"0.025": 0.0
		}
	}
}
