{
	 "smiles": "CNC1=C2C=CC=CC2=NC=N1", 
	 "Tm": 453.15, 
	 "num_atms": 21, 
	 "gaussian": { 
		 "optdone": 1, 
		 "sigma_profile": "yes", 
		 "theory": "DFT", 
		 "functional": "B3LYP", 
		 "basiset": "6-31G**", 
		 "properties": { 
			 "R2extent": 2123.1675, 
			 "electric_dipole_moment_norm": 4.1775119557, 
			 "electric_quadrupole_moment_norm": 11.9144333029, 
			 "total_energy": -512.645350123, 
			 "HOMO_LUMO_gap": 0.16978, 
			 "cosmo_polarized_energy": -11.43, 
			 "cosmo_cavitation_energy": 24.24, 
			 "cosmo_dispersion_energy": -18.49, 
			 "cosmo_repulsion_energy": 1.44, 
			 "cosmo_total_nonelectrostatic_energy": 7.19, 
			 "SMD_solvation_energy": 0.74 
		},
		"coords": [
			{
				"x": -3.8516117237,
				"y": -0.81414501,
				"z": -0.050286706,
				"element": "C" 
			},
			{
				"x": -2.9937952715,
				"y": 0.1441381751,
				"z": -0.7234835874,
				"element": "N" 
			},
			{
				"x": -1.7299413965,
				"y": 0.556143047,
				"z": -0.4029731246,
				"element": "C" 
			},
			{
				"x": -0.7922841623,
				"y": -0.1729716849,
				"z": 0.4197152201,
				"element": "C" 
			},
			{
				"x": -0.974378418,
				"y": -1.4740680104,
				"z": 0.9572784556,
				"element": "C" 
			},
			{
				"x": 0.0008604658,
				"y": -2.0595999446,
				"z": 1.7385177263,
				"element": "C" 
			},
			{
				"x": 1.2021118875,
				"y": -1.370621252,
				"z": 2.0165177144,
				"element": "C" 
			},
			{
				"x": 1.4201942883,
				"y": -0.1175381492,
				"z": 1.4892098253,
				"element": "C" 
			},
			{
				"x": 0.4444289345,
				"y": 0.5042712068,
				"z": 0.6682359597,
				"element": "C" 
			},
			{
				"x": 0.7427121821,
				"y": 1.7237851645,
				"z": 0.1272103184,
				"element": "N" 
			},
			{
				"x": -0.181845485,
				"y": 2.2334861705,
				"z": -0.6580016817,
				"element": "C" 
			},
			{
				"x": -1.3971204286,
				"y": 1.7297773107,
				"z": -0.9468698418,
				"element": "N" 
			},
			{
				"x": -3.6705965385,
				"y": -1.8454356837,
				"z": -0.3770721472,
				"element": "H" 
			},
			{
				"x": -3.7448286042,
				"y": -0.76777369,
				"z": 1.0387891235,
				"element": "H" 
			},
			{
				"x": -4.8877779325,
				"y": -0.5713051308,
				"z": -0.2961090975,
				"element": "H" 
			},
			{
				"x": -3.4513003681,
				"y": 0.8372608975,
				"z": -1.3001879683,
				"element": "H" 
			},
			{
				"x": -1.874358009,
				"y": -2.0345054302,
				"z": 0.745424374,
				"element": "H" 
			},
			{
				"x": -0.1552377829,
				"y": -3.057525161,
				"z": 2.1371075774,
				"element": "H" 
			},
			{
				"x": 1.9596507513,
				"y": -1.8392348598,
				"z": 2.6384403495,
				"element": "H" 
			},
			{
				"x": 2.3405576104,
				"y": 0.4290208662,
				"z": 1.6658245455,
				"element": "H" 
			},
			{
				"x": 0.0455600009,
				"y": 3.1902411684,
				"z": -1.1271870353,
				"element": "H" 
			}
		],
		 "valence_orbital": [ 
			{
				"type": "occ",
				"energy": -0.28457,
				"method": "rhf"
			},
			{
				"type": "occ",
				"energy": -0.26593,
				"method": "rhf"
			},
			{
				"type": "occ",
				"energy": -0.25937,
				"method": "rhf"
			},
			{
				"type": "occ",
				"energy": -0.24039,
				"method": "rhf"
			},
			{
				"type": "occ",
				"energy": -0.21243,
				"method": "rhf"
			},
			{
				"type": "unocc",
				"energy": -0.04265,
				"method": "rhf"
			},
			{
				"type": "unocc",
				"energy": -0.01692,
				"method": "rhf"
			},
			{
				"type": "unocc",
				"energy": 0.0281,
				"method": "rhf"
			},
			{
				"type": "unocc",
				"energy": 0.07426,
				"method": "rhf"
			},
			{
				"type": "unocc",
				"energy": 0.09135,
				"method": "rhf"
			}
		],
		"cosmo_sigma_profile": { 
			"-0.025": 0.0,
			"-0.024": 0.0,
			"-0.023": 0.0,
			"-0.022": 0.0,
			"-0.021": 0.0,
			"-0.02": 0.0,
			"-0.019": 0.0,
			"-0.018": 0.0,
			"-0.017": 0.0,
			"-0.016": 0.0,
			"-0.015": 0.0,
			"-0.014": 0.0,
			"-0.013": 1.21938198716,
			"-0.012": 0.830897830357,
			"-0.011": 0.878160670153,
			"-0.01": 1.31379984692,
			"-0.009": 1.28826211294,
			"-0.008": 0.879704095097,
			"-0.007": 4.76009661924,
			"-0.006": 12.8770583611,
			"-0.005": 16.3959295804,
			"-0.004": 16.6499263633,
			"-0.003": 14.6377827521,
			"-0.002": 12.7797009268,
			"-0.001": 11.6627996151,
			"0.0": 13.0519571845,
			"0.001": 12.836497748,
			"0.002": 13.2124429378,
			"0.003": 15.5554528315,
			"0.004": 14.4935959384,
			"0.005": 6.64312885904,
			"0.006": 2.67296909648,
			"0.007": 2.36459384816,
			"0.008": 3.3220151567,
			"0.009": 1.86234287259,
			"0.01": 1.7471187266,
			"0.011": 2.05879403135,
			"0.012": 2.3859604468,
			"0.013": 1.45788011588,
			"0.014": 1.37150596407,
			"0.015": 1.76808606563,
			"0.016": 0.584719020453,
			"0.017": 0.56423365856,
			"0.018": 0.0180743788772,
			"0.019": 0.0,
			"0.02": 0.0,
			"0.021": 0.0,
			"0.022": 0.0,
			"0.023": 0.0,
			"0.024": 0.0,
			"0.025": 0.0
		}
	}
}
