{
	 "smiles": "[O-][N+](=O)C1=NNC=C1", 
	 "Tm": 447.15, 
	 "num_atms": 11, 
	 "gaussian": { 
		 "optdone": 1, 
		 "sigma_profile": "yes", 
		 "theory": "DFT", 
		 "functional": "B3LYP", 
		 "basiset": "6-31G**", 
		 "properties": { 
			 "R2extent": 1129.761, 
			 "electric_dipole_moment_norm": 6.45017529297, 
			 "electric_quadrupole_moment_norm": 5.73628707964, 
			 "total_energy": -430.691982762, 
			 "HOMO_LUMO_gap": 0.20388, 
			 "cosmo_polarized_energy": -15.92, 
			 "cosmo_cavitation_energy": 16.55, 
			 "cosmo_dispersion_energy": -12.47, 
			 "cosmo_repulsion_energy": 1.05, 
			 "cosmo_total_nonelectrostatic_energy": 5.13, 
			 "SMD_solvation_energy": 5.01 
		},
		"coords": [
			{
				"x": 1.7484680123,
				"y": 1.5119728049,
				"z": -2.2876936852,
				"element": "O" 
			},
			{
				"x": 0.6145961135,
				"y": 1.3270328839,
				"z": -1.8381101633,
				"element": "N" 
			},
			{
				"x": -0.4325247744,
				"y": 1.4273782126,
				"z": -2.4667842113,
				"element": "O" 
			},
			{
				"x": 0.5469653626,
				"y": 0.9591678462,
				"z": -0.4364018177,
				"element": "C" 
			},
			{
				"x": -0.6269457641,
				"y": 0.737364461,
				"z": 0.1452996035,
				"element": "N" 
			},
			{
				"x": -0.285213969,
				"y": 0.4318324862,
				"z": 1.4017940974,
				"element": "N" 
			},
			{
				"x": 1.0604686175,
				"y": 0.4541324605,
				"z": 1.6287090644,
				"element": "C" 
			},
			{
				"x": 1.6478765161,
				"y": 0.8004367284,
				"z": 0.4310108136,
				"element": "C" 
			},
			{
				"x": -1.0186603521,
				"y": 0.2163876025,
				"z": 2.0613061633,
				"element": "H" 
			},
			{
				"x": 1.4800069737,
				"y": 0.2279173629,
				"z": 2.5977385577,
				"element": "H" 
			},
			{
				"x": 2.692463264,
				"y": 0.9237771509,
				"z": 0.1986315778,
				"element": "H" 
			}
		],
		 "valence_orbital": [ 
			{
				"type": "occ",
				"energy": -0.30518,
				"method": "rhf"
			},
			{
				"type": "occ",
				"energy": -0.30362,
				"method": "rhf"
			},
			{
				"type": "occ",
				"energy": -0.29674,
				"method": "rhf"
			},
			{
				"type": "occ",
				"energy": -0.28727,
				"method": "rhf"
			},
			{
				"type": "occ",
				"energy": -0.28385,
				"method": "rhf"
			},
			{
				"type": "unocc",
				"energy": -0.07997,
				"method": "rhf"
			},
			{
				"type": "unocc",
				"energy": -0.0069,
				"method": "rhf"
			},
			{
				"type": "unocc",
				"energy": 0.05074,
				"method": "rhf"
			},
			{
				"type": "unocc",
				"energy": 0.06608,
				"method": "rhf"
			},
			{
				"type": "unocc",
				"energy": 0.10954,
				"method": "rhf"
			}
		],
		"cosmo_sigma_profile": { 
			"-0.025": 0.0,
			"-0.024": 0.0,
			"-0.023": 0.0,
			"-0.022": 0.0,
			"-0.021": 0.0,
			"-0.02": 0.0,
			"-0.019": 0.274360018525,
			"-0.018": 2.18566372778,
			"-0.017": 1.12226188248,
			"-0.016": 1.14139137584,
			"-0.015": 1.33065732562,
			"-0.014": 1.31243358586,
			"-0.013": 1.15256558617,
			"-0.012": 0.870229112114,
			"-0.011": 2.13787701892,
			"-0.01": 3.55603135003,
			"-0.009": 3.15728643989,
			"-0.008": 3.60420112881,
			"-0.007": 3.3408437607,
			"-0.006": 4.93780442629,
			"-0.005": 5.42496579559,
			"-0.004": 4.46754145988,
			"-0.003": 4.78035351319,
			"-0.002": 6.00337875484,
			"-0.001": 8.756985956,
			"0.0": 9.64187275525,
			"0.001": 8.27173090119,
			"0.002": 7.17599660075,
			"0.003": 2.66144835074,
			"0.004": 3.42308056379,
			"0.005": 3.410690179,
			"0.006": 4.38995769815,
			"0.007": 8.49721064847,
			"0.008": 10.5798784195,
			"0.009": 6.39251284411,
			"0.01": 3.67238110458,
			"0.011": 1.81404828645,
			"0.012": 1.65077545938,
			"0.013": 1.34936258096,
			"0.014": 0.790678212137,
			"0.015": 0.0,
			"0.016": 0.0,
			"0.017": 0.0,
			"0.018": 0.0,
			"0.019": 0.0,
			"0.02": 0.0,
			"0.021": 0.0,
			"0.022": 0.0,
			"0.023": 0.0,
			"0.024": 0.0,
			"0.025": 0.0
		}
	}
}
