{
	 "smiles": "COC1=C(OC)C=C(SCCC(O)=O)C=C1", 
	 "Tm": 346.15, 
	 "num_atms": 30, 
	 "gaussian": { 
		 "optdone": 1, 
		 "sigma_profile": "yes", 
		 "theory": "DFT", 
		 "functional": "B3LYP", 
		 "basiset": "6-31G**", 
		 "properties": { 
			 "R2extent": 5724.1365, 
			 "electric_dipole_moment_norm": 2.0975299092, 
			 "electric_quadrupole_moment_norm": 12.6552510153, 
			 "total_energy": -1126.67280139, 
			 "HOMO_LUMO_gap": 0.21205, 
			 "cosmo_polarized_energy": -13.48, 
			 "cosmo_cavitation_energy": 35.3, 
			 "cosmo_dispersion_energy": -24.9, 
			 "cosmo_repulsion_energy": 1.94, 
			 "cosmo_total_nonelectrostatic_energy": 12.34, 
			 "SMD_solvation_energy": 8.03 
		},
		"coords": [
			{
				"x": 0.9695406499,
				"y": -3.6231500006,
				"z": -0.1340201495,
				"element": "C" 
			},
			{
				"x": -0.2702404075,
				"y": -3.0321720923,
				"z": -0.5444374761,
				"element": "O" 
			},
			{
				"x": -0.3696161424,
				"y": -1.6771350006,
				"z": -0.3311738572,
				"element": "C" 
			},
			{
				"x": 0.4115321646,
				"y": -0.7556366438,
				"z": -1.0566191623,
				"element": "C" 
			},
			{
				"x": 1.3487269407,
				"y": -1.1731058759,
				"z": -1.975752434,
				"element": "O" 
			},
			{
				"x": 0.8013666718,
				"y": -1.7408979922,
				"z": -3.172913022,
				"element": "C" 
			},
			{
				"x": 0.2649619678,
				"y": 0.6108978886,
				"z": -0.8194550634,
				"element": "C" 
			},
			{
				"x": -0.6618602975,
				"y": 1.078798828,
				"z": 0.1219730498,
				"element": "C" 
			},
			{
				"x": -0.8696515867,
				"y": 2.8470074445,
				"z": 0.3636095828,
				"element": "S" 
			},
			{
				"x": 0.2566133264,
				"y": 3.1704593103,
				"z": 1.7887831816,
				"element": "C" 
			},
			{
				"x": -0.1549067125,
				"y": 2.4885849227,
				"z": 3.1000430535,
				"element": "C" 
			},
			{
				"x": -1.5554375401,
				"y": 2.8458590941,
				"z": 3.5510780847,
				"element": "C" 
			},
			{
				"x": -1.7068010508,
				"y": 4.1831614588,
				"z": 3.7076684752,
				"element": "O" 
			},
			{
				"x": -2.4517146514,
				"y": 2.059450568,
				"z": 3.7657419985,
				"element": "O" 
			},
			{
				"x": -1.4631693917,
				"y": 0.161431736,
				"z": 0.8163157417,
				"element": "C" 
			},
			{
				"x": -1.3045081456,
				"y": -1.2066857601,
				"z": 0.5924245299,
				"element": "C" 
			},
			{
				"x": 1.1129983367,
				"y": -3.5071684532,
				"z": 0.947551607,
				"element": "H" 
			},
			{
				"x": 0.8945715296,
				"y": -4.6853366164,
				"z": -0.3750151151,
				"element": "H" 
			},
			{
				"x": 1.8182017864,
				"y": -3.1808161517,
				"z": -0.6641318565,
				"element": "H" 
			},
			{
				"x": 0.1935715017,
				"y": -1.0014363078,
				"z": -3.7089050737,
				"element": "H" 
			},
			{
				"x": 0.1920350957,
				"y": -2.6230988654,
				"z": -2.9533422827,
				"element": "H" 
			},
			{
				"x": 1.6536569398,
				"y": -2.0251617674,
				"z": -3.7933408302,
				"element": "H" 
			},
			{
				"x": 0.8779401232,
				"y": 1.3025675006,
				"z": -1.387665582,
				"element": "H" 
			},
			{
				"x": 0.2373822719,
				"y": 4.2575728241,
				"z": 1.9018290125,
				"element": "H" 
			},
			{
				"x": 1.2729563142,
				"y": 2.8734409072,
				"z": 1.5165391738,
				"element": "H" 
			},
			{
				"x": 0.5475147325,
				"y": 2.7935977639,
				"z": 3.8870134153,
				"element": "H" 
			},
			{
				"x": -0.1087880908,
				"y": 1.4024244964,
				"z": 3.0074713603,
				"element": "H" 
			},
			{
				"x": -2.6325804076,
				"y": 4.3220689438,
				"z": 3.9691036295,
				"element": "H" 
			},
			{
				"x": -2.1884614162,
				"y": 0.516122174,
				"z": 1.5411965925,
				"element": "H" 
			},
			{
				"x": -1.904534512,
				"y": -1.9344443337,
				"z": 1.129629416,
				"element": "H" 
			}
		],
		 "valence_orbital": [ 
			{
				"type": "occ",
				"energy": -0.27523,
				"method": "rhf"
			},
			{
				"type": "occ",
				"energy": -0.26812,
				"method": "rhf"
			},
			{
				"type": "occ",
				"energy": -0.24715,
				"method": "rhf"
			},
			{
				"type": "occ",
				"energy": -0.23277,
				"method": "rhf"
			},
			{
				"type": "occ",
				"energy": -0.22817,
				"method": "rhf"
			},
			{
				"type": "unocc",
				"energy": -0.01612,
				"method": "rhf"
			},
			{
				"type": "unocc",
				"energy": -0.00409,
				"method": "rhf"
			},
			{
				"type": "unocc",
				"energy": 0.00495,
				"method": "rhf"
			},
			{
				"type": "unocc",
				"energy": 0.05199,
				"method": "rhf"
			},
			{
				"type": "unocc",
				"energy": 0.07197,
				"method": "rhf"
			}
		],
		"cosmo_sigma_profile": { 
			"-0.025": 0.0,
			"-0.024": 0.0,
			"-0.023": 0.0,
			"-0.022": 0.0,
			"-0.021": 0.0,
			"-0.02": 0.0,
			"-0.019": 0.015508145789,
			"-0.018": 0.718201874021,
			"-0.017": 0.860883378343,
			"-0.016": 0.983922141253,
			"-0.015": 0.736123215198,
			"-0.014": 1.11219251163,
			"-0.013": 0.595228068766,
			"-0.012": 0.0105541767969,
			"-0.011": 0.651305823157,
			"-0.01": 1.21698748646,
			"-0.009": 0.420074585871,
			"-0.008": 0.598397422209,
			"-0.007": 4.35348762362,
			"-0.006": 11.0980899361,
			"-0.005": 18.8483729413,
			"-0.004": 25.7658109082,
			"-0.003": 32.01650722,
			"-0.002": 26.4616087853,
			"-0.001": 19.1939342266,
			"0.0": 16.3193653605,
			"0.001": 16.1997088667,
			"0.002": 18.1937879377,
			"0.003": 20.096294133,
			"0.004": 12.6342637466,
			"0.005": 10.5798821206,
			"0.006": 8.27668724387,
			"0.007": 7.38773940716,
			"0.008": 6.23697924687,
			"0.009": 5.3232933562,
			"0.01": 4.37311388312,
			"0.011": 5.68468870938,
			"0.012": 3.77723715108,
			"0.013": 0.101846738479,
			"0.014": 0.0,
			"0.015": 0.0,
			"0.016": 0.0,
			"0.017": 0.0,
			"0.018": 0.0,
			"0.019": 0.0,
			"0.02": 0.0,
			"0.021": 0.0,
			"0.022": 0.0,
			"0.023": 0.0,
			"0.024": 0.0,
			"0.025": 0.0
		}
	}
}
