{
	 "smiles": "CC1=C(C)C(C)=C(CC#N)C(C)=C1C", 
	 "Tm": 384.65, 
	 "num_atms": 31, 
	 "gaussian": { 
		 "optdone": 1, 
		 "sigma_profile": "yes", 
		 "theory": "DFT", 
		 "functional": "B3LYP", 
		 "basiset": "6-31G**", 
		 "properties": { 
			 "R2extent": 3117.4759, 
			 "electric_dipole_moment_norm": 4.31099386221, 
			 "electric_quadrupole_moment_norm": 18.4839080765, 
			 "total_energy": -560.385417701, 
			 "HOMO_LUMO_gap": 0.22159, 
			 "cosmo_polarized_energy": -9.74, 
			 "cosmo_cavitation_energy": 31.84, 
			 "cosmo_dispersion_energy": -22.49, 
			 "cosmo_repulsion_energy": 1.75, 
			 "cosmo_total_nonelectrostatic_energy": 11.09, 
			 "SMD_solvation_energy": 6.41 
		},
		"coords": [
			{
				"x": -2.59141289,
				"y": 1.9654715044,
				"z": -0.4116691806,
				"element": "C" 
			},
			{
				"x": -1.3664998558,
				"y": 1.0805551569,
				"z": -0.272239624,
				"element": "C" 
			},
			{
				"x": -1.4819164371,
				"y": -0.3117954054,
				"z": -0.4572427033,
				"element": "C" 
			},
			{
				"x": -2.8456865358,
				"y": -0.9366987575,
				"z": -0.6863624651,
				"element": "C" 
			},
			{
				"x": -0.3320561834,
				"y": -1.1240934628,
				"z": -0.4122195281,
				"element": "C" 
			},
			{
				"x": -0.4314829452,
				"y": -2.6114109669,
				"z": -0.6984655649,
				"element": "C" 
			},
			{
				"x": 0.9129011773,
				"y": -0.5388170751,
				"z": -0.11959319,
				"element": "C" 
			},
			{
				"x": 2.1440594945,
				"y": -1.4328636662,
				"z": 0.0413938449,
				"element": "C" 
			},
			{
				"x": 2.8878465584,
				"y": -1.6440323619,
				"z": -1.2087778327,
				"element": "C" 
			},
			{
				"x": 3.4663068957,
				"y": -1.8026542534,
				"z": -2.2031529962,
				"element": "N" 
			},
			{
				"x": 1.037827757,
				"y": 0.8493601755,
				"z": 0.0687408252,
				"element": "C" 
			},
			{
				"x": 2.4029738312,
				"y": 1.4724703332,
				"z": 0.2969568354,
				"element": "C" 
			},
			{
				"x": -0.114876934,
				"y": 1.6574733382,
				"z": 0.0225224741,
				"element": "C" 
			},
			{
				"x": -0.0131784776,
				"y": 3.1444954273,
				"z": 0.3074316874,
				"element": "C" 
			},
			{
				"x": -3.1164171792,
				"y": 2.101413624,
				"z": 0.54402091,
				"element": "H" 
			},
			{
				"x": -3.3116010614,
				"y": 1.5475358072,
				"z": -1.1175164583,
				"element": "H" 
			},
			{
				"x": -2.329567655,
				"y": 2.9596496929,
				"z": -0.7787223504,
				"element": "H" 
			},
			{
				"x": -2.8890261242,
				"y": -1.9605021279,
				"z": -0.3102529319,
				"element": "H" 
			},
			{
				"x": -3.1135856356,
				"y": -0.9712313844,
				"z": -1.751358378,
				"element": "H" 
			},
			{
				"x": -3.633378516,
				"y": -0.3799325665,
				"z": -0.1747865758,
				"element": "H" 
			},
			{
				"x": -0.612275623,
				"y": -3.200599763,
				"z": 0.2114079727,
				"element": "H" 
			},
			{
				"x": 0.4771031573,
				"y": -2.9979730852,
				"z": -1.1651326245,
				"element": "H" 
			},
			{
				"x": -1.24737283,
				"y": -2.8311369663,
				"z": -1.3890435774,
				"element": "H" 
			},
			{
				"x": 2.8351616126,
				"y": -1.0082662605,
				"z": 0.7749737271,
				"element": "H" 
			},
			{
				"x": 1.8592120152,
				"y": -2.4139647073,
				"z": 0.4316909254,
				"element": "H" 
			},
			{
				"x": 3.1949609043,
				"y": 0.9146784138,
				"z": -0.2072978964,
				"element": "H" 
			},
			{
				"x": 2.6641302285,
				"y": 1.526944745,
				"z": 1.363029762,
				"element": "H" 
			},
			{
				"x": 2.4477608853,
				"y": 2.4897318432,
				"z": -0.0956048694,
				"element": "H" 
			},
			{
				"x": 0.8128033185,
				"y": 3.3705519645,
				"z": 0.9842547881,
				"element": "H" 
			},
			{
				"x": 0.1466459982,
				"y": 3.7328887942,
				"z": -0.6065934979,
				"element": "H" 
			},
			{
				"x": -0.9207589507,
				"y": 3.5254519896,
				"z": 0.7801084925,
				"element": "H" 
			}
		],
		 "valence_orbital": [ 
			{
				"type": "occ",
				"energy": -0.32434,
				"method": "rhf"
			},
			{
				"type": "occ",
				"energy": -0.31616,
				"method": "rhf"
			},
			{
				"type": "occ",
				"energy": -0.31008,
				"method": "rhf"
			},
			{
				"type": "occ",
				"energy": -0.23028,
				"method": "rhf"
			},
			{
				"type": "occ",
				"energy": -0.22589,
				"method": "rhf"
			},
			{
				"type": "unocc",
				"energy": -0.0043,
				"method": "rhf"
			},
			{
				"type": "unocc",
				"energy": 0.00129,
				"method": "rhf"
			},
			{
				"type": "unocc",
				"energy": 0.04087,
				"method": "rhf"
			},
			{
				"type": "unocc",
				"energy": 0.04828,
				"method": "rhf"
			},
			{
				"type": "unocc",
				"energy": 0.07759,
				"method": "rhf"
			}
		],
		"cosmo_sigma_profile": { 
			"-0.025": 0.0,
			"-0.024": 0.0,
			"-0.023": 0.0,
			"-0.022": 0.0,
			"-0.021": 0.0,
			"-0.02": 0.0,
			"-0.019": 0.0,
			"-0.018": 0.0,
			"-0.017": 0.0,
			"-0.016": 0.0,
			"-0.015": 0.0,
			"-0.014": 0.0,
			"-0.013": 0.0,
			"-0.012": 0.0,
			"-0.011": 0.0,
			"-0.01": 0.0,
			"-0.009": 0.0102633491456,
			"-0.008": 2.91107137381,
			"-0.007": 4.74526373049,
			"-0.006": 6.01775642296,
			"-0.005": 6.30488114737,
			"-0.004": 16.7349525376,
			"-0.003": 37.2525582681,
			"-0.002": 36.0710936421,
			"-0.001": 28.9336187574,
			"0.0": 29.2519847402,
			"0.001": 20.532063532,
			"0.002": 9.55223478172,
			"0.003": 7.75082994703,
			"0.004": 6.99917948179,
			"0.005": 6.2941609356,
			"0.006": 8.25318281081,
			"0.007": 4.99014995928,
			"0.008": 3.03268610351,
			"0.009": 3.43566465379,
			"0.01": 3.48474219703,
			"0.011": 3.10822567932,
			"0.012": 2.59234601991,
			"0.013": 2.26637353613,
			"0.014": 0.557944706858,
			"0.015": 0.0,
			"0.016": 0.0,
			"0.017": 0.0,
			"0.018": 0.0,
			"0.019": 0.0,
			"0.02": 0.0,
			"0.021": 0.0,
			"0.022": 0.0,
			"0.023": 0.0,
			"0.024": 0.0,
			"0.025": 0.0
		}
	}
}
