{
	 "smiles": "CCCCCNCCCCC", 
	 "Tm": 265.3, 
	 "num_atms": 34, 
	 "gaussian": { 
		 "optdone": 1, 
		 "sigma_profile": "yes", 
		 "theory": "DFT", 
		 "functional": "B3LYP", 
		 "basiset": "6-31G**", 
		 "properties": { 
			 "R2extent": 3630.4456, 
			 "electric_dipole_moment_norm": 0.947250853787, 
			 "electric_quadrupole_moment_norm": 3.33520343907, 
			 "total_energy": -449.693757243, 
			 "HOMO_LUMO_gap": 0.27796, 
			 "cosmo_polarized_energy": -3.69, 
			 "cosmo_cavitation_energy": 33.82, 
			 "cosmo_dispersion_energy": -23.49, 
			 "cosmo_repulsion_energy": 1.97, 
			 "cosmo_total_nonelectrostatic_energy": 12.29, 
			 "SMD_solvation_energy": 3.03 
		},
		"coords": [
			{
				"x": 3.0825188975,
				"y": -2.144160209,
				"z": 1.4894245038,
				"element": "C" 
			},
			{
				"x": 2.4904239767,
				"y": -1.1129333865,
				"z": 2.4571602513,
				"element": "C" 
			},
			{
				"x": 1.0404857376,
				"y": -1.4041748356,
				"z": 2.8862480665,
				"element": "C" 
			},
			{
				"x": -0.0124582398,
				"y": -1.4138098791,
				"z": 1.7649471999,
				"element": "C" 
			},
			{
				"x": -0.2039084848,
				"y": -0.0677232221,
				"z": 1.0591346743,
				"element": "C" 
			},
			{
				"x": -1.3356175353,
				"y": -0.1341013463,
				"z": 0.1354295666,
				"element": "N" 
			},
			{
				"x": -1.6897827903,
				"y": 1.0924339092,
				"z": -0.5822380533,
				"element": "C" 
			},
			{
				"x": -1.0681455856,
				"y": 1.2981072363,
				"z": -1.9775929457,
				"element": "C" 
			},
			{
				"x": 0.4612986,
				"y": 1.4197055916,
				"z": -2.0181736145,
				"element": "C" 
			},
			{
				"x": 1.0418429427,
				"y": 1.6601207083,
				"z": -3.4229399835,
				"element": "C" 
			},
			{
				"x": 0.6850099958,
				"y": 3.0193200429,
				"z": -4.0367634979,
				"element": "C" 
			},
			{
				"x": 2.5491228563,
				"y": -2.1614535094,
				"z": 0.5331249685,
				"element": "H" 
			},
			{
				"x": 3.0351627378,
				"y": -3.1549779469,
				"z": 1.9115101088,
				"element": "H" 
			},
			{
				"x": 4.1331153035,
				"y": -1.9239189983,
				"z": 1.2730017664,
				"element": "H" 
			},
			{
				"x": 3.1127660831,
				"y": -1.0747921155,
				"z": 3.36054474,
				"element": "H" 
			},
			{
				"x": 2.5548043322,
				"y": -0.1133124239,
				"z": 2.0090565887,
				"element": "H" 
			},
			{
				"x": 1.0160114467,
				"y": -2.379084098,
				"z": 3.3919388511,
				"element": "H" 
			},
			{
				"x": 0.7418828644,
				"y": -0.6652280257,
				"z": 3.6424103597,
				"element": "H" 
			},
			{
				"x": -0.9812144983,
				"y": -1.7126158461,
				"z": 2.1823782008,
				"element": "H" 
			},
			{
				"x": 0.2447761766,
				"y": -2.1789885983,
				"z": 1.0186612542,
				"element": "H" 
			},
			{
				"x": 0.7434089591,
				"y": 0.2425814292,
				"z": 0.5842964147,
				"element": "H" 
			},
			{
				"x": -0.434230387,
				"y": 0.7000407412,
				"z": 1.8109422639,
				"element": "H" 
			},
			{
				"x": -1.2135373107,
				"y": -0.9041293632,
				"z": -0.517478086,
				"element": "H" 
			},
			{
				"x": -2.7827336981,
				"y": 1.120882985,
				"z": -0.7019960497,
				"element": "H" 
			},
			{
				"x": -1.4350130008,
				"y": 1.9426240365,
				"z": 0.0635120062,
				"element": "H" 
			},
			{
				"x": -1.5259038388,
				"y": 2.1969035281,
				"z": -2.4121406762,
				"element": "H" 
			},
			{
				"x": -1.3779602081,
				"y": 0.4642865691,
				"z": -2.6262844325,
				"element": "H" 
			},
			{
				"x": 0.7809664871,
				"y": 2.2334733041,
				"z": -1.3510395295,
				"element": "H" 
			},
			{
				"x": 0.9035671431,
				"y": 0.5016455202,
				"z": -1.6127833347,
				"element": "H" 
			},
			{
				"x": 2.1345430031,
				"y": 1.5721135635,
				"z": -3.3693199791,
				"element": "H" 
			},
			{
				"x": 0.7069576417,
				"y": 0.856644002,
				"z": -4.0936977538,
				"element": "H" 
			},
			{
				"x": 1.0152987819,
				"y": 3.8416128126,
				"z": -3.3911641564,
				"element": "H" 
			},
			{
				"x": -0.3933879803,
				"y": 3.1313259786,
				"z": -4.1887317589,
				"element": "H" 
			},
			{
				"x": 1.1670295911,
				"y": 3.1492818458,
				"z": -5.0113779335,
				"element": "H" 
			}
		],
		 "valence_orbital": [ 
			{
				"type": "occ",
				"energy": -0.31922,
				"method": "rhf"
			},
			{
				"type": "occ",
				"energy": -0.31474,
				"method": "rhf"
			},
			{
				"type": "occ",
				"energy": -0.31355,
				"method": "rhf"
			},
			{
				"type": "occ",
				"energy": -0.30307,
				"method": "rhf"
			},
			{
				"type": "occ",
				"energy": -0.20336,
				"method": "rhf"
			},
			{
				"type": "unocc",
				"energy": 0.0746,
				"method": "rhf"
			},
			{
				"type": "unocc",
				"energy": 0.09104,
				"method": "rhf"
			},
			{
				"type": "unocc",
				"energy": 0.10434,
				"method": "rhf"
			},
			{
				"type": "unocc",
				"energy": 0.11365,
				"method": "rhf"
			},
			{
				"type": "unocc",
				"energy": 0.11563,
				"method": "rhf"
			}
		],
		"cosmo_sigma_profile": { 
			"-0.025": 0.0,
			"-0.024": 0.0,
			"-0.023": 0.0,
			"-0.022": 0.0,
			"-0.021": 0.0,
			"-0.02": 0.0,
			"-0.019": 0.0,
			"-0.018": 0.0,
			"-0.017": 0.0,
			"-0.016": 0.0,
			"-0.015": 0.0,
			"-0.014": 0.0,
			"-0.013": 0.0,
			"-0.012": 0.0,
			"-0.011": 0.0,
			"-0.01": 0.0,
			"-0.009": 0.216892639411,
			"-0.008": 1.14863151705,
			"-0.007": 1.18022943889,
			"-0.006": 1.3735177266,
			"-0.005": 1.93019654342,
			"-0.004": 2.06046082659,
			"-0.003": 8.9884082564,
			"-0.002": 40.9834000301,
			"-0.001": 53.8987254261,
			"0.0": 60.4871049007,
			"0.001": 51.1160697865,
			"0.002": 21.2885352638,
			"0.003": 2.70721469763,
			"0.004": 1.65850865717,
			"0.005": 0.895846398479,
			"0.006": 0.708507467107,
			"0.007": 1.0579954476,
			"0.008": 1.19499447529,
			"0.009": 0.522134403543,
			"0.01": 0.437014429774,
			"0.011": 0.97991854142,
			"0.012": 0.68587385861,
			"0.013": 0.485811296389,
			"0.014": 0.684402691171,
			"0.015": 0.370058042803,
			"0.016": 0.579098860324,
			"0.017": 0.439613123056,
			"0.018": 0.359956738296,
			"0.019": 0.104918965784,
			"0.02": 0.0,
			"0.021": 0.0,
			"0.022": 0.0,
			"0.023": 0.0,
			"0.024": 0.0,
			"0.025": 0.0
		}
	}
}
