{
	 "smiles": "NC(=S)NN=CC1=CC=CS1", 
	 "Tm": 435.15, 
	 "num_atms": 18, 
	 "gaussian": { 
		 "optdone": 1, 
		 "sigma_profile": "yes", 
		 "theory": "DFT", 
		 "functional": "B3LYP", 
		 "basiset": "6-31G**", 
		 "properties": { 
			 "R2extent": 2905.2602, 
			 "electric_dipole_moment_norm": 4.89396378511, 
			 "electric_quadrupole_moment_norm": 24.4487922391, 
			 "total_energy": -1193.42809775, 
			 "HOMO_LUMO_gap": 0.14533, 
			 "cosmo_polarized_energy": -21.14, 
			 "cosmo_cavitation_energy": 25.63, 
			 "cosmo_dispersion_energy": -19.48, 
			 "cosmo_repulsion_energy": 1.49, 
			 "cosmo_total_nonelectrostatic_energy": 7.65, 
			 "SMD_solvation_energy": 3.0 
		},
		"coords": [
			{
				"x": 2.4197054431,
				"y": 1.7228989238,
				"z": 2.4061878986,
				"element": "N" 
			},
			{
				"x": 1.1241447365,
				"y": 1.8510411535,
				"z": 1.9643904217,
				"element": "C" 
			},
			{
				"x": 0.5785642784,
				"y": 3.2240097255,
				"z": 1.1994181557,
				"element": "S" 
			},
			{
				"x": 0.3765169757,
				"y": 0.7174571024,
				"z": 2.2519207518,
				"element": "N" 
			},
			{
				"x": -1.0349709743,
				"y": 0.7209597815,
				"z": 2.2518539411,
				"element": "N" 
			},
			{
				"x": -1.6336786382,
				"y": 0.6331647809,
				"z": 1.1143290939,
				"element": "C" 
			},
			{
				"x": -1.1667026827,
				"y": 0.4333674622,
				"z": -0.2461203611,
				"element": "C" 
			},
			{
				"x": 0.0866900124,
				"y": 0.2194692119,
				"z": -0.7883962458,
				"element": "C" 
			},
			{
				"x": 0.0599471085,
				"y": -0.0275759208,
				"z": -2.1849695955,
				"element": "C" 
			},
			{
				"x": -1.2079311715,
				"y": 0.0070526769,
				"z": -2.7098165243,
				"element": "C" 
			},
			{
				"x": -2.3914627245,
				"y": 0.3350254329,
				"z": -1.5022441408,
				"element": "S" 
			},
			{
				"x": 3.047199727,
				"y": 2.4497630582,
				"z": 2.0973331831,
				"element": "H" 
			},
			{
				"x": 2.8213492147,
				"y": 0.7992311507,
				"z": 2.5038672793,
				"element": "H" 
			},
			{
				"x": 0.6787498377,
				"y": 0.2753739095,
				"z": 3.1148342222,
				"element": "H" 
			},
			{
				"x": -2.7188170176,
				"y": 0.6669373643,
				"z": 1.2258993015,
				"element": "H" 
			},
			{
				"x": 0.9914700693,
				"y": 0.2355113956,
				"z": -0.1989790618,
				"element": "H" 
			},
			{
				"x": 0.9457876637,
				"y": -0.2142911389,
				"z": -2.780939868,
				"element": "H" 
			},
			{
				"x": -1.5076618582,
				"y": -0.1322960703,
				"z": -3.7393684516,
				"element": "H" 
			}
		],
		 "valence_orbital": [ 
			{
				"type": "occ",
				"energy": -0.2631,
				"method": "rhf"
			},
			{
				"type": "occ",
				"energy": -0.25811,
				"method": "rhf"
			},
			{
				"type": "occ",
				"energy": -0.22999,
				"method": "rhf"
			},
			{
				"type": "occ",
				"energy": -0.21879,
				"method": "rhf"
			},
			{
				"type": "occ",
				"energy": -0.20574,
				"method": "rhf"
			},
			{
				"type": "unocc",
				"energy": -0.06041,
				"method": "rhf"
			},
			{
				"type": "unocc",
				"energy": -0.01189,
				"method": "rhf"
			},
			{
				"type": "unocc",
				"energy": 0.01558,
				"method": "rhf"
			},
			{
				"type": "unocc",
				"energy": 0.02176,
				"method": "rhf"
			},
			{
				"type": "unocc",
				"energy": 0.05695,
				"method": "rhf"
			}
		],
		"cosmo_sigma_profile": { 
			"-0.025": 0.0,
			"-0.024": 0.0,
			"-0.023": 0.0,
			"-0.022": 0.0,
			"-0.021": 0.0,
			"-0.02": 0.0,
			"-0.019": 0.0,
			"-0.018": 0.0,
			"-0.017": 0.00137919797607,
			"-0.016": 1.70820992029,
			"-0.015": 3.26525939224,
			"-0.014": 3.31768276869,
			"-0.013": 2.81544255022,
			"-0.012": 2.97951947713,
			"-0.011": 2.69805278353,
			"-0.01": 2.43857243505,
			"-0.009": 5.88327674148,
			"-0.008": 6.16762555765,
			"-0.007": 8.43325876461,
			"-0.006": 8.91296496249,
			"-0.005": 9.43128651613,
			"-0.004": 8.80762860187,
			"-0.003": 7.49649067029,
			"-0.002": 8.20397363002,
			"-0.001": 8.42844917779,
			"0.0": 10.6040703128,
			"0.001": 11.260541734,
			"0.002": 15.2074323975,
			"0.003": 18.5255137138,
			"0.004": 10.5477299025,
			"0.005": 5.90207882308,
			"0.006": 6.66594602212,
			"0.007": 5.67856541507,
			"0.008": 5.91119954872,
			"0.009": 8.12617255853,
			"0.01": 8.39377506968,
			"0.011": 6.83387713428,
			"0.012": 3.00098604692,
			"0.013": 0.999370474865,
			"0.014": 0.746953927342,
			"0.015": 0.190151350449,
			"0.016": 0.0,
			"0.017": 0.0,
			"0.018": 0.0,
			"0.019": 0.0,
			"0.02": 0.0,
			"0.021": 0.0,
			"0.022": 0.0,
			"0.023": 0.0,
			"0.024": 0.0,
			"0.025": 0.0
		}
	}
}
