{
	 "smiles": "COC1=CC(C=C2/C(=O)NN=C2C2=C(O)C3=CC=CC=C3N(C)C2=O)=CC=C1", 
	 "Tm": 527.15, 
	 "num_atms": 45, 
	 "gaussian": { 
		 "optdone": 1, 
		 "sigma_profile": "yes", 
		 "theory": "DFT", 
		 "functional": "B3LYP", 
		 "basiset": "6-31G**", 
		 "properties": { 
			 "R2extent": 13860.6517, 
			 "electric_dipole_moment_norm": 3.14452460954, 
			 "electric_quadrupole_moment_norm": 19.2898629899, 
			 "total_energy": -1275.62897774, 
			 "HOMO_LUMO_gap": 0.11969, 
			 "cosmo_polarized_energy": -16.96, 
			 "cosmo_cavitation_energy": 48.24, 
			 "cosmo_dispersion_energy": -35.03, 
			 "cosmo_repulsion_energy": 2.54, 
			 "cosmo_total_nonelectrostatic_energy": 15.75, 
			 "SMD_solvation_energy": 9.33 
		},
		"coords": [
			{
				"x": 6.4118457576,
				"y": -0.8724388688,
				"z": 0.3742354786,
				"element": "C" 
			},
			{
				"x": 6.1449476318,
				"y": -0.5344407297,
				"z": -0.9826871936,
				"element": "O" 
			},
			{
				"x": 4.8499085277,
				"y": -0.3116797634,
				"z": -1.3408956579,
				"element": "C" 
			},
			{
				"x": 3.7721740982,
				"y": -0.387223553,
				"z": -0.4592640962,
				"element": "C" 
			},
			{
				"x": 2.4621622563,
				"y": -0.1383954855,
				"z": -0.9277545015,
				"element": "C" 
			},
			{
				"x": 1.2573825682,
				"y": -0.17563253,
				"z": -0.1169761343,
				"element": "C" 
			},
			{
				"x": 1.0017934116,
				"y": -0.3959341244,
				"z": 1.2094547304,
				"element": "C" 
			},
			{
				"x": 1.950703696,
				"y": -0.6817425695,
				"z": 2.3290674084,
				"element": "C" 
			},
			{
				"x": 3.1578556146,
				"y": -0.9161204427,
				"z": 2.3663441048,
				"element": "O" 
			},
			{
				"x": 1.1483285807,
				"y": -0.6343246005,
				"z": 3.4464336174,
				"element": "N" 
			},
			{
				"x": -0.1777713627,
				"y": -0.4257887137,
				"z": 3.1725328921,
				"element": "N" 
			},
			{
				"x": -0.3178430961,
				"y": -0.2867464985,
				"z": 1.8687014245,
				"element": "C" 
			},
			{
				"x": -1.6641561424,
				"y": 0.0829191647,
				"z": 1.3844021528,
				"element": "C" 
			},
			{
				"x": -2.5567085444,
				"y": 0.6994686953,
				"z": 2.2593432581,
				"element": "C" 
			},
			{
				"x": -2.2994753955,
				"y": 0.9128575854,
				"z": 3.5480925107,
				"element": "O" 
			},
			{
				"x": -3.8423959223,
				"y": 1.1754240404,
				"z": 1.801942329,
				"element": "C" 
			},
			{
				"x": -4.7076425211,
				"y": 1.8787438627,
				"z": 2.660777212,
				"element": "C" 
			},
			{
				"x": -5.9322796623,
				"y": 2.341837459,
				"z": 2.2086534572,
				"element": "C" 
			},
			{
				"x": -6.3109621926,
				"y": 2.0955927266,
				"z": 0.8814866599,
				"element": "C" 
			},
			{
				"x": -5.4788478596,
				"y": 1.3955393324,
				"z": 0.0180096226,
				"element": "C" 
			},
			{
				"x": -4.2280987794,
				"y": 0.9228290082,
				"z": 0.4649644464,
				"element": "C" 
			},
			{
				"x": -3.3788177967,
				"y": 0.2054443828,
				"z": -0.3650695237,
				"element": "N" 
			},
			{
				"x": -3.808638597,
				"y": -0.131363715,
				"z": -1.7224261988,
				"element": "C" 
			},
			{
				"x": -2.1100999135,
				"y": -0.2599013936,
				"z": 0.035825567,
				"element": "C" 
			},
			{
				"x": -1.4410422607,
				"y": -0.9354802704,
				"z": -0.7541246424,
				"element": "O" 
			},
			{
				"x": 2.2677620921,
				"y": 0.1775160316,
				"z": -2.2911059618,
				"element": "C" 
			},
			{
				"x": 3.3534339409,
				"y": 0.2499121406,
				"z": -3.1596631566,
				"element": "C" 
			},
			{
				"x": 4.6419764938,
				"y": 0.0087167193,
				"z": -2.6935640104,
				"element": "C" 
			},
			{
				"x": 5.9082737831,
				"y": -1.8019881984,
				"z": 0.6646415423,
				"element": "H" 
			},
			{
				"x": 7.4925473553,
				"y": -1.0062054498,
				"z": 0.4407071568,
				"element": "H" 
			},
			{
				"x": 6.0978018997,
				"y": -0.0749099412,
				"z": 1.05788054,
				"element": "H" 
			},
			{
				"x": 3.9075351541,
				"y": -0.6403971626,
				"z": 0.5832343569,
				"element": "H" 
			},
			{
				"x": 0.3617587724,
				"y": -0.0035621927,
				"z": -0.7015926152,
				"element": "H" 
			},
			{
				"x": 1.4389562417,
				"y": -0.8719606157,
				"z": 4.381694116,
				"element": "H" 
			},
			{
				"x": -1.4432981214,
				"y": 0.4382411844,
				"z": 3.7587543845,
				"element": "H" 
			},
			{
				"x": -4.3872509385,
				"y": 2.0486174577,
				"z": 3.6818681677,
				"element": "H" 
			},
			{
				"x": -6.5923991041,
				"y": 2.8868946398,
				"z": 2.8755011954,
				"element": "H" 
			},
			{
				"x": -7.2695595902,
				"y": 2.4523197429,
				"z": 0.5158581742,
				"element": "H" 
			},
			{
				"x": -5.7991046505,
				"y": 1.2175236328,
				"z": -1.0001806127,
				"element": "H" 
			},
			{
				"x": -3.0176706503,
				"y": -0.7253381739,
				"z": -2.1729640636,
				"element": "H" 
			},
			{
				"x": -3.9694254794,
				"y": 0.7766398095,
				"z": -2.3124636588,
				"element": "H" 
			},
			{
				"x": -4.7358941536,
				"y": -0.7119300879,
				"z": -1.6985366974,
				"element": "H" 
			},
			{
				"x": 1.2622985036,
				"y": 0.3599306625,
				"z": -2.6573845176,
				"element": "H" 
			},
			{
				"x": 3.1973560548,
				"y": 0.492950868,
				"z": -4.2064065735,
				"element": "H" 
			},
			{
				"x": 5.5024803,
				"y": 0.057485934,
				"z": -3.3531466897,
				"element": "H" 
			}
		],
		 "valence_orbital": [ 
			{
				"type": "occ",
				"energy": -0.25193,
				"method": "rhf"
			},
			{
				"type": "occ",
				"energy": -0.23817,
				"method": "rhf"
			},
			{
				"type": "occ",
				"energy": -0.22737,
				"method": "rhf"
			},
			{
				"type": "occ",
				"energy": -0.21961,
				"method": "rhf"
			},
			{
				"type": "occ",
				"energy": -0.20897,
				"method": "rhf"
			},
			{
				"type": "unocc",
				"energy": -0.08928,
				"method": "rhf"
			},
			{
				"type": "unocc",
				"energy": -0.05305,
				"method": "rhf"
			},
			{
				"type": "unocc",
				"energy": -0.01186,
				"method": "rhf"
			},
			{
				"type": "unocc",
				"energy": 0.00767,
				"method": "rhf"
			},
			{
				"type": "unocc",
				"energy": 0.01695,
				"method": "rhf"
			}
		],
		"cosmo_sigma_profile": { 
			"-0.025": 0.0,
			"-0.024": 0.0,
			"-0.023": 0.0,
			"-0.022": 0.0,
			"-0.021": 0.0,
			"-0.02": 0.0,
			"-0.019": 0.0,
			"-0.018": 0.0,
			"-0.017": 0.234676271739,
			"-0.016": 1.32957810578,
			"-0.015": 1.27916930941,
			"-0.014": 0.68992200669,
			"-0.013": 0.970664757262,
			"-0.012": 1.42773970242,
			"-0.011": 0.558368729945,
			"-0.01": 0.695770201851,
			"-0.009": 0.553973286048,
			"-0.008": 0.831688712567,
			"-0.007": 6.6038920509,
			"-0.006": 21.572424368,
			"-0.005": 26.5258740691,
			"-0.004": 29.2247408535,
			"-0.003": 29.5793367192,
			"-0.002": 29.4919296593,
			"-0.001": 31.4689913647,
			"0.0": 32.4911144401,
			"0.001": 31.1323903275,
			"0.002": 31.5258308112,
			"0.003": 34.2570699166,
			"0.004": 25.587157094,
			"0.005": 9.63864786388,
			"0.006": 5.9646180881,
			"0.007": 8.09117989278,
			"0.008": 6.19456534961,
			"0.009": 4.51902004414,
			"0.01": 3.98828185846,
			"0.011": 3.44152528081,
			"0.012": 3.554229986,
			"0.013": 3.78579587208,
			"0.014": 0.831094932236,
			"0.015": 0.0,
			"0.016": 0.0,
			"0.017": 0.0,
			"0.018": 0.0,
			"0.019": 0.0,
			"0.02": 0.0,
			"0.021": 0.0,
			"0.022": 0.0,
			"0.023": 0.0,
			"0.024": 0.0,
			"0.025": 0.0
		}
	}
}
