{
	 "smiles": "O=C1CCCCCCCCCCC(=O)OCCO1", 
	 "Tm": 291.15, 
	 "num_atms": 42, 
	 "gaussian": { 
		 "optdone": 1, 
		 "sigma_profile": "yes", 
		 "theory": "DFT", 
		 "functional": "B3LYP", 
		 "basiset": "6-31G**", 
		 "properties": { 
			 "R2extent": 5809.3596, 
			 "electric_dipole_moment_norm": 4.32385648004, 
			 "electric_quadrupole_moment_norm": 20.952060177, 
			 "total_energy": -848.872917382, 
			 "HOMO_LUMO_gap": 0.24932, 
			 "cosmo_polarized_energy": -12.57, 
			 "cosmo_cavitation_energy": 39.76, 
			 "cosmo_dispersion_energy": -27.2, 
			 "cosmo_repulsion_energy": 2.09, 
			 "cosmo_total_nonelectrostatic_energy": 14.64, 
			 "SMD_solvation_energy": 6.74 
		},
		"coords": [
			{
				"x": -0.8866796167,
				"y": 0.9227066248,
				"z": 1.2662373467,
				"element": "O" 
			},
			{
				"x": -0.1245979049,
				"y": 1.4237186994,
				"z": 2.069221482,
				"element": "C" 
			},
			{
				"x": 0.3853398187,
				"y": 2.8484760105,
				"z": 1.9683576888,
				"element": "C" 
			},
			{
				"x": 0.8272510479,
				"y": 3.113429338,
				"z": 0.512856833,
				"element": "C" 
			},
			{
				"x": 1.9097419195,
				"y": 2.119930781,
				"z": 0.0140343592,
				"element": "C" 
			},
			{
				"x": 1.6112021024,
				"y": 1.4999725968,
				"z": -1.36417336,
				"element": "C" 
			},
			{
				"x": 2.4854730885,
				"y": 0.268073765,
				"z": -1.676845666,
				"element": "C" 
			},
			{
				"x": 2.0006213687,
				"y": -1.0202040507,
				"z": -0.9772504548,
				"element": "C" 
			},
			{
				"x": 0.8954045284,
				"y": -1.7747084372,
				"z": -1.741693061,
				"element": "C" 
			},
			{
				"x": 0.1216022264,
				"y": -2.7939973456,
				"z": -0.8772674535,
				"element": "C" 
			},
			{
				"x": -1.0450171037,
				"y": -2.1347741911,
				"z": -0.1239702326,
				"element": "C" 
			},
			{
				"x": -1.7667037603,
				"y": -3.0324526207,
				"z": 0.9089592416,
				"element": "C" 
			},
			{
				"x": -0.9061307118,
				"y": -3.5340513956,
				"z": 2.061188519,
				"element": "C" 
			},
			{
				"x": -0.3775208685,
				"y": -4.6199371389,
				"z": 2.0556938782,
				"element": "O" 
			},
			{
				"x": -0.7565807585,
				"y": -2.7645918339,
				"z": 3.1891726732,
				"element": "O" 
			},
			{
				"x": -0.9895438018,
				"y": -1.3505564682,
				"z": 3.2209907962,
				"element": "C" 
			},
			{
				"x": 0.3840679412,
				"y": -0.6972324003,
				"z": 3.0413225269,
				"element": "C" 
			},
			{
				"x": 0.4212157584,
				"y": 0.7452528275,
				"z": 3.1055486809,
				"element": "O" 
			},
			{
				"x": 1.2041359227,
				"y": 2.9939832219,
				"z": 2.6776417154,
				"element": "H" 
			},
			{
				"x": -0.4259897168,
				"y": 3.5318181843,
				"z": 2.2464410373,
				"element": "H" 
			},
			{
				"x": 1.1791659022,
				"y": 4.1475229469,
				"z": 0.4355203177,
				"element": "H" 
			},
			{
				"x": -0.0617773402,
				"y": 3.0343765225,
				"z": -0.1206979144,
				"element": "H" 
			},
			{
				"x": 2.0224967301,
				"y": 1.3079867856,
				"z": 0.7438012416,
				"element": "H" 
			},
			{
				"x": 2.8899357652,
				"y": 2.611869312,
				"z": -0.0155008325,
				"element": "H" 
			},
			{
				"x": 1.7455275393,
				"y": 2.2642499062,
				"z": -2.1403878284,
				"element": "H" 
			},
			{
				"x": 0.5530292343,
				"y": 1.2101629834,
				"z": -1.4004045771,
				"element": "H" 
			},
			{
				"x": 3.5215075302,
				"y": 0.4835343456,
				"z": -1.3835985108,
				"element": "H" 
			},
			{
				"x": 2.5111601754,
				"y": 0.0964386257,
				"z": -2.7607958293,
				"element": "H" 
			},
			{
				"x": 1.6410311484,
				"y": -0.7641661751,
				"z": 0.027829598,
				"element": "H" 
			},
			{
				"x": 2.8442736469,
				"y": -1.7045665115,
				"z": -0.8233475688,
				"element": "H" 
			},
			{
				"x": 0.1811844418,
				"y": -1.0568998974,
				"z": -2.168781352,
				"element": "H" 
			},
			{
				"x": 1.3546775403,
				"y": -2.2839372562,
				"z": -2.5982308777,
				"element": "H" 
			},
			{
				"x": -0.2733248497,
				"y": -3.5995286464,
				"z": -1.5089734127,
				"element": "H" 
			},
			{
				"x": 0.809114939,
				"y": -3.2803585327,
				"z": -0.1729428711,
				"element": "H" 
			},
			{
				"x": -0.7134984893,
				"y": -1.2100423343,
				"z": 0.3538484796,
				"element": "H" 
			},
			{
				"x": -1.799603837,
				"y": -1.8222905364,
				"z": -0.8569998806,
				"element": "H" 
			},
			{
				"x": -2.6453786466,
				"y": -2.5038501999,
				"z": 1.2944154937,
				"element": "H" 
			},
			{
				"x": -2.1213722323,
				"y": -3.9414126625,
				"z": 0.4152752244,
				"element": "H" 
			},
			{
				"x": -1.6884610965,
				"y": -1.0192172161,
				"z": 2.4549433977,
				"element": "H" 
			},
			{
				"x": -1.405095052,
				"y": -1.1231253024,
				"z": 4.2068079871,
				"element": "H" 
			},
			{
				"x": 0.8059099014,
				"y": -1.0130769314,
				"z": 2.0829587387,
				"element": "H" 
			},
			{
				"x": 1.0499055694,
				"y": -1.0280253925,
				"z": 3.8396944264,
				"element": "H" 
			}
		],
		 "valence_orbital": [ 
			{
				"type": "occ",
				"energy": -0.30825,
				"method": "rhf"
			},
			{
				"type": "occ",
				"energy": -0.30775,
				"method": "rhf"
			},
			{
				"type": "occ",
				"energy": -0.28592,
				"method": "rhf"
			},
			{
				"type": "occ",
				"energy": -0.28259,
				"method": "rhf"
			},
			{
				"type": "occ",
				"energy": -0.25956,
				"method": "rhf"
			},
			{
				"type": "unocc",
				"energy": -0.01024,
				"method": "rhf"
			},
			{
				"type": "unocc",
				"energy": 0.00829,
				"method": "rhf"
			},
			{
				"type": "unocc",
				"energy": 0.06589,
				"method": "rhf"
			},
			{
				"type": "unocc",
				"energy": 0.08177,
				"method": "rhf"
			},
			{
				"type": "unocc",
				"energy": 0.09311,
				"method": "rhf"
			}
		],
		"cosmo_sigma_profile": { 
			"-0.025": 0.0,
			"-0.024": 0.0,
			"-0.023": 0.0,
			"-0.022": 0.0,
			"-0.021": 0.0,
			"-0.02": 0.0,
			"-0.019": 0.0,
			"-0.018": 0.0,
			"-0.017": 0.0,
			"-0.016": 0.0,
			"-0.015": 0.0,
			"-0.014": 0.0,
			"-0.013": 0.0,
			"-0.012": 0.0,
			"-0.011": 0.0,
			"-0.01": 4.36343739818e-05,
			"-0.009": 0.0257417822941,
			"-0.008": 0.597991443515,
			"-0.007": 5.6886759572,
			"-0.006": 13.2906752489,
			"-0.005": 14.6106637441,
			"-0.004": 20.2956264206,
			"-0.003": 25.7003560708,
			"-0.002": 44.5747658278,
			"-0.001": 44.0483316217,
			"0.0": 42.61233743,
			"0.001": 28.0226757189,
			"0.002": 11.7778570858,
			"0.003": 6.42053984519,
			"0.004": 6.20077466567,
			"0.005": 6.22430308651,
			"0.006": 4.49754386606,
			"0.007": 4.6151655193,
			"0.008": 4.95691595737,
			"0.009": 3.95906316426,
			"0.01": 3.40027892342,
			"0.011": 5.59534758556,
			"0.012": 7.03624881847,
			"0.013": 3.29030739231,
			"0.014": 0.517113782942,
			"0.015": 0.0,
			"0.016": 0.0,
			"0.017": 0.0,
			"0.018": 0.0,
			"0.019": 0.0,
			"0.02": 0.0,
			"0.021": 0.0,
			"0.022": 0.0,
			"0.023": 0.0,
			"0.024": 0.0,
			"0.025": 0.0
		}
	}
}
