{
	 "smiles": "OC(=O)C1=C2C=C(Br)C=CC2=NC(C=CC2=CC=C(C=C2)C(F)(F)F)=C1", 
	 "Tm": 590.15, 
	 "num_atms": 37, 
	 "gaussian": { 
		 "optdone": 1, 
		 "sigma_profile": "yes", 
		 "theory": "DFT", 
		 "functional": "B3LYP", 
		 "basiset": "6-31G**", 
		 "properties": { 
			 "R2extent": 17481.5658, 
			 "electric_dipole_moment_norm": 1.73903222224, 
			 "electric_quadrupole_moment_norm": 14.3050275823, 
			 "total_energy": -3806.79096022, 
			 "HOMO_LUMO_gap": 0.13779, 
			 "cosmo_polarized_energy": -13.13, 
			 "cosmo_cavitation_energy": 46.62, 
			 "cosmo_dispersion_energy": -32.24, 
			 "cosmo_repulsion_energy": 2.37, 
			 "cosmo_total_nonelectrostatic_energy": 16.75, 
			 "SMD_solvation_energy": 7.27 
		},
		"coords": [
			{
				"x": -1.1635866286,
				"y": 3.73834517,
				"z": -0.8540547485,
				"element": "O" 
			},
			{
				"x": -0.5870937262,
				"y": 2.7706109373,
				"z": -0.1048378215,
				"element": "C" 
			},
			{
				"x": -0.8869050604,
				"y": 2.6124210111,
				"z": 1.0610200103,
				"element": "O" 
			},
			{
				"x": 0.4180690334,
				"y": 1.9186433178,
				"z": -0.825102574,
				"element": "C" 
			},
			{
				"x": 0.9355951503,
				"y": 2.127016782,
				"z": -2.1502977551,
				"element": "C" 
			},
			{
				"x": 0.5681417131,
				"y": 3.1763329752,
				"z": -3.034451167,
				"element": "C" 
			},
			{
				"x": 1.1611997509,
				"y": 3.2706551845,
				"z": -4.2734791812,
				"element": "C" 
			},
			{
				"x": 0.6507843515,
				"y": 4.6881376008,
				"z": -5.4476943382,
				"element": "Br" 
			},
			{
				"x": 2.1412481358,
				"y": 2.3541294027,
				"z": -4.714351417,
				"element": "C" 
			},
			{
				"x": 2.5152042401,
				"y": 1.3326048451,
				"z": -3.8762890997,
				"element": "C" 
			},
			{
				"x": 1.9319721375,
				"y": 1.1861546103,
				"z": -2.5880102312,
				"element": "C" 
			},
			{
				"x": 2.3691745487,
				"y": 0.1430109811,
				"z": -1.8359076668,
				"element": "N" 
			},
			{
				"x": 1.8438930482,
				"y": -0.0485526646,
				"z": -0.6318598805,
				"element": "C" 
			},
			{
				"x": 2.4070396944,
				"y": -1.1788445776,
				"z": 0.1291274201,
				"element": "C" 
			},
			{
				"x": 1.8792764444,
				"y": -1.9233539699,
				"z": 1.1224448167,
				"element": "C" 
			},
			{
				"x": 0.5126936075,
				"y": -1.9511556417,
				"z": 1.6754884234,
				"element": "C" 
			},
			{
				"x": -0.6333481731,
				"y": -1.8260092057,
				"z": 0.8691837478,
				"element": "C" 
			},
			{
				"x": -1.907545663,
				"y": -1.9024830536,
				"z": 1.422033597,
				"element": "C" 
			},
			{
				"x": -2.0637742537,
				"y": -2.1116025774,
				"z": 2.7951887643,
				"element": "C" 
			},
			{
				"x": -0.9375921984,
				"y": -2.2568077686,
				"z": 3.6094934843,
				"element": "C" 
			},
			{
				"x": 0.3345432474,
				"y": -2.1875090081,
				"z": 3.0507146649,
				"element": "C" 
			},
			{
				"x": -3.4409524847,
				"y": -2.2536743455,
				"z": 3.3833345555,
				"element": "C" 
			},
			{
				"x": -3.859886068,
				"y": -3.5415097345,
				"z": 3.3658677262,
				"element": "F" 
			},
			{
				"x": -4.357637118,
				"y": -1.535356114,
				"z": 2.6982167897,
				"element": "F" 
			},
			{
				"x": -3.4822636086,
				"y": -1.8469906261,
				"z": 4.6713246066,
				"element": "F" 
			},
			{
				"x": 0.8782506923,
				"y": 0.8447580813,
				"z": -0.0920786541,
				"element": "C" 
			},
			{
				"x": -1.7839149068,
				"y": 4.1950679047,
				"z": -0.2607353638,
				"element": "H" 
			},
			{
				"x": -0.1756205416,
				"y": 3.8984650946,
				"z": -2.7366924071,
				"element": "H" 
			},
			{
				"x": 2.5835677211,
				"y": 2.4651052316,
				"z": -5.6975473358,
				"element": "H" 
			},
			{
				"x": 3.2636657253,
				"y": 0.603874174,
				"z": -4.1682199657,
				"element": "H" 
			},
			{
				"x": 3.4197407717,
				"y": -1.4197400664,
				"z": -0.1853417808,
				"element": "H" 
			},
			{
				"x": 2.5571709418,
				"y": -2.639476348,
				"z": 1.5858537415,
				"element": "H" 
			},
			{
				"x": -0.5215174431,
				"y": -1.6863819542,
				"z": -0.2006457333,
				"element": "H" 
			},
			{
				"x": -2.782815501,
				"y": -1.8015127577,
				"z": 0.7894187657,
				"element": "H" 
			},
			{
				"x": -1.0590899028,
				"y": -2.4197071318,
				"z": 4.674930349,
				"element": "H" 
			},
			{
				"x": 1.2069261808,
				"y": -2.3047106479,
				"z": 3.6875801578,
				"element": "H" 
			},
			{
				"x": 0.5010861418,
				"y": 0.7069448892,
				"z": 0.9126755007,
				"element": "H" 
			}
		],
		 "valence_orbital": [ 
			{
				"type": "occ",
				"energy": -0.27338,
				"method": "rhf"
			},
			{
				"type": "occ",
				"energy": -0.27237,
				"method": "rhf"
			},
			{
				"type": "occ",
				"energy": -0.26645,
				"method": "rhf"
			},
			{
				"type": "occ",
				"energy": -0.2514,
				"method": "rhf"
			},
			{
				"type": "occ",
				"energy": -0.23022,
				"method": "rhf"
			},
			{
				"type": "unocc",
				"energy": -0.09243,
				"method": "rhf"
			},
			{
				"type": "unocc",
				"energy": -0.06403,
				"method": "rhf"
			},
			{
				"type": "unocc",
				"energy": -0.02775,
				"method": "rhf"
			},
			{
				"type": "unocc",
				"energy": -0.02065,
				"method": "rhf"
			},
			{
				"type": "unocc",
				"energy": -0.0182,
				"method": "rhf"
			}
		],
		"cosmo_sigma_profile": { 
			"-0.025": 0.0,
			"-0.024": 0.0,
			"-0.023": 0.0,
			"-0.022": 0.0,
			"-0.021": 0.0,
			"-0.02": 0.0,
			"-0.019": 0.295227214775,
			"-0.018": 1.11195821814,
			"-0.017": 1.01979604269,
			"-0.016": 0.947982242394,
			"-0.015": 0.376084015864,
			"-0.014": 0.517430505997,
			"-0.013": 0.64843807797,
			"-0.012": 1.20400389152,
			"-0.011": 0.813203742944,
			"-0.01": 0.475451678255,
			"-0.009": 0.321029406968,
			"-0.008": 1.92922802434,
			"-0.007": 10.5399030456,
			"-0.006": 16.9431030668,
			"-0.005": 18.3664260544,
			"-0.004": 18.6561650369,
			"-0.003": 21.8438332961,
			"-0.002": 22.2726633185,
			"-0.001": 30.2435703469,
			"0.0": 37.3899872733,
			"0.001": 46.2035160106,
			"0.002": 47.6946155603,
			"0.003": 52.7800239159,
			"0.004": 19.6657037319,
			"0.005": 5.98990402864,
			"0.006": 2.43846801803,
			"0.007": 2.54128592245,
			"0.008": 2.78522198215,
			"0.009": 2.47716331488,
			"0.01": 3.33434120482,
			"0.011": 5.08340604273,
			"0.012": 1.51287647289,
			"0.013": 0.60025711271,
			"0.014": 0.225769998678,
			"0.015": 0.0,
			"0.016": 0.0,
			"0.017": 0.0,
			"0.018": 0.0,
			"0.019": 0.0,
			"0.02": 0.0,
			"0.021": 0.0,
			"0.022": 0.0,
			"0.023": 0.0,
			"0.024": 0.0,
			"0.025": 0.0
		}
	}
}
