{
	 "smiles": "SC1=NC=CN1C1=CC(=CC=C1)C(=O)NC1=CC=CC=C1", 
	 "Tm": 502.15, 
	 "num_atms": 34, 
	 "gaussian": { 
		 "optdone": 1, 
		 "sigma_profile": "yes", 
		 "theory": "DFT", 
		 "functional": "B3LYP", 
		 "basiset": "6-31G**", 
		 "properties": { 
			 "R2extent": 10346.7998, 
			 "electric_dipole_moment_norm": 2.40258769871, 
			 "electric_quadrupole_moment_norm": 18.8629096904, 
			 "total_energy": -1255.20804872, 
			 "HOMO_LUMO_gap": 0.15719, 
			 "cosmo_polarized_energy": -18.44, 
			 "cosmo_cavitation_energy": 40.69, 
			 "cosmo_dispersion_energy": -29.35, 
			 "cosmo_repulsion_energy": 2.18, 
			 "cosmo_total_nonelectrostatic_energy": 13.52, 
			 "SMD_solvation_energy": 5.67 
		},
		"coords": [
			{
				"x": -2.1218270952,
				"y": -4.7111696111,
				"z": -0.1076621959,
				"element": "S" 
			},
			{
				"x": -1.6634264809,
				"y": -4.6901237664,
				"z": -1.8229472639,
				"element": "C" 
			},
			{
				"x": -2.3245448914,
				"y": -5.2889192136,
				"z": -2.7865213042,
				"element": "N" 
			},
			{
				"x": -1.5877338043,
				"y": -5.0577772196,
				"z": -3.9306261137,
				"element": "C" 
			},
			{
				"x": -0.4736208919,
				"y": -4.3185584591,
				"z": -3.6507543125,
				"element": "C" 
			},
			{
				"x": -0.5193267946,
				"y": -4.0685615778,
				"z": -2.2789322706,
				"element": "N" 
			},
			{
				"x": 0.4617975783,
				"y": -3.3494107026,
				"z": -1.5370394777,
				"element": "C" 
			},
			{
				"x": 0.0779975702,
				"y": -2.300407547,
				"z": -0.6960784188,
				"element": "C" 
			},
			{
				"x": 1.0443730789,
				"y": -1.5968006891,
				"z": 0.0339855931,
				"element": "C" 
			},
			{
				"x": 2.393527128,
				"y": -1.9535518618,
				"z": -0.0879192057,
				"element": "C" 
			},
			{
				"x": 2.7726546763,
				"y": -2.9842500174,
				"z": -0.9444279681,
				"element": "C" 
			},
			{
				"x": 1.8119185876,
				"y": -3.6906766843,
				"z": -1.6676678344,
				"element": "C" 
			},
			{
				"x": 0.7212666315,
				"y": -0.4687694001,
				"z": 0.9822649781,
				"element": "C" 
			},
			{
				"x": 1.496368554,
				"y": -0.1683553976,
				"z": 1.8838062311,
				"element": "O" 
			},
			{
				"x": -0.4673049554,
				"y": 0.1790824741,
				"z": 0.7399070557,
				"element": "N" 
			},
			{
				"x": -1.0558144862,
				"y": 1.2471501171,
				"z": 1.4528578687,
				"element": "C" 
			},
			{
				"x": -2.2591651164,
				"y": 1.7647286182,
				"z": 0.9464737581,
				"element": "C" 
			},
			{
				"x": -2.9050611243,
				"y": 2.8125156755,
				"z": 1.5958572448,
				"element": "C" 
			},
			{
				"x": -2.3621778008,
				"y": 3.3589767931,
				"z": 2.7605143391,
				"element": "C" 
			},
			{
				"x": -1.1671470266,
				"y": 2.8418966122,
				"z": 3.2618098864,
				"element": "C" 
			},
			{
				"x": -0.5054682741,
				"y": 1.7925772444,
				"z": 2.6230582435,
				"element": "C" 
			},
			{
				"x": -3.1576388672,
				"y": -5.5378322913,
				"z": -0.3414307192,
				"element": "H" 
			},
			{
				"x": -1.9123611083,
				"y": -5.4362386752,
				"z": -4.8897672857,
				"element": "H" 
			},
			{
				"x": 0.3155187766,
				"y": -3.9138387017,
				"z": -4.2645150848,
				"element": "H" 
			},
			{
				"x": -0.9784854422,
				"y": -2.0696108368,
				"z": -0.6058973136,
				"element": "H" 
			},
			{
				"x": 3.1235264577,
				"y": -1.4103360319,
				"z": 0.5014584738,
				"element": "H" 
			},
			{
				"x": 3.8202696327,
				"y": -3.2525106503,
				"z": -1.0399242643,
				"element": "H" 
			},
			{
				"x": 2.0943718286,
				"y": -4.5153431703,
				"z": -2.3137828603,
				"element": "H" 
			},
			{
				"x": -0.9577508439,
				"y": -0.0840591765,
				"z": -0.1018332709,
				"element": "H" 
			},
			{
				"x": -2.6893691184,
				"y": 1.341574047,
				"z": 0.0410045442,
				"element": "H" 
			},
			{
				"x": -3.8347804645,
				"y": 3.1998514084,
				"z": 1.1893644514,
				"element": "H" 
			},
			{
				"x": -2.8644417433,
				"y": 4.1761701366,
				"z": 3.2689731187,
				"element": "H" 
			},
			{
				"x": -0.7343146127,
				"y": 3.2585726985,
				"z": 4.1669136321,
				"element": "H" 
			},
			{
				"x": 0.4227704419,
				"y": 1.3969058561,
				"z": 3.0087777455,
				"element": "H" 
			}
		],
		 "valence_orbital": [ 
			{
				"type": "occ",
				"energy": -0.26661,
				"method": "rhf"
			},
			{
				"type": "occ",
				"energy": -0.25445,
				"method": "rhf"
			},
			{
				"type": "occ",
				"energy": -0.25254,
				"method": "rhf"
			},
			{
				"type": "occ",
				"energy": -0.22367,
				"method": "rhf"
			},
			{
				"type": "occ",
				"energy": -0.21517,
				"method": "rhf"
			},
			{
				"type": "unocc",
				"energy": -0.05798,
				"method": "rhf"
			},
			{
				"type": "unocc",
				"energy": -0.03464,
				"method": "rhf"
			},
			{
				"type": "unocc",
				"energy": -0.00318,
				"method": "rhf"
			},
			{
				"type": "unocc",
				"energy": -0.00076,
				"method": "rhf"
			},
			{
				"type": "unocc",
				"energy": 0.01584,
				"method": "rhf"
			}
		],
		"cosmo_sigma_profile": { 
			"-0.025": 0.0,
			"-0.024": 0.0,
			"-0.023": 0.0,
			"-0.022": 0.0,
			"-0.021": 0.0,
			"-0.02": 0.0,
			"-0.019": 0.0,
			"-0.018": 0.0,
			"-0.017": 0.0,
			"-0.016": 0.637922525301,
			"-0.015": 1.04566391468,
			"-0.014": 1.16088368193,
			"-0.013": 1.35840787853,
			"-0.012": 1.61738495841,
			"-0.011": 3.06434458858,
			"-0.01": 2.83755251663,
			"-0.009": 2.95891764153,
			"-0.008": 6.58789148784,
			"-0.007": 10.5712479534,
			"-0.006": 16.7931874967,
			"-0.005": 20.3975000359,
			"-0.004": 19.7171437618,
			"-0.003": 20.9838463201,
			"-0.002": 19.3702379265,
			"-0.001": 21.7002676757,
			"0.0": 19.6643135867,
			"0.001": 26.0240187573,
			"0.002": 28.8131150409,
			"0.003": 25.4527280159,
			"0.004": 19.7984515398,
			"0.005": 19.5592770205,
			"0.006": 12.3926757803,
			"0.007": 5.52766274587,
			"0.008": 3.2550325236,
			"0.009": 3.15399080897,
			"0.01": 2.7934062815,
			"0.011": 2.98685258052,
			"0.012": 3.91537937797,
			"0.013": 2.65637618132,
			"0.014": 1.26977800601,
			"0.015": 0.871921748754,
			"0.016": 0.984144251639,
			"0.017": 0.133084837014,
			"0.018": 0.0,
			"0.019": 0.0,
			"0.02": 0.0,
			"0.021": 0.0,
			"0.022": 0.0,
			"0.023": 0.0,
			"0.024": 0.0,
			"0.025": 0.0
		}
	}
}
