{
	 "smiles": "N#CC1=CC=C(C=C1)C(N1C=NC=N1)C1=CC=C(C=C1)C#N", 
	 "Tm": 454.15, 
	 "num_atms": 33, 
	 "gaussian": { 
		 "optdone": 1, 
		 "sigma_profile": "yes", 
		 "theory": "DFT", 
		 "functional": "B3LYP", 
		 "basiset": "6-31G**", 
		 "properties": { 
			 "R2extent": 8186.1511, 
			 "electric_dipole_moment_norm": 3.91619046013, 
			 "electric_quadrupole_moment_norm": 43.3900065576, 
			 "total_energy": -928.14197181, 
			 "HOMO_LUMO_gap": 0.19566, 
			 "cosmo_polarized_energy": -24.6, 
			 "cosmo_cavitation_energy": 40.93, 
			 "cosmo_dispersion_energy": -26.83, 
			 "cosmo_repulsion_energy": 2.04, 
			 "cosmo_total_nonelectrostatic_energy": 16.14, 
			 "SMD_solvation_energy": 8.23 
		},
		"coords": [
			{
				"x": -2.8992902186,
				"y": 3.3287346275,
				"z": 4.48433694,
				"element": "N" 
			},
			{
				"x": -2.1756730396,
				"y": 2.7463016213,
				"z": 3.7842801303,
				"element": "C" 
			},
			{
				"x": -1.282059508,
				"y": 2.0290612302,
				"z": 2.9218355047,
				"element": "C" 
			},
			{
				"x": 0.0584799958,
				"y": 2.434205073,
				"z": 2.8005283551,
				"element": "C" 
			},
			{
				"x": 0.9176129289,
				"y": 1.730761703,
				"z": 1.965792139,
				"element": "C" 
			},
			{
				"x": 0.4673498121,
				"y": 0.618869136,
				"z": 1.238413576,
				"element": "C" 
			},
			{
				"x": -0.8682541245,
				"y": 0.2204329007,
				"z": 1.3612802258,
				"element": "C" 
			},
			{
				"x": -1.7385250365,
				"y": 0.9183980733,
				"z": 2.1964681388,
				"element": "C" 
			},
			{
				"x": 1.4731156084,
				"y": -0.0962210704,
				"z": 0.3347766051,
				"element": "C" 
			},
			{
				"x": 1.0992547361,
				"y": -1.480926584,
				"z": 0.0281398872,
				"element": "N" 
			},
			{
				"x": 1.6569537023,
				"y": -2.6245418833,
				"z": 0.4949255415,
				"element": "C" 
			},
			{
				"x": 1.0558659383,
				"y": -3.6799546282,
				"z": -0.0238356127,
				"element": "N" 
			},
			{
				"x": 0.1102164108,
				"y": -3.1155042018,
				"z": -0.8245036413,
				"element": "C" 
			},
			{
				"x": 0.0927996284,
				"y": -1.7891232599,
				"z": -0.8329347519,
				"element": "N" 
			},
			{
				"x": 1.7908824587,
				"y": 0.6864311885,
				"z": -0.9386916884,
				"element": "C" 
			},
			{
				"x": 0.7707402197,
				"y": 1.1547729033,
				"z": -1.7777540494,
				"element": "C" 
			},
			{
				"x": 1.078725012,
				"y": 1.8573377205,
				"z": -2.9367816921,
				"element": "C" 
			},
			{
				"x": 2.4209460892,
				"y": 2.1094553233,
				"z": -3.2710416073,
				"element": "C" 
			},
			{
				"x": 3.4467081865,
				"y": 1.6457182989,
				"z": -2.4335969799,
				"element": "C" 
			},
			{
				"x": 3.1248956536,
				"y": 0.9387539056,
				"z": -1.2779404572,
				"element": "C" 
			},
			{
				"x": 2.7414865161,
				"y": 2.8412431128,
				"z": -4.4623715087,
				"element": "C" 
			},
			{
				"x": 3.0026962738,
				"y": 3.4355155208,
				"z": -5.4274782751,
				"element": "N" 
			},
			{
				"x": 0.4148639778,
				"y": 3.290646228,
				"z": 3.3626910068,
				"element": "H" 
			},
			{
				"x": 1.9520070595,
				"y": 2.0519140064,
				"z": 1.8758538654,
				"element": "H" 
			},
			{
				"x": -1.2308033652,
				"y": -0.6322367745,
				"z": 0.7993576718,
				"element": "H" 
			},
			{
				"x": -2.7729330261,
				"y": 0.6052674083,
				"z": 2.2897186156,
				"element": "H" 
			},
			{
				"x": 2.4060685853,
				"y": -0.1877647538,
				"z": 0.9004043888,
				"element": "H" 
			},
			{
				"x": 2.4813679617,
				"y": -2.6339173279,
				"z": 1.1950735249,
				"element": "H" 
			},
			{
				"x": -0.5831841787,
				"y": -3.6930311651,
				"z": -1.4202455215,
				"element": "H" 
			},
			{
				"x": -0.2653512554,
				"y": 0.9597397225,
				"z": -1.526613075,
				"element": "H" 
			},
			{
				"x": 0.2883055053,
				"y": 2.2159688916,
				"z": -3.5872324939,
				"element": "H" 
			},
			{
				"x": 4.4822344149,
				"y": 1.8406983934,
				"z": -2.6906665828,
				"element": "H" 
			},
			{
				"x": 3.9245970772,
				"y": 0.5788946601,
				"z": -0.6358881795,
				"element": "H" 
			}
		],
		 "valence_orbital": [ 
			{
				"type": "occ",
				"energy": -0.29108,
				"method": "rhf"
			},
			{
				"type": "occ",
				"energy": -0.28816,
				"method": "rhf"
			},
			{
				"type": "occ",
				"energy": -0.2842,
				"method": "rhf"
			},
			{
				"type": "occ",
				"energy": -0.28195,
				"method": "rhf"
			},
			{
				"type": "occ",
				"energy": -0.26885,
				"method": "rhf"
			},
			{
				"type": "unocc",
				"energy": -0.07319,
				"method": "rhf"
			},
			{
				"type": "unocc",
				"energy": -0.06266,
				"method": "rhf"
			},
			{
				"type": "unocc",
				"energy": -0.04022,
				"method": "rhf"
			},
			{
				"type": "unocc",
				"energy": -0.03765,
				"method": "rhf"
			},
			{
				"type": "unocc",
				"energy": -0.01301,
				"method": "rhf"
			}
		],
		"cosmo_sigma_profile": { 
			"-0.025": 0.0,
			"-0.024": 0.0,
			"-0.023": 0.0,
			"-0.022": 0.0,
			"-0.021": 0.0,
			"-0.02": 0.0,
			"-0.019": 0.0,
			"-0.018": 0.0,
			"-0.017": 0.0,
			"-0.016": 0.0,
			"-0.015": 0.0,
			"-0.014": 0.0,
			"-0.013": 0.0,
			"-0.012": 0.78759946014,
			"-0.011": 3.38906395293,
			"-0.01": 5.86019971099,
			"-0.009": 5.44493192063,
			"-0.008": 15.2873545571,
			"-0.007": 18.5292905833,
			"-0.006": 19.247068836,
			"-0.005": 15.1849504683,
			"-0.004": 16.3802474558,
			"-0.003": 16.0808709788,
			"-0.002": 21.4139055311,
			"-0.001": 25.5934582102,
			"0.0": 24.2362412229,
			"0.001": 30.9157177064,
			"0.002": 25.243775451,
			"0.003": 9.8869888721,
			"0.004": 7.73611369326,
			"0.005": 7.77120182944,
			"0.006": 8.53216468561,
			"0.007": 7.86880572377,
			"0.008": 9.67235173217,
			"0.009": 9.31074240152,
			"0.01": 8.51056571133,
			"0.011": 6.66250939574,
			"0.012": 5.85579154813,
			"0.013": 3.97138146862,
			"0.014": 1.05374065224,
			"0.015": 1.18123405589,
			"0.016": 0.90799690704,
			"0.017": 0.122983341306,
			"0.018": 0.0,
			"0.019": 0.0,
			"0.02": 0.0,
			"0.021": 0.0,
			"0.022": 0.0,
			"0.023": 0.0,
			"0.024": 0.0,
			"0.025": 0.0
		}
	}
}
