{
	 "smiles": "COC(=O)CC[C@H](C)[C@H]1CCC2C3[C@@H](O)[C@@H](O)[C@@H]4CCCC[C@]4(C)C3CC[C@]12C", 
	 "Tm": 393.15, 
	 "num_atms": 71, 
	 "gaussian": { 
		 "optdone": 1, 
		 "sigma_profile": "yes", 
		 "theory": "DFT", 
		 "functional": "B3LYP", 
		 "basiset": "6-31G**", 
		 "properties": { 
			 "R2extent": 15782.9736, 
			 "electric_dipole_moment_norm": 2.59366930429, 
			 "electric_quadrupole_moment_norm": 17.9868897525, 
			 "total_energy": -1278.88993034, 
			 "HOMO_LUMO_gap": 0.2526, 
			 "cosmo_polarized_energy": -14.55, 
			 "cosmo_cavitation_energy": 59.19, 
			 "cosmo_dispersion_energy": -40.05, 
			 "cosmo_repulsion_energy": 2.94, 
			 "cosmo_total_nonelectrostatic_energy": 22.08, 
			 "SMD_solvation_energy": 9.3 
		},
		"coords": [
			{
				"x": -0.2708994955,
				"y": -3.9515070692,
				"z": -5.930435634,
				"element": "C" 
			},
			{
				"x": -0.4262132959,
				"y": -2.5846304252,
				"z": -5.5153701717,
				"element": "O" 
			},
			{
				"x": -1.6857319294,
				"y": -2.0910241441,
				"z": -5.608152447,
				"element": "C" 
			},
			{
				"x": -2.6253469664,
				"y": -2.74437065,
				"z": -6.0088005798,
				"element": "O" 
			},
			{
				"x": -1.746900144,
				"y": -0.6537831355,
				"z": -5.1347637458,
				"element": "C" 
			},
			{
				"x": -1.4155731041,
				"y": -0.4981280519,
				"z": -3.6335771373,
				"element": "C" 
			},
			{
				"x": -2.3121425454,
				"y": -1.3308737595,
				"z": -2.6915955892,
				"element": "C" 
			},
			{
				"x": -3.8022101992,
				"y": -0.9615457635,
				"z": -2.8285436634,
				"element": "C" 
			},
			{
				"x": -1.8047436546,
				"y": -1.4354113034,
				"z": -1.2171316721,
				"element": "C" 
			},
			{
				"x": -0.4346657876,
				"y": -2.1800784025,
				"z": -1.1541125795,
				"element": "C" 
			},
			{
				"x": 0.6472890577,
				"y": -1.1455950359,
				"z": -0.7447997265,
				"element": "C" 
			},
			{
				"x": -0.0831533417,
				"y": 0.2146648781,
				"z": -0.58829124,
				"element": "C" 
			},
			{
				"x": 0.5071439687,
				"y": 1.1879347436,
				"z": 0.458763346,
				"element": "C" 
			},
			{
				"x": 1.9826061768,
				"y": 1.5160675394,
				"z": 0.217903739,
				"element": "C" 
			},
			{
				"x": 2.3116822033,
				"y": 1.8105905094,
				"z": -1.1454235245,
				"element": "O" 
			},
			{
				"x": 2.37537602,
				"y": 2.7747563331,
				"z": 1.010302888,
				"element": "C" 
			},
			{
				"x": 2.0150402508,
				"y": 3.9433383322,
				"z": 0.2779835457,
				"element": "O" 
			},
			{
				"x": 1.658594957,
				"y": 2.9025545443,
				"z": 2.3779373129,
				"element": "C" 
			},
			{
				"x": 2.571789708,
				"y": 3.6800860541,
				"z": 3.3566976603,
				"element": "C" 
			},
			{
				"x": 3.7134841964,
				"y": 2.8185269928,
				"z": 3.9201383856,
				"element": "C" 
			},
			{
				"x": 3.1906352989,
				"y": 1.5195698101,
				"z": 4.5500649225,
				"element": "C" 
			},
			{
				"x": 2.291896569,
				"y": 0.74391846,
				"z": 3.5728957568,
				"element": "C" 
			},
			{
				"x": 1.1078034924,
				"y": 1.5737976716,
				"z": 2.996445699,
				"element": "C" 
			},
			{
				"x": 0.1639745373,
				"y": 1.9509175643,
				"z": 4.163116061,
				"element": "C" 
			},
			{
				"x": 0.3435361186,
				"y": 0.68159492,
				"z": 1.9146292023,
				"element": "C" 
			},
			{
				"x": -1.1557843319,
				"y": 0.4187051938,
				"z": 2.1691967907,
				"element": "C" 
			},
			{
				"x": -1.732497973,
				"y": -0.5801518738,
				"z": 1.1533245497,
				"element": "C" 
			},
			{
				"x": -1.5737545703,
				"y": -0.1564606213,
				"z": -0.3343429854,
				"element": "C" 
			},
			{
				"x": -2.5213971699,
				"y": 1.0205261272,
				"z": -0.6169472553,
				"element": "C" 
			},
			{
				"x": -0.5502573472,
				"y": -4.0691659627,
				"z": -6.9805036584,
				"element": "H" 
			},
			{
				"x": 0.7839950739,
				"y": -4.1860816784,
				"z": -5.7874231141,
				"element": "H" 
			},
			{
				"x": -0.8967314517,
				"y": -4.6127983426,
				"z": -5.3258475169,
				"element": "H" 
			},
			{
				"x": -1.0268743893,
				"y": -0.0683707085,
				"z": -5.7179037984,
				"element": "H" 
			},
			{
				"x": -2.7474270152,
				"y": -0.2831233111,
				"z": -5.3648822761,
				"element": "H" 
			},
			{
				"x": -1.4916038039,
				"y": 0.5670110142,
				"z": -3.3896466168,
				"element": "H" 
			},
			{
				"x": -0.3674278541,
				"y": -0.7808108173,
				"z": -3.4918740389,
				"element": "H" 
			},
			{
				"x": -2.2401174381,
				"y": -2.371510064,
				"z": -3.0433214655,
				"element": "H" 
			},
			{
				"x": -3.984626767,
				"y": 0.1115957795,
				"z": -2.7278787603,
				"element": "H" 
			},
			{
				"x": -4.185792223,
				"y": -1.2752098659,
				"z": -3.8040785183,
				"element": "H" 
			},
			{
				"x": -4.40095819,
				"y": -1.4736097608,
				"z": -2.0675559257,
				"element": "H" 
			},
			{
				"x": -2.5656157087,
				"y": -2.0474329937,
				"z": -0.7148699031,
				"element": "H" 
			},
			{
				"x": -0.4749628011,
				"y": -2.995475896,
				"z": -0.4253164547,
				"element": "H" 
			},
			{
				"x": -0.2005333118,
				"y": -2.6479420875,
				"z": -2.1155932374,
				"element": "H" 
			},
			{
				"x": 1.4482016017,
				"y": -1.0914217303,
				"z": -1.4932315598,
				"element": "H" 
			},
			{
				"x": 1.1312476148,
				"y": -1.447243242,
				"z": 0.1890095461,
				"element": "H" 
			},
			{
				"x": -0.0394337367,
				"y": 0.7359338154,
				"z": -1.5521971838,
				"element": "H" 
			},
			{
				"x": -0.039016685,
				"y": 2.1355464329,
				"z": 0.354195585,
				"element": "H" 
			},
			{
				"x": 2.6001670928,
				"y": 0.6718707667,
				"z": 0.5600654188,
				"element": "H" 
			},
			{
				"x": 2.1722052579,
				"y": 1.017189579,
				"z": -1.6749293041,
				"element": "H" 
			},
			{
				"x": 3.4681408686,
				"y": 2.7559021694,
				"z": 1.1458498443,
				"element": "H" 
			},
			{
				"x": 2.2689233864,
				"y": 3.7663654869,
				"z": -0.6403582354,
				"element": "H" 
			},
			{
				"x": 0.7926035523,
				"y": 3.5387086549,
				"z": 2.1590762566,
				"element": "H" 
			},
			{
				"x": 1.978895339,
				"y": 4.0823121006,
				"z": 4.1861233867,
				"element": "H" 
			},
			{
				"x": 2.9770232582,
				"y": 4.5494066612,
				"z": 2.8262383538,
				"element": "H" 
			},
			{
				"x": 4.4167525496,
				"y": 2.5648900891,
				"z": 3.1150506921,
				"element": "H" 
			},
			{
				"x": 4.2894115251,
				"y": 3.3946757627,
				"z": 4.6543728944,
				"element": "H" 
			},
			{
				"x": 4.0302651506,
				"y": 0.8832137088,
				"z": 4.8558484972,
				"element": "H" 
			},
			{
				"x": 2.6370483082,
				"y": 1.7507167913,
				"z": 5.4686479194,
				"element": "H" 
			},
			{
				"x": 1.8916205065,
				"y": -0.1536073967,
				"z": 4.0635651563,
				"element": "H" 
			},
			{
				"x": 2.9145504674,
				"y": 0.3809423938,
				"z": 2.7438260309,
				"element": "H" 
			},
			{
				"x": 0.6667026722,
				"y": 2.5736561861,
				"z": 4.9045436681,
				"element": "H" 
			},
			{
				"x": -0.1973390867,
				"y": 1.0622184254,
				"z": 4.689421781,
				"element": "H" 
			},
			{
				"x": -0.70655525,
				"y": 2.5122575007,
				"z": 3.8116571459,
				"element": "H" 
			},
			{
				"x": 0.8260530221,
				"y": -0.3057349544,
				"z": 1.9601578194,
				"element": "H" 
			},
			{
				"x": -1.3129012184,
				"y": 0.0101818607,
				"z": 3.1722142984,
				"element": "H" 
			},
			{
				"x": -1.7172874556,
				"y": 1.3598758986,
				"z": 2.1321614433,
				"element": "H" 
			},
			{
				"x": -1.2412635501,
				"y": -1.5489690814,
				"z": 1.3114793717,
				"element": "H" 
			},
			{
				"x": -2.7973517328,
				"y": -0.746152545,
				"z": 1.3625814349,
				"element": "H" 
			},
			{
				"x": -2.414711098,
				"y": 1.4022222649,
				"z": -1.6353829466,
				"element": "H" 
			},
			{
				"x": -3.5667915587,
				"y": 0.7305363985,
				"z": -0.4719857549,
				"element": "H" 
			},
			{
				"x": -2.3228656198,
				"y": 1.858541259,
				"z": 0.057481817,
				"element": "H" 
			}
		],
		 "valence_orbital": [ 
			{
				"type": "occ",
				"energy": -0.27711,
				"method": "rhf"
			},
			{
				"type": "occ",
				"energy": -0.27285,
				"method": "rhf"
			},
			{
				"type": "occ",
				"energy": -0.27011,
				"method": "rhf"
			},
			{
				"type": "occ",
				"energy": -0.26699,
				"method": "rhf"
			},
			{
				"type": "occ",
				"energy": -0.24322,
				"method": "rhf"
			},
			{
				"type": "unocc",
				"energy": 0.00938,
				"method": "rhf"
			},
			{
				"type": "unocc",
				"energy": 0.04624,
				"method": "rhf"
			},
			{
				"type": "unocc",
				"energy": 0.06967,
				"method": "rhf"
			},
			{
				"type": "unocc",
				"energy": 0.07459,
				"method": "rhf"
			},
			{
				"type": "unocc",
				"energy": 0.07942,
				"method": "rhf"
			}
		],
		"cosmo_sigma_profile": { 
			"-0.025": 0.0,
			"-0.024": 0.0,
			"-0.023": 0.0,
			"-0.022": 0.0,
			"-0.021": 0.0,
			"-0.02": 0.0,
			"-0.019": 0.0,
			"-0.018": 0.0,
			"-0.017": 0.0,
			"-0.016": 0.0,
			"-0.015": 0.0,
			"-0.014": 0.13479285565,
			"-0.013": 0.550430896057,
			"-0.012": 0.815013870423,
			"-0.011": 1.03298403949,
			"-0.01": 1.82401091434,
			"-0.009": 1.73096241942,
			"-0.008": 0.986180726168,
			"-0.007": 2.39008140455,
			"-0.006": 5.5234211512,
			"-0.005": 11.2970366498,
			"-0.004": 18.9426331014,
			"-0.003": 42.1096521718,
			"-0.002": 71.1083133348,
			"-0.001": 74.2194726271,
			"0.0": 69.0407767604,
			"0.001": 56.9571378444,
			"0.002": 30.4632615517,
			"0.003": 9.28219608942,
			"0.004": 6.38882464358,
			"0.005": 5.36908159952,
			"0.006": 5.96166140697,
			"0.007": 7.31031834469,
			"0.008": 4.95918796445,
			"0.009": 4.80393888738,
			"0.01": 2.88817594941,
			"0.011": 4.56420177359,
			"0.012": 6.45412228557,
			"0.013": 2.8894928893,
			"0.014": 1.87380478748,
			"0.015": 0.536761666932,
			"0.016": 0.0,
			"0.017": 0.0,
			"0.018": 0.0,
			"0.019": 0.0,
			"0.02": 0.0,
			"0.021": 0.0,
			"0.022": 0.0,
			"0.023": 0.0,
			"0.024": 0.0,
			"0.025": 0.0
		}
	}
}
