{
	 "smiles": "C[Si](C)(O[Si](C)(C)C=C)C=C", 
	 "Tm": 173.45, 
	 "num_atms": 29, 
	 "gaussian": { 
		 "optdone": 1, 
		 "sigma_profile": "yes", 
		 "theory": "DFT", 
		 "functional": "B3LYP", 
		 "basiset": "6-31G**", 
		 "properties": { 
			 "R2extent": 3466.3242, 
			 "electric_dipole_moment_norm": 0.553349202584, 
			 "electric_quadrupole_moment_norm": 1.5758772192, 
			 "total_energy": -970.02760219, 
			 "HOMO_LUMO_gap": 0.25622, 
			 "cosmo_polarized_energy": -3.94, 
			 "cosmo_cavitation_energy": 35.65, 
			 "cosmo_dispersion_energy": -19.03, 
			 "cosmo_repulsion_energy": 1.78, 
			 "cosmo_total_nonelectrostatic_energy": 18.4, 
			 "SMD_solvation_energy": 9.86 
		},
		"coords": [
			{
				"x": 0.4300133773,
				"y": -0.1506091613,
				"z": -2.952294478,
				"element": "C" 
			},
			{
				"x": -0.1575469914,
				"y": 0.6853185174,
				"z": -1.3684271055,
				"element": "Si" 
			},
			{
				"x": -0.527632977,
				"y": 2.5056865304,
				"z": -1.6733864554,
				"element": "C" 
			},
			{
				"x": 1.0256969877,
				"y": 0.6184778299,
				"z": -0.2033654228,
				"element": "O" 
			},
			{
				"x": 2.3271245986,
				"y": -0.1027480804,
				"z": 0.5362978041,
				"element": "Si" 
			},
			{
				"x": 2.0821910633,
				"y": -1.9696202843,
				"z": 0.6215176944,
				"element": "C" 
			},
			{
				"x": 2.4511990719,
				"y": 0.6320999765,
				"z": 2.2646901733,
				"element": "C" 
			},
			{
				"x": 3.8745701794,
				"y": 0.3112177611,
				"z": -0.443595788,
				"element": "C" 
			},
			{
				"x": 4.724048612,
				"y": -0.5868844096,
				"z": -0.9585774657,
				"element": "C" 
			},
			{
				"x": -1.6890638381,
				"y": -0.1716479617,
				"z": -0.7019350284,
				"element": "C" 
			},
			{
				"x": -2.3301743847,
				"y": -1.1823327807,
				"z": -1.3025344165,
				"element": "C" 
			},
			{
				"x": 0.6179237345,
				"y": -1.2189501639,
				"z": -2.8011955236,
				"element": "H" 
			},
			{
				"x": -0.3035334149,
				"y": -0.0501273793,
				"z": -3.7598236536,
				"element": "H" 
			},
			{
				"x": 1.3662830254,
				"y": 0.3028297752,
				"z": -3.2949214298,
				"element": "H" 
			},
			{
				"x": -1.3159910984,
				"y": 2.6319416126,
				"z": -2.4236024977,
				"element": "H" 
			},
			{
				"x": -0.8582009892,
				"y": 2.9983996994,
				"z": -0.7528668005,
				"element": "H" 
			},
			{
				"x": 0.3649238824,
				"y": 3.0319818439,
				"z": -2.0292159564,
				"element": "H" 
			},
			{
				"x": 2.029535822,
				"y": -2.4182640095,
				"z": -0.3761742293,
				"element": "H" 
			},
			{
				"x": 1.1456512393,
				"y": -2.2051174654,
				"z": 1.1382953092,
				"element": "H" 
			},
			{
				"x": 2.8954142729,
				"y": -2.4604497543,
				"z": 1.16750817,
				"element": "H" 
			},
			{
				"x": 2.587202818,
				"y": 1.7179020723,
				"z": 2.2209656777,
				"element": "H" 
			},
			{
				"x": 3.2978057362,
				"y": 0.2095649969,
				"z": 2.8169688395,
				"element": "H" 
			},
			{
				"x": 1.5399071896,
				"y": 0.4347139226,
				"z": 2.8397595733,
				"element": "H" 
			},
			{
				"x": 4.1074403515,
				"y": 1.3675255178,
				"z": -0.6020740812,
				"element": "H" 
			},
			{
				"x": 4.5668527102,
				"y": -1.6583926412,
				"z": -0.8493379801,
				"element": "H" 
			},
			{
				"x": 5.6163907555,
				"y": -0.3008045612,
				"z": -1.5136380365,
				"element": "H" 
			},
			{
				"x": -2.0965420041,
				"y": 0.1853413474,
				"z": 0.2475661431,
				"element": "H" 
			},
			{
				"x": -1.990742526,
				"y": -1.5999496466,
				"z": -2.2487038048,
				"element": "H" 
			},
			{
				"x": -3.2229472037,
				"y": -1.6439031039,
				"z": -0.882899231,
				"element": "H" 
			}
		],
		 "valence_orbital": [ 
			{
				"type": "occ",
				"energy": -0.29472,
				"method": "rhf"
			},
			{
				"type": "occ",
				"energy": -0.27336,
				"method": "rhf"
			},
			{
				"type": "occ",
				"energy": -0.27117,
				"method": "rhf"
			},
			{
				"type": "occ",
				"energy": -0.26565,
				"method": "rhf"
			},
			{
				"type": "occ",
				"energy": -0.26122,
				"method": "rhf"
			},
			{
				"type": "unocc",
				"energy": -0.005,
				"method": "rhf"
			},
			{
				"type": "unocc",
				"energy": 0.00296,
				"method": "rhf"
			},
			{
				"type": "unocc",
				"energy": 0.07342,
				"method": "rhf"
			},
			{
				"type": "unocc",
				"energy": 0.08526,
				"method": "rhf"
			},
			{
				"type": "unocc",
				"energy": 0.09114,
				"method": "rhf"
			}
		],
		"cosmo_sigma_profile": { 
			"-0.025": 0.0,
			"-0.024": 0.0,
			"-0.023": 0.0,
			"-0.022": 0.0,
			"-0.021": 0.0,
			"-0.02": 0.0,
			"-0.019": 0.0,
			"-0.018": 0.0,
			"-0.017": 0.0,
			"-0.016": 0.0,
			"-0.015": 0.0,
			"-0.014": 0.0,
			"-0.013": 0.0,
			"-0.012": 0.0,
			"-0.011": 0.0,
			"-0.01": 0.0,
			"-0.009": 0.0,
			"-0.008": 0.0,
			"-0.007": 0.0,
			"-0.006": 0.0180736089743,
			"-0.005": 4.0850047507,
			"-0.004": 18.4231672225,
			"-0.003": 32.9921019265,
			"-0.002": 40.1024243296,
			"-0.001": 36.0047531477,
			"0.0": 30.6145964831,
			"0.001": 33.3332446129,
			"0.002": 25.8143665822,
			"0.003": 18.0516597744,
			"0.004": 10.1970379526,
			"0.005": 8.13306205651,
			"0.006": 7.18061224178,
			"0.007": 2.7441717656,
			"0.008": 1.4106999246,
			"0.009": 0.900588163184,
			"0.01": 0.823757049989,
			"0.011": 0.0293450201469,
			"0.012": 0.0,
			"0.013": 0.0,
			"0.014": 0.0,
			"0.015": 0.0,
			"0.016": 0.0,
			"0.017": 0.0,
			"0.018": 0.0,
			"0.019": 0.0,
			"0.02": 0.0,
			"0.021": 0.0,
			"0.022": 0.0,
			"0.023": 0.0,
			"0.024": 0.0,
			"0.025": 0.0
		}
	}
}
