{
	 "smiles": "OC(=O)C1=C(Cl)C2=C(C=CC=C2)N=C1Cl", 
	 "Tm": 441.15, 
	 "num_atms": 20, 
	 "gaussian": { 
		 "optdone": 1, 
		 "sigma_profile": "yes", 
		 "theory": "DFT", 
		 "functional": "B3LYP", 
		 "basiset": "6-31G**", 
		 "properties": { 
			 "R2extent": 4260.3821, 
			 "electric_dipole_moment_norm": 5.48560287024, 
			 "electric_quadrupole_moment_norm": 18.0070932213, 
			 "total_energy": -1509.66385792, 
			 "HOMO_LUMO_gap": 0.17005, 
			 "cosmo_polarized_energy": -14.32, 
			 "cosmo_cavitation_energy": 28.62, 
			 "cosmo_dispersion_energy": -21.19, 
			 "cosmo_repulsion_energy": 1.64, 
			 "cosmo_total_nonelectrostatic_energy": 9.07, 
			 "SMD_solvation_energy": 3.84 
		},
		"coords": [
			{
				"x": 1.237325621,
				"y": -2.0893133225,
				"z": 2.8786174626,
				"element": "O" 
			},
			{
				"x": 1.5038166172,
				"y": -2.3877351204,
				"z": 1.5879270918,
				"element": "C" 
			},
			{
				"x": 1.9900652117,
				"y": -3.4429312664,
				"z": 1.2787116447,
				"element": "O" 
			},
			{
				"x": 1.1333268456,
				"y": -1.3253170752,
				"z": 0.5726113837,
				"element": "C" 
			},
			{
				"x": 0.1383906092,
				"y": -1.5347838509,
				"z": -0.3658518555,
				"element": "C" 
			},
			{
				"x": -0.8010013476,
				"y": -3.0049836438,
				"z": -0.3146863014,
				"element": "Cl" 
			},
			{
				"x": -0.1512482614,
				"y": -0.5592617141,
				"z": -1.3632443813,
				"element": "C" 
			},
			{
				"x": 0.6478037624,
				"y": 0.6286559921,
				"z": -1.34138816,
				"element": "C" 
			},
			{
				"x": 0.4182975554,
				"y": 1.6397211501,
				"z": -2.3078681367,
				"element": "C" 
			},
			{
				"x": -0.5646044219,
				"y": 1.4801881708,
				"z": -3.2585489719,
				"element": "C" 
			},
			{
				"x": -1.3559660907,
				"y": 0.3069040532,
				"z": -3.2804239989,
				"element": "C" 
			},
			{
				"x": -1.1573832654,
				"y": -0.6930267948,
				"z": -2.3539788378,
				"element": "C" 
			},
			{
				"x": 1.630368393,
				"y": 0.833449242,
				"z": -0.4167794933,
				"element": "N" 
			},
			{
				"x": 1.8408988936,
				"y": -0.0885144002,
				"z": 0.4699101491,
				"element": "C" 
			},
			{
				"x": 3.1214777997,
				"y": 0.2297321667,
				"z": 1.6434374136,
				"element": "Cl" 
			},
			{
				"x": 0.8866876166,
				"y": -1.1899027721,
				"z": 2.9556091743,
				"element": "H" 
			},
			{
				"x": 1.0412697681,
				"y": 2.526368407,
				"z": -2.2641849364,
				"element": "H" 
			},
			{
				"x": -0.7364630677,
				"y": 2.2569247774,
				"z": -3.9974802307,
				"element": "H" 
			},
			{
				"x": -2.1271828466,
				"y": 0.1940052852,
				"z": -4.0360327933,
				"element": "H" 
			},
			{
				"x": -1.7642793921,
				"y": -1.5903792842,
				"z": -2.3745562225,
				"element": "H" 
			}
		],
		 "valence_orbital": [ 
			{
				"type": "occ",
				"energy": -0.31192,
				"method": "rhf"
			},
			{
				"type": "occ",
				"energy": -0.30387,
				"method": "rhf"
			},
			{
				"type": "occ",
				"energy": -0.28641,
				"method": "rhf"
			},
			{
				"type": "occ",
				"energy": -0.27181,
				"method": "rhf"
			},
			{
				"type": "occ",
				"energy": -0.25712,
				"method": "rhf"
			},
			{
				"type": "unocc",
				"energy": -0.08707,
				"method": "rhf"
			},
			{
				"type": "unocc",
				"energy": -0.05285,
				"method": "rhf"
			},
			{
				"type": "unocc",
				"energy": -0.01043,
				"method": "rhf"
			},
			{
				"type": "unocc",
				"energy": -0.00554,
				"method": "rhf"
			},
			{
				"type": "unocc",
				"energy": -0.00323,
				"method": "rhf"
			}
		],
		"cosmo_sigma_profile": { 
			"-0.025": 0.0,
			"-0.024": 0.0,
			"-0.023": 0.0,
			"-0.022": 0.0,
			"-0.021": 0.0,
			"-0.02": 0.289701015311,
			"-0.019": 1.04506815011,
			"-0.018": 0.811132228282,
			"-0.017": 0.707016896392,
			"-0.016": 1.19543699545,
			"-0.015": 1.14078301381,
			"-0.014": 0.512439014777,
			"-0.013": 0.75554634048,
			"-0.012": 1.08832323758,
			"-0.011": 0.630614804416,
			"-0.01": 0.827467110272,
			"-0.009": 0.877618092562,
			"-0.008": 1.837832695,
			"-0.007": 8.20426606742,
			"-0.006": 10.0496689191,
			"-0.005": 10.8267005796,
			"-0.004": 11.2320127649,
			"-0.003": 15.7430896011,
			"-0.002": 18.0037705864,
			"-0.001": 18.436857063,
			"0.0": 20.0822516359,
			"0.001": 24.7637330911,
			"0.002": 24.8926199895,
			"0.003": 14.5632234505,
			"0.004": 8.37690166291,
			"0.005": 4.62648330657,
			"0.006": 4.16317819939,
			"0.007": 5.70966706431,
			"0.008": 5.37483795795,
			"0.009": 5.8178893601,
			"0.01": 6.35032846736,
			"0.011": 5.10377128004,
			"0.012": 1.34132871499,
			"0.013": 0.106761161459,
			"0.014": 0.0,
			"0.015": 0.0,
			"0.016": 0.0,
			"0.017": 0.0,
			"0.018": 0.0,
			"0.019": 0.0,
			"0.02": 0.0,
			"0.021": 0.0,
			"0.022": 0.0,
			"0.023": 0.0,
			"0.024": 0.0,
			"0.025": 0.0
		}
	}
}
