{
	 "smiles": "CC1=C(OCC2CCOCC2)C=C(N)C=C1", 
	 "Tm": 388.15, 
	 "num_atms": 35, 
	 "gaussian": { 
		 "optdone": 1, 
		 "sigma_profile": "yes", 
		 "theory": "DFT", 
		 "functional": "B3LYP", 
		 "basiset": "6-31G**", 
		 "properties": { 
			 "R2extent": 5326.0349, 
			 "electric_dipole_moment_norm": 2.38416181078, 
			 "electric_quadrupole_moment_norm": 13.3021586162, 
			 "total_energy": -712.024747019, 
			 "HOMO_LUMO_gap": 0.20583, 
			 "cosmo_polarized_energy": -12.14, 
			 "cosmo_cavitation_energy": 36.07, 
			 "cosmo_dispersion_energy": -25.71, 
			 "cosmo_repulsion_energy": 2.02, 
			 "cosmo_total_nonelectrostatic_energy": 12.38, 
			 "SMD_solvation_energy": 5.66 
		},
		"coords": [
			{
				"x": 1.2949994738,
				"y": -2.1600862791,
				"z": -1.0522253063,
				"element": "C" 
			},
			{
				"x": 1.2729983345,
				"y": -0.913406323,
				"z": -1.8991516065,
				"element": "C" 
			},
			{
				"x": 0.4522661278,
				"y": 0.1790434281,
				"z": -1.5470484717,
				"element": "C" 
			},
			{
				"x": -0.2912847559,
				"y": 0.0060276029,
				"z": -0.4093343767,
				"element": "O" 
			},
			{
				"x": -1.1598838768,
				"y": 1.0500938127,
				"z": 0.0208005548,
				"element": "C" 
			},
			{
				"x": -1.8785176486,
				"y": 0.6033042931,
				"z": 1.2911405788,
				"element": "C" 
			},
			{
				"x": -0.9155721923,
				"y": 0.2855176468,
				"z": 2.4462727224,
				"element": "C" 
			},
			{
				"x": -1.7182482359,
				"y": 0.0032313537,
				"z": 3.7358257706,
				"element": "C" 
			},
			{
				"x": -3.0429083332,
				"y": -0.4540300131,
				"z": 3.4722621318,
				"element": "O" 
			},
			{
				"x": -3.0842030002,
				"y": -1.3509363757,
				"z": 2.370153105,
				"element": "C" 
			},
			{
				"x": -2.8085212249,
				"y": -0.6089358037,
				"z": 1.0454748954,
				"element": "C" 
			},
			{
				"x": 0.4202578759,
				"y": 1.3429786856,
				"z": -2.3169931238,
				"element": "C" 
			},
			{
				"x": 1.213933625,
				"y": 1.4502184299,
				"z": -3.473713466,
				"element": "C" 
			},
			{
				"x": 1.1318294032,
				"y": 2.5966775388,
				"z": -4.2740613646,
				"element": "N" 
			},
			{
				"x": 2.0331915496,
				"y": 0.3745535406,
				"z": -3.8355058469,
				"element": "C" 
			},
			{
				"x": 2.0479951506,
				"y": -0.7790890767,
				"z": -3.0500511066,
				"element": "C" 
			},
			{
				"x": 1.6067677045,
				"y": -1.9457869548,
				"z": -0.0232773254,
				"element": "H" 
			},
			{
				"x": 1.986436607,
				"y": -2.8976600753,
				"z": -1.4694332837,
				"element": "H" 
			},
			{
				"x": 0.3035179423,
				"y": -2.6233726813,
				"z": -0.9869829671,
				"element": "H" 
			},
			{
				"x": -1.890673019,
				"y": 1.2774965701,
				"z": -0.7694653784,
				"element": "H" 
			},
			{
				"x": -0.5772136675,
				"y": 1.9625899437,
				"z": 0.215940867,
				"element": "H" 
			},
			{
				"x": -2.5006492028,
				"y": 1.4546514095,
				"z": 1.5989752452,
				"element": "H" 
			},
			{
				"x": -0.3032865339,
				"y": -0.5786835191,
				"z": 2.168505085,
				"element": "H" 
			},
			{
				"x": -0.2209379877,
				"y": 1.116278392,
				"z": 2.6182273117,
				"element": "H" 
			},
			{
				"x": -1.1843337663,
				"y": -0.7288105854,
				"z": 4.3639918925,
				"element": "H" 
			},
			{
				"x": -1.8413534899,
				"y": 0.9188872417,
				"z": 4.3239689025,
				"element": "H" 
			},
			{
				"x": -4.0810435919,
				"y": -1.8007451299,
				"z": 2.3755512021,
				"element": "H" 
			},
			{
				"x": -2.3562766179,
				"y": -2.1656749398,
				"z": 2.5167423866,
				"element": "H" 
			},
			{
				"x": -2.341443062,
				"y": -1.2949641273,
				"z": 0.3303603823,
				"element": "H" 
			},
			{
				"x": -3.7473407347,
				"y": -0.2619314089,
				"z": 0.5992393751,
				"element": "H" 
			},
			{
				"x": -0.2199834445,
				"y": 2.173433507,
				"z": -2.0416877325,
				"element": "H" 
			},
			{
				"x": 0.8653871573,
				"y": 3.4384853838,
				"z": -3.7811605776,
				"element": "H" 
			},
			{
				"x": 1.9410921796,
				"y": 2.7556138385,
				"z": -4.8591390408,
				"element": "H" 
			},
			{
				"x": 2.6504384323,
				"y": 0.437979403,
				"z": -4.7276475091,
				"element": "H" 
			},
			{
				"x": 2.6907628224,
				"y": -1.6061487284,
				"z": -3.342553925,
				"element": "H" 
			}
		],
		 "valence_orbital": [ 
			{
				"type": "occ",
				"energy": -0.29066,
				"method": "rhf"
			},
			{
				"type": "occ",
				"energy": -0.27855,
				"method": "rhf"
			},
			{
				"type": "occ",
				"energy": -0.24168,
				"method": "rhf"
			},
			{
				"type": "occ",
				"energy": -0.22119,
				"method": "rhf"
			},
			{
				"type": "occ",
				"energy": -0.18774,
				"method": "rhf"
			},
			{
				"type": "unocc",
				"energy": 0.01809,
				"method": "rhf"
			},
			{
				"type": "unocc",
				"energy": 0.02803,
				"method": "rhf"
			},
			{
				"type": "unocc",
				"energy": 0.08032,
				"method": "rhf"
			},
			{
				"type": "unocc",
				"energy": 0.08267,
				"method": "rhf"
			},
			{
				"type": "unocc",
				"energy": 0.09393,
				"method": "rhf"
			}
		],
		"cosmo_sigma_profile": { 
			"-0.025": 0.0,
			"-0.024": 0.0,
			"-0.023": 0.0,
			"-0.022": 0.0,
			"-0.021": 0.0,
			"-0.02": 0.0,
			"-0.019": 0.0,
			"-0.018": 0.0,
			"-0.017": 0.0,
			"-0.016": 0.0,
			"-0.015": 0.0,
			"-0.014": 0.0,
			"-0.013": 0.00885806314462,
			"-0.012": 1.58726546918,
			"-0.011": 2.82041617417,
			"-0.01": 2.54327108657,
			"-0.009": 2.90473200299,
			"-0.008": 3.31973313046,
			"-0.007": 2.77627140727,
			"-0.006": 4.04168106349,
			"-0.005": 8.5044884529,
			"-0.004": 22.4342546229,
			"-0.003": 40.6456766575,
			"-0.002": 37.9552654102,
			"-0.001": 24.8023958108,
			"0.0": 20.8962044903,
			"0.001": 18.1093675001,
			"0.002": 11.9645516017,
			"0.003": 9.94095150834,
			"0.004": 11.507451256,
			"0.005": 13.3382384391,
			"0.006": 11.4109282915,
			"0.007": 11.7983333072,
			"0.008": 4.52417741461,
			"0.009": 2.11077574234,
			"0.01": 1.65171794157,
			"0.011": 1.82485540561,
			"0.012": 2.16974863442,
			"0.013": 2.48029901494,
			"0.014": 2.04031802856,
			"0.015": 0.638349592425,
			"0.016": 0.124793411569,
			"0.017": 0.0,
			"0.018": 0.0,
			"0.019": 0.0,
			"0.02": 0.0,
			"0.021": 0.0,
			"0.022": 0.0,
			"0.023": 0.0,
			"0.024": 0.0,
			"0.025": 0.0
		}
	}
}
