{
	 "smiles": "CC(=O)OCCOCCOCCOC(C)=O", 
	 "Tm": 223.15, 
	 "num_atms": 34, 
	 "gaussian": { 
		 "optdone": 1, 
		 "sigma_profile": "yes", 
		 "theory": "DFT", 
		 "functional": "B3LYP", 
		 "basiset": "6-31G**", 
		 "properties": { 
			 "R2extent": 5675.8966, 
			 "electric_dipole_moment_norm": 3.71825579002, 
			 "electric_quadrupole_moment_norm": 12.0211339349, 
			 "total_energy": -843.249525143, 
			 "HOMO_LUMO_gap": 0.25129, 
			 "cosmo_polarized_energy": -17.48, 
			 "cosmo_cavitation_energy": 38.23, 
			 "cosmo_dispersion_energy": -25.31, 
			 "cosmo_repulsion_energy": 2.04, 
			 "cosmo_total_nonelectrostatic_energy": 14.96, 
			 "SMD_solvation_energy": 9.11 
		},
		"coords": [
			{
				"x": 2.1214545287,
				"y": -1.7849371442,
				"z": -4.0608104988,
				"element": "C" 
			},
			{
				"x": 1.5273215955,
				"y": -0.7576146194,
				"z": -3.1270931765,
				"element": "C" 
			},
			{
				"x": 1.7366967437,
				"y": 0.4363088755,
				"z": -3.1710881601,
				"element": "O" 
			},
			{
				"x": 0.718955775,
				"y": -1.3493239266,
				"z": -2.2169175331,
				"element": "O" 
			},
			{
				"x": 0.1090525309,
				"y": -0.4786650256,
				"z": -1.2412825498,
				"element": "C" 
			},
			{
				"x": 1.0325956062,
				"y": -0.1999795613,
				"z": -0.0615112747,
				"element": "C" 
			},
			{
				"x": 1.4020453581,
				"y": -1.3807946505,
				"z": 0.6461692232,
				"element": "O" 
			},
			{
				"x": 0.4753464589,
				"y": -1.8348660879,
				"z": 1.6167081422,
				"element": "C" 
			},
			{
				"x": 0.6597761802,
				"y": -1.160381934,
				"z": 2.9769064133,
				"element": "C" 
			},
			{
				"x": 0.2763176414,
				"y": 0.2104969661,
				"z": 2.9975219629,
				"element": "O" 
			},
			{
				"x": -1.1040094198,
				"y": 0.4303807529,
				"z": 3.2166811118,
				"element": "C" 
			},
			{
				"x": -1.3913763912,
				"y": 1.9073293829,
				"z": 3.0628071347,
				"element": "C" 
			},
			{
				"x": -1.2680186879,
				"y": 2.2420745504,
				"z": 1.6661275055,
				"element": "O" 
			},
			{
				"x": -1.4956186126,
				"y": 3.5428495027,
				"z": 1.3537277134,
				"element": "C" 
			},
			{
				"x": -1.2963976286,
				"y": 3.7868334247,
				"z": -0.1226053473,
				"element": "C" 
			},
			{
				"x": -1.8102189009,
				"y": 4.3763400367,
				"z": 2.1735877516,
				"element": "O" 
			},
			{
				"x": 1.3304996158,
				"y": -2.3873700121,
				"z": -4.5161147227,
				"element": "H" 
			},
			{
				"x": 2.765715612,
				"y": -2.4659710193,
				"z": -3.496234155,
				"element": "H" 
			},
			{
				"x": 2.7033433034,
				"y": -1.2812519073,
				"z": -4.8320107134,
				"element": "H" 
			},
			{
				"x": -0.7959864101,
				"y": -1.005499697,
				"z": -0.9283268487,
				"element": "H" 
			},
			{
				"x": -0.1677726573,
				"y": 0.4662334753,
				"z": -1.7177267492,
				"element": "H" 
			},
			{
				"x": 1.964133923,
				"y": 0.2343935602,
				"z": -0.4346189232,
				"element": "H" 
			},
			{
				"x": 0.5564471216,
				"y": 0.5329260213,
				"z": 0.5995982333,
				"element": "H" 
			},
			{
				"x": -0.5637844648,
				"y": -1.7251615269,
				"z": 1.2699471415,
				"element": "H" 
			},
			{
				"x": 0.6593181591,
				"y": -2.909406252,
				"z": 1.7394482572,
				"element": "H" 
			},
			{
				"x": 0.11104142,
				"y": -1.7272934771,
				"z": 3.7476382854,
				"element": "H" 
			},
			{
				"x": 1.723843509,
				"y": -1.1807543807,
				"z": 3.2323533539,
				"element": "H" 
			},
			{
				"x": -1.7283071939,
				"y": -0.1374065925,
				"z": 2.5099086587,
				"element": "H" 
			},
			{
				"x": -1.3880402153,
				"y": 0.1178381201,
				"z": 4.235798915,
				"element": "H" 
			},
			{
				"x": -2.4038069523,
				"y": 2.1427768303,
				"z": 3.4061636734,
				"element": "H" 
			},
			{
				"x": -0.6839774172,
				"y": 2.5033060636,
				"z": 3.6462684374,
				"element": "H" 
			},
			{
				"x": -1.8876866914,
				"y": 3.0794246538,
				"z": -0.7106842414,
				"element": "H" 
			},
			{
				"x": -0.2450812303,
				"y": 3.6337427522,
				"z": -0.3859057206,
				"element": "H" 
			},
			{
				"x": -1.5872222089,
				"y": 4.8090228458,
				"z": -0.3623312996,
				"element": "H" 
			}
		],
		 "valence_orbital": [ 
			{
				"type": "occ",
				"energy": -0.30141,
				"method": "rhf"
			},
			{
				"type": "occ",
				"energy": -0.28133,
				"method": "rhf"
			},
			{
				"type": "occ",
				"energy": -0.27303,
				"method": "rhf"
			},
			{
				"type": "occ",
				"energy": -0.26734,
				"method": "rhf"
			},
			{
				"type": "occ",
				"energy": -0.24116,
				"method": "rhf"
			},
			{
				"type": "unocc",
				"energy": 0.01013,
				"method": "rhf"
			},
			{
				"type": "unocc",
				"energy": 0.01561,
				"method": "rhf"
			},
			{
				"type": "unocc",
				"energy": 0.073,
				"method": "rhf"
			},
			{
				"type": "unocc",
				"energy": 0.08867,
				"method": "rhf"
			},
			{
				"type": "unocc",
				"energy": 0.0939,
				"method": "rhf"
			}
		],
		"cosmo_sigma_profile": { 
			"-0.025": 0.0,
			"-0.024": 0.0,
			"-0.023": 0.0,
			"-0.022": 0.0,
			"-0.021": 0.0,
			"-0.02": 0.0,
			"-0.019": 0.0,
			"-0.018": 0.0,
			"-0.017": 0.0,
			"-0.016": 0.0,
			"-0.015": 0.0,
			"-0.014": 0.0,
			"-0.013": 0.0,
			"-0.012": 0.0,
			"-0.011": 0.0,
			"-0.01": 0.0,
			"-0.009": 0.0,
			"-0.008": 0.0,
			"-0.007": 3.23135168518,
			"-0.006": 19.7760622571,
			"-0.005": 37.4776186131,
			"-0.004": 38.2396259131,
			"-0.003": 35.4627461002,
			"-0.002": 32.2205930719,
			"-0.001": 20.5413641411,
			"0.0": 12.7851041641,
			"0.001": 9.62875289612,
			"0.002": 8.56528681375,
			"0.003": 8.93787584581,
			"0.004": 7.34012776595,
			"0.005": 7.01747801857,
			"0.006": 7.95070120617,
			"0.007": 6.59501354723,
			"0.008": 6.22943236853,
			"0.009": 6.19680442793,
			"0.01": 6.08143552528,
			"0.011": 8.9278856681,
			"0.012": 10.9508622447,
			"0.013": 4.6496338246,
			"0.014": 0.340942349428,
			"0.015": 0.0,
			"0.016": 0.0,
			"0.017": 0.0,
			"0.018": 0.0,
			"0.019": 0.0,
			"0.02": 0.0,
			"0.021": 0.0,
			"0.022": 0.0,
			"0.023": 0.0,
			"0.024": 0.0,
			"0.025": 0.0
		}
	}
}
