{
	 "smiles": "CC1=CC(=CC=C1)N1CCN(CC1)C1=NC=C(C=C1)C#N", 
	 "Tm": 395.15, 
	 "num_atms": 39, 
	 "gaussian": { 
		 "optdone": 1, 
		 "sigma_profile": "yes", 
		 "theory": "DFT", 
		 "functional": "B3LYP", 
		 "basiset": "6-31G**", 
		 "properties": { 
			 "R2extent": 10799.6065, 
			 "electric_dipole_moment_norm": 5.82128132287, 
			 "electric_quadrupole_moment_norm": 49.9109453344, 
			 "total_energy": -877.647077704, 
			 "HOMO_LUMO_gap": 0.1557, 
			 "cosmo_polarized_energy": -15.49, 
			 "cosmo_cavitation_energy": 41.92, 
			 "cosmo_dispersion_energy": -30.04, 
			 "cosmo_repulsion_energy": 2.27, 
			 "cosmo_total_nonelectrostatic_energy": 14.14, 
			 "SMD_solvation_energy": 5.6 
		},
		"coords": [
			{
				"x": 0.1876512132,
				"y": -2.4814302483,
				"z": 5.2077693069,
				"element": "C" 
			},
			{
				"x": -0.7532013991,
				"y": -1.7235612297,
				"z": 4.2988730912,
				"element": "C" 
			},
			{
				"x": -0.2791595733,
				"y": -1.1631563466,
				"z": 3.1088637247,
				"element": "C" 
			},
			{
				"x": -1.1325095976,
				"y": -0.4742301865,
				"z": 2.2210446046,
				"element": "C" 
			},
			{
				"x": -2.4922074993,
				"y": -0.3476112018,
				"z": 2.5770068107,
				"element": "C" 
			},
			{
				"x": -2.9591400895,
				"y": -0.8960528822,
				"z": 3.7683158157,
				"element": "C" 
			},
			{
				"x": -2.1063266083,
				"y": -1.583454261,
				"z": 4.6307151005,
				"element": "C" 
			},
			{
				"x": -0.6631218524,
				"y": 0.0674341386,
				"z": 1.024432004,
				"element": "N" 
			},
			{
				"x": -1.3899529448,
				"y": 1.1567635456,
				"z": 0.3726648673,
				"element": "C" 
			},
			{
				"x": -0.4490173647,
				"y": 2.0252956077,
				"z": -0.4618122874,
				"element": "C" 
			},
			{
				"x": 0.2778984302,
				"y": 1.2106892133,
				"z": -1.4352960153,
				"element": "N" 
			},
			{
				"x": 0.7620705262,
				"y": -0.0890228667,
				"z": -0.9767118164,
				"element": "C" 
			},
			{
				"x": 0.6813599214,
				"y": -0.2019044165,
				"z": 0.5476341665,
				"element": "C" 
			},
			{
				"x": 0.4279057298,
				"y": 1.6066872832,
				"z": -2.7364198454,
				"element": "C" 
			},
			{
				"x": -0.0262334699,
				"y": 2.8386107878,
				"z": -3.0590018464,
				"element": "N" 
			},
			{
				"x": 0.1085423819,
				"y": 3.2655747054,
				"z": -4.3079349393,
				"element": "C" 
			},
			{
				"x": 0.7057749227,
				"y": 2.5161534573,
				"z": -5.3347067279,
				"element": "C" 
			},
			{
				"x": 1.1711161078,
				"y": 1.228757279,
				"z": -5.0000592399,
				"element": "C" 
			},
			{
				"x": 1.0342279721,
				"y": 0.7636758007,
				"z": -3.7079589843,
				"element": "C" 
			},
			{
				"x": 0.8256251763,
				"y": 3.0422243556,
				"z": -6.6553085723,
				"element": "C" 
			},
			{
				"x": 0.922013548,
				"y": 3.4740860701,
				"z": -7.7325733721,
				"element": "N" 
			},
			{
				"x": 0.1554049844,
				"y": -3.5586893236,
				"z": 5.0009980586,
				"element": "H" 
			},
			{
				"x": -0.0798392152,
				"y": -2.3468833072,
				"z": 6.260375638,
				"element": "H" 
			},
			{
				"x": 1.2242157889,
				"y": -2.1557605172,
				"z": 5.0779068715,
				"element": "H" 
			},
			{
				"x": 0.7804295223,
				"y": -1.2453335494,
				"z": 2.8915192173,
				"element": "H" 
			},
			{
				"x": -3.1877231978,
				"y": 0.1558441744,
				"z": 1.9154840223,
				"element": "H" 
			},
			{
				"x": -4.0104949999,
				"y": -0.7873692976,
				"z": 4.0214013945,
				"element": "H" 
			},
			{
				"x": -2.4858783478,
				"y": -2.0058524191,
				"z": 5.5568541197,
				"element": "H" 
			},
			{
				"x": -1.8591168573,
				"y": 1.7940226895,
				"z": 1.1324465638,
				"element": "H" 
			},
			{
				"x": -2.1955060853,
				"y": 0.7725252898,
				"z": -0.27209018,
				"element": "H" 
			},
			{
				"x": -1.0147564528,
				"y": 2.7792417322,
				"z": -1.0074083713,
				"element": "H" 
			},
			{
				"x": 0.2540223537,
				"y": 2.5559023064,
				"z": 0.195223811,
				"element": "H" 
			},
			{
				"x": 0.1756598512,
				"y": -0.901664287,
				"z": -1.430649296,
				"element": "H" 
			},
			{
				"x": 1.8086205614,
				"y": -0.228501518,
				"z": -1.2764632768,
				"element": "H" 
			},
			{
				"x": 0.9538366948,
				"y": -1.2282720155,
				"z": 0.8074754394,
				"element": "H" 
			},
			{
				"x": 1.4376546749,
				"y": 0.4560043312,
				"z": 1.0091573125,
				"element": "H" 
			},
			{
				"x": -0.2738375033,
				"y": 4.2619742824,
				"z": -4.5210012179,
				"element": "H" 
			},
			{
				"x": 1.6300256844,
				"y": 0.6051688912,
				"z": -5.760600804,
				"element": "H" 
			},
			{
				"x": 1.3759670122,
				"y": -0.2314860679,
				"z": -3.4551651479,
				"element": "H" 
			}
		],
		 "valence_orbital": [ 
			{
				"type": "occ",
				"energy": -0.28157,
				"method": "rhf"
			},
			{
				"type": "occ",
				"energy": -0.27287,
				"method": "rhf"
			},
			{
				"type": "occ",
				"energy": -0.23974,
				"method": "rhf"
			},
			{
				"type": "occ",
				"energy": -0.21956,
				"method": "rhf"
			},
			{
				"type": "occ",
				"energy": -0.19499,
				"method": "rhf"
			},
			{
				"type": "unocc",
				"energy": -0.03929,
				"method": "rhf"
			},
			{
				"type": "unocc",
				"energy": -0.03265,
				"method": "rhf"
			},
			{
				"type": "unocc",
				"energy": 0.00225,
				"method": "rhf"
			},
			{
				"type": "unocc",
				"energy": 0.01503,
				"method": "rhf"
			},
			{
				"type": "unocc",
				"energy": 0.04042,
				"method": "rhf"
			}
		],
		"cosmo_sigma_profile": { 
			"-0.025": 0.0,
			"-0.024": 0.0,
			"-0.023": 0.0,
			"-0.022": 0.0,
			"-0.021": 0.0,
			"-0.02": 0.0,
			"-0.019": 0.0,
			"-0.018": 0.0,
			"-0.017": 0.0,
			"-0.016": 0.0,
			"-0.015": 0.0,
			"-0.014": 0.0,
			"-0.013": 0.0,
			"-0.012": 0.0,
			"-0.011": 0.0,
			"-0.01": 0.0,
			"-0.009": 0.140933109286,
			"-0.008": 3.77160531514,
			"-0.007": 7.28175060557,
			"-0.006": 12.7830385674,
			"-0.005": 25.4982024009,
			"-0.004": 41.7821460969,
			"-0.003": 33.5930011915,
			"-0.002": 25.778935779,
			"-0.001": 23.6337585825,
			"0.0": 30.1450404914,
			"0.001": 26.4217406621,
			"0.002": 15.9527878965,
			"0.003": 12.5593054522,
			"0.004": 11.6914719857,
			"0.005": 11.1397291087,
			"0.006": 11.8412619436,
			"0.007": 11.8828112504,
			"0.008": 9.16695412759,
			"0.009": 4.25778664406,
			"0.01": 4.26280220461,
			"0.011": 4.04985838409,
			"0.012": 2.84415732465,
			"0.013": 2.39294537222,
			"0.014": 0.688801686033,
			"0.015": 0.0,
			"0.016": 0.0,
			"0.017": 0.0,
			"0.018": 0.0,
			"0.019": 0.0,
			"0.02": 0.0,
			"0.021": 0.0,
			"0.022": 0.0,
			"0.023": 0.0,
			"0.024": 0.0,
			"0.025": 0.0
		}
	}
}
