{
	 "smiles": "C1=CC=C(C=C1)C1=C2C=CC=CC2=C(C2=CC=CC=C2)C2=C(C3=CC=CC=C3)C3=C(C=CC=C3)C(C3=CC=CC=C3)=C12", 
	 "Tm": 605.65, 
	 "num_atms": 70, 
	 "gaussian": { 
		 "optdone": 1, 
		 "sigma_profile": "yes", 
		 "theory": "DFT", 
		 "functional": "B3LYP", 
		 "basiset": "6-31G**", 
		 "properties": { 
			 "R2extent": 20311.231, 
			 "electric_dipole_moment_norm": 0.000948683298051, 
			 "electric_quadrupole_moment_norm": 15.5179234255, 
			 "total_energy": -1617.34562113, 
			 "HOMO_LUMO_gap": 0.0923, 
			 "cosmo_polarized_energy": -12.17, 
			 "cosmo_cavitation_energy": 69.17, 
			 "cosmo_dispersion_energy": -43.29, 
			 "cosmo_repulsion_energy": 3.23, 
			 "cosmo_total_nonelectrostatic_energy": 29.11, 
			 "SMD_solvation_energy": 9.7 
		},
		"coords": [
			{
				"x": 2.1630250957,
				"y": 6.1570189949,
				"z": 1.7484412658,
				"element": "C" 
			},
			{
				"x": 3.248183326,
				"y": 5.4172130514,
				"z": 1.2738413684,
				"element": "C" 
			},
			{
				"x": 3.095098273,
				"y": 4.066993409,
				"z": 0.9596114909,
				"element": "C" 
			},
			{
				"x": 1.8510610279,
				"y": 3.4335349521,
				"z": 1.1004354622,
				"element": "C" 
			},
			{
				"x": 0.7688178734,
				"y": 4.1881926121,
				"z": 1.5815729808,
				"element": "C" 
			},
			{
				"x": 0.9222776914,
				"y": 5.5367466464,
				"z": 1.9035898134,
				"element": "C" 
			},
			{
				"x": 1.6550581908,
				"y": 1.9686626929,
				"z": 0.8592676962,
				"element": "C" 
			},
			{
				"x": 2.2278291391,
				"y": 1.0576407479,
				"z": 1.766212224,
				"element": "C" 
			},
			{
				"x": 3.0923069502,
				"y": 1.4789766301,
				"z": 2.8355862435,
				"element": "C" 
			},
			{
				"x": 3.7668098555,
				"y": 0.5749101797,
				"z": 3.6073490573,
				"element": "C" 
			},
			{
				"x": 3.6265377531,
				"y": -0.8228116031,
				"z": 3.3651743433,
				"element": "C" 
			},
			{
				"x": 2.7646534363,
				"y": -1.2725156077,
				"z": 2.4045380023,
				"element": "C" 
			},
			{
				"x": 1.9797003456,
				"y": -0.3632945189,
				"z": 1.6135885958,
				"element": "C" 
			},
			{
				"x": 0.9717252418,
				"y": -0.8067671222,
				"z": 0.7373303098,
				"element": "C" 
			},
			{
				"x": 0.8056208205,
				"y": -2.2803482977,
				"z": 0.5289595238,
				"element": "C" 
			},
			{
				"x": 1.2431900696,
				"y": -2.8433147377,
				"z": -0.6809518592,
				"element": "C" 
			},
			{
				"x": 1.1900540189,
				"y": -4.2213343523,
				"z": -0.8909089116,
				"element": "C" 
			},
			{
				"x": 0.6958683762,
				"y": -5.0632205545,
				"z": 0.1067343243,
				"element": "C" 
			},
			{
				"x": 0.2606187387,
				"y": -4.5165943763,
				"z": 1.3158160146,
				"element": "C" 
			},
			{
				"x": 0.3215320064,
				"y": -3.1393205587,
				"z": 1.5272132635,
				"element": "C" 
			},
			{
				"x": 0.2471447927,
				"y": 0.1418338832,
				"z": -0.0534575338,
				"element": "C" 
			},
			{
				"x": -0.9678508935,
				"y": -0.1754648152,
				"z": -0.7413646411,
				"element": "C" 
			},
			{
				"x": -1.8205715903,
				"y": -1.3321039301,
				"z": -0.3199532311,
				"element": "C" 
			},
			{
				"x": -2.0911633345,
				"y": -2.4225635177,
				"z": -1.1604209882,
				"element": "C" 
			},
			{
				"x": -2.9578183275,
				"y": -3.4377451554,
				"z": -0.7559521729,
				"element": "C" 
			},
			{
				"x": -3.5816479098,
				"y": -3.3751944925,
				"z": 0.4918628463,
				"element": "C" 
			},
			{
				"x": -3.3297922787,
				"y": -2.2906646864,
				"z": 1.3336736511,
				"element": "C" 
			},
			{
				"x": -2.4569571495,
				"y": -1.27984738,
				"z": 0.9308654162,
				"element": "C" 
			},
			{
				"x": -1.4650621137,
				"y": 0.7001491557,
				"z": -1.7245709694,
				"element": "C" 
			},
			{
				"x": -0.7052788486,
				"y": 1.8808606475,
				"z": -2.0886668595,
				"element": "C" 
			},
			{
				"x": -1.1217194478,
				"y": 2.6170746394,
				"z": -3.2518574735,
				"element": "C" 
			},
			{
				"x": -2.2690107581,
				"y": 2.3014812716,
				"z": -3.9241987359,
				"element": "C" 
			},
			{
				"x": -3.0881330258,
				"y": 1.2224515735,
				"z": -3.4807407241,
				"element": "C" 
			},
			{
				"x": -2.698566765,
				"y": 0.4520417977,
				"z": -2.4212140534,
				"element": "C" 
			},
			{
				"x": 0.3788308664,
				"y": 2.2885075979,
				"z": -1.2892390163,
				"element": "C" 
			},
			{
				"x": 1.202384372,
				"y": 3.4533249548,
				"z": -1.7446616931,
				"element": "C" 
			},
			{
				"x": 0.714017,
				"y": 4.7685872164,
				"z": -1.762723792,
				"element": "C" 
			},
			{
				"x": 1.4886776531,
				"y": 5.8106770225,
				"z": -2.2718641628,
				"element": "C" 
			},
			{
				"x": 2.7617669117,
				"y": 5.5553887657,
				"z": -2.7858524126,
				"element": "C" 
			},
			{
				"x": 3.2557120189,
				"y": 4.2499130133,
				"z": -2.7840644742,
				"element": "C" 
			},
			{
				"x": 2.4828758697,
				"y": 3.2098706683,
				"z": -2.2675007534,
				"element": "C" 
			},
			{
				"x": 0.7717021242,
				"y": 1.4956268352,
				"z": -0.1635251697,
				"element": "C" 
			},
			{
				"x": 2.2847919454,
				"y": 7.2074922948,
				"z": 1.9970717289,
				"element": "H" 
			},
			{
				"x": 4.2172020266,
				"y": 5.891869348,
				"z": 1.147281802,
				"element": "H" 
			},
			{
				"x": 3.9413625829,
				"y": 3.4978828148,
				"z": 0.5878859461,
				"element": "H" 
			},
			{
				"x": -0.195953996,
				"y": 3.7058380254,
				"z": 1.7096587882,
				"element": "H" 
			},
			{
				"x": 0.0733382593,
				"y": 6.1009412087,
				"z": 2.2800597633,
				"element": "H" 
			},
			{
				"x": 3.2190464691,
				"y": 2.5392347253,
				"z": 3.0143184892,
				"element": "H" 
			},
			{
				"x": 4.4224682544,
				"y": 0.921153452,
				"z": 4.4012678164,
				"element": "H" 
			},
			{
				"x": 4.1989199564,
				"y": -1.5322430302,
				"z": 3.956077199,
				"element": "H" 
			},
			{
				"x": 2.6503514575,
				"y": -2.3364754446,
				"z": 2.2399487936,
				"element": "H" 
			},
			{
				"x": 1.6347102952,
				"y": -2.1907672774,
				"z": -1.4560425869,
				"element": "H" 
			},
			{
				"x": 1.539291304,
				"y": -4.6369525135,
				"z": -1.8322076268,
				"element": "H" 
			},
			{
				"x": 0.6520306157,
				"y": -6.1365796434,
				"z": -0.05487437,
				"element": "H" 
			},
			{
				"x": -0.1278893167,
				"y": -5.1635346135,
				"z": 2.0973765335,
				"element": "H" 
			},
			{
				"x": -0.0211990494,
				"y": -2.7199450686,
				"z": 2.467895872,
				"element": "H" 
			},
			{
				"x": -1.6066965526,
				"y": -2.4782169681,
				"z": -2.1301744957,
				"element": "H" 
			},
			{
				"x": -3.1456119274,
				"y": -4.2791166691,
				"z": -1.4171121627,
				"element": "H" 
			},
			{
				"x": -4.2599066034,
				"y": -4.1643575674,
				"z": 0.8038365978,
				"element": "H" 
			},
			{
				"x": -3.8164214642,
				"y": -2.227843548,
				"z": 2.3032071272,
				"element": "H" 
			},
			{
				"x": -2.2681014194,
				"y": -0.4332253223,
				"z": 1.5846423978,
				"element": "H" 
			},
			{
				"x": -0.5151965639,
				"y": 3.4499177434,
				"z": -3.5845078286,
				"element": "H" 
			},
			{
				"x": -2.5660393694,
				"y": 2.8817574244,
				"z": -4.7931841108,
				"element": "H" 
			},
			{
				"x": -4.019491694,
				"y": 1.0057001115,
				"z": -3.9961719903,
				"element": "H" 
			},
			{
				"x": -3.3174822035,
				"y": -0.3772432599,
				"z": -2.1028265988,
				"element": "H" 
			},
			{
				"x": -0.2734800015,
				"y": 4.9735887292,
				"z": -1.3614139926,
				"element": "H" 
			},
			{
				"x": 1.0966360237,
				"y": 6.8238820555,
				"z": -2.2666201561,
				"element": "H" 
			},
			{
				"x": 3.3622698292,
				"y": 6.3673245666,
				"z": -3.1862222522,
				"element": "H" 
			},
			{
				"x": 4.2416038774,
				"y": 4.0388896767,
				"z": -3.1893178406,
				"element": "H" 
			},
			{
				"x": 2.8664398685,
				"y": 2.1936554973,
				"z": -2.2735271086,
				"element": "H" 
			}
		],
		 "valence_orbital": [ 
			{
				"type": "occ",
				"energy": -0.23101,
				"method": "rhf"
			},
			{
				"type": "occ",
				"energy": -0.22941,
				"method": "rhf"
			},
			{
				"type": "occ",
				"energy": -0.22469,
				"method": "rhf"
			},
			{
				"type": "occ",
				"energy": -0.21988,
				"method": "rhf"
			},
			{
				"type": "occ",
				"energy": -0.17,
				"method": "rhf"
			},
			{
				"type": "unocc",
				"energy": -0.0777,
				"method": "rhf"
			},
			{
				"type": "unocc",
				"energy": -0.0218,
				"method": "rhf"
			},
			{
				"type": "unocc",
				"energy": -0.01667,
				"method": "rhf"
			},
			{
				"type": "unocc",
				"energy": -0.01134,
				"method": "rhf"
			},
			{
				"type": "unocc",
				"energy": -0.00671,
				"method": "rhf"
			}
		],
		"cosmo_sigma_profile": { 
			"-0.025": 0.0,
			"-0.024": 0.0,
			"-0.023": 0.0,
			"-0.022": 0.0,
			"-0.021": 0.0,
			"-0.02": 0.0,
			"-0.019": 0.0,
			"-0.018": 0.0,
			"-0.017": 0.0,
			"-0.016": 0.0,
			"-0.015": 0.0,
			"-0.014": 0.0,
			"-0.013": 0.0,
			"-0.012": 0.0,
			"-0.011": 0.0,
			"-0.01": 0.0,
			"-0.009": 0.0,
			"-0.008": 0.0,
			"-0.007": 0.0,
			"-0.006": 14.4706872054,
			"-0.005": 44.6691067245,
			"-0.004": 52.3694666746,
			"-0.003": 58.266360176,
			"-0.002": 39.998428912,
			"-0.001": 43.9881275423,
			"0.0": 45.7643410555,
			"0.001": 44.9349274277,
			"0.002": 50.0798042303,
			"0.003": 53.064906205,
			"0.004": 46.0278428661,
			"0.005": 39.4723751141,
			"0.006": 14.4492169956,
			"0.007": 4.06376549953,
			"0.008": 2.70051067701,
			"0.009": 0.312947698472,
			"0.01": 0.0,
			"0.011": 0.0,
			"0.012": 0.0,
			"0.013": 0.0,
			"0.014": 0.0,
			"0.015": 0.0,
			"0.016": 0.0,
			"0.017": 0.0,
			"0.018": 0.0,
			"0.019": 0.0,
			"0.02": 0.0,
			"0.021": 0.0,
			"0.022": 0.0,
			"0.023": 0.0,
			"0.024": 0.0,
			"0.025": 0.0
		}
	}
}
