{
	 "smiles": "CSC1=NC(C(O)=O)=C2C=CC=CN12", 
	 "Tm": 476.15, 
	 "num_atms": 22, 
	 "gaussian": { 
		 "optdone": 1, 
		 "sigma_profile": "yes", 
		 "theory": "DFT", 
		 "functional": "B3LYP", 
		 "basiset": "6-31G**", 
		 "properties": { 
			 "R2extent": 3371.6286, 
			 "electric_dipole_moment_norm": 6.05740421055, 
			 "electric_quadrupole_moment_norm": 18.1322972563, 
			 "total_energy": -1005.92713721, 
			 "HOMO_LUMO_gap": 0.14647, 
			 "cosmo_polarized_energy": -14.96, 
			 "cosmo_cavitation_energy": 28.18, 
			 "cosmo_dispersion_energy": -21.23, 
			 "cosmo_repulsion_energy": 1.61, 
			 "cosmo_total_nonelectrostatic_energy": 8.56, 
			 "SMD_solvation_energy": 5.6 
		},
		"coords": [
			{
				"x": -2.2469126479,
				"y": -0.5806461571,
				"z": 3.4547017922,
				"element": "C" 
			},
			{
				"x": -0.4313854147,
				"y": -0.4324552027,
				"z": 3.3328934551,
				"element": "S" 
			},
			{
				"x": -0.3134176616,
				"y": 0.1055535821,
				"z": 1.657139062,
				"element": "C" 
			},
			{
				"x": -1.2993015259,
				"y": 0.315336686,
				"z": 0.8100347069,
				"element": "N" 
			},
			{
				"x": -0.7305926371,
				"y": 0.7239289069,
				"z": -0.373273692,
				"element": "C" 
			},
			{
				"x": -1.5419576206,
				"y": 1.0492510497,
				"z": -1.5524221056,
				"element": "C" 
			},
			{
				"x": -2.8748415224,
				"y": 0.9102294217,
				"z": -1.3621816327,
				"element": "O" 
			},
			{
				"x": -1.079045801,
				"y": 1.4137034397,
				"z": -2.6154854683,
				"element": "O" 
			},
			{
				"x": 0.6550055869,
				"y": 0.7682998408,
				"z": -0.2535818837,
				"element": "C" 
			},
			{
				"x": 1.7470992152,
				"y": 1.0983108185,
				"z": -1.0909464808,
				"element": "C" 
			},
			{
				"x": 3.0206289749,
				"y": 1.0156335469,
				"z": -0.5910930233,
				"element": "C" 
			},
			{
				"x": 3.2428510251,
				"y": 0.6008102118,
				"z": 0.7604812564,
				"element": "C" 
			},
			{
				"x": 2.1971472198,
				"y": 0.2815851569,
				"z": 1.5723142298,
				"element": "C" 
			},
			{
				"x": 0.9121660225,
				"y": 0.3643123267,
				"z": 1.0700513855,
				"element": "N" 
			},
			{
				"x": -2.6157515562,
				"y": -1.3144532513,
				"z": 2.7379072911,
				"element": "H" 
			},
			{
				"x": -2.4475587017,
				"y": -0.915621823,
				"z": 4.473709867,
				"element": "H" 
			},
			{
				"x": -2.7184170382,
				"y": 0.3859409438,
				"z": 3.2766630619,
				"element": "H" 
			},
			{
				"x": -3.0069197011,
				"y": 0.6115521812,
				"z": -0.4442027774,
				"element": "H" 
			},
			{
				"x": 1.5235138997,
				"y": 1.4062198851,
				"z": -2.1052212206,
				"element": "H" 
			},
			{
				"x": 3.8709650745,
				"y": 1.2643286938,
				"z": -1.2169488971,
				"element": "H" 
			},
			{
				"x": 4.2500928083,
				"y": 0.5354519606,
				"z": 1.1557256719,
				"element": "H" 
			},
			{
				"x": 2.2971320015,
				"y": -0.0384722179,
				"z": 2.6015354016,
				"element": "H" 
			}
		],
		 "valence_orbital": [ 
			{
				"type": "occ",
				"energy": -0.29829,
				"method": "rhf"
			},
			{
				"type": "occ",
				"energy": -0.29227,
				"method": "rhf"
			},
			{
				"type": "occ",
				"energy": -0.26831,
				"method": "rhf"
			},
			{
				"type": "occ",
				"energy": -0.25869,
				"method": "rhf"
			},
			{
				"type": "occ",
				"energy": -0.20417,
				"method": "rhf"
			},
			{
				"type": "unocc",
				"energy": -0.0577,
				"method": "rhf"
			},
			{
				"type": "unocc",
				"energy": -0.02269,
				"method": "rhf"
			},
			{
				"type": "unocc",
				"energy": 0.00526,
				"method": "rhf"
			},
			{
				"type": "unocc",
				"energy": 0.01044,
				"method": "rhf"
			},
			{
				"type": "unocc",
				"energy": 0.05965,
				"method": "rhf"
			}
		],
		"cosmo_sigma_profile": { 
			"-0.025": 0.0,
			"-0.024": 0.0,
			"-0.023": 0.0,
			"-0.022": 0.0,
			"-0.021": 0.0,
			"-0.02": 0.0,
			"-0.019": 0.0,
			"-0.018": 0.0,
			"-0.017": 0.0,
			"-0.016": 0.0,
			"-0.015": 0.0,
			"-0.014": 0.0500231294358,
			"-0.013": 0.339179282019,
			"-0.012": 0.843945285112,
			"-0.011": 0.590957306994,
			"-0.01": 1.29242016882,
			"-0.009": 1.96816785474,
			"-0.008": 6.16280146913,
			"-0.007": 11.1393489352,
			"-0.006": 12.472880912,
			"-0.005": 12.6965910805,
			"-0.004": 13.804183103,
			"-0.003": 16.3200943035,
			"-0.002": 19.7506020343,
			"-0.001": 15.0968571846,
			"0.0": 17.1933640475,
			"0.001": 22.0122583757,
			"0.002": 18.4699791637,
			"0.003": 10.2126772726,
			"0.004": 6.99441992098,
			"0.005": 7.27934264216,
			"0.006": 5.68031916305,
			"0.007": 4.06813164906,
			"0.008": 3.17411144374,
			"0.009": 2.47559709135,
			"0.01": 4.38240401883,
			"0.011": 4.80997652963,
			"0.012": 4.55909343145,
			"0.013": 3.18567279703,
			"0.014": 1.41684063995,
			"0.015": 0.0,
			"0.016": 0.0,
			"0.017": 0.0,
			"0.018": 0.0,
			"0.019": 0.0,
			"0.02": 0.0,
			"0.021": 0.0,
			"0.022": 0.0,
			"0.023": 0.0,
			"0.024": 0.0,
			"0.025": 0.0
		}
	}
}
