{
	 "smiles": "CC(C)(C)OC(=O)NNCCS(C)(=O)=O", 
	 "Tm": 379.15, 
	 "num_atms": 33, 
	 "gaussian": { 
		 "optdone": 1, 
		 "sigma_profile": "yes", 
		 "theory": "DFT", 
		 "functional": "B3LYP", 
		 "basiset": "6-31G**", 
		 "properties": { 
			 "R2extent": 6635.3746, 
			 "electric_dipole_moment_norm": 6.5724788094, 
			 "electric_quadrupole_moment_norm": 20.1437725543, 
			 "total_energy": -1124.21987222, 
			 "HOMO_LUMO_gap": 0.29498, 
			 "cosmo_polarized_energy": -28.68, 
			 "cosmo_cavitation_energy": 37.42, 
			 "cosmo_dispersion_energy": -26.28, 
			 "cosmo_repulsion_energy": 2.07, 
			 "cosmo_total_nonelectrostatic_energy": 13.21, 
			 "SMD_solvation_energy": 6.69 
		},
		"coords": [
			{
				"x": 2.1095671644,
				"y": -1.7516493198,
				"z": -2.2249503582,
				"element": "C" 
			},
			{
				"x": 2.6835877413,
				"y": -1.3673039935,
				"z": -0.8570824685,
				"element": "C" 
			},
			{
				"x": 4.0241592197,
				"y": -0.6344563761,
				"z": -0.975033674,
				"element": "C" 
			},
			{
				"x": 2.8136479126,
				"y": -2.5981135842,
				"z": 0.0438573941,
				"element": "C" 
			},
			{
				"x": 1.7179611243,
				"y": -0.533564006,
				"z": -0.1230325416,
				"element": "O" 
			},
			{
				"x": 1.3406906136,
				"y": 0.6773290877,
				"z": -0.6058620116,
				"element": "C" 
			},
			{
				"x": 1.6952599837,
				"y": 1.1968518815,
				"z": -1.6416451512,
				"element": "O" 
			},
			{
				"x": 0.4761589105,
				"y": 1.2363545333,
				"z": 0.3212153662,
				"element": "N" 
			},
			{
				"x": -0.2137640459,
				"y": 2.3967092408,
				"z": -0.0019498564,
				"element": "N" 
			},
			{
				"x": -1.5961544574,
				"y": 2.2257571723,
				"z": -0.4286567598,
				"element": "C" 
			},
			{
				"x": -2.5360928917,
				"y": 1.6424550401,
				"z": 0.6483893389,
				"element": "C" 
			},
			{
				"x": -4.2338000205,
				"y": 1.5104837456,
				"z": 0.0030899324,
				"element": "S" 
			},
			{
				"x": -5.1700324826,
				"y": 0.835087633,
				"z": 1.3956941818,
				"element": "C" 
			},
			{
				"x": -4.2327102958,
				"y": 0.5040490591,
				"z": -1.0700451455,
				"element": "O" 
			},
			{
				"x": -4.7232370806,
				"y": 2.8753229476,
				"z": -0.2486484548,
				"element": "O" 
			},
			{
				"x": 1.9950585162,
				"y": -0.8738753588,
				"z": -2.8612418886,
				"element": "H" 
			},
			{
				"x": 1.1340252144,
				"y": -2.2339025353,
				"z": -2.1062978951,
				"element": "H" 
			},
			{
				"x": 2.7810498644,
				"y": -2.4615920904,
				"z": -2.718742971,
				"element": "H" 
			},
			{
				"x": 4.7688376023,
				"y": -1.3006040932,
				"z": -1.4226969851,
				"element": "H" 
			},
			{
				"x": 3.9289487022,
				"y": 0.2559190698,
				"z": -1.5970046277,
				"element": "H" 
			},
			{
				"x": 4.3844643705,
				"y": -0.3392703355,
				"z": 0.0156222901,
				"element": "H" 
			},
			{
				"x": 1.8459317761,
				"y": -3.0945068198,
				"z": 0.1623804324,
				"element": "H" 
			},
			{
				"x": 3.1806571277,
				"y": -2.3150101996,
				"z": 1.0348148529,
				"element": "H" 
			},
			{
				"x": 3.5168764786,
				"y": -3.3120487875,
				"z": -0.3949829357,
				"element": "H" 
			},
			{
				"x": 0.1436016589,
				"y": 0.6166971295,
				"z": 1.0526456539,
				"element": "H" 
			},
			{
				"x": -0.1056100749,
				"y": 3.0854820074,
				"z": 0.7351100745,
				"element": "H" 
			},
			{
				"x": -1.6057922719,
				"y": 1.5805575751,
				"z": -1.3109076166,
				"element": "H" 
			},
			{
				"x": -1.9696930602,
				"y": 3.2078060149,
				"z": -0.7330549439,
				"element": "H" 
			},
			{
				"x": -2.5803779116,
				"y": 2.2885153298,
				"z": 1.5314249341,
				"element": "H" 
			},
			{
				"x": -2.2350111121,
				"y": 0.6330419244,
				"z": 0.9457810298,
				"element": "H" 
			},
			{
				"x": -4.7753957486,
				"y": -0.1474060365,
				"z": 1.6592768388,
				"element": "H" 
			},
			{
				"x": -5.1214045935,
				"y": 1.526198563,
				"z": 2.2385899017,
				"element": "H" 
			},
			{
				"x": -6.2000079338,
				"y": 0.7432855812,
				"z": 1.0453440636,
				"element": "H" 
			}
		],
		 "valence_orbital": [ 
			{
				"type": "occ",
				"energy": -0.29666,
				"method": "rhf"
			},
			{
				"type": "occ",
				"energy": -0.28863,
				"method": "rhf"
			},
			{
				"type": "occ",
				"energy": -0.26918,
				"method": "rhf"
			},
			{
				"type": "occ",
				"energy": -0.26197,
				"method": "rhf"
			},
			{
				"type": "occ",
				"energy": -0.25409,
				"method": "rhf"
			},
			{
				"type": "unocc",
				"energy": 0.04089,
				"method": "rhf"
			},
			{
				"type": "unocc",
				"energy": 0.0497,
				"method": "rhf"
			},
			{
				"type": "unocc",
				"energy": 0.05767,
				"method": "rhf"
			},
			{
				"type": "unocc",
				"energy": 0.07146,
				"method": "rhf"
			},
			{
				"type": "unocc",
				"energy": 0.07578,
				"method": "rhf"
			}
		],
		"cosmo_sigma_profile": { 
			"-0.025": 0.0,
			"-0.024": 0.0,
			"-0.023": 0.0,
			"-0.022": 0.0,
			"-0.021": 0.0,
			"-0.02": 0.0,
			"-0.019": 0.0,
			"-0.018": 0.0,
			"-0.017": 0.0,
			"-0.016": 0.0,
			"-0.015": 0.0,
			"-0.014": 0.0584457719699,
			"-0.013": 1.86766957561,
			"-0.012": 3.00516793962,
			"-0.011": 3.86559478145,
			"-0.01": 6.29141603304,
			"-0.009": 9.81168673086,
			"-0.008": 12.6365057279,
			"-0.007": 9.21144750957,
			"-0.006": 10.6440183736,
			"-0.005": 10.1892526934,
			"-0.004": 21.2100283378,
			"-0.003": 25.4463033702,
			"-0.002": 19.9515262073,
			"-0.001": 20.5175915741,
			"0.0": 25.7551815076,
			"0.001": 21.9049287498,
			"0.002": 8.03562291709,
			"0.003": 9.21353441162,
			"0.004": 6.05377176216,
			"0.005": 5.10938449297,
			"0.006": 6.34952760996,
			"0.007": 4.92683397478,
			"0.008": 4.54912611276,
			"0.009": 4.45226719947,
			"0.01": 5.00032432503,
			"0.011": 9.44842949728,
			"0.012": 14.3740677914,
			"0.013": 5.70193961138,
			"0.014": 1.81032992811,
			"0.015": 1.64291717828,
			"0.016": 0.915724151516,
			"0.017": 0.893226382237,
			"0.018": 0.485396870545,
			"0.019": 0.0516058695018,
			"0.02": 0.0,
			"0.021": 0.0,
			"0.022": 0.0,
			"0.023": 0.0,
			"0.024": 0.0,
			"0.025": 0.0
		}
	}
}
