{
	 "smiles": "CC(=O)NC1=CC=C(C=C1)C#CC1=CC=C(NC(C)=O)C=C1", 
	 "Tm": 554.15, 
	 "num_atms": 38, 
	 "gaussian": { 
		 "optdone": 1, 
		 "sigma_profile": "yes", 
		 "theory": "DFT", 
		 "functional": "B3LYP", 
		 "basiset": "6-31G**", 
		 "properties": { 
			 "R2extent": 16824.1171, 
			 "electric_dipole_moment_norm": 5.61218041585, 
			 "electric_quadrupole_moment_norm": 28.5462573426, 
			 "total_energy": -955.499635107, 
			 "HOMO_LUMO_gap": 0.14655, 
			 "cosmo_polarized_energy": -23.12, 
			 "cosmo_cavitation_energy": 44.73, 
			 "cosmo_dispersion_energy": -31.93, 
			 "cosmo_repulsion_energy": 2.45, 
			 "cosmo_total_nonelectrostatic_energy": 15.25, 
			 "SMD_solvation_energy": 9.21 
		},
		"coords": [
			{
				"x": 1.2953101277,
				"y": 3.7603425668,
				"z": 7.6185024933,
				"element": "C" 
			},
			{
				"x": 0.8130154538,
				"y": 3.4823095941,
				"z": 6.201676506,
				"element": "C" 
			},
			{
				"x": 0.2336161121,
				"y": 4.3345228565,
				"z": 5.5450243639,
				"element": "O" 
			},
			{
				"x": 1.0908408672,
				"y": 2.2095810708,
				"z": 5.7434942671,
				"element": "N" 
			},
			{
				"x": 0.7932796423,
				"y": 1.6345355881,
				"z": 4.493161899,
				"element": "C" 
			},
			{
				"x": 1.1950207046,
				"y": 0.3041241637,
				"z": 4.2815819955,
				"element": "C" 
			},
			{
				"x": 0.9386008877,
				"y": -0.3328917226,
				"z": 3.0768237752,
				"element": "C" 
			},
			{
				"x": 0.2680127855,
				"y": 0.3415947427,
				"z": 2.0362831235,
				"element": "C" 
			},
			{
				"x": -0.1295319888,
				"y": 1.6747107322,
				"z": 2.2608268137,
				"element": "C" 
			},
			{
				"x": 0.1237663293,
				"y": 2.3202185241,
				"z": 3.4654492546,
				"element": "C" 
			},
			{
				"x": 0.0013869618,
				"y": -0.3054352767,
				"z": 0.7977101489,
				"element": "C" 
			},
			{
				"x": -0.2264786967,
				"y": -0.8598936334,
				"z": -0.2616545537,
				"element": "C" 
			},
			{
				"x": -0.4947556651,
				"y": -1.5026982106,
				"z": -1.5018196808,
				"element": "C" 
			},
			{
				"x": -1.1705500057,
				"y": -0.8264667286,
				"z": -2.5389223171,
				"element": "C" 
			},
			{
				"x": -1.4198881995,
				"y": -1.4528174038,
				"z": -3.75154193,
				"element": "C" 
			},
			{
				"x": -1.017074117,
				"y": -2.7810164939,
				"z": -3.9744428027,
				"element": "C" 
			},
			{
				"x": -1.3324974197,
				"y": -3.3759225848,
				"z": -5.2124368686,
				"element": "N" 
			},
			{
				"x": -0.6418891269,
				"y": -4.261311852,
				"z": -6.0282365228,
				"element": "C" 
			},
			{
				"x": 0.725494854,
				"y": -4.7490014168,
				"z": -5.5905413644,
				"element": "C" 
			},
			{
				"x": -1.1456988869,
				"y": -4.6107473655,
				"z": -7.0856197866,
				"element": "O" 
			},
			{
				"x": -0.3717674838,
				"y": -3.4714246478,
				"z": -2.9362151718,
				"element": "C" 
			},
			{
				"x": -0.1030012296,
				"y": -2.8367250924,
				"z": -1.7288212955,
				"element": "C" 
			},
			{
				"x": 2.0123571272,
				"y": 4.5854857208,
				"z": 7.5870742868,
				"element": "H" 
			},
			{
				"x": 0.4428543839,
				"y": 4.0935402244,
				"z": 8.2161526897,
				"element": "H" 
			},
			{
				"x": 1.7629589339,
				"y": 2.9043704396,
				"z": 8.1129601218,
				"element": "H" 
			},
			{
				"x": 1.5755068083,
				"y": 1.6008989996,
				"z": 6.3866555867,
				"element": "H" 
			},
			{
				"x": 1.7138332962,
				"y": -0.2342473281,
				"z": 5.0718945945,
				"element": "H" 
			},
			{
				"x": 1.2550090066,
				"y": -1.3601516338,
				"z": 2.9288385017,
				"element": "H" 
			},
			{
				"x": -0.6469910642,
				"y": 2.2093575014,
				"z": 1.4707942798,
				"element": "H" 
			},
			{
				"x": -0.1859016191,
				"y": 3.3427876685,
				"z": 3.6260588781,
				"element": "H" 
			},
			{
				"x": -1.4869649886,
				"y": 0.1998191343,
				"z": -2.3843696667,
				"element": "H" 
			},
			{
				"x": -1.923548891,
				"y": -0.9097224556,
				"z": -4.5467571341,
				"element": "H" 
			},
			{
				"x": -2.1657597317,
				"y": -3.0334520608,
				"z": -5.6760550555,
				"element": "H" 
			},
			{
				"x": 1.2680657574,
				"y": -5.0361807406,
				"z": -6.4918366178,
				"element": "H" 
			},
			{
				"x": 1.2898672148,
				"y": -3.9977130423,
				"z": -5.0338702191,
				"element": "H" 
			},
			{
				"x": 0.6275202235,
				"y": -5.6395233693,
				"z": -4.9604900702,
				"element": "H" 
			},
			{
				"x": -0.1021267241,
				"y": -4.5130868283,
				"z": -3.059996383,
				"element": "H" 
			},
			{
				"x": 0.3983083607,
				"y": -3.3821696396,
				"z": -0.9359361393,
				"element": "H" 
			}
		],
		 "valence_orbital": [ 
			{
				"type": "occ",
				"energy": -0.26001,
				"method": "rhf"
			},
			{
				"type": "occ",
				"energy": -0.25854,
				"method": "rhf"
			},
			{
				"type": "occ",
				"energy": -0.25448,
				"method": "rhf"
			},
			{
				"type": "occ",
				"energy": -0.23874,
				"method": "rhf"
			},
			{
				"type": "occ",
				"energy": -0.19868,
				"method": "rhf"
			},
			{
				"type": "unocc",
				"energy": -0.05213,
				"method": "rhf"
			},
			{
				"type": "unocc",
				"energy": -0.01449,
				"method": "rhf"
			},
			{
				"type": "unocc",
				"energy": -0.00952,
				"method": "rhf"
			},
			{
				"type": "unocc",
				"energy": -0.00804,
				"method": "rhf"
			},
			{
				"type": "unocc",
				"energy": 0.02367,
				"method": "rhf"
			}
		],
		"cosmo_sigma_profile": { 
			"-0.025": 0.0,
			"-0.024": 0.0,
			"-0.023": 0.0,
			"-0.022": 0.0,
			"-0.021": 0.0,
			"-0.02": 0.0,
			"-0.019": 0.0,
			"-0.018": 0.0,
			"-0.017": 0.0,
			"-0.016": 0.175838033928,
			"-0.015": 1.37872021831,
			"-0.014": 2.50579344294,
			"-0.013": 2.5114118487,
			"-0.012": 2.10916877424,
			"-0.011": 3.24330655049,
			"-0.01": 2.75449182969,
			"-0.009": 2.62407475746,
			"-0.008": 5.06346240293,
			"-0.007": 9.97719130042,
			"-0.006": 18.9480296942,
			"-0.005": 24.5439281059,
			"-0.004": 23.8182632361,
			"-0.003": 26.5449361503,
			"-0.002": 26.4363911471,
			"-0.001": 22.6148963431,
			"0.0": 18.5233683411,
			"0.001": 19.2718163303,
			"0.002": 24.1761951693,
			"0.003": 32.5174211485,
			"0.004": 35.1351291236,
			"0.005": 10.6621715209,
			"0.006": 8.67265615191,
			"0.007": 4.08387209594,
			"0.008": 2.20222517846,
			"0.009": 2.04829740468,
			"0.01": 3.29932165938,
			"0.011": 3.77683725259,
			"0.012": 5.22927842638,
			"0.013": 7.85261219948,
			"0.014": 5.19665763505,
			"0.015": 0.460485209507,
			"0.016": 0.0,
			"0.017": 0.0,
			"0.018": 0.0,
			"0.019": 0.0,
			"0.02": 0.0,
			"0.021": 0.0,
			"0.022": 0.0,
			"0.023": 0.0,
			"0.024": 0.0,
			"0.025": 0.0
		}
	}
}
