{
	 "smiles": "CC(N)C1=CC(F)=C(C=C1)S(C)(=O)=O", 
	 "Tm": 334.15, 
	 "num_atms": 26, 
	 "gaussian": { 
		 "optdone": 1, 
		 "sigma_profile": "yes", 
		 "theory": "DFT", 
		 "functional": "B3LYP", 
		 "basiset": "6-31G**", 
		 "properties": { 
			 "R2extent": 4206.2862, 
			 "electric_dipole_moment_norm": 4.73758558234, 
			 "electric_quadrupole_moment_norm": 21.5577003699, 
			 "total_energy": -1053.34684143, 
			 "HOMO_LUMO_gap": 0.20595, 
			 "cosmo_polarized_energy": -18.08, 
			 "cosmo_cavitation_energy": 31.04, 
			 "cosmo_dispersion_energy": -22.49, 
			 "cosmo_repulsion_energy": 1.71, 
			 "cosmo_total_nonelectrostatic_energy": 10.26, 
			 "SMD_solvation_energy": 4.4 
		},
		"coords": [
			{
				"x": 0.9834875186,
				"y": 1.434391663,
				"z": -3.5803613541,
				"element": "C" 
			},
			{
				"x": -0.2672129115,
				"y": 1.6996249832,
				"z": -2.7262583758,
				"element": "C" 
			},
			{
				"x": -0.7180759535,
				"y": 3.0697198688,
				"z": -2.9649698386,
				"element": "N" 
			},
			{
				"x": -0.0077759057,
				"y": 1.3201874477,
				"z": -1.2643799501,
				"element": "C" 
			},
			{
				"x": -0.22997303,
				"y": 0.0011390507,
				"z": -0.8461541233,
				"element": "C" 
			},
			{
				"x": 0.025951013,
				"y": -0.360279676,
				"z": 0.4676467337,
				"element": "C" 
			},
			{
				"x": -0.1882042782,
				"y": -1.6380069874,
				"z": 0.8434406767,
				"element": "F" 
			},
			{
				"x": 0.5152387109,
				"y": 0.5587502563,
				"z": 1.396792003,
				"element": "C" 
			},
			{
				"x": 0.7400722986,
				"y": 1.8732031956,
				"z": 0.9832618494,
				"element": "C" 
			},
			{
				"x": 0.4770826182,
				"y": 2.2479232996,
				"z": -0.3328747428,
				"element": "C" 
			},
			{
				"x": 0.7692332516,
				"y": 0.1334484006,
				"z": 3.1292757734,
				"element": "S" 
			},
			{
				"x": 1.9986352228,
				"y": -1.1864496893,
				"z": 3.070596488,
				"element": "C" 
			},
			{
				"x": -0.4748489397,
				"y": -0.429659431,
				"z": 3.6689597066,
				"element": "O" 
			},
			{
				"x": 1.3924014033,
				"y": 1.3080369102,
				"z": 3.7598545269,
				"element": "O" 
			},
			{
				"x": 0.7719970471,
				"y": 1.667699368,
				"z": -4.6272776645,
				"element": "H" 
			},
			{
				"x": 1.3024381681,
				"y": 0.3913356598,
				"z": -3.5041058326,
				"element": "H" 
			},
			{
				"x": 1.8173109165,
				"y": 2.062989919,
				"z": -3.2460180848,
				"element": "H" 
			},
			{
				"x": -1.0651083647,
				"y": 1.0376977526,
				"z": -3.088664945,
				"element": "H" 
			},
			{
				"x": 0.0302181369,
				"y": 3.7355675056,
				"z": -2.7892628212,
				"element": "H" 
			},
			{
				"x": -1.4885715636,
				"y": 3.3127930343,
				"z": -2.3477354132,
				"element": "H" 
			},
			{
				"x": -0.6103673243,
				"y": -0.7519221493,
				"z": -1.5300708723,
				"element": "H" 
			},
			{
				"x": 1.1153656686,
				"y": 2.5846234951,
				"z": 1.7113563123,
				"element": "H" 
			},
			{
				"x": 0.6406758984,
				"y": 3.2777341306,
				"z": -0.6340023205,
				"element": "H" 
			},
			{
				"x": 1.5983767662,
				"y": -2.0108909332,
				"z": 2.4808311581,
				"element": "H" 
			},
			{
				"x": 2.9216728032,
				"y": -0.7942124883,
				"z": 2.6415936252,
				"element": "H" 
			},
			{
				"x": 2.1594808291,
				"y": -1.4966445859,
				"z": 4.1050274853,
				"element": "H" 
			}
		],
		 "valence_orbital": [ 
			{
				"type": "occ",
				"energy": -0.29698,
				"method": "rhf"
			},
			{
				"type": "occ",
				"energy": -0.29171,
				"method": "rhf"
			},
			{
				"type": "occ",
				"energy": -0.27574,
				"method": "rhf"
			},
			{
				"type": "occ",
				"energy": -0.26905,
				"method": "rhf"
			},
			{
				"type": "occ",
				"energy": -0.24994,
				"method": "rhf"
			},
			{
				"type": "unocc",
				"energy": -0.04399,
				"method": "rhf"
			},
			{
				"type": "unocc",
				"energy": -0.02365,
				"method": "rhf"
			},
			{
				"type": "unocc",
				"energy": 0.04895,
				"method": "rhf"
			},
			{
				"type": "unocc",
				"energy": 0.06902,
				"method": "rhf"
			},
			{
				"type": "unocc",
				"energy": 0.07804,
				"method": "rhf"
			}
		],
		"cosmo_sigma_profile": { 
			"-0.025": 0.0,
			"-0.024": 0.0,
			"-0.023": 0.0,
			"-0.022": 0.0,
			"-0.021": 0.0,
			"-0.02": 0.0,
			"-0.019": 0.0,
			"-0.018": 0.0,
			"-0.017": 0.0,
			"-0.016": 0.0,
			"-0.015": 0.0,
			"-0.014": 0.0,
			"-0.013": 0.0,
			"-0.012": 0.0,
			"-0.011": 0.0742236689796,
			"-0.01": 2.32272027686,
			"-0.009": 6.24436053066,
			"-0.008": 8.39982182439,
			"-0.007": 12.470567028,
			"-0.006": 13.6738808416,
			"-0.005": 15.9799071329,
			"-0.004": 18.5076226641,
			"-0.003": 17.7681496147,
			"-0.002": 15.5681712798,
			"-0.001": 18.0349405589,
			"0.0": 19.3649644045,
			"0.001": 20.0389506616,
			"0.002": 12.7580333175,
			"0.003": 11.5040778459,
			"0.004": 5.43673914119,
			"0.005": 3.89709441759,
			"0.006": 3.36138623927,
			"0.007": 2.79016547345,
			"0.008": 3.46147034198,
			"0.009": 4.8098340329,
			"0.01": 6.01494846337,
			"0.011": 11.2539837884,
			"0.012": 7.70553670122,
			"0.013": 0.972086801698,
			"0.014": 0.216651354844,
			"0.015": 0.873403795759,
			"0.016": 0.73721673415,
			"0.017": 0.505210734015,
			"0.018": 0.484541039332,
			"0.019": 0.291767110582,
			"0.02": 0.0,
			"0.021": 0.0,
			"0.022": 0.0,
			"0.023": 0.0,
			"0.024": 0.0,
			"0.025": 0.0
		}
	}
}
