{
	 "smiles": "CS(=O)(=O)C1=CC=C(NC(=O)CCl)C=C1", 
	 "Tm": 433.15, 
	 "num_atms": 25, 
	 "gaussian": { 
		 "optdone": 1, 
		 "sigma_profile": "yes", 
		 "theory": "DFT", 
		 "functional": "B3LYP", 
		 "basiset": "6-31G**", 
		 "properties": { 
			 "R2extent": 6344.7457, 
			 "electric_dipole_moment_norm": 5.44236162525, 
			 "electric_quadrupole_moment_norm": 17.9654703017, 
			 "total_energy": -1487.74392716, 
			 "HOMO_LUMO_gap": 0.19956, 
			 "cosmo_polarized_energy": -21.09, 
			 "cosmo_cavitation_energy": 32.65, 
			 "cosmo_dispersion_energy": -24.36, 
			 "cosmo_repulsion_energy": 1.86, 
			 "cosmo_total_nonelectrostatic_energy": 10.15, 
			 "SMD_solvation_energy": 5.57 
		},
		"coords": [
			{
				"x": -0.3288001561,
				"y": 1.8725267276,
				"z": -3.9534737151,
				"element": "C" 
			},
			{
				"x": 0.6169013426,
				"y": 0.3785799779,
				"z": -3.568136178,
				"element": "S" 
			},
			{
				"x": 2.0193339929,
				"y": 0.6420739141,
				"z": -3.9281589332,
				"element": "O" 
			},
			{
				"x": -0.1166962487,
				"y": -0.76255253,
				"z": -4.1370278943,
				"element": "O" 
			},
			{
				"x": 0.5228473879,
				"y": 0.2621234045,
				"z": -1.7783948585,
				"element": "C" 
			},
			{
				"x": -0.542797476,
				"y": -0.4138852991,
				"z": -1.1823572669,
				"element": "C" 
			},
			{
				"x": -0.6268763265,
				"y": -0.5066141007,
				"z": 0.2046950018,
				"element": "C" 
			},
			{
				"x": 0.3748911719,
				"y": 0.080691656,
				"z": 0.995857893,
				"element": "C" 
			},
			{
				"x": 0.369573133,
				"y": 0.0320077502,
				"z": 2.4026336484,
				"element": "N" 
			},
			{
				"x": -0.5605149088,
				"y": -0.532165552,
				"z": 3.2275225726,
				"element": "C" 
			},
			{
				"x": -1.5801703949,
				"y": -1.1079530252,
				"z": 2.8789905392,
				"element": "O" 
			},
			{
				"x": -0.3012840243,
				"y": -0.4393819487,
				"z": 4.7358173726,
				"element": "C" 
			},
			{
				"x": 1.1900136328,
				"y": 0.4473096067,
				"z": 5.2680141512,
				"element": "Cl" 
			},
			{
				"x": 1.4514727187,
				"y": 0.746553846,
				"z": 0.3844606325,
				"element": "C" 
			},
			{
				"x": 1.5290237592,
				"y": 0.8375615925,
				"z": -0.9994648779,
				"element": "C" 
			},
			{
				"x": -1.3576323371,
				"y": 1.7445617304,
				"z": -3.6143361732,
				"element": "H" 
			},
			{
				"x": 0.1419098987,
				"y": 2.7306194455,
				"z": -3.4717866112,
				"element": "H" 
			},
			{
				"x": -0.2974446924,
				"y": 1.981590124,
				"z": -5.0395772093,
				"element": "H" 
			},
			{
				"x": -1.2953400151,
				"y": -0.8858153386,
				"z": -1.8054915462,
				"element": "H" 
			},
			{
				"x": -1.4447850219,
				"y": -1.0291119118,
				"z": 0.6797143218,
				"element": "H" 
			},
			{
				"x": 1.1551653005,
				"y": 0.4725683127,
				"z": 2.8652093444,
				"element": "H" 
			},
			{
				"x": -0.2311987125,
				"y": -1.4533234879,
				"z": 5.1307179647,
				"element": "H" 
			},
			{
				"x": -1.1549360449,
				"y": 0.0592420884,
				"z": 5.1951438182,
				"element": "H" 
			},
			{
				"x": 2.2333098355,
				"y": 1.186500483,
				"z": 0.9984374605,
				"element": "H" 
			},
			{
				"x": 2.3685341854,
				"y": 1.3296925344,
				"z": -1.4786094573,
				"element": "H" 
			}
		],
		 "valence_orbital": [ 
			{
				"type": "occ",
				"energy": -0.29433,
				"method": "rhf"
			},
			{
				"type": "occ",
				"energy": -0.28846,
				"method": "rhf"
			},
			{
				"type": "occ",
				"energy": -0.28048,
				"method": "rhf"
			},
			{
				"type": "occ",
				"energy": -0.27854,
				"method": "rhf"
			},
			{
				"type": "occ",
				"energy": -0.25158,
				"method": "rhf"
			},
			{
				"type": "unocc",
				"energy": -0.05202,
				"method": "rhf"
			},
			{
				"type": "unocc",
				"energy": -0.02846,
				"method": "rhf"
			},
			{
				"type": "unocc",
				"energy": -0.00358,
				"method": "rhf"
			},
			{
				"type": "unocc",
				"energy": 0.00876,
				"method": "rhf"
			},
			{
				"type": "unocc",
				"energy": 0.06139,
				"method": "rhf"
			}
		],
		"cosmo_sigma_profile": { 
			"-0.025": 0.0,
			"-0.024": 0.0,
			"-0.023": 0.0,
			"-0.022": 0.0,
			"-0.021": 0.0,
			"-0.02": 0.0,
			"-0.019": 0.0,
			"-0.018": 0.0,
			"-0.017": 0.0,
			"-0.016": 0.0,
			"-0.015": 0.0272165990621,
			"-0.014": 0.697995553921,
			"-0.013": 1.00321560071,
			"-0.012": 1.04432890362,
			"-0.011": 1.70021146612,
			"-0.01": 1.42696778116,
			"-0.009": 7.63560122322,
			"-0.008": 12.9877937232,
			"-0.007": 13.9392193054,
			"-0.006": 19.1482278308,
			"-0.005": 16.3996021839,
			"-0.004": 15.4945342656,
			"-0.003": 12.9718452498,
			"-0.002": 12.7573101256,
			"-0.001": 13.3866232832,
			"0.0": 13.1311576951,
			"0.001": 16.7440078757,
			"0.002": 21.9634365859,
			"0.003": 13.3361079336,
			"0.004": 9.28455454488,
			"0.005": 9.90098271783,
			"0.006": 3.63394482499,
			"0.007": 4.06361457077,
			"0.008": 4.84639961819,
			"0.009": 4.34208829055,
			"0.01": 5.60615344765,
			"0.011": 11.9957351179,
			"0.012": 11.6996670086,
			"0.013": 2.09787909009,
			"0.014": 0.0,
			"0.015": 0.0,
			"0.016": 0.0,
			"0.017": 0.0,
			"0.018": 0.0,
			"0.019": 0.0,
			"0.02": 0.0,
			"0.021": 0.0,
			"0.022": 0.0,
			"0.023": 0.0,
			"0.024": 0.0,
			"0.025": 0.0
		}
	}
}
