{
	 "smiles": "ClC1=NC(=CN=C1)N1C=CC=N1", 
	 "Tm": 344.15, 
	 "num_atms": 17, 
	 "gaussian": { 
		 "optdone": 1, 
		 "sigma_profile": "yes", 
		 "theory": "DFT", 
		 "functional": "B3LYP", 
		 "basiset": "6-31G**", 
		 "properties": { 
			 "R2extent": 3690.8776, 
			 "electric_dipole_moment_norm": 3.30400175696, 
			 "electric_quadrupole_moment_norm": 7.55699808323, 
			 "total_energy": -948.908736827, 
			 "HOMO_LUMO_gap": 0.18188, 
			 "cosmo_polarized_energy": -12.87, 
			 "cosmo_cavitation_energy": 24.1, 
			 "cosmo_dispersion_energy": -18.24, 
			 "cosmo_repulsion_energy": 1.43, 
			 "cosmo_total_nonelectrostatic_energy": 7.3, 
			 "SMD_solvation_energy": 1.13 
		},
		"coords": [
			{
				"x": 0.4892879943,
				"y": -4.0100558504,
				"z": -3.1354020094,
				"element": "Cl" 
			},
			{
				"x": -0.4504812554,
				"y": -2.8500779472,
				"z": -2.2158551544,
				"element": "C" 
			},
			{
				"x": 0.1439374917,
				"y": -2.2501617878,
				"z": -1.2048616678,
				"element": "N" 
			},
			{
				"x": -0.5850130866,
				"y": -1.3713347633,
				"z": -0.51664774,
				"element": "C" 
			},
			{
				"x": -1.9226966879,
				"y": -1.1054630943,
				"z": -0.8621898641,
				"element": "C" 
			},
			{
				"x": -2.5037355854,
				"y": -1.7240292283,
				"z": -1.8887288276,
				"element": "N" 
			},
			{
				"x": -1.7790472576,
				"y": -2.6044802483,
				"z": -2.5809022854,
				"element": "C" 
			},
			{
				"x": 0.0389186985,
				"y": -0.7228845488,
				"z": 0.5669755777,
				"element": "N" 
			},
			{
				"x": -0.5087072389,
				"y": 0.2143190235,
				"z": 1.4149281009,
				"element": "C" 
			},
			{
				"x": 0.4712065789,
				"y": 0.5575809726,
				"z": 2.3107177013,
				"element": "C" 
			},
			{
				"x": 1.5924279965,
				"y": -0.2269603628,
				"z": 1.9294042219,
				"element": "C" 
			},
			{
				"x": 1.3363271106,
				"y": -0.9958762873,
				"z": 0.8839727871,
				"element": "N" 
			},
			{
				"x": -2.5319897508,
				"y": -0.3939507378,
				"z": -0.3146262203,
				"element": "H" 
			},
			{
				"x": -2.2443599402,
				"y": -3.1132417667,
				"z": -3.4189318921,
				"element": "H" 
			},
			{
				"x": -1.5264700192,
				"y": 0.5570650925,
				"z": 1.3197928625,
				"element": "H" 
			},
			{
				"x": 0.3942209597,
				"y": 1.26741427,
				"z": 3.1204609267,
				"element": "H" 
			},
			{
				"x": 2.5752739921,
				"y": -0.2568627357,
				"z": 2.380893483,
				"element": "H" 
			}
		],
		 "valence_orbital": [ 
			{
				"type": "occ",
				"energy": -0.29696,
				"method": "rhf"
			},
			{
				"type": "occ",
				"energy": -0.296,
				"method": "rhf"
			},
			{
				"type": "occ",
				"energy": -0.27439,
				"method": "rhf"
			},
			{
				"type": "occ",
				"energy": -0.26556,
				"method": "rhf"
			},
			{
				"type": "occ",
				"energy": -0.25027,
				"method": "rhf"
			},
			{
				"type": "unocc",
				"energy": -0.06839,
				"method": "rhf"
			},
			{
				"type": "unocc",
				"energy": -0.0522,
				"method": "rhf"
			},
			{
				"type": "unocc",
				"energy": 0.01708,
				"method": "rhf"
			},
			{
				"type": "unocc",
				"energy": 0.02688,
				"method": "rhf"
			},
			{
				"type": "unocc",
				"energy": 0.05762,
				"method": "rhf"
			}
		],
		"cosmo_sigma_profile": { 
			"-0.025": 0.0,
			"-0.024": 0.0,
			"-0.023": 0.0,
			"-0.022": 0.0,
			"-0.021": 0.0,
			"-0.02": 0.0,
			"-0.019": 0.0,
			"-0.018": 0.0,
			"-0.017": 0.0,
			"-0.016": 0.0,
			"-0.015": 0.0,
			"-0.014": 0.0,
			"-0.013": 0.298506134938,
			"-0.012": 1.60747230579,
			"-0.011": 2.27473123153,
			"-0.01": 2.11788886653,
			"-0.009": 3.2544873049,
			"-0.008": 6.58717096475,
			"-0.007": 7.38157933734,
			"-0.006": 7.52164196043,
			"-0.005": 10.8411876684,
			"-0.004": 13.2291811135,
			"-0.003": 15.0821975735,
			"-0.002": 15.6323787317,
			"-0.001": 12.0316007586,
			"0.0": 11.6959579425,
			"0.001": 12.8224016602,
			"0.002": 14.4178341693,
			"0.003": 17.6640903725,
			"0.004": 12.3898031003,
			"0.005": 4.94570491143,
			"0.006": 3.76744056235,
			"0.007": 3.23377388492,
			"0.008": 3.40946765785,
			"0.009": 1.66352617911,
			"0.01": 2.24339161127,
			"0.011": 2.58864601009,
			"0.012": 2.78210278387,
			"0.013": 1.44285179007,
			"0.014": 1.60745580962,
			"0.015": 0.969225571158,
			"0.016": 1.23860302794,
			"0.017": 0.715804592723,
			"0.018": 0.734350638122,
			"0.019": 0.00360914874467,
			"0.02": 0.0,
			"0.021": 0.0,
			"0.022": 0.0,
			"0.023": 0.0,
			"0.024": 0.0,
			"0.025": 0.0
		}
	}
}
