{
	 "smiles": "CCOC(=O)COC(=O)C1=C(C=CC(OC2=CC=C(C=C2Cl)C(F)(F)F)=C1)N(=O)=O", 
	 "Tm": 338.15, 
	 "num_atms": 43, 
	 "gaussian": { 
		 "optdone": 1, 
		 "sigma_profile": "yes", 
		 "theory": "DFT", 
		 "functional": "B3LYP", 
		 "basiset": "6-31G**", 
		 "properties": { 
			 "R2extent": 16404.5143, 
			 "electric_dipole_moment_norm": 5.66327451657, 
			 "electric_quadrupole_moment_norm": 17.9757895729, 
			 "total_energy": -2034.68541326, 
			 "HOMO_LUMO_gap": 0.17279, 
			 "cosmo_polarized_energy": -19.18, 
			 "cosmo_cavitation_energy": 54.42, 
			 "cosmo_dispersion_energy": -34.48, 
			 "cosmo_repulsion_energy": 2.61, 
			 "cosmo_total_nonelectrostatic_energy": 22.55, 
			 "SMD_solvation_energy": 14.27 
		},
		"coords": [
			{
				"x": 3.1220583587,
				"y": -0.9066799811,
				"z": -3.0953309783,
				"element": "C" 
			},
			{
				"x": 2.6846699306,
				"y": 0.1215556633,
				"z": -2.0640700583,
				"element": "C" 
			},
			{
				"x": 2.7417086219,
				"y": -0.4247676749,
				"z": -0.7198471063,
				"element": "O" 
			},
			{
				"x": 3.9288601282,
				"y": -0.3442514696,
				"z": -0.0994205667,
				"element": "C" 
			},
			{
				"x": 4.9433171661,
				"y": 0.1118698043,
				"z": -0.5783350757,
				"element": "O" 
			},
			{
				"x": 3.9109814049,
				"y": -0.9366419168,
				"z": 1.3043220187,
				"element": "C" 
			},
			{
				"x": 2.6154658543,
				"y": -1.2883921624,
				"z": 1.798066546,
				"element": "O" 
			},
			{
				"x": 1.8612569402,
				"y": -0.2528064593,
				"z": 2.2184857203,
				"element": "C" 
			},
			{
				"x": 2.1602129509,
				"y": 0.9121085346,
				"z": 2.0977699555,
				"element": "O" 
			},
			{
				"x": 0.5339004227,
				"y": -0.7237350027,
				"z": 2.748160387,
				"element": "C" 
			},
			{
				"x": 0.3695655536,
				"y": -1.6172866857,
				"z": 3.81388173,
				"element": "C" 
			},
			{
				"x": -0.8988353907,
				"y": -2.0524347946,
				"z": 4.2029017427,
				"element": "C" 
			},
			{
				"x": -2.0227898972,
				"y": -1.5838246527,
				"z": 3.54069779,
				"element": "C" 
			},
			{
				"x": -1.8710422576,
				"y": -0.6716989576,
				"z": 2.4894554152,
				"element": "C" 
			},
			{
				"x": -3.0344867576,
				"y": -0.2576177704,
				"z": 1.8923093223,
				"element": "O" 
			},
			{
				"x": -3.0033536311,
				"y": 0.6501636008,
				"z": 0.8533398722,
				"element": "C" 
			},
			{
				"x": -2.939658686,
				"y": 0.184982575,
				"z": -0.4610002966,
				"element": "C" 
			},
			{
				"x": -2.9926177401,
				"y": 1.0814710857,
				"z": -1.5237117194,
				"element": "C" 
			},
			{
				"x": -3.111166077,
				"y": 2.4505068658,
				"z": -1.2687732946,
				"element": "C" 
			},
			{
				"x": -3.1793155259,
				"y": 2.92388417,
				"z": 0.0416240662,
				"element": "C" 
			},
			{
				"x": -3.1247871396,
				"y": 2.0235271084,
				"z": 1.1048498645,
				"element": "C" 
			},
			{
				"x": -3.2149788608,
				"y": 2.6094664619,
				"z": 2.7439333851,
				"element": "Cl" 
			},
			{
				"x": -3.2253117012,
				"y": 3.4158409959,
				"z": -2.4210262654,
				"element": "C" 
			},
			{
				"x": -4.4961299396,
				"y": 3.4945674799,
				"z": -2.8732709817,
				"element": "F" 
			},
			{
				"x": -2.8474554918,
				"y": 4.6624510114,
				"z": -2.0716781995,
				"element": "F" 
			},
			{
				"x": -2.4591119733,
				"y": 3.0293184308,
				"z": -3.4642424113,
				"element": "F" 
			},
			{
				"x": -0.6016240591,
				"y": -0.2414305717,
				"z": 2.0949404941,
				"element": "C" 
			},
			{
				"x": 1.5169181374,
				"y": -2.0658443737,
				"z": 4.6077376884,
				"element": "N" 
			},
			{
				"x": 1.3770585481,
				"y": -3.0838229499,
				"z": 5.2848748528,
				"element": "O" 
			},
			{
				"x": 2.5393309568,
				"y": -1.3805759449,
				"z": 4.5719695425,
				"element": "O" 
			},
			{
				"x": 2.9947437596,
				"y": -0.4967242091,
				"z": -4.1027126657,
				"element": "H" 
			},
			{
				"x": 2.5228786823,
				"y": -1.8186681862,
				"z": -3.0172019966,
				"element": "H" 
			},
			{
				"x": 4.1759861778,
				"y": -1.161337627,
				"z": -2.9608071028,
				"element": "H" 
			},
			{
				"x": 3.3105882926,
				"y": 1.0156939019,
				"z": -2.1042932512,
				"element": "H" 
			},
			{
				"x": 1.6377012437,
				"y": 0.4043562714,
				"z": -2.1947142519,
				"element": "H" 
			},
			{
				"x": 4.4002248467,
				"y": -0.2239904098,
				"z": 1.9714345845,
				"element": "H" 
			},
			{
				"x": 4.4824354949,
				"y": -1.8673952498,
				"z": 1.2929036783,
				"element": "H" 
			},
			{
				"x": -0.981317006,
				"y": -2.7438110855,
				"z": 5.0322336259,
				"element": "H" 
			},
			{
				"x": -3.0198884527,
				"y": -1.896738821,
				"z": 3.8290042598,
				"element": "H" 
			},
			{
				"x": -2.8556201093,
				"y": -0.8832805532,
				"z": -0.6299119907,
				"element": "H" 
			},
			{
				"x": -2.9379772052,
				"y": 0.7217787712,
				"z": -2.5450070973,
				"element": "H" 
			},
			{
				"x": -3.2672957691,
				"y": 3.9849968447,
				"z": 0.2406666938,
				"element": "H" 
			},
			{
				"x": -0.4788998014,
				"y": 0.4594179328,
				"z": 1.2783920744,
				"element": "H" 
			}
		],
		 "valence_orbital": [ 
			{
				"type": "occ",
				"energy": -0.29481,
				"method": "rhf"
			},
			{
				"type": "occ",
				"energy": -0.28332,
				"method": "rhf"
			},
			{
				"type": "occ",
				"energy": -0.2781,
				"method": "rhf"
			},
			{
				"type": "occ",
				"energy": -0.27713,
				"method": "rhf"
			},
			{
				"type": "occ",
				"energy": -0.26774,
				"method": "rhf"
			},
			{
				"type": "unocc",
				"energy": -0.09495,
				"method": "rhf"
			},
			{
				"type": "unocc",
				"energy": -0.05621,
				"method": "rhf"
			},
			{
				"type": "unocc",
				"energy": -0.0547,
				"method": "rhf"
			},
			{
				"type": "unocc",
				"energy": -0.04601,
				"method": "rhf"
			},
			{
				"type": "unocc",
				"energy": -0.01447,
				"method": "rhf"
			}
		],
		"cosmo_sigma_profile": { 
			"-0.025": 0.0,
			"-0.024": 0.0,
			"-0.023": 0.0,
			"-0.022": 0.0,
			"-0.021": 0.0,
			"-0.02": 0.0,
			"-0.019": 0.0,
			"-0.018": 0.0,
			"-0.017": 0.0,
			"-0.016": 0.0,
			"-0.015": 0.0,
			"-0.014": 0.0,
			"-0.013": 0.0,
			"-0.012": 0.0,
			"-0.011": 0.0,
			"-0.01": 1.00524113308,
			"-0.009": 5.90972717813,
			"-0.008": 12.3784657827,
			"-0.007": 16.2282733763,
			"-0.006": 16.857206808,
			"-0.005": 21.5416068874,
			"-0.004": 26.3042534615,
			"-0.003": 29.1485986816,
			"-0.002": 32.0814448656,
			"-0.001": 43.005965222,
			"0.0": 47.1349964718,
			"0.001": 31.780306387,
			"0.002": 36.9892431671,
			"0.003": 38.3563597517,
			"0.004": 15.0324933622,
			"0.005": 10.2882385684,
			"0.006": 10.3267708072,
			"0.007": 12.3475870936,
			"0.008": 8.2509242339,
			"0.009": 7.51814433014,
			"0.01": 7.09330161479,
			"0.011": 5.93540176801,
			"0.012": 2.72673795886,
			"0.013": 0.0460031710481,
			"0.014": 0.0,
			"0.015": 0.0,
			"0.016": 0.0,
			"0.017": 0.0,
			"0.018": 0.0,
			"0.019": 0.0,
			"0.02": 0.0,
			"0.021": 0.0,
			"0.022": 0.0,
			"0.023": 0.0,
			"0.024": 0.0,
			"0.025": 0.0
		}
	}
}
