{
	 "smiles": "CC1=CC=C(C#N)C(Cl)=N1", 
	 "Tm": 388.65, 
	 "num_atms": 15, 
	 "gaussian": { 
		 "optdone": 1, 
		 "sigma_profile": "yes", 
		 "theory": "DFT", 
		 "functional": "B3LYP", 
		 "basiset": "6-31G**", 
		 "properties": { 
			 "R2extent": 2413.9055, 
			 "electric_dipole_moment_norm": 5.53517810463, 
			 "electric_quadrupole_moment_norm": 8.87036013418, 
			 "total_energy": -839.436904256, 
			 "HOMO_LUMO_gap": 0.19856, 
			 "cosmo_polarized_energy": -10.77, 
			 "cosmo_cavitation_energy": 22.44, 
			 "cosmo_dispersion_energy": -16.13, 
			 "cosmo_repulsion_energy": 1.32, 
			 "cosmo_total_nonelectrostatic_energy": 7.63, 
			 "SMD_solvation_energy": 3.78 
		},
		"coords": [
			{
				"x": 0.0413744217,
				"y": 2.8882942106,
				"z": 1.2743943413,
				"element": "C" 
			},
			{
				"x": -0.0739037633,
				"y": 1.743539157,
				"z": 0.3033626832,
				"element": "C" 
			},
			{
				"x": 0.5038831632,
				"y": 0.4928833091,
				"z": 0.5689406171,
				"element": "C" 
			},
			{
				"x": 0.3664516281,
				"y": -0.5262726284,
				"z": -0.3612544788,
				"element": "C" 
			},
			{
				"x": -0.3462768058,
				"y": -0.2894237231,
				"z": -1.5487670297,
				"element": "C" 
			},
			{
				"x": -0.500095275,
				"y": -1.3253493421,
				"z": -2.52087851,
				"element": "C" 
			},
			{
				"x": -0.6024579615,
				"y": -2.1948554591,
				"z": -3.28643481,
				"element": "N" 
			},
			{
				"x": -0.8849790072,
				"y": 1.0021262727,
				"z": -1.7136899282,
				"element": "C" 
			},
			{
				"x": -1.7870612875,
				"y": 1.378098612,
				"z": -3.1663424756,
				"element": "Cl" 
			},
			{
				"x": -0.7564147775,
				"y": 1.9734729644,
				"z": -0.8317299146,
				"element": "N" 
			},
			{
				"x": -0.4746324516,
				"y": 3.7634942445,
				"z": 0.8785904947,
				"element": "H" 
			},
			{
				"x": -0.3973597976,
				"y": 2.6249753773,
				"z": 2.2432891806,
				"element": "H" 
			},
			{
				"x": 1.0914145262,
				"y": 3.1453758192,
				"z": 1.4530308483,
				"element": "H" 
			},
			{
				"x": 1.0508068377,
				"y": 0.3282399042,
				"z": 1.4914639342,
				"element": "H" 
			},
			{
				"x": 0.7998505504,
				"y": -1.5059987183,
				"z": -0.1894749525,
				"element": "H" 
			}
		],
		 "valence_orbital": [ 
			{
				"type": "occ",
				"energy": -0.34734,
				"method": "rhf"
			},
			{
				"type": "occ",
				"energy": -0.32583,
				"method": "rhf"
			},
			{
				"type": "occ",
				"energy": -0.30821,
				"method": "rhf"
			},
			{
				"type": "occ",
				"energy": -0.29172,
				"method": "rhf"
			},
			{
				"type": "occ",
				"energy": -0.2705,
				"method": "rhf"
			},
			{
				"type": "unocc",
				"energy": -0.07194,
				"method": "rhf"
			},
			{
				"type": "unocc",
				"energy": -0.05169,
				"method": "rhf"
			},
			{
				"type": "unocc",
				"energy": 0.01369,
				"method": "rhf"
			},
			{
				"type": "unocc",
				"energy": 0.03167,
				"method": "rhf"
			},
			{
				"type": "unocc",
				"energy": 0.05303,
				"method": "rhf"
			}
		],
		"cosmo_sigma_profile": { 
			"-0.025": 0.0,
			"-0.024": 0.0,
			"-0.023": 0.0,
			"-0.022": 0.0,
			"-0.021": 0.0,
			"-0.02": 0.0,
			"-0.019": 0.0,
			"-0.018": 0.0,
			"-0.017": 0.0,
			"-0.016": 0.0,
			"-0.015": 0.0,
			"-0.014": 0.0,
			"-0.013": 0.0,
			"-0.012": 0.0,
			"-0.011": 0.0,
			"-0.01": 1.04811598082,
			"-0.009": 2.7938766973,
			"-0.008": 5.29563883088,
			"-0.007": 4.28860842814,
			"-0.006": 8.6664169463,
			"-0.005": 9.97736547846,
			"-0.004": 12.0460769553,
			"-0.003": 18.9197542566,
			"-0.002": 20.1310959309,
			"-0.001": 17.9947344288,
			"0.0": 12.586727374,
			"0.001": 7.24711945202,
			"0.002": 8.11220901163,
			"0.003": 13.1138372103,
			"0.004": 7.49370877307,
			"0.005": 5.30449579171,
			"0.006": 4.87668850741,
			"0.007": 4.40270647087,
			"0.008": 4.11945830019,
			"0.009": 4.79478468779,
			"0.01": 3.7402506691,
			"0.011": 3.28830238694,
			"0.012": 2.77399427032,
			"0.013": 0.681448920243,
			"0.014": 0.0,
			"0.015": 0.0,
			"0.016": 0.0,
			"0.017": 0.0,
			"0.018": 0.0,
			"0.019": 0.0,
			"0.02": 0.0,
			"0.021": 0.0,
			"0.022": 0.0,
			"0.023": 0.0,
			"0.024": 0.0,
			"0.025": 0.0
		}
	}
}
