{
	 "smiles": "CC(C)C(C)CCC(C)C1CCC2C3CC=C4CC(O)CCC4(C)C3CCC12C", 
	 "Tm": 431.15, 
	 "num_atms": 77, 
	 "gaussian": { 
		 "optdone": 1, 
		 "sigma_profile": "yes", 
		 "theory": "DFT", 
		 "functional": "B3LYP", 
		 "basiset": "6-31G**", 
		 "properties": { 
			 "R2extent": 16412.5365, 
			 "electric_dipole_moment_norm": 1.63100033722, 
			 "electric_quadrupole_moment_norm": 13.6293998984, 
			 "total_energy": -1171.13700383, 
			 "HOMO_LUMO_gap": 0.25232, 
			 "cosmo_polarized_energy": -7.83, 
			 "cosmo_cavitation_energy": 63.59, 
			 "cosmo_dispersion_energy": -41.88, 
			 "cosmo_repulsion_energy": 3.1, 
			 "cosmo_total_nonelectrostatic_energy": 24.81, 
			 "SMD_solvation_energy": 8.76 
		},
		"coords": [
			{
				"x": -2.1952840225,
				"y": 0.5005762124,
				"z": 5.2427054937,
				"element": "C" 
			},
			{
				"x": -3.023575036,
				"y": 0.7375123347,
				"z": 3.9689692832,
				"element": "C" 
			},
			{
				"x": -4.0795410717,
				"y": 1.8272563332,
				"z": 4.2239699349,
				"element": "C" 
			},
			{
				"x": -2.2024399768,
				"y": 1.0283629541,
				"z": 2.6772809559,
				"element": "C" 
			},
			{
				"x": -1.3984505082,
				"y": 2.3389369652,
				"z": 2.7278022066,
				"element": "C" 
			},
			{
				"x": -1.3426644138,
				"y": -0.1734946862,
				"z": 2.1913511703,
				"element": "C" 
			},
			{
				"x": 0.0913118311,
				"y": -0.2947658472,
				"z": 2.7364032486,
				"element": "C" 
			},
			{
				"x": 0.8123730521,
				"y": -1.6168621512,
				"z": 2.3778559408,
				"element": "C" 
			},
			{
				"x": 2.0352730529,
				"y": -1.7900280068,
				"z": 3.3028157382,
				"element": "C" 
			},
			{
				"x": 1.048795348,
				"y": -1.8767574316,
				"z": 0.8554008912,
				"element": "C" 
			},
			{
				"x": 1.6099428472,
				"y": -3.2860661131,
				"z": 0.5764757756,
				"element": "C" 
			},
			{
				"x": 1.8314199822,
				"y": -3.3037333001,
				"z": -0.9379468617,
				"element": "C" 
			},
			{
				"x": 2.3079977991,
				"y": -1.8697226169,
				"z": -1.2942379682,
				"element": "C" 
			},
			{
				"x": 1.7802732543,
				"y": -1.3357145189,
				"z": -2.6488922914,
				"element": "C" 
			},
			{
				"x": 2.1351017337,
				"y": -2.2565983445,
				"z": -3.8279728068,
				"element": "C" 
			},
			{
				"x": 1.6343904081,
				"y": -1.6404190335,
				"z": -5.1049542017,
				"element": "C" 
			},
			{
				"x": 0.4721303551,
				"y": -0.9808610225,
				"z": -5.1592232348,
				"element": "C" 
			},
			{
				"x": -0.0107541538,
				"y": -0.2999122065,
				"z": -6.4165075281,
				"element": "C" 
			},
			{
				"x": -0.2645184566,
				"y": 1.2109644657,
				"z": -6.214715998,
				"element": "C" 
			},
			{
				"x": 0.9114941015,
				"y": 1.9017896006,
				"z": -6.6357334059,
				"element": "O" 
			},
			{
				"x": -0.6082179831,
				"y": 1.5127267755,
				"z": -4.7435426017,
				"element": "C" 
			},
			{
				"x": -1.3812065715,
				"y": 0.3436972566,
				"z": -4.1164001526,
				"element": "C" 
			},
			{
				"x": -0.4911156949,
				"y": -0.9297410573,
				"z": -3.9633989135,
				"element": "C" 
			},
			{
				"x": -1.4244644887,
				"y": -2.1657497371,
				"z": -4.0699588301,
				"element": "C" 
			},
			{
				"x": 0.2672802373,
				"y": -1.0342799408,
				"z": -2.5594347605,
				"element": "C" 
			},
			{
				"x": 0.0559430339,
				"y": 0.1421382742,
				"z": -1.5663034232,
				"element": "C" 
			},
			{
				"x": 1.2144240005,
				"y": 0.3306996544,
				"z": -0.5597201815,
				"element": "C" 
			},
			{
				"x": 1.9326468549,
				"y": -0.9442603025,
				"z": -0.0575081015,
				"element": "C" 
			},
			{
				"x": 3.2375261222,
				"y": -0.4932536115,
				"z": 0.6300112749,
				"element": "C" 
			},
			{
				"x": -2.8579448649,
				"y": 0.3400092936,
				"z": 6.1006228006,
				"element": "H" 
			},
			{
				"x": -1.5532132886,
				"y": -0.380418109,
				"z": 5.1604375453,
				"element": "H" 
			},
			{
				"x": -1.559869115,
				"y": 1.3609498966,
				"z": 5.4811567248,
				"element": "H" 
			},
			{
				"x": -3.5720840381,
				"y": -0.194222818,
				"z": 3.7644425119,
				"element": "H" 
			},
			{
				"x": -3.6212912178,
				"y": 2.7731140663,
				"z": 4.5335684221,
				"element": "H" 
			},
			{
				"x": -4.6791116189,
				"y": 2.0243966819,
				"z": 3.3279780423,
				"element": "H" 
			},
			{
				"x": -4.7642987126,
				"y": 1.5227502041,
				"z": 5.0229447942,
				"element": "H" 
			},
			{
				"x": -2.9674885335,
				"y": 1.1670488389,
				"z": 1.8990176245,
				"element": "H" 
			},
			{
				"x": -2.047140267,
				"y": 3.2004447683,
				"z": 2.9116369093,
				"element": "H" 
			},
			{
				"x": -0.632588784,
				"y": 2.3278499257,
				"z": 3.5096191942,
				"element": "H" 
			},
			{
				"x": -0.8882341137,
				"y": 2.5150932212,
				"z": 1.7741165501,
				"element": "H" 
			},
			{
				"x": -1.2926432416,
				"y": -0.1184769862,
				"z": 1.0981170617,
				"element": "H" 
			},
			{
				"x": -1.8870579927,
				"y": -1.102428023,
				"z": 2.4147550618,
				"element": "H" 
			},
			{
				"x": 0.0732227031,
				"y": -0.2254006526,
				"z": 3.829559402,
				"element": "H" 
			},
			{
				"x": 0.6958276925,
				"y": 0.5567664946,
				"z": 2.4028428583,
				"element": "H" 
			},
			{
				"x": 0.1159911169,
				"y": -2.4222886923,
				"z": 2.6619629272,
				"element": "H" 
			},
			{
				"x": 1.6961547049,
				"y": -1.8751217558,
				"z": 4.3412746845,
				"element": "H" 
			},
			{
				"x": 2.609515247,
				"y": -2.6925600915,
				"z": 3.0770208714,
				"element": "H" 
			},
			{
				"x": 2.7192819405,
				"y": -0.9390018772,
				"z": 3.2571318911,
				"element": "H" 
			},
			{
				"x": 0.0455868561,
				"y": -1.8639797598,
				"z": 0.4048287396,
				"element": "H" 
			},
			{
				"x": 2.5654164506,
				"y": -3.4294588881,
				"z": 1.0944246937,
				"element": "H" 
			},
			{
				"x": 0.9377233371,
				"y": -4.0794852967,
				"z": 0.9229154864,
				"element": "H" 
			},
			{
				"x": 0.8856276032,
				"y": -3.5393344813,
				"z": -1.4395250212,
				"element": "H" 
			},
			{
				"x": 2.5496128003,
				"y": -4.066630193,
				"z": -1.2551285126,
				"element": "H" 
			},
			{
				"x": 3.4025259717,
				"y": -1.8897853757,
				"z": -1.3739662543,
				"element": "H" 
			},
			{
				"x": 2.2976068739,
				"y": -0.388380902,
				"z": -2.8565841195,
				"element": "H" 
			},
			{
				"x": 3.222007545,
				"y": -2.3993162205,
				"z": -3.8713141236,
				"element": "H" 
			},
			{
				"x": 1.7061432035,
				"y": -3.2584998852,
				"z": -3.678119388,
				"element": "H" 
			},
			{
				"x": 2.2610791608,
				"y": -1.697824473,
				"z": -5.9932333281,
				"element": "H" 
			},
			{
				"x": 0.7075899556,
				"y": -0.4217532324,
				"z": -7.232110014,
				"element": "H" 
			},
			{
				"x": -0.9518119172,
				"y": -0.7613359961,
				"z": -6.7470904095,
				"element": "H" 
			},
			{
				"x": -1.1142387508,
				"y": 1.507070078,
				"z": -6.852503642,
				"element": "H" 
			},
			{
				"x": 0.78285436,
				"y": 2.8411960465,
				"z": -6.4493758984,
				"element": "H" 
			},
			{
				"x": 0.3418198953,
				"y": 1.6583709013,
				"z": -4.2154571979,
				"element": "H" 
			},
			{
				"x": -1.1725092069,
				"y": 2.4506377793,
				"z": -4.6641978991,
				"element": "H" 
			},
			{
				"x": -1.8234091042,
				"y": 0.6270241781,
				"z": -3.1584102254,
				"element": "H" 
			},
			{
				"x": -2.2320145037,
				"y": 0.1032834678,
				"z": -4.7676162185,
				"element": "H" 
			},
			{
				"x": -2.1988659797,
				"y": -2.1321115818,
				"z": -3.2932770503,
				"element": "H" 
			},
			{
				"x": -1.9285414447,
				"y": -2.2041130776,
				"z": -5.0417793899,
				"element": "H" 
			},
			{
				"x": -0.8638949358,
				"y": -3.0976330332,
				"z": -3.9483363406,
				"element": "H" 
			},
			{
				"x": -0.1801432432,
				"y": -1.9105528138,
				"z": -2.0772838922,
				"element": "H" 
			},
			{
				"x": -0.8924549008,
				"y": -0.001957412,
				"z": -1.0356415655,
				"element": "H" 
			},
			{
				"x": -0.0455670239,
				"y": 1.0916400478,
				"z": -2.0986486286,
				"element": "H" 
			},
			{
				"x": 1.9781489278,
				"y": 0.9544994779,
				"z": -1.0413576506,
				"element": "H" 
			},
			{
				"x": 0.8572641325,
				"y": 0.9231307368,
				"z": 0.2889908547,
				"element": "H" 
			},
			{
				"x": 3.050094818,
				"y": 0.2269620367,
				"z": 1.432786873,
				"element": "H" 
			},
			{
				"x": 3.7952032846,
				"y": -1.3343608485,
				"z": 1.0528381971,
				"element": "H" 
			},
			{
				"x": 3.8914265821,
				"y": -0.0022465635,
				"z": -0.1002246045,
				"element": "H" 
			}
		],
		 "valence_orbital": [ 
			{
				"type": "occ",
				"energy": -0.27833,
				"method": "rhf"
			},
			{
				"type": "occ",
				"energy": -0.27216,
				"method": "rhf"
			},
			{
				"type": "occ",
				"energy": -0.26691,
				"method": "rhf"
			},
			{
				"type": "occ",
				"energy": -0.25401,
				"method": "rhf"
			},
			{
				"type": "occ",
				"energy": -0.22093,
				"method": "rhf"
			},
			{
				"type": "unocc",
				"energy": 0.03139,
				"method": "rhf"
			},
			{
				"type": "unocc",
				"energy": 0.06059,
				"method": "rhf"
			},
			{
				"type": "unocc",
				"energy": 0.07756,
				"method": "rhf"
			},
			{
				"type": "unocc",
				"energy": 0.08219,
				"method": "rhf"
			},
			{
				"type": "unocc",
				"energy": 0.08347,
				"method": "rhf"
			}
		],
		"cosmo_sigma_profile": { 
			"-0.025": 0.0,
			"-0.024": 0.0,
			"-0.023": 0.0,
			"-0.022": 0.0,
			"-0.021": 0.0,
			"-0.02": 0.0,
			"-0.019": 0.0,
			"-0.018": 0.0,
			"-0.017": 0.0,
			"-0.016": 0.0,
			"-0.015": 0.561157588532,
			"-0.014": 0.848427461752,
			"-0.013": 0.870256466948,
			"-0.012": 0.812277345047,
			"-0.011": 0.729821938504,
			"-0.01": 1.36357265713,
			"-0.009": 0.652148531755,
			"-0.008": 0.926281573432,
			"-0.007": 0.684684027946,
			"-0.006": 0.76992845034,
			"-0.005": 1.15349105646,
			"-0.004": 3.05470657895,
			"-0.003": 20.0451838557,
			"-0.002": 77.1889260737,
			"-0.001": 107.237116353,
			"0.0": 104.019471436,
			"0.001": 77.1240299784,
			"0.002": 50.2676522614,
			"0.003": 10.1609935672,
			"0.004": 3.46118302311,
			"0.005": 4.21198792306,
			"0.006": 3.24960504913,
			"0.007": 2.29001815905,
			"0.008": 1.69376322026,
			"0.009": 2.04888333289,
			"0.01": 1.47763265426,
			"0.011": 1.11544165808,
			"0.012": 1.73716758467,
			"0.013": 1.2002934591,
			"0.014": 2.59373558043,
			"0.015": 0.834814801903,
			"0.016": 0.0,
			"0.017": 0.0,
			"0.018": 0.0,
			"0.019": 0.0,
			"0.02": 0.0,
			"0.021": 0.0,
			"0.022": 0.0,
			"0.023": 0.0,
			"0.024": 0.0,
			"0.025": 0.0
		}
	}
}
