{
	 "smiles": "OCCN1C(=O)N(CCO)C(=O)N(CCO)C1=O", 
	 "Tm": 411.15, 
	 "num_atms": 33, 
	 "gaussian": { 
		 "optdone": 1, 
		 "sigma_profile": "yes", 
		 "theory": "DFT", 
		 "functional": "B3LYP", 
		 "basiset": "6-31G**", 
		 "properties": { 
			 "R2extent": 5420.9326, 
			 "electric_dipole_moment_norm": 4.35529097765, 
			 "electric_quadrupole_moment_norm": 16.0287004932, 
			 "total_energy": -967.643049379, 
			 "HOMO_LUMO_gap": 0.22991, 
			 "cosmo_polarized_energy": -21.09, 
			 "cosmo_cavitation_energy": 35.58, 
			 "cosmo_dispersion_energy": -25.14, 
			 "cosmo_repulsion_energy": 1.96, 
			 "cosmo_total_nonelectrostatic_energy": 12.41, 
			 "SMD_solvation_energy": 7.09 
		},
		"coords": [
			{
				"x": 1.5501384748,
				"y": -0.0652795708,
				"z": 2.3363835005,
				"element": "O" 
			},
			{
				"x": 2.3396974394,
				"y": 0.2389407696,
				"z": 1.2040920453,
				"element": "C" 
			},
			{
				"x": 1.7156856288,
				"y": 1.3038826371,
				"z": 0.2951790003,
				"element": "C" 
			},
			{
				"x": 0.3119845587,
				"y": 0.9966069526,
				"z": -0.0362724054,
				"element": "N" 
			},
			{
				"x": 0.0678472753,
				"y": 0.2178914193,
				"z": -1.1637704149,
				"element": "C" 
			},
			{
				"x": 0.9609282827,
				"y": -0.1757756613,
				"z": -1.893264063,
				"element": "O" 
			},
			{
				"x": -1.2752095687,
				"y": -0.072301907,
				"z": -1.4085221133,
				"element": "N" 
			},
			{
				"x": -1.590739593,
				"y": -0.8968751304,
				"z": -2.5909121161,
				"element": "C" 
			},
			{
				"x": -1.5357889755,
				"y": -2.4003586665,
				"z": -2.2851661713,
				"element": "C" 
			},
			{
				"x": -1.8212516295,
				"y": -3.1565084879,
				"z": -3.4481945434,
				"element": "O" 
			},
			{
				"x": -2.3171370015,
				"y": 0.2900794901,
				"z": -0.5642651376,
				"element": "C" 
			},
			{
				"x": -3.4713458859,
				"y": -0.0535392337,
				"z": -0.787300286,
				"element": "O" 
			},
			{
				"x": -1.9763815178,
				"y": 1.066537727,
				"z": 0.5358356101,
				"element": "N" 
			},
			{
				"x": -3.0656974692,
				"y": 1.548902385,
				"z": 1.4223820158,
				"element": "C" 
			},
			{
				"x": -3.7558945025,
				"y": 0.4534581075,
				"z": 2.2551005733,
				"element": "C" 
			},
			{
				"x": -4.8847065147,
				"y": -0.1181255667,
				"z": 1.6380639712,
				"element": "O" 
			},
			{
				"x": -0.6649339815,
				"y": 1.4200210519,
				"z": 0.8593610864,
				"element": "C" 
			},
			{
				"x": -0.3903615503,
				"y": 2.0747730846,
				"z": 1.8538919058,
				"element": "O" 
			},
			{
				"x": 1.2423334931,
				"y": 0.7663455618,
				"z": 2.7249836269,
				"element": "H" 
			},
			{
				"x": 3.3500597725,
				"y": 0.5860112218,
				"z": 1.4772942695,
				"element": "H" 
			},
			{
				"x": 2.4544229683,
				"y": -0.6969089523,
				"z": 0.6481407247,
				"element": "H" 
			},
			{
				"x": 1.7135070723,
				"y": 2.2796767409,
				"z": 0.7831016287,
				"element": "H" 
			},
			{
				"x": 2.2664915022,
				"y": 1.3690729558,
				"z": -0.6436235895,
				"element": "H" 
			},
			{
				"x": -0.8576078747,
				"y": -0.641006801,
				"z": -3.3572841317,
				"element": "H" 
			},
			{
				"x": -2.5889835614,
				"y": -0.6229065633,
				"z": -2.9292912017,
				"element": "H" 
			},
			{
				"x": -2.3076619959,
				"y": -2.6521818687,
				"z": -1.5523133744,
				"element": "H" 
			},
			{
				"x": -0.5572342439,
				"y": -2.6547623782,
				"z": -1.8540197092,
				"element": "H" 
			},
			{
				"x": -1.0515498894,
				"y": -3.1134151518,
				"z": -4.0302148603,
				"element": "H" 
			},
			{
				"x": -3.8120189161,
				"y": 2.050028095,
				"z": 0.8005228496,
				"element": "H" 
			},
			{
				"x": -2.5901692963,
				"y": 2.2798363195,
				"z": 2.0740275469,
				"element": "H" 
			},
			{
				"x": -4.1130878236,
				"y": 0.9159537845,
				"z": 3.1821648067,
				"element": "H" 
			},
			{
				"x": -3.0009881479,
				"y": -0.2983207473,
				"z": 2.5437654358,
				"element": "H" 
			},
			{
				"x": -4.6323465289,
				"y": -0.3291516169,
				"z": 0.7249235203,
				"element": "H" 
			}
		],
		 "valence_orbital": [ 
			{
				"type": "occ",
				"energy": -0.29419,
				"method": "rhf"
			},
			{
				"type": "occ",
				"energy": -0.28893,
				"method": "rhf"
			},
			{
				"type": "occ",
				"energy": -0.27905,
				"method": "rhf"
			},
			{
				"type": "occ",
				"energy": -0.27413,
				"method": "rhf"
			},
			{
				"type": "occ",
				"energy": -0.25948,
				"method": "rhf"
			},
			{
				"type": "unocc",
				"energy": -0.02957,
				"method": "rhf"
			},
			{
				"type": "unocc",
				"energy": -0.02547,
				"method": "rhf"
			},
			{
				"type": "unocc",
				"energy": 0.05899,
				"method": "rhf"
			},
			{
				"type": "unocc",
				"energy": 0.06756,
				"method": "rhf"
			},
			{
				"type": "unocc",
				"energy": 0.09466,
				"method": "rhf"
			}
		],
		"cosmo_sigma_profile": { 
			"-0.025": 0.0,
			"-0.024": 0.0,
			"-0.023": 0.0,
			"-0.022": 0.0,
			"-0.021": 0.0,
			"-0.02": 0.0,
			"-0.019": 0.0,
			"-0.018": 0.0,
			"-0.017": 0.0345783335872,
			"-0.016": 0.816255233719,
			"-0.015": 1.03958600253,
			"-0.014": 1.39948899352,
			"-0.013": 0.726066062392,
			"-0.012": 1.42121041138,
			"-0.011": 1.21220467125,
			"-0.01": 2.88667517971,
			"-0.009": 3.11203181606,
			"-0.008": 3.98699009183,
			"-0.007": 6.16009336769,
			"-0.006": 16.5727024028,
			"-0.005": 30.4791487924,
			"-0.004": 35.4979722549,
			"-0.003": 26.6280917191,
			"-0.002": 17.5730444823,
			"-0.001": 12.9564741622,
			"0.0": 11.8269317321,
			"0.001": 11.0532472478,
			"0.002": 8.2495460002,
			"0.003": 7.83699961308,
			"0.004": 7.84444076786,
			"0.005": 7.31238140546,
			"0.006": 6.97431285966,
			"0.007": 6.42917519121,
			"0.008": 7.36852673157,
			"0.009": 7.36303346857,
			"0.01": 7.87161160303,
			"0.011": 9.26307310336,
			"0.012": 4.14759461786,
			"0.013": 5.48278639514,
			"0.014": 5.81377205829,
			"0.015": 1.76352428137,
			"0.016": 0.0,
			"0.017": 0.0,
			"0.018": 0.0,
			"0.019": 0.0,
			"0.02": 0.0,
			"0.021": 0.0,
			"0.022": 0.0,
			"0.023": 0.0,
			"0.024": 0.0,
			"0.025": 0.0
		}
	}
}
