{
	 "smiles": "CC1=CC=C(C=C1)C1=NC=NS1", 
	 "Tm": 305.65, 
	 "num_atms": 20, 
	 "gaussian": { 
		 "optdone": 1, 
		 "sigma_profile": "yes", 
		 "theory": "DFT", 
		 "functional": "B3LYP", 
		 "basiset": "6-31G**", 
		 "properties": { 
			 "R2extent": 5214.4459, 
			 "electric_dipole_moment_norm": 3.53653935225, 
			 "electric_quadrupole_moment_norm": 13.5669801972, 
			 "total_energy": -855.469874231, 
			 "HOMO_LUMO_gap": 0.17105, 
			 "cosmo_polarized_energy": -7.26, 
			 "cosmo_cavitation_energy": 25.79, 
			 "cosmo_dispersion_energy": -19.8, 
			 "cosmo_repulsion_energy": 1.5, 
			 "cosmo_total_nonelectrostatic_energy": 7.5, 
			 "SMD_solvation_energy": 1.74 
		},
		"coords": [
			{
				"x": 1.9373122807,
				"y": 0.6179827996,
				"z": -0.523761849,
				"element": "C" 
			},
			{
				"x": 0.6562789897,
				"y": 0.4379936266,
				"z": 0.2534038956,
				"element": "C" 
			},
			{
				"x": -0.192354591,
				"y": -0.65121255,
				"z": 0.002461993,
				"element": "C" 
			},
			{
				"x": -1.3595329092,
				"y": -0.840455445,
				"z": 0.7329181326,
				"element": "C" 
			},
			{
				"x": -1.7184057038,
				"y": 0.0656498243,
				"z": 1.7461042429,
				"element": "C" 
			},
			{
				"x": -0.875866275,
				"y": 1.1593673453,
				"z": 1.9996279144,
				"element": "C" 
			},
			{
				"x": 0.290300043,
				"y": 1.33966216,
				"z": 1.2627417567,
				"element": "C" 
			},
			{
				"x": -2.9538836054,
				"y": -0.1512968648,
				"z": 2.5011904892,
				"element": "C" 
			},
			{
				"x": -3.7791394116,
				"y": -1.1571921017,
				"z": 2.3039337284,
				"element": "N" 
			},
			{
				"x": -4.8264455825,
				"y": -1.0601179573,
				"z": 3.1745018424,
				"element": "C" 
			},
			{
				"x": -4.8967599492,
				"y": -0.0702528188,
				"z": 4.0354194538,
				"element": "N" 
			},
			{
				"x": -3.5377762263,
				"y": 0.8873336805,
				"z": 3.7898835175,
				"element": "S" 
			},
			{
				"x": 2.2540566145,
				"y": 1.6647512855,
				"z": -0.5389039546,
				"element": "H" 
			},
			{
				"x": 2.7530681066,
				"y": 0.0359799521,
				"z": -0.0765383879,
				"element": "H" 
			},
			{
				"x": 1.8283930829,
				"y": 0.2792320551,
				"z": -1.5584974078,
				"element": "H" 
			},
			{
				"x": 0.0670550488,
				"y": -1.3601491211,
				"z": -0.7797518875,
				"element": "H" 
			},
			{
				"x": -2.0117637574,
				"y": -1.683337235,
				"z": 0.5328700684,
				"element": "H" 
			},
			{
				"x": -1.1306432957,
				"y": 1.8787859287,
				"z": 2.7737262428,
				"element": "H" 
			},
			{
				"x": 0.9270326736,
				"y": 2.1949930834,
				"z": 1.472562835,
				"element": "H" 
			},
			{
				"x": -5.6125255327,
				"y": -1.8085176476,
				"z": 3.1578073741,
				"element": "H" 
			}
		],
		 "valence_orbital": [ 
			{
				"type": "occ",
				"energy": -0.31036,
				"method": "rhf"
			},
			{
				"type": "occ",
				"energy": -0.28535,
				"method": "rhf"
			},
			{
				"type": "occ",
				"energy": -0.28087,
				"method": "rhf"
			},
			{
				"type": "occ",
				"energy": -0.26379,
				"method": "rhf"
			},
			{
				"type": "occ",
				"energy": -0.23761,
				"method": "rhf"
			},
			{
				"type": "unocc",
				"energy": -0.06656,
				"method": "rhf"
			},
			{
				"type": "unocc",
				"energy": -0.01424,
				"method": "rhf"
			},
			{
				"type": "unocc",
				"energy": 0.00354,
				"method": "rhf"
			},
			{
				"type": "unocc",
				"energy": 0.01035,
				"method": "rhf"
			},
			{
				"type": "unocc",
				"energy": 0.05386,
				"method": "rhf"
			}
		],
		"cosmo_sigma_profile": { 
			"-0.025": 0.0,
			"-0.024": 0.0,
			"-0.023": 0.0,
			"-0.022": 0.0,
			"-0.021": 0.0,
			"-0.02": 0.0,
			"-0.019": 0.0,
			"-0.018": 0.0,
			"-0.017": 0.0,
			"-0.016": 0.0,
			"-0.015": 0.0,
			"-0.014": 0.0,
			"-0.013": 0.0,
			"-0.012": 0.0,
			"-0.011": 0.0,
			"-0.01": 0.0,
			"-0.009": 1.44927894063,
			"-0.008": 2.95779419187,
			"-0.007": 3.53029119121,
			"-0.006": 7.9590621719,
			"-0.005": 13.3763226678,
			"-0.004": 16.2877404428,
			"-0.003": 14.3186070899,
			"-0.002": 17.7855555574,
			"-0.001": 24.0211047209,
			"0.0": 22.304191526,
			"0.001": 17.263257003,
			"0.002": 17.6810965139,
			"0.003": 13.8599426376,
			"0.004": 14.434441234,
			"0.005": 4.351783661,
			"0.006": 2.309995863,
			"0.007": 2.30935667602,
			"0.008": 2.65900344728,
			"0.009": 2.83673924779,
			"0.01": 2.0109999146,
			"0.011": 1.88422135444,
			"0.012": 2.06949656852,
			"0.013": 1.12079012202,
			"0.014": 0.746982457241,
			"0.015": 0.0434948751079,
			"0.016": 0.0,
			"0.017": 0.0,
			"0.018": 0.0,
			"0.019": 0.0,
			"0.02": 0.0,
			"0.021": 0.0,
			"0.022": 0.0,
			"0.023": 0.0,
			"0.024": 0.0,
			"0.025": 0.0
		}
	}
}
