{
	 "smiles": "OC1(CCN(CCCC(=O)C2=CC=C(F)C=C2)CC1)C1=CC=C(Cl)C=C1", 
	 "Tm": 421.15, 
	 "num_atms": 49, 
	 "gaussian": { 
		 "optdone": 1, 
		 "sigma_profile": "yes", 
		 "theory": "DFT", 
		 "functional": "B3LYP", 
		 "basiset": "6-31G**", 
		 "properties": { 
			 "R2extent": 17437.959, 
			 "electric_dipole_moment_norm": 2.77810239552, 
			 "electric_quadrupole_moment_norm": 25.1422373935, 
			 "total_energy": -1579.32822527, 
			 "HOMO_LUMO_gap": 0.16631, 
			 "cosmo_polarized_energy": -14.62, 
			 "cosmo_cavitation_energy": 52.34, 
			 "cosmo_dispersion_energy": -36.29, 
			 "cosmo_repulsion_energy": 2.72, 
			 "cosmo_total_nonelectrostatic_energy": 18.77, 
			 "SMD_solvation_energy": 7.39 
		},
		"coords": [
			{
				"x": 0.1158113179,
				"y": 3.8432204977,
				"z": 1.792848121,
				"element": "O" 
			},
			{
				"x": 0.3469276515,
				"y": 2.4296052261,
				"z": 1.7867769953,
				"element": "C" 
			},
			{
				"x": -0.983008292,
				"y": 1.6831804084,
				"z": 1.523599704,
				"element": "C" 
			},
			{
				"x": -1.4902107405,
				"y": 1.8955765099,
				"z": 0.0933580907,
				"element": "C" 
			},
			{
				"x": -0.4901646339,
				"y": 1.4841075861,
				"z": -0.8920022282,
				"element": "N" 
			},
			{
				"x": -1.013598208,
				"y": 1.5231640534,
				"z": -2.2623140193,
				"element": "C" 
			},
			{
				"x": -0.2256986194,
				"y": 0.6413558285,
				"z": -3.2427428156,
				"element": "C" 
			},
			{
				"x": -0.2009341726,
				"y": -0.8366720602,
				"z": -2.8411486439,
				"element": "C" 
			},
			{
				"x": -1.5197820134,
				"y": -1.5617375517,
				"z": -3.0891311198,
				"element": "C" 
			},
			{
				"x": -2.4721871307,
				"y": -0.9855510232,
				"z": -3.599025855,
				"element": "O" 
			},
			{
				"x": -1.6313009759,
				"y": -3.0061261096,
				"z": -2.70483095,
				"element": "C" 
			},
			{
				"x": -0.5829389375,
				"y": -3.7231503261,
				"z": -2.1060397555,
				"element": "C" 
			},
			{
				"x": -0.7382744897,
				"y": -5.0660650044,
				"z": -1.7689673461,
				"element": "C" 
			},
			{
				"x": -1.9554728198,
				"y": -5.6834358369,
				"z": -2.0382918499,
				"element": "C" 
			},
			{
				"x": -2.1118440465,
				"y": -6.9803101961,
				"z": -1.7151061574,
				"element": "F" 
			},
			{
				"x": -3.0173971947,
				"y": -5.0039148168,
				"z": -2.6308830255,
				"element": "C" 
			},
			{
				"x": -2.8460547028,
				"y": -3.6649525098,
				"z": -2.9606528578,
				"element": "C" 
			},
			{
				"x": 0.7364794178,
				"y": 2.2654273936,
				"z": -0.7319965183,
				"element": "C" 
			},
			{
				"x": 1.3458525529,
				"y": 2.070835363,
				"z": 0.6604050925,
				"element": "C" 
			},
			{
				"x": 0.9151374148,
				"y": 2.0786210825,
				"z": 3.1602678123,
				"element": "C" 
			},
			{
				"x": 1.1128172083,
				"y": 3.0653308835,
				"z": 4.1334284135,
				"element": "C" 
			},
			{
				"x": 1.632618121,
				"y": 2.7467567497,
				"z": 5.3890956037,
				"element": "C" 
			},
			{
				"x": 1.9594376344,
				"y": 1.4243733412,
				"z": 5.6772446167,
				"element": "C" 
			},
			{
				"x": 2.6156941565,
				"y": 1.0126144365,
				"z": 7.2579319154,
				"element": "Cl" 
			},
			{
				"x": 1.7733987086,
				"y": 0.4199877501,
				"z": 4.7286885021,
				"element": "C" 
			},
			{
				"x": 1.2535332885,
				"y": 0.7556274609,
				"z": 3.4797621457,
				"element": "C" 
			},
			{
				"x": -0.2721658598,
				"y": 4.089663269,
				"z": 0.9445087917,
				"element": "H" 
			},
			{
				"x": -1.7300205781,
				"y": 2.0296084958,
				"z": 2.2453219229,
				"element": "H" 
			},
			{
				"x": -0.8374400164,
				"y": 0.6098821814,
				"z": 1.6818771017,
				"element": "H" 
			},
			{
				"x": -1.7881066112,
				"y": 2.9577352606,
				"z": -0.0501819445,
				"element": "H" 
			},
			{
				"x": -2.3992828499,
				"y": 1.305447951,
				"z": -0.0616995378,
				"element": "H" 
			},
			{
				"x": -2.045639784,
				"y": 1.1625369635,
				"z": -2.2388634309,
				"element": "H" 
			},
			{
				"x": -1.0481372245,
				"y": 2.5594402134,
				"z": -2.6499826611,
				"element": "H" 
			},
			{
				"x": -0.6853063149,
				"y": 0.7453083115,
				"z": -4.2306647837,
				"element": "H" 
			},
			{
				"x": 0.8054469629,
				"y": 1.0009455802,
				"z": -3.3348955857,
				"element": "H" 
			},
			{
				"x": 0.0544679712,
				"y": -0.9193499234,
				"z": -1.7771592898,
				"element": "H" 
			},
			{
				"x": 0.5850686255,
				"y": -1.3735030998,
				"z": -3.3892320959,
				"element": "H" 
			},
			{
				"x": 0.364279446,
				"y": -3.2384065066,
				"z": -1.8960157324,
				"element": "H" 
			},
			{
				"x": 0.0598908222,
				"y": -5.6355568874,
				"z": -1.3057146473,
				"element": "H" 
			},
			{
				"x": -3.9479530069,
				"y": -5.5274681705,
				"z": -2.8216012092,
				"element": "H" 
			},
			{
				"x": -3.646468729,
				"y": -3.0980084194,
				"z": -3.4236571422,
				"element": "H" 
			},
			{
				"x": 0.5466884273,
				"y": 3.3455539572,
				"z": -0.9181900047,
				"element": "H" 
			},
			{
				"x": 1.4641393364,
				"y": 1.955317718,
				"z": -1.4874319211,
				"element": "H" 
			},
			{
				"x": 2.2394860617,
				"y": 2.6935352158,
				"z": 0.7722037179,
				"element": "H" 
			},
			{
				"x": 1.6523649783,
				"y": 1.0247901927,
				"z": 0.7617792126,
				"element": "H" 
			},
			{
				"x": 0.8559165747,
				"y": 4.0913459467,
				"z": 3.9022569072,
				"element": "H" 
			},
			{
				"x": 1.7818975983,
				"y": 3.5189263407,
				"z": 6.1359940459,
				"element": "H" 
			},
			{
				"x": 2.0307573668,
				"y": -0.6068408142,
				"z": 4.9640687967,
				"element": "H" 
			},
			{
				"x": 1.1131763086,
				"y": -0.0369729126,
				"z": 2.7503056191,
				"element": "H" 
			}
		],
		 "valence_orbital": [ 
			{
				"type": "occ",
				"energy": -0.2577,
				"method": "rhf"
			},
			{
				"type": "occ",
				"energy": -0.2572,
				"method": "rhf"
			},
			{
				"type": "occ",
				"energy": -0.25435,
				"method": "rhf"
			},
			{
				"type": "occ",
				"energy": -0.23582,
				"method": "rhf"
			},
			{
				"type": "occ",
				"energy": -0.22508,
				"method": "rhf"
			},
			{
				"type": "unocc",
				"energy": -0.05877,
				"method": "rhf"
			},
			{
				"type": "unocc",
				"energy": -0.02301,
				"method": "rhf"
			},
			{
				"type": "unocc",
				"energy": -0.01037,
				"method": "rhf"
			},
			{
				"type": "unocc",
				"energy": -0.00645,
				"method": "rhf"
			},
			{
				"type": "unocc",
				"energy": 0.03454,
				"method": "rhf"
			}
		],
		"cosmo_sigma_profile": { 
			"-0.025": 0.0,
			"-0.024": 0.0,
			"-0.023": 0.0,
			"-0.022": 0.0,
			"-0.021": 0.0,
			"-0.02": 0.0,
			"-0.019": 0.0,
			"-0.018": 0.0,
			"-0.017": 0.0,
			"-0.016": 0.0,
			"-0.015": 0.0,
			"-0.014": 0.15914642883,
			"-0.013": 0.45710540917,
			"-0.012": 0.79940920936,
			"-0.011": 1.10637304848,
			"-0.01": 1.39775897306,
			"-0.009": 1.20385424276,
			"-0.008": 1.86530901864,
			"-0.007": 9.46135266012,
			"-0.006": 17.8853584974,
			"-0.005": 23.0913205456,
			"-0.004": 26.5791995969,
			"-0.003": 28.7102243189,
			"-0.002": 39.9211430367,
			"-0.001": 44.9266908678,
			"0.0": 39.5485451008,
			"0.001": 30.6496196017,
			"0.002": 34.7429648504,
			"0.003": 34.0668796832,
			"0.004": 34.3391975345,
			"0.005": 15.8140647438,
			"0.006": 4.67571809947,
			"0.007": 4.28621894058,
			"0.008": 3.36237871785,
			"0.009": 4.70561172265,
			"0.01": 3.90596676678,
			"0.011": 3.44288249291,
			"0.012": 3.77138692541,
			"0.013": 0.538488093216,
			"0.014": 0.0,
			"0.015": 0.0,
			"0.016": 0.0,
			"0.017": 0.0,
			"0.018": 0.0,
			"0.019": 0.0,
			"0.02": 0.0,
			"0.021": 0.0,
			"0.022": 0.0,
			"0.023": 0.0,
			"0.024": 0.0,
			"0.025": 0.0
		}
	}
}
