{
	 "smiles": "OC(C1CCCCN1)C(F)(F)F", 
	 "Tm": 368.15, 
	 "num_atms": 24, 
	 "gaussian": { 
		 "optdone": 1, 
		 "sigma_profile": "yes", 
		 "theory": "DFT", 
		 "functional": "B3LYP", 
		 "basiset": "6-31G**", 
		 "properties": { 
			 "R2extent": 2669.3813, 
			 "electric_dipole_moment_norm": 1.17138054449, 
			 "electric_quadrupole_moment_norm": 7.52159396139, 
			 "total_energy": -703.470001112, 
			 "HOMO_LUMO_gap": 0.27984, 
			 "cosmo_polarized_energy": -7.27, 
			 "cosmo_cavitation_energy": 26.12, 
			 "cosmo_dispersion_energy": -18.95, 
			 "cosmo_repulsion_energy": 1.46, 
			 "cosmo_total_nonelectrostatic_energy": 8.63, 
			 "SMD_solvation_energy": 2.85 
		},
		"coords": [
			{
				"x": -1.1103079972,
				"y": -1.7681361449,
				"z": -0.1959123952,
				"element": "O" 
			},
			{
				"x": 0.0133444398,
				"y": -1.3226379497,
				"z": -0.9340792351,
				"element": "C" 
			},
			{
				"x": 0.1857487843,
				"y": 0.1826653366,
				"z": -0.6961042881,
				"element": "C" 
			},
			{
				"x": -1.0727546014,
				"y": 1.0278720204,
				"z": -1.057709241,
				"element": "C" 
			},
			{
				"x": -1.2103939902,
				"y": 2.2430433988,
				"z": -0.1164490803,
				"element": "C" 
			},
			{
				"x": 0.1673283493,
				"y": 2.8121037406,
				"z": 0.2402958017,
				"element": "C" 
			},
			{
				"x": 1.0020870486,
				"y": 1.742508766,
				"z": 0.995471909,
				"element": "C" 
			},
			{
				"x": 0.617675462,
				"y": 0.3535377836,
				"z": 0.6950437762,
				"element": "N" 
			},
			{
				"x": -0.1421603895,
				"y": -1.7155448921,
				"z": -2.4015585665,
				"element": "C" 
			},
			{
				"x": -1.2108256323,
				"y": -1.1645739941,
				"z": -3.00554245,
				"element": "F" 
			},
			{
				"x": -0.2885491924,
				"y": -3.0646298457,
				"z": -2.4914357729,
				"element": "F" 
			},
			{
				"x": 0.954183406,
				"y": -1.3771557073,
				"z": -3.1128791544,
				"element": "F" 
			},
			{
				"x": -1.1577732046,
				"y": -2.730317424,
				"z": -0.270989541,
				"element": "H" 
			},
			{
				"x": 0.9358780696,
				"y": -1.8117513098,
				"z": -0.5909676128,
				"element": "H" 
			},
			{
				"x": 1.0278763678,
				"y": 0.4987594933,
				"z": -1.3250843076,
				"element": "H" 
			},
			{
				"x": -0.9935871714,
				"y": 1.3667208495,
				"z": -2.0969156304,
				"element": "H" 
			},
			{
				"x": -1.968981143,
				"y": 0.4051740661,
				"z": -0.9947491987,
				"element": "H" 
			},
			{
				"x": -1.7250625366,
				"y": 1.9426702937,
				"z": 0.8058357294,
				"element": "H" 
			},
			{
				"x": -1.8421598737,
				"y": 3.0069705878,
				"z": -0.5821326053,
				"element": "H" 
			},
			{
				"x": 0.6814529354,
				"y": 3.1089408613,
				"z": -0.6833401708,
				"element": "H" 
			},
			{
				"x": 0.0780223379,
				"y": 3.7195645331,
				"z": 0.8480170688,
				"element": "H" 
			},
			{
				"x": 0.9011541209,
				"y": 1.8777623946,
				"z": 2.0777063475,
				"element": "H" 
			},
			{
				"x": 2.0678670853,
				"y": 1.8706132876,
				"z": 0.7634094759,
				"element": "H" 
			},
			{
				"x": -0.1497626746,
				"y": 0.0663398548,
				"z": 1.2969691415,
				"element": "H" 
			}
		],
		 "valence_orbital": [ 
			{
				"type": "occ",
				"energy": -0.33981,
				"method": "rhf"
			},
			{
				"type": "occ",
				"energy": -0.31585,
				"method": "rhf"
			},
			{
				"type": "occ",
				"energy": -0.31041,
				"method": "rhf"
			},
			{
				"type": "occ",
				"energy": -0.29112,
				"method": "rhf"
			},
			{
				"type": "occ",
				"energy": -0.21882,
				"method": "rhf"
			},
			{
				"type": "unocc",
				"energy": 0.06102,
				"method": "rhf"
			},
			{
				"type": "unocc",
				"energy": 0.08879,
				"method": "rhf"
			},
			{
				"type": "unocc",
				"energy": 0.10084,
				"method": "rhf"
			},
			{
				"type": "unocc",
				"energy": 0.11461,
				"method": "rhf"
			},
			{
				"type": "unocc",
				"energy": 0.13222,
				"method": "rhf"
			}
		],
		"cosmo_sigma_profile": { 
			"-0.025": 0.0,
			"-0.024": 0.0,
			"-0.023": 0.0,
			"-0.022": 0.0,
			"-0.021": 0.0,
			"-0.02": 0.0,
			"-0.019": 0.0,
			"-0.018": 0.0,
			"-0.017": 0.0570897508549,
			"-0.016": 0.70791429221,
			"-0.015": 0.5496209786,
			"-0.014": 0.834792573485,
			"-0.013": 1.04895190076,
			"-0.012": 0.604953363675,
			"-0.011": 1.1827208349,
			"-0.01": 0.625759848296,
			"-0.009": 1.01706706483,
			"-0.008": 2.26949999509,
			"-0.007": 3.69684647605,
			"-0.006": 3.78678147782,
			"-0.005": 3.88525108739,
			"-0.004": 8.41741909216,
			"-0.003": 16.2307151078,
			"-0.002": 23.4775713405,
			"-0.001": 22.1517866447,
			"0.0": 22.1954566066,
			"0.001": 19.6499685089,
			"0.002": 18.7481635483,
			"0.003": 28.2630317706,
			"0.004": 4.69010467884,
			"0.005": 3.20630952573,
			"0.006": 2.42946506502,
			"0.007": 2.48519499726,
			"0.008": 2.13867188171,
			"0.009": 1.87129990728,
			"0.01": 1.91571590134,
			"0.011": 1.5950267214,
			"0.012": 0.357226167228,
			"0.013": 0.571489124949,
			"0.014": 0.564556749545,
			"0.015": 0.440816528208,
			"0.016": 0.357988420474,
			"0.017": 0.387079868648,
			"0.018": 0.0606550988239,
			"0.019": 0.0,
			"0.02": 0.0,
			"0.021": 0.0,
			"0.022": 0.0,
			"0.023": 0.0,
			"0.024": 0.0,
			"0.025": 0.0
		}
	}
}
