{
	 "smiles": "COC1=C(OC)C=C(C(C)=O)C(F)=C1", 
	 "Tm": 366.15, 
	 "num_atms": 25, 
	 "gaussian": { 
		 "optdone": 1, 
		 "sigma_profile": "yes", 
		 "theory": "DFT", 
		 "functional": "B3LYP", 
		 "basiset": "6-31G**", 
		 "properties": { 
			 "R2extent": 3441.2757, 
			 "electric_dipole_moment_norm": 4.80269704853, 
			 "electric_quadrupole_moment_norm": 17.5161933359, 
			 "total_energy": -713.16187876, 
			 "HOMO_LUMO_gap": 0.18302, 
			 "cosmo_polarized_energy": -11.43, 
			 "cosmo_cavitation_energy": 29.37, 
			 "cosmo_dispersion_energy": -20.83, 
			 "cosmo_repulsion_energy": 1.63, 
			 "cosmo_total_nonelectrostatic_energy": 10.17, 
			 "SMD_solvation_energy": 7.72 
		},
		"coords": [
			{
				"x": 1.7543893913,
				"y": -1.3561184589,
				"z": 2.3924039867,
				"element": "C" 
			},
			{
				"x": 2.2449463042,
				"y": -0.3695557431,
				"z": 1.4703336446,
				"element": "O" 
			},
			{
				"x": 1.4912884043,
				"y": -0.181425511,
				"z": 0.3437568544,
				"element": "C" 
			},
			{
				"x": 0.1763466841,
				"y": 0.3273520234,
				"z": 0.3928539039,
				"element": "C" 
			},
			{
				"x": -0.4393540011,
				"y": 0.6180966014,
				"z": 1.5910938576,
				"element": "O" 
			},
			{
				"x": 0.0695092116,
				"y": 1.7846221712,
				"z": 2.2517635,
				"element": "C" 
			},
			{
				"x": -0.5272285713,
				"y": 0.5094394082,
				"z": -0.7915880454,
				"element": "C" 
			},
			{
				"x": 0.0248771089,
				"y": 0.2239657902,
				"z": -2.0547282416,
				"element": "C" 
			},
			{
				"x": -0.7581920662,
				"y": 0.4302439402,
				"z": -3.3145382596,
				"element": "C" 
			},
			{
				"x": -2.1939650079,
				"y": 0.9266345328,
				"z": -3.1901817152,
				"element": "C" 
			},
			{
				"x": -0.2806643512,
				"y": 0.2130703275,
				"z": -4.4158915456,
				"element": "O" 
			},
			{
				"x": 1.3493392477,
				"y": -0.2503809667,
				"z": -2.0653657564,
				"element": "C" 
			},
			{
				"x": 1.967487574,
				"y": -0.5426757752,
				"z": -3.2162350871,
				"element": "F" 
			},
			{
				"x": 2.0702393324,
				"y": -0.4563963756,
				"z": -0.8947480125,
				"element": "C" 
			},
			{
				"x": 1.7478755962,
				"y": -2.3468614718,
				"z": 1.9226420401,
				"element": "H" 
			},
			{
				"x": 2.4543674018,
				"y": -1.3579255827,
				"z": 3.2295159357,
				"element": "H" 
			},
			{
				"x": 0.7492752578,
				"y": -1.1097609425,
				"z": 2.7441876407,
				"element": "H" 
			},
			{
				"x": 1.1336594589,
				"y": 1.6779722755,
				"z": 2.4858954393,
				"element": "H" 
			},
			{
				"x": -0.5027197911,
				"y": 1.8870327596,
				"z": 3.17583434,
				"element": "H" 
			},
			{
				"x": -0.078956554,
				"y": 2.6773042584,
				"z": 1.6316527901,
				"element": "H" 
			},
			{
				"x": -1.5377792958,
				"y": 0.8916145295,
				"z": -0.7078894618,
				"element": "H" 
			},
			{
				"x": -2.2368375243,
				"y": 1.9076807653,
				"z": -2.7044165255,
				"element": "H" 
			},
			{
				"x": -2.6102305786,
				"y": 1.0057592644,
				"z": -4.1946516361,
				"element": "H" 
			},
			{
				"x": -2.8060024006,
				"y": 0.2383016487,
				"z": -2.5973260403,
				"element": "H" 
			},
			{
				"x": 3.083029169,
				"y": -0.8389894687,
				"z": -0.944273606,
				"element": "H" 
			}
		],
		 "valence_orbital": [ 
			{
				"type": "occ",
				"energy": -0.30995,
				"method": "rhf"
			},
			{
				"type": "occ",
				"energy": -0.27996,
				"method": "rhf"
			},
			{
				"type": "occ",
				"energy": -0.25872,
				"method": "rhf"
			},
			{
				"type": "occ",
				"energy": -0.24151,
				"method": "rhf"
			},
			{
				"type": "occ",
				"energy": -0.23767,
				"method": "rhf"
			},
			{
				"type": "unocc",
				"energy": -0.05465,
				"method": "rhf"
			},
			{
				"type": "unocc",
				"energy": -0.00893,
				"method": "rhf"
			},
			{
				"type": "unocc",
				"energy": 0.03703,
				"method": "rhf"
			},
			{
				"type": "unocc",
				"energy": 0.07395,
				"method": "rhf"
			},
			{
				"type": "unocc",
				"energy": 0.09521,
				"method": "rhf"
			}
		],
		"cosmo_sigma_profile": { 
			"-0.025": 0.0,
			"-0.024": 0.0,
			"-0.023": 0.0,
			"-0.022": 0.0,
			"-0.021": 0.0,
			"-0.02": 0.0,
			"-0.019": 0.0,
			"-0.018": 0.0,
			"-0.017": 0.0,
			"-0.016": 0.0,
			"-0.015": 0.0,
			"-0.014": 0.0,
			"-0.013": 0.0,
			"-0.012": 0.0,
			"-0.011": 0.0,
			"-0.01": 0.0,
			"-0.009": 0.00941328308114,
			"-0.008": 1.01714762658,
			"-0.007": 4.93598506256,
			"-0.006": 12.0366884698,
			"-0.005": 16.9187499396,
			"-0.004": 21.5684453079,
			"-0.003": 26.7504433844,
			"-0.002": 22.8722857901,
			"-0.001": 22.8855887356,
			"0.0": 19.3954570479,
			"0.001": 18.2962106424,
			"0.002": 11.8060840148,
			"0.003": 7.11663119682,
			"0.004": 10.05583664,
			"0.005": 5.26318142274,
			"0.006": 4.67704059205,
			"0.007": 3.27014815331,
			"0.008": 4.21066462014,
			"0.009": 3.94262216391,
			"0.01": 4.20034222889,
			"0.011": 4.91521953917,
			"0.012": 4.96521579646,
			"0.013": 2.19458180176,
			"0.014": 0.108478413045,
			"0.015": 0.0,
			"0.016": 0.0,
			"0.017": 0.0,
			"0.018": 0.0,
			"0.019": 0.0,
			"0.02": 0.0,
			"0.021": 0.0,
			"0.022": 0.0,
			"0.023": 0.0,
			"0.024": 0.0,
			"0.025": 0.0
		}
	}
}
