{
	 "smiles": "CC(=O)C(CC1=CC=CC=C1)NC(=O)CCl", 
	 "Tm": 347.15, 
	 "num_atms": 30, 
	 "gaussian": { 
		 "optdone": 1, 
		 "sigma_profile": "yes", 
		 "theory": "DFT", 
		 "functional": "B3LYP", 
		 "basiset": "6-31G**", 
		 "properties": { 
			 "R2extent": 4832.6427, 
			 "electric_dipole_moment_norm": 3.9327952235, 
			 "electric_quadrupole_moment_norm": 13.8827316894, 
			 "total_energy": -1131.11329958, 
			 "HOMO_LUMO_gap": 0.20646, 
			 "cosmo_polarized_energy": -16.55, 
			 "cosmo_cavitation_energy": 35.02, 
			 "cosmo_dispersion_energy": -23.72, 
			 "cosmo_repulsion_energy": 1.86, 
			 "cosmo_total_nonelectrostatic_energy": 13.15, 
			 "SMD_solvation_energy": 6.48 
		},
		"coords": [
			{
				"x": 2.3455451607,
				"y": 1.2766377512,
				"z": -2.6798159591,
				"element": "C" 
			},
			{
				"x": 1.024904457,
				"y": 1.6181187008,
				"z": -2.0248168867,
				"element": "C" 
			},
			{
				"x": 0.2129488116,
				"y": 2.3661638089,
				"z": -2.5336534109,
				"element": "O" 
			},
			{
				"x": 0.7712529535,
				"y": 1.0128529743,
				"z": -0.6222544721,
				"element": "C" 
			},
			{
				"x": -0.4415456552,
				"y": 1.647642474,
				"z": 0.0973512745,
				"element": "C" 
			},
			{
				"x": -0.4738727154,
				"y": 1.3189870976,
				"z": 1.5749808209,
				"element": "C" 
			},
			{
				"x": -1.077823062,
				"y": 0.1455492826,
				"z": 2.0496862165,
				"element": "C" 
			},
			{
				"x": -1.0671033469,
				"y": -0.163613196,
				"z": 3.4110917641,
				"element": "C" 
			},
			{
				"x": -0.4531269662,
				"y": 0.6974045424,
				"z": 4.3221572625,
				"element": "C" 
			},
			{
				"x": 0.1490469732,
				"y": 1.8704898922,
				"z": 3.8633104895,
				"element": "C" 
			},
			{
				"x": 0.1374726832,
				"y": 2.1758807103,
				"z": 2.5018744576,
				"element": "C" 
			},
			{
				"x": 0.7541491371,
				"y": -0.4554652208,
				"z": -0.6474081258,
				"element": "N" 
			},
			{
				"x": -0.162500821,
				"y": -1.3003937695,
				"z": -1.2370414,
				"element": "C" 
			},
			{
				"x": -0.2916265038,
				"y": -2.4530821791,
				"z": -0.8549378643,
				"element": "O" 
			},
			{
				"x": -0.9786735677,
				"y": -0.7885044988,
				"z": -2.425277723,
				"element": "C" 
			},
			{
				"x": -0.0996863791,
				"y": -1.1302853387,
				"z": -3.9768691183,
				"element": "Cl" 
			},
			{
				"x": 2.3388679261,
				"y": 1.6146471725,
				"z": -3.7161848113,
				"element": "H" 
			},
			{
				"x": 2.5403194938,
				"y": 0.2024955169,
				"z": -2.6321244689,
				"element": "H" 
			},
			{
				"x": 3.1563686377,
				"y": 1.7834760163,
				"z": -2.1409516719,
				"element": "H" 
			},
			{
				"x": 1.669628144,
				"y": 1.2624217419,
				"z": -0.042340318,
				"element": "H" 
			},
			{
				"x": -0.3876747404,
				"y": 2.7302375252,
				"z": -0.0499977845,
				"element": "H" 
			},
			{
				"x": -1.3650775454,
				"y": 1.3206251591,
				"z": -0.3912562378,
				"element": "H" 
			},
			{
				"x": -1.5619665228,
				"y": -0.5330691129,
				"z": 1.3524158145,
				"element": "H" 
			},
			{
				"x": -1.5422706256,
				"y": -1.0765055547,
				"z": 3.7585622235,
				"element": "H" 
			},
			{
				"x": -0.4484124815,
				"y": 0.4589413188,
				"z": 5.3817472885,
				"element": "H" 
			},
			{
				"x": 0.622495208,
				"y": 2.5511850748,
				"z": 4.5652693323,
				"element": "H" 
			},
			{
				"x": 0.6006667362,
				"y": 3.0964454094,
				"z": 2.1533441477,
				"element": "H" 
			},
			{
				"x": 1.1838986245,
				"y": -0.9078307049,
				"z": 0.1509295449,
				"element": "H" 
			},
			{
				"x": -1.1852677181,
				"y": 0.2802997887,
				"z": -2.4157061534,
				"element": "H" 
			},
			{
				"x": -1.9031362957,
				"y": -1.3617523822,
				"z": -2.4570842308,
				"element": "H" 
			}
		],
		 "valence_orbital": [ 
			{
				"type": "occ",
				"energy": -0.28381,
				"method": "rhf"
			},
			{
				"type": "occ",
				"energy": -0.26815,
				"method": "rhf"
			},
			{
				"type": "occ",
				"energy": -0.26191,
				"method": "rhf"
			},
			{
				"type": "occ",
				"energy": -0.25749,
				"method": "rhf"
			},
			{
				"type": "occ",
				"energy": -0.24574,
				"method": "rhf"
			},
			{
				"type": "unocc",
				"energy": -0.03928,
				"method": "rhf"
			},
			{
				"type": "unocc",
				"energy": -0.03273,
				"method": "rhf"
			},
			{
				"type": "unocc",
				"energy": -0.01053,
				"method": "rhf"
			},
			{
				"type": "unocc",
				"energy": -0.00944,
				"method": "rhf"
			},
			{
				"type": "unocc",
				"energy": 0.05156,
				"method": "rhf"
			}
		],
		"cosmo_sigma_profile": { 
			"-0.025": 0.0,
			"-0.024": 0.0,
			"-0.023": 0.0,
			"-0.022": 0.0,
			"-0.021": 0.0,
			"-0.02": 0.0,
			"-0.019": 0.0,
			"-0.018": 0.0,
			"-0.017": 0.0,
			"-0.016": 0.0,
			"-0.015": 0.000781895301491,
			"-0.014": 0.546819977216,
			"-0.013": 1.03492943762,
			"-0.012": 1.31820417535,
			"-0.011": 0.540726522226,
			"-0.01": 0.88866353623,
			"-0.009": 4.14551787206,
			"-0.008": 8.27719767708,
			"-0.007": 9.75280259221,
			"-0.006": 13.9465665016,
			"-0.005": 21.4465795246,
			"-0.004": 20.5548676689,
			"-0.003": 22.1903989148,
			"-0.002": 18.4967657801,
			"-0.001": 19.3126329735,
			"0.0": 15.278085267,
			"0.001": 14.5912560863,
			"0.002": 16.4378738163,
			"0.003": 15.7351497403,
			"0.004": 15.6995308336,
			"0.005": 17.7319939923,
			"0.006": 11.9959981648,
			"0.007": 3.0914742783,
			"0.008": 3.1646410351,
			"0.009": 3.4136392732,
			"0.01": 3.3796453307,
			"0.011": 5.37579664467,
			"0.012": 5.76482410073,
			"0.013": 4.3046338685,
			"0.014": 0.43511774742,
			"0.015": 0.0,
			"0.016": 0.0,
			"0.017": 0.0,
			"0.018": 0.0,
			"0.019": 0.0,
			"0.02": 0.0,
			"0.021": 0.0,
			"0.022": 0.0,
			"0.023": 0.0,
			"0.024": 0.0,
			"0.025": 0.0
		}
	}
}
