{
	 "smiles": "N#CC1=CN=C(OCC2CC2)C=C1", 
	 "Tm": 327.15, 
	 "num_atms": 23, 
	 "gaussian": { 
		 "optdone": 1, 
		 "sigma_profile": "yes", 
		 "theory": "DFT", 
		 "functional": "B3LYP", 
		 "basiset": "6-31G**", 
		 "properties": { 
			 "R2extent": 3656.0868, 
			 "electric_dipole_moment_norm": 4.67582192347, 
			 "electric_quadrupole_moment_norm": 23.9709718211, 
			 "total_energy": -571.76687196, 
			 "HOMO_LUMO_gap": 0.20044, 
			 "cosmo_polarized_energy": -10.17, 
			 "cosmo_cavitation_energy": 28.4, 
			 "cosmo_dispersion_energy": -19.99, 
			 "cosmo_repulsion_energy": 1.61, 
			 "cosmo_total_nonelectrostatic_energy": 10.02, 
			 "SMD_solvation_energy": 5.62 
		},
		"coords": [
			{
				"x": 2.0829002101,
				"y": 4.5062141767,
				"z": 3.5601005776,
				"element": "N" 
			},
			{
				"x": 1.9142573953,
				"y": 3.6649256964,
				"z": 2.773701229,
				"element": "C" 
			},
			{
				"x": 1.7051316651,
				"y": 2.6322184417,
				"z": 1.8084373439,
				"element": "C" 
			},
			{
				"x": 0.4103643366,
				"y": 2.2127526298,
				"z": 1.4796106816,
				"element": "C" 
			},
			{
				"x": 0.150596882,
				"y": 1.2514586281,
				"z": 0.5896868059,
				"element": "N" 
			},
			{
				"x": 1.1830573247,
				"y": 0.6660622478,
				"z": -0.0187310787,
				"element": "C" 
			},
			{
				"x": 0.9694157564,
				"y": -0.2958122809,
				"z": -0.928294413,
				"element": "O" 
			},
			{
				"x": -0.3974369339,
				"y": -0.6737381602,
				"z": -1.2358673711,
				"element": "C" 
			},
			{
				"x": -0.9809810289,
				"y": -1.6214262726,
				"z": -0.2223158456,
				"element": "C" 
			},
			{
				"x": -0.5580913115,
				"y": -3.0700528098,
				"z": -0.2203450528,
				"element": "C" 
			},
			{
				"x": -1.9376521227,
				"y": -2.6928986519,
				"z": -0.6954425064,
				"element": "C" 
			},
			{
				"x": 2.5294688693,
				"y": 1.0076929796,
				"z": 0.2338818582,
				"element": "C" 
			},
			{
				"x": 2.7870563668,
				"y": 1.9994073578,
				"z": 1.1568558185,
				"element": "C" 
			},
			{
				"x": -0.4490646145,
				"y": 2.6744438944,
				"z": 1.9600377466,
				"element": "H" 
			},
			{
				"x": -1.0036237282,
				"y": 0.231087211,
				"z": -1.3267794258,
				"element": "H" 
			},
			{
				"x": -0.3159769583,
				"y": -1.1554027917,
				"z": -2.2140212422,
				"element": "H" 
			},
			{
				"x": -1.1945792402,
				"y": -1.1677184594,
				"z": 0.7409214169,
				"element": "H" 
			},
			{
				"x": -0.4591834252,
				"y": -3.5709353968,
				"z": 0.7375867118,
				"element": "H" 
			},
			{
				"x": 0.1684317631,
				"y": -3.3865805287,
				"z": -0.9635444906,
				"element": "H" 
			},
			{
				"x": -2.1460954053,
				"y": -2.7589505321,
				"z": -1.7600234869,
				"element": "H" 
			},
			{
				"x": -2.7891118042,
				"y": -2.9272732409,
				"z": -0.0645076938,
				"element": "H" 
			},
			{
				"x": 3.3205734279,
				"y": 0.4913473585,
				"z": -0.2967647008,
				"element": "H" 
			},
			{
				"x": 3.8054425756,
				"y": 2.2965785032,
				"z": 1.3844171175,
				"element": "H" 
			}
		],
		 "valence_orbital": [ 
			{
				"type": "occ",
				"energy": -0.30771,
				"method": "rhf"
			},
			{
				"type": "occ",
				"energy": -0.30278,
				"method": "rhf"
			},
			{
				"type": "occ",
				"energy": -0.29695,
				"method": "rhf"
			},
			{
				"type": "occ",
				"energy": -0.28234,
				"method": "rhf"
			},
			{
				"type": "occ",
				"energy": -0.24671,
				"method": "rhf"
			},
			{
				"type": "unocc",
				"energy": -0.04627,
				"method": "rhf"
			},
			{
				"type": "unocc",
				"energy": -0.04227,
				"method": "rhf"
			},
			{
				"type": "unocc",
				"energy": 0.03325,
				"method": "rhf"
			},
			{
				"type": "unocc",
				"energy": 0.07545,
				"method": "rhf"
			},
			{
				"type": "unocc",
				"energy": 0.08541,
				"method": "rhf"
			}
		],
		"cosmo_sigma_profile": { 
			"-0.025": 0.0,
			"-0.024": 0.0,
			"-0.023": 0.0,
			"-0.022": 0.0,
			"-0.021": 0.0,
			"-0.02": 0.0,
			"-0.019": 0.0,
			"-0.018": 0.0,
			"-0.017": 0.0,
			"-0.016": 0.0,
			"-0.015": 0.0,
			"-0.014": 0.0,
			"-0.013": 0.0,
			"-0.012": 0.0,
			"-0.011": 0.0,
			"-0.01": 0.0165160290935,
			"-0.009": 2.0944201196,
			"-0.008": 6.06620311769,
			"-0.007": 6.8499952745,
			"-0.006": 9.31585822304,
			"-0.005": 13.7335454989,
			"-0.004": 16.7887992011,
			"-0.003": 18.498272712,
			"-0.002": 20.2627741583,
			"-0.001": 23.9401303852,
			"0.0": 23.8899293652,
			"0.001": 15.6849313423,
			"0.002": 10.8673079027,
			"0.003": 10.7450677786,
			"0.004": 8.46024876776,
			"0.005": 7.45778207286,
			"0.006": 5.47759285377,
			"0.007": 5.61817304252,
			"0.008": 5.53848194091,
			"0.009": 5.08289667759,
			"0.01": 3.81826299656,
			"0.011": 3.1839071116,
			"0.012": 2.34030267025,
			"0.013": 1.67983683964,
			"0.014": 0.102590998307,
			"0.015": 0.0,
			"0.016": 0.0,
			"0.017": 0.0,
			"0.018": 0.0,
			"0.019": 0.0,
			"0.02": 0.0,
			"0.021": 0.0,
			"0.022": 0.0,
			"0.023": 0.0,
			"0.024": 0.0,
			"0.025": 0.0
		}
	}
}
