{
	 "smiles": "CN1C2=C(C=CC=C2)N=C1C1=CC(C)=NNC1=O", 
	 "Tm": 608.15, 
	 "num_atms": 30, 
	 "gaussian": { 
		 "optdone": 1, 
		 "sigma_profile": "yes", 
		 "theory": "DFT", 
		 "functional": "B3LYP", 
		 "basiset": "6-31G**", 
		 "properties": { 
			 "R2extent": 5579.9172, 
			 "electric_dipole_moment_norm": 2.46903984982, 
			 "electric_quadrupole_moment_norm": 8.3440720197, 
			 "total_energy": -796.848868816, 
			 "HOMO_LUMO_gap": 0.13856, 
			 "cosmo_polarized_energy": -14.95, 
			 "cosmo_cavitation_energy": 33.95, 
			 "cosmo_dispersion_energy": -25.0, 
			 "cosmo_repulsion_energy": 1.9, 
			 "cosmo_total_nonelectrostatic_energy": 10.85, 
			 "SMD_solvation_energy": 3.63 
		},
		"coords": [
			{
				"x": -1.9951404352,
				"y": 1.245462217,
				"z": -2.5215574207,
				"element": "C" 
			},
			{
				"x": -1.6598753581,
				"y": 0.0427749279,
				"z": -1.7696106848,
				"element": "N" 
			},
			{
				"x": -2.1905222981,
				"y": -1.2085856562,
				"z": -2.0273659785,
				"element": "C" 
			},
			{
				"x": -1.4949941388,
				"y": -2.0998014526,
				"z": -1.1744733841,
				"element": "C" 
			},
			{
				"x": -1.798224803,
				"y": -3.4698751788,
				"z": -1.1935742261,
				"element": "C" 
			},
			{
				"x": -2.7836060311,
				"y": -3.9066997422,
				"z": -2.0694079004,
				"element": "C" 
			},
			{
				"x": -3.4658164619,
				"y": -3.0056103731,
				"z": -2.91598878,
				"element": "C" 
			},
			{
				"x": -3.1843079831,
				"y": -1.6430189533,
				"z": -2.9110616735,
				"element": "C" 
			},
			{
				"x": -0.5717297618,
				"y": -1.4091770088,
				"z": -0.4215835113,
				"element": "N" 
			},
			{
				"x": -0.6995199631,
				"y": -0.1440131528,
				"z": -0.7875466255,
				"element": "C" 
			},
			{
				"x": 0.1437646668,
				"y": 0.9032382292,
				"z": -0.1964394926,
				"element": "C" 
			},
			{
				"x": 1.4240339974,
				"y": 0.5980328582,
				"z": 0.1855746225,
				"element": "C" 
			},
			{
				"x": 2.2606150645,
				"y": 1.555839264,
				"z": 0.8402347329,
				"element": "C" 
			},
			{
				"x": 3.6689790785,
				"y": 1.2139576296,
				"z": 1.2452198241,
				"element": "C" 
			},
			{
				"x": 1.8342099343,
				"y": 2.7666463418,
				"z": 1.1091568332,
				"element": "N" 
			},
			{
				"x": 0.5730540069,
				"y": 3.0487487872,
				"z": 0.7406012841,
				"element": "N" 
			},
			{
				"x": -0.3788351406,
				"y": 2.2352375367,
				"z": 0.1251590282,
				"element": "C" 
			},
			{
				"x": -1.5143221604,
				"y": 2.662751072,
				"z": -0.0754113089,
				"element": "O" 
			},
			{
				"x": -1.1373637225,
				"y": 1.9155252539,
				"z": -2.5536683743,
				"element": "H" 
			},
			{
				"x": -2.8277829119,
				"y": 1.7813691415,
				"z": -2.0636947837,
				"element": "H" 
			},
			{
				"x": -2.2472728104,
				"y": 0.9522873243,
				"z": -3.5437595954,
				"element": "H" 
			},
			{
				"x": -1.2694073887,
				"y": -4.1549818141,
				"z": -0.5388407205,
				"element": "H" 
			},
			{
				"x": -3.0397236723,
				"y": -4.9613609853,
				"z": -2.1068283292,
				"element": "H" 
			},
			{
				"x": -4.2336034769,
				"y": -3.3849913256,
				"z": -3.5838607121,
				"element": "H" 
			},
			{
				"x": -3.7225105643,
				"y": -0.9568003721,
				"z": -3.5571931237,
				"element": "H" 
			},
			{
				"x": 1.801095296,
				"y": -0.4016147063,
				"z": -0.0066007612,
				"element": "H" 
			},
			{
				"x": 3.6826168675,
				"y": 0.3677628861,
				"z": 1.9412195345,
				"element": "H" 
			},
			{
				"x": 4.1354712163,
				"y": 2.0737507367,
				"z": 1.7286734238,
				"element": "H" 
			},
			{
				"x": 4.2717256203,
				"y": 0.9294171462,
				"z": 0.3753774232,
				"element": "H" 
			},
			{
				"x": 0.2501933338,
				"y": 3.9757293687,
				"z": 0.9932506799,
				"element": "H" 
			}
		],
		 "valence_orbital": [ 
			{
				"type": "occ",
				"energy": -0.27158,
				"method": "rhf"
			},
			{
				"type": "occ",
				"energy": -0.2579,
				"method": "rhf"
			},
			{
				"type": "occ",
				"energy": -0.24715,
				"method": "rhf"
			},
			{
				"type": "occ",
				"energy": -0.22291,
				"method": "rhf"
			},
			{
				"type": "occ",
				"energy": -0.21556,
				"method": "rhf"
			},
			{
				"type": "unocc",
				"energy": -0.077,
				"method": "rhf"
			},
			{
				"type": "unocc",
				"energy": -0.01095,
				"method": "rhf"
			},
			{
				"type": "unocc",
				"energy": 0.00167,
				"method": "rhf"
			},
			{
				"type": "unocc",
				"energy": 0.02331,
				"method": "rhf"
			},
			{
				"type": "unocc",
				"energy": 0.05457,
				"method": "rhf"
			}
		],
		"cosmo_sigma_profile": { 
			"-0.025": 0.0,
			"-0.024": 0.0,
			"-0.023": 0.0,
			"-0.022": 0.0,
			"-0.021": 0.0,
			"-0.02": 0.0,
			"-0.019": 0.0,
			"-0.018": 0.0,
			"-0.017": 0.0103660858491,
			"-0.016": 0.881579692227,
			"-0.015": 0.947699102824,
			"-0.014": 1.40938744867,
			"-0.013": 0.520684336713,
			"-0.012": 0.403331619582,
			"-0.011": 0.765112909984,
			"-0.01": 1.2232571573,
			"-0.009": 0.902890201789,
			"-0.008": 1.04958182743,
			"-0.007": 5.83717833164,
			"-0.006": 13.3424626561,
			"-0.005": 22.737511037,
			"-0.004": 24.2119993379,
			"-0.003": 27.1747884492,
			"-0.002": 23.8807692213,
			"-0.001": 23.2091136259,
			"0.0": 16.5772266523,
			"0.001": 13.4178045015,
			"0.002": 11.6404438096,
			"0.003": 13.2552846579,
			"0.004": 13.9362719523,
			"0.005": 14.279615735,
			"0.006": 9.88436112761,
			"0.007": 4.94644294187,
			"0.008": 3.18482316879,
			"0.009": 3.76631292263,
			"0.01": 3.00489442479,
			"0.011": 3.76866483595,
			"0.012": 3.41608462407,
			"0.013": 4.50151872603,
			"0.014": 1.99730758799,
			"0.015": 0.939308623078,
			"0.016": 0.470836936452,
			"0.017": 0.0776296859312,
			"0.018": 0.0,
			"0.019": 0.0,
			"0.02": 0.0,
			"0.021": 0.0,
			"0.022": 0.0,
			"0.023": 0.0,
			"0.024": 0.0,
			"0.025": 0.0
		}
	}
}
