{
	 "smiles": "NC1=CC(I)=C(Br)C=C1", 
	 "Tm": 348.15, 
	 "num_atms": 14, 
	 "gaussian": { 
		 "optdone": 1, 
		 "sigma_profile": "yes", 
		 "theory": "DFT", 
		 "functional": "B3LYP", 
		 "basiset": "6-31G**", 
		 "properties": { 
			 "R2extent": 3140.7713, 
			 "electric_dipole_moment_norm": 4.18592669907, 
			 "electric_quadrupole_moment_norm": 8.85845856174, 
			 "total_energy": -2869.19024812, 
			 "HOMO_LUMO_gap": 0.16753, 
			 "cosmo_polarized_energy": -9.79, 
			 "cosmo_cavitation_energy": 23.34, 
			 "cosmo_dispersion_energy": -19.18, 
			 "cosmo_repulsion_energy": 1.53, 
			 "cosmo_total_nonelectrostatic_energy": 5.69, 
			 "SMD_solvation_energy": 2.05 
		},
		"coords": [
			{
				"x": -2.5060335224,
				"y": -0.018956902,
				"z": 0.1006257741,
				"element": "N" 
			},
			{
				"x": -1.1836097405,
				"y": -0.380875121,
				"z": 0.3349343197,
				"element": "C" 
			},
			{
				"x": -0.8334651229,
				"y": -1.100231026,
				"z": 1.4892954637,
				"element": "C" 
			},
			{
				"x": 0.498332292,
				"y": -1.41845353,
				"z": 1.7612136892,
				"element": "C" 
			},
			{
				"x": 0.8858579629,
				"y": -2.5097965197,
				"z": 3.5324786795,
				"element": "I" 
			},
			{
				"x": 1.5118140172,
				"y": -1.0243040799,
				"z": 0.8804221443,
				"element": "C" 
			},
			{
				"x": 3.355335867,
				"y": -1.4141502091,
				"z": 1.1620844758,
				"element": "Br" 
			},
			{
				"x": 1.1633900919,
				"y": -0.3086700207,
				"z": -0.2696380651,
				"element": "C" 
			},
			{
				"x": -0.1591516505,
				"y": 0.0109477476,
				"z": -0.5440470082,
				"element": "C" 
			},
			{
				"x": -3.2058585627,
				"y": -0.581485254,
				"z": 0.5635343566,
				"element": "H" 
			},
			{
				"x": -2.7432032912,
				"y": 0.1760449558,
				"z": -0.861725635,
				"element": "H" 
			},
			{
				"x": -1.6096065336,
				"y": -1.408373025,
				"z": 2.1817543725,
				"element": "H" 
			},
			{
				"x": 1.9460597674,
				"y": -0.0031149412,
				"z": -0.9549180011,
				"element": "H" 
			},
			{
				"x": -0.4010615745,
				"y": 0.5721179251,
				"z": -1.4424145661,
				"element": "H" 
			}
		],
		 "valence_orbital": [ 
			{
				"type": "occ",
				"energy": -0.29395,
				"method": "rhf"
			},
			{
				"type": "occ",
				"energy": -0.28313,
				"method": "rhf"
			},
			{
				"type": "occ",
				"energy": -0.25694,
				"method": "rhf"
			},
			{
				"type": "occ",
				"energy": -0.24409,
				"method": "rhf"
			},
			{
				"type": "occ",
				"energy": -0.213,
				"method": "rhf"
			},
			{
				"type": "unocc",
				"energy": -0.04547,
				"method": "rhf"
			},
			{
				"type": "unocc",
				"energy": -0.02131,
				"method": "rhf"
			},
			{
				"type": "unocc",
				"energy": -0.00459,
				"method": "rhf"
			},
			{
				"type": "unocc",
				"energy": 0.02076,
				"method": "rhf"
			},
			{
				"type": "unocc",
				"energy": 0.04826,
				"method": "rhf"
			}
		],
		"cosmo_sigma_profile": { 
			"-0.025": 0.0,
			"-0.024": 0.0,
			"-0.023": 0.0,
			"-0.022": 0.0,
			"-0.021": 0.0,
			"-0.02": 0.0,
			"-0.019": 0.0,
			"-0.018": 0.0,
			"-0.017": 0.0,
			"-0.016": 0.0,
			"-0.015": 0.0,
			"-0.014": 0.022899624907,
			"-0.013": 1.97523985348,
			"-0.012": 3.19377939508,
			"-0.011": 3.65700518681,
			"-0.01": 2.97431624705,
			"-0.009": 2.90077959045,
			"-0.008": 4.27142697809,
			"-0.007": 6.42470353546,
			"-0.006": 7.21674209253,
			"-0.005": 7.13690557647,
			"-0.004": 8.11826179067,
			"-0.003": 8.19035166484,
			"-0.002": 8.09558489646,
			"-0.001": 8.3014154851,
			"0.0": 9.212498282,
			"0.001": 13.8915892302,
			"0.002": 19.7728882917,
			"0.003": 25.2708755263,
			"0.004": 30.235790212,
			"0.005": 15.3133645588,
			"0.006": 3.47566441733,
			"0.007": 0.883276313613,
			"0.008": 0.991263768874,
			"0.009": 0.398722679241,
			"0.01": 0.760886281496,
			"0.011": 0.806416781887,
			"0.012": 0.549316599913,
			"0.013": 0.52957753555,
			"0.014": 0.109029658685,
			"0.015": 0.0,
			"0.016": 0.0,
			"0.017": 0.0,
			"0.018": 0.0,
			"0.019": 0.0,
			"0.02": 0.0,
			"0.021": 0.0,
			"0.022": 0.0,
			"0.023": 0.0,
			"0.024": 0.0,
			"0.025": 0.0
		}
	}
}
