{
	 "smiles": "[O-][N+](=O)C1=CC(Cl)=CC=C1F", 
	 "Tm": 281.45, 
	 "num_atms": 14, 
	 "gaussian": { 
		 "optdone": 1, 
		 "sigma_profile": "yes", 
		 "theory": "DFT", 
		 "functional": "B3LYP", 
		 "basiset": "6-31G**", 
		 "properties": { 
			 "R2extent": 2743.2069, 
			 "electric_dipole_moment_norm": 4.14138832398, 
			 "electric_quadrupole_moment_norm": 10.6510107558, 
			 "total_energy": -995.557106935, 
			 "HOMO_LUMO_gap": 0.1697, 
			 "cosmo_polarized_energy": -8.3, 
			 "cosmo_cavitation_energy": 21.8, 
			 "cosmo_dispersion_energy": -16.21, 
			 "cosmo_repulsion_energy": 1.28, 
			 "cosmo_total_nonelectrostatic_energy": 6.88, 
			 "SMD_solvation_energy": 6.23 
		},
		"coords": [
			{
				"x": -1.140988688,
				"y": -2.6115737318,
				"z": -2.3733100928,
				"element": "O" 
			},
			{
				"x": -1.0216463217,
				"y": -2.6584701327,
				"z": -1.1491102808,
				"element": "N" 
			},
			{
				"x": -1.6557275632,
				"y": -3.401190369,
				"z": -0.4071003371,
				"element": "O" 
			},
			{
				"x": -0.0344559106,
				"y": -1.7515700916,
				"z": -0.5399041406,
				"element": "C" 
			},
			{
				"x": 0.760457251,
				"y": -0.9916091676,
				"z": -1.401792681,
				"element": "C" 
			},
			{
				"x": 1.7096019646,
				"y": -0.1272281856,
				"z": -0.8727929807,
				"element": "C" 
			},
			{
				"x": 2.7097758776,
				"y": 0.8224839898,
				"z": -1.950765214,
				"element": "Cl" 
			},
			{
				"x": 1.8754927431,
				"y": -0.0065836555,
				"z": 0.5102788695,
				"element": "C" 
			},
			{
				"x": 1.0787249601,
				"y": -0.7621701538,
				"z": 1.3637641354,
				"element": "C" 
			},
			{
				"x": 0.1240649667,
				"y": -1.6364994467,
				"z": 0.848579566,
				"element": "C" 
			},
			{
				"x": -0.6142765493,
				"y": -2.3295754385,
				"z": 1.7135187073,
				"element": "F" 
			},
			{
				"x": 0.6138461074,
				"y": -1.0971033232,
				"z": -2.4686126259,
				"element": "H" 
			},
			{
				"x": 2.6192714655,
				"y": 0.6722482931,
				"z": 0.9118255815,
				"element": "H" 
			},
			{
				"x": 1.1800596967,
				"y": -0.689158587,
				"z": 2.4408214932,
				"element": "H" 
			}
		],
		 "valence_orbital": [ 
			{
				"type": "occ",
				"energy": -0.31935,
				"method": "rhf"
			},
			{
				"type": "occ",
				"energy": -0.31667,
				"method": "rhf"
			},
			{
				"type": "occ",
				"energy": -0.30609,
				"method": "rhf"
			},
			{
				"type": "occ",
				"energy": -0.29949,
				"method": "rhf"
			},
			{
				"type": "occ",
				"energy": -0.27177,
				"method": "rhf"
			},
			{
				"type": "unocc",
				"energy": -0.10207,
				"method": "rhf"
			},
			{
				"type": "unocc",
				"energy": -0.04268,
				"method": "rhf"
			},
			{
				"type": "unocc",
				"energy": -0.0193,
				"method": "rhf"
			},
			{
				"type": "unocc",
				"energy": 0.00391,
				"method": "rhf"
			},
			{
				"type": "unocc",
				"energy": 0.06888,
				"method": "rhf"
			}
		],
		"cosmo_sigma_profile": { 
			"-0.025": 0.0,
			"-0.024": 0.0,
			"-0.023": 0.0,
			"-0.022": 0.0,
			"-0.021": 0.0,
			"-0.02": 0.0,
			"-0.019": 0.0,
			"-0.018": 0.0,
			"-0.017": 0.0,
			"-0.016": 0.0,
			"-0.015": 0.0,
			"-0.014": 0.0,
			"-0.013": 0.0,
			"-0.012": 0.0,
			"-0.011": 0.0,
			"-0.01": 0.58982065142,
			"-0.009": 4.42622808062,
			"-0.008": 5.69830820221,
			"-0.007": 6.31111165034,
			"-0.006": 6.92047935224,
			"-0.005": 6.89356319498,
			"-0.004": 8.25638958306,
			"-0.003": 14.4935751873,
			"-0.002": 16.7355976095,
			"-0.001": 17.4712802456,
			"0.0": 14.6878026906,
			"0.001": 9.28958994263,
			"0.002": 10.0671969792,
			"0.003": 15.1106147835,
			"0.004": 11.1105108608,
			"0.005": 3.90641760006,
			"0.006": 4.86121556826,
			"0.007": 10.0589000163,
			"0.008": 7.13209948032,
			"0.009": 3.75663956862,
			"0.01": 0.91988234857,
			"0.011": 0.0,
			"0.012": 0.0,
			"0.013": 0.0,
			"0.014": 0.0,
			"0.015": 0.0,
			"0.016": 0.0,
			"0.017": 0.0,
			"0.018": 0.0,
			"0.019": 0.0,
			"0.02": 0.0,
			"0.021": 0.0,
			"0.022": 0.0,
			"0.023": 0.0,
			"0.024": 0.0,
			"0.025": 0.0
		}
	}
}
