{
	 "smiles": "CCCCCCCCC(C)=C", 
	 "Tm": 222.15, 
	 "num_atms": 33, 
	 "gaussian": { 
		 "optdone": 1, 
		 "sigma_profile": "yes", 
		 "theory": "DFT", 
		 "functional": "B3LYP", 
		 "basiset": "6-31G**", 
		 "properties": { 
			 "R2extent": 3337.9956, 
			 "electric_dipole_moment_norm": 0.426537524727, 
			 "electric_quadrupole_moment_norm": 2.69653900769, 
			 "total_energy": -432.436335642, 
			 "HOMO_LUMO_gap": 0.26796, 
			 "cosmo_polarized_energy": -1.83, 
			 "cosmo_cavitation_energy": 33.12, 
			 "cosmo_dispersion_energy": -22.74, 
			 "cosmo_repulsion_energy": 1.89, 
			 "cosmo_total_nonelectrostatic_energy": 12.27, 
			 "SMD_solvation_energy": 5.48 
		},
		"coords": [
			{
				"x": 3.2023718337,
				"y": 0.0679627757,
				"z": 0.1698364452,
				"element": "C" 
			},
			{
				"x": 2.7780648797,
				"y": -1.4035381499,
				"z": 0.0682026942,
				"element": "C" 
			},
			{
				"x": 1.8886038476,
				"y": -1.9139664893,
				"z": 1.2235875392,
				"element": "C" 
			},
			{
				"x": 0.3682938943,
				"y": -1.7646521108,
				"z": 1.0322124638,
				"element": "C" 
			},
			{
				"x": -0.1715333468,
				"y": -0.3300147798,
				"z": 0.9435192388,
				"element": "C" 
			},
			{
				"x": -1.7063093954,
				"y": -0.2780428257,
				"z": 0.9038650166,
				"element": "C" 
			},
			{
				"x": -2.2955397103,
				"y": 1.1440732696,
				"z": 0.8597178068,
				"element": "C" 
			},
			{
				"x": -2.054949151,
				"y": 1.9223351397,
				"z": -0.4437313594,
				"element": "C" 
			},
			{
				"x": -2.8044646712,
				"y": 1.4738563165,
				"z": -1.685644719,
				"element": "C" 
			},
			{
				"x": -2.3341339972,
				"y": 2.1223033736,
				"z": -2.9661129563,
				"element": "C" 
			},
			{
				"x": -3.8224129878,
				"y": 0.6067137163,
				"z": -1.6813741606,
				"element": "C" 
			},
			{
				"x": 3.7609341197,
				"y": 0.2479709892,
				"z": 1.0957103406,
				"element": "H" 
			},
			{
				"x": 2.3468170771,
				"y": 0.7492240509,
				"z": 0.1668847502,
				"element": "H" 
			},
			{
				"x": 3.8516592146,
				"y": 0.3484059586,
				"z": -0.6668150299,
				"element": "H" 
			},
			{
				"x": 3.6885770062,
				"y": -2.0149011252,
				"z": 0.031130549,
				"element": "H" 
			},
			{
				"x": 2.2657066408,
				"y": -1.5773787835,
				"z": -0.8882329183,
				"element": "H" 
			},
			{
				"x": 2.1903367151,
				"y": -1.4200408507,
				"z": 2.1584651374,
				"element": "H" 
			},
			{
				"x": 2.0923660518,
				"y": -2.9818601456,
				"z": 1.3734813821,
				"element": "H" 
			},
			{
				"x": 0.0691520899,
				"y": -2.3142161804,
				"z": 0.1279874524,
				"element": "H" 
			},
			{
				"x": -0.1316724117,
				"y": -2.2728122386,
				"z": 1.8688643072,
				"element": "H" 
			},
			{
				"x": 0.2358184144,
				"y": 0.159370534,
				"z": 0.0510772971,
				"element": "H" 
			},
			{
				"x": 0.1890915611,
				"y": 0.2507333618,
				"z": 1.8052404483,
				"element": "H" 
			},
			{
				"x": -2.0955537825,
				"y": -0.7879667344,
				"z": 1.7957412897,
				"element": "H" 
			},
			{
				"x": -2.0652948142,
				"y": -0.8539134986,
				"z": 0.0420809164,
				"element": "H" 
			},
			{
				"x": -1.8683171823,
				"y": 1.7257079714,
				"z": 1.6874892402,
				"element": "H" 
			},
			{
				"x": -3.3736645518,
				"y": 1.0984599581,
				"z": 1.0567476061,
				"element": "H" 
			},
			{
				"x": -2.305967378,
				"y": 2.9809135478,
				"z": -0.2747511581,
				"element": "H" 
			},
			{
				"x": -0.9801794543,
				"y": 1.9312872946,
				"z": -0.6749084467,
				"element": "H" 
			},
			{
				"x": -1.2867505157,
				"y": 1.8677149701,
				"z": -3.1748453155,
				"element": "H" 
			},
			{
				"x": -2.9370021318,
				"y": 1.8142114081,
				"z": -3.8244976277,
				"element": "H" 
			},
			{
				"x": -2.3783122208,
				"y": 3.2170523298,
				"z": -2.8933727099,
				"element": "H" 
			},
			{
				"x": -4.180977743,
				"y": 0.1294377713,
				"z": -0.7755385434,
				"element": "H" 
			},
			{
				"x": -4.3401579003,
				"y": 0.3451691754,
				"z": -2.6001169764,
				"element": "H" 
			}
		],
		 "valence_orbital": [ 
			{
				"type": "occ",
				"energy": -0.31537,
				"method": "rhf"
			},
			{
				"type": "occ",
				"energy": -0.30936,
				"method": "rhf"
			},
			{
				"type": "occ",
				"energy": -0.30383,
				"method": "rhf"
			},
			{
				"type": "occ",
				"energy": -0.29594,
				"method": "rhf"
			},
			{
				"type": "occ",
				"energy": -0.23845,
				"method": "rhf"
			},
			{
				"type": "unocc",
				"energy": 0.02951,
				"method": "rhf"
			},
			{
				"type": "unocc",
				"energy": 0.08213,
				"method": "rhf"
			},
			{
				"type": "unocc",
				"energy": 0.09675,
				"method": "rhf"
			},
			{
				"type": "unocc",
				"energy": 0.10635,
				"method": "rhf"
			},
			{
				"type": "unocc",
				"energy": 0.12157,
				"method": "rhf"
			}
		],
		"cosmo_sigma_profile": { 
			"-0.025": 0.0,
			"-0.024": 0.0,
			"-0.023": 0.0,
			"-0.022": 0.0,
			"-0.021": 0.0,
			"-0.02": 0.0,
			"-0.019": 0.0,
			"-0.018": 0.0,
			"-0.017": 0.0,
			"-0.016": 0.0,
			"-0.015": 0.0,
			"-0.014": 0.0,
			"-0.013": 0.0,
			"-0.012": 0.0,
			"-0.011": 0.0,
			"-0.01": 0.0,
			"-0.009": 0.0,
			"-0.008": 0.0,
			"-0.007": 0.0,
			"-0.006": 0.0,
			"-0.005": 0.0,
			"-0.004": 3.08338071512,
			"-0.003": 17.5516121477,
			"-0.002": 32.7042532562,
			"-0.001": 51.5665477012,
			"0.0": 59.9284182497,
			"0.001": 48.84318652,
			"0.002": 22.665288144,
			"0.003": 5.44786936284,
			"0.004": 3.46863332795,
			"0.005": 3.25678053459,
			"0.006": 3.0209845931,
			"0.007": 2.35160177723,
			"0.008": 0.775414841353,
			"0.009": 0.0,
			"0.01": 0.0,
			"0.011": 0.0,
			"0.012": 0.0,
			"0.013": 0.0,
			"0.014": 0.0,
			"0.015": 0.0,
			"0.016": 0.0,
			"0.017": 0.0,
			"0.018": 0.0,
			"0.019": 0.0,
			"0.02": 0.0,
			"0.021": 0.0,
			"0.022": 0.0,
			"0.023": 0.0,
			"0.024": 0.0,
			"0.025": 0.0
		}
	}
}
