{
	 "smiles": "ClC1=NC2=C(C=CC=C2)N=C1", 
	 "Tm": 321.65, 
	 "num_atms": 16, 
	 "gaussian": { 
		 "optdone": 1, 
		 "sigma_profile": "yes", 
		 "theory": "DFT", 
		 "functional": "B3LYP", 
		 "basiset": "6-31G**", 
		 "properties": { 
			 "R2extent": 3196.1726, 
			 "electric_dipole_moment_norm": 2.46920100842, 
			 "electric_quadrupole_moment_norm": 10.9057154456, 
			 "total_energy": -877.558142146, 
			 "HOMO_LUMO_gap": 0.17325, 
			 "cosmo_polarized_energy": -6.22, 
			 "cosmo_cavitation_energy": 22.39, 
			 "cosmo_dispersion_energy": -17.16, 
			 "cosmo_repulsion_energy": 1.36, 
			 "cosmo_total_nonelectrostatic_energy": 6.59, 
			 "SMD_solvation_energy": 0.49 
		},
		"coords": [
			{
				"x": 3.2810847591,
				"y": 3.3305031211,
				"z": -1.4143674262,
				"element": "Cl" 
			},
			{
				"x": 2.347708975,
				"y": 1.9094029511,
				"z": -0.9612238731,
				"element": "C" 
			},
			{
				"x": 2.6487575264,
				"y": 0.7712097127,
				"z": -1.5080456225,
				"element": "N" 
			},
			{
				"x": 1.8961564909,
				"y": -0.3044992223,
				"z": -1.1252826156,
				"element": "C" 
			},
			{
				"x": 0.841468351,
				"y": -0.1541900135,
				"z": -0.1727854319,
				"element": "C" 
			},
			{
				"x": 0.0777542577,
				"y": -1.2861476017,
				"z": 0.2054684676,
				"element": "C" 
			},
			{
				"x": 0.3578551882,
				"y": -2.5171226104,
				"z": -0.3464563523,
				"element": "C" 
			},
			{
				"x": 1.4049119797,
				"y": -2.6641092767,
				"z": -1.2914892043,
				"element": "C" 
			},
			{
				"x": 2.1640408669,
				"y": -1.5808257832,
				"z": -1.6779877715,
				"element": "C" 
			},
			{
				"x": 0.5614873612,
				"y": 1.065520152,
				"z": 0.3762521362,
				"element": "N" 
			},
			{
				"x": 1.2980979191,
				"y": 2.0798801946,
				"z": -0.0080185901,
				"element": "C" 
			},
			{
				"x": -0.7172351476,
				"y": -1.1452275891,
				"z": 0.9303791884,
				"element": "H" 
			},
			{
				"x": -0.2253225536,
				"y": -3.3867315904,
				"z": -0.0589227328,
				"element": "H" 
			},
			{
				"x": 1.6069550845,
				"y": -3.6443637782,
				"z": -1.7127838437,
				"element": "H" 
			},
			{
				"x": 2.9702095459,
				"y": -1.667286359,
				"z": -2.3989074644,
				"element": "H" 
			},
			{
				"x": 1.0956693956,
				"y": 3.0611876929,
				"z": 0.4138711361,
				"element": "H" 
			}
		],
		 "valence_orbital": [ 
			{
				"type": "occ",
				"energy": -0.326,
				"method": "rhf"
			},
			{
				"type": "occ",
				"energy": -0.31476,
				"method": "rhf"
			},
			{
				"type": "occ",
				"energy": -0.26513,
				"method": "rhf"
			},
			{
				"type": "occ",
				"energy": -0.26435,
				"method": "rhf"
			},
			{
				"type": "occ",
				"energy": -0.25465,
				"method": "rhf"
			},
			{
				"type": "unocc",
				"energy": -0.0814,
				"method": "rhf"
			},
			{
				"type": "unocc",
				"energy": -0.03671,
				"method": "rhf"
			},
			{
				"type": "unocc",
				"energy": -0.00197,
				"method": "rhf"
			},
			{
				"type": "unocc",
				"energy": 0.0284,
				"method": "rhf"
			},
			{
				"type": "unocc",
				"energy": 0.0667,
				"method": "rhf"
			}
		],
		"cosmo_sigma_profile": { 
			"-0.025": 0.0,
			"-0.024": 0.0,
			"-0.023": 0.0,
			"-0.022": 0.0,
			"-0.021": 0.0,
			"-0.02": 0.0,
			"-0.019": 0.0,
			"-0.018": 0.0,
			"-0.017": 0.0,
			"-0.016": 0.0,
			"-0.015": 0.0,
			"-0.014": 0.0,
			"-0.013": 0.0,
			"-0.012": 0.0,
			"-0.011": 0.0,
			"-0.01": 0.0,
			"-0.009": 0.799871974844,
			"-0.008": 1.90208887849,
			"-0.007": 7.31774547423,
			"-0.006": 10.3548661179,
			"-0.005": 10.7741594922,
			"-0.004": 11.2031523867,
			"-0.003": 15.2891036429,
			"-0.002": 12.6061833998,
			"-0.001": 11.647706308,
			"0.0": 15.0477466439,
			"0.001": 18.9507852399,
			"0.002": 19.5533152787,
			"0.003": 17.8035033482,
			"0.004": 10.3240464632,
			"0.005": 4.73171893128,
			"0.006": 2.71585974047,
			"0.007": 2.22819348797,
			"0.008": 2.21931658109,
			"0.009": 2.05349201982,
			"0.01": 1.62266362156,
			"0.011": 2.06747247083,
			"0.012": 1.30559991496,
			"0.013": 0.829412734331,
			"0.014": 0.403305825627,
			"0.015": 0.0,
			"0.016": 0.0,
			"0.017": 0.0,
			"0.018": 0.0,
			"0.019": 0.0,
			"0.02": 0.0,
			"0.021": 0.0,
			"0.022": 0.0,
			"0.023": 0.0,
			"0.024": 0.0,
			"0.025": 0.0
		}
	}
}
