{
	 "smiles": "COC1=CC=C(C=C1)C1=CSC(C)=N1", 
	 "Tm": 329.15, 
	 "num_atms": 25, 
	 "gaussian": { 
		 "optdone": 1, 
		 "sigma_profile": "yes", 
		 "theory": "DFT", 
		 "functional": "B3LYP", 
		 "basiset": "6-31G**", 
		 "properties": { 
			 "R2extent": 4873.7393, 
			 "electric_dipole_moment_norm": 1.52850006869, 
			 "electric_quadrupole_moment_norm": 15.9304465515, 
			 "total_energy": -953.955801923, 
			 "HOMO_LUMO_gap": 0.16814, 
			 "cosmo_polarized_energy": -9.14, 
			 "cosmo_cavitation_energy": 30.52, 
			 "cosmo_dispersion_energy": -23.17, 
			 "cosmo_repulsion_energy": 1.76, 
			 "cosmo_total_nonelectrostatic_energy": 9.12, 
			 "SMD_solvation_energy": 4.7 
		},
		"coords": [
			{
				"x": -3.2216409753,
				"y": -2.9393608141,
				"z": 3.1165721097,
				"element": "C" 
			},
			{
				"x": -2.9974772936,
				"y": -1.594576011,
				"z": 2.7264355364,
				"element": "O" 
			},
			{
				"x": -2.1740844523,
				"y": -1.3584438342,
				"z": 1.6639099388,
				"element": "C" 
			},
			{
				"x": -1.9864228151,
				"y": -0.0114384435,
				"z": 1.3210745787,
				"element": "C" 
			},
			{
				"x": -1.1677137912,
				"y": 0.3331856848,
				"z": 0.2560987376,
				"element": "C" 
			},
			{
				"x": -0.5076212443,
				"y": -0.6511326891,
				"z": -0.5042266837,
				"element": "C" 
			},
			{
				"x": -0.7059200597,
				"y": -1.9918910533,
				"z": -0.1486066066,
				"element": "C" 
			},
			{
				"x": -1.5264362493,
				"y": -2.3528895552,
				"z": 0.919945075,
				"element": "C" 
			},
			{
				"x": 0.3571149964,
				"y": -0.2550389311,
				"z": -1.6310452553,
				"element": "C" 
			},
			{
				"x": 1.0654490027,
				"y": -1.0873697883,
				"z": -2.4620690949,
				"element": "C" 
			},
			{
				"x": 1.9409685033,
				"y": -0.1728889208,
				"z": -3.6438684352,
				"element": "S" 
			},
			{
				"x": 1.2878088897,
				"y": 1.3042221718,
				"z": -2.933813711,
				"element": "C" 
			},
			{
				"x": 1.6298942137,
				"y": 2.6597778001,
				"z": -3.4732139069,
				"element": "C" 
			},
			{
				"x": 0.5023657615,
				"y": 1.0944527561,
				"z": -1.9222523748,
				"element": "N" 
			},
			{
				"x": -2.2899262465,
				"y": -3.4352153852,
				"z": 3.4187223355,
				"element": "H" 
			},
			{
				"x": -3.8980264349,
				"y": -2.8971218663,
				"z": 3.9717837876,
				"element": "H" 
			},
			{
				"x": -3.6923070212,
				"y": -3.5220122239,
				"z": 2.3139159836,
				"element": "H" 
			},
			{
				"x": -2.4951066386,
				"y": 0.7472292921,
				"z": 1.9070957476,
				"element": "H" 
			},
			{
				"x": -1.0241886103,
				"y": 1.3749194131,
				"z": -0.00695908,
				"element": "H" 
			},
			{
				"x": -0.2155848638,
				"y": -2.7824739686,
				"z": -0.7091042903,
				"element": "H" 
			},
			{
				"x": -1.6517742155,
				"y": -3.4019684559,
				"z": 1.1603694883,
				"element": "H" 
			},
			{
				"x": 1.12468007,
				"y": -2.1655003445,
				"z": -2.4514816858,
				"element": "H" 
			},
			{
				"x": 1.1039945454,
				"y": 3.410740656,
				"z": -2.8809062425,
				"element": "H" 
			},
			{
				"x": 1.3293573204,
				"y": 2.7632960274,
				"z": -4.5212104715,
				"element": "H" 
			},
			{
				"x": 2.7058976088,
				"y": 2.8555984835,
				"z": -3.4151654804,
				"element": "H" 
			}
		],
		 "valence_orbital": [ 
			{
				"type": "occ",
				"energy": -0.27936,
				"method": "rhf"
			},
			{
				"type": "occ",
				"energy": -0.26741,
				"method": "rhf"
			},
			{
				"type": "occ",
				"energy": -0.25292,
				"method": "rhf"
			},
			{
				"type": "occ",
				"energy": -0.24706,
				"method": "rhf"
			},
			{
				"type": "occ",
				"energy": -0.1975,
				"method": "rhf"
			},
			{
				"type": "unocc",
				"energy": -0.02936,
				"method": "rhf"
			},
			{
				"type": "unocc",
				"energy": 0.00278,
				"method": "rhf"
			},
			{
				"type": "unocc",
				"energy": 0.00769,
				"method": "rhf"
			},
			{
				"type": "unocc",
				"energy": 0.02156,
				"method": "rhf"
			},
			{
				"type": "unocc",
				"energy": 0.08591,
				"method": "rhf"
			}
		],
		"cosmo_sigma_profile": { 
			"-0.025": 0.0,
			"-0.024": 0.0,
			"-0.023": 0.0,
			"-0.022": 0.0,
			"-0.021": 0.0,
			"-0.02": 0.0,
			"-0.019": 0.0,
			"-0.018": 0.0,
			"-0.017": 0.0,
			"-0.016": 0.0,
			"-0.015": 0.0,
			"-0.014": 0.0,
			"-0.013": 0.0,
			"-0.012": 0.0,
			"-0.011": 0.0,
			"-0.01": 0.0960355962872,
			"-0.009": 1.86157636342,
			"-0.008": 2.30353188272,
			"-0.007": 2.90933889551,
			"-0.006": 11.8636130757,
			"-0.005": 22.068919325,
			"-0.004": 24.6081108529,
			"-0.003": 20.6530026973,
			"-0.002": 17.2462017959,
			"-0.001": 16.6955412738,
			"0.0": 12.8396865022,
			"0.001": 14.2780263419,
			"0.002": 16.3864252834,
			"0.003": 23.3440089988,
			"0.004": 23.2091116626,
			"0.005": 15.3598677107,
			"0.006": 7.13257187915,
			"0.007": 2.98113316092,
			"0.008": 3.0638624135,
			"0.009": 2.37456835443,
			"0.01": 3.07216123569,
			"0.011": 1.71586090637,
			"0.012": 0.0880512098548,
			"0.013": 0.0,
			"0.014": 0.0,
			"0.015": 0.0,
			"0.016": 0.0,
			"0.017": 0.0,
			"0.018": 0.0,
			"0.019": 0.0,
			"0.02": 0.0,
			"0.021": 0.0,
			"0.022": 0.0,
			"0.023": 0.0,
			"0.024": 0.0,
			"0.0": 0.0
		}
	}
}
