{
	 "smiles": "CC(C=CC1=C(C)CCCC1(C)C)=C/C=C/C(/C)=C/C(O)=O", 
	 "Tm": 458.4, 
	 "num_atms": 50, 
	 "gaussian": { 
		 "optdone": 1, 
		 "sigma_profile": "yes", 
		 "theory": "DFT", 
		 "functional": "B3LYP", 
		 "basiset": "6-31G**", 
		 "properties": { 
			 "R2extent": 16219.7221, 
			 "electric_dipole_moment_norm": 3.80719427663, 
			 "electric_quadrupole_moment_norm": 23.1504109596, 
			 "total_energy": -929.430263465, 
			 "HOMO_LUMO_gap": 0.1177, 
			 "cosmo_polarized_energy": -11.9, 
			 "cosmo_cavitation_energy": 50.74, 
			 "cosmo_dispersion_energy": -34.76, 
			 "cosmo_repulsion_energy": 2.69, 
			 "cosmo_total_nonelectrostatic_energy": 18.67, 
			 "SMD_solvation_energy": 9.8 
		},
		"coords": [
			{
				"x": 1.0610882154,
				"y": 0.8318216178,
				"z": -1.7589551274,
				"element": "C" 
			},
			{
				"x": -0.2044328974,
				"y": 0.6763463777,
				"z": -0.9521113112,
				"element": "C" 
			},
			{
				"x": -0.1457627559,
				"y": 0.9193029837,
				"z": 0.4824817261,
				"element": "C" 
			},
			{
				"x": 0.9467942263,
				"y": 1.306448394,
				"z": 1.1816099954,
				"element": "C" 
			},
			{
				"x": 1.0180612618,
				"y": 1.5791002472,
				"z": 2.6289530925,
				"element": "C" 
			},
			{
				"x": 0.5114371017,
				"y": 0.7402500211,
				"z": 3.5690138854,
				"element": "C" 
			},
			{
				"x": -0.161782607,
				"y": -0.5780530235,
				"z": 3.2642438532,
				"element": "C" 
			},
			{
				"x": 0.5785228687,
				"y": 1.0413458779,
				"z": 5.0548092568,
				"element": "C" 
			},
			{
				"x": 1.5908327981,
				"y": 2.1234418876,
				"z": 5.4318130045,
				"element": "C" 
			},
			{
				"x": 1.483920034,
				"y": 3.2921003837,
				"z": 4.456229465,
				"element": "C" 
			},
			{
				"x": 1.7712963911,
				"y": 2.8824825138,
				"z": 2.9934601275,
				"element": "C" 
			},
			{
				"x": 3.2936441971,
				"y": 2.6791205792,
				"z": 2.7943843717,
				"element": "C" 
			},
			{
				"x": 1.3072420965,
				"y": 4.0456345983,
				"z": 2.0871179773,
				"element": "C" 
			},
			{
				"x": -1.4074950067,
				"y": 0.3229356359,
				"z": -1.4970604562,
				"element": "C" 
			},
			{
				"x": -1.70119813,
				"y": 0.0429937697,
				"z": -2.87617413,
				"element": "C" 
			},
			{
				"x": -2.934999606,
				"y": -0.3166562211,
				"z": -3.3163294343,
				"element": "C" 
			},
			{
				"x": -3.3227298991,
				"y": -0.6196052738,
				"z": -4.6959290156,
				"element": "C" 
			},
			{
				"x": -4.5591612949,
				"y": -1.4806610173,
				"z": -4.81056306,
				"element": "C" 
			},
			{
				"x": -2.6030071148,
				"y": -0.1253240196,
				"z": -5.7396289585,
				"element": "C" 
			},
			{
				"x": -2.7385342852,
				"y": -0.3222593648,
				"z": -7.1874889144,
				"element": "C" 
			},
			{
				"x": -3.7315983745,
				"y": -1.1595611146,
				"z": -7.603325504,
				"element": "O" 
			},
			{
				"x": -2.0050309519,
				"y": 0.2201181425,
				"z": -7.9972787417,
				"element": "O" 
			},
			{
				"x": 1.8450916909,
				"y": 0.1651927016,
				"z": -1.3818745506,
				"element": "H" 
			},
			{
				"x": 1.447760971,
				"y": 1.8548707257,
				"z": -1.6804711391,
				"element": "H" 
			},
			{
				"x": 0.918656048,
				"y": 0.6127890091,
				"z": -2.817096785,
				"element": "H" 
			},
			{
				"x": -1.0852964281,
				"y": 0.7919103316,
				"z": 1.0166263486,
				"element": "H" 
			},
			{
				"x": 1.8608940918,
				"y": 1.5048480653,
				"z": 0.6237296669,
				"element": "H" 
			},
			{
				"x": -1.2470980039,
				"y": -0.5185225072,
				"z": 3.4271125037,
				"element": "H" 
			},
			{
				"x": 0.2066914441,
				"y": -1.353261041,
				"z": 3.9475510543,
				"element": "H" 
			},
			{
				"x": 0.0023932679,
				"y": -0.914783643,
				"z": 2.2406258456,
				"element": "H" 
			},
			{
				"x": 0.7954730108,
				"y": 0.112144604,
				"z": 5.5979673974,
				"element": "H" 
			},
			{
				"x": -0.427709101,
				"y": 1.3409720157,
				"z": 5.3907853894,
				"element": "H" 
			},
			{
				"x": 2.6040197351,
				"y": 1.7042040366,
				"z": 5.4092071004,
				"element": "H" 
			},
			{
				"x": 1.4186395508,
				"y": 2.4618844069,
				"z": 6.4600796168,
				"element": "H" 
			},
			{
				"x": 2.1671532187,
				"y": 4.1028575737,
				"z": 4.7389707851,
				"element": "H" 
			},
			{
				"x": 0.468124016,
				"y": 3.7070220114,
				"z": 4.5133489904,
				"element": "H" 
			},
			{
				"x": 3.8329151663,
				"y": 3.6088090363,
				"z": 3.0106939298,
				"element": "H" 
			},
			{
				"x": 3.5341122068,
				"y": 2.3963199311,
				"z": 1.7645190119,
				"element": "H" 
			},
			{
				"x": 3.6870602846,
				"y": 1.896483106,
				"z": 3.4493290362,
				"element": "H" 
			},
			{
				"x": 1.7884334615,
				"y": 4.9795473093,
				"z": 2.3998984548,
				"element": "H" 
			},
			{
				"x": 1.5590549419,
				"y": 3.8786647303,
				"z": 1.0358769873,
				"element": "H" 
			},
			{
				"x": 0.2231269656,
				"y": 4.1856805885,
				"z": 2.1508966347,
				"element": "H" 
			},
			{
				"x": -2.2534452682,
				"y": 0.2425998959,
				"z": -0.8142582291,
				"element": "H" 
			},
			{
				"x": -0.8906723127,
				"y": 0.1044980522,
				"z": -3.5974055085,
				"element": "H" 
			},
			{
				"x": -3.7217699914,
				"y": -0.4389482141,
				"z": -2.5716708577,
				"element": "H" 
			},
			{
				"x": -5.3646489062,
				"y": -1.0427421655,
				"z": -4.2085996872,
				"element": "H" 
			},
			{
				"x": -4.3619294082,
				"y": -2.4744647677,
				"z": -4.3894359242,
				"element": "H" 
			},
			{
				"x": -4.9027618703,
				"y": -1.5987483051,
				"z": -5.8339563098,
				"element": "H" 
			},
			{
				"x": -1.7759194974,
				"y": 0.5438829278,
				"z": -5.5280286702,
				"element": "H" 
			},
			{
				"x": -3.6647555517,
				"y": -1.1575334111,
				"z": -8.5725931941,
				"element": "H" 
			}
		],
		 "valence_orbital": [ 
			{
				"type": "occ",
				"energy": -0.29113,
				"method": "rhf"
			},
			{
				"type": "occ",
				"energy": -0.26552,
				"method": "rhf"
			},
			{
				"type": "occ",
				"energy": -0.26184,
				"method": "rhf"
			},
			{
				"type": "occ",
				"energy": -0.23289,
				"method": "rhf"
			},
			{
				"type": "occ",
				"energy": -0.19395,
				"method": "rhf"
			},
			{
				"type": "unocc",
				"energy": -0.07625,
				"method": "rhf"
			},
			{
				"type": "unocc",
				"energy": -0.01893,
				"method": "rhf"
			},
			{
				"type": "unocc",
				"energy": 0.02407,
				"method": "rhf"
			},
			{
				"type": "unocc",
				"energy": 0.05785,
				"method": "rhf"
			},
			{
				"type": "unocc",
				"energy": 0.07702,
				"method": "rhf"
			}
		],
		"cosmo_sigma_profile": { 
			"-0.025": 0.0,
			"-0.024": 0.0,
			"-0.023": 0.0,
			"-0.022": 0.0,
			"-0.021": 0.0,
			"-0.02": 0.0,
			"-0.019": 0.0,
			"-0.018": 0.0895730704436,
			"-0.017": 1.13894380119,
			"-0.016": 0.103548862628,
			"-0.015": 1.23067121323,
			"-0.014": 0.617036869629,
			"-0.013": 0.825404930362,
			"-0.012": 0.598451761186,
			"-0.011": 0.746481454996,
			"-0.01": 0.491573977221,
			"-0.009": 0.700992086623,
			"-0.008": 0.519751497108,
			"-0.007": 2.4445909501,
			"-0.006": 5.1616446041,
			"-0.005": 15.9795339174,
			"-0.004": 21.3854412121,
			"-0.003": 32.570348739,
			"-0.002": 47.0302393625,
			"-0.001": 53.4068701032,
			"0.0": 54.789829287,
			"0.001": 48.6112750296,
			"0.002": 31.1595095447,
			"0.003": 20.8012852702,
			"0.004": 20.5956894374,
			"0.005": 13.092786501,
			"0.006": 3.96488433728,
			"0.007": 1.92944872333,
			"0.008": 1.69606768576,
			"0.009": 1.70279721929,
			"0.01": 1.19749820799,
			"0.011": 2.02087621517,
			"0.012": 3.98538918396,
			"0.013": 4.85989313802,
			"0.014": 0.941277733177,
			"0.015": 0.000365697245672,
			"0.016": 0.0,
			"0.017": 0.0,
			"0.018": 0.0,
			"0.019": 0.0,
			"0.02": 0.0,
			"0.021": 0.0,
			"0.022": 0.0,
			"0.023": 0.0,
			"0.024": 0.0,
			"0.025": 0.0
		}
	}
}
