{
	 "smiles": "BrC1=C2C=CC=CC2=NC=N1", 
	 "Tm": 368.15, 
	 "num_atms": 16, 
	 "gaussian": { 
		 "optdone": 1, 
		 "sigma_profile": "yes", 
		 "theory": "DFT", 
		 "functional": "B3LYP", 
		 "basiset": "6-31G**", 
		 "properties": { 
			 "R2extent": 3850.8869, 
			 "electric_dipole_moment_norm": 2.98648550976, 
			 "electric_quadrupole_moment_norm": 5.86921644089, 
			 "total_energy": -2988.77307813, 
			 "HOMO_LUMO_gap": 0.1766, 
			 "cosmo_polarized_energy": -6.8, 
			 "cosmo_cavitation_energy": 22.57, 
			 "cosmo_dispersion_energy": -17.59, 
			 "cosmo_repulsion_energy": 1.38, 
			 "cosmo_total_nonelectrostatic_energy": 6.37, 
			 "SMD_solvation_energy": -0.14 
		},
		"coords": [
			{
				"x": 1.2177361087,
				"y": 3.6901340754,
				"z": 1.9329324064,
				"element": "Br" 
			},
			{
				"x": 0.7010835802,
				"y": 1.839400606,
				"z": 1.8035509505,
				"element": "C" 
			},
			{
				"x": -0.1615999198,
				"y": 1.4232837768,
				"z": 0.7492055209,
				"element": "C" 
			},
			{
				"x": -0.7094352125,
				"y": 2.249572452,
				"z": -0.2619143621,
				"element": "C" 
			},
			{
				"x": -1.5328387576,
				"y": 1.7049402634,
				"z": -1.2222175251,
				"element": "C" 
			},
			{
				"x": -1.8389002609,
				"y": 0.3214894856,
				"z": -1.2093826929,
				"element": "C" 
			},
			{
				"x": -1.3198198926,
				"y": -0.5043826378,
				"z": -0.2378219979,
				"element": "C" 
			},
			{
				"x": -0.4685585288,
				"y": 0.024312957,
				"z": 0.765805451,
				"element": "C" 
			},
			{
				"x": 0.0347610977,
				"y": -0.8135665769,
				"z": 1.7195727838,
				"element": "N" 
			},
			{
				"x": 0.8154778197,
				"y": -0.2704484729,
				"z": 2.6217308413,
				"element": "C" 
			},
			{
				"x": 1.1793908613,
				"y": 1.0415012407,
				"z": 2.7104585494,
				"element": "N" 
			},
			{
				"x": -0.4698680861,
				"y": 3.3067831093,
				"z": -0.263918967,
				"element": "H" 
			},
			{
				"x": -1.9528141512,
				"y": 2.3383994534,
				"z": -1.9973778008,
				"element": "H" 
			},
			{
				"x": -2.4904729002,
				"y": -0.0866412856,
				"z": -1.976500899,
				"element": "H" 
			},
			{
				"x": -1.5377335185,
				"y": -1.56642577,
				"z": -0.2045150952,
				"element": "H" 
			},
			{
				"x": 1.2273917606,
				"y": -0.9194526763,
				"z": 3.3908928367,
				"element": "H" 
			}
		],
		 "valence_orbital": [ 
			{
				"type": "occ",
				"energy": -0.29723,
				"method": "rhf"
			},
			{
				"type": "occ",
				"energy": -0.29479,
				"method": "rhf"
			},
			{
				"type": "occ",
				"energy": -0.28084,
				"method": "rhf"
			},
			{
				"type": "occ",
				"energy": -0.26371,
				"method": "rhf"
			},
			{
				"type": "occ",
				"energy": -0.25321,
				"method": "rhf"
			},
			{
				"type": "unocc",
				"energy": -0.07661,
				"method": "rhf"
			},
			{
				"type": "unocc",
				"energy": -0.0426,
				"method": "rhf"
			},
			{
				"type": "unocc",
				"energy": -0.00062,
				"method": "rhf"
			},
			{
				"type": "unocc",
				"energy": 0.00291,
				"method": "rhf"
			},
			{
				"type": "unocc",
				"energy": 0.06512,
				"method": "rhf"
			}
		],
		"cosmo_sigma_profile": { 
			"-0.025": 0.0,
			"-0.024": 0.0,
			"-0.023": 0.0,
			"-0.022": 0.0,
			"-0.021": 0.0,
			"-0.02": 0.0,
			"-0.019": 0.0,
			"-0.018": 0.0,
			"-0.017": 0.0,
			"-0.016": 0.0,
			"-0.015": 0.0,
			"-0.014": 0.0,
			"-0.013": 0.0,
			"-0.012": 0.0,
			"-0.011": 0.0,
			"-0.01": 0.0,
			"-0.009": 0.0485573167876,
			"-0.008": 2.15823677641,
			"-0.007": 8.09697466319,
			"-0.006": 9.81457783315,
			"-0.005": 11.546066771,
			"-0.004": 10.6009104739,
			"-0.003": 11.8038786937,
			"-0.002": 16.1930017337,
			"-0.001": 16.4027046146,
			"0.0": 17.7183476433,
			"0.001": 19.0453266678,
			"0.002": 19.050867863,
			"0.003": 14.4298623989,
			"0.004": 6.98640414586,
			"0.005": 4.3695679461,
			"0.006": 3.30469991178,
			"0.007": 2.94129673874,
			"0.008": 1.68450741236,
			"0.009": 1.91295001492,
			"0.01": 2.20456127837,
			"0.011": 1.78228963711,
			"0.012": 1.73023134648,
			"0.013": 1.35069743174,
			"0.014": 0.880865847304,
			"0.015": 0.207469553719,
			"0.016": 0.0,
			"0.017": 0.0,
			"0.018": 0.0,
			"0.019": 0.0,
			"0.02": 0.0,
			"0.021": 0.0,
			"0.022": 0.0,
			"0.023": 0.0,
			"0.024": 0.0,
			"0.025": 0.0
		}
	}
}
