{
	 "smiles": "CC12CCC(=O)C[C@@H]1CCC1=C2CCC2[C@@H]1CCC2=O", 
	 "Tm": 411.15, 
	 "num_atms": 44, 
	 "gaussian": { 
		 "optdone": 1, 
		 "sigma_profile": "yes", 
		 "theory": "DFT", 
		 "functional": "B3LYP", 
		 "basiset": "6-31G**", 
		 "properties": { 
			 "R2extent": 6628.7865, 
			 "electric_dipole_moment_norm": 2.22398919287, 
			 "electric_quadrupole_moment_norm": 31.7728244338, 
			 "total_energy": -850.837464742, 
			 "HOMO_LUMO_gap": 0.21305, 
			 "cosmo_polarized_energy": -13.73, 
			 "cosmo_cavitation_energy": 40.26, 
			 "cosmo_dispersion_energy": -28.73, 
			 "cosmo_repulsion_energy": 2.17, 
			 "cosmo_total_nonelectrostatic_energy": 13.7, 
			 "SMD_solvation_energy": 6.3 
		},
		"coords": [
			{
				"x": 2.4232293442,
				"y": 1.0477470096,
				"z": -1.3353648003,
				"element": "C" 
			},
			{
				"x": 1.3668667088,
				"y": 1.0188065388,
				"z": -0.1983229823,
				"element": "C" 
			},
			{
				"x": 1.1712277911,
				"y": 2.4583439196,
				"z": 0.3585624645,
				"element": "C" 
			},
			{
				"x": 2.411135799,
				"y": 3.0214288132,
				"z": 1.0868009382,
				"element": "C" 
			},
			{
				"x": 3.0035396634,
				"y": 2.0706654128,
				"z": 2.1162957283,
				"element": "C" 
			},
			{
				"x": 3.3670009292,
				"y": 2.4447244767,
				"z": 3.2155116441,
				"element": "O" 
			},
			{
				"x": 3.1109163746,
				"y": 0.6214122176,
				"z": 1.6689279728,
				"element": "C" 
			},
			{
				"x": 1.8064895892,
				"y": 0.1343969352,
				"z": 1.0074377858,
				"element": "C" 
			},
			{
				"x": 1.8496058927,
				"y": -1.3472467931,
				"z": 0.6351854617,
				"element": "C" 
			},
			{
				"x": 0.4492281039,
				"y": -1.8187077789,
				"z": 0.2394407874,
				"element": "C" 
			},
			{
				"x": -0.3163338615,
				"y": -0.8295257474,
				"z": -0.6197942788,
				"element": "C" 
			},
			{
				"x": 0.0595349319,
				"y": 0.4548218953,
				"z": -0.7986009665,
				"element": "C" 
			},
			{
				"x": -0.7517334267,
				"y": 1.3820431666,
				"z": -1.6959650362,
				"element": "C" 
			},
			{
				"x": -2.2041260246,
				"y": 0.9377787485,
				"z": -1.8782487806,
				"element": "C" 
			},
			{
				"x": -2.263479915,
				"y": -0.537603686,
				"z": -2.302806625,
				"element": "C" 
			},
			{
				"x": -1.5440667815,
				"y": -1.4329066566,
				"z": -1.2771907854,
				"element": "C" 
			},
			{
				"x": -2.6715755017,
				"y": -1.8645589883,
				"z": -0.2876909036,
				"element": "C" 
			},
			{
				"x": -3.9109488657,
				"y": -2.0352718512,
				"z": -1.1786030653,
				"element": "C" 
			},
			{
				"x": -3.7127725861,
				"y": -1.0361245146,
				"z": -2.3228571199,
				"element": "C" 
			},
			{
				"x": -4.5637516779,
				"y": -0.6773152824,
				"z": -3.1081950236,
				"element": "O" 
			},
			{
				"x": 3.392021847,
				"y": 1.4334576955,
				"z": -1.0045072776,
				"element": "H" 
			},
			{
				"x": 2.5860570091,
				"y": 0.0518920147,
				"z": -1.7552178492,
				"element": "H" 
			},
			{
				"x": 2.0829923783,
				"y": 1.6930776857,
				"z": -2.1514661183,
				"element": "H" 
			},
			{
				"x": 0.9128311067,
				"y": 3.1536843901,
				"z": -0.4456169352,
				"element": "H" 
			},
			{
				"x": 0.321221013,
				"y": 2.4530698685,
				"z": 1.0531609501,
				"element": "H" 
			},
			{
				"x": 2.181964542,
				"y": 3.967628372,
				"z": 1.5846157476,
				"element": "H" 
			},
			{
				"x": 3.2029403235,
				"y": 3.2318572006,
				"z": 0.3538834299,
				"element": "H" 
			},
			{
				"x": 3.9500412661,
				"y": 0.5356610712,
				"z": 0.9640076923,
				"element": "H" 
			},
			{
				"x": 3.3601233044,
				"y": 0.0115389972,
				"z": 2.5424242707,
				"element": "H" 
			},
			{
				"x": 1.0120705546,
				"y": 0.2460394082,
				"z": 1.7622448597,
				"element": "H" 
			},
			{
				"x": 2.2226068856,
				"y": -1.9396859995,
				"z": 1.4791029624,
				"element": "H" 
			},
			{
				"x": 2.5546531707,
				"y": -1.5076421395,
				"z": -0.1896428677,
				"element": "H" 
			},
			{
				"x": -0.1359603214,
				"y": -2.0217092989,
				"z": 1.149345019,
				"element": "H" 
			},
			{
				"x": 0.50617144,
				"y": -2.7821209503,
				"z": -0.2857152209,
				"element": "H" 
			},
			{
				"x": -0.7539945093,
				"y": 2.3979892819,
				"z": -1.2910748948,
				"element": "H" 
			},
			{
				"x": -0.2663745006,
				"y": 1.4598388429,
				"z": -2.6809398226,
				"element": "H" 
			},
			{
				"x": -2.7154513571,
				"y": 1.5559430837,
				"z": -2.6229011677,
				"element": "H" 
			},
			{
				"x": -2.7414402411,
				"y": 1.0734865698,
				"z": -0.9305944265,
				"element": "H" 
			},
			{
				"x": -1.836115844,
				"y": -0.6283368591,
				"z": -3.3083493634,
				"element": "H" 
			},
			{
				"x": -1.2163041032,
				"y": -2.3470246918,
				"z": -1.7965754803,
				"element": "H" 
			},
			{
				"x": -2.4157264017,
				"y": -2.7707310226,
				"z": 0.2675145385,
				"element": "H" 
			},
			{
				"x": -2.8383756482,
				"y": -1.0686027251,
				"z": 0.4474801046,
				"element": "H" 
			},
			{
				"x": -3.9421635564,
				"y": -3.0390193291,
				"z": -1.6253619938,
				"element": "H" 
			},
			{
				"x": -4.8716748451,
				"y": -1.8780993014,
				"z": -0.681138572,
				"element": "H" 
			}
		],
		 "valence_orbital": [ 
			{
				"type": "occ",
				"energy": -0.3058,
				"method": "rhf"
			},
			{
				"type": "occ",
				"energy": -0.29145,
				"method": "rhf"
			},
			{
				"type": "occ",
				"energy": -0.2387,
				"method": "rhf"
			},
			{
				"type": "occ",
				"energy": -0.23527,
				"method": "rhf"
			},
			{
				"type": "occ",
				"energy": -0.23141,
				"method": "rhf"
			},
			{
				"type": "unocc",
				"energy": -0.01836,
				"method": "rhf"
			},
			{
				"type": "unocc",
				"energy": -0.01292,
				"method": "rhf"
			},
			{
				"type": "unocc",
				"energy": 0.01438,
				"method": "rhf"
			},
			{
				"type": "unocc",
				"energy": 0.06922,
				"method": "rhf"
			},
			{
				"type": "unocc",
				"energy": 0.08105,
				"method": "rhf"
			}
		],
		"cosmo_sigma_profile": { 
			"-0.025": 0.0,
			"-0.024": 0.0,
			"-0.023": 0.0,
			"-0.022": 0.0,
			"-0.021": 0.0,
			"-0.02": 0.0,
			"-0.019": 0.0,
			"-0.018": 0.0,
			"-0.017": 0.0,
			"-0.016": 0.0,
			"-0.015": 0.0,
			"-0.014": 0.0,
			"-0.013": 0.0,
			"-0.012": 0.0,
			"-0.011": 0.0,
			"-0.01": 0.0,
			"-0.009": 0.0,
			"-0.008": 0.218347142944,
			"-0.007": 1.39204870346,
			"-0.006": 4.8344947718,
			"-0.005": 12.2119867401,
			"-0.004": 23.4132809355,
			"-0.003": 51.3251935207,
			"-0.002": 56.8175680959,
			"-0.001": 46.861090572,
			"0.0": 32.1642453723,
			"0.001": 18.9802702319,
			"0.002": 7.63945380667,
			"0.003": 6.2386046707,
			"0.004": 4.96757824418,
			"0.005": 3.62143868278,
			"0.006": 4.02303528916,
			"0.007": 3.36372570633,
			"0.008": 1.96642014122,
			"0.009": 4.02002362205,
			"0.01": 3.31181833676,
			"0.011": 5.65666107379,
			"0.012": 9.26380305396,
			"0.013": 6.91992636365,
			"0.014": 1.60960526519,
			"0.015": 0.0,
			"0.016": 0.0,
			"0.017": 0.0,
			"0.018": 0.0,
			"0.019": 0.0,
			"0.02": 0.0,
			"0.021": 0.0,
			"0.022": 0.0,
			"0.023": 0.0,
			"0.024": 0.0,
			"0.025": 0.0
		}
	}
}
