{
	 "smiles": "CN1N(C(=O)C(N)=C1C)C1=CC=C(C)C=C1", 
	 "Tm": 535.15, 
	 "num_atms": 31, 
	 "gaussian": { 
		 "optdone": 1, 
		 "sigma_profile": "yes", 
		 "theory": "DFT", 
		 "functional": "B3LYP", 
		 "basiset": "6-31G**", 
		 "properties": { 
			 "R2extent": 4672.324, 
			 "electric_dipole_moment_norm": 4.09718733401, 
			 "electric_quadrupole_moment_norm": 17.3345704268, 
			 "total_energy": -705.780727509, 
			 "HOMO_LUMO_gap": 0.17636, 
			 "cosmo_polarized_energy": -14.46, 
			 "cosmo_cavitation_energy": 33.78, 
			 "cosmo_dispersion_energy": -24.12, 
			 "cosmo_repulsion_energy": 1.89, 
			 "cosmo_total_nonelectrostatic_energy": 11.54, 
			 "SMD_solvation_energy": 6.2 
		},
		"coords": [
			{
				"x": -2.5307048899,
				"y": -0.8579846461,
				"z": 0.0871279436,
				"element": "C" 
			},
			{
				"x": -1.5141565315,
				"y": -1.3260656807,
				"z": 1.0469050889,
				"element": "N" 
			},
			{
				"x": -0.5459205881,
				"y": -0.3262022579,
				"z": 1.3156893098,
				"element": "N" 
			},
			{
				"x": -0.3830999378,
				"y": -0.1612343436,
				"z": 2.6976716171,
				"element": "C" 
			},
			{
				"x": 0.4322321133,
				"y": 0.5634956556,
				"z": 3.263020582,
				"element": "O" 
			},
			{
				"x": -1.3553124774,
				"y": -1.0690601591,
				"z": 3.3063603035,
				"element": "C" 
			},
			{
				"x": -1.4082224696,
				"y": -1.2206696116,
				"z": 4.693162481,
				"element": "N" 
			},
			{
				"x": -2.0062329388,
				"y": -1.7255603061,
				"z": 2.3136514923,
				"element": "C" 
			},
			{
				"x": -3.0844506757,
				"y": -2.7534155899,
				"z": 2.4151883524,
				"element": "C" 
			},
			{
				"x": 0.4168378012,
				"y": -0.0060784991,
				"z": 0.3268578638,
				"element": "C" 
			},
			{
				"x": 0.6607809862,
				"y": -0.8710983785,
				"z": -0.7469586213,
				"element": "C" 
			},
			{
				"x": 1.6008593073,
				"y": -0.5251183017,
				"z": -1.717375928,
				"element": "C" 
			},
			{
				"x": 2.3282326687,
				"y": 0.6675404554,
				"z": -1.6400455974,
				"element": "C" 
			},
			{
				"x": 3.3322043654,
				"y": 1.0466892246,
				"z": -2.7030726211,
				"element": "C" 
			},
			{
				"x": 2.0816838826,
				"y": 1.5094714421,
				"z": -0.5458495469,
				"element": "C" 
			},
			{
				"x": 1.135049163,
				"y": 1.195081197,
				"z": 0.4245992241,
				"element": "C" 
			},
			{
				"x": -3.0779362675,
				"y": 0.0165209602,
				"z": 0.4651939694,
				"element": "H" 
			},
			{
				"x": -2.0430536951,
				"y": -0.599862753,
				"z": -0.8540593662,
				"element": "H" 
			},
			{
				"x": -3.2297381663,
				"y": -1.6754481423,
				"z": -0.0993592302,
				"element": "H" 
			},
			{
				"x": -2.3373935669,
				"y": -1.1467181501,
				"z": 5.0888464149,
				"element": "H" 
			},
			{
				"x": -0.7820947084,
				"y": -0.5509004991,
				"z": 5.1308547871,
				"element": "H" 
			},
			{
				"x": -4.0873736164,
				"y": -2.3416669341,
				"z": 2.2419829012,
				"element": "H" 
			},
			{
				"x": -2.9269068981,
				"y": -3.5603897211,
				"z": 1.6921238227,
				"element": "H" 
			},
			{
				"x": -3.0721511028,
				"y": -3.1898191747,
				"z": 3.4179642771,
				"element": "H" 
			},
			{
				"x": 0.1335475189,
				"y": -1.8168029434,
				"z": -0.8019225669,
				"element": "H" 
			},
			{
				"x": 1.7796824636,
				"y": -1.208488299,
				"z": -2.5440570797,
				"element": "H" 
			},
			{
				"x": 3.6256924127,
				"y": 0.1800843808,
				"z": -3.3027509108,
				"element": "H" 
			},
			{
				"x": 4.2392753039,
				"y": 1.4742463109,
				"z": -2.2632084843,
				"element": "H" 
			},
			{
				"x": 2.9234274761,
				"y": 1.7977858042,
				"z": -3.3909184677,
				"element": "H" 
			},
			{
				"x": 2.6386819925,
				"y": 2.4386471754,
				"z": -0.4515129553,
				"element": "H" 
			},
			{
				"x": 0.9645610746,
				"y": 1.8502217851,
				"z": 1.2687909449,
				"element": "H" 
			}
		],
		 "valence_orbital": [ 
			{
				"type": "occ",
				"energy": -0.26638,
				"method": "rhf"
			},
			{
				"type": "occ",
				"energy": -0.24913,
				"method": "rhf"
			},
			{
				"type": "occ",
				"energy": -0.24108,
				"method": "rhf"
			},
			{
				"type": "occ",
				"energy": -0.20911,
				"method": "rhf"
			},
			{
				"type": "occ",
				"energy": -0.19294,
				"method": "rhf"
			},
			{
				"type": "unocc",
				"energy": -0.01658,
				"method": "rhf"
			},
			{
				"type": "unocc",
				"energy": 0.0031,
				"method": "rhf"
			},
			{
				"type": "unocc",
				"energy": 0.01852,
				"method": "rhf"
			},
			{
				"type": "unocc",
				"energy": 0.07841,
				"method": "rhf"
			},
			{
				"type": "unocc",
				"energy": 0.0946,
				"method": "rhf"
			}
		],
		"cosmo_sigma_profile": { 
			"-0.025": 0.0,
			"-0.024": 0.0,
			"-0.023": 0.0,
			"-0.022": 0.0,
			"-0.021": 0.0,
			"-0.02": 0.0,
			"-0.019": 0.0,
			"-0.018": 0.0,
			"-0.017": 0.0,
			"-0.016": 0.0,
			"-0.015": 0.0,
			"-0.014": 0.0,
			"-0.013": 0.0586264969368,
			"-0.012": 0.888867049656,
			"-0.011": 1.59143883075,
			"-0.01": 1.59655487779,
			"-0.009": 2.77643452195,
			"-0.008": 2.49657624752,
			"-0.007": 2.1218009747,
			"-0.006": 5.24262117468,
			"-0.005": 18.8470362368,
			"-0.004": 28.6588845066,
			"-0.003": 29.2651872375,
			"-0.002": 27.9409563324,
			"-0.001": 22.90772869,
			"0.0": 21.677846869,
			"0.001": 16.7718822193,
			"0.002": 15.4003588563,
			"0.003": 12.7849257618,
			"0.004": 11.2490968096,
			"0.005": 12.6550620836,
			"0.006": 7.87125892637,
			"0.007": 2.36862412375,
			"0.008": 2.50705223148,
			"0.009": 3.20476553688,
			"0.01": 1.50522507919,
			"0.011": 2.29965377171,
			"0.012": 3.15380793947,
			"0.013": 3.4850813891,
			"0.014": 4.29779871291,
			"0.015": 0.661372659054,
			"0.016": 0.611842337166,
			"0.017": 0.0,
			"0.018": 0.0,
			"0.019": 0.0,
			"0.02": 0.0,
			"0.021": 0.0,
			"0.022": 0.0,
			"0.023": 0.0,
			"0.024": 0.0,
			"0.025": 0.0
		}
	}
}
