{
	 "smiles": "OC(=O)COC1=CC(=CC=C1)C(F)(F)F", 
	 "Tm": 359.15, 
	 "num_atms": 22, 
	 "gaussian": { 
		 "optdone": 1, 
		 "sigma_profile": "yes", 
		 "theory": "DFT", 
		 "functional": "B3LYP", 
		 "basiset": "6-31G**", 
		 "properties": { 
			 "R2extent": 3449.4785, 
			 "electric_dipole_moment_norm": 2.74007652813, 
			 "electric_quadrupole_moment_norm": 4.18755250833, 
			 "total_energy": -872.372546009, 
			 "HOMO_LUMO_gap": 0.20852, 
			 "cosmo_polarized_energy": -11.88, 
			 "cosmo_cavitation_energy": 28.61, 
			 "cosmo_dispersion_energy": -19.77, 
			 "cosmo_repulsion_energy": 1.52, 
			 "cosmo_total_nonelectrostatic_energy": 10.37, 
			 "SMD_solvation_energy": 7.6 
		},
		"coords": [
			{
				"x": 2.9497742436,
				"y": -1.0632817471,
				"z": -1.4409811255,
				"element": "O" 
			},
			{
				"x": 3.2362578716,
				"y": -0.0218985406,
				"z": -0.6398156052,
				"element": "C" 
			},
			{
				"x": 3.9024740072,
				"y": -0.1006521038,
				"z": 0.3672108724,
				"element": "O" 
			},
			{
				"x": 2.6774999744,
				"y": 1.3014751767,
				"z": -1.1573608521,
				"element": "C" 
			},
			{
				"x": 1.6277210696,
				"y": 1.1978429491,
				"z": -2.0948406869,
				"element": "O" 
			},
			{
				"x": 0.3835708507,
				"y": 0.831007957,
				"z": -1.6561116446,
				"element": "C" 
			},
			{
				"x": 0.0710503656,
				"y": 0.5104557446,
				"z": -0.3331143134,
				"element": "C" 
			},
			{
				"x": -1.2465929325,
				"y": 0.1649095346,
				"z": -0.008894311,
				"element": "C" 
			},
			{
				"x": -2.2451478414,
				"y": 0.1348193466,
				"z": -0.9798027258,
				"element": "C" 
			},
			{
				"x": -1.9161872813,
				"y": 0.4560673095,
				"z": -2.2998148873,
				"element": "C" 
			},
			{
				"x": -0.6142303033,
				"y": 0.8011565757,
				"z": -2.6408065002,
				"element": "C" 
			},
			{
				"x": -1.5622120588,
				"y": -0.2427222994,
				"z": 1.406015181,
				"element": "C" 
			},
			{
				"x": -0.7953838382,
				"y": 0.416967473,
				"z": 2.3036805111,
				"element": "F" 
			},
			{
				"x": -2.8535639366,
				"y": -0.0071197568,
				"z": 1.7235506107,
				"element": "F" 
			},
			{
				"x": -1.3431363685,
				"y": -1.5641531499,
				"z": 1.6031542154,
				"element": "F" 
			},
			{
				"x": 3.3577825888,
				"y": -1.8449127197,
				"z": -1.0304401996,
				"element": "H" 
			},
			{
				"x": 3.491880517,
				"y": 1.8116873798,
				"z": -1.6816354989,
				"element": "H" 
			},
			{
				"x": 2.4075314288,
				"y": 1.9121436974,
				"z": -0.2886321334,
				"element": "H" 
			},
			{
				"x": 0.8172299736,
				"y": 0.5273509883,
				"z": 0.4515297041,
				"element": "H" 
			},
			{
				"x": -3.2606832133,
				"y": -0.1281932855,
				"z": -0.7079678668,
				"element": "H" 
			},
			{
				"x": -2.684122799,
				"y": 0.4403576231,
				"z": -3.0670990612,
				"element": "H" 
			},
			{
				"x": -0.3426123181,
				"y": 1.0558918473,
				"z": -3.6597236828,
				"element": "H" 
			}
		],
		 "valence_orbital": [ 
			{
				"type": "occ",
				"energy": -0.34325,
				"method": "rhf"
			},
			{
				"type": "occ",
				"energy": -0.33303,
				"method": "rhf"
			},
			{
				"type": "occ",
				"energy": -0.2907,
				"method": "rhf"
			},
			{
				"type": "occ",
				"energy": -0.27099,
				"method": "rhf"
			},
			{
				"type": "occ",
				"energy": -0.2399,
				"method": "rhf"
			},
			{
				"type": "unocc",
				"energy": -0.03138,
				"method": "rhf"
			},
			{
				"type": "unocc",
				"energy": -0.00839,
				"method": "rhf"
			},
			{
				"type": "unocc",
				"energy": -0.0065,
				"method": "rhf"
			},
			{
				"type": "unocc",
				"energy": 0.06247,
				"method": "rhf"
			},
			{
				"type": "unocc",
				"energy": 0.08473,
				"method": "rhf"
			}
		],
		"cosmo_sigma_profile": { 
			"-0.025": 0.0,
			"-0.024": 0.0,
			"-0.023": 0.0,
			"-0.022": 0.0,
			"-0.021": 0.0,
			"-0.02": 0.0132226110775,
			"-0.019": 0.72450877496,
			"-0.018": 0.900578682416,
			"-0.017": 0.941167479626,
			"-0.016": 0.782015709859,
			"-0.015": 0.340857778285,
			"-0.014": 0.71105663921,
			"-0.013": 0.869703209875,
			"-0.012": 1.01191166422,
			"-0.011": 0.764896983871,
			"-0.01": 1.36854988288,
			"-0.009": 4.54685357205,
			"-0.008": 5.14728176236,
			"-0.007": 8.15775614783,
			"-0.006": 12.6653844305,
			"-0.005": 11.5911761266,
			"-0.004": 10.4621733,
			"-0.003": 9.38854986989,
			"-0.002": 10.2500313714,
			"-0.001": 9.11990616052,
			"0.0": 12.7240516917,
			"0.001": 16.0675490771,
			"0.002": 28.8547020297,
			"0.003": 42.0537196474,
			"0.004": 9.73363126877,
			"0.005": 3.89198857852,
			"0.006": 2.70774330202,
			"0.007": 3.70343048242,
			"0.008": 5.11289058923,
			"0.009": 3.90114864,
			"0.01": 3.11721631216,
			"0.011": 5.24236807783,
			"0.012": 1.96282964719,
			"0.013": 0.00858603440576,
			"0.014": 0.0,
			"0.015": 0.0,
			"0.016": 0.0,
			"0.017": 0.0,
			"0.018": 0.0,
			"0.019": 0.0,
			"0.02": 0.0,
			"0.021": 0.0,
			"0.022": 0.0,
			"0.023": 0.0,
			"0.024": 0.0,
			"0.0": 0.0
		}
	}
}
