{
	 "smiles": "BrCC(=O)C1=CC2=C(OCCO2)C=C1", 
	 "Tm": 389.15, 
	 "num_atms": 23, 
	 "gaussian": { 
		 "optdone": 1, 
		 "sigma_profile": "yes", 
		 "theory": "DFT", 
		 "functional": "B3LYP", 
		 "basiset": "6-31G**", 
		 "properties": { 
			 "R2extent": 5418.8736, 
			 "electric_dipole_moment_norm": 5.07376204211, 
			 "electric_quadrupole_moment_norm": 8.6840343568, 
			 "total_energy": -3183.54349107, 
			 "HOMO_LUMO_gap": 0.15875, 
			 "cosmo_polarized_energy": -11.95, 
			 "cosmo_cavitation_energy": 29.02, 
			 "cosmo_dispersion_energy": -21.98, 
			 "cosmo_repulsion_energy": 1.73, 
			 "cosmo_total_nonelectrostatic_energy": 8.77, 
			 "SMD_solvation_energy": 4.69 
		},
		"coords": [
			{
				"x": 1.5561100097,
				"y": 0.9349836094,
				"z": 4.0906334956,
				"element": "Br" 
			},
			{
				"x": -0.3112933039,
				"y": 0.7437245368,
				"z": 3.4553992206,
				"element": "C" 
			},
			{
				"x": -0.4428859118,
				"y": -0.3991384098,
				"z": 2.4502065947,
				"element": "C" 
			},
			{
				"x": -0.9898200485,
				"y": -1.4287348708,
				"z": 2.8179702341,
				"element": "O" 
			},
			{
				"x": 0.0409355831,
				"y": -0.2195667275,
				"z": 1.0565426738,
				"element": "C" 
			},
			{
				"x": 0.6793924835,
				"y": 0.9494115469,
				"z": 0.6154250948,
				"element": "C" 
			},
			{
				"x": 1.0851310412,
				"y": 1.0739876448,
				"z": -0.7090472409,
				"element": "C" 
			},
			{
				"x": 0.8464975386,
				"y": 0.0250527094,
				"z": -1.6176226381,
				"element": "C" 
			},
			{
				"x": 1.2084938586,
				"y": 0.1108464051,
				"z": -2.931553624,
				"element": "O" 
			},
			{
				"x": 1.5590445568,
				"y": 1.4283724925,
				"z": -3.3668345601,
				"element": "C" 
			},
			{
				"x": 2.4288396635,
				"y": 2.1117665064,
				"z": -2.3251995752,
				"element": "C" 
			},
			{
				"x": 1.7143398564,
				"y": 2.2324357569,
				"z": -1.0951563652,
				"element": "O" 
			},
			{
				"x": 0.2279791562,
				"y": -1.1496878193,
				"z": -1.1759099731,
				"element": "C" 
			},
			{
				"x": -0.1690290518,
				"y": -1.2719995199,
				"z": 0.1467903866,
				"element": "C" 
			},
			{
				"x": -0.5901383501,
				"y": 1.7145956566,
				"z": 3.0468965049,
				"element": "H" 
			},
			{
				"x": -0.9033996952,
				"y": 0.5019439861,
				"z": 4.3341816958,
				"element": "H" 
			},
			{
				"x": 0.9042529222,
				"y": 1.7705936129,
				"z": 1.2862577226,
				"element": "H" 
			},
			{
				"x": 0.6463675633,
				"y": 2.0143023777,
				"z": -3.5372868886,
				"element": "H" 
			},
			{
				"x": 2.0887899736,
				"y": 1.3082742354,
				"z": -4.3148872226,
				"element": "H" 
			},
			{
				"x": 2.6914422591,
				"y": 3.1266810966,
				"z": -2.6330876069,
				"element": "H" 
			},
			{
				"x": 3.3505732976,
				"y": 1.5351857249,
				"z": -2.1679373367,
				"element": "H" 
			},
			{
				"x": 0.0630351171,
				"y": -1.9445275682,
				"z": -1.8959810359,
				"element": "H" 
			},
			{
				"x": -0.6575585193,
				"y": -2.1718029828,
				"z": 0.5027004436,
				"element": "H" 
			}
		],
		 "valence_orbital": [ 
			{
				"type": "occ",
				"energy": -0.28867,
				"method": "rhf"
			},
			{
				"type": "occ",
				"energy": -0.27919,
				"method": "rhf"
			},
			{
				"type": "occ",
				"energy": -0.25254,
				"method": "rhf"
			},
			{
				"type": "occ",
				"energy": -0.24898,
				"method": "rhf"
			},
			{
				"type": "occ",
				"energy": -0.22497,
				"method": "rhf"
			},
			{
				"type": "unocc",
				"energy": -0.06622,
				"method": "rhf"
			},
			{
				"type": "unocc",
				"energy": -0.01051,
				"method": "rhf"
			},
			{
				"type": "unocc",
				"energy": -0.00118,
				"method": "rhf"
			},
			{
				"type": "unocc",
				"energy": 0.05468,
				"method": "rhf"
			},
			{
				"type": "unocc",
				"energy": 0.07518,
				"method": "rhf"
			}
		],
		"cosmo_sigma_profile": { 
			"-0.025": 0.0,
			"-0.024": 0.0,
			"-0.023": 0.0,
			"-0.022": 0.0,
			"-0.021": 0.0,
			"-0.02": 0.0,
			"-0.019": 0.0,
			"-0.018": 0.0,
			"-0.017": 0.0,
			"-0.016": 0.0,
			"-0.015": 0.0,
			"-0.014": 0.0,
			"-0.013": 0.0,
			"-0.012": 0.0,
			"-0.011": 0.0,
			"-0.01": 0.291066979841,
			"-0.009": 2.48106949902,
			"-0.008": 5.4447288093,
			"-0.007": 14.5227842543,
			"-0.006": 20.1904238728,
			"-0.005": 17.4385369457,
			"-0.004": 14.469052767,
			"-0.003": 11.3593088977,
			"-0.002": 9.87015322747,
			"-0.001": 10.2897063705,
			"0.0": 12.4570729745,
			"0.001": 15.733044671,
			"0.002": 22.548682114,
			"0.003": 20.0017966145,
			"0.004": 15.9659404322,
			"0.005": 13.521543433,
			"0.006": 5.01495789254,
			"0.007": 4.05847515986,
			"0.008": 3.73200227107,
			"0.009": 4.53405233298,
			"0.01": 4.29714637771,
			"0.011": 4.07380708275,
			"0.012": 2.12883635307,
			"0.013": 0.248347541142,
			"0.014": 0.0,
			"0.015": 0.0,
			"0.016": 0.0,
			"0.017": 0.0,
			"0.018": 0.0,
			"0.019": 0.0,
			"0.02": 0.0,
			"0.021": 0.0,
			"0.022": 0.0,
			"0.023": 0.0,
			"0.024": 0.0,
			"0.025": 0.0
		}
	}
}
