{
	 "smiles": "COCCN(C(=O)CCl)C1=C(C)C=CC=C1C", 
	 "Tm": 319.45, 
	 "num_atms": 35, 
	 "gaussian": { 
		 "optdone": 1, 
		 "sigma_profile": "yes", 
		 "theory": "DFT", 
		 "functional": "B3LYP", 
		 "basiset": "6-31G**", 
		 "properties": { 
			 "R2extent": 5615.0962, 
			 "electric_dipole_moment_norm": 6.25864379319, 
			 "electric_quadrupole_moment_norm": 22.0820856628, 
			 "total_energy": -1171.62465977, 
			 "HOMO_LUMO_gap": 0.22773, 
			 "cosmo_polarized_energy": -16.8, 
			 "cosmo_cavitation_energy": 37.59, 
			 "cosmo_dispersion_energy": -25.65, 
			 "cosmo_repulsion_energy": 2.02, 
			 "cosmo_total_nonelectrostatic_energy": 13.95, 
			 "SMD_solvation_energy": 7.56 
		},
		"coords": [
			{
				"x": -0.1574050418,
				"y": 1.3375778312,
				"z": 4.2225480597,
				"element": "C" 
			},
			{
				"x": 0.7557409636,
				"y": 0.9406186058,
				"z": 3.2152064274,
				"element": "O" 
			},
			{
				"x": 0.4640966744,
				"y": -0.3325293557,
				"z": 2.6696270745,
				"element": "C" 
			},
			{
				"x": 1.5161767368,
				"y": -0.6815390887,
				"z": 1.6195818274,
				"element": "C" 
			},
			{
				"x": 1.5068527798,
				"y": 0.1773596005,
				"z": 0.4300618462,
				"element": "N" 
			},
			{
				"x": 2.3392502665,
				"y": 1.2683112214,
				"z": 0.2403609528,
				"element": "C" 
			},
			{
				"x": 2.2729191606,
				"y": 1.9677489789,
				"z": -0.753988773,
				"element": "O" 
			},
			{
				"x": 3.3550015017,
				"y": 1.5253220622,
				"z": 1.3678412432,
				"element": "C" 
			},
			{
				"x": 4.3192601211,
				"y": 3.0086437901,
				"z": 1.0807117197,
				"element": "Cl" 
			},
			{
				"x": 0.4884617577,
				"y": -0.0902107806,
				"z": -0.5591408434,
				"element": "C" 
			},
			{
				"x": -0.629627786,
				"y": 0.7616787469,
				"z": -0.6653522308,
				"element": "C" 
			},
			{
				"x": -0.7476573075,
				"y": 2.031166583,
				"z": 0.1414814602,
				"element": "C" 
			},
			{
				"x": -1.6270102853,
				"y": 0.4303994254,
				"z": -1.5904950793,
				"element": "C" 
			},
			{
				"x": -1.5177267396,
				"y": -0.7001698343,
				"z": -2.3959247085,
				"element": "C" 
			},
			{
				"x": -0.3907165964,
				"y": -1.5121323135,
				"z": -2.3002319895,
				"element": "C" 
			},
			{
				"x": 0.631426824,
				"y": -1.2194948677,
				"z": -1.389933151,
				"element": "C" 
			},
			{
				"x": 1.8615049607,
				"y": -2.0960525482,
				"z": -1.339947186,
				"element": "C" 
			},
			{
				"x": -0.1472310604,
				"y": 0.639567712,
				"z": 5.0732627052,
				"element": "H" 
			},
			{
				"x": -1.1846774777,
				"y": 1.4002868314,
				"z": 3.8343185411,
				"element": "H" 
			},
			{
				"x": 0.1527843809,
				"y": 2.3255897974,
				"z": 4.5686385587,
				"element": "H" 
			},
			{
				"x": -0.5403218437,
				"y": -0.3414694359,
				"z": 2.2182249359,
				"element": "H" 
			},
			{
				"x": 0.482988605,
				"y": -1.1051564898,
				"z": 3.45702431,
				"element": "H" 
			},
			{
				"x": 1.3395825189,
				"y": -1.7130279666,
				"z": 1.3005934498,
				"element": "H" 
			},
			{
				"x": 2.5042755224,
				"y": -0.6635028989,
				"z": 2.0840978471,
				"element": "H" 
			},
			{
				"x": 4.0636632444,
				"y": 0.6969779701,
				"z": 1.4447265189,
				"element": "H" 
			},
			{
				"x": 2.8397014376,
				"y": 1.6397144559,
				"z": 2.3217831018,
				"element": "H" 
			},
			{
				"x": -0.1532333673,
				"y": 2.8232595937,
				"z": -0.3270777921,
				"element": "H" 
			},
			{
				"x": -0.3665330227,
				"y": 1.9148589897,
				"z": 1.1592765767,
				"element": "H" 
			},
			{
				"x": -1.7878031383,
				"y": 2.3651620911,
				"z": 0.1903206741,
				"element": "H" 
			},
			{
				"x": -2.4961361813,
				"y": 1.0768807798,
				"z": -1.6789850671,
				"element": "H" 
			},
			{
				"x": -2.3027748733,
				"y": -0.9398796416,
				"z": -3.1075125039,
				"element": "H" 
			},
			{
				"x": -0.2887770555,
				"y": -2.3791820718,
				"z": -2.9476180165,
				"element": "H" 
			},
			{
				"x": 1.9826530854,
				"y": -2.6360679067,
				"z": -2.2826494101,
				"element": "H" 
			},
			{
				"x": 1.8047463403,
				"y": -2.8514500367,
				"z": -0.5450714338,
				"element": "H" 
			},
			{
				"x": 2.7663448949,
				"y": -1.5076598298,
				"z": -1.1659596453,
				"element": "H" 
			}
		],
		 "valence_orbital": [ 
			{
				"type": "occ",
				"energy": -0.27798,
				"method": "rhf"
			},
			{
				"type": "occ",
				"energy": -0.25867,
				"method": "rhf"
			},
			{
				"type": "occ",
				"energy": -0.25229,
				"method": "rhf"
			},
			{
				"type": "occ",
				"energy": -0.23723,
				"method": "rhf"
			},
			{
				"type": "occ",
				"energy": -0.23469,
				"method": "rhf"
			},
			{
				"type": "unocc",
				"energy": -0.00696,
				"method": "rhf"
			},
			{
				"type": "unocc",
				"energy": 0.0013,
				"method": "rhf"
			},
			{
				"type": "unocc",
				"energy": 0.0233,
				"method": "rhf"
			},
			{
				"type": "unocc",
				"energy": 0.03524,
				"method": "rhf"
			},
			{
				"type": "unocc",
				"energy": 0.06836,
				"method": "rhf"
			}
		],
		"cosmo_sigma_profile": { 
			"-0.025": 0.0,
			"-0.024": 0.0,
			"-0.023": 0.0,
			"-0.022": 0.0,
			"-0.021": 0.0,
			"-0.02": 0.0,
			"-0.019": 0.0,
			"-0.018": 0.0,
			"-0.017": 0.0,
			"-0.016": 0.0,
			"-0.015": 0.0,
			"-0.014": 0.0,
			"-0.013": 0.0,
			"-0.012": 0.0,
			"-0.011": 0.0,
			"-0.01": 1.05969168017,
			"-0.009": 3.22553614992,
			"-0.008": 2.48022569908,
			"-0.007": 3.86082036467,
			"-0.006": 7.58262509568,
			"-0.005": 20.8242954402,
			"-0.004": 35.6258645283,
			"-0.003": 33.3203933634,
			"-0.002": 30.765691801,
			"-0.001": 22.6025200049,
			"0.0": 24.4832325148,
			"0.001": 19.6474472859,
			"0.002": 12.0390266648,
			"0.003": 12.5379794766,
			"0.004": 12.8546996714,
			"0.005": 14.8164883279,
			"0.006": 15.3334755835,
			"0.007": 4.38213080877,
			"0.008": 3.37731649142,
			"0.009": 2.14515504153,
			"0.01": 2.1078150929,
			"0.011": 1.95175045502,
			"0.012": 3.16241863019,
			"0.013": 4.3379718493,
			"0.014": 2.86912638805,
			"0.015": 0.654189082538,
			"0.016": 0.0,
			"0.017": 0.0,
			"0.018": 0.0,
			"0.019": 0.0,
			"0.02": 0.0,
			"0.021": 0.0,
			"0.022": 0.0,
			"0.023": 0.0,
			"0.024": 0.0,
			"0.025": 0.0
		}
	}
}
