{
	 "smiles": "NCC1=CC=C(OCC(N)=O)C=C1", 
	 "Tm": 380.15, 
	 "num_atms": 25, 
	 "gaussian": { 
		 "optdone": 1, 
		 "sigma_profile": "yes", 
		 "theory": "DFT", 
		 "functional": "B3LYP", 
		 "basiset": "6-31G**", 
		 "properties": { 
			 "R2extent": 4052.5367, 
			 "electric_dipole_moment_norm": 3.29037626116, 
			 "electric_quadrupole_moment_norm": 22.0476482941, 
			 "total_energy": -610.142756047, 
			 "HOMO_LUMO_gap": 0.2148, 
			 "cosmo_polarized_energy": -15.9, 
			 "cosmo_cavitation_energy": 29.09, 
			 "cosmo_dispersion_energy": -21.43, 
			 "cosmo_repulsion_energy": 1.75, 
			 "cosmo_total_nonelectrostatic_energy": 9.4, 
			 "SMD_solvation_energy": 5.18 
		},
		"coords": [
			{
				"x": 0.5709827368,
				"y": -1.3754755005,
				"z": 4.0540318086,
				"element": "N" 
			},
			{
				"x": 1.4950226251,
				"y": -1.407326971,
				"z": 2.9151132795,
				"element": "C" 
			},
			{
				"x": 0.8816001421,
				"y": -0.7725898205,
				"z": 1.6820612449,
				"element": "C" 
			},
			{
				"x": 1.6515037631,
				"y": -0.0015816848,
				"z": 0.810271163,
				"element": "C" 
			},
			{
				"x": 1.1093459956,
				"y": 0.5585908614,
				"z": -0.3514501765,
				"element": "C" 
			},
			{
				"x": -0.2403625537,
				"y": 0.3490373291,
				"z": -0.644785938,
				"element": "C" 
			},
			{
				"x": -0.8802176579,
				"y": 0.8528335413,
				"z": -1.7502878298,
				"element": "O" 
			},
			{
				"x": -0.1355767654,
				"y": 1.630930398,
				"z": -2.6761309727,
				"element": "C" 
			},
			{
				"x": -1.0198350121,
				"y": 2.0836551155,
				"z": -3.838572078,
				"element": "C" 
			},
			{
				"x": -2.3098592423,
				"y": 1.6692541818,
				"z": -3.7845298797,
				"element": "N" 
			},
			{
				"x": -0.54336723,
				"y": 2.7708516681,
				"z": -4.7297763783,
				"element": "O" 
			},
			{
				"x": -1.0312558806,
				"y": -0.4148107275,
				"z": 0.2247244527,
				"element": "C" 
			},
			{
				"x": -0.4738286589,
				"y": -0.9668296876,
				"z": 1.3707872649,
				"element": "C" 
			},
			{
				"x": 0.9752539218,
				"y": -1.8706157497,
				"z": 4.8445152452,
				"element": "H" 
			},
			{
				"x": 0.4238561407,
				"y": -0.4137756851,
				"z": 4.3516141081,
				"element": "H" 
			},
			{
				"x": 1.7126029605,
				"y": -2.4649395006,
				"z": 2.7095284281,
				"element": "H" 
			},
			{
				"x": 2.4711054711,
				"y": -0.9284657116,
				"z": 3.1073294085,
				"element": "H" 
			},
			{
				"x": 2.7013713763,
				"y": 0.1735043017,
				"z": 1.0341278393,
				"element": "H" 
			},
			{
				"x": 1.7402027732,
				"y": 1.1531160022,
				"z": -1.0015690453,
				"element": "H" 
			},
			{
				"x": 0.7005908721,
				"y": 1.0580065748,
				"z": -3.0973436348,
				"element": "H" 
			},
			{
				"x": 0.2764672696,
				"y": 2.5307506018,
				"z": -2.2014990221,
				"element": "H" 
			},
			{
				"x": -2.6328636224,
				"y": 1.1031805264,
				"z": -3.0162646856,
				"element": "H" 
			},
			{
				"x": -2.9350631203,
				"y": 1.9397066951,
				"z": -4.5273144863,
				"element": "H" 
			},
			{
				"x": -2.0793105323,
				"y": -0.5621168016,
				"z": -0.0171578943,
				"element": "H" 
			},
			{
				"x": -1.087365772,
				"y": -1.5480899567,
				"z": 2.0515777787,
				"element": "H" 
			}
		],
		 "valence_orbital": [ 
			{
				"type": "occ",
				"energy": -0.26622,
				"method": "rhf"
			},
			{
				"type": "occ",
				"energy": -0.25214,
				"method": "rhf"
			},
			{
				"type": "occ",
				"energy": -0.25014,
				"method": "rhf"
			},
			{
				"type": "occ",
				"energy": -0.24069,
				"method": "rhf"
			},
			{
				"type": "occ",
				"energy": -0.21857,
				"method": "rhf"
			},
			{
				"type": "unocc",
				"energy": -0.00377,
				"method": "rhf"
			},
			{
				"type": "unocc",
				"energy": 0.0076,
				"method": "rhf"
			},
			{
				"type": "unocc",
				"energy": 0.03245,
				"method": "rhf"
			},
			{
				"type": "unocc",
				"energy": 0.0847,
				"method": "rhf"
			},
			{
				"type": "unocc",
				"energy": 0.08693,
				"method": "rhf"
			}
		],
		"cosmo_sigma_profile": { 
			"-0.025": 0.0,
			"-0.024": 0.0,
			"-0.023": 0.0,
			"-0.022": 0.0,
			"-0.021": 0.0,
			"-0.02": 0.0,
			"-0.019": 0.0,
			"-0.018": 0.0,
			"-0.017": 0.0,
			"-0.016": 0.0,
			"-0.015": 0.0868335353963,
			"-0.014": 1.07459242441,
			"-0.013": 1.40040859997,
			"-0.012": 2.20909541749,
			"-0.011": 1.59479709729,
			"-0.01": 3.1577981878,
			"-0.009": 4.75781483809,
			"-0.008": 4.22472146083,
			"-0.007": 11.0547931057,
			"-0.006": 11.603544066,
			"-0.005": 13.2552350001,
			"-0.004": 15.2729162429,
			"-0.003": 17.1468509268,
			"-0.002": 17.1099159386,
			"-0.001": 14.5831083849,
			"0.0": 12.1571019281,
			"0.001": 11.2837308438,
			"0.002": 12.2407526138,
			"0.003": 13.1385546572,
			"0.004": 13.1598027028,
			"0.005": 12.4855848084,
			"0.006": 9.70432439529,
			"0.007": 2.11018683684,
			"0.008": 2.33767971323,
			"0.009": 1.91966257076,
			"0.01": 1.55290855775,
			"0.011": 2.03576390362,
			"0.012": 2.84721606148,
			"0.013": 4.53971948154,
			"0.014": 6.30241506408,
			"0.015": 1.68941967372,
			"0.016": 0.867783076977,
			"0.017": 0.1850418125,
			"0.018": 0.0,
			"0.019": 0.0,
			"0.02": 0.0,
			"0.021": 0.0,
			"0.022": 0.0,
			"0.023": 0.0,
			"0.024": 0.0,
			"0.025": 0.0
		}
	}
}
