{
	 "smiles": "O=C1CSC2=C(N1)C=NC=C2", 
	 "Tm": 477.15, 
	 "num_atms": 17, 
	 "gaussian": { 
		 "optdone": 1, 
		 "sigma_profile": "yes", 
		 "theory": "DFT", 
		 "functional": "B3LYP", 
		 "basiset": "6-31G**", 
		 "properties": { 
			 "R2extent": 2428.894, 
			 "electric_dipole_moment_norm": 1.49204528417, 
			 "electric_quadrupole_moment_norm": 10.7843982113, 
			 "total_energy": -853.284067187, 
			 "HOMO_LUMO_gap": 0.18901, 
			 "cosmo_polarized_energy": -13.17, 
			 "cosmo_cavitation_energy": 22.56, 
			 "cosmo_dispersion_energy": -17.65, 
			 "cosmo_repulsion_energy": 1.35, 
			 "cosmo_total_nonelectrostatic_energy": 6.25, 
			 "SMD_solvation_energy": 2.61 
		},
		"coords": [
			{
				"x": -0.9496863848,
				"y": 1.0376125881,
				"z": 3.8169652014,
				"element": "O" 
			},
			{
				"x": -0.3434185267,
				"y": 0.7067827383,
				"z": 2.8129854198,
				"element": "C" 
			},
			{
				"x": 0.6376054752,
				"y": 1.6331816215,
				"z": 2.1078399611,
				"element": "C" 
			},
			{
				"x": 2.1307863996,
				"y": 0.7766417182,
				"z": 1.478670527,
				"element": "S" 
			},
			{
				"x": 1.3125741073,
				"y": -0.5338890072,
				"z": 0.6137053119,
				"element": "C" 
			},
			{
				"x": 0.0782697748,
				"y": -1.0305644375,
				"z": 1.0682157434,
				"element": "C" 
			},
			{
				"x": -0.5509764737,
				"y": -0.5153179083,
				"z": 2.2098879393,
				"element": "N" 
			},
			{
				"x": -0.4997848359,
				"y": -2.1000462719,
				"z": 0.3692661397,
				"element": "C" 
			},
			{
				"x": 0.0590828149,
				"y": -2.6929023063,
				"z": -0.6847565265,
				"element": "N" 
			},
			{
				"x": 1.2393257749,
				"y": -2.2173956057,
				"z": -1.1042434352,
				"element": "C" 
			},
			{
				"x": 1.8931998059,
				"y": -1.1452165732,
				"z": -0.5005810532,
				"element": "C" 
			},
			{
				"x": 0.1289143385,
				"y": 2.1432061897,
				"z": 1.2824613475,
				"element": "H" 
			},
			{
				"x": 0.9702981555,
				"y": 2.3796149289,
				"z": 2.8288256093,
				"element": "H" 
			},
			{
				"x": -1.2813265027,
				"y": -1.0683082856,
				"z": 2.641533521,
				"element": "H" 
			},
			{
				"x": -1.4616092109,
				"y": -2.4929839277,
				"z": 0.7006889232,
				"element": "H" 
			},
			{
				"x": 1.6799334725,
				"y": -2.7091723896,
				"z": -1.9685034369,
				"element": "H" 
			},
			{
				"x": 2.8417118155,
				"y": -0.7882430715,
				"z": -0.8888611925,
				"element": "H" 
			}
		],
		 "valence_orbital": [ 
			{
				"type": "occ",
				"energy": -0.31709,
				"method": "rhf"
			},
			{
				"type": "occ",
				"energy": -0.27957,
				"method": "rhf"
			},
			{
				"type": "occ",
				"energy": -0.26514,
				"method": "rhf"
			},
			{
				"type": "occ",
				"energy": -0.25181,
				"method": "rhf"
			},
			{
				"type": "occ",
				"energy": -0.23411,
				"method": "rhf"
			},
			{
				"type": "unocc",
				"energy": -0.0451,
				"method": "rhf"
			},
			{
				"type": "unocc",
				"energy": -0.03119,
				"method": "rhf"
			},
			{
				"type": "unocc",
				"energy": 0.00878,
				"method": "rhf"
			},
			{
				"type": "unocc",
				"energy": 0.02419,
				"method": "rhf"
			},
			{
				"type": "unocc",
				"energy": 0.06023,
				"method": "rhf"
			}
		],
		"cosmo_sigma_profile": { 
			"-0.025": 0.0,
			"-0.024": 0.0,
			"-0.023": 0.0,
			"-0.022": 0.0,
			"-0.021": 0.0,
			"-0.02": 0.0,
			"-0.019": 0.0,
			"-0.018": 0.0,
			"-0.017": 0.0,
			"-0.016": 0.379941708687,
			"-0.015": 1.33902721791,
			"-0.014": 1.49491234432,
			"-0.013": 0.853128131352,
			"-0.012": 1.15220352955,
			"-0.011": 1.5422419357,
			"-0.01": 1.13266332098,
			"-0.009": 3.04646619678,
			"-0.008": 7.59022384349,
			"-0.007": 9.16493463703,
			"-0.006": 11.7666215415,
			"-0.005": 9.64205002408,
			"-0.004": 9.65017137741,
			"-0.003": 7.87683976872,
			"-0.002": 8.77622134445,
			"-0.001": 10.6566113091,
			"0.0": 12.3373422652,
			"0.001": 16.3361884484,
			"0.002": 14.7596926408,
			"0.003": 9.07469311848,
			"0.004": 5.76917684666,
			"0.005": 5.82924834533,
			"0.006": 4.46957277904,
			"0.007": 4.08216414993,
			"0.008": 2.4316380218,
			"0.009": 2.95376795725,
			"0.01": 2.26691651038,
			"0.011": 3.25936008251,
			"0.012": 6.25273023246,
			"0.013": 4.38385959237,
			"0.014": 0.784505811393,
			"0.015": 1.03200309735,
			"0.016": 0.751464976975,
			"0.017": 0.123289980582,
			"0.018": 0.0,
			"0.019": 0.0,
			"0.02": 0.0,
			"0.021": 0.0,
			"0.022": 0.0,
			"0.023": 0.0,
			"0.024": 0.0,
			"0.025": 0.0
		}
	}
}
