{
	 "smiles": "COC1=CC=C(C=C1)C(=O)C1=NOC(=C1S(=O)(=O)C1=CC=CC=C1)C1=CC=C(C=C1)[N+]([O-])=O", 
	 "Tm": 449.15, 
	 "num_atms": 49, 
	 "gaussian": { 
		 "optdone": 1, 
		 "sigma_profile": "yes", 
		 "theory": "DFT", 
		 "functional": "B3LYP", 
		 "basiset": "6-31G**", 
		 "properties": { 
			 "R2extent": 19968.0346, 
			 "electric_dipole_moment_norm": 4.2006068514, 
			 "electric_quadrupole_moment_norm": 52.9502953438, 
			 "total_energy": -1920.10709492, 
			 "HOMO_LUMO_gap": 0.13216, 
			 "cosmo_polarized_energy": -23.44, 
			 "cosmo_cavitation_energy": 56.49, 
			 "cosmo_dispersion_energy": -39.2, 
			 "cosmo_repulsion_energy": 2.85, 
			 "cosmo_total_nonelectrostatic_energy": 20.15, 
			 "SMD_solvation_energy": 12.05 
		},
		"coords": [
			{
				"x": -6.0055372018,
				"y": -3.8812626743,
				"z": -4.1163851614,
				"element": "C" 
			},
			{
				"x": -6.2714821503,
				"y": -3.0001046531,
				"z": -3.0307028012,
				"element": "O" 
			},
			{
				"x": -5.2613092057,
				"y": -2.2409928214,
				"z": -2.5441572435,
				"element": "C" 
			},
			{
				"x": -5.5998657646,
				"y": -1.4005774343,
				"z": -1.464788553,
				"element": "C" 
			},
			{
				"x": -4.6403451074,
				"y": -0.5879795686,
				"z": -0.8959183597,
				"element": "C" 
			},
			{
				"x": -3.3161671186,
				"y": -0.5816476738,
				"z": -1.3852180126,
				"element": "C" 
			},
			{
				"x": -2.9899896621,
				"y": -1.4243372654,
				"z": -2.4581700087,
				"element": "C" 
			},
			{
				"x": -3.9489211624,
				"y": -2.2497653884,
				"z": -3.0392872419,
				"element": "C" 
			},
			{
				"x": -2.3398064506,
				"y": 0.2963474831,
				"z": -0.7226055811,
				"element": "C" 
			},
			{
				"x": -2.6191476951,
				"y": 1.0039950835,
				"z": 0.2380926571,
				"element": "O" 
			},
			{
				"x": -0.9248716322,
				"y": 0.3873687307,
				"z": -1.2618853951,
				"element": "C" 
			},
			{
				"x": -0.7373942106,
				"y": 0.7972894182,
				"z": -2.4942031753,
				"element": "N" 
			},
			{
				"x": 0.6453960596,
				"y": 0.9118078895,
				"z": -2.6494405884,
				"element": "O" 
			},
			{
				"x": 1.2757645762,
				"y": 0.5554784274,
				"z": -1.5091307309,
				"element": "C" 
			},
			{
				"x": 0.3211592254,
				"y": 0.2145439365,
				"z": -0.5731952502,
				"element": "C" 
			},
			{
				"x": 0.5186767754,
				"y": -0.6127010557,
				"z": 1.0031814947,
				"element": "S" 
			},
			{
				"x": 1.7889575624,
				"y": -1.3515891622,
				"z": 0.9517787865,
				"element": "O" 
			},
			{
				"x": -0.7502062736,
				"y": -1.3129574181,
				"z": 1.2321693774,
				"element": "O" 
			},
			{
				"x": 0.7091877461,
				"y": 0.6965285014,
				"z": 2.2232326955,
				"element": "C" 
			},
			{
				"x": -0.2977898264,
				"y": 1.6516617724,
				"z": 2.3906869185,
				"element": "C" 
			},
			{
				"x": -0.1345154625,
				"y": 2.6228051118,
				"z": 3.378526109,
				"element": "C" 
			},
			{
				"x": 1.0047772729,
				"y": 2.6248593142,
				"z": 4.1882871072,
				"element": "C" 
			},
			{
				"x": 1.9937299458,
				"y": 1.6543242592,
				"z": 4.0164766415,
				"element": "C" 
			},
			{
				"x": 1.8514975545,
				"y": 0.6794484168,
				"z": 3.0276693362,
				"element": "C" 
			},
			{
				"x": 2.7393762199,
				"y": 0.6075792396,
				"z": -1.567143842,
				"element": "C" 
			},
			{
				"x": 3.5116386294,
				"y": 0.8544192999,
				"z": -0.4203790749,
				"element": "C" 
			},
			{
				"x": 4.8969035395,
				"y": 0.9246581095,
				"z": -0.5092962743,
				"element": "C" 
			},
			{
				"x": 5.5007710111,
				"y": 0.7487805272,
				"z": -1.7519846056,
				"element": "C" 
			},
			{
				"x": 4.761047915,
				"y": 0.5110337875,
				"z": -2.9083892114,
				"element": "C" 
			},
			{
				"x": 3.3766881601,
				"y": 0.4443436859,
				"z": -2.8116694644,
				"element": "C" 
			},
			{
				"x": 6.9694989723,
				"y": 0.822901369,
				"z": -1.8478373121,
				"element": "N" 
			},
			{
				"x": 7.4749823672,
				"y": 0.6632881873,
				"z": -2.957608534,
				"element": "O" 
			},
			{
				"x": 7.5962625856,
				"y": 1.0408779439,
				"z": -0.8123913933,
				"element": "O" 
			},
			{
				"x": -5.2498875062,
				"y": -4.6295213204,
				"z": -3.8490047696,
				"element": "H" 
			},
			{
				"x": -6.9497878378,
				"y": -4.3824336673,
				"z": -4.3314331092,
				"element": "H" 
			},
			{
				"x": -5.6749358007,
				"y": -3.3323348493,
				"z": -5.0062875328,
				"element": "H" 
			},
			{
				"x": -6.6214630767,
				"y": -1.4159334399,
				"z": -1.100308277,
				"element": "H" 
			},
			{
				"x": -4.884682423,
				"y": 0.0600105801,
				"z": -0.0613236949,
				"element": "H" 
			},
			{
				"x": -1.9805816506,
				"y": -1.4360590375,
				"z": -2.851967427,
				"element": "H" 
			},
			{
				"x": -3.6687532977,
				"y": -2.8906419805,
				"z": -3.8660621376,
				"element": "H" 
			},
			{
				"x": -1.1821010541,
				"y": 1.6362491125,
				"z": 1.7602674057,
				"element": "H" 
			},
			{
				"x": -0.9033098085,
				"y": 3.3765580327,
				"z": 3.5185303189,
				"element": "H" 
			},
			{
				"x": 1.1201764811,
				"y": 3.3834612642,
				"z": 4.9569108732,
				"element": "H" 
			},
			{
				"x": 2.8742410608,
				"y": 1.6520701925,
				"z": 4.6517262899,
				"element": "H" 
			},
			{
				"x": 2.6002628634,
				"y": -0.0911949608,
				"z": 2.8796671359,
				"element": "H" 
			},
			{
				"x": 3.0334431064,
				"y": 1.0058064119,
				"z": 0.5380062861,
				"element": "H" 
			},
			{
				"x": 5.5121911518,
				"y": 1.1173697621,
				"z": 0.3601572595,
				"element": "H" 
			},
			{
				"x": 5.2729108166,
				"y": 0.3815023493,
				"z": -3.8533998217,
				"element": "H" 
			},
			{
				"x": 2.7817097804,
				"y": 0.2599661714,
				"z": -3.698492108,
				"element": "H" 
			}
		],
		 "valence_orbital": [ 
			{
				"type": "occ",
				"energy": -0.27457,
				"method": "rhf"
			},
			{
				"type": "occ",
				"energy": -0.27313,
				"method": "rhf"
			},
			{
				"type": "occ",
				"energy": -0.26991,
				"method": "rhf"
			},
			{
				"type": "occ",
				"energy": -0.26747,
				"method": "rhf"
			},
			{
				"type": "occ",
				"energy": -0.2404,
				"method": "rhf"
			},
			{
				"type": "unocc",
				"energy": -0.10824,
				"method": "rhf"
			},
			{
				"type": "unocc",
				"energy": -0.07359,
				"method": "rhf"
			},
			{
				"type": "unocc",
				"energy": -0.05672,
				"method": "rhf"
			},
			{
				"type": "unocc",
				"energy": -0.04358,
				"method": "rhf"
			},
			{
				"type": "unocc",
				"energy": -0.03786,
				"method": "rhf"
			}
		],
		"cosmo_sigma_profile": { 
			"-0.025": 0.0,
			"-0.024": 0.0,
			"-0.023": 0.0,
			"-0.022": 0.0,
			"-0.021": 0.0,
			"-0.02": 0.0,
			"-0.019": 0.0,
			"-0.018": 0.0,
			"-0.017": 0.0,
			"-0.016": 0.0,
			"-0.015": 0.0,
			"-0.014": 0.0,
			"-0.013": 0.0,
			"-0.012": 0.000423098110305,
			"-0.011": 0.0296651847152,
			"-0.01": 0.107397927947,
			"-0.009": 1.28078187788,
			"-0.008": 6.28090362465,
			"-0.007": 21.4237624972,
			"-0.006": 35.0335031491,
			"-0.005": 36.6775535433,
			"-0.004": 33.9758965822,
			"-0.003": 27.3588070198,
			"-0.002": 31.6220560381,
			"-0.001": 33.1516466467,
			"0.0": 32.1764335732,
			"0.001": 30.1112419481,
			"0.002": 35.1294630299,
			"0.003": 30.4983355107,
			"0.004": 13.9427101196,
			"0.005": 12.47051446,
			"0.006": 12.6275589184,
			"0.007": 17.810830701,
			"0.008": 14.2998385512,
			"0.009": 13.2518056803,
			"0.01": 9.62885282943,
			"0.011": 6.9106430056,
			"0.012": 0.564529674789,
			"0.013": 0.0,
			"0.014": 0.0,
			"0.015": 0.0,
			"0.016": 0.0,
			"0.017": 0.0,
			"0.018": 0.0,
			"0.019": 0.0,
			"0.02": 0.0,
			"0.021": 0.0,
			"0.022": 0.0,
			"0.023": 0.0,
			"0.024": 0.0,
			"0.025": 0.0
		}
	}
}
