{
	 "smiles": "OC(=O)CCC(=O)N1CCN(CC1)C1=NC=CC=N1", 
	 "Tm": 440.15, 
	 "num_atms": 35, 
	 "gaussian": { 
		 "optdone": 1, 
		 "sigma_profile": "yes", 
		 "theory": "DFT", 
		 "functional": "B3LYP", 
		 "basiset": "6-31G**", 
		 "properties": { 
			 "R2extent": 6937.3487, 
			 "electric_dipole_moment_norm": 2.668418749, 
			 "electric_quadrupole_moment_norm": 20.6737107581, 
			 "total_energy": -911.621357253, 
			 "HOMO_LUMO_gap": 0.18217, 
			 "cosmo_polarized_energy": -22.76, 
			 "cosmo_cavitation_energy": 37.6, 
			 "cosmo_dispersion_energy": -27.02, 
			 "cosmo_repulsion_energy": 2.1, 
			 "cosmo_total_nonelectrostatic_energy": 12.67, 
			 "SMD_solvation_energy": 4.32 
		},
		"coords": [
			{
				"x": 5.0327454537,
				"y": -1.4913250705,
				"z": -0.3022966795,
				"element": "O" 
			},
			{
				"x": 3.734706116,
				"y": -1.4336293189,
				"z": -0.694051889,
				"element": "C" 
			},
			{
				"x": 2.8743952072,
				"y": -1.1601701676,
				"z": 0.1086787716,
				"element": "O" 
			},
			{
				"x": 3.4753391267,
				"y": -1.7483331034,
				"z": -2.1614516376,
				"element": "C" 
			},
			{
				"x": 2.0057480641,
				"y": -1.5409680695,
				"z": -2.5291494379,
				"element": "C" 
			},
			{
				"x": 1.6895242795,
				"y": -0.0423857682,
				"z": -2.5709263124,
				"element": "C" 
			},
			{
				"x": 2.4710078571,
				"y": 0.7152868743,
				"z": -3.1471972727,
				"element": "O" 
			},
			{
				"x": 0.5276703713,
				"y": 0.3943384764,
				"z": -1.9971977978,
				"element": "N" 
			},
			{
				"x": 0.2500465944,
				"y": 1.8342457498,
				"z": -1.9924869933,
				"element": "C" 
			},
			{
				"x": -0.0194132743,
				"y": 2.3424296212,
				"z": -0.578197049,
				"element": "C" 
			},
			{
				"x": -1.1052610904,
				"y": 1.5678827994,
				"z": 0.0326980295,
				"element": "N" 
			},
			{
				"x": -1.5367095861,
				"y": 0.3534557656,
				"z": -0.6471290776,
				"element": "C" 
			},
			{
				"x": -0.335665765,
				"y": -0.4486767904,
				"z": -1.1509263589,
				"element": "C" 
			},
			{
				"x": -1.6402798401,
				"y": 1.9583423458,
				"z": 1.2276371825,
				"element": "C" 
			},
			{
				"x": -2.6370292888,
				"y": 1.2061176892,
				"z": 1.7495342618,
				"element": "N" 
			},
			{
				"x": -3.1291036001,
				"y": 1.6156273974,
				"z": 2.9169229616,
				"element": "C" 
			},
			{
				"x": -2.6730985715,
				"y": 2.753354237,
				"z": 3.582864823,
				"element": "C" 
			},
			{
				"x": -1.6483124415,
				"y": 3.4526929838,
				"z": 2.9465990089,
				"element": "C" 
			},
			{
				"x": -1.1201000529,
				"y": 3.0774430137,
				"z": 1.7825344223,
				"element": "N" 
			},
			{
				"x": 5.6014848367,
				"y": -1.6824721654,
				"z": -1.0618778468,
				"element": "H" 
			},
			{
				"x": 4.0929924947,
				"y": -1.0917276781,
				"z": -2.785154505,
				"element": "H" 
			},
			{
				"x": 3.7870311836,
				"y": -2.7830500101,
				"z": -2.354351402,
				"element": "H" 
			},
			{
				"x": 1.3717425326,
				"y": -2.100185102,
				"z": -1.8424585276,
				"element": "H" 
			},
			{
				"x": 1.8312372709,
				"y": -1.9279924279,
				"z": -3.5398160366,
				"element": "H" 
			},
			{
				"x": -0.6040261896,
				"y": 2.0546649882,
				"z": -2.646112057,
				"element": "H" 
			},
			{
				"x": 1.1256293152,
				"y": 2.3305270187,
				"z": -2.4104184753,
				"element": "H" 
			},
			{
				"x": 0.8905877788,
				"y": 2.2630589299,
				"z": 0.0298442012,
				"element": "H" 
			},
			{
				"x": -0.2914666651,
				"y": 3.4021930342,
				"z": -0.6082749046,
				"element": "H" 
			},
			{
				"x": -2.1085711794,
				"y": -0.2468185664,
				"z": 0.0597425085,
				"element": "H" 
			},
			{
				"x": -2.206760041,
				"y": 0.5933350323,
				"z": -1.4856582835,
				"element": "H" 
			},
			{
				"x": -0.7152074813,
				"y": -1.3043439472,
				"z": -1.721817167,
				"element": "H" 
			},
			{
				"x": 0.2393378636,
				"y": -0.8282778795,
				"z": -0.2987545081,
				"element": "H" 
			},
			{
				"x": -3.9282906363,
				"y": 1.0054736774,
				"z": 3.3371547982,
				"element": "H" 
			},
			{
				"x": -3.0885894983,
				"y": 3.0726320303,
				"z": 4.5309826178,
				"element": "H" 
			},
			{
				"x": -1.2286411444,
				"y": 4.3550544003,
				"z": 3.3906106325,
				"element": "H" 
			}
		],
		 "valence_orbital": [ 
			{
				"type": "occ",
				"energy": -0.27714,
				"method": "rhf"
			},
			{
				"type": "occ",
				"energy": -0.24791,
				"method": "rhf"
			},
			{
				"type": "occ",
				"energy": -0.24114,
				"method": "rhf"
			},
			{
				"type": "occ",
				"energy": -0.23502,
				"method": "rhf"
			},
			{
				"type": "occ",
				"energy": -0.2092,
				"method": "rhf"
			},
			{
				"type": "unocc",
				"energy": -0.02703,
				"method": "rhf"
			},
			{
				"type": "unocc",
				"energy": 0.00555,
				"method": "rhf"
			},
			{
				"type": "unocc",
				"energy": 0.00656,
				"method": "rhf"
			},
			{
				"type": "unocc",
				"energy": 0.02382,
				"method": "rhf"
			},
			{
				"type": "unocc",
				"energy": 0.05826,
				"method": "rhf"
			}
		],
		"cosmo_sigma_profile": { 
			"-0.025": 0.0,
			"-0.024": 0.0,
			"-0.023": 0.0,
			"-0.022": 0.0,
			"-0.021": 0.0,
			"-0.02": 0.0485986583607,
			"-0.019": 0.774089296191,
			"-0.018": 1.10661636501,
			"-0.017": 0.93015729283,
			"-0.016": 1.22292781313,
			"-0.015": 0.886491522603,
			"-0.014": 1.19204261806,
			"-0.013": 0.951605174677,
			"-0.012": 1.05879267682,
			"-0.011": 1.07996646601,
			"-0.01": 1.03842609425,
			"-0.009": 1.70101721539,
			"-0.008": 2.1661125445,
			"-0.007": 8.007239086,
			"-0.006": 15.7879398888,
			"-0.005": 29.831817265,
			"-0.004": 32.2547647264,
			"-0.003": 24.5481252797,
			"-0.002": 17.7485410257,
			"-0.001": 13.7946995116,
			"0.0": 15.7319080091,
			"0.001": 18.8940946919,
			"0.002": 18.2636141479,
			"0.003": 12.7121093763,
			"0.004": 8.32842610018,
			"0.005": 8.07847175685,
			"0.006": 7.38867459437,
			"0.007": 6.85235532832,
			"0.008": 7.94505295737,
			"0.009": 6.52801683357,
			"0.01": 7.26620814972,
			"0.011": 7.1527927451,
			"0.012": 5.3951127781,
			"0.013": 5.09868638185,
			"0.014": 4.55691221965,
			"0.015": 0.392247652607,
			"0.016": 0.0,
			"0.017": 0.0,
			"0.018": 0.0,
			"0.019": 0.0,
			"0.02": 0.0,
			"0.021": 0.0,
			"0.022": 0.0,
			"0.023": 0.0,
			"0.024": 0.0,
			"0.025": 0.0
		}
	}
}
