{
	 "smiles": "COC(=O)C1=C(O)C=C(S1)C1=CC=CC=C1", 
	 "Tm": 368.15, 
	 "num_atms": 26, 
	 "gaussian": { 
		 "optdone": 1, 
		 "sigma_profile": "yes", 
		 "theory": "DFT", 
		 "functional": "B3LYP", 
		 "basiset": "6-31G**", 
		 "properties": { 
			 "R2extent": 6374.1844, 
			 "electric_dipole_moment_norm": 4.18560135345, 
			 "electric_quadrupole_moment_norm": 12.0069743749, 
			 "total_energy": -1087.15568434, 
			 "HOMO_LUMO_gap": 0.15689, 
			 "cosmo_polarized_energy": -16.74, 
			 "cosmo_cavitation_energy": 32.54, 
			 "cosmo_dispersion_energy": -24.27, 
			 "cosmo_repulsion_energy": 1.84, 
			 "cosmo_total_nonelectrostatic_energy": 10.11, 
			 "SMD_solvation_energy": 7.16 
		},
		"coords": [
			{
				"x": 1.4904621217,
				"y": -3.8499001608,
				"z": 2.340105263,
				"element": "C" 
			},
			{
				"x": 0.48766457,
				"y": -2.8241760373,
				"z": 2.3565546877,
				"element": "O" 
			},
			{
				"x": 0.6414698893,
				"y": -1.8646656551,
				"z": 1.4178902845,
				"element": "C" 
			},
			{
				"x": 1.5553879699,
				"y": -1.8521499833,
				"z": 0.6088895846,
				"element": "O" 
			},
			{
				"x": -0.4025275842,
				"y": -0.8432431642,
				"z": 1.4719778828,
				"element": "C" 
			},
			{
				"x": -1.50360033,
				"y": -0.6785397081,
				"z": 2.298375705,
				"element": "C" 
			},
			{
				"x": -1.8055260107,
				"y": -1.5354631337,
				"z": 3.3037738004,
				"element": "O" 
			},
			{
				"x": -2.2639983748,
				"y": 0.4832546502,
				"z": 1.9849372182,
				"element": "C" 
			},
			{
				"x": -1.7508126149,
				"y": 1.2036219586,
				"z": 0.9276968592,
				"element": "C" 
			},
			{
				"x": -0.3168387307,
				"y": 0.4455361542,
				"z": 0.2933495424,
				"element": "S" 
			},
			{
				"x": -2.282719828,
				"y": 2.4439786473,
				"z": 0.3480549096,
				"element": "C" 
			},
			{
				"x": -3.658229793,
				"y": 2.7305302103,
				"z": 0.4250324621,
				"element": "C" 
			},
			{
				"x": -4.1705658565,
				"y": 3.9098651512,
				"z": -0.1100664743,
				"element": "C" 
			},
			{
				"x": -3.3235880256,
				"y": 4.8228317642,
				"z": -0.7425829362,
				"element": "C" 
			},
			{
				"x": -1.9579516292,
				"y": 4.5462931159,
				"z": -0.833278171,
				"element": "C" 
			},
			{
				"x": -1.4408935697,
				"y": 3.3718371872,
				"z": -0.2911145917,
				"element": "C" 
			},
			{
				"x": 1.494137281,
				"y": -4.3737620254,
				"z": 1.3805889966,
				"element": "H" 
			},
			{
				"x": 1.222893213,
				"y": -4.5319223485,
				"z": 3.1472874148,
				"element": "H" 
			},
			{
				"x": 2.4832539922,
				"y": -3.4249738761,
				"z": 2.5101354883,
				"element": "H" 
			},
			{
				"x": -2.6066708545,
				"y": -1.2252040512,
				"z": 3.7452865731,
				"element": "H" 
			},
			{
				"x": -3.1386864428,
				"y": 0.7912093955,
				"z": 2.5490175549,
				"element": "H" 
			},
			{
				"x": -4.3294575392,
				"y": 2.0116907492,
				"z": 0.8847740189,
				"element": "H" 
			},
			{
				"x": -5.2359307939,
				"y": 4.1108657223,
				"z": -0.0434512186,
				"element": "H" 
			},
			{
				"x": -3.724959036,
				"y": 5.7399626242,
				"z": -1.1632994505,
				"element": "H" 
			},
			{
				"x": -1.2901725751,
				"y": 5.2511228297,
				"z": -1.3198992792,
				"element": "H" 
			},
			{
				"x": -0.3732394483,
				"y": 3.1797999835,
				"z": -0.3439361246,
				"element": "H" 
			}
		],
		 "valence_orbital": [ 
			{
				"type": "occ",
				"energy": -0.27551,
				"method": "rhf"
			},
			{
				"type": "occ",
				"energy": -0.26532,
				"method": "rhf"
			},
			{
				"type": "occ",
				"energy": -0.26096,
				"method": "rhf"
			},
			{
				"type": "occ",
				"energy": -0.24294,
				"method": "rhf"
			},
			{
				"type": "occ",
				"energy": -0.21539,
				"method": "rhf"
			},
			{
				"type": "unocc",
				"energy": -0.0585,
				"method": "rhf"
			},
			{
				"type": "unocc",
				"energy": -0.01284,
				"method": "rhf"
			},
			{
				"type": "unocc",
				"energy": -0.00011,
				"method": "rhf"
			},
			{
				"type": "unocc",
				"energy": 0.02403,
				"method": "rhf"
			},
			{
				"type": "unocc",
				"energy": 0.04864,
				"method": "rhf"
			}
		],
		"cosmo_sigma_profile": { 
			"-0.025": 0.0,
			"-0.024": 0.0,
			"-0.023": 0.0,
			"-0.022": 0.0,
			"-0.021": 0.0,
			"-0.02": 0.0,
			"-0.019": 0.602688102497,
			"-0.018": 1.46151088308,
			"-0.017": 1.1131408628,
			"-0.016": 0.903160874812,
			"-0.015": 1.13442074211,
			"-0.014": 1.00789755759,
			"-0.013": 0.95362626811,
			"-0.012": 0.921906913287,
			"-0.011": 1.34720444912,
			"-0.01": 1.07124326372,
			"-0.009": 1.02325905568,
			"-0.008": 2.49698428671,
			"-0.007": 4.25762011042,
			"-0.006": 15.0724968633,
			"-0.005": 18.4362542233,
			"-0.004": 19.8536492267,
			"-0.003": 19.0848224961,
			"-0.002": 14.0347427162,
			"-0.001": 12.9564520609,
			"0.0": 14.9299976893,
			"0.001": 21.554317934,
			"0.002": 26.4117647689,
			"0.003": 21.2310052248,
			"0.004": 18.6687312895,
			"0.005": 11.1908945468,
			"0.006": 3.20118484854,
			"0.007": 3.72888906185,
			"0.008": 3.67726229504,
			"0.009": 3.29551546357,
			"0.01": 3.26887700539,
			"0.011": 3.71130943899,
			"0.012": 6.40377033825,
			"0.013": 3.36156181518,
			"0.014": 0.199544315566,
			"0.015": 0.0,
			"0.016": 0.0,
			"0.017": 0.0,
			"0.018": 0.0,
			"0.019": 0.0,
			"0.02": 0.0,
			"0.021": 0.0,
			"0.022": 0.0,
			"0.023": 0.0,
			"0.024": 0.0,
			"0.025": 0.0
		}
	}
}
