{
	 "smiles": "O=C(NC1CCCCC1)C1=CC=CC=C1", 
	 "Tm": 418.15, 
	 "num_atms": 32, 
	 "gaussian": { 
		 "optdone": 1, 
		 "sigma_profile": "yes", 
		 "theory": "DFT", 
		 "functional": "B3LYP", 
		 "basiset": "6-31G**", 
		 "properties": { 
			 "R2extent": 3858.8832, 
			 "electric_dipole_moment_norm": 3.84052959109, 
			 "electric_quadrupole_moment_norm": 17.6587007512, 
			 "total_energy": -635.619472178, 
			 "HOMO_LUMO_gap": 0.20573, 
			 "cosmo_polarized_energy": -11.28, 
			 "cosmo_cavitation_energy": 32.58, 
			 "cosmo_dispersion_energy": -23.3, 
			 "cosmo_repulsion_energy": 1.84, 
			 "cosmo_total_nonelectrostatic_energy": 11.12, 
			 "SMD_solvation_energy": 4.83 
		},
		"coords": [
			{
				"x": 3.0702869413,
				"y": -0.9772871409,
				"z": -0.9839892821,
				"element": "O" 
			},
			{
				"x": 2.102859858,
				"y": -0.2924261902,
				"z": -0.6569652174,
				"element": "C" 
			},
			{
				"x": 1.3787657738,
				"y": -0.6245692391,
				"z": 0.4689059545,
				"element": "N" 
			},
			{
				"x": -0.037185571,
				"y": -0.434181855,
				"z": 0.8462500063,
				"element": "C" 
			},
			{
				"x": -1.0084060182,
				"y": -0.1210712854,
				"z": -0.3026127291,
				"element": "C" 
			},
			{
				"x": -2.465911297,
				"y": -0.3334404737,
				"z": 0.1736577989,
				"element": "C" 
			},
			{
				"x": -2.6766012406,
				"y": 0.0640701964,
				"z": 1.6576622582,
				"element": "C" 
			},
			{
				"x": -1.6570511977,
				"y": 1.1228443351,
				"z": 2.099276199,
				"element": "C" 
			},
			{
				"x": -0.2141039408,
				"y": 0.5763504247,
				"z": 2.0121559665,
				"element": "C" 
			},
			{
				"x": 1.7607048983,
				"y": 0.9351433373,
				"z": -1.4536549515,
				"element": "C" 
			},
			{
				"x": 1.8774212243,
				"y": 0.8545515285,
				"z": -2.8484493772,
				"element": "C" 
			},
			{
				"x": 1.6431364918,
				"y": 1.9752090683,
				"z": -3.6420105103,
				"element": "C" 
			},
			{
				"x": 1.3243344913,
				"y": 3.1997146025,
				"z": -3.0484274469,
				"element": "C" 
			},
			{
				"x": 1.2432484448,
				"y": 3.2968584303,
				"z": -1.6583579864,
				"element": "C" 
			},
			{
				"x": 1.4559023497,
				"y": 2.1685828425,
				"z": -0.8641734766,
				"element": "C" 
			},
			{
				"x": 1.8108401505,
				"y": -1.4348073245,
				"z": 0.8969315823,
				"element": "H" 
			},
			{
				"x": -0.3382205721,
				"y": -1.4198063139,
				"z": 1.2251309894,
				"element": "H" 
			},
			{
				"x": -0.8737280905,
				"y": 0.9095335506,
				"z": -0.6397915526,
				"element": "H" 
			},
			{
				"x": -0.7936372568,
				"y": -0.7612275924,
				"z": -1.1646050637,
				"element": "H" 
			},
			{
				"x": -3.1317121365,
				"y": 0.2538027118,
				"z": -0.4686316396,
				"element": "H" 
			},
			{
				"x": -2.7518775632,
				"y": -1.3826703871,
				"z": 0.0337010718,
				"element": "H" 
			},
			{
				"x": -3.6991411895,
				"y": 0.4264810881,
				"z": 1.8089450747,
				"element": "H" 
			},
			{
				"x": -2.5707041855,
				"y": -0.8191602555,
				"z": 2.3013017021,
				"element": "H" 
			},
			{
				"x": -1.8674794129,
				"y": 1.4635492978,
				"z": 3.1190220983,
				"element": "H" 
			},
			{
				"x": -1.758471749,
				"y": 2.0056760727,
				"z": 1.4550617963,
				"element": "H" 
			},
			{
				"x": 0.4934386838,
				"y": 1.4013843533,
				"z": 1.8878371635,
				"element": "H" 
			},
			{
				"x": 0.0603734457,
				"y": 0.0803172366,
				"z": 2.9511593264,
				"element": "H" 
			},
			{
				"x": 2.159430358,
				"y": -0.0942647014,
				"z": -3.2928325332,
				"element": "H" 
			},
			{
				"x": 1.7201542984,
				"y": 1.8980308369,
				"z": -4.7227523805,
				"element": "H" 
			},
			{
				"x": 1.1514708807,
				"y": 4.07628716,
				"z": -3.6663472502,
				"element": "H" 
			},
			{
				"x": 1.0208572026,
				"y": 4.2517801858,
				"z": -1.1906447762,
				"element": "H" 
			},
			{
				"x": 1.4123059283,
				"y": 2.2535454999,
				"z": 0.2161471851,
				"element": "H" 
			}
		],
		 "valence_orbital": [ 
			{
				"type": "occ",
				"energy": -0.30621,
				"method": "rhf"
			},
			{
				"type": "occ",
				"energy": -0.2591,
				"method": "rhf"
			},
			{
				"type": "occ",
				"energy": -0.2538,
				"method": "rhf"
			},
			{
				"type": "occ",
				"energy": -0.24585,
				"method": "rhf"
			},
			{
				"type": "occ",
				"energy": -0.23208,
				"method": "rhf"
			},
			{
				"type": "unocc",
				"energy": -0.02635,
				"method": "rhf"
			},
			{
				"type": "unocc",
				"energy": -0.00499,
				"method": "rhf"
			},
			{
				"type": "unocc",
				"energy": 0.05206,
				"method": "rhf"
			},
			{
				"type": "unocc",
				"energy": 0.067,
				"method": "rhf"
			},
			{
				"type": "unocc",
				"energy": 0.08174,
				"method": "rhf"
			}
		],
		"cosmo_sigma_profile": { 
			"-0.025": 0.0,
			"-0.024": 0.0,
			"-0.023": 0.0,
			"-0.022": 0.0,
			"-0.021": 0.0,
			"-0.02": 0.0,
			"-0.019": 0.0,
			"-0.018": 0.0,
			"-0.017": 0.0,
			"-0.016": 0.0,
			"-0.015": 0.0,
			"-0.014": 0.0,
			"-0.013": 0.426293792977,
			"-0.012": 1.06602331817,
			"-0.011": 1.06828761421,
			"-0.01": 1.0660806455,
			"-0.009": 0.864347246498,
			"-0.008": 1.03371294376,
			"-0.007": 1.7941408045,
			"-0.006": 8.71320803334,
			"-0.005": 12.0219142511,
			"-0.004": 15.4216479062,
			"-0.003": 20.974558272,
			"-0.002": 36.0031137184,
			"-0.001": 34.4422389491,
			"0.0": 30.0065542515,
			"0.001": 25.930822597,
			"0.002": 11.6980200082,
			"0.003": 10.6848868702,
			"0.004": 10.7749507223,
			"0.005": 9.72279572951,
			"0.006": 1.85314012608,
			"0.007": 1.65249892132,
			"0.008": 1.19078327998,
			"0.009": 1.58897815359,
			"0.01": 1.5196793443,
			"0.011": 1.71496018021,
			"0.012": 1.6151935604,
			"0.013": 3.29634391262,
			"0.014": 5.52161351956,
			"0.015": 1.34057043363,
			"0.016": 0.0,
			"0.017": 0.0,
			"0.018": 0.0,
			"0.019": 0.0,
			"0.02": 0.0,
			"0.021": 0.0,
			"0.022": 0.0,
			"0.023": 0.0,
			"0.024": 0.0,
			"0.025": 0.0
		}
	}
}
