{
	 "smiles": "CC1=NC(=NC(NN)=C1)C1=NC=CC=C1", 
	 "Tm": 449.15, 
	 "num_atms": 26, 
	 "gaussian": { 
		 "optdone": 1, 
		 "sigma_profile": "yes", 
		 "theory": "DFT", 
		 "functional": "B3LYP", 
		 "basiset": "6-31G**", 
		 "properties": { 
			 "R2extent": 4121.3696, 
			 "electric_dipole_moment_norm": 1.99793463857, 
			 "electric_quadrupole_moment_norm": 16.2527763964, 
			 "total_energy": -661.431864852, 
			 "HOMO_LUMO_gap": 0.17735, 
			 "cosmo_polarized_energy": -17.85, 
			 "cosmo_cavitation_energy": 30.69, 
			 "cosmo_dispersion_energy": -22.44, 
			 "cosmo_repulsion_energy": 1.77, 
			 "cosmo_total_nonelectrostatic_energy": 10.02, 
			 "SMD_solvation_energy": 2.66 
		},
		"coords": [
			{
				"x": 1.2378219411,
				"y": 3.5317341372,
				"z": 0.5649295888,
				"element": "C" 
			},
			{
				"x": 1.2563769239,
				"y": 2.3329023653,
				"z": -0.3454077265,
				"element": "C" 
			},
			{
				"x": 0.6931691254,
				"y": 1.2074173035,
				"z": 0.1457063615,
				"element": "N" 
			},
			{
				"x": 0.6994787074,
				"y": 0.139873737,
				"z": -0.6496314614,
				"element": "C" 
			},
			{
				"x": 1.214556374,
				"y": 0.0740452425,
				"z": -1.8934470003,
				"element": "N" 
			},
			{
				"x": 1.7765274625,
				"y": 1.1898635267,
				"z": -2.3709313437,
				"element": "C" 
			},
			{
				"x": 2.3310135102,
				"y": 1.1355747022,
				"z": -3.6260585963,
				"element": "N" 
			},
			{
				"x": 2.1237951504,
				"y": 0.0496670707,
				"z": -4.4983162684,
				"element": "N" 
			},
			{
				"x": 1.81711676,
				"y": 2.3791971506,
				"z": -1.6117688432,
				"element": "C" 
			},
			{
				"x": 0.0787636745,
				"y": -1.1232705755,
				"z": -0.1332169851,
				"element": "C" 
			},
			{
				"x": -0.5144298582,
				"y": -1.0741228027,
				"z": 1.0707525204,
				"element": "N" 
			},
			{
				"x": -1.0688388657,
				"y": -2.1931057401,
				"z": 1.5400210373,
				"element": "C" 
			},
			{
				"x": -1.0677573493,
				"y": -3.4107555425,
				"z": 0.8545541343,
				"element": "C" 
			},
			{
				"x": -0.4509365332,
				"y": -3.4573894841,
				"z": -0.3944721208,
				"element": "C" 
			},
			{
				"x": 0.1314099295,
				"y": -2.2980522704,
				"z": -0.8991780292,
				"element": "C" 
			},
			{
				"x": 1.7615319891,
				"y": 3.2987280827,
				"z": 1.4975552323,
				"element": "H" 
			},
			{
				"x": 0.2060892679,
				"y": 3.7784212743,
				"z": 0.8349381319,
				"element": "H" 
			},
			{
				"x": 1.7045615421,
				"y": 4.4057032831,
				"z": 0.1034611219,
				"element": "H" 
			},
			{
				"x": 2.5126065018,
				"y": 2.0078549159,
				"z": -4.099670305,
				"element": "H" 
			},
			{
				"x": 1.1639194267,
				"y": -0.2759496236,
				"z": -4.3766964137,
				"element": "H" 
			},
			{
				"x": 2.7123231651,
				"y": -0.7174284251,
				"z": -4.1769154845,
				"element": "H" 
			},
			{
				"x": 2.2710302053,
				"y": 3.2845271772,
				"z": -2.002396747,
				"element": "H" 
			},
			{
				"x": -1.54178697,
				"y": -2.1162929799,
				"z": 2.5183096125,
				"element": "H" 
			},
			{
				"x": -1.5356299202,
				"y": -4.2884108379,
				"z": 1.2897893924,
				"element": "H" 
			},
			{
				"x": -0.4227523334,
				"y": -4.3807162157,
				"z": -0.9663947924,
				"element": "H" 
			},
			{
				"x": 0.6233401731,
				"y": -2.2792154711,
				"z": -1.8634150157,
				"element": "H" 
			}
		],
		 "valence_orbital": [ 
			{
				"type": "occ",
				"energy": -0.27629,
				"method": "rhf"
			},
			{
				"type": "occ",
				"energy": -0.252,
				"method": "rhf"
			},
			{
				"type": "occ",
				"energy": -0.24868,
				"method": "rhf"
			},
			{
				"type": "occ",
				"energy": -0.2323,
				"method": "rhf"
			},
			{
				"type": "occ",
				"energy": -0.22563,
				"method": "rhf"
			},
			{
				"type": "unocc",
				"energy": -0.04828,
				"method": "rhf"
			},
			{
				"type": "unocc",
				"energy": -0.01774,
				"method": "rhf"
			},
			{
				"type": "unocc",
				"energy": -0.00349,
				"method": "rhf"
			},
			{
				"type": "unocc",
				"energy": 0.03354,
				"method": "rhf"
			},
			{
				"type": "unocc",
				"energy": 0.0798,
				"method": "rhf"
			}
		],
		"cosmo_sigma_profile": { 
			"-0.025": 0.0,
			"-0.024": 0.0,
			"-0.023": 0.0,
			"-0.022": 0.0,
			"-0.021": 0.0,
			"-0.02": 0.0,
			"-0.019": 0.0,
			"-0.018": 0.0,
			"-0.017": 0.0,
			"-0.016": 0.0,
			"-0.015": 0.0592217778609,
			"-0.014": 1.0524515268,
			"-0.013": 1.36876447911,
			"-0.012": 1.26642562471,
			"-0.011": 2.46551556275,
			"-0.01": 2.86437443191,
			"-0.009": 3.80557201449,
			"-0.008": 4.0017006221,
			"-0.007": 7.87221343257,
			"-0.006": 11.8226307365,
			"-0.005": 16.9195581777,
			"-0.004": 16.1840869705,
			"-0.003": 13.3848553007,
			"-0.002": 14.0962075576,
			"-0.001": 18.5924079636,
			"0.0": 20.0204825391,
			"0.001": 22.1400313402,
			"0.002": 26.8933738116,
			"0.003": 16.1334400553,
			"0.004": 7.10038973518,
			"0.005": 5.92087817038,
			"0.006": 4.51958963681,
			"0.007": 3.27660627122,
			"0.008": 3.16548477194,
			"0.009": 1.83468692776,
			"0.01": 1.83953888655,
			"0.011": 2.61984399123,
			"0.012": 2.30547821685,
			"0.013": 1.01373077225,
			"0.014": 1.70052807147,
			"0.015": 1.63056704636,
			"0.016": 2.06851608216,
			"0.017": 1.26117048373,
			"0.018": 0.567710760111,
			"0.019": 0.922955136505,
			"0.02": 0.707855465199,
			"0.021": 0.906663768311,
			"0.022": 0.436226017404,
			"0.023": 0.00445136737983,
			"0.024": 0.0,
			"0.025": 0.0
		}
	}
}
