{
	 "smiles": "FC(F)(F)N1C(F)(F)C(F)(F)OC(F)(F)C1(F)F", 
	 "Tm": 193.15, 
	 "num_atms": 18, 
	 "gaussian": { 
		 "optdone": 1, 
		 "sigma_profile": "yes", 
		 "theory": "DFT", 
		 "functional": "B3LYP", 
		 "basiset": "6-31G**", 
		 "properties": { 
			 "R2extent": 3870.219, 
			 "electric_dipole_moment_norm": 0.182954475212, 
			 "electric_quadrupole_moment_norm": 0.290653161001, 
			 "total_energy": -1418.72101773, 
			 "HOMO_LUMO_gap": 0.38516, 
			 "cosmo_polarized_energy": -1.59, 
			 "cosmo_cavitation_energy": 26.6, 
			 "cosmo_dispersion_energy": -17.95, 
			 "cosmo_repulsion_energy": 1.15, 
			 "cosmo_total_nonelectrostatic_energy": 9.81, 
			 "SMD_solvation_energy": 7.57 
		},
		"coords": [
			{
				"x": -0.7225742516,
				"y": 0.0207632722,
				"z": 3.431455352,
				"element": "F" 
			},
			{
				"x": -1.084630021,
				"y": -0.0157269006,
				"z": 2.1472973489,
				"element": "C" 
			},
			{
				"x": -1.5349518569,
				"y": -1.2430221153,
				"z": 1.8684338113,
				"element": "F" 
			},
			{
				"x": -2.0983956767,
				"y": 0.8434732342,
				"z": 1.9605079176,
				"element": "F" 
			},
			{
				"x": 0.0516180069,
				"y": 0.3156116523,
				"z": 1.3170150243,
				"element": "N" 
			},
			{
				"x": 1.2411225199,
				"y": 0.8395933796,
				"z": 1.9245369677,
				"element": "C" 
			},
			{
				"x": 0.9903840778,
				"y": 1.9075057494,
				"z": 2.7203933673,
				"element": "F" 
			},
			{
				"x": 1.8224995036,
				"y": -0.1067680317,
				"z": 2.6939836324,
				"element": "F" 
			},
			{
				"x": 2.2725564156,
				"y": 1.2775930479,
				"z": 0.8347300045,
				"element": "C" 
			},
			{
				"x": 2.0082486034,
				"y": 2.5438549323,
				"z": 0.4516367012,
				"element": "F" 
			},
			{
				"x": 3.4984938188,
				"y": 1.2349300709,
				"z": 1.3543669699,
				"element": "F" 
			},
			{
				"x": 2.2746361692,
				"y": 0.4219999038,
				"z": -0.2524765596,
				"element": "O" 
			},
			{
				"x": 1.0738504874,
				"y": 0.2224480195,
				"z": -0.918477109,
				"element": "C" 
			},
			{
				"x": 1.0610727088,
				"y": 0.9268561612,
				"z": -2.0612724224,
				"element": "F" 
			},
			{
				"x": 1.0127966708,
				"y": -1.0805357354,
				"z": -1.2263745289,
				"element": "F" 
			},
			{
				"x": -0.1845874711,
				"y": 0.5982099025,
				"z": -0.0697989105,
				"element": "C" 
			},
			{
				"x": -0.4879046595,
				"y": 1.9034487422,
				"z": -0.2847303056,
				"element": "F" 
			},
			{
				"x": -1.2252350451,
				"y": -0.1346352851,
				"z": -0.5042272611,
				"element": "F" 
			}
		],
		 "valence_orbital": [ 
			{
				"type": "occ",
				"energy": -0.43124,
				"method": "rhf"
			},
			{
				"type": "occ",
				"energy": -0.4065,
				"method": "rhf"
			},
			{
				"type": "occ",
				"energy": -0.39317,
				"method": "rhf"
			},
			{
				"type": "occ",
				"energy": -0.37106,
				"method": "rhf"
			},
			{
				"type": "occ",
				"energy": -0.34547,
				"method": "rhf"
			},
			{
				"type": "unocc",
				"energy": 0.03969,
				"method": "rhf"
			},
			{
				"type": "unocc",
				"energy": 0.0555,
				"method": "rhf"
			},
			{
				"type": "unocc",
				"energy": 0.06352,
				"method": "rhf"
			},
			{
				"type": "unocc",
				"energy": 0.07656,
				"method": "rhf"
			},
			{
				"type": "unocc",
				"energy": 0.11561,
				"method": "rhf"
			}
		],
		"cosmo_sigma_profile": { 
			"-0.025": 0.0,
			"-0.024": 0.0,
			"-0.023": 0.0,
			"-0.022": 0.0,
			"-0.021": 0.0,
			"-0.02": 0.0,
			"-0.019": 0.0,
			"-0.018": 0.0,
			"-0.017": 0.0,
			"-0.016": 0.0,
			"-0.015": 0.0,
			"-0.014": 0.0,
			"-0.013": 0.0,
			"-0.012": 0.0,
			"-0.011": 0.0,
			"-0.01": 0.0,
			"-0.009": 0.0,
			"-0.008": 0.204658221858,
			"-0.007": 0.599348917417,
			"-0.006": 0.926554134483,
			"-0.005": 2.69493278988,
			"-0.004": 6.82720199196,
			"-0.003": 10.5705858186,
			"-0.002": 13.6414786857,
			"-0.001": 18.5046658301,
			"0.0": 50.3865008969,
			"0.001": 93.114748703,
			"0.002": 14.7834540861,
			"0.003": 1.57580473986,
			"0.004": 0.619212054124,
			"0.005": 0.0,
			"0.006": 0.0,
			"0.007": 0.0,
			"0.008": 0.0,
			"0.009": 0.0,
			"0.01": 0.0,
			"0.011": 0.0,
			"0.012": 0.0,
			"0.013": 0.0,
			"0.014": 0.0,
			"0.015": 0.0,
			"0.016": 0.0,
			"0.017": 0.0,
			"0.018": 0.0,
			"0.019": 0.0,
			"0.02": 0.0,
			"0.021": 0.0,
			"0.022": 0.0,
			"0.023": 0.0,
			"0.024": 0.0,
			"0.025": 0.0
		}
	}
}
