{
	 "smiles": "CCNC(=O)CCC(O)=O", 
	 "Tm": 358.15, 
	 "num_atms": 21, 
	 "gaussian": { 
		 "optdone": 1, 
		 "sigma_profile": "yes", 
		 "theory": "DFT", 
		 "functional": "B3LYP", 
		 "basiset": "6-31G**", 
		 "properties": { 
			 "R2extent": 2002.5191, 
			 "electric_dipole_moment_norm": 8.01509901498, 
			 "electric_quadrupole_moment_norm": 10.9583710811, 
			 "total_energy": -515.731234591, 
			 "HOMO_LUMO_gap": 0.24115, 
			 "cosmo_polarized_energy": -18.46, 
			 "cosmo_cavitation_energy": 24.35, 
			 "cosmo_dispersion_energy": -17.72, 
			 "cosmo_repulsion_energy": 1.47, 
			 "cosmo_total_nonelectrostatic_energy": 8.1, 
			 "SMD_solvation_energy": 5.41 
		},
		"coords": [
			{
				"x": 2.3614204034,
				"y": 2.4650811605,
				"z": 0.595942131,
				"element": "C" 
			},
			{
				"x": 1.0940866604,
				"y": 2.5894714568,
				"z": -0.256167435,
				"element": "C" 
			},
			{
				"x": -0.1059331897,
				"y": 2.0983349681,
				"z": 0.4163615167,
				"element": "N" 
			},
			{
				"x": -0.6764287387,
				"y": 0.8684850857,
				"z": 0.3521025434,
				"element": "C" 
			},
			{
				"x": -1.6274515939,
				"y": 0.5907981341,
				"z": 1.0966501701,
				"element": "O" 
			},
			{
				"x": -0.1344709458,
				"y": -0.123846762,
				"z": -0.6722679216,
				"element": "C" 
			},
			{
				"x": -1.0010060031,
				"y": -1.3874755407,
				"z": -0.8342704124,
				"element": "C" 
			},
			{
				"x": -0.8620266758,
				"y": -2.4188056282,
				"z": 0.2922475047,
				"element": "C" 
			},
			{
				"x": -1.298778481,
				"y": -2.0311019216,
				"z": 1.4992953569,
				"element": "O" 
			},
			{
				"x": -0.3924061987,
				"y": -3.519027883,
				"z": 0.1057123535,
				"element": "O" 
			},
			{
				"x": 3.2234826861,
				"y": 2.8699535967,
				"z": 0.056180732,
				"element": "H" 
			},
			{
				"x": 2.570736405,
				"y": 1.4198243497,
				"z": 0.8426012049,
				"element": "H" 
			},
			{
				"x": 2.2595455836,
				"y": 3.0191920505,
				"z": 1.5344735102,
				"element": "H" 
			},
			{
				"x": 1.214104761,
				"y": 2.0488789341,
				"z": -1.1975330337,
				"element": "H" 
			},
			{
				"x": 0.9205228999,
				"y": 3.6379940449,
				"z": -0.5222542939,
				"element": "H" 
			},
			{
				"x": -0.4986065801,
				"y": 2.674092096,
				"z": 1.1519089318,
				"element": "H" 
			},
			{
				"x": -0.0674953492,
				"y": 0.3808258985,
				"z": -1.6429816957,
				"element": "H" 
			},
			{
				"x": 0.8944114955,
				"y": -0.3953081445,
				"z": -0.4030062721,
				"element": "H" 
			},
			{
				"x": -2.0521915523,
				"y": -1.0911591321,
				"z": -0.9234508588,
				"element": "H" 
			},
			{
				"x": -0.7110952265,
				"y": -1.8997411154,
				"z": -1.7528343583,
				"element": "H" 
			},
			{
				"x": -1.6040203604,
				"y": -1.0923656481,
				"z": 1.4518903263,
				"element": "H" 
			}
		],
		 "valence_orbital": [ 
			{
				"type": "occ",
				"energy": -0.34457,
				"method": "rhf"
			},
			{
				"type": "occ",
				"energy": -0.28732,
				"method": "rhf"
			},
			{
				"type": "occ",
				"energy": -0.28215,
				"method": "rhf"
			},
			{
				"type": "occ",
				"energy": -0.27733,
				"method": "rhf"
			},
			{
				"type": "occ",
				"energy": -0.24502,
				"method": "rhf"
			},
			{
				"type": "unocc",
				"energy": -0.00387,
				"method": "rhf"
			},
			{
				"type": "unocc",
				"energy": 0.02686,
				"method": "rhf"
			},
			{
				"type": "unocc",
				"energy": 0.06238,
				"method": "rhf"
			},
			{
				"type": "unocc",
				"energy": 0.07527,
				"method": "rhf"
			},
			{
				"type": "unocc",
				"energy": 0.09891,
				"method": "rhf"
			}
		],
		"cosmo_sigma_profile": { 
			"-0.025": 0.0,
			"-0.024": 0.0,
			"-0.023": 0.0,
			"-0.022": 0.0,
			"-0.021": 0.0,
			"-0.02": 0.0,
			"-0.019": 0.0,
			"-0.018": 0.0,
			"-0.017": 0.0,
			"-0.016": 0.0,
			"-0.015": 0.000462199576175,
			"-0.014": 0.786557093417,
			"-0.013": 1.29486402378,
			"-0.012": 0.659063030141,
			"-0.011": 1.20363278168,
			"-0.01": 0.744772166942,
			"-0.009": 1.539502983,
			"-0.008": 2.20405056611,
			"-0.007": 6.76603648238,
			"-0.006": 14.7893642016,
			"-0.005": 18.4691320952,
			"-0.004": 19.1226853366,
			"-0.003": 19.6600289573,
			"-0.002": 15.7702906668,
			"-0.001": 11.1934103989,
			"0.0": 11.7489333183,
			"0.001": 8.53104882386,
			"0.002": 4.16999455064,
			"0.003": 4.57724268388,
			"0.004": 2.50564060742,
			"0.005": 3.21936505789,
			"0.006": 3.49721945026,
			"0.007": 2.77373934729,
			"0.008": 4.03781369944,
			"0.009": 3.141979758,
			"0.01": 4.70303298011,
			"0.011": 6.01539217931,
			"0.012": 8.58399015692,
			"0.013": 6.68310770952,
			"0.014": 2.12194684037,
			"0.015": 0.105552480322,
			"0.016": 0.0,
			"0.017": 0.0,
			"0.018": 0.0,
			"0.019": 0.0,
			"0.02": 0.0,
			"0.021": 0.0,
			"0.022": 0.0,
			"0.023": 0.0,
			"0.024": 0.0,
			"0.025": 0.0
		}
	}
}
