{
	 "smiles": "CCC1=CCCC1=NNC1=C(C=C(C=C1)[N+]([O-])=O)[N+]([O-])=O", 
	 "Tm": 493.15, 
	 "num_atms": 35, 
	 "gaussian": { 
		 "optdone": 1, 
		 "sigma_profile": "yes", 
		 "theory": "DFT", 
		 "functional": "B3LYP", 
		 "basiset": "6-31G**", 
		 "properties": { 
			 "R2extent": 9456.0851, 
			 "electric_dipole_moment_norm": 8.94936313432, 
			 "electric_quadrupole_moment_norm": 19.1345669556, 
			 "total_energy": -1023.49128741, 
			 "HOMO_LUMO_gap": 0.12131, 
			 "cosmo_polarized_energy": -13.78, 
			 "cosmo_cavitation_energy": 39.28, 
			 "cosmo_dispersion_energy": -28.07, 
			 "cosmo_repulsion_energy": 2.14, 
			 "cosmo_total_nonelectrostatic_energy": 13.35, 
			 "SMD_solvation_energy": 9.67 
		},
		"coords": [
			{
				"x": 1.9484524038,
				"y": -1.7661428681,
				"z": 1.745223287,
				"element": "C" 
			},
			{
				"x": 0.8313480731,
				"y": -2.8165953684,
				"z": 1.8914705868,
				"element": "C" 
			},
			{
				"x": 0.2892173055,
				"y": -3.3102423221,
				"z": 0.5706541549,
				"element": "C" 
			},
			{
				"x": 0.5535226438,
				"y": -4.5338979958,
				"z": 0.0638677502,
				"element": "C" 
			},
			{
				"x": -0.0598647398,
				"y": -4.7962895409,
				"z": -1.2816319383,
				"element": "C" 
			},
			{
				"x": -0.6853030364,
				"y": -3.4350342398,
				"z": -1.6575123141,
				"element": "C" 
			},
			{
				"x": -0.5597743276,
				"y": -2.5800472435,
				"z": -0.4013027975,
				"element": "C" 
			},
			{
				"x": -1.1858700452,
				"y": -1.4514425016,
				"z": -0.3858607933,
				"element": "N" 
			},
			{
				"x": -1.1298810975,
				"y": -0.6397013472,
				"z": 0.712300341,
				"element": "N" 
			},
			{
				"x": -1.7936819513,
				"y": 0.5460846706,
				"z": 0.7059795399,
				"element": "C" 
			},
			{
				"x": -1.8140854658,
				"y": 1.4290319781,
				"z": 1.8335157218,
				"element": "C" 
			},
			{
				"x": -2.5007971699,
				"y": 2.644618986,
				"z": 1.7874836639,
				"element": "C" 
			},
			{
				"x": -3.1739252249,
				"y": 3.0032021864,
				"z": 0.6368780387,
				"element": "C" 
			},
			{
				"x": -3.179478948,
				"y": 2.1616842616,
				"z": -0.4904543626,
				"element": "C" 
			},
			{
				"x": -2.5052515538,
				"y": 0.964306297,
				"z": -0.4540088425,
				"element": "C" 
			},
			{
				"x": -3.8896594974,
				"y": 4.2736787644,
				"z": 0.5935754477,
				"element": "N" 
			},
			{
				"x": -3.8633197344,
				"y": 4.9850681322,
				"z": 1.5989960271,
				"element": "O" 
			},
			{
				"x": -4.478878948,
				"y": 4.5567930093,
				"z": -0.4522946212,
				"element": "O" 
			},
			{
				"x": -1.1380613131,
				"y": 1.1200184433,
				"z": 3.0778184871,
				"element": "N" 
			},
			{
				"x": -0.5205048149,
				"y": 0.0377293123,
				"z": 3.1673010968,
				"element": "O" 
			},
			{
				"x": -1.1945770697,
				"y": 1.928424828,
				"z": 4.0005695207,
				"element": "O" 
			},
			{
				"x": 1.6075234491,
				"y": -0.8725894618,
				"z": 1.2137971638,
				"element": "H" 
			},
			{
				"x": 2.3039613985,
				"y": -1.4483744728,
				"z": 2.7292966614,
				"element": "H" 
			},
			{
				"x": 2.7935608982,
				"y": -2.1822338516,
				"z": 1.1882726023,
				"element": "H" 
			},
			{
				"x": 0.0298614167,
				"y": -2.4248316846,
				"z": 2.5292190196,
				"element": "H" 
			},
			{
				"x": 1.229690207,
				"y": -3.6809851279,
				"z": 2.4341038953,
				"element": "H" 
			},
			{
				"x": 1.1493131241,
				"y": -5.2785118978,
				"z": 0.5853874328,
				"element": "H" 
			},
			{
				"x": -0.8120593406,
				"y": -5.5944474493,
				"z": -1.2193271742,
				"element": "H" 
			},
			{
				"x": 0.6855373533,
				"y": -5.1380141696,
				"z": -2.0098328485,
				"element": "H" 
			},
			{
				"x": -0.1347102776,
				"y": -2.9596860167,
				"z": -2.4770425732,
				"element": "H" 
			},
			{
				"x": -1.7280302385,
				"y": -3.5080575662,
				"z": -1.9763779422,
				"element": "H" 
			},
			{
				"x": -0.6554764352,
				"y": -0.8824394549,
				"z": 1.577545769,
				"element": "H" 
			},
			{
				"x": -2.49999667,
				"y": 3.2926225906,
				"z": 2.6529641643,
				"element": "H" 
			},
			{
				"x": -3.7187252726,
				"y": 2.4740860912,
				"z": -1.3762289186,
				"element": "H" 
			},
			{
				"x": -2.4947751009,
				"y": 0.3014150294,
				"z": -1.307945246,
				"element": "H" 
			}
		],
		 "valence_orbital": [ 
			{
				"type": "occ",
				"energy": -0.29342,
				"method": "rhf"
			},
			{
				"type": "occ",
				"energy": -0.28637,
				"method": "rhf"
			},
			{
				"type": "occ",
				"energy": -0.28381,
				"method": "rhf"
			},
			{
				"type": "occ",
				"energy": -0.2774,
				"method": "rhf"
			},
			{
				"type": "occ",
				"energy": -0.22159,
				"method": "rhf"
			},
			{
				"type": "unocc",
				"energy": -0.10028,
				"method": "rhf"
			},
			{
				"type": "unocc",
				"energy": -0.08617,
				"method": "rhf"
			},
			{
				"type": "unocc",
				"energy": -0.04944,
				"method": "rhf"
			},
			{
				"type": "unocc",
				"energy": -0.01302,
				"method": "rhf"
			},
			{
				"type": "unocc",
				"energy": 0.01329,
				"method": "rhf"
			}
		],
		"cosmo_sigma_profile": { 
			"-0.025": 0.0,
			"-0.024": 0.0,
			"-0.023": 0.0,
			"-0.022": 0.0,
			"-0.021": 0.0,
			"-0.02": 0.0,
			"-0.019": 0.0,
			"-0.018": 0.0,
			"-0.017": 0.0,
			"-0.016": 0.0,
			"-0.015": 0.0,
			"-0.014": 0.0,
			"-0.013": 0.0,
			"-0.012": 0.0,
			"-0.011": 0.0,
			"-0.01": 0.0225336127459,
			"-0.009": 0.344392204726,
			"-0.008": 1.8223450995,
			"-0.007": 4.83282626317,
			"-0.006": 10.2654566051,
			"-0.005": 18.3976656868,
			"-0.004": 28.0504097008,
			"-0.003": 36.2217060369,
			"-0.002": 39.2674390139,
			"-0.001": 37.9223623139,
			"0.0": 26.831645422,
			"0.001": 22.9839522195,
			"0.002": 11.4680910048,
			"0.003": 8.60486325135,
			"0.004": 6.93884033464,
			"0.005": 8.32859841332,
			"0.006": 7.58459134264,
			"0.007": 12.7180132943,
			"0.008": 15.1599423836,
			"0.009": 8.48833586978,
			"0.01": 6.18806827781,
			"0.011": 0.870441755737,
			"0.012": 0.0,
			"0.013": 0.0,
			"0.014": 0.0,
			"0.015": 0.0,
			"0.016": 0.0,
			"0.017": 0.0,
			"0.018": 0.0,
			"0.019": 0.0,
			"0.02": 0.0,
			"0.021": 0.0,
			"0.022": 0.0,
			"0.023": 0.0,
			"0.024": 0.0,
			"0.025": 0.0
		}
	}
}
