{
	 "smiles": "NNC1=C(C=CC=N1)C(F)(F)F", 
	 "Tm": 345.15, 
	 "num_atms": 18, 
	 "gaussian": { 
		 "optdone": 1, 
		 "sigma_profile": "yes", 
		 "theory": "DFT", 
		 "functional": "B3LYP", 
		 "basiset": "6-31G**", 
		 "properties": { 
			 "R2extent": 2009.8919, 
			 "electric_dipole_moment_norm": 2.0916552345, 
			 "electric_quadrupole_moment_norm": 3.9727579375, 
			 "total_energy": -696.004761288, 
			 "HOMO_LUMO_gap": 0.18581, 
			 "cosmo_polarized_energy": -7.28, 
			 "cosmo_cavitation_energy": 23.29, 
			 "cosmo_dispersion_energy": -17.03, 
			 "cosmo_repulsion_energy": 1.31, 
			 "cosmo_total_nonelectrostatic_energy": 7.57, 
			 "SMD_solvation_energy": 4.56 
		},
		"coords": [
			{
				"x": 1.8523172348,
				"y": -1.7012404759,
				"z": -0.8016167544,
				"element": "N" 
			},
			{
				"x": 0.9709567975,
				"y": -0.6023272128,
				"z": -0.7393158271,
				"element": "N" 
			},
			{
				"x": 0.2443042711,
				"y": -0.3249264701,
				"z": 0.3939793485,
				"element": "C" 
			},
			{
				"x": -0.5092419755,
				"y": 0.8784728866,
				"z": 0.5194977757,
				"element": "C" 
			},
			{
				"x": -1.2273793397,
				"y": 1.0837416815,
				"z": 1.6893773629,
				"element": "C" 
			},
			{
				"x": -1.1996743453,
				"y": 0.1218242267,
				"z": 2.702052485,
				"element": "C" 
			},
			{
				"x": -0.4394704841,
				"y": -1.0209726603,
				"z": 2.479510742,
				"element": "C" 
			},
			{
				"x": 0.2686915719,
				"y": -1.2483897999,
				"z": 1.367090505,
				"element": "N" 
			},
			{
				"x": -0.5715820441,
				"y": 1.8755264845,
				"z": -0.5977552262,
				"element": "C" 
			},
			{
				"x": 0.6748289811,
				"y": 2.2473009538,
				"z": -1.0147820553,
				"element": "F" 
			},
			{
				"x": -1.218090759,
				"y": 3.0028871881,
				"z": -0.2432448853,
				"element": "F" 
			},
			{
				"x": -1.1942662693,
				"y": 1.3792360069,
				"z": -1.6914136714,
				"element": "F" 
			},
			{
				"x": 2.2623051355,
				"y": -1.8262585714,
				"z": 0.1250052587,
				"element": "H" 
			},
			{
				"x": 1.2869907775,
				"y": -2.5353099417,
				"z": -0.9548565169,
				"element": "H" 
			},
			{
				"x": 1.2474609865,
				"y": 0.170021241,
				"z": -1.325945627,
				"element": "H" 
			},
			{
				"x": -1.8058243825,
				"y": 1.9941099732,
				"z": 1.8023029433,
				"element": "H" 
			},
			{
				"x": -1.7509803633,
				"y": 0.2562399677,
				"z": 3.6253981025,
				"element": "H" 
			},
			{
				"x": -0.387345793,
				"y": -1.8028354777,
				"z": 3.2356160401,
				"element": "H" 
			}
		],
		 "valence_orbital": [ 
			{
				"type": "occ",
				"energy": -0.32166,
				"method": "rhf"
			},
			{
				"type": "occ",
				"energy": -0.29764,
				"method": "rhf"
			},
			{
				"type": "occ",
				"energy": -0.28067,
				"method": "rhf"
			},
			{
				"type": "occ",
				"energy": -0.2663,
				"method": "rhf"
			},
			{
				"type": "occ",
				"energy": -0.22393,
				"method": "rhf"
			},
			{
				"type": "unocc",
				"energy": -0.03812,
				"method": "rhf"
			},
			{
				"type": "unocc",
				"energy": -0.00916,
				"method": "rhf"
			},
			{
				"type": "unocc",
				"energy": 0.08987,
				"method": "rhf"
			},
			{
				"type": "unocc",
				"energy": 0.10231,
				"method": "rhf"
			},
			{
				"type": "unocc",
				"energy": 0.11105,
				"method": "rhf"
			}
		],
		"cosmo_sigma_profile": { 
			"-0.025": 0.0,
			"-0.024": 0.0,
			"-0.023": 0.0,
			"-0.022": 0.0,
			"-0.021": 0.0,
			"-0.02": 0.0,
			"-0.019": 0.0,
			"-0.018": 0.0,
			"-0.017": 0.0,
			"-0.016": 0.0,
			"-0.015": 0.0,
			"-0.014": 0.0,
			"-0.013": 0.0,
			"-0.012": 0.196743100156,
			"-0.011": 1.46091787155,
			"-0.01": 2.05811536976,
			"-0.009": 3.73330272103,
			"-0.008": 3.32420346449,
			"-0.007": 5.20837692083,
			"-0.006": 9.37775734398,
			"-0.005": 9.40639079019,
			"-0.004": 9.34247235555,
			"-0.003": 9.6203696702,
			"-0.002": 10.6825964343,
			"-0.001": 10.5226179481,
			"0.0": 14.1013738492,
			"0.001": 18.2911217308,
			"0.002": 29.8617194688,
			"0.003": 26.0829327602,
			"0.004": 5.57446162371,
			"0.005": 2.77431466742,
			"0.006": 2.2479510933,
			"0.007": 1.8462980308,
			"0.008": 2.11328380814,
			"0.009": 1.15342633991,
			"0.01": 1.48328478463,
			"0.011": 1.88684201041,
			"0.012": 1.20572481672,
			"0.013": 0.503161800885,
			"0.014": 0.233505488091,
			"0.015": 1.14266893685,
			"0.016": 0.507014490051,
			"0.017": 0.238448241007,
			"0.018": 0.0,
			"0.019": 0.0,
			"0.02": 0.0,
			"0.021": 0.0,
			"0.022": 0.0,
			"0.023": 0.0,
			"0.024": 0.0,
			"0.025": 0.0
		}
	}
}
