{
	 "smiles": "CCCCCCCCCCCCCCC1=CC=CC=C1", 
	 "Tm": 289.15, 
	 "num_atms": 54, 
	 "gaussian": { 
		 "optdone": 1, 
		 "sigma_profile": "yes", 
		 "theory": "DFT", 
		 "functional": "B3LYP", 
		 "basiset": "6-31G**", 
		 "properties": { 
			 "R2extent": 11974.1573, 
			 "electric_dipole_moment_norm": 0.374711035333, 
			 "electric_quadrupole_moment_norm": 3.6147674946, 
			 "total_energy": -782.660918186, 
			 "HOMO_LUMO_gap": 0.23957, 
			 "cosmo_polarized_energy": -3.66, 
			 "cosmo_cavitation_energy": 52.81, 
			 "cosmo_dispersion_energy": -35.42, 
			 "cosmo_repulsion_energy": 2.84, 
			 "cosmo_total_nonelectrostatic_energy": 20.24, 
			 "SMD_solvation_energy": 6.93 
		},
		"coords": [
			{
				"x": -5.7324362952,
				"y": -0.4010771787,
				"z": -2.3953926245,
				"element": "C" 
			},
			{
				"x": -5.1051465151,
				"y": -1.5676885864,
				"z": -1.6236768598,
				"element": "C" 
			},
			{
				"x": -3.6966840189,
				"y": -1.3165446191,
				"z": -1.0547485815,
				"element": "C" 
			},
			{
				"x": -2.5823543676,
				"y": -1.059504683,
				"z": -2.0955983333,
				"element": "C" 
			},
			{
				"x": -2.3225462907,
				"y": 0.4244724662,
				"z": -2.4121657286,
				"element": "C" 
			},
			{
				"x": -1.2084331756,
				"y": 0.6815909,
				"z": -3.4533391455,
				"element": "C" 
			},
			{
				"x": 0.2010605797,
				"y": 0.9333104631,
				"z": -2.8872093776,
				"element": "C" 
			},
			{
				"x": 0.8418627385,
				"y": -0.2317626146,
				"z": -2.1207437955,
				"element": "C" 
			},
			{
				"x": 2.2877459171,
				"y": 0.0544306266,
				"z": -1.6916801416,
				"element": "C" 
			},
			{
				"x": 2.931446452,
				"y": -1.1038541924,
				"z": -0.9175363821,
				"element": "C" 
			},
			{
				"x": 4.4103756019,
				"y": -0.8919512433,
				"z": -0.5500063766,
				"element": "C" 
			},
			{
				"x": 4.7531743431,
				"y": 0.2775422916,
				"z": 0.3941292812,
				"element": "C" 
			},
			{
				"x": 4.2187137432,
				"y": 0.1686651415,
				"z": 1.8386667587,
				"element": "C" 
			},
			{
				"x": 2.8215424407,
				"y": 0.7849398716,
				"z": 2.0747565982,
				"element": "C" 
			},
			{
				"x": 2.3786585853,
				"y": 0.6905903775,
				"z": 3.5194990171,
				"element": "C" 
			},
			{
				"x": 1.6602446383,
				"y": -0.421228932,
				"z": 3.9809611813,
				"element": "C" 
			},
			{
				"x": 1.2837168563,
				"y": -0.5289926802,
				"z": 5.3204947556,
				"element": "C" 
			},
			{
				"x": 1.6204607853,
				"y": 0.4787245236,
				"z": 6.2261851672,
				"element": "C" 
			},
			{
				"x": 2.3344546176,
				"y": 1.592814746,
				"z": 5.7809186283,
				"element": "C" 
			},
			{
				"x": 2.7083594573,
				"y": 1.6950208896,
				"z": 4.4402567956,
				"element": "C" 
			},
			{
				"x": -6.7593087039,
				"y": -0.6382814532,
				"z": -2.6940608773,
				"element": "H" 
			},
			{
				"x": -5.7666338717,
				"y": 0.5084532334,
				"z": -1.7844046541,
				"element": "H" 
			},
			{
				"x": -5.1743564986,
				"y": -0.1679749768,
				"z": -3.3077994791,
				"element": "H" 
			},
			{
				"x": -5.7679487962,
				"y": -1.8362470616,
				"z": -0.7904839262,
				"element": "H" 
			},
			{
				"x": -5.0694602809,
				"y": -2.4516978067,
				"z": -2.2754651668,
				"element": "H" 
			},
			{
				"x": -3.734685933,
				"y": -0.4764549952,
				"z": -0.3465576428,
				"element": "H" 
			},
			{
				"x": -3.4251761139,
				"y": -2.1954432729,
				"z": -0.4565256948,
				"element": "H" 
			},
			{
				"x": -2.8262633717,
				"y": -1.588090855,
				"z": -3.0285190279,
				"element": "H" 
			},
			{
				"x": -1.6509932811,
				"y": -1.5122275104,
				"z": -1.7378696434,
				"element": "H" 
			},
			{
				"x": -3.2538158691,
				"y": 0.8770022557,
				"z": -2.7700095264,
				"element": "H" 
			},
			{
				"x": -2.0786120689,
				"y": 0.95317622,
				"z": -1.47941604,
				"element": "H" 
			},
			{
				"x": -1.1718884642,
				"y": -0.1575022874,
				"z": -4.1627219471,
				"element": "H" 
			},
			{
				"x": -1.4803203248,
				"y": 1.5609966218,
				"z": -4.0504612447,
				"element": "H" 
			},
			{
				"x": 0.166648577,
				"y": 1.8153447318,
				"z": -2.2314025756,
				"element": "H" 
			},
			{
				"x": 0.8621573148,
				"y": 1.2068793787,
				"z": -3.7215528465,
				"element": "H" 
			},
			{
				"x": 0.8209788515,
				"y": -1.1364713656,
				"z": -2.7453668651,
				"element": "H" 
			},
			{
				"x": 0.246118963,
				"y": -0.4637602875,
				"z": -1.2281011703,
				"element": "H" 
			},
			{
				"x": 2.3050465642,
				"y": 0.9688588034,
				"z": -1.0838769555,
				"element": "H" 
			},
			{
				"x": 2.8941610268,
				"y": 0.2729244279,
				"z": -2.5827496864,
				"element": "H" 
			},
			{
				"x": 2.3443273597,
				"y": -1.3127927564,
				"z": -0.0134083469,
				"element": "H" 
			},
			{
				"x": 2.8611354079,
				"y": -2.0143296255,
				"z": -1.52869519,
				"element": "H" 
			},
			{
				"x": 4.7931289825,
				"y": -1.817996331,
				"z": -0.0993844238,
				"element": "H" 
			},
			{
				"x": 4.9791460266,
				"y": -0.7551110994,
				"z": -1.4804109881,
				"element": "H" 
			},
			{
				"x": 5.8478809622,
				"y": 0.3372352631,
				"z": 0.4394269547,
				"element": "H" 
			},
			{
				"x": 4.4274538385,
				"y": 1.2294980259,
				"z": -0.0461950126,
				"element": "H" 
			},
			{
				"x": 4.2076345451,
				"y": -0.8838821642,
				"z": 2.1526814856,
				"element": "H" 
			},
			{
				"x": 4.9179431459,
				"y": 0.6722948568,
				"z": 2.5177451762,
				"element": "H" 
			},
			{
				"x": 2.0808906173,
				"y": 0.2943356575,
				"z": 1.4346149126,
				"element": "H" 
			},
			{
				"x": 2.8483992214,
				"y": 1.8384153527,
				"z": 1.7678562071,
				"element": "H" 
			},
			{
				"x": 1.3895108022,
				"y": -1.2083106254,
				"z": 3.2805972824,
				"element": "H" 
			},
			{
				"x": 0.7235059946,
				"y": -1.3976296123,
				"z": 5.6558180534,
				"element": "H" 
			},
			{
				"x": 1.3252434059,
				"y": 0.3987311803,
				"z": 7.2685236619,
				"element": "H" 
			},
			{
				"x": 2.5964815728,
				"y": 2.3853626855,
				"z": 6.4766381813,
				"element": "H" 
			},
			{
				"x": 3.2598543049,
				"y": 2.5687978248,
				"z": 4.1000661793,
				"element": "H" 
			}
		],
		 "valence_orbital": [ 
			{
				"type": "occ",
				"energy": -0.30417,
				"method": "rhf"
			},
			{
				"type": "occ",
				"energy": -0.2945,
				"method": "rhf"
			},
			{
				"type": "occ",
				"energy": -0.28994,
				"method": "rhf"
			},
			{
				"type": "occ",
				"energy": -0.24372,
				"method": "rhf"
			},
			{
				"type": "occ",
				"energy": -0.23507,
				"method": "rhf"
			},
			{
				"type": "unocc",
				"energy": 0.0045,
				"method": "rhf"
			},
			{
				"type": "unocc",
				"energy": 0.00501,
				"method": "rhf"
			},
			{
				"type": "unocc",
				"energy": 0.07652,
				"method": "rhf"
			},
			{
				"type": "unocc",
				"energy": 0.08586,
				"method": "rhf"
			},
			{
				"type": "unocc",
				"energy": 0.09377,
				"method": "rhf"
			}
		],
		"cosmo_sigma_profile": { 
			"-0.025": 0.0,
			"-0.024": 0.0,
			"-0.023": 0.0,
			"-0.022": 0.0,
			"-0.021": 0.0,
			"-0.02": 0.0,
			"-0.019": 0.0,
			"-0.018": 0.0,
			"-0.017": 0.0,
			"-0.016": 0.0,
			"-0.015": 0.0,
			"-0.014": 0.0,
			"-0.013": 0.0,
			"-0.012": 0.0,
			"-0.011": 0.0,
			"-0.01": 0.0,
			"-0.009": 0.0,
			"-0.008": 0.0,
			"-0.007": 0.0,
			"-0.006": 0.833737652217,
			"-0.005": 8.0627103107,
			"-0.004": 11.1940881795,
			"-0.003": 19.0071111193,
			"-0.002": 45.9765525982,
			"-0.001": 87.8153632637,
			"0.0": 89.5859319045,
			"0.001": 71.1535342168,
			"0.002": 34.7526261727,
			"0.003": 9.15946243236,
			"0.004": 8.10960009448,
			"0.005": 7.62845452355,
			"0.006": 8.51181093322,
			"0.007": 5.408717777,
			"0.008": 0.0130320496545,
			"0.009": 0.0,
			"0.01": 0.0,
			"0.011": 0.0,
			"0.012": 0.0,
			"0.013": 0.0,
			"0.014": 0.0,
			"0.015": 0.0,
			"0.016": 0.0,
			"0.017": 0.0,
			"0.018": 0.0,
			"0.019": 0.0,
			"0.02": 0.0,
			"0.021": 0.0,
			"0.022": 0.0,
			"0.023": 0.0,
			"0.024": 0.0,
			"0.025": 0.0
		}
	}
}
