{
	 "smiles": "CCO[Si](CCCNC(=O)C1=CC=C(C=C1)[N+]([O-])=O)(OCC)OCC", 
	 "Tm": 328.15, 
	 "num_atms": 51, 
	 "gaussian": { 
		 "optdone": 1, 
		 "sigma_profile": "yes", 
		 "theory": "DFT", 
		 "functional": "B3LYP", 
		 "basiset": "6-31G**", 
		 "properties": { 
			 "R2extent": 13001.4029, 
			 "electric_dipole_moment_norm": 6.53970085707, 
			 "electric_quadrupole_moment_norm": 25.3688934928, 
			 "total_energy": -1475.78215267, 
			 "HOMO_LUMO_gap": 0.15837, 
			 "cosmo_polarized_energy": -17.5, 
			 "cosmo_cavitation_energy": 56.12, 
			 "cosmo_dispersion_energy": -33.48, 
			 "cosmo_repulsion_energy": 2.69, 
			 "cosmo_total_nonelectrostatic_energy": 25.33, 
			 "SMD_solvation_energy": 11.57 
		},
		"coords": [
			{
				"x": -3.2428837048,
				"y": 0.7646861818,
				"z": 2.2755936704,
				"element": "C" 
			},
			{
				"x": -1.9619117459,
				"y": 0.3470893119,
				"z": 1.5719664424,
				"element": "C" 
			},
			{
				"x": -2.2576109142,
				"y": 0.0368519974,
				"z": 0.2074735015,
				"element": "O" 
			},
			{
				"x": -1.1868218008,
				"y": -0.5294272953,
				"z": -0.9227193353,
				"element": "Si" 
			},
			{
				"x": -0.3922433098,
				"y": -2.1397517481,
				"z": -0.3819946426,
				"element": "C" 
			},
			{
				"x": 0.8806423163,
				"y": -2.57762657,
				"z": -1.1557751748,
				"element": "C" 
			},
			{
				"x": 2.1896642153,
				"y": -2.3002799525,
				"z": -0.411887686,
				"element": "C" 
			},
			{
				"x": 2.3862691244,
				"y": -0.8815091821,
				"z": -0.1292749983,
				"element": "N" 
			},
			{
				"x": 3.2259885973,
				"y": -0.4935336609,
				"z": 0.8679722397,
				"element": "C" 
			},
			{
				"x": 3.8519894581,
				"y": -1.2918601698,
				"z": 1.564548598,
				"element": "O" 
			},
			{
				"x": 3.3612794025,
				"y": 0.9927858913,
				"z": 1.0990571973,
				"element": "C" 
			},
			{
				"x": 3.7995420033,
				"y": 1.4043494549,
				"z": 2.3657586585,
				"element": "C" 
			},
			{
				"x": 3.9630107089,
				"y": 2.7539650705,
				"z": 2.6569401169,
				"element": "C" 
			},
			{
				"x": 3.7000535162,
				"y": 3.6884818426,
				"z": 1.6557988629,
				"element": "C" 
			},
			{
				"x": 3.2887881941,
				"y": 3.3101383616,
				"z": 0.3794836962,
				"element": "C" 
			},
			{
				"x": 3.1198384925,
				"y": 1.9547462483,
				"z": 0.1073227863,
				"element": "C" 
			},
			{
				"x": 3.8705423361,
				"y": 5.1205575035,
				"z": 1.9515874725,
				"element": "N" 
			},
			{
				"x": 3.633695717,
				"y": 5.9223763767,
				"z": 1.0480138247,
				"element": "O" 
			},
			{
				"x": 4.2366687911,
				"y": 5.4296215999,
				"z": 3.0847241918,
				"element": "O" 
			},
			{
				"x": 0.0415385726,
				"y": 0.5421645693,
				"z": -1.2628255013,
				"element": "O" 
			},
			{
				"x": -0.1347254641,
				"y": 1.7426427464,
				"z": -2.0389067972,
				"element": "C" 
			},
			{
				"x": -0.5990463114,
				"y": 2.9100398555,
				"z": -1.1788362835,
				"element": "C" 
			},
			{
				"x": -2.0485150964,
				"y": -0.6746892401,
				"z": -2.3232654027,
				"element": "O" 
			},
			{
				"x": -3.3715043202,
				"y": -1.2076331124,
				"z": -2.4395421691,
				"element": "C" 
			},
			{
				"x": -3.8818382089,
				"y": -0.9637958195,
				"z": -3.8502967642,
				"element": "C" 
			},
			{
				"x": -3.6783614485,
				"y": 1.6437493969,
				"z": 1.7914995908,
				"element": "H" 
			},
			{
				"x": -3.0396821733,
				"y": 1.0102376246,
				"z": 3.3230546247,
				"element": "H" 
			},
			{
				"x": -3.9795396031,
				"y": -0.0435408084,
				"z": 2.2449291916,
				"element": "H" 
			},
			{
				"x": -1.2210923114,
				"y": 1.1566094816,
				"z": 1.6144580479,
				"element": "H" 
			},
			{
				"x": -1.5239685385,
				"y": -0.5284574209,
				"z": 2.0714221304,
				"element": "H" 
			},
			{
				"x": -1.1760069464,
				"y": -2.8994684761,
				"z": -0.5034133167,
				"element": "H" 
			},
			{
				"x": -0.182253267,
				"y": -2.1167319034,
				"z": 0.6950818114,
				"element": "H" 
			},
			{
				"x": 0.9172379075,
				"y": -2.1114334311,
				"z": -2.148183684,
				"element": "H" 
			},
			{
				"x": 0.8484778156,
				"y": -3.6579284022,
				"z": -1.3357079614,
				"element": "H" 
			},
			{
				"x": 3.034629397,
				"y": -2.6812784353,
				"z": -1.0013022294,
				"element": "H" 
			},
			{
				"x": 2.2110320408,
				"y": -2.8391621594,
				"z": 0.5419455349,
				"element": "H" 
			},
			{
				"x": 1.7622760981,
				"y": -0.2135574063,
				"z": -0.5727308913,
				"element": "H" 
			},
			{
				"x": 4.0141175298,
				"y": 0.6414004149,
				"z": 3.1056736807,
				"element": "H" 
			},
			{
				"x": 4.290660644,
				"y": 3.0944491964,
				"z": 3.6311579904,
				"element": "H" 
			},
			{
				"x": 3.1185502949,
				"y": 4.0706618819,
				"z": -0.3720785191,
				"element": "H" 
			},
			{
				"x": 2.8259649971,
				"y": 1.6494441022,
				"z": -0.8910882775,
				"element": "H" 
			},
			{
				"x": 0.8373391984,
				"y": 1.9631729575,
				"z": -2.4940741999,
				"element": "H" 
			},
			{
				"x": -0.8436829386,
				"y": 1.5456099043,
				"z": -2.849813839,
				"element": "H" 
			},
			{
				"x": -0.6748355449,
				"y": 3.8192531617,
				"z": -1.7852208449,
				"element": "H" 
			},
			{
				"x": 0.1090604237,
				"y": 3.0979414145,
				"z": -0.3661330591,
				"element": "H" 
			},
			{
				"x": -1.58164925,
				"y": 2.7060802263,
				"z": -0.7433923079,
				"element": "H" 
			},
			{
				"x": -4.0277965131,
				"y": -0.7320242107,
				"z": -1.7009095876,
				"element": "H" 
			},
			{
				"x": -3.354036548,
				"y": -2.285998082,
				"z": -2.2249926395,
				"element": "H" 
			},
			{
				"x": -4.8903255977,
				"y": -1.3742518054,
				"z": -3.9666473927,
				"element": "H" 
			},
			{
				"x": -3.2264443561,
				"y": -1.4400949295,
				"z": -4.5854099587,
				"element": "H" 
			},
			{
				"x": -3.9175818792,
				"y": 0.1082274469,
				"z": -4.0659403983,
				"element": "H" 
			}
		],
		 "valence_orbital": [ 
			{
				"type": "occ",
				"energy": -0.2858,
				"method": "rhf"
			},
			{
				"type": "occ",
				"energy": -0.28006,
				"method": "rhf"
			},
			{
				"type": "occ",
				"energy": -0.27812,
				"method": "rhf"
			},
			{
				"type": "occ",
				"energy": -0.25192,
				"method": "rhf"
			},
			{
				"type": "occ",
				"energy": -0.25155,
				"method": "rhf"
			},
			{
				"type": "unocc",
				"energy": -0.09318,
				"method": "rhf"
			},
			{
				"type": "unocc",
				"energy": -0.02789,
				"method": "rhf"
			},
			{
				"type": "unocc",
				"energy": -0.02,
				"method": "rhf"
			},
			{
				"type": "unocc",
				"energy": 0.05045,
				"method": "rhf"
			},
			{
				"type": "unocc",
				"energy": 0.05652,
				"method": "rhf"
			}
		],
		"cosmo_sigma_profile": { 
			"-0.025": 0.0,
			"-0.024": 0.0,
			"-0.023": 0.0,
			"-0.022": 0.0,
			"-0.021": 0.0,
			"-0.02": 0.0,
			"-0.019": 0.0,
			"-0.018": 0.0,
			"-0.017": 0.0,
			"-0.016": 0.0,
			"-0.015": 0.0,
			"-0.014": 0.0,
			"-0.013": 0.0,
			"-0.012": 0.0,
			"-0.011": 0.0,
			"-0.01": 0.0,
			"-0.009": 0.0104230395952,
			"-0.008": 1.59523668833,
			"-0.007": 6.79461189535,
			"-0.006": 10.1724408592,
			"-0.005": 15.0427431759,
			"-0.004": 35.2756145428,
			"-0.003": 56.2186096402,
			"-0.002": 62.9023358416,
			"-0.001": 57.1993555825,
			"0.0": 49.1498192163,
			"0.001": 38.3855239023,
			"0.002": 15.5579241063,
			"0.003": 10.486910843,
			"0.004": 9.35024810703,
			"0.005": 9.26690050522,
			"0.006": 8.66059752398,
			"0.007": 13.0521976042,
			"0.008": 11.0728620803,
			"0.009": 7.7847716285,
			"0.01": 4.49844679425,
			"0.011": 2.65454096285,
			"0.012": 2.52731574368,
			"0.013": 3.49221516517,
			"0.014": 4.0515614671,
			"0.015": 0.0555334353978,
			"0.016": 0.0,
			"0.017": 0.0,
			"0.018": 0.0,
			"0.019": 0.0,
			"0.02": 0.0,
			"0.021": 0.0,
			"0.022": 0.0,
			"0.023": 0.0,
			"0.024": 0.0,
			"0.025": 0.0
		}
	}
}
