{
	 "smiles": "CN(C)S(=O)(=O)C1=CC(C(=O)NCCCCCC(O)=O)=C(Cl)C=C1", 
	 "Tm": 358.15, 
	 "num_atms": 45, 
	 "gaussian": { 
		 "optdone": 1, 
		 "sigma_profile": "yes", 
		 "theory": "DFT", 
		 "functional": "B3LYP", 
		 "basiset": "6-31G**", 
		 "properties": { 
			 "R2extent": 15215.715, 
			 "electric_dipole_moment_norm": 4.88408747055, 
			 "electric_quadrupole_moment_norm": 34.9603167816, 
			 "total_energy": -1928.19976288, 
			 "HOMO_LUMO_gap": 0.20005, 
			 "cosmo_polarized_energy": -34.29, 
			 "cosmo_cavitation_energy": 51.66, 
			 "cosmo_dispersion_energy": -34.49, 
			 "cosmo_repulsion_energy": 2.64, 
			 "cosmo_total_nonelectrostatic_energy": 19.81, 
			 "SMD_solvation_energy": 7.62 
		},
		"coords": [
			{
				"x": 3.764060279,
				"y": 1.78062348,
				"z": -1.7145898282,
				"element": "C" 
			},
			{
				"x": 4.36024427,
				"y": 0.5318494571,
				"z": -1.2314688596,
				"element": "N" 
			},
			{
				"x": 5.1970104078,
				"y": 0.6616364626,
				"z": -0.035780291,
				"element": "C" 
			},
			{
				"x": 3.3991888126,
				"y": -0.8486396698,
				"z": -1.3293475996,
				"element": "S" 
			},
			{
				"x": 2.7504182653,
				"y": -0.8111947259,
				"z": -2.6411625491,
				"element": "O" 
			},
			{
				"x": 4.236805961,
				"y": -1.9699463393,
				"z": -0.90099657,
				"element": "O" 
			},
			{
				"x": 2.0978008471,
				"y": -0.6677216408,
				"z": -0.0972749871,
				"element": "C" 
			},
			{
				"x": 0.911646657,
				"y": -0.019599057,
				"z": -0.4435662861,
				"element": "C" 
			},
			{
				"x": -0.0989915717,
				"y": 0.1646579409,
				"z": 0.5071446341,
				"element": "C" 
			},
			{
				"x": -1.3182654301,
				"y": 0.9865842404,
				"z": 0.1399515006,
				"element": "C" 
			},
			{
				"x": -1.4382837851,
				"y": 2.1294423169,
				"z": 0.5575534885,
				"element": "O" 
			},
			{
				"x": -2.2123669967,
				"y": 0.4233937543,
				"z": -0.7285732906,
				"element": "N" 
			},
			{
				"x": -2.3393417883,
				"y": -0.9804453371,
				"z": -1.1129947211,
				"element": "C" 
			},
			{
				"x": -3.2578356339,
				"y": -1.8053494815,
				"z": -0.1892744653,
				"element": "C" 
			},
			{
				"x": -4.7414491454,
				"y": -1.3830501274,
				"z": -0.1418652666,
				"element": "C" 
			},
			{
				"x": -5.6759191874,
				"y": -2.0569348383,
				"z": -1.1623722676,
				"element": "C" 
			},
			{
				"x": -5.3870452752,
				"y": -1.7259779772,
				"z": -2.6407884336,
				"element": "C" 
			},
			{
				"x": -6.4624298999,
				"y": -2.2257267627,
				"z": -3.598995714,
				"element": "C" 
			},
			{
				"x": -6.7088036297,
				"y": -3.5654425715,
				"z": -3.5660738892,
				"element": "O" 
			},
			{
				"x": -7.0808436114,
				"y": -1.5191588388,
				"z": -4.3532713452,
				"element": "O" 
			},
			{
				"x": 0.1140507021,
				"y": -0.3208978021,
				"z": 1.8047180358,
				"element": "C" 
			},
			{
				"x": -1.1252860106,
				"y": -0.1409942816,
				"z": 3.0304974338,
				"element": "Cl" 
			},
			{
				"x": 1.2934733803,
				"y": -0.98424409,
				"z": 2.1492506805,
				"element": "C" 
			},
			{
				"x": 2.2945531346,
				"y": -1.1563975729,
				"z": 1.1962337066,
				"element": "C" 
			},
			{
				"x": 4.5760183072,
				"y": 2.4855595049,
				"z": -1.914190967,
				"element": "H" 
			},
			{
				"x": 3.2342071209,
				"y": 1.5914122701,
				"z": -2.6475759156,
				"element": "H" 
			},
			{
				"x": 3.0788198376,
				"y": 2.2360926564,
				"z": -0.983649199,
				"element": "H" 
			},
			{
				"x": 5.9896878674,
				"y": 1.3820816794,
				"z": -0.2563891052,
				"element": "H" 
			},
			{
				"x": 5.6569171782,
				"y": -0.2998516309,
				"z": 0.1903151983,
				"element": "H" 
			},
			{
				"x": 4.6347979297,
				"y": 1.0202369396,
				"z": 0.8400617069,
				"element": "H" 
			},
			{
				"x": 0.7652127913,
				"y": 0.3262578366,
				"z": -1.4614006436,
				"element": "H" 
			},
			{
				"x": -2.9848285892,
				"y": 1.0441246536,
				"z": -0.9377629215,
				"element": "H" 
			},
			{
				"x": -1.3420247355,
				"y": -1.4255204018,
				"z": -1.1132740703,
				"element": "H" 
			},
			{
				"x": -2.6902242284,
				"y": -1.005456137,
				"z": -2.1490659278,
				"element": "H" 
			},
			{
				"x": -3.1823616465,
				"y": -2.860546152,
				"z": -0.4870934608,
				"element": "H" 
			},
			{
				"x": -2.8392274421,
				"y": -1.7450613971,
				"z": 0.8215787323,
				"element": "H" 
			},
			{
				"x": -4.8259243269,
				"y": -0.2919918222,
				"z": -0.234917536,
				"element": "H" 
			},
			{
				"x": -5.1333547474,
				"y": -1.6164602384,
				"z": 0.854499264,
				"element": "H" 
			},
			{
				"x": -5.6322186139,
				"y": -3.1445280126,
				"z": -1.0035765541,
				"element": "H" 
			},
			{
				"x": -6.7063842396,
				"y": -1.7594766094,
				"z": -0.9342330295,
				"element": "H" 
			},
			{
				"x": -5.3249452831,
				"y": -0.6449894099,
				"z": -2.7881507646,
				"element": "H" 
			},
			{
				"x": -4.4266481989,
				"y": -2.1591315391,
				"z": -2.9500186673,
				"element": "H" 
			},
			{
				"x": -6.1331021863,
				"y": -3.9996855221,
				"z": -2.9211627308,
				"element": "H" 
			},
			{
				"x": 1.4180044083,
				"y": -1.3667601608,
				"z": 3.1560843763,
				"element": "H" 
			},
			{
				"x": 3.206088046,
				"y": -1.6899730455,
				"z": 1.4410690991,
				"element": "H" 
			}
		],
		 "valence_orbital": [ 
			{
				"type": "occ",
				"energy": -0.28259,
				"method": "rhf"
			},
			{
				"type": "occ",
				"energy": -0.2725,
				"method": "rhf"
			},
			{
				"type": "occ",
				"energy": -0.27046,
				"method": "rhf"
			},
			{
				"type": "occ",
				"energy": -0.26466,
				"method": "rhf"
			},
			{
				"type": "occ",
				"energy": -0.25799,
				"method": "rhf"
			},
			{
				"type": "unocc",
				"energy": -0.05794,
				"method": "rhf"
			},
			{
				"type": "unocc",
				"energy": -0.04742,
				"method": "rhf"
			},
			{
				"type": "unocc",
				"energy": 0.00315,
				"method": "rhf"
			},
			{
				"type": "unocc",
				"energy": 0.00473,
				"method": "rhf"
			},
			{
				"type": "unocc",
				"energy": 0.01314,
				"method": "rhf"
			}
		],
		"cosmo_sigma_profile": { 
			"-0.025": 0.0,
			"-0.024": 0.0,
			"-0.023": 0.0,
			"-0.022": 0.0,
			"-0.021": 0.0,
			"-0.02": 0.0,
			"-0.019": 0.0,
			"-0.018": 0.453382999966,
			"-0.017": 1.04024926734,
			"-0.016": 1.00860348679,
			"-0.015": 1.5152526674,
			"-0.014": 1.0077676104,
			"-0.013": 1.84198981853,
			"-0.012": 1.37510414972,
			"-0.011": 2.49436143562,
			"-0.01": 3.14046633121,
			"-0.009": 3.01617558144,
			"-0.008": 6.75897031247,
			"-0.007": 13.0926595933,
			"-0.006": 17.4792951889,
			"-0.005": 28.2471545443,
			"-0.004": 40.0149829199,
			"-0.003": 45.281362114,
			"-0.002": 36.6649288351,
			"-0.001": 30.2076352306,
			"0.0": 28.1554472073,
			"0.001": 16.7881201941,
			"0.002": 14.049422925,
			"0.003": 12.3037513971,
			"0.004": 10.7874840591,
			"0.005": 8.5803388743,
			"0.006": 7.69832639319,
			"0.007": 8.86615781124,
			"0.008": 8.27066064172,
			"0.009": 9.19484395889,
			"0.01": 11.9040243023,
			"0.011": 15.7893226011,
			"0.012": 10.6716249487,
			"0.013": 8.8263600048,
			"0.014": 2.46547963839,
			"0.015": 0.0359840327522,
			"0.016": 0.0,
			"0.017": 0.0,
			"0.018": 0.0,
			"0.019": 0.0,
			"0.02": 0.0,
			"0.021": 0.0,
			"0.022": 0.0,
			"0.023": 0.0,
			"0.024": 0.0,
			"0.025": 0.0
		}
	}
}
