{
	 "smiles": "CC1=NC=C(O)C=C1", 
	 "Tm": 442.15, 
	 "num_atms": 15, 
	 "gaussian": { 
		 "optdone": 1, 
		 "sigma_profile": "yes", 
		 "theory": "DFT", 
		 "functional": "B3LYP", 
		 "basiset": "6-31G**", 
		 "properties": { 
			 "R2extent": 1208.9781, 
			 "electric_dipole_moment_norm": 0.849278817586, 
			 "electric_quadrupole_moment_norm": 10.0824302839, 
			 "total_energy": -362.827782523, 
			 "HOMO_LUMO_gap": 0.20703, 
			 "cosmo_polarized_energy": -9.49, 
			 "cosmo_cavitation_energy": 18.85, 
			 "cosmo_dispersion_energy": -14.24, 
			 "cosmo_repulsion_energy": 1.19, 
			 "cosmo_total_nonelectrostatic_energy": 5.8, 
			 "SMD_solvation_energy": 2.49 
		},
		"coords": [
			{
				"x": 1.7062702278,
				"y": 1.8587222705,
				"z": -2.03435302,
				"element": "C" 
			},
			{
				"x": 1.0365145243,
				"y": 0.6516847006,
				"z": -1.4224441055,
				"element": "C" 
			},
			{
				"x": -0.2355985577,
				"y": 0.4121379106,
				"z": -1.7708614862,
				"element": "N" 
			},
			{
				"x": -0.8579270226,
				"y": -0.6485657517,
				"z": -1.2470036508,
				"element": "C" 
			},
			{
				"x": -0.2548391083,
				"y": -1.5318774633,
				"z": -0.348216012,
				"element": "C" 
			},
			{
				"x": -0.8946714314,
				"y": -2.6136549334,
				"z": 0.1840171177,
				"element": "O" 
			},
			{
				"x": 1.0717534847,
				"y": -1.2897078093,
				"z": 0.0207004115,
				"element": "C" 
			},
			{
				"x": 1.7169345188,
				"y": -0.1875263682,
				"z": -0.5242779267,
				"element": "C" 
			},
			{
				"x": 2.5924044932,
				"y": 1.5752179946,
				"z": -2.6142577248,
				"element": "H" 
			},
			{
				"x": 2.0363223607,
				"y": 2.5673746349,
				"z": -1.2657347539,
				"element": "H" 
			},
			{
				"x": 1.0046800431,
				"y": 2.3671197541,
				"z": -2.6977144663,
				"element": "H" 
			},
			{
				"x": -1.8930656339,
				"y": -0.808145595,
				"z": -1.5565278574,
				"element": "H" 
			},
			{
				"x": -1.7966272265,
				"y": -2.6490625909,
				"z": -0.161795904,
				"element": "H" 
			},
			{
				"x": 1.5660984699,
				"y": -1.9592483114,
				"z": 0.7173083148,
				"element": "H" 
			},
			{
				"x": 2.7479508578,
				"y": 0.0266315578,
				"z": -0.2566389363,
				"element": "H" 
			}
		],
		 "valence_orbital": [ 
			{
				"type": "occ",
				"energy": -0.36605,
				"method": "rhf"
			},
			{
				"type": "occ",
				"energy": -0.34681,
				"method": "rhf"
			},
			{
				"type": "occ",
				"energy": -0.2771,
				"method": "rhf"
			},
			{
				"type": "occ",
				"energy": -0.24972,
				"method": "rhf"
			},
			{
				"type": "occ",
				"energy": -0.22577,
				"method": "rhf"
			},
			{
				"type": "unocc",
				"energy": -0.01874,
				"method": "rhf"
			},
			{
				"type": "unocc",
				"energy": 0.0053,
				"method": "rhf"
			},
			{
				"type": "unocc",
				"energy": 0.06586,
				"method": "rhf"
			},
			{
				"type": "unocc",
				"energy": 0.10595,
				"method": "rhf"
			},
			{
				"type": "unocc",
				"energy": 0.13002,
				"method": "rhf"
			}
		],
		"cosmo_sigma_profile": { 
			"-0.025": 0.0,
			"-0.024": 0.0,
			"-0.023": 0.0,
			"-0.022": 0.0,
			"-0.021": 0.0,
			"-0.02": 0.0,
			"-0.019": 0.0,
			"-0.018": 0.727035841991,
			"-0.017": 1.13652273501,
			"-0.016": 1.14097950096,
			"-0.015": 1.17916425665,
			"-0.014": 0.65655395089,
			"-0.013": 1.18367000328,
			"-0.012": 0.85559191578,
			"-0.011": 1.02937161238,
			"-0.01": 1.22128134971,
			"-0.009": 1.08210130856,
			"-0.008": 1.05048411569,
			"-0.007": 3.15041055546,
			"-0.006": 5.28279555071,
			"-0.005": 6.66990825809,
			"-0.004": 9.65060542664,
			"-0.003": 11.255273094,
			"-0.002": 10.7856525058,
			"-0.001": 10.2629854353,
			"0.0": 12.525096176,
			"0.001": 9.63055679117,
			"0.002": 12.5871590386,
			"0.003": 14.050057872,
			"0.004": 6.93057933254,
			"0.005": 4.10972800521,
			"0.006": 2.7983948629,
			"0.007": 2.78476876944,
			"0.008": 3.00810511793,
			"0.009": 3.30000778829,
			"0.01": 2.3279254209,
			"0.011": 2.56680839612,
			"0.012": 1.29232827013,
			"0.013": 0.92362101954,
			"0.014": 0.707334062694,
			"0.015": 0.977933749397,
			"0.016": 0.561923488258,
			"0.017": 0.341142635964,
			"0.018": 0.0,
			"0.019": 0.0,
			"0.02": 0.0,
			"0.021": 0.0,
			"0.022": 0.0,
			"0.023": 0.0,
			"0.024": 0.0,
			"0.025": 0.0
		}
	}
}
