{
	 "smiles": "ClC1=CC=C(C=C1)C1=CSC2=NC3=C(C=CC=C3)N12", 
	 "Tm": 475.15, 
	 "num_atms": 28, 
	 "gaussian": { 
		 "optdone": 1, 
		 "sigma_profile": "yes", 
		 "theory": "DFT", 
		 "functional": "B3LYP", 
		 "basiset": "6-31G**", 
		 "properties": { 
			 "R2extent": 7407.9057, 
			 "electric_dipole_moment_norm": 2.70471439897, 
			 "electric_quadrupole_moment_norm": 23.2123244002, 
			 "total_energy": -1544.89743233, 
			 "HOMO_LUMO_gap": 0.15782, 
			 "cosmo_polarized_energy": -10.91, 
			 "cosmo_cavitation_energy": 35.75, 
			 "cosmo_dispersion_energy": -26.58, 
			 "cosmo_repulsion_energy": 1.96, 
			 "cosmo_total_nonelectrostatic_energy": 11.13, 
			 "SMD_solvation_energy": 3.05 
		},
		"coords": [
			{
				"x": -1.3481802401,
				"y": -4.539726763,
				"z": -1.07834567,
				"element": "Cl" 
			},
			{
				"x": -0.789500837,
				"y": -2.8911097938,
				"z": -1.2979671565,
				"element": "C" 
			},
			{
				"x": 0.5063253369,
				"y": -2.6599107123,
				"z": -1.7579495829,
				"element": "C" 
			},
			{
				"x": 0.9452681793,
				"y": -1.3475468925,
				"z": -1.9227951843,
				"element": "C" 
			},
			{
				"x": 0.1012914152,
				"y": -0.2629267736,
				"z": -1.6389301311,
				"element": "C" 
			},
			{
				"x": -1.2019115786,
				"y": -0.5230844338,
				"z": -1.182836012,
				"element": "C" 
			},
			{
				"x": -1.6491005328,
				"y": -1.830439808,
				"z": -1.0076851245,
				"element": "C" 
			},
			{
				"x": 0.5634747195,
				"y": 1.1153341348,
				"z": -1.8907898409,
				"element": "C" 
			},
			{
				"x": 1.1377516807,
				"y": 1.5526638708,
				"z": -3.0407420388,
				"element": "C" 
			},
			{
				"x": 1.4798683185,
				"y": 3.2809898951,
				"z": -3.0581779365,
				"element": "S" 
			},
			{
				"x": 0.8280159398,
				"y": 3.4103815272,
				"z": -1.4364524344,
				"element": "C" 
			},
			{
				"x": 0.7197284847,
				"y": 4.3904809869,
				"z": -0.5856539977,
				"element": "N" 
			},
			{
				"x": 0.1885743186,
				"y": 3.7777458117,
				"z": 0.5449121778,
				"element": "C" 
			},
			{
				"x": -0.0096528438,
				"y": 2.3818561338,
				"z": 0.3459586428,
				"element": "C" 
			},
			{
				"x": -0.4873830181,
				"y": 1.5477965886,
				"z": 1.3596238866,
				"element": "C" 
			},
			{
				"x": -0.7884573056,
				"y": 2.1461264458,
				"z": 2.5814727114,
				"element": "C" 
			},
			{
				"x": -0.6166098362,
				"y": 3.5280620583,
				"z": 2.7880212576,
				"element": "C" 
			},
			{
				"x": -0.1277170059,
				"y": 4.3537293294,
				"z": 1.7815801226,
				"element": "C" 
			},
			{
				"x": 0.3956645592,
				"y": 2.1655027904,
				"z": -0.9763339551,
				"element": "N" 
			},
			{
				"x": 1.1645513665,
				"y": -3.4942456501,
				"z": -1.9728949543,
				"element": "H" 
			},
			{
				"x": 1.9595783588,
				"y": -1.1596443177,
				"z": -2.2603578741,
				"element": "H" 
			},
			{
				"x": -1.8766555195,
				"y": 0.301477018,
				"z": -0.9765634911,
				"element": "H" 
			},
			{
				"x": -2.6571454282,
				"y": -2.0271671337,
				"z": -0.6601078909,
				"element": "H" 
			},
			{
				"x": 1.321667037,
				"y": 0.9563958084,
				"z": -3.9217363462,
				"element": "H" 
			},
			{
				"x": -0.6111320408,
				"y": 0.4815638298,
				"z": 1.2162243116,
				"element": "H" 
			},
			{
				"x": -1.1602086433,
				"y": 1.5278379958,
				"z": 3.3929509072,
				"element": "H" 
			},
			{
				"x": -0.864969155,
				"y": 3.9535362564,
				"z": 3.7558262564,
				"element": "H" 
			},
			{
				"x": 0.0197642705,
				"y": 5.4176217974,
				"z": 1.9346493477,
				"element": "H" 
			}
		],
		 "valence_orbital": [ 
			{
				"type": "occ",
				"energy": -0.28092,
				"method": "rhf"
			},
			{
				"type": "occ",
				"energy": -0.27477,
				"method": "rhf"
			},
			{
				"type": "occ",
				"energy": -0.25031,
				"method": "rhf"
			},
			{
				"type": "occ",
				"energy": -0.22951,
				"method": "rhf"
			},
			{
				"type": "occ",
				"energy": -0.20755,
				"method": "rhf"
			},
			{
				"type": "unocc",
				"energy": -0.04973,
				"method": "rhf"
			},
			{
				"type": "unocc",
				"energy": -0.03256,
				"method": "rhf"
			},
			{
				"type": "unocc",
				"energy": -0.01559,
				"method": "rhf"
			},
			{
				"type": "unocc",
				"energy": -0.00614,
				"method": "rhf"
			},
			{
				"type": "unocc",
				"energy": 0.00839,
				"method": "rhf"
			}
		],
		"cosmo_sigma_profile": { 
			"-0.025": 0.0,
			"-0.024": 0.0,
			"-0.023": 0.0,
			"-0.022": 0.0,
			"-0.021": 0.0,
			"-0.02": 0.0,
			"-0.019": 0.0,
			"-0.018": 0.0,
			"-0.017": 0.0,
			"-0.016": 0.0,
			"-0.015": 0.0,
			"-0.014": 0.0,
			"-0.013": 0.0,
			"-0.012": 0.0,
			"-0.011": 0.0,
			"-0.01": 1.4262264782,
			"-0.009": 1.97566463206,
			"-0.008": 3.4272777953,
			"-0.007": 9.37720551683,
			"-0.006": 14.7475988663,
			"-0.005": 16.7023820927,
			"-0.004": 16.8194325924,
			"-0.003": 20.6850789923,
			"-0.002": 21.371768401,
			"-0.001": 23.5570698218,
			"0.0": 24.9366681567,
			"0.001": 30.0087331561,
			"0.002": 30.4090144591,
			"0.003": 23.9043708511,
			"0.004": 22.9841946924,
			"0.005": 13.9998042801,
			"0.006": 6.03724199561,
			"0.007": 1.67332601374,
			"0.008": 0.948531495061,
			"0.009": 1.42312371655,
			"0.01": 0.994766978851,
			"0.011": 1.2636716729,
			"0.012": 1.2069412878,
			"0.013": 0.75661279507,
			"0.014": 0.85169224713,
			"0.015": 1.33447386937,
			"0.016": 0.813092589797,
			"0.017": 0.19085086572,
			"0.018": 0.0,
			"0.019": 0.0,
			"0.02": 0.0,
			"0.021": 0.0,
			"0.022": 0.0,
			"0.023": 0.0,
			"0.024": 0.0,
			"0.025": 0.0
		}
	}
}
