{
	 "smiles": "CC(C)C1=CC=C(C=C1)C(CN)NC(=O)OC(C)(C)C", 
	 "Tm": 397.15, 
	 "num_atms": 46, 
	 "gaussian": { 
		 "optdone": 1, 
		 "sigma_profile": "yes", 
		 "theory": "DFT", 
		 "functional": "B3LYP", 
		 "basiset": "6-31G**", 
		 "properties": { 
			 "R2extent": 8544.8517, 
			 "electric_dipole_moment_norm": 3.2264013653, 
			 "electric_quadrupole_moment_norm": 14.0905770556, 
			 "total_energy": -885.374469564, 
			 "HOMO_LUMO_gap": 0.22047, 
			 "cosmo_polarized_energy": -13.69, 
			 "cosmo_cavitation_energy": 46.48, 
			 "cosmo_dispersion_energy": -31.32, 
			 "cosmo_repulsion_energy": 2.49, 
			 "cosmo_total_nonelectrostatic_energy": 17.64, 
			 "SMD_solvation_energy": 6.78 
		},
		"coords": [
			{
				"x": 0.0204003966,
				"y": 5.1174311045,
				"z": -0.8686930571,
				"element": "C" 
			},
			{
				"x": 1.1170807707,
				"y": 4.1568993007,
				"z": -1.3663399644,
				"element": "C" 
			},
			{
				"x": 1.6322125065,
				"y": 4.5783310482,
				"z": -2.7556131653,
				"element": "C" 
			},
			{
				"x": 0.6515071944,
				"y": 2.7069190247,
				"z": -1.3498848513,
				"element": "C" 
			},
			{
				"x": 1.2875230924,
				"y": 1.7578451304,
				"z": -0.5378966914,
				"element": "C" 
			},
			{
				"x": 0.8786668564,
				"y": 0.4247737459,
				"z": -0.5098758196,
				"element": "C" 
			},
			{
				"x": -0.1993214641,
				"y": -0.0051953618,
				"z": -1.2982654866,
				"element": "C" 
			},
			{
				"x": -0.8366206717,
				"y": 0.9398179669,
				"z": -2.1125931316,
				"element": "C" 
			},
			{
				"x": -0.420547817,
				"y": 2.2710487602,
				"z": -2.1399240745,
				"element": "C" 
			},
			{
				"x": -0.6637606075,
				"y": -1.4586839937,
				"z": -1.3055779767,
				"element": "C" 
			},
			{
				"x": 0.3881872892,
				"y": -2.4319888265,
				"z": -1.9064318055,
				"element": "C" 
			},
			{
				"x": 0.7675459231,
				"y": -2.1450600515,
				"z": -3.2857594638,
				"element": "N" 
			},
			{
				"x": -1.172293054,
				"y": -1.9264011216,
				"z": -0.0059941652,
				"element": "N" 
			},
			{
				"x": -0.4151047174,
				"y": -2.2804713261,
				"z": 1.0745448781,
				"element": "C" 
			},
			{
				"x": 0.8039391345,
				"y": -2.3878090687,
				"z": 1.088318575,
				"element": "O" 
			},
			{
				"x": -1.2420498183,
				"y": -2.5127760928,
				"z": 2.1269941393,
				"element": "O" 
			},
			{
				"x": -0.7125319229,
				"y": -2.9556304543,
				"z": 3.425210774,
				"element": "C" 
			},
			{
				"x": -1.9814882095,
				"y": -3.0902245526,
				"z": 4.271641019,
				"element": "C" 
			},
			{
				"x": 0.2171792197,
				"y": -1.8859636914,
				"z": 4.0088255184,
				"element": "C" 
			},
			{
				"x": -0.0147356684,
				"y": -4.3117041955,
				"z": 3.2737399053,
				"element": "C" 
			},
			{
				"x": -0.8502221219,
				"y": 5.105467663,
				"z": -1.5337852969,
				"element": "H" 
			},
			{
				"x": -0.3224041121,
				"y": 4.8423057327,
				"z": 0.1335813845,
				"element": "H" 
			},
			{
				"x": 0.3948912467,
				"y": 6.1463322143,
				"z": -0.8311777284,
				"element": "H" 
			},
			{
				"x": 1.9603257405,
				"y": 4.230209017,
				"z": -0.6669775407,
				"element": "H" 
			},
			{
				"x": 0.8326624821,
				"y": 4.5417990973,
				"z": -3.5038696979,
				"element": "H" 
			},
			{
				"x": 2.4375089766,
				"y": 3.920112091,
				"z": -3.096179206,
				"element": "H" 
			},
			{
				"x": 2.0168579457,
				"y": 5.6038676247,
				"z": -2.7311582653,
				"element": "H" 
			},
			{
				"x": 2.1237194755,
				"y": 2.0685392094,
				"z": 0.0845723514,
				"element": "H" 
			},
			{
				"x": 1.3886165194,
				"y": -0.2869137648,
				"z": 0.1312103024,
				"element": "H" 
			},
			{
				"x": -1.6750995902,
				"y": 0.6316698394,
				"z": -2.7341909458,
				"element": "H" 
			},
			{
				"x": -0.9416269362,
				"y": 2.9748121685,
				"z": -2.784024402,
				"element": "H" 
			},
			{
				"x": -1.5371764316,
				"y": -1.5112936046,
				"z": -1.968259311,
				"element": "H" 
			},
			{
				"x": 1.2847435421,
				"y": -2.4290735222,
				"z": -1.2849568497,
				"element": "H" 
			},
			{
				"x": -0.0278151644,
				"y": -3.4449987207,
				"z": -1.8569428251,
				"element": "H" 
			},
			{
				"x": -0.0535315336,
				"y": -2.1309174518,
				"z": -3.8873294583,
				"element": "H" 
			},
			{
				"x": 1.1831311972,
				"y": -1.2185930949,
				"z": -3.3454315434,
				"element": "H" 
			},
			{
				"x": -2.1463398599,
				"y": -1.7572179914,
				"z": 0.1973041085,
				"element": "H" 
			},
			{
				"x": -1.7258049713,
				"y": -3.4214115009,
				"z": 5.2825388915,
				"element": "H" 
			},
			{
				"x": -2.5021205694,
				"y": -2.130689703,
				"z": 4.3426500625,
				"element": "H" 
			},
			{
				"x": -2.6646583964,
				"y": -3.8214174115,
				"z": 3.8296974557,
				"element": "H" 
			},
			{
				"x": -0.2979144747,
				"y": -0.9212572949,
				"z": 4.0576133548,
				"element": "H" 
			},
			{
				"x": 0.5081885241,
				"y": -2.1673761793,
				"z": 5.0261962099,
				"element": "H" 
			},
			{
				"x": 1.1162972866,
				"y": -1.7767186086,
				"z": 3.4023265018,
				"element": "H" 
			},
			{
				"x": -0.694692936,
				"y": -5.0397621466,
				"z": 2.8199666563,
				"element": "H" 
			},
			{
				"x": 0.8765974975,
				"y": -4.2247718598,
				"z": 2.6520662354,
				"element": "H" 
			},
			{
				"x": 0.2764782312,
				"y": -4.6878591469,
				"z": 4.2599344,
				"element": "H" 
			}
		],
		 "valence_orbital": [ 
			{
				"type": "occ",
				"energy": -0.26506,
				"method": "rhf"
			},
			{
				"type": "occ",
				"energy": -0.25626,
				"method": "rhf"
			},
			{
				"type": "occ",
				"energy": -0.24712,
				"method": "rhf"
			},
			{
				"type": "occ",
				"energy": -0.23383,
				"method": "rhf"
			},
			{
				"type": "occ",
				"energy": -0.22434,
				"method": "rhf"
			},
			{
				"type": "unocc",
				"energy": -0.00387,
				"method": "rhf"
			},
			{
				"type": "unocc",
				"energy": 0.00207,
				"method": "rhf"
			},
			{
				"type": "unocc",
				"energy": 0.05298,
				"method": "rhf"
			},
			{
				"type": "unocc",
				"energy": 0.0764,
				"method": "rhf"
			},
			{
				"type": "unocc",
				"energy": 0.08795,
				"method": "rhf"
			}
		],
		"cosmo_sigma_profile": { 
			"-0.025": 0.0,
			"-0.024": 0.0,
			"-0.023": 0.0,
			"-0.022": 0.0,
			"-0.021": 0.0,
			"-0.02": 0.0,
			"-0.019": 0.0,
			"-0.018": 0.0,
			"-0.017": 0.0,
			"-0.016": 0.0,
			"-0.015": 0.0,
			"-0.014": 0.430896079778,
			"-0.013": 0.853746944828,
			"-0.012": 1.31821414898,
			"-0.011": 0.910069170017,
			"-0.01": 1.36431754312,
			"-0.009": 2.19688502259,
			"-0.008": 3.42716895558,
			"-0.007": 4.12092849104,
			"-0.006": 7.07821349028,
			"-0.005": 10.9972506973,
			"-0.004": 22.6918380994,
			"-0.003": 37.3329867676,
			"-0.002": 40.1170991718,
			"-0.001": 39.0369993769,
			"0.0": 48.0055306144,
			"0.001": 45.6237233884,
			"0.002": 22.1687821066,
			"0.003": 14.4459719822,
			"0.004": 13.2193527316,
			"0.005": 11.9911235058,
			"0.006": 11.4566209657,
			"0.007": 5.26460082952,
			"0.008": 2.94595882418,
			"0.009": 2.56191763944,
			"0.01": 1.80446053668,
			"0.011": 1.52817635319,
			"0.012": 2.09923615795,
			"0.013": 1.36109882153,
			"0.014": 1.3621375979,
			"0.015": 0.720158335978,
			"0.016": 0.528764081106,
			"0.017": 0.691183045264,
			"0.018": 0.0915673861518,
			"0.019": 1.18981509508,
			"0.02": 0.13584610413,
			"0.021": 0.0,
			"0.022": 0.0,
			"0.023": 0.0,
			"0.024": 0.0,
			"0.025": 0.0
		}
	}
}
