{
	 "smiles": "CC(C)(C)OC(=O)N1CCN(CC1)C1=CC=C(C=N1)C(O)=O", 
	 "Tm": 572.15, 
	 "num_atms": 43, 
	 "gaussian": { 
		 "optdone": 1, 
		 "sigma_profile": "yes", 
		 "theory": "DFT", 
		 "functional": "B3LYP", 
		 "basiset": "6-31G**", 
		 "properties": { 
			 "R2extent": 12810.6576, 
			 "electric_dipole_moment_norm": 5.64160775489, 
			 "electric_quadrupole_moment_norm": 47.8483470939, 
			 "total_energy": -1049.44670468, 
			 "HOMO_LUMO_gap": 0.17987, 
			 "cosmo_polarized_energy": -21.89, 
			 "cosmo_cavitation_energy": 44.71, 
			 "cosmo_dispersion_energy": -31.84, 
			 "cosmo_repulsion_energy": 2.42, 
			 "cosmo_total_nonelectrostatic_energy": 15.29, 
			 "SMD_solvation_energy": 7.18 
		},
		"coords": [
			{
				"x": 2.2003710966,
				"y": 1.2825278727,
				"z": -5.0161432734,
				"element": "C" 
			},
			{
				"x": 2.6194547864,
				"y": 0.2029245118,
				"z": -4.0148128243,
				"element": "C" 
			},
			{
				"x": 2.2905993157,
				"y": -1.193912806,
				"z": -4.55193371,
				"element": "C" 
			},
			{
				"x": 4.0989437194,
				"y": 0.3505478987,
				"z": -3.6443889777,
				"element": "C" 
			},
			{
				"x": 1.775840882,
				"y": 0.5074900282,
				"z": -2.8461971912,
				"element": "O" 
			},
			{
				"x": 1.8447384895,
				"y": -0.2516715896,
				"z": -1.7249179626,
				"element": "C" 
			},
			{
				"x": 2.5863336915,
				"y": -1.2079832706,
				"z": -1.5480708917,
				"element": "O" 
			},
			{
				"x": 0.9630867662,
				"y": 0.1833151936,
				"z": -0.7703069051,
				"element": "N" 
			},
			{
				"x": 0.0635257725,
				"y": 1.3199020504,
				"z": -0.927323745,
				"element": "C" 
			},
			{
				"x": -1.3115151458,
				"y": 1.0073744305,
				"z": -0.333863506,
				"element": "C" 
			},
			{
				"x": -1.1884783449,
				"y": 0.5526656308,
				"z": 1.0511314283,
				"element": "N" 
			},
			{
				"x": 0.1600862727,
				"y": 0.26894455,
				"z": 1.5471676067,
				"element": "C" 
			},
			{
				"x": 0.9623278988,
				"y": -0.5220815481,
				"z": 0.5169372869,
				"element": "C" 
			},
			{
				"x": -2.298276735,
				"y": 0.3489137885,
				"z": 1.8277440611,
				"element": "C" 
			},
			{
				"x": -3.6118619331,
				"y": 0.5451204162,
				"z": 1.3172668852,
				"element": "C" 
			},
			{
				"x": -4.6863718135,
				"y": 0.3231068399,
				"z": 2.1522380649,
				"element": "C" 
			},
			{
				"x": -4.4810652729,
				"y": -0.1073283739,
				"z": 3.4763022895,
				"element": "C" 
			},
			{
				"x": -3.1506548883,
				"y": -0.2559434479,
				"z": 3.8813602077,
				"element": "C" 
			},
			{
				"x": -2.0928000152,
				"y": -0.0403350002,
				"z": 3.1046609256,
				"element": "N" 
			},
			{
				"x": -5.6655806436,
				"y": -0.3230019461,
				"z": 4.3489900663,
				"element": "C" 
			},
			{
				"x": -5.4651493838,
				"y": -0.9928911446,
				"z": 5.5189967098,
				"element": "O" 
			},
			{
				"x": -6.7770606297,
				"y": 0.065320607,
				"z": 4.0667053461,
				"element": "O" 
			},
			{
				"x": 1.134583616,
				"y": 1.2016989446,
				"z": -5.2499762297,
				"element": "H" 
			},
			{
				"x": 2.7666409737,
				"y": 1.1723593931,
				"z": -5.9456095312,
				"element": "H" 
			},
			{
				"x": 2.3912655529,
				"y": 2.2807423129,
				"z": -4.6112955557,
				"element": "H" 
			},
			{
				"x": 2.5689400904,
				"y": -1.964440611,
				"z": -3.8328847454,
				"element": "H" 
			},
			{
				"x": 1.2201705127,
				"y": -1.2766119985,
				"z": -4.7661987892,
				"element": "H" 
			},
			{
				"x": 2.8368521002,
				"y": -1.3656925214,
				"z": -5.4850699469,
				"element": "H" 
			},
			{
				"x": 4.715146248,
				"y": 0.2345270463,
				"z": -4.5418951494,
				"element": "H" 
			},
			{
				"x": 4.3944956423,
				"y": -0.4016550501,
				"z": -2.9129764136,
				"element": "H" 
			},
			{
				"x": 4.2889634957,
				"y": 1.3453834304,
				"z": -3.228945267,
				"element": "H" 
			},
			{
				"x": -0.0456684279,
				"y": 1.537380089,
				"z": -1.9884568234,
				"element": "H" 
			},
			{
				"x": 0.4776720604,
				"y": 2.2197136848,
				"z": -0.4500590929,
				"element": "H" 
			},
			{
				"x": -1.9252363861,
				"y": 1.9166044706,
				"z": -0.3826442149,
				"element": "H" 
			},
			{
				"x": -1.8072673111,
				"y": 0.2404530751,
				"z": -0.947014332,
				"element": "H" 
			},
			{
				"x": 0.6796301502,
				"y": 1.2041754233,
				"z": 1.7986670921,
				"element": "H" 
			},
			{
				"x": 0.0634850156,
				"y": -0.3035518494,
				"z": 2.4681422669,
				"element": "H" 
			},
			{
				"x": 0.5340208153,
				"y": -1.5251078941,
				"z": 0.3965239322,
				"element": "H" 
			},
			{
				"x": 1.9923665584,
				"y": -0.6520648669,
				"z": 0.8631421882,
				"element": "H" 
			},
			{
				"x": -3.776393434,
				"y": 0.8564305819,
				"z": 0.2938253621,
				"element": "H" 
			},
			{
				"x": -5.7048784393,
				"y": 0.4689646717,
				"z": 1.8074971271,
				"element": "H" 
			},
			{
				"x": -2.9049631492,
				"y": -0.5379121764,
				"z": 4.9071124293,
				"element": "H" 
			},
			{
				"x": -4.5788195694,
				"y": -1.3783008473,
				"z": 5.5418738025,
				"element": "H" 
			}
		],
		 "valence_orbital": [ 
			{
				"type": "occ",
				"energy": -0.27939,
				"method": "rhf"
			},
			{
				"type": "occ",
				"energy": -0.2667,
				"method": "rhf"
			},
			{
				"type": "occ",
				"energy": -0.26173,
				"method": "rhf"
			},
			{
				"type": "occ",
				"energy": -0.24626,
				"method": "rhf"
			},
			{
				"type": "occ",
				"energy": -0.21965,
				"method": "rhf"
			},
			{
				"type": "unocc",
				"energy": -0.03978,
				"method": "rhf"
			},
			{
				"type": "unocc",
				"energy": -0.03217,
				"method": "rhf"
			},
			{
				"type": "unocc",
				"energy": 0.04604,
				"method": "rhf"
			},
			{
				"type": "unocc",
				"energy": 0.05581,
				"method": "rhf"
			},
			{
				"type": "unocc",
				"energy": 0.06497,
				"method": "rhf"
			}
		],
		"cosmo_sigma_profile": { 
			"-0.025": 0.0,
			"-0.024": 0.0,
			"-0.023": 0.0,
			"-0.022": 0.0,
			"-0.021": 0.0,
			"-0.02": 0.0,
			"-0.019": 0.0834144373,
			"-0.018": 0.819426465376,
			"-0.017": 1.37848003543,
			"-0.016": 0.338617521573,
			"-0.015": 1.44923712398,
			"-0.014": 1.14595337419,
			"-0.013": 1.08044213443,
			"-0.012": 0.972112862919,
			"-0.011": 1.10431224748,
			"-0.01": 1.02514012905,
			"-0.009": 1.01244726068,
			"-0.008": 1.89945412113,
			"-0.007": 4.06097661122,
			"-0.006": 11.8860955268,
			"-0.005": 26.4789859977,
			"-0.004": 34.3632777493,
			"-0.003": 32.0213992559,
			"-0.002": 26.9918892434,
			"-0.001": 27.588235181,
			"0.0": 39.8296249497,
			"0.001": 35.1174489596,
			"0.002": 17.8337594183,
			"0.003": 13.4572525641,
			"0.004": 9.44284444417,
			"0.005": 6.81317111075,
			"0.006": 7.14989256386,
			"0.007": 5.57060309306,
			"0.008": 4.99569113994,
			"0.009": 5.773714865,
			"0.01": 6.57325646737,
			"0.011": 7.00586854705,
			"0.012": 8.14784491412,
			"0.013": 5.24392648637,
			"0.014": 2.65733589784,
			"0.015": 0.0,
			"0.016": 0.0,
			"0.017": 0.0,
			"0.018": 0.0,
			"0.019": 0.0,
			"0.02": 0.0,
			"0.021": 0.0,
			"0.022": 0.0,
			"0.023": 0.0,
			"0.024": 0.0,
			"0.025": 0.0
		}
	}
}
