{
	 "smiles": "OCC1CCC(O1)N1C=C(Br)C(=O)NC1=O", 
	 "Tm": 453.15, 
	 "num_atms": 27, 
	 "gaussian": { 
		 "optdone": 1, 
		 "sigma_profile": "yes", 
		 "theory": "DFT", 
		 "functional": "B3LYP", 
		 "basiset": "6-31G**", 
		 "properties": { 
			 "R2extent": 6356.2961, 
			 "electric_dipole_moment_norm": 6.95026666755, 
			 "electric_quadrupole_moment_norm": 18.3150026773, 
			 "total_energy": -3331.40293022, 
			 "HOMO_LUMO_gap": 0.1893, 
			 "cosmo_polarized_energy": -18.78, 
			 "cosmo_cavitation_energy": 32.06, 
			 "cosmo_dispersion_energy": -23.65, 
			 "cosmo_repulsion_energy": 1.85, 
			 "cosmo_total_nonelectrostatic_energy": 10.26, 
			 "SMD_solvation_energy": 5.73 
		},
		"coords": [
			{
				"x": -0.1973432028,
				"y": 2.3554076678,
				"z": -1.9513241116,
				"element": "O" 
			},
			{
				"x": 1.1718485798,
				"y": 1.9610463506,
				"z": -1.9095636809,
				"element": "C" 
			},
			{
				"x": 1.5900124115,
				"y": 1.740847923,
				"z": -0.4603215931,
				"element": "C" 
			},
			{
				"x": 1.2313660604,
				"y": 2.8899867719,
				"z": 0.5071495506,
				"element": "C" 
			},
			{
				"x": -0.0771863494,
				"y": 2.4110227997,
				"z": 1.1468483416,
				"element": "C" 
			},
			{
				"x": 0.1006366338,
				"y": 0.8852976912,
				"z": 1.1616825661,
				"element": "C" 
			},
			{
				"x": 0.9410638763,
				"y": 0.5669590669,
				"z": 0.0594889164,
				"element": "O" 
			},
			{
				"x": -1.1524508948,
				"y": 0.1276070765,
				"z": 1.0295475344,
				"element": "N" 
			},
			{
				"x": -1.8449504844,
				"y": 0.1600344331,
				"z": -0.1621518297,
				"element": "C" 
			},
			{
				"x": -2.9820065329,
				"y": -0.5435146755,
				"z": -0.3612100515,
				"element": "C" 
			},
			{
				"x": -3.903773227,
				"y": -0.4682908654,
				"z": -2.0120394166,
				"element": "Br" 
			},
			{
				"x": -3.5312300302,
				"y": -1.3963756178,
				"z": 0.6929080002,
				"element": "C" 
			},
			{
				"x": -4.538652242,
				"y": -2.0771583093,
				"z": 0.6437805622,
				"element": "O" 
			},
			{
				"x": -2.7390880879,
				"y": -1.363303356,
				"z": 1.857266143,
				"element": "N" 
			},
			{
				"x": -1.57254759,
				"y": -0.6602247711,
				"z": 2.1082760904,
				"element": "C" 
			},
			{
				"x": -0.9815117373,
				"y": -0.7190281941,
				"z": 3.1740185089,
				"element": "O" 
			},
			{
				"x": -0.4818484319,
				"y": 2.3914352006,
				"z": -2.8727823085,
				"element": "H" 
			},
			{
				"x": 1.8193249789,
				"y": 2.7368602444,
				"z": -2.3475313881,
				"element": "H" 
			},
			{
				"x": 1.3354104828,
				"y": 1.0259445987,
				"z": -2.4633110594,
				"element": "H" 
			},
			{
				"x": 2.6707460146,
				"y": 1.5480386716,
				"z": -0.4644128386,
				"element": "H" 
			},
			{
				"x": 2.016631631,
				"y": 2.9970131286,
				"z": 1.2621721074,
				"element": "H" 
			},
			{
				"x": 1.1218773603,
				"y": 3.8475972281,
				"z": -0.0068270325,
				"element": "H" 
			},
			{
				"x": -0.245947061,
				"y": 2.8050047513,
				"z": 2.1518758186,
				"element": "H" 
			},
			{
				"x": -0.9280904371,
				"y": 2.6826558573,
				"z": 0.5176634484,
				"element": "H" 
			},
			{
				"x": 0.5436007291,
				"y": 0.5317778099,
				"z": 2.0958508657,
				"element": "H" 
			},
			{
				"x": -1.4053754372,
				"y": 0.7894123699,
				"z": -0.9289769134,
				"element": "H" 
			},
			{
				"x": -3.0660170123,
				"y": -1.9371538519,
				"z": 2.62552377,
				"element": "H" 
			}
		],
		 "valence_orbital": [ 
			{
				"type": "occ",
				"energy": -0.28807,
				"method": "rhf"
			},
			{
				"type": "occ",
				"energy": -0.28536,
				"method": "rhf"
			},
			{
				"type": "occ",
				"energy": -0.27636,
				"method": "rhf"
			},
			{
				"type": "occ",
				"energy": -0.26239,
				"method": "rhf"
			},
			{
				"type": "occ",
				"energy": -0.23088,
				"method": "rhf"
			},
			{
				"type": "unocc",
				"energy": -0.04158,
				"method": "rhf"
			},
			{
				"type": "unocc",
				"energy": 0.00569,
				"method": "rhf"
			},
			{
				"type": "unocc",
				"energy": 0.00948,
				"method": "rhf"
			},
			{
				"type": "unocc",
				"energy": 0.04534,
				"method": "rhf"
			},
			{
				"type": "unocc",
				"energy": 0.08748,
				"method": "rhf"
			}
		],
		"cosmo_sigma_profile": { 
			"-0.025": 0.0,
			"-0.024": 0.0,
			"-0.023": 0.0,
			"-0.022": 0.0,
			"-0.021": 0.0,
			"-0.02": 0.0,
			"-0.019": 0.0,
			"-0.018": 0.0,
			"-0.017": 0.252350555295,
			"-0.016": 1.81090427717,
			"-0.015": 2.05018906632,
			"-0.014": 1.80269447209,
			"-0.013": 1.27377025766,
			"-0.012": 1.73514987116,
			"-0.011": 1.35650167769,
			"-0.01": 1.31336537962,
			"-0.009": 1.81436090134,
			"-0.008": 2.50036932444,
			"-0.007": 1.84819278241,
			"-0.006": 6.28349829902,
			"-0.005": 20.4896869201,
			"-0.004": 30.6398575541,
			"-0.003": 26.2368588678,
			"-0.002": 23.5988092128,
			"-0.001": 19.7077386726,
			"0.0": 13.0854601588,
			"0.001": 9.53085030346,
			"0.002": 10.7395231523,
			"0.003": 12.2266039855,
			"0.004": 12.522114207,
			"0.005": 7.57044343152,
			"0.006": 5.31096224143,
			"0.007": 4.46503666346,
			"0.008": 4.22885448053,
			"0.009": 4.51081162307,
			"0.01": 5.61421566002,
			"0.011": 7.17502858646,
			"0.012": 11.9429134103,
			"0.013": 3.12336794496,
			"0.014": 0.0172705476361,
			"0.015": 0.0,
			"0.016": 0.0,
			"0.017": 0.0,
			"0.018": 0.0,
			"0.019": 0.0,
			"0.02": 0.0,
			"0.021": 0.0,
			"0.022": 0.0,
			"0.023": 0.0,
			"0.024": 0.0,
			"0.025": 0.0
		}
	}
}
