{
	 "smiles": "CC(C)(C)OC(=O)C(C#N)C1=NC=C(C=C1)[N+]([O-])=O", 
	 "Tm": 442.15, 
	 "num_atms": 32, 
	 "gaussian": { 
		 "optdone": 1, 
		 "sigma_profile": "yes", 
		 "theory": "DFT", 
		 "functional": "B3LYP", 
		 "basiset": "6-31G**", 
		 "properties": { 
			 "R2extent": 6589.248, 
			 "electric_dipole_moment_norm": 6.11877488473, 
			 "electric_quadrupole_moment_norm": 20.5338232154, 
			 "total_energy": -930.15049847, 
			 "HOMO_LUMO_gap": 0.17455, 
			 "cosmo_polarized_energy": -20.54, 
			 "cosmo_cavitation_energy": 38.42, 
			 "cosmo_dispersion_energy": -24.92, 
			 "cosmo_repulsion_energy": 1.96, 
			 "cosmo_total_nonelectrostatic_energy": 15.45, 
			 "SMD_solvation_energy": 10.17 
		},
		"coords": [
			{
				"x": -3.260598519,
				"y": 1.9598933258,
				"z": -0.9979531463,
				"element": "C" 
			},
			{
				"x": -2.0859426232,
				"y": 1.4563032458,
				"z": -1.8376848455,
				"element": "C" 
			},
			{
				"x": -2.573772066,
				"y": 0.6510863411,
				"z": -3.0446219683,
				"element": "C" 
			},
			{
				"x": -1.1556523254,
				"y": 2.6056942875,
				"z": -2.2327823691,
				"element": "C" 
			},
			{
				"x": -1.3811445452,
				"y": 0.5521175422,
				"z": -0.8898746419,
				"element": "O" 
			},
			{
				"x": -0.2531862251,
				"y": -0.076875708,
				"z": -1.2338974415,
				"element": "C" 
			},
			{
				"x": 0.3018215671,
				"y": -0.0673920146,
				"z": -2.304952069,
				"element": "O" 
			},
			{
				"x": 0.2358316414,
				"y": -0.8982625208,
				"z": -0.0134715268,
				"element": "C" 
			},
			{
				"x": 1.4930453786,
				"y": -1.5930932476,
				"z": -0.3133369474,
				"element": "C" 
			},
			{
				"x": 2.4834397807,
				"y": -2.1673373695,
				"z": -0.4972142982,
				"element": "N" 
			},
			{
				"x": 0.3866960706,
				"y": -0.0268278086,
				"z": 1.2330647705,
				"element": "C" 
			},
			{
				"x": 1.0948439979,
				"y": 1.0989055243,
				"z": 1.0709769665,
				"element": "N" 
			},
			{
				"x": 1.2726807473,
				"y": 1.8912165429,
				"z": 2.1278421256,
				"element": "C" 
			},
			{
				"x": 0.7443865964,
				"y": 1.5756733129,
				"z": 3.3808355663,
				"element": "C" 
			},
			{
				"x": 0.0089665176,
				"y": 0.409757728,
				"z": 3.5628265245,
				"element": "C" 
			},
			{
				"x": -0.1733722034,
				"y": -0.4125201784,
				"z": 2.4556853879,
				"element": "C" 
			},
			{
				"x": 0.9637125626,
				"y": 2.4838171018,
				"z": 4.5144876661,
				"element": "N" 
			},
			{
				"x": 1.6129150774,
				"y": 3.5055466496,
				"z": 4.3021062149,
				"element": "O" 
			},
			{
				"x": 0.4807675483,
				"y": 2.1606636805,
				"z": 5.5981245666,
				"element": "O" 
			},
			{
				"x": -3.8894569821,
				"y": 1.1269256648,
				"z": -0.6705860499,
				"element": "H" 
			},
			{
				"x": -2.9038763023,
				"y": 2.4940663139,
				"z": -0.1128016157,
				"element": "H" 
			},
			{
				"x": -3.8747585686,
				"y": 2.6440934487,
				"z": -1.5903954463,
				"element": "H" 
			},
			{
				"x": -3.1878217867,
				"y": 1.2935065697,
				"z": -3.6836483809,
				"element": "H" 
			},
			{
				"x": -1.7372732964,
				"y": 0.2725678306,
				"z": -3.6328846011,
				"element": "H" 
			},
			{
				"x": -3.1919494281,
				"y": -0.1914749023,
				"z": -2.7192756981,
				"element": "H" 
			},
			{
				"x": -1.718573629,
				"y": 3.3421166136,
				"z": -2.8148605956,
				"element": "H" 
			},
			{
				"x": -0.7637165377,
				"y": 3.1025314198,
				"z": -1.340420448,
				"element": "H" 
			},
			{
				"x": -0.3183686321,
				"y": 2.2514142252,
				"z": -2.8347191694,
				"element": "H" 
			},
			{
				"x": -0.5304611782,
				"y": -1.6587978995,
				"z": 0.1806404251,
				"element": "H" 
			},
			{
				"x": 1.8462954008,
				"y": 2.8018397502,
				"z": 1.9900646167,
				"element": "H" 
			},
			{
				"x": -0.3964489582,
				"y": 0.1722552897,
				"z": 4.538912113,
				"element": "H" 
			},
			{
				"x": -0.7373290802,
				"y": -1.3353107595,
				"z": 2.5403143154,
				"element": "H" 
			}
		],
		 "valence_orbital": [ 
			{
				"type": "occ",
				"energy": -0.31727,
				"method": "rhf"
			},
			{
				"type": "occ",
				"energy": -0.31136,
				"method": "rhf"
			},
			{
				"type": "occ",
				"energy": -0.30902,
				"method": "rhf"
			},
			{
				"type": "occ",
				"energy": -0.2972,
				"method": "rhf"
			},
			{
				"type": "occ",
				"energy": -0.28618,
				"method": "rhf"
			},
			{
				"type": "unocc",
				"energy": -0.11163,
				"method": "rhf"
			},
			{
				"type": "unocc",
				"energy": -0.06639,
				"method": "rhf"
			},
			{
				"type": "unocc",
				"energy": -0.03115,
				"method": "rhf"
			},
			{
				"type": "unocc",
				"energy": -0.01436,
				"method": "rhf"
			},
			{
				"type": "unocc",
				"energy": 0.02524,
				"method": "rhf"
			}
		],
		"cosmo_sigma_profile": { 
			"-0.025": 0.0,
			"-0.024": 0.0,
			"-0.023": 0.0,
			"-0.022": 0.0,
			"-0.021": 0.0,
			"-0.02": 0.0,
			"-0.019": 0.0,
			"-0.018": 0.0,
			"-0.017": 0.0,
			"-0.016": 0.0,
			"-0.015": 0.0,
			"-0.014": 0.0,
			"-0.013": 0.622047803145,
			"-0.012": 3.48954284185,
			"-0.011": 3.29831859732,
			"-0.01": 3.43172165182,
			"-0.009": 5.07089948623,
			"-0.008": 8.1104649601,
			"-0.007": 6.75765358284,
			"-0.006": 6.62505766311,
			"-0.005": 13.390778106,
			"-0.004": 26.58485067,
			"-0.003": 29.2562622395,
			"-0.002": 25.978376414,
			"-0.001": 29.0527159406,
			"0.0": 27.7492294206,
			"0.001": 13.7259545718,
			"0.002": 9.96698959031,
			"0.003": 11.4666384216,
			"0.004": 9.67069112633,
			"0.005": 9.75597766288,
			"0.006": 12.2559520043,
			"0.007": 14.6476831674,
			"0.008": 11.5384037602,
			"0.009": 9.23294748846,
			"0.01": 6.83932252149,
			"0.011": 4.90151039469,
			"0.012": 2.24790942048,
			"0.013": 0.323182877784,
			"0.014": 0.0,
			"0.015": 0.0,
			"0.016": 0.0,
			"0.017": 0.0,
			"0.018": 0.0,
			"0.019": 0.0,
			"0.02": 0.0,
			"0.021": 0.0,
			"0.022": 0.0,
			"0.023": 0.0,
			"0.024": 0.0,
			"0.025": 0.0
		}
	}
}
