{
	 "smiles": "CC1=CC2=C(SC=C2)C=C1", 
	 "Tm": 308.65, 
	 "num_atms": 18, 
	 "gaussian": { 
		 "optdone": 1, 
		 "sigma_profile": "yes", 
		 "theory": "DFT", 
		 "functional": "B3LYP", 
		 "basiset": "6-31G**", 
		 "properties": { 
			 "R2extent": 1995.5377, 
			 "electric_dipole_moment_norm": 0.955366803903, 
			 "electric_quadrupole_moment_norm": 7.1843719816, 
			 "total_energy": -745.973561733, 
			 "HOMO_LUMO_gap": 0.19139, 
			 "cosmo_polarized_energy": -4.58, 
			 "cosmo_cavitation_energy": 22.9, 
			 "cosmo_dispersion_energy": -17.74, 
			 "cosmo_repulsion_energy": 1.36, 
			 "cosmo_total_nonelectrostatic_energy": 6.53, 
			 "SMD_solvation_energy": 3.69 
		},
		"coords": [
			{
				"x": -2.1103257966,
				"y": 1.7962927431,
				"z": -1.7740639132,
				"element": "C" 
			},
			{
				"x": -1.1188246497,
				"y": 1.1809020379,
				"z": -0.8138166863,
				"element": "C" 
			},
			{
				"x": -0.6509819031,
				"y": 1.8882752122,
				"z": 0.2886036215,
				"element": "C" 
			},
			{
				"x": 0.2734083269,
				"y": 1.3051820314,
				"z": 1.1764045216,
				"element": "C" 
			},
			{
				"x": 0.7201926448,
				"y": -0.0149432399,
				"z": 0.9291291973,
				"element": "C" 
			},
			{
				"x": 1.8634659937,
				"y": -0.5378451596,
				"z": 2.1566300451,
				"element": "S" 
			},
			{
				"x": 1.7290051834,
				"y": 1.0036311857,
				"z": 2.97626647,
				"element": "C" 
			},
			{
				"x": 0.8738167356,
				"y": 1.8618582969,
				"z": 2.3625096047,
				"element": "C" 
			},
			{
				"x": 0.2593695391,
				"y": -0.7401550034,
				"z": -0.1751031645,
				"element": "C" 
			},
			{
				"x": -0.6517227689,
				"y": -0.1359467223,
				"z": -1.0309323061,
				"element": "C" 
			},
			{
				"x": -3.03426582,
				"y": 1.2084792536,
				"z": -1.8258448445,
				"element": "H" 
			},
			{
				"x": -2.3787012015,
				"y": 2.8129134355,
				"z": -1.4739199854,
				"element": "H" 
			},
			{
				"x": -1.7041315419,
				"y": 1.8447846056,
				"z": -2.7912354789,
				"element": "H" 
			},
			{
				"x": -1.0000821786,
				"y": 2.9019807695,
				"z": 0.4701803462,
				"element": "H" 
			},
			{
				"x": 2.3046450028,
				"y": 1.1732557176,
				"z": 3.8762469968,
				"element": "H" 
			},
			{
				"x": 0.6650511955,
				"y": 2.8614539615,
				"z": 2.7274018087,
				"element": "H" 
			},
			{
				"x": 0.6040365874,
				"y": -1.7527638691,
				"z": -0.3619049965,
				"element": "H" 
			},
			{
				"x": -1.0168553489,
				"y": -0.6898552561,
				"z": -1.8922512365,
				"element": "H" 
			}
		],
		 "valence_orbital": [ 
			{
				"type": "occ",
				"energy": -0.3293,
				"method": "rhf"
			},
			{
				"type": "occ",
				"energy": -0.31775,
				"method": "rhf"
			},
			{
				"type": "occ",
				"energy": -0.27834,
				"method": "rhf"
			},
			{
				"type": "occ",
				"energy": -0.22676,
				"method": "rhf"
			},
			{
				"type": "occ",
				"energy": -0.21389,
				"method": "rhf"
			},
			{
				"type": "unocc",
				"energy": -0.0225,
				"method": "rhf"
			},
			{
				"type": "unocc",
				"energy": 0.00404,
				"method": "rhf"
			},
			{
				"type": "unocc",
				"energy": 0.02551,
				"method": "rhf"
			},
			{
				"type": "unocc",
				"energy": 0.04963,
				"method": "rhf"
			},
			{
				"type": "unocc",
				"energy": 0.09734,
				"method": "rhf"
			}
		],
		"cosmo_sigma_profile": { 
			"-0.025": 0.0,
			"-0.024": 0.0,
			"-0.023": 0.0,
			"-0.022": 0.0,
			"-0.021": 0.0,
			"-0.02": 0.0,
			"-0.019": 0.0,
			"-0.018": 0.0,
			"-0.017": 0.0,
			"-0.016": 0.0,
			"-0.015": 0.0,
			"-0.014": 0.0,
			"-0.013": 0.0,
			"-0.012": 0.0,
			"-0.011": 0.0,
			"-0.01": 0.0,
			"-0.009": 0.37623857085,
			"-0.008": 2.24563895157,
			"-0.007": 3.48621631765,
			"-0.006": 7.46130153024,
			"-0.005": 11.363403151,
			"-0.004": 14.8243398618,
			"-0.003": 16.4069715369,
			"-0.002": 14.8202828377,
			"-0.001": 13.4768525731,
			"0.0": 14.9599968187,
			"0.001": 13.2864041329,
			"0.002": 11.8711972537,
			"0.003": 14.8343425132,
			"0.004": 21.0272521622,
			"0.005": 18.4684382731,
			"0.006": 6.55082407353,
			"0.007": 0.0,
			"0.008": 0.0,
			"0.009": 0.0,
			"0.01": 0.0,
			"0.011": 0.0,
			"0.012": 0.0,
			"0.013": 0.0,
			"0.014": 0.0,
			"0.015": 0.0,
			"0.016": 0.0,
			"0.017": 0.0,
			"0.018": 0.0,
			"0.019": 0.0,
			"0.02": 0.0,
			"0.021": 0.0,
			"0.022": 0.0,
			"0.023": 0.0,
			"0.024": 0.0,
			"0.025": 0.0
		}
	}
}
