{
	 "smiles": "OC1=C(C=C(Cl)C=C1)[N+]([O-])=O", 
	 "Tm": 361.15, 
	 "num_atms": 15, 
	 "gaussian": { 
		 "optdone": 1, 
		 "sigma_profile": "yes", 
		 "theory": "DFT", 
		 "functional": "B3LYP", 
		 "basiset": "6-31G**", 
		 "properties": { 
			 "R2extent": 2642.8266, 
			 "electric_dipole_moment_norm": 5.45470992629, 
			 "electric_quadrupole_moment_norm": 5.66722482879, 
			 "total_energy": -971.547112465, 
			 "HOMO_LUMO_gap": 0.16189, 
			 "cosmo_polarized_energy": -15.2, 
			 "cosmo_cavitation_energy": 22.25, 
			 "cosmo_dispersion_energy": -16.77, 
			 "cosmo_repulsion_energy": 1.35, 
			 "cosmo_total_nonelectrostatic_energy": 6.83, 
			 "SMD_solvation_energy": 6.26 
		},
		"coords": [
			{
				"x": -0.8367450076,
				"y": -0.8950054337,
				"z": -0.8840019414,
				"element": "O" 
			},
			{
				"x": -0.000610722,
				"y": 0.0121189724,
				"z": -0.3378129888,
				"element": "C" 
			},
			{
				"x": 0.0889192353,
				"y": 0.1776422255,
				"z": 1.0607513801,
				"element": "C" 
			},
			{
				"x": 0.9758446543,
				"y": 1.0999984339,
				"z": 1.6228363982,
				"element": "C" 
			},
			{
				"x": 1.7759446181,
				"y": 1.8789636028,
				"z": 0.8014005091,
				"element": "C" 
			},
			{
				"x": 2.8791695764,
				"y": 3.0444593959,
				"z": 1.5057023348,
				"element": "Cl" 
			},
			{
				"x": 1.707031961,
				"y": 1.7384512067,
				"z": -0.5871882873,
				"element": "C" 
			},
			{
				"x": 0.8314349505,
				"y": 0.8128313302,
				"z": -1.1384314807,
				"element": "C" 
			},
			{
				"x": -0.735012326,
				"y": -0.5981394508,
				"z": 1.9999444432,
				"element": "N" 
			},
			{
				"x": -0.410541969,
				"y": -0.5638467071,
				"z": 3.1891494558,
				"element": "O" 
			},
			{
				"x": -1.6952317074,
				"y": -1.2186538684,
				"z": 1.5550321276,
				"element": "O" 
			},
			{
				"x": -0.7222368608,
				"y": -0.8858543833,
				"z": -1.8445685097,
				"element": "H" 
			},
			{
				"x": 1.0162726117,
				"y": 1.1809807492,
				"z": 2.7009251806,
				"element": "H" 
			},
			{
				"x": 2.3347341278,
				"y": 2.3468398985,
				"z": -1.2286750444,
				"element": "H" 
			},
			{
				"x": 0.7832268576,
				"y": 0.6999140282,
				"z": -2.2189635773,
				"element": "H" 
			}
		],
		 "valence_orbital": [ 
			{
				"type": "occ",
				"energy": -0.30717,
				"method": "rhf"
			},
			{
				"type": "occ",
				"energy": -0.30545,
				"method": "rhf"
			},
			{
				"type": "occ",
				"energy": -0.29783,
				"method": "rhf"
			},
			{
				"type": "occ",
				"energy": -0.28502,
				"method": "rhf"
			},
			{
				"type": "occ",
				"energy": -0.25162,
				"method": "rhf"
			},
			{
				"type": "unocc",
				"energy": -0.08973,
				"method": "rhf"
			},
			{
				"type": "unocc",
				"energy": -0.03048,
				"method": "rhf"
			},
			{
				"type": "unocc",
				"energy": -0.0101,
				"method": "rhf"
			},
			{
				"type": "unocc",
				"energy": 0.01159,
				"method": "rhf"
			},
			{
				"type": "unocc",
				"energy": 0.04282,
				"method": "rhf"
			}
		],
		"cosmo_sigma_profile": { 
			"-0.025": 0.0,
			"-0.024": 0.0,
			"-0.023": 0.0,
			"-0.022": 0.0,
			"-0.021": 0.0,
			"-0.02": 0.327877246553,
			"-0.019": 1.41025136175,
			"-0.018": 1.0314933943,
			"-0.017": 1.28958048821,
			"-0.016": 1.34009748547,
			"-0.015": 0.945759450675,
			"-0.014": 0.641139743825,
			"-0.013": 0.877160378516,
			"-0.012": 1.10811613276,
			"-0.011": 1.27154331453,
			"-0.01": 1.67805907418,
			"-0.009": 1.97732801101,
			"-0.008": 5.06550922227,
			"-0.007": 5.59067566651,
			"-0.006": 6.32308753105,
			"-0.005": 5.8838668399,
			"-0.004": 6.46505427608,
			"-0.003": 7.24868572559,
			"-0.002": 11.6007125565,
			"-0.001": 15.673036222,
			"0.0": 19.0851244076,
			"0.001": 15.3521817314,
			"0.002": 7.94407824226,
			"0.003": 8.96109845174,
			"0.004": 13.1805364043,
			"0.005": 4.9360850476,
			"0.006": 3.65558686746,
			"0.007": 5.79237102171,
			"0.008": 9.72488901506,
			"0.009": 6.30603775194,
			"0.01": 5.06260789252,
			"0.011": 1.34901635235,
			"0.012": 1.62457460003,
			"0.013": 0.49944863128,
			"0.014": 0.0,
			"0.015": 0.0,
			"0.016": 0.0,
			"0.017": 0.0,
			"0.018": 0.0,
			"0.019": 0.0,
			"0.02": 0.0,
			"0.021": 0.0,
			"0.022": 0.0,
			"0.023": 0.0,
			"0.024": 0.0,
			"0.025": 0.0
		}
	}
}
