{
	 "smiles": "OC1=C(Br)C(Br)=C(O)C(Br)=C1Br", 
	 "Tm": 531.15, 
	 "num_atms": 14, 
	 "gaussian": { 
		 "optdone": 1, 
		 "sigma_profile": "yes", 
		 "theory": "DFT", 
		 "functional": "B3LYP", 
		 "basiset": "6-31G**", 
		 "properties": { 
			 "R2extent": 6999.9333, 
			 "electric_dipole_moment_norm": 0.0, 
			 "electric_quadrupole_moment_norm": 11.3115219334, 
			 "total_energy": -10665.8821244, 
			 "HOMO_LUMO_gap": 0.17111, 
			 "cosmo_polarized_energy": -8.28, 
			 "cosmo_cavitation_energy": 27.09, 
			 "cosmo_dispersion_energy": -22.16, 
			 "cosmo_repulsion_energy": 1.74, 
			 "cosmo_total_nonelectrostatic_energy": 6.67, 
			 "SMD_solvation_energy": 1.27 
		},
		"coords": [
			{
				"x": -1.6852528464,
				"y": 1.7053503783,
				"z": -0.050778124,
				"element": "O" 
			},
			{
				"x": -0.6999247958,
				"y": 0.862582586,
				"z": -0.4289041647,
				"element": "C" 
			},
			{
				"x": -1.0371118678,
				"y": -0.2497210559,
				"z": -1.2154545775,
				"element": "C" 
			},
			{
				"x": -2.8526380765,
				"y": -0.4882073795,
				"z": -1.6899334755,
				"element": "Br" 
			},
			{
				"x": -0.0429768137,
				"y": -1.141669578,
				"z": -1.6241599864,
				"element": "C" 
			},
			{
				"x": -0.451487005,
				"y": -2.6660049453,
				"z": -2.6923989838,
				"element": "Br" 
			},
			{
				"x": 1.3034811977,
				"y": -0.9581827826,
				"z": -1.2677816385,
				"element": "C" 
			},
			{
				"x": 2.2888105449,
				"y": -1.8009499601,
				"z": -1.6459069292,
				"element": "O" 
			},
			{
				"x": 1.6406684823,
				"y": 0.1541216782,
				"z": -0.4812304186,
				"element": "C" 
			},
			{
				"x": 3.4561955234,
				"y": 0.3926064985,
				"z": -0.0067528614,
				"element": "Br" 
			},
			{
				"x": 0.6465340448,
				"y": 1.0460690857,
				"z": -0.0725255865,
				"element": "C" 
			},
			{
				"x": 1.0550434427,
				"y": 2.5704050791,
				"z": 0.9957125707,
				"element": "Br" 
			},
			{
				"x": -1.2940448337,
				"y": 2.4165852566,
				"z": 0.4831773645,
				"element": "H" 
			},
			{
				"x": 1.8976030031,
				"y": -2.5121848611,
				"z": -2.1798631891,
				"element": "H" 
			}
		],
		 "valence_orbital": [ 
			{
				"type": "occ",
				"energy": -0.29454,
				"method": "rhf"
			},
			{
				"type": "occ",
				"energy": -0.29306,
				"method": "rhf"
			},
			{
				"type": "occ",
				"energy": -0.28564,
				"method": "rhf"
			},
			{
				"type": "occ",
				"energy": -0.25236,
				"method": "rhf"
			},
			{
				"type": "occ",
				"energy": -0.22755,
				"method": "rhf"
			},
			{
				"type": "unocc",
				"energy": -0.05644,
				"method": "rhf"
			},
			{
				"type": "unocc",
				"energy": -0.04666,
				"method": "rhf"
			},
			{
				"type": "unocc",
				"energy": -0.01903,
				"method": "rhf"
			},
			{
				"type": "unocc",
				"energy": -0.01297,
				"method": "rhf"
			},
			{
				"type": "unocc",
				"energy": 0.0086,
				"method": "rhf"
			}
		],
		"cosmo_sigma_profile": { 
			"-0.025": 0.0,
			"-0.024": 0.0,
			"-0.023": 0.0,
			"-0.022": 0.0,
			"-0.021": 0.0,
			"-0.02": 0.0,
			"-0.019": 0.0,
			"-0.018": 0.0,
			"-0.017": 0.0,
			"-0.016": 0.0,
			"-0.015": 0.859840108292,
			"-0.014": 1.42045015628,
			"-0.013": 1.31053246722,
			"-0.012": 1.42323483298,
			"-0.011": 1.75227639429,
			"-0.01": 2.02397134534,
			"-0.009": 1.66830017517,
			"-0.008": 1.74633344636,
			"-0.007": 4.12138907739,
			"-0.006": 8.01878907905,
			"-0.005": 6.87582882054,
			"-0.004": 7.82805373217,
			"-0.003": 13.0394656343,
			"-0.002": 15.938541459,
			"-0.001": 29.1812620776,
			"0.0": 24.1380786572,
			"0.001": 18.9878149473,
			"0.002": 22.5295283338,
			"0.003": 31.790338372,
			"0.004": 14.0399545651,
			"0.005": 3.57512447174,
			"0.006": 4.77381550284,
			"0.007": 3.44381891758,
			"0.008": 4.13888693021,
			"0.009": 4.07088425855,
			"0.01": 2.20400402985,
			"0.011": 0.0,
			"0.012": 0.0,
			"0.013": 0.0,
			"0.014": 0.0,
			"0.015": 0.0,
			"0.016": 0.0,
			"0.017": 0.0,
			"0.018": 0.0,
			"0.019": 0.0,
			"0.02": 0.0,
			"0.021": 0.0,
			"0.022": 0.0,
			"0.023": 0.0,
			"0.024": 0.0,
			"0.025": 0.0
		}
	}
}
