{
	 "smiles": "COC1=CC(OC)=C(C=O)C=C1OC", 
	 "Tm": 387.15, 
	 "num_atms": 26, 
	 "gaussian": { 
		 "optdone": 1, 
		 "sigma_profile": "yes", 
		 "theory": "DFT", 
		 "functional": "B3LYP", 
		 "basiset": "6-31G**", 
		 "properties": { 
			 "R2extent": 3712.4136, 
			 "electric_dipole_moment_norm": 3.77478116584, 
			 "electric_quadrupole_moment_norm": 24.9342123068, 
			 "total_energy": -689.13832169, 
			 "HOMO_LUMO_gap": 0.15761, 
			 "cosmo_polarized_energy": -11.21, 
			 "cosmo_cavitation_energy": 29.95, 
			 "cosmo_dispersion_energy": -21.55, 
			 "cosmo_repulsion_energy": 1.71, 
			 "cosmo_total_nonelectrostatic_energy": 10.11, 
			 "SMD_solvation_energy": 8.59 
		},
		"coords": [
			{
				"x": 3.6279689457,
				"y": 1.7901987745,
				"z": -1.0960422049,
				"element": "C" 
			},
			{
				"x": 2.4307577816,
				"y": 1.7271378723,
				"z": -0.3113109836,
				"element": "O" 
			},
			{
				"x": 1.7274890206,
				"y": 0.563100928,
				"z": -0.2431257911,
				"element": "C" 
			},
			{
				"x": 1.2496337991,
				"y": 0.2183379301,
				"z": 1.0240981334,
				"element": "C" 
			},
			{
				"x": 0.4702031928,
				"y": -0.9260980924,
				"z": 1.2149590014,
				"element": "C" 
			},
			{
				"x": -0.0226169056,
				"y": -1.3123699382,
				"z": 2.4257466569,
				"element": "O" 
			},
			{
				"x": 0.2386279374,
				"y": -0.4965938167,
				"z": 3.5583203579,
				"element": "C" 
			},
			{
				"x": 0.1779690911,
				"y": -1.7530818663,
				"z": 0.111165185,
				"element": "C" 
			},
			{
				"x": -0.626976383,
				"y": -2.9802616992,
				"z": 0.2397963508,
				"element": "C" 
			},
			{
				"x": -0.8936535735,
				"y": -3.7174074654,
				"z": -0.6985704053,
				"element": "O" 
			},
			{
				"x": 0.6585253014,
				"y": -1.3935342235,
				"z": -1.1591198452,
				"element": "C" 
			},
			{
				"x": 1.4132823089,
				"y": -0.2471925005,
				"z": -1.3640118329,
				"element": "C" 
			},
			{
				"x": 1.8627940902,
				"y": 0.1814216859,
				"z": -2.5852035043,
				"element": "O" 
			},
			{
				"x": 1.5480353184,
				"y": -0.6137286348,
				"z": -3.7188427743,
				"element": "C" 
			},
			{
				"x": 4.1646500937,
				"y": 2.6704123691,
				"z": -0.7358395615,
				"element": "H" 
			},
			{
				"x": 4.2477732712,
				"y": 0.900186872,
				"z": -0.9385600373,
				"element": "H" 
			},
			{
				"x": 3.4092001506,
				"y": 1.8931599506,
				"z": -2.1596930607,
				"element": "H" 
			},
			{
				"x": 1.5175185948,
				"y": 0.8768144436,
				"z": 1.8400798988,
				"element": "H" 
			},
			{
				"x": 1.3137944952,
				"y": -0.4264893777,
				"z": 3.7655369716,
				"element": "H" 
			},
			{
				"x": -0.2583086113,
				"y": -0.9834824537,
				"z": 4.3985152567,
				"element": "H" 
			},
			{
				"x": -0.1705878776,
				"y": 0.5132216578,
				"z": 3.430719351,
				"element": "H" 
			},
			{
				"x": -0.9894142717,
				"y": -3.2076588423,
				"z": 1.2593016444,
				"element": "H" 
			},
			{
				"x": 0.3898473744,
				"y": -2.0534754558,
				"z": -1.9754887985,
				"element": "H" 
			},
			{
				"x": 1.9741608758,
				"y": -1.621707165,
				"z": -3.6373578857,
				"element": "H" 
			},
			{
				"x": 1.9896635119,
				"y": -0.1029510013,
				"z": -4.5758481558,
				"element": "H" 
			},
			{
				"x": 0.463662468,
				"y": -0.695359951,
				"z": -3.8644239668,
				"element": "H" 
			}
		],
		 "valence_orbital": [ 
			{
				"type": "occ",
				"energy": -0.30328,
				"method": "rhf"
			},
			{
				"type": "occ",
				"energy": -0.28701,
				"method": "rhf"
			},
			{
				"type": "occ",
				"energy": -0.24102,
				"method": "rhf"
			},
			{
				"type": "occ",
				"energy": -0.23741,
				"method": "rhf"
			},
			{
				"type": "occ",
				"energy": -0.2061,
				"method": "rhf"
			},
			{
				"type": "unocc",
				"energy": -0.04849,
				"method": "rhf"
			},
			{
				"type": "unocc",
				"energy": 0.01297,
				"method": "rhf"
			},
			{
				"type": "unocc",
				"energy": 0.05363,
				"method": "rhf"
			},
			{
				"type": "unocc",
				"energy": 0.08379,
				"method": "rhf"
			},
			{
				"type": "unocc",
				"energy": 0.09626,
				"method": "rhf"
			}
		],
		"cosmo_sigma_profile": { 
			"-0.025": 0.0,
			"-0.024": 0.0,
			"-0.023": 0.0,
			"-0.022": 0.0,
			"-0.021": 0.0,
			"-0.02": 0.0,
			"-0.019": 0.0,
			"-0.018": 0.0,
			"-0.017": 0.0,
			"-0.016": 0.0,
			"-0.015": 0.0,
			"-0.014": 0.0,
			"-0.013": 0.0,
			"-0.012": 0.0,
			"-0.011": 0.0,
			"-0.01": 0.0,
			"-0.009": 0.0,
			"-0.008": 0.0161892201523,
			"-0.007": 2.08951694566,
			"-0.006": 15.1832310582,
			"-0.005": 25.2142316239,
			"-0.004": 25.4941970734,
			"-0.003": 27.8582491823,
			"-0.002": 17.3386294624,
			"-0.001": 13.3410021204,
			"0.0": 11.8566742072,
			"0.001": 14.2137685585,
			"0.002": 19.8784082934,
			"0.003": 17.4766136168,
			"0.004": 9.37068657375,
			"0.005": 7.56504423065,
			"0.006": 5.92146136189,
			"0.007": 4.50929980988,
			"0.008": 3.57389617283,
			"0.009": 3.34945767676,
			"0.01": 3.11827417541,
			"0.011": 3.09965981322,
			"0.012": 4.66769711845,
			"0.013": 2.19421557948,
			"0.014": 0.510874332515,
			"0.015": 0.0,
			"0.016": 0.0,
			"0.017": 0.0,
			"0.018": 0.0,
			"0.019": 0.0,
			"0.02": 0.0,
			"0.021": 0.0,
			"0.022": 0.0,
			"0.023": 0.0,
			"0.024": 0.0,
			"0.025": 0.0
		}
	}
}
