{
	 "smiles": "COC1=CC=C(F)C=C1CBr", 
	 "Tm": 333.15, 
	 "num_atms": 19, 
	 "gaussian": { 
		 "optdone": 1, 
		 "sigma_profile": "yes", 
		 "theory": "DFT", 
		 "functional": "B3LYP", 
		 "basiset": "6-31G**", 
		 "properties": { 
			 "R2extent": 3290.7169, 
			 "electric_dipole_moment_norm": 3.36363117033, 
			 "electric_quadrupole_moment_norm": 8.95379698564, 
			 "total_energy": -3056.12657515, 
			 "HOMO_LUMO_gap": 0.1828, 
			 "cosmo_polarized_energy": -8.06, 
			 "cosmo_cavitation_energy": 25.66, 
			 "cosmo_dispersion_energy": -18.69, 
			 "cosmo_repulsion_energy": 1.5, 
			 "cosmo_total_nonelectrostatic_energy": 8.46, 
			 "SMD_solvation_energy": 4.48 
		},
		"coords": [
			{
				"x": 1.6173199191,
				"y": -1.9178383262,
				"z": -0.7475802986,
				"element": "C" 
			},
			{
				"x": 1.5394159983,
				"y": -0.6088441507,
				"z": -0.2045276188,
				"element": "O" 
			},
			{
				"x": 0.4566022257,
				"y": 0.1613651387,
				"z": -0.5097405199,
				"element": "C" 
			},
			{
				"x": -0.5816619907,
				"y": -0.238555004,
				"z": -1.357308049,
				"element": "C" 
			},
			{
				"x": -1.6517167577,
				"y": 0.6226840542,
				"z": -1.6143906022,
				"element": "C" 
			},
			{
				"x": -1.6677618845,
				"y": 1.87600299,
				"z": -1.0211638141,
				"element": "C" 
			},
			{
				"x": -2.6980347628,
				"y": 2.7144671871,
				"z": -1.268850198,
				"element": "F" 
			},
			{
				"x": -0.6456482035,
				"y": 2.2923089008,
				"z": -0.1773573162,
				"element": "C" 
			},
			{
				"x": 0.4306895564,
				"y": 1.4422694447,
				"z": 0.0879615516,
				"element": "C" 
			},
			{
				"x": 1.5407431823,
				"y": 1.8772538709,
				"z": 0.9808104092,
				"element": "C" 
			},
			{
				"x": 1.2774590858,
				"y": 1.2629609629,
				"z": 2.8775279804,
				"element": "Br" 
			},
			{
				"x": 2.5424150496,
				"y": -2.3478724219,
				"z": -0.3617006861,
				"element": "H" 
			},
			{
				"x": 1.6566786805,
				"y": -1.899076573,
				"z": -1.8443425402,
				"element": "H" 
			},
			{
				"x": 0.7701053737,
				"y": -2.5367491963,
				"z": -0.4269555077,
				"element": "H" 
			},
			{
				"x": -0.5704625645,
				"y": -1.2164630848,
				"z": -1.8225043777,
				"element": "H" 
			},
			{
				"x": -2.4641278933,
				"y": 0.3263950196,
				"z": -2.2689096321,
				"element": "H" 
			},
			{
				"x": -0.6950082992,
				"y": 3.2779464564,
				"z": 0.2741593239,
				"element": "H" 
			},
			{
				"x": 2.4976300522,
				"y": 1.446512177,
				"z": 0.6992593444,
				"element": "H" 
			},
			{
				"x": 1.6088632326,
				"y": 2.9600325548,
				"z": 1.0586125512,
				"element": "H" 
			}
		],
		 "valence_orbital": [ 
			{
				"type": "occ",
				"energy": -0.32252,
				"method": "rhf"
			},
			{
				"type": "occ",
				"energy": -0.27099,
				"method": "rhf"
			},
			{
				"type": "occ",
				"energy": -0.26348,
				"method": "rhf"
			},
			{
				"type": "occ",
				"energy": -0.25809,
				"method": "rhf"
			},
			{
				"type": "occ",
				"energy": -0.22309,
				"method": "rhf"
			},
			{
				"type": "unocc",
				"energy": -0.04029,
				"method": "rhf"
			},
			{
				"type": "unocc",
				"energy": 0.00275,
				"method": "rhf"
			},
			{
				"type": "unocc",
				"energy": 0.03151,
				"method": "rhf"
			},
			{
				"type": "unocc",
				"energy": 0.08155,
				"method": "rhf"
			},
			{
				"type": "unocc",
				"energy": 0.09888,
				"method": "rhf"
			}
		],
		"cosmo_sigma_profile": { 
			"-0.025": 0.0,
			"-0.024": 0.0,
			"-0.023": 0.0,
			"-0.022": 0.0,
			"-0.021": 0.0,
			"-0.02": 0.0,
			"-0.019": 0.0,
			"-0.018": 0.0,
			"-0.017": 0.0,
			"-0.016": 0.0,
			"-0.015": 0.0,
			"-0.014": 0.0,
			"-0.013": 0.0,
			"-0.012": 0.0,
			"-0.011": 0.0,
			"-0.01": 0.0,
			"-0.009": 0.126210759914,
			"-0.008": 3.95357451199,
			"-0.007": 8.84262817693,
			"-0.006": 14.6791892958,
			"-0.005": 15.0383160915,
			"-0.004": 16.8051430884,
			"-0.003": 12.9254300693,
			"-0.002": 10.546690319,
			"-0.001": 8.85956230063,
			"0.0": 11.4224236402,
			"0.001": 15.0792737205,
			"0.002": 16.9260135791,
			"0.003": 18.044115115,
			"0.004": 18.1718015296,
			"0.005": 14.5189326683,
			"0.006": 11.878561541,
			"0.007": 7.74074026688,
			"0.008": 1.92879126509,
			"0.009": 0.456449495886,
			"0.01": 0.0,
			"0.011": 0.0,
			"0.012": 0.0,
			"0.013": 0.0,
			"0.014": 0.0,
			"0.015": 0.0,
			"0.016": 0.0,
			"0.017": 0.0,
			"0.018": 0.0,
			"0.019": 0.0,
			"0.02": 0.0,
			"0.021": 0.0,
			"0.022": 0.0,
			"0.023": 0.0,
			"0.024": 0.0,
			"0.025": 0.0
		}
	}
}
