{
	 "smiles": "NC(=NO)C1=CC=C(Br)O1", 
	 "Tm": 403.15, 
	 "num_atms": 15, 
	 "gaussian": { 
		 "optdone": 1, 
		 "sigma_profile": "yes", 
		 "theory": "DFT", 
		 "functional": "B3LYP", 
		 "basiset": "6-31G**", 
		 "properties": { 
			 "R2extent": 3228.9413, 
			 "electric_dipole_moment_norm": 0.834331067383, 
			 "electric_quadrupole_moment_norm": 8.46878256068, 
			 "total_energy": -3024.81437566, 
			 "HOMO_LUMO_gap": 0.17324, 
			 "cosmo_polarized_energy": -10.08, 
			 "cosmo_cavitation_energy": 22.63, 
			 "cosmo_dispersion_energy": -17.46, 
			 "cosmo_repulsion_energy": 1.46, 
			 "cosmo_total_nonelectrostatic_energy": 6.63, 
			 "SMD_solvation_energy": 3.39 
		},
		"coords": [
			{
				"x": -0.3182243222,
				"y": -0.0357350605,
				"z": -2.2606331495,
				"element": "N" 
			},
			{
				"x": 0.6962020832,
				"y": -0.0670267995,
				"z": -1.3349662981,
				"element": "C" 
			},
			{
				"x": 1.9432037709,
				"y": 0.1859667321,
				"z": -1.5822587848,
				"element": "N" 
			},
			{
				"x": 2.0926971183,
				"y": 0.449228375,
				"z": -2.9707450265,
				"element": "O" 
			},
			{
				"x": 0.3492840471,
				"y": -0.3636115947,
				"z": 0.0521919585,
				"element": "C" 
			},
			{
				"x": 1.0538094932,
				"y": -0.3810006947,
				"z": 1.2232016225,
				"element": "C" 
			},
			{
				"x": 0.1385222841,
				"y": -0.7738811245,
				"z": 2.2483638862,
				"element": "C" 
			},
			{
				"x": -1.0560111523,
				"y": -0.9663977414,
				"z": 1.6214543781,
				"element": "C" 
			},
			{
				"x": -2.7347901219,
				"y": -1.4809371283,
				"z": 2.2576134585,
				"element": "Br" 
			},
			{
				"x": -0.9577370683,
				"y": -0.7250320406,
				"z": 0.2883847405,
				"element": "O" 
			},
			{
				"x": -1.1652800938,
				"y": -0.5330448466,
				"z": -2.0348007981,
				"element": "H" 
			},
			{
				"x": -0.0149396738,
				"y": -0.0612311502,
				"z": -3.2227489166,
				"element": "H" 
			},
			{
				"x": 3.0457300401,
				"y": 0.5765620873,
				"z": -3.047987475,
				"element": "H" 
			},
			{
				"x": 2.100244372,
				"y": -0.13908363,
				"z": 1.3293360617,
				"element": "H" 
			},
			{
				"x": 0.3345892234,
				"y": -0.8950753833,
				"z": 3.3025943428,
				"element": "H" 
			}
		],
		 "valence_orbital": [ 
			{
				"type": "occ",
				"energy": -0.30765,
				"method": "rhf"
			},
			{
				"type": "occ",
				"energy": -0.29426,
				"method": "rhf"
			},
			{
				"type": "occ",
				"energy": -0.2784,
				"method": "rhf"
			},
			{
				"type": "occ",
				"energy": -0.24251,
				"method": "rhf"
			},
			{
				"type": "occ",
				"energy": -0.20143,
				"method": "rhf"
			},
			{
				"type": "unocc",
				"energy": -0.02819,
				"method": "rhf"
			},
			{
				"type": "unocc",
				"energy": 0.00462,
				"method": "rhf"
			},
			{
				"type": "unocc",
				"energy": 0.038,
				"method": "rhf"
			},
			{
				"type": "unocc",
				"energy": 0.0656,
				"method": "rhf"
			},
			{
				"type": "unocc",
				"energy": 0.10697,
				"method": "rhf"
			}
		],
		"cosmo_sigma_profile": { 
			"-0.025": 0.0,
			"-0.024": 0.0,
			"-0.023": 0.0,
			"-0.022": 0.0,
			"-0.021": 0.0,
			"-0.02": 0.0,
			"-0.019": 0.0,
			"-0.018": 0.0,
			"-0.017": 0.630513809882,
			"-0.016": 0.760701828684,
			"-0.015": 0.936911090245,
			"-0.014": 0.897388399076,
			"-0.013": 1.25810340349,
			"-0.012": 2.66107875058,
			"-0.011": 2.42090290118,
			"-0.01": 2.4552326251,
			"-0.009": 2.92260812036,
			"-0.008": 4.93871004175,
			"-0.007": 5.25753974906,
			"-0.006": 6.48492054778,
			"-0.005": 6.21882006759,
			"-0.004": 7.93068920671,
			"-0.003": 6.70261880212,
			"-0.002": 7.66829099344,
			"-0.001": 9.71830255033,
			"0.0": 15.6013961986,
			"0.001": 17.87418643,
			"0.002": 20.3203180008,
			"0.003": 25.0144105394,
			"0.004": 6.1296307054,
			"0.005": 4.60593561341,
			"0.006": 3.83202334464,
			"0.007": 5.29818063512,
			"0.008": 5.50435331626,
			"0.009": 2.73436419834,
			"0.01": 3.75433398605,
			"0.011": 1.86148292202,
			"0.012": 0.746345560087,
			"0.013": 1.22450992042,
			"0.014": 0.212460190055,
			"0.015": 0.0,
			"0.016": 0.0,
			"0.017": 0.0,
			"0.018": 0.0,
			"0.019": 0.0,
			"0.02": 0.0,
			"0.021": 0.0,
			"0.022": 0.0,
			"0.023": 0.0,
			"0.024": 0.0,
			"0.025": 0.0
		}
	}
}
