{
	 "smiles": "NC(=O)[C@H]1CCCC[C@H]1C(O)=O", 
	 "Tm": 443.15, 
	 "num_atms": 25, 
	 "gaussian": { 
		 "optdone": 1, 
		 "sigma_profile": "yes", 
		 "theory": "DFT", 
		 "functional": "B3LYP", 
		 "basiset": "6-31G**", 
		 "properties": { 
			 "R2extent": 2262.8132, 
			 "electric_dipole_moment_norm": 4.27947849743, 
			 "electric_quadrupole_moment_norm": 16.002850398, 
			 "total_energy": -593.143375822, 
			 "HOMO_LUMO_gap": 0.23628, 
			 "cosmo_polarized_energy": -17.03, 
			 "cosmo_cavitation_energy": 26.39, 
			 "cosmo_dispersion_energy": -19.23, 
			 "cosmo_repulsion_energy": 1.55, 
			 "cosmo_total_nonelectrostatic_energy": 8.71, 
			 "SMD_solvation_energy": 5.55 
		},
		"coords": [
			{
				"x": -0.8955608799,
				"y": 0.4031264785,
				"z": -2.8655749934,
				"element": "N" 
			},
			{
				"x": -1.5046201313,
				"y": -0.2072686365,
				"z": -1.7996217843,
				"element": "C" 
			},
			{
				"x": -2.6461103143,
				"y": -0.639958327,
				"z": -1.8730266613,
				"element": "O" 
			},
			{
				"x": -0.6746159253,
				"y": -0.4700183355,
				"z": -0.5339418173,
				"element": "C" 
			},
			{
				"x": -0.2049992941,
				"y": -1.9557037947,
				"z": -0.6032608376,
				"element": "C" 
			},
			{
				"x": 0.983140939,
				"y": -2.2228303341,
				"z": 0.3260032305,
				"element": "C" 
			},
			{
				"x": 2.2289921459,
				"y": -1.419389565,
				"z": -0.119393171,
				"element": "C" 
			},
			{
				"x": 1.8549752599,
				"y": -0.0767630712,
				"z": -0.7949195504,
				"element": "C" 
			},
			{
				"x": 0.5423008891,
				"y": 0.4613723979,
				"z": -0.1993116014,
				"element": "C" 
			},
			{
				"x": 0.2275268272,
				"y": 1.921114809,
				"z": -0.4677971007,
				"element": "C" 
			},
			{
				"x": 0.9257422934,
				"y": 2.4420849087,
				"z": -1.5208089602,
				"element": "O" 
			},
			{
				"x": -0.5630528802,
				"y": 2.5864609134,
				"z": 0.1604468996,
				"element": "O" 
			},
			{
				"x": -0.0613395977,
				"y": 0.9632779363,
				"z": -2.7720623176,
				"element": "H" 
			},
			{
				"x": -1.4924771554,
				"y": 0.581666048,
				"z": -3.6608258718,
				"element": "H" 
			},
			{
				"x": -1.3968823911,
				"y": -0.3687380501,
				"z": 0.2801839595,
				"element": "H" 
			},
			{
				"x": 0.0884248556,
				"y": -2.1950495384,
				"z": -1.6333516039,
				"element": "H" 
			},
			{
				"x": -1.0572230305,
				"y": -2.59859627,
				"z": -0.3684722013,
				"element": "H" 
			},
			{
				"x": 1.2134622173,
				"y": -3.2933907371,
				"z": 0.346093346,
				"element": "H" 
			},
			{
				"x": 0.7059037778,
				"y": -1.9541228208,
				"z": 1.3535424722,
				"element": "H" 
			},
			{
				"x": 2.8248535563,
				"y": -2.0147798222,
				"z": -0.8201986783,
				"element": "H" 
			},
			{
				"x": 2.8720720373,
				"y": -1.2312040292,
				"z": 0.7481645107,
				"element": "H" 
			},
			{
				"x": 1.739341811,
				"y": -0.2191486325,
				"z": -1.8749598189,
				"element": "H" 
			},
			{
				"x": 2.6616619715,
				"y": 0.6508664094,
				"z": -0.6684005181,
				"element": "H" 
			},
			{
				"x": 0.6339011518,
				"y": 0.4293871185,
				"z": 0.8930012398,
				"element": "H" 
			},
			{
				"x": 0.6340818669,
				"y": 3.3670049446,
				"z": -1.5992081708,
				"element": "H" 
			}
		],
		 "valence_orbital": [ 
			{
				"type": "occ",
				"energy": -0.31478,
				"method": "rhf"
			},
			{
				"type": "occ",
				"energy": -0.3138,
				"method": "rhf"
			},
			{
				"type": "occ",
				"energy": -0.28132,
				"method": "rhf"
			},
			{
				"type": "occ",
				"energy": -0.26362,
				"method": "rhf"
			},
			{
				"type": "occ",
				"energy": -0.24121,
				"method": "rhf"
			},
			{
				"type": "unocc",
				"energy": -0.00493,
				"method": "rhf"
			},
			{
				"type": "unocc",
				"energy": 0.03001,
				"method": "rhf"
			},
			{
				"type": "unocc",
				"energy": 0.0537,
				"method": "rhf"
			},
			{
				"type": "unocc",
				"energy": 0.07854,
				"method": "rhf"
			},
			{
				"type": "unocc",
				"energy": 0.0935,
				"method": "rhf"
			}
		],
		"cosmo_sigma_profile": { 
			"-0.025": 0.0,
			"-0.024": 0.0,
			"-0.023": 0.0,
			"-0.022": 0.0,
			"-0.021": 0.0,
			"-0.02": 0.0,
			"-0.019": 0.128700590143,
			"-0.018": 0.714955574331,
			"-0.017": 1.11136002734,
			"-0.016": 0.912149822046,
			"-0.015": 0.478337666,
			"-0.014": 1.17469603874,
			"-0.013": 1.78767004764,
			"-0.012": 1.46885091032,
			"-0.011": 2.30272753696,
			"-0.01": 1.95251187189,
			"-0.009": 2.68563398343,
			"-0.008": 2.9796562807,
			"-0.007": 2.47920700486,
			"-0.006": 4.65247990021,
			"-0.005": 9.37886665774,
			"-0.004": 11.5310689783,
			"-0.003": 23.1280989821,
			"-0.002": 25.722957333,
			"-0.001": 22.0787742421,
			"0.0": 18.5266651591,
			"0.001": 11.1244406505,
			"0.002": 5.8227351918,
			"0.003": 4.89077511244,
			"0.004": 4.31998175102,
			"0.005": 3.88961956455,
			"0.006": 3.72976537766,
			"0.007": 4.15798228908,
			"0.008": 3.58500042415,
			"0.009": 3.19013714393,
			"0.01": 2.55743131222,
			"0.011": 5.60578051409,
			"0.012": 5.6102244889,
			"0.013": 3.40661043772,
			"0.014": 5.54228034804,
			"0.015": 1.8417078737,
			"0.016": 0.0217641232849,
			"0.017": 0.0,
			"0.018": 0.0,
			"0.019": 0.0,
			"0.02": 0.0,
			"0.021": 0.0,
			"0.022": 0.0,
			"0.023": 0.0,
			"0.024": 0.0,
			"0.025": 0.0
		}
	}
}
