{
	 "smiles": "CC(=O)CC(=O)OCC1=CC=C(C=C1)[N+]([O-])=O", 
	 "Tm": 318.95, 
	 "num_atms": 28, 
	 "gaussian": { 
		 "optdone": 1, 
		 "sigma_profile": "yes", 
		 "theory": "DFT", 
		 "functional": "B3LYP", 
		 "basiset": "6-31G**", 
		 "properties": { 
			 "R2extent": 6622.4778, 
			 "electric_dipole_moment_norm": 2.10604083769, 
			 "electric_quadrupole_moment_norm": 37.0639464605, 
			 "total_energy": -856.578999813, 
			 "HOMO_LUMO_gap": 0.16346, 
			 "cosmo_polarized_energy": -15.5, 
			 "cosmo_cavitation_energy": 34.2, 
			 "cosmo_dispersion_energy": -24.16, 
			 "cosmo_repulsion_energy": 1.9, 
			 "cosmo_total_nonelectrostatic_energy": 11.94, 
			 "SMD_solvation_energy": 9.81 
		},
		"coords": [
			{
				"x": 2.2622814357,
				"y": 2.5355449724,
				"z": 3.8222257158,
				"element": "C" 
			},
			{
				"x": 3.0968667815,
				"y": 1.9729766398,
				"z": 2.6950874239,
				"element": "C" 
			},
			{
				"x": 4.2975728575,
				"y": 1.8170481654,
				"z": 2.7690451375,
				"element": "O" 
			},
			{
				"x": 2.353199636,
				"y": 1.6031759888,
				"z": 1.3953499098,
				"element": "C" 
			},
			{
				"x": 1.5191614876,
				"y": 0.3439920599,
				"z": 1.557873489,
				"element": "C" 
			},
			{
				"x": 0.6832550847,
				"y": 0.1713532123,
				"z": 2.4224995965,
				"element": "O" 
			},
			{
				"x": 1.8321504278,
				"y": -0.5664799319,
				"z": 0.6138866526,
				"element": "O" 
			},
			{
				"x": 1.1127937844,
				"y": -1.8305944066,
				"z": 0.66327814,
				"element": "C" 
			},
			{
				"x": -0.1496336505,
				"y": -1.7803079535,
				"z": -0.163800889,
				"element": "C" 
			},
			{
				"x": -1.3630680837,
				"y": -1.3740154012,
				"z": 0.4118830505,
				"element": "C" 
			},
			{
				"x": -2.5255021798,
				"y": -1.3180018728,
				"z": -0.3521332538,
				"element": "C" 
			},
			{
				"x": -2.4578440983,
				"y": -1.6719537595,
				"z": -1.6982164951,
				"element": "C" 
			},
			{
				"x": -1.2688894316,
				"y": -2.0785139695,
				"z": -2.2997026296,
				"element": "C" 
			},
			{
				"x": -0.1160993951,
				"y": -2.1297143534,
				"z": -1.5210112899,
				"element": "C" 
			},
			{
				"x": -3.6847034216,
				"y": -1.6175804512,
				"z": -2.512573166,
				"element": "N" 
			},
			{
				"x": -4.7209760247,
				"y": -1.2547485115,
				"z": -1.9579926679,
				"element": "O" 
			},
			{
				"x": -3.5967162189,
				"y": -1.9378104883,
				"z": -3.6971859385,
				"element": "O" 
			},
			{
				"x": 2.8779979759,
				"y": 2.6570074822,
				"z": 4.7141857279,
				"element": "H" 
			},
			{
				"x": 1.4097894531,
				"y": 1.8787379287,
				"z": 4.0199153745,
				"element": "H" 
			},
			{
				"x": 1.8541832834,
				"y": 3.5097858692,
				"z": 3.5253623147,
				"element": "H" 
			},
			{
				"x": 3.0852470886,
				"y": 1.4723806145,
				"z": 0.5991615029,
				"element": "H" 
			},
			{
				"x": 1.6600274708,
				"y": 2.4110647182,
				"z": 1.131451827,
				"element": "H" 
			},
			{
				"x": 1.8193550752,
				"y": -2.5560652159,
				"z": 0.2566287522,
				"element": "H" 
			},
			{
				"x": 0.8949365626,
				"y": -2.0692440447,
				"z": 1.7055702646,
				"element": "H" 
			},
			{
				"x": -1.3857424164,
				"y": -1.0918757331,
				"z": 1.4590794141,
				"element": "H" 
			},
			{
				"x": -3.4735553547,
				"y": -1.0105319854,
				"z": 0.0709330776,
				"element": "H" 
			},
			{
				"x": -1.2657107175,
				"y": -2.346627652,
				"z": -3.3486376189,
				"element": "H" 
			},
			{
				"x": 0.8199225877,
				"y": -2.446801921,
				"z": -1.9720634222,
				"element": "H" 
			}
		],
		 "valence_orbital": [ 
			{
				"type": "occ",
				"energy": -0.29905,
				"method": "rhf"
			},
			{
				"type": "occ",
				"energy": -0.29548,
				"method": "rhf"
			},
			{
				"type": "occ",
				"energy": -0.28575,
				"method": "rhf"
			},
			{
				"type": "occ",
				"energy": -0.28421,
				"method": "rhf"
			},
			{
				"type": "occ",
				"energy": -0.25946,
				"method": "rhf"
			},
			{
				"type": "unocc",
				"energy": -0.096,
				"method": "rhf"
			},
			{
				"type": "unocc",
				"energy": -0.0349,
				"method": "rhf"
			},
			{
				"type": "unocc",
				"energy": -0.03421,
				"method": "rhf"
			},
			{
				"type": "unocc",
				"energy": -0.01491,
				"method": "rhf"
			},
			{
				"type": "unocc",
				"energy": -0.00267,
				"method": "rhf"
			}
		],
		"cosmo_sigma_profile": { 
			"-0.025": 0.0,
			"-0.024": 0.0,
			"-0.023": 0.0,
			"-0.022": 0.0,
			"-0.021": 0.0,
			"-0.02": 0.0,
			"-0.019": 0.0,
			"-0.018": 0.0,
			"-0.017": 0.0,
			"-0.016": 0.0,
			"-0.015": 0.0,
			"-0.014": 0.0,
			"-0.013": 0.0,
			"-0.012": 0.0,
			"-0.011": 0.0,
			"-0.01": 0.0,
			"-0.009": 1.45492987587,
			"-0.008": 9.2788415524,
			"-0.007": 13.8702540507,
			"-0.006": 17.8306665648,
			"-0.005": 19.0741351858,
			"-0.004": 22.3044250392,
			"-0.003": 18.2036984072,
			"-0.002": 19.79695808,
			"-0.001": 22.2775623918,
			"0.0": 19.1044325558,
			"0.001": 20.7294236202,
			"0.002": 14.5944209807,
			"0.003": 5.76786105585,
			"0.004": 6.80064347432,
			"0.005": 7.39646969039,
			"0.006": 8.17431216341,
			"0.007": 11.3859625789,
			"0.008": 10.7043842902,
			"0.009": 8.42808496152,
			"0.01": 6.59022910533,
			"0.011": 5.33844803013,
			"0.012": 3.20034482682,
			"0.013": 0.506732470645,
			"0.014": 0.0,
			"0.015": 0.0,
			"0.016": 0.0,
			"0.017": 0.0,
			"0.018": 0.0,
			"0.019": 0.0,
			"0.02": 0.0,
			"0.021": 0.0,
			"0.022": 0.0,
			"0.023": 0.0,
			"0.024": 0.0,
			"0.025": 0.0
		}
	}
}
