{
	 "smiles": "OC(=O)CNS(=O)(=O)C1CCS(=O)(=O)C1", 
	 "Tm": 580.15, 
	 "num_atms": 26, 
	 "gaussian": { 
		 "optdone": 1, 
		 "sigma_profile": "yes", 
		 "theory": "DFT", 
		 "functional": "B3LYP", 
		 "basiset": "6-31G**", 
		 "properties": { 
			 "R2extent": 3984.318, 
			 "electric_dipole_moment_norm": 3.35497811766, 
			 "electric_quadrupole_moment_norm": 24.1644645877, 
			 "total_energy": -1537.61415456, 
			 "HOMO_LUMO_gap": 0.26599, 
			 "cosmo_polarized_energy": -28.57, 
			 "cosmo_cavitation_energy": 31.29, 
			 "cosmo_dispersion_energy": -23.26, 
			 "cosmo_repulsion_energy": 1.73, 
			 "cosmo_total_nonelectrostatic_energy": 9.76, 
			 "SMD_solvation_energy": 4.85 
		},
		"coords": [
			{
				"x": 1.692298991,
				"y": -0.6651567365,
				"z": 2.9291594991,
				"element": "O" 
			},
			{
				"x": 1.2472137918,
				"y": -1.9351494908,
				"z": 2.852057641,
				"element": "C" 
			},
			{
				"x": 1.4265562886,
				"y": -2.7693203523,
				"z": 3.7081571277,
				"element": "O" 
			},
			{
				"x": 0.5401418819,
				"y": -2.2277908414,
				"z": 1.5323131082,
				"element": "C" 
			},
			{
				"x": 0.1559266149,
				"y": -1.0805835614,
				"z": 0.7105862115,
				"element": "N" 
			},
			{
				"x": -1.3195730052,
				"y": -0.3338203954,
				"z": 1.0604012196,
				"element": "S" 
			},
			{
				"x": -1.1690194783,
				"y": 0.8340392113,
				"z": 1.9358578295,
				"element": "O" 
			},
			{
				"x": -2.246270057,
				"y": -1.4171304611,
				"z": 1.4091993979,
				"element": "O" 
			},
			{
				"x": -1.8595178119,
				"y": 0.317826466,
				"z": -0.5778658366,
				"element": "C" 
			},
			{
				"x": -1.7290585467,
				"y": -0.7030435167,
				"z": -1.733495036,
				"element": "C" 
			},
			{
				"x": -0.3473935396,
				"y": -0.5759587024,
				"z": -2.3984900925,
				"element": "C" 
			},
			{
				"x": 0.3063154621,
				"y": 1.092975983,
				"z": -1.9670281341,
				"element": "S" 
			},
			{
				"x": 0.4441838167,
				"y": 1.9308693744,
				"z": -3.1645171412,
				"element": "O" 
			},
			{
				"x": 1.4438090195,
				"y": 0.9310731303,
				"z": -1.0372448129,
				"element": "O" 
			},
			{
				"x": -1.1538463045,
				"y": 1.6088550772,
				"z": -0.986923636,
				"element": "C" 
			},
			{
				"x": 2.1329176162,
				"y": -0.5710068967,
				"z": 3.790454615,
				"element": "H" 
			},
			{
				"x": -0.3463346857,
				"y": -2.8254396518,
				"z": 1.7509675564,
				"element": "H" 
			},
			{
				"x": 1.2164592161,
				"y": -2.8592239424,
				"z": 0.9440548023,
				"element": "H" 
			},
			{
				"x": 0.8910954512,
				"y": -0.3819882208,
				"z": 0.5829618344,
				"element": "H" 
			},
			{
				"x": -2.9133999571,
				"y": 0.5162814087,
				"z": -0.360283666,
				"element": "H" 
			},
			{
				"x": -2.5127784968,
				"y": -0.4722706717,
				"z": -2.4618754127,
				"element": "H" 
			},
			{
				"x": -1.9079642062,
				"y": -1.7185494815,
				"z": -1.3737519064,
				"element": "H" 
			},
			{
				"x": 0.3766698872,
				"y": -1.2867858043,
				"z": -2.0017798836,
				"element": "H" 
			},
			{
				"x": -0.3809595829,
				"y": -0.6336730632,
				"z": -3.4871522411,
				"element": "H" 
			},
			{
				"x": -1.7873662384,
				"y": 2.2023172533,
				"z": -1.651036304,
				"element": "H" 
			},
			{
				"x": -0.8146061266,
				"y": 2.2186538861,
				"z": -0.1480267397,
				"element": "H" 
			}
		],
		 "valence_orbital": [ 
			{
				"type": "occ",
				"energy": -0.31646,
				"method": "rhf"
			},
			{
				"type": "occ",
				"energy": -0.31224,
				"method": "rhf"
			},
			{
				"type": "occ",
				"energy": -0.30401,
				"method": "rhf"
			},
			{
				"type": "occ",
				"energy": -0.29995,
				"method": "rhf"
			},
			{
				"type": "occ",
				"energy": -0.27113,
				"method": "rhf"
			},
			{
				"type": "unocc",
				"energy": -0.00514,
				"method": "rhf"
			},
			{
				"type": "unocc",
				"energy": 0.01699,
				"method": "rhf"
			},
			{
				"type": "unocc",
				"energy": 0.0311,
				"method": "rhf"
			},
			{
				"type": "unocc",
				"energy": 0.03731,
				"method": "rhf"
			},
			{
				"type": "unocc",
				"energy": 0.04809,
				"method": "rhf"
			}
		],
		"cosmo_sigma_profile": { 
			"-0.025": 0.0,
			"-0.024": 0.0,
			"-0.023": 0.0,
			"-0.022": 0.0,
			"-0.021": 0.0,
			"-0.02": 0.0,
			"-0.019": 0.508061068131,
			"-0.018": 1.23705672593,
			"-0.017": 0.641320876844,
			"-0.016": 0.817216213579,
			"-0.015": 0.913193812462,
			"-0.014": 0.523996143213,
			"-0.013": 0.629135982098,
			"-0.012": 0.901069159006,
			"-0.011": 2.91408594712,
			"-0.01": 7.94999457907,
			"-0.009": 10.7959746141,
			"-0.008": 13.5825050969,
			"-0.007": 14.5701315076,
			"-0.006": 17.447507031,
			"-0.005": 16.2201291926,
			"-0.004": 14.3697799062,
			"-0.003": 11.3047277265,
			"-0.002": 8.95986493028,
			"-0.001": 8.98844873556,
			"0.0": 7.90111053221,
			"0.001": 6.26667478254,
			"0.002": 5.35492824821,
			"0.003": 5.90367656383,
			"0.004": 5.95240167564,
			"0.005": 6.14933810006,
			"0.006": 6.06778044257,
			"0.007": 5.85669341259,
			"0.008": 7.83391385379,
			"0.009": 10.4505948838,
			"0.01": 16.0056911036,
			"0.011": 22.0835139861,
			"0.012": 7.73213200492,
			"0.013": 0.0610490498459,
			"0.014": 0.0,
			"0.015": 0.0,
			"0.016": 0.0,
			"0.017": 0.0,
			"0.018": 0.0,
			"0.019": 0.0,
			"0.02": 0.0,
			"0.021": 0.0,
			"0.022": 0.0,
			"0.023": 0.0,
			"0.024": 0.0,
			"0.025": 0.0
		}
	}
}
