{
	 "smiles": "CC(Cl)C(=O)NC1=C(C=CC=C1)[N+]([O-])=O", 
	 "Tm": 345.15, 
	 "num_atms": 24, 
	 "gaussian": { 
		 "optdone": 1, 
		 "sigma_profile": "yes", 
		 "theory": "DFT", 
		 "functional": "B3LYP", 
		 "basiset": "6-31G**", 
		 "properties": { 
			 "R2extent": 3833.8764, 
			 "electric_dipole_moment_norm": 4.4880781466, 
			 "electric_quadrupole_moment_norm": 21.6335160647, 
			 "total_energy": -1143.66196758, 
			 "HOMO_LUMO_gap": 0.17183, 
			 "cosmo_polarized_energy": -15.43, 
			 "cosmo_cavitation_energy": 30.46, 
			 "cosmo_dispersion_energy": -21.73, 
			 "cosmo_repulsion_energy": 1.71, 
			 "cosmo_total_nonelectrostatic_energy": 10.44, 
			 "SMD_solvation_energy": 7.65 
		},
		"coords": [
			{
				"x": 1.2567736396,
				"y": -3.1675716696,
				"z": -1.0284956627,
				"element": "C" 
			},
			{
				"x": 0.7876992007,
				"y": -2.2939137716,
				"z": 0.12557682,
				"element": "C" 
			},
			{
				"x": 2.0995223082,
				"y": -2.1918951368,
				"z": 1.4119250673,
				"element": "Cl" 
			},
			{
				"x": 0.2964159865,
				"y": -0.918084225,
				"z": -0.3575771206,
				"element": "C" 
			},
			{
				"x": -0.3263746161,
				"y": -0.8477520077,
				"z": -1.4035507628,
				"element": "O" 
			},
			{
				"x": 0.537143991,
				"y": 0.1526622581,
				"z": 0.4632784361,
				"element": "N" 
			},
			{
				"x": 0.1263161027,
				"y": 1.4725224413,
				"z": 0.1958898299,
				"element": "C" 
			},
			{
				"x": -1.1630955476,
				"y": 1.8281404343,
				"z": -0.2411585094,
				"element": "C" 
			},
			{
				"x": -1.4772321337,
				"y": 3.1502336088,
				"z": -0.5583148096,
				"element": "C" 
			},
			{
				"x": -0.5308796341,
				"y": 4.1552368454,
				"z": -0.3892688346,
				"element": "C" 
			},
			{
				"x": 0.7402028811,
				"y": 3.8274077419,
				"z": 0.0866150459,
				"element": "C" 
			},
			{
				"x": 1.0655203811,
				"y": 2.5010123788,
				"z": 0.3556184,
				"element": "C" 
			},
			{
				"x": -2.2783290148,
				"y": 0.8671621746,
				"z": -0.2961192937,
				"element": "N" 
			},
			{
				"x": -2.2970832554,
				"y": -0.0350781301,
				"z": 0.5381538114,
				"element": "O" 
			},
			{
				"x": -3.1547239577,
				"y": 1.0721121095,
				"z": -1.1315124691,
				"element": "O" 
			},
			{
				"x": 0.4602835745,
				"y": -3.2097660071,
				"z": -1.7744339436,
				"element": "H" 
			},
			{
				"x": 2.1500135255,
				"y": -2.7481542311,
				"z": -1.4983619787,
				"element": "H" 
			},
			{
				"x": 1.4816356341,
				"y": -4.1763802933,
				"z": -0.6771828298,
				"element": "H" 
			},
			{
				"x": -0.0572213853,
				"y": -2.7550918261,
				"z": 0.6447931056,
				"element": "H" 
			},
			{
				"x": 1.1912563619,
				"y": 0.0143825543,
				"z": 1.2221462648,
				"element": "H" 
			},
			{
				"x": -2.476662774,
				"y": 3.3655280375,
				"z": -0.9159602953,
				"element": "H" 
			},
			{
				"x": -0.7860698808,
				"y": 5.1837597143,
				"z": -0.6215554038,
				"element": "H" 
			},
			{
				"x": 1.4891937197,
				"y": 4.6005985876,
				"z": 0.226957495,
				"element": "H" 
			},
			{
				"x": 2.0701948927,
				"y": 2.2386284119,
				"z": 0.6743376376,
				"element": "H" 
			}
		],
		 "valence_orbital": [ 
			{
				"type": "occ",
				"energy": -0.30178,
				"method": "rhf"
			},
			{
				"type": "occ",
				"energy": -0.29644,
				"method": "rhf"
			},
			{
				"type": "occ",
				"energy": -0.27706,
				"method": "rhf"
			},
			{
				"type": "occ",
				"energy": -0.26959,
				"method": "rhf"
			},
			{
				"type": "occ",
				"energy": -0.25479,
				"method": "rhf"
			},
			{
				"type": "unocc",
				"energy": -0.08296,
				"method": "rhf"
			},
			{
				"type": "unocc",
				"energy": -0.03745,
				"method": "rhf"
			},
			{
				"type": "unocc",
				"energy": -0.01162,
				"method": "rhf"
			},
			{
				"type": "unocc",
				"energy": -0.00115,
				"method": "rhf"
			},
			{
				"type": "unocc",
				"energy": 0.01876,
				"method": "rhf"
			}
		],
		"cosmo_sigma_profile": { 
			"-0.025": 0.0,
			"-0.024": 0.0,
			"-0.023": 0.0,
			"-0.022": 0.0,
			"-0.021": 0.0,
			"-0.02": 0.0,
			"-0.019": 0.0,
			"-0.018": 0.0,
			"-0.017": 0.0,
			"-0.016": 0.0,
			"-0.015": 0.0,
			"-0.014": 0.695212542093,
			"-0.013": 0.886609542932,
			"-0.012": 1.3079667125,
			"-0.011": 0.742347622929,
			"-0.01": 1.45669925075,
			"-0.009": 3.43187993773,
			"-0.008": 6.45028676894,
			"-0.007": 11.3109736488,
			"-0.006": 13.65995928,
			"-0.005": 17.0032042262,
			"-0.004": 14.6949750645,
			"-0.003": 14.3606173222,
			"-0.002": 14.7483782588,
			"-0.001": 17.1096440625,
			"0.0": 16.3392659091,
			"0.001": 18.4685872122,
			"0.002": 17.3289275839,
			"0.003": 9.18067667558,
			"0.004": 10.4459017064,
			"0.005": 11.6759030254,
			"0.006": 8.97210594173,
			"0.007": 10.7982452865,
			"0.008": 8.78560708743,
			"0.009": 6.00846419342,
			"0.01": 4.42743191737,
			"0.011": 2.88434679175,
			"0.012": 1.95666283697,
			"0.013": 0.00930675868817,
			"0.014": 0.0,
			"0.015": 0.0,
			"0.016": 0.0,
			"0.017": 0.0,
			"0.018": 0.0,
			"0.019": 0.0,
			"0.02": 0.0,
			"0.021": 0.0,
			"0.022": 0.0,
			"0.023": 0.0,
			"0.024": 0.0,
			"0.025": 0.0
		}
	}
}
