{
	 "smiles": "CCOC(=O)C(=CNC1=CC(F)=CC(F)=C1)C#N", 
	 "Tm": 448.15, 
	 "num_atms": 28, 
	 "gaussian": { 
		 "optdone": 1, 
		 "sigma_profile": "yes", 
		 "theory": "DFT", 
		 "functional": "B3LYP", 
		 "basiset": "6-31G**", 
		 "properties": { 
			 "R2extent": 7244.9117, 
			 "electric_dipole_moment_norm": 3.69130530572, 
			 "electric_quadrupole_moment_norm": 21.6760743605, 
			 "total_energy": -922.922182867, 
			 "HOMO_LUMO_gap": 0.15931, 
			 "cosmo_polarized_energy": -15.54, 
			 "cosmo_cavitation_energy": 35.7, 
			 "cosmo_dispersion_energy": -24.68, 
			 "cosmo_repulsion_energy": 1.87, 
			 "cosmo_total_nonelectrostatic_energy": 12.89, 
			 "SMD_solvation_energy": 9.59 
		},
		"coords": [
			{
				"x": 4.0657555039,
				"y": 2.3409016915,
				"z": 1.7127398127,
				"element": "C" 
			},
			{
				"x": 4.131500214,
				"y": 0.9525349467,
				"z": 1.0957420564,
				"element": "C" 
			},
			{
				"x": 2.9376644487,
				"y": 0.1866412986,
				"z": 1.3992841028,
				"element": "O" 
			},
			{
				"x": 1.8849609731,
				"y": 0.3446040962,
				"z": 0.5870395224,
				"element": "C" 
			},
			{
				"x": 1.8855677106,
				"y": 1.0900634333,
				"z": -0.3943630079,
				"element": "O" 
			},
			{
				"x": 0.7286331753,
				"y": -0.469599496,
				"z": 0.9859138497,
				"element": "C" 
			},
			{
				"x": -0.4447804237,
				"y": -0.4359730497,
				"z": 0.2591686114,
				"element": "C" 
			},
			{
				"x": -0.6374801621,
				"y": 0.3119033988,
				"z": -0.8417091677,
				"element": "N" 
			},
			{
				"x": -1.7949789548,
				"y": 0.399270742,
				"z": -1.6281793748,
				"element": "C" 
			},
			{
				"x": -2.9622328375,
				"y": -0.3253286252,
				"z": -1.3451820065,
				"element": "C" 
			},
			{
				"x": -4.0558551282,
				"y": -0.1682842323,
				"z": -2.1872498084,
				"element": "C" 
			},
			{
				"x": -5.1723071309,
				"y": -0.8649744502,
				"z": -1.9117606901,
				"element": "F" 
			},
			{
				"x": -4.0544091773,
				"y": 0.6698983137,
				"z": -3.2962796357,
				"element": "C" 
			},
			{
				"x": -2.878286371,
				"y": 1.3695196678,
				"z": -3.5408258854,
				"element": "C" 
			},
			{
				"x": -2.8279710828,
				"y": 2.1930655203,
				"z": -4.6020237583,
				"element": "F" 
			},
			{
				"x": -1.7513844658,
				"y": 1.2568291742,
				"z": -2.7383939384,
				"element": "C" 
			},
			{
				"x": 0.7952089769,
				"y": -1.3101413821,
				"z": 2.1344827237,
				"element": "C" 
			},
			{
				"x": 0.8235427804,
				"y": -2.0042155775,
				"z": 3.0693341193,
				"element": "N" 
			},
			{
				"x": 3.2610059256,
				"y": 2.9269127505,
				"z": 1.2619657824,
				"element": "H" 
			},
			{
				"x": 5.01083427,
				"y": 2.8659889122,
				"z": 1.5391616706,
				"element": "H" 
			},
			{
				"x": 3.8995240309,
				"y": 2.2792658245,
				"z": 2.7918796535,
				"element": "H" 
			},
			{
				"x": 4.9413095396,
				"y": 0.3592336913,
				"z": 1.5251790209,
				"element": "H" 
			},
			{
				"x": 4.2511301306,
				"y": 1.0027551118,
				"z": 0.0112200704,
				"element": "H" 
			},
			{
				"x": -1.2730709799,
				"y": -1.0518992065,
				"z": 0.5902411191,
				"element": "H" 
			},
			{
				"x": 0.1807450432,
				"y": 0.8692204593,
				"z": -1.1035996699,
				"element": "H" 
			},
			{
				"x": -3.0519364678,
				"y": -0.9997749358,
				"z": -0.5036349069,
				"element": "H" 
			},
			{
				"x": -4.9225460338,
				"y": 0.7717395761,
				"z": -3.9343769526,
				"element": "H" 
			},
			{
				"x": -0.8614435072,
				"y": 1.8276423466,
				"z": -2.9785733129,
				"element": "H" 
			}
		],
		 "valence_orbital": [ 
			{
				"type": "occ",
				"energy": -0.31374,
				"method": "rhf"
			},
			{
				"type": "occ",
				"energy": -0.29404,
				"method": "rhf"
			},
			{
				"type": "occ",
				"energy": -0.28458,
				"method": "rhf"
			},
			{
				"type": "occ",
				"energy": -0.26737,
				"method": "rhf"
			},
			{
				"type": "occ",
				"energy": -0.2309,
				"method": "rhf"
			},
			{
				"type": "unocc",
				"energy": -0.07159,
				"method": "rhf"
			},
			{
				"type": "unocc",
				"energy": -0.02031,
				"method": "rhf"
			},
			{
				"type": "unocc",
				"energy": -0.0047,
				"method": "rhf"
			},
			{
				"type": "unocc",
				"energy": 0.02284,
				"method": "rhf"
			},
			{
				"type": "unocc",
				"energy": 0.03539,
				"method": "rhf"
			}
		],
		"cosmo_sigma_profile": { 
			"-0.025": 0.0,
			"-0.024": 0.0,
			"-0.023": 0.0,
			"-0.022": 0.0,
			"-0.021": 0.0,
			"-0.02": 0.0,
			"-0.019": 0.0,
			"-0.018": 0.0,
			"-0.017": 0.0,
			"-0.016": 0.0,
			"-0.015": 0.0,
			"-0.014": 0.0951228459759,
			"-0.013": 1.28684283243,
			"-0.012": 2.76378727697,
			"-0.011": 2.35989328866,
			"-0.01": 3.6343839545,
			"-0.009": 4.55869465175,
			"-0.008": 6.34687474633,
			"-0.007": 4.33327862376,
			"-0.006": 8.45657206483,
			"-0.005": 11.0201882321,
			"-0.004": 18.5389235905,
			"-0.003": 21.8978356675,
			"-0.002": 24.8538989471,
			"-0.001": 25.1709065408,
			"0.0": 33.4211128767,
			"0.001": 26.9383432874,
			"0.002": 13.844238562,
			"0.003": 15.6887258369,
			"0.004": 20.0180613754,
			"0.005": 4.55539051345,
			"0.006": 4.439200117,
			"0.007": 5.88264261229,
			"0.008": 6.12546042631,
			"0.009": 5.27887730853,
			"0.01": 4.86507238042,
			"0.011": 4.73483829089,
			"0.012": 3.02039110093,
			"0.013": 2.39981660612,
			"0.014": 0.952086227626,
			"0.015": 0.0,
			"0.016": 0.0,
			"0.017": 0.0,
			"0.018": 0.0,
			"0.019": 0.0,
			"0.02": 0.0,
			"0.021": 0.0,
			"0.022": 0.0,
			"0.023": 0.0,
			"0.024": 0.0,
			"0.025": 0.0
		}
	}
}
