{
	 "smiles": "ClC1=CC2=C(C=C1Cl)C1=C(O2)C(Cl)=C(Cl)C=C1", 
	 "Tm": 468.15, 
	 "num_atms": 21, 
	 "gaussian": { 
		 "optdone": 1, 
		 "sigma_profile": "yes", 
		 "theory": "DFT", 
		 "functional": "B3LYP", 
		 "basiset": "6-31G**", 
		 "properties": { 
			 "R2extent": 8320.7905, 
			 "electric_dipole_moment_norm": 1.86540756673, 
			 "electric_quadrupole_moment_norm": 14.3800223571, 
			 "total_energy": -2375.67732901, 
			 "HOMO_LUMO_gap": 0.17295, 
			 "cosmo_polarized_energy": -6.65, 
			 "cosmo_cavitation_energy": 33.3, 
			 "cosmo_dispersion_energy": -25.19, 
			 "cosmo_repulsion_energy": 1.92, 
			 "cosmo_total_nonelectrostatic_energy": 10.03, 
			 "SMD_solvation_energy": 4.51 
		},
		"coords": [
			{
				"x": 4.4282834653,
				"y": 3.757276442,
				"z": 1.0175469181,
				"element": "Cl" 
			},
			{
				"x": 3.0569789811,
				"y": 2.8548789652,
				"z": 0.4273860007,
				"element": "C" 
			},
			{
				"x": 2.3881511751,
				"y": 2.0170948151,
				"z": 1.3229585199,
				"element": "C" 
			},
			{
				"x": 1.3032950135,
				"y": 1.3116174413,
				"z": 0.8308701168,
				"element": "C" 
			},
			{
				"x": 0.8599000863,
				"y": 1.4029811973,
				"z": -0.5003325346,
				"element": "C" 
			},
			{
				"x": 1.5383751529,
				"y": 2.2444979657,
				"z": -1.3839099748,
				"element": "C" 
			},
			{
				"x": 2.6350067376,
				"y": 2.9676034355,
				"z": -0.9161723201,
				"element": "C" 
			},
			{
				"x": 3.4734470415,
				"y": 4.016430638,
				"z": -2.0346949051,
				"element": "Cl" 
			},
			{
				"x": -0.2839062213,
				"y": 0.5144520768,
				"z": -0.5883214458,
				"element": "C" 
			},
			{
				"x": -0.4216909863,
				"y": -0.0296786554,
				"z": 0.7020591951,
				"element": "C" 
			},
			{
				"x": 0.5304959865,
				"y": 0.444350024,
				"z": 1.5659393463,
				"element": "O" 
			},
			{
				"x": -1.4166998124,
				"y": -0.9427623071,
				"z": 1.0425804056,
				"element": "C" 
			},
			{
				"x": -1.5121539179,
				"y": -1.5626353545,
				"z": 2.6595719319,
				"element": "Cl" 
			},
			{
				"x": -2.3035401042,
				"y": -1.3111323235,
				"z": 0.020274538,
				"element": "C" 
			},
			{
				"x": -3.5884076088,
				"y": -2.4481531574,
				"z": 0.3352794768,
				"element": "Cl" 
			},
			{
				"x": -2.1833968091,
				"y": -0.7794032183,
				"z": -1.2754243262,
				"element": "C" 
			},
			{
				"x": -1.1809609279,
				"y": 0.1309581002,
				"z": -1.5901047993,
				"element": "C" 
			},
			{
				"x": 2.7093944684,
				"y": 1.9287863954,
				"z": 2.3532294943,
				"element": "H" 
			},
			{
				"x": 1.2337030488,
				"y": 2.3477858754,
				"z": -2.4190548912,
				"element": "H" 
			},
			{
				"x": -2.894220435,
				"y": -1.0965858874,
				"z": -2.029583155,
				"element": "H" 
			},
			{
				"x": -1.1042543341,
				"y": 0.5304375317,
				"z": -2.5958975912,
				"element": "H" 
			}
		],
		 "valence_orbital": [ 
			{
				"type": "occ",
				"energy": -0.31697,
				"method": "rhf"
			},
			{
				"type": "occ",
				"energy": -0.29147,
				"method": "rhf"
			},
			{
				"type": "occ",
				"energy": -0.27265,
				"method": "rhf"
			},
			{
				"type": "occ",
				"energy": -0.25058,
				"method": "rhf"
			},
			{
				"type": "occ",
				"energy": -0.23981,
				"method": "rhf"
			},
			{
				"type": "unocc",
				"energy": -0.06686,
				"method": "rhf"
			},
			{
				"type": "unocc",
				"energy": -0.03218,
				"method": "rhf"
			},
			{
				"type": "unocc",
				"energy": -0.01907,
				"method": "rhf"
			},
			{
				"type": "unocc",
				"energy": -0.00939,
				"method": "rhf"
			},
			{
				"type": "unocc",
				"energy": -0.00698,
				"method": "rhf"
			}
		],
		"cosmo_sigma_profile": { 
			"-0.025": 0.0,
			"-0.024": 0.0,
			"-0.023": 0.0,
			"-0.022": 0.0,
			"-0.021": 0.0,
			"-0.02": 0.0,
			"-0.019": 0.0,
			"-0.018": 0.0,
			"-0.017": 0.0,
			"-0.016": 0.0,
			"-0.015": 0.0,
			"-0.014": 0.0,
			"-0.013": 0.0,
			"-0.012": 0.0,
			"-0.011": 0.0,
			"-0.01": 0.376760787348,
			"-0.009": 2.89628673197,
			"-0.008": 7.9478329105,
			"-0.007": 7.5566077229,
			"-0.006": 7.12965210161,
			"-0.005": 5.92542201313,
			"-0.004": 7.64908104332,
			"-0.003": 14.0253284085,
			"-0.002": 17.6939657858,
			"-0.001": 32.1980819419,
			"0.0": 43.3047979218,
			"0.001": 33.9925025158,
			"0.002": 27.1725577127,
			"0.003": 30.6283802801,
			"0.004": 28.8919345964,
			"0.005": 8.17748018997,
			"0.006": 2.3611357157,
			"0.007": 1.02906711113,
			"0.008": 0.0150869282506,
			"0.009": 0.0,
			"0.01": 0.0,
			"0.011": 0.0,
			"0.012": 0.0,
			"0.013": 0.0,
			"0.014": 0.0,
			"0.015": 0.0,
			"0.016": 0.0,
			"0.017": 0.0,
			"0.018": 0.0,
			"0.019": 0.0,
			"0.02": 0.0,
			"0.021": 0.0,
			"0.022": 0.0,
			"0.023": 0.0,
			"0.024": 0.0,
			"0.025": 0.0
		}
	}
}
