{
	 "smiles": "CC(C)(C)OC(=O)N1CCN(CC2=CC=C(CO)C=C2)CC1", 
	 "Tm": 325.65, 
	 "num_atms": 48, 
	 "gaussian": { 
		 "optdone": 1, 
		 "sigma_profile": "yes", 
		 "theory": "DFT", 
		 "functional": "B3LYP", 
		 "basiset": "6-31G**", 
		 "properties": { 
			 "R2extent": 11511.1633, 
			 "electric_dipole_moment_norm": 3.2282204649, 
			 "electric_quadrupole_moment_norm": 12.6223904234, 
			 "total_energy": -998.667192605, 
			 "HOMO_LUMO_gap": 0.21109, 
			 "cosmo_polarized_energy": -15.09, 
			 "cosmo_cavitation_energy": 48.22, 
			 "cosmo_dispersion_energy": -33.18, 
			 "cosmo_repulsion_energy": 2.58, 
			 "cosmo_total_nonelectrostatic_energy": 17.62, 
			 "SMD_solvation_energy": 7.09 
		},
		"coords": [
			{
				"x": -0.4927100171,
				"y": -3.161984,
				"z": 3.1853747074,
				"element": "C" 
			},
			{
				"x": -1.5468154917,
				"y": -3.3534019772,
				"z": 2.0910776481,
				"element": "C" 
			},
			{
				"x": -2.9127054242,
				"y": -3.6790979186,
				"z": 2.705744762,
				"element": "C" 
			},
			{
				"x": -1.095485357,
				"y": -4.4170503376,
				"z": 1.0839886504,
				"element": "C" 
			},
			{
				"x": -1.584136863,
				"y": -2.0320663156,
				"z": 1.4502377317,
				"element": "O" 
			},
			{
				"x": -2.4108789087,
				"y": -1.7907230167,
				"z": 0.4005066234,
				"element": "C" 
			},
			{
				"x": -3.1905426071,
				"y": -2.5971047216,
				"z": -0.0918290766,
				"element": "O" 
			},
			{
				"x": -2.2562282974,
				"y": -0.5034673677,
				"z": -0.0353068799,
				"element": "N" 
			},
			{
				"x": -1.3059943314,
				"y": 0.441187516,
				"z": 0.5604504304,
				"element": "C" 
			},
			{
				"x": -1.1254806681,
				"y": 1.6432879253,
				"z": -0.3749073309,
				"element": "C" 
			},
			{
				"x": -0.9618503667,
				"y": 1.1597476146,
				"z": -1.7410220313,
				"element": "N" 
			},
			{
				"x": -0.3837517156,
				"y": 2.1305317614,
				"z": -2.6648213982,
				"element": "C" 
			},
			{
				"x": 1.056742593,
				"y": 2.4826916901,
				"z": -2.345618072,
				"element": "C" 
			},
			{
				"x": 1.4981717433,
				"y": 3.8084208534,
				"z": -2.3735311981,
				"element": "C" 
			},
			{
				"x": 2.8355022313,
				"y": 4.1304566377,
				"z": -2.1284413187,
				"element": "C" 
			},
			{
				"x": 3.7622797955,
				"y": 3.1250144598,
				"z": -1.8461897487,
				"element": "C" 
			},
			{
				"x": 5.2082399825,
				"y": 3.4480641651,
				"z": -1.5410970028,
				"element": "C" 
			},
			{
				"x": 5.5067993324,
				"y": 4.7710461584,
				"z": -1.960867353,
				"element": "O" 
			},
			{
				"x": 3.3233201124,
				"y": 1.7940805363,
				"z": -1.8154271213,
				"element": "C" 
			},
			{
				"x": 1.9903918083,
				"y": 1.4759692049,
				"z": -2.058731455,
				"element": "C" 
			},
			{
				"x": -2.1960188561,
				"y": 0.5602578115,
				"z": -2.2687281483,
				"element": "C" 
			},
			{
				"x": -3.0701299015,
				"y": -0.0149075245,
				"z": -1.1378944689,
				"element": "C" 
			},
			{
				"x": -0.3666632461,
				"y": -4.0888161848,
				"z": 3.7530261085,
				"element": "H" 
			},
			{
				"x": -0.7940413834,
				"y": -2.3699287834,
				"z": 3.8771876976,
				"element": "H" 
			},
			{
				"x": 0.4725075339,
				"y": -2.8891442517,
				"z": 2.748566962,
				"element": "H" 
			},
			{
				"x": -2.8467145396,
				"y": -4.6110150636,
				"z": 3.2769158693,
				"element": "H" 
			},
			{
				"x": -3.6707062502,
				"y": -3.7910475783,
				"z": 1.9305010708,
				"element": "H" 
			},
			{
				"x": -3.2196746273,
				"y": -2.8821771225,
				"z": 3.3907729026,
				"element": "H" 
			},
			{
				"x": -1.8341187216,
				"y": -4.540684907,
				"z": 0.29197262,
				"element": "H" 
			},
			{
				"x": -0.9591520764,
				"y": -5.3750066905,
				"z": 1.5966433367,
				"element": "H" 
			},
			{
				"x": -0.1379961,
				"y": -4.1325487872,
				"z": 0.6358412539,
				"element": "H" 
			},
			{
				"x": -1.6476140947,
				"y": 0.7766205323,
				"z": 1.5497737027,
				"element": "H" 
			},
			{
				"x": -0.3455115799,
				"y": -0.0620543967,
				"z": 0.693528702,
				"element": "H" 
			},
			{
				"x": -1.9660946658,
				"y": 2.3568337801,
				"z": -0.2723118891,
				"element": "H" 
			},
			{
				"x": -0.2209278651,
				"y": 2.1808377586,
				"z": -0.0787290409,
				"element": "H" 
			},
			{
				"x": -0.9847908117,
				"y": 3.0595450128,
				"z": -2.724649998,
				"element": "H" 
			},
			{
				"x": -0.4278176189,
				"y": 1.6787310926,
				"z": -3.6655033369,
				"element": "H" 
			},
			{
				"x": 0.7883470849,
				"y": 4.6035099143,
				"z": -2.5911731533,
				"element": "H" 
			},
			{
				"x": 3.1686428521,
				"y": 5.1616823091,
				"z": -2.1568165085,
				"element": "H" 
			},
			{
				"x": 5.3820013665,
				"y": 3.332108443,
				"z": -0.4573130666,
				"element": "H" 
			},
			{
				"x": 5.8566037927,
				"y": 2.7119139133,
				"z": -2.0444462779,
				"element": "H" 
			},
			{
				"x": 6.3929598818,
				"y": 4.9895353553,
				"z": -1.649520762,
				"element": "H" 
			},
			{
				"x": 4.0338330159,
				"y": 0.9974336038,
				"z": -1.6030608028,
				"element": "H" 
			},
			{
				"x": 1.6558371197,
				"y": 0.4434074047,
				"z": -2.0239895951,
				"element": "H" 
			},
			{
				"x": -2.8078634337,
				"y": 1.2980669251,
				"z": -2.8208929976,
				"element": "H" 
			},
			{
				"x": -1.9201606357,
				"y": -0.2278089214,
				"z": -2.9807700756,
				"element": "H" 
			},
			{
				"x": -3.7582158036,
				"y": 0.7581504496,
				"z": -0.7693869831,
				"element": "H" 
			},
			{
				"x": -3.6746879871,
				"y": -0.8469969624,
				"z": -1.4975336882,
				"element": "H" 
			}
		],
		 "valence_orbital": [ 
			{
				"type": "occ",
				"energy": -0.25285,
				"method": "rhf"
			},
			{
				"type": "occ",
				"energy": -0.2443,
				"method": "rhf"
			},
			{
				"type": "occ",
				"energy": -0.23207,
				"method": "rhf"
			},
			{
				"type": "occ",
				"energy": -0.22899,
				"method": "rhf"
			},
			{
				"type": "occ",
				"energy": -0.21043,
				"method": "rhf"
			},
			{
				"type": "unocc",
				"energy": 0.00066,
				"method": "rhf"
			},
			{
				"type": "unocc",
				"energy": 0.00328,
				"method": "rhf"
			},
			{
				"type": "unocc",
				"energy": 0.06091,
				"method": "rhf"
			},
			{
				"type": "unocc",
				"energy": 0.07237,
				"method": "rhf"
			},
			{
				"type": "unocc",
				"energy": 0.08504,
				"method": "rhf"
			}
		],
		"cosmo_sigma_profile": { 
			"-0.025": 0.0,
			"-0.024": 0.0,
			"-0.023": 0.0,
			"-0.022": 0.0,
			"-0.021": 0.0,
			"-0.02": 0.0,
			"-0.019": 0.0,
			"-0.018": 0.0,
			"-0.017": 0.0,
			"-0.016": 0.646116746842,
			"-0.015": 1.0952330148,
			"-0.014": 0.96639473925,
			"-0.013": 1.1627656064,
			"-0.012": 0.849513688103,
			"-0.011": 0.608402992752,
			"-0.01": 0.846071448362,
			"-0.009": 1.32854155138,
			"-0.008": 0.897140867167,
			"-0.007": 0.553174949004,
			"-0.006": 1.53197319107,
			"-0.005": 9.66690694054,
			"-0.004": 38.192475551,
			"-0.003": 57.5654238819,
			"-0.002": 47.8095493988,
			"-0.001": 36.8098177375,
			"0.0": 37.2562191797,
			"0.001": 34.8705265788,
			"0.002": 15.3478951459,
			"0.003": 14.8025389999,
			"0.004": 13.808451304,
			"0.005": 13.9928534743,
			"0.006": 13.9824769221,
			"0.007": 7.04150444834,
			"0.008": 4.22988864769,
			"0.009": 4.11412033773,
			"0.01": 3.67889836354,
			"0.011": 3.02623948544,
			"0.012": 2.85239148005,
			"0.013": 3.42641538832,
			"0.014": 2.50339554129,
			"0.015": 0.0,
			"0.016": 0.0,
			"0.017": 0.0,
			"0.018": 0.0,
			"0.019": 0.0,
			"0.02": 0.0,
			"0.021": 0.0,
			"0.022": 0.0,
			"0.023": 0.0,
			"0.024": 0.0,
			"0.025": 0.0
		}
	}
}
