{
	 "smiles": "OC(=O)C1=CC(CN2C=CN=C2)=CC=C1", 
	 "Tm": 483.15, 
	 "num_atms": 25, 
	 "gaussian": { 
		 "optdone": 1, 
		 "sigma_profile": "yes", 
		 "theory": "DFT", 
		 "functional": "B3LYP", 
		 "basiset": "6-31G**", 
		 "properties": { 
			 "R2extent": 4283.3848, 
			 "electric_dipole_moment_norm": 3.0881021259, 
			 "electric_quadrupole_moment_norm": 35.7277852955, 
			 "total_energy": -685.145029783, 
			 "HOMO_LUMO_gap": 0.16916, 
			 "cosmo_polarized_energy": -21.72, 
			 "cosmo_cavitation_energy": 29.99, 
			 "cosmo_dispersion_energy": -21.42, 
			 "cosmo_repulsion_energy": 1.66, 
			 "cosmo_total_nonelectrostatic_energy": 10.23, 
			 "SMD_solvation_energy": 5.23 
		},
		"coords": [
			{
				"x": 1.8104375886,
				"y": -3.232314743,
				"z": 2.0053485066,
				"element": "O" 
			},
			{
				"x": 0.7415117572,
				"y": -2.7231517816,
				"z": 1.3379395622,
				"element": "C" 
			},
			{
				"x": -0.2310462033,
				"y": -3.4124281268,
				"z": 1.1388367499,
				"element": "O" 
			},
			{
				"x": 0.8438262227,
				"y": -1.2967053771,
				"z": 0.8828830644,
				"element": "C" 
			},
			{
				"x": -0.3507704603,
				"y": -0.6344721726,
				"z": 0.5708977281,
				"element": "C" 
			},
			{
				"x": -0.3441937718,
				"y": 0.6903655291,
				"z": 0.1357977725,
				"element": "C" 
			},
			{
				"x": -1.6613704005,
				"y": 1.4012893026,
				"z": -0.1332585341,
				"element": "C" 
			},
			{
				"x": -1.6123089848,
				"y": 2.3429384101,
				"z": -1.2414610575,
				"element": "N" 
			},
			{
				"x": -1.4537756105,
				"y": 2.0407997225,
				"z": -2.5816107812,
				"element": "C" 
			},
			{
				"x": -1.4402077868,
				"y": 3.2498300151,
				"z": -3.2316527534,
				"element": "C" 
			},
			{
				"x": -1.5828618299,
				"y": 4.2873117434,
				"z": -2.336975496,
				"element": "N" 
			},
			{
				"x": -1.6815011425,
				"y": 3.709658766,
				"z": -1.1598961177,
				"element": "C" 
			},
			{
				"x": 0.8829036273,
				"y": 1.3517506557,
				"z": -0.0123572458,
				"element": "C" 
			},
			{
				"x": 2.0783998462,
				"y": 0.6929816419,
				"z": 0.2700482175,
				"element": "C" 
			},
			{
				"x": 2.0637001267,
				"y": -0.6277657749,
				"z": 0.7197645009,
				"element": "C" 
			},
			{
				"x": 2.4343927061,
				"y": -2.5277108354,
				"z": 2.2278348991,
				"element": "H" 
			},
			{
				"x": -1.2806635036,
				"y": -1.1855781645,
				"z": 0.6755222456,
				"element": "H" 
			},
			{
				"x": -1.9680260718,
				"y": 1.969389615,
				"z": 0.7525764699,
				"element": "H" 
			},
			{
				"x": -2.4477986978,
				"y": 0.6623107259,
				"z": -0.3196646737,
				"element": "H" 
			},
			{
				"x": -1.3654324762,
				"y": 1.0225066689,
				"z": -2.9284744808,
				"element": "H" 
			},
			{
				"x": -1.339781439,
				"y": 3.4308597708,
				"z": -4.2930255334,
				"element": "H" 
			},
			{
				"x": -1.8141665664,
				"y": 4.2149743938,
				"z": -0.2117401309,
				"element": "H" 
			},
			{
				"x": 0.9006188951,
				"y": 2.3779676121,
				"z": -0.36710916,
				"element": "H" 
			},
			{
				"x": 3.0246884364,
				"y": 1.2065253712,
				"z": 0.1305692391,
				"element": "H" 
			},
			{
				"x": 3.0088257387,
				"y": -1.1361329681,
				"z": 0.8948070089,
				"element": "H" 
			}
		],
		 "valence_orbital": [ 
			{
				"type": "occ",
				"energy": -0.28252,
				"method": "rhf"
			},
			{
				"type": "occ",
				"energy": -0.27408,
				"method": "rhf"
			},
			{
				"type": "occ",
				"energy": -0.26816,
				"method": "rhf"
			},
			{
				"type": "occ",
				"energy": -0.2659,
				"method": "rhf"
			},
			{
				"type": "occ",
				"energy": -0.23019,
				"method": "rhf"
			},
			{
				"type": "unocc",
				"energy": -0.06103,
				"method": "rhf"
			},
			{
				"type": "unocc",
				"energy": -0.03346,
				"method": "rhf"
			},
			{
				"type": "unocc",
				"energy": 0.0211,
				"method": "rhf"
			},
			{
				"type": "unocc",
				"energy": 0.03599,
				"method": "rhf"
			},
			{
				"type": "unocc",
				"energy": 0.0538,
				"method": "rhf"
			}
		],
		"cosmo_sigma_profile": { 
			"-0.025": 0.0,
			"-0.024": 0.0,
			"-0.023": 0.0,
			"-0.022": 0.0,
			"-0.021": 0.0,
			"-0.02": 0.0,
			"-0.019": 0.0448141478234,
			"-0.018": 1.22411125685,
			"-0.017": 0.806528545229,
			"-0.016": 0.76369357086,
			"-0.015": 1.12025026636,
			"-0.014": 1.164148091,
			"-0.013": 1.27202019515,
			"-0.012": 0.84794545124,
			"-0.011": 1.09580797079,
			"-0.01": 1.31746327174,
			"-0.009": 4.15281309161,
			"-0.008": 8.56576278249,
			"-0.007": 13.6157660818,
			"-0.006": 16.8809727564,
			"-0.005": 16.0859600059,
			"-0.004": 14.1190114053,
			"-0.003": 14.1425403082,
			"-0.002": 12.6435174033,
			"-0.001": 11.0882703655,
			"0.0": 11.5587653846,
			"0.001": 12.4884653174,
			"0.002": 16.0507726989,
			"0.003": 16.3382336943,
			"0.004": 7.75380135232,
			"0.005": 7.52526519337,
			"0.006": 5.85971846839,
			"0.007": 5.19916808475,
			"0.008": 4.32155468648,
			"0.009": 5.14331169275,
			"0.01": 6.72068241679,
			"0.011": 6.0001637078,
			"0.012": 5.97126346227,
			"0.013": 2.64544839867,
			"0.014": 1.39685141244,
			"0.015": 0.946187780634,
			"0.016": 1.46349591012,
			"0.017": 1.00705105881,
			"0.018": 0.984957875041,
			"0.019": 0.072446355712,
			"0.02": 0.0,
			"0.021": 0.0,
			"0.022": 0.0,
			"0.023": 0.0,
			"0.024": 0.0,
			"0.025": 0.0
		}
	}
}
