{
	 "smiles": "OC(=O)C=CC1=C(F)C=C(F)C=C1", 
	 "Tm": 489.15, 
	 "num_atms": 19, 
	 "gaussian": { 
		 "optdone": 1, 
		 "sigma_profile": "yes", 
		 "theory": "DFT", 
		 "functional": "B3LYP", 
		 "basiset": "6-31G**", 
		 "properties": { 
			 "R2extent": 3733.1519, 
			 "electric_dipole_moment_norm": 5.4065861077, 
			 "electric_quadrupole_moment_norm": 23.6257973171, 
			 "total_energy": -696.67883531, 
			 "HOMO_LUMO_gap": 0.17258, 
			 "cosmo_polarized_energy": -15.72, 
			 "cosmo_cavitation_energy": 25.46, 
			 "cosmo_dispersion_energy": -18.37, 
			 "cosmo_repulsion_energy": 1.4, 
			 "cosmo_total_nonelectrostatic_energy": 8.49, 
			 "SMD_solvation_energy": 6.64 
		},
		"coords": [
			{
				"x": 2.2161356889,
				"y": -3.322204446,
				"z": 1.3661702294,
				"element": "O" 
			},
			{
				"x": 3.0323675359,
				"y": -2.5067107468,
				"z": 0.6369166116,
				"element": "C" 
			},
			{
				"x": 4.231812332,
				"y": -2.6480593343,
				"z": 0.6877850564,
				"element": "O" 
			},
			{
				"x": 2.3878614608,
				"y": -1.4512844274,
				"z": -0.1882928411,
				"element": "C" 
			},
			{
				"x": 1.185624983,
				"y": -0.9117266809,
				"z": 0.0957978118,
				"element": "C" 
			},
			{
				"x": 0.4743045027,
				"y": 0.1705109763,
				"z": -0.5827865211,
				"element": "C" 
			},
			{
				"x": 0.9081166048,
				"y": 0.8089908943,
				"z": -1.7593945072,
				"element": "C" 
			},
			{
				"x": 2.0620326759,
				"y": 0.4251789196,
				"z": -2.3391971914,
				"element": "F" 
			},
			{
				"x": 0.200389213,
				"y": 1.8308511939,
				"z": -2.374193711,
				"element": "C" 
			},
			{
				"x": -0.9956296485,
				"y": 2.2370489695,
				"z": -1.79243319,
				"element": "C" 
			},
			{
				"x": -1.692601024,
				"y": 3.2253349229,
				"z": -2.3759356633,
				"element": "F" 
			},
			{
				"x": -1.4865606504,
				"y": 1.6496939518,
				"z": -0.6305260246,
				"element": "C" 
			},
			{
				"x": -0.7467600123,
				"y": 0.6278728147,
				"z": -0.0463204236,
				"element": "C" 
			},
			{
				"x": 1.3019850488,
				"y": -3.2205167525,
				"z": 1.0673216371,
				"element": "H" 
			},
			{
				"x": 3.0091804413,
				"y": -1.0772213559,
				"z": -0.9905908792,
				"element": "H" 
			},
			{
				"x": 0.650444369,
				"y": -1.2863743996,
				"z": 0.9692971923,
				"element": "H" 
			},
			{
				"x": 0.5730423273,
				"y": 2.2932754668,
				"z": -3.2798923104,
				"element": "H" 
			},
			{
				"x": -2.4228521561,
				"y": 1.9925438164,
				"z": -0.2060341693,
				"element": "H" 
			},
			{
				"x": -1.1173936923,
				"y": 0.1615962172,
				"z": 0.8620088937,
				"element": "H" 
			}
		],
		 "valence_orbital": [ 
			{
				"type": "occ",
				"energy": -0.32745,
				"method": "rhf"
			},
			{
				"type": "occ",
				"energy": -0.31161,
				"method": "rhf"
			},
			{
				"type": "occ",
				"energy": -0.28066,
				"method": "rhf"
			},
			{
				"type": "occ",
				"energy": -0.27141,
				"method": "rhf"
			},
			{
				"type": "occ",
				"energy": -0.24836,
				"method": "rhf"
			},
			{
				"type": "unocc",
				"energy": -0.07578,
				"method": "rhf"
			},
			{
				"type": "unocc",
				"energy": -0.03229,
				"method": "rhf"
			},
			{
				"type": "unocc",
				"energy": 0.00627,
				"method": "rhf"
			},
			{
				"type": "unocc",
				"energy": 0.05728,
				"method": "rhf"
			},
			{
				"type": "unocc",
				"energy": 0.06101,
				"method": "rhf"
			}
		],
		"cosmo_sigma_profile": { 
			"-0.025": 0.0,
			"-0.024": 0.0,
			"-0.023": 0.0,
			"-0.022": 0.0,
			"-0.021": 0.0,
			"-0.02": 0.0,
			"-0.019": 0.096834266051,
			"-0.018": 0.885761073131,
			"-0.017": 1.28291295811,
			"-0.016": 0.681462137065,
			"-0.015": 0.742466825712,
			"-0.014": 0.932010032606,
			"-0.013": 1.30195323365,
			"-0.012": 1.15610505188,
			"-0.011": 1.1295397792,
			"-0.01": 1.79340690349,
			"-0.009": 4.2326085639,
			"-0.008": 6.01775174828,
			"-0.007": 7.03082456589,
			"-0.006": 8.16075782286,
			"-0.005": 6.37539091965,
			"-0.004": 7.41774190958,
			"-0.003": 7.03214307693,
			"-0.002": 12.2115401593,
			"-0.001": 19.6331982308,
			"0.0": 24.7810363174,
			"0.001": 21.4777007222,
			"0.002": 14.4717032977,
			"0.003": 15.9128769254,
			"0.004": 8.92753198839,
			"0.005": 2.09003517048,
			"0.006": 2.02742703361,
			"0.007": 2.74245986065,
			"0.008": 2.72765237461,
			"0.009": 2.67110668703,
			"0.01": 4.87739176813,
			"0.011": 4.77947273026,
			"0.012": 6.21454710023,
			"0.013": 3.18253759516,
			"0.014": 0.278946495652,
			"0.015": 0.0,
			"0.016": 0.0,
			"0.017": 0.0,
			"0.018": 0.0,
			"0.019": 0.0,
			"0.02": 0.0,
			"0.021": 0.0,
			"0.022": 0.0,
			"0.023": 0.0,
			"0.024": 0.0,
			"0.025": 0.0
		}
	}
}
