{
	 "smiles": "OC(=O)CC1NCCC2=C1C=CC=C2", 
	 "Tm": 523.15, 
	 "num_atms": 27, 
	 "gaussian": { 
		 "optdone": 1, 
		 "sigma_profile": "yes", 
		 "theory": "DFT", 
		 "functional": "B3LYP", 
		 "basiset": "6-31G**", 
		 "properties": { 
			 "R2extent": 3351.8897, 
			 "electric_dipole_moment_norm": 6.82928550728, 
			 "electric_quadrupole_moment_norm": 28.5667774233, 
			 "total_energy": -632.221824887, 
			 "HOMO_LUMO_gap": 0.22362, 
			 "cosmo_polarized_energy": -16.6, 
			 "cosmo_cavitation_energy": 28.82, 
			 "cosmo_dispersion_energy": -21.14, 
			 "cosmo_repulsion_energy": 1.66, 
			 "cosmo_total_nonelectrostatic_energy": 9.33, 
			 "SMD_solvation_energy": 5.38 
		},
		"coords": [
			{
				"x": -1.6576773867,
				"y": -2.9434705612,
				"z": -1.6149097853,
				"element": "O" 
			},
			{
				"x": -0.6077179025,
				"y": -3.1386059521,
				"z": -0.8032016299,
				"element": "C" 
			},
			{
				"x": -0.3983259214,
				"y": -4.1984171008,
				"z": -0.2578341757,
				"element": "O" 
			},
			{
				"x": 0.3347681877,
				"y": -1.9375519439,
				"z": -0.6510682297,
				"element": "C" 
			},
			{
				"x": -0.351403236,
				"y": -0.5522532565,
				"z": -0.4990388778,
				"element": "C" 
			},
			{
				"x": -1.282820345,
				"y": -0.2994108034,
				"z": -1.6453712317,
				"element": "N" 
			},
			{
				"x": -0.8169025205,
				"y": 0.5987025269,
				"z": -2.7327413041,
				"element": "C" 
			},
			{
				"x": 0.7123817488,
				"y": 0.6842169592,
				"z": -2.8002823151,
				"element": "C" 
			},
			{
				"x": 1.2554210339,
				"y": 1.1186467041,
				"z": -1.4605174254,
				"element": "C" 
			},
			{
				"x": 0.6869521888,
				"y": 0.5370929603,
				"z": -0.3147106662,
				"element": "C" 
			},
			{
				"x": 1.1184674616,
				"y": 0.9371067334,
				"z": 0.9532562145,
				"element": "C" 
			},
			{
				"x": 2.116671221,
				"y": 1.9029790338,
				"z": 1.0883673831,
				"element": "C" 
			},
			{
				"x": 2.6825722489,
				"y": 2.4811831941,
				"z": -0.0494493527,
				"element": "C" 
			},
			{
				"x": 2.2457975232,
				"y": 2.0941759158,
				"z": -1.3174017495,
				"element": "C" 
			},
			{
				"x": -1.6522637331,
				"y": -1.9805675803,
				"z": -1.8854706573,
				"element": "H" 
			},
			{
				"x": 0.995847363,
				"y": -1.9221828421,
				"z": -1.5264467598,
				"element": "H" 
			},
			{
				"x": 0.9658820993,
				"y": -2.1303309787,
				"z": 0.2186156832,
				"element": "H" 
			},
			{
				"x": -0.976251362,
				"y": -0.6002309693,
				"z": 0.3998516234,
				"element": "H" 
			},
			{
				"x": -2.1469472951,
				"y": 0.0795472,
				"z": -1.2716912405,
				"element": "H" 
			},
			{
				"x": -1.205954368,
				"y": 1.614369963,
				"z": -2.5802671279,
				"element": "H" 
			},
			{
				"x": -1.2206517239,
				"y": 0.2324765057,
				"z": -3.6832391788,
				"element": "H" 
			},
			{
				"x": 1.1226045913,
				"y": -0.2910441114,
				"z": -3.0950979876,
				"element": "H" 
			},
			{
				"x": 0.99842349,
				"y": 1.3907429669,
				"z": -3.5858671855,
				"element": "H" 
			},
			{
				"x": 0.6734036706,
				"y": 0.4889727009,
				"z": 1.8387225475,
				"element": "H" 
			},
			{
				"x": 2.4469181399,
				"y": 2.2065813431,
				"z": 2.0774191612,
				"element": "H" 
			},
			{
				"x": 3.4556208163,
				"y": 3.237556597,
				"z": 0.0499891161,
				"element": "H" 
			},
			{
				"x": 2.6756840098,
				"y": 2.5535147954,
				"z": -2.2043148483,
				"element": "H" 
			}
		],
		 "valence_orbital": [ 
			{
				"type": "occ",
				"energy": -0.28477,
				"method": "rhf"
			},
			{
				"type": "occ",
				"energy": -0.26221,
				"method": "rhf"
			},
			{
				"type": "occ",
				"energy": -0.25866,
				"method": "rhf"
			},
			{
				"type": "occ",
				"energy": -0.25608,
				"method": "rhf"
			},
			{
				"type": "occ",
				"energy": -0.23939,
				"method": "rhf"
			},
			{
				"type": "unocc",
				"energy": -0.01577,
				"method": "rhf"
			},
			{
				"type": "unocc",
				"energy": -0.01413,
				"method": "rhf"
			},
			{
				"type": "unocc",
				"energy": 0.03095,
				"method": "rhf"
			},
			{
				"type": "unocc",
				"energy": 0.05376,
				"method": "rhf"
			},
			{
				"type": "unocc",
				"energy": 0.08648,
				"method": "rhf"
			}
		],
		"cosmo_sigma_profile": { 
			"-0.025": 0.0,
			"-0.024": 0.0,
			"-0.023": 0.0,
			"-0.022": 0.0,
			"-0.021": 0.0,
			"-0.02": 0.0,
			"-0.019": 0.0,
			"-0.018": 0.0,
			"-0.017": 0.0,
			"-0.016": 0.0,
			"-0.015": 0.0,
			"-0.014": 0.0,
			"-0.013": 0.0718562743141,
			"-0.012": 1.64954820604,
			"-0.011": 1.89064239727,
			"-0.01": 1.2408740468,
			"-0.009": 1.91042411092,
			"-0.008": 2.13690091159,
			"-0.007": 4.44439106842,
			"-0.006": 13.3756242987,
			"-0.005": 19.016619619,
			"-0.004": 24.8231637775,
			"-0.003": 26.3608410167,
			"-0.002": 22.0491119234,
			"-0.001": 16.1226480031,
			"0.0": 8.58315956947,
			"0.001": 8.48865009638,
			"0.002": 8.2359617378,
			"0.003": 9.20809157419,
			"0.004": 8.41487094226,
			"0.005": 8.97789923855,
			"0.006": 9.09337159654,
			"0.007": 3.09345162959,
			"0.008": 2.09884530038,
			"0.009": 2.15072820717,
			"0.01": 3.45134221825,
			"0.011": 3.55299329307,
			"0.012": 6.46544225319,
			"0.013": 6.94702170067,
			"0.014": 2.84872385999,
			"0.015": 0.40954091278,
			"0.016": 0.0,
			"0.017": 0.0,
			"0.018": 0.0,
			"0.019": 0.0,
			"0.02": 0.0,
			"0.021": 0.0,
			"0.022": 0.0,
			"0.023": 0.0,
			"0.024": 0.0,
			"0.025": 0.0
		}
	}
}
