{
	 "smiles": "[O-][N+](=O)C1=CN=C(OCC(F)(F)F)C=C1", 
	 "Tm": 315.15, 
	 "num_atms": 20, 
	 "gaussian": { 
		 "optdone": 1, 
		 "sigma_profile": "yes", 
		 "theory": "DFT", 
		 "functional": "B3LYP", 
		 "basiset": "6-31G**", 
		 "properties": { 
			 "R2extent": 4281.1009, 
			 "electric_dipole_moment_norm": 3.62840031694, 
			 "electric_quadrupole_moment_norm": 15.9945060999, 
			 "total_energy": -904.347865427, 
			 "HOMO_LUMO_gap": 0.17668, 
			 "cosmo_polarized_energy": -9.83, 
			 "cosmo_cavitation_energy": 27.51, 
			 "cosmo_dispersion_energy": -19.51, 
			 "cosmo_repulsion_energy": 1.47, 
			 "cosmo_total_nonelectrostatic_energy": 9.47, 
			 "SMD_solvation_energy": 7.86 
		},
		"coords": [
			{
				"x": -3.7984733284,
				"y": -2.3138921871,
				"z": -0.9167942129,
				"element": "O" 
			},
			{
				"x": -2.6200506743,
				"y": -2.6656328515,
				"z": -0.853877671,
				"element": "N" 
			},
			{
				"x": -2.1925778764,
				"y": -3.7670370263,
				"z": -1.2000192792,
				"element": "O" 
			},
			{
				"x": -1.6581986751,
				"y": -1.7019675796,
				"z": -0.3267177739,
				"element": "C" 
			},
			{
				"x": -0.314330185,
				"y": -2.0463426343,
				"z": -0.2292678899,
				"element": "C" 
			},
			{
				"x": 0.6018201054,
				"y": -1.1964259678,
				"z": 0.2449314171,
				"element": "N" 
			},
			{
				"x": 0.1936924855,
				"y": 0.0079806085,
				"z": 0.6306251595,
				"element": "C" 
			},
			{
				"x": 1.08480662,
				"y": 0.8910314231,
				"z": 1.1381593521,
				"element": "O" 
			},
			{
				"x": 2.4693891579,
				"y": 0.5530180712,
				"z": 1.1386053719,
				"element": "C" 
			},
			{
				"x": 3.1604341569,
				"y": 1.2046519408,
				"z": -0.0492065203,
				"element": "C" 
			},
			{
				"x": 3.076133899,
				"y": 2.546768408,
				"z": -0.0002769596,
				"element": "F" 
			},
			{
				"x": 2.6256727443,
				"y": 0.8023576788,
				"z": -1.2164851599,
				"element": "F" 
			},
			{
				"x": 4.4668852881,
				"y": 0.8675566633,
				"z": -0.041669764,
				"element": "F" 
			},
			{
				"x": -1.1442745666,
				"y": 0.4460941755,
				"z": 0.5728656084,
				"element": "C" 
			},
			{
				"x": -2.0883410802,
				"y": -0.4331253542,
				"z": 0.0808325104,
				"element": "C" 
			},
			{
				"x": 0.0224302745,
				"y": -3.0286626458,
				"z": -0.5430694586,
				"element": "H" 
			},
			{
				"x": 2.6166245304,
				"y": -0.5258626402,
				"z": 1.0881771908,
				"element": "H" 
			},
			{
				"x": 2.8967626408,
				"y": 0.9602976407,
				"z": 2.0566195604,
				"element": "H" 
			},
			{
				"x": -1.3991827062,
				"y": 1.4445866749,
				"z": 0.9069232047,
				"element": "H" 
			},
			{
				"x": -3.1364228106,
				"y": -0.1712943983,
				"z": 0.0019453141,
				"element": "H" 
			}
		],
		 "valence_orbital": [ 
			{
				"type": "occ",
				"energy": -0.3218,
				"method": "rhf"
			},
			{
				"type": "occ",
				"energy": -0.31482,
				"method": "rhf"
			},
			{
				"type": "occ",
				"energy": -0.29996,
				"method": "rhf"
			},
			{
				"type": "occ",
				"energy": -0.29767,
				"method": "rhf"
			},
			{
				"type": "occ",
				"energy": -0.27285,
				"method": "rhf"
			},
			{
				"type": "unocc",
				"energy": -0.09617,
				"method": "rhf"
			},
			{
				"type": "unocc",
				"energy": -0.05692,
				"method": "rhf"
			},
			{
				"type": "unocc",
				"energy": -0.00667,
				"method": "rhf"
			},
			{
				"type": "unocc",
				"energy": 0.07468,
				"method": "rhf"
			},
			{
				"type": "unocc",
				"energy": 0.08246,
				"method": "rhf"
			}
		],
		"cosmo_sigma_profile": { 
			"-0.025": 0.0,
			"-0.024": 0.0,
			"-0.023": 0.0,
			"-0.022": 0.0,
			"-0.021": 0.0,
			"-0.02": 0.0,
			"-0.019": 0.0,
			"-0.018": 0.0,
			"-0.017": 0.0,
			"-0.016": 0.0,
			"-0.015": 0.0,
			"-0.014": 0.0,
			"-0.013": 0.0,
			"-0.012": 0.0,
			"-0.011": 0.0,
			"-0.01": 1.15879522438,
			"-0.009": 4.8470420779,
			"-0.008": 7.07147872574,
			"-0.007": 9.93811737554,
			"-0.006": 9.32345992516,
			"-0.005": 9.43072290833,
			"-0.004": 11.1150942686,
			"-0.003": 14.6406454701,
			"-0.002": 18.208637196,
			"-0.001": 15.394425654,
			"0.0": 13.7849446371,
			"0.001": 12.6083787376,
			"0.002": 28.1622679727,
			"0.003": 22.5650164008,
			"0.004": 6.27556852513,
			"0.005": 5.70438421735,
			"0.006": 6.96446224304,
			"0.007": 10.2178280794,
			"0.008": 7.67030633093,
			"0.009": 4.08359206598,
			"0.01": 2.17717104658,
			"0.011": 0.0596581597211,
			"0.012": 0.0,
			"0.013": 0.0,
			"0.014": 0.0,
			"0.015": 0.0,
			"0.016": 0.0,
			"0.017": 0.0,
			"0.018": 0.0,
			"0.019": 0.0,
			"0.02": 0.0,
			"0.021": 0.0,
			"0.022": 0.0,
			"0.023": 0.0,
			"0.024": 0.0,
			"0.025": 0.0
		}
	}
}
