{
	 "smiles": "COC(=O)C1=C2CCCN2C(=O)C=C1O", 
	 "Tm": 441.15, 
	 "num_atms": 26, 
	 "gaussian": { 
		 "optdone": 1, 
		 "sigma_profile": "yes", 
		 "theory": "DFT", 
		 "functional": "B3LYP", 
		 "basiset": "6-31G**", 
		 "properties": { 
			 "R2extent": 3463.8648, 
			 "electric_dipole_moment_norm": 7.04441435323, 
			 "electric_quadrupole_moment_norm": 6.86228701017, 
			 "total_energy": -743.377554256, 
			 "HOMO_LUMO_gap": 0.16534, 
			 "cosmo_polarized_energy": -15.53, 
			 "cosmo_cavitation_energy": 28.88, 
			 "cosmo_dispersion_energy": -21.72, 
			 "cosmo_repulsion_energy": 1.68, 
			 "cosmo_total_nonelectrostatic_energy": 8.84, 
			 "SMD_solvation_energy": 6.66 
		},
		"coords": [
			{
				"x": 1.2405914835,
				"y": 1.773176608,
				"z": 3.7826793469,
				"element": "C" 
			},
			{
				"x": 0.835688586,
				"y": 1.0540705021,
				"z": 2.6031917407,
				"element": "O" 
			},
			{
				"x": -0.4766210771,
				"y": 1.1223614212,
				"z": 2.30248514,
				"element": "C" 
			},
			{
				"x": -1.2576071282,
				"y": 1.7611563068,
				"z": 3.0149410071,
				"element": "O" 
			},
			{
				"x": -0.8843710448,
				"y": 0.3867370229,
				"z": 1.10941818,
				"element": "C" 
			},
			{
				"x": -0.0084132001,
				"y": -0.2982435605,
				"z": 0.2762551044,
				"element": "C" 
			},
			{
				"x": 1.4950722637,
				"y": -0.4620746221,
				"z": 0.3445052903,
				"element": "C" 
			},
			{
				"x": 1.8635813748,
				"y": -1.010410541,
				"z": -1.0515982036,
				"element": "C" 
			},
			{
				"x": 0.5771534007,
				"y": -1.6857989601,
				"z": -1.5477854112,
				"element": "C" 
			},
			{
				"x": -0.4700724382,
				"y": -0.9802380454,
				"z": -0.793434766,
				"element": "N" 
			},
			{
				"x": -1.8450189601,
				"y": -1.0967615497,
				"z": -1.1821862444,
				"element": "C" 
			},
			{
				"x": -2.1169882466,
				"y": -1.7800928956,
				"z": -2.1657156905,
				"element": "O" 
			},
			{
				"x": -2.736042351,
				"y": -0.364448458,
				"z": -0.3350037752,
				"element": "C" 
			},
			{
				"x": -2.2998983131,
				"y": 0.3456713613,
				"z": 0.7585177501,
				"element": "C" 
			},
			{
				"x": -3.1996059989,
				"y": 1.0001100181,
				"z": 1.5013972871,
				"element": "O" 
			},
			{
				"x": 2.3146850052,
				"y": 1.6091505814,
				"z": 3.8660156029,
				"element": "H" 
			},
			{
				"x": 1.0199894554,
				"y": 2.8379009791,
				"z": 3.679353419,
				"element": "H" 
			},
			{
				"x": 0.7225543938,
				"y": 1.3876116166,
				"z": 4.6634962379,
				"element": "H" 
			},
			{
				"x": 1.9969723175,
				"y": 0.4720822385,
				"z": 0.5943303787,
				"element": "H" 
			},
			{
				"x": 1.7404508678,
				"y": -1.1710491835,
				"z": 1.1449246887,
				"element": "H" 
			},
			{
				"x": 2.1283846556,
				"y": -0.1821457608,
				"z": -1.7162606228,
				"element": "H" 
			},
			{
				"x": 2.7108791894,
				"y": -1.6987071402,
				"z": -1.0237777217,
				"element": "H" 
			},
			{
				"x": 0.3852998669,
				"y": -1.5804863082,
				"z": -2.6160889885,
				"element": "H" 
			},
			{
				"x": 0.5343558658,
				"y": -2.7546620943,
				"z": -1.3084366854,
				"element": "H" 
			},
			{
				"x": -3.7912439161,
				"y": -0.3860544791,
				"z": -0.5745457187,
				"element": "H" 
			},
			{
				"x": -2.7104760518,
				"y": 1.4483449426,
				"z": 2.2346226545,
				"element": "H" 
			}
		],
		 "valence_orbital": [ 
			{
				"type": "occ",
				"energy": -0.32059,
				"method": "rhf"
			},
			{
				"type": "occ",
				"energy": -0.29481,
				"method": "rhf"
			},
			{
				"type": "occ",
				"energy": -0.25687,
				"method": "rhf"
			},
			{
				"type": "occ",
				"energy": -0.24689,
				"method": "rhf"
			},
			{
				"type": "occ",
				"energy": -0.21396,
				"method": "rhf"
			},
			{
				"type": "unocc",
				"energy": -0.04862,
				"method": "rhf"
			},
			{
				"type": "unocc",
				"energy": -0.01302,
				"method": "rhf"
			},
			{
				"type": "unocc",
				"energy": 0.05378,
				"method": "rhf"
			},
			{
				"type": "unocc",
				"energy": 0.07459,
				"method": "rhf"
			},
			{
				"type": "unocc",
				"energy": 0.09685,
				"method": "rhf"
			}
		],
		"cosmo_sigma_profile": { 
			"-0.025": 0.0,
			"-0.024": 0.0,
			"-0.023": 0.0,
			"-0.022": 0.0,
			"-0.021": 0.0,
			"-0.02": 0.0,
			"-0.019": 0.0,
			"-0.018": 0.0,
			"-0.017": 0.0,
			"-0.016": 0.0,
			"-0.015": 0.0,
			"-0.014": 0.0,
			"-0.013": 0.0,
			"-0.012": 0.0,
			"-0.011": 0.0,
			"-0.01": 0.0,
			"-0.009": 0.0,
			"-0.008": 0.000289558868866,
			"-0.007": 2.35956947898,
			"-0.006": 14.0409746677,
			"-0.005": 25.9029617835,
			"-0.004": 30.4994911564,
			"-0.003": 27.5221109661,
			"-0.002": 22.12532551,
			"-0.001": 17.0032148436,
			"0.0": 12.7934888811,
			"0.001": 9.24531989245,
			"0.002": 8.03131117744,
			"0.003": 8.74293859974,
			"0.004": 7.6585648201,
			"0.005": 4.9839250141,
			"0.006": 4.26228559283,
			"0.007": 4.33752191802,
			"0.008": 3.5433279126,
			"0.009": 4.9192162277,
			"0.01": 4.55316965771,
			"0.011": 3.80830067281,
			"0.012": 2.58542494717,
			"0.013": 2.36215633337,
			"0.014": 5.69149024856,
			"0.015": 1.98785198805,
			"0.016": 0.208762070142,
			"0.017": 0.0,
			"0.018": 0.0,
			"0.019": 0.0,
			"0.02": 0.0,
			"0.021": 0.0,
			"0.022": 0.0,
			"0.023": 0.0,
			"0.024": 0.0,
			"0.025": 0.0
		}
	}
}
