{
	 "smiles": "CC(C)(C)OC(=O)NCCOC1=CC(N)=CC=C1", 
	 "Tm": 339.15, 
	 "num_atms": 38, 
	 "gaussian": { 
		 "optdone": 1, 
		 "sigma_profile": "yes", 
		 "theory": "DFT", 
		 "functional": "B3LYP", 
		 "basiset": "6-31G**", 
		 "properties": { 
			 "R2extent": 5594.9688, 
			 "electric_dipole_moment_norm": 1.12002824072, 
			 "electric_quadrupole_moment_norm": 8.95154159628, 
			 "total_energy": -842.646758427, 
			 "HOMO_LUMO_gap": 0.20725, 
			 "cosmo_polarized_energy": -15.03, 
			 "cosmo_cavitation_energy": 39.78, 
			 "cosmo_dispersion_energy": -26.68, 
			 "cosmo_repulsion_energy": 2.08, 
			 "cosmo_total_nonelectrostatic_energy": 15.17, 
			 "SMD_solvation_energy": 7.29 
		},
		"coords": [
			{
				"x": 2.7271786195,
				"y": 1.7793129373,
				"z": -3.121344351,
				"element": "C" 
			},
			{
				"x": 1.2452406836,
				"y": 2.0593758479,
				"z": -2.8582178178,
				"element": "C" 
			},
			{
				"x": 0.6183002756,
				"y": 2.8302892479,
				"z": -4.0248554417,
				"element": "C" 
			},
			{
				"x": 1.0606457224,
				"y": 2.7826384253,
				"z": -1.5197178548,
				"element": "C" 
			},
			{
				"x": 0.6726844509,
				"y": 0.7056191345,
				"z": -2.7951086124,
				"element": "O" 
			},
			{
				"x": -0.6456523286,
				"y": 0.5121153774,
				"z": -2.5633845927,
				"element": "C" 
			},
			{
				"x": -1.4857228591,
				"y": 1.3770150255,
				"z": -2.3502608928,
				"element": "O" 
			},
			{
				"x": -0.9284408844,
				"y": -0.8234942089,
				"z": -2.6129952514,
				"element": "N" 
			},
			{
				"x": -2.2642618656,
				"y": -1.3246802761,
				"z": -2.3481040529,
				"element": "C" 
			},
			{
				"x": -2.6354932928,
				"y": -1.4266604213,
				"z": -0.8670168352,
				"element": "C" 
			},
			{
				"x": -1.8005591259,
				"y": -2.3610684676,
				"z": -0.1855279332,
				"element": "O" 
			},
			{
				"x": -0.7891251989,
				"y": -1.9483095009,
				"z": 0.6427708693,
				"element": "C" 
			},
			{
				"x": -0.3785853262,
				"y": -0.6226340427,
				"z": 0.8047886887,
				"element": "C" 
			},
			{
				"x": 0.6698084888,
				"y": -0.3160760205,
				"z": 1.6912570633,
				"element": "C" 
			},
			{
				"x": 1.1115233176,
				"y": 1.0086031877,
				"z": 1.8050884867,
				"element": "N" 
			},
			{
				"x": 1.303956965,
				"y": -1.3449190132,
				"z": 2.4021277845,
				"element": "C" 
			},
			{
				"x": 0.8852084252,
				"y": -2.6631460519,
				"z": 2.2208744897,
				"element": "C" 
			},
			{
				"x": -0.1552024531,
				"y": -2.9788850244,
				"z": 1.3537911161,
				"element": "C" 
			},
			{
				"x": 3.2787155595,
				"y": 2.7207505878,
				"z": -3.2025003241,
				"element": "H" 
			},
			{
				"x": 2.8548505535,
				"y": 1.2210763929,
				"z": -4.0534289526,
				"element": "H" 
			},
			{
				"x": 3.1586188543,
				"y": 1.1930425539,
				"z": -2.3050521162,
				"element": "H" 
			},
			{
				"x": -0.4451541411,
				"y": 2.9995204933,
				"z": -3.8517752993,
				"element": "H" 
			},
			{
				"x": 0.7424533604,
				"y": 2.2738439567,
				"z": -4.959359045,
				"element": "H" 
			},
			{
				"x": 1.1162405783,
				"y": 3.7989331783,
				"z": -4.1372482015,
				"element": "H" 
			},
			{
				"x": 1.4585706216,
				"y": 2.177797025,
				"z": -0.6986866552,
				"element": "H" 
			},
			{
				"x": 1.6073036486,
				"y": 3.7314884442,
				"z": -1.5414753361,
				"element": "H" 
			},
			{
				"x": 0.0060187748,
				"y": 2.9906742294,
				"z": -1.3345763681,
				"element": "H" 
			},
			{
				"x": -0.1493344044,
				"y": -1.4632000575,
				"z": -2.6347521641,
				"element": "H" 
			},
			{
				"x": -2.984551844,
				"y": -0.6628752346,
				"z": -2.8393394938,
				"element": "H" 
			},
			{
				"x": -2.3451153664,
				"y": -2.3152834557,
				"z": -2.8059521137,
				"element": "H" 
			},
			{
				"x": -3.6570765156,
				"y": -1.8171243704,
				"z": -0.7881518127,
				"element": "H" 
			},
			{
				"x": -2.6169204787,
				"y": -0.4418498785,
				"z": -0.3952432537,
				"element": "H" 
			},
			{
				"x": -0.8342424896,
				"y": 0.1834319589,
				"z": 0.2413652931,
				"element": "H" 
			},
			{
				"x": 1.6089285843,
				"y": 1.2128445403,
				"z": 2.6615612608,
				"element": "H" 
			},
			{
				"x": 0.4060683388,
				"y": 1.7070765205,
				"z": 1.612419597,
				"element": "H" 
			},
			{
				"x": 2.1183449949,
				"y": -1.1120750548,
				"z": 3.0827460041,
				"element": "H" 
			},
			{
				"x": 1.3762580679,
				"y": -3.4584563037,
				"z": 2.7750893893,
				"element": "H" 
			},
			{
				"x": -0.4963803109,
				"y": -3.9985116819,
				"z": 1.2142947293,
				"element": "H" 
			}
		],
		 "valence_orbital": [ 
			{
				"type": "occ",
				"energy": -0.2831,
				"method": "rhf"
			},
			{
				"type": "occ",
				"energy": -0.26367,
				"method": "rhf"
			},
			{
				"type": "occ",
				"energy": -0.25231,
				"method": "rhf"
			},
			{
				"type": "occ",
				"energy": -0.21779,
				"method": "rhf"
			},
			{
				"type": "occ",
				"energy": -0.19368,
				"method": "rhf"
			},
			{
				"type": "unocc",
				"energy": 0.01357,
				"method": "rhf"
			},
			{
				"type": "unocc",
				"energy": 0.02832,
				"method": "rhf"
			},
			{
				"type": "unocc",
				"energy": 0.05453,
				"method": "rhf"
			},
			{
				"type": "unocc",
				"energy": 0.0776,
				"method": "rhf"
			},
			{
				"type": "unocc",
				"energy": 0.08987,
				"method": "rhf"
			}
		],
		"cosmo_sigma_profile": { 
			"-0.025": 0.0,
			"-0.024": 0.0,
			"-0.023": 0.0,
			"-0.022": 0.0,
			"-0.021": 0.0,
			"-0.02": 0.0,
			"-0.019": 0.0,
			"-0.018": 0.0,
			"-0.017": 0.0,
			"-0.016": 0.0,
			"-0.015": 0.0,
			"-0.014": 0.375608149511,
			"-0.013": 1.12013333304,
			"-0.012": 2.23291575118,
			"-0.011": 2.93751634754,
			"-0.01": 3.65773568823,
			"-0.009": 3.49196176885,
			"-0.008": 4.88060519839,
			"-0.007": 3.32678313749,
			"-0.006": 8.19705712642,
			"-0.005": 17.0912442563,
			"-0.004": 24.3759431471,
			"-0.003": 28.8629878178,
			"-0.002": 26.6544092307,
			"-0.001": 24.5378755225,
			"0.0": 29.2081469384,
			"0.001": 27.8588231086,
			"0.002": 14.6357850718,
			"0.003": 11.9570953123,
			"0.004": 13.8922866485,
			"0.005": 14.3308790333,
			"0.006": 14.125440896,
			"0.007": 13.8733891213,
			"0.008": 4.41343119668,
			"0.009": 3.1716930596,
			"0.01": 4.00227435723,
			"0.011": 2.18833036104,
			"0.012": 1.98263608769,
			"0.013": 2.89779763412,
			"0.014": 0.948582155398,
			"0.015": 0.0,
			"0.016": 0.0,
			"0.017": 0.0,
			"0.018": 0.0,
			"0.019": 0.0,
			"0.02": 0.0,
			"0.021": 0.0,
			"0.022": 0.0,
			"0.023": 0.0,
			"0.024": 0.0,
			"0.025": 0.0
		}
	}
}
