{
	 "smiles": "NNC(=O)CC1=NC(=CS1)C1=CC=CC=C1", 
	 "Tm": 411.15, 
	 "num_atms": 27, 
	 "gaussian": { 
		 "optdone": 1, 
		 "sigma_profile": "yes", 
		 "theory": "DFT", 
		 "functional": "B3LYP", 
		 "basiset": "6-31G**", 
		 "properties": { 
			 "R2extent": 5088.3001, 
			 "electric_dipole_moment_norm": 3.38955374349, 
			 "electric_quadrupole_moment_norm": 19.1964574807, 
			 "total_energy": -1063.44587674, 
			 "HOMO_LUMO_gap": 0.17943, 
			 "cosmo_polarized_energy": -15.29, 
			 "cosmo_cavitation_energy": 33.02, 
			 "cosmo_dispersion_energy": -24.04, 
			 "cosmo_repulsion_energy": 1.82, 
			 "cosmo_total_nonelectrostatic_energy": 10.8, 
			 "SMD_solvation_energy": 5.62 
		},
		"coords": [
			{
				"x": -1.9195542572,
				"y": 0.4580490208,
				"z": -2.043540317,
				"element": "N" 
			},
			{
				"x": -1.5235782156,
				"y": 1.7106662733,
				"z": -2.5475181059,
				"element": "N" 
			},
			{
				"x": -0.2832158061,
				"y": 2.0743329212,
				"z": -2.9964850369,
				"element": "C" 
			},
			{
				"x": -0.0008288056,
				"y": 3.2343018388,
				"z": -3.2557401833,
				"element": "O" 
			},
			{
				"x": 0.7432220051,
				"y": 0.9369722416,
				"z": -3.1658146494,
				"element": "C" 
			},
			{
				"x": 1.4389582397,
				"y": 0.6061405642,
				"z": -1.8732123384,
				"element": "C" 
			},
			{
				"x": 0.8476499146,
				"y": 0.0786374271,
				"z": -0.8377139635,
				"element": "N" 
			},
			{
				"x": 1.7148484658,
				"y": -0.1157321257,
				"z": 0.2247560197,
				"element": "C" 
			},
			{
				"x": 3.0031238745,
				"y": 0.2907272986,
				"z": -0.0258872161,
				"element": "C" 
			},
			{
				"x": 3.1424077663,
				"y": 0.9282731745,
				"z": -1.6262175446,
				"element": "S" 
			},
			{
				"x": 1.2135240385,
				"y": -0.7028740119,
				"z": 1.4829719193,
				"element": "C" 
			},
			{
				"x": -0.1604386315,
				"y": -0.686377628,
				"z": 1.7738986774,
				"element": "C" 
			},
			{
				"x": -0.6390094792,
				"y": -1.2242338003,
				"z": 2.967414256,
				"element": "C" 
			},
			{
				"x": 0.2427565585,
				"y": -1.7888469038,
				"z": 3.8907238336,
				"element": "C" 
			},
			{
				"x": 1.6104880125,
				"y": -1.8157714994,
				"z": 3.6085043554,
				"element": "C" 
			},
			{
				"x": 2.0910383874,
				"y": -1.2816636539,
				"z": 2.4151894953,
				"element": "C" 
			},
			{
				"x": -2.091354639,
				"y": -0.1852937276,
				"z": -2.813061976,
				"element": "H" 
			},
			{
				"x": -1.1821798977,
				"y": 0.0861416279,
				"z": -1.4431831002,
				"element": "H" 
			},
			{
				"x": -2.1498555274,
				"y": 2.4796727494,
				"z": -2.345507617,
				"element": "H" 
			},
			{
				"x": 0.2595987596,
				"y": 0.0319527229,
				"z": -3.5485884646,
				"element": "H" 
			},
			{
				"x": 1.4617112442,
				"y": 1.2880813618,
				"z": -3.9075449953,
				"element": "H" 
			},
			{
				"x": 3.8526526826,
				"y": 0.2776070742,
				"z": 0.6404755652,
				"element": "H" 
			},
			{
				"x": -0.8473243831,
				"y": -0.2403729334,
				"z": 1.0631988084,
				"element": "H" 
			},
			{
				"x": -1.7045350294,
				"y": -1.1990244424,
				"z": 3.1770977211,
				"element": "H" 
			},
			{
				"x": -0.1318608901,
				"y": -2.2083847055,
				"z": 4.8198044815,
				"element": "H" 
			},
			{
				"x": 2.3042167794,
				"y": -2.2624478415,
				"z": 4.3149993143,
				"element": "H" 
			},
			{
				"x": 3.1536388332,
				"y": -1.3341330228,
				"z": 2.196981061,
				"element": "H" 
			}
		],
		 "valence_orbital": [ 
			{
				"type": "occ",
				"energy": -0.2774,
				"method": "rhf"
			},
			{
				"type": "occ",
				"energy": -0.25526,
				"method": "rhf"
			},
			{
				"type": "occ",
				"energy": -0.25307,
				"method": "rhf"
			},
			{
				"type": "occ",
				"energy": -0.24422,
				"method": "rhf"
			},
			{
				"type": "occ",
				"energy": -0.22436,
				"method": "rhf"
			},
			{
				"type": "unocc",
				"energy": -0.04493,
				"method": "rhf"
			},
			{
				"type": "unocc",
				"energy": -0.02039,
				"method": "rhf"
			},
			{
				"type": "unocc",
				"energy": -0.00505,
				"method": "rhf"
			},
			{
				"type": "unocc",
				"energy": 0.00511,
				"method": "rhf"
			},
			{
				"type": "unocc",
				"energy": 0.02715,
				"method": "rhf"
			}
		],
		"cosmo_sigma_profile": { 
			"-0.025": 0.0,
			"-0.024": 0.0,
			"-0.023": 0.0,
			"-0.022": 0.0,
			"-0.021": 0.0,
			"-0.02": 0.0,
			"-0.019": 0.0,
			"-0.018": 0.0,
			"-0.017": 0.0,
			"-0.016": 0.0,
			"-0.015": 0.0,
			"-0.014": 0.160436486356,
			"-0.013": 1.09368584924,
			"-0.012": 1.47491500502,
			"-0.011": 2.02206105269,
			"-0.01": 3.50431969423,
			"-0.009": 5.50301354172,
			"-0.008": 6.77839602043,
			"-0.007": 8.36197460223,
			"-0.006": 12.194827482,
			"-0.005": 15.5002882476,
			"-0.004": 18.5903640671,
			"-0.003": 18.26404291,
			"-0.002": 14.8426748417,
			"-0.001": 15.5755693599,
			"0.0": 17.2925515224,
			"0.001": 23.6282487447,
			"0.002": 24.9564727355,
			"0.003": 17.8289303535,
			"0.004": 14.2093249677,
			"0.005": 13.7247358252,
			"0.006": 6.45920758254,
			"0.007": 1.88008831884,
			"0.008": 1.69700903129,
			"0.009": 1.80920562047,
			"0.01": 1.79645141056,
			"0.011": 2.43037647435,
			"0.012": 2.66224457957,
			"0.013": 5.58736115893,
			"0.014": 4.55625229713,
			"0.015": 0.895204133533,
			"0.016": 0.661777040618,
			"0.017": 0.0,
			"0.018": 0.0,
			"0.019": 0.0,
			"0.02": 0.0,
			"0.021": 0.0,
			"0.022": 0.0,
			"0.023": 0.0,
			"0.024": 0.0,
			"0.025": 0.0
		}
	}
}
