{
	 "smiles": "NC(=O)CN1CCCC1=O", 
	 "Tm": 425.15, 
	 "num_atms": 20, 
	 "gaussian": { 
		 "optdone": 1, 
		 "sigma_profile": "yes", 
		 "theory": "DFT", 
		 "functional": "B3LYP", 
		 "basiset": "6-31G**", 
		 "properties": { 
			 "R2extent": 1733.1733, 
			 "electric_dipole_moment_norm": 3.58167761391, 
			 "electric_quadrupole_moment_norm": 9.27762634891, 
			 "total_energy": -494.654348964, 
			 "HOMO_LUMO_gap": 0.24451, 
			 "cosmo_polarized_energy": -14.23, 
			 "cosmo_cavitation_energy": 22.83, 
			 "cosmo_dispersion_energy": -16.95, 
			 "cosmo_repulsion_energy": 1.41, 
			 "cosmo_total_nonelectrostatic_energy": 7.29, 
			 "SMD_solvation_energy": 4.61 
		},
		"coords": [
			{
				"x": -0.5450149121,
				"y": -2.0263785627,
				"z": -2.2369756971,
				"element": "N" 
			},
			{
				"x": 0.5492604255,
				"y": -1.3144057157,
				"z": -1.8572064525,
				"element": "C" 
			},
			{
				"x": 1.3013389296,
				"y": -0.7327584434,
				"z": -2.6265753948,
				"element": "O" 
			},
			{
				"x": 0.7777812622,
				"y": -1.3116421154,
				"z": -0.3318694002,
				"element": "C" 
			},
			{
				"x": -0.2353251215,
				"y": -0.5505941068,
				"z": 0.3880935962,
				"element": "N" 
			},
			{
				"x": -0.0089356724,
				"y": 0.7954496089,
				"z": 0.910725608,
				"element": "C" 
			},
			{
				"x": -1.4178324992,
				"y": 1.2361322996,
				"z": 1.3682595449,
				"element": "C" 
			},
			{
				"x": -2.1622345601,
				"y": -0.0860759526,
				"z": 1.6259052232,
				"element": "C" 
			},
			{
				"x": -1.4350943668,
				"y": -1.0941630755,
				"z": 0.74133675,
				"element": "C" 
			},
			{
				"x": -1.8270749266,
				"y": -2.2105264438,
				"z": 0.4031957734,
				"element": "O" 
			},
			{
				"x": -1.1808689003,
				"y": -2.3949993675,
				"z": -1.5356994177,
				"element": "H" 
			},
			{
				"x": -0.8073684117,
				"y": -2.008746105,
				"z": -3.2110298548,
				"element": "H" 
			},
			{
				"x": 0.7648079713,
				"y": -2.3413478889,
				"z": 0.0428753217,
				"element": "H" 
			},
			{
				"x": 1.7574991075,
				"y": -0.8696321941,
				"z": -0.1475646278,
				"element": "H" 
			},
			{
				"x": 0.4062101532,
				"y": 1.4474749193,
				"z": 0.1357832702,
				"element": "H" 
			},
			{
				"x": 0.706861425,
				"y": 0.7677979776,
				"z": 1.7454386926,
				"element": "H" 
			},
			{
				"x": -1.3779344789,
				"y": 1.8913485983,
				"z": 2.241165992,
				"element": "H" 
			},
			{
				"x": -1.9080525279,
				"y": 1.7874661248,
				"z": 0.5601400148,
				"element": "H" 
			},
			{
				"x": -2.0706669584,
				"y": -0.4198200792,
				"z": 2.6669657949,
				"element": "H" 
			},
			{
				"x": -3.2267559384,
				"y": -0.0594794777,
				"z": 1.3845352629,
				"element": "H" 
			}
		],
		 "valence_orbital": [ 
			{
				"type": "occ",
				"energy": -0.34495,
				"method": "rhf"
			},
			{
				"type": "occ",
				"energy": -0.26937,
				"method": "rhf"
			},
			{
				"type": "occ",
				"energy": -0.26068,
				"method": "rhf"
			},
			{
				"type": "occ",
				"energy": -0.25824,
				"method": "rhf"
			},
			{
				"type": "occ",
				"energy": -0.23208,
				"method": "rhf"
			},
			{
				"type": "unocc",
				"energy": 0.01243,
				"method": "rhf"
			},
			{
				"type": "unocc",
				"energy": 0.0309,
				"method": "rhf"
			},
			{
				"type": "unocc",
				"energy": 0.07915,
				"method": "rhf"
			},
			{
				"type": "unocc",
				"energy": 0.09888,
				"method": "rhf"
			},
			{
				"type": "unocc",
				"energy": 0.10383,
				"method": "rhf"
			}
		],
		"cosmo_sigma_profile": { 
			"-0.025": 0.0,
			"-0.024": 0.0,
			"-0.023": 0.0,
			"-0.022": 0.0,
			"-0.021": 0.0,
			"-0.02": 0.0,
			"-0.019": 0.0,
			"-0.018": 0.0,
			"-0.017": 0.0,
			"-0.016": 0.0,
			"-0.015": 0.0,
			"-0.014": 0.416763409789,
			"-0.013": 1.13554506233,
			"-0.012": 1.09321422035,
			"-0.011": 1.20625266172,
			"-0.01": 0.791385874967,
			"-0.009": 1.06627188298,
			"-0.008": 1.57010934213,
			"-0.007": 2.54834010832,
			"-0.006": 7.62865313149,
			"-0.005": 17.803252827,
			"-0.004": 28.479340368,
			"-0.003": 23.4364075921,
			"-0.002": 15.9289826983,
			"-0.001": 12.4007070998,
			"0.0": 6.41375679103,
			"0.001": 5.54826943135,
			"0.002": 5.10022145909,
			"0.003": 4.21231372423,
			"0.004": 3.3835200834,
			"0.005": 3.52226811434,
			"0.006": 3.10159612522,
			"0.007": 2.20885174629,
			"0.008": 2.27548523613,
			"0.009": 2.70710441694,
			"0.01": 2.37987790465,
			"0.011": 2.64431673454,
			"0.012": 3.66862890419,
			"0.013": 6.95416382093,
			"0.014": 7.37756289307,
			"0.015": 1.9702051943,
			"0.016": 0.0,
			"0.017": 0.0,
			"0.018": 0.0,
			"0.019": 0.0,
			"0.02": 0.0,
			"0.021": 0.0,
			"0.022": 0.0,
			"0.023": 0.0,
			"0.024": 0.0,
			"0.025": 0.0
		}
	}
}
