{
	 "smiles": "O=C(NCC1CCCNC1)C1=CC=CC=C1", 
	 "Tm": 356.15, 
	 "num_atms": 34, 
	 "gaussian": { 
		 "optdone": 1, 
		 "sigma_profile": "yes", 
		 "theory": "DFT", 
		 "functional": "B3LYP", 
		 "basiset": "6-31G**", 
		 "properties": { 
			 "R2extent": 5122.3115, 
			 "electric_dipole_moment_norm": 2.78450013108, 
			 "electric_quadrupole_moment_norm": 19.5698273625, 
			 "total_energy": -690.974624063, 
			 "HOMO_LUMO_gap": 0.18693, 
			 "cosmo_polarized_energy": -14.53, 
			 "cosmo_cavitation_energy": 35.31, 
			 "cosmo_dispersion_energy": -25.18, 
			 "cosmo_repulsion_energy": 1.98, 
			 "cosmo_total_nonelectrostatic_energy": 12.11, 
			 "SMD_solvation_energy": 2.84 
		},
		"coords": [
			{
				"x": -1.7951012994,
				"y": 1.7024279712,
				"z": -2.0562359785,
				"element": "O" 
			},
			{
				"x": -1.0567856975,
				"y": 0.8582887189,
				"z": -1.5562107742,
				"element": "C" 
			},
			{
				"x": -0.5070385575,
				"y": 1.0619872778,
				"z": -0.3084226844,
				"element": "N" 
			},
			{
				"x": 0.7377567516,
				"y": 0.5184330414,
				"z": 0.2345284426,
				"element": "C" 
			},
			{
				"x": 0.5874307985,
				"y": -0.1044336831,
				"z": 1.6314044559,
				"element": "C" 
			},
			{
				"x": 0.0759446318,
				"y": 0.9013961187,
				"z": 2.6793931012,
				"element": "C" 
			},
			{
				"x": 0.0384723375,
				"y": 0.2796196016,
				"z": 4.084224096,
				"element": "C" 
			},
			{
				"x": 1.4018785683,
				"y": -0.3335759458,
				"z": 4.4446495528,
				"element": "C" 
			},
			{
				"x": 1.9091703942,
				"y": -1.2814442889,
				"z": 3.4471759554,
				"element": "N" 
			},
			{
				"x": 1.9297826184,
				"y": -0.7089606849,
				"z": 2.0996597595,
				"element": "C" 
			},
			{
				"x": -0.7741368323,
				"y": -0.4318770158,
				"z": -2.2749198803,
				"element": "C" 
			},
			{
				"x": -0.7012634035,
				"y": -1.6731685712,
				"z": -1.6274944913,
				"element": "C" 
			},
			{
				"x": -0.5146135908,
				"y": -2.8430524931,
				"z": -2.365588289,
				"element": "C" 
			},
			{
				"x": -0.3910612246,
				"y": -2.7819381149,
				"z": -3.7545830765,
				"element": "C" 
			},
			{
				"x": -0.4756523734,
				"y": -1.5489045201,
				"z": -4.4071360248,
				"element": "C" 
			},
			{
				"x": -0.6803147692,
				"y": -0.3830943477,
				"z": -3.6728753569,
				"element": "C" 
			},
			{
				"x": -0.7884648379,
				"y": 1.9660718109,
				"z": 0.0514492359,
				"element": "H" 
			},
			{
				"x": 1.1220794787,
				"y": -0.2257714756,
				"z": -0.4664591301,
				"element": "H" 
			},
			{
				"x": 1.4881246908,
				"y": 1.3221605673,
				"z": 0.2804416855,
				"element": "H" 
			},
			{
				"x": -0.146146157,
				"y": -0.9225329697,
				"z": 1.5601287531,
				"element": "H" 
			},
			{
				"x": 0.7469425727,
				"y": 1.7746040043,
				"z": 2.6899645328,
				"element": "H" 
			},
			{
				"x": -0.9184961437,
				"y": 1.2687619985,
				"z": 2.3999837072,
				"element": "H" 
			},
			{
				"x": -0.7301908291,
				"y": -0.50563282,
				"z": 4.1167259013,
				"element": "H" 
			},
			{
				"x": -0.2496788018,
				"y": 1.0325853731,
				"z": 4.8284216383,
				"element": "H" 
			},
			{
				"x": 2.1456072517,
				"y": 0.4699407787,
				"z": 4.5453973691,
				"element": "H" 
			},
			{
				"x": 1.3563412681,
				"y": -0.8426148726,
				"z": 5.4137694639,
				"element": "H" 
			},
			{
				"x": 1.3177468635,
				"y": -2.1105936134,
				"z": 3.4468419938,
				"element": "H" 
			},
			{
				"x": 2.699150705,
				"y": 0.0778523304,
				"z": 2.085549804,
				"element": "H" 
			},
			{
				"x": 2.2636108273,
				"y": -1.4841166987,
				"z": 1.39906581,
				"element": "H" 
			},
			{
				"x": -0.8216345954,
				"y": -1.7289232692,
				"z": -0.550176327,
				"element": "H" 
			},
			{
				"x": -0.472340925,
				"y": -3.801645663,
				"z": -1.8563725749,
				"element": "H" 
			},
			{
				"x": -0.2396003731,
				"y": -3.6922627743,
				"z": -4.3276558935,
				"element": "H" 
			},
			{
				"x": -0.3916703453,
				"y": -1.4989294911,
				"z": -5.4889065026,
				"element": "H" 
			},
			{
				"x": -0.7788490016,
				"y": 0.5785437201,
				"z": -4.1654382743,
				"element": "H" 
			}
		],
		 "valence_orbital": [ 
			{
				"type": "occ",
				"energy": -0.26213,
				"method": "rhf"
			},
			{
				"type": "occ",
				"energy": -0.25694,
				"method": "rhf"
			},
			{
				"type": "occ",
				"energy": -0.25291,
				"method": "rhf"
			},
			{
				"type": "occ",
				"energy": -0.23865,
				"method": "rhf"
			},
			{
				"type": "occ",
				"energy": -0.21709,
				"method": "rhf"
			},
			{
				"type": "unocc",
				"energy": -0.03016,
				"method": "rhf"
			},
			{
				"type": "unocc",
				"energy": -0.0074,
				"method": "rhf"
			},
			{
				"type": "unocc",
				"energy": 0.05317,
				"method": "rhf"
			},
			{
				"type": "unocc",
				"energy": 0.06919,
				"method": "rhf"
			},
			{
				"type": "unocc",
				"energy": 0.08495,
				"method": "rhf"
			}
		],
		"cosmo_sigma_profile": { 
			"-0.025": 0.0,
			"-0.024": 0.0,
			"-0.023": 0.0,
			"-0.022": 0.0,
			"-0.021": 0.0,
			"-0.02": 0.0,
			"-0.019": 0.0,
			"-0.018": 0.0,
			"-0.017": 0.0,
			"-0.016": 0.0,
			"-0.015": 0.0,
			"-0.014": 0.0,
			"-0.013": 0.023510540326,
			"-0.012": 0.598866112432,
			"-0.011": 0.774991425307,
			"-0.01": 0.972965390474,
			"-0.009": 2.35803847824,
			"-0.008": 2.70644159988,
			"-0.007": 3.17343950481,
			"-0.006": 9.13881651608,
			"-0.005": 15.8838833373,
			"-0.004": 24.6906878684,
			"-0.003": 31.6836722072,
			"-0.002": 37.7420436418,
			"-0.001": 27.845659356,
			"0.0": 24.5684043671,
			"0.001": 17.5687722204,
			"0.002": 11.8180121239,
			"0.003": 10.9720651801,
			"0.004": 13.1982094617,
			"0.005": 10.6780686309,
			"0.006": 2.22755242893,
			"0.007": 2.36001768009,
			"0.008": 2.30360140832,
			"0.009": 1.99172300416,
			"0.01": 2.831931511,
			"0.011": 1.74656385429,
			"0.012": 2.46458564046,
			"0.013": 4.00068604801,
			"0.014": 6.35397040504,
			"0.015": 1.57246904629,
			"0.016": 0.37486510421,
			"0.017": 0.46051326118,
			"0.018": 0.742930472482,
			"0.019": 0.286454928221,
			"0.02": 0.0,
			"0.021": 0.0,
			"0.022": 0.0,
			"0.023": 0.0,
			"0.024": 0.0,
			"0.025": 0.0
		}
	}
}
