{
	 "smiles": "COC1=C(C=CC=C1)C1(C)NC(=O)N(CC(O)=O)C1=O", 
	 "Tm": 453.15, 
	 "num_atms": 34, 
	 "gaussian": { 
		 "optdone": 1, 
		 "sigma_profile": "yes", 
		 "theory": "DFT", 
		 "functional": "B3LYP", 
		 "basiset": "6-31G**", 
		 "properties": { 
			 "R2extent": 6588.7693, 
			 "electric_dipole_moment_norm": 3.38679473396, 
			 "electric_quadrupole_moment_norm": 28.0659823384, 
			 "total_energy": -989.490934883, 
			 "HOMO_LUMO_gap": 0.21787, 
			 "cosmo_polarized_energy": -19.78, 
			 "cosmo_cavitation_energy": 38.14, 
			 "cosmo_dispersion_energy": -26.14, 
			 "cosmo_repulsion_energy": 2.01, 
			 "cosmo_total_nonelectrostatic_energy": 14.01, 
			 "SMD_solvation_energy": 9.24 
		},
		"coords": [
			{
				"x": 0.3815916069,
				"y": 0.0794215365,
				"z": -4.0304257871,
				"element": "C" 
			},
			{
				"x": 0.2478101124,
				"y": -0.3126096231,
				"z": -2.6697761017,
				"element": "O" 
			},
			{
				"x": 0.3199762005,
				"y": -1.6507574918,
				"z": -2.3557116789,
				"element": "C" 
			},
			{
				"x": 0.1297902127,
				"y": -1.9883401201,
				"z": -0.9952751267,
				"element": "C" 
			},
			{
				"x": 0.1652681085,
				"y": -3.3404070408,
				"z": -0.6457322094,
				"element": "C" 
			},
			{
				"x": 0.4034949799,
				"y": -4.3366066317,
				"z": -1.5967648908,
				"element": "C" 
			},
			{
				"x": 0.6065230418,
				"y": -3.9842900193,
				"z": -2.9259002479,
				"element": "C" 
			},
			{
				"x": 0.5631988125,
				"y": -2.641809401,
				"z": -3.3098689861,
				"element": "C" 
			},
			{
				"x": -0.1585411031,
				"y": -0.8854178635,
				"z": 0.0365960847,
				"element": "C" 
			},
			{
				"x": -1.6154706378,
				"y": -0.3863598614,
				"z": -0.0740005971,
				"element": "C" 
			},
			{
				"x": 0.8034086589,
				"y": 0.2171146729,
				"z": -0.0484456404,
				"element": "N" 
			},
			{
				"x": 1.5634775171,
				"y": 0.3872415842,
				"z": 1.065978841,
				"element": "C" 
			},
			{
				"x": 2.4616416526,
				"y": 1.1787121603,
				"z": 1.2790375238,
				"element": "O" 
			},
			{
				"x": 1.1039060807,
				"y": -0.5812421623,
				"z": 1.9971896301,
				"element": "N" 
			},
			{
				"x": 1.4896791126,
				"y": -0.562962335,
				"z": 3.381675332,
				"element": "C" 
			},
			{
				"x": 0.5384175981,
				"y": 0.2926735471,
				"z": 4.21206228,
				"element": "C" 
			},
			{
				"x": 0.8877462671,
				"y": 0.2540289235,
				"z": 5.5155417976,
				"element": "O" 
			},
			{
				"x": -0.3954091908,
				"y": 0.9260238994,
				"z": 3.781716042,
				"element": "O" 
			},
			{
				"x": 0.0756946318,
				"y": -1.3445443507,
				"z": 1.4957997829,
				"element": "C" 
			},
			{
				"x": -0.5423248679,
				"y": -2.194278165,
				"z": 2.1104100458,
				"element": "O" 
			},
			{
				"x": 0.2618440097,
				"y": 1.1636352243,
				"z": -4.0429853198,
				"element": "H" 
			},
			{
				"x": -0.393898174,
				"y": -0.378124568,
				"z": -4.6560006272,
				"element": "H" 
			},
			{
				"x": 1.3695176002,
				"y": -0.1804820952,
				"z": -4.4294084936,
				"element": "H" 
			},
			{
				"x": -0.0120901265,
				"y": -3.6177397143,
				"z": 0.3867183175,
				"element": "H" 
			},
			{
				"x": 0.427374288,
				"y": -5.3780410755,
				"z": -1.2919301029,
				"element": "H" 
			},
			{
				"x": 0.7957046632,
				"y": -4.7460882611,
				"z": -3.6765373465,
				"element": "H" 
			},
			{
				"x": 0.7176395626,
				"y": -2.3790434109,
				"z": -4.3492002816,
				"element": "H" 
			},
			{
				"x": -2.298834992,
				"y": -1.2133105237,
				"z": 0.1332706426,
				"element": "H" 
			},
			{
				"x": -1.8036565191,
				"y": -0.004603783,
				"z": -1.0795378854,
				"element": "H" 
			},
			{
				"x": -1.7932331425,
				"y": 0.4115251473,
				"z": 0.6526756913,
				"element": "H" 
			},
			{
				"x": 1.0237015914,
				"y": 0.6656394395,
				"z": -0.923230906,
				"element": "H" 
			},
			{
				"x": 2.4980856017,
				"y": -0.1471542956,
				"z": 3.4559323166,
				"element": "H" 
			},
			{
				"x": 1.4935767782,
				"y": -1.5809012972,
				"z": 3.7795532159,
				"element": "H" 
			},
			{
				"x": 0.2541900646,
				"y": 0.8187979552,
				"z": 5.9891746852,
				"element": "H" 
			}
		],
		 "valence_orbital": [ 
			{
				"type": "occ",
				"energy": -0.27155,
				"method": "rhf"
			},
			{
				"type": "occ",
				"energy": -0.26508,
				"method": "rhf"
			},
			{
				"type": "occ",
				"energy": -0.25542,
				"method": "rhf"
			},
			{
				"type": "occ",
				"energy": -0.25217,
				"method": "rhf"
			},
			{
				"type": "occ",
				"energy": -0.2317,
				"method": "rhf"
			},
			{
				"type": "unocc",
				"energy": -0.01383,
				"method": "rhf"
			},
			{
				"type": "unocc",
				"energy": -0.0066,
				"method": "rhf"
			},
			{
				"type": "unocc",
				"energy": 0.00426,
				"method": "rhf"
			},
			{
				"type": "unocc",
				"energy": 0.00591,
				"method": "rhf"
			},
			{
				"type": "unocc",
				"energy": 0.06097,
				"method": "rhf"
			}
		],
		"cosmo_sigma_profile": { 
			"-0.025": 0.0,
			"-0.024": 0.0,
			"-0.023": 0.0,
			"-0.022": 0.0,
			"-0.021": 0.0,
			"-0.02": 0.0,
			"-0.019": 0.330328682727,
			"-0.018": 1.00507683313,
			"-0.017": 1.17394439307,
			"-0.016": 0.938833346366,
			"-0.015": 0.630508245419,
			"-0.014": 0.548328894194,
			"-0.013": 0.191178134117,
			"-0.012": 1.7437758323,
			"-0.011": 1.72642645361,
			"-0.01": 1.23414569664,
			"-0.009": 1.90543958683,
			"-0.008": 4.20301008979,
			"-0.007": 7.53028444402,
			"-0.006": 15.2681184465,
			"-0.005": 20.963045395,
			"-0.004": 26.6924804112,
			"-0.003": 25.4024288554,
			"-0.002": 22.2714557525,
			"-0.001": 23.0665491423,
			"0.0": 22.2476520298,
			"0.001": 15.0267211464,
			"0.002": 16.6105477439,
			"0.003": 14.3072477117,
			"0.004": 15.1826193751,
			"0.005": 13.451250534,
			"0.006": 7.32718354383,
			"0.007": 5.31811549318,
			"0.008": 5.93528230999,
			"0.009": 4.94273102317,
			"0.01": 6.45972422621,
			"0.011": 8.05079145704,
			"0.012": 7.11553980149,
			"0.013": 3.53099131061,
			"0.014": 0.362073927287,
			"0.015": 0.0,
			"0.016": 0.0,
			"0.017": 0.0,
			"0.018": 0.0,
			"0.019": 0.0,
			"0.02": 0.0,
			"0.021": 0.0,
			"0.022": 0.0,
			"0.023": 0.0,
			"0.024": 0.0,
			"0.025": 0.0
		}
	}
}
