{
	 "smiles": "NCCOP(O)(O)=O", 
	 "Tm": 515.15, 
	 "num_atms": 16, 
	 "gaussian": { 
		 "optdone": 1, 
		 "sigma_profile": "yes", 
		 "theory": "DFT", 
		 "functional": "B3LYP", 
		 "basiset": "6-31G**", 
		 "properties": { 
			 "R2extent": 1526.8527, 
			 "electric_dipole_moment_norm": 3.13460854972, 
			 "electric_quadrupole_moment_norm": 10.5091793857, 
			 "total_energy": -778.111506368, 
			 "HOMO_LUMO_gap": 0.27102, 
			 "cosmo_polarized_energy": -19.99, 
			 "cosmo_cavitation_energy": 21.73, 
			 "cosmo_dispersion_energy": -16.17, 
			 "cosmo_repulsion_energy": 1.38, 
			 "cosmo_total_nonelectrostatic_energy": 6.93, 
			 "SMD_solvation_energy": 5.09 
		},
		"coords": [
			{
				"x": -1.1147344529,
				"y": -2.5241287311,
				"z": -0.0889910542,
				"element": "N" 
			},
			{
				"x": -1.9724411804,
				"y": -1.3539163952,
				"z": -0.2309869006,
				"element": "C" 
			},
			{
				"x": -1.2656235781,
				"y": -0.0010312003,
				"z": -0.2041311235,
				"element": "C" 
			},
			{
				"x": -0.6209931166,
				"y": 0.1332928974,
				"z": 1.0912559236,
				"element": "O" 
			},
			{
				"x": 0.651329679,
				"y": 1.1024471866,
				"z": 1.2373358237,
				"element": "P" 
			},
			{
				"x": -0.0478001953,
				"y": 2.5642821796,
				"z": 1.1192883656,
				"element": "O" 
			},
			{
				"x": 0.9964711109,
				"y": 0.8975900152,
				"z": 2.7933715252,
				"element": "O" 
			},
			{
				"x": 1.8048723292,
				"y": 0.9086731815,
				"z": 0.3395686721,
				"element": "O" 
			},
			{
				"x": -0.43808133,
				"y": -2.5579424215,
				"z": -0.8486316041,
				"element": "H" 
			},
			{
				"x": -0.5748255939,
				"y": -2.440705859,
				"z": 0.7691294122,
				"element": "H" 
			},
			{
				"x": -2.5238434049,
				"y": -1.4257496114,
				"z": -1.1767954037,
				"element": "H" 
			},
			{
				"x": -2.7204469588,
				"y": -1.3728975264,
				"z": 0.5707587234,
				"element": "H" 
			},
			{
				"x": -0.5027029554,
				"y": 0.0561560641,
				"z": -0.9890910264,
				"element": "H" 
			},
			{
				"x": -1.971335546,
				"y": 0.8284071312,
				"z": -0.3274344799,
				"element": "H" 
			},
			{
				"x": 0.5877696727,
				"y": 3.2046303187,
				"z": 0.7686718968,
				"element": "H" 
			},
			{
				"x": 0.2095855203,
				"y": 0.9309927704,
				"z": 3.35588125,
				"element": "H" 
			}
		],
		 "valence_orbital": [ 
			{
				"type": "occ",
				"energy": -0.34652,
				"method": "rhf"
			},
			{
				"type": "occ",
				"energy": -0.32733,
				"method": "rhf"
			},
			{
				"type": "occ",
				"energy": -0.3031,
				"method": "rhf"
			},
			{
				"type": "occ",
				"energy": -0.2948,
				"method": "rhf"
			},
			{
				"type": "occ",
				"energy": -0.24108,
				"method": "rhf"
			},
			{
				"type": "unocc",
				"energy": 0.02994,
				"method": "rhf"
			},
			{
				"type": "unocc",
				"energy": 0.07149,
				"method": "rhf"
			},
			{
				"type": "unocc",
				"energy": 0.08294,
				"method": "rhf"
			},
			{
				"type": "unocc",
				"energy": 0.10491,
				"method": "rhf"
			},
			{
				"type": "unocc",
				"energy": 0.10987,
				"method": "rhf"
			}
		],
		"cosmo_sigma_profile": { 
			"-0.025": 0.0,
			"-0.024": 0.0,
			"-0.023": 0.0,
			"-0.022": 0.0,
			"-0.021": 0.0,
			"-0.02": 0.422801849387,
			"-0.019": 1.72324714331,
			"-0.018": 2.04342562171,
			"-0.017": 1.62019238576,
			"-0.016": 1.85351142223,
			"-0.015": 1.63644362465,
			"-0.014": 1.33024266353,
			"-0.013": 0.609662402646,
			"-0.012": 1.46561276162,
			"-0.011": 1.97658209598,
			"-0.01": 2.64536968015,
			"-0.009": 2.86029293649,
			"-0.008": 3.60647457414,
			"-0.007": 5.54679778698,
			"-0.006": 7.53125492613,
			"-0.005": 12.2626107893,
			"-0.004": 13.1178982331,
			"-0.003": 10.5686991147,
			"-0.002": 8.26310271923,
			"-0.001": 7.21483995417,
			"0.0": 5.50330393343,
			"0.001": 6.57683948523,
			"0.002": 5.57507698072,
			"0.003": 5.84923338049,
			"0.004": 6.11321795033,
			"0.005": 4.92702352899,
			"0.006": 3.42604192226,
			"0.007": 4.31335352921,
			"0.008": 5.13982362084,
			"0.009": 4.82959477791,
			"0.01": 4.43730078366,
			"0.011": 3.638015027,
			"0.012": 1.86496908118,
			"0.013": 3.20542289295,
			"0.014": 8.37546694658,
			"0.015": 1.70198253045,
			"0.016": 0.553047436116,
			"0.017": 0.545666207433,
			"0.018": 0.680248960439,
			"0.019": 0.671552881267,
			"0.02": 0.123156032264,
			"0.021": 0.0,
			"0.022": 0.0,
			"0.023": 0.0,
			"0.024": 0.0,
			"0.025": 0.0
		}
	}
}
