{
	 "smiles": "FC1CCCCC1", 
	 "Tm": 286.15, 
	 "num_atms": 18, 
	 "gaussian": { 
		 "optdone": 1, 
		 "sigma_profile": "yes", 
		 "theory": "DFT", 
		 "functional": "B3LYP", 
		 "basiset": "6-31G**", 
		 "properties": { 
			 "R2extent": 792.568, 
			 "electric_dipole_moment_norm": 1.54813404135, 
			 "electric_quadrupole_moment_norm": 3.36119717958, 
			 "total_energy": -335.125268884, 
			 "HOMO_LUMO_gap": 0.37541, 
			 "cosmo_polarized_energy": -2.58, 
			 "cosmo_cavitation_energy": 18.85, 
			 "cosmo_dispersion_energy": -14.49, 
			 "cosmo_repulsion_energy": 1.21, 
			 "cosmo_total_nonelectrostatic_energy": 5.57, 
			 "SMD_solvation_energy": 2.77 
		},
		"coords": [
			{
				"x": -1.6257968151,
				"y": 1.0674575255,
				"z": 1.2336913539,
				"element": "F" 
			},
			{
				"x": -1.54450911,
				"y": 0.1404154681,
				"z": 0.1762186733,
				"element": "C" 
			},
			{
				"x": -1.211427116,
				"y": -1.226011686,
				"z": 0.7715923765,
				"element": "C" 
			},
			{
				"x": 0.1859971365,
				"y": -1.2357877134,
				"z": 1.4110383141,
				"element": "C" 
			},
			{
				"x": 1.2612484294,
				"y": -0.7651068963,
				"z": 0.4185102119,
				"element": "C" 
			},
			{
				"x": 0.9200701468,
				"y": 0.6182248803,
				"z": -0.1583353792,
				"element": "C" 
			},
			{
				"x": -0.476546719,
				"y": 0.6303604286,
				"z": -0.7995388583,
				"element": "C" 
			},
			{
				"x": -2.5316985023,
				"y": 0.124893457,
				"z": -0.3039367654,
				"element": "H" 
			},
			{
				"x": -1.9788788829,
				"y": -1.4933846277,
				"z": 1.5065544242,
				"element": "H" 
			},
			{
				"x": -1.2641462361,
				"y": -1.9718623511,
				"z": -0.0333179118,
				"element": "H" 
			},
			{
				"x": 0.1766369356,
				"y": -0.5664249482,
				"z": 2.279757178,
				"element": "H" 
			},
			{
				"x": 0.4194947424,
				"y": -2.2391160204,
				"z": 1.7852369927,
				"element": "H" 
			},
			{
				"x": 1.3413110036,
				"y": -1.4922204922,
				"z": -0.4029892671,
				"element": "H" 
			},
			{
				"x": 2.2422736272,
				"y": -0.7396373042,
				"z": 0.9075293266,
				"element": "H" 
			},
			{
				"x": 1.6723761479,
				"y": 0.925452646,
				"z": -0.8937678311,
				"element": "H" 
			},
			{
				"x": 0.9403654615,
				"y": 1.3621088837,
				"z": 0.6472939389,
				"element": "H" 
			},
			{
				"x": -0.7396341808,
				"y": 1.6370844611,
				"z": -1.1429535475,
				"element": "H" 
			},
			{
				"x": -0.4932360689,
				"y": -0.0242457109,
				"z": -1.6816832297,
				"element": "H" 
			}
		],
		 "valence_orbital": [ 
			{
				"type": "occ",
				"energy": -0.34133,
				"method": "rhf"
			},
			{
				"type": "occ",
				"energy": -0.33052,
				"method": "rhf"
			},
			{
				"type": "occ",
				"energy": -0.31926,
				"method": "rhf"
			},
			{
				"type": "occ",
				"energy": -0.29573,
				"method": "rhf"
			},
			{
				"type": "occ",
				"energy": -0.29434,
				"method": "rhf"
			},
			{
				"type": "unocc",
				"energy": 0.08107,
				"method": "rhf"
			},
			{
				"type": "unocc",
				"energy": 0.11352,
				"method": "rhf"
			},
			{
				"type": "unocc",
				"energy": 0.12616,
				"method": "rhf"
			},
			{
				"type": "unocc",
				"energy": 0.13914,
				"method": "rhf"
			},
			{
				"type": "unocc",
				"energy": 0.14778,
				"method": "rhf"
			}
		],
		"cosmo_sigma_profile": { 
			"-0.025": 0.0,
			"-0.024": 0.0,
			"-0.023": 0.0,
			"-0.022": 0.0,
			"-0.021": 0.0,
			"-0.02": 0.0,
			"-0.019": 0.0,
			"-0.018": 0.0,
			"-0.017": 0.0,
			"-0.016": 0.0,
			"-0.015": 0.0,
			"-0.014": 0.0,
			"-0.013": 0.0,
			"-0.012": 0.0,
			"-0.011": 0.0,
			"-0.01": 0.0,
			"-0.009": 0.0,
			"-0.008": 0.0,
			"-0.007": 0.0,
			"-0.006": 0.0,
			"-0.005": 1.01071402337,
			"-0.004": 6.04311364752,
			"-0.003": 16.6900424523,
			"-0.002": 23.6092839282,
			"-0.001": 25.3737252784,
			"0.0": 28.2656818419,
			"0.001": 17.7059373758,
			"0.002": 5.08915949066,
			"0.003": 2.71584301741,
			"0.004": 2.68639497518,
			"0.005": 2.22079325935,
			"0.006": 3.15034943788,
			"0.007": 7.92999280768,
			"0.008": 2.57387391439,
			"0.009": 0.0,
			"0.01": 0.0,
			"0.011": 0.0,
			"0.012": 0.0,
			"0.013": 0.0,
			"0.014": 0.0,
			"0.015": 0.0,
			"0.016": 0.0,
			"0.017": 0.0,
			"0.018": 0.0,
			"0.019": 0.0,
			"0.02": 0.0,
			"0.021": 0.0,
			"0.022": 0.0,
			"0.023": 0.0,
			"0.024": 0.0,
			"0.025": 0.0
		}
	}
}
