{
	 "smiles": "CN1C(=O)C(C2=NNC(=O)C2=C2C(=O)NC3=C2C=CC=C3)=C(O)C2=CC=CC=C12", 
	 "Tm": 552.15, 
	 "num_atms": 43, 
	 "gaussian": { 
		 "optdone": 1, 
		 "sigma_profile": "yes", 
		 "theory": "DFT", 
		 "functional": "B3LYP", 
		 "basiset": "6-31G**", 
		 "properties": { 
			 "R2extent": 11951.1998, 
			 "electric_dipole_moment_norm": 4.6755342283, 
			 "electric_quadrupole_moment_norm": 16.4330395445, 
			 "total_energy": -1328.57406028, 
			 "HOMO_LUMO_gap": 0.10018, 
			 "cosmo_polarized_energy": -29.33, 
			 "cosmo_cavitation_energy": 46.97, 
			 "cosmo_dispersion_energy": -33.47, 
			 "cosmo_repulsion_energy": 2.45, 
			 "cosmo_total_nonelectrostatic_energy": 15.95, 
			 "SMD_solvation_energy": 8.03 
		},
		"coords": [
			{
				"x": -1.3893207945,
				"y": 3.3841326558,
				"z": -0.0003159066,
				"element": "C" 
			},
			{
				"x": -0.4805362966,
				"y": 2.3598172687,
				"z": -0.5114465375,
				"element": "N" 
			},
			{
				"x": -1.028629219,
				"y": 1.0818147733,
				"z": -0.7393542737,
				"element": "C" 
			},
			{
				"x": -2.2212356462,
				"y": 0.8647884455,
				"z": -0.5203510611,
				"element": "O" 
			},
			{
				"x": -0.1141055962,
				"y": 0.0505753355,
				"z": -1.2173196537,
				"element": "C" 
			},
			{
				"x": -0.6855505946,
				"y": -1.287029877,
				"z": -1.4722938799,
				"element": "C" 
			},
			{
				"x": -0.5844828977,
				"y": -1.7626228624,
				"z": -2.6875622958,
				"element": "N" 
			},
			{
				"x": -1.2398729421,
				"y": -2.9623985464,
				"z": -2.7250069774,
				"element": "N" 
			},
			{
				"x": -1.9201561828,
				"y": -3.2702640037,
				"z": -1.5670166843,
				"element": "C" 
			},
			{
				"x": -2.6294109762,
				"y": -4.2577345269,
				"z": -1.4176060712,
				"element": "O" 
			},
			{
				"x": -1.504188351,
				"y": -2.169017137,
				"z": -0.6241047984,
				"element": "C" 
			},
			{
				"x": -1.8128293663,
				"y": -2.1118744369,
				"z": 0.7089357656,
				"element": "C" 
			},
			{
				"x": -1.0867100683,
				"y": -1.1868298898,
				"z": 1.6860047211,
				"element": "C" 
			},
			{
				"x": -0.0939873013,
				"y": -0.5034630191,
				"z": 1.5144168809,
				"element": "O" 
			},
			{
				"x": -1.7309748086,
				"y": -1.3387914421,
				"z": 2.8993314843,
				"element": "N" 
			},
			{
				"x": -2.7233279473,
				"y": -2.3125806174,
				"z": 2.8381777923,
				"element": "C" 
			},
			{
				"x": -2.7934978733,
				"y": -2.8332417653,
				"z": 1.5179706716,
				"element": "C" 
			},
			{
				"x": -3.7551252381,
				"y": -3.8166152968,
				"z": 1.2393235497,
				"element": "C" 
			},
			{
				"x": -4.5966555403,
				"y": -4.2606891451,
				"z": 2.2620727326,
				"element": "C" 
			},
			{
				"x": -4.4975008856,
				"y": -3.7356810086,
				"z": 3.5533275019,
				"element": "C" 
			},
			{
				"x": -3.5557819985,
				"y": -2.7455479173,
				"z": 3.858757877,
				"element": "C" 
			},
			{
				"x": 1.2037157526,
				"y": 0.3267065916,
				"z": -1.4400899855,
				"element": "C" 
			},
			{
				"x": 2.0330790447,
				"y": -0.6712785091,
				"z": -1.8386057867,
				"element": "O" 
			},
			{
				"x": 1.7243583688,
				"y": 1.6654689916,
				"z": -1.2520533912,
				"element": "C" 
			},
			{
				"x": 3.0555430001,
				"y": 2.0094442016,
				"z": -1.5520719942,
				"element": "C" 
			},
			{
				"x": 3.5407459285,
				"y": 3.2899375769,
				"z": -1.3348304536,
				"element": "C" 
			},
			{
				"x": 2.6810971195,
				"y": 4.2641760459,
				"z": -0.8139353907,
				"element": "C" 
			},
			{
				"x": 1.3548693005,
				"y": 3.9639086262,
				"z": -0.5334036552,
				"element": "C" 
			},
			{
				"x": 0.8481015377,
				"y": 2.6673291475,
				"z": -0.7559563631,
				"element": "C" 
			},
			{
				"x": -1.0509272587,
				"y": 3.7489165867,
				"z": 0.9747325353,
				"element": "H" 
			},
			{
				"x": -1.4562101829,
				"y": 4.226364674,
				"z": -0.6963120636,
				"element": "H" 
			},
			{
				"x": -2.3662493479,
				"y": 2.9170792774,
				"z": 0.1023660509,
				"element": "H" 
			},
			{
				"x": -1.3661599599,
				"y": -3.4313061225,
				"z": -3.6085989379,
				"element": "H" 
			},
			{
				"x": -1.3958208183,
				"y": -0.8865749274,
				"z": 3.7360425442,
				"element": "H" 
			},
			{
				"x": -3.8198316131,
				"y": -4.2304246486,
				"z": 0.2431556478,
				"element": "H" 
			},
			{
				"x": -5.3351595957,
				"y": -5.0265311281,
				"z": 2.0475694186,
				"element": "H" 
			},
			{
				"x": -5.1601250767,
				"y": -4.0954270484,
				"z": 4.3353424222,
				"element": "H" 
			},
			{
				"x": -3.4821084467,
				"y": -2.328734221,
				"z": 4.8584503213,
				"element": "H" 
			},
			{
				"x": 2.9457178761,
				"y": -0.4268771318,
				"z": -1.6391482956,
				"element": "H" 
			},
			{
				"x": 3.718773595,
				"y": 1.2706654275,
				"z": -1.9949398592,
				"element": "H" 
			},
			{
				"x": 4.5703530123,
				"y": 3.5333481846,
				"z": -1.575310822,
				"element": "H" 
			},
			{
				"x": 3.0456715288,
				"y": 5.2712553653,
				"z": -0.6344534224,
				"element": "H" 
			},
			{
				"x": 0.7080467596,
				"y": 4.7391060532,
				"z": -0.1438893567,
				"element": "H" 
			}
		],
		 "valence_orbital": [ 
			{
				"type": "occ",
				"energy": -0.24727,
				"method": "rhf"
			},
			{
				"type": "occ",
				"energy": -0.23605,
				"method": "rhf"
			},
			{
				"type": "occ",
				"energy": -0.22581,
				"method": "rhf"
			},
			{
				"type": "occ",
				"energy": -0.21354,
				"method": "rhf"
			},
			{
				"type": "occ",
				"energy": -0.20673,
				"method": "rhf"
			},
			{
				"type": "unocc",
				"energy": -0.10655,
				"method": "rhf"
			},
			{
				"type": "unocc",
				"energy": -0.0487,
				"method": "rhf"
			},
			{
				"type": "unocc",
				"energy": -0.00949,
				"method": "rhf"
			},
			{
				"type": "unocc",
				"energy": -0.00402,
				"method": "rhf"
			},
			{
				"type": "unocc",
				"energy": 0.01438,
				"method": "rhf"
			}
		],
		"cosmo_sigma_profile": { 
			"-0.025": 0.0,
			"-0.024": 0.0,
			"-0.023": 0.0,
			"-0.022": 0.0,
			"-0.021": 0.0,
			"-0.02": 0.0,
			"-0.019": 0.182294312805,
			"-0.018": 1.01533490666,
			"-0.017": 1.11297961806,
			"-0.016": 3.40443718751,
			"-0.015": 3.67760887535,
			"-0.014": 2.55486990138,
			"-0.013": 3.29261448969,
			"-0.012": 3.49626542983,
			"-0.011": 2.65193346867,
			"-0.01": 3.22018561492,
			"-0.009": 2.8087196723,
			"-0.008": 3.07806520506,
			"-0.007": 9.06871710649,
			"-0.006": 19.6467637712,
			"-0.005": 24.1630012654,
			"-0.004": 22.4610627037,
			"-0.003": 21.8389856443,
			"-0.002": 23.796458644,
			"-0.001": 23.9303385397,
			"0.0": 24.2076004913,
			"0.001": 24.2561268703,
			"0.002": 27.4716899339,
			"0.003": 29.4754190203,
			"0.004": 25.245095558,
			"0.005": 10.2949303387,
			"0.006": 7.74489807414,
			"0.007": 6.7311677761,
			"0.008": 8.88814818212,
			"0.009": 7.63571314399,
			"0.01": 7.34681851715,
			"0.011": 7.68240121234,
			"0.012": 7.13362944608,
			"0.013": 5.76394456722,
			"0.014": 2.70626502425,
			"0.015": 0.0,
			"0.016": 0.0,
			"0.017": 0.0,
			"0.018": 0.0,
			"0.019": 0.0,
			"0.02": 0.0,
			"0.021": 0.0,
			"0.022": 0.0,
			"0.023": 0.0,
			"0.024": 0.0,
			"0.025": 0.0
		}
	}
}
