{
	 "smiles": "FC(F)(F)C(F)(F)C(F)(F)C(F)(F)N(C(F)(F)C(F)(F)C(F)(F)C(F)(F)F)C(F)(F)C(F)(F)C(F)(F)C(F)(F)F", 
	 "Tm": 223.15, 
	 "num_atms": 40, 
	 "gaussian": { 
		 "optdone": 1, 
		 "sigma_profile": "yes", 
		 "theory": "DFT", 
		 "functional": "B3LYP", 
		 "basiset": "6-31G**", 
		 "properties": { 
			 "R2extent": 17753.5405, 
			 "electric_dipole_moment_norm": 0.214326060011, 
			 "electric_quadrupole_moment_norm": 1.90123571658, 
			 "total_energy": -3207.60536855, 
			 "HOMO_LUMO_gap": 0.3451, 
			 "cosmo_polarized_energy": -2.02, 
			 "cosmo_cavitation_energy": 49.96, 
			 "cosmo_dispersion_energy": -31.78, 
			 "cosmo_repulsion_energy": 1.89, 
			 "cosmo_total_nonelectrostatic_energy": 20.07, 
			 "SMD_solvation_energy": 16.06 
		},
		"coords": [
			{
				"x": 1.4960570734,
				"y": -0.9168529825,
				"z": 4.4301620076,
				"element": "F" 
			},
			{
				"x": 0.8209050911,
				"y": -1.9859799519,
				"z": 3.9883633979,
				"element": "C" 
			},
			{
				"x": 1.690416757,
				"y": -2.9081012789,
				"z": 3.5591931221,
				"element": "F" 
			},
			{
				"x": 0.112376567,
				"y": -2.4941674521,
				"z": 5.0023638519,
				"element": "F" 
			},
			{
				"x": -0.1522987316,
				"y": -1.5844918345,
				"z": 2.8530656669,
				"element": "C" 
			},
			{
				"x": -0.9273786971,
				"y": -2.6638421389,
				"z": 2.5949027775,
				"element": "F" 
			},
			{
				"x": -0.933570337,
				"y": -0.5788330431,
				"z": 3.3034294961,
				"element": "F" 
			},
			{
				"x": 0.4648275955,
				"y": -1.1636516673,
				"z": 1.485893679,
				"element": "C" 
			},
			{
				"x": -0.5790116761,
				"y": -0.8816011939,
				"z": 0.6790554341,
				"element": "F" 
			},
			{
				"x": 1.1262097726,
				"y": -2.2273175669,
				"z": 0.9737313415,
				"element": "F" 
			},
			{
				"x": 1.4748614871,
				"y": 0.0328296143,
				"z": 1.5099620446,
				"element": "C" 
			},
			{
				"x": 2.6249265752,
				"y": -0.4759155261,
				"z": 1.9959002419,
				"element": "F" 
			},
			{
				"x": 1.0674520928,
				"y": 0.9702191669,
				"z": 2.3941244358,
				"element": "F" 
			},
			{
				"x": 1.7120762087,
				"y": 0.6039375877,
				"z": 0.1751711977,
				"element": "N" 
			},
			{
				"x": 0.7773433361,
				"y": 1.6486837784,
				"z": -0.2724680695,
				"element": "C" 
			},
			{
				"x": -0.2998538977,
				"y": 1.6544482568,
				"z": 0.5365666786,
				"element": "F" 
			},
			{
				"x": 1.3503993293,
				"y": 2.8739209726,
				"z": -0.189274788,
				"element": "F" 
			},
			{
				"x": 0.1789494385,
				"y": 1.4597406666,
				"z": -1.7183004641,
				"element": "C" 
			},
			{
				"x": 1.1070155347,
				"y": 1.0508448429,
				"z": -2.6049025945,
				"element": "F" 
			},
			{
				"x": -0.7781162514,
				"y": 0.5074118525,
				"z": -1.635756331,
				"element": "F" 
			},
			{
				"x": -0.4604907781,
				"y": 2.7631492458,
				"z": -2.2818439332,
				"element": "C" 
			},
			{
				"x": 0.5333086986,
				"y": 3.5888836027,
				"z": -2.6748173653,
				"element": "F" 
			},
			{
				"x": -1.1935289659,
				"y": 3.3690975397,
				"z": -1.3197676744,
				"element": "F" 
			},
			{
				"x": -1.395189745,
				"y": 2.5326794063,
				"z": -3.500136015,
				"element": "C" 
			},
			{
				"x": -2.5207636452,
				"y": 1.9210685824,
				"z": -3.1185427507,
				"element": "F" 
			},
			{
				"x": -0.7823351667,
				"y": 1.7880415005,
				"z": -4.4296808499,
				"element": "F" 
			},
			{
				"x": -1.7073700085,
				"y": 3.7197766397,
				"z": -4.0325534525,
				"element": "F" 
			},
			{
				"x": 3.103295333,
				"y": 0.7093511538,
				"z": -0.2763745561,
				"element": "C" 
			},
			{
				"x": 3.162995553,
				"y": 1.5755252749,
				"z": -1.3073997323,
				"element": "F" 
			},
			{
				"x": 3.8838326845,
				"y": 1.2170813751,
				"z": 0.7077329598,
				"element": "F" 
			},
			{
				"x": 3.8329357681,
				"y": -0.60119159,
				"z": -0.7815745165,
				"element": "C" 
			},
			{
				"x": 5.1190335051,
				"y": -0.2084277291,
				"z": -0.9459829295,
				"element": "F" 
			},
			{
				"x": 3.7975810345,
				"y": -1.5797658576,
				"z": 0.1475601435,
				"element": "F" 
			},
			{
				"x": 3.4274864549,
				"y": -1.260021769,
				"z": -2.1428822766,
				"element": "C" 
			},
			{
				"x": 3.292886519,
				"y": -0.3182840979,
				"z": -3.0985538439,
				"element": "F" 
			},
			{
				"x": 4.4653266503,
				"y": -2.0658181178,
				"z": -2.4766719432,
				"element": "F" 
			},
			{
				"x": 2.1727340754,
				"y": -2.1718822162,
				"z": -2.163890091,
				"element": "C" 
			},
			{
				"x": 1.9578961196,
				"y": -2.5649236823,
				"z": -3.4240061596,
				"element": "F" 
			},
			{
				"x": 1.0829608492,
				"y": -1.5227524554,
				"z": -1.7281256434,
				"element": "F" 
			},
			{
				"x": 2.3667177961,
				"y": -3.2500689084,
				"z": -1.399672496,
				"element": "F" 
			}
		],
		 "valence_orbital": [ 
			{
				"type": "occ",
				"energy": -0.39885,
				"method": "rhf"
			},
			{
				"type": "occ",
				"energy": -0.37442,
				"method": "rhf"
			},
			{
				"type": "occ",
				"energy": -0.36596,
				"method": "rhf"
			},
			{
				"type": "occ",
				"energy": -0.35894,
				"method": "rhf"
			},
			{
				"type": "occ",
				"energy": -0.33997,
				"method": "rhf"
			},
			{
				"type": "unocc",
				"energy": 0.00513,
				"method": "rhf"
			},
			{
				"type": "unocc",
				"energy": 0.00996,
				"method": "rhf"
			},
			{
				"type": "unocc",
				"energy": 0.02452,
				"method": "rhf"
			},
			{
				"type": "unocc",
				"energy": 0.0309,
				"method": "rhf"
			},
			{
				"type": "unocc",
				"energy": 0.03359,
				"method": "rhf"
			}
		],
		"cosmo_sigma_profile": { 
			"-0.025": 0.0,
			"-0.024": 0.0,
			"-0.023": 0.0,
			"-0.022": 0.0,
			"-0.021": 0.0,
			"-0.02": 0.0,
			"-0.019": 0.0,
			"-0.018": 0.0,
			"-0.017": 0.0,
			"-0.016": 0.0,
			"-0.015": 0.0,
			"-0.014": 0.0,
			"-0.013": 0.0,
			"-0.012": 0.00159375566485,
			"-0.011": 0.00564521216391,
			"-0.01": 0.00113949617123,
			"-0.009": 0.0,
			"-0.008": 0.0,
			"-0.007": 0.104273135687,
			"-0.006": 2.67300989961,
			"-0.005": 5.28719327546,
			"-0.004": 0.263676228144,
			"-0.003": 10.8092318201,
			"-0.002": 28.148836338,
			"-0.001": 51.3449481548,
			"0.0": 124.689672742,
			"0.001": 167.912007113,
			"0.002": 11.1371146716,
			"0.003": 0.0,
			"0.004": 0.0,
			"0.005": 0.0,
			"0.006": 0.0,
			"0.007": 0.0,
			"0.008": 0.0,
			"0.009": 0.0,
			"0.01": 0.0,
			"0.011": 0.0,
			"0.012": 0.0,
			"0.013": 0.0,
			"0.014": 0.0,
			"0.015": 0.0,
			"0.016": 0.0,
			"0.017": 0.0,
			"0.018": 0.0,
			"0.019": 0.0,
			"0.02": 0.0,
			"0.021": 0.0,
			"0.022": 0.0,
			"0.023": 0.0,
			"0.024": 0.0,
			"0.025": 0.0
		}
	}
}
