{
	 "smiles": "COC1=CC=C(C=C1)C1=NN(C=C1C=O)C1=CC=CC=C1", 
	 "Tm": 409.15, 
	 "num_atms": 35, 
	 "gaussian": { 
		 "optdone": 1, 
		 "sigma_profile": "yes", 
		 "theory": "DFT", 
		 "functional": "B3LYP", 
		 "basiset": "6-31G**", 
		 "properties": { 
			 "R2extent": 9076.1969, 
			 "electric_dipole_moment_norm": 2.14191271064, 
			 "electric_quadrupole_moment_norm": 33.5682695769, 
			 "total_energy": -916.16422964, 
			 "HOMO_LUMO_gap": 0.16053, 
			 "cosmo_polarized_energy": -14.19, 
			 "cosmo_cavitation_energy": 40.18, 
			 "cosmo_dispersion_energy": -28.86, 
			 "cosmo_repulsion_energy": 2.18, 
			 "cosmo_total_nonelectrostatic_energy": 13.49, 
			 "SMD_solvation_energy": 7.98 
		},
		"coords": [
			{
				"x": -1.8046404198,
				"y": 1.3337287378,
				"z": 5.579183592,
				"element": "C" 
			},
			{
				"x": -0.8697972922,
				"y": 1.8133446834,
				"z": 4.6248332644,
				"element": "O" 
			},
			{
				"x": -0.8999897436,
				"y": 1.2864890146,
				"z": 3.368669078,
				"element": "C" 
			},
			{
				"x": -1.7847718069,
				"y": 0.2890930746,
				"z": 2.942962076,
				"element": "C" 
			},
			{
				"x": -1.7236707549,
				"y": -0.1720882147,
				"z": 1.6262098712,
				"element": "C" 
			},
			{
				"x": -0.7985797567,
				"y": 0.3470464122,
				"z": 0.7117414918,
				"element": "C" 
			},
			{
				"x": 0.0920883929,
				"y": 1.3410837819,
				"z": 1.162415549,
				"element": "C" 
			},
			{
				"x": 0.0439919426,
				"y": 1.805147635,
				"z": 2.4669154854,
				"element": "C" 
			},
			{
				"x": -0.7196736488,
				"y": -0.1372461465,
				"z": -0.6761441343,
				"element": "C" 
			},
			{
				"x": 0.4614709985,
				"y": -0.1979259675,
				"z": -1.2899642814,
				"element": "N" 
			},
			{
				"x": 0.2019766322,
				"y": -0.6673945896,
				"z": -2.5455459952,
				"element": "N" 
			},
			{
				"x": -1.1143208864,
				"y": -0.914585784,
				"z": -2.7320989818,
				"element": "C" 
			},
			{
				"x": -1.7668508557,
				"y": -0.5773208472,
				"z": -1.5544582371,
				"element": "C" 
			},
			{
				"x": -3.2181269212,
				"y": -0.6027096748,
				"z": -1.3850978619,
				"element": "C" 
			},
			{
				"x": -3.9904270381,
				"y": -1.0434199855,
				"z": -2.2230726673,
				"element": "O" 
			},
			{
				"x": 1.2730093427,
				"y": -0.8622068419,
				"z": -3.4618400402,
				"element": "C" 
			},
			{
				"x": 2.577898861,
				"y": -0.9828226263,
				"z": -2.9726709086,
				"element": "C" 
			},
			{
				"x": 3.6270460687,
				"y": -1.1820742342,
				"z": -3.8676736012,
				"element": "C" 
			},
			{
				"x": 3.3850402417,
				"y": -1.2677989061,
				"z": -5.2404096668,
				"element": "C" 
			},
			{
				"x": 2.0797295755,
				"y": -1.1411578753,
				"z": -5.7184240305,
				"element": "C" 
			},
			{
				"x": 1.0209056417,
				"y": -0.9305288439,
				"z": -4.8363281014,
				"element": "C" 
			},
			{
				"x": -2.838663928,
				"y": 1.5147188554,
				"z": 5.2589077992,
				"element": "H" 
			},
			{
				"x": -1.6104986312,
				"y": 1.8905385098,
				"z": 6.4970384849,
				"element": "H" 
			},
			{
				"x": -1.6715585408,
				"y": 0.2616482802,
				"z": 5.772983817,
				"element": "H" 
			},
			{
				"x": -2.5103658632,
				"y": -0.1424219602,
				"z": 3.6218839043,
				"element": "H" 
			},
			{
				"x": -2.39087128,
				"y": -0.9731557228,
				"z": 1.3243278502,
				"element": "H" 
			},
			{
				"x": 0.8198127668,
				"y": 1.7464277376,
				"z": 0.4674677711,
				"element": "H" 
			},
			{
				"x": 0.7229438271,
				"y": 2.5761874922,
				"z": 2.8161031035,
				"element": "H" 
			},
			{
				"x": -1.5201321932,
				"y": -1.3077990079,
				"z": -3.6505741773,
				"element": "H" 
			},
			{
				"x": -3.5977066346,
				"y": -0.1695794388,
				"z": -0.4378585803,
				"element": "H" 
			},
			{
				"x": 2.7473808141,
				"y": -0.916715016,
				"z": -1.9052822089,
				"element": "H" 
			},
			{
				"x": 4.6393849796,
				"y": -1.276335301,
				"z": -3.4861871676,
				"element": "H" 
			},
			{
				"x": 4.2065427618,
				"y": -1.4265888669,
				"z": -5.9321390141,
				"element": "H" 
			},
			{
				"x": 1.8805748225,
				"y": -1.1931859499,
				"z": -6.7845432917,
				"element": "H" 
			},
			{
				"x": 0.0148485259,
				"y": -0.8006924138,
				"z": -5.2202301905,
				"element": "H" 
			}
		],
		 "valence_orbital": [ 
			{
				"type": "occ",
				"energy": -0.26162,
				"method": "rhf"
			},
			{
				"type": "occ",
				"energy": -0.2565,
				"method": "rhf"
			},
			{
				"type": "occ",
				"energy": -0.24574,
				"method": "rhf"
			},
			{
				"type": "occ",
				"energy": -0.24098,
				"method": "rhf"
			},
			{
				"type": "occ",
				"energy": -0.21216,
				"method": "rhf"
			},
			{
				"type": "unocc",
				"energy": -0.05163,
				"method": "rhf"
			},
			{
				"type": "unocc",
				"energy": -0.03132,
				"method": "rhf"
			},
			{
				"type": "unocc",
				"energy": -0.01417,
				"method": "rhf"
			},
			{
				"type": "unocc",
				"energy": -0.00652,
				"method": "rhf"
			},
			{
				"type": "unocc",
				"energy": 0.00759,
				"method": "rhf"
			}
		],
		"cosmo_sigma_profile": { 
			"-0.025": 0.0,
			"-0.024": 0.0,
			"-0.023": 0.0,
			"-0.022": 0.0,
			"-0.021": 0.0,
			"-0.02": 0.0,
			"-0.019": 0.0,
			"-0.018": 0.0,
			"-0.017": 0.0,
			"-0.016": 0.0,
			"-0.015": 0.0,
			"-0.014": 0.0,
			"-0.013": 0.0,
			"-0.012": 0.00854488013073,
			"-0.011": 1.36110533977,
			"-0.01": 1.60749258724,
			"-0.009": 2.01588230927,
			"-0.008": 1.85861453812,
			"-0.007": 7.53898608109,
			"-0.006": 21.586876615,
			"-0.005": 29.8920350939,
			"-0.004": 27.1567624986,
			"-0.003": 23.2516007179,
			"-0.002": 20.37813006,
			"-0.001": 18.6725152323,
			"0.0": 21.3713147236,
			"0.001": 24.8797989926,
			"0.002": 20.4858986182,
			"0.003": 23.9967515678,
			"0.004": 28.379853641,
			"0.005": 15.2148100053,
			"0.006": 5.10182280331,
			"0.007": 4.46627325861,
			"0.008": 4.13054157553,
			"0.009": 5.58528866087,
			"0.01": 4.27652491871,
			"0.011": 3.09709850486,
			"0.012": 4.46514482499,
			"0.013": 1.88835409815,
			"0.014": 0.323301308121,
			"0.015": 0.0,
			"0.016": 0.0,
			"0.017": 0.0,
			"0.018": 0.0,
			"0.019": 0.0,
			"0.02": 0.0,
			"0.021": 0.0,
			"0.022": 0.0,
			"0.023": 0.0,
			"0.024": 0.0,
			"0.0": 0.0
		}
	}
}
