{
	 "smiles": "CC(C)(C(O)=O)C1=CC=C(F)C=C1", 
	 "Tm": 363.15, 
	 "num_atms": 24, 
	 "gaussian": { 
		 "optdone": 1, 
		 "sigma_profile": "yes", 
		 "theory": "DFT", 
		 "functional": "B3LYP", 
		 "basiset": "6-31G**", 
		 "properties": { 
			 "R2extent": 3254.8425, 
			 "electric_dipole_moment_norm": 4.17191892179, 
			 "electric_quadrupole_moment_norm": 10.4646430097, 
			 "total_energy": -637.985619444, 
			 "HOMO_LUMO_gap": 0.22472, 
			 "cosmo_polarized_energy": -14.54, 
			 "cosmo_cavitation_energy": 27.33, 
			 "cosmo_dispersion_energy": -19.33, 
			 "cosmo_repulsion_energy": 1.49, 
			 "cosmo_total_nonelectrostatic_energy": 9.49, 
			 "SMD_solvation_energy": 6.25 
		},
		"coords": [
			{
				"x": 0.6020982578,
				"y": -1.1998599223,
				"z": -1.0108302662,
				"element": "C" 
			},
			{
				"x": -0.5053815106,
				"y": -0.7611794303,
				"z": -0.0216265247,
				"element": "C" 
			},
			{
				"x": -1.647245756,
				"y": -1.7946555287,
				"z": -0.069845241,
				"element": "C" 
			},
			{
				"x": -1.1395023499,
				"y": 0.606183782,
				"z": -0.3957700448,
				"element": "C" 
			},
			{
				"x": -0.4152179333,
				"y": 1.4377985707,
				"z": -1.1945248485,
				"element": "O" 
			},
			{
				"x": -2.2178065319,
				"y": 0.9606940499,
				"z": 0.0080313346,
				"element": "O" 
			},
			{
				"x": 0.1074452412,
				"y": -0.6057427009,
				"z": 1.3856740159,
				"element": "C" 
			},
			{
				"x": 0.9885398157,
				"y": 0.4565597478,
				"z": 1.6497002376,
				"element": "C" 
			},
			{
				"x": 1.594563329,
				"y": 0.6114499937,
				"z": 2.8940957659,
				"element": "C" 
			},
			{
				"x": 1.314280661,
				"y": -0.3148671529,
				"z": 3.8920083112,
				"element": "C" 
			},
			{
				"x": 1.8975691265,
				"y": -0.176171417,
				"z": 5.1000987946,
				"element": "F" 
			},
			{
				"x": 0.4447130319,
				"y": -1.3745226656,
				"z": 3.6753763454,
				"element": "C" 
			},
			{
				"x": -0.1558959325,
				"y": -1.5102605642,
				"z": 2.4221364143,
				"element": "C" 
			},
			{
				"x": 1.4821532152,
				"y": -0.5456993523,
				"z": -0.9804665529,
				"element": "H" 
			},
			{
				"x": 0.2269394234,
				"y": -1.2497551893,
				"z": -2.0395224305,
				"element": "H" 
			},
			{
				"x": 0.9600770002,
				"y": -2.1968221519,
				"z": -0.7393422055,
				"element": "H" 
			},
			{
				"x": -1.2822040069,
				"y": -2.7941993875,
				"z": 0.18215749,
				"element": "H" 
			},
			{
				"x": -2.0663875543,
				"y": -1.8399096524,
				"z": -1.0794340714,
				"element": "H" 
			},
			{
				"x": -2.4514972656,
				"y": -1.5168998864,
				"z": 0.6127102528,
				"element": "H" 
			},
			{
				"x": 0.393810747,
				"y": 0.9997654993,
				"z": -1.491563056,
				"element": "H" 
			},
			{
				"x": 1.1954436989,
				"y": 1.1946515743,
				"z": 0.8801618747,
				"element": "H" 
			},
			{
				"x": 2.2683740973,
				"y": 1.4362744182,
				"z": 3.0987802047,
				"element": "H" 
			},
			{
				"x": 0.2408712707,
				"y": -2.0746065015,
				"z": 4.4783542643,
				"element": "H" 
			},
			{
				"x": -0.8404400749,
				"y": -2.3359261326,
				"z": 2.2685399356,
				"element": "H" 
			}
		],
		 "valence_orbital": [ 
			{
				"type": "occ",
				"energy": -0.34233,
				"method": "rhf"
			},
			{
				"type": "occ",
				"energy": -0.31437,
				"method": "rhf"
			},
			{
				"type": "occ",
				"energy": -0.27174,
				"method": "rhf"
			},
			{
				"type": "occ",
				"energy": -0.26665,
				"method": "rhf"
			},
			{
				"type": "occ",
				"energy": -0.24462,
				"method": "rhf"
			},
			{
				"type": "unocc",
				"energy": -0.0199,
				"method": "rhf"
			},
			{
				"type": "unocc",
				"energy": -0.01179,
				"method": "rhf"
			},
			{
				"type": "unocc",
				"energy": 0.01596,
				"method": "rhf"
			},
			{
				"type": "unocc",
				"energy": 0.04898,
				"method": "rhf"
			},
			{
				"type": "unocc",
				"energy": 0.08808,
				"method": "rhf"
			}
		],
		"cosmo_sigma_profile": { 
			"-0.025": 0.0,
			"-0.024": 0.0,
			"-0.023": 0.0,
			"-0.022": 0.0,
			"-0.021": 0.0,
			"-0.02": 0.0,
			"-0.019": 0.0,
			"-0.018": 0.0,
			"-0.017": 0.312743961611,
			"-0.016": 1.06469735724,
			"-0.015": 1.27277487206,
			"-0.014": 1.07870796825,
			"-0.013": 0.911512145991,
			"-0.012": 1.17505869519,
			"-0.011": 1.33903346876,
			"-0.01": 1.22254888401,
			"-0.009": 1.03791675604,
			"-0.008": 1.89011242674,
			"-0.007": 7.00881822374,
			"-0.006": 9.4829015061,
			"-0.005": 14.8697847167,
			"-0.004": 16.6915466311,
			"-0.003": 15.6506619484,
			"-0.002": 13.5350263006,
			"-0.001": 16.5770890457,
			"0.0": 14.4229558886,
			"0.001": 15.3465462253,
			"0.002": 11.8347284598,
			"0.003": 14.0621400094,
			"0.004": 20.309312389,
			"0.005": 7.83217435014,
			"0.006": 2.14460169877,
			"0.007": 2.21488222052,
			"0.008": 3.3306692598,
			"0.009": 3.17212191209,
			"0.01": 4.5997577898,
			"0.011": 5.12842957569,
			"0.012": 5.17162753069,
			"0.013": 1.57627992601,
			"0.014": 0.00918721331145,
			"0.015": 0.0,
			"0.016": 0.0,
			"0.017": 0.0,
			"0.018": 0.0,
			"0.019": 0.0,
			"0.02": 0.0,
			"0.021": 0.0,
			"0.022": 0.0,
			"0.023": 0.0,
			"0.024": 0.0,
			"0.025": 0.0
		}
	}
}
