{
	 "smiles": "CC1=CC=C2C=CC=C(C)C2=N1", 
	 "Tm": 300.15, 
	 "num_atms": 23, 
	 "gaussian": { 
		 "optdone": 1, 
		 "sigma_profile": "yes", 
		 "theory": "DFT", 
		 "functional": "B3LYP", 
		 "basiset": "6-31G**", 
		 "properties": { 
			 "R2extent": 2464.5222, 
			 "electric_dipole_moment_norm": 1.36449485525, 
			 "electric_quadrupole_moment_norm": 5.74207173066, 
			 "total_energy": -480.576951526, 
			 "HOMO_LUMO_gap": 0.17644, 
			 "cosmo_polarized_energy": -6.13, 
			 "cosmo_cavitation_energy": 26.04, 
			 "cosmo_dispersion_energy": -19.22, 
			 "cosmo_repulsion_energy": 1.52, 
			 "cosmo_total_nonelectrostatic_energy": 8.34, 
			 "SMD_solvation_energy": 3.36 
		},
		"coords": [
			{
				"x": 2.7203239327,
				"y": 0.6446443952,
				"z": -1.2394494001,
				"element": "C" 
			},
			{
				"x": 1.4410862554,
				"y": 0.3578744087,
				"z": -0.4921009624,
				"element": "C" 
			},
			{
				"x": 0.6432686449,
				"y": -0.7676431598,
				"z": -0.8493456925,
				"element": "C" 
			},
			{
				"x": -0.5170546285,
				"y": -1.0147325956,
				"z": -0.160222999,
				"element": "C" 
			},
			{
				"x": -0.9066066954,
				"y": -0.1500817432,
				"z": 0.8952659586,
				"element": "C" 
			},
			{
				"x": -2.090262109,
				"y": -0.3375083767,
				"z": 1.6543820419,
				"element": "C" 
			},
			{
				"x": -2.4024364615,
				"y": 0.5433574544,
				"z": 2.6635846591,
				"element": "C" 
			},
			{
				"x": -1.5488263009,
				"y": 1.6363607908,
				"z": 2.9490985111,
				"element": "C" 
			},
			{
				"x": -0.3850582536,
				"y": 1.8613331507,
				"z": 2.2381491236,
				"element": "C" 
			},
			{
				"x": 0.5209792164,
				"y": 3.0246375313,
				"z": 2.5439159747,
				"element": "C" 
			},
			{
				"x": -0.0448072464,
				"y": 0.9539730547,
				"z": 1.1840094666,
				"element": "C" 
			},
			{
				"x": 1.106245166,
				"y": 1.1815304683,
				"z": 0.4851077446,
				"element": "N" 
			},
			{
				"x": 3.1932146751,
				"y": 1.5386444464,
				"z": -0.8305870168,
				"element": "H" 
			},
			{
				"x": 2.5275483533,
				"y": 0.8020971925,
				"z": -2.3073265323,
				"element": "H" 
			},
			{
				"x": 3.4210680085,
				"y": -0.1950222446,
				"z": -1.1605086163,
				"element": "H" 
			},
			{
				"x": 0.961091902,
				"y": -1.4159844153,
				"z": -1.6608549105,
				"element": "H" 
			},
			{
				"x": -1.1457474321,
				"y": -1.8660443446,
				"z": -0.4108380023,
				"element": "H" 
			},
			{
				"x": -2.7381913038,
				"y": -1.1801499862,
				"z": 1.4263052135,
				"element": "H" 
			},
			{
				"x": -3.3069876076,
				"y": 0.4064911962,
				"z": 3.249215536,
				"element": "H" 
			},
			{
				"x": -1.8179677877,
				"y": 2.3183772685,
				"z": 3.7518190873,
				"element": "H" 
			},
			{
				"x": 0.1256883716,
				"y": 3.6209802032,
				"z": 3.3708263902,
				"element": "H" 
			},
			{
				"x": 0.6396006679,
				"y": 3.6719144131,
				"z": 1.6691017065,
				"element": "H" 
			},
			{
				"x": 1.5267306327,
				"y": 2.6818508918,
				"z": 2.8071527184,
				"element": "H" 
			}
		],
		 "valence_orbital": [ 
			{
				"type": "occ",
				"energy": -0.32527,
				"method": "rhf"
			},
			{
				"type": "occ",
				"energy": -0.29303,
				"method": "rhf"
			},
			{
				"type": "occ",
				"energy": -0.24563,
				"method": "rhf"
			},
			{
				"type": "occ",
				"energy": -0.24023,
				"method": "rhf"
			},
			{
				"type": "occ",
				"energy": -0.22017,
				"method": "rhf"
			},
			{
				"type": "unocc",
				"energy": -0.04373,
				"method": "rhf"
			},
			{
				"type": "unocc",
				"energy": -0.01065,
				"method": "rhf"
			},
			{
				"type": "unocc",
				"energy": 0.02966,
				"method": "rhf"
			},
			{
				"type": "unocc",
				"energy": 0.0897,
				"method": "rhf"
			},
			{
				"type": "unocc",
				"energy": 0.099,
				"method": "rhf"
			}
		],
		"cosmo_sigma_profile": { 
			"-0.025": 0.0,
			"-0.024": 0.0,
			"-0.023": 0.0,
			"-0.022": 0.0,
			"-0.021": 0.0,
			"-0.02": 0.0,
			"-0.019": 0.0,
			"-0.018": 0.0,
			"-0.017": 0.0,
			"-0.016": 0.0,
			"-0.015": 0.0,
			"-0.014": 0.0,
			"-0.013": 0.0,
			"-0.012": 0.0,
			"-0.011": 0.0,
			"-0.01": 0.0,
			"-0.009": 0.0,
			"-0.008": 0.0,
			"-0.007": 1.81057648133,
			"-0.006": 8.65976167234,
			"-0.005": 12.6319119016,
			"-0.004": 19.761812487,
			"-0.003": 19.3953957545,
			"-0.002": 17.0068365036,
			"-0.001": 17.7506951679,
			"0.0": 19.6602998611,
			"0.001": 17.9118421507,
			"0.002": 16.5859244442,
			"0.003": 21.5152071531,
			"0.004": 12.6213670731,
			"0.005": 9.59837605417,
			"0.006": 3.56764699885,
			"0.007": 1.44249356742,
			"0.008": 1.38574672893,
			"0.009": 1.53408505002,
			"0.01": 1.3747525605,
			"0.011": 1.27144171164,
			"0.012": 0.796741164501,
			"0.013": 0.814978358394,
			"0.014": 0.029009019255,
			"0.015": 0.0,
			"0.016": 0.0,
			"0.017": 0.0,
			"0.018": 0.0,
			"0.019": 0.0,
			"0.02": 0.0,
			"0.021": 0.0,
			"0.022": 0.0,
			"0.023": 0.0,
			"0.024": 0.0,
			"0.025": 0.0
		}
	}
}
