{
	 "smiles": "CCCC(=O)CC(=O)OC", 
	 "Tm": 230.15, 
	 "num_atms": 22, 
	 "gaussian": { 
		 "optdone": 1, 
		 "sigma_profile": "yes", 
		 "theory": "DFT", 
		 "functional": "B3LYP", 
		 "basiset": "6-31G**", 
		 "properties": { 
			 "R2extent": 3024.7987, 
			 "electric_dipole_moment_norm": 2.17733423479, 
			 "electric_quadrupole_moment_norm": 12.1888613808, 
			 "total_energy": -499.661358236, 
			 "HOMO_LUMO_gap": 0.22489, 
			 "cosmo_polarized_energy": -9.72, 
			 "cosmo_cavitation_energy": 25.67, 
			 "cosmo_dispersion_energy": -18.09, 
			 "cosmo_repulsion_energy": 1.52, 
			 "cosmo_total_nonelectrostatic_energy": 9.11, 
			 "SMD_solvation_energy": 6.53 
		},
		"coords": [
			{
				"x": -0.6831267468,
				"y": 1.1732043558,
				"z": 0.6552548927,
				"element": "C" 
			},
			{
				"x": -0.3719232298,
				"y": 0.8567078989,
				"z": -0.8118723949,
				"element": "C" 
			},
			{
				"x": 0.7507259676,
				"y": -0.1703366255,
				"z": -0.9895806945,
				"element": "C" 
			},
			{
				"x": 0.3715302777,
				"y": -1.5883487715,
				"z": -0.6037492202,
				"element": "C" 
			},
			{
				"x": -0.7639906069,
				"y": -1.9321204334,
				"z": -0.3429846895,
				"element": "O" 
			},
			{
				"x": 1.5115478232,
				"y": -2.6255003061,
				"z": -0.5797121135,
				"element": "C" 
			},
			{
				"x": 2.4082069604,
				"y": -2.4459759343,
				"z": 0.6349805137,
				"element": "C" 
			},
			{
				"x": 2.9980154532,
				"y": -1.4243282768,
				"z": 0.9209881274,
				"element": "O" 
			},
			{
				"x": 2.468577612,
				"y": -3.5743647852,
				"z": 1.3662983386,
				"element": "O" 
			},
			{
				"x": 3.2933104411,
				"y": -3.5012386683,
				"z": 2.5440590875,
				"element": "C" 
			},
			{
				"x": -1.0242176087,
				"y": 0.2789330147,
				"z": 1.1840164033,
				"element": "H" 
			},
			{
				"x": 0.2019674366,
				"y": 1.559648292,
				"z": 1.173620913,
				"element": "H" 
			},
			{
				"x": -1.4715601062,
				"y": 1.9287389095,
				"z": 0.7337564764,
				"element": "H" 
			},
			{
				"x": -1.2754796585,
				"y": 0.48247787,
				"z": -1.3055179899,
				"element": "H" 
			},
			{
				"x": -0.0831251961,
				"y": 1.7773719704,
				"z": -1.3328594644,
				"element": "H" 
			},
			{
				"x": 1.6517128515,
				"y": 0.1006511606,
				"z": -0.4240037185,
				"element": "H" 
			},
			{
				"x": 1.0742414083,
				"y": -0.2161414152,
				"z": -2.041196605,
				"element": "H" 
			},
			{
				"x": 2.1434817207,
				"y": -2.4908793468,
				"z": -1.4654196217,
				"element": "H" 
			},
			{
				"x": 1.0748038639,
				"y": -3.6237417484,
				"z": -0.5848138055,
				"element": "H" 
			},
			{
				"x": 4.3254938069,
				"y": -3.2639886424,
				"z": 2.2754274384,
				"element": "H" 
			},
			{
				"x": 2.9193279517,
				"y": -2.73326238,
				"z": 3.2252356752,
				"element": "H" 
			},
			{
				"x": 3.2320795783,
				"y": -4.4866061377,
				"z": 3.0048724513,
				"element": "H" 
			}
		],
		 "valence_orbital": [ 
			{
				"type": "occ",
				"energy": -0.33546,
				"method": "rhf"
			},
			{
				"type": "occ",
				"energy": -0.33143,
				"method": "rhf"
			},
			{
				"type": "occ",
				"energy": -0.31197,
				"method": "rhf"
			},
			{
				"type": "occ",
				"energy": -0.28235,
				"method": "rhf"
			},
			{
				"type": "occ",
				"energy": -0.25066,
				"method": "rhf"
			},
			{
				"type": "unocc",
				"energy": -0.02577,
				"method": "rhf"
			},
			{
				"type": "unocc",
				"energy": 0.00903,
				"method": "rhf"
			},
			{
				"type": "unocc",
				"energy": 0.09002,
				"method": "rhf"
			},
			{
				"type": "unocc",
				"energy": 0.1081,
				"method": "rhf"
			},
			{
				"type": "unocc",
				"energy": 0.118,
				"method": "rhf"
			}
		],
		"cosmo_sigma_profile": { 
			"-0.025": 0.0,
			"-0.024": 0.0,
			"-0.023": 0.0,
			"-0.022": 0.0,
			"-0.021": 0.0,
			"-0.02": 0.0,
			"-0.019": 0.0,
			"-0.018": 0.0,
			"-0.017": 0.0,
			"-0.016": 0.0,
			"-0.015": 0.0,
			"-0.014": 0.0,
			"-0.013": 0.0,
			"-0.012": 0.0,
			"-0.011": 0.0,
			"-0.01": 0.0,
			"-0.009": 0.37792664138,
			"-0.008": 3.83017896344,
			"-0.007": 5.29008226379,
			"-0.006": 11.1647642669,
			"-0.005": 12.6535398844,
			"-0.004": 16.0392167566,
			"-0.003": 19.9258894223,
			"-0.002": 21.3421484311,
			"-0.001": 20.9609055343,
			"0.0": 18.4438386634,
			"0.001": 15.5662219168,
			"0.002": 8.5876311629,
			"0.003": 5.30585617201,
			"0.004": 3.85867733121,
			"0.005": 4.59880600867,
			"0.006": 4.79596822687,
			"0.007": 4.32672450983,
			"0.008": 4.44123535128,
			"0.009": 2.82131191272,
			"0.01": 4.97827860713,
			"0.011": 6.71045685768,
			"0.012": 4.60525366887,
			"0.013": 0.236633776366,
			"0.014": 0.0,
			"0.015": 0.0,
			"0.016": 0.0,
			"0.017": 0.0,
			"0.018": 0.0,
			"0.019": 0.0,
			"0.02": 0.0,
			"0.021": 0.0,
			"0.022": 0.0,
			"0.023": 0.0,
			"0.024": 0.0,
			"0.025": 0.0
		}
	}
}
