{
	 "smiles": "C1CCC(CC1)OC1CCCCC1", 
	 "Tm": 237.15, 
	 "num_atms": 35, 
	 "gaussian": { 
		 "optdone": 1, 
		 "sigma_profile": "yes", 
		 "theory": "DFT", 
		 "functional": "B3LYP", 
		 "basiset": "6-31G**", 
		 "properties": { 
			 "R2extent": 3772.9505, 
			 "electric_dipole_moment_norm": 0.96320253841, 
			 "electric_quadrupole_moment_norm": 1.8225396484, 
			 "total_energy": -545.771288804, 
			 "HOMO_LUMO_gap": 0.30997, 
			 "cosmo_polarized_energy": -3.57, 
			 "cosmo_cavitation_energy": 32.85, 
			 "cosmo_dispersion_energy": -23.96, 
			 "cosmo_repulsion_energy": 1.93, 
			 "cosmo_total_nonelectrostatic_energy": 10.82, 
			 "SMD_solvation_energy": 3.76 
		},
		"coords": [
			{
				"x": 3.2174886978,
				"y": 0.1136990494,
				"z": -1.2816118352,
				"element": "C" 
			},
			{
				"x": 2.9235582813,
				"y": 0.6699660576,
				"z": 0.1186454382,
				"element": "C" 
			},
			{
				"x": 1.4015116283,
				"y": 0.7778920765,
				"z": 0.3714854661,
				"element": "C" 
			},
			{
				"x": 0.5930798815,
				"y": -0.2979660428,
				"z": -0.3803594054,
				"element": "C" 
			},
			{
				"x": 1.4225273582,
				"y": -1.5774041162,
				"z": -0.5466726245,
				"element": "C" 
			},
			{
				"x": 2.6619569693,
				"y": -1.3241525338,
				"z": -1.4385009332,
				"element": "C" 
			},
			{
				"x": -0.5992886792,
				"y": -0.5268513196,
				"z": 0.3695442794,
				"element": "O" 
			},
			{
				"x": -1.7245949268,
				"y": -1.008563329,
				"z": -0.3717802811,
				"element": "C" 
			},
			{
				"x": -2.608428159,
				"y": -1.7700922484,
				"z": 0.6356114843,
				"element": "C" 
			},
			{
				"x": -4.0903205125,
				"y": -1.7234937247,
				"z": 0.2415612451,
				"element": "C" 
			},
			{
				"x": -4.6283675132,
				"y": -0.2720402892,
				"z": 0.2663823499,
				"element": "C" 
			},
			{
				"x": -3.5286313382,
				"y": 0.758732934,
				"z": -0.0866761325,
				"element": "C" 
			},
			{
				"x": -2.4963816897,
				"y": 0.1522893646,
				"z": -1.0443148425,
				"element": "C" 
			},
			{
				"x": 4.2940618513,
				"y": 0.1266098656,
				"z": -1.4853397716,
				"element": "H" 
			},
			{
				"x": 2.7586888615,
				"y": 0.7750208239,
				"z": -2.0285565961,
				"element": "H" 
			},
			{
				"x": 3.3966355506,
				"y": 1.6489482221,
				"z": 0.2533255113,
				"element": "H" 
			},
			{
				"x": 3.3792802647,
				"y": 0.0071595777,
				"z": 0.865524093,
				"element": "H" 
			},
			{
				"x": 1.1848212958,
				"y": 0.6595272783,
				"z": 1.4386799282,
				"element": "H" 
			},
			{
				"x": 1.0319750968,
				"y": 1.7694429034,
				"z": 0.0853733835,
				"element": "H" 
			},
			{
				"x": 0.3290575679,
				"y": 0.0788671127,
				"z": -1.3816655198,
				"element": "H" 
			},
			{
				"x": 0.8084079309,
				"y": -2.3808005009,
				"z": -0.9683513829,
				"element": "H" 
			},
			{
				"x": 1.7262609129,
				"y": -1.9124783418,
				"z": 0.4527706299,
				"element": "H" 
			},
			{
				"x": 2.4091972533,
				"y": -1.5038374206,
				"z": -2.4902656927,
				"element": "H" 
			},
			{
				"x": 3.4388414097,
				"y": -2.0539978254,
				"z": -1.1829378795,
				"element": "H" 
			},
			{
				"x": -1.3783238047,
				"y": -1.7024645828,
				"z": -1.1526741765,
				"element": "H" 
			},
			{
				"x": -2.2528490484,
				"y": -2.8006034214,
				"z": 0.7403248722,
				"element": "H" 
			},
			{
				"x": -2.472246386,
				"y": -1.2931119504,
				"z": 1.6137165001,
				"element": "H" 
			},
			{
				"x": -4.2089405242,
				"y": -2.1496025444,
				"z": -0.7635294559,
				"element": "H" 
			},
			{
				"x": -4.6823167047,
				"y": -2.3592420834,
				"z": 0.9089858022,
				"element": "H" 
			},
			{
				"x": -5.4662172952,
				"y": -0.1829831788,
				"z": -0.4355085424,
				"element": "H" 
			},
			{
				"x": -5.0344032783,
				"y": -0.0433631506,
				"z": 1.258963101,
				"element": "H" 
			},
			{
				"x": -3.004730103,
				"y": 1.0767599729,
				"z": 0.8226414201,
				"element": "H" 
			},
			{
				"x": -3.9761296093,
				"y": 1.6618072062,
				"z": -0.5162028425,
				"element": "H" 
			},
			{
				"x": -3.0028803136,
				"y": -0.2209300521,
				"z": -1.9446765529,
				"element": "H" 
			},
			{
				"x": -1.7811009259,
				"y": 0.9094562115,
				"z": -1.3842110375,
				"element": "H" 
			}
		],
		 "valence_orbital": [ 
			{
				"type": "occ",
				"energy": -0.30333,
				"method": "rhf"
			},
			{
				"type": "occ",
				"energy": -0.29576,
				"method": "rhf"
			},
			{
				"type": "occ",
				"energy": -0.29383,
				"method": "rhf"
			},
			{
				"type": "occ",
				"energy": -0.28254,
				"method": "rhf"
			},
			{
				"type": "occ",
				"energy": -0.23521,
				"method": "rhf"
			},
			{
				"type": "unocc",
				"energy": 0.07476,
				"method": "rhf"
			},
			{
				"type": "unocc",
				"energy": 0.08694,
				"method": "rhf"
			},
			{
				"type": "unocc",
				"energy": 0.10104,
				"method": "rhf"
			},
			{
				"type": "unocc",
				"energy": 0.10578,
				"method": "rhf"
			},
			{
				"type": "unocc",
				"energy": 0.12732,
				"method": "rhf"
			}
		],
		"cosmo_sigma_profile": { 
			"-0.025": 0.0,
			"-0.024": 0.0,
			"-0.023": 0.0,
			"-0.022": 0.0,
			"-0.021": 0.0,
			"-0.02": 0.0,
			"-0.019": 0.0,
			"-0.018": 0.0,
			"-0.017": 0.0,
			"-0.016": 0.0,
			"-0.015": 0.0,
			"-0.014": 0.0,
			"-0.013": 0.0,
			"-0.012": 0.0,
			"-0.011": 0.0,
			"-0.01": 0.0,
			"-0.009": 0.0,
			"-0.008": 0.0,
			"-0.007": 0.0,
			"-0.006": 0.0,
			"-0.005": 0.0,
			"-0.004": 0.0551408697057,
			"-0.003": 13.7887750232,
			"-0.002": 53.3021256982,
			"-0.001": 56.2153738979,
			"0.0": 50.7018294909,
			"0.001": 42.5208781849,
			"0.002": 15.3983325106,
			"0.003": 2.73059100883,
			"0.004": 2.36174197155,
			"0.005": 1.85662749075,
			"0.006": 2.40953079468,
			"0.007": 1.8198803966,
			"0.008": 1.73226769538,
			"0.009": 1.87814347933,
			"0.01": 0.975498869221,
			"0.011": 1.07872629824,
			"0.012": 1.49543447302,
			"0.013": 0.700062659776,
			"0.014": 0.0442647450964,
			"0.015": 0.0,
			"0.016": 0.0,
			"0.017": 0.0,
			"0.018": 0.0,
			"0.019": 0.0,
			"0.02": 0.0,
			"0.021": 0.0,
			"0.022": 0.0,
			"0.023": 0.0,
			"0.024": 0.0,
			"0.025": 0.0
		}
	}
}
