{
	 "smiles": "FC(F)(F)C1=CC=C(N=C1)N1CCN(CC1)C1=CC=CC=C1C=O", 
	 "Tm": 379.15, 
	 "num_atms": 40, 
	 "gaussian": { 
		 "optdone": 1, 
		 "sigma_profile": "yes", 
		 "theory": "DFT", 
		 "functional": "B3LYP", 
		 "basiset": "6-31G**", 
		 "properties": { 
			 "R2extent": 14714.1548, 
			 "electric_dipole_moment_norm": 3.12639423938, 
			 "electric_quadrupole_moment_norm": 32.6229081811, 
			 "total_energy": -1196.44129679, 
			 "HOMO_LUMO_gap": 0.15476, 
			 "cosmo_polarized_energy": -13.73, 
			 "cosmo_cavitation_energy": 44.06, 
			 "cosmo_dispersion_energy": -31.11, 
			 "cosmo_repulsion_energy": 2.25, 
			 "cosmo_total_nonelectrostatic_energy": 15.2, 
			 "SMD_solvation_energy": 6.77 
		},
		"coords": [
			{
				"x": -0.0427604717,
				"y": -6.8876377719,
				"z": -3.43228234,
				"element": "F" 
			},
			{
				"x": -0.530735327,
				"y": -6.5437965196,
				"z": -2.214760932,
				"element": "C" 
			},
			{
				"x": -1.8357788799,
				"y": -6.9071749081,
				"z": -2.2117683738,
				"element": "F" 
			},
			{
				"x": 0.1095679713,
				"y": -7.3119944134,
				"z": -1.3054342372,
				"element": "F" 
			},
			{
				"x": -0.3653674115,
				"y": -5.0848198715,
				"z": -1.9310621108,
				"element": "C" 
			},
			{
				"x": -1.2357965609,
				"y": -4.1393302012,
				"z": -2.4881777484,
				"element": "C" 
			},
			{
				"x": -1.0339383387,
				"y": -2.7925394083,
				"z": -2.2501562243,
				"element": "C" 
			},
			{
				"x": 0.0566701401,
				"y": -2.3978505489,
				"z": -1.4316746785,
				"element": "C" 
			},
			{
				"x": 0.9012330788,
				"y": -3.3117515068,
				"z": -0.9128965549,
				"element": "N" 
			},
			{
				"x": 0.6886149289,
				"y": -4.6034904805,
				"z": -1.15695314,
				"element": "C" 
			},
			{
				"x": 0.302492763,
				"y": -1.078279341,
				"z": -1.0986066201,
				"element": "N" 
			},
			{
				"x": -0.4277979753,
				"y": 0.0262943047,
				"z": -1.7087694908,
				"element": "C" 
			},
			{
				"x": -0.4983360706,
				"y": 1.2190102993,
				"z": -0.7529224369,
				"element": "C" 
			},
			{
				"x": 0.8440523879,
				"y": 1.6109296063,
				"z": -0.3002961733,
				"element": "N" 
			},
			{
				"x": 1.4838281706,
				"y": 0.4905188229,
				"z": 0.390323413,
				"element": "C" 
			},
			{
				"x": 1.6110256904,
				"y": -0.6975314653,
				"z": -0.560215474,
				"element": "C" 
			},
			{
				"x": 0.9473091241,
				"y": 2.8947964883,
				"z": 0.2951799349,
				"element": "C" 
			},
			{
				"x": 1.2030328722,
				"y": 3.065340288,
				"z": 1.6655317795,
				"element": "C" 
			},
			{
				"x": 1.2669189151,
				"y": 4.3414807795,
				"z": 2.2245543007,
				"element": "C" 
			},
			{
				"x": 1.0647139087,
				"y": 5.4789238508,
				"z": 1.4375670595,
				"element": "C" 
			},
			{
				"x": 0.8327196273,
				"y": 5.3248790308,
				"z": 0.0761809746,
				"element": "C" 
			},
			{
				"x": 0.7966141702,
				"y": 4.0515538993,
				"z": -0.5113226029,
				"element": "C" 
			},
			{
				"x": 0.7139286606,
				"y": 3.9689386019,
				"z": -1.9883496754,
				"element": "C" 
			},
			{
				"x": 0.4428098209,
				"y": 4.9124789902,
				"z": -2.7119209728,
				"element": "O" 
			},
			{
				"x": -2.0678170688,
				"y": -4.4620462583,
				"z": -3.1063677464,
				"element": "H" 
			},
			{
				"x": -1.7016293818,
				"y": -2.0697703346,
				"z": -2.6995194979,
				"element": "H" 
			},
			{
				"x": 1.3951301194,
				"y": -5.2969458106,
				"z": -0.7068595299,
				"element": "H" 
			},
			{
				"x": 0.0474264246,
				"y": 0.3368705814,
				"z": -2.6535432456,
				"element": "H" 
			},
			{
				"x": -1.4512851745,
				"y": -0.279063229,
				"z": -1.9297142859,
				"element": "H" 
			},
			{
				"x": -1.1326839645,
				"y": 0.9498534533,
				"z": 0.110318642,
				"element": "H" 
			},
			{
				"x": -0.9755937303,
				"y": 2.0576861006,
				"z": -1.2637078901,
				"element": "H" 
			},
			{
				"x": 0.9144948703,
				"y": 0.1762941452,
				"z": 1.2830078392,
				"element": "H" 
			},
			{
				"x": 2.4832049642,
				"y": 0.7955581702,
				"z": 0.7130613802,
				"element": "H" 
			},
			{
				"x": 2.0279976264,
				"y": -1.5591401275,
				"z": -0.0420326837,
				"element": "H" 
			},
			{
				"x": 2.290599518,
				"y": -0.4270952987,
				"z": -1.3836799559,
				"element": "H" 
			},
			{
				"x": 1.3283316258,
				"y": 2.1998920566,
				"z": 2.3063065066,
				"element": "H" 
			},
			{
				"x": 1.4596509684,
				"y": 4.4446366236,
				"z": 3.28892036,
				"element": "H" 
			},
			{
				"x": 1.1032598902,
				"y": 6.4685786334,
				"z": 1.8818254114,
				"element": "H" 
			},
			{
				"x": 0.7063642316,
				"y": 6.1813793302,
				"z": -0.5788997057,
				"element": "H" 
			},
			{
				"x": 0.9618278865,
				"y": 2.9778634388,
				"z": -2.4170832745,
				"element": "H" 
			}
		],
		 "valence_orbital": [ 
			{
				"type": "occ",
				"energy": -0.26782,
				"method": "rhf"
			},
			{
				"type": "occ",
				"energy": -0.26399,
				"method": "rhf"
			},
			{
				"type": "occ",
				"energy": -0.25309,
				"method": "rhf"
			},
			{
				"type": "occ",
				"energy": -0.22593,
				"method": "rhf"
			},
			{
				"type": "occ",
				"energy": -0.21886,
				"method": "rhf"
			},
			{
				"type": "unocc",
				"energy": -0.0641,
				"method": "rhf"
			},
			{
				"type": "unocc",
				"energy": -0.03253,
				"method": "rhf"
			},
			{
				"type": "unocc",
				"energy": -0.01805,
				"method": "rhf"
			},
			{
				"type": "unocc",
				"energy": -0.01164,
				"method": "rhf"
			},
			{
				"type": "unocc",
				"energy": 0.03313,
				"method": "rhf"
			}
		],
		"cosmo_sigma_profile": { 
			"-0.025": 0.0,
			"-0.024": 0.0,
			"-0.023": 0.0,
			"-0.022": 0.0,
			"-0.021": 0.0,
			"-0.02": 0.0,
			"-0.019": 0.0,
			"-0.018": 0.0,
			"-0.017": 0.0,
			"-0.016": 0.0,
			"-0.015": 0.0,
			"-0.014": 0.0,
			"-0.013": 0.0,
			"-0.012": 0.0,
			"-0.011": 0.0,
			"-0.01": 0.00680754531824,
			"-0.009": 0.981318764978,
			"-0.008": 2.90242505694,
			"-0.007": 6.43183864157,
			"-0.006": 17.4767422879,
			"-0.005": 25.9476777704,
			"-0.004": 35.268738785,
			"-0.003": 32.6167493705,
			"-0.002": 24.6880989064,
			"-0.001": 18.6389766302,
			"0.0": 21.5973476602,
			"0.001": 26.186816176,
			"0.002": 35.6373419377,
			"0.003": 46.6473220376,
			"0.004": 21.3005467915,
			"0.005": 7.74771321079,
			"0.006": 4.56015686759,
			"0.007": 2.55902806005,
			"0.008": 2.39795506503,
			"0.009": 3.78040130557,
			"0.01": 4.16311401331,
			"0.011": 3.91844447776,
			"0.012": 4.22778550987,
			"0.013": 1.44304896961,
			"0.014": 0.160091178414,
			"0.015": 0.0,
			"0.016": 0.0,
			"0.017": 0.0,
			"0.018": 0.0,
			"0.019": 0.0,
			"0.02": 0.0,
			"0.021": 0.0,
			"0.022": 0.0,
			"0.023": 0.0,
			"0.024": 0.0,
			"0.025": 0.0
		}
	}
}
