{
	 "smiles": "CC(=O)OC1=CC=CC=C1", 
	 "Tm": 243.15, 
	 "num_atms": 18, 
	 "gaussian": { 
		 "optdone": 1, 
		 "sigma_profile": "yes", 
		 "theory": "DFT", 
		 "functional": "B3LYP", 
		 "basiset": "6-31G**", 
		 "properties": { 
			 "R2extent": 1847.74, 
			 "electric_dipole_moment_norm": 1.67705235756, 
			 "electric_quadrupole_moment_norm": 10.371416006, 
			 "total_energy": -460.128847468, 
			 "HOMO_LUMO_gap": 0.22815, 
			 "cosmo_polarized_energy": -7.29, 
			 "cosmo_cavitation_energy": 22.43, 
			 "cosmo_dispersion_energy": -16.54, 
			 "cosmo_repulsion_energy": 1.36, 
			 "cosmo_total_nonelectrostatic_energy": 7.25, 
			 "SMD_solvation_energy": 5.28 
		},
		"coords": [
			{
				"x": -1.8315061575,
				"y": 2.080143977,
				"z": -0.697272954,
				"element": "C" 
			},
			{
				"x": -1.4811304307,
				"y": 0.6141950093,
				"z": -0.7741955353,
				"element": "C" 
			},
			{
				"x": -2.188907778,
				"y": -0.2600629302,
				"z": -1.2097261267,
				"element": "O" 
			},
			{
				"x": -0.2238526418,
				"y": 0.419427829,
				"z": -0.2656098586,
				"element": "O" 
			},
			{
				"x": 0.3513533708,
				"y": -0.8517881506,
				"z": -0.1972111512,
				"element": "C" 
			},
			{
				"x": 1.0786352005,
				"y": -1.1187719236,
				"z": 0.9622828589,
				"element": "C" 
			},
			{
				"x": 1.7505650439,
				"y": -2.3344597128,
				"z": 1.0859530591,
				"element": "C" 
			},
			{
				"x": 1.6923343105,
				"y": -3.2760588589,
				"z": 0.0566071655,
				"element": "C" 
			},
			{
				"x": 0.9620897004,
				"y": -2.99195192,
				"z": -1.0988383785,
				"element": "C" 
			},
			{
				"x": 0.2871338188,
				"y": -1.7779027248,
				"z": -1.2391238211,
				"element": "C" 
			},
			{
				"x": -1.0932171446,
				"y": 2.6717211599,
				"z": -1.2464945105,
				"element": "H" 
			},
			{
				"x": -1.8091989068,
				"y": 2.4166794759,
				"z": 0.3434521263,
				"element": "H" 
			},
			{
				"x": -2.8242021707,
				"y": 2.2362930276,
				"z": -1.11786283,
				"element": "H" 
			},
			{
				"x": 1.1117558886,
				"y": -0.370272422,
				"z": 1.7471292963,
				"element": "H" 
			},
			{
				"x": 2.318370194,
				"y": -2.5433658888,
				"z": 1.9878555238,
				"element": "H" 
			},
			{
				"x": 2.2132781002,
				"y": -4.2237897292,
				"z": 0.1533113282,
				"element": "H" 
			},
			{
				"x": 0.9138525649,
				"y": -3.7193549349,
				"z": -1.903948726,
				"element": "H" 
			},
			{
				"x": -0.2853529625,
				"y": -1.5607812827,
				"z": -2.1308074662,
				"element": "H" 
			}
		],
		 "valence_orbital": [ 
			{
				"type": "occ",
				"energy": -0.34854,
				"method": "rhf"
			},
			{
				"type": "occ",
				"energy": -0.32109,
				"method": "rhf"
			},
			{
				"type": "occ",
				"energy": -0.27784,
				"method": "rhf"
			},
			{
				"type": "occ",
				"energy": -0.25256,
				"method": "rhf"
			},
			{
				"type": "occ",
				"energy": -0.23969,
				"method": "rhf"
			},
			{
				"type": "unocc",
				"energy": -0.01154,
				"method": "rhf"
			},
			{
				"type": "unocc",
				"energy": -0.00368,
				"method": "rhf"
			},
			{
				"type": "unocc",
				"energy": 0.01936,
				"method": "rhf"
			},
			{
				"type": "unocc",
				"energy": 0.08827,
				"method": "rhf"
			},
			{
				"type": "unocc",
				"energy": 0.10886,
				"method": "rhf"
			}
		],
		"cosmo_sigma_profile": { 
			"-0.025": 0.0,
			"-0.024": 0.0,
			"-0.023": 0.0,
			"-0.022": 0.0,
			"-0.021": 0.0,
			"-0.02": 0.0,
			"-0.019": 0.0,
			"-0.018": 0.0,
			"-0.017": 0.0,
			"-0.016": 0.0,
			"-0.015": 0.0,
			"-0.014": 0.0,
			"-0.013": 0.0,
			"-0.012": 0.0,
			"-0.011": 0.0,
			"-0.01": 0.0,
			"-0.009": 0.0,
			"-0.008": 0.0,
			"-0.007": 2.65830482815,
			"-0.006": 13.9938816042,
			"-0.005": 16.4451760553,
			"-0.004": 18.6589657653,
			"-0.003": 15.688186604,
			"-0.002": 17.0833778721,
			"-0.001": 9.2173131594,
			"0.0": 10.8397284499,
			"0.001": 8.66287959358,
			"0.002": 11.0694090747,
			"0.003": 10.9400099355,
			"0.004": 11.8079825954,
			"0.005": 12.5094000146,
			"0.006": 3.71051848401,
			"0.007": 3.20704802028,
			"0.008": 1.27272276283,
			"0.009": 2.37260086915,
			"0.01": 2.7733690733,
			"0.011": 4.06144276096,
			"0.012": 2.23347097277,
			"0.013": 0.106267870688,
			"0.014": 0.0,
			"0.015": 0.0,
			"0.016": 0.0,
			"0.017": 0.0,
			"0.018": 0.0,
			"0.019": 0.0,
			"0.02": 0.0,
			"0.021": 0.0,
			"0.022": 0.0,
			"0.023": 0.0,
			"0.024": 0.0,
			"0.025": 0.0
		}
	}
}
