{
	 "smiles": "CS(=O)(=O)C1=NC(Cl)=CC(Cl)=N1", 
	 "Tm": 392.15, 
	 "num_atms": 16, 
	 "gaussian": { 
		 "optdone": 1, 
		 "sigma_profile": "yes", 
		 "theory": "DFT", 
		 "functional": "B3LYP", 
		 "basiset": "6-31G**", 
		 "properties": { 
			 "R2extent": 4541.5889, 
			 "electric_dipole_moment_norm": 5.13311719913, 
			 "electric_quadrupole_moment_norm": 15.3408547519, 
			 "total_energy": -1771.37915957, 
			 "HOMO_LUMO_gap": 0.21381, 
			 "cosmo_polarized_energy": -16.56, 
			 "cosmo_cavitation_energy": 26.63, 
			 "cosmo_dispersion_energy": -20.15, 
			 "cosmo_repulsion_energy": 1.6, 
			 "cosmo_total_nonelectrostatic_energy": 8.08, 
			 "SMD_solvation_energy": 1.41 
		},
		"coords": [
			{
				"x": -2.1062504406,
				"y": -1.1720490195,
				"z": 0.6567056207,
				"element": "C" 
			},
			{
				"x": -0.3963128795,
				"y": -0.8974956461,
				"z": 1.1562085373,
				"element": "S" 
			},
			{
				"x": -0.2599624656,
				"y": -1.260174867,
				"z": 2.5707326678,
				"element": "O" 
			},
			{
				"x": 0.485616261,
				"y": -1.475274344,
				"z": 0.136705111,
				"element": "O" 
			},
			{
				"x": -0.2133344373,
				"y": 0.9269657526,
				"z": 1.0509744645,
				"element": "C" 
			},
			{
				"x": -1.2727303788,
				"y": 1.6286959705,
				"z": 0.664420311,
				"element": "N" 
			},
			{
				"x": -1.0861512262,
				"y": 2.9449224442,
				"z": 0.6051387542,
				"element": "C" 
			},
			{
				"x": -2.4398379905,
				"y": 3.9188782152,
				"z": 0.104332583,
				"element": "Cl" 
			},
			{
				"x": 0.1229793682,
				"y": 3.5597787397,
				"z": 0.9211255463,
				"element": "C" 
			},
			{
				"x": 1.1445219463,
				"y": 2.6884430426,
				"z": 1.3111201001,
				"element": "C" 
			},
			{
				"x": 2.7017660063,
				"y": 3.3388876453,
				"z": 1.7306410306,
				"element": "Cl" 
			},
			{
				"x": 0.9921510256,
				"y": 1.3737238651,
				"z": 1.3807057429,
				"element": "N" 
			},
			{
				"x": -2.2535938254,
				"y": -0.8171518122,
				"z": -0.3625614926,
				"element": "H" 
			},
			{
				"x": -2.777878813,
				"y": -0.665957095,
				"z": 1.3490632397,
				"element": "H" 
			},
			{
				"x": -2.2362367664,
				"y": -2.2548386144,
				"z": 0.7125356586,
				"element": "H" 
			},
			{
				"x": 0.2616546161,
				"y": 4.630845723,
				"z": 0.8688521252,
				"element": "H" 
			}
		],
		 "valence_orbital": [ 
			{
				"type": "occ",
				"energy": -0.3257,
				"method": "rhf"
			},
			{
				"type": "occ",
				"energy": -0.3147,
				"method": "rhf"
			},
			{
				"type": "occ",
				"energy": -0.3124,
				"method": "rhf"
			},
			{
				"type": "occ",
				"energy": -0.30182,
				"method": "rhf"
			},
			{
				"type": "occ",
				"energy": -0.29979,
				"method": "rhf"
			},
			{
				"type": "unocc",
				"energy": -0.08598,
				"method": "rhf"
			},
			{
				"type": "unocc",
				"energy": -0.0853,
				"method": "rhf"
			},
			{
				"type": "unocc",
				"energy": -0.01915,
				"method": "rhf"
			},
			{
				"type": "unocc",
				"energy": 0.02098,
				"method": "rhf"
			},
			{
				"type": "unocc",
				"energy": 0.05691,
				"method": "rhf"
			}
		],
		"cosmo_sigma_profile": { 
			"-0.025": 0.0,
			"-0.024": 0.0,
			"-0.023": 0.0,
			"-0.022": 0.0,
			"-0.021": 0.0,
			"-0.02": 0.0,
			"-0.019": 0.0,
			"-0.018": 0.0,
			"-0.017": 0.0,
			"-0.016": 0.0,
			"-0.015": 0.0,
			"-0.014": 0.0,
			"-0.013": 0.0,
			"-0.012": 0.376796460864,
			"-0.011": 1.60740340246,
			"-0.01": 2.53042025478,
			"-0.009": 5.86338684325,
			"-0.008": 9.60465332532,
			"-0.007": 9.41350018698,
			"-0.006": 9.21537770003,
			"-0.005": 18.4735552593,
			"-0.004": 18.2159766301,
			"-0.003": 12.3742685318,
			"-0.002": 10.3177218269,
			"-0.001": 9.75837948425,
			"0.0": 11.7582969144,
			"0.001": 15.2446755912,
			"0.002": 21.4998320015,
			"0.003": 9.61664406912,
			"0.004": 5.03377405763,
			"0.005": 5.34488592673,
			"0.006": 5.09332326998,
			"0.007": 5.4412981917,
			"0.008": 4.44541571335,
			"0.009": 4.81937625403,
			"0.01": 11.4478954014,
			"0.011": 10.7518160348,
			"0.012": 1.17018354222,
			"0.013": 0.0,
			"0.014": 0.0,
			"0.015": 0.0,
			"0.016": 0.0,
			"0.017": 0.0,
			"0.018": 0.0,
			"0.019": 0.0,
			"0.02": 0.0,
			"0.021": 0.0,
			"0.022": 0.0,
			"0.023": 0.0,
			"0.024": 0.0,
			"0.025": 0.0
		}
	}
}
