{
	 "smiles": "OC(=O)C1=CC=C(C=C1)S(=O)(=O)NC1=CC=NC=C1", 
	 "Tm": 571.15, 
	 "num_atms": 29, 
	 "gaussian": { 
		 "optdone": 1, 
		 "sigma_profile": "yes", 
		 "theory": "DFT", 
		 "functional": "B3LYP", 
		 "basiset": "6-31G**", 
		 "properties": { 
			 "R2extent": 7362.6176, 
			 "electric_dipole_moment_norm": 4.54716122432, 
			 "electric_quadrupole_moment_norm": 21.9631402019, 
			 "total_energy": -1271.81658797, 
			 "HOMO_LUMO_gap": 0.17553, 
			 "cosmo_polarized_energy": -27.48, 
			 "cosmo_cavitation_energy": 35.81, 
			 "cosmo_dispersion_energy": -25.74, 
			 "cosmo_repulsion_energy": 1.93, 
			 "cosmo_total_nonelectrostatic_energy": 11.99, 
			 "SMD_solvation_energy": 5.14 
		},
		"coords": [
			{
				"x": -1.5507653621,
				"y": 3.9179909474,
				"z": -3.1529392021,
				"element": "O" 
			},
			{
				"x": -2.3789411076,
				"y": 3.6120999802,
				"z": -2.1217219648,
				"element": "C" 
			},
			{
				"x": -3.1702309511,
				"y": 4.4269361505,
				"z": -1.7131259792,
				"element": "O" 
			},
			{
				"x": -2.2541900483,
				"y": 2.2323011629,
				"z": -1.5359399615,
				"element": "C" 
			},
			{
				"x": -1.708899847,
				"y": 1.1506804253,
				"z": -2.2426041514,
				"element": "C" 
			},
			{
				"x": -1.6350120371,
				"y": -0.1105077805,
				"z": -1.6549055182,
				"element": "C" 
			},
			{
				"x": -2.1118720565,
				"y": -0.2788655279,
				"z": -0.3535515866,
				"element": "C" 
			},
			{
				"x": -2.683938918,
				"y": 0.7804399814,
				"z": 0.3573370084,
				"element": "C" 
			},
			{
				"x": -2.7563221032,
				"y": 2.0338267424,
				"z": -0.2428040514,
				"element": "C" 
			},
			{
				"x": -1.9854487495,
				"y": -1.9017212767,
				"z": 0.4116738521,
				"element": "S" 
			},
			{
				"x": -3.053147132,
				"y": -2.0065444711,
				"z": 1.4015797354,
				"element": "O" 
			},
			{
				"x": -1.7836319188,
				"y": -2.8848400334,
				"z": -0.6501942205,
				"element": "O" 
			},
			{
				"x": -0.5067373336,
				"y": -1.9065810561,
				"z": 1.2416480905,
				"element": "N" 
			},
			{
				"x": -0.1563723213,
				"y": -1.0864149349,
				"z": 2.334286376,
				"element": "C" 
			},
			{
				"x": -1.0522224228,
				"y": -0.7682184156,
				"z": 3.3638677076,
				"element": "C" 
			},
			{
				"x": -0.589436384,
				"y": 0.026574427,
				"z": 4.4115643432,
				"element": "C" 
			},
			{
				"x": 0.6602236071,
				"y": 0.49577046,
				"z": 4.5201476987,
				"element": "N" 
			},
			{
				"x": 1.5063776744,
				"y": 0.1655535487,
				"z": 3.5368880859,
				"element": "C" 
			},
			{
				"x": 1.1558331785,
				"y": -0.6033265479,
				"z": 2.4300825196,
				"element": "C" 
			},
			{
				"x": -0.8706644585,
				"y": 3.2385948216,
				"z": -3.2583685713,
				"element": "H" 
			},
			{
				"x": -1.379059057,
				"y": 1.2662044513,
				"z": -3.271845877,
				"element": "H" 
			},
			{
				"x": -1.2427437869,
				"y": -0.9609131212,
				"z": -2.2015703721,
				"element": "H" 
			},
			{
				"x": -3.0824836575,
				"y": 0.6163386942,
				"z": 1.3515164402,
				"element": "H" 
			},
			{
				"x": -3.207363783,
				"y": 2.8748382793,
				"z": 0.2721233661,
				"element": "H" 
			},
			{
				"x": 0.2484471563,
				"y": -2.1616349705,
				"z": 0.6143595119,
				"element": "H" 
			},
			{
				"x": -2.0668039864,
				"y": -1.1454093287,
				"z": 3.3559299077,
				"element": "H" 
			},
			{
				"x": -1.2698711912,
				"y": 0.2891178848,
				"z": 5.2196435349,
				"element": "H" 
			},
			{
				"x": 2.5233078486,
				"y": 0.543008314,
				"z": 3.6288612282,
				"element": "H" 
			},
			{
				"x": 1.8895691486,
				"y": -0.8228988065,
				"z": 1.6592620494,
				"element": "H" 
			}
		],
		 "valence_orbital": [ 
			{
				"type": "occ",
				"energy": -0.2991,
				"method": "rhf"
			},
			{
				"type": "occ",
				"energy": -0.28929,
				"method": "rhf"
			},
			{
				"type": "occ",
				"energy": -0.27671,
				"method": "rhf"
			},
			{
				"type": "occ",
				"energy": -0.26548,
				"method": "rhf"
			},
			{
				"type": "occ",
				"energy": -0.2625,
				"method": "rhf"
			},
			{
				"type": "unocc",
				"energy": -0.08697,
				"method": "rhf"
			},
			{
				"type": "unocc",
				"energy": -0.0502,
				"method": "rhf"
			},
			{
				"type": "unocc",
				"energy": -0.03446,
				"method": "rhf"
			},
			{
				"type": "unocc",
				"energy": -0.02547,
				"method": "rhf"
			},
			{
				"type": "unocc",
				"energy": 0.0118,
				"method": "rhf"
			}
		],
		"cosmo_sigma_profile": { 
			"-0.025": 0.0,
			"-0.024": 0.0,
			"-0.023": 0.0,
			"-0.022": 0.0,
			"-0.021": 0.0,
			"-0.02": 0.0516520355157,
			"-0.019": 0.963743255929,
			"-0.018": 1.13440800959,
			"-0.017": 0.956199230759,
			"-0.016": 2.5098015743,
			"-0.015": 1.83927312754,
			"-0.014": 2.25896447632,
			"-0.013": 2.78832442372,
			"-0.012": 2.79752593295,
			"-0.011": 2.41616625775,
			"-0.01": 2.87061875553,
			"-0.009": 3.11365282798,
			"-0.008": 7.83545769209,
			"-0.007": 11.7642601206,
			"-0.006": 15.4449262868,
			"-0.005": 15.1516066962,
			"-0.004": 12.8832183335,
			"-0.003": 14.4693265331,
			"-0.002": 13.7421721071,
			"-0.001": 17.8671702265,
			"0.0": 23.8776502833,
			"0.001": 22.3720460891,
			"0.002": 19.7349293602,
			"0.003": 10.2498256438,
			"0.004": 7.96646105425,
			"0.005": 8.43185494238,
			"0.006": 6.59063369628,
			"0.007": 6.48279084401,
			"0.008": 7.60478831174,
			"0.009": 10.7240923157,
			"0.01": 14.1560128852,
			"0.011": 8.8090338218,
			"0.012": 4.19138419698,
			"0.013": 1.25766196929,
			"0.014": 0.708217348664,
			"0.015": 1.04112405499,
			"0.016": 0.875817105194,
			"0.017": 0.32365537435,
			"0.018": 0.0,
			"0.019": 0.0,
			"0.02": 0.0,
			"0.021": 0.0,
			"0.022": 0.0,
			"0.023": 0.0,
			"0.024": 0.0,
			"0.025": 0.0
		}
	}
}
