{
	 "smiles": "NC1=NC(=O)NC=N1", 
	 "Tm": 573.15, 
	 "num_atms": 12, 
	 "gaussian": { 
		 "optdone": 1, 
		 "sigma_profile": "yes", 
		 "theory": "DFT", 
		 "functional": "B3LYP", 
		 "basiset": "6-31G**", 
		 "properties": { 
			 "R2extent": 1546.6372, 
			 "electric_dipole_moment_norm": 4.55009782422, 
			 "electric_quadrupole_moment_norm": 19.9691648135, 
			 "total_energy": -410.984789644, 
			 "HOMO_LUMO_gap": 0.20881, 
			 "cosmo_polarized_energy": -20.99, 
			 "cosmo_cavitation_energy": 16.83, 
			 "cosmo_dispersion_energy": -13.1, 
			 "cosmo_repulsion_energy": 1.11, 
			 "cosmo_total_nonelectrostatic_energy": 4.84, 
			 "SMD_solvation_energy": 1.33 
		},
		"coords": [
			{
				"x": 0.2701447931,
				"y": -0.6522344349,
				"z": 1.4217426507,
				"element": "N" 
			},
			{
				"x": 0.9896376567,
				"y": -0.7980486846,
				"z": 0.2896717375,
				"element": "C" 
			},
			{
				"x": 0.3847404267,
				"y": -1.2800078518,
				"z": -0.7799699877,
				"element": "N" 
			},
			{
				"x": 1.1102301914,
				"y": -1.429549591,
				"z": -1.9302130558,
				"element": "C" 
			},
			{
				"x": 0.7117001721,
				"y": -1.8552460761,
				"z": -2.9972438665,
				"element": "O" 
			},
			{
				"x": 2.4889080336,
				"y": -1.0288359091,
				"z": -1.8252013891,
				"element": "N" 
			},
			{
				"x": 3.0050898796,
				"y": -0.5469290845,
				"z": -0.6779039211,
				"element": "C" 
			},
			{
				"x": 2.3164073764,
				"y": -0.4047424601,
				"z": 0.4144372571,
				"element": "N" 
			},
			{
				"x": -0.7014737244,
				"y": -0.9153582284,
				"z": 1.4210413819,
				"element": "H" 
			},
			{
				"x": 0.7134380519,
				"y": -0.2885510805,
				"z": 2.248145901,
				"element": "H" 
			},
			{
				"x": 3.0475589197,
				"y": -1.1291868958,
				"z": -2.6626401076,
				"element": "H" 
			},
			{
				"x": 4.0577182233,
				"y": -0.2672097031,
				"z": -0.6871666004,
				"element": "H" 
			}
		],
		 "valence_orbital": [ 
			{
				"type": "occ",
				"energy": -0.33247,
				"method": "rhf"
			},
			{
				"type": "occ",
				"energy": -0.272,
				"method": "rhf"
			},
			{
				"type": "occ",
				"energy": -0.26791,
				"method": "rhf"
			},
			{
				"type": "occ",
				"energy": -0.25503,
				"method": "rhf"
			},
			{
				"type": "occ",
				"energy": -0.24919,
				"method": "rhf"
			},
			{
				"type": "unocc",
				"energy": -0.04038,
				"method": "rhf"
			},
			{
				"type": "unocc",
				"energy": 0.00979,
				"method": "rhf"
			},
			{
				"type": "unocc",
				"energy": 0.06807,
				"method": "rhf"
			},
			{
				"type": "unocc",
				"energy": 0.08394,
				"method": "rhf"
			},
			{
				"type": "unocc",
				"energy": 0.12432,
				"method": "rhf"
			}
		],
		"cosmo_sigma_profile": { 
			"-0.025": 0.0,
			"-0.024": 0.0,
			"-0.023": 0.0,
			"-0.022": 0.0,
			"-0.021": 0.0,
			"-0.02": 0.0,
			"-0.019": 0.0,
			"-0.018": 0.0,
			"-0.017": 1.02179170371,
			"-0.016": 1.64886680233,
			"-0.015": 2.51266245824,
			"-0.014": 3.04372797833,
			"-0.013": 3.79957521131,
			"-0.012": 3.46315569599,
			"-0.011": 4.17728167991,
			"-0.01": 4.48794261094,
			"-0.009": 4.31620911021,
			"-0.008": 4.11805424624,
			"-0.007": 2.77603136121,
			"-0.006": 3.21846241011,
			"-0.005": 4.52878489299,
			"-0.004": 5.42930880957,
			"-0.003": 8.28212520243,
			"-0.002": 6.35305338243,
			"-0.001": 4.87478102906,
			"0.0": 4.67258372851,
			"0.001": 5.16939157719,
			"0.002": 7.1116977428,
			"0.003": 4.51360464018,
			"0.004": 2.92389131432,
			"0.005": 3.24591609273,
			"0.006": 3.17107641361,
			"0.007": 2.74500171284,
			"0.008": 3.33536934658,
			"0.009": 2.39002882615,
			"0.01": 2.96839306504,
			"0.011": 1.91306275634,
			"0.012": 4.80514534339,
			"0.013": 7.82042494037,
			"0.014": 4.93708584293,
			"0.015": 3.51436130269,
			"0.016": 1.16572519094,
			"0.017": 0.101682117359,
			"0.018": 0.0,
			"0.019": 0.0,
			"0.02": 0.0,
			"0.021": 0.0,
			"0.022": 0.0,
			"0.023": 0.0,
			"0.024": 0.0,
			"0.025": 0.0
		}
	}
}
