{
	 "smiles": "OC(=O)CC(NC(=O)C1=CC=CC=C1)C1=CC=CC=C1", 
	 "Tm": 471.15, 
	 "num_atms": 35, 
	 "gaussian": { 
		 "optdone": 1, 
		 "sigma_profile": "yes", 
		 "theory": "DFT", 
		 "functional": "B3LYP", 
		 "basiset": "6-31G**", 
		 "properties": { 
			 "R2extent": 7439.1827, 
			 "electric_dipole_moment_norm": 4.00383390515, 
			 "electric_quadrupole_moment_norm": 18.7973011478, 
			 "total_energy": -899.203478975, 
			 "HOMO_LUMO_gap": 0.20949, 
			 "cosmo_polarized_energy": -18.6, 
			 "cosmo_cavitation_energy": 39.82, 
			 "cosmo_dispersion_energy": -27.33, 
			 "cosmo_repulsion_energy": 2.12, 
			 "cosmo_total_nonelectrostatic_energy": 14.6, 
			 "SMD_solvation_energy": 7.79 
		},
		"coords": [
			{
				"x": 3.1206580708,
				"y": 2.9061483025,
				"z": -0.502286725,
				"element": "O" 
			},
			{
				"x": 1.8573225403,
				"y": 3.1866989981,
				"z": -0.9152823701,
				"element": "C" 
			},
			{
				"x": 1.6304503794,
				"y": 3.9544415046,
				"z": -1.8232938217,
				"element": "O" 
			},
			{
				"x": 0.8144909465,
				"y": 2.4651328094,
				"z": -0.0934205634,
				"element": "C" 
			},
			{
				"x": 1.1404407132,
				"y": 0.9776918609,
				"z": 0.1890458981,
				"element": "C" 
			},
			{
				"x": 0.0911380882,
				"y": 0.3936796013,
				"z": 1.0360271813,
				"element": "N" 
			},
			{
				"x": 0.0120036514,
				"y": 0.6991188718,
				"z": 2.3704693441,
				"element": "C" 
			},
			{
				"x": 0.734804526,
				"y": 1.5521543451,
				"z": 2.8833209768,
				"element": "O" 
			},
			{
				"x": -1.0073355098,
				"y": -0.0612754912,
				"z": 3.1717585036,
				"element": "C" 
			},
			{
				"x": -0.8431237743,
				"y": -0.0831490218,
				"z": 4.5632458777,
				"element": "C" 
			},
			{
				"x": -1.7468177852,
				"y": -0.7725370851,
				"z": 5.3682651462,
				"element": "C" 
			},
			{
				"x": -2.8331401109,
				"y": -1.4364407779,
				"z": 4.7921628146,
				"element": "C" 
			},
			{
				"x": -3.0149636487,
				"y": -1.4027613165,
				"z": 3.4082509373,
				"element": "C" 
			},
			{
				"x": -2.106608367,
				"y": -0.7183339997,
				"z": 2.6004967237,
				"element": "C" 
			},
			{
				"x": 1.2837602122,
				"y": 0.1531700292,
				"z": -1.0788235893,
				"element": "C" 
			},
			{
				"x": 2.5202485189,
				"y": -0.4062264119,
				"z": -1.4218968479,
				"element": "C" 
			},
			{
				"x": 2.6615748819,
				"y": -1.1613950921,
				"z": -2.5874545254,
				"element": "C" 
			},
			{
				"x": 1.5645715569,
				"y": -1.3705869428,
				"z": -3.424250516,
				"element": "C" 
			},
			{
				"x": 0.3263941958,
				"y": -0.8165979678,
				"z": -3.0924458131,
				"element": "C" 
			},
			{
				"x": 0.1883471728,
				"y": -0.0576152597,
				"z": -1.9301058122,
				"element": "C" 
			},
			{
				"x": 3.7088536646,
				"y": 3.4252464846,
				"z": -1.076255179,
				"element": "H" 
			},
			{
				"x": -0.1410456369,
				"y": 2.5668987563,
				"z": -0.6114029171,
				"element": "H" 
			},
			{
				"x": 0.7397592064,
				"y": 2.9700489214,
				"z": 0.8760810446,
				"element": "H" 
			},
			{
				"x": 2.0826703693,
				"y": 0.952708,
				"z": 0.7454095204,
				"element": "H" 
			},
			{
				"x": -0.3163204955,
				"y": -0.4728199516,
				"z": 0.7174937092,
				"element": "H" 
			},
			{
				"x": 0.0003381884,
				"y": 0.4504957024,
				"z": 4.9879838825,
				"element": "H" 
			},
			{
				"x": -1.6071777425,
				"y": -0.7906521523,
				"z": 6.4452301396,
				"element": "H" 
			},
			{
				"x": -3.5401630379,
				"y": -1.9712098845,
				"z": 5.4199051279,
				"element": "H" 
			},
			{
				"x": -3.8682920805,
				"y": -1.9014966481,
				"z": 2.9580402954,
				"element": "H" 
			},
			{
				"x": -2.2809474463,
				"y": -0.6704836037,
				"z": 1.5292875779,
				"element": "H" 
			},
			{
				"x": 3.3758879548,
				"y": -0.2432070285,
				"z": -0.7727882194,
				"element": "H" 
			},
			{
				"x": 3.628183279,
				"y": -1.588311201,
				"z": -2.8391633597,
				"element": "H" 
			},
			{
				"x": 1.6732757463,
				"y": -1.9593475473,
				"z": -4.3304452809,
				"element": "H" 
			},
			{
				"x": -0.5308853458,
				"y": -0.9700534085,
				"z": -3.7416315162,
				"element": "H" 
			},
			{
				"x": -0.7771528816,
				"y": 0.3791666045,
				"z": -1.6868276445,
				"element": "H" 
			}
		],
		 "valence_orbital": [ 
			{
				"type": "occ",
				"energy": -0.26153,
				"method": "rhf"
			},
			{
				"type": "occ",
				"energy": -0.25966,
				"method": "rhf"
			},
			{
				"type": "occ",
				"energy": -0.25739,
				"method": "rhf"
			},
			{
				"type": "occ",
				"energy": -0.25403,
				"method": "rhf"
			},
			{
				"type": "occ",
				"energy": -0.2484,
				"method": "rhf"
			},
			{
				"type": "unocc",
				"energy": -0.03891,
				"method": "rhf"
			},
			{
				"type": "unocc",
				"energy": -0.01504,
				"method": "rhf"
			},
			{
				"type": "unocc",
				"energy": -0.01176,
				"method": "rhf"
			},
			{
				"type": "unocc",
				"energy": -0.01033,
				"method": "rhf"
			},
			{
				"type": "unocc",
				"energy": 0.01406,
				"method": "rhf"
			}
		],
		"cosmo_sigma_profile": { 
			"-0.025": 0.0,
			"-0.024": 0.0,
			"-0.023": 0.0,
			"-0.022": 0.0,
			"-0.021": 0.0,
			"-0.02": 0.0,
			"-0.019": 0.0,
			"-0.018": 0.799567795418,
			"-0.017": 0.762765445553,
			"-0.016": 1.24599262645,
			"-0.015": 0.687427355497,
			"-0.014": 0.211488598473,
			"-0.013": 0.710625549712,
			"-0.012": 1.75929165172,
			"-0.011": 2.45338515513,
			"-0.01": 2.31321909945,
			"-0.009": 1.17618562862,
			"-0.008": 2.41895761505,
			"-0.007": 3.66452937913,
			"-0.006": 20.019175119,
			"-0.005": 27.5449294695,
			"-0.004": 28.182299861,
			"-0.003": 21.2698128049,
			"-0.002": 20.0485250644,
			"-0.001": 18.962410642,
			"0.0": 19.4496991382,
			"0.001": 20.1277063961,
			"0.002": 21.0242612958,
			"0.003": 22.0672115103,
			"0.004": 24.9334872775,
			"0.005": 17.9060653899,
			"0.006": 5.42308330767,
			"0.007": 2.65350706477,
			"0.008": 3.92574600723,
			"0.009": 3.8750235547,
			"0.01": 3.9887118701,
			"0.011": 4.83600299601,
			"0.012": 6.73373407831,
			"0.013": 4.55290868465,
			"0.014": 1.48867899868,
			"0.015": 0.0,
			"0.016": 0.0,
			"0.017": 0.0,
			"0.018": 0.0,
			"0.019": 0.0,
			"0.02": 0.0,
			"0.021": 0.0,
			"0.022": 0.0,
			"0.023": 0.0,
			"0.024": 0.0,
			"0.025": 0.0
		}
	}
}
