{
	 "smiles": "ClC1=CC=C(C(=O)NC2=C(C#N)C3=C(CCCC3)S2)C(Cl)=C1", 
	 "Tm": 475.15, 
	 "num_atms": 34, 
	 "gaussian": { 
		 "optdone": 1, 
		 "sigma_profile": "yes", 
		 "theory": "DFT", 
		 "functional": "B3LYP", 
		 "basiset": "6-31G**", 
		 "properties": { 
			 "R2extent": 9560.9146, 
			 "electric_dipole_moment_norm": 6.00286888829, 
			 "electric_quadrupole_moment_norm": 17.2553116805, 
			 "total_energy": -2120.22641501, 
			 "HOMO_LUMO_gap": 0.18146, 
			 "cosmo_polarized_energy": -14.96, 
			 "cosmo_cavitation_energy": 43.32, 
			 "cosmo_dispersion_energy": -29.5, 
			 "cosmo_repulsion_energy": 2.27, 
			 "cosmo_total_nonelectrostatic_energy": 16.09, 
			 "SMD_solvation_energy": 7.11 
		},
		"coords": [
			{
				"x": 0.2575237675,
				"y": -0.9316396364,
				"z": 5.0347794404,
				"element": "Cl" 
			},
			{
				"x": -0.9548150987,
				"y": -0.6261066676,
				"z": 3.8049649898,
				"element": "C" 
			},
			{
				"x": -1.4631485772,
				"y": 0.6619615601,
				"z": 3.6417004469,
				"element": "C" 
			},
			{
				"x": -2.4257903478,
				"y": 0.8859666819,
				"z": 2.6612227166,
				"element": "C" 
			},
			{
				"x": -2.8707421462,
				"y": -0.1475913399,
				"z": 1.8266501174,
				"element": "C" 
			},
			{
				"x": -3.9819950259,
				"y": 0.1357206737,
				"z": 0.8444902789,
				"element": "C" 
			},
			{
				"x": -5.1296345356,
				"y": 0.3112725617,
				"z": 1.2086458335,
				"element": "O" 
			},
			{
				"x": -3.6489645852,
				"y": 0.2003436705,
				"z": -0.5022985279,
				"element": "N" 
			},
			{
				"x": -2.3753563529,
				"y": 0.2175214643,
				"z": -1.0817944105,
				"element": "C" 
			},
			{
				"x": -1.4139135104,
				"y": 1.2093954752,
				"z": -1.0001878263,
				"element": "C" 
			},
			{
				"x": -1.6096070628,
				"y": 2.4171443392,
				"z": -0.2709695128,
				"element": "C" 
			},
			{
				"x": -1.7612375781,
				"y": 3.4086327118,
				"z": 0.3203563635,
				"element": "N" 
			},
			{
				"x": -0.2217744487,
				"y": 0.9178076689,
				"z": -1.753908845,
				"element": "C" 
			},
			{
				"x": -0.3070130441,
				"y": -0.2804918903,
				"z": -2.4121914186,
				"element": "C" 
			},
			{
				"x": 0.756521333,
				"y": -0.8515172035,
				"z": -3.311729383,
				"element": "C" 
			},
			{
				"x": 2.0924758899,
				"y": -0.1187334625,
				"z": -3.08245784,
				"element": "C" 
			},
			{
				"x": 1.8946069752,
				"y": 1.4033539497,
				"z": -3.0216809747,
				"element": "C" 
			},
			{
				"x": 0.9938501093,
				"y": 1.8077230316,
				"z": -1.8417066233,
				"element": "C" 
			},
			{
				"x": -1.8213034351,
				"y": -1.0880252985,
				"z": -2.1000343513,
				"element": "S" 
			},
			{
				"x": -2.3548228944,
				"y": -1.4325065888,
				"z": 2.0338766298,
				"element": "C" 
			},
			{
				"x": -2.9354259406,
				"y": -2.7920172536,
				"z": 1.0848675393,
				"element": "Cl" 
			},
			{
				"x": -1.3960544479,
				"y": -1.6852410504,
				"z": 3.014634637,
				"element": "C" 
			},
			{
				"x": -1.1154743486,
				"y": 1.4724916272,
				"z": 4.2713676731,
				"element": "H" 
			},
			{
				"x": -2.8286286374,
				"y": 1.883640296,
				"z": 2.5245946231,
				"element": "H" 
			},
			{
				"x": -4.4576463881,
				"y": 0.3315781135,
				"z": -1.1011095397,
				"element": "H" 
			},
			{
				"x": 0.4473882035,
				"y": -0.7438005727,
				"z": -4.3610424074,
				"element": "H" 
			},
			{
				"x": 0.8775342498,
				"y": -1.9268052299,
				"z": -3.1364141422,
				"element": "H" 
			},
			{
				"x": 2.5376380783,
				"y": -0.4651053274,
				"z": -2.1410141617,
				"element": "H" 
			},
			{
				"x": 2.7932852234,
				"y": -0.3832403946,
				"z": -3.8813208357,
				"element": "H" 
			},
			{
				"x": 2.8617849252,
				"y": 1.9095655122,
				"z": -2.9364666665,
				"element": "H" 
			},
			{
				"x": 1.4399845113,
				"y": 1.7461433584,
				"z": -3.9603538262,
				"element": "H" 
			},
			{
				"x": 0.6868464296,
				"y": 2.8560311963,
				"z": -1.9331449067,
				"element": "H" 
			},
			{
				"x": 1.5582453572,
				"y": 1.7413069158,
				"z": -0.900826904,
				"element": "H" 
			},
			{
				"x": -1.0121366474,
				"y": -2.6869788921,
				"z": 3.1620018142,
				"element": "H" 
			}
		],
		 "valence_orbital": [ 
			{
				"type": "occ",
				"energy": -0.28094,
				"method": "rhf"
			},
			{
				"type": "occ",
				"energy": -0.2701,
				"method": "rhf"
			},
			{
				"type": "occ",
				"energy": -0.26472,
				"method": "rhf"
			},
			{
				"type": "occ",
				"energy": -0.25568,
				"method": "rhf"
			},
			{
				"type": "occ",
				"energy": -0.24208,
				"method": "rhf"
			},
			{
				"type": "unocc",
				"energy": -0.06062,
				"method": "rhf"
			},
			{
				"type": "unocc",
				"energy": -0.03654,
				"method": "rhf"
			},
			{
				"type": "unocc",
				"energy": -0.03023,
				"method": "rhf"
			},
			{
				"type": "unocc",
				"energy": -0.00694,
				"method": "rhf"
			},
			{
				"type": "unocc",
				"energy": -0.00083,
				"method": "rhf"
			}
		],
		"cosmo_sigma_profile": { 
			"-0.025": 0.0,
			"-0.024": 0.0,
			"-0.023": 0.0,
			"-0.022": 0.0,
			"-0.021": 0.0,
			"-0.02": 0.0,
			"-0.019": 0.0,
			"-0.018": 0.0,
			"-0.017": 0.0,
			"-0.016": 0.512211455934,
			"-0.015": 1.49554955281,
			"-0.014": 0.843003072763,
			"-0.013": 1.10904988003,
			"-0.012": 1.07674598394,
			"-0.011": 0.707005340337,
			"-0.01": 1.02623973762,
			"-0.009": 2.08679437854,
			"-0.008": 4.50580118591,
			"-0.007": 5.55839588099,
			"-0.006": 6.97824312379,
			"-0.005": 11.2865747096,
			"-0.004": 21.7707790268,
			"-0.003": 33.4373277655,
			"-0.002": 38.3053208656,
			"-0.001": 37.4121782686,
			"0.0": 44.2160084281,
			"0.001": 37.0186085692,
			"0.002": 25.455754068,
			"0.003": 20.8547641127,
			"0.004": 17.2915028949,
			"0.005": 4.34952146257,
			"0.006": 3.3388038753,
			"0.007": 4.03515569964,
			"0.008": 3.54755056029,
			"0.009": 4.0866906075,
			"0.01": 4.5958838369,
			"0.011": 6.6458581086,
			"0.012": 6.75040784307,
			"0.013": 1.94580964559,
			"0.014": 0.0,
			"0.015": 0.0,
			"0.016": 0.0,
			"0.017": 0.0,
			"0.018": 0.0,
			"0.019": 0.0,
			"0.02": 0.0,
			"0.021": 0.0,
			"0.022": 0.0,
			"0.023": 0.0,
			"0.024": 0.0,
			"0.025": 0.0
		}
	}
}
