{
	 "smiles": "CC1=CC=C(C=C1)C1=NC(CCl)=CO1", 
	 "Tm": 371.15, 
	 "num_atms": 24, 
	 "gaussian": { 
		 "optdone": 1, 
		 "sigma_profile": "yes", 
		 "theory": "DFT", 
		 "functional": "B3LYP", 
		 "basiset": "6-31G**", 
		 "properties": { 
			 "R2extent": 6122.7789, 
			 "electric_dipole_moment_norm": 3.25528187105, 
			 "electric_quadrupole_moment_norm": 20.3351799097, 
			 "total_energy": -1015.36882997, 
			 "HOMO_LUMO_gap": 0.17904, 
			 "cosmo_polarized_energy": -9.78, 
			 "cosmo_cavitation_energy": 30.52, 
			 "cosmo_dispersion_energy": -22.42, 
			 "cosmo_repulsion_energy": 1.78, 
			 "cosmo_total_nonelectrostatic_energy": 9.87, 
			 "SMD_solvation_energy": 4.14 
		},
		"coords": [
			{
				"x": -0.1138633001,
				"y": 3.385719155,
				"z": -1.862806012,
				"element": "C" 
			},
			{
				"x": 0.2191147942,
				"y": 2.2771867773,
				"z": -0.8937108576,
				"element": "C" 
			},
			{
				"x": 0.0389464913,
				"y": 0.9315589624,
				"z": -1.2518850517,
				"element": "C" 
			},
			{
				"x": 0.3189667468,
				"y": -0.0960687825,
				"z": -0.3596192845,
				"element": "C" 
			},
			{
				"x": 0.7937100554,
				"y": 0.1986179186,
				"z": 0.9292661889,
				"element": "C" 
			},
			{
				"x": 0.981275708,
				"y": 1.5386240364,
				"z": 1.2978084112,
				"element": "C" 
			},
			{
				"x": 0.6966782799,
				"y": 2.5584441049,
				"z": 0.3930863079,
				"element": "C" 
			},
			{
				"x": 1.0848026088,
				"y": -0.8945191087,
				"z": 1.8499073263,
				"element": "C" 
			},
			{
				"x": 0.9475885333,
				"y": -2.1755884219,
				"z": 1.6545302633,
				"element": "N" 
			},
			{
				"x": 1.3578276959,
				"y": -2.7682996868,
				"z": 2.8400739878,
				"element": "C" 
			},
			{
				"x": 1.3482404195,
				"y": -4.238484431,
				"z": 3.0340050709,
				"element": "C" 
			},
			{
				"x": 2.8233077999,
				"y": -5.0572290615,
				"z": 2.3119652545,
				"element": "Cl" 
			},
			{
				"x": 1.7297473319,
				"y": -1.7931219626,
				"z": 3.713756767,
				"element": "C" 
			},
			{
				"x": 1.5606531417,
				"y": -0.5870429851,
				"z": 3.097000557,
				"element": "O" 
			},
			{
				"x": 0.195532779,
				"y": 3.1323220364,
				"z": -2.8818434545,
				"element": "H" 
			},
			{
				"x": 0.3744498601,
				"y": 4.3233270253,
				"z": -1.5827433176,
				"element": "H" 
			},
			{
				"x": -1.1945337881,
				"y": 3.5738130908,
				"z": -1.8914656366,
				"element": "H" 
			},
			{
				"x": -0.3240501375,
				"y": 0.6883291833,
				"z": -2.2473826797,
				"element": "H" 
			},
			{
				"x": 0.1810726264,
				"y": -1.1338649676,
				"z": -0.643810884,
				"element": "H" 
			},
			{
				"x": 1.3523148846,
				"y": 1.7773423381,
				"z": 2.2888712894,
				"element": "H" 
			},
			{
				"x": 0.8498872611,
				"y": 3.5924185138,
				"z": 0.6912954196,
				"element": "H" 
			},
			{
				"x": 0.4917868961,
				"y": -4.6891008342,
				"z": 2.5336364729,
				"element": "H" 
			},
			{
				"x": 1.3466541924,
				"y": -4.5069908095,
				"z": 4.0900559521,
				"element": "H" 
			},
			{
				"x": 2.1076891195,
				"y": -1.7783920911,
				"z": 4.7233079095,
				"element": "H" 
			}
		],
		 "valence_orbital": [ 
			{
				"type": "occ",
				"energy": -0.29297,
				"method": "rhf"
			},
			{
				"type": "occ",
				"energy": -0.28967,
				"method": "rhf"
			},
			{
				"type": "occ",
				"energy": -0.2775,
				"method": "rhf"
			},
			{
				"type": "occ",
				"energy": -0.25719,
				"method": "rhf"
			},
			{
				"type": "occ",
				"energy": -0.22308,
				"method": "rhf"
			},
			{
				"type": "unocc",
				"energy": -0.04404,
				"method": "rhf"
			},
			{
				"type": "unocc",
				"energy": -0.01177,
				"method": "rhf"
			},
			{
				"type": "unocc",
				"energy": -0.0055,
				"method": "rhf"
			},
			{
				"type": "unocc",
				"energy": 0.04963,
				"method": "rhf"
			},
			{
				"type": "unocc",
				"energy": 0.07532,
				"method": "rhf"
			}
		],
		"cosmo_sigma_profile": { 
			"-0.025": 0.0,
			"-0.024": 0.0,
			"-0.023": 0.0,
			"-0.022": 0.0,
			"-0.021": 0.0,
			"-0.02": 0.0,
			"-0.019": 0.0,
			"-0.018": 0.0,
			"-0.017": 0.0,
			"-0.016": 0.0,
			"-0.015": 0.0,
			"-0.014": 0.0,
			"-0.013": 0.0,
			"-0.012": 0.0,
			"-0.011": 0.364626104483,
			"-0.01": 2.28206358244,
			"-0.009": 3.27634923402,
			"-0.008": 5.53051362818,
			"-0.007": 5.49821479936,
			"-0.006": 8.02609898735,
			"-0.005": 15.4944795365,
			"-0.004": 18.3252832419,
			"-0.003": 16.0920964598,
			"-0.002": 16.2448283816,
			"-0.001": 20.5718055497,
			"0.0": 24.6260107383,
			"0.001": 18.2882306636,
			"0.002": 17.3250943872,
			"0.003": 16.1779990962,
			"0.004": 16.8582857472,
			"0.005": 15.5477177167,
			"0.006": 12.1849883352,
			"0.007": 7.45394826162,
			"0.008": 1.14067495188,
			"0.009": 1.18276954275,
			"0.01": 1.38103882766,
			"0.011": 0.742374806105,
			"0.012": 0.75834811137,
			"0.013": 0.971865783128,
			"0.014": 0.158715789717,
			"0.015": 0.0,
			"0.016": 0.0,
			"0.017": 0.0,
			"0.018": 0.0,
			"0.019": 0.0,
			"0.02": 0.0,
			"0.021": 0.0,
			"0.022": 0.0,
			"0.023": 0.0,
			"0.024": 0.0,
			"0.025": 0.0
		}
	}
}
