{
	 "smiles": "CC1=C(C)C2=C(N=CN=C2N)N1C1=CC=C(C)C=C1", 
	 "Tm": 477.15, 
	 "num_atms": 35, 
	 "gaussian": { 
		 "optdone": 1, 
		 "sigma_profile": "yes", 
		 "theory": "DFT", 
		 "functional": "B3LYP", 
		 "basiset": "6-31G**", 
		 "properties": { 
			 "R2extent": 5951.656, 
			 "electric_dipole_moment_norm": 3.64363662431, 
			 "electric_quadrupole_moment_norm": 21.1709599338, 
			 "total_energy": -800.28372753, 
			 "HOMO_LUMO_gap": 0.17963, 
			 "cosmo_polarized_energy": -14.76, 
			 "cosmo_cavitation_energy": 37.7, 
			 "cosmo_dispersion_energy": -26.96, 
			 "cosmo_repulsion_energy": 2.07, 
			 "cosmo_total_nonelectrostatic_energy": 12.81, 
			 "SMD_solvation_energy": 3.71 
		},
		"coords": [
			{
				"x": -2.2733506722,
				"y": -0.1986733687,
				"z": 0.7792949572,
				"element": "C" 
			},
			{
				"x": -0.9680374114,
				"y": -0.7181537001,
				"z": 0.2654672028,
				"element": "C" 
			},
			{
				"x": -0.4020950215,
				"y": -1.9649787481,
				"z": 0.4182665486,
				"element": "C" 
			},
			{
				"x": -0.9975292903,
				"y": -3.1494523732,
				"z": 1.1233021753,
				"element": "C" 
			},
			{
				"x": 0.8894895754,
				"y": -1.9088458107,
				"z": -0.2176839404,
				"element": "C" 
			},
			{
				"x": 1.0586945492,
				"y": -0.6071660049,
				"z": -0.7309226939,
				"element": "C" 
			},
			{
				"x": 2.1330491881,
				"y": -0.1464047962,
				"z": -1.3863844851,
				"element": "N" 
			},
			{
				"x": 3.082994868,
				"y": -1.0700629512,
				"z": -1.5207889392,
				"element": "C" 
			},
			{
				"x": 3.0699079628,
				"y": -2.3448199644,
				"z": -1.0975887641,
				"element": "N" 
			},
			{
				"x": 1.9804838858,
				"y": -2.7776406629,
				"z": -0.4439591344,
				"element": "C" 
			},
			{
				"x": 2.013923768,
				"y": -4.0731162544,
				"z": 0.0137486224,
				"element": "N" 
			},
			{
				"x": -0.0824717222,
				"y": 0.115627231,
				"z": -0.4438528587,
				"element": "N" 
			},
			{
				"x": -0.3000234714,
				"y": 1.4769888596,
				"z": -0.8114939421,
				"element": "C" 
			},
			{
				"x": -1.4076972666,
				"y": 1.8348085626,
				"z": -1.5845727619,
				"element": "C" 
			},
			{
				"x": -1.6176198898,
				"y": 3.1703907825,
				"z": -1.9272772996,
				"element": "C" 
			},
			{
				"x": -0.7216475434,
				"y": 4.1706527925,
				"z": -1.5318981124,
				"element": "C" 
			},
			{
				"x": -0.9292204639,
				"y": 5.611346677,
				"z": -1.9355934741,
				"element": "C" 
			},
			{
				"x": 0.3936198403,
				"y": 3.7908139168,
				"z": -0.7710898154,
				"element": "C" 
			},
			{
				"x": 0.6058974841,
				"y": 2.4639256192,
				"z": -0.4076558743,
				"element": "C" 
			},
			{
				"x": -3.0301240238,
				"y": -0.0947819324,
				"z": -0.0072680643,
				"element": "H" 
			},
			{
				"x": -2.6767671793,
				"y": -0.8781618102,
				"z": 1.5329062842,
				"element": "H" 
			},
			{
				"x": -2.1551736257,
				"y": 0.786427015,
				"z": 1.2424561296,
				"element": "H" 
			},
			{
				"x": -1.9257534606,
				"y": -2.8913642957,
				"z": 1.639412948,
				"element": "H" 
			},
			{
				"x": -1.2424762025,
				"y": -3.9625318035,
				"z": 0.425744995,
				"element": "H" 
			},
			{
				"x": -0.3106246075,
				"y": -3.5564530265,
				"z": 1.8749212004,
				"element": "H" 
			},
			{
				"x": 3.9853852051,
				"y": -0.7592108804,
				"z": -2.0443412917,
				"element": "H" 
			},
			{
				"x": 1.1399287214,
				"y": -4.5441008748,
				"z": 0.1849414372,
				"element": "H" 
			},
			{
				"x": 2.7536819731,
				"y": -4.6355671693,
				"z": -0.3822809069,
				"element": "H" 
			},
			{
				"x": -2.0945534316,
				"y": 1.0679844585,
				"z": -1.9275695898,
				"element": "H" 
			},
			{
				"x": -2.486864328,
				"y": 3.4351969562,
				"z": -2.5239056249,
				"element": "H" 
			},
			{
				"x": -0.673267862,
				"y": 6.2964019842,
				"z": -1.1208668954,
				"element": "H" 
			},
			{
				"x": -1.9670653009,
				"y": 5.8014149983,
				"z": -2.2237918281,
				"element": "H" 
			},
			{
				"x": -0.2967778612,
				"y": 5.8777067268,
				"z": -2.7915897181,
				"element": "H" 
			},
			{
				"x": 1.105577716,
				"y": 4.5478263151,
				"z": -0.4516899673,
				"element": "H" 
			},
			{
				"x": 1.4722058984,
				"y": 2.1831735323,
				"z": 0.1802034817,
				"element": "H" 
			}
		],
		 "valence_orbital": [ 
			{
				"type": "occ",
				"energy": -0.25309,
				"method": "rhf"
			},
			{
				"type": "occ",
				"energy": -0.24963,
				"method": "rhf"
			},
			{
				"type": "occ",
				"energy": -0.23787,
				"method": "rhf"
			},
			{
				"type": "occ",
				"energy": -0.22479,
				"method": "rhf"
			},
			{
				"type": "occ",
				"energy": -0.19063,
				"method": "rhf"
			},
			{
				"type": "unocc",
				"energy": -0.011,
				"method": "rhf"
			},
			{
				"type": "unocc",
				"energy": -0.00281,
				"method": "rhf"
			},
			{
				"type": "unocc",
				"energy": -0.00152,
				"method": "rhf"
			},
			{
				"type": "unocc",
				"energy": 0.02394,
				"method": "rhf"
			},
			{
				"type": "unocc",
				"energy": 0.06386,
				"method": "rhf"
			}
		],
		"cosmo_sigma_profile": { 
			"-0.025": 0.0,
			"-0.024": 0.0,
			"-0.023": 0.0,
			"-0.022": 0.0,
			"-0.021": 0.0,
			"-0.02": 0.0,
			"-0.019": 0.0,
			"-0.018": 0.0,
			"-0.017": 0.0,
			"-0.016": 0.0,
			"-0.015": 0.0,
			"-0.014": 0.0,
			"-0.013": 0.678692630768,
			"-0.012": 2.08719547788,
			"-0.011": 1.85582497359,
			"-0.01": 2.86424704236,
			"-0.009": 3.07083951158,
			"-0.008": 1.95538366275,
			"-0.007": 2.70389748356,
			"-0.006": 10.3553978977,
			"-0.005": 19.1027849912,
			"-0.004": 24.9112074613,
			"-0.003": 24.590333974,
			"-0.002": 25.5333109866,
			"-0.001": 27.9327362191,
			"0.0": 29.5541019885,
			"0.001": 21.2650953916,
			"0.002": 20.624231958,
			"0.003": 17.8691659539,
			"0.004": 16.8912275523,
			"0.005": 14.8181664066,
			"0.006": 6.02026348619,
			"0.007": 3.88766558807,
			"0.008": 3.49986150768,
			"0.009": 3.70666328744,
			"0.01": 2.78603890383,
			"0.011": 3.10728062775,
			"0.012": 1.13726008687,
			"0.013": 2.82914889525,
			"0.014": 1.67009137592,
			"0.015": 1.25920042657,
			"0.016": 0.792626658899,
			"0.017": 0.0798564041662,
			"0.018": 0.0,
			"0.019": 0.0,
			"0.02": 0.0,
			"0.021": 0.0,
			"0.022": 0.0,
			"0.023": 0.0,
			"0.024": 0.0,
			"0.025": 0.0
		}
	}
}
