{
	 "smiles": "COC(=O)C(NC(=O)OCC1=CC=CC=C1)C(C)O", 
	 "Tm": 366.15, 
	 "num_atms": 36, 
	 "gaussian": { 
		 "optdone": 1, 
		 "sigma_profile": "yes", 
		 "theory": "DFT", 
		 "functional": "B3LYP", 
		 "basiset": "6-31G**", 
		 "properties": { 
			 "R2extent": 7202.7344, 
			 "electric_dipole_moment_norm": 2.64067836171, 
			 "electric_quadrupole_moment_norm": 19.3028387537, 
			 "total_energy": -936.533599652, 
			 "HOMO_LUMO_gap": 0.23504, 
			 "cosmo_polarized_energy": -13.84, 
			 "cosmo_cavitation_energy": 39.64, 
			 "cosmo_dispersion_energy": -27.39, 
			 "cosmo_repulsion_energy": 2.15, 
			 "cosmo_total_nonelectrostatic_energy": 14.4, 
			 "SMD_solvation_energy": 8.46 
		},
		"coords": [
			{
				"x": -0.8917813672,
				"y": 3.7773258823,
				"z": -3.3415785116,
				"element": "C" 
			},
			{
				"x": -0.1545701913,
				"y": 3.3286551366,
				"z": -2.1880431166,
				"element": "O" 
			},
			{
				"x": -0.3230985028,
				"y": 2.0403825608,
				"z": -1.8579552063,
				"element": "C" 
			},
			{
				"x": -1.0347779748,
				"y": 1.2683782,
				"z": -2.4699672031,
				"element": "O" 
			},
			{
				"x": 0.4913988556,
				"y": 1.6695447677,
				"z": -0.6225411415,
				"element": "C" 
			},
			{
				"x": 0.3576974791,
				"y": 0.2284678952,
				"z": -0.4762770303,
				"element": "N" 
			},
			{
				"x": 1.0758181645,
				"y": -0.5222475091,
				"z": 0.389786506,
				"element": "C" 
			},
			{
				"x": 1.8125991099,
				"y": -0.0815250222,
				"z": 1.2721045948,
				"element": "O" 
			},
			{
				"x": 0.8745522888,
				"y": -1.8388229329,
				"z": 0.1554795577,
				"element": "O" 
			},
			{
				"x": 1.4745469936,
				"y": -2.7633543515,
				"z": 1.1046846066,
				"element": "C" 
			},
			{
				"x": 0.5403471579,
				"y": -3.0782683501,
				"z": 2.246594324,
				"element": "C" 
			},
			{
				"x": -0.3433443169,
				"y": -4.1612875272,
				"z": 2.1597103399,
				"element": "C" 
			},
			{
				"x": -1.2200967571,
				"y": -4.4489477673,
				"z": 3.2062227518,
				"element": "C" 
			},
			{
				"x": -1.2213396325,
				"y": -3.6525522297,
				"z": 4.3530920146,
				"element": "C" 
			},
			{
				"x": -0.3438452649,
				"y": -2.5701028735,
				"z": 4.4487606193,
				"element": "C" 
			},
			{
				"x": 0.5330231047,
				"y": -2.2838920149,
				"z": 3.402010578,
				"element": "C" 
			},
			{
				"x": 0.0716671732,
				"y": 2.5151158387,
				"z": 0.6304830438,
				"element": "C" 
			},
			{
				"x": -1.233260549,
				"y": 2.0227159486,
				"z": 1.2616449635,
				"element": "C" 
			},
			{
				"x": 1.1265867207,
				"y": 2.5914716561,
				"z": 1.5630280586,
				"element": "O" 
			},
			{
				"x": -0.6355651543,
				"y": 4.8294355666,
				"z": -3.4592222123,
				"element": "H" 
			},
			{
				"x": -1.9652932542,
				"y": 3.656921319,
				"z": -3.1792516443,
				"element": "H" 
			},
			{
				"x": -0.5987982316,
				"y": 3.20696284,
				"z": -4.225944182,
				"element": "H" 
			},
			{
				"x": 1.5363834795,
				"y": 1.942430795,
				"z": -0.8196778477,
				"element": "H" 
			},
			{
				"x": -0.2323450919,
				"y": -0.2360447097,
				"z": -1.1559542979,
				"element": "H" 
			},
			{
				"x": 2.4118607188,
				"y": -2.3331687211,
				"z": 1.4608338026,
				"element": "H" 
			},
			{
				"x": 1.6821563748,
				"y": -3.6548411983,
				"z": 0.5094031669,
				"element": "H" 
			},
			{
				"x": -0.341951606,
				"y": -4.7833136764,
				"z": 1.2677792268,
				"element": "H" 
			},
			{
				"x": -1.898416428,
				"y": -5.2938124133,
				"z": 3.1280885831,
				"element": "H" 
			},
			{
				"x": -1.9012699122,
				"y": -3.8763839215,
				"z": 5.1702473625,
				"element": "H" 
			},
			{
				"x": -0.3399092129,
				"y": -1.9500177307,
				"z": 5.3406749459,
				"element": "H" 
			},
			{
				"x": 1.2120303758,
				"y": -1.4393376815,
				"z": 3.4678649048,
				"element": "H" 
			},
			{
				"x": -0.0706716314,
				"y": 3.5379775544,
				"z": 0.2654318517,
				"element": "H" 
			},
			{
				"x": -2.0558650142,
				"y": 2.0062709156,
				"z": 0.5370646819,
				"element": "H" 
			},
			{
				"x": -1.1181891045,
				"y": 1.0131860082,
				"z": 1.6663753951,
				"element": "H" 
			},
			{
				"x": -1.5064295463,
				"y": 2.689556926,
				"z": 2.0833647199,
				"element": "H" 
			},
			{
				"x": 1.454950747,
				"y": 1.6831208202,
				"z": 1.7046817937,
				"element": "H" 
			}
		],
		 "valence_orbital": [ 
			{
				"type": "occ",
				"energy": -0.28492,
				"method": "rhf"
			},
			{
				"type": "occ",
				"energy": -0.26445,
				"method": "rhf"
			},
			{
				"type": "occ",
				"energy": -0.25244,
				"method": "rhf"
			},
			{
				"type": "occ",
				"energy": -0.251,
				"method": "rhf"
			},
			{
				"type": "occ",
				"energy": -0.24769,
				"method": "rhf"
			},
			{
				"type": "unocc",
				"energy": -0.01265,
				"method": "rhf"
			},
			{
				"type": "unocc",
				"energy": -0.00896,
				"method": "rhf"
			},
			{
				"type": "unocc",
				"energy": -0.00368,
				"method": "rhf"
			},
			{
				"type": "unocc",
				"energy": 0.03978,
				"method": "rhf"
			},
			{
				"type": "unocc",
				"energy": 0.08591,
				"method": "rhf"
			}
		],
		"cosmo_sigma_profile": { 
			"-0.025": 0.0,
			"-0.024": 0.0,
			"-0.023": 0.0,
			"-0.022": 0.0,
			"-0.021": 0.0,
			"-0.02": 0.0,
			"-0.019": 0.0,
			"-0.018": 0.0,
			"-0.017": 0.0,
			"-0.016": 0.0,
			"-0.015": 0.0,
			"-0.014": 0.0,
			"-0.013": 0.0,
			"-0.012": 0.0,
			"-0.011": 0.0,
			"-0.01": 0.266601559628,
			"-0.009": 0.799144298539,
			"-0.008": 1.52784769853,
			"-0.007": 6.78765466273,
			"-0.006": 18.3312018327,
			"-0.005": 24.178233078,
			"-0.004": 32.1903380079,
			"-0.003": 31.5200519641,
			"-0.002": 27.9153041942,
			"-0.001": 23.1344317909,
			"0.0": 23.3336218606,
			"0.001": 21.0630349887,
			"0.002": 14.8248902546,
			"0.003": 15.8297026104,
			"0.004": 15.6012586549,
			"0.005": 16.3888683672,
			"0.006": 8.69085169411,
			"0.007": 6.22921570187,
			"0.008": 3.69638889985,
			"0.009": 4.38057482627,
			"0.01": 4.53267456624,
			"0.011": 5.43399953403,
			"0.012": 1.96760672433,
			"0.013": 0.813152851288,
			"0.014": 2.32419050506,
			"0.015": 1.43799242628,
			"0.016": 0.0,
			"0.017": 0.0,
			"0.018": 0.0,
			"0.019": 0.0,
			"0.02": 0.0,
			"0.021": 0.0,
			"0.022": 0.0,
			"0.023": 0.0,
			"0.024": 0.0,
			"0.025": 0.0
		}
	}
}
