{
	 "smiles": "CCOC(=O)C1=C(N(N=C1)C1=CC=C(Cl)C=C1)C(F)(F)F", 
	 "Tm": 324.15, 
	 "num_atms": 31, 
	 "gaussian": { 
		 "optdone": 1, 
		 "sigma_profile": "yes", 
		 "theory": "DFT", 
		 "functional": "B3LYP", 
		 "basiset": "6-31G**", 
		 "properties": { 
			 "R2extent": 9881.4527, 
			 "electric_dipole_moment_norm": 2.29834990591, 
			 "electric_quadrupole_moment_norm": 10.2276467567, 
			 "total_energy": -1521.06566104, 
			 "HOMO_LUMO_gap": 0.18979, 
			 "cosmo_polarized_energy": -10.02, 
			 "cosmo_cavitation_energy": 39.13, 
			 "cosmo_dispersion_energy": -27.48, 
			 "cosmo_repulsion_energy": 2.06, 
			 "cosmo_total_nonelectrostatic_energy": 13.71, 
			 "SMD_solvation_energy": 7.72 
		},
		"coords": [
			{
				"x": -2.0168081306,
				"y": -1.1481956019,
				"z": 4.4731906193,
				"element": "C" 
			},
			{
				"x": -2.9847134106,
				"y": -0.7156002296,
				"z": 3.3821347297,
				"element": "C" 
			},
			{
				"x": -2.3058454957,
				"y": 0.0196923854,
				"z": 2.3347096941,
				"element": "O" 
			},
			{
				"x": -1.7251975318,
				"y": -0.7215123578,
				"z": 1.360472578,
				"element": "C" 
			},
			{
				"x": -1.765041443,
				"y": -1.9332726806,
				"z": 1.3098178326,
				"element": "O" 
			},
			{
				"x": -1.0171147058,
				"y": 0.1601468068,
				"z": 0.4090286135,
				"element": "C" 
			},
			{
				"x": -0.4965300742,
				"y": -0.1336635436,
				"z": -0.8503206465,
				"element": "C" 
			},
			{
				"x": 0.157251946,
				"y": 0.9925612467,
				"z": -1.2736327405,
				"element": "N" 
			},
			{
				"x": 0.0640356396,
				"y": 2.0009113787,
				"z": -0.3659534418,
				"element": "N" 
			},
			{
				"x": -0.6436452365,
				"y": 1.5054854237,
				"z": 0.6365374981,
				"element": "C" 
			},
			{
				"x": 0.9306397706,
				"y": 1.2371489196,
				"z": -2.4523025286,
				"element": "C" 
			},
			{
				"x": 1.8708679146,
				"y": 0.306224241,
				"z": -2.8987654811,
				"element": "C" 
			},
			{
				"x": 2.6366993805,
				"y": 0.5873657085,
				"z": -4.0279560108,
				"element": "C" 
			},
			{
				"x": 2.4679090746,
				"y": 1.8057714514,
				"z": -4.6853855625,
				"element": "C" 
			},
			{
				"x": 3.4384912572,
				"y": 2.1631469924,
				"z": -6.1022060289,
				"element": "Cl" 
			},
			{
				"x": 1.5438776398,
				"y": 2.7474689098,
				"z": -4.2310595203,
				"element": "C" 
			},
			{
				"x": 0.7712268997,
				"y": 2.4592252366,
				"z": -3.1093299592,
				"element": "C" 
			},
			{
				"x": -0.6522930278,
				"y": -1.3705988605,
				"z": -1.6939270572,
				"element": "C" 
			},
			{
				"x": -1.7809574801,
				"y": -2.0232339931,
				"z": -1.4051783314,
				"element": "F" 
			},
			{
				"x": -0.6949106059,
				"y": -1.0596078944,
				"z": -3.0096277332,
				"element": "F" 
			},
			{
				"x": 0.3825185814,
				"y": -2.2269967818,
				"z": -1.5205525518,
				"element": "F" 
			},
			{
				"x": -1.2883112971,
				"y": -1.8616006508,
				"z": 4.0804321618,
				"element": "H" 
			},
			{
				"x": -2.5678824347,
				"y": -1.6334808956,
				"z": 5.2855811707,
				"element": "H" 
			},
			{
				"x": -1.4839034746,
				"y": -0.2869118135,
				"z": 4.8867822653,
				"element": "H" 
			},
			{
				"x": -3.4879251832,
				"y": -1.5765774408,
				"z": 2.9363706415,
				"element": "H" 
			},
			{
				"x": -3.7312325925,
				"y": -0.0142663542,
				"z": 3.7619995208,
				"element": "H" 
			},
			{
				"x": -0.8599297683,
				"y": 2.1087468614,
				"z": 1.506097216,
				"element": "H" 
			},
			{
				"x": 2.0075945783,
				"y": -0.6307186113,
				"z": -2.3722802382,
				"element": "H" 
			},
			{
				"x": 3.3676125122,
				"y": -0.1284755275,
				"z": -4.3860027772,
				"element": "H" 
			},
			{
				"x": 1.4276700909,
				"y": 3.6915355115,
				"z": -4.7509119005,
				"element": "H" 
			},
			{
				"x": 0.0517466068,
				"y": 3.1765821633,
				"z": -2.7329620318,
				"element": "H" 
			}
		],
		 "valence_orbital": [ 
			{
				"type": "occ",
				"energy": -0.29579,
				"method": "rhf"
			},
			{
				"type": "occ",
				"energy": -0.28327,
				"method": "rhf"
			},
			{
				"type": "occ",
				"energy": -0.27928,
				"method": "rhf"
			},
			{
				"type": "occ",
				"energy": -0.27607,
				"method": "rhf"
			},
			{
				"type": "occ",
				"energy": -0.24908,
				"method": "rhf"
			},
			{
				"type": "unocc",
				"energy": -0.05929,
				"method": "rhf"
			},
			{
				"type": "unocc",
				"energy": -0.029,
				"method": "rhf"
			},
			{
				"type": "unocc",
				"energy": -0.02205,
				"method": "rhf"
			},
			{
				"type": "unocc",
				"energy": 0.00157,
				"method": "rhf"
			},
			{
				"type": "unocc",
				"energy": 0.0206,
				"method": "rhf"
			}
		],
		"cosmo_sigma_profile": { 
			"-0.025": 0.0,
			"-0.024": 0.0,
			"-0.023": 0.0,
			"-0.022": 0.0,
			"-0.021": 0.0,
			"-0.02": 0.0,
			"-0.019": 0.0,
			"-0.018": 0.0,
			"-0.017": 0.0,
			"-0.016": 0.0,
			"-0.015": 0.0,
			"-0.014": 0.0,
			"-0.013": 0.0,
			"-0.012": 0.0,
			"-0.011": 0.0,
			"-0.01": 0.0,
			"-0.009": 1.02356446145,
			"-0.008": 4.94981841165,
			"-0.007": 9.63767742455,
			"-0.006": 10.9820767573,
			"-0.005": 13.792267601,
			"-0.004": 20.8323787334,
			"-0.003": 25.2696501188,
			"-0.002": 25.0972459908,
			"-0.001": 28.2708377803,
			"0.0": 30.6713440792,
			"0.001": 34.9108477304,
			"0.002": 44.7177029629,
			"0.003": 19.1650934484,
			"0.004": 15.4075940761,
			"0.005": 8.14418182679,
			"0.006": 4.27843711369,
			"0.007": 3.51777091589,
			"0.008": 3.24452110368,
			"0.009": 2.7606834059,
			"0.01": 2.87862223352,
			"0.011": 4.23477479463,
			"0.012": 2.30010516373,
			"0.013": 0.174298967861,
			"0.014": 0.0,
			"0.015": 0.0,
			"0.016": 0.0,
			"0.017": 0.0,
			"0.018": 0.0,
			"0.019": 0.0,
			"0.02": 0.0,
			"0.021": 0.0,
			"0.022": 0.0,
			"0.023": 0.0,
			"0.024": 0.0,
			"0.025": 0.0
		}
	}
}
