{
	 "smiles": "COC1=CC=C(C=C1NNC(=O)OC(C)C)C1=CC=CC=C1", 
	 "Tm": 395.15, 
	 "num_atms": 42, 
	 "gaussian": { 
		 "optdone": 1, 
		 "sigma_profile": "yes", 
		 "theory": "DFT", 
		 "functional": "B3LYP", 
		 "basiset": "6-31G**", 
		 "properties": { 
			 "R2extent": 9560.4187, 
			 "electric_dipole_moment_norm": 1.53707984828, 
			 "electric_quadrupole_moment_norm": 16.3728346739, 
			 "total_energy": -995.032877095, 
			 "HOMO_LUMO_gap": 0.17771, 
			 "cosmo_polarized_energy": -14.66, 
			 "cosmo_cavitation_energy": 45.6, 
			 "cosmo_dispersion_energy": -31.85, 
			 "cosmo_repulsion_energy": 2.49, 
			 "cosmo_total_nonelectrostatic_energy": 16.25, 
			 "SMD_solvation_energy": 9.45 
		},
		"coords": [
			{
				"x": 2.4033296914,
				"y": 4.9245667314,
				"z": -1.2333100884,
				"element": "C" 
			},
			{
				"x": 2.4196942177,
				"y": 3.6105632729,
				"z": -0.7003423367,
				"element": "O" 
			},
			{
				"x": 1.322689589,
				"y": 3.1847654829,
				"z": 0.004862225,
				"element": "C" 
			},
			{
				"x": 0.2161101723,
				"y": 3.9668997016,
				"z": 0.3232271758,
				"element": "C" 
			},
			{
				"x": -0.8494243008,
				"y": 3.4177042048,
				"z": 1.0430655487,
				"element": "C" 
			},
			{
				"x": -0.8264540093,
				"y": 2.0793315057,
				"z": 1.4505087002,
				"element": "C" 
			},
			{
				"x": 0.2978406499,
				"y": 1.2992295116,
				"z": 1.1209297884,
				"element": "C" 
			},
			{
				"x": 1.3671689693,
				"y": 1.8311156809,
				"z": 0.4083767698,
				"element": "C" 
			},
			{
				"x": 2.5380884463,
				"y": 1.0996807826,
				"z": 0.1068355507,
				"element": "N" 
			},
			{
				"x": 2.4104407491,
				"y": -0.2852763106,
				"z": 0.0428200008,
				"element": "N" 
			},
			{
				"x": 2.1579018111,
				"y": -0.8871749246,
				"z": -1.1753574664,
				"element": "C" 
			},
			{
				"x": 1.8415148003,
				"y": -0.2805247152,
				"z": -2.1811875635,
				"element": "O" 
			},
			{
				"x": 2.322968955,
				"y": -2.2217637518,
				"z": -1.0425004804,
				"element": "O" 
			},
			{
				"x": 2.076502605,
				"y": -3.0936551723,
				"z": -2.189658208,
				"element": "C" 
			},
			{
				"x": 3.0737345711,
				"y": -2.8337529526,
				"z": -3.3162671508,
				"element": "C" 
			},
			{
				"x": 0.6143423453,
				"y": -3.0448935148,
				"z": -2.6255257549,
				"element": "C" 
			},
			{
				"x": -1.955615095,
				"y": 1.49031443,
				"z": 2.2141897102,
				"element": "C" 
			},
			{
				"x": -3.2853792516,
				"y": 1.8488976485,
				"z": 1.931668462,
				"element": "C" 
			},
			{
				"x": -4.3462794455,
				"y": 1.3012209145,
				"z": 2.6515814401,
				"element": "C" 
			},
			{
				"x": -4.1040828987,
				"y": 0.3763098362,
				"z": 3.6691263868,
				"element": "C" 
			},
			{
				"x": -2.789376753,
				"y": 0.0071190652,
				"z": 3.9598966792,
				"element": "C" 
			},
			{
				"x": -1.7287813159,
				"y": 0.5589037935,
				"z": 3.2425279392,
				"element": "C" 
			},
			{
				"x": 1.5555996335,
				"y": 5.0716887048,
				"z": -1.9144705468,
				"element": "H" 
			},
			{
				"x": 2.3612055068,
				"y": 5.6803938474,
				"z": -0.4386323121,
				"element": "H" 
			},
			{
				"x": 3.3363417458,
				"y": 5.03921164,
				"z": -1.7873232873,
				"element": "H" 
			},
			{
				"x": 0.1756439872,
				"y": 5.0070946114,
				"z": 0.0215201691,
				"element": "H" 
			},
			{
				"x": -1.6894098624,
				"y": 4.0510201754,
				"z": 1.3093647149,
				"element": "H" 
			},
			{
				"x": 0.3284400389,
				"y": 0.2494386049,
				"z": 1.389223617,
				"element": "H" 
			},
			{
				"x": 3.0091738173,
				"y": 1.4759690805,
				"z": -0.7109528912,
				"element": "H" 
			},
			{
				"x": 2.9529649903,
				"y": -0.8088375254,
				"z": 0.7160425906,
				"element": "H" 
			},
			{
				"x": 2.2833946639,
				"y": -4.0767845221,
				"z": -1.7547565417,
				"element": "H" 
			},
			{
				"x": 2.9748593373,
				"y": -3.6154808118,
				"z": -4.0767029552,
				"element": "H" 
			},
			{
				"x": 2.8945455888,
				"y": -1.8638317208,
				"z": -3.7824252645,
				"element": "H" 
			},
			{
				"x": 4.0988797068,
				"y": -2.8613672541,
				"z": -2.9342954047,
				"element": "H" 
			},
			{
				"x": 0.369653417,
				"y": -2.0790352763,
				"z": -3.0700090329,
				"element": "H" 
			},
			{
				"x": -0.0455457603,
				"y": -3.2193646814,
				"z": -1.7704904766,
				"element": "H" 
			},
			{
				"x": 0.4286991399,
				"y": -3.8318664242,
				"z": -3.3640211817,
				"element": "H" 
			},
			{
				"x": -3.4874070142,
				"y": 2.5443742463,
				"z": 1.1223880917,
				"element": "H" 
			},
			{
				"x": -5.3655662811,
				"y": 1.5895462703,
				"z": 2.4092801702,
				"element": "H" 
			},
			{
				"x": -4.9305691516,
				"y": -0.0523607445,
				"z": 4.2286512103,
				"element": "H" 
			},
			{
				"x": -2.5872551584,
				"y": -0.7055993494,
				"z": 4.7548835474,
				"element": "H" 
			},
			{
				"x": -0.7088828482,
				"y": 0.2854099085,
				"z": 3.4965584556,
				"element": "H" 
			}
		],
		 "valence_orbital": [ 
			{
				"type": "occ",
				"energy": -0.26364,
				"method": "rhf"
			},
			{
				"type": "occ",
				"energy": -0.25156,
				"method": "rhf"
			},
			{
				"type": "occ",
				"energy": -0.24199,
				"method": "rhf"
			},
			{
				"type": "occ",
				"energy": -0.21895,
				"method": "rhf"
			},
			{
				"type": "occ",
				"energy": -0.1908,
				"method": "rhf"
			},
			{
				"type": "unocc",
				"energy": -0.01309,
				"method": "rhf"
			},
			{
				"type": "unocc",
				"energy": 0.00594,
				"method": "rhf"
			},
			{
				"type": "unocc",
				"energy": 0.01367,
				"method": "rhf"
			},
			{
				"type": "unocc",
				"energy": 0.0434,
				"method": "rhf"
			},
			{
				"type": "unocc",
				"energy": 0.04804,
				"method": "rhf"
			}
		],
		"cosmo_sigma_profile": { 
			"-0.025": 0.0,
			"-0.024": 0.0,
			"-0.023": 0.0,
			"-0.022": 0.0,
			"-0.021": 0.0,
			"-0.02": 0.0,
			"-0.019": 0.0,
			"-0.018": 0.0,
			"-0.017": 0.0,
			"-0.016": 0.0,
			"-0.015": 0.202188148995,
			"-0.014": 1.06655518948,
			"-0.013": 1.05205281893,
			"-0.012": 0.829136705643,
			"-0.011": 1.05722058906,
			"-0.01": 0.891608834449,
			"-0.009": 1.27434190723,
			"-0.008": 2.05358765003,
			"-0.007": 2.04513059651,
			"-0.006": 10.2684075676,
			"-0.005": 27.6321633536,
			"-0.004": 39.3234310255,
			"-0.003": 35.592090318,
			"-0.002": 29.0780420376,
			"-0.001": 28.0457814798,
			"0.0": 29.6456204957,
			"0.001": 24.1237334755,
			"0.002": 18.1087676885,
			"0.003": 20.6352226766,
			"0.004": 22.8116157904,
			"0.005": 23.670582462,
			"0.006": 19.931920207,
			"0.007": 6.48632596624,
			"0.008": 4.07675220998,
			"0.009": 2.07640999435,
			"0.01": 2.48706865933,
			"0.011": 2.11274974259,
			"0.012": 2.83309440781,
			"0.013": 1.63876867769,
			"0.014": 0.0,
			"0.015": 0.0,
			"0.016": 0.0,
			"0.017": 0.0,
			"0.018": 0.0,
			"0.019": 0.0,
			"0.02": 0.0,
			"0.021": 0.0,
			"0.022": 0.0,
			"0.023": 0.0,
			"0.024": 0.0,
			"0.025": 0.0
		}
	}
}
