{
	 "smiles": "COC1=C(CBr)C=C(Br)C=C1", 
	 "Tm": 327.65, 
	 "num_atms": 19, 
	 "gaussian": { 
		 "optdone": 1, 
		 "sigma_profile": "yes", 
		 "theory": "DFT", 
		 "functional": "B3LYP", 
		 "basiset": "6-31G**", 
		 "properties": { 
			 "R2extent": 6062.4956, 
			 "electric_dipole_moment_norm": 3.5803601411, 
			 "electric_quadrupole_moment_norm": 12.5819435351, 
			 "total_energy": -5527.69849004, 
			 "HOMO_LUMO_gap": 0.18303, 
			 "cosmo_polarized_energy": -8.5, 
			 "cosmo_cavitation_energy": 27.53, 
			 "cosmo_dispersion_energy": -20.58, 
			 "cosmo_repulsion_energy": 1.68, 
			 "cosmo_total_nonelectrostatic_energy": 8.63, 
			 "SMD_solvation_energy": 3.1 
		},
		"coords": [
			{
				"x": 0.9498038196,
				"y": 1.0468479449,
				"z": 2.8278554027,
				"element": "C" 
			},
			{
				"x": 0.777214488,
				"y": -0.0267661906,
				"z": 1.9133059096,
				"element": "O" 
			},
			{
				"x": -0.3717837437,
				"y": -0.090534484,
				"z": 1.1886903399,
				"element": "C" 
			},
			{
				"x": -0.4862461864,
				"y": -1.2005047518,
				"z": 0.3209613844,
				"element": "C" 
			},
			{
				"x": 0.6097490618,
				"y": -2.2062115917,
				"z": 0.2361933906,
				"element": "C" 
			},
			{
				"x": 0.4792669356,
				"y": -3.5979537725,
				"z": 1.6798424558,
				"element": "Br" 
			},
			{
				"x": -1.6367601954,
				"y": -1.3341813274,
				"z": -0.4590233848,
				"element": "C" 
			},
			{
				"x": -2.654600167,
				"y": -0.3854473448,
				"z": -0.3868368961,
				"element": "C" 
			},
			{
				"x": -4.2151312397,
				"y": -0.5892235805,
				"z": -1.4713797356,
				"element": "Br" 
			},
			{
				"x": -2.5429274115,
				"y": 0.7074668211,
				"z": 0.4656272438,
				"element": "C" 
			},
			{
				"x": -1.3993446774,
				"y": 0.8559221374,
				"z": 1.2536193817,
				"element": "C" 
			},
			{
				"x": 0.954656924,
				"y": 2.0166659906,
				"z": 2.3146309692,
				"element": "H" 
			},
			{
				"x": 1.9191069563,
				"y": 0.8838350412,
				"z": 3.3001770505,
				"element": "H" 
			},
			{
				"x": 0.1678849644,
				"y": 1.0470141844,
				"z": 3.5968994092,
				"element": "H" 
			},
			{
				"x": 0.5758817489,
				"y": -2.7760847026,
				"z": -0.6896678897,
				"element": "H" 
			},
			{
				"x": 1.5925506656,
				"y": -1.7674218443,
				"z": 0.3859931253,
				"element": "H" 
			},
			{
				"x": -1.7358641996,
				"y": -2.1862928815,
				"z": -1.1230117561,
				"element": "H" 
			},
			{
				"x": -3.3373941321,
				"y": 1.443073852,
				"z": 0.5188887482,
				"element": "H" 
			},
			{
				"x": -1.3239636113,
				"y": 1.7123965,
				"z": 1.9123348515,
				"element": "H" 
			}
		],
		 "valence_orbital": [ 
			{
				"type": "occ",
				"energy": -0.28794,
				"method": "rhf"
			},
			{
				"type": "occ",
				"energy": -0.27317,
				"method": "rhf"
			},
			{
				"type": "occ",
				"energy": -0.2653,
				"method": "rhf"
			},
			{
				"type": "occ",
				"energy": -0.26022,
				"method": "rhf"
			},
			{
				"type": "occ",
				"energy": -0.22571,
				"method": "rhf"
			},
			{
				"type": "unocc",
				"energy": -0.04268,
				"method": "rhf"
			},
			{
				"type": "unocc",
				"energy": -0.00853,
				"method": "rhf"
			},
			{
				"type": "unocc",
				"energy": 0.00586,
				"method": "rhf"
			},
			{
				"type": "unocc",
				"energy": 0.02513,
				"method": "rhf"
			},
			{
				"type": "unocc",
				"energy": 0.089,
				"method": "rhf"
			}
		],
		"cosmo_sigma_profile": { 
			"-0.025": 0.0,
			"-0.024": 0.0,
			"-0.023": 0.0,
			"-0.022": 0.0,
			"-0.021": 0.0,
			"-0.02": 0.0,
			"-0.019": 0.0,
			"-0.018": 0.0,
			"-0.017": 0.0,
			"-0.016": 0.0,
			"-0.015": 0.0,
			"-0.014": 0.0,
			"-0.013": 0.0,
			"-0.012": 0.0,
			"-0.011": 0.0,
			"-0.01": 0.0,
			"-0.009": 0.331227561593,
			"-0.008": 3.78553665836,
			"-0.007": 10.0958158794,
			"-0.006": 15.2960055852,
			"-0.005": 16.1707588272,
			"-0.004": 16.1355065278,
			"-0.003": 14.9070501469,
			"-0.002": 11.3135392143,
			"-0.001": 11.0382357089,
			"0.0": 13.9829972683,
			"0.001": 12.5489104203,
			"0.002": 21.9284117071,
			"0.003": 22.7903476975,
			"0.004": 18.3600380535,
			"0.005": 16.3734303155,
			"0.006": 12.0373261901,
			"0.007": 6.92656973838,
			"0.008": 2.0134716909,
			"0.009": 0.140659859914,
			"0.01": 0.0,
			"0.011": 0.0,
			"0.012": 0.0,
			"0.013": 0.0,
			"0.014": 0.0,
			"0.015": 0.0,
			"0.016": 0.0,
			"0.017": 0.0,
			"0.018": 0.0,
			"0.019": 0.0,
			"0.02": 0.0,
			"0.021": 0.0,
			"0.022": 0.0,
			"0.023": 0.0,
			"0.024": 0.0,
			"0.025": 0.0
		}
	}
}
