{
	 "smiles": "CC1=CC2=C(N=C(C=C2C(O)=O)C2CC2)C(C)=C1", 
	 "Tm": 481.15, 
	 "num_atms": 33, 
	 "gaussian": { 
		 "optdone": 1, 
		 "sigma_profile": "yes", 
		 "theory": "DFT", 
		 "functional": "B3LYP", 
		 "basiset": "6-31G**", 
		 "properties": { 
			 "R2extent": 5024.7631, 
			 "electric_dipole_moment_norm": 3.97098172496, 
			 "electric_quadrupole_moment_norm": 23.1288954589, 
			 "total_energy": -785.843771219, 
			 "HOMO_LUMO_gap": 0.15663, 
			 "cosmo_polarized_energy": -12.93, 
			 "cosmo_cavitation_energy": 36.25, 
			 "cosmo_dispersion_energy": -25.58, 
			 "cosmo_repulsion_energy": 1.96, 
			 "cosmo_total_nonelectrostatic_energy": 12.63, 
			 "SMD_solvation_energy": 6.15 
		},
		"coords": [
			{
				"x": -4.0251142675,
				"y": -0.9311898741,
				"z": 1.9763247365,
				"element": "C" 
			},
			{
				"x": -2.5950130111,
				"y": -0.7572908055,
				"z": 1.5277477507,
				"element": "C" 
			},
			{
				"x": -2.1789958274,
				"y": 0.3842119999,
				"z": 0.8738511569,
				"element": "C" 
			},
			{
				"x": -0.8248320521,
				"y": 0.5475195385,
				"z": 0.4646370033,
				"element": "C" 
			},
			{
				"x": 0.1259981697,
				"y": -0.4784578993,
				"z": 0.7821609812,
				"element": "C" 
			},
			{
				"x": 1.4481663797,
				"y": -0.3769683727,
				"z": 0.4850498991,
				"element": "N" 
			},
			{
				"x": 1.9042678828,
				"y": 0.7195361778,
				"z": -0.1009215158,
				"element": "C" 
			},
			{
				"x": 1.0412221856,
				"y": 1.7849912693,
				"z": -0.4651151881,
				"element": "C" 
			},
			{
				"x": -0.3122175786,
				"y": 1.6952800418,
				"z": -0.2201431601,
				"element": "C" 
			},
			{
				"x": -1.1549713608,
				"y": 2.8390065485,
				"z": -0.7224102971,
				"element": "C" 
			},
			{
				"x": -2.3688617424,
				"y": 2.5175168041,
				"z": -1.2434619468,
				"element": "O" 
			},
			{
				"x": -0.7810036833,
				"y": 3.9865338086,
				"z": -0.7214912623,
				"element": "O" 
			},
			{
				"x": 3.3595698062,
				"y": 0.8118043965,
				"z": -0.3897845266,
				"element": "C" 
			},
			{
				"x": 4.3569835659,
				"y": 0.1836121441,
				"z": 0.5701079107,
				"element": "C" 
			},
			{
				"x": 4.1322345135,
				"y": -0.441430601,
				"z": -0.769353589,
				"element": "C" 
			},
			{
				"x": -0.3162321602,
				"y": -1.6685900081,
				"z": 1.4491383412,
				"element": "C" 
			},
			{
				"x": 0.6758053552,
				"y": -2.755018139,
				"z": 1.7690802652,
				"element": "C" 
			},
			{
				"x": -1.6462641661,
				"y": -1.7812146725,
				"z": 1.792070979,
				"element": "C" 
			},
			{
				"x": -4.638814826,
				"y": -0.067144098,
				"z": 1.7086699422,
				"element": "H" 
			},
			{
				"x": -4.0852637279,
				"y": -1.06321232,
				"z": 3.0629186977,
				"element": "H" 
			},
			{
				"x": -4.477123743,
				"y": -1.8207623334,
				"z": 1.5219063644,
				"element": "H" 
			},
			{
				"x": -2.8921962477,
				"y": 1.1869194417,
				"z": 0.7141399091,
				"element": "H" 
			},
			{
				"x": 1.433152595,
				"y": 2.6688735323,
				"z": -0.9567133095,
				"element": "H" 
			},
			{
				"x": -2.4787119417,
				"y": 1.5549329039,
				"z": -1.2549541666,
				"element": "H" 
			},
			{
				"x": 3.6641941368,
				"y": 1.7363651353,
				"z": -0.8714277559,
				"element": "H" 
			},
			{
				"x": 5.2823706644,
				"y": 0.7216762334,
				"z": 0.7514803823,
				"element": "H" 
			},
			{
				"x": 3.930782714,
				"y": -0.3169417507,
				"z": 1.4333721439,
				"element": "H" 
			},
			{
				"x": 4.8995292517,
				"y": -0.3442732777,
				"z": -1.5313490767,
				"element": "H" 
			},
			{
				"x": 3.5553872871,
				"y": -1.3599764763,
				"z": -0.8015461131,
				"element": "H" 
			},
			{
				"x": 0.1842753477,
				"y": -3.5994363986,
				"z": 2.2593871815,
				"element": "H" 
			},
			{
				"x": 1.1724600335,
				"y": -3.1151274131,
				"z": 0.862660829,
				"element": "H" 
			},
			{
				"x": 1.4688902025,
				"y": -2.3823711716,
				"z": 2.4250842207,
				"element": "H" 
			},
			{
				"x": -1.9833737555,
				"y": -2.6814743639,
				"z": 2.301583213,
				"element": "H" 
			}
		],
		 "valence_orbital": [ 
			{
				"type": "occ",
				"energy": -0.2985,
				"method": "rhf"
			},
			{
				"type": "occ",
				"energy": -0.27733,
				"method": "rhf"
			},
			{
				"type": "occ",
				"energy": -0.26142,
				"method": "rhf"
			},
			{
				"type": "occ",
				"energy": -0.24744,
				"method": "rhf"
			},
			{
				"type": "occ",
				"energy": -0.22906,
				"method": "rhf"
			},
			{
				"type": "unocc",
				"energy": -0.07243,
				"method": "rhf"
			},
			{
				"type": "unocc",
				"energy": -0.02501,
				"method": "rhf"
			},
			{
				"type": "unocc",
				"energy": -0.00907,
				"method": "rhf"
			},
			{
				"type": "unocc",
				"energy": 0.0366,
				"method": "rhf"
			},
			{
				"type": "unocc",
				"energy": 0.07666,
				"method": "rhf"
			}
		],
		"cosmo_sigma_profile": { 
			"-0.025": 0.0,
			"-0.024": 0.0,
			"-0.023": 0.0,
			"-0.022": 0.0,
			"-0.021": 0.0,
			"-0.02": 0.0,
			"-0.019": 0.0,
			"-0.018": 0.0,
			"-0.017": 0.772559653043,
			"-0.016": 0.700882541792,
			"-0.015": 0.40119649298,
			"-0.014": 0.923811352007,
			"-0.013": 0.916761023324,
			"-0.012": 0.988354311821,
			"-0.011": 1.06410738152,
			"-0.01": 0.866587944663,
			"-0.009": 0.639211613635,
			"-0.008": 1.11631554966,
			"-0.007": 3.85887140274,
			"-0.006": 7.08858212401,
			"-0.005": 15.7970313097,
			"-0.004": 24.3398127046,
			"-0.003": 26.8171302381,
			"-0.002": 23.7359928445,
			"-0.001": 25.8707110926,
			"0.0": 30.8089729423,
			"0.001": 27.2133720527,
			"0.002": 22.7477799971,
			"0.003": 19.5881414563,
			"0.004": 14.0094408674,
			"0.005": 6.78479541675,
			"0.006": 4.26257713705,
			"0.007": 3.59167732269,
			"0.008": 3.91994785124,
			"0.009": 4.50633355868,
			"0.01": 5.31118097682,
			"0.011": 5.27085775271,
			"0.012": 3.3592601272,
			"0.013": 0.445000300255,
			"0.014": 0.0,
			"0.015": 0.0,
			"0.016": 0.0,
			"0.017": 0.0,
			"0.018": 0.0,
			"0.019": 0.0,
			"0.02": 0.0,
			"0.021": 0.0,
			"0.022": 0.0,
			"0.023": 0.0,
			"0.024": 0.0,
			"0.025": 0.0
		}
	}
}
