{
	 "smiles": "NC1=CC(Cl)=C(Br)C=C1", 
	 "Tm": 347.15, 
	 "num_atms": 14, 
	 "gaussian": { 
		 "optdone": 1, 
		 "sigma_profile": "yes", 
		 "theory": "DFT", 
		 "functional": "B3LYP", 
		 "basiset": "6-31G**", 
		 "properties": { 
			 "R2extent": 5725.3859, 
			 "electric_dipole_moment_norm": 4.33623326633, 
			 "electric_quadrupole_moment_norm": 10.5227567429, 
			 "total_energy": -3317.99910277, 
			 "HOMO_LUMO_gap": 0.19453, 
			 "cosmo_polarized_energy": -9.61, 
			 "cosmo_cavitation_energy": 22.08, 
			 "cosmo_dispersion_energy": -17.12, 
			 "cosmo_repulsion_energy": 1.4, 
			 "cosmo_total_nonelectrostatic_energy": 6.37, 
			 "SMD_solvation_energy": 2.42 
		},
		"coords": [
			{
				"x": 0.9277641511,
				"y": -1.3596125958,
				"z": -0.5210745378,
				"element": "N" 
			},
			{
				"x": 0.9403216169,
				"y": 0.0085133293,
				"z": -0.7726221594,
				"element": "C" 
			},
			{
				"x": 2.1143365629,
				"y": 0.644117501,
				"z": -1.2058430226,
				"element": "C" 
			},
			{
				"x": 2.1455773046,
				"y": 2.0234187503,
				"z": -1.4043828987,
				"element": "C" 
			},
			{
				"x": 3.6486889379,
				"y": 2.735624759,
				"z": -1.9487747764,
				"element": "Cl" 
			},
			{
				"x": 1.006227364,
				"y": 2.8031390493,
				"z": -1.1771991749,
				"element": "C" 
			},
			{
				"x": 0.9912157729,
				"y": 4.6877564453,
				"z": -1.436398517,
				"element": "Br" 
			},
			{
				"x": -0.162101035,
				"y": 2.1698836435,
				"z": -0.746220351,
				"element": "C" 
			},
			{
				"x": -0.2020754213,
				"y": 0.7962653605,
				"z": -0.5452914692,
				"element": "C" 
			},
			{
				"x": 1.6341962514,
				"y": -1.901992882,
				"z": -0.9977347225,
				"element": "H" 
			},
			{
				"x": 0.0196892457,
				"y": -1.8012072895,
				"z": -0.5483026201,
				"element": "H" 
			},
			{
				"x": 3.0147299609,
				"y": 0.0661710657,
				"z": -1.3861982299,
				"element": "H" 
			},
			{
				"x": -1.048900241,
				"y": 2.7681530199,
				"z": -0.5696409563,
				"element": "H" 
			},
			{
				"x": -1.1222704709,
				"y": 0.3295698435,
				"z": -0.2051165642,
				"element": "H" 
			}
		],
		 "valence_orbital": [ 
			{
				"type": "occ",
				"energy": -0.31713,
				"method": "rhf"
			},
			{
				"type": "occ",
				"energy": -0.28405,
				"method": "rhf"
			},
			{
				"type": "occ",
				"energy": -0.2794,
				"method": "rhf"
			},
			{
				"type": "occ",
				"energy": -0.25377,
				"method": "rhf"
			},
			{
				"type": "occ",
				"energy": -0.21245,
				"method": "rhf"
			},
			{
				"type": "unocc",
				"energy": -0.01792,
				"method": "rhf"
			},
			{
				"type": "unocc",
				"energy": -0.00465,
				"method": "rhf"
			},
			{
				"type": "unocc",
				"energy": -0.00287,
				"method": "rhf"
			},
			{
				"type": "unocc",
				"energy": 0.05538,
				"method": "rhf"
			},
			{
				"type": "unocc",
				"energy": 0.07238,
				"method": "rhf"
			}
		],
		"cosmo_sigma_profile": { 
			"-0.025": 0.0,
			"-0.024": 0.0,
			"-0.023": 0.0,
			"-0.022": 0.0,
			"-0.021": 0.0,
			"-0.02": 0.0,
			"-0.019": 0.0,
			"-0.018": 0.0,
			"-0.017": 0.0,
			"-0.016": 0.0,
			"-0.015": 0.0,
			"-0.014": 0.070561612325,
			"-0.013": 2.18664720644,
			"-0.012": 3.32464949002,
			"-0.011": 3.20159515402,
			"-0.01": 3.39050283014,
			"-0.009": 2.88249098732,
			"-0.008": 3.86334627307,
			"-0.007": 6.09784704995,
			"-0.006": 5.70751814729,
			"-0.005": 6.30764835898,
			"-0.004": 6.59699520802,
			"-0.003": 6.12254563255,
			"-0.002": 8.32042256892,
			"-0.001": 8.30369478056,
			"0.0": 9.1024174239,
			"0.001": 13.9161900147,
			"0.002": 19.5849329455,
			"0.003": 24.9598562551,
			"0.004": 24.8514199237,
			"0.005": 14.4418504563,
			"0.006": 3.93633488004,
			"0.007": 0.710006935998,
			"0.008": 0.590762954692,
			"0.009": 0.696549497264,
			"0.01": 0.879483356046,
			"0.011": 0.628826320187,
			"0.012": 0.676936398895,
			"0.013": 0.538417266619,
			"0.014": 0.0487983664335,
			"0.015": 0.0,
			"0.016": 0.0,
			"0.017": 0.0,
			"0.018": 0.0,
			"0.019": 0.0,
			"0.02": 0.0,
			"0.021": 0.0,
			"0.022": 0.0,
			"0.023": 0.0,
			"0.024": 0.0,
			"0.025": 0.0
		}
	}
}
