{
	 "smiles": "CCC(C)C1=CC(=CC(=C1O)[N+]([O-])=O)[N+]([O-])=O", 
	 "Tm": 313.15, 
	 "num_atms": 29, 
	 "gaussian": { 
		 "optdone": 1, 
		 "sigma_profile": "yes", 
		 "theory": "DFT", 
		 "functional": "B3LYP", 
		 "basiset": "6-31G**", 
		 "properties": { 
			 "R2extent": 4770.6679, 
			 "electric_dipole_moment_norm": 4.28167345088, 
			 "electric_quadrupole_moment_norm": 11.2085209872, 
			 "total_energy": -873.737141828, 
			 "HOMO_LUMO_gap": 0.1512, 
			 "cosmo_polarized_energy": -10.84, 
			 "cosmo_cavitation_energy": 32.95, 
			 "cosmo_dispersion_energy": -23.43, 
			 "cosmo_repulsion_energy": 1.82, 
			 "cosmo_total_nonelectrostatic_energy": 11.34, 
			 "SMD_solvation_energy": 10.27 
		},
		"coords": [
			{
				"x": 1.931844143,
				"y": -0.48300883,
				"z": 2.0178100015,
				"element": "C" 
			},
			{
				"x": 2.0420069483,
				"y": -1.4973817322,
				"z": 0.8745307435,
				"element": "C" 
			},
			{
				"x": 0.696372057,
				"y": -1.9313896161,
				"z": 0.2249871132,
				"element": "C" 
			},
			{
				"x": -0.2173740262,
				"y": -2.6667117749,
				"z": 1.2164271313,
				"element": "C" 
			},
			{
				"x": 0.0120552966,
				"y": -0.7649456588,
				"z": -0.4753450338,
				"element": "C" 
			},
			{
				"x": -1.0656299614,
				"y": -0.0803424251,
				"z": 0.0644063965,
				"element": "C" 
			},
			{
				"x": -1.6559854179,
				"y": 0.9989313661,
				"z": -0.612183753,
				"element": "C" 
			},
			{
				"x": -1.2006838977,
				"y": 1.4249009147,
				"z": -1.8422067397,
				"element": "C" 
			},
			{
				"x": -0.1195713906,
				"y": 0.744400403,
				"z": -2.4057288399,
				"element": "C" 
			},
			{
				"x": 0.5030681285,
				"y": -0.3480850191,
				"z": -1.7450397454,
				"element": "C" 
			},
			{
				"x": 1.5328459924,
				"y": -1.0127844496,
				"z": -2.2643072587,
				"element": "O" 
			},
			{
				"x": 0.3515433261,
				"y": 1.1918172163,
				"z": -3.7038700422,
				"element": "N" 
			},
			{
				"x": 1.3177222662,
				"y": 0.5834819408,
				"z": -4.2226502108,
				"element": "O" 
			},
			{
				"x": -0.2021071929,
				"y": 2.1371065682,
				"z": -4.2451403301,
				"element": "O" 
			},
			{
				"x": -2.7932282976,
				"y": 1.6925727338,
				"z": 0.0026799131,
				"element": "N" 
			},
			{
				"x": -3.2887098087,
				"y": 2.6340526306,
				"z": -0.6147117377,
				"element": "O" 
			},
			{
				"x": -3.1787405699,
				"y": 1.2868968563,
				"z": 1.0992993818,
				"element": "O" 
			},
			{
				"x": 2.9273215936,
				"y": -0.2225745193,
				"z": 2.3908354866,
				"element": "H" 
			},
			{
				"x": 1.4508758749,
				"y": 0.4454946354,
				"z": 1.6924609703,
				"element": "H" 
			},
			{
				"x": 1.3606450923,
				"y": -0.8753772133,
				"z": 2.8651733482,
				"element": "H" 
			},
			{
				"x": 2.689891054,
				"y": -1.0945677826,
				"z": 0.0888881959,
				"element": "H" 
			},
			{
				"x": 2.5357644235,
				"y": -2.406371408,
				"z": 1.240872518,
				"element": "H" 
			},
			{
				"x": 0.963040732,
				"y": -2.6440939499,
				"z": -0.5642362661,
				"element": "H" 
			},
			{
				"x": -1.1395574289,
				"y": -3.0054162978,
				"z": 0.73382319,
				"element": "H" 
			},
			{
				"x": -0.4962305466,
				"y": -2.0490540428,
				"z": 2.0754674115,
				"element": "H" 
			},
			{
				"x": 0.2998210159,
				"y": -3.5481814523,
				"z": 1.6077132334,
				"element": "H" 
			},
			{
				"x": -1.482633306,
				"y": -0.3655624821,
				"z": 1.0213076244,
				"element": "H" 
			},
			{
				"x": -1.6618609683,
				"y": 2.2549593221,
				"z": -2.359296872,
				"element": "H" 
			},
			{
				"x": 1.7249948685,
				"y": -0.5917659333,
				"z": -3.1421658298,
				"element": "H" 
			}
		],
		 "valence_orbital": [ 
			{
				"type": "occ",
				"energy": -0.31913,
				"method": "rhf"
			},
			{
				"type": "occ",
				"energy": -0.31634,
				"method": "rhf"
			},
			{
				"type": "occ",
				"energy": -0.30097,
				"method": "rhf"
			},
			{
				"type": "occ",
				"energy": -0.30051,
				"method": "rhf"
			},
			{
				"type": "occ",
				"energy": -0.26895,
				"method": "rhf"
			},
			{
				"type": "unocc",
				"energy": -0.11775,
				"method": "rhf"
			},
			{
				"type": "unocc",
				"energy": -0.09729,
				"method": "rhf"
			},
			{
				"type": "unocc",
				"energy": -0.03044,
				"method": "rhf"
			},
			{
				"type": "unocc",
				"energy": -0.00242,
				"method": "rhf"
			},
			{
				"type": "unocc",
				"energy": 0.06764,
				"method": "rhf"
			}
		],
		"cosmo_sigma_profile": { 
			"-0.025": 0.0,
			"-0.024": 0.0,
			"-0.023": 0.0,
			"-0.022": 0.0,
			"-0.021": 0.0,
			"-0.02": 0.0,
			"-0.019": 0.0,
			"-0.018": 0.0,
			"-0.017": 0.0,
			"-0.016": 0.0,
			"-0.015": 0.0,
			"-0.014": 0.0,
			"-0.013": 0.0,
			"-0.012": 0.0,
			"-0.011": 0.2228097469,
			"-0.01": 0.962943256224,
			"-0.009": 2.12892688033,
			"-0.008": 3.85435192932,
			"-0.007": 5.1281240083,
			"-0.006": 8.81748807862,
			"-0.005": 8.65237399624,
			"-0.004": 15.9440436072,
			"-0.003": 31.2920271092,
			"-0.002": 39.541620578,
			"-0.001": 27.5762685025,
			"0.0": 23.662209469,
			"0.001": 18.4543873983,
			"0.002": 7.62835796727,
			"0.003": 7.26120014125,
			"0.004": 6.82127771777,
			"0.005": 8.49179539749,
			"0.006": 11.1030903393,
			"0.007": 14.3938420403,
			"0.008": 10.9044760765,
			"0.009": 6.07741892676,
			"0.01": 2.17510729892,
			"0.011": 0.0347088192093,
			"0.012": 0.0,
			"0.013": 0.0,
			"0.014": 0.0,
			"0.015": 0.0,
			"0.016": 0.0,
			"0.017": 0.0,
			"0.018": 0.0,
			"0.019": 0.0,
			"0.02": 0.0,
			"0.021": 0.0,
			"0.022": 0.0,
			"0.023": 0.0,
			"0.024": 0.0,
			"0.025": 0.0
		}
	}
}
