{
	 "smiles": "OCC1OC(CC1F)N1C=CC(=O)NC1=O", 
	 "Tm": 459.15, 
	 "num_atms": 27, 
	 "gaussian": { 
		 "optdone": 1, 
		 "sigma_profile": "yes", 
		 "theory": "DFT", 
		 "functional": "B3LYP", 
		 "basiset": "6-31G**", 
		 "properties": { 
			 "R2extent": 4749.799, 
			 "electric_dipole_moment_norm": 6.53472151587, 
			 "electric_quadrupole_moment_norm": 13.905155052, 
			 "total_energy": -859.828327048, 
			 "HOMO_LUMO_gap": 0.20635, 
			 "cosmo_polarized_energy": -23.25, 
			 "cosmo_cavitation_energy": 29.4, 
			 "cosmo_dispersion_energy": -22.1, 
			 "cosmo_repulsion_energy": 1.69, 
			 "cosmo_total_nonelectrostatic_energy": 8.99, 
			 "SMD_solvation_energy": 6.09 
		},
		"coords": [
			{
				"x": 0.7640057238,
				"y": -2.8902073676,
				"z": -2.6637497425,
				"element": "O" 
			},
			{
				"x": 0.84395519,
				"y": -1.7021676371,
				"z": -3.4045668317,
				"element": "C" 
			},
			{
				"x": 0.4884806761,
				"y": -0.4336275016,
				"z": -2.6153341066,
				"element": "C" 
			},
			{
				"x": -0.7511208476,
				"y": -0.6242678934,
				"z": -1.921474525,
				"element": "O" 
			},
			{
				"x": -0.7256244109,
				"y": -0.0915421751,
				"z": -0.6203660236,
				"element": "C" 
			},
			{
				"x": 0.7188812313,
				"y": 0.3828800513,
				"z": -0.3288923174,
				"element": "C" 
			},
			{
				"x": 1.5344329744,
				"y": -0.0113032859,
				"z": -1.563599107,
				"element": "C" 
			},
			{
				"x": 2.4162848954,
				"y": -1.0559354282,
				"z": -1.2780633066,
				"element": "F" 
			},
			{
				"x": -1.2934438291,
				"y": -1.0674826759,
				"z": 0.3282648805,
				"element": "N" 
			},
			{
				"x": -2.5931145993,
				"y": -0.8986954783,
				"z": 0.7715906422,
				"element": "C" 
			},
			{
				"x": -3.2432337297,
				"y": -1.7896170597,
				"z": 1.5484978918,
				"element": "C" 
			},
			{
				"x": -2.5852954133,
				"y": -3.026682089,
				"z": 1.9436642683,
				"element": "C" 
			},
			{
				"x": -3.0499572121,
				"y": -3.9135484752,
				"z": 2.639293881,
				"element": "O" 
			},
			{
				"x": -1.2771656377,
				"y": -3.1326871511,
				"z": 1.4235307466,
				"element": "N" 
			},
			{
				"x": -0.5903459206,
				"y": -2.2456560275,
				"z": 0.6193653222,
				"element": "C" 
			},
			{
				"x": 0.5448188585,
				"y": -2.4612780117,
				"z": 0.2240896148,
				"element": "O" 
			},
			{
				"x": 1.1959821823,
				"y": -2.7527026835,
				"z": -1.8074681736,
				"element": "H" 
			},
			{
				"x": 0.1335008599,
				"y": -1.8020548361,
				"z": -4.2323232816,
				"element": "H" 
			},
			{
				"x": 1.8408498656,
				"y": -1.5381601169,
				"z": -3.8503582983,
				"element": "H" 
			},
			{
				"x": 0.3646092269,
				"y": 0.3946311471,
				"z": -3.3309382387,
				"element": "H" 
			},
			{
				"x": -1.4164604426,
				"y": 0.7592353565,
				"z": -0.5619701209,
				"element": "H" 
			},
			{
				"x": 0.7226062789,
				"y": 1.4678868069,
				"z": -0.1940213987,
				"element": "H" 
			},
			{
				"x": 1.1475282814,
				"y": -0.0789445124,
				"z": 0.5592933974,
				"element": "H" 
			},
			{
				"x": 2.1566290303,
				"y": 0.8095173291,
				"z": -1.9333800225,
				"element": "H" 
			},
			{
				"x": -3.0628048672,
				"y": 0.0247897542,
				"z": 0.4507842641,
				"element": "H" 
			},
			{
				"x": -4.2560777821,
				"y": -1.6151586051,
				"z": 1.8840568822,
				"element": "H" 
			},
			{
				"x": -0.7742205827,
				"y": -3.9844214336,
				"z": 1.6438737038,
				"element": "H" 
			}
		],
		 "valence_orbital": [ 
			{
				"type": "occ",
				"energy": -0.28907,
				"method": "rhf"
			},
			{
				"type": "occ",
				"energy": -0.28249,
				"method": "rhf"
			},
			{
				"type": "occ",
				"energy": -0.26471,
				"method": "rhf"
			},
			{
				"type": "occ",
				"energy": -0.25398,
				"method": "rhf"
			},
			{
				"type": "occ",
				"energy": -0.25009,
				"method": "rhf"
			},
			{
				"type": "unocc",
				"energy": -0.04374,
				"method": "rhf"
			},
			{
				"type": "unocc",
				"energy": 0.00013,
				"method": "rhf"
			},
			{
				"type": "unocc",
				"energy": 0.0475,
				"method": "rhf"
			},
			{
				"type": "unocc",
				"energy": 0.07349,
				"method": "rhf"
			},
			{
				"type": "unocc",
				"energy": 0.07925,
				"method": "rhf"
			}
		],
		"cosmo_sigma_profile": { 
			"-0.025": 0.0,
			"-0.024": 0.0,
			"-0.023": 0.0,
			"-0.022": 0.0,
			"-0.021": 0.0,
			"-0.02": 0.0,
			"-0.019": 0.0,
			"-0.018": 0.0,
			"-0.017": 0.0,
			"-0.016": 0.511084493332,
			"-0.015": 0.793716194574,
			"-0.014": 0.906296821214,
			"-0.013": 0.621129906097,
			"-0.012": 1.51929084948,
			"-0.011": 3.12752312449,
			"-0.01": 3.42918854916,
			"-0.009": 3.2425621984,
			"-0.008": 7.80451665301,
			"-0.007": 15.9517737768,
			"-0.006": 15.6827758565,
			"-0.005": 15.7013986705,
			"-0.004": 17.7387518049,
			"-0.003": 15.6409034623,
			"-0.002": 15.1611918501,
			"-0.001": 12.1401316005,
			"0.0": 9.32092288978,
			"0.001": 10.2364166592,
			"0.002": 9.30597388892,
			"0.003": 5.40226447486,
			"0.004": 5.2271397204,
			"0.005": 7.17923071406,
			"0.006": 9.13601445415,
			"0.007": 4.60889382951,
			"0.008": 4.62414004827,
			"0.009": 5.29055089388,
			"0.01": 5.38913108222,
			"0.011": 6.64072671367,
			"0.012": 7.5110958703,
			"0.013": 7.71703165909,
			"0.014": 3.43582785989,
			"0.015": 1.40818148555,
			"0.016": 0.0,
			"0.017": 0.0,
			"0.018": 0.0,
			"0.019": 0.0,
			"0.02": 0.0,
			"0.021": 0.0,
			"0.022": 0.0,
			"0.023": 0.0,
			"0.024": 0.0,
			"0.025": 0.0
		}
	}
}
