{
	 "smiles": "CC(C)(C)CC(=O)OCC(=O)C1(O)CCC2C3CCC4=CC(=O)CCC4(C)C3C(O)CC12C", 
	 "Tm": 441.15, 
	 "num_atms": 73, 
	 "gaussian": { 
		 "optdone": 1, 
		 "sigma_profile": "yes", 
		 "theory": "DFT", 
		 "functional": "B3LYP", 
		 "basiset": "6-31G**", 
		 "properties": { 
			 "R2extent": 21971.6931, 
			 "electric_dipole_moment_norm": 7.34604874473, 
			 "electric_quadrupole_moment_norm": 47.8661204513, 
			 "total_energy": -1504.31054937, 
			 "HOMO_LUMO_gap": 0.17551, 
			 "cosmo_polarized_energy": -21.38, 
			 "cosmo_cavitation_energy": 62.58, 
			 "cosmo_dispersion_energy": -42.68, 
			 "cosmo_repulsion_energy": 3.08, 
			 "cosmo_total_nonelectrostatic_energy": 22.98, 
			 "SMD_solvation_energy": 11.0 
		},
		"coords": [
			{
				"x": 1.6580644547,
				"y": 5.7547478238,
				"z": 2.5979415198,
				"element": "C" 
			},
			{
				"x": 3.0935314558,
				"y": 5.3054728397,
				"z": 2.9288714908,
				"element": "C" 
			},
			{
				"x": 3.9254834039,
				"y": 6.5277809153,
				"z": 3.3630879069,
				"element": "C" 
			},
			{
				"x": 3.0695684397,
				"y": 4.2699784926,
				"z": 4.0696243326,
				"element": "C" 
			},
			{
				"x": 3.7883218881,
				"y": 4.7126351478,
				"z": 1.6581740955,
				"element": "C" 
			},
			{
				"x": 3.0702387709,
				"y": 3.5336623596,
				"z": 1.052972398,
				"element": "C" 
			},
			{
				"x": 2.1845845371,
				"y": 3.6113753203,
				"z": 0.21447576,
				"element": "O" 
			},
			{
				"x": 3.4942415959,
				"y": 2.3578453393,
				"z": 1.5568789043,
				"element": "O" 
			},
			{
				"x": 2.798660396,
				"y": 1.19812219,
				"z": 1.0638657211,
				"element": "C" 
			},
			{
				"x": 1.2979686894,
				"y": 1.2690040172,
				"z": 1.4131848522,
				"element": "C" 
			},
			{
				"x": 0.9681677025,
				"y": 1.5838801501,
				"z": 2.5406646786,
				"element": "O" 
			},
			{
				"x": 0.2840967646,
				"y": 0.9326096117,
				"z": 0.306407402,
				"element": "C" 
			},
			{
				"x": 0.8139318014,
				"y": 1.3464325115,
				"z": -0.9507614932,
				"element": "O" 
			},
			{
				"x": -1.1071171795,
				"y": 1.5865793712,
				"z": 0.5800192423,
				"element": "C" 
			},
			{
				"x": -2.1835949581,
				"y": 0.5587195988,
				"z": 0.1324632723,
				"element": "C" 
			},
			{
				"x": -1.3679286623,
				"y": -0.5027576717,
				"z": -0.6192228651,
				"element": "C" 
			},
			{
				"x": -2.0474275945,
				"y": -1.8058106934,
				"z": -1.1391591159,
				"element": "C" 
			},
			{
				"x": -3.2051474899,
				"y": -2.4029695766,
				"z": -0.3004179734,
				"element": "C" 
			},
			{
				"x": -2.8519105605,
				"y": -3.6347446015,
				"z": 0.5407837511,
				"element": "C" 
			},
			{
				"x": -2.2428739733,
				"y": -4.6978462963,
				"z": -0.3281254046,
				"element": "C" 
			},
			{
				"x": -2.8212094701,
				"y": -5.914264499,
				"z": -0.4277608882,
				"element": "C" 
			},
			{
				"x": -2.2692249333,
				"y": -7.0439752968,
				"z": -1.1960356742,
				"element": "C" 
			},
			{
				"x": -2.8442288914,
				"y": -8.1236987902,
				"z": -1.2534718822,
				"element": "O" 
			},
			{
				"x": -0.9269084044,
				"y": -6.80025727,
				"z": -1.866451467,
				"element": "C" 
			},
			{
				"x": -0.7311469819,
				"y": -5.3254024026,
				"z": -2.2294521699,
				"element": "C" 
			},
			{
				"x": -0.9376896767,
				"y": -4.3400040834,
				"z": -1.0394045446,
				"element": "C" 
			},
			{
				"x": 0.2014657498,
				"y": -4.5660225073,
				"z": -0.0060282016,
				"element": "C" 
			},
			{
				"x": -0.9881315929,
				"y": -2.8706173178,
				"z": -1.670339278,
				"element": "C" 
			},
			{
				"x": 0.3717651572,
				"y": -2.145019806,
				"z": -1.8584277941,
				"element": "C" 
			},
			{
				"x": 1.313760528,
				"y": -3.0541239198,
				"z": -2.4347062087,
				"element": "O" 
			},
			{
				"x": 0.9789746518,
				"y": -1.4522754459,
				"z": -0.6138613247,
				"element": "C" 
			},
			{
				"x": -0.0476762377,
				"y": -0.611233314,
				"z": 0.1915894092,
				"element": "C" 
			},
			{
				"x": -0.2340963662,
				"y": -1.183133214,
				"z": 1.6101178127,
				"element": "C" 
			},
			{
				"x": 1.0260129825,
				"y": 4.9115122764,
				"z": 2.3063575149,
				"element": "H" 
			},
			{
				"x": 1.2014857183,
				"y": 6.2281963985,
				"z": 3.4737306127,
				"element": "H" 
			},
			{
				"x": 1.6463255135,
				"y": 6.4815242035,
				"z": 1.7781869614,
				"element": "H" 
			},
			{
				"x": 3.4893173063,
				"y": 6.9885612418,
				"z": 4.2557758629,
				"element": "H" 
			},
			{
				"x": 3.9589479263,
				"y": 7.2896806862,
				"z": 2.5760937014,
				"element": "H" 
			},
			{
				"x": 4.9562319438,
				"y": 6.2441192557,
				"z": 3.6038965467,
				"element": "H" 
			},
			{
				"x": 2.635627546,
				"y": 4.7170486578,
				"z": 4.9706980009,
				"element": "H" 
			},
			{
				"x": 4.0821855219,
				"y": 3.9334234756,
				"z": 4.3193384979,
				"element": "H" 
			},
			{
				"x": 2.4756988799,
				"y": 3.3887226609,
				"z": 3.812128275,
				"element": "H" 
			},
			{
				"x": 4.8074989526,
				"y": 4.410377467,
				"z": 1.9172879003,
				"element": "H" 
			},
			{
				"x": 3.835495932,
				"y": 5.485329516,
				"z": 0.8852564693,
				"element": "H" 
			},
			{
				"x": 3.2440657115,
				"y": 0.3554525951,
				"z": 1.5981076743,
				"element": "H" 
			},
			{
				"x": 2.9611821428,
				"y": 1.092167047,
				"z": -0.0077059098,
				"element": "H" 
			},
			{
				"x": 1.1277461484,
				"y": 2.2607161894,
				"z": -0.8397279008,
				"element": "H" 
			},
			{
				"x": -1.2025110707,
				"y": 1.8493099164,
				"z": 1.6348689416,
				"element": "H" 
			},
			{
				"x": -1.1639910656,
				"y": 2.5133826814,
				"z": 0.0028141158,
				"element": "H" 
			},
			{
				"x": -2.9522932859,
				"y": 1.0127398035,
				"z": -0.5008658184,
				"element": "H" 
			},
			{
				"x": -2.6972806761,
				"y": 0.1418646143,
				"z": 1.0045066723,
				"element": "H" 
			},
			{
				"x": -1.0501768503,
				"y": 0.0090747746,
				"z": -1.5339647409,
				"element": "H" 
			},
			{
				"x": -2.5448131523,
				"y": -1.4534990018,
				"z": -2.0502555152,
				"element": "H" 
			},
			{
				"x": -3.9987211796,
				"y": -2.7112733622,
				"z": -0.9919134663,
				"element": "H" 
			},
			{
				"x": -3.6484653329,
				"y": -1.6313701829,
				"z": 0.3362758573,
				"element": "H" 
			},
			{
				"x": -2.1513573165,
				"y": -3.3651170635,
				"z": 1.3404112387,
				"element": "H" 
			},
			{
				"x": -3.7506620569,
				"y": -4.0195270727,
				"z": 1.0336595342,
				"element": "H" 
			},
			{
				"x": -3.7412530544,
				"y": -6.1310185427,
				"z": 0.1112683938,
				"element": "H" 
			},
			{
				"x": -0.1465008758,
				"y": -7.1479908281,
				"z": -1.1757520993,
				"element": "H" 
			},
			{
				"x": -0.8609997383,
				"y": -7.4426343038,
				"z": -2.7498908892,
				"element": "H" 
			},
			{
				"x": -1.4648180339,
				"y": -5.0745492194,
				"z": -3.0061828816,
				"element": "H" 
			},
			{
				"x": 0.2559260386,
				"y": -5.1551502623,
				"z": -2.6645360138,
				"element": "H" 
			},
			{
				"x": 1.1725687249,
				"y": -4.3906267743,
				"z": -0.4705329833,
				"element": "H" 
			},
			{
				"x": 0.1091375977,
				"y": -3.920679613,
				"z": 0.8689593944,
				"element": "H" 
			},
			{
				"x": 0.1727369652,
				"y": -5.5959676618,
				"z": 0.3600655707,
				"element": "H" 
			},
			{
				"x": -1.3106467359,
				"y": -3.0736083472,
				"z": -2.6955830033,
				"element": "H" 
			},
			{
				"x": 0.1699378079,
				"y": -1.3513120074,
				"z": -2.5928343039,
				"element": "H" 
			},
			{
				"x": 2.1077108897,
				"y": -2.5497822651,
				"z": -2.6553236079,
				"element": "H" 
			},
			{
				"x": 1.4410018691,
				"y": -2.2077897565,
				"z": 0.0251198058,
				"element": "H" 
			},
			{
				"x": 1.7830165487,
				"y": -0.8062124766,
				"z": -0.983386266,
				"element": "H" 
			},
			{
				"x": 0.7287809301,
				"y": -1.278144267,
				"z": 2.1232352785,
				"element": "H" 
			},
			{
				"x": -0.6757153044,
				"y": -2.1779707773,
				"z": 1.5736983997,
				"element": "H" 
			},
			{
				"x": -0.869746882,
				"y": -0.5571686575,
				"z": 2.2402179148,
				"element": "H" 
			}
		],
		 "valence_orbital": [ 
			{
				"type": "occ",
				"energy": -0.2799,
				"method": "rhf"
			},
			{
				"type": "occ",
				"energy": -0.26581,
				"method": "rhf"
			},
			{
				"type": "occ",
				"energy": -0.24899,
				"method": "rhf"
			},
			{
				"type": "occ",
				"energy": -0.24643,
				"method": "rhf"
			},
			{
				"type": "occ",
				"energy": -0.22212,
				"method": "rhf"
			},
			{
				"type": "unocc",
				"energy": -0.04661,
				"method": "rhf"
			},
			{
				"type": "unocc",
				"energy": -0.03717,
				"method": "rhf"
			},
			{
				"type": "unocc",
				"energy": -0.01545,
				"method": "rhf"
			},
			{
				"type": "unocc",
				"energy": 0.05171,
				"method": "rhf"
			},
			{
				"type": "unocc",
				"energy": 0.06734,
				"method": "rhf"
			}
		],
		"cosmo_sigma_profile": { 
			"-0.025": 0.0,
			"-0.024": 0.0,
			"-0.023": 0.0,
			"-0.022": 0.0,
			"-0.021": 0.0,
			"-0.02": 0.0,
			"-0.019": 0.0,
			"-0.018": 0.161557511698,
			"-0.017": 0.369654669116,
			"-0.016": 0.0349068118347,
			"-0.015": 0.784016754007,
			"-0.014": 1.08342905364,
			"-0.013": 1.03596489104,
			"-0.012": 0.367399501816,
			"-0.011": 1.05315032734,
			"-0.01": 1.01369081893,
			"-0.009": 1.10781460731,
			"-0.008": 4.19322010969,
			"-0.007": 4.3232898197,
			"-0.006": 6.06445398086,
			"-0.005": 17.3591877751,
			"-0.004": 34.8139040212,
			"-0.003": 62.3926923202,
			"-0.002": 69.0156022719,
			"-0.001": 56.9531385614,
			"0.0": 52.2377871443,
			"0.001": 47.2672725341,
			"0.002": 24.8930473871,
			"0.003": 16.1420025402,
			"0.004": 9.91575944431,
			"0.005": 11.0297553384,
			"0.006": 8.52932533316,
			"0.007": 9.90182952536,
			"0.008": 7.18083801254,
			"0.009": 7.00316116669,
			"0.01": 7.45777276282,
			"0.011": 5.5923255828,
			"0.012": 4.73537340845,
			"0.013": 4.64037893218,
			"0.014": 3.69243162478,
			"0.015": 0.744288200229,
			"0.016": 0.0,
			"0.017": 0.0,
			"0.018": 0.0,
			"0.019": 0.0,
			"0.02": 0.0,
			"0.021": 0.0,
			"0.022": 0.0,
			"0.023": 0.0,
			"0.024": 0.0,
			"0.025": 0.0
		}
	}
}
