{
	 "smiles": "IC1=CC=C(C=C1)N(C1=CC=C(I)C=C1)C1=CC=C(I)C=C1", 
	 "Tm": 440.15, 
	 "num_atms": 34, 
	 "gaussian": { 
		 "optdone": 1, 
		 "sigma_profile": "no", 
		 "theory": "DFT", 
		 "functional": "B3LYP", 
		 "basiset": "6-31G**", 
		 "properties": { 
			 "R2extent": 8536.658, 
			 "electric_dipole_moment_norm": 0.0028231188427, 
			 "electric_quadrupole_moment_norm": 7.26049251222, 
			 "total_energy": -782.05321116, 
			 "HOMO_LUMO_gap": 0.15801, 
			 "cosmo_polarized_energy": -347354.34, 
			 "cosmo_cavitation_energy": 48.07, 
			 "cosmo_dispersion_energy": -37.31, 
			 "cosmo_repulsion_energy": 2.81, 
			 "cosmo_total_nonelectrostatic_energy": 13.57, 
			 "SMD_solvation_energy": 5.01 
		},
		"coords": [
			{
				"x": 4.8652534249,
				"y": 5.4779611191,
				"z": 1.4599952624,
				"element": "I" 
			},
			{
				"x": 3.4788863121,
				"y": 3.9196644342,
				"z": 1.0865174047,
				"element": "C" 
			},
			{
				"x": 3.2733444862,
				"y": 2.9272125768,
				"z": 2.047197687,
				"element": "C" 
			},
			{
				"x": 2.3678926514,
				"y": 1.8986267433,
				"z": 1.7951614921,
				"element": "C" 
			},
			{
				"x": 1.6447685931,
				"y": 1.8581141544,
				"z": 0.5924113457,
				"element": "C" 
			},
			{
				"x": 1.8571694553,
				"y": 2.8691342602,
				"z": -0.3583189792,
				"element": "C" 
			},
			{
				"x": 2.7749402499,
				"y": 3.8898552553,
				"z": -0.1191782604,
				"element": "C" 
			},
			{
				"x": 0.7153597247,
				"y": 0.8134631263,
				"z": 0.3420837908,
				"element": "N" 
			},
			{
				"x": 0.6468164329,
				"y": 0.2171256621,
				"z": -0.9453065213,
				"element": "C" 
			},
			{
				"x": -0.5938997527,
				"y": -0.0959487633,
				"z": -1.5230566144,
				"element": "C" 
			},
			{
				"x": -0.6636579227,
				"y": -0.6895365651,
				"z": -2.7816850306,
				"element": "C" 
			},
			{
				"x": 0.5115662955,
				"y": -0.9600445607,
				"z": -3.4857993366,
				"element": "C" 
			},
			{
				"x": 0.409342125,
				"y": -1.849932445,
				"z": -5.4061037313,
				"element": "I" 
			},
			{
				"x": 1.7538483027,
				"y": -0.6468018364,
				"z": -2.9301705134,
				"element": "C" 
			},
			{
				"x": 1.8185454098,
				"y": -0.0701840311,
				"z": -1.6634204365,
				"element": "C" 
			},
			{
				"x": -0.1445859376,
				"y": 0.3643700506,
				"z": 1.3796520731,
				"element": "C" 
			},
			{
				"x": -0.7567827647,
				"y": 1.2821185834,
				"z": 2.2480315633,
				"element": "C" 
			},
			{
				"x": -1.5932056961,
				"y": 0.8438934286,
				"z": 3.2725834169,
				"element": "C" 
			},
			{
				"x": -1.8412460797,
				"y": -0.5215871899,
				"z": 3.4276943397,
				"element": "C" 
			},
			{
				"x": -3.1236309626,
				"y": -1.1912868645,
				"z": 4.9758508123,
				"element": "I" 
			},
			{
				"x": -1.2480347124,
				"y": -1.4477307133,
				"z": 2.5671750596,
				"element": "C" 
			},
			{
				"x": -0.3978958854,
				"y": -1.0052875003,
				"z": 1.5558014892,
				"element": "C" 
			},
			{
				"x": 3.8235675255,
				"y": 2.9405301459,
				"z": 2.981402882,
				"element": "H" 
			},
			{
				"x": 2.2213854705,
				"y": 1.1204590046,
				"z": 2.5367049259,
				"element": "H" 
			},
			{
				"x": 1.3005226568,
				"y": 2.8568319814,
				"z": -1.2893909087,
				"element": "H" 
			},
			{
				"x": 2.9241414086,
				"y": 4.6626321084,
				"z": -0.8649777947,
				"element": "H" 
			},
			{
				"x": -1.5089643019,
				"y": 0.1271286283,
				"z": -0.9847443494,
				"element": "H" 
			},
			{
				"x": -1.6312454936,
				"y": -0.922586297,
				"z": -3.2119298888,
				"element": "H" 
			},
			{
				"x": 2.669862158,
				"y": -0.8625996078,
				"z": -3.4686846172,
				"element": "H" 
			},
			{
				"x": 2.7854562151,
				"y": 0.1580815997,
				"z": -1.227694909,
				"element": "H" 
			},
			{
				"x": -0.5778960171,
				"y": 2.3444469443,
				"z": 2.1201459405,
				"element": "H" 
			},
			{
				"x": -2.0580323102,
				"y": 1.5680139834,
				"z": 3.9323044799,
				"element": "H" 
			},
			{
				"x": -1.4301931215,
				"y": -2.5097001847,
				"z": 2.6884186884,
				"element": "H" 
			},
			{
				"x": 0.0737020605,
				"y": -1.7279372312,
				"z": 0.8983292383,
				"element": "H" 
			}
		],
		 "valence_orbital": [ 
			{
				"type": "occ",
				"energy": -0.27036,
				"method": "rhf"
			},
			{
				"type": "occ",
				"energy": -0.27034,
				"method": "rhf"
			},
			{
				"type": "occ",
				"energy": -0.24856,
				"method": "rhf"
			},
			{
				"type": "occ",
				"energy": -0.24854,
				"method": "rhf"
			},
			{
				"type": "occ",
				"energy": -0.20056,
				"method": "rhf"
			},
			{
				"type": "unocc",
				"energy": -0.04255,
				"method": "rhf"
			},
			{
				"type": "unocc",
				"energy": -0.04225,
				"method": "rhf"
			},
			{
				"type": "unocc",
				"energy": -0.04224,
				"method": "rhf"
			},
			{
				"type": "unocc",
				"energy": -0.03631,
				"method": "rhf"
			},
			{
				"type": "unocc",
				"energy": -0.03546,
				"method": "rhf"
			}
		],
		"cosmo_sigma_profile": { 
			"0.0": 0.0,
			"0.0": 0.0,
			"0.0": 0.0,
			"0.0": 0.0,
			"0.0": 0.0,
			"0.0": 0.0,
			"0.0": 0.0,
			"0.0": 0.0,
			"0.0": 0.0,
			"0.0": 0.0,
			"0.0": 0.0,
			"0.0": 0.0,
			"0.0": 0.0,
			"0.0": 0.0,
			"0.0": 0.0,
			"0.0": 0.0,
			"0.0": 0.0,
			"0.0": 0.0,
			"0.0": 0.0,
			"0.0": 0.0,
			"0.0": 0.0,
			"0.0": 0.0,
			"0.0": 0.0,
			"0.0": 0.0,
			"0.0": 0.0,
			"0.0": 0.0,
			"0.0": 0.0,
			"0.0": 0.0,
			"0.0": 0.0,
			"0.0": 0.0,
			"0.0": 0.0,
			"0.0": 0.0,
			"0.0": 0.0,
			"0.0": 0.0,
			"0.0": 0.0,
			"0.0": 0.0,
			"0.0": 0.0,
			"0.0": 0.0,
			"0.0": 0.0,
			"0.0": 0.0,
			"0.0": 0.0,
			"0.0": 0.0,
			"0.0": 0.0,
			"0.0": 0.0,
			"0.0": 0.0,
			"0.0": 0.0,
			"0.0": 0.0,
			"0.0": 0.0,
			"0.0": 0.0,
			"0.0": 0.0,
			"0.0": 0.0
		}
	}
}
