{
	 "smiles": "OC(=O)C1CCCN1C1=NC=CC=N1", 
	 "Tm": 413.15, 
	 "num_atms": 25, 
	 "gaussian": { 
		 "optdone": 1, 
		 "sigma_profile": "yes", 
		 "theory": "DFT", 
		 "functional": "B3LYP", 
		 "basiset": "6-31G**", 
		 "properties": { 
			 "R2extent": 2789.0686, 
			 "electric_dipole_moment_norm": 1.77829956419, 
			 "electric_quadrupole_moment_norm": 15.2093752403, 
			 "total_energy": -664.308092509, 
			 "HOMO_LUMO_gap": 0.18338, 
			 "cosmo_polarized_energy": -13.56, 
			 "cosmo_cavitation_energy": 28.29, 
			 "cosmo_dispersion_energy": -20.51, 
			 "cosmo_repulsion_energy": 1.64, 
			 "cosmo_total_nonelectrostatic_energy": 9.42, 
			 "SMD_solvation_energy": 3.6 
		},
		"coords": [
			{
				"x": 1.9678444734,
				"y": 0.4302156039,
				"z": 1.5434105826,
				"element": "O" 
			},
			{
				"x": 2.2160445212,
				"y": -0.7538359432,
				"z": 0.9377342602,
				"element": "C" 
			},
			{
				"x": 3.3153689371,
				"y": -1.0843409656,
				"z": 0.5554406259,
				"element": "O" 
			},
			{
				"x": 0.9948638986,
				"y": -1.6648412628,
				"z": 0.8960321858,
				"element": "C" 
			},
			{
				"x": 0.8412822728,
				"y": -2.433021713,
				"z": 2.235619885,
				"element": "C" 
			},
			{
				"x": -0.676745353,
				"y": -2.6314912064,
				"z": 2.3711455426,
				"element": "C" 
			},
			{
				"x": -1.2534976912,
				"y": -1.3302517697,
				"z": 1.7994335529,
				"element": "C" 
			},
			{
				"x": -0.2858850777,
				"y": -0.9796844255,
				"z": 0.7576781056,
				"element": "N" 
			},
			{
				"x": -0.5706984411,
				"y": -0.1713274444,
				"z": -0.2996634536,
				"element": "C" 
			},
			{
				"x": -1.8017120816,
				"y": 0.3857965481,
				"z": -0.3418398774,
				"element": "N" 
			},
			{
				"x": -2.0475152229,
				"y": 1.1636583756,
				"z": -1.395796768,
				"element": "C" 
			},
			{
				"x": -1.1129684083,
				"y": 1.4091194393,
				"z": -2.4020824356,
				"element": "C" 
			},
			{
				"x": 0.123166253,
				"y": 0.7817244529,
				"z": -2.2469009623,
				"element": "C" 
			},
			{
				"x": 0.413115155,
				"y": -0.0063393673,
				"z": -1.2129826391,
				"element": "N" 
			},
			{
				"x": 2.8137611118,
				"y": 0.9083163789,
				"z": 1.5430475837,
				"element": "H" 
			},
			{
				"x": 1.169476383,
				"y": -2.3489010244,
				"z": 0.0584067183,
				"element": "H" 
			},
			{
				"x": 1.4125313116,
				"y": -3.3635928488,
				"z": 2.2327321788,
				"element": "H" 
			},
			{
				"x": 1.2105849811,
				"y": -1.8117030617,
				"z": 3.0586894066,
				"element": "H" 
			},
			{
				"x": -1.003759462,
				"y": -3.4829972391,
				"z": 1.7639926473,
				"element": "H" 
			},
			{
				"x": -0.9897765139,
				"y": -2.8131517066,
				"z": 3.4027714895,
				"element": "H" 
			},
			{
				"x": -1.3074558348,
				"y": -0.5409276901,
				"z": 2.5622251415,
				"element": "H" 
			},
			{
				"x": -2.2502384986,
				"y": -1.439516488,
				"z": 1.3677128721,
				"element": "H" 
			},
			{
				"x": -3.039425605,
				"y": 1.6131276493,
				"z": -1.4344830132,
				"element": "H" 
			},
			{
				"x": -1.3324292596,
				"y": 2.0482877875,
				"z": -3.2488074311,
				"element": "H" 
			},
			{
				"x": 0.916068151,
				"y": 0.9151779211,
				"z": -2.9820161981,
				"element": "H" 
			}
		],
		 "valence_orbital": [ 
			{
				"type": "occ",
				"energy": -0.30679,
				"method": "rhf"
			},
			{
				"type": "occ",
				"energy": -0.30234,
				"method": "rhf"
			},
			{
				"type": "occ",
				"energy": -0.26941,
				"method": "rhf"
			},
			{
				"type": "occ",
				"energy": -0.24212,
				"method": "rhf"
			},
			{
				"type": "occ",
				"energy": -0.2124,
				"method": "rhf"
			},
			{
				"type": "unocc",
				"energy": -0.02902,
				"method": "rhf"
			},
			{
				"type": "unocc",
				"energy": 0.00271,
				"method": "rhf"
			},
			{
				"type": "unocc",
				"energy": 0.01689,
				"method": "rhf"
			},
			{
				"type": "unocc",
				"energy": 0.07323,
				"method": "rhf"
			},
			{
				"type": "unocc",
				"energy": 0.09708,
				"method": "rhf"
			}
		],
		"cosmo_sigma_profile": { 
			"-0.025": 0.0,
			"-0.024": 0.0,
			"-0.023": 0.0,
			"-0.022": 0.0,
			"-0.021": 0.0,
			"-0.02": 0.0,
			"-0.019": 0.0436941141778,
			"-0.018": 0.774082066721,
			"-0.017": 1.04001911101,
			"-0.016": 0.747627907018,
			"-0.015": 0.964885886533,
			"-0.014": 0.310885101209,
			"-0.013": 0.545272074171,
			"-0.012": 0.658748579953,
			"-0.011": 0.927044725502,
			"-0.01": 0.756237801029,
			"-0.009": 0.274651263817,
			"-0.008": 0.903778231242,
			"-0.007": 6.2278209323,
			"-0.006": 8.19278436814,
			"-0.005": 14.5642734654,
			"-0.004": 23.8237358986,
			"-0.003": 24.5416266888,
			"-0.002": 19.4078393846,
			"-0.001": 16.8499828663,
			"0.0": 14.0720309944,
			"0.001": 12.5402699611,
			"0.002": 12.7760616806,
			"0.003": 8.80893928989,
			"0.004": 6.52471029609,
			"0.005": 5.68782021197,
			"0.006": 6.42095863969,
			"0.007": 6.65229364148,
			"0.008": 4.71217455011,
			"0.009": 5.19260855106,
			"0.01": 5.21934925557,
			"0.011": 5.04879745075,
			"0.012": 6.62967248097,
			"0.013": 1.55040726544,
			"0.014": 0.255266619291,
			"0.015": 0.0,
			"0.016": 0.0,
			"0.017": 0.0,
			"0.018": 0.0,
			"0.019": 0.0,
			"0.02": 0.0,
			"0.021": 0.0,
			"0.022": 0.0,
			"0.023": 0.0,
			"0.024": 0.0,
			"0.025": 0.0
		}
	}
}
