{
	 "smiles": "NC1CCCC2=C1C=CN2", 
	 "Tm": 357.15, 
	 "num_atms": 22, 
	 "gaussian": { 
		 "optdone": 1, 
		 "sigma_profile": "yes", 
		 "theory": "DFT", 
		 "functional": "B3LYP", 
		 "basiset": "6-31G**", 
		 "properties": { 
			 "R2extent": 1694.9619, 
			 "electric_dipole_moment_norm": 1.3121648715, 
			 "electric_quadrupole_moment_norm": 7.96684260921, 
			 "total_energy": -421.582309945, 
			 "HOMO_LUMO_gap": 0.23865, 
			 "cosmo_polarized_energy": -9.74, 
			 "cosmo_cavitation_energy": 23.27, 
			 "cosmo_dispersion_energy": -17.69, 
			 "cosmo_repulsion_energy": 1.45, 
			 "cosmo_total_nonelectrostatic_energy": 7.04, 
			 "SMD_solvation_energy": 2.71 
		},
		"coords": [
			{
				"x": 0.8672607921,
				"y": -1.389216838,
				"z": -2.9984743563,
				"element": "N" 
			},
			{
				"x": 1.2564207973,
				"y": -1.4784185586,
				"z": -1.5725655685,
				"element": "C" 
			},
			{
				"x": 2.1145466519,
				"y": -0.2456978908,
				"z": -1.2091935887,
				"element": "C" 
			},
			{
				"x": 1.2672802679,
				"y": 1.0336183951,
				"z": -1.1176062733,
				"element": "C" 
			},
			{
				"x": 0.2300961121,
				"y": 0.9501302182,
				"z": 0.0211335732,
				"element": "C" 
			},
			{
				"x": -0.4196089009,
				"y": -0.3981839499,
				"z": -0.0124869516,
				"element": "C" 
			},
			{
				"x": 0.0301250963,
				"y": -1.5077335887,
				"z": -0.7002534643,
				"element": "C" 
			},
			{
				"x": -0.873944318,
				"y": -2.5800631881,
				"z": -0.4213442635,
				"element": "C" 
			},
			{
				"x": -1.8415188853,
				"y": -2.0913898925,
				"z": 0.4277823912,
				"element": "C" 
			},
			{
				"x": -1.5551054975,
				"y": -0.7640968822,
				"z": 0.6724346624,
				"element": "N" 
			},
			{
				"x": 1.6478050409,
				"y": -1.678361895,
				"z": -3.5856235856,
				"element": "H" 
			},
			{
				"x": 0.106418047,
				"y": -2.0378901573,
				"z": -3.1834601715,
				"element": "H" 
			},
			{
				"x": 1.8548477004,
				"y": -2.3843184688,
				"z": -1.3702182726,
				"element": "H" 
			},
			{
				"x": 2.9002434414,
				"y": -0.1192824207,
				"z": -1.9640518488,
				"element": "H" 
			},
			{
				"x": 2.6185122241,
				"y": -0.4329421306,
				"z": -0.2513769589,
				"element": "H" 
			},
			{
				"x": 0.7470209609,
				"y": 1.1627883468,
				"z": -2.0724390292,
				"element": "H" 
			},
			{
				"x": 1.9097266468,
				"y": 1.9085811905,
				"z": -0.9687844008,
				"element": "H" 
			},
			{
				"x": -0.5110818294,
				"y": 1.7542621268,
				"z": -0.0837698294,
				"element": "H" 
			},
			{
				"x": 0.7263225357,
				"y": 1.1143954072,
				"z": 0.990660207,
				"element": "H" 
			},
			{
				"x": -0.8154421356,
				"y": -3.5943773983,
				"z": -0.7939978487,
				"element": "H" 
			},
			{
				"x": -2.700432935,
				"y": -2.5689215633,
				"z": 0.8755416444,
				"element": "H" 
			},
			{
				"x": -2.0981918131,
				"y": -0.1529808617,
				"z": 1.2610939337,
				"element": "H" 
			}
		],
		 "valence_orbital": [ 
			{
				"type": "occ",
				"energy": -0.31134,
				"method": "rhf"
			},
			{
				"type": "occ",
				"energy": -0.30751,
				"method": "rhf"
			},
			{
				"type": "occ",
				"energy": -0.23193,
				"method": "rhf"
			},
			{
				"type": "occ",
				"energy": -0.2172,
				"method": "rhf"
			},
			{
				"type": "occ",
				"energy": -0.19159,
				"method": "rhf"
			},
			{
				"type": "unocc",
				"energy": 0.04706,
				"method": "rhf"
			},
			{
				"type": "unocc",
				"energy": 0.08027,
				"method": "rhf"
			},
			{
				"type": "unocc",
				"energy": 0.08738,
				"method": "rhf"
			},
			{
				"type": "unocc",
				"energy": 0.09774,
				"method": "rhf"
			},
			{
				"type": "unocc",
				"energy": 0.12576,
				"method": "rhf"
			}
		],
		"cosmo_sigma_profile": { 
			"-0.025": 0.0,
			"-0.024": 0.0,
			"-0.023": 0.0,
			"-0.022": 0.0,
			"-0.021": 0.0,
			"-0.02": 0.0,
			"-0.019": 0.0,
			"-0.018": 0.0,
			"-0.017": 0.0,
			"-0.016": 0.0,
			"-0.015": 0.363323945641,
			"-0.014": 1.55745902536,
			"-0.013": 1.45027630806,
			"-0.012": 1.13477916578,
			"-0.011": 1.31018216208,
			"-0.01": 0.651916057925,
			"-0.009": 2.19049730336,
			"-0.008": 3.86893069377,
			"-0.007": 3.98740005755,
			"-0.006": 6.38335081006,
			"-0.005": 5.71924811647,
			"-0.004": 7.72266720664,
			"-0.003": 13.5736753276,
			"-0.002": 18.5765052754,
			"-0.001": 22.2228900937,
			"0.0": 21.4543177524,
			"0.001": 16.2365269712,
			"0.002": 8.42242510462,
			"0.003": 5.14452160993,
			"0.004": 4.83296075741,
			"0.005": 5.05891170096,
			"0.006": 5.31283438829,
			"0.007": 4.90878433011,
			"0.008": 5.36642337594,
			"0.009": 5.05940319537,
			"0.01": 2.44408692395,
			"0.011": 1.11038593477,
			"0.012": 1.03827506545,
			"0.013": 0.56751826549,
			"0.014": 1.18055389775,
			"0.015": 0.747167023157,
			"0.016": 0.700656203281,
			"0.017": 0.403105030716,
			"0.018": 0.409199092732,
			"0.019": 0.0,
			"0.02": 0.0,
			"0.021": 0.0,
			"0.022": 0.0,
			"0.023": 0.0,
			"0.024": 0.0,
			"0.025": 0.0
		}
	}
}
