{
	 "smiles": "IC1=CC=CC(CC#N)=C1", 
	 "Tm": 307.15, 
	 "num_atms": 16, 
	 "gaussian": { 
		 "optdone": 1, 
		 "sigma_profile": "no", 
		 "theory": "DFT", 
		 "functional": "B3LYP", 
		 "basiset": "6-31G**", 
		 "properties": { 
			 "R2extent": 2696.781, 
			 "electric_dipole_moment_norm": 2.02997344564, 
			 "electric_quadrupole_moment_norm": 13.7784810012, 
			 "total_energy": -374.586097221, 
			 "HOMO_LUMO_gap": 0.20209, 
			 "cosmo_polarized_energy": -100680.42, 
			 "cosmo_cavitation_energy": 24.37, 
			 "cosmo_dispersion_energy": -18.78, 
			 "cosmo_repulsion_energy": 1.49, 
			 "cosmo_total_nonelectrostatic_energy": 7.08, 
			 "SMD_solvation_energy": 4.54 
		},
		"coords": [
			{
				"x": 4.1169683838,
				"y": 1.3922890087,
				"z": 3.5360417389,
				"element": "I" 
			},
			{
				"x": 2.8250539405,
				"y": 0.3732643771,
				"z": 2.1968228918,
				"element": "C" 
			},
			{
				"x": 2.0561992324,
				"y": -0.696631969,
				"z": 2.6609427866,
				"element": "C" 
			},
			{
				"x": 1.2141254621,
				"y": -1.3540672591,
				"z": 1.7648376162,
				"element": "C" 
			},
			{
				"x": 1.1372304488,
				"y": -0.954105911,
				"z": 0.4292134379,
				"element": "C" 
			},
			{
				"x": 1.9095035447,
				"y": 0.1165495951,
				"z": -0.0254796544,
				"element": "C" 
			},
			{
				"x": 1.8661348616,
				"y": 0.6097151386,
				"z": -1.4695257013,
				"element": "C" 
			},
			{
				"x": 1.0172626676,
				"y": -0.1837573106,
				"z": -2.3604115415,
				"element": "C" 
			},
			{
				"x": 0.3417565364,
				"y": -0.8138846121,
				"z": -3.0625773044,
				"element": "N" 
			},
			{
				"x": 2.7598470852,
				"y": 0.7836146919,
				"z": 0.8668502269,
				"element": "C" 
			},
			{
				"x": 2.1127528966,
				"y": -1.0111049826,
				"z": 3.6966799091,
				"element": "H" 
			},
			{
				"x": 0.6117296561,
				"y": -2.1880054158,
				"z": 2.1125686536,
				"element": "H" 
			},
			{
				"x": 0.4784131767,
				"y": -1.4765122901,
				"z": -0.2570307009,
				"element": "H" 
			},
			{
				"x": 2.8789119258,
				"y": 0.6229857073,
				"z": -1.8913296328,
				"element": "H" 
			},
			{
				"x": 1.5084372433,
				"y": 1.6470109681,
				"z": -1.5002955733,
				"element": "H" 
			},
			{
				"x": 3.3645729384,
				"y": 1.6162402637,
				"z": 0.5214928476,
				"element": "H" 
			}
		],
		 "valence_orbital": [ 
			{
				"type": "occ",
				"energy": -0.33552,
				"method": "rhf"
			},
			{
				"type": "occ",
				"energy": -0.30531,
				"method": "rhf"
			},
			{
				"type": "occ",
				"energy": -0.27625,
				"method": "rhf"
			},
			{
				"type": "occ",
				"energy": -0.27104,
				"method": "rhf"
			},
			{
				"type": "occ",
				"energy": -0.24952,
				"method": "rhf"
			},
			{
				"type": "unocc",
				"energy": -0.04743,
				"method": "rhf"
			},
			{
				"type": "unocc",
				"energy": -0.032,
				"method": "rhf"
			},
			{
				"type": "unocc",
				"energy": -0.02753,
				"method": "rhf"
			},
			{
				"type": "unocc",
				"energy": 0.02336,
				"method": "rhf"
			},
			{
				"type": "unocc",
				"energy": 0.03332,
				"method": "rhf"
			}
		],
		"cosmo_sigma_profile": { 
			"0.0": 0.0,
			"0.0": 0.0,
			"0.0": 0.0,
			"0.0": 0.0,
			"0.0": 0.0,
			"0.0": 0.0,
			"0.0": 0.0,
			"0.0": 0.0,
			"0.0": 0.0,
			"0.0": 0.0,
			"0.0": 0.0,
			"0.0": 0.0,
			"0.0": 0.0,
			"0.0": 0.0,
			"0.0": 0.0,
			"0.0": 0.0,
			"0.0": 0.0,
			"0.0": 0.0,
			"0.0": 0.0,
			"0.0": 0.0,
			"0.0": 0.0,
			"0.0": 0.0,
			"0.0": 0.0,
			"0.0": 0.0,
			"0.0": 0.0,
			"0.0": 0.0,
			"0.0": 0.0,
			"0.0": 0.0,
			"0.0": 0.0,
			"0.0": 0.0,
			"0.0": 0.0,
			"0.0": 0.0,
			"0.0": 0.0,
			"0.0": 0.0,
			"0.0": 0.0,
			"0.0": 0.0,
			"0.0": 0.0,
			"0.0": 0.0,
			"0.0": 0.0,
			"0.0": 0.0,
			"0.0": 0.0,
			"0.0": 0.0,
			"0.0": 0.0,
			"0.0": 0.0,
			"0.0": 0.0,
			"0.0": 0.0,
			"0.0": 0.0,
			"0.0": 0.0,
			"0.0": 0.0,
			"0.0": 0.0,
			"0.0": 0.0
		}
	}
}
