{
	 "smiles": "NCC1=CC=C(C=C1)N1CCCC1", 
	 "Tm": 313.65, 
	 "num_atms": 29, 
	 "gaussian": { 
		 "optdone": 1, 
		 "sigma_profile": "yes", 
		 "theory": "DFT", 
		 "functional": "B3LYP", 
		 "basiset": "6-31G**", 
		 "properties": { 
			 "R2extent": 3595.8253, 
			 "electric_dipole_moment_norm": 3.93928869848, 
			 "electric_quadrupole_moment_norm": 10.078362746, 
			 "total_energy": -538.315099878, 
			 "HOMO_LUMO_gap": 0.18772, 
			 "cosmo_polarized_energy": -8.58, 
			 "cosmo_cavitation_energy": 30.29, 
			 "cosmo_dispersion_energy": -22.39, 
			 "cosmo_repulsion_energy": 1.79, 
			 "cosmo_total_nonelectrostatic_energy": 9.69, 
			 "SMD_solvation_energy": 2.24 
		},
		"coords": [
			{
				"x": 0.6829656312,
				"y": 5.0236312714,
				"z": -1.5245820222,
				"element": "N" 
			},
			{
				"x": 1.5647059482,
				"y": 3.8794653669,
				"z": -1.8304915935,
				"element": "C" 
			},
			{
				"x": 1.0932854421,
				"y": 2.5253578546,
				"z": -1.3369788368,
				"element": "C" 
			},
			{
				"x": 1.4336974537,
				"y": 2.0516614797,
				"z": -0.0631403124,
				"element": "C" 
			},
			{
				"x": 0.9585424451,
				"y": 0.8381519324,
				"z": 0.4248482359,
				"element": "C" 
			},
			{
				"x": 0.1083111913,
				"y": 0.0275405172,
				"z": -0.3612317921,
				"element": "C" 
			},
			{
				"x": -0.2313354835,
				"y": 0.496615998,
				"z": -1.6507718134,
				"element": "C" 
			},
			{
				"x": 0.2546100479,
				"y": 1.715368242,
				"z": -2.1140722168,
				"element": "C" 
			},
			{
				"x": -0.3671548382,
				"y": -1.1789996124,
				"z": 0.1097553243,
				"element": "N" 
			},
			{
				"x": 0.0497699163,
				"y": -1.7727930515,
				"z": 1.3766207101,
				"element": "C" 
			},
			{
				"x": -0.5047270942,
				"y": -3.203981725,
				"z": 1.3071538791,
				"element": "C" 
			},
			{
				"x": -1.7556997263,
				"y": -3.0551749803,
				"z": 0.4266982202,
				"element": "C" 
			},
			{
				"x": -1.3324726253,
				"y": -2.0038874471,
				"z": -0.6103568275,
				"element": "C" 
			},
			{
				"x": -0.2411874057,
				"y": 4.833831978,
				"z": -1.9097687171,
				"element": "H" 
			},
			{
				"x": 0.5438215784,
				"y": 5.0660265166,
				"z": -0.5159660287,
				"element": "H" 
			},
			{
				"x": 2.5498552673,
				"y": 4.1054659644,
				"z": -1.4052880992,
				"element": "H" 
			},
			{
				"x": 1.6949110111,
				"y": 3.8517807197,
				"z": -2.9189640955,
				"element": "H" 
			},
			{
				"x": 2.0912246552,
				"y": 2.6466183193,
				"z": 0.5685561585,
				"element": "H" 
			},
			{
				"x": 1.2448466518,
				"y": 0.5188646281,
				"z": 1.4208054947,
				"element": "H" 
			},
			{
				"x": -0.8618356167,
				"y": -0.1030554984,
				"z": -2.2978667543,
				"element": "H" 
			},
			{
				"x": -0.0206119152,
				"y": 2.0399172334,
				"z": -3.116243513,
				"element": "H" 
			},
			{
				"x": 1.1422154419,
				"y": -1.7591968746,
				"z": 1.4806172856,
				"element": "H" 
			},
			{
				"x": -0.3660258061,
				"y": -1.222350798,
				"z": 2.2366294367,
				"element": "H" 
			},
			{
				"x": 0.2233243925,
				"y": -3.8612098531,
				"z": 0.8183971335,
				"element": "H" 
			},
			{
				"x": -0.7179963958,
				"y": -3.6184611484,
				"z": 2.2961692636,
				"element": "H" 
			},
			{
				"x": -2.0745917467,
				"y": -3.9936236439,
				"z": -0.0348723932,
				"element": "H" 
			},
			{
				"x": -2.5923457534,
				"y": -2.6733512803,
				"z": 1.0226539593,
				"element": "H" 
			},
			{
				"x": -0.8790532559,
				"y": -2.4757551359,
				"z": -1.4977589592,
				"element": "H" 
			},
			{
				"x": -2.1824494109,
				"y": -1.4045569725,
				"z": -0.9605511265,
				"element": "H" 
			}
		],
		 "valence_orbital": [ 
			{
				"type": "occ",
				"energy": -0.32074,
				"method": "rhf"
			},
			{
				"type": "occ",
				"energy": -0.27456,
				"method": "rhf"
			},
			{
				"type": "occ",
				"energy": -0.2384,
				"method": "rhf"
			},
			{
				"type": "occ",
				"energy": -0.22698,
				"method": "rhf"
			},
			{
				"type": "occ",
				"energy": -0.17818,
				"method": "rhf"
			},
			{
				"type": "unocc",
				"energy": 0.00954,
				"method": "rhf"
			},
			{
				"type": "unocc",
				"energy": 0.02309,
				"method": "rhf"
			},
			{
				"type": "unocc",
				"energy": 0.07918,
				"method": "rhf"
			},
			{
				"type": "unocc",
				"energy": 0.09764,
				"method": "rhf"
			},
			{
				"type": "unocc",
				"energy": 0.11139,
				"method": "rhf"
			}
		],
		"cosmo_sigma_profile": { 
			"-0.025": 0.0,
			"-0.024": 0.0,
			"-0.023": 0.0,
			"-0.022": 0.0,
			"-0.021": 0.0,
			"-0.02": 0.0,
			"-0.019": 0.0,
			"-0.018": 0.0,
			"-0.017": 0.0,
			"-0.016": 0.0,
			"-0.015": 0.0,
			"-0.014": 0.0,
			"-0.013": 0.0,
			"-0.012": 0.0,
			"-0.011": 0.0,
			"-0.01": 0.0,
			"-0.009": 1.20999284294,
			"-0.008": 2.35603851595,
			"-0.007": 2.61654045209,
			"-0.006": 2.75109750345,
			"-0.005": 5.56644712068,
			"-0.004": 22.3941521394,
			"-0.003": 37.439852257,
			"-0.002": 38.8296889155,
			"-0.001": 27.9405513348,
			"0.0": 21.0868409057,
			"0.001": 10.7338422013,
			"0.002": 8.53126442758,
			"0.003": 7.98458629353,
			"0.004": 7.14576569915,
			"0.005": 9.83119715387,
			"0.006": 8.24348786796,
			"0.007": 7.895356472,
			"0.008": 5.39487906379,
			"0.009": 0.856661350646,
			"0.01": 0.998793511079,
			"0.011": 1.04522833555,
			"0.012": 0.331741690781,
			"0.013": 0.0616860431321,
			"0.014": 0.781407000416,
			"0.015": 1.33399661977,
			"0.016": 0.501765960032,
			"0.017": 0.898483968407,
			"0.018": 0.320882435962,
			"0.019": 0.46809961532,
			"0.02": 0.901637037118,
			"0.021": 0.0,
			"0.022": 0.0,
			"0.023": 0.0,
			"0.024": 0.0,
			"0.025": 0.0
		}
	}
}
