{
	 "smiles": "OC(=O)C1=CN=C2C=CC=CN2C1=O", 
	 "Tm": 525.15, 
	 "num_atms": 20, 
	 "gaussian": { 
		 "optdone": 1, 
		 "sigma_profile": "yes", 
		 "theory": "DFT", 
		 "functional": "B3LYP", 
		 "basiset": "6-31G**", 
		 "properties": { 
			 "R2extent": 3211.1991, 
			 "electric_dipole_moment_norm": 8.96129462801, 
			 "electric_quadrupole_moment_norm": 14.158235051, 
			 "total_energy": -681.771484922, 
			 "HOMO_LUMO_gap": 0.1528, 
			 "cosmo_polarized_energy": -17.71, 
			 "cosmo_cavitation_energy": 24.79, 
			 "cosmo_dispersion_energy": -19.0, 
			 "cosmo_repulsion_energy": 1.43, 
			 "cosmo_total_nonelectrostatic_energy": 7.23, 
			 "SMD_solvation_energy": 4.81 
		},
		"coords": [
			{
				"x": 3.1151974691,
				"y": 0.9237633015,
				"z": -3.0699319982,
				"element": "O" 
			},
			{
				"x": 3.0275621837,
				"y": 1.4870565743,
				"z": -1.8563284873,
				"element": "C" 
			},
			{
				"x": 3.9284889456,
				"y": 2.1507713061,
				"z": -1.3868191643,
				"element": "O" 
			},
			{
				"x": 1.7495478907,
				"y": 1.252349514,
				"z": -1.1068609455,
				"element": "C" 
			},
			{
				"x": 1.5959314363,
				"y": 1.8094019308,
				"z": 0.1569685343,
				"element": "C" 
			},
			{
				"x": 0.5126346313,
				"y": 1.679830206,
				"z": 0.9313959497,
				"element": "N" 
			},
			{
				"x": -0.4994315584,
				"y": 0.9586484275,
				"z": 0.4513374653,
				"element": "C" 
			},
			{
				"x": -1.6824173624,
				"y": 0.7803585909,
				"z": 1.223026911,
				"element": "C" 
			},
			{
				"x": -2.7344159151,
				"y": 0.0432719286,
				"z": 0.7489790389,
				"element": "C" 
			},
			{
				"x": -2.6522594988,
				"y": -0.5581552645,
				"z": -0.5355755915,
				"element": "C" 
			},
			{
				"x": -1.5238927404,
				"y": -0.3927556616,
				"z": -1.2809285172,
				"element": "C" 
			},
			{
				"x": -0.4629830733,
				"y": 0.3496510755,
				"z": -0.8048049234,
				"element": "N" 
			},
			{
				"x": 0.6955810912,
				"y": 0.4734779337,
				"z": -1.6626931479,
				"element": "C" 
			},
			{
				"x": 0.6718148777,
				"y": -0.0879805233,
				"z": -2.7673713551,
				"element": "O" 
			},
			{
				"x": 2.2821962306,
				"y": 0.4319928161,
				"z": -3.2595672262,
				"element": "H" 
			},
			{
				"x": 2.4193125096,
				"y": 2.3986029995,
				"z": 0.5526848056,
				"element": "H" 
			},
			{
				"x": -1.6913052962,
				"y": 1.2602522425,
				"z": 2.1939709706,
				"element": "H" 
			},
			{
				"x": -3.629145269,
				"y": -0.0828635413,
				"z": 1.3500870233,
				"element": "H" 
			},
			{
				"x": -3.4707096106,
				"y": -1.1461248775,
				"z": -0.9335042952,
				"element": "H" 
			},
			{
				"x": -1.3609069415,
				"y": -0.8067489786,
				"z": -2.2667650468,
				"element": "H" 
			}
		],
		 "valence_orbital": [ 
			{
				"type": "occ",
				"energy": -0.30087,
				"method": "rhf"
			},
			{
				"type": "occ",
				"energy": -0.29652,
				"method": "rhf"
			},
			{
				"type": "occ",
				"energy": -0.29114,
				"method": "rhf"
			},
			{
				"type": "occ",
				"energy": -0.26071,
				"method": "rhf"
			},
			{
				"type": "occ",
				"energy": -0.24549,
				"method": "rhf"
			},
			{
				"type": "unocc",
				"energy": -0.09269,
				"method": "rhf"
			},
			{
				"type": "unocc",
				"energy": -0.0734,
				"method": "rhf"
			},
			{
				"type": "unocc",
				"energy": -0.01437,
				"method": "rhf"
			},
			{
				"type": "unocc",
				"energy": 0.01514,
				"method": "rhf"
			},
			{
				"type": "unocc",
				"energy": 0.06385,
				"method": "rhf"
			}
		],
		"cosmo_sigma_profile": { 
			"-0.025": 0.0,
			"-0.024": 0.0,
			"-0.023": 0.0,
			"-0.022": 0.0,
			"-0.021": 0.0,
			"-0.02": 0.0,
			"-0.019": 0.0,
			"-0.018": 0.0,
			"-0.017": 0.0,
			"-0.016": 0.0,
			"-0.015": 0.0,
			"-0.014": 0.0,
			"-0.013": 0.0,
			"-0.012": 0.0,
			"-0.011": 0.0,
			"-0.01": 0.138172955437,
			"-0.009": 5.81983871324,
			"-0.008": 10.1099545971,
			"-0.007": 11.3826961018,
			"-0.006": 10.2374261226,
			"-0.005": 15.0991157802,
			"-0.004": 13.5282118259,
			"-0.003": 15.0829433596,
			"-0.002": 15.7900748764,
			"-0.001": 19.4405680995,
			"0.0": 14.8309331238,
			"0.001": 6.95276694599,
			"0.002": 4.96470763532,
			"0.003": 4.73568894761,
			"0.004": 4.46087047012,
			"0.005": 4.04514935105,
			"0.006": 5.30225602108,
			"0.007": 4.1924316876,
			"0.008": 4.65398504969,
			"0.009": 5.36319654686,
			"0.01": 6.91301947984,
			"0.011": 5.77004996945,
			"0.012": 6.7371361977,
			"0.013": 3.83831526084,
			"0.014": 1.48591517753,
			"0.015": 0.0406766928119,
			"0.016": 0.0,
			"0.017": 0.0,
			"0.018": 0.0,
			"0.019": 0.0,
			"0.02": 0.0,
			"0.021": 0.0,
			"0.022": 0.0,
			"0.023": 0.0,
			"0.024": 0.0,
			"0.025": 0.0
		}
	}
}
