{
	 "smiles": "OC(=O)COC1=CC=C(C=C1)C(O)=O", 
	 "Tm": 290.15, 
	 "num_atms": 22, 
	 "gaussian": { 
		 "optdone": 1, 
		 "sigma_profile": "yes", 
		 "theory": "DFT", 
		 "functional": "B3LYP", 
		 "basiset": "6-31G**", 
		 "properties": { 
			 "R2extent": 4414.2263, 
			 "electric_dipole_moment_norm": 1.87843450245, 
			 "electric_quadrupole_moment_norm": 43.0294042827, 
			 "total_energy": -723.901880781, 
			 "HOMO_LUMO_gap": 0.20302, 
			 "cosmo_polarized_energy": -24.11, 
			 "cosmo_cavitation_energy": 27.72, 
			 "cosmo_dispersion_energy": -20.41, 
			 "cosmo_repulsion_energy": 1.61, 
			 "cosmo_total_nonelectrostatic_energy": 8.92, 
			 "SMD_solvation_energy": 7.57 
		},
		"coords": [
			{
				"x": -2.7701543657,
				"y": 2.294474386,
				"z": 2.5005225768,
				"element": "O" 
			},
			{
				"x": -2.9975626931,
				"y": 0.9794811851,
				"z": 2.6419948997,
				"element": "C" 
			},
			{
				"x": -3.9237065507,
				"y": 0.5325036165,
				"z": 3.2690979731,
				"element": "O" 
			},
			{
				"x": -1.996847744,
				"y": 0.0512746007,
				"z": 1.9497413178,
				"element": "C" 
			},
			{
				"x": -1.0149776755,
				"y": 0.8396256835,
				"z": 1.2834350021,
				"element": "O" 
			},
			{
				"x": -0.0148996776,
				"y": 0.2251576856,
				"z": 0.57918413,
				"element": "C" 
			},
			{
				"x": 0.9063092491,
				"y": 1.0791423847,
				"z": -0.0457361172,
				"element": "C" 
			},
			{
				"x": 1.9530685133,
				"y": 0.545099242,
				"z": -0.7787712682,
				"element": "C" 
			},
			{
				"x": 2.0949329605,
				"y": -0.8455798943,
				"z": -0.9218816793,
				"element": "C" 
			},
			{
				"x": 1.1768193275,
				"y": -1.6840683285,
				"z": -0.2810784106,
				"element": "C" 
			},
			{
				"x": 0.1220730025,
				"y": -1.1620554627,
				"z": 0.4696823546,
				"element": "C" 
			},
			{
				"x": 3.2570453805,
				"y": -1.3472232308,
				"z": -1.7206438743,
				"element": "C" 
			},
			{
				"x": 3.1871060113,
				"y": -2.6287260241,
				"z": -2.1732753325,
				"element": "O" 
			},
			{
				"x": 4.2283383303,
				"y": -0.6723205026,
				"z": -1.9697922037,
				"element": "O" 
			},
			{
				"x": -1.9712519846,
				"y": 2.4106780177,
				"z": 1.9570108926,
				"element": "H" 
			},
			{
				"x": -1.5419749475,
				"y": -0.5921368333,
				"z": 2.7121825631,
				"element": "H" 
			},
			{
				"x": -2.5476232738,
				"y": -0.5807596327,
				"z": 1.2430950771,
				"element": "H" 
			},
			{
				"x": 0.7836121207,
				"y": 2.1518641579,
				"z": 0.060952955,
				"element": "H" 
			},
			{
				"x": 2.6825991476,
				"y": 1.1894590712,
				"z": -1.2569770594,
				"element": "H" 
			},
			{
				"x": 1.2871980305,
				"y": -2.7649780137,
				"z": -0.3207836935,
				"element": "H" 
			},
			{
				"x": -0.5666853384,
				"y": -1.8364281765,
				"z": 0.9635910273,
				"element": "H" 
			},
			{
				"x": 2.293182177,
				"y": -2.9783839315,
				"z": -2.0573511306,
				"element": "H" 
			}
		],
		 "valence_orbital": [ 
			{
				"type": "occ",
				"energy": -0.32118,
				"method": "rhf"
			},
			{
				"type": "occ",
				"energy": -0.28828,
				"method": "rhf"
			},
			{
				"type": "occ",
				"energy": -0.28799,
				"method": "rhf"
			},
			{
				"type": "occ",
				"energy": -0.28049,
				"method": "rhf"
			},
			{
				"type": "occ",
				"energy": -0.26002,
				"method": "rhf"
			},
			{
				"type": "unocc",
				"energy": -0.057,
				"method": "rhf"
			},
			{
				"type": "unocc",
				"energy": -0.03794,
				"method": "rhf"
			},
			{
				"type": "unocc",
				"energy": -0.00372,
				"method": "rhf"
			},
			{
				"type": "unocc",
				"energy": 0.04054,
				"method": "rhf"
			},
			{
				"type": "unocc",
				"energy": 0.04941,
				"method": "rhf"
			}
		],
		"cosmo_sigma_profile": { 
			"-0.025": 0.0,
			"-0.024": 0.0,
			"-0.023": 0.0,
			"-0.022": 0.0,
			"-0.021": 0.0,
			"-0.02": 0.0,
			"-0.019": 0.149522958111,
			"-0.018": 1.13269782379,
			"-0.017": 0.893136458076,
			"-0.016": 0.937384556445,
			"-0.015": 1.36501570819,
			"-0.014": 1.71401795306,
			"-0.013": 1.33448957866,
			"-0.012": 2.53195396217,
			"-0.011": 1.4291791234,
			"-0.01": 1.77593946152,
			"-0.009": 8.98256741668,
			"-0.008": 12.394662454,
			"-0.007": 12.7186273594,
			"-0.006": 11.5573915246,
			"-0.005": 9.33571991831,
			"-0.004": 9.20519592228,
			"-0.003": 10.0384553884,
			"-0.002": 8.41355166898,
			"-0.001": 9.65876815386,
			"0.0": 11.1491965544,
			"0.001": 13.2701539699,
			"0.002": 15.6365574681,
			"0.003": 12.8013183756,
			"0.004": 4.91266072499,
			"0.005": 3.65845058677,
			"0.006": 4.94832924856,
			"0.007": 5.32131572462,
			"0.008": 4.82092614272,
			"0.009": 8.18001810822,
			"0.01": 8.76653948005,
			"0.011": 9.9875422063,
			"0.012": 9.71311653398,
			"0.013": 2.88288427012,
			"0.014": 0.142060706595,
			"0.015": 0.0,
			"0.016": 0.0,
			"0.017": 0.0,
			"0.018": 0.0,
			"0.019": 0.0,
			"0.02": 0.0,
			"0.021": 0.0,
			"0.022": 0.0,
			"0.023": 0.0,
			"0.024": 0.0,
			"0.025": 0.0
		}
	}
}
