{
	 "smiles": "OC(=O)C1=CC=C(S1)C1CC1", 
	 "Tm": 385.15, 
	 "num_atms": 19, 
	 "gaussian": { 
		 "optdone": 1, 
		 "sigma_profile": "yes", 
		 "theory": "DFT", 
		 "functional": "B3LYP", 
		 "basiset": "6-31G**", 
		 "properties": { 
			 "R2extent": 3155.6098, 
			 "electric_dipole_moment_norm": 5.6685199885, 
			 "electric_quadrupole_moment_norm": 19.5019118937, 
			 "total_energy": -858.271980686, 
			 "HOMO_LUMO_gap": 0.18427, 
			 "cosmo_polarized_energy": -12.92, 
			 "cosmo_cavitation_energy": 24.89, 
			 "cosmo_dispersion_energy": -18.64, 
			 "cosmo_repulsion_energy": 1.46, 
			 "cosmo_total_nonelectrostatic_energy": 7.71, 
			 "SMD_solvation_energy": 4.77 
		},
		"coords": [
			{
				"x": -0.9605955543,
				"y": 4.3069040795,
				"z": -2.2496333266,
				"element": "O" 
			},
			{
				"x": -1.2053537692,
				"y": 3.0354339886,
				"z": -2.6690538536,
				"element": "C" 
			},
			{
				"x": -1.5325005132,
				"y": 2.829394784,
				"z": -3.815088884,
				"element": "O" 
			},
			{
				"x": -1.0524370834,
				"y": 1.946798147,
				"z": -1.6783923585,
				"element": "C" 
			},
			{
				"x": -1.4231430897,
				"y": 0.6421912572,
				"z": -1.8951238824,
				"element": "C" 
			},
			{
				"x": -1.1893607033,
				"y": -0.2022615368,
				"z": -0.7777975072,
				"element": "C" 
			},
			{
				"x": -0.6301406142,
				"y": 0.443639522,
				"z": 0.2998794772,
				"element": "C" 
			},
			{
				"x": -0.3755439259,
				"y": 2.1341293809,
				"z": -0.0734781316,
				"element": "S" 
			},
			{
				"x": -0.2413527123,
				"y": -0.0942825713,
				"z": 1.6255047365,
				"element": "C" 
			},
			{
				"x": 1.1866638799,
				"y": -0.540765026,
				"z": 1.8976330212,
				"element": "C" 
			},
			{
				"x": 0.0858212664,
				"y": -1.5604144535,
				"z": 1.7933828164,
				"element": "C" 
			},
			{
				"x": -0.8156406945,
				"y": 4.3439238519,
				"z": -1.2932362464,
				"element": "H" 
			},
			{
				"x": -1.8600704049,
				"y": 0.3259052826,
				"z": -2.8345378713,
				"element": "H" 
			},
			{
				"x": -1.4367307221,
				"y": -1.2572244144,
				"z": -0.7574284124,
				"element": "H" 
			},
			{
				"x": -0.7444205708,
				"y": 0.3769839719,
				"z": 2.4679612572,
				"element": "H" 
			},
			{
				"x": 1.8929351278,
				"y": -0.4753595426,
				"z": 1.0760330628,
				"element": "H" 
			},
			{
				"x": 1.6054682856,
				"y": -0.319455787,
				"z": 2.8743619294,
				"element": "H" 
			},
			{
				"x": 0.0683507489,
				"y": -2.191028876,
				"z": 0.9104715779,
				"element": "H" 
			},
			{
				"x": -0.2605489509,
				"y": -2.0500120582,
				"z": 2.6979425954,
				"element": "H" 
			}
		],
		 "valence_orbital": [ 
			{
				"type": "occ",
				"energy": -0.31431,
				"method": "rhf"
			},
			{
				"type": "occ",
				"energy": -0.31084,
				"method": "rhf"
			},
			{
				"type": "occ",
				"energy": -0.27274,
				"method": "rhf"
			},
			{
				"type": "occ",
				"energy": -0.26951,
				"method": "rhf"
			},
			{
				"type": "occ",
				"energy": -0.24261,
				"method": "rhf"
			},
			{
				"type": "unocc",
				"energy": -0.05834,
				"method": "rhf"
			},
			{
				"type": "unocc",
				"energy": -0.00346,
				"method": "rhf"
			},
			{
				"type": "unocc",
				"energy": 0.02671,
				"method": "rhf"
			},
			{
				"type": "unocc",
				"energy": 0.05953,
				"method": "rhf"
			},
			{
				"type": "unocc",
				"energy": 0.0883,
				"method": "rhf"
			}
		],
		"cosmo_sigma_profile": { 
			"-0.025": 0.0,
			"-0.024": 0.0,
			"-0.023": 0.0,
			"-0.022": 0.0,
			"-0.021": 0.0,
			"-0.02": 0.0,
			"-0.019": 0.0,
			"-0.018": 0.259982491328,
			"-0.017": 0.805792783789,
			"-0.016": 0.649940084254,
			"-0.015": 0.945122639287,
			"-0.014": 0.918129293423,
			"-0.013": 0.834094066439,
			"-0.012": 1.21377441337,
			"-0.011": 1.2498929403,
			"-0.01": 0.875356741882,
			"-0.009": 0.845140705687,
			"-0.008": 1.05460472317,
			"-0.007": 4.15842412698,
			"-0.006": 8.12826084134,
			"-0.005": 15.1769618124,
			"-0.004": 14.5837100459,
			"-0.003": 15.4540175165,
			"-0.002": 14.7298587417,
			"-0.001": 14.402866249,
			"0.0": 15.177349621,
			"0.001": 16.8543242923,
			"0.002": 18.7052853712,
			"0.003": 16.6126753967,
			"0.004": 6.29721747892,
			"0.005": 3.12041165448,
			"0.006": 2.23451976585,
			"0.007": 1.77137402523,
			"0.008": 3.28577713808,
			"0.009": 3.2959909757,
			"0.01": 4.37624968427,
			"0.011": 5.05137564279,
			"0.012": 5.52781824446,
			"0.013": 1.82267085122,
			"0.014": 0.122233700909,
			"0.015": 0.0,
			"0.016": 0.0,
			"0.017": 0.0,
			"0.018": 0.0,
			"0.019": 0.0,
			"0.02": 0.0,
			"0.021": 0.0,
			"0.022": 0.0,
			"0.023": 0.0,
			"0.024": 0.0,
			"0.025": 0.0
		}
	}
}
