{
	 "smiles": "NC(=NO)C1=C(N=CC=C1)N1CCCCC1", 
	 "Tm": 423.15, 
	 "num_atms": 32, 
	 "gaussian": { 
		 "optdone": 1, 
		 "sigma_profile": "yes", 
		 "theory": "DFT", 
		 "functional": "B3LYP", 
		 "basiset": "6-31G**", 
		 "properties": { 
			 "R2extent": 4741.5108, 
			 "electric_dipole_moment_norm": 2.2456503312, 
			 "electric_quadrupole_moment_norm": 8.05520407935, 
			 "total_energy": -722.994139953, 
			 "HOMO_LUMO_gap": 0.17006, 
			 "cosmo_polarized_energy": -13.52, 
			 "cosmo_cavitation_energy": 33.24, 
			 "cosmo_dispersion_energy": -24.06, 
			 "cosmo_repulsion_energy": 1.91, 
			 "cosmo_total_nonelectrostatic_energy": 11.1, 
			 "SMD_solvation_energy": 3.78 
		},
		"coords": [
			{
				"x": 0.5523510212,
				"y": -3.0702641567,
				"z": -2.7934701112,
				"element": "N" 
			},
			{
				"x": -0.5478150405,
				"y": -2.3297627872,
				"z": -2.4030585677,
				"element": "C" 
			},
			{
				"x": -1.6629478674,
				"y": -2.8467730837,
				"z": -2.0020339055,
				"element": "N" 
			},
			{
				"x": -1.5131709665,
				"y": -4.2687558947,
				"z": -1.9085210117,
				"element": "O" 
			},
			{
				"x": -0.4711394576,
				"y": -0.8552538468,
				"z": -2.5716780404,
				"element": "C" 
			},
			{
				"x": -0.8898943526,
				"y": 0.1048364021,
				"z": -1.5974984,
				"element": "C" 
			},
			{
				"x": -1.0608210271,
				"y": 1.3988543837,
				"z": -1.9432227657,
				"element": "N" 
			},
			{
				"x": -0.7238720405,
				"y": 1.808102595,
				"z": -3.1629163411,
				"element": "C" 
			},
			{
				"x": -0.1622906396,
				"y": 0.9794572386,
				"z": -4.1333037111,
				"element": "C" 
			},
			{
				"x": -0.0662116217,
				"y": -0.3734757429,
				"z": -3.8217338739,
				"element": "C" 
			},
			{
				"x": -1.1211401001,
				"y": -0.1868089604,
				"z": -0.2675427584,
				"element": "N" 
			},
			{
				"x": -2.0748742989,
				"y": 0.6079182927,
				"z": 0.5118113145,
				"element": "C" 
			},
			{
				"x": -1.4839344899,
				"y": 1.0598347035,
				"z": 1.8508249987,
				"element": "C" 
			},
			{
				"x": -0.9528065061,
				"y": -0.1440502673,
				"z": 2.6389522156,
				"element": "C" 
			},
			{
				"x": 0.0363894168,
				"y": -0.9390634201,
				"z": 1.7785264797,
				"element": "C" 
			},
			{
				"x": -0.5718475384,
				"y": -1.3461848102,
				"z": 0.4253536807,
				"element": "C" 
			},
			{
				"x": 1.4540035535,
				"y": -2.6323914983,
				"z": -2.6808690334,
				"element": "H" 
			},
			{
				"x": 0.5046287564,
				"y": -4.0516620562,
				"z": -2.5567996178,
				"element": "H" 
			},
			{
				"x": -2.3990931587,
				"y": -4.5398630644,
				"z": -1.6413070786,
				"element": "H" 
			},
			{
				"x": -0.9030710471,
				"y": 2.8622117664,
				"z": -3.3736089273,
				"element": "H" 
			},
			{
				"x": 0.1306239833,
				"y": 1.3653925524,
				"z": -5.1033311129,
				"element": "H" 
			},
			{
				"x": 0.2698732529,
				"y": -1.0895789284,
				"z": -4.5662867359,
				"element": "H" 
			},
			{
				"x": -2.3709023404,
				"y": 1.4622909722,
				"z": -0.0937618219,
				"element": "H" 
			},
			{
				"x": -2.9690373171,
				"y": -0.0103273167,
				"z": 0.7017346703,
				"element": "H" 
			},
			{
				"x": -0.6694467682,
				"y": 1.7698284815,
				"z": 1.6592182203,
				"element": "H" 
			},
			{
				"x": -2.2530784055,
				"y": 1.5923101786,
				"z": 2.4231618385,
				"element": "H" 
			},
			{
				"x": -0.4764672652,
				"y": 0.1782529715,
				"z": 3.5721073751,
				"element": "H" 
			},
			{
				"x": -1.7943822929,
				"y": -0.7928530848,
				"z": 2.9216225507,
				"element": "H" 
			},
			{
				"x": 0.3670414927,
				"y": -1.8451259451,
				"z": 2.3008738576,
				"element": "H" 
			},
			{
				"x": 0.9294168738,
				"y": -0.3278014489,
				"z": 1.5936163931,
				"element": "H" 
			},
			{
				"x": -1.3471695301,
				"y": -2.1140208279,
				"z": 0.5673900341,
				"element": "H" 
			},
			{
				"x": 0.2059857216,
				"y": -1.7975733973,
				"z": -0.1910498145,
				"element": "H" 
			}
		],
		 "valence_orbital": [ 
			{
				"type": "occ",
				"energy": -0.26979,
				"method": "rhf"
			},
			{
				"type": "occ",
				"energy": -0.26782,
				"method": "rhf"
			},
			{
				"type": "occ",
				"energy": -0.24685,
				"method": "rhf"
			},
			{
				"type": "occ",
				"energy": -0.21252,
				"method": "rhf"
			},
			{
				"type": "occ",
				"energy": -0.18939,
				"method": "rhf"
			},
			{
				"type": "unocc",
				"energy": -0.01933,
				"method": "rhf"
			},
			{
				"type": "unocc",
				"energy": 0.0034,
				"method": "rhf"
			},
			{
				"type": "unocc",
				"energy": 0.04714,
				"method": "rhf"
			},
			{
				"type": "unocc",
				"energy": 0.07387,
				"method": "rhf"
			},
			{
				"type": "unocc",
				"energy": 0.09492,
				"method": "rhf"
			}
		],
		"cosmo_sigma_profile": { 
			"-0.025": 0.0,
			"-0.024": 0.0,
			"-0.023": 0.0,
			"-0.022": 0.0,
			"-0.021": 0.0,
			"-0.02": 0.0,
			"-0.019": 0.0,
			"-0.018": 0.0,
			"-0.017": 0.0905344380226,
			"-0.016": 1.07351113216,
			"-0.015": 0.640472127044,
			"-0.014": 1.00892043807,
			"-0.013": 1.58930107835,
			"-0.012": 2.37159853882,
			"-0.011": 2.26679148139,
			"-0.01": 2.74502426676,
			"-0.009": 2.60211219222,
			"-0.008": 3.34168341984,
			"-0.007": 2.05273482991,
			"-0.006": 7.60651557459,
			"-0.005": 9.01576241745,
			"-0.004": 9.76567071825,
			"-0.003": 21.131832166,
			"-0.002": 34.1251063246,
			"-0.001": 32.2646929496,
			"0.0": 24.5909996997,
			"0.001": 18.202820539,
			"0.002": 11.2572948113,
			"0.003": 14.3276934575,
			"0.004": 12.9573847718,
			"0.005": 8.38294709887,
			"0.006": 6.58934475772,
			"0.007": 6.60558847169,
			"0.008": 6.12460731614,
			"0.009": 4.98536005012,
			"0.01": 4.60571799359,
			"0.011": 2.7164779734,
			"0.012": 1.51543734107,
			"0.013": 2.06147279539,
			"0.014": 1.01691525023,
			"0.015": 0.614032628156,
			"0.016": 0.161235648124,
			"0.017": 0.0,
			"0.018": 0.0,
			"0.019": 0.0,
			"0.02": 0.0,
			"0.021": 0.0,
			"0.022": 0.0,
			"0.023": 0.0,
			"0.024": 0.0,
			"0.025": 0.0
		}
	}
}
