{
	 "smiles": "CC(C)(C)OC(=O)CC(NC(=O)OCC1C2=C(C=CC=C2)C2=C1C=CC=C2)C(O)=O", 
	 "Tm": 422.15, 
	 "num_atms": 55, 
	 "gaussian": { 
		 "optdone": 1, 
		 "sigma_profile": "yes", 
		 "theory": "DFT", 
		 "functional": "B3LYP", 
		 "basiset": "6-31G**", 
		 "properties": { 
			 "R2extent": 12728.1754, 
			 "electric_dipole_moment_norm": 4.04348254602, 
			 "electric_quadrupole_moment_norm": 12.6125648732, 
			 "total_energy": -1397.69279937, 
			 "HOMO_LUMO_gap": 0.18408, 
			 "cosmo_polarized_energy": -21.53, 
			 "cosmo_cavitation_energy": 57.82, 
			 "cosmo_dispersion_energy": -34.85, 
			 "cosmo_repulsion_energy": 2.61, 
			 "cosmo_total_nonelectrostatic_energy": 25.58, 
			 "SMD_solvation_energy": 10.65 
		},
		"coords": [
			{
				"x": 2.0163107716,
				"y": -1.3076079308,
				"z": -2.660228383,
				"element": "C" 
			},
			{
				"x": 1.5105156633,
				"y": -1.9727217177,
				"z": -1.3771737914,
				"element": "C" 
			},
			{
				"x": 1.870975723,
				"y": -1.1390961014,
				"z": -0.1455167591,
				"element": "C" 
			},
			{
				"x": 2.0060775424,
				"y": -3.4140179374,
				"z": -1.2277442996,
				"element": "C" 
			},
			{
				"x": 0.027830279,
				"y": -1.9588980738,
				"z": -1.3544765541,
				"element": "O" 
			},
			{
				"x": -0.7100791514,
				"y": -2.6202107544,
				"z": -2.2735182249,
				"element": "C" 
			},
			{
				"x": -0.2713894617,
				"y": -3.2144760456,
				"z": -3.2333760747,
				"element": "O" 
			},
			{
				"x": -2.200729278,
				"y": -2.5433805908,
				"z": -1.9641504437,
				"element": "C" 
			},
			{
				"x": -2.6160704943,
				"y": -1.7713004805,
				"z": -0.7052556518,
				"element": "C" 
			},
			{
				"x": -2.2798238906,
				"y": -0.3634580981,
				"z": -0.7716782218,
				"element": "N" 
			},
			{
				"x": -3.0688299296,
				"y": 0.5451173493,
				"z": -0.1169717774,
				"element": "C" 
			},
			{
				"x": -4.2134911995,
				"y": 0.350446781,
				"z": 0.2510369396,
				"element": "O" 
			},
			{
				"x": -2.387460761,
				"y": 1.7157526562,
				"z": 0.0220419478,
				"element": "O" 
			},
			{
				"x": -3.0291943835,
				"y": 2.7492899296,
				"z": 0.7819881473,
				"element": "C" 
			},
			{
				"x": -2.319229425,
				"y": 2.960215893,
				"z": 2.1275399519,
				"element": "C" 
			},
			{
				"x": -2.2654257852,
				"y": 1.7350477033,
				"z": 3.0314828203,
				"element": "C" 
			},
			{
				"x": -0.933915831,
				"y": 1.470212196,
				"z": 3.4124442379,
				"element": "C" 
			},
			{
				"x": -0.6397031701,
				"y": 0.4060034206,
				"z": 4.2678175288,
				"element": "C" 
			},
			{
				"x": -1.6875787957,
				"y": -0.3926396461,
				"z": 4.735246154,
				"element": "C" 
			},
			{
				"x": -3.0078270888,
				"y": -0.1346399785,
				"z": 4.3473154794,
				"element": "C" 
			},
			{
				"x": -3.3037613024,
				"y": 0.9331144562,
				"z": 3.4916599392,
				"element": "C" 
			},
			{
				"x": -0.0562315129,
				"y": 2.4637117857,
				"z": 2.779017982,
				"element": "C" 
			},
			{
				"x": -0.8503857825,
				"y": 3.3438985809,
				"z": 2.0168623835,
				"element": "C" 
			},
			{
				"x": -0.2655786762,
				"y": 4.3906104124,
				"z": 1.3135355076,
				"element": "C" 
			},
			{
				"x": 1.1235013928,
				"y": 4.5553030655,
				"z": 1.3695343097,
				"element": "C" 
			},
			{
				"x": 1.9125281736,
				"y": 3.6817004864,
				"z": 2.1255431831,
				"element": "C" 
			},
			{
				"x": 1.3291805885,
				"y": 2.6306613583,
				"z": 2.8371438344,
				"element": "C" 
			},
			{
				"x": -2.098467943,
				"y": -2.4758807226,
				"z": 0.5581266318,
				"element": "C" 
			},
			{
				"x": -1.6696943227,
				"y": -1.6077381686,
				"z": 1.4919274256,
				"element": "O" 
			},
			{
				"x": -2.1169219598,
				"y": -3.6777736358,
				"z": 0.7117912462,
				"element": "O" 
			},
			{
				"x": 1.5937331399,
				"y": -0.3030314797,
				"z": -2.7625997514,
				"element": "H" 
			},
			{
				"x": 3.1059643836,
				"y": -1.2118387634,
				"z": -2.6134693182,
				"element": "H" 
			},
			{
				"x": 1.7517867664,
				"y": -1.8948056546,
				"z": -3.5396748855,
				"element": "H" 
			},
			{
				"x": 1.4251963714,
				"y": -1.5691626992,
				"z": 0.7554697326,
				"element": "H" 
			},
			{
				"x": 2.957351174,
				"y": -1.1114690744,
				"z": -0.0193616813,
				"element": "H" 
			},
			{
				"x": 1.5130541324,
				"y": -0.1099486966,
				"z": -0.2464157228,
				"element": "H" 
			},
			{
				"x": 3.0954360759,
				"y": -3.4143149895,
				"z": -1.1199255947,
				"element": "H" 
			},
			{
				"x": 1.7407481159,
				"y": -4.0152039156,
				"z": -2.0977563789,
				"element": "H" 
			},
			{
				"x": 1.5741047502,
				"y": -3.8740559166,
				"z": -0.3337078768,
				"element": "H" 
			},
			{
				"x": -2.6915399279,
				"y": -2.1102674809,
				"z": -2.84078768,
				"element": "H" 
			},
			{
				"x": -2.5476216146,
				"y": -3.576876942,
				"z": -1.8775287023,
				"element": "H" 
			},
			{
				"x": -3.7079136642,
				"y": -1.8175716397,
				"z": -0.6266858186,
				"element": "H" 
			},
			{
				"x": -1.2928000836,
				"y": -0.1462726944,
				"z": -0.8013495721,
				"element": "H" 
			},
			{
				"x": -4.0787854666,
				"y": 2.4860972557,
				"z": 0.9279336486,
				"element": "H" 
			},
			{
				"x": -2.9701690969,
				"y": 3.6609659948,
				"z": 0.179531465,
				"element": "H" 
			},
			{
				"x": -2.8738351446,
				"y": 3.7668997905,
				"z": 2.632758789,
				"element": "H" 
			},
			{
				"x": 0.3832384844,
				"y": 0.2039873177,
				"z": 4.5741151187,
				"element": "H" 
			},
			{
				"x": -1.4769165335,
				"y": -1.215315854,
				"z": 5.4137423794,
				"element": "H" 
			},
			{
				"x": -3.8110301716,
				"y": -0.766470252,
				"z": 4.7152528864,
				"element": "H" 
			},
			{
				"x": -4.3286409347,
				"y": 1.114580564,
				"z": 3.1823804346,
				"element": "H" 
			},
			{
				"x": -0.8707121668,
				"y": 5.0759964383,
				"z": 0.725170108,
				"element": "H" 
			},
			{
				"x": 1.5921102042,
				"y": 5.3685958163,
				"z": 0.8229807432,
				"element": "H" 
			},
			{
				"x": 2.988928619,
				"y": 3.8239612691,
				"z": 2.1611360454,
				"element": "H" 
			},
			{
				"x": 1.9472532177,
				"y": 1.9578113715,
				"z": 3.4253906577,
				"element": "H" 
			},
			{
				"x": -1.4537706193,
				"y": -2.1124359576,
				"z": 2.2933355049,
				"element": "H" 
			}
		],
		 "valence_orbital": [ 
			{
				"type": "occ",
				"energy": -0.26762,
				"method": "rhf"
			},
			{
				"type": "occ",
				"energy": -0.25352,
				"method": "rhf"
			},
			{
				"type": "occ",
				"energy": -0.25066,
				"method": "rhf"
			},
			{
				"type": "occ",
				"energy": -0.24663,
				"method": "rhf"
			},
			{
				"type": "occ",
				"energy": -0.21848,
				"method": "rhf"
			},
			{
				"type": "unocc",
				"energy": -0.0344,
				"method": "rhf"
			},
			{
				"type": "unocc",
				"energy": -0.01684,
				"method": "rhf"
			},
			{
				"type": "unocc",
				"energy": 0.00406,
				"method": "rhf"
			},
			{
				"type": "unocc",
				"energy": 0.00481,
				"method": "rhf"
			},
			{
				"type": "unocc",
				"energy": 0.01115,
				"method": "rhf"
			}
		],
		"cosmo_sigma_profile": { 
			"-0.025": 0.0,
			"-0.024": 0.0,
			"-0.023": 0.0,
			"-0.022": 0.0,
			"-0.021": 0.0,
			"-0.02": 0.0,
			"-0.019": 0.0,
			"-0.018": 0.0,
			"-0.017": 0.0,
			"-0.016": 0.325286108317,
			"-0.015": 0.303289881338,
			"-0.014": 0.702850066736,
			"-0.013": 0.783090389558,
			"-0.012": 0.689229298714,
			"-0.011": 0.405814772553,
			"-0.01": 0.565360969372,
			"-0.009": 1.26877726864,
			"-0.008": 3.57232631353,
			"-0.007": 7.29062270823,
			"-0.006": 25.0810699597,
			"-0.005": 37.0246634186,
			"-0.004": 43.6552448298,
			"-0.003": 40.6976005098,
			"-0.002": 35.6171594671,
			"-0.001": 36.4210480007,
			"0.0": 39.7540390109,
			"0.001": 28.8567645843,
			"0.002": 21.2445871009,
			"0.003": 22.904130298,
			"0.004": 23.9623779417,
			"0.005": 22.8563453559,
			"0.006": 19.3712315764,
			"0.007": 8.73714788528,
			"0.008": 4.95329523095,
			"0.009": 4.63577465612,
			"0.01": 5.74332226067,
			"0.011": 8.01378556519,
			"0.012": 8.77088793413,
			"0.013": 2.20254128786,
			"0.014": 0.0,
			"0.015": 0.0,
			"0.016": 0.0,
			"0.017": 0.0,
			"0.018": 0.0,
			"0.019": 0.0,
			"0.02": 0.0,
			"0.021": 0.0,
			"0.022": 0.0,
			"0.023": 0.0,
			"0.024": 0.0,
			"0.025": 0.0
		}
	}
}
