{
	 "smiles": "COC1=CC=C(C=C1)C1C(CO)CC(=O)N1C", 
	 "Tm": 356.15, 
	 "num_atms": 34, 
	 "gaussian": { 
		 "optdone": 1, 
		 "sigma_profile": "yes", 
		 "theory": "DFT", 
		 "functional": "B3LYP", 
		 "basiset": "6-31G**", 
		 "properties": { 
			 "R2extent": 5483.3727, 
			 "electric_dipole_moment_norm": 5.65549823181, 
			 "electric_quadrupole_moment_norm": 11.3408023728, 
			 "total_energy": -786.048170868, 
			 "HOMO_LUMO_gap": 0.20926, 
			 "cosmo_polarized_energy": -16.78, 
			 "cosmo_cavitation_energy": 35.78, 
			 "cosmo_dispersion_energy": -25.26, 
			 "cosmo_repulsion_energy": 1.98, 
			 "cosmo_total_nonelectrostatic_energy": 12.51, 
			 "SMD_solvation_energy": 7.55 
		},
		"coords": [
			{
				"x": 1.4215250556,
				"y": 1.9505003374,
				"z": -4.9622374787,
				"element": "C" 
			},
			{
				"x": 2.0843628979,
				"y": 1.870186971,
				"z": -3.7102926859,
				"element": "O" 
			},
			{
				"x": 1.3670901406,
				"y": 1.4595262062,
				"z": -2.6250975068,
				"element": "C" 
			},
			{
				"x": 0.0130401985,
				"y": 1.1076237891,
				"z": -2.6487341871,
				"element": "C" 
			},
			{
				"x": -0.6108727435,
				"y": 0.693188153,
				"z": -1.4683358207,
				"element": "C" 
			},
			{
				"x": 0.0764145883,
				"y": 0.6314314142,
				"z": -0.2544147731,
				"element": "C" 
			},
			{
				"x": 1.4368236896,
				"y": 0.984488529,
				"z": -0.2519799605,
				"element": "C" 
			},
			{
				"x": 2.0761549921,
				"y": 1.3904263496,
				"z": -1.4156715515,
				"element": "C" 
			},
			{
				"x": -0.6558879964,
				"y": 0.2170296211,
				"z": 1.0099355518,
				"element": "C" 
			},
			{
				"x": -1.2043530858,
				"y": 1.382196442,
				"z": 1.9053786637,
				"element": "C" 
			},
			{
				"x": -0.3870694833,
				"y": 2.6738049429,
				"z": 1.8369844101,
				"element": "C" 
			},
			{
				"x": -1.0200341876,
				"y": 3.6061210893,
				"z": 2.7079339111,
				"element": "O" 
			},
			{
				"x": -1.1790671145,
				"y": 0.7829826559,
				"z": 3.3219128792,
				"element": "C" 
			},
			{
				"x": -0.1495522224,
				"y": -0.3385348335,
				"z": 3.2674195634,
				"element": "C" 
			},
			{
				"x": 0.2989638242,
				"y": -0.9702002,
				"z": 4.2110596981,
				"element": "O" 
			},
			{
				"x": 0.1679105497,
				"y": -0.5564663726,
				"z": 1.9415191717,
				"element": "N" 
			},
			{
				"x": 0.8429030815,
				"y": -1.7762965838,
				"z": 1.5377858459,
				"element": "C" 
			},
			{
				"x": 0.5911330857,
				"y": 2.6679820167,
				"z": -4.9361573123,
				"element": "H" 
			},
			{
				"x": 2.1696037704,
				"y": 2.2943962917,
				"z": -5.6780762831,
				"element": "H" 
			},
			{
				"x": 1.0395274456,
				"y": 0.9724102881,
				"z": -5.282138799,
				"element": "H" 
			},
			{
				"x": -0.5581706884,
				"y": 1.1412047926,
				"z": -3.5688391393,
				"element": "H" 
			},
			{
				"x": -1.6608828915,
				"y": 0.4112631174,
				"z": -1.5028037221,
				"element": "H" 
			},
			{
				"x": 1.9997911353,
				"y": 0.9299535801,
				"z": 0.6752898874,
				"element": "H" 
			},
			{
				"x": 3.1280925177,
				"y": 1.657135113,
				"z": -1.4170842388,
				"element": "H" 
			},
			{
				"x": -1.5175645188,
				"y": -0.3967662565,
				"z": 0.6966024276,
				"element": "H" 
			},
			{
				"x": -2.2217768184,
				"y": 1.632622058,
				"z": 1.5902568154,
				"element": "H" 
			},
			{
				"x": -0.3602534347,
				"y": 3.0486406387,
				"z": 0.8049841675,
				"element": "H" 
			},
			{
				"x": 0.6520935669,
				"y": 2.4818839873,
				"z": 2.1478785545,
				"element": "H" 
			},
			{
				"x": -0.4877574014,
				"y": 4.4106665808,
				"z": 2.722277493,
				"element": "H" 
			},
			{
				"x": -0.938002824,
				"y": 1.5165971681,
				"z": 4.0934348223,
				"element": "H" 
			},
			{
				"x": -2.139840406,
				"y": 0.3310420327,
				"z": 3.5959850901,
				"element": "H" 
			},
			{
				"x": 1.2783535455,
				"y": -2.217520759,
				"z": 2.4356656336,
				"element": "H" 
			},
			{
				"x": 1.6294866354,
				"y": -1.5724115718,
				"z": 0.8065754991,
				"element": "H" 
			},
			{
				"x": 0.135615096,
				"y": -2.4910075888,
				"z": 1.0936833733,
				"element": "H" 
			}
		],
		 "valence_orbital": [ 
			{
				"type": "occ",
				"energy": -0.27026,
				"method": "rhf"
			},
			{
				"type": "occ",
				"energy": -0.25875,
				"method": "rhf"
			},
			{
				"type": "occ",
				"energy": -0.23995,
				"method": "rhf"
			},
			{
				"type": "occ",
				"energy": -0.23491,
				"method": "rhf"
			},
			{
				"type": "occ",
				"energy": -0.22036,
				"method": "rhf"
			},
			{
				"type": "unocc",
				"energy": -0.0111,
				"method": "rhf"
			},
			{
				"type": "unocc",
				"energy": 0.00066,
				"method": "rhf"
			},
			{
				"type": "unocc",
				"energy": 0.03461,
				"method": "rhf"
			},
			{
				"type": "unocc",
				"energy": 0.07432,
				"method": "rhf"
			},
			{
				"type": "unocc",
				"energy": 0.08061,
				"method": "rhf"
			}
		],
		"cosmo_sigma_profile": { 
			"-0.025": 0.0,
			"-0.024": 0.0,
			"-0.023": 0.0,
			"-0.022": 0.0,
			"-0.021": 0.0,
			"-0.02": 0.0,
			"-0.019": 0.0,
			"-0.018": 0.0,
			"-0.017": 0.0,
			"-0.016": 0.54060693833,
			"-0.015": 1.03509228663,
			"-0.014": 1.04120092661,
			"-0.013": 1.03723113571,
			"-0.012": 0.687412794696,
			"-0.011": 0.780745268681,
			"-0.01": 0.761011961288,
			"-0.009": 0.347427062027,
			"-0.008": 1.05814137187,
			"-0.007": 1.1042100217,
			"-0.006": 10.2482205954,
			"-0.005": 26.0553822626,
			"-0.004": 36.4263958425,
			"-0.003": 35.0694834889,
			"-0.002": 26.2421572652,
			"-0.001": 21.2580370285,
			"0.0": 13.8587699669,
			"0.001": 12.123851947,
			"0.002": 12.0433557555,
			"0.003": 11.6895764422,
			"0.004": 14.3026519488,
			"0.005": 11.3979095833,
			"0.006": 6.19889327815,
			"0.007": 3.41092006697,
			"0.008": 4.15606307343,
			"0.009": 4.58693028888,
			"0.01": 4.02423245786,
			"0.011": 3.295778411,
			"0.012": 2.53722116439,
			"0.013": 4.84067710962,
			"0.014": 6.83612438269,
			"0.015": 1.61174819989,
			"0.016": 0.0808447547731,
			"0.017": 0.0,
			"0.018": 0.0,
			"0.019": 0.0,
			"0.02": 0.0,
			"0.021": 0.0,
			"0.022": 0.0,
			"0.023": 0.0,
			"0.024": 0.0,
			"0.025": 0.0
		}
	}
}
