{
	 "smiles": "OC1=CC2=C(C=C1)C(=O)C(=CO2)C1=CC(O)=C(O)C=C1", 
	 "Tm": 554.15, 
	 "num_atms": 30, 
	 "gaussian": { 
		 "optdone": 1, 
		 "sigma_profile": "yes", 
		 "theory": "DFT", 
		 "functional": "B3LYP", 
		 "basiset": "6-31G**", 
		 "properties": { 
			 "R2extent": 8005.0761, 
			 "electric_dipole_moment_norm": 3.59227794164, 
			 "electric_quadrupole_moment_norm": 14.1140009661, 
			 "total_energy": -953.728893828, 
			 "HOMO_LUMO_gap": 0.14651, 
			 "cosmo_polarized_energy": -20.48, 
			 "cosmo_cavitation_energy": 35.1, 
			 "cosmo_dispersion_energy": -26.3, 
			 "cosmo_repulsion_energy": 1.96, 
			 "cosmo_total_nonelectrostatic_energy": 10.77, 
			 "SMD_solvation_energy": 7.82 
		},
		"coords": [
			{
				"x": 4.132132482,
				"y": -0.4787120976,
				"z": 4.8541142739,
				"element": "O" 
			},
			{
				"x": 3.484101879,
				"y": -0.3261987495,
				"z": 3.6683499343,
				"element": "C" 
			},
			{
				"x": 2.3392012882,
				"y": 0.466612074,
				"z": 3.6639142561,
				"element": "C" 
			},
			{
				"x": 1.6572395389,
				"y": 0.6408748343,
				"z": 2.4600497891,
				"element": "C" 
			},
			{
				"x": 2.0807700878,
				"y": 0.0455383638,
				"z": 1.2627068018,
				"element": "C" 
			},
			{
				"x": 3.2385137103,
				"y": -0.7512289301,
				"z": 1.3015931223,
				"element": "C" 
			},
			{
				"x": 3.9367607766,
				"y": -0.9383005381,
				"z": 2.4804791468,
				"element": "C" 
			},
			{
				"x": 1.3369790066,
				"y": 0.2466763766,
				"z": 0.0053637329,
				"element": "C" 
			},
			{
				"x": 1.6718158873,
				"y": -0.3123426992,
				"z": -1.0415780025,
				"element": "O" 
			},
			{
				"x": 0.1752368765,
				"y": 1.1589770547,
				"z": 0.1182206701,
				"element": "C" 
			},
			{
				"x": -0.1489754986,
				"y": 1.6381134364,
				"z": 1.3470604,
				"element": "C" 
			},
			{
				"x": 0.5340144159,
				"y": 1.4199373731,
				"z": 2.4967539756,
				"element": "O" 
			},
			{
				"x": -0.6334188504,
				"y": 1.5482694881,
				"z": -1.0600416155,
				"element": "C" 
			},
			{
				"x": -0.8651295323,
				"y": 0.6405528689,
				"z": -2.1117399399,
				"element": "C" 
			},
			{
				"x": -1.653854098,
				"y": 1.0062352648,
				"z": -3.1920786575,
				"element": "C" 
			},
			{
				"x": -1.9308446321,
				"y": 0.1826466769,
				"z": -4.2608213684,
				"element": "O" 
			},
			{
				"x": -2.2415978145,
				"y": 2.2814607955,
				"z": -3.2621246722,
				"element": "C" 
			},
			{
				"x": -3.0127103623,
				"y": 2.6300158799,
				"z": -4.3283785308,
				"element": "O" 
			},
			{
				"x": -2.0073306329,
				"y": 3.18878844,
				"z": -2.2325748877,
				"element": "C" 
			},
			{
				"x": -1.2062495929,
				"y": 2.8276055053,
				"z": -1.1493196826,
				"element": "C" 
			},
			{
				"x": 4.9040313243,
				"y": -1.0457931033,
				"z": 4.7271414435,
				"element": "H" 
			},
			{
				"x": 1.9863643352,
				"y": 0.9366327692,
				"z": 4.573951153,
				"element": "H" 
			},
			{
				"x": 3.561290033,
				"y": -1.2106092867,
				"z": 0.3733557627,
				"element": "H" 
			},
			{
				"x": 4.8324783576,
				"y": -1.5549529193,
				"z": 2.4990062319,
				"element": "H" 
			},
			{
				"x": -1.0181781786,
				"y": 2.2565339741,
				"z": 1.5360469333,
				"element": "H" 
			},
			{
				"x": -0.4028385584,
				"y": -0.3394866358,
				"z": -2.083353404,
				"element": "H" 
			},
			{
				"x": -1.4215918756,
				"y": -0.6332921427,
				"z": -4.1797038085,
				"element": "H" 
			},
			{
				"x": -3.0228715505,
				"y": 1.8747787895,
				"z": -4.9357902253,
				"element": "H" 
			},
			{
				"x": -2.4419158167,
				"y": 4.1803465218,
				"z": -2.3042803688,
				"element": "H" 
			},
			{
				"x": -1.0018230055,
				"y": 3.5653206154,
				"z": -0.3796224633,
				"element": "H" 
			}
		],
		 "valence_orbital": [ 
			{
				"type": "occ",
				"energy": -0.25065,
				"method": "rhf"
			},
			{
				"type": "occ",
				"energy": -0.24446,
				"method": "rhf"
			},
			{
				"type": "occ",
				"energy": -0.23926,
				"method": "rhf"
			},
			{
				"type": "occ",
				"energy": -0.23011,
				"method": "rhf"
			},
			{
				"type": "occ",
				"energy": -0.19906,
				"method": "rhf"
			},
			{
				"type": "unocc",
				"energy": -0.05255,
				"method": "rhf"
			},
			{
				"type": "unocc",
				"energy": -0.02479,
				"method": "rhf"
			},
			{
				"type": "unocc",
				"energy": -0.00439,
				"method": "rhf"
			},
			{
				"type": "unocc",
				"energy": 0.00961,
				"method": "rhf"
			},
			{
				"type": "unocc",
				"energy": 0.02934,
				"method": "rhf"
			}
		],
		"cosmo_sigma_profile": { 
			"-0.025": 0.0,
			"-0.024": 0.0,
			"-0.023": 0.0,
			"-0.022": 0.0,
			"-0.021": 0.0,
			"-0.02": 0.0,
			"-0.019": 0.493331112393,
			"-0.018": 1.87404084692,
			"-0.017": 1.86269190894,
			"-0.016": 2.73429680681,
			"-0.015": 1.99877522225,
			"-0.014": 2.02389749061,
			"-0.013": 2.86999140527,
			"-0.012": 2.06852368558,
			"-0.011": 3.11271396481,
			"-0.01": 2.70504290061,
			"-0.009": 4.21388973288,
			"-0.008": 5.31990148896,
			"-0.007": 7.39124696731,
			"-0.006": 10.5786788775,
			"-0.005": 11.0637306771,
			"-0.004": 11.4863736129,
			"-0.003": 12.4074863665,
			"-0.002": 15.0749914289,
			"-0.001": 16.5038174198,
			"0.0": 17.7513200682,
			"0.001": 22.2689943045,
			"0.002": 28.8381100238,
			"0.003": 20.8437963707,
			"0.004": 17.1127176471,
			"0.005": 15.3431552119,
			"0.006": 10.5979957184,
			"0.007": 5.96395308649,
			"0.008": 5.01864450497,
			"0.009": 4.37575419575,
			"0.01": 5.54208898266,
			"0.011": 4.75255042057,
			"0.012": 3.18508089988,
			"0.013": 3.90970831354,
			"0.014": 0.492579147506,
			"0.015": 0.0,
			"0.016": 0.0,
			"0.017": 0.0,
			"0.018": 0.0,
			"0.019": 0.0,
			"0.02": 0.0,
			"0.021": 0.0,
			"0.022": 0.0,
			"0.023": 0.0,
			"0.024": 0.0,
			"0.025": 0.0
		}
	}
}
