{
	 "smiles": "CCCCCC1=CC=C(C=C1)C1=CC=C(C=C1)C1=CC=C(C=C1)C#N", 
	 "Tm": 402.15, 
	 "num_atms": 48, 
	 "gaussian": { 
		 "optdone": 1, 
		 "sigma_profile": "yes", 
		 "theory": "DFT", 
		 "functional": "B3LYP", 
		 "basiset": "6-31G**", 
		 "properties": { 
			 "R2extent": 19123.8585, 
			 "electric_dipole_moment_norm": 6.14480595381, 
			 "electric_quadrupole_moment_norm": 48.2683657343, 
			 "total_energy": -983.191726693, 
			 "HOMO_LUMO_gap": 0.157, 
			 "cosmo_polarized_energy": -11.99, 
			 "cosmo_cavitation_energy": 52.16, 
			 "cosmo_dispersion_energy": -35.88, 
			 "cosmo_repulsion_energy": 2.72, 
			 "cosmo_total_nonelectrostatic_energy": 19.0, 
			 "SMD_solvation_energy": 9.12 
		},
		"coords": [
			{
				"x": -0.9937685113,
				"y": 2.9692156441,
				"z": -6.3581080716,
				"element": "C" 
			},
			{
				"x": -1.7718624805,
				"y": 1.6984062217,
				"z": -6.7209655076,
				"element": "C" 
			},
			{
				"x": -2.2606844901,
				"y": 0.883336824,
				"z": -5.5118248694,
				"element": "C" 
			},
			{
				"x": -3.3267475327,
				"y": 1.5877974557,
				"z": -4.6624068795,
				"element": "C" 
			},
			{
				"x": -3.8576420872,
				"y": 0.7357924713,
				"z": -3.4873869617,
				"element": "C" 
			},
			{
				"x": -2.8275382976,
				"y": 0.448124373,
				"z": -2.4152114178,
				"element": "C" 
			},
			{
				"x": -2.2154787396,
				"y": -0.8066622571,
				"z": -2.3010797965,
				"element": "C" 
			},
			{
				"x": -1.2565076331,
				"y": -1.0586041259,
				"z": -1.3213901977,
				"element": "C" 
			},
			{
				"x": -0.8709082726,
				"y": -0.0605836961,
				"z": -0.4121057285,
				"element": "C" 
			},
			{
				"x": -1.486824274,
				"y": 1.1983538079,
				"z": -0.5244087137,
				"element": "C" 
			},
			{
				"x": -2.444153833,
				"y": 1.4438761732,
				"z": -1.5043944855,
				"element": "C" 
			},
			{
				"x": 0.1468792242,
				"y": -0.3255969735,
				"z": 0.633696784,
				"element": "C" 
			},
			{
				"x": 0.2203094601,
				"y": -1.5712947217,
				"z": 1.2806981144,
				"element": "C" 
			},
			{
				"x": 1.1747229248,
				"y": -1.820045606,
				"z": 2.2615361778,
				"element": "C" 
			},
			{
				"x": 2.1010203616,
				"y": -0.8336013241,
				"z": 2.6406471133,
				"element": "C" 
			},
			{
				"x": 2.0291878017,
				"y": 0.4123457565,
				"z": 1.9946801938,
				"element": "C" 
			},
			{
				"x": 1.0738948519,
				"y": 0.6600366828,
				"z": 1.0144168759,
				"element": "C" 
			},
			{
				"x": 3.1182517314,
				"y": -1.0979921804,
				"z": 3.6856036606,
				"element": "C" 
			},
			{
				"x": 2.8158252178,
				"y": -1.8935016471,
				"z": 4.8063130425,
				"element": "C" 
			},
			{
				"x": 3.7652459408,
				"y": -2.1460513526,
				"z": 5.7888308965,
				"element": "C" 
			},
			{
				"x": 5.0556731177,
				"y": -1.6013638556,
				"z": 5.6758983474,
				"element": "C" 
			},
			{
				"x": 5.3729674161,
				"y": -0.8038261799,
				"z": 4.5632854151,
				"element": "C" 
			},
			{
				"x": 4.4151524398,
				"y": -0.5608583835,
				"z": 3.5865181227,
				"element": "C" 
			},
			{
				"x": 6.0391896315,
				"y": -1.8569025805,
				"z": 6.6862416186,
				"element": "C" 
			},
			{
				"x": 6.8378443821,
				"y": -2.0644483211,
				"z": 7.5067280456,
				"element": "N" 
			},
			{
				"x": -0.1257134403,
				"y": 2.7337013181,
				"z": -5.7313703285,
				"element": "H" 
			},
			{
				"x": -0.6267066752,
				"y": 3.4757956739,
				"z": -7.256824754,
				"element": "H" 
			},
			{
				"x": -1.612557151,
				"y": 3.6864294789,
				"z": -5.8090076267,
				"element": "H" 
			},
			{
				"x": -1.1320769128,
				"y": 1.0555682977,
				"z": -7.3389371903,
				"element": "H" 
			},
			{
				"x": -2.6321934212,
				"y": 1.9634972265,
				"z": -7.3511362609,
				"element": "H" 
			},
			{
				"x": -2.6736757537,
				"y": -0.0694085016,
				"z": -5.8719242799,
				"element": "H" 
			},
			{
				"x": -1.4016033078,
				"y": 0.6227665034,
				"z": -4.879622125,
				"element": "H" 
			},
			{
				"x": -2.9295806157,
				"y": 2.5293811947,
				"z": -4.2634334027,
				"element": "H" 
			},
			{
				"x": -4.1763053318,
				"y": 1.8590364283,
				"z": -5.3040039798,
				"element": "H" 
			},
			{
				"x": -4.708170104,
				"y": 1.2607593297,
				"z": -3.0344826095,
				"element": "H" 
			},
			{
				"x": -4.2504440685,
				"y": -0.2106458654,
				"z": -3.8792053964,
				"element": "H" 
			},
			{
				"x": -2.4901355083,
				"y": -1.5984917003,
				"z": -2.99362654,
				"element": "H" 
			},
			{
				"x": -0.7833437958,
				"y": -2.0353044521,
				"z": -1.2775910456,
				"element": "H" 
			},
			{
				"x": -1.2359034193,
				"y": 1.9819008118,
				"z": 0.1847352389,
				"element": "H" 
			},
			{
				"x": -2.9145407858,
				"y": 2.4232962378,
				"z": -1.5545466377,
				"element": "H" 
			},
			{
				"x": -0.4916862298,
				"y": -2.3495349514,
				"z": 1.0230722944,
				"element": "H" 
			},
			{
				"x": 1.2141503256,
				"y": -2.8004697152,
				"z": 2.7270063269,
				"element": "H" 
			},
			{
				"x": 2.7174653108,
				"y": 1.2036098993,
				"z": 2.2768586832,
				"element": "H" 
			},
			{
				"x": 1.0558748085,
				"y": 1.6281751155,
				"z": 0.5230941495,
				"element": "H" 
			},
			{
				"x": 1.8148905932,
				"y": -2.2970673029,
				"z": 4.9205511192,
				"element": "H" 
			},
			{
				"x": 3.5140830944,
				"y": -2.754483336,
				"z": 6.6512908038,
				"element": "H" 
			},
			{
				"x": 6.3711562918,
				"y": -0.38945482,
				"z": 4.4682774221,
				"element": "H" 
			},
			{
				"x": 4.682367747,
				"y": 0.0333909241,
				"z": 2.71861436,
				"element": "H" 
			}
		],
		 "valence_orbital": [ 
			{
				"type": "occ",
				"energy": -0.27421,
				"method": "rhf"
			},
			{
				"type": "occ",
				"energy": -0.26218,
				"method": "rhf"
			},
			{
				"type": "occ",
				"energy": -0.25542,
				"method": "rhf"
			},
			{
				"type": "occ",
				"energy": -0.2546,
				"method": "rhf"
			},
			{
				"type": "occ",
				"energy": -0.22071,
				"method": "rhf"
			},
			{
				"type": "unocc",
				"energy": -0.06371,
				"method": "rhf"
			},
			{
				"type": "unocc",
				"energy": -0.02403,
				"method": "rhf"
			},
			{
				"type": "unocc",
				"energy": -0.02293,
				"method": "rhf"
			},
			{
				"type": "unocc",
				"energy": -0.01409,
				"method": "rhf"
			},
			{
				"type": "unocc",
				"energy": -0.00662,
				"method": "rhf"
			}
		],
		"cosmo_sigma_profile": { 
			"-0.025": 0.0,
			"-0.024": 0.0,
			"-0.023": 0.0,
			"-0.022": 0.0,
			"-0.021": 0.0,
			"-0.02": 0.0,
			"-0.019": 0.0,
			"-0.018": 0.0,
			"-0.017": 0.0,
			"-0.016": 0.0,
			"-0.015": 0.0,
			"-0.014": 0.0,
			"-0.013": 0.0,
			"-0.012": 0.0,
			"-0.011": 0.0,
			"-0.01": 0.0,
			"-0.009": 0.0,
			"-0.008": 2.46320478083,
			"-0.007": 7.91313248805,
			"-0.006": 17.9081193869,
			"-0.005": 24.0006943394,
			"-0.004": 24.8056729358,
			"-0.003": 27.5935695775,
			"-0.002": 41.0002302485,
			"-0.001": 46.0020095749,
			"0.0": 47.5681659716,
			"0.001": 46.1734809504,
			"0.002": 39.5761183781,
			"0.003": 25.3451648855,
			"0.004": 19.387808768,
			"0.005": 16.9179949026,
			"0.006": 7.80171839806,
			"0.007": 3.04870678318,
			"0.008": 3.33043873418,
			"0.009": 3.46222063816,
			"0.01": 3.18872459374,
			"0.011": 2.97528263117,
			"0.012": 2.34495321378,
			"0.013": 1.7610688355,
			"0.014": 0.158741107111,
			"0.015": 0.0,
			"0.016": 0.0,
			"0.017": 0.0,
			"0.018": 0.0,
			"0.019": 0.0,
			"0.02": 0.0,
			"0.021": 0.0,
			"0.022": 0.0,
			"0.023": 0.0,
			"0.024": 0.0,
			"0.025": 0.0
		}
	}
}
