{
	 "smiles": "CC1=C(NC2=CC=CC=C12)C#N", 
	 "Tm": 376.15, 
	 "num_atms": 20, 
	 "gaussian": { 
		 "optdone": 1, 
		 "sigma_profile": "yes", 
		 "theory": "DFT", 
		 "functional": "B3LYP", 
		 "basiset": "6-31G**", 
		 "properties": { 
			 "R2extent": 2791.5354, 
			 "electric_dipole_moment_norm": 3.60923749703, 
			 "electric_quadrupole_moment_norm": 21.6862473577, 
			 "total_energy": -495.384769801, 
			 "HOMO_LUMO_gap": 0.17148, 
			 "cosmo_polarized_energy": -11.19, 
			 "cosmo_cavitation_energy": 25.01, 
			 "cosmo_dispersion_energy": -17.88, 
			 "cosmo_repulsion_energy": 1.42, 
			 "cosmo_total_nonelectrostatic_energy": 8.55, 
			 "SMD_solvation_energy": 5.29 
		},
		"coords": [
			{
				"x": 3.1524401731,
				"y": 1.3448474153,
				"z": -0.6626759756,
				"element": "C" 
			},
			{
				"x": 1.8745018806,
				"y": 1.3515044874,
				"z": 0.1152731434,
				"element": "C" 
			},
			{
				"x": 1.0487881568,
				"y": 2.4395394943,
				"z": 0.3417035801,
				"element": "C" 
			},
			{
				"x": -0.0480350162,
				"y": 2.0534678924,
				"z": 1.1094381918,
				"element": "N" 
			},
			{
				"x": 0.0563553965,
				"y": 0.712656163,
				"z": 1.38721311,
				"element": "C" 
			},
			{
				"x": -0.7905851804,
				"y": -0.1306557029,
				"z": 2.1186024099,
				"element": "C" 
			},
			{
				"x": -0.4201746905,
				"y": -1.4633644247,
				"z": 2.2322524037,
				"element": "C" 
			},
			{
				"x": 0.7631231486,
				"y": -1.9546377523,
				"z": 1.6358361003,
				"element": "C" 
			},
			{
				"x": 1.5993433556,
				"y": -1.1183913532,
				"z": 0.9127846688,
				"element": "C" 
			},
			{
				"x": 1.2531179062,
				"y": 0.2400763383,
				"z": 0.7776833228,
				"element": "C" 
			},
			{
				"x": 1.2058895659,
				"y": 3.7776875318,
				"z": -0.0954383827,
				"element": "C" 
			},
			{
				"x": 1.337491441,
				"y": 4.8779981683,
				"z": -0.4564299275,
				"element": "N" 
			},
			{
				"x": 3.3822901502,
				"y": 2.3384531026,
				"z": -1.0555514832,
				"element": "H" 
			},
			{
				"x": 3.097363012,
				"y": 0.6514087647,
				"z": -1.5099631592,
				"element": "H" 
			},
			{
				"x": 3.995307462,
				"y": 1.0259215154,
				"z": -0.0384104067,
				"element": "H" 
			},
			{
				"x": -0.7886469536,
				"y": 2.6698815152,
				"z": 1.4023872332,
				"element": "H" 
			},
			{
				"x": -1.700668778,
				"y": 0.2430051328,
				"z": 2.5784470783,
				"element": "H" 
			},
			{
				"x": -1.0540302827,
				"y": -2.1444389931,
				"z": 2.7923025975,
				"element": "H" 
			},
			{
				"x": 1.0162482042,
				"y": -3.004353489,
				"z": 1.7489825318,
				"element": "H" 
			},
			{
				"x": 2.5073810487,
				"y": -1.5022058063,
				"z": 0.4568629631,
				"element": "H" 
			}
		],
		 "valence_orbital": [ 
			{
				"type": "occ",
				"energy": -0.33568,
				"method": "rhf"
			},
			{
				"type": "occ",
				"energy": -0.3329,
				"method": "rhf"
			},
			{
				"type": "occ",
				"energy": -0.28529,
				"method": "rhf"
			},
			{
				"type": "occ",
				"energy": -0.2352,
				"method": "rhf"
			},
			{
				"type": "occ",
				"energy": -0.21873,
				"method": "rhf"
			},
			{
				"type": "unocc",
				"energy": -0.04725,
				"method": "rhf"
			},
			{
				"type": "unocc",
				"energy": 0.0102,
				"method": "rhf"
			},
			{
				"type": "unocc",
				"energy": 0.01638,
				"method": "rhf"
			},
			{
				"type": "unocc",
				"energy": 0.02633,
				"method": "rhf"
			},
			{
				"type": "unocc",
				"energy": 0.07695,
				"method": "rhf"
			}
		],
		"cosmo_sigma_profile": { 
			"-0.025": 0.0,
			"-0.024": 0.0,
			"-0.023": 0.0,
			"-0.022": 0.0,
			"-0.021": 0.0,
			"-0.02": 0.0,
			"-0.019": 0.0,
			"-0.018": 0.0,
			"-0.017": 0.247036373525,
			"-0.016": 1.79438769902,
			"-0.015": 1.14441006418,
			"-0.014": 1.35039677562,
			"-0.013": 1.18816309821,
			"-0.012": 1.2262639041,
			"-0.011": 1.63771092103,
			"-0.01": 0.963788261356,
			"-0.009": 1.08557792004,
			"-0.008": 1.91527522305,
			"-0.007": 1.76138030349,
			"-0.006": 6.21590069618,
			"-0.005": 10.9496339077,
			"-0.004": 16.0503190387,
			"-0.003": 17.3942690769,
			"-0.002": 16.1603968977,
			"-0.001": 16.212962811,
			"0.0": 15.0105847994,
			"0.001": 11.7053900585,
			"0.002": 13.0788007405,
			"0.003": 14.6429206933,
			"0.004": 10.936155856,
			"0.005": 12.2093415804,
			"0.006": 7.04668658772,
			"0.007": 2.82363669552,
			"0.008": 2.96114353233,
			"0.009": 3.75379787453,
			"0.01": 2.76162315426,
			"0.011": 3.15297915603,
			"0.012": 2.44857119741,
			"0.013": 1.49905028715,
			"0.014": 0.027343926091,
			"0.015": 0.0,
			"0.016": 0.0,
			"0.017": 0.0,
			"0.018": 0.0,
			"0.019": 0.0,
			"0.02": 0.0,
			"0.021": 0.0,
			"0.022": 0.0,
			"0.023": 0.0,
			"0.024": 0.0,
			"0.025": 0.0
		}
	}
}
