{
	 "smiles": "CC1=NC(=NN1C1=C(Cl)C=CC=C1)C(O)=O", 
	 "Tm": 463.15, 
	 "num_atms": 24, 
	 "gaussian": { 
		 "optdone": 1, 
		 "sigma_profile": "yes", 
		 "theory": "DFT", 
		 "functional": "B3LYP", 
		 "basiset": "6-31G**", 
		 "properties": { 
			 "R2extent": 4193.1729, 
			 "electric_dipole_moment_norm": 9.27261022582, 
			 "electric_quadrupole_moment_norm": 13.8436762408, 
			 "total_energy": -1160.77831774, 
			 "HOMO_LUMO_gap": 0.21332, 
			 "cosmo_polarized_energy": -18.34, 
			 "cosmo_cavitation_energy": 31.34, 
			 "cosmo_dispersion_energy": -22.22, 
			 "cosmo_repulsion_energy": 1.74, 
			 "cosmo_total_nonelectrostatic_energy": 10.86, 
			 "SMD_solvation_energy": 4.28 
		},
		"coords": [
			{
				"x": -1.5477287642,
				"y": 2.2574115987,
				"z": -0.4471892778,
				"element": "C" 
			},
			{
				"x": -1.3412761578,
				"y": 0.8642357923,
				"z": 0.0427080329,
				"element": "C" 
			},
			{
				"x": -2.1398291888,
				"y": 0.1987812434,
				"z": 0.8574976472,
				"element": "N" 
			},
			{
				"x": -1.5306848305,
				"y": -1.0106819748,
				"z": 0.9800518813,
				"element": "C" 
			},
			{
				"x": -0.404392454,
				"y": -1.1446251298,
				"z": 0.2896475176,
				"element": "N" 
			},
			{
				"x": -0.277707089,
				"y": 0.0690488845,
				"z": -0.3069535539,
				"element": "N" 
			},
			{
				"x": 0.7947403985,
				"y": 0.3253266148,
				"z": -1.2112707798,
				"element": "C" 
			},
			{
				"x": 1.8397742311,
				"y": 1.2015486166,
				"z": -0.88488349,
				"element": "C" 
			},
			{
				"x": 1.8885466916,
				"y": 1.9976980607,
				"z": 0.6721403473,
				"element": "Cl" 
			},
			{
				"x": 2.8721724949,
				"y": 1.4312518673,
				"z": -1.7955921013,
				"element": "C" 
			},
			{
				"x": 2.870451613,
				"y": 0.7743792187,
				"z": -3.0251426507,
				"element": "C" 
			},
			{
				"x": 1.8427639373,
				"y": -0.1133098878,
				"z": -3.3500047288,
				"element": "C" 
			},
			{
				"x": 0.8081378496,
				"y": -0.3332610534,
				"z": -2.4448141036,
				"element": "C" 
			},
			{
				"x": -2.0410745866,
				"y": -2.1480666942,
				"z": 1.806662922,
				"element": "C" 
			},
			{
				"x": -1.2378279812,
				"y": -3.2369880822,
				"z": 1.7796798365,
				"element": "O" 
			},
			{
				"x": -3.0656581954,
				"y": -2.1169901359,
				"z": 2.4386556364,
				"element": "O" 
			},
			{
				"x": -1.3712819329,
				"y": 2.3338743952,
				"z": -1.5242555816,
				"element": "H" 
			},
			{
				"x": -2.5754994167,
				"y": 2.5496473264,
				"z": -0.229982689,
				"element": "H" 
			},
			{
				"x": -0.8717776185,
				"y": 2.9568602017,
				"z": 0.0550311504,
				"element": "H" 
			},
			{
				"x": 3.6722909727,
				"y": 2.1124847226,
				"z": -1.5290013042,
				"element": "H" 
			},
			{
				"x": 3.6791047809,
				"y": 0.9551731879,
				"z": -3.7263742745,
				"element": "H" 
			},
			{
				"x": 1.8442945182,
				"y": -0.6295146949,
				"z": -4.304359912,
				"element": "H" 
			},
			{
				"x": -0.0016296423,
				"y": -1.0181854977,
				"z": -2.6729274266,
				"element": "H" 
			},
			{
				"x": -0.4675096299,
				"y": -3.0422985801,
				"z": 1.2178769023,
				"element": "H" 
			}
		],
		 "valence_orbital": [ 
			{
				"type": "occ",
				"energy": -0.29948,
				"method": "rhf"
			},
			{
				"type": "occ",
				"energy": -0.28779,
				"method": "rhf"
			},
			{
				"type": "occ",
				"energy": -0.27848,
				"method": "rhf"
			},
			{
				"type": "occ",
				"energy": -0.27426,
				"method": "rhf"
			},
			{
				"type": "occ",
				"energy": -0.26701,
				"method": "rhf"
			},
			{
				"type": "unocc",
				"energy": -0.05369,
				"method": "rhf"
			},
			{
				"type": "unocc",
				"energy": -0.0445,
				"method": "rhf"
			},
			{
				"type": "unocc",
				"energy": -0.03557,
				"method": "rhf"
			},
			{
				"type": "unocc",
				"energy": 0.0024,
				"method": "rhf"
			},
			{
				"type": "unocc",
				"energy": 0.00515,
				"method": "rhf"
			}
		],
		"cosmo_sigma_profile": { 
			"-0.025": 0.0,
			"-0.024": 0.0,
			"-0.023": 0.0,
			"-0.022": 0.0,
			"-0.021": 0.0,
			"-0.02": 0.0,
			"-0.019": 0.0,
			"-0.018": 0.0,
			"-0.017": 0.0,
			"-0.016": 0.0364349919653,
			"-0.015": 0.605611202579,
			"-0.014": 0.496098377529,
			"-0.013": 0.357316326422,
			"-0.012": 0.834199289946,
			"-0.011": 1.0276095159,
			"-0.01": 0.377878726203,
			"-0.009": 0.556710737364,
			"-0.008": 5.10469090373,
			"-0.007": 12.5499133305,
			"-0.006": 16.943289075,
			"-0.005": 16.9349908697,
			"-0.004": 16.2859826496,
			"-0.003": 19.8399728975,
			"-0.002": 20.4215022358,
			"-0.001": 18.1350605568,
			"0.0": 18.5035972941,
			"0.001": 19.0763500447,
			"0.002": 20.615915238,
			"0.003": 13.4935897305,
			"0.004": 7.15983185547,
			"0.005": 4.59644661966,
			"0.006": 3.27684668477,
			"0.007": 4.3260087224,
			"0.008": 4.7040149196,
			"0.009": 4.35429991319,
			"0.01": 6.84308121496,
			"0.011": 6.98979717265,
			"0.012": 4.58894361388,
			"0.013": 2.7707770709,
			"0.014": 1.21673135376,
			"0.015": 0.856680551967,
			"0.016": 0.209995218882,
			"0.017": 0.0,
			"0.018": 0.0,
			"0.019": 0.0,
			"0.02": 0.0,
			"0.021": 0.0,
			"0.022": 0.0,
			"0.023": 0.0,
			"0.024": 0.0,
			"0.025": 0.0
		}
	}
}
