{
	 "smiles": "NC1=CC=NN1C1CCS(=O)(=O)C1", 
	 "Tm": 443.15, 
	 "num_atms": 24, 
	 "gaussian": { 
		 "optdone": 1, 
		 "sigma_profile": "yes", 
		 "theory": "DFT", 
		 "functional": "B3LYP", 
		 "basiset": "6-31G**", 
		 "properties": { 
			 "R2extent": 3417.4948, 
			 "electric_dipole_moment_norm": 6.93283009744, 
			 "electric_quadrupole_moment_norm": 12.6888164342, 
			 "total_energy": -986.175289698, 
			 "HOMO_LUMO_gap": 0.24148, 
			 "cosmo_polarized_energy": -21.36, 
			 "cosmo_cavitation_energy": 27.99, 
			 "cosmo_dispersion_energy": -20.94, 
			 "cosmo_repulsion_energy": 1.61, 
			 "cosmo_total_nonelectrostatic_energy": 8.66, 
			 "SMD_solvation_energy": 3.69 
		},
		"coords": [
			{
				"x": 1.2610219804,
				"y": -0.598093463,
				"z": 2.9120347004,
				"element": "N" 
			},
			{
				"x": 0.5065393059,
				"y": -1.6621969214,
				"z": 2.388460756,
				"element": "C" 
			},
			{
				"x": 0.3799214711,
				"y": -2.9947485781,
				"z": 2.7526943776,
				"element": "C" 
			},
			{
				"x": -0.5813372077,
				"y": -3.5158425867,
				"z": 1.8618888434,
				"element": "C" 
			},
			{
				"x": -1.0192966979,
				"y": -2.5983658211,
				"z": 1.0028604005,
				"element": "N" 
			},
			{
				"x": -0.359443727,
				"y": -1.4614665758,
				"z": 1.3489355289,
				"element": "N" 
			},
			{
				"x": -0.6353192957,
				"y": -0.2163007657,
				"z": 0.6454196943,
				"element": "C" 
			},
			{
				"x": -2.1630463016,
				"y": 0.109183496,
				"z": 0.6467368359,
				"element": "C" 
			},
			{
				"x": -2.7851842916,
				"y": -0.4457625584,
				"z": -0.6329128995,
				"element": "C" 
			},
			{
				"x": -1.5758766708,
				"y": 0.0311611338,
				"z": -1.9051480235,
				"element": "S" 
			},
			{
				"x": -1.5848557377,
				"y": -0.8795571989,
				"z": -3.0579354951,
				"element": "O" 
			},
			{
				"x": -1.677494253,
				"y": 1.4887316115,
				"z": -2.1033085967,
				"element": "O" 
			},
			{
				"x": -0.1292348476,
				"y": -0.2856492721,
				"z": -0.8206200473,
				"element": "C" 
			},
			{
				"x": 2.0440333706,
				"y": -0.3359851251,
				"z": 2.3193454292,
				"element": "H" 
			},
			{
				"x": 1.616480294,
				"y": -0.8225368378,
				"z": 3.8338855028,
				"element": "H" 
			},
			{
				"x": 0.9201567394,
				"y": -3.5089161883,
				"z": 3.5337675765,
				"element": "H" 
			},
			{
				"x": -0.9627900379,
				"y": -4.5268028698,
				"z": 1.8030077361,
				"element": "H" 
			},
			{
				"x": -0.1025682457,
				"y": 0.5551229398,
				"z": 1.2034110111,
				"element": "H" 
			},
			{
				"x": -2.2907871832,
				"y": 1.1949686816,
				"z": 0.6733927454,
				"element": "H" 
			},
			{
				"x": -2.6294213477,
				"y": -0.316650442,
				"z": 1.537126355,
				"element": "H" 
			},
			{
				"x": -3.7462074381,
				"y": -0.0024704068,
				"z": -0.8990578065,
				"element": "H" 
			},
			{
				"x": -2.8399680906,
				"y": -1.5361280585,
				"z": -0.6206507531,
				"element": "H" 
			},
			{
				"x": 0.24298709,
				"y": -1.2811022214,
				"z": -1.0651764853,
				"element": "H" 
			},
			{
				"x": 0.6167911225,
				"y": 0.4720080282,
				"z": -1.0658573862,
				"element": "H" 
			}
		],
		 "valence_orbital": [ 
			{
				"type": "occ",
				"energy": -0.29352,
				"method": "rhf"
			},
			{
				"type": "occ",
				"energy": -0.28781,
				"method": "rhf"
			},
			{
				"type": "occ",
				"energy": -0.27814,
				"method": "rhf"
			},
			{
				"type": "occ",
				"energy": -0.2538,
				"method": "rhf"
			},
			{
				"type": "occ",
				"energy": -0.23179,
				"method": "rhf"
			},
			{
				"type": "unocc",
				"energy": 0.00969,
				"method": "rhf"
			},
			{
				"type": "unocc",
				"energy": 0.05095,
				"method": "rhf"
			},
			{
				"type": "unocc",
				"energy": 0.06244,
				"method": "rhf"
			},
			{
				"type": "unocc",
				"energy": 0.06562,
				"method": "rhf"
			},
			{
				"type": "unocc",
				"energy": 0.07188,
				"method": "rhf"
			}
		],
		"cosmo_sigma_profile": { 
			"-0.025": 0.0,
			"-0.024": 0.0,
			"-0.023": 0.0,
			"-0.022": 0.0,
			"-0.021": 0.0,
			"-0.02": 0.0,
			"-0.019": 0.0,
			"-0.018": 0.0,
			"-0.017": 0.0,
			"-0.016": 0.0,
			"-0.015": 0.0,
			"-0.014": 0.0,
			"-0.013": 1.07530799315,
			"-0.012": 3.75071856398,
			"-0.011": 2.06280308169,
			"-0.01": 4.40946460924,
			"-0.009": 4.27296996137,
			"-0.008": 10.145228352,
			"-0.007": 11.7931404916,
			"-0.006": 14.9458582321,
			"-0.005": 18.4549967374,
			"-0.004": 15.0029770555,
			"-0.003": 14.3485754054,
			"-0.002": 10.5719861022,
			"-0.001": 9.09155574802,
			"0.0": 7.53631519665,
			"0.001": 7.78045711597,
			"0.002": 7.33201897002,
			"0.003": 8.34114965438,
			"0.004": 7.05211124951,
			"0.005": 7.72545233874,
			"0.006": 9.07769006781,
			"0.007": 5.92955774702,
			"0.008": 4.29811152884,
			"0.009": 4.36890219618,
			"0.01": 5.97547761755,
			"0.011": 11.7211345002,
			"0.012": 11.3077961077,
			"0.013": 2.55669731373,
			"0.014": 0.0899551590242,
			"0.015": 0.0,
			"0.016": 0.0,
			"0.017": 0.0,
			"0.018": 0.0,
			"0.019": 0.0,
			"0.02": 0.0,
			"0.021": 0.0,
			"0.022": 0.0,
			"0.023": 0.0,
			"0.024": 0.0,
			"0.025": 0.0
		}
	}
}
