{
	 "smiles": "O=C1C2=C(C(=O)C3=CC=CC=C13)C1(CC1)C21CC1", 
	 "Tm": 376.5, 
	 "num_atms": 30, 
	 "gaussian": { 
		 "optdone": 1, 
		 "sigma_profile": "yes", 
		 "theory": "DFT", 
		 "functional": "B3LYP", 
		 "basiset": "6-31G**", 
		 "properties": { 
			 "R2extent": 4699.0997, 
			 "electric_dipole_moment_norm": 0.291923072058, 
			 "electric_quadrupole_moment_norm": 22.8817136489, 
			 "total_energy": -767.273973805, 
			 "HOMO_LUMO_gap": 0.13785, 
			 "cosmo_polarized_energy": -10.13, 
			 "cosmo_cavitation_energy": 34.54, 
			 "cosmo_dispersion_energy": -23.74, 
			 "cosmo_repulsion_energy": 1.77, 
			 "cosmo_total_nonelectrostatic_energy": 12.57, 
			 "SMD_solvation_energy": 5.96 
		},
		"coords": [
			{
				"x": 0.0507322496,
				"y": 0.4536546526,
				"z": 2.9023086898,
				"element": "O" 
			},
			{
				"x": -0.2485765012,
				"y": 0.3094806279,
				"z": 1.7207117112,
				"element": "C" 
			},
			{
				"x": -0.4002424093,
				"y": 1.415935531,
				"z": 0.7754807862,
				"element": "C" 
			},
			{
				"x": -0.7293966869,
				"y": 1.2735068727,
				"z": -0.5325025717,
				"element": "C" 
			},
			{
				"x": -0.9818391819,
				"y": -0.0077610845,
				"z": -1.1922919609,
				"element": "C" 
			},
			{
				"x": -1.2788516277,
				"y": -0.1214269468,
				"z": -2.3777886265,
				"element": "O" 
			},
			{
				"x": -0.8402355518,
				"y": -1.190060825,
				"z": -0.2686553572,
				"element": "C" 
			},
			{
				"x": -1.0574910008,
				"y": -2.4686638136,
				"z": -0.7875140886,
				"element": "C" 
			},
			{
				"x": -0.9377744675,
				"y": -3.5939695288,
				"z": 0.0290758353,
				"element": "C" 
			},
			{
				"x": -0.598429878,
				"y": -3.44731155,
				"z": 1.3759993443,
				"element": "C" 
			},
			{
				"x": -0.3788622045,
				"y": -2.175332577,
				"z": 1.9064079429,
				"element": "C" 
			},
			{
				"x": -0.495657791,
				"y": -1.0410865649,
				"z": 1.0995107981,
				"element": "C" 
			},
			{
				"x": -0.6903690037,
				"y": 2.741529397,
				"z": -0.803356467,
				"element": "C" 
			},
			{
				"x": -0.1566702717,
				"y": 3.4627626264,
				"z": -2.0157933939,
				"element": "C" 
			},
			{
				"x": -1.6171254991,
				"y": 3.5675923669,
				"z": -1.659927574,
				"element": "C" 
			},
			{
				"x": -0.3139133881,
				"y": 2.9044423345,
				"z": 0.6928699192,
				"element": "C" 
			},
			{
				"x": 0.6872512717,
				"y": 3.828321995,
				"z": 1.3402540416,
				"element": "C" 
			},
			{
				"x": -0.7732168822,
				"y": 3.932743915,
				"z": 1.6961856092,
				"element": "C" 
			},
			{
				"x": -1.3199121604,
				"y": -2.5563699535,
				"z": -1.8369754214,
				"element": "H" 
			},
			{
				"x": -1.1088687639,
				"y": -4.5834863514,
				"z": -0.3846576066,
				"element": "H" 
			},
			{
				"x": -0.5049684837,
				"y": -4.3224881326,
				"z": 2.0123364173,
				"element": "H" 
			},
			{
				"x": -0.114197851,
				"y": -2.0351707724,
				"z": 2.9495934718,
				"element": "H" 
			},
			{
				"x": 0.4793315329,
				"y": 4.3264667659,
				"z": -1.8407886173,
				"element": "H" 
			},
			{
				"x": 0.1220142112,
				"y": 2.858584346,
				"z": -2.8733968861,
				"element": "H" 
			},
			{
				"x": -1.9793670006,
				"y": 4.5030123757,
				"z": -1.2417274477,
				"element": "H" 
			},
			{
				"x": -2.3361213891,
				"y": 3.0351123984,
				"z": -2.274494893,
				"element": "H" 
			},
			{
				"x": 1.3652197997,
				"y": 3.3969964933,
				"z": 2.0699788619,
				"element": "H" 
			},
			{
				"x": 1.1224274741,
				"y": 4.6054067925,
				"z": 0.7174409601,
				"element": "H" 
			},
			{
				"x": -1.0928538998,
				"y": 3.5728310697,
				"z": 2.6690554,
				"element": "H" 
			},
			{
				"x": -1.3364346453,
				"y": 4.7811475399,
				"z": 1.3165611231,
				"element": "H" 
			}
		],
		 "valence_orbital": [ 
			{
				"type": "occ",
				"energy": -0.27179,
				"method": "rhf"
			},
			{
				"type": "occ",
				"energy": -0.26533,
				"method": "rhf"
			},
			{
				"type": "occ",
				"energy": -0.26119,
				"method": "rhf"
			},
			{
				"type": "occ",
				"energy": -0.25443,
				"method": "rhf"
			},
			{
				"type": "occ",
				"energy": -0.24825,
				"method": "rhf"
			},
			{
				"type": "unocc",
				"energy": -0.1104,
				"method": "rhf"
			},
			{
				"type": "unocc",
				"energy": -0.03565,
				"method": "rhf"
			},
			{
				"type": "unocc",
				"energy": -0.01519,
				"method": "rhf"
			},
			{
				"type": "unocc",
				"energy": 0.04052,
				"method": "rhf"
			},
			{
				"type": "unocc",
				"energy": 0.07926,
				"method": "rhf"
			}
		],
		"cosmo_sigma_profile": { 
			"-0.025": 0.0,
			"-0.024": 0.0,
			"-0.023": 0.0,
			"-0.022": 0.0,
			"-0.021": 0.0,
			"-0.02": 0.0,
			"-0.019": 0.0,
			"-0.018": 0.0,
			"-0.017": 0.0,
			"-0.016": 0.0,
			"-0.015": 0.0,
			"-0.014": 0.0,
			"-0.013": 0.0,
			"-0.012": 0.0,
			"-0.011": 0.0,
			"-0.01": 0.0,
			"-0.009": 0.0,
			"-0.008": 0.0731760756876,
			"-0.007": 3.87742091324,
			"-0.006": 13.1564708357,
			"-0.005": 24.7650529388,
			"-0.004": 20.7136910435,
			"-0.003": 23.35683264,
			"-0.002": 22.0360649592,
			"-0.001": 28.4783997342,
			"0.0": 25.6679155638,
			"0.001": 27.2409983698,
			"0.002": 26.9261434659,
			"0.003": 19.7843618929,
			"0.004": 7.79303737665,
			"0.005": 3.8017593284,
			"0.006": 3.69231915664,
			"0.007": 3.05815720802,
			"0.008": 2.61206633993,
			"0.009": 4.44185916592,
			"0.01": 4.64210617868,
			"0.011": 7.95317956374,
			"0.012": 2.59394009415,
			"0.013": 0.0,
			"0.014": 0.0,
			"0.015": 0.0,
			"0.016": 0.0,
			"0.017": 0.0,
			"0.018": 0.0,
			"0.019": 0.0,
			"0.02": 0.0,
			"0.021": 0.0,
			"0.022": 0.0,
			"0.023": 0.0,
			"0.024": 0.0,
			"0.025": 0.0
		}
	}
}
