{
	 "smiles": "O=C1OC(CC2=CC=CC=C12)(C#N)C1=CC=CC=C1", 
	 "Tm": 414.15, 
	 "num_atms": 30, 
	 "gaussian": { 
		 "optdone": 1, 
		 "sigma_profile": "yes", 
		 "theory": "DFT", 
		 "functional": "B3LYP", 
		 "basiset": "6-31G**", 
		 "properties": { 
			 "R2extent": 4619.4464, 
			 "electric_dipole_moment_norm": 6.50385826183, 
			 "electric_quadrupole_moment_norm": 15.7794461877, 
			 "total_energy": -821.515321941, 
			 "HOMO_LUMO_gap": 0.1985, 
			 "cosmo_polarized_energy": -15.72, 
			 "cosmo_cavitation_energy": 34.69, 
			 "cosmo_dispersion_energy": -23.69, 
			 "cosmo_repulsion_energy": 1.82, 
			 "cosmo_total_nonelectrostatic_energy": 12.83, 
			 "SMD_solvation_energy": 7.76 
		},
		"coords": [
			{
				"x": -2.3369282241,
				"y": 1.2316262044,
				"z": -1.0205350754,
				"element": "O" 
			},
			{
				"x": -1.2008431731,
				"y": 1.0860942707,
				"z": -0.6370594851,
				"element": "C" 
			},
			{
				"x": -0.1888071624,
				"y": 1.6345248641,
				"z": -1.3949234225,
				"element": "O" 
			},
			{
				"x": 1.1847625679,
				"y": 1.2483552953,
				"z": -1.1626429256,
				"element": "C" 
			},
			{
				"x": 1.482890762,
				"y": 1.3060713602,
				"z": 0.352692327,
				"element": "C" 
			},
			{
				"x": 0.4922555642,
				"y": 0.457874483,
				"z": 1.1058886482,
				"element": "C" 
			},
			{
				"x": 0.8143625003,
				"y": -0.2115782025,
				"z": 2.2878794893,
				"element": "C" 
			},
			{
				"x": -0.157728408,
				"y": -0.9504783658,
				"z": 2.9641411568,
				"element": "C" 
			},
			{
				"x": -1.462537923,
				"y": -1.0276388924,
				"z": 2.4668263942,
				"element": "C" 
			},
			{
				"x": -1.793242805,
				"y": -0.3640517267,
				"z": 1.2893768924,
				"element": "C" 
			},
			{
				"x": -0.8171875216,
				"y": 0.3740518788,
				"z": 0.6081878771,
				"element": "C" 
			},
			{
				"x": 1.987408278,
				"y": 2.2852648707,
				"z": -1.8496835596,
				"element": "C" 
			},
			{
				"x": 2.6627755774,
				"y": 3.0795564411,
				"z": -2.3584737708,
				"element": "N" 
			},
			{
				"x": 1.4837630237,
				"y": -0.1162610865,
				"z": -1.8109872246,
				"element": "C" 
			},
			{
				"x": 0.5727805909,
				"y": -0.6888819439,
				"z": -2.7051423796,
				"element": "C" 
			},
			{
				"x": 0.8591008616,
				"y": -1.9147797155,
				"z": -3.3090091205,
				"element": "C" 
			},
			{
				"x": 2.0589628555,
				"y": -2.5715511201,
				"z": -3.0381012569,
				"element": "C" 
			},
			{
				"x": 2.9798465386,
				"y": -1.9922611645,
				"z": -2.163080221,
				"element": "C" 
			},
			{
				"x": 2.6960816783,
				"y": -0.7701585846,
				"z": -1.5553769767,
				"element": "C" 
			},
			{
				"x": 1.4023833539,
				"y": 2.354013013,
				"z": 0.667253482,
				"element": "H" 
			},
			{
				"x": 2.5104928355,
				"y": 0.994037646,
				"z": 0.5502102652,
				"element": "H" 
			},
			{
				"x": 1.8262831516,
				"y": -0.1552684609,
				"z": 2.6798629021,
				"element": "H" 
			},
			{
				"x": 0.104572658,
				"y": -1.4701088692,
				"z": 3.8811373592,
				"element": "H" 
			},
			{
				"x": -2.2148837171,
				"y": -1.6029818519,
				"z": 2.9972595152,
				"element": "H" 
			},
			{
				"x": -2.7966215726,
				"y": -0.3999791642,
				"z": 0.8789643673,
				"element": "H" 
			},
			{
				"x": -0.3549363365,
				"y": -0.1773040466,
				"z": -2.9333879637,
				"element": "H" 
			},
			{
				"x": 0.1407467877,
				"y": -2.3514326478,
				"z": -3.9964112125,
				"element": "H" 
			},
			{
				"x": 2.279716235,
				"y": -3.5244441853,
				"z": -3.5098134213,
				"element": "H" 
			},
			{
				"x": 3.9222851735,
				"y": -2.4894624161,
				"z": -1.9536213719,
				"element": "H" 
			},
			{
				"x": 3.4330458496,
				"y": -0.326747883,
				"z": -0.8926312885,
				"element": "H" 
			}
		],
		 "valence_orbital": [ 
			{
				"type": "occ",
				"energy": -0.28559,
				"method": "rhf"
			},
			{
				"type": "occ",
				"energy": -0.27507,
				"method": "rhf"
			},
			{
				"type": "occ",
				"energy": -0.27079,
				"method": "rhf"
			},
			{
				"type": "occ",
				"energy": -0.26576,
				"method": "rhf"
			},
			{
				"type": "occ",
				"energy": -0.26354,
				"method": "rhf"
			},
			{
				"type": "unocc",
				"energy": -0.06504,
				"method": "rhf"
			},
			{
				"type": "unocc",
				"energy": -0.03311,
				"method": "rhf"
			},
			{
				"type": "unocc",
				"energy": -0.02144,
				"method": "rhf"
			},
			{
				"type": "unocc",
				"energy": -0.01757,
				"method": "rhf"
			},
			{
				"type": "unocc",
				"energy": 0.01076,
				"method": "rhf"
			}
		],
		"cosmo_sigma_profile": { 
			"-0.025": 0.0,
			"-0.024": 0.0,
			"-0.023": 0.0,
			"-0.022": 0.0,
			"-0.021": 0.0,
			"-0.02": 0.0,
			"-0.019": 0.0,
			"-0.018": 0.0,
			"-0.017": 0.0,
			"-0.016": 0.0,
			"-0.015": 0.0,
			"-0.014": 0.0,
			"-0.013": 0.0,
			"-0.012": 0.0,
			"-0.011": 0.238339330268,
			"-0.01": 1.26698967478,
			"-0.009": 1.7799408649,
			"-0.008": 5.4335309731,
			"-0.007": 12.8261117838,
			"-0.006": 22.0455536789,
			"-0.005": 24.3706917485,
			"-0.004": 19.5789811368,
			"-0.003": 16.4810324681,
			"-0.002": 14.3232739157,
			"-0.001": 16.3955112913,
			"0.0": 15.3077297021,
			"0.001": 20.3199296462,
			"0.002": 22.923294298,
			"0.003": 24.833749327,
			"0.004": 15.9682539565,
			"0.005": 6.06811562761,
			"0.006": 5.41098134977,
			"0.007": 5.50885683408,
			"0.008": 5.81517791542,
			"0.009": 5.47119167233,
			"0.01": 5.83342832498,
			"0.011": 7.58321172041,
			"0.012": 3.52347560501,
			"0.013": 0.23961753735,
			"0.014": 0.0,
			"0.015": 0.0,
			"0.016": 0.0,
			"0.017": 0.0,
			"0.018": 0.0,
			"0.019": 0.0,
			"0.02": 0.0,
			"0.021": 0.0,
			"0.022": 0.0,
			"0.023": 0.0,
			"0.024": 0.0,
			"0.025": 0.0
		}
	}
}
