{
	 "smiles": "OC(C(=O)C1=NC=CC=C1)C1=NC=CC=C1", 
	 "Tm": 427.15, 
	 "num_atms": 26, 
	 "gaussian": { 
		 "optdone": 1, 
		 "sigma_profile": "yes", 
		 "theory": "DFT", 
		 "functional": "B3LYP", 
		 "basiset": "6-31G**", 
		 "properties": { 
			 "R2extent": 5210.9911, 
			 "electric_dipole_moment_norm": 5.53576612674, 
			 "electric_quadrupole_moment_norm": 27.6071821257, 
			 "total_energy": -723.235993987, 
			 "HOMO_LUMO_gap": 0.16006, 
			 "cosmo_polarized_energy": -14.2, 
			 "cosmo_cavitation_energy": 30.79, 
			 "cosmo_dispersion_energy": -22.1, 
			 "cosmo_repulsion_energy": 1.72, 
			 "cosmo_total_nonelectrostatic_energy": 10.41, 
			 "SMD_solvation_energy": 4.58 
		},
		"coords": [
			{
				"x": -0.6894410218,
				"y": 0.4717495381,
				"z": -2.7824365061,
				"element": "O" 
			},
			{
				"x": 0.0442315119,
				"y": 1.1140780116,
				"z": -1.7776405574,
				"element": "C" 
			},
			{
				"x": -0.7144119168,
				"y": 2.3764342771,
				"z": -1.292090921,
				"element": "C" 
			},
			{
				"x": -1.9304744853,
				"y": 2.4093992171,
				"z": -1.3078657936,
				"element": "O" 
			},
			{
				"x": 0.0767682575,
				"y": 3.5622546149,
				"z": -0.802902603,
				"element": "C" 
			},
			{
				"x": 1.4175365498,
				"y": 3.4709429427,
				"z": -0.8083712389,
				"element": "N" 
			},
			{
				"x": 2.1147591171,
				"y": 4.5317073144,
				"z": -0.3895192155,
				"element": "C" 
			},
			{
				"x": 1.5207317943,
				"y": 5.7188401676,
				"z": 0.0454239009,
				"element": "C" 
			},
			{
				"x": 0.1279992389,
				"y": 5.8053519364,
				"z": 0.0500414325,
				"element": "C" 
			},
			{
				"x": -0.6102503938,
				"y": 4.7072781959,
				"z": -0.3811044264,
				"element": "C" 
			},
			{
				"x": 0.2561277475,
				"y": 0.1939592504,
				"z": -0.5718363659,
				"element": "C" 
			},
			{
				"x": -0.6987659728,
				"y": -0.7324424373,
				"z": -0.4181728794,
				"element": "N" 
			},
			{
				"x": -0.6043893576,
				"y": -1.5762774542,
				"z": 0.6155022391,
				"element": "C" 
			},
			{
				"x": 0.4395137231,
				"y": -1.537872418,
				"z": 1.5391930526,
				"element": "C" 
			},
			{
				"x": 1.4302040795,
				"y": -0.5685271188,
				"z": 1.3750633148,
				"element": "C" 
			},
			{
				"x": 1.3387848532,
				"y": 0.318426625,
				"z": 0.3045508488,
				"element": "C" 
			},
			{
				"x": -1.3516437555,
				"y": -0.0625110206,
				"z": -2.3111571834,
				"element": "H" 
			},
			{
				"x": 1.0112941661,
				"y": 1.4170776119,
				"z": -2.1858597242,
				"element": "H" 
			},
			{
				"x": 3.198357113,
				"y": 4.4316978352,
				"z": -0.4044850128,
				"element": "H" 
			},
			{
				"x": 2.1383150001,
				"y": 6.5502742058,
				"z": 0.3701285485,
				"element": "H" 
			},
			{
				"x": -0.3699646869,
				"y": 6.7116316436,
				"z": 0.3822046666,
				"element": "H" 
			},
			{
				"x": -1.6940213906,
				"y": 4.704431765,
				"z": -0.4053403665,
				"element": "H" 
			},
			{
				"x": -1.3978526698,
				"y": -2.3156885647,
				"z": 0.7056302566,
				"element": "H" 
			},
			{
				"x": 0.4733436469,
				"y": -2.2483057241,
				"z": 2.3588555596,
				"element": "H" 
			},
			{
				"x": 2.2636761251,
				"y": -0.5072535115,
				"z": 2.069270472,
				"element": "H" 
			},
			{
				"x": 2.077872727,
				"y": 1.0944430965,
				"z": 0.1381185022,
				"element": "H" 
			}
		],
		 "valence_orbital": [ 
			{
				"type": "occ",
				"energy": -0.27988,
				"method": "rhf"
			},
			{
				"type": "occ",
				"energy": -0.2749,
				"method": "rhf"
			},
			{
				"type": "occ",
				"energy": -0.26786,
				"method": "rhf"
			},
			{
				"type": "occ",
				"energy": -0.26298,
				"method": "rhf"
			},
			{
				"type": "occ",
				"energy": -0.23192,
				"method": "rhf"
			},
			{
				"type": "unocc",
				"energy": -0.07186,
				"method": "rhf"
			},
			{
				"type": "unocc",
				"energy": -0.03727,
				"method": "rhf"
			},
			{
				"type": "unocc",
				"energy": -0.02637,
				"method": "rhf"
			},
			{
				"type": "unocc",
				"energy": -0.01526,
				"method": "rhf"
			},
			{
				"type": "unocc",
				"energy": 0.03393,
				"method": "rhf"
			}
		],
		"cosmo_sigma_profile": { 
			"-0.025": 0.0,
			"-0.024": 0.0,
			"-0.023": 0.0,
			"-0.022": 0.0,
			"-0.021": 0.0,
			"-0.02": 0.0,
			"-0.019": 0.0,
			"-0.018": 0.0,
			"-0.017": 0.0,
			"-0.016": 0.0,
			"-0.015": 0.0,
			"-0.014": 0.0,
			"-0.013": 0.0,
			"-0.012": 0.0,
			"-0.011": 0.0860523753213,
			"-0.01": 0.297248354685,
			"-0.009": 0.523257169612,
			"-0.008": 3.30418765078,
			"-0.007": 13.7912981742,
			"-0.006": 18.7183468807,
			"-0.005": 17.7797480518,
			"-0.004": 15.9817803801,
			"-0.003": 14.1416668678,
			"-0.002": 14.2262154884,
			"-0.001": 15.79895337,
			"0.0": 24.2355413605,
			"0.001": 29.2220253193,
			"0.002": 22.1034732879,
			"0.003": 9.58866419198,
			"0.004": 5.32038486669,
			"0.005": 5.84309776631,
			"0.006": 6.37452049796,
			"0.007": 5.0730505017,
			"0.008": 3.99679031706,
			"0.009": 4.52498699115,
			"0.01": 4.68522364368,
			"0.011": 5.80649062241,
			"0.012": 2.74556114128,
			"0.013": 2.39430943537,
			"0.014": 0.888043651505,
			"0.015": 0.0,
			"0.016": 0.0,
			"0.017": 0.0,
			"0.018": 0.0,
			"0.019": 0.0,
			"0.02": 0.0,
			"0.021": 0.0,
			"0.022": 0.0,
			"0.023": 0.0,
			"0.024": 0.0,
			"0.025": 0.0
		}
	}
}
