{
	 "smiles": "COC1=C(F)C=C(CC(N)=O)C=C1", 
	 "Tm": 447.15, 
	 "num_atms": 23, 
	 "gaussian": { 
		 "optdone": 1, 
		 "sigma_profile": "yes", 
		 "theory": "DFT", 
		 "functional": "B3LYP", 
		 "basiset": "6-31G**", 
		 "properties": { 
			 "R2extent": 3169.8044, 
			 "electric_dipole_moment_norm": 4.96439254491, 
			 "electric_quadrupole_moment_norm": 11.8021251442, 
			 "total_energy": -654.020691573, 
			 "HOMO_LUMO_gap": 0.20883, 
			 "cosmo_polarized_energy": -15.33, 
			 "cosmo_cavitation_energy": 27.82, 
			 "cosmo_dispersion_energy": -19.87, 
			 "cosmo_repulsion_energy": 1.58, 
			 "cosmo_total_nonelectrostatic_energy": 9.54, 
			 "SMD_solvation_energy": 6.8 
		},
		"coords": [
			{
				"x": 0.6687597351,
				"y": 4.4755133878,
				"z": 0.9384863057,
				"element": "C" 
			},
			{
				"x": -0.3546675928,
				"y": 3.5222596581,
				"z": 1.1828481727,
				"element": "O" 
			},
			{
				"x": -0.302001935,
				"y": 2.3476343872,
				"z": 0.5016194068,
				"element": "C" 
			},
			{
				"x": -1.3431402916,
				"y": 1.4362303001,
				"z": 0.7579574757,
				"element": "C" 
			},
			{
				"x": -2.2949187121,
				"y": 1.7896296251,
				"z": 1.6416690083,
				"element": "F" 
			},
			{
				"x": -1.4110243042,
				"y": 0.2063540636,
				"z": 0.1317083728,
				"element": "C" 
			},
			{
				"x": -0.425936854,
				"y": -0.1737999587,
				"z": -0.7980332867,
				"element": "C" 
			},
			{
				"x": -0.486808551,
				"y": -1.525427393,
				"z": -1.4704824755,
				"element": "C" 
			},
			{
				"x": 0.0984905184,
				"y": -2.7259178217,
				"z": -0.7006994867,
				"element": "C" 
			},
			{
				"x": 0.9603720813,
				"y": -2.4244503469,
				"z": 0.3121128038,
				"element": "N" 
			},
			{
				"x": -0.1705876707,
				"y": -3.8720707027,
				"z": -1.0266616948,
				"element": "O" 
			},
			{
				"x": 0.611328194,
				"y": 0.7263706748,
				"z": -1.0566050175,
				"element": "C" 
			},
			{
				"x": 0.6790542012,
				"y": 1.9714958202,
				"z": -0.4189789447,
				"element": "C" 
			},
			{
				"x": 0.6811774672,
				"y": 4.7940957845,
				"z": -0.1116612377,
				"element": "H" 
			},
			{
				"x": 0.4368500459,
				"y": 5.3324352775,
				"z": 1.572077637,
				"element": "H" 
			},
			{
				"x": 1.6582720564,
				"y": 4.0839329345,
				"z": 1.2074071805,
				"element": "H" 
			},
			{
				"x": -2.242419551,
				"y": -0.4495163815,
				"z": 0.3715917137,
				"element": "H" 
			},
			{
				"x": 0.0459320568,
				"y": -1.4957568925,
				"z": -2.4282526199,
				"element": "H" 
			},
			{
				"x": -1.5178935398,
				"y": -1.8049166477,
				"z": -1.7048754257,
				"element": "H" 
			},
			{
				"x": 1.0936038665,
				"y": -1.4776834088,
				"z": 0.6289829857,
				"element": "H" 
			},
			{
				"x": 1.3349469217,
				"y": -3.188424155,
				"z": 0.8533242298,
				"element": "H" 
			},
			{
				"x": 1.3820228423,
				"y": 0.4631398827,
				"z": -1.7761209716,
				"element": "H" 
			},
			{
				"x": 1.4955890156,
				"y": 2.6446719125,
				"z": -0.6519141316,
				"element": "H" 
			}
		],
		 "valence_orbital": [ 
			{
				"type": "occ",
				"energy": -0.33042,
				"method": "rhf"
			},
			{
				"type": "occ",
				"energy": -0.26497,
				"method": "rhf"
			},
			{
				"type": "occ",
				"energy": -0.25807,
				"method": "rhf"
			},
			{
				"type": "occ",
				"energy": -0.24856,
				"method": "rhf"
			},
			{
				"type": "occ",
				"energy": -0.22157,
				"method": "rhf"
			},
			{
				"type": "unocc",
				"energy": -0.01274,
				"method": "rhf"
			},
			{
				"type": "unocc",
				"energy": -0.0048,
				"method": "rhf"
			},
			{
				"type": "unocc",
				"energy": 0.0357,
				"method": "rhf"
			},
			{
				"type": "unocc",
				"energy": 0.07286,
				"method": "rhf"
			},
			{
				"type": "unocc",
				"energy": 0.09027,
				"method": "rhf"
			}
		],
		"cosmo_sigma_profile": { 
			"-0.025": 0.0,
			"-0.024": 0.0,
			"-0.023": 0.0,
			"-0.022": 0.0,
			"-0.021": 0.0,
			"-0.02": 0.0,
			"-0.019": 0.0,
			"-0.018": 0.0,
			"-0.017": 0.0,
			"-0.016": 0.0,
			"-0.015": 0.0,
			"-0.014": 0.535488764707,
			"-0.013": 1.2966987354,
			"-0.012": 2.1094032731,
			"-0.011": 1.29064137879,
			"-0.01": 2.20919106521,
			"-0.009": 1.43092322217,
			"-0.008": 1.91440106512,
			"-0.007": 6.08585951326,
			"-0.006": 17.8994451623,
			"-0.005": 19.8860689231,
			"-0.004": 18.2647086384,
			"-0.003": 15.970698331,
			"-0.002": 13.1663897786,
			"-0.001": 9.81442559217,
			"0.0": 11.3252514213,
			"0.001": 15.2323307954,
			"0.002": 12.9200984615,
			"0.003": 13.7480542858,
			"0.004": 15.1973926684,
			"0.005": 8.95755575661,
			"0.006": 4.37600769021,
			"0.007": 2.39607134773,
			"0.008": 3.47071609907,
			"0.009": 3.25825515277,
			"0.01": 2.89368383114,
			"0.011": 1.31822647646,
			"0.012": 2.0479476419,
			"0.013": 2.81456140525,
			"0.014": 6.19142129231,
			"0.015": 2.52445527042,
			"0.016": 0.101773541458,
			"0.017": 0.0,
			"0.018": 0.0,
			"0.019": 0.0,
			"0.02": 0.0,
			"0.021": 0.0,
			"0.022": 0.0,
			"0.023": 0.0,
			"0.024": 0.0,
			"0.025": 0.0
		}
	}
}
