{
	 "smiles": "CCOC(=O)N1CCNCC1", 
	 "Tm": 393.15, 
	 "num_atms": 25, 
	 "gaussian": { 
		 "optdone": 1, 
		 "sigma_profile": "yes", 
		 "theory": "DFT", 
		 "functional": "B3LYP", 
		 "basiset": "6-31G**", 
		 "properties": { 
			 "R2extent": 2331.4663, 
			 "electric_dipole_moment_norm": 2.48164272207, 
			 "electric_quadrupole_moment_norm": 7.29526205972, 
			 "total_energy": -535.15175955, 
			 "HOMO_LUMO_gap": 0.28238, 
			 "cosmo_polarized_energy": -9.49, 
			 "cosmo_cavitation_energy": 26.47, 
			 "cosmo_dispersion_energy": -19.74, 
			 "cosmo_repulsion_energy": 1.63, 
			 "cosmo_total_nonelectrostatic_energy": 8.36, 
			 "SMD_solvation_energy": 2.79 
		},
		"coords": [
			{
				"x": -0.0996389886,
				"y": 1.0244097047,
				"z": 3.8938436247,
				"element": "C" 
			},
			{
				"x": -1.3861379486,
				"y": 1.262397392,
				"z": 3.117179302,
				"element": "C" 
			},
			{
				"x": -1.1606467926,
				"y": 1.2306560686,
				"z": 1.6921116226,
				"element": "O" 
			},
			{
				"x": -1.1620731405,
				"y": -0.0085961905,
				"z": 1.1245329489,
				"element": "C" 
			},
			{
				"x": -1.3699474693,
				"y": -1.0391215308,
				"z": 1.7485285585,
				"element": "O" 
			},
			{
				"x": -0.8942438102,
				"y": 0.0492499508,
				"z": -0.2149909175,
				"element": "N" 
			},
			{
				"x": -0.7495172013,
				"y": 1.2844816035,
				"z": -0.9848833755,
				"element": "C" 
			},
			{
				"x": 0.4403268885,
				"y": 1.1599455729,
				"z": -1.9406764287,
				"element": "C" 
			},
			{
				"x": 0.2676567938,
				"y": -0.0296560465,
				"z": -2.7746968594,
				"element": "N" 
			},
			{
				"x": 0.2355294118,
				"y": -1.2457093592,
				"z": -1.9594122306,
				"element": "C" 
			},
			{
				"x": -0.9587770963,
				"y": -1.1783048385,
				"z": -1.006563908,
				"element": "C" 
			},
			{
				"x": 0.2738237395,
				"y": 0.0147238018,
				"z": 3.7072311428,
				"element": "H" 
			},
			{
				"x": 0.6696274305,
				"y": 1.747987784,
				"z": 3.6070484716,
				"element": "H" 
			},
			{
				"x": -0.286721732,
				"y": 1.1293972265,
				"z": 4.9680286931,
				"element": "H" 
			},
			{
				"x": -2.1408377651,
				"y": 0.5152660173,
				"z": 3.3730895262,
				"element": "H" 
			},
			{
				"x": -1.786711126,
				"y": 2.2621591924,
				"z": 3.3050650819,
				"element": "H" 
			},
			{
				"x": -0.6082597115,
				"y": 2.1175466364,
				"z": -0.2989013009,
				"element": "H" 
			},
			{
				"x": -1.6626555975,
				"y": 1.4623209662,
				"z": -1.5717078468,
				"element": "H" 
			},
			{
				"x": 0.4799300905,
				"y": 2.0454991047,
				"z": -2.5844335648,
				"element": "H" 
			},
			{
				"x": 1.3695602833,
				"y": 1.1339744395,
				"z": -1.3403363804,
				"element": "H" 
			},
			{
				"x": 1.0176266896,
				"y": -0.0873670659,
				"z": -3.4574306763,
				"element": "H" 
			},
			{
				"x": 0.1251333717,
				"y": -2.1140934234,
				"z": -2.6178553656,
				"element": "H" 
			},
			{
				"x": 1.1557658647,
				"y": -1.3867053405,
				"z": -1.3617979835,
				"element": "H" 
			},
			{
				"x": -1.8881828312,
				"y": -1.1894278133,
				"z": -1.5943746474,
				"element": "H" 
			},
			{
				"x": -0.9697293534,
				"y": -2.0222338528,
				"z": -0.3170974869,
				"element": "H" 
			}
		],
		 "valence_orbital": [ 
			{
				"type": "occ",
				"energy": -0.32965,
				"method": "rhf"
			},
			{
				"type": "occ",
				"energy": -0.28432,
				"method": "rhf"
			},
			{
				"type": "occ",
				"energy": -0.26122,
				"method": "rhf"
			},
			{
				"type": "occ",
				"energy": -0.23881,
				"method": "rhf"
			},
			{
				"type": "occ",
				"energy": -0.22423,
				"method": "rhf"
			},
			{
				"type": "unocc",
				"energy": 0.05815,
				"method": "rhf"
			},
			{
				"type": "unocc",
				"energy": 0.08344,
				"method": "rhf"
			},
			{
				"type": "unocc",
				"energy": 0.11469,
				"method": "rhf"
			},
			{
				"type": "unocc",
				"energy": 0.12121,
				"method": "rhf"
			},
			{
				"type": "unocc",
				"energy": 0.12843,
				"method": "rhf"
			}
		],
		"cosmo_sigma_profile": { 
			"-0.025": 0.0,
			"-0.024": 0.0,
			"-0.023": 0.0,
			"-0.022": 0.0,
			"-0.021": 0.0,
			"-0.02": 0.0,
			"-0.019": 0.0,
			"-0.018": 0.0,
			"-0.017": 0.0,
			"-0.016": 0.0,
			"-0.015": 0.0,
			"-0.014": 0.0,
			"-0.013": 0.0,
			"-0.012": 0.0,
			"-0.011": 0.202234923313,
			"-0.01": 1.39080176651,
			"-0.009": 1.34017987204,
			"-0.008": 1.37793928882,
			"-0.007": 1.18715713271,
			"-0.006": 1.84221479299,
			"-0.005": 6.33097190835,
			"-0.004": 21.7160395732,
			"-0.003": 30.0330423023,
			"-0.002": 33.4230245629,
			"-0.001": 25.5079003038,
			"0.0": 19.0236420709,
			"0.001": 13.0205344481,
			"0.002": 8.33459230258,
			"0.003": 4.81512140597,
			"0.004": 4.81214484589,
			"0.005": 5.12492286575,
			"0.006": 3.95139114358,
			"0.007": 3.04214145092,
			"0.008": 2.7091445629,
			"0.009": 1.96196780782,
			"0.01": 1.39654386163,
			"0.011": 2.25989912347,
			"0.012": 2.05974824486,
			"0.013": 4.24477333639,
			"0.014": 3.14368834529,
			"0.015": 0.374272999553,
			"0.016": 0.436999863494,
			"0.017": 0.568727336352,
			"0.018": 0.119001436601,
			"0.019": 0.0,
			"0.02": 0.0,
			"0.021": 0.0,
			"0.022": 0.0,
			"0.023": 0.0,
			"0.024": 0.0,
			"0.025": 0.0
		}
	}
}
