{
	 "smiles": "CC(C)(C)C1=C(O)C=CC=N1", 
	 "Tm": 433.15, 
	 "num_atms": 24, 
	 "gaussian": { 
		 "optdone": 1, 
		 "sigma_profile": "yes", 
		 "theory": "DFT", 
		 "functional": "B3LYP", 
		 "basiset": "6-31G**", 
		 "properties": { 
			 "R2extent": 1782.9819, 
			 "electric_dipole_moment_norm": 3.23220494554, 
			 "electric_quadrupole_moment_norm": 8.85976762393, 
			 "total_energy": -480.770950724, 
			 "HOMO_LUMO_gap": 0.21071, 
			 "cosmo_polarized_energy": -9.49, 
			 "cosmo_cavitation_energy": 25.58, 
			 "cosmo_dispersion_energy": -18.67, 
			 "cosmo_repulsion_energy": 1.5, 
			 "cosmo_total_nonelectrostatic_energy": 8.4, 
			 "SMD_solvation_energy": 4.22 
		},
		"coords": [
			{
				"x": -1.0438034142,
				"y": 1.7374028345,
				"z": -1.3832932268,
				"element": "C" 
			},
			{
				"x": -0.426945243,
				"y": 1.2368663609,
				"z": -0.0542270883,
				"element": "C" 
			},
			{
				"x": -1.3912451399,
				"y": 1.5375089662,
				"z": 1.1192961175,
				"element": "C" 
			},
			{
				"x": 0.8878466956,
				"y": 2.000182001,
				"z": 0.1893023985,
				"element": "C" 
			},
			{
				"x": -0.1568070449,
				"y": -0.2758838025,
				"z": -0.1377465804,
				"element": "C" 
			},
			{
				"x": -1.1830554771,
				"y": -1.2298215576,
				"z": -0.3561435093,
				"element": "C" 
			},
			{
				"x": -2.4764897628,
				"y": -0.8025947569,
				"z": -0.500909015,
				"element": "O" 
			},
			{
				"x": -0.8597233885,
				"y": -2.5844359092,
				"z": -0.4198939887,
				"element": "C" 
			},
			{
				"x": 0.4673853434,
				"y": -2.9791919445,
				"z": -0.2678926705,
				"element": "C" 
			},
			{
				"x": 1.4175341153,
				"y": -1.9863460828,
				"z": -0.0569118385,
				"element": "C" 
			},
			{
				"x": 1.1090151167,
				"y": -0.6859274693,
				"z": 0.004565446,
				"element": "N" 
			},
			{
				"x": -0.361900618,
				"y": 1.552700287,
				"z": -2.2205201462,
				"element": "H" 
			},
			{
				"x": -1.217990301,
				"y": 2.8178421051,
				"z": -1.3266162755,
				"element": "H" 
			},
			{
				"x": -1.9963450556,
				"y": 1.2504237156,
				"z": -1.6003180364,
				"element": "H" 
			},
			{
				"x": -0.9577750368,
				"y": 1.2096776556,
				"z": 2.070440901,
				"element": "H" 
			},
			{
				"x": -1.5665939985,
				"y": 2.6171426471,
				"z": 1.1867329725,
				"element": "H" 
			},
			{
				"x": -2.3563104905,
				"y": 1.0436742282,
				"z": 0.9915988165,
				"element": "H" 
			},
			{
				"x": 0.6754551187,
				"y": 3.073616867,
				"z": 0.245662586,
				"element": "H" 
			},
			{
				"x": 1.6068574698,
				"y": 1.8292474386,
				"z": -0.6156713471,
				"element": "H" 
			},
			{
				"x": 1.365680447,
				"y": 1.6902965153,
				"z": 1.1219516242,
				"element": "H" 
			},
			{
				"x": -3.0476544176,
				"y": -1.5693829018,
				"z": -0.6416597967,
				"element": "H" 
			},
			{
				"x": -1.6447760505,
				"y": -3.3201621601,
				"z": -0.5874376321,
				"element": "H" 
			},
			{
				"x": 0.7493214665,
				"y": -4.0263976251,
				"z": -0.312725626,
				"element": "H" 
			},
			{
				"x": 2.4688196659,
				"y": -2.2380374123,
				"z": 0.0684159152,
				"element": "H" 
			}
		],
		 "valence_orbital": [ 
			{
				"type": "occ",
				"energy": -0.3182,
				"method": "rhf"
			},
			{
				"type": "occ",
				"energy": -0.30977,
				"method": "rhf"
			},
			{
				"type": "occ",
				"energy": -0.27535,
				"method": "rhf"
			},
			{
				"type": "occ",
				"energy": -0.24375,
				"method": "rhf"
			},
			{
				"type": "occ",
				"energy": -0.22781,
				"method": "rhf"
			},
			{
				"type": "unocc",
				"energy": -0.0171,
				"method": "rhf"
			},
			{
				"type": "unocc",
				"energy": 0.00282,
				"method": "rhf"
			},
			{
				"type": "unocc",
				"energy": 0.05908,
				"method": "rhf"
			},
			{
				"type": "unocc",
				"energy": 0.09885,
				"method": "rhf"
			},
			{
				"type": "unocc",
				"energy": 0.10804,
				"method": "rhf"
			}
		],
		"cosmo_sigma_profile": { 
			"-0.025": 0.0,
			"-0.024": 0.0,
			"-0.023": 0.0,
			"-0.022": 0.0,
			"-0.021": 0.0,
			"-0.02": 0.0,
			"-0.019": 0.0,
			"-0.018": 0.632522409249,
			"-0.017": 1.2359696291,
			"-0.016": 1.13199311168,
			"-0.015": 1.13861535417,
			"-0.014": 1.02097132687,
			"-0.013": 1.31228841606,
			"-0.012": 0.705659839515,
			"-0.011": 0.59321878183,
			"-0.01": 1.27964402906,
			"-0.009": 1.23566866757,
			"-0.008": 1.48702726779,
			"-0.007": 2.53148255436,
			"-0.006": 4.87565549943,
			"-0.005": 6.90373440765,
			"-0.004": 5.88065738256,
			"-0.003": 7.9471886587,
			"-0.002": 19.4078525997,
			"-0.001": 17.5356578648,
			"0.0": 20.9362952342,
			"0.001": 24.3224627675,
			"0.002": 30.4005050084,
			"0.003": 14.4789862658,
			"0.004": 11.6105512757,
			"0.005": 6.56341303479,
			"0.006": 4.68387327953,
			"0.007": 2.48812416318,
			"0.008": 1.32392716352,
			"0.009": 1.93151115804,
			"0.01": 1.16684551692,
			"0.011": 1.33682613676,
			"0.012": 0.682023335903,
			"0.013": 0.749591147144,
			"0.014": 0.562047397601,
			"0.015": 0.239211320945,
			"0.016": 0.0,
			"0.017": 0.0,
			"0.018": 0.0,
			"0.019": 0.0,
			"0.02": 0.0,
			"0.021": 0.0,
			"0.022": 0.0,
			"0.023": 0.0,
			"0.024": 0.0,
			"0.025": 0.0
		}
	}
}
