{
	 "smiles": "NC1=C(C=CC2=CC=CC=C2)C=C2CC(NC2=C1)C1=CC=CC=C1", 
	 "Tm": 436.15, 
	 "num_atms": 44, 
	 "gaussian": { 
		 "optdone": 1, 
		 "sigma_profile": "yes", 
		 "theory": "DFT", 
		 "functional": "B3LYP", 
		 "basiset": "6-31G**", 
		 "properties": { 
			 "R2extent": 13128.0986, 
			 "electric_dipole_moment_norm": 2.90026722217, 
			 "electric_quadrupole_moment_norm": 10.0595547511, 
			 "total_energy": -959.901214594, 
			 "HOMO_LUMO_gap": 0.13502, 
			 "cosmo_polarized_energy": -14.72, 
			 "cosmo_cavitation_energy": 47.1, 
			 "cosmo_dispersion_energy": -33.56, 
			 "cosmo_repulsion_energy": 2.54, 
			 "cosmo_total_nonelectrostatic_energy": 16.07, 
			 "SMD_solvation_energy": 5.94 
		},
		"coords": [
			{
				"x": -2.8087145485,
				"y": -1.4336886116,
				"z": 1.0205185879,
				"element": "N" 
			},
			{
				"x": -1.4849225827,
				"y": -0.9995525912,
				"z": 1.1604920317,
				"element": "C" 
			},
			{
				"x": -0.9508932269,
				"y": -0.0476778855,
				"z": 0.2478356761,
				"element": "C" 
			},
			{
				"x": -1.7936141003,
				"y": 0.4970602007,
				"z": -0.8151864497,
				"element": "C" 
			},
			{
				"x": -1.3704075752,
				"y": 0.980864052,
				"z": -2.0044116262,
				"element": "C" 
			},
			{
				"x": -2.1993753646,
				"y": 1.5941170256,
				"z": -3.0455251169,
				"element": "C" 
			},
			{
				"x": -1.6516316619,
				"y": 1.7911058889,
				"z": -4.3281800246,
				"element": "C" 
			},
			{
				"x": -2.4020485908,
				"y": 2.3524144255,
				"z": -5.3593424288,
				"element": "C" 
			},
			{
				"x": -3.7246727218,
				"y": 2.7382254489,
				"z": -5.1347505223,
				"element": "C" 
			},
			{
				"x": -4.2823956483,
				"y": 2.5620240816,
				"z": -3.8646082311,
				"element": "C" 
			},
			{
				"x": -3.5314080245,
				"y": 2.0049170151,
				"z": -2.8337578717,
				"element": "C" 
			},
			{
				"x": 0.3867148228,
				"y": 0.3730499806,
				"z": 0.4270345707,
				"element": "C" 
			},
			{
				"x": 1.1588380853,
				"y": -0.1167486119,
				"z": 1.4610697988,
				"element": "C" 
			},
			{
				"x": 2.5714022454,
				"y": 0.1990702501,
				"z": 1.9007621371,
				"element": "C" 
			},
			{
				"x": 2.8731437634,
				"y": -0.916006233,
				"z": 2.9612956468,
				"element": "C" 
			},
			{
				"x": 1.5222844919,
				"y": -1.3636420049,
				"z": 3.3613587327,
				"element": "N" 
			},
			{
				"x": 0.602951186,
				"y": -1.0396316499,
				"z": 2.3661378865,
				"element": "C" 
			},
			{
				"x": -0.7058719498,
				"y": -1.4908137564,
				"z": 2.2227527766,
				"element": "C" 
			},
			{
				"x": 3.7547995893,
				"y": -2.0383477523,
				"z": 2.4294484032,
				"element": "C" 
			},
			{
				"x": 3.259290548,
				"y": -3.0109926477,
				"z": 1.5479451151,
				"element": "C" 
			},
			{
				"x": 4.0948708921,
				"y": -4.0132159301,
				"z": 1.0542912904,
				"element": "C" 
			},
			{
				"x": 5.4380649553,
				"y": -4.062845789,
				"z": 1.4347355578,
				"element": "C" 
			},
			{
				"x": 5.9401223038,
				"y": -3.1028680271,
				"z": 2.3141241787,
				"element": "C" 
			},
			{
				"x": 5.1017420342,
				"y": -2.1014986184,
				"z": 2.8074832253,
				"element": "C" 
			},
			{
				"x": -3.1197448586,
				"y": -1.5440486407,
				"z": 0.0651127931,
				"element": "H" 
			},
			{
				"x": -3.0390853833,
				"y": -2.2461941878,
				"z": 1.5763359789,
				"element": "H" 
			},
			{
				"x": -2.8618953491,
				"y": 0.5146576297,
				"z": -0.6007809819,
				"element": "H" 
			},
			{
				"x": -0.3129590473,
				"y": 0.8951395727,
				"z": -2.252023393,
				"element": "H" 
			},
			{
				"x": -0.6231059367,
				"y": 1.490214772,
				"z": -4.5127263002,
				"element": "H" 
			},
			{
				"x": -1.9530436869,
				"y": 2.4893297378,
				"z": -6.3393532076,
				"element": "H" 
			},
			{
				"x": -4.3119785238,
				"y": 3.178959841,
				"z": -5.9350533351,
				"element": "H" 
			},
			{
				"x": -5.3064032551,
				"y": 2.8721466467,
				"z": -3.6742372419,
				"element": "H" 
			},
			{
				"x": -3.9754048906,
				"y": 1.9036198521,
				"z": -1.8480017842,
				"element": "H" 
			},
			{
				"x": 0.792834551,
				"y": 1.1171271937,
				"z": -0.2526761911,
				"element": "H" 
			},
			{
				"x": 2.6275330001,
				"y": 1.1878046613,
				"z": 2.374334623,
				"element": "H" 
			},
			{
				"x": 3.3031645237,
				"y": 0.1845515221,
				"z": 1.0877968417,
				"element": "H" 
			},
			{
				"x": 3.377908663,
				"y": -0.4771615681,
				"z": 3.8289002412,
				"element": "H" 
			},
			{
				"x": 1.4592550988,
				"y": -2.2793486852,
				"z": 3.7872091275,
				"element": "H" 
			},
			{
				"x": -1.1257862188,
				"y": -2.2204740783,
				"z": 2.9111102263,
				"element": "H" 
			},
			{
				"x": 2.2172762517,
				"y": -2.9809834979,
				"z": 1.2435013484,
				"element": "H" 
			},
			{
				"x": 3.6959124838,
				"y": -4.7577442236,
				"z": 0.3708460801,
				"element": "H" 
			},
			{
				"x": 6.0861071412,
				"y": -4.8458870002,
				"z": 1.0516096786,
				"element": "H" 
			},
			{
				"x": 6.9813740539,
				"y": -3.1365044639,
				"z": 2.6225191626,
				"element": "H" 
			},
			{
				"x": 5.4967724608,
				"y": -1.3599233436,
				"z": 3.4983529893,
				"element": "H" 
			}
		],
		 "valence_orbital": [ 
			{
				"type": "occ",
				"energy": -0.24704,
				"method": "rhf"
			},
			{
				"type": "occ",
				"energy": -0.24175,
				"method": "rhf"
			},
			{
				"type": "occ",
				"energy": -0.22176,
				"method": "rhf"
			},
			{
				"type": "occ",
				"energy": -0.20978,
				"method": "rhf"
			},
			{
				"type": "occ",
				"energy": -0.16946,
				"method": "rhf"
			},
			{
				"type": "unocc",
				"energy": -0.03444,
				"method": "rhf"
			},
			{
				"type": "unocc",
				"energy": -0.00621,
				"method": "rhf"
			},
			{
				"type": "unocc",
				"energy": -0.00363,
				"method": "rhf"
			},
			{
				"type": "unocc",
				"energy": 0.00879,
				"method": "rhf"
			},
			{
				"type": "unocc",
				"energy": 0.01523,
				"method": "rhf"
			}
		],
		"cosmo_sigma_profile": { 
			"-0.025": 0.0,
			"-0.024": 0.0,
			"-0.023": 0.0,
			"-0.022": 0.0,
			"-0.021": 0.0,
			"-0.02": 0.0,
			"-0.019": 0.0,
			"-0.018": 0.0,
			"-0.017": 0.0,
			"-0.016": 0.0,
			"-0.015": 0.0,
			"-0.014": 0.0,
			"-0.013": 0.0836105554377,
			"-0.012": 2.41379520573,
			"-0.011": 3.77383830311,
			"-0.01": 2.95420704833,
			"-0.009": 4.55196190088,
			"-0.008": 4.1124667737,
			"-0.007": 3.81232702761,
			"-0.006": 11.2351234786,
			"-0.005": 29.7657847839,
			"-0.004": 33.0639609741,
			"-0.003": 37.1864870081,
			"-0.002": 25.7917320681,
			"-0.001": 27.3502355183,
			"0.0": 19.9069630471,
			"0.001": 19.6407657669,
			"0.002": 21.7318961171,
			"0.003": 22.0743852722,
			"0.004": 24.595352852,
			"0.005": 28.6620196894,
			"0.006": 32.7376274728,
			"0.007": 11.2698610443,
			"0.008": 1.80658709834,
			"0.009": 1.35422842155,
			"0.01": 1.44359321064,
			"0.011": 1.2193094329,
			"0.012": 0.985311490689,
			"0.013": 0.59542764076,
			"0.014": 0.861438478269,
			"0.015": 0.131997662041,
			"0.016": 0.0,
			"0.017": 0.0,
			"0.018": 0.0,
			"0.019": 0.0,
			"0.02": 0.0,
			"0.021": 0.0,
			"0.022": 0.0,
			"0.023": 0.0,
			"0.024": 0.0,
			"0.025": 0.0
		}
	}
}
