{
	 "smiles": "OC(=O)C1=NC(OC2=CC(Cl)=CC=C2)=CC=C1", 
	 "Tm": 370.15, 
	 "num_atms": 25, 
	 "gaussian": { 
		 "optdone": 1, 
		 "sigma_profile": "yes", 
		 "theory": "DFT", 
		 "functional": "B3LYP", 
		 "basiset": "6-31G**", 
		 "properties": { 
			 "R2extent": 8016.9204, 
			 "electric_dipole_moment_norm": 6.20304601627, 
			 "electric_quadrupole_moment_norm": 24.3681324851, 
			 "total_energy": -1202.7219355, 
			 "HOMO_LUMO_gap": 0.18879, 
			 "cosmo_polarized_energy": -14.23, 
			 "cosmo_cavitation_energy": 32.89, 
			 "cosmo_dispersion_energy": -23.94, 
			 "cosmo_repulsion_energy": 1.87, 
			 "cosmo_total_nonelectrostatic_energy": 10.82, 
			 "SMD_solvation_energy": 5.99 
		},
		"coords": [
			{
				"x": -4.2198508194,
				"y": -2.6702329506,
				"z": 0.2164126445,
				"element": "O" 
			},
			{
				"x": -3.5638068146,
				"y": -2.9738989653,
				"z": -0.9131352914,
				"element": "C" 
			},
			{
				"x": -3.7397282977,
				"y": -4.0007017338,
				"z": -1.5289959713,
				"element": "O" 
			},
			{
				"x": -2.5802239087,
				"y": -1.913757489,
				"z": -1.3491423301,
				"element": "C" 
			},
			{
				"x": -2.5027699065,
				"y": -0.8381112487,
				"z": -0.5495912348,
				"element": "N" 
			},
			{
				"x": -1.6563987342,
				"y": 0.1299295812,
				"z": -0.8784109241,
				"element": "C" 
			},
			{
				"x": -1.6753460439,
				"y": 1.1829391662,
				"z": -0.007664739,
				"element": "O" 
			},
			{
				"x": -0.7283837635,
				"y": 2.1929217717,
				"z": -0.1164152445,
				"element": "C" 
			},
			{
				"x": -1.1374767636,
				"y": 3.4236517385,
				"z": -0.6274858856,
				"element": "C" 
			},
			{
				"x": -0.2122193629,
				"y": 4.4667880933,
				"z": -0.6611936541,
				"element": "C" 
			},
			{
				"x": -0.7089926318,
				"y": 6.0249748181,
				"z": -1.2972335418,
				"element": "Cl" 
			},
			{
				"x": 1.0942035277,
				"y": 4.2969531211,
				"z": -0.2024453683,
				"element": "C" 
			},
			{
				"x": 1.4744723605,
				"y": 3.0532413014,
				"z": 0.3054842943,
				"element": "C" 
			},
			{
				"x": 0.5692497985,
				"y": 1.9931662362,
				"z": 0.3559104148,
				"element": "C" 
			},
			{
				"x": -0.8447109261,
				"y": 0.0787552921,
				"z": -2.023539465,
				"element": "C" 
			},
			{
				"x": -0.939085592,
				"y": -1.0461274894,
				"z": -2.8375357302,
				"element": "C" 
			},
			{
				"x": -1.8220775175,
				"y": -2.0748572264,
				"z": -2.5038601679,
				"element": "C" 
			},
			{
				"x": -3.8889630817,
				"y": -1.7930105295,
				"z": 0.5018287183,
				"element": "H" 
			},
			{
				"x": -2.1544287067,
				"y": 3.5572934695,
				"z": -0.9763697074,
				"element": "H" 
			},
			{
				"x": 1.7942767788,
				"y": 5.1236341236,
				"z": -0.2377543667,
				"element": "H" 
			},
			{
				"x": 2.4864626756,
				"y": 2.9137306906,
				"z": 0.672722156,
				"element": "H" 
			},
			{
				"x": 0.8510322193,
				"y": 1.0284634456,
				"z": 0.7638433117,
				"element": "H" 
			},
			{
				"x": -0.1721344809,
				"y": 0.8925033103,
				"z": -2.2633055378,
				"element": "H" 
			},
			{
				"x": -0.3261341416,
				"y": -1.1145093112,
				"z": -3.7313168511,
				"element": "H" 
			},
			{
				"x": -1.9369658671,
				"y": -2.9720392154,
				"z": -3.0992055284,
				"element": "H" 
			}
		],
		 "valence_orbital": [ 
			{
				"type": "occ",
				"energy": -0.30941,
				"method": "rhf"
			},
			{
				"type": "occ",
				"energy": -0.27868,
				"method": "rhf"
			},
			{
				"type": "occ",
				"energy": -0.27029,
				"method": "rhf"
			},
			{
				"type": "occ",
				"energy": -0.26808,
				"method": "rhf"
			},
			{
				"type": "occ",
				"energy": -0.2582,
				"method": "rhf"
			},
			{
				"type": "unocc",
				"energy": -0.06941,
				"method": "rhf"
			},
			{
				"type": "unocc",
				"energy": -0.03857,
				"method": "rhf"
			},
			{
				"type": "unocc",
				"energy": -0.03291,
				"method": "rhf"
			},
			{
				"type": "unocc",
				"energy": -0.02773,
				"method": "rhf"
			},
			{
				"type": "unocc",
				"energy": 0.01294,
				"method": "rhf"
			}
		],
		"cosmo_sigma_profile": { 
			"-0.025": 0.0,
			"-0.024": 0.0,
			"-0.023": 0.0,
			"-0.022": 0.0,
			"-0.021": 0.0,
			"-0.02": 0.0,
			"-0.019": 0.0,
			"-0.018": 0.0,
			"-0.017": 0.0,
			"-0.016": 0.0,
			"-0.015": 0.0,
			"-0.014": 0.0317517742124,
			"-0.013": 0.459138747421,
			"-0.012": 0.602281403785,
			"-0.011": 0.433579630017,
			"-0.01": 0.644265666043,
			"-0.009": 0.946923849584,
			"-0.008": 7.27456841536,
			"-0.007": 14.4925696406,
			"-0.006": 16.0286299095,
			"-0.005": 14.6781486052,
			"-0.004": 15.60124716,
			"-0.003": 14.899864566,
			"-0.002": 18.0814132211,
			"-0.001": 21.0685035613,
			"0.0": 23.5735595054,
			"0.001": 27.403680317,
			"0.002": 19.9513245904,
			"0.003": 15.1353672745,
			"0.004": 15.0158882303,
			"0.005": 6.58059209356,
			"0.006": 3.84142324992,
			"0.007": 4.75484043371,
			"0.008": 3.99998903209,
			"0.009": 6.20669485757,
			"0.01": 6.08942141165,
			"0.011": 5.04164379945,
			"0.012": 3.60126266577,
			"0.013": 1.19180475148,
			"0.014": 0.000889544248807,
			"0.015": 0.0,
			"0.016": 0.0,
			"0.017": 0.0,
			"0.018": 0.0,
			"0.019": 0.0,
			"0.02": 0.0,
			"0.021": 0.0,
			"0.022": 0.0,
			"0.023": 0.0,
			"0.024": 0.0,
			"0.025": 0.0
		}
	}
}
