{
	 "smiles": "CC[C@H](NC(=O)OC(C)(C)C)C(O)=O", 
	 "Tm": 390.15, 
	 "num_atms": 31, 
	 "gaussian": { 
		 "optdone": 1, 
		 "sigma_profile": "yes", 
		 "theory": "DFT", 
		 "functional": "B3LYP", 
		 "basiset": "6-31G**", 
		 "properties": { 
			 "R2extent": 3869.6347, 
			 "electric_dipole_moment_norm": 2.99149100617, 
			 "electric_quadrupole_moment_norm": 8.12716481314, 
			 "total_energy": -708.911410435, 
			 "HOMO_LUMO_gap": 0.25255, 
			 "cosmo_polarized_energy": -13.86, 
			 "cosmo_cavitation_energy": 33.89, 
			 "cosmo_dispersion_energy": -22.96, 
			 "cosmo_repulsion_energy": 1.88, 
			 "cosmo_total_nonelectrostatic_energy": 12.8, 
			 "SMD_solvation_energy": 8.3 
		},
		"coords": [
			{
				"x": 1.3516475839,
				"y": 2.2415791997,
				"z": 2.4483405727,
				"element": "C" 
			},
			{
				"x": 2.2014541061,
				"y": 0.9767345364,
				"z": 2.3197515718,
				"element": "C" 
			},
			{
				"x": 1.8679893137,
				"y": 0.1531965531,
				"z": 1.0579346651,
				"element": "C" 
			},
			{
				"x": 0.5085722977,
				"y": -0.3453174428,
				"z": 1.0640647547,
				"element": "N" 
			},
			{
				"x": -0.2746058206,
				"y": -0.2816236636,
				"z": -0.0631735959,
				"element": "C" 
			},
			{
				"x": 0.0058293171,
				"y": 0.3663495995,
				"z": -1.0587578696,
				"element": "O" 
			},
			{
				"x": -1.3925820835,
				"y": -1.0174342304,
				"z": 0.133117908,
				"element": "O" 
			},
			{
				"x": -2.4394870348,
				"y": -1.092678663,
				"z": -0.8989714432,
				"element": "C" 
			},
			{
				"x": -3.4807215364,
				"y": -2.0071286986,
				"z": -0.248396638,
				"element": "C" 
			},
			{
				"x": -1.8746571657,
				"y": -1.730530957,
				"z": -2.1726801323,
				"element": "C" 
			},
			{
				"x": -3.0231850626,
				"y": 0.3005934583,
				"z": -1.1561225797,
				"element": "C" 
			},
			{
				"x": 2.9273134605,
				"y": -0.9349353999,
				"z": 0.8550195164,
				"element": "C" 
			},
			{
				"x": 2.4030761822,
				"y": -2.1642671527,
				"z": 0.6437260837,
				"element": "O" 
			},
			{
				"x": 4.1202678243,
				"y": -0.7273272238,
				"z": 0.8803841762,
				"element": "O" 
			},
			{
				"x": 1.5156789891,
				"y": 2.9145270015,
				"z": 1.5996445544,
				"element": "H" 
			},
			{
				"x": 0.2851039338,
				"y": 2.0009283283,
				"z": 2.4815016074,
				"element": "H" 
			},
			{
				"x": 1.6058165002,
				"y": 2.7865642803,
				"z": 3.3626478221,
				"element": "H" 
			},
			{
				"x": 3.265210378,
				"y": 1.2269558055,
				"z": 2.2757730289,
				"element": "H" 
			},
			{
				"x": 2.0666574236,
				"y": 0.3405008472,
				"z": 3.205425934,
				"element": "H" 
			},
			{
				"x": 1.9422091678,
				"y": 0.8033703954,
				"z": 0.1788128432,
				"element": "H" 
			},
			{
				"x": 0.2556656954,
				"y": -1.0531407372,
				"z": 1.7387349882,
				"element": "H" 
			},
			{
				"x": -4.3296158833,
				"y": -2.1496729128,
				"z": -0.9236286881,
				"element": "H" 
			},
			{
				"x": -3.0482212008,
				"y": -2.9865228239,
				"z": -0.0238673823,
				"element": "H" 
			},
			{
				"x": -3.8493259427,
				"y": -1.5706395884,
				"z": 0.6844817752,
				"element": "H" 
			},
			{
				"x": -2.6833318062,
				"y": -1.8897777674,
				"z": -2.8934312472,
				"element": "H" 
			},
			{
				"x": -1.4270892223,
				"y": -2.7028902627,
				"z": -1.9437498448,
				"element": "H" 
			},
			{
				"x": -1.1177978779,
				"y": -1.0910192071,
				"z": -2.627320219,
				"element": "H" 
			},
			{
				"x": -2.2770415742,
				"y": 0.9610529382,
				"z": -1.5985185903,
				"element": "H" 
			},
			{
				"x": -3.3786619866,
				"y": 0.7423050183,
				"z": -0.2197360357,
				"element": "H" 
			},
			{
				"x": -3.8752277838,
				"y": 0.2215449901,
				"z": -1.8391459704,
				"element": "H" 
			},
			{
				"x": 3.1630598076,
				"y": -2.7569962202,
				"z": 0.5144384343,
				"element": "H" 
			}
		],
		 "valence_orbital": [ 
			{
				"type": "occ",
				"energy": -0.32173,
				"method": "rhf"
			},
			{
				"type": "occ",
				"energy": -0.2966,
				"method": "rhf"
			},
			{
				"type": "occ",
				"energy": -0.28823,
				"method": "rhf"
			},
			{
				"type": "occ",
				"energy": -0.26662,
				"method": "rhf"
			},
			{
				"type": "occ",
				"energy": -0.24893,
				"method": "rhf"
			},
			{
				"type": "unocc",
				"energy": 0.00362,
				"method": "rhf"
			},
			{
				"type": "unocc",
				"energy": 0.05203,
				"method": "rhf"
			},
			{
				"type": "unocc",
				"energy": 0.06819,
				"method": "rhf"
			},
			{
				"type": "unocc",
				"energy": 0.08681,
				"method": "rhf"
			},
			{
				"type": "unocc",
				"energy": 0.10157,
				"method": "rhf"
			}
		],
		"cosmo_sigma_profile": { 
			"-0.025": 0.0,
			"-0.024": 0.0,
			"-0.023": 0.0,
			"-0.022": 0.0,
			"-0.021": 0.0,
			"-0.02": 0.0,
			"-0.019": 0.104790337466,
			"-0.018": 0.874139241225,
			"-0.017": 0.901666297371,
			"-0.016": 1.08176037577,
			"-0.015": 0.431222918418,
			"-0.014": 1.15761670878,
			"-0.013": 1.25031007317,
			"-0.012": 1.97063965782,
			"-0.011": 2.22212291554,
			"-0.01": 1.31349831119,
			"-0.009": 1.50150386349,
			"-0.008": 1.71497066054,
			"-0.007": 2.3343972288,
			"-0.006": 3.29744727148,
			"-0.005": 5.30352756032,
			"-0.004": 17.6818193356,
			"-0.003": 26.94838978,
			"-0.002": 26.4797970627,
			"-0.001": 29.7598633568,
			"0.0": 36.873350116,
			"0.001": 29.7882337977,
			"0.002": 12.8668190983,
			"0.003": 7.59524137992,
			"0.004": 7.364490129,
			"0.005": 6.37224715692,
			"0.006": 5.70022808656,
			"0.007": 6.43913467335,
			"0.008": 2.69338273226,
			"0.009": 3.59640537698,
			"0.01": 3.58556015895,
			"0.011": 5.23067057246,
			"0.012": 5.9590747887,
			"0.013": 2.84031345252,
			"0.014": 0.0667267768289,
			"0.015": 0.0,
			"0.016": 0.0,
			"0.017": 0.0,
			"0.018": 0.0,
			"0.019": 0.0,
			"0.02": 0.0,
			"0.021": 0.0,
			"0.022": 0.0,
			"0.023": 0.0,
			"0.024": 0.0,
			"0.025": 0.0
		}
	}
}
