{
	 "smiles": "CC1=C(C)C=C(NC2=NN=C(S)S2)C=C1", 
	 "Tm": 455.15, 
	 "num_atms": 26, 
	 "gaussian": { 
		 "optdone": 1, 
		 "sigma_profile": "yes", 
		 "theory": "DFT", 
		 "functional": "B3LYP", 
		 "basiset": "6-31G**", 
		 "properties": { 
			 "R2extent": 7849.9726, 
			 "electric_dipole_moment_norm": 3.03763911122, 
			 "electric_quadrupole_moment_norm": 8.02496466098, 
			 "total_energy": -1348.29857835, 
			 "HOMO_LUMO_gap": 0.1727, 
			 "cosmo_polarized_energy": -14.09, 
			 "cosmo_cavitation_energy": 33.39, 
			 "cosmo_dispersion_energy": -25.7, 
			 "cosmo_repulsion_energy": 1.9, 
			 "cosmo_total_nonelectrostatic_energy": 9.6, 
			 "SMD_solvation_energy": 3.29 
		},
		"coords": [
			{
				"x": -1.1451131304,
				"y": 3.2246276825,
				"z": -1.8828822759,
				"element": "C" 
			},
			{
				"x": -0.6836474077,
				"y": 2.047034029,
				"z": -1.0586274223,
				"element": "C" 
			},
			{
				"x": -0.5035906084,
				"y": 0.7734375399,
				"z": -1.642466135,
				"element": "C" 
			},
			{
				"x": -0.7677805405,
				"y": 0.5510007108,
				"z": -3.1126337339,
				"element": "C" 
			},
			{
				"x": -0.0763268983,
				"y": -0.2868446125,
				"z": -0.8447426609,
				"element": "C" 
			},
			{
				"x": 0.1807035709,
				"y": -0.1237484504,
				"z": 0.5260356813,
				"element": "C" 
			},
			{
				"x": 0.6086811985,
				"y": -1.2682130421,
				"z": 1.2339249598,
				"element": "N" 
			},
			{
				"x": 0.9252504985,
				"y": -1.3967420833,
				"z": 2.5555354132,
				"element": "C" 
			},
			{
				"x": 0.895885139,
				"y": -0.4569600866,
				"z": 3.4615341422,
				"element": "N" 
			},
			{
				"x": 1.2704296743,
				"y": -0.897417857,
				"z": 4.7058725536,
				"element": "N" 
			},
			{
				"x": 1.5791485387,
				"y": -2.1542909788,
				"z": 4.7404273147,
				"element": "C" 
			},
			{
				"x": 2.101115534,
				"y": -3.0273775442,
				"z": 6.186635803,
				"element": "S" 
			},
			{
				"x": 1.4412429228,
				"y": -2.9824510343,
				"z": 3.1845293296,
				"element": "S" 
			},
			{
				"x": 0.0046606061,
				"y": 1.1341837799,
				"z": 1.1105516105,
				"element": "C" 
			},
			{
				"x": -0.4232595972,
				"y": 2.1912057082,
				"z": 0.3064943607,
				"element": "C" 
			},
			{
				"x": -0.4512032329,
				"y": 3.4465544022,
				"z": -2.7033142266,
				"element": "H" 
			},
			{
				"x": -2.125446391,
				"y": 3.0437835039,
				"z": -2.3412525232,
				"element": "H" 
			},
			{
				"x": -1.2285876704,
				"y": 4.1244791889,
				"z": -1.2678374233,
				"element": "H" 
			},
			{
				"x": -1.8057175527,
				"y": 0.78782264,
				"z": -3.3758926081,
				"element": "H" 
			},
			{
				"x": -0.1317773003,
				"y": 1.189573782,
				"z": -3.7374918656,
				"element": "H" 
			},
			{
				"x": -0.580391092,
				"y": -0.4873643373,
				"z": -3.3988606535,
				"element": "H" 
			},
			{
				"x": 0.0607992648,
				"y": -1.2666327691,
				"z": -1.3000299819,
				"element": "H" 
			},
			{
				"x": 0.6895087636,
				"y": -2.1055068177,
				"z": 0.6778741861,
				"element": "H" 
			},
			{
				"x": 2.0091535673,
				"y": -1.9323305583,
				"z": 6.9675623825,
				"element": "H" 
			},
			{
				"x": 0.1989211696,
				"y": 1.2741135253,
				"z": 2.164914876,
				"element": "H" 
			},
			{
				"x": -0.5584590263,
				"y": 3.166963679,
				"z": 0.766638897,
				"element": "H" 
			}
		],
		 "valence_orbital": [ 
			{
				"type": "occ",
				"energy": -0.28751,
				"method": "rhf"
			},
			{
				"type": "occ",
				"energy": -0.26579,
				"method": "rhf"
			},
			{
				"type": "occ",
				"energy": -0.24783,
				"method": "rhf"
			},
			{
				"type": "occ",
				"energy": -0.24001,
				"method": "rhf"
			},
			{
				"type": "occ",
				"energy": -0.20162,
				"method": "rhf"
			},
			{
				"type": "unocc",
				"energy": -0.02892,
				"method": "rhf"
			},
			{
				"type": "unocc",
				"energy": -0.02478,
				"method": "rhf"
			},
			{
				"type": "unocc",
				"energy": 0.00193,
				"method": "rhf"
			},
			{
				"type": "unocc",
				"energy": 0.01031,
				"method": "rhf"
			},
			{
				"type": "unocc",
				"energy": 0.01051,
				"method": "rhf"
			}
		],
		"cosmo_sigma_profile": { 
			"-0.025": 0.0,
			"-0.024": 0.0,
			"-0.023": 0.0,
			"-0.022": 0.0,
			"-0.021": 0.0,
			"-0.02": 0.0,
			"-0.019": 0.0,
			"-0.018": 0.0,
			"-0.017": 0.418862103548,
			"-0.016": 1.38632155127,
			"-0.015": 1.48298583748,
			"-0.014": 1.1468183937,
			"-0.013": 1.54025183333,
			"-0.012": 2.31283873993,
			"-0.011": 3.04842404957,
			"-0.01": 2.22453361808,
			"-0.009": 2.41071788665,
			"-0.008": 3.04997681273,
			"-0.007": 2.3334746303,
			"-0.006": 4.78954659393,
			"-0.005": 8.22413997889,
			"-0.004": 16.5649249441,
			"-0.003": 22.2763748415,
			"-0.002": 20.9573034184,
			"-0.001": 26.4904320473,
			"0.0": 29.9738095026,
			"0.001": 25.909952793,
			"0.002": 19.4057728589,
			"0.003": 16.2834178534,
			"0.004": 13.5817225482,
			"0.005": 13.5378898831,
			"0.006": 12.8038967217,
			"0.007": 4.01437864359,
			"0.008": 1.83483729887,
			"0.009": 3.26192250536,
			"0.01": 2.74271637306,
			"0.011": 3.53573575478,
			"0.012": 1.52625488414,
			"0.013": 1.10735156142,
			"0.014": 0.907605255656,
			"0.015": 0.0587281224756,
			"0.016": 0.0,
			"0.017": 0.0,
			"0.018": 0.0,
			"0.019": 0.0,
			"0.02": 0.0,
			"0.021": 0.0,
			"0.022": 0.0,
			"0.023": 0.0,
			"0.024": 0.0,
			"0.025": 0.0
		}
	}
}
