{
	 "smiles": "OC1(CCCC1)C#C", 
	 "Tm": 299.15, 
	 "num_atms": 18, 
	 "gaussian": { 
		 "optdone": 1, 
		 "sigma_profile": "yes", 
		 "theory": "DFT", 
		 "functional": "B3LYP", 
		 "basiset": "6-31G**", 
		 "properties": { 
			 "R2extent": 1598.1903, 
			 "electric_dipole_moment_norm": 1.20040749748, 
			 "electric_quadrupole_moment_norm": 6.74466411469, 
			 "total_energy": -347.91719896, 
			 "HOMO_LUMO_gap": 0.29872, 
			 "cosmo_polarized_energy": -6.99, 
			 "cosmo_cavitation_energy": 20.81, 
			 "cosmo_dispersion_energy": -14.89, 
			 "cosmo_repulsion_energy": 1.24, 
			 "cosmo_total_nonelectrostatic_energy": 7.17, 
			 "SMD_solvation_energy": 4.6 
		},
		"coords": [
			{
				"x": -1.2978028103,
				"y": 2.4619441719,
				"z": 0.0962252885,
				"element": "O" 
			},
			{
				"x": -1.5425954031,
				"y": 1.0645830723,
				"z": -0.1308633857,
				"element": "C" 
			},
			{
				"x": -2.2576143659,
				"y": 0.9813982151,
				"z": -1.5025134358,
				"element": "C" 
			},
			{
				"x": -1.1271077396,
				"y": 0.9202047548,
				"z": -2.568537946,
				"element": "C" 
			},
			{
				"x": 0.2045733722,
				"y": 0.8372688142,
				"z": -1.7779913483,
				"element": "C" 
			},
			{
				"x": -0.2071822141,
				"y": 0.3255645412,
				"z": -0.3896962334,
				"element": "C" 
			},
			{
				"x": -2.3159401647,
				"y": 0.494078473,
				"z": 0.98160264,
				"element": "C" 
			},
			{
				"x": -2.9276223499,
				"y": 0.034689238,
				"z": 1.9171397345,
				"element": "C" 
			},
			{
				"x": -0.8613169705,
				"y": 2.5434960803,
				"z": 0.9554250492,
				"element": "H" 
			},
			{
				"x": -2.8786051776,
				"y": 0.0822095122,
				"z": -1.5328207474,
				"element": "H" 
			},
			{
				"x": -2.9162657502,
				"y": 1.845814888,
				"z": -1.6128903708,
				"element": "H" 
			},
			{
				"x": -1.2558501107,
				"y": 0.0368369929,
				"z": -3.2024722924,
				"element": "H" 
			},
			{
				"x": -1.144614613,
				"y": 1.7901378826,
				"z": -3.2305365851,
				"element": "H" 
			},
			{
				"x": 0.6419753283,
				"y": 1.8344573525,
				"z": -1.6771555675,
				"element": "H" 
			},
			{
				"x": 0.9462630203,
				"y": 0.1944239442,
				"z": -2.2611107249,
				"element": "H" 
			},
			{
				"x": -0.3909250858,
				"y": -0.7553610929,
				"z": -0.4053101939,
				"element": "H" 
			},
			{
				"x": 0.5275504144,
				"y": 0.5251043645,
				"z": 0.3979698603,
				"element": "H" 
			},
			{
				"x": -3.4782193799,
				"y": -0.3680512048,
				"z": 2.7355362587,
				"element": "H" 
			}
		],
		 "valence_orbital": [ 
			{
				"type": "occ",
				"energy": -0.33499,
				"method": "rhf"
			},
			{
				"type": "occ",
				"energy": -0.31441,
				"method": "rhf"
			},
			{
				"type": "occ",
				"energy": -0.28439,
				"method": "rhf"
			},
			{
				"type": "occ",
				"energy": -0.26668,
				"method": "rhf"
			},
			{
				"type": "occ",
				"energy": -0.25826,
				"method": "rhf"
			},
			{
				"type": "unocc",
				"energy": 0.04046,
				"method": "rhf"
			},
			{
				"type": "unocc",
				"energy": 0.05337,
				"method": "rhf"
			},
			{
				"type": "unocc",
				"energy": 0.07942,
				"method": "rhf"
			},
			{
				"type": "unocc",
				"energy": 0.10357,
				"method": "rhf"
			},
			{
				"type": "unocc",
				"energy": 0.11667,
				"method": "rhf"
			}
		],
		"cosmo_sigma_profile": { 
			"-0.025": 0.0,
			"-0.024": 0.0,
			"-0.023": 0.0,
			"-0.022": 0.0,
			"-0.021": 0.0,
			"-0.02": 0.0,
			"-0.019": 0.0,
			"-0.018": 0.0,
			"-0.017": 0.0,
			"-0.016": 0.115425971034,
			"-0.015": 0.757936635105,
			"-0.014": 1.10159241731,
			"-0.013": 0.558964748774,
			"-0.012": 0.966729449184,
			"-0.011": 2.1788371377,
			"-0.01": 2.23248348049,
			"-0.009": 1.52142159454,
			"-0.008": 2.57628493084,
			"-0.007": 1.78953600613,
			"-0.006": 2.16865145105,
			"-0.005": 2.39116044695,
			"-0.004": 5.39741821261,
			"-0.003": 16.0857975304,
			"-0.002": 19.8772968226,
			"-0.001": 20.5250123529,
			"0.0": 18.9990051152,
			"0.001": 15.9095102071,
			"0.002": 6.3565953945,
			"0.003": 4.78501801062,
			"0.004": 5.74713278066,
			"0.005": 6.7557025993,
			"0.006": 8.40774986946,
			"0.007": 6.26086181891,
			"0.008": 2.54660872279,
			"0.009": 1.06937278673,
			"0.01": 0.918798584295,
			"0.011": 1.79003419739,
			"0.012": 1.17487388123,
			"0.013": 1.71062427125,
			"0.014": 0.46406455189,
			"0.015": 0.0,
			"0.016": 0.0,
			"0.017": 0.0,
			"0.018": 0.0,
			"0.019": 0.0,
			"0.02": 0.0,
			"0.021": 0.0,
			"0.022": 0.0,
			"0.023": 0.0,
			"0.024": 0.0,
			"0.025": 0.0
		}
	}
}
