{
	 "smiles": "CC(=O)C1=CC=C(C=C1)C#CC1=CC=CC=C1", 
	 "Tm": 374.15, 
	 "num_atms": 29, 
	 "gaussian": { 
		 "optdone": 1, 
		 "sigma_profile": "yes", 
		 "theory": "DFT", 
		 "functional": "B3LYP", 
		 "basiset": "6-31G**", 
		 "properties": { 
			 "R2extent": 7862.012, 
			 "electric_dipole_moment_norm": 3.52776288602, 
			 "electric_quadrupole_moment_norm": 16.1018519211, 
			 "total_energy": -692.113590308, 
			 "HOMO_LUMO_gap": 0.14604, 
			 "cosmo_polarized_energy": -10.35, 
			 "cosmo_cavitation_energy": 35.31, 
			 "cosmo_dispersion_energy": -25.16, 
			 "cosmo_repulsion_energy": 1.95, 
			 "cosmo_total_nonelectrostatic_energy": 12.1, 
			 "SMD_solvation_energy": 6.72 
		},
		"coords": [
			{
				"x": 5.055122801,
				"y": 0.3915658922,
				"z": -3.6987198349,
				"element": "C" 
			},
			{
				"x": 4.207998762,
				"y": -0.7872861003,
				"z": -3.2485431196,
				"element": "C" 
			},
			{
				"x": 4.4031340811,
				"y": -1.9033062839,
				"z": -3.7078049007,
				"element": "O" 
			},
			{
				"x": 3.1307314182,
				"y": -0.5586596476,
				"z": -2.2332739474,
				"element": "C" 
			},
			{
				"x": 2.8636848195,
				"y": 0.7004350345,
				"z": -1.6724167675,
				"element": "C" 
			},
			{
				"x": 1.851653439,
				"y": 0.8599041577,
				"z": -0.7330133502,
				"element": "C" 
			},
			{
				"x": 1.0738250701,
				"y": -0.2435937032,
				"z": -0.326396783,
				"element": "C" 
			},
			{
				"x": 1.3441957032,
				"y": -1.5096357139,
				"z": -0.8917322009,
				"element": "C" 
			},
			{
				"x": 2.3556695907,
				"y": -1.6584494193,
				"z": -1.827832041,
				"element": "C" 
			},
			{
				"x": 0.0372922314,
				"y": -0.084639351,
				"z": 0.634476335,
				"element": "C" 
			},
			{
				"x": -0.8503139744,
				"y": 0.0486617825,
				"z": 1.456166764,
				"element": "C" 
			},
			{
				"x": -1.8895768685,
				"y": 0.20408997,
				"z": 2.4177466676,
				"element": "C" 
			},
			{
				"x": -2.1608308209,
				"y": 1.4674098589,
				"z": 2.9819021709,
				"element": "C" 
			},
			{
				"x": -3.1776188673,
				"y": 1.613902628,
				"z": 3.9211884362,
				"element": "C" 
			},
			{
				"x": -3.9390671705,
				"y": 0.5099124219,
				"z": 4.313749324,
				"element": "C" 
			},
			{
				"x": -3.6783029466,
				"y": -0.7465981531,
				"z": 3.7606803779,
				"element": "C" 
			},
			{
				"x": -2.6636875786,
				"y": -0.9032821248,
				"z": 2.8206909318,
				"element": "C" 
			},
			{
				"x": 5.5867707393,
				"y": 0.8404447231,
				"z": -2.8523461011,
				"element": "H" 
			},
			{
				"x": 4.433963573,
				"y": 1.1750573626,
				"z": -4.1467323091,
				"element": "H" 
			},
			{
				"x": 5.7787818826,
				"y": 0.0392086944,
				"z": -4.4341276111,
				"element": "H" 
			},
			{
				"x": 3.4470043034,
				"y": 1.5666584021,
				"z": -1.9674412979,
				"element": "H" 
			},
			{
				"x": 1.6505370159,
				"y": 1.8357396991,
				"z": -0.3034681488,
				"element": "H" 
			},
			{
				"x": 0.7494221764,
				"y": -2.3631429584,
				"z": -0.583116706,
				"element": "H" 
			},
			{
				"x": 2.5726880553,
				"y": -2.6254595507,
				"z": -2.2690184595,
				"element": "H" 
			},
			{
				"x": -1.5670791807,
				"y": 2.322081053,
				"z": 2.6742028428,
				"element": "H" 
			},
			{
				"x": -3.3771970458,
				"y": 2.5921794779,
				"z": 4.348734086,
				"element": "H" 
			},
			{
				"x": -4.7315397492,
				"y": 0.6281600365,
				"z": 5.0468499705,
				"element": "H" 
			},
			{
				"x": -4.2678764357,
				"y": -1.6071375216,
				"z": 4.0631667067,
				"element": "H" 
			},
			{
				"x": -2.4577850239,
				"y": -1.8772206666,
				"z": 2.3886289653,
				"element": "H" 
			}
		],
		 "valence_orbital": [ 
			{
				"type": "occ",
				"energy": -0.27293,
				"method": "rhf"
			},
			{
				"type": "occ",
				"energy": -0.26418,
				"method": "rhf"
			},
			{
				"type": "occ",
				"energy": -0.26068,
				"method": "rhf"
			},
			{
				"type": "occ",
				"energy": -0.24775,
				"method": "rhf"
			},
			{
				"type": "occ",
				"energy": -0.21845,
				"method": "rhf"
			},
			{
				"type": "unocc",
				"energy": -0.07241,
				"method": "rhf"
			},
			{
				"type": "unocc",
				"energy": -0.02277,
				"method": "rhf"
			},
			{
				"type": "unocc",
				"energy": -0.01154,
				"method": "rhf"
			},
			{
				"type": "unocc",
				"energy": -0.00923,
				"method": "rhf"
			},
			{
				"type": "unocc",
				"energy": 0.03266,
				"method": "rhf"
			}
		],
		"cosmo_sigma_profile": { 
			"-0.025": 0.0,
			"-0.024": 0.0,
			"-0.023": 0.0,
			"-0.022": 0.0,
			"-0.021": 0.0,
			"-0.02": 0.0,
			"-0.019": 0.0,
			"-0.018": 0.0,
			"-0.017": 0.0,
			"-0.016": 0.0,
			"-0.015": 0.0,
			"-0.014": 0.0,
			"-0.013": 0.0,
			"-0.012": 0.0,
			"-0.011": 0.0,
			"-0.01": 0.0,
			"-0.009": 0.0,
			"-0.008": 0.0180588996645,
			"-0.007": 5.51386037698,
			"-0.006": 23.0805133342,
			"-0.005": 22.7805716807,
			"-0.004": 25.3956912117,
			"-0.003": 17.6639500744,
			"-0.002": 19.4584471914,
			"-0.001": 18.7769462301,
			"0.0": 17.1519816723,
			"0.001": 19.738559709,
			"0.002": 28.8033144531,
			"0.003": 34.2754747164,
			"0.004": 22.1208608109,
			"0.005": 11.4452709155,
			"0.006": 2.63112081212,
			"0.007": 1.8200368435,
			"0.008": 1.44097266755,
			"0.009": 1.58059681761,
			"0.01": 2.16662126167,
			"0.011": 3.1105771592,
			"0.012": 3.96297746827,
			"0.013": 1.31377668082,
			"0.014": 0.170426821787,
			"0.015": 0.0,
			"0.016": 0.0,
			"0.017": 0.0,
			"0.018": 0.0,
			"0.019": 0.0,
			"0.02": 0.0,
			"0.021": 0.0,
			"0.022": 0.0,
			"0.023": 0.0,
			"0.024": 0.0,
			"0.025": 0.0
		}
	}
}
