{
	 "smiles": "ClC1=NC=C(CS(Cl)(=O)=O)C=C1", 
	 "Tm": 333.15, 
	 "num_atms": 17, 
	 "gaussian": { 
		 "optdone": 1, 
		 "sigma_profile": "yes", 
		 "theory": "DFT", 
		 "functional": "B3LYP", 
		 "basiset": "6-31G**", 
		 "properties": { 
			 "R2extent": 4387.1082, 
			 "electric_dipole_moment_norm": 4.23519262018, 
			 "electric_quadrupole_moment_norm": 17.5035104599, 
			 "total_energy": -1755.35310289, 
			 "HOMO_LUMO_gap": 0.17989, 
			 "cosmo_polarized_energy": -15.31, 
			 "cosmo_cavitation_energy": 27.07, 
			 "cosmo_dispersion_energy": -20.22, 
			 "cosmo_repulsion_energy": 1.58, 
			 "cosmo_total_nonelectrostatic_energy": 8.43, 
			 "SMD_solvation_energy": 1.44 
		},
		"coords": [
			{
				"x": 3.9015430387,
				"y": -0.3654024909,
				"z": 2.5823318348,
				"element": "Cl" 
			},
			{
				"x": 2.4475902716,
				"y": 0.3490313931,
				"z": 1.9065518947,
				"element": "C" 
			},
			{
				"x": 1.6755603886,
				"y": 1.0269673082,
				"z": 2.7386462443,
				"element": "N" 
			},
			{
				"x": 0.5667771797,
				"y": 1.5794138605,
				"z": 2.2379798632,
				"element": "C" 
			},
			{
				"x": 0.1902817328,
				"y": 1.482483091,
				"z": 0.89273107,
				"element": "C" 
			},
			{
				"x": -1.0592019336,
				"y": 2.1361368881,
				"z": 0.4000600628,
				"element": "C" 
			},
			{
				"x": -2.6068523412,
				"y": 1.1824978712,
				"z": 0.7235225619,
				"element": "S" 
			},
			{
				"x": -2.2985886173,
				"y": -0.5082694279,
				"z": -0.5426736542,
				"element": "Cl" 
			},
			{
				"x": -2.6092236423,
				"y": 0.6988049493,
				"z": 2.0976159066,
				"element": "O" 
			},
			{
				"x": -3.7229070223,
				"y": 1.9360085456,
				"z": 0.1661491177,
				"element": "O" 
			},
			{
				"x": 1.0293949788,
				"y": 0.7539946575,
				"z": 0.0380251347,
				"element": "C" 
			},
			{
				"x": 2.1851592694,
				"y": 0.1728746024,
				"z": 0.5439809225,
				"element": "C" 
			},
			{
				"x": -0.0532912357,
				"y": 2.126309981,
				"z": 2.9453302318,
				"element": "H" 
			},
			{
				"x": -1.0672213728,
				"y": 2.3162673642,
				"z": -0.676464202,
				"element": "H" 
			},
			{
				"x": -1.2772113544,
				"y": 3.0765200968,
				"z": 0.916873323,
				"element": "H" 
			},
			{
				"x": 0.7807683189,
				"y": 0.6436983876,
				"z": -1.0133407615,
				"element": "H" 
			},
			{
				"x": 2.8615223412,
				"y": -0.3943370777,
				"z": -0.0836195501,
				"element": "H" 
			}
		],
		 "valence_orbital": [ 
			{
				"type": "occ",
				"energy": -0.3283,
				"method": "rhf"
			},
			{
				"type": "occ",
				"energy": -0.32569,
				"method": "rhf"
			},
			{
				"type": "occ",
				"energy": -0.31777,
				"method": "rhf"
			},
			{
				"type": "occ",
				"energy": -0.29376,
				"method": "rhf"
			},
			{
				"type": "occ",
				"energy": -0.27735,
				"method": "rhf"
			},
			{
				"type": "unocc",
				"energy": -0.09746,
				"method": "rhf"
			},
			{
				"type": "unocc",
				"energy": -0.05793,
				"method": "rhf"
			},
			{
				"type": "unocc",
				"energy": -0.05247,
				"method": "rhf"
			},
			{
				"type": "unocc",
				"energy": 0.01888,
				"method": "rhf"
			},
			{
				"type": "unocc",
				"energy": 0.03706,
				"method": "rhf"
			}
		],
		"cosmo_sigma_profile": { 
			"-0.025": 0.0,
			"-0.024": 0.0,
			"-0.023": 0.0,
			"-0.022": 0.0,
			"-0.021": 0.0,
			"-0.02": 0.0,
			"-0.019": 0.0,
			"-0.018": 0.0,
			"-0.017": 0.0,
			"-0.016": 0.0,
			"-0.015": 0.0,
			"-0.014": 0.0,
			"-0.013": 0.708394194822,
			"-0.012": 2.31868091824,
			"-0.011": 4.81736167202,
			"-0.01": 5.25204828682,
			"-0.009": 7.02410698859,
			"-0.008": 9.13911140328,
			"-0.007": 9.03052511353,
			"-0.006": 5.624563583,
			"-0.005": 5.60621638268,
			"-0.004": 6.21854873205,
			"-0.003": 6.79253857401,
			"-0.002": 13.536403662,
			"-0.001": 19.2709344132,
			"0.0": 15.8424833486,
			"0.001": 16.8705426735,
			"0.002": 15.2369600377,
			"0.003": 20.0687103653,
			"0.004": 16.664537354,
			"0.005": 7.14985138609,
			"0.006": 5.32727939544,
			"0.007": 7.05827464351,
			"0.008": 12.5368698201,
			"0.009": 6.19215592271,
			"0.01": 0.950614367383,
			"0.011": 0.591462324755,
			"0.012": 1.271922627,
			"0.013": 0.694073318642,
			"0.014": 0.420314789005,
			"0.015": 0.0,
			"0.016": 0.0,
			"0.017": 0.0,
			"0.018": 0.0,
			"0.019": 0.0,
			"0.02": 0.0,
			"0.021": 0.0,
			"0.022": 0.0,
			"0.023": 0.0,
			"0.024": 0.0,
			"0.025": 0.0
		}
	}
}
