{
	 "smiles": "OC(=O)C1=CC=C(OC2=C(Cl)C=CC(Cl)=C2)C=C1", 
	 "Tm": 443.15, 
	 "num_atms": 26, 
	 "gaussian": { 
		 "optdone": 1, 
		 "sigma_profile": "yes", 
		 "theory": "DFT", 
		 "functional": "B3LYP", 
		 "basiset": "6-31G**", 
		 "properties": { 
			 "R2extent": 7769.5989, 
			 "electric_dipole_moment_norm": 4.31008311985, 
			 "electric_quadrupole_moment_norm": 29.7193269313, 
			 "total_energy": -1646.25708495, 
			 "HOMO_LUMO_gap": 0.19202, 
			 "cosmo_polarized_energy": -16.74, 
			 "cosmo_cavitation_energy": 35.53, 
			 "cosmo_dispersion_energy": -25.53, 
			 "cosmo_repulsion_energy": 1.99, 
			 "cosmo_total_nonelectrostatic_energy": 11.99, 
			 "SMD_solvation_energy": 6.84 
		},
		"coords": [
			{
				"x": 4.101805301,
				"y": 2.8194435651,
				"z": 3.1390123904,
				"element": "O" 
			},
			{
				"x": 2.9439835946,
				"y": 3.3007690415,
				"z": 2.6093134672,
				"element": "C" 
			},
			{
				"x": 2.7507720816,
				"y": 4.4935247201,
				"z": 2.5710615174,
				"element": "O" 
			},
			{
				"x": 1.9635833248,
				"y": 2.2931671114,
				"z": 2.0955197883,
				"element": "C" 
			},
			{
				"x": 0.9628032166,
				"y": 2.7459035143,
				"z": 1.2245567246,
				"element": "C" 
			},
			{
				"x": 0.0117237507,
				"y": 1.8733972497,
				"z": 0.707833016,
				"element": "C" 
			},
			{
				"x": 0.0533360953,
				"y": 0.5238070221,
				"z": 1.0763802259,
				"element": "C" 
			},
			{
				"x": -0.8755366218,
				"y": -0.4054771869,
				"z": 0.6632221264,
				"element": "O" 
			},
			{
				"x": -1.5557283103,
				"y": -0.2564796635,
				"z": -0.5204522612,
				"element": "C" 
			},
			{
				"x": -2.9457205243,
				"y": -0.4377690767,
				"z": -0.5204249729,
				"element": "C" 
			},
			{
				"x": -3.7898365224,
				"y": -0.7321235602,
				"z": 0.9786084963,
				"element": "Cl" 
			},
			{
				"x": -3.6543172188,
				"y": -0.3858825269,
				"z": -1.7211213336,
				"element": "C" 
			},
			{
				"x": -2.9930158718,
				"y": -0.1460103611,
				"z": -2.9237168558,
				"element": "C" 
			},
			{
				"x": -1.6094062333,
				"y": 0.0320033282,
				"z": -2.9109290711,
				"element": "C" 
			},
			{
				"x": -0.7597490243,
				"y": 0.3231870653,
				"z": -4.4172849087,
				"element": "Cl" 
			},
			{
				"x": -0.8834028303,
				"y": -0.0276347587,
				"z": -1.7246767157,
				"element": "C" 
			},
			{
				"x": 1.0256136188,
				"y": 0.0563502214,
				"z": 1.9649887049,
				"element": "C" 
			},
			{
				"x": 1.9720284508,
				"y": 0.9409436759,
				"z": 2.4705639383,
				"element": "C" 
			},
			{
				"x": 4.1924792379,
				"y": 1.8760370929,
				"z": 2.947948976,
				"element": "H" 
			},
			{
				"x": 0.943581287,
				"y": 3.7992657519,
				"z": 0.9668855329,
				"element": "H" 
			},
			{
				"x": -0.7583922373,
				"y": 2.2351922983,
				"z": 0.0362442288,
				"element": "H" 
			},
			{
				"x": -4.7290765788,
				"y": -0.5283364172,
				"z": -1.7073399505,
				"element": "H" 
			},
			{
				"x": -3.5433086797,
				"y": -0.0994310134,
				"z": -3.8560286571,
				"element": "H" 
			},
			{
				"x": 0.1929136803,
				"y": 0.0964437715,
				"z": -1.7254644935,
				"element": "H" 
			},
			{
				"x": 1.0148856199,
				"y": -0.9889139436,
				"z": 2.2535577655,
				"element": "H" 
			},
			{
				"x": 2.6954813937,
				"y": 0.5646230786,
				"z": 3.1897423214,
				"element": "H" 
			}
		],
		 "valence_orbital": [ 
			{
				"type": "occ",
				"energy": -0.28718,
				"method": "rhf"
			},
			{
				"type": "occ",
				"energy": -0.28075,
				"method": "rhf"
			},
			{
				"type": "occ",
				"energy": -0.27359,
				"method": "rhf"
			},
			{
				"type": "occ",
				"energy": -0.25928,
				"method": "rhf"
			},
			{
				"type": "occ",
				"energy": -0.24625,
				"method": "rhf"
			},
			{
				"type": "unocc",
				"energy": -0.05423,
				"method": "rhf"
			},
			{
				"type": "unocc",
				"energy": -0.0416,
				"method": "rhf"
			},
			{
				"type": "unocc",
				"energy": -0.03071,
				"method": "rhf"
			},
			{
				"type": "unocc",
				"energy": -0.02793,
				"method": "rhf"
			},
			{
				"type": "unocc",
				"energy": 0.00341,
				"method": "rhf"
			}
		],
		"cosmo_sigma_profile": { 
			"-0.025": 0.0,
			"-0.024": 0.0,
			"-0.023": 0.0,
			"-0.022": 0.0,
			"-0.021": 0.0,
			"-0.02": 0.0,
			"-0.019": 0.235710598123,
			"-0.018": 0.672306295372,
			"-0.017": 1.4111401653,
			"-0.016": 0.754654427242,
			"-0.015": 1.03963438987,
			"-0.014": 0.908157300068,
			"-0.013": 0.899320462436,
			"-0.012": 1.30019714509,
			"-0.011": 1.38715097564,
			"-0.01": 1.29368724623,
			"-0.009": 1.92694686724,
			"-0.008": 7.45497336211,
			"-0.007": 12.0323652185,
			"-0.006": 13.6482603086,
			"-0.005": 12.8096446602,
			"-0.004": 11.144478493,
			"-0.003": 12.9449452616,
			"-0.002": 17.7166221237,
			"-0.001": 18.9253891727,
			"0.0": 27.2953860771,
			"0.001": 33.4323808471,
			"0.002": 31.3753693408,
			"0.003": 21.0753581553,
			"0.004": 20.683172023,
			"0.005": 5.86481101793,
			"0.006": 5.64991856522,
			"0.007": 4.02912786076,
			"0.008": 2.61984390158,
			"0.009": 3.53412449435,
			"0.01": 4.38407166342,
			"0.011": 5.30077639422,
			"0.012": 5.23041992467,
			"0.013": 1.78868828457,
			"0.014": 0.122110324055,
			"0.015": 0.0,
			"0.016": 0.0,
			"0.017": 0.0,
			"0.018": 0.0,
			"0.019": 0.0,
			"0.02": 0.0,
			"0.021": 0.0,
			"0.022": 0.0,
			"0.023": 0.0,
			"0.024": 0.0,
			"0.025": 0.0
		}
	}
}
