{
	 "smiles": "FC(Cl)C(F)Cl", 
	 "Tm": 172.15, 
	 "num_atms": 8, 
	 "gaussian": { 
		 "optdone": 1, 
		 "sigma_profile": "yes", 
		 "theory": "DFT", 
		 "functional": "B3LYP", 
		 "basiset": "6-31G**", 
		 "properties": { 
			 "R2extent": 1024.8123, 
			 "electric_dipole_moment_norm": 2.12171540504, 
			 "electric_quadrupole_moment_norm": 3.45634674186, 
			 "total_energy": -1197.45983052, 
			 "HOMO_LUMO_gap": 0.31151, 
			 "cosmo_polarized_energy": -6.09, 
			 "cosmo_cavitation_energy": 16.3, 
			 "cosmo_dispersion_energy": -12.14, 
			 "cosmo_repulsion_energy": 1.03, 
			 "cosmo_total_nonelectrostatic_energy": 5.19, 
			 "SMD_solvation_energy": 3.08 
		},
		"coords": [
			{
				"x": 2.0288266609,
				"y": 0.3973061582,
				"z": 0.7811752238,
				"element": "F" 
			},
			{
				"x": 0.7940283407,
				"y": 0.2010121987,
				"z": 0.2303580336,
				"element": "C" 
			},
			{
				"x": -0.3897285519,
				"y": -0.1286463715,
				"z": 1.5305390861,
				"element": "Cl" 
			},
			{
				"x": 0.4543604782,
				"y": 1.4662898743,
				"z": -0.5631895317,
				"element": "C" 
			},
			{
				"x": 0.2542731665,
				"y": 2.513508511,
				"z": 0.2710785399,
				"element": "F" 
			},
			{
				"x": -0.9951983184,
				"y": 1.2087183454,
				"z": -1.5934493925,
				"element": "Cl" 
			},
			{
				"x": 0.8198061125,
				"y": -0.6742674475,
				"z": -0.4218074028,
				"element": "H" 
			},
			{
				"x": 1.2879321115,
				"y": 1.6905787314,
				"z": -1.2347045566,
				"element": "H" 
			}
		],
		 "valence_orbital": [ 
			{
				"type": "occ",
				"energy": -0.38164,
				"method": "rhf"
			},
			{
				"type": "occ",
				"energy": -0.33928,
				"method": "rhf"
			},
			{
				"type": "occ",
				"energy": -0.33674,
				"method": "rhf"
			},
			{
				"type": "occ",
				"energy": -0.32791,
				"method": "rhf"
			},
			{
				"type": "occ",
				"energy": -0.31904,
				"method": "rhf"
			},
			{
				"type": "unocc",
				"energy": -0.00753,
				"method": "rhf"
			},
			{
				"type": "unocc",
				"energy": 0.00511,
				"method": "rhf"
			},
			{
				"type": "unocc",
				"energy": 0.08335,
				"method": "rhf"
			},
			{
				"type": "unocc",
				"energy": 0.08749,
				"method": "rhf"
			},
			{
				"type": "unocc",
				"energy": 0.13203,
				"method": "rhf"
			}
		],
		"cosmo_sigma_profile": { 
			"-0.025": 0.0,
			"-0.024": 0.0,
			"-0.023": 0.0,
			"-0.022": 0.0,
			"-0.021": 0.0,
			"-0.02": 0.0,
			"-0.019": 0.0,
			"-0.018": 0.0,
			"-0.017": 0.0,
			"-0.016": 0.0,
			"-0.015": 0.0,
			"-0.014": 0.0,
			"-0.013": 0.494642672131,
			"-0.012": 2.64410577646,
			"-0.011": 5.26124310033,
			"-0.01": 3.76421095393,
			"-0.009": 3.08404013906,
			"-0.008": 2.30950283285,
			"-0.007": 2.32511138736,
			"-0.006": 1.61232379855,
			"-0.005": 2.05844887741,
			"-0.004": 2.13221006958,
			"-0.003": 4.47794415278,
			"-0.002": 5.11446975118,
			"-0.001": 6.76826557904,
			"0.0": 6.82570580669,
			"0.001": 9.02224322015,
			"0.002": 15.9986635588,
			"0.003": 32.1639266536,
			"0.004": 26.0639657822,
			"0.005": 2.35747410884,
			"0.006": 0.0,
			"0.007": 0.0,
			"0.008": 0.0,
			"0.009": 0.0,
			"0.01": 0.0,
			"0.011": 0.0,
			"0.012": 0.0,
			"0.013": 0.0,
			"0.014": 0.0,
			"0.015": 0.0,
			"0.016": 0.0,
			"0.017": 0.0,
			"0.018": 0.0,
			"0.019": 0.0,
			"0.02": 0.0,
			"0.021": 0.0,
			"0.022": 0.0,
			"0.023": 0.0,
			"0.024": 0.0,
			"0.025": 0.0
		}
	}
}
