{
	 "smiles": "FC1=C(F)C(F)=C(P(C2=CC=CC=C2)C2=CC=CC=C2)C(F)=C1F", 
	 "Tm": 344.15, 
	 "num_atms": 34, 
	 "gaussian": { 
		 "optdone": 1, 
		 "sigma_profile": "yes", 
		 "theory": "DFT", 
		 "functional": "B3LYP", 
		 "basiset": "6-31G**", 
		 "properties": { 
			 "R2extent": 9710.5625, 
			 "electric_dipole_moment_norm": 2.27631205681, 
			 "electric_quadrupole_moment_norm": 14.4827852045, 
			 "total_energy": -1532.42555118, 
			 "HOMO_LUMO_gap": 0.18063, 
			 "cosmo_polarized_energy": -7.34, 
			 "cosmo_cavitation_energy": 42.38, 
			 "cosmo_dispersion_energy": -28.71, 
			 "cosmo_repulsion_energy": 2.15, 
			 "cosmo_total_nonelectrostatic_energy": 15.83, 
			 "SMD_solvation_energy": 9.53 
		},
		"coords": [
			{
				"x": -0.9393834055,
				"y": 4.8439336514,
				"z": 3.6942393381,
				"element": "F" 
			},
			{
				"x": -0.9854424211,
				"y": 3.6227116735,
				"z": 3.1581113984,
				"element": "C" 
			},
			{
				"x": -0.8948366533,
				"y": 2.4974312538,
				"z": 3.9717607624,
				"element": "C" 
			},
			{
				"x": -0.763310659,
				"y": 2.63888569,
				"z": 5.2954635015,
				"element": "F" 
			},
			{
				"x": -0.9448975756,
				"y": 1.230397685,
				"z": 3.3937855403,
				"element": "C" 
			},
			{
				"x": -0.8534851684,
				"y": 0.1805128931,
				"z": 4.2233759817,
				"element": "F" 
			},
			{
				"x": -1.081657876,
				"y": 1.0313085326,
				"z": 2.013739028,
				"element": "C" 
			},
			{
				"x": -1.1861600555,
				"y": -0.7331454648,
				"z": 1.4113949967,
				"element": "P" 
			},
			{
				"x": 0.4703115279,
				"y": -0.9848012966,
				"z": 0.6264850869,
				"element": "C" 
			},
			{
				"x": 1.1616815423,
				"y": -2.1448334573,
				"z": 1.0096407328,
				"element": "C" 
			},
			{
				"x": 2.4255503867,
				"y": -2.4298145765,
				"z": 0.4871299549,
				"element": "C" 
			},
			{
				"x": 3.0157067418,
				"y": -1.5534254615,
				"z": -0.4227578613,
				"element": "C" 
			},
			{
				"x": 2.338397943,
				"y": -0.3939255425,
				"z": -0.8115175653,
				"element": "C" 
			},
			{
				"x": 1.0753123437,
				"y": -0.1101203344,
				"z": -0.293731758,
				"element": "C" 
			},
			{
				"x": -2.3599224017,
				"y": -0.587206262,
				"z": -0.0096466586,
				"element": "C" 
			},
			{
				"x": -3.6562621386,
				"y": -0.1090430996,
				"z": 0.2476054564,
				"element": "C" 
			},
			{
				"x": -4.6225954283,
				"y": -0.093092743,
				"z": -0.7560731412,
				"element": "C" 
			},
			{
				"x": -4.318907315,
				"y": -0.578249084,
				"z": -2.0306494711,
				"element": "C" 
			},
			{
				"x": -3.0427665175,
				"y": -1.0771163066,
				"z": -2.2897302672,
				"element": "C" 
			},
			{
				"x": -2.0686299582,
				"y": -1.0820462065,
				"z": -1.2883511086,
				"element": "C" 
			},
			{
				"x": -1.1594064215,
				"y": 2.190402513,
				"z": 1.232034776,
				"element": "C" 
			},
			{
				"x": -1.2654784794,
				"y": 2.1143705193,
				"z": -0.1058617102,
				"element": "F" 
			},
			{
				"x": -1.1179848237,
				"y": 3.4699063227,
				"z": 1.7798457238,
				"element": "C" 
			},
			{
				"x": -1.1945293334,
				"y": 4.5511650755,
				"z": 0.9949172893,
				"element": "F" 
			},
			{
				"x": 0.7069846779,
				"y": -2.8247493666,
				"z": 1.7248748955,
				"element": "H" 
			},
			{
				"x": 2.9466613064,
				"y": -3.3319497064,
				"z": 0.7943749322,
				"element": "H" 
			},
			{
				"x": 4.0000018333,
				"y": -1.7698840462,
				"z": -0.828252186,
				"element": "H" 
			},
			{
				"x": 2.7954096272,
				"y": 0.2908014567,
				"z": -1.5205063448,
				"element": "H" 
			},
			{
				"x": 0.5564876772,
				"y": 0.7878080693,
				"z": -0.6095035486,
				"element": "H" 
			},
			{
				"x": -3.9128136298,
				"y": 0.2575972537,
				"z": 1.2386892471,
				"element": "H" 
			},
			{
				"x": -5.615404809,
				"y": 0.2923177993,
				"z": -0.5412837064,
				"element": "H" 
			},
			{
				"x": -5.0732711288,
				"y": -0.5715577631,
				"z": -2.81200261,
				"element": "H" 
			},
			{
				"x": -2.7977554748,
				"y": -1.4607038319,
				"z": -3.2763335273,
				"element": "H" 
			},
			{
				"x": -1.0783039335,
				"y": -1.4658858396,
				"z": -1.5098671774,
				"element": "H" 
			}
		],
		 "valence_orbital": [ 
			{
				"type": "occ",
				"energy": -0.26162,
				"method": "rhf"
			},
			{
				"type": "occ",
				"energy": -0.25801,
				"method": "rhf"
			},
			{
				"type": "occ",
				"energy": -0.25585,
				"method": "rhf"
			},
			{
				"type": "occ",
				"energy": -0.25257,
				"method": "rhf"
			},
			{
				"type": "occ",
				"energy": -0.22465,
				"method": "rhf"
			},
			{
				"type": "unocc",
				"energy": -0.04402,
				"method": "rhf"
			},
			{
				"type": "unocc",
				"energy": -0.03,
				"method": "rhf"
			},
			{
				"type": "unocc",
				"energy": -0.01752,
				"method": "rhf"
			},
			{
				"type": "unocc",
				"energy": -0.01233,
				"method": "rhf"
			},
			{
				"type": "unocc",
				"energy": -0.0098,
				"method": "rhf"
			}
		],
		"cosmo_sigma_profile": { 
			"-0.025": 0.0,
			"-0.024": 0.0,
			"-0.023": 0.0,
			"-0.022": 0.0,
			"-0.021": 0.0,
			"-0.02": 0.0,
			"-0.019": 0.0,
			"-0.018": 0.0,
			"-0.017": 0.0,
			"-0.016": 0.0,
			"-0.015": 0.0,
			"-0.014": 0.0,
			"-0.013": 0.0,
			"-0.012": 0.0,
			"-0.011": 0.0,
			"-0.01": 0.0,
			"-0.009": 0.0,
			"-0.008": 0.0,
			"-0.007": 0.620446161026,
			"-0.006": 13.3778483992,
			"-0.005": 19.704712006,
			"-0.004": 33.9692911705,
			"-0.003": 35.9749967334,
			"-0.002": 26.3237683682,
			"-0.001": 23.6546561263,
			"0.0": 22.7636237927,
			"0.001": 24.4731171571,
			"0.002": 46.0427822683,
			"0.003": 46.4859500572,
			"0.004": 21.5759148224,
			"0.005": 17.1320198692,
			"0.006": 5.88911408475,
			"0.007": 1.32321438452,
			"0.008": 1.04193176237,
			"0.009": 0.715892511234,
			"0.01": 0.908002298944,
			"0.011": 0.547437796895,
			"0.012": 0.152679821721,
			"0.013": 0.0,
			"0.014": 0.0,
			"0.015": 0.0,
			"0.016": 0.0,
			"0.017": 0.0,
			"0.018": 0.0,
			"0.019": 0.0,
			"0.02": 0.0,
			"0.021": 0.0,
			"0.022": 0.0,
			"0.023": 0.0,
			"0.024": 0.0,
			"0.025": 0.0
		}
	}
}
