{
	 "smiles": "CCNS(=O)(=O)C1=CC(=CC=C1)C(O)=O", 
	 "Tm": 473.15, 
	 "num_atms": 26, 
	 "gaussian": { 
		 "optdone": 1, 
		 "sigma_profile": "yes", 
		 "theory": "DFT", 
		 "functional": "B3LYP", 
		 "basiset": "6-31G**", 
		 "properties": { 
			 "R2extent": 4719.6587, 
			 "electric_dipole_moment_norm": 6.05500418662, 
			 "electric_quadrupole_moment_norm": 30.2863494084, 
			 "total_energy": -1103.36109856, 
			 "HOMO_LUMO_gap": 0.20286, 
			 "cosmo_polarized_energy": -23.95, 
			 "cosmo_cavitation_energy": 32.07, 
			 "cosmo_dispersion_energy": -23.12, 
			 "cosmo_repulsion_energy": 1.8, 
			 "cosmo_total_nonelectrostatic_energy": 10.74, 
			 "SMD_solvation_energy": 5.56 
		},
		"coords": [
			{
				"x": 2.0069015762,
				"y": -1.1202092656,
				"z": -1.9833052743,
				"element": "C" 
			},
			{
				"x": 0.5165106177,
				"y": -1.0078923175,
				"z": -1.6754157392,
				"element": "C" 
			},
			{
				"x": 0.2876989293,
				"y": -1.2625122551,
				"z": -0.2407246485,
				"element": "N" 
			},
			{
				"x": -1.291806386,
				"y": -1.1501670892,
				"z": 0.3408706276,
				"element": "S" 
			},
			{
				"x": -2.269636758,
				"y": -1.3762450595,
				"z": -0.7310679121,
				"element": "O" 
			},
			{
				"x": -1.3043498747,
				"y": -1.9546050557,
				"z": 1.5649939322,
				"element": "O" 
			},
			{
				"x": -1.4026365199,
				"y": 0.5916621707,
				"z": 0.7818354441,
				"element": "C" 
			},
			{
				"x": -0.5549043697,
				"y": 1.1055099448,
				"z": 1.7602514018,
				"element": "C" 
			},
			{
				"x": -0.6583710991,
				"y": 2.4542467473,
				"z": 2.1158474875,
				"element": "C" 
			},
			{
				"x": -1.6426121071,
				"y": 3.2536874784,
				"z": 1.5130899243,
				"element": "C" 
			},
			{
				"x": -2.4967883475,
				"y": 2.721115144,
				"z": 0.5490748469,
				"element": "C" 
			},
			{
				"x": -2.3758000234,
				"y": 1.3830098228,
				"z": 0.1698804235,
				"element": "C" 
			},
			{
				"x": 0.2863265148,
				"y": 2.9616264634,
				"z": 3.1689071529,
				"element": "C" 
			},
			{
				"x": 0.4617469991,
				"y": 4.3072870013,
				"z": 3.2394437164,
				"element": "O" 
			},
			{
				"x": 0.8772732546,
				"y": 2.2325528185,
				"z": 3.9282079808,
				"element": "O" 
			},
			{
				"x": 2.5864938075,
				"y": -0.4148437319,
				"z": -1.3814720504,
				"element": "H" 
			},
			{
				"x": 2.188553957,
				"y": -0.9091461943,
				"z": -3.041217441,
				"element": "H" 
			},
			{
				"x": 2.378843225,
				"y": -2.1305548062,
				"z": -1.7789651314,
				"element": "H" 
			},
			{
				"x": 0.1655659264,
				"y": 0.0072653043,
				"z": -1.8883458424,
				"element": "H" 
			},
			{
				"x": -0.0671552211,
				"y": -1.6911660164,
				"z": -2.3045560177,
				"element": "H" 
			},
			{
				"x": 0.660360186,
				"y": -2.152356468,
				"z": 0.0861796055,
				"element": "H" 
			},
			{
				"x": 0.1861848201,
				"y": 0.484772065,
				"z": 2.250837494,
				"element": "H" 
			},
			{
				"x": -1.7780894026,
				"y": 4.288822005,
				"z": 1.8170348426,
				"element": "H" 
			},
			{
				"x": -3.2616642712,
				"y": 3.344725095,
				"z": 0.0973953638,
				"element": "H" 
			},
			{
				"x": -3.025659296,
				"y": 0.9437930465,
				"z": -0.578790348,
				"element": "H" 
			},
			{
				"x": 0.0627138627,
				"y": 4.7436231525,
				"z": 2.4744101611,
				"element": "H" 
			}
		],
		 "valence_orbital": [ 
			{
				"type": "occ",
				"energy": -0.30634,
				"method": "rhf"
			},
			{
				"type": "occ",
				"energy": -0.29863,
				"method": "rhf"
			},
			{
				"type": "occ",
				"energy": -0.29144,
				"method": "rhf"
			},
			{
				"type": "occ",
				"energy": -0.28007,
				"method": "rhf"
			},
			{
				"type": "occ",
				"energy": -0.27152,
				"method": "rhf"
			},
			{
				"type": "unocc",
				"energy": -0.06866,
				"method": "rhf"
			},
			{
				"type": "unocc",
				"energy": -0.05231,
				"method": "rhf"
			},
			{
				"type": "unocc",
				"energy": 0.02618,
				"method": "rhf"
			},
			{
				"type": "unocc",
				"energy": 0.04496,
				"method": "rhf"
			},
			{
				"type": "unocc",
				"energy": 0.05723,
				"method": "rhf"
			}
		],
		"cosmo_sigma_profile": { 
			"-0.025": 0.0,
			"-0.024": 0.0,
			"-0.023": 0.0,
			"-0.022": 0.0,
			"-0.021": 0.0,
			"-0.02": 0.0680133064144,
			"-0.019": 0.549561860138,
			"-0.018": 1.17564225464,
			"-0.017": 1.07667830413,
			"-0.016": 1.09960228045,
			"-0.015": 0.890299451807,
			"-0.014": 1.64759053317,
			"-0.013": 2.26585594769,
			"-0.012": 2.40564243004,
			"-0.011": 2.86974004618,
			"-0.01": 2.27483538886,
			"-0.009": 2.70671716504,
			"-0.008": 5.67132902463,
			"-0.007": 8.59164568478,
			"-0.006": 8.26331215105,
			"-0.005": 12.3485831913,
			"-0.004": 17.7976500686,
			"-0.003": 21.0068925899,
			"-0.002": 20.5734199986,
			"-0.001": 18.2236503717,
			"0.0": 23.6490742605,
			"0.001": 16.2386234952,
			"0.002": 8.95007350898,
			"0.003": 4.61561260891,
			"0.004": 6.20029633349,
			"0.005": 5.51094022494,
			"0.006": 5.9171164314,
			"0.007": 5.04164650972,
			"0.008": 6.13521754261,
			"0.009": 8.36304774973,
			"0.01": 12.3890279319,
			"0.011": 14.0360905831,
			"0.012": 5.70757924138,
			"0.013": 0.595722240052,
			"0.014": 0.0,
			"0.015": 0.0,
			"0.016": 0.0,
			"0.017": 0.0,
			"0.018": 0.0,
			"0.019": 0.0,
			"0.02": 0.0,
			"0.021": 0.0,
			"0.022": 0.0,
			"0.023": 0.0,
			"0.024": 0.0,
			"0.025": 0.0
		}
	}
}
