{
	 "smiles": "BrCC(=O)C(C1=CC=CC=C1)C1=CC=CC=C1", 
	 "Tm": 338.15, 
	 "num_atms": 30, 
	 "gaussian": { 
		 "optdone": 1, 
		 "sigma_profile": "yes", 
		 "theory": "DFT", 
		 "functional": "B3LYP", 
		 "basiset": "6-31G**", 
		 "properties": { 
			 "R2extent": 6995.0354, 
			 "electric_dipole_moment_norm": 4.1593270874, 
			 "electric_quadrupole_moment_norm": 16.8661531227, 
			 "total_energy": -3226.05122798, 
			 "HOMO_LUMO_gap": 0.20151, 
			 "cosmo_polarized_energy": -11.21, 
			 "cosmo_cavitation_energy": 35.7, 
			 "cosmo_dispersion_energy": -24.91, 
			 "cosmo_repulsion_energy": 1.96, 
			 "cosmo_total_nonelectrostatic_energy": 12.74, 
			 "SMD_solvation_energy": 5.2 
		},
		"coords": [
			{
				"x": 3.0691826621,
				"y": 3.6676489649,
				"z": -1.0951188717,
				"element": "Br" 
			},
			{
				"x": 1.5716470336,
				"y": 2.678524977,
				"z": -0.3204967847,
				"element": "C" 
			},
			{
				"x": 1.7564357492,
				"y": 1.1627532335,
				"z": -0.3767577107,
				"element": "C" 
			},
			{
				"x": 2.8250177479,
				"y": 0.6348862273,
				"z": -0.583780561,
				"element": "O" 
			},
			{
				"x": 0.4851298405,
				"y": 0.3141570884,
				"z": -0.1228248195,
				"element": "C" 
			},
			{
				"x": -0.4951106391,
				"y": 0.3826409758,
				"z": -1.2993529883,
				"element": "C" 
			},
			{
				"x": -1.8330090414,
				"y": -0.0075960937,
				"z": -1.1385169433,
				"element": "C" 
			},
			{
				"x": -2.7088783193,
				"y": -0.0224300784,
				"z": -2.2240231414,
				"element": "C" 
			},
			{
				"x": -2.2651926552,
				"y": 0.3529495678,
				"z": -3.4933458743,
				"element": "C" 
			},
			{
				"x": -0.9347273642,
				"y": 0.7321842649,
				"z": -3.6685478698,
				"element": "C" 
			},
			{
				"x": -0.0569381239,
				"y": 0.7414630724,
				"z": -2.5826945191,
				"element": "C" 
			},
			{
				"x": -0.0944005863,
				"y": 0.6385630309,
				"z": 1.2532365907,
				"element": "C" 
			},
			{
				"x": 0.3592815228,
				"y": -0.0841682533,
				"z": 2.365730867,
				"element": "C" 
			},
			{
				"x": -0.0935236077,
				"y": 0.2170851028,
				"z": 3.6508678506,
				"element": "C" 
			},
			{
				"x": -1.0091354042,
				"y": 1.2520166655,
				"z": 3.8455858585,
				"element": "C" 
			},
			{
				"x": -1.4692121033,
				"y": 1.9795743295,
				"z": 2.7461551789,
				"element": "C" 
			},
			{
				"x": -1.0160790396,
				"y": 1.6762354997,
				"z": 1.4617103305,
				"element": "C" 
			},
			{
				"x": 1.4849800226,
				"y": 2.9974186744,
				"z": 0.7193471454,
				"element": "H" 
			},
			{
				"x": 0.6705498794,
				"y": 2.9835100848,
				"z": -0.8523427238,
				"element": "H" 
			},
			{
				"x": 0.8791429314,
				"y": -0.7081604212,
				"z": -0.082702541,
				"element": "H" 
			},
			{
				"x": -2.191788088,
				"y": -0.3026716631,
				"z": -0.1576800118,
				"element": "H" 
			},
			{
				"x": -3.740471929,
				"y": -0.3290972408,
				"z": -2.0756532745,
				"element": "H" 
			},
			{
				"x": -2.9486894286,
				"y": 0.3452790066,
				"z": -4.3373020619,
				"element": "H" 
			},
			{
				"x": -0.5725096496,
				"y": 1.0186915292,
				"z": -4.6516182574,
				"element": "H" 
			},
			{
				"x": 0.9807795094,
				"y": 1.017726512,
				"z": -2.7489792614,
				"element": "H" 
			},
			{
				"x": 1.0753355327,
				"y": -0.889235796,
				"z": 2.2215372604,
				"element": "H" 
			},
			{
				"x": 0.2685467073,
				"y": -0.3584393505,
				"z": 4.4978765607,
				"element": "H" 
			},
			{
				"x": -1.3648109655,
				"y": 1.4874385963,
				"z": 4.8443385436,
				"element": "H" 
			},
			{
				"x": -2.185910139,
				"y": 2.7837819813,
				"z": 2.8864020926,
				"element": "H" 
			},
			{
				"x": -1.395642055,
				"y": 2.2389695123,
				"z": 0.6141499366,
				"element": "H" 
			}
		],
		 "valence_orbital": [ 
			{
				"type": "occ",
				"energy": -0.27335,
				"method": "rhf"
			},
			{
				"type": "occ",
				"energy": -0.26376,
				"method": "rhf"
			},
			{
				"type": "occ",
				"energy": -0.25732,
				"method": "rhf"
			},
			{
				"type": "occ",
				"energy": -0.25623,
				"method": "rhf"
			},
			{
				"type": "occ",
				"energy": -0.2418,
				"method": "rhf"
			},
			{
				"type": "unocc",
				"energy": -0.04029,
				"method": "rhf"
			},
			{
				"type": "unocc",
				"energy": -0.0219,
				"method": "rhf"
			},
			{
				"type": "unocc",
				"energy": -0.01226,
				"method": "rhf"
			},
			{
				"type": "unocc",
				"energy": -0.00908,
				"method": "rhf"
			},
			{
				"type": "unocc",
				"energy": -0.00602,
				"method": "rhf"
			}
		],
		"cosmo_sigma_profile": { 
			"-0.025": 0.0,
			"-0.024": 0.0,
			"-0.023": 0.0,
			"-0.022": 0.0,
			"-0.021": 0.0,
			"-0.02": 0.0,
			"-0.019": 0.0,
			"-0.018": 0.0,
			"-0.017": 0.0,
			"-0.016": 0.0,
			"-0.015": 0.0,
			"-0.014": 0.0,
			"-0.013": 0.0,
			"-0.012": 0.0,
			"-0.011": 0.0,
			"-0.01": 0.0,
			"-0.009": 0.867266927668,
			"-0.008": 3.39194402222,
			"-0.007": 4.66666940135,
			"-0.006": 17.7486744527,
			"-0.005": 25.4931676248,
			"-0.004": 27.8657095275,
			"-0.003": 25.3421072031,
			"-0.002": 19.7109807878,
			"-0.001": 18.305310531,
			"0.0": 17.9940856362,
			"0.001": 17.076783421,
			"0.002": 18.2525119653,
			"0.003": 18.7152357266,
			"0.004": 20.2174710545,
			"0.005": 23.7067424248,
			"0.006": 12.053342406,
			"0.007": 1.99514225968,
			"0.008": 2.29981517041,
			"0.009": 2.44210644618,
			"0.01": 3.97040436571,
			"0.011": 4.20596758679,
			"0.012": 1.8452898712,
			"0.013": 0.0527236834381,
			"0.014": 0.0,
			"0.015": 0.0,
			"0.016": 0.0,
			"0.017": 0.0,
			"0.018": 0.0,
			"0.019": 0.0,
			"0.02": 0.0,
			"0.021": 0.0,
			"0.022": 0.0,
			"0.023": 0.0,
			"0.024": 0.0,
			"0.025": 0.0
		}
	}
}
