{
	 "smiles": "CN(C)C1=C(C=C(C=O)C=C1)[N+]([O-])=O", 
	 "Tm": 378.15, 
	 "num_atms": 24, 
	 "gaussian": { 
		 "optdone": 1, 
		 "sigma_profile": "yes", 
		 "theory": "DFT", 
		 "functional": "B3LYP", 
		 "basiset": "6-31G**", 
		 "properties": { 
			 "R2extent": 3016.998, 
			 "electric_dipole_moment_norm": 5.16269743836, 
			 "electric_quadrupole_moment_norm": 17.1942474063, 
			 "total_energy": -684.035773772, 
			 "HOMO_LUMO_gap": 0.14227, 
			 "cosmo_polarized_energy": -14.36, 
			 "cosmo_cavitation_energy": 28.2, 
			 "cosmo_dispersion_energy": -20.24, 
			 "cosmo_repulsion_energy": 1.56, 
			 "cosmo_total_nonelectrostatic_energy": 9.53, 
			 "SMD_solvation_energy": 8.06 
		},
		"coords": [
			{
				"x": -0.4210625522,
				"y": 2.2550208243,
				"z": -1.6908613463,
				"element": "C" 
			},
			{
				"x": -0.6101270958,
				"y": 0.8099256972,
				"z": -1.7726397643,
				"element": "N" 
			},
			{
				"x": -1.2404973999,
				"y": 0.3401106725,
				"z": -2.9998029564,
				"element": "C" 
			},
			{
				"x": -0.48493994,
				"y": -0.0212497893,
				"z": -0.6922257064,
				"element": "C" 
			},
			{
				"x": 0.3756679308,
				"y": 0.2312283854,
				"z": 0.4196495975,
				"element": "C" 
			},
			{
				"x": 0.3308181972,
				"y": -0.5524020478,
				"z": 1.5725304473,
				"element": "C" 
			},
			{
				"x": -0.4962940741,
				"y": -1.6684109449,
				"z": 1.6480891749,
				"element": "C" 
			},
			{
				"x": -0.5238478226,
				"y": -2.5028482159,
				"z": 2.8609969317,
				"element": "C" 
			},
			{
				"x": -1.2082615602,
				"y": -3.5019521673,
				"z": 2.9939381932,
				"element": "O" 
			},
			{
				"x": -1.2866412474,
				"y": -1.9926251035,
				"z": 0.5271772046,
				"element": "C" 
			},
			{
				"x": -1.2824005316,
				"y": -1.1996486558,
				"z": -0.6000016148,
				"element": "C" 
			},
			{
				"x": 1.4662615662,
				"y": 1.207207007,
				"z": 0.3730714384,
				"element": "N" 
			},
			{
				"x": 1.8318843625,
				"y": 1.7116876365,
				"z": 1.4375166566,
				"element": "O" 
			},
			{
				"x": 2.0045393442,
				"y": 1.4213992699,
				"z": -0.716545938,
				"element": "O" 
			},
			{
				"x": -0.4427646483,
				"y": 2.5853110209,
				"z": -0.6507004127,
				"element": "H" 
			},
			{
				"x": -1.2529091837,
				"y": 2.743772827,
				"z": -2.2097043387,
				"element": "H" 
			},
			{
				"x": 0.5251049341,
				"y": 2.5763098275,
				"z": -2.1364750915,
				"element": "H" 
			},
			{
				"x": -2.3386662315,
				"y": 0.3950956085,
				"z": -2.9627939944,
				"element": "H" 
			},
			{
				"x": -0.8955543026,
				"y": 0.9654966185,
				"z": -3.8266421946,
				"element": "H" 
			},
			{
				"x": -0.9443539396,
				"y": -0.6881289796,
				"z": -3.216963142,
				"element": "H" 
			},
			{
				"x": 0.9921806983,
				"y": -0.2898987353,
				"z": 2.3916350052,
				"element": "H" 
			},
			{
				"x": 0.1418443337,
				"y": -2.1510394562,
				"z": 3.6802012237,
				"element": "H" 
			},
			{
				"x": -1.923526183,
				"y": -2.8699994774,
				"z": 0.5838163822,
				"element": "H" 
			},
			{
				"x": -1.9481546547,
				"y": -1.4472618222,
				"z": -1.4170657551,
				"element": "H" 
			}
		],
		 "valence_orbital": [ 
			{
				"type": "occ",
				"energy": -0.30195,
				"method": "rhf"
			},
			{
				"type": "occ",
				"energy": -0.29716,
				"method": "rhf"
			},
			{
				"type": "occ",
				"energy": -0.27613,
				"method": "rhf"
			},
			{
				"type": "occ",
				"energy": -0.25523,
				"method": "rhf"
			},
			{
				"type": "occ",
				"energy": -0.2261,
				"method": "rhf"
			},
			{
				"type": "unocc",
				"energy": -0.08383,
				"method": "rhf"
			},
			{
				"type": "unocc",
				"energy": -0.0611,
				"method": "rhf"
			},
			{
				"type": "unocc",
				"energy": -0.01682,
				"method": "rhf"
			},
			{
				"type": "unocc",
				"energy": 0.0353,
				"method": "rhf"
			},
			{
				"type": "unocc",
				"energy": 0.07451,
				"method": "rhf"
			}
		],
		"cosmo_sigma_profile": { 
			"-0.025": 0.0,
			"-0.024": 0.0,
			"-0.023": 0.0,
			"-0.022": 0.0,
			"-0.021": 0.0,
			"-0.02": 0.0,
			"-0.019": 0.0,
			"-0.018": 0.0,
			"-0.017": 0.0,
			"-0.016": 0.0,
			"-0.015": 0.0,
			"-0.014": 0.0,
			"-0.013": 0.0,
			"-0.012": 0.0,
			"-0.011": 0.0,
			"-0.01": 0.0,
			"-0.009": 0.507225328098,
			"-0.008": 3.28692653692,
			"-0.007": 8.99886923741,
			"-0.006": 19.1177523866,
			"-0.005": 20.5054057259,
			"-0.004": 21.7352184978,
			"-0.003": 21.6139170861,
			"-0.002": 16.0460603588,
			"-0.001": 11.019653042,
			"0.0": 15.9559487776,
			"0.001": 14.1357799228,
			"0.002": 10.1808825184,
			"0.003": 6.76341589623,
			"0.004": 4.40439945874,
			"0.005": 4.56977077572,
			"0.006": 4.53775801396,
			"0.007": 6.0959164177,
			"0.008": 11.3607873017,
			"0.009": 7.54656676799,
			"0.01": 6.23333051671,
			"0.011": 4.48652158878,
			"0.012": 3.95631651026,
			"0.013": 1.48541055357,
			"0.014": 0.0826006662022,
			"0.015": 0.0,
			"0.016": 0.0,
			"0.017": 0.0,
			"0.018": 0.0,
			"0.019": 0.0,
			"0.02": 0.0,
			"0.021": 0.0,
			"0.022": 0.0,
			"0.023": 0.0,
			"0.024": 0.0,
			"0.025": 0.0
		}
	}
}
