{
	 "smiles": "CC1=CC=C(C=C1)C1=C(CC(O)=O)SC(N)=N1", 
	 "Tm": 493.15, 
	 "num_atms": 29, 
	 "gaussian": { 
		 "optdone": 1, 
		 "sigma_profile": "yes", 
		 "theory": "DFT", 
		 "functional": "B3LYP", 
		 "basiset": "6-31G**", 
		 "properties": { 
			 "R2extent": 5284.0656, 
			 "electric_dipole_moment_norm": 2.19375565412, 
			 "electric_quadrupole_moment_norm": 16.6407976564, 
			 "total_energy": -1122.67329736, 
			 "HOMO_LUMO_gap": 0.17244, 
			 "cosmo_polarized_energy": -16.99, 
			 "cosmo_cavitation_energy": 34.86, 
			 "cosmo_dispersion_energy": -25.46, 
			 "cosmo_repulsion_energy": 1.96, 
			 "cosmo_total_nonelectrostatic_energy": 11.35, 
			 "SMD_solvation_energy": 5.33 
		},
		"coords": [
			{
				"x": 4.3144409636,
				"y": -3.7030018894,
				"z": -0.1462128563,
				"element": "C" 
			},
			{
				"x": 3.3276786702,
				"y": -2.5650308109,
				"z": -0.2560407297,
				"element": "C" 
			},
			{
				"x": 2.2426595813,
				"y": -2.4564239145,
				"z": 0.6206401729,
				"element": "C" 
			},
			{
				"x": 1.3156571816,
				"y": -1.4190586591,
				"z": 0.5094188156,
				"element": "C" 
			},
			{
				"x": 1.4444718036,
				"y": -0.4550427368,
				"z": -0.5040619256,
				"element": "C" 
			},
			{
				"x": 2.5485587047,
				"y": -0.5463249667,
				"z": -1.3708292957,
				"element": "C" 
			},
			{
				"x": 3.4665581318,
				"y": -1.5833182458,
				"z": -1.2491134084,
				"element": "C" 
			},
			{
				"x": 0.4888044888,
				"y": 0.6600931851,
				"z": -0.6771975536,
				"element": "C" 
			},
			{
				"x": -0.8720780005,
				"y": 0.6222130729,
				"z": -0.4797370112,
				"element": "C" 
			},
			{
				"x": -1.7687258091,
				"y": -0.5276533005,
				"z": -0.108205522,
				"element": "C" 
			},
			{
				"x": -2.1998542037,
				"y": -0.4723047407,
				"z": 1.3502938736,
				"element": "C" 
			},
			{
				"x": -3.3014951934,
				"y": 0.2967614817,
				"z": 1.5141289191,
				"element": "O" 
			},
			{
				"x": -1.6364498933,
				"y": -1.0118843112,
				"z": 2.2775755496,
				"element": "O" 
			},
			{
				"x": -1.5661035108,
				"y": 2.2007392441,
				"z": -0.8519273668,
				"element": "S" 
			},
			{
				"x": 0.0557924597,
				"y": 2.7628501907,
				"z": -1.2587751064,
				"element": "C" 
			},
			{
				"x": 0.2685475714,
				"y": 4.0384730255,
				"z": -1.7314746179,
				"element": "N" 
			},
			{
				"x": 0.9934984993,
				"y": 1.8745757591,
				"z": -1.1270061041,
				"element": "N" 
			},
			{
				"x": 5.3397265059,
				"y": -3.3638926672,
				"z": -0.3272275018,
				"element": "H" 
			},
			{
				"x": 4.2813109218,
				"y": -4.1674097959,
				"z": 0.843647903,
				"element": "H" 
			},
			{
				"x": 4.1000714868,
				"y": -4.4874218391,
				"z": -0.8832261768,
				"element": "H" 
			},
			{
				"x": 2.1254550873,
				"y": -3.1856073171,
				"z": 1.4187472287,
				"element": "H" 
			},
			{
				"x": 0.5154851005,
				"y": -1.345837197,
				"z": 1.2389499529,
				"element": "H" 
			},
			{
				"x": 2.6758431064,
				"y": 0.2118580998,
				"z": -2.136140642,
				"element": "H" 
			},
			{
				"x": 4.3095812934,
				"y": -1.632445752,
				"z": -1.9347171775,
				"element": "H" 
			},
			{
				"x": -1.2286150578,
				"y": -1.4638119818,
				"z": -0.2599921714,
				"element": "H" 
			},
			{
				"x": -2.6646167248,
				"y": -0.5328701249,
				"z": -0.7380564355,
				"element": "H" 
			},
			{
				"x": -3.4764364547,
				"y": 0.326859636,
				"z": 2.4702000343,
				"element": "H" 
			},
			{
				"x": -0.3580887891,
				"y": 4.7587796652,
				"z": -1.4023680628,
				"element": "H" 
			},
			{
				"x": 1.2447220791,
				"y": 4.3046368906,
				"z": -1.7144927845,
				"element": "H" 
			}
		],
		 "valence_orbital": [ 
			{
				"type": "occ",
				"energy": -0.27316,
				"method": "rhf"
			},
			{
				"type": "occ",
				"energy": -0.27,
				"method": "rhf"
			},
			{
				"type": "occ",
				"energy": -0.23998,
				"method": "rhf"
			},
			{
				"type": "occ",
				"energy": -0.23704,
				"method": "rhf"
			},
			{
				"type": "occ",
				"energy": -0.19882,
				"method": "rhf"
			},
			{
				"type": "unocc",
				"energy": -0.02638,
				"method": "rhf"
			},
			{
				"type": "unocc",
				"energy": 0.00458,
				"method": "rhf"
			},
			{
				"type": "unocc",
				"energy": 0.00625,
				"method": "rhf"
			},
			{
				"type": "unocc",
				"energy": 0.01291,
				"method": "rhf"
			},
			{
				"type": "unocc",
				"energy": 0.01686,
				"method": "rhf"
			}
		],
		"cosmo_sigma_profile": { 
			"-0.025": 0.0,
			"-0.024": 0.0,
			"-0.023": 0.0,
			"-0.022": 0.0,
			"-0.021": 0.0,
			"-0.02": 0.0,
			"-0.019": 0.128799135642,
			"-0.018": 0.810310572524,
			"-0.017": 1.06833810461,
			"-0.016": 0.775779637874,
			"-0.015": 1.28988505238,
			"-0.014": 2.8403997224,
			"-0.013": 3.35737018514,
			"-0.012": 3.07005903506,
			"-0.011": 3.63573110721,
			"-0.01": 2.95723362473,
			"-0.009": 2.39757890324,
			"-0.008": 2.32975430585,
			"-0.007": 4.15814859652,
			"-0.006": 6.68739853827,
			"-0.005": 13.3777471891,
			"-0.004": 18.7468204855,
			"-0.003": 18.3762819048,
			"-0.002": 18.3452842641,
			"-0.001": 17.1899897851,
			"0.0": 22.0690204436,
			"0.001": 19.0418508083,
			"0.002": 21.8446038537,
			"0.003": 20.8721795941,
			"0.004": 16.9067615616,
			"0.005": 17.4439833885,
			"0.006": 11.371268181,
			"0.007": 5.64480693057,
			"0.008": 5.71175422746,
			"0.009": 3.82267289238,
			"0.01": 3.94623133319,
			"0.011": 5.91627070906,
			"0.012": 1.94065055108,
			"0.013": 0.820960013549,
			"0.014": 0.484881488272,
			"0.015": 0.0526790737244,
			"0.016": 0.0,
			"0.017": 0.0,
			"0.018": 0.0,
			"0.019": 0.0,
			"0.02": 0.0,
			"0.021": 0.0,
			"0.022": 0.0,
			"0.023": 0.0,
			"0.024": 0.0,
			"0.025": 0.0
		}
	}
}
