{
	 "smiles": "OC(=O)C1=C(Cl)C=C(OC(F)(F)F)C=C1Cl", 
	 "Tm": 425.15, 
	 "num_atms": 19, 
	 "gaussian": { 
		 "optdone": 1, 
		 "sigma_profile": "yes", 
		 "theory": "DFT", 
		 "functional": "B3LYP", 
		 "basiset": "6-31G**", 
		 "properties": { 
			 "R2extent": 5819.9863, 
			 "electric_dipole_moment_norm": 4.06880205466, 
			 "electric_quadrupole_moment_norm": 25.5835706228, 
			 "total_energy": -1752.22915018, 
			 "HOMO_LUMO_gap": 0.21568, 
			 "cosmo_polarized_energy": -12.9, 
			 "cosmo_cavitation_energy": 29.85, 
			 "cosmo_dispersion_energy": -21.25, 
			 "cosmo_repulsion_energy": 1.61, 
			 "cosmo_total_nonelectrostatic_energy": 10.21, 
			 "SMD_solvation_energy": 7.24 
		},
		"coords": [
			{
				"x": 2.2559889273,
				"y": -0.508201388,
				"z": -4.5812058783,
				"element": "O" 
			},
			{
				"x": 0.9806214872,
				"y": -0.3901661534,
				"z": -4.1482260844,
				"element": "C" 
			},
			{
				"x": 0.0521940455,
				"y": -0.6692524753,
				"z": -4.8587373896,
				"element": "O" 
			},
			{
				"x": 0.8092014252,
				"y": 0.100960424,
				"z": -2.7242835288,
				"element": "C" 
			},
			{
				"x": 1.125912872,
				"y": 1.4155078481,
				"z": -2.3442947527,
				"element": "C" 
			},
			{
				"x": 1.8347752296,
				"y": 2.5180425208,
				"z": -3.5109281741,
				"element": "Cl" 
			},
			{
				"x": 0.8866348167,
				"y": 1.8966971335,
				"z": -1.0626762793,
				"element": "C" 
			},
			{
				"x": 0.3232946687,
				"y": 1.0401122829,
				"z": -0.1189235541,
				"element": "C" 
			},
			{
				"x": 0.1421089559,
				"y": 1.6160411109,
				"z": 1.1284899202,
				"element": "O" 
			},
			{
				"x": -0.5241541401,
				"y": 0.9613448404,
				"z": 2.1227853992,
				"element": "C" 
			},
			{
				"x": 0.110972581,
				"y": -0.1628861716,
				"z": 2.5034558212,
				"element": "F" 
			},
			{
				"x": -1.7701402902,
				"y": 0.6183573446,
				"z": 1.7575936378,
				"element": "F" 
			},
			{
				"x": -0.587267148,
				"y": 1.7881326746,
				"z": 3.1596529765,
				"element": "F" 
			},
			{
				"x": 0.0016236647,
				"y": -0.2777965654,
				"z": -0.4386779725,
				"element": "C" 
			},
			{
				"x": 0.240686208,
				"y": -0.7211797426,
				"z": -1.7389944678,
				"element": "C" 
			},
			{
				"x": -0.1579207127,
				"y": -2.3827828447,
				"z": -2.1063293811,
				"element": "Cl" 
			},
			{
				"x": 2.8761018027,
				"y": -0.2375768302,
				"z": -3.8885381944,
				"element": "H" 
			},
			{
				"x": 1.125255704,
				"y": 2.9173991207,
				"z": -0.7918494634,
				"element": "H" 
			},
			{
				"x": -0.4211900976,
				"y": -0.9579531292,
				"z": 0.2861873656,
				"element": "H" 
			}
		],
		 "valence_orbital": [ 
			{
				"type": "occ",
				"energy": -0.33537,
				"method": "rhf"
			},
			{
				"type": "occ",
				"energy": -0.3255,
				"method": "rhf"
			},
			{
				"type": "occ",
				"energy": -0.29739,
				"method": "rhf"
			},
			{
				"type": "occ",
				"energy": -0.27907,
				"method": "rhf"
			},
			{
				"type": "occ",
				"energy": -0.27241,
				"method": "rhf"
			},
			{
				"type": "unocc",
				"energy": -0.05673,
				"method": "rhf"
			},
			{
				"type": "unocc",
				"energy": -0.05359,
				"method": "rhf"
			},
			{
				"type": "unocc",
				"energy": -0.01837,
				"method": "rhf"
			},
			{
				"type": "unocc",
				"energy": -0.0023,
				"method": "rhf"
			},
			{
				"type": "unocc",
				"energy": 0.02953,
				"method": "rhf"
			}
		],
		"cosmo_sigma_profile": { 
			"-0.025": 0.0,
			"-0.024": 0.0,
			"-0.023": 0.0,
			"-0.022": 0.0,
			"-0.021": 0.0,
			"-0.02": 0.167044430421,
			"-0.019": 1.03321991272,
			"-0.018": 0.526952167474,
			"-0.017": 0.799030128732,
			"-0.016": 1.06816745924,
			"-0.015": 1.2759876297,
			"-0.014": 0.576552751091,
			"-0.013": 0.831615247165,
			"-0.012": 0.759262570226,
			"-0.011": 0.853356357884,
			"-0.01": 1.24619749134,
			"-0.009": 3.44952588905,
			"-0.008": 2.97088668977,
			"-0.007": 3.57750577402,
			"-0.006": 4.53043912101,
			"-0.005": 4.7498109116,
			"-0.004": 6.67178115953,
			"-0.003": 14.913925471,
			"-0.002": 25.4646940706,
			"-0.001": 31.0238707096,
			"0.0": 24.297357789,
			"0.001": 37.3366833027,
			"0.002": 25.9105428497,
			"0.003": 15.6517097349,
			"0.004": 5.43878100694,
			"0.005": 3.50097207518,
			"0.006": 3.10703788417,
			"0.007": 2.95547270115,
			"0.008": 4.64653570824,
			"0.009": 5.0751866485,
			"0.01": 5.46708723643,
			"0.011": 4.55715822486,
			"0.012": 0.698591661985,
			"0.013": 0.0,
			"0.014": 0.0,
			"0.015": 0.0,
			"0.016": 0.0,
			"0.017": 0.0,
			"0.018": 0.0,
			"0.019": 0.0,
			"0.02": 0.0,
			"0.021": 0.0,
			"0.022": 0.0,
			"0.023": 0.0,
			"0.024": 0.0,
			"0.025": 0.0
		}
	}
}
