{
	 "smiles": "O=N(=O)N1CCCCC1", 
	 "Tm": 267.65, 
	 "num_atms": 19, 
	 "gaussian": { 
		 "optdone": 1, 
		 "sigma_profile": "yes", 
		 "theory": "DFT", 
		 "functional": "B3LYP", 
		 "basiset": "6-31G**", 
		 "properties": { 
			 "R2extent": 1476.1114, 
			 "electric_dipole_moment_norm": 5.10401841787, 
			 "electric_quadrupole_moment_norm": 5.22214093069, 
			 "total_energy": -456.396618417, 
			 "HOMO_LUMO_gap": 0.22793, 
			 "cosmo_polarized_energy": -9.75, 
			 "cosmo_cavitation_energy": 21.02, 
			 "cosmo_dispersion_energy": -16.06, 
			 "cosmo_repulsion_energy": 1.34, 
			 "cosmo_total_nonelectrostatic_energy": 6.3, 
			 "SMD_solvation_energy": 4.41 
		},
		"coords": [
			{
				"x": 0.8788650203,
				"y": -0.0132433625,
				"z": -1.500144255,
				"element": "O" 
			},
			{
				"x": 1.0868309058,
				"y": -0.1797149493,
				"z": -0.2952161657,
				"element": "N" 
			},
			{
				"x": 2.1516769567,
				"y": 0.0401901217,
				"z": 0.2898431446,
				"element": "O" 
			},
			{
				"x": 0.0504796164,
				"y": -0.6203374547,
				"z": 0.4853969707,
				"element": "N" 
			},
			{
				"x": -1.1738282533,
				"y": -1.101041443,
				"z": -0.1515852742,
				"element": "C" 
			},
			{
				"x": -2.3954109765,
				"y": -0.7219114762,
				"z": 0.7065826478,
				"element": "C" 
			},
			{
				"x": -2.110663666,
				"y": -0.8298165389,
				"z": 2.2286092724,
				"element": "C" 
			},
			{
				"x": -0.8503824318,
				"y": -1.6588764707,
				"z": 2.5074806657,
				"element": "C" 
			},
			{
				"x": 0.3825220512,
				"y": -1.0165389703,
				"z": 1.8589960922,
				"element": "C" 
			},
			{
				"x": -1.2230648169,
				"y": -0.6508518107,
				"z": -1.1406971394,
				"element": "H" 
			},
			{
				"x": -1.1152536024,
				"y": -2.1905263616,
				"z": -0.2884387442,
				"element": "H" 
			},
			{
				"x": -3.2200099295,
				"y": -1.3826442061,
				"z": 0.4181473413,
				"element": "H" 
			},
			{
				"x": -2.7081513036,
				"y": 0.2974612886,
				"z": 0.4605291653,
				"element": "H" 
			},
			{
				"x": -1.9660631882,
				"y": 0.1729500493,
				"z": 2.6480526109,
				"element": "H" 
			},
			{
				"x": -2.9711585048,
				"y": -1.2614823656,
				"z": 2.7492870261,
				"element": "H" 
			},
			{
				"x": -0.9814889095,
				"y": -2.6825928718,
				"z": 2.1360491091,
				"element": "H" 
			},
			{
				"x": -0.666601526,
				"y": -1.7402345438,
				"z": 3.583590778,
				"element": "H" 
			},
			{
				"x": 0.6882897077,
				"y": -0.1234404151,
				"z": 2.4140446008,
				"element": "H" 
			},
			{
				"x": 1.2402128505,
				"y": -1.6995482193,
				"z": 1.8544721536,
				"element": "H" 
			}
		],
		 "valence_orbital": [ 
			{
				"type": "occ",
				"energy": -0.34056,
				"method": "rhf"
			},
			{
				"type": "occ",
				"energy": -0.3085,
				"method": "rhf"
			},
			{
				"type": "occ",
				"energy": -0.29363,
				"method": "rhf"
			},
			{
				"type": "occ",
				"energy": -0.27331,
				"method": "rhf"
			},
			{
				"type": "occ",
				"energy": -0.25965,
				"method": "rhf"
			},
			{
				"type": "unocc",
				"energy": -0.03172,
				"method": "rhf"
			},
			{
				"type": "unocc",
				"energy": 0.06505,
				"method": "rhf"
			},
			{
				"type": "unocc",
				"energy": 0.09649,
				"method": "rhf"
			},
			{
				"type": "unocc",
				"energy": 0.11431,
				"method": "rhf"
			},
			{
				"type": "unocc",
				"energy": 0.1184,
				"method": "rhf"
			}
		],
		"cosmo_sigma_profile": { 
			"-0.025": 0.0,
			"-0.024": 0.0,
			"-0.023": 0.0,
			"-0.022": 0.0,
			"-0.021": 0.0,
			"-0.02": 0.0,
			"-0.019": 0.0,
			"-0.018": 0.0,
			"-0.017": 0.0,
			"-0.016": 0.0,
			"-0.015": 0.0,
			"-0.014": 0.0,
			"-0.013": 0.0,
			"-0.012": 0.0,
			"-0.011": 0.0,
			"-0.01": 0.0,
			"-0.009": 0.0,
			"-0.008": 0.0,
			"-0.007": 0.0203919140738,
			"-0.006": 3.62825036699,
			"-0.005": 14.3833657002,
			"-0.004": 22.6506981992,
			"-0.003": 27.4782265231,
			"-0.002": 22.3263684804,
			"-0.001": 15.6260193364,
			"0.0": 11.4223453003,
			"0.001": 3.83680715439,
			"0.002": 3.19073203994,
			"0.003": 2.04743259539,
			"0.004": 1.91983180103,
			"0.005": 2.31084461595,
			"0.006": 2.82694079146,
			"0.007": 3.08149013663,
			"0.008": 4.30825421265,
			"0.009": 11.0675340941,
			"0.01": 6.22447528007,
			"0.011": 4.2797005771,
			"0.012": 0.908659112673,
			"0.013": 0.0,
			"0.014": 0.0,
			"0.015": 0.0,
			"0.016": 0.0,
			"0.017": 0.0,
			"0.018": 0.0,
			"0.019": 0.0,
			"0.02": 0.0,
			"0.021": 0.0,
			"0.022": 0.0,
			"0.023": 0.0,
			"0.024": 0.0,
			"0.025": 0.0
		}
	}
}
