{
	 "smiles": "NC1=C(F)C=CC(=C1)N1CCCS1(=O)=O", 
	 "Tm": 376.15, 
	 "num_atms": 26, 
	 "gaussian": { 
		 "optdone": 1, 
		 "sigma_profile": "yes", 
		 "theory": "DFT", 
		 "functional": "B3LYP", 
		 "basiset": "6-31G**", 
		 "properties": { 
			 "R2extent": 4307.2829, 
			 "electric_dipole_moment_norm": 3.75523718558, 
			 "electric_quadrupole_moment_norm": 19.3126899771, 
			 "total_energy": -1107.48963932, 
			 "HOMO_LUMO_gap": 0.19928, 
			 "cosmo_polarized_energy": -19.13, 
			 "cosmo_cavitation_energy": 30.41, 
			 "cosmo_dispersion_energy": -22.74, 
			 "cosmo_repulsion_energy": 1.71, 
			 "cosmo_total_nonelectrostatic_energy": 9.38, 
			 "SMD_solvation_energy": 3.82 
		},
		"coords": [
			{
				"x": 2.5457491985,
				"y": 1.4289329683,
				"z": 3.3542797473,
				"element": "N" 
			},
			{
				"x": 1.4428883929,
				"y": 0.9974423822,
				"z": 2.6287997876,
				"element": "C" 
			},
			{
				"x": 0.1504316973,
				"y": 1.1938139627,
				"z": 3.1425486679,
				"element": "C" 
			},
			{
				"x": 0.0486769199,
				"y": 1.7458662975,
				"z": 4.3817778234,
				"element": "F" 
			},
			{
				"x": -0.9855002432,
				"y": 0.8422303656,
				"z": 2.4425538475,
				"element": "C" 
			},
			{
				"x": -0.8667605567,
				"y": 0.2528793664,
				"z": 1.1797672167,
				"element": "C" 
			},
			{
				"x": 0.4080588023,
				"y": 0.0482447,
				"z": 0.6381323362,
				"element": "C" 
			},
			{
				"x": 1.5520055914,
				"y": 0.434192655,
				"z": 1.352981529,
				"element": "C" 
			},
			{
				"x": 0.5780617437,
				"y": -0.5153422199,
				"z": -0.6600307141,
				"element": "N" 
			},
			{
				"x": -0.5587848023,
				"y": -0.6858246778,
				"z": -1.5661701353,
				"element": "C" 
			},
			{
				"x": 0.0544061771,
				"y": -1.2027426544,
				"z": -2.8748890996,
				"element": "C" 
			},
			{
				"x": 1.0325618331,
				"y": -2.3116871268,
				"z": -2.477270365,
				"element": "C" 
			},
			{
				"x": 1.6696948713,
				"y": -1.8450967553,
				"z": -0.826261621,
				"element": "S" 
			},
			{
				"x": 3.0394689397,
				"y": -1.3254656037,
				"z": -0.9060917478,
				"element": "O" 
			},
			{
				"x": 1.367228997,
				"y": -2.9101750694,
				"z": 0.138292208,
				"element": "O" 
			},
			{
				"x": 2.373348629,
				"y": 1.5537987246,
				"z": 4.3417466137,
				"element": "H" 
			},
			{
				"x": 3.4103361122,
				"y": 0.9450853819,
				"z": 3.1581767927,
				"element": "H" 
			},
			{
				"x": -1.9569374126,
				"y": 1.0145617645,
				"z": 2.8934635262,
				"element": "H" 
			},
			{
				"x": -1.7598228991,
				"y": -0.0457482812,
				"z": 0.6451428399,
				"element": "H" 
			},
			{
				"x": 2.5319687478,
				"y": 0.3015637145,
				"z": 0.9075368979,
				"element": "H" 
			},
			{
				"x": -1.3069722362,
				"y": -1.3954847764,
				"z": -1.1781349523,
				"element": "H" 
			},
			{
				"x": -1.0451648533,
				"y": 0.2839006773,
				"z": -1.7010824613,
				"element": "H" 
			},
			{
				"x": 0.5883380861,
				"y": -0.3884006901,
				"z": -3.3716360367,
				"element": "H" 
			},
			{
				"x": -0.7133775676,
				"y": -1.5802860979,
				"z": -3.5555029815,
				"element": "H" 
			},
			{
				"x": 1.8929847612,
				"y": -2.4224506992,
				"z": -3.1383993734,
				"element": "H" 
			},
			{
				"x": 0.5422110707,
				"y": -3.2770083084,
				"z": -2.334730346,
				"element": "H" 
			}
		],
		 "valence_orbital": [ 
			{
				"type": "occ",
				"energy": -0.30401,
				"method": "rhf"
			},
			{
				"type": "occ",
				"energy": -0.29854,
				"method": "rhf"
			},
			{
				"type": "occ",
				"energy": -0.27552,
				"method": "rhf"
			},
			{
				"type": "occ",
				"energy": -0.22386,
				"method": "rhf"
			},
			{
				"type": "occ",
				"energy": -0.20246,
				"method": "rhf"
			},
			{
				"type": "unocc",
				"energy": -0.00318,
				"method": "rhf"
			},
			{
				"type": "unocc",
				"energy": 0.00971,
				"method": "rhf"
			},
			{
				"type": "unocc",
				"energy": 0.05168,
				"method": "rhf"
			},
			{
				"type": "unocc",
				"energy": 0.05981,
				"method": "rhf"
			},
			{
				"type": "unocc",
				"energy": 0.07286,
				"method": "rhf"
			}
		],
		"cosmo_sigma_profile": { 
			"-0.025": 0.0,
			"-0.024": 0.0,
			"-0.023": 0.0,
			"-0.022": 0.0,
			"-0.021": 0.0,
			"-0.02": 0.0,
			"-0.019": 0.0,
			"-0.018": 0.0,
			"-0.017": 0.0,
			"-0.016": 0.0,
			"-0.015": 0.0,
			"-0.014": 0.0425774612949,
			"-0.013": 1.04076928335,
			"-0.012": 2.21855728469,
			"-0.011": 2.21587432298,
			"-0.01": 2.22512806465,
			"-0.009": 3.87570008441,
			"-0.008": 7.56348430569,
			"-0.007": 11.8225024826,
			"-0.006": 22.6523760233,
			"-0.005": 22.1944369955,
			"-0.004": 18.3510186427,
			"-0.003": 11.5484183655,
			"-0.002": 8.59614485688,
			"-0.001": 7.0906610833,
			"0.0": 7.49989265103,
			"0.001": 9.2607565561,
			"0.002": 12.616916051,
			"0.003": 12.9513749076,
			"0.004": 16.8569758426,
			"0.005": 15.415110453,
			"0.006": 5.60034003615,
			"0.007": 4.90295881815,
			"0.008": 4.17878614504,
			"0.009": 4.74822612121,
			"0.01": 8.78707288674,
			"0.011": 12.0843411214,
			"0.012": 4.02294847796,
			"0.013": 0.552408798493,
			"0.014": 0.213068323586,
			"0.015": 0.0,
			"0.016": 0.0,
			"0.017": 0.0,
			"0.018": 0.0,
			"0.019": 0.0,
			"0.02": 0.0,
			"0.021": 0.0,
			"0.022": 0.0,
			"0.023": 0.0,
			"0.024": 0.0,
			"0.025": 0.0
		}
	}
}
