{
	 "smiles": "O=C(O[C@@H]1CO[C@@H](C#N)[C@H](OC(=O)C2=CC=CC=C2)[C@@H]1OC(=O)C1=CC=CC=C1)C1=CC=CC=C1", 
	 "Tm": 428.15, 
	 "num_atms": 56, 
	 "gaussian": { 
		 "optdone": 1, 
		 "sigma_profile": "yes", 
		 "theory": "DFT", 
		 "functional": "B3LYP", 
		 "basiset": "6-31G**", 
		 "properties": { 
			 "R2extent": 16601.9128, 
			 "electric_dipole_moment_norm": 6.20392521393, 
			 "electric_quadrupole_moment_norm": 27.7093332258, 
			 "total_energy": -1622.84293098, 
			 "HOMO_LUMO_gap": 0.20601, 
			 "cosmo_polarized_energy": -22.74, 
			 "cosmo_cavitation_energy": 63.15, 
			 "cosmo_dispersion_energy": -38.45, 
			 "cosmo_repulsion_energy": 2.9, 
			 "cosmo_total_nonelectrostatic_energy": 27.6, 
			 "SMD_solvation_energy": 13.85 
		},
		"coords": [
			{
				"x": -1.5706506506,
				"y": -3.9223648658,
				"z": -2.4892327657,
				"element": "O" 
			},
			{
				"x": -1.7994522713,
				"y": -3.0554037215,
				"z": -1.6693898322,
				"element": "C" 
			},
			{
				"x": -0.8156714275,
				"y": -2.4063050797,
				"z": -0.9859132111,
				"element": "O" 
			},
			{
				"x": 0.5392744522,
				"y": -2.7410912546,
				"z": -1.3407729722,
				"element": "C" 
			},
			{
				"x": 0.961206201,
				"y": -4.0386785145,
				"z": -0.6617653861,
				"element": "C" 
			},
			{
				"x": 0.8158248498,
				"y": -3.9955849339,
				"z": 0.7623944674,
				"element": "O" 
			},
			{
				"x": 0.987831168,
				"y": -2.7203308256,
				"z": 1.3678345293,
				"element": "C" 
			},
			{
				"x": 1.4639476679,
				"y": -2.9428952937,
				"z": 2.7449825641,
				"element": "C" 
			},
			{
				"x": 1.8269937145,
				"y": -3.1066728066,
				"z": 3.8340010396,
				"element": "N" 
			},
			{
				"x": 1.9805580782,
				"y": -1.8508497927,
				"z": 0.5709973982,
				"element": "C" 
			},
			{
				"x": 2.1824027211,
				"y": -0.6611165084,
				"z": 1.3293669958,
				"element": "O" 
			},
			{
				"x": 3.2784782113,
				"y": 0.0803521543,
				"z": 0.9961514955,
				"element": "C" 
			},
			{
				"x": 4.0103776779,
				"y": -0.2220563253,
				"z": 0.0751834983,
				"element": "O" 
			},
			{
				"x": 3.4506240887,
				"y": 1.2634253348,
				"z": 1.8760379562,
				"element": "C" 
			},
			{
				"x": 2.6377860183,
				"y": 1.4898120929,
				"z": 2.9966100089,
				"element": "C" 
			},
			{
				"x": 2.8530570565,
				"y": 2.6148493298,
				"z": 3.7904367582,
				"element": "C" 
			},
			{
				"x": 3.8727197793,
				"y": 3.5146939524,
				"z": 3.4699343432,
				"element": "C" 
			},
			{
				"x": 4.6846452434,
				"y": 3.2890230222,
				"z": 2.3547046649,
				"element": "C" 
			},
			{
				"x": 4.477151751,
				"y": 2.1651064726,
				"z": 1.55999286,
				"element": "C" 
			},
			{
				"x": 1.4487152978,
				"y": -1.5799336898,
				"z": -0.8609868457,
				"element": "C" 
			},
			{
				"x": 0.7643736768,
				"y": -0.3262428746,
				"z": -0.8391976412,
				"element": "O" 
			},
			{
				"x": 0.5140305477,
				"y": 0.2417737654,
				"z": -2.0503455046,
				"element": "C" 
			},
			{
				"x": 0.8026313567,
				"y": -0.2963044671,
				"z": -3.1006312629,
				"element": "O" 
			},
			{
				"x": -0.1413682843,
				"y": 1.5699828572,
				"z": -1.923087772,
				"element": "C" 
			},
			{
				"x": -0.3618975424,
				"y": 2.180725382,
				"z": -0.6797959876,
				"element": "C" 
			},
			{
				"x": -0.9768867124,
				"y": 3.4301181986,
				"z": -0.6225090064,
				"element": "C" 
			},
			{
				"x": -1.3741959208,
				"y": 4.0709278448,
				"z": -1.7988622893,
				"element": "C" 
			},
			{
				"x": -1.1531295327,
				"y": 3.4640916306,
				"z": -3.0384162404,
				"element": "C" 
			},
			{
				"x": -0.5365804203,
				"y": 2.2173832645,
				"z": -3.1021406145,
				"element": "C" 
			},
			{
				"x": -3.1567554618,
				"y": -2.5806040768,
				"z": -1.2904324419,
				"element": "C" 
			},
			{
				"x": -4.258027175,
				"y": -3.2632208953,
				"z": -1.8262280629,
				"element": "C" 
			},
			{
				"x": -5.5511392474,
				"y": -2.8593552146,
				"z": -1.5051844678,
				"element": "C" 
			},
			{
				"x": -5.7506844876,
				"y": -1.7700091971,
				"z": -0.652505266,
				"element": "C" 
			},
			{
				"x": -4.6552328969,
				"y": -1.0834958962,
				"z": -0.1226983136,
				"element": "C" 
			},
			{
				"x": -3.3586153683,
				"y": -1.485760354,
				"z": -0.4377002808,
				"element": "C" 
			},
			{
				"x": 0.6036375766,
				"y": -2.8475111196,
				"z": -2.4245925541,
				"element": "H" 
			},
			{
				"x": 2.0040899134,
				"y": -4.2589209371,
				"z": -0.9372147898,
				"element": "H" 
			},
			{
				"x": 0.3369344294,
				"y": -4.8636597819,
				"z": -1.0065311064,
				"element": "H" 
			},
			{
				"x": 0.0266483756,
				"y": -2.1888337083,
				"z": 1.4245413385,
				"element": "H" 
			},
			{
				"x": 2.9309488676,
				"y": -2.3862433096,
				"z": 0.485594449,
				"element": "H" 
			},
			{
				"x": 1.8560341798,
				"y": 0.7816073087,
				"z": 3.2453056296,
				"element": "H" 
			},
			{
				"x": 2.2286145858,
				"y": 2.7874692107,
				"z": 4.6617996581,
				"element": "H" 
			},
			{
				"x": 4.0370035815,
				"y": 4.3903846578,
				"z": 4.0914007331,
				"element": "H" 
			},
			{
				"x": 5.4782176104,
				"y": 3.9878430945,
				"z": 2.108025708,
				"element": "H" 
			},
			{
				"x": 5.0963718028,
				"y": 1.9658462758,
				"z": 0.6919995448,
				"element": "H" 
			},
			{
				"x": 2.2969840302,
				"y": -1.5039001946,
				"z": -1.5442664308,
				"element": "H" 
			},
			{
				"x": -0.0420889243,
				"y": 1.6803706776,
				"z": 0.2270266208,
				"element": "H" 
			},
			{
				"x": -1.1439367842,
				"y": 3.9058234152,
				"z": 0.3392799644,
				"element": "H" 
			},
			{
				"x": -1.8539577486,
				"y": 5.0443400239,
				"z": -1.7498194638,
				"element": "H" 
			},
			{
				"x": -1.4607916831,
				"y": 3.9635896855,
				"z": -3.9521432606,
				"element": "H" 
			},
			{
				"x": -0.3514517989,
				"y": 1.7269598538,
				"z": -4.0517736063,
				"element": "H" 
			},
			{
				"x": -4.0770881115,
				"y": -4.1031326125,
				"z": -2.4883145427,
				"element": "H" 
			},
			{
				"x": -6.403021777,
				"y": -3.3911238822,
				"z": -1.9182193582,
				"element": "H" 
			},
			{
				"x": -6.759801258,
				"y": -1.4546435659,
				"z": -0.4028975883,
				"element": "H" 
			},
			{
				"x": -4.8119709238,
				"y": -0.2333886901,
				"z": 0.5345037949,
				"element": "H" 
			},
			{
				"x": -2.503618102,
				"y": -0.9512651159,
				"z": -0.0401371553,
				"element": "H" 
			}
		],
		 "valence_orbital": [ 
			{
				"type": "occ",
				"energy": -0.26797,
				"method": "rhf"
			},
			{
				"type": "occ",
				"energy": -0.26687,
				"method": "rhf"
			},
			{
				"type": "occ",
				"energy": -0.26623,
				"method": "rhf"
			},
			{
				"type": "occ",
				"energy": -0.26599,
				"method": "rhf"
			},
			{
				"type": "occ",
				"energy": -0.26432,
				"method": "rhf"
			},
			{
				"type": "unocc",
				"energy": -0.05831,
				"method": "rhf"
			},
			{
				"type": "unocc",
				"energy": -0.05595,
				"method": "rhf"
			},
			{
				"type": "unocc",
				"energy": -0.05418,
				"method": "rhf"
			},
			{
				"type": "unocc",
				"energy": -0.01636,
				"method": "rhf"
			},
			{
				"type": "unocc",
				"energy": -0.01578,
				"method": "rhf"
			}
		],
		"cosmo_sigma_profile": { 
			"-0.025": 0.0,
			"-0.024": 0.0,
			"-0.023": 0.0,
			"-0.022": 0.0,
			"-0.021": 0.0,
			"-0.02": 0.0,
			"-0.019": 0.0,
			"-0.018": 0.0,
			"-0.017": 0.0,
			"-0.016": 0.0,
			"-0.015": 0.0,
			"-0.014": 0.0,
			"-0.013": 0.0,
			"-0.012": 0.377465603211,
			"-0.011": 1.36509227868,
			"-0.01": 2.45779655312,
			"-0.009": 5.67173167993,
			"-0.008": 5.82681689192,
			"-0.007": 12.1078791612,
			"-0.006": 31.9807061702,
			"-0.005": 39.6064947176,
			"-0.004": 36.2130976803,
			"-0.003": 32.1574140795,
			"-0.002": 35.3046407428,
			"-0.001": 36.5491238463,
			"0.0": 40.188390131,
			"0.001": 40.2102472908,
			"0.002": 38.6745873384,
			"0.003": 46.3298172551,
			"0.004": 34.9278806888,
			"0.005": 7.78159361278,
			"0.006": 8.3169298608,
			"0.007": 7.96518913968,
			"0.008": 8.76366504074,
			"0.009": 8.942869952,
			"0.01": 10.1746541575,
			"0.011": 11.6010045142,
			"0.012": 3.28979092379,
			"0.013": 0.125400247661,
			"0.014": 0.0,
			"0.015": 0.0,
			"0.016": 0.0,
			"0.017": 0.0,
			"0.018": 0.0,
			"0.019": 0.0,
			"0.02": 0.0,
			"0.021": 0.0,
			"0.022": 0.0,
			"0.023": 0.0,
			"0.024": 0.0,
			"0.025": 0.0
		}
	}
}
