{
	 "smiles": "CC1=NC2=C(C(N)=C(S2)C(=O)NN)C(C)=C1", 
	 "Tm": 519.15, 
	 "num_atms": 28, 
	 "gaussian": { 
		 "optdone": 1, 
		 "sigma_profile": "yes", 
		 "theory": "DFT", 
		 "functional": "B3LYP", 
		 "basiset": "6-31G**", 
		 "properties": { 
			 "R2extent": 4806.3147, 
			 "electric_dipole_moment_norm": 3.5255845728, 
			 "electric_quadrupole_moment_norm": 9.53015241798, 
			 "total_energy": -1080.71481081, 
			 "HOMO_LUMO_gap": 0.14584, 
			 "cosmo_polarized_energy": -15.94, 
			 "cosmo_cavitation_energy": 32.17, 
			 "cosmo_dispersion_energy": -24.78, 
			 "cosmo_repulsion_energy": 1.87, 
			 "cosmo_total_nonelectrostatic_energy": 9.27, 
			 "SMD_solvation_energy": 4.37 
		},
		"coords": [
			{
				"x": 3.9854370146,
				"y": -1.6670852032,
				"z": 0.4519873265,
				"element": "C" 
			},
			{
				"x": 2.5904850479,
				"y": -1.1111412397,
				"z": 0.3199420006,
				"element": "C" 
			},
			{
				"x": 2.1120623526,
				"y": -0.9603473886,
				"z": -0.9190215278,
				"element": "N" 
			},
			{
				"x": 0.8667515391,
				"y": -0.4971684006,
				"z": -1.0197979285,
				"element": "C" 
			},
			{
				"x": 0.0063088055,
				"y": -0.1528421872,
				"z": 0.0480023741,
				"element": "C" 
			},
			{
				"x": -1.2820281076,
				"y": 0.3214906802,
				"z": -0.4277205682,
				"element": "C" 
			},
			{
				"x": -2.2903934179,
				"y": 0.7448964289,
				"z": 0.3973409395,
				"element": "N" 
			},
			{
				"x": -1.3663152936,
				"y": 0.3458376324,
				"z": -1.820256405,
				"element": "C" 
			},
			{
				"x": 0.1381061862,
				"y": -0.2171294645,
				"z": -2.5870655506,
				"element": "S" 
			},
			{
				"x": -2.5991476128,
				"y": 0.7115232133,
				"z": -2.5185984143,
				"element": "C" 
			},
			{
				"x": -3.6315544664,
				"y": 1.0204087598,
				"z": -1.8941161065,
				"element": "O" 
			},
			{
				"x": -2.6795270803,
				"y": 0.7019377362,
				"z": -3.8945750181,
				"element": "N" 
			},
			{
				"x": -1.6608083314,
				"y": 0.6197116049,
				"z": -4.8502504926,
				"element": "N" 
			},
			{
				"x": 0.5295680944,
				"y": -0.2971363479,
				"z": 1.3570315387,
				"element": "C" 
			},
			{
				"x": -0.2406928992,
				"y": 0.0555310182,
				"z": 2.6064585168,
				"element": "C" 
			},
			{
				"x": 1.8298770206,
				"y": -0.7813031251,
				"z": 1.4603944937,
				"element": "C" 
			},
			{
				"x": 4.5338999659,
				"y": -1.5195684783,
				"z": -0.4800013069,
				"element": "H" 
			},
			{
				"x": 3.9543861089,
				"y": -2.7445332913,
				"z": 0.6569642322,
				"element": "H" 
			},
			{
				"x": 4.5314159031,
				"y": -1.1936980015,
				"z": 1.2737998559,
				"element": "H" 
			},
			{
				"x": -3.1624728045,
				"y": 0.9085166584,
				"z": -0.1057419594,
				"element": "H" 
			},
			{
				"x": -2.35285907,
				"y": 0.3282247386,
				"z": 1.3113158599,
				"element": "H" 
			},
			{
				"x": -3.5686577048,
				"y": 1.0380622604,
				"z": -4.2408456687,
				"element": "H" 
			},
			{
				"x": -1.2803276791,
				"y": -0.320658487,
				"z": -4.8966681712,
				"element": "H" 
			},
			{
				"x": -0.9123018275,
				"y": 1.2800492119,
				"z": -4.6582756174,
				"element": "H" 
			},
			{
				"x": -0.6621458515,
				"y": 1.0635863147,
				"z": 2.5476317189,
				"element": "H" 
			},
			{
				"x": 0.4081692384,
				"y": 0.0075562299,
				"z": 3.4842072671,
				"element": "H" 
			},
			{
				"x": -1.0679282313,
				"y": -0.6450898626,
				"z": 2.7795967437,
				"element": "H" 
			},
			{
				"x": 2.2755931008,
				"y": -0.9031310104,
				"z": 2.4435618676,
				"element": "H" 
			}
		],
		 "valence_orbital": [ 
			{
				"type": "occ",
				"energy": -0.26689,
				"method": "rhf"
			},
			{
				"type": "occ",
				"energy": -0.25321,
				"method": "rhf"
			},
			{
				"type": "occ",
				"energy": -0.2478,
				"method": "rhf"
			},
			{
				"type": "occ",
				"energy": -0.24258,
				"method": "rhf"
			},
			{
				"type": "occ",
				"energy": -0.19754,
				"method": "rhf"
			},
			{
				"type": "unocc",
				"energy": -0.0517,
				"method": "rhf"
			},
			{
				"type": "unocc",
				"energy": -0.01858,
				"method": "rhf"
			},
			{
				"type": "unocc",
				"energy": 0.01851,
				"method": "rhf"
			},
			{
				"type": "unocc",
				"energy": 0.02576,
				"method": "rhf"
			},
			{
				"type": "unocc",
				"energy": 0.07399,
				"method": "rhf"
			}
		],
		"cosmo_sigma_profile": { 
			"-0.025": 0.0,
			"-0.024": 0.0,
			"-0.023": 0.0,
			"-0.022": 0.0,
			"-0.021": 0.0,
			"-0.02": 0.0,
			"-0.019": 0.0,
			"-0.018": 0.0,
			"-0.017": 0.0,
			"-0.016": 0.0,
			"-0.015": 0.0,
			"-0.014": 0.0,
			"-0.013": 0.886497182601,
			"-0.012": 2.5903316785,
			"-0.011": 4.10770086761,
			"-0.01": 4.70583742943,
			"-0.009": 4.28766188758,
			"-0.008": 6.05844018913,
			"-0.007": 6.76123115756,
			"-0.006": 9.74067926094,
			"-0.005": 13.2983876815,
			"-0.004": 16.6433118179,
			"-0.003": 16.6490834734,
			"-0.002": 17.0277898446,
			"-0.001": 20.0731387694,
			"0.0": 18.6576341782,
			"0.001": 21.7307807382,
			"0.002": 19.6823808288,
			"0.003": 16.0696570503,
			"0.004": 12.8622650601,
			"0.005": 8.7823685311,
			"0.006": 5.60684532235,
			"0.007": 4.4729579995,
			"0.008": 4.67449416751,
			"0.009": 4.17185215386,
			"0.01": 2.79854256548,
			"0.011": 3.16612623974,
			"0.012": 3.61000075926,
			"0.013": 3.9708095344,
			"0.014": 3.23885287602,
			"0.015": 0.746338730645,
			"0.016": 0.00643882946027,
			"0.017": 0.0,
			"0.018": 0.0,
			"0.019": 0.0,
			"0.02": 0.0,
			"0.021": 0.0,
			"0.022": 0.0,
			"0.023": 0.0,
			"0.024": 0.0,
			"0.025": 0.0
		}
	}
}
