{
	 "smiles": "CC1=CC=C(OC(=O)C(C)(C2=CC=CC=C2)C2=CC=CC=C2)C=C1", 
	 "Tm": 384.15, 
	 "num_atms": 44, 
	 "gaussian": { 
		 "optdone": 1, 
		 "sigma_profile": "yes", 
		 "theory": "DFT", 
		 "functional": "B3LYP", 
		 "basiset": "6-31G**", 
		 "properties": { 
			 "R2extent": 8941.2514, 
			 "electric_dipole_moment_norm": 1.54267041846, 
			 "electric_quadrupole_moment_norm": 11.6567356048, 
			 "total_energy": -1000.85645068, 
			 "HOMO_LUMO_gap": 0.20852, 
			 "cosmo_polarized_energy": -10.27, 
			 "cosmo_cavitation_energy": 46.82, 
			 "cosmo_dispersion_energy": -31.29, 
			 "cosmo_repulsion_energy": 2.4, 
			 "cosmo_total_nonelectrostatic_energy": 17.92, 
			 "SMD_solvation_energy": 8.67 
		},
		"coords": [
			{
				"x": 6.2736521159,
				"y": 1.035032144,
				"z": -2.9159733014,
				"element": "C" 
			},
			{
				"x": 4.9777954466,
				"y": 0.7145346267,
				"z": -2.2083949469,
				"element": "C" 
			},
			{
				"x": 3.9715480272,
				"y": 1.6794235341,
				"z": -2.0708430662,
				"element": "C" 
			},
			{
				"x": 2.7883998935,
				"y": 1.3962645671,
				"z": -1.389774113,
				"element": "C" 
			},
			{
				"x": 2.6021155477,
				"y": 0.1306592117,
				"z": -0.8399320633,
				"element": "C" 
			},
			{
				"x": 1.35803496,
				"y": -0.1024713467,
				"z": -0.2453136949,
				"element": "O" 
			},
			{
				"x": 1.2598400973,
				"y": -0.7258006115,
				"z": 0.9638822779,
				"element": "C" 
			},
			{
				"x": 2.2084522473,
				"y": -1.1111549483,
				"z": 1.6035953727,
				"element": "O" 
			},
			{
				"x": -0.2190569522,
				"y": -0.898597805,
				"z": 1.3867741441,
				"element": "C" 
			},
			{
				"x": -0.2165532725,
				"y": -1.3267538843,
				"z": 2.8719986002,
				"element": "C" 
			},
			{
				"x": -0.8044745158,
				"y": -1.9880976991,
				"z": 0.4566371743,
				"element": "C" 
			},
			{
				"x": -1.0629946395,
				"y": -1.7009184699,
				"z": -0.8952474974,
				"element": "C" 
			},
			{
				"x": -1.563413932,
				"y": -2.6770367767,
				"z": -1.7540311716,
				"element": "C" 
			},
			{
				"x": -1.8168292924,
				"y": -3.9678783702,
				"z": -1.2841205511,
				"element": "C" 
			},
			{
				"x": -1.5632762187,
				"y": -4.2676107054,
				"z": 0.0524582598,
				"element": "C" 
			},
			{
				"x": -1.0601562458,
				"y": -3.2878395417,
				"z": 0.9130919622,
				"element": "C" 
			},
			{
				"x": -0.9888265262,
				"y": 0.4340733208,
				"z": 1.2972748193,
				"element": "C" 
			},
			{
				"x": -2.3718973213,
				"y": 0.4541294888,
				"z": 1.0759136851,
				"element": "C" 
			},
			{
				"x": -3.085655932,
				"y": 1.6538191162,
				"z": 1.1061647294,
				"element": "C" 
			},
			{
				"x": -2.4300121058,
				"y": 2.8579172456,
				"z": 1.3620323943,
				"element": "C" 
			},
			{
				"x": -1.0540301735,
				"y": 2.8499392706,
				"z": 1.5964993791,
				"element": "C" 
			},
			{
				"x": -0.3439514544,
				"y": 1.6498613643,
				"z": 1.5689682229,
				"element": "C" 
			},
			{
				"x": 3.57791033,
				"y": -0.8563691671,
				"z": -0.9676110918,
				"element": "C" 
			},
			{
				"x": 4.7554500125,
				"y": -0.5515281524,
				"z": -1.6496312693,
				"element": "C" 
			},
			{
				"x": 7.0311950015,
				"y": 1.4016138242,
				"z": -2.2117676211,
				"element": "H" 
			},
			{
				"x": 6.1342603671,
				"y": 1.8103225402,
				"z": -3.6753884818,
				"element": "H" 
			},
			{
				"x": 6.6904708188,
				"y": 0.1510397055,
				"z": -3.408216629,
				"element": "H" 
			},
			{
				"x": 4.1119300313,
				"y": 2.666931888,
				"z": -2.5030166239,
				"element": "H" 
			},
			{
				"x": 2.0038117339,
				"y": 2.1386646037,
				"z": -1.2858749057,
				"element": "H" 
			},
			{
				"x": 0.1838092101,
				"y": -0.5175163564,
				"z": 3.4861877611,
				"element": "H" 
			},
			{
				"x": 0.4101329972,
				"y": -2.2047610458,
				"z": 3.0369748979,
				"element": "H" 
			},
			{
				"x": -1.237291091,
				"y": -1.5342124813,
				"z": 3.2029966953,
				"element": "H" 
			},
			{
				"x": -0.8701356294,
				"y": -0.7038180337,
				"z": -1.2737359095,
				"element": "H" 
			},
			{
				"x": -1.7558602452,
				"y": -2.4272842932,
				"z": -2.7936822981,
				"element": "H" 
			},
			{
				"x": -2.2073552664,
				"y": -4.7290579677,
				"z": -1.9534440042,
				"element": "H" 
			},
			{
				"x": -1.7546526331,
				"y": -5.2663806141,
				"z": 0.4346597302,
				"element": "H" 
			},
			{
				"x": -0.8725262045,
				"y": -3.5521821431,
				"z": 1.9468665775,
				"element": "H" 
			},
			{
				"x": -2.8967168022,
				"y": -0.4737669599,
				"z": 0.8740344555,
				"element": "H" 
			},
			{
				"x": -4.1574237182,
				"y": 1.6432429025,
				"z": 0.9282788364,
				"element": "H" 
			},
			{
				"x": -2.9842305954,
				"y": 3.7918522208,
				"z": 1.3811361158,
				"element": "H" 
			},
			{
				"x": -0.5296467167,
				"y": 3.7787932203,
				"z": 1.8029223926,
				"element": "H" 
			},
			{
				"x": 0.7249822095,
				"y": 1.6661460912,
				"z": 1.7640375155,
				"element": "H" 
			},
			{
				"x": 3.4234520622,
				"y": -1.8387080547,
				"z": -0.5401150408,
				"element": "H" 
			},
			{
				"x": 5.5174243746,
				"y": -1.3203154579,
				"z": -1.750471718,
				"element": "H" 
			}
		],
		 "valence_orbital": [ 
			{
				"type": "occ",
				"energy": -0.25104,
				"method": "rhf"
			},
			{
				"type": "occ",
				"energy": -0.24878,
				"method": "rhf"
			},
			{
				"type": "occ",
				"energy": -0.24683,
				"method": "rhf"
			},
			{
				"type": "occ",
				"energy": -0.23605,
				"method": "rhf"
			},
			{
				"type": "occ",
				"energy": -0.23008,
				"method": "rhf"
			},
			{
				"type": "unocc",
				"energy": -0.02156,
				"method": "rhf"
			},
			{
				"type": "unocc",
				"energy": -0.00714,
				"method": "rhf"
			},
			{
				"type": "unocc",
				"energy": -0.00345,
				"method": "rhf"
			},
			{
				"type": "unocc",
				"energy": -0.00222,
				"method": "rhf"
			},
			{
				"type": "unocc",
				"energy": 0.0041,
				"method": "rhf"
			}
		],
		"cosmo_sigma_profile": { 
			"-0.025": 0.0,
			"-0.024": 0.0,
			"-0.023": 0.0,
			"-0.022": 0.0,
			"-0.021": 0.0,
			"-0.02": 0.0,
			"-0.019": 0.0,
			"-0.018": 0.0,
			"-0.017": 0.0,
			"-0.016": 0.0,
			"-0.015": 0.0,
			"-0.014": 0.0,
			"-0.013": 0.0,
			"-0.012": 0.0,
			"-0.011": 0.0,
			"-0.01": 0.0,
			"-0.009": 0.0,
			"-0.008": 0.0,
			"-0.007": 0.431610545394,
			"-0.006": 12.4016698283,
			"-0.005": 29.7282318239,
			"-0.004": 39.7505425364,
			"-0.003": 37.6738096336,
			"-0.002": 33.3916997765,
			"-0.001": 30.7090798197,
			"0.0": 32.9586806625,
			"0.001": 26.7689039773,
			"0.002": 24.9411652844,
			"0.003": 25.7415994268,
			"0.004": 24.3913142634,
			"0.005": 27.8619522517,
			"0.006": 12.843547,
			"0.007": 1.94043682352,
			"0.008": 1.74155596497,
			"0.009": 1.98273566943,
			"0.01": 2.8347231249,
			"0.011": 4.19682184839,
			"0.012": 0.619749010926,
			"0.013": 0.0,
			"0.014": 0.0,
			"0.015": 0.0,
			"0.016": 0.0,
			"0.017": 0.0,
			"0.018": 0.0,
			"0.019": 0.0,
			"0.02": 0.0,
			"0.021": 0.0,
			"0.022": 0.0,
			"0.023": 0.0,
			"0.024": 0.0,
			"0.025": 0.0
		}
	}
}
