{
	 "smiles": "CC1=C(I)C=CC(Cl)=N1", 
	 "Tm": 305.15, 
	 "num_atms": 14, 
	 "gaussian": { 
		 "optdone": 1, 
		 "sigma_profile": "no", 
		 "theory": "DFT", 
		 "functional": "B3LYP", 
		 "basiset": "6-31G**", 
		 "properties": { 
			 "R2extent": 2898.682, 
			 "electric_dipole_moment_norm": 1.96466903829, 
			 "electric_quadrupole_moment_norm": 11.3526056701, 
			 "total_energy": -757.983849314, 
			 "HOMO_LUMO_gap": 0.20005, 
			 "cosmo_polarized_energy": -86493.11, 
			 "cosmo_cavitation_energy": 23.02, 
			 "cosmo_dispersion_energy": -18.6, 
			 "cosmo_repulsion_energy": 1.49, 
			 "cosmo_total_nonelectrostatic_energy": 5.91, 
			 "SMD_solvation_energy": 1.65 
		},
		"coords": [
			{
				"x": 1.5063266307,
				"y": -0.5239306394,
				"z": -0.9824174162,
				"element": "C" 
			},
			{
				"x": 1.3297981451,
				"y": -0.3194891334,
				"z": 0.497276828,
				"element": "C" 
			},
			{
				"x": 0.371868056,
				"y": -0.9970069607,
				"z": 1.2725089051,
				"element": "C" 
			},
			{
				"x": -0.9523934495,
				"y": -2.4099067902,
				"z": 0.4117121106,
				"element": "I" 
			},
			{
				"x": 0.2794038131,
				"y": -0.7432540101,
				"z": 2.6421589595,
				"element": "C" 
			},
			{
				"x": 1.1420087817,
				"y": 0.1817224367,
				"z": 3.2218819026,
				"element": "C" 
			},
			{
				"x": 2.0576230469,
				"y": 0.8024810472,
				"z": 2.3724432375,
				"element": "C" 
			},
			{
				"x": 3.1754641752,
				"y": 1.9828671224,
				"z": 3.0499733999,
				"element": "Cl" 
			},
			{
				"x": 2.1550397481,
				"y": 0.5717879749,
				"z": 1.077961378,
				"element": "N" 
			},
			{
				"x": 1.750489908,
				"y": -1.566707308,
				"z": -1.212070794,
				"element": "H" 
			},
			{
				"x": 0.5875737442,
				"y": -0.2833762933,
				"z": -1.5281113907,
				"element": "H" 
			},
			{
				"x": 2.3123726176,
				"y": 0.1195028973,
				"z": -1.3356677384,
				"element": "H" 
			},
			{
				"x": -0.4549711904,
				"y": -1.2590198114,
				"z": 3.250994507,
				"element": "H" 
			},
			{
				"x": 1.1063959733,
				"y": 0.4102294681,
				"z": 4.2800561109,
				"element": "H" 
			}
		],
		 "valence_orbital": [ 
			{
				"type": "occ",
				"energy": -0.31258,
				"method": "rhf"
			},
			{
				"type": "occ",
				"energy": -0.29011,
				"method": "rhf"
			},
			{
				"type": "occ",
				"energy": -0.28961,
				"method": "rhf"
			},
			{
				"type": "occ",
				"energy": -0.27388,
				"method": "rhf"
			},
			{
				"type": "occ",
				"energy": -0.25018,
				"method": "rhf"
			},
			{
				"type": "unocc",
				"energy": -0.05013,
				"method": "rhf"
			},
			{
				"type": "unocc",
				"energy": -0.04547,
				"method": "rhf"
			},
			{
				"type": "unocc",
				"energy": -0.03659,
				"method": "rhf"
			},
			{
				"type": "unocc",
				"energy": 0.02483,
				"method": "rhf"
			},
			{
				"type": "unocc",
				"energy": 0.03758,
				"method": "rhf"
			}
		],
		"cosmo_sigma_profile": { 
			"0.0": 0.0,
			"0.0": 0.0,
			"0.0": 0.0,
			"0.0": 0.0,
			"0.0": 0.0,
			"0.0": 0.0,
			"0.0": 0.0,
			"0.0": 0.0,
			"0.0": 0.0,
			"0.0": 0.0,
			"0.0": 0.0,
			"0.0": 0.0,
			"0.0": 0.0,
			"0.0": 0.0,
			"0.0": 0.0,
			"0.0": 0.0,
			"0.0": 0.0,
			"0.0": 0.0,
			"0.0": 0.0,
			"0.0": 0.0,
			"0.0": 0.0,
			"0.0": 0.0,
			"0.0": 0.0,
			"0.0": 0.0,
			"0.0": 0.0,
			"0.0": 0.0,
			"0.0": 0.0,
			"0.0": 0.0,
			"0.0": 0.0,
			"0.0": 0.0,
			"0.0": 0.0,
			"0.0": 0.0,
			"0.0": 0.0,
			"0.0": 0.0,
			"0.0": 0.0,
			"0.0": 0.0,
			"0.0": 0.0,
			"0.0": 0.0,
			"0.0": 0.0,
			"0.0": 0.0,
			"0.0": 0.0,
			"0.0": 0.0,
			"0.0": 0.0,
			"0.0": 0.0,
			"0.0": 0.0,
			"0.0": 0.0,
			"0.0": 0.0,
			"0.0": 0.0,
			"0.0": 0.0,
			"0.0": 0.0,
			"0.0": 0.0
		}
	}
}
