{
	 "smiles": "CN1CCN(CC1)C1=CC(=CC=C1)C(O)=O", 
	 "Tm": 461.15, 
	 "num_atms": 32, 
	 "gaussian": { 
		 "optdone": 1, 
		 "sigma_profile": "yes", 
		 "theory": "DFT", 
		 "functional": "B3LYP", 
		 "basiset": "6-31G**", 
		 "properties": { 
			 "R2extent": 5418.2664, 
			 "electric_dipole_moment_norm": 2.34015594779, 
			 "electric_quadrupole_moment_norm": 4.49124578263, 
			 "total_energy": -726.872330446, 
			 "HOMO_LUMO_gap": 0.15535, 
			 "cosmo_polarized_energy": -12.06, 
			 "cosmo_cavitation_energy": 33.52, 
			 "cosmo_dispersion_energy": -24.61, 
			 "cosmo_repulsion_energy": 1.89, 
			 "cosmo_total_nonelectrostatic_energy": 10.81, 
			 "SMD_solvation_energy": 2.63 
		},
		"coords": [
			{
				"x": -1.1191646616,
				"y": 1.4212406988,
				"z": -3.2660407157,
				"element": "C" 
			},
			{
				"x": -1.7866517755,
				"y": 0.8340367941,
				"z": -2.1094115002,
				"element": "N" 
			},
			{
				"x": -1.2657340609,
				"y": -0.4737787327,
				"z": -1.7124736394,
				"element": "C" 
			},
			{
				"x": 0.0717380933,
				"y": -0.408447825,
				"z": -0.960824877,
				"element": "C" 
			},
			{
				"x": -0.0355533485,
				"y": 0.4879953167,
				"z": 0.2015986623,
				"element": "N" 
			},
			{
				"x": -0.5207495284,
				"y": 1.8189972563,
				"z": -0.1612243656,
				"element": "C" 
			},
			{
				"x": -1.8443630755,
				"y": 1.7064398024,
				"z": -0.9388529719,
				"element": "C" 
			},
			{
				"x": 0.9557510708,
				"y": 0.3896759359,
				"z": 1.1966461138,
				"element": "C" 
			},
			{
				"x": 1.3421639928,
				"y": -0.8714166844,
				"z": 1.6876264725,
				"element": "C" 
			},
			{
				"x": 2.294189687,
				"y": -0.9935402537,
				"z": 2.7005782343,
				"element": "C" 
			},
			{
				"x": 2.8873789952,
				"y": 0.1434722593,
				"z": 3.2692937134,
				"element": "C" 
			},
			{
				"x": 2.5077139288,
				"y": 1.3942579067,
				"z": 2.7950338125,
				"element": "C" 
			},
			{
				"x": 1.5664198712,
				"y": 1.523307771,
				"z": 1.7716018258,
				"element": "C" 
			},
			{
				"x": 2.6322531648,
				"y": -2.3701085586,
				"z": 3.1517759933,
				"element": "C" 
			},
			{
				"x": 3.5528689585,
				"y": -2.3933138268,
				"z": 4.1492986015,
				"element": "O" 
			},
			{
				"x": 2.1556990867,
				"y": -3.3930496113,
				"z": 2.6980331811,
				"element": "O" 
			},
			{
				"x": -1.2038019023,
				"y": 0.7344007622,
				"z": -4.1148984794,
				"element": "H" 
			},
			{
				"x": -0.0482003382,
				"y": 1.654220519,
				"z": -3.1322950955,
				"element": "H" 
			},
			{
				"x": -1.6280765795,
				"y": 2.3520003555,
				"z": -3.5385339607,
				"element": "H" 
			},
			{
				"x": -1.1564381321,
				"y": -1.1029218237,
				"z": -2.6027682596,
				"element": "H" 
			},
			{
				"x": -2.0075187681,
				"y": -0.9486643625,
				"z": -1.0570699311,
				"element": "H" 
			},
			{
				"x": 0.8756412181,
				"y": -0.0657213622,
				"z": -1.6364790917,
				"element": "H" 
			},
			{
				"x": 0.3417690321,
				"y": -1.411716046,
				"z": -0.6287305326,
				"element": "H" 
			},
			{
				"x": -0.7065888554,
				"y": 2.3895014883,
				"z": 0.7536398847,
				"element": "H" 
			},
			{
				"x": 0.2271124836,
				"y": 2.3803294057,
				"z": -0.7515029876,
				"element": "H" 
			},
			{
				"x": -2.6051983977,
				"y": 1.3049749708,
				"z": -0.2568742354,
				"element": "H" 
			},
			{
				"x": -2.1706472297,
				"y": 2.7051804,
				"z": -1.249672511,
				"element": "H" 
			},
			{
				"x": 0.89384374,
				"y": -1.7828202363,
				"z": 1.3109714294,
				"element": "H" 
			},
			{
				"x": 3.6224356197,
				"y": 0.0400230444,
				"z": 4.0579558013,
				"element": "H" 
			},
			{
				"x": 2.9569726974,
				"y": 2.290528146,
				"z": 3.2134898862,
				"element": "H" 
			},
			{
				"x": 1.32114676,
				"y": 2.5162844938,
				"z": 1.41473547,
				"element": "H" 
			},
			{
				"x": 3.6895882533,
				"y": -3.3325680036,
				"z": 4.3546740722,
				"element": "H" 
			}
		],
		 "valence_orbital": [ 
			{
				"type": "occ",
				"energy": -0.28599,
				"method": "rhf"
			},
			{
				"type": "occ",
				"energy": -0.27141,
				"method": "rhf"
			},
			{
				"type": "occ",
				"energy": -0.25421,
				"method": "rhf"
			},
			{
				"type": "occ",
				"energy": -0.21541,
				"method": "rhf"
			},
			{
				"type": "occ",
				"energy": -0.19562,
				"method": "rhf"
			},
			{
				"type": "unocc",
				"energy": -0.04027,
				"method": "rhf"
			},
			{
				"type": "unocc",
				"energy": 0.00248,
				"method": "rhf"
			},
			{
				"type": "unocc",
				"energy": 0.06431,
				"method": "rhf"
			},
			{
				"type": "unocc",
				"energy": 0.07767,
				"method": "rhf"
			},
			{
				"type": "unocc",
				"energy": 0.08247,
				"method": "rhf"
			}
		],
		"cosmo_sigma_profile": { 
			"-0.025": 0.0,
			"-0.024": 0.0,
			"-0.023": 0.0,
			"-0.022": 0.0,
			"-0.021": 0.0,
			"-0.02": 0.0,
			"-0.019": 0.0,
			"-0.018": 0.402331474127,
			"-0.017": 1.16367587654,
			"-0.016": 0.709643782053,
			"-0.015": 0.931183796067,
			"-0.014": 0.756467215591,
			"-0.013": 0.580647689981,
			"-0.012": 0.404805596636,
			"-0.011": 0.906423738048,
			"-0.01": 1.26201353633,
			"-0.009": 0.201916153686,
			"-0.008": 0.520450410065,
			"-0.007": 2.12619170562,
			"-0.006": 6.47143434281,
			"-0.005": 10.3551414435,
			"-0.004": 22.06093276,
			"-0.003": 35.9287983761,
			"-0.002": 34.8726715624,
			"-0.001": 23.5469684874,
			"0.0": 21.2051438508,
			"0.001": 12.6930636341,
			"0.002": 14.6194748857,
			"0.003": 13.6505808803,
			"0.004": 14.314474803,
			"0.005": 11.5520570936,
			"0.006": 5.61307933918,
			"0.007": 5.0850295412,
			"0.008": 4.10505027158,
			"0.009": 2.90623339858,
			"0.01": 2.49698746986,
			"0.011": 3.6576362816,
			"0.012": 5.71367109577,
			"0.013": 0.760049049331,
			"0.014": 0.523311250704,
			"0.015": 0.619600906993,
			"0.016": 0.33954976368,
			"0.017": 0.208902772043,
			"0.018": 0.0,
			"0.019": 0.0,
			"0.02": 0.0,
			"0.021": 0.0,
			"0.022": 0.0,
			"0.023": 0.0,
			"0.024": 0.0,
			"0.025": 0.0
		}
	}
}
