{
	 "smiles": "CC1=NC2=C(N=NC3=CC=CC=C3C)C(N)=NN2C(C)=C1", 
	 "Tm": 529.15, 
	 "num_atms": 37, 
	 "gaussian": { 
		 "optdone": 1, 
		 "sigma_profile": "yes", 
		 "theory": "DFT", 
		 "functional": "B3LYP", 
		 "basiset": "6-31G**", 
		 "properties": { 
			 "R2extent": 8309.8539, 
			 "electric_dipole_moment_norm": 3.72066176238, 
			 "electric_quadrupole_moment_norm": 14.9891258888, 
			 "total_energy": -909.720853777, 
			 "HOMO_LUMO_gap": 0.13053, 
			 "cosmo_polarized_energy": -15.68, 
			 "cosmo_cavitation_energy": 41.19, 
			 "cosmo_dispersion_energy": -29.68, 
			 "cosmo_repulsion_energy": 2.26, 
			 "cosmo_total_nonelectrostatic_energy": 13.77, 
			 "SMD_solvation_energy": 3.55 
		},
		"coords": [
			{
				"x": 3.716230847,
				"y": 2.5304390048,
				"z": -0.3245568854,
				"element": "C" 
			},
			{
				"x": 2.4635796576,
				"y": 2.0745501362,
				"z": -1.0268750289,
				"element": "C" 
			},
			{
				"x": 1.6432383783,
				"y": 1.285525502,
				"z": -0.3341351498,
				"element": "N" 
			},
			{
				"x": 0.5281604728,
				"y": 0.8722089109,
				"z": -0.9420798335,
				"element": "C" 
			},
			{
				"x": -0.5447788768,
				"y": 0.0523247289,
				"z": -0.5278008659,
				"element": "C" 
			},
			{
				"x": -0.6534825171,
				"y": -0.5162162484,
				"z": 0.7080866118,
				"element": "N" 
			},
			{
				"x": -1.7079861889,
				"y": -1.2131161313,
				"z": 0.9018899463,
				"element": "N" 
			},
			{
				"x": -1.8042183273,
				"y": -1.7903071345,
				"z": 2.1901347013,
				"element": "C" 
			},
			{
				"x": -0.8342533108,
				"y": -1.6144453551,
				"z": 3.1929362864,
				"element": "C" 
			},
			{
				"x": -0.9929500497,
				"y": -2.2112661551,
				"z": 4.4375639402,
				"element": "C" 
			},
			{
				"x": -2.1229159353,
				"y": -2.9926251242,
				"z": 4.6978924802,
				"element": "C" 
			},
			{
				"x": -3.0856577561,
				"y": -3.168195013,
				"z": 3.7040142157,
				"element": "C" 
			},
			{
				"x": -2.9507111229,
				"y": -2.5782484392,
				"z": 2.4424184253,
				"element": "C" 
			},
			{
				"x": -4.0082468246,
				"y": -2.7843726399,
				"z": 1.3845087845,
				"element": "C" 
			},
			{
				"x": -1.4230855106,
				"y": 0.0040280707,
				"z": -1.6666160144,
				"element": "C" 
			},
			{
				"x": -2.5766482153,
				"y": -0.6946759721,
				"z": -1.7201890168,
				"element": "N" 
			},
			{
				"x": -0.9714672943,
				"y": 0.7223283246,
				"z": -2.7055361939,
				"element": "N" 
			},
			{
				"x": 0.213397168,
				"y": 1.2428891699,
				"z": -2.2558154187,
				"element": "N" 
			},
			{
				"x": 1.0290053362,
				"y": 2.043828827,
				"z": -2.9841545175,
				"element": "C" 
			},
			{
				"x": 0.6100416263,
				"y": 2.3844728975,
				"z": -4.3771295936,
				"element": "C" 
			},
			{
				"x": 2.1856532923,
				"y": 2.4729299977,
				"z": -2.3565282792,
				"element": "C" 
			},
			{
				"x": 4.3108525669,
				"y": 1.6648835491,
				"z": -0.0154459965,
				"element": "H" 
			},
			{
				"x": 4.3313407202,
				"y": 3.1706695293,
				"z": -0.9613445332,
				"element": "H" 
			},
			{
				"x": 3.4584207155,
				"y": 3.0816443991,
				"z": 0.5854211974,
				"element": "H" 
			},
			{
				"x": 0.0325131303,
				"y": -1.0045301435,
				"z": 2.9655633166,
				"element": "H" 
			},
			{
				"x": -0.2378535033,
				"y": -2.0691874113,
				"z": 5.2058376952,
				"element": "H" 
			},
			{
				"x": -2.253315486,
				"y": -3.4624662774,
				"z": 5.668648718,
				"element": "H" 
			},
			{
				"x": -3.9636348002,
				"y": -3.7764954438,
				"z": 3.9072049828,
				"element": "H" 
			},
			{
				"x": -4.8045384797,
				"y": -3.435784262,
				"z": 1.7556781058,
				"element": "H" 
			},
			{
				"x": -4.4647479741,
				"y": -1.8350025075,
				"z": 1.0818921387,
				"element": "H" 
			},
			{
				"x": -3.590276366,
				"y": -3.2416814456,
				"z": 0.4810557775,
				"element": "H" 
			},
			{
				"x": -3.1933486761,
				"y": -0.5788712997,
				"z": -2.5077090258,
				"element": "H" 
			},
			{
				"x": -2.8722022231,
				"y": -1.1252575542,
				"z": -0.8526971161,
				"element": "H" 
			},
			{
				"x": 1.3508590039,
				"y": 3.030559404,
				"z": -4.8508786729,
				"element": "H" 
			},
			{
				"x": 0.485112527,
				"y": 1.4735941696,
				"z": -4.9714519352,
				"element": "H" 
			},
			{
				"x": -0.362812346,
				"y": 2.8865634957,
				"z": -4.37114311,
				"element": "H" 
			},
			{
				"x": 2.8711263418,
				"y": 3.1150044409,
				"z": -2.8965601367,
				"element": "H" 
			}
		],
		 "valence_orbital": [ 
			{
				"type": "occ",
				"energy": -0.25119,
				"method": "rhf"
			},
			{
				"type": "occ",
				"energy": -0.23342,
				"method": "rhf"
			},
			{
				"type": "occ",
				"energy": -0.21957,
				"method": "rhf"
			},
			{
				"type": "occ",
				"energy": -0.21326,
				"method": "rhf"
			},
			{
				"type": "occ",
				"energy": -0.19131,
				"method": "rhf"
			},
			{
				"type": "unocc",
				"energy": -0.06078,
				"method": "rhf"
			},
			{
				"type": "unocc",
				"energy": -0.04301,
				"method": "rhf"
			},
			{
				"type": "unocc",
				"energy": 0.00523,
				"method": "rhf"
			},
			{
				"type": "unocc",
				"energy": 0.01418,
				"method": "rhf"
			},
			{
				"type": "unocc",
				"energy": 0.04257,
				"method": "rhf"
			}
		],
		"cosmo_sigma_profile": { 
			"-0.025": 0.0,
			"-0.024": 0.0,
			"-0.023": 0.0,
			"-0.022": 0.0,
			"-0.021": 0.0,
			"-0.02": 0.0,
			"-0.019": 0.0,
			"-0.018": 0.0,
			"-0.017": 0.0,
			"-0.016": 0.0,
			"-0.015": 0.0,
			"-0.014": 0.918786784612,
			"-0.013": 0.945715174972,
			"-0.012": 0.796069729018,
			"-0.011": 1.61300148554,
			"-0.01": 0.873856590863,
			"-0.009": 0.561652746654,
			"-0.008": 1.70264655117,
			"-0.007": 6.69620355156,
			"-0.006": 11.8027723014,
			"-0.005": 21.6101005834,
			"-0.004": 27.3498337474,
			"-0.003": 30.9812417019,
			"-0.002": 31.8296285684,
			"-0.001": 31.7808682023,
			"0.0": 24.96832728,
			"0.001": 21.6771729201,
			"0.002": 17.6641003975,
			"0.003": 21.6270818903,
			"0.004": 21.1761325248,
			"0.005": 16.9300913472,
			"0.006": 11.1166123731,
			"0.007": 4.71726464033,
			"0.008": 3.28338362749,
			"0.009": 2.86857373812,
			"0.01": 2.63496439247,
			"0.011": 2.97615462476,
			"0.012": 2.5724592517,
			"0.013": 1.90420228205,
			"0.014": 1.58578768995,
			"0.015": 0.996659786995,
			"0.016": 0.307238779977,
			"0.017": 0.0,
			"0.018": 0.0,
			"0.019": 0.0,
			"0.02": 0.0,
			"0.021": 0.0,
			"0.022": 0.0,
			"0.023": 0.0,
			"0.024": 0.0,
			"0.025": 0.0
		}
	}
}
