{
	 "smiles": "OC(=O)C1=CC(N2CCNC2=O)=C(Cl)C=C1", 
	 "Tm": 564.15, 
	 "num_atms": 25, 
	 "gaussian": { 
		 "optdone": 1, 
		 "sigma_profile": "yes", 
		 "theory": "DFT", 
		 "functional": "B3LYP", 
		 "basiset": "6-31G**", 
		 "properties": { 
			 "R2extent": 4418.0368, 
			 "electric_dipole_moment_norm": 4.95720249839, 
			 "electric_quadrupole_moment_norm": 11.9037920714, 
			 "total_energy": -1181.8881203, 
			 "HOMO_LUMO_gap": 0.17986, 
			 "cosmo_polarized_energy": -19.85, 
			 "cosmo_cavitation_energy": 31.37, 
			 "cosmo_dispersion_energy": -22.68, 
			 "cosmo_repulsion_energy": 1.78, 
			 "cosmo_total_nonelectrostatic_energy": 10.48, 
			 "SMD_solvation_energy": 5.82 
		},
		"coords": [
			{
				"x": 2.596017014,
				"y": -1.8642288433,
				"z": 1.4652060673,
				"element": "O" 
			},
			{
				"x": 2.6109075566,
				"y": -0.606309692,
				"z": 1.9749961269,
				"element": "C" 
			},
			{
				"x": 3.4812285558,
				"y": -0.2266619405,
				"z": 2.7328321604,
				"element": "O" 
			},
			{
				"x": 1.4688719868,
				"y": 0.2237395392,
				"z": 1.5117274328,
				"element": "C" 
			},
			{
				"x": 0.5078121258,
				"y": -0.2657621201,
				"z": 0.6219804914,
				"element": "C" 
			},
			{
				"x": -0.5619804663,
				"y": 0.530612966,
				"z": 0.2016716844,
				"element": "C" 
			},
			{
				"x": -1.5374817695,
				"y": 0.0158223938,
				"z": -0.6816917449,
				"element": "N" 
			},
			{
				"x": -2.1423774815,
				"y": -1.306968019,
				"z": -0.5247496015,
				"element": "C" 
			},
			{
				"x": -3.1474304266,
				"y": -1.323158525,
				"z": -1.6924919417,
				"element": "C" 
			},
			{
				"x": -2.466314198,
				"y": -0.4686605409,
				"z": -2.6562493692,
				"element": "N" 
			},
			{
				"x": -1.6435926419,
				"y": 0.4492901633,
				"z": -2.0147794244,
				"element": "C" 
			},
			{
				"x": -1.1042391604,
				"y": 1.4192131846,
				"z": -2.507157555,
				"element": "O" 
			},
			{
				"x": -0.6536995832,
				"y": 1.8422396149,
				"z": 0.7076953595,
				"element": "C" 
			},
			{
				"x": -2.0119812644,
				"y": 2.8603043579,
				"z": 0.30488688,
				"element": "Cl" 
			},
			{
				"x": 0.3190205911,
				"y": 2.346009875,
				"z": 1.5752101472,
				"element": "C" 
			},
			{
				"x": 1.3759456266,
				"y": 1.5402420039,
				"z": 1.9791062257,
				"element": "C" 
			},
			{
				"x": 3.3817582054,
				"y": -2.3048770648,
				"z": 1.8281478928,
				"element": "H" 
			},
			{
				"x": 0.5992543613,
				"y": -1.2766338946,
				"z": 0.2427058318,
				"element": "H" 
			},
			{
				"x": -2.624814827,
				"y": -1.4108984557,
				"z": 0.4503618215,
				"element": "H" 
			},
			{
				"x": -1.4043938707,
				"y": -2.1137919377,
				"z": -0.6404106208,
				"element": "H" 
			},
			{
				"x": -4.1157597057,
				"y": -0.9082550452,
				"z": -1.376936956,
				"element": "H" 
			},
			{
				"x": -3.3083430365,
				"y": -2.3322134294,
				"z": -2.081616892,
				"element": "H" 
			},
			{
				"x": -2.9361276171,
				"y": -0.1377125704,
				"z": -3.4866230352,
				"element": "H" 
			},
			{
				"x": 0.226439434,
				"y": 3.3628733394,
				"z": 1.9393430543,
				"element": "H" 
			},
			{
				"x": 2.1329805914,
				"y": 1.9108846406,
				"z": 2.6611359648,
				"element": "H" 
			}
		],
		 "valence_orbital": [ 
			{
				"type": "occ",
				"energy": -0.28212,
				"method": "rhf"
			},
			{
				"type": "occ",
				"energy": -0.26677,
				"method": "rhf"
			},
			{
				"type": "occ",
				"energy": -0.25934,
				"method": "rhf"
			},
			{
				"type": "occ",
				"energy": -0.25593,
				"method": "rhf"
			},
			{
				"type": "occ",
				"energy": -0.23712,
				"method": "rhf"
			},
			{
				"type": "unocc",
				"energy": -0.05726,
				"method": "rhf"
			},
			{
				"type": "unocc",
				"energy": -0.02431,
				"method": "rhf"
			},
			{
				"type": "unocc",
				"energy": 0.02904,
				"method": "rhf"
			},
			{
				"type": "unocc",
				"energy": 0.04424,
				"method": "rhf"
			},
			{
				"type": "unocc",
				"energy": 0.05364,
				"method": "rhf"
			}
		],
		"cosmo_sigma_profile": { 
			"-0.025": 0.0,
			"-0.024": 0.0,
			"-0.023": 0.0,
			"-0.022": 0.0,
			"-0.021": 0.0,
			"-0.02": 0.0,
			"-0.019": 0.110371393468,
			"-0.018": 0.889108155874,
			"-0.017": 1.10543376595,
			"-0.016": 0.51689410961,
			"-0.015": 0.877993292574,
			"-0.014": 1.58609611206,
			"-0.013": 2.58760698924,
			"-0.012": 1.43831479364,
			"-0.011": 1.14791906605,
			"-0.01": 1.71009548512,
			"-0.009": 2.01194777417,
			"-0.008": 3.97133696577,
			"-0.007": 8.43153921213,
			"-0.006": 13.5459236717,
			"-0.005": 19.3188058972,
			"-0.004": 19.5331586891,
			"-0.003": 16.041898864,
			"-0.002": 12.907120349,
			"-0.001": 14.2219553129,
			"0.0": 18.3791616702,
			"0.001": 19.1962271539,
			"0.002": 17.1593967992,
			"0.003": 11.4644736679,
			"0.004": 12.6994517976,
			"0.005": 6.6945270912,
			"0.006": 6.55514426226,
			"0.007": 5.31112812988,
			"0.008": 3.86920426561,
			"0.009": 3.34644396025,
			"0.01": 4.80746777341,
			"0.011": 6.36059641748,
			"0.012": 4.8591672555,
			"0.013": 4.689829428,
			"0.014": 4.40080090238,
			"0.015": 0.32375743762,
			"0.016": 0.0,
			"0.017": 0.0,
			"0.018": 0.0,
			"0.019": 0.0,
			"0.02": 0.0,
			"0.021": 0.0,
			"0.022": 0.0,
			"0.023": 0.0,
			"0.024": 0.0,
			"0.025": 0.0
		}
	}
}
