{
	 "smiles": "COC1=CC(C=CC(O)=O)=CC=C1", 
	 "Tm": 391.15, 
	 "num_atms": 23, 
	 "gaussian": { 
		 "optdone": 1, 
		 "sigma_profile": "yes", 
		 "theory": "DFT", 
		 "functional": "B3LYP", 
		 "basiset": "6-31G**", 
		 "properties": { 
			 "R2extent": 3833.1178, 
			 "electric_dipole_moment_norm": 5.65843634054, 
			 "electric_quadrupole_moment_norm": 25.8695870352, 
			 "total_energy": -612.741406563, 
			 "HOMO_LUMO_gap": 0.15846, 
			 "cosmo_polarized_energy": -17.34, 
			 "cosmo_cavitation_energy": 27.99, 
			 "cosmo_dispersion_energy": -20.4, 
			 "cosmo_repulsion_energy": 1.61, 
			 "cosmo_total_nonelectrostatic_energy": 9.21, 
			 "SMD_solvation_energy": 6.9 
		},
		"coords": [
			{
				"x": 1.7811683259,
				"y": 3.8895167059,
				"z": -2.0065035565,
				"element": "C" 
			},
			{
				"x": 2.6034853565,
				"y": 2.7380107868,
				"z": -1.8933672389,
				"element": "O" 
			},
			{
				"x": 2.1396639946,
				"y": 1.6759163613,
				"z": -1.1763989322,
				"element": "C" 
			},
			{
				"x": 0.8962796035,
				"y": 1.6294112885,
				"z": -0.540125838,
				"element": "C" 
			},
			{
				"x": 0.5039268293,
				"y": 0.4857934563,
				"z": 0.1839256708,
				"element": "C" 
			},
			{
				"x": -0.8119810793,
				"y": 0.4997290546,
				"z": 0.8311076634,
				"element": "C" 
			},
			{
				"x": -1.3308442462,
				"y": -0.428842386,
				"z": 1.6567448009,
				"element": "C" 
			},
			{
				"x": -2.6516788511,
				"y": -0.3226804119,
				"z": 2.3268345509,
				"element": "C" 
			},
			{
				"x": -3.5846820479,
				"y": 0.490988883,
				"z": 1.7524704742,
				"element": "O" 
			},
			{
				"x": -2.9119327215,
				"y": -0.9139949441,
				"z": 3.3492542768,
				"element": "O" 
			},
			{
				"x": 1.3748357752,
				"y": -0.6129845112,
				"z": 0.2526787298,
				"element": "C" 
			},
			{
				"x": 2.6124640953,
				"y": -0.5591656129,
				"z": -0.3867193138,
				"element": "C" 
			},
			{
				"x": 3.0016435732,
				"y": 0.5720830448,
				"z": -1.0974706715,
				"element": "C" 
			},
			{
				"x": 0.8327556647,
				"y": 3.6620866642,
				"z": -2.5101602,
				"element": "H" 
			},
			{
				"x": 1.5701096773,
				"y": 4.3343384042,
				"z": -1.0255708578,
				"element": "H" 
			},
			{
				"x": 2.3443489372,
				"y": 4.6029364712,
				"z": -2.6096034441,
				"element": "H" 
			},
			{
				"x": 0.2190342706,
				"y": 2.4746414336,
				"z": -0.5895491187,
				"element": "H" 
			},
			{
				"x": -1.4005865749,
				"y": 1.394782237,
				"z": 0.6235098462,
				"element": "H" 
			},
			{
				"x": -0.7612237644,
				"y": -1.2980584707,
				"z": 1.9685269578,
				"element": "H" 
			},
			{
				"x": -3.3024226743,
				"y": 0.7319678476,
				"z": 0.8594336664,
				"element": "H" 
			},
			{
				"x": 1.0882031212,
				"y": -1.5073512527,
				"z": 0.7948443411,
				"element": "H" 
			},
			{
				"x": 3.283371532,
				"y": -1.4113828768,
				"z": -0.3326737588,
				"element": "H" 
			},
			{
				"x": 3.961661203,
				"y": 0.6262578274,
				"z": -1.5997880479,
				"element": "H" 
			}
		],
		 "valence_orbital": [ 
			{
				"type": "occ",
				"energy": -0.31479,
				"method": "rhf"
			},
			{
				"type": "occ",
				"energy": -0.30274,
				"method": "rhf"
			},
			{
				"type": "occ",
				"energy": -0.26873,
				"method": "rhf"
			},
			{
				"type": "occ",
				"energy": -0.25295,
				"method": "rhf"
			},
			{
				"type": "occ",
				"energy": -0.23024,
				"method": "rhf"
			},
			{
				"type": "unocc",
				"energy": -0.07178,
				"method": "rhf"
			},
			{
				"type": "unocc",
				"energy": -0.0068,
				"method": "rhf"
			},
			{
				"type": "unocc",
				"energy": 0.0159,
				"method": "rhf"
			},
			{
				"type": "unocc",
				"energy": 0.0611,
				"method": "rhf"
			},
			{
				"type": "unocc",
				"energy": 0.07924,
				"method": "rhf"
			}
		],
		"cosmo_sigma_profile": { 
			"-0.025": 0.0,
			"-0.024": 0.0,
			"-0.023": 0.0,
			"-0.022": 0.0,
			"-0.021": 0.0,
			"-0.02": 0.0,
			"-0.019": 0.211990436622,
			"-0.018": 0.586098032765,
			"-0.017": 0.98365271083,
			"-0.016": 1.39151771076,
			"-0.015": 0.718341435126,
			"-0.014": 0.696012711671,
			"-0.013": 0.500700119987,
			"-0.012": 1.50797075216,
			"-0.011": 1.32215464966,
			"-0.01": 1.11758076261,
			"-0.009": 2.36057600871,
			"-0.008": 4.3566612087,
			"-0.007": 6.30814232026,
			"-0.006": 14.9051332112,
			"-0.005": 17.6208391485,
			"-0.004": 16.4236833795,
			"-0.003": 16.1852836162,
			"-0.002": 12.2969682097,
			"-0.001": 12.7788639929,
			"0.0": 8.73029911921,
			"0.001": 11.4831614622,
			"0.002": 15.390288723,
			"0.003": 16.4657509592,
			"0.004": 15.1077261328,
			"0.005": 7.24391280365,
			"0.006": 3.73085147402,
			"0.007": 3.76276324121,
			"0.008": 4.15145321626,
			"0.009": 3.721516408,
			"0.01": 6.0373132698,
			"0.011": 5.27509196528,
			"0.012": 5.99388155297,
			"0.013": 3.50458951886,
			"0.014": 0.599536823792,
			"0.015": 0.0,
			"0.016": 0.0,
			"0.017": 0.0,
			"0.018": 0.0,
			"0.019": 0.0,
			"0.02": 0.0,
			"0.021": 0.0,
			"0.022": 0.0,
			"0.023": 0.0,
			"0.024": 0.0,
			"0.025": 0.0
		}
	}
}
