{
	 "smiles": "CC1(NC(=O)NC1=O)C1=C(F)C=C(F)C=C1", 
	 "Tm": 468.15, 
	 "num_atms": 24, 
	 "gaussian": { 
		 "optdone": 1, 
		 "sigma_profile": "yes", 
		 "theory": "DFT", 
		 "functional": "B3LYP", 
		 "basiset": "6-31G**", 
		 "properties": { 
			 "R2extent": 3728.7701, 
			 "electric_dipole_moment_norm": 1.88717833021, 
			 "electric_quadrupole_moment_norm": 9.95839744035, 
			 "total_energy": -845.5476921, 
			 "HOMO_LUMO_gap": 0.22958, 
			 "cosmo_polarized_energy": -13.92, 
			 "cosmo_cavitation_energy": 29.08, 
			 "cosmo_dispersion_energy": -20.78, 
			 "cosmo_repulsion_energy": 1.57, 
			 "cosmo_total_nonelectrostatic_energy": 9.88, 
			 "SMD_solvation_energy": 7.04 
		},
		"coords": [
			{
				"x": -1.7741549984,
				"y": -0.757720023,
				"z": 1.0794901355,
				"element": "C" 
			},
			{
				"x": -0.2748320022,
				"y": -0.4060904888,
				"z": 1.1540410689,
				"element": "C" 
			},
			{
				"x": 0.5765617016,
				"y": -1.5562255673,
				"z": 0.8390466027,
				"element": "N" 
			},
			{
				"x": 1.4349698353,
				"y": -1.9114693601,
				"z": 1.8428080154,
				"element": "C" 
			},
			{
				"x": 2.2935759067,
				"y": -2.7674418621,
				"z": 1.8491850913,
				"element": "O" 
			},
			{
				"x": 1.1060657509,
				"y": -1.0627797154,
				"z": 2.9273057351,
				"element": "N" 
			},
			{
				"x": 0.114837475,
				"y": -0.1609112003,
				"z": 2.63580006,
				"element": "C" 
			},
			{
				"x": -0.3807990719,
				"y": 0.6541522363,
				"z": 3.389176366,
				"element": "O" 
			},
			{
				"x": 0.0413823118,
				"y": 0.8077310804,
				"z": 0.2684643257,
				"element": "C" 
			},
			{
				"x": 0.1204564908,
				"y": 0.6507882316,
				"z": -1.1190845809,
				"element": "C" 
			},
			{
				"x": -0.0728896063,
				"y": -0.5872389089,
				"z": -1.6510816036,
				"element": "F" 
			},
			{
				"x": 0.3828333322,
				"y": 1.6888839961,
				"z": -1.9998555083,
				"element": "C" 
			},
			{
				"x": 0.5607825696,
				"y": 2.9561656629,
				"z": -1.4556316465,
				"element": "C" 
			},
			{
				"x": 0.8160915017,
				"y": 3.9834365182,
				"z": -2.2852460883,
				"element": "F" 
			},
			{
				"x": 0.4768817209,
				"y": 3.1847589949,
				"z": -0.0881455818,
				"element": "C" 
			},
			{
				"x": 0.2142421041,
				"y": 2.108582544,
				"z": 0.7606832664,
				"element": "C" 
			},
			{
				"x": -2.3655744789,
				"y": 0.080594565,
				"z": 1.4551158618,
				"element": "H" 
			},
			{
				"x": -1.9875262407,
				"y": -1.643655877,
				"z": 1.6842585289,
				"element": "H" 
			},
			{
				"x": -2.0584104684,
				"y": -0.9620049341,
				"z": 0.044399097,
				"element": "H" 
			},
			{
				"x": 0.6964455568,
				"y": -1.9103120763,
				"z": -0.0965038665,
				"element": "H" 
			},
			{
				"x": 1.5490120385,
				"y": -1.1461883068,
				"z": 3.8311432271,
				"element": "H" 
			},
			{
				"x": 0.4415025694,
				"y": 1.5147026668,
				"z": -3.0671474371,
				"element": "H" 
			},
			{
				"x": 0.6135008234,
				"y": 4.1880435493,
				"z": 0.2987165496,
				"element": "H" 
			},
			{
				"x": 0.1295451782,
				"y": 2.2811982748,
				"z": 1.8270623817,
				"element": "H" 
			}
		],
		 "valence_orbital": [ 
			{
				"type": "occ",
				"energy": -0.29469,
				"method": "rhf"
			},
			{
				"type": "occ",
				"energy": -0.278,
				"method": "rhf"
			},
			{
				"type": "occ",
				"energy": -0.27369,
				"method": "rhf"
			},
			{
				"type": "occ",
				"energy": -0.26744,
				"method": "rhf"
			},
			{
				"type": "occ",
				"energy": -0.25735,
				"method": "rhf"
			},
			{
				"type": "unocc",
				"energy": -0.02777,
				"method": "rhf"
			},
			{
				"type": "unocc",
				"energy": -0.02522,
				"method": "rhf"
			},
			{
				"type": "unocc",
				"energy": -0.01143,
				"method": "rhf"
			},
			{
				"type": "unocc",
				"energy": 0.0564,
				"method": "rhf"
			},
			{
				"type": "unocc",
				"energy": 0.06626,
				"method": "rhf"
			}
		],
		"cosmo_sigma_profile": { 
			"-0.025": 0.0,
			"-0.024": 0.0,
			"-0.023": 0.0,
			"-0.022": 0.0,
			"-0.021": 0.0,
			"-0.02": 0.0,
			"-0.019": 0.0,
			"-0.018": 0.0,
			"-0.017": 0.75210612558,
			"-0.016": 1.35823032748,
			"-0.015": 1.1909060574,
			"-0.014": 0.957275638376,
			"-0.013": 1.26232915116,
			"-0.012": 1.35988059254,
			"-0.011": 1.38796418093,
			"-0.01": 1.77753390131,
			"-0.009": 3.06499941461,
			"-0.008": 4.05116550803,
			"-0.007": 5.09609443955,
			"-0.006": 8.00586684955,
			"-0.005": 11.4296423714,
			"-0.004": 14.5005378564,
			"-0.003": 16.8124643296,
			"-0.002": 20.7144210286,
			"-0.001": 19.6960976482,
			"0.0": 22.3421096664,
			"0.001": 20.1594773818,
			"0.002": 13.5445150546,
			"0.003": 15.3584340162,
			"0.004": 12.4862727372,
			"0.005": 2.62336523848,
			"0.006": 2.90548936742,
			"0.007": 2.03193119643,
			"0.008": 2.03016195464,
			"0.009": 3.03630687942,
			"0.01": 3.49293220616,
			"0.011": 5.61851188057,
			"0.012": 8.20798056829,
			"0.013": 5.1532119279,
			"0.014": 0.39890815064,
			"0.015": 0.0,
			"0.016": 0.0,
			"0.017": 0.0,
			"0.018": 0.0,
			"0.019": 0.0,
			"0.02": 0.0,
			"0.021": 0.0,
			"0.022": 0.0,
			"0.023": 0.0,
			"0.024": 0.0,
			"0.025": 0.0
		}
	}
}
