{
	 "smiles": "CC(C)S(=O)(=O)NC1=CC(O)=CC=C1", 
	 "Tm": 397.15, 
	 "num_atms": 27, 
	 "gaussian": { 
		 "optdone": 1, 
		 "sigma_profile": "yes", 
		 "theory": "DFT", 
		 "functional": "B3LYP", 
		 "basiset": "6-31G**", 
		 "properties": { 
			 "R2extent": 4269.9957, 
			 "electric_dipole_moment_norm": 3.85938123668, 
			 "electric_quadrupole_moment_norm": 18.2323881979, 
			 "total_energy": -1029.34487369, 
			 "HOMO_LUMO_gap": 0.2117, 
			 "cosmo_polarized_energy": -18.26, 
			 "cosmo_cavitation_energy": 31.09, 
			 "cosmo_dispersion_energy": -22.28, 
			 "cosmo_repulsion_energy": 1.7, 
			 "cosmo_total_nonelectrostatic_energy": 10.52, 
			 "SMD_solvation_energy": 4.92 
		},
		"coords": [
			{
				"x": 2.9619092823,
				"y": -1.480485157,
				"z": -1.954274853,
				"element": "C" 
			},
			{
				"x": 1.7946092296,
				"y": -2.11991391,
				"z": -2.7068223157,
				"element": "C" 
			},
			{
				"x": 1.2036550094,
				"y": -1.2323709333,
				"z": -3.8024724335,
				"element": "C" 
			},
			{
				"x": 0.4717775773,
				"y": -2.6940527512,
				"z": -1.5604858386,
				"element": "S" 
			},
			{
				"x": -0.5711851898,
				"y": -3.3141487498,
				"z": -2.3813920807,
				"element": "O" 
			},
			{
				"x": 1.120981877,
				"y": -3.4170089453,
				"z": -0.4633849689,
				"element": "O" 
			},
			{
				"x": -0.2837806708,
				"y": -1.328289137,
				"z": -0.9114039213,
				"element": "N" 
			},
			{
				"x": 0.2517868996,
				"y": -0.4049702287,
				"z": 0.0253840347,
				"element": "C" 
			},
			{
				"x": 0.9449850306,
				"y": -0.8488444682,
				"z": 1.158474771,
				"element": "C" 
			},
			{
				"x": 1.4278090601,
				"y": 0.0865106681,
				"z": 2.0771840873,
				"element": "C" 
			},
			{
				"x": 2.1193618115,
				"y": -0.2900349145,
				"z": 3.190959379,
				"element": "O" 
			},
			{
				"x": 1.2001255356,
				"y": 1.4564412068,
				"z": 1.8956454381,
				"element": "C" 
			},
			{
				"x": 0.4903210331,
				"y": 1.8782849393,
				"z": 0.7759164281,
				"element": "C" 
			},
			{
				"x": 0.0233672217,
				"y": 0.9638227304,
				"z": -0.1699277528,
				"element": "C" 
			},
			{
				"x": 2.6756138298,
				"y": -0.5251633856,
				"z": -1.5062583774,
				"element": "H" 
			},
			{
				"x": 3.7771726331,
				"y": -1.2909677071,
				"z": -2.6601916546,
				"element": "H" 
			},
			{
				"x": 3.3330698942,
				"y": -2.1386067779,
				"z": -1.1665328117,
				"element": "H" 
			},
			{
				"x": 2.1114313344,
				"y": -3.0769589661,
				"z": -3.1392352584,
				"element": "H" 
			},
			{
				"x": 0.8630090005,
				"y": -0.2755823531,
				"z": -3.3933706606,
				"element": "H" 
			},
			{
				"x": 1.9760464905,
				"y": -1.0166369579,
				"z": -4.5471566938,
				"element": "H" 
			},
			{
				"x": 0.3680901476,
				"y": -1.7235720361,
				"z": -4.3058715453,
				"element": "H" 
			},
			{
				"x": -0.9862945369,
				"y": -0.9689130829,
				"z": -1.5465394241,
				"element": "H" 
			},
			{
				"x": 1.0958310344,
				"y": -1.9118911579,
				"z": 1.3112495818,
				"element": "H" 
			},
			{
				"x": 2.1985029201,
				"y": -1.25305748,
				"z": 3.204625066,
				"element": "H" 
			},
			{
				"x": 1.5756748856,
				"y": 2.1577012636,
				"z": 2.6323859162,
				"element": "H" 
			},
			{
				"x": 0.3051025942,
				"y": 2.9381597216,
				"z": 0.6278540165,
				"element": "H" 
			},
			{
				"x": -0.5155739346,
				"y": 1.3062485698,
				"z": -1.0488581285,
				"element": "H" 
			}
		],
		 "valence_orbital": [ 
			{
				"type": "occ",
				"energy": -0.30774,
				"method": "rhf"
			},
			{
				"type": "occ",
				"energy": -0.30402,
				"method": "rhf"
			},
			{
				"type": "occ",
				"energy": -0.29715,
				"method": "rhf"
			},
			{
				"type": "occ",
				"energy": -0.24113,
				"method": "rhf"
			},
			{
				"type": "occ",
				"energy": -0.22259,
				"method": "rhf"
			},
			{
				"type": "unocc",
				"energy": -0.01089,
				"method": "rhf"
			},
			{
				"type": "unocc",
				"energy": 0.00301,
				"method": "rhf"
			},
			{
				"type": "unocc",
				"energy": 0.0492,
				"method": "rhf"
			},
			{
				"type": "unocc",
				"energy": 0.06814,
				"method": "rhf"
			},
			{
				"type": "unocc",
				"energy": 0.07235,
				"method": "rhf"
			}
		],
		"cosmo_sigma_profile": { 
			"-0.025": 0.0,
			"-0.024": 0.0,
			"-0.023": 0.0,
			"-0.022": 0.0,
			"-0.021": 0.0,
			"-0.02": 0.0,
			"-0.019": 0.0,
			"-0.018": 0.449281315434,
			"-0.017": 1.05976354563,
			"-0.016": 1.06455801369,
			"-0.015": 2.12192172048,
			"-0.014": 1.79776024158,
			"-0.013": 1.81449304494,
			"-0.012": 1.78684652757,
			"-0.011": 1.30903819487,
			"-0.01": 2.66456237302,
			"-0.009": 3.04813187988,
			"-0.008": 3.50186284199,
			"-0.007": 5.21176172544,
			"-0.006": 9.05884262367,
			"-0.005": 16.2977861103,
			"-0.004": 17.8803087415,
			"-0.003": 19.275900335,
			"-0.002": 18.6522288526,
			"-0.001": 18.7673614708,
			"0.0": 14.40606654,
			"0.001": 8.33724698957,
			"0.002": 11.0464610147,
			"0.003": 14.0282364044,
			"0.004": 15.0281138984,
			"0.005": 13.1685995147,
			"0.006": 6.58361414018,
			"0.007": 4.5020799111,
			"0.008": 5.25760980855,
			"0.009": 4.93268124334,
			"0.01": 6.72214671214,
			"0.011": 10.6853657669,
			"0.012": 4.74610095006,
			"0.013": 0.0197686386181,
			"0.014": 0.0,
			"0.015": 0.0,
			"0.016": 0.0,
			"0.017": 0.0,
			"0.018": 0.0,
			"0.019": 0.0,
			"0.02": 0.0,
			"0.021": 0.0,
			"0.022": 0.0,
			"0.023": 0.0,
			"0.024": 0.0,
			"0.025": 0.0
		}
	}
}
