{
	 "smiles": "CCOC(=O)C1=NC2=C(C=C(Br)C=C2)C(=O)N1", 
	 "Tm": 535.15, 
	 "num_atms": 26, 
	 "gaussian": { 
		 "optdone": 1, 
		 "sigma_profile": "yes", 
		 "theory": "DFT", 
		 "functional": "B3LYP", 
		 "basiset": "6-31G**", 
		 "properties": { 
			 "R2extent": 9164.8684, 
			 "electric_dipole_moment_norm": 4.45216517888, 
			 "electric_quadrupole_moment_norm": 8.24682820968, 
			 "total_energy": -3331.21631652, 
			 "HOMO_LUMO_gap": 0.15641, 
			 "cosmo_polarized_energy": -13.18, 
			 "cosmo_cavitation_energy": 33.92, 
			 "cosmo_dispersion_energy": -25.29, 
			 "cosmo_repulsion_energy": 1.97, 
			 "cosmo_total_nonelectrostatic_energy": 10.6, 
			 "SMD_solvation_energy": 4.97 
		},
		"coords": [
			{
				"x": 2.3860916816,
				"y": -0.8637258922,
				"z": 4.133195963,
				"element": "C" 
			},
			{
				"x": 3.1496382992,
				"y": -0.8770035668,
				"z": 2.8186672905,
				"element": "C" 
			},
			{
				"x": 2.2392608973,
				"y": -0.8696893333,
				"z": 1.6846770183,
				"element": "O" 
			},
			{
				"x": 1.8105699685,
				"y": 0.3195747393,
				"z": 1.2760175021,
				"element": "C" 
			},
			{
				"x": 2.1149581007,
				"y": 1.3966569329,
				"z": 1.7580179091,
				"element": "O" 
			},
			{
				"x": 0.8700876835,
				"y": 0.2347245194,
				"z": 0.0988818945,
				"element": "C" 
			},
			{
				"x": 0.5234454838,
				"y": -0.8945832205,
				"z": -0.4262223717,
				"element": "N" 
			},
			{
				"x": -0.3491628264,
				"y": -0.8338294666,
				"z": -1.503673361,
				"element": "C" 
			},
			{
				"x": -0.8466010149,
				"y": 0.3884050553,
				"z": -2.0182339746,
				"element": "C" 
			},
			{
				"x": -1.7263415381,
				"y": 0.4027688982,
				"z": -3.108491665,
				"element": "C" 
			},
			{
				"x": -2.1063125623,
				"y": -0.8002033767,
				"z": -3.6808740102,
				"element": "C" 
			},
			{
				"x": -3.3032025191,
				"y": -0.8061805848,
				"z": -5.1658694552,
				"element": "Br" 
			},
			{
				"x": -1.6258880473,
				"y": -2.0253573029,
				"z": -3.187805256,
				"element": "C" 
			},
			{
				"x": -0.7561441138,
				"y": -2.0391276331,
				"z": -2.1098971924,
				"element": "C" 
			},
			{
				"x": -0.4348832272,
				"y": 1.6610407524,
				"z": -1.3998158901,
				"element": "C" 
			},
			{
				"x": -0.7875108015,
				"y": 2.7781703892,
				"z": -1.7436220598,
				"element": "O" 
			},
			{
				"x": 0.4417228236,
				"y": 1.4659164579,
				"z": -0.3281381587,
				"element": "N" 
			},
			{
				"x": 1.6845385293,
				"y": -1.7010151674,
				"z": 4.1843852837,
				"element": "H" 
			},
			{
				"x": 1.8337643145,
				"y": 0.0716558266,
				"z": 4.2519545978,
				"element": "H" 
			},
			{
				"x": 3.0904771265,
				"y": -0.9528966896,
				"z": 4.9666089941,
				"element": "H" 
			},
			{
				"x": 3.8189385913,
				"y": -0.0177459607,
				"z": 2.7355698078,
				"element": "H" 
			},
			{
				"x": 3.7194194137,
				"y": -1.7993265637,
				"z": 2.691013338,
				"element": "H" 
			},
			{
				"x": -2.0885186781,
				"y": 1.3549143295,
				"z": -3.4778746407,
				"element": "H" 
			},
			{
				"x": -1.9392082549,
				"y": -2.9523725808,
				"z": -3.6544711558,
				"element": "H" 
			},
			{
				"x": -0.3709620035,
				"y": -2.971209021,
				"z": -1.7104975102,
				"element": "H" 
			},
			{
				"x": 0.7862226737,
				"y": 2.2819384594,
				"z": 0.1691971023,
				"element": "H" 
			}
		],
		 "valence_orbital": [ 
			{
				"type": "occ",
				"energy": -0.28731,
				"method": "rhf"
			},
			{
				"type": "occ",
				"energy": -0.28683,
				"method": "rhf"
			},
			{
				"type": "occ",
				"energy": -0.27851,
				"method": "rhf"
			},
			{
				"type": "occ",
				"energy": -0.2731,
				"method": "rhf"
			},
			{
				"type": "occ",
				"energy": -0.23891,
				"method": "rhf"
			},
			{
				"type": "unocc",
				"energy": -0.0825,
				"method": "rhf"
			},
			{
				"type": "unocc",
				"energy": -0.05572,
				"method": "rhf"
			},
			{
				"type": "unocc",
				"energy": -0.00742,
				"method": "rhf"
			},
			{
				"type": "unocc",
				"energy": -0.0004,
				"method": "rhf"
			},
			{
				"type": "unocc",
				"energy": 0.03714,
				"method": "rhf"
			}
		],
		"cosmo_sigma_profile": { 
			"-0.025": 0.0,
			"-0.024": 0.0,
			"-0.023": 0.0,
			"-0.022": 0.0,
			"-0.021": 0.0,
			"-0.02": 0.0,
			"-0.019": 0.0,
			"-0.018": 0.0,
			"-0.017": 0.0,
			"-0.016": 0.0,
			"-0.015": 0.0593846983116,
			"-0.014": 0.671615541942,
			"-0.013": 0.441090695572,
			"-0.012": 0.617489344614,
			"-0.011": 0.447937798067,
			"-0.01": 0.666120007066,
			"-0.009": 1.17119081033,
			"-0.008": 3.14351618396,
			"-0.007": 7.93018720126,
			"-0.006": 13.2984673072,
			"-0.005": 20.5916524207,
			"-0.004": 25.0822484213,
			"-0.003": 22.6953616939,
			"-0.002": 19.7488382221,
			"-0.001": 21.9794340274,
			"0.0": 28.867887777,
			"0.001": 24.8246448531,
			"0.002": 13.7823074456,
			"0.003": 12.61238622,
			"0.004": 13.4954285293,
			"0.005": 6.40601765936,
			"0.006": 4.18594357316,
			"0.007": 3.12643504434,
			"0.008": 3.82345302837,
			"0.009": 4.65777100346,
			"0.01": 5.8897488028,
			"0.011": 4.01158087033,
			"0.012": 6.66640910647,
			"0.013": 2.80658947252,
			"0.014": 0.94532691628,
			"0.015": 0.641535998401,
			"0.016": 0.0226141130275,
			"0.017": 0.0,
			"0.018": 0.0,
			"0.019": 0.0,
			"0.02": 0.0,
			"0.021": 0.0,
			"0.022": 0.0,
			"0.023": 0.0,
			"0.024": 0.0,
			"0.025": 0.0
		}
	}
}
