{
	 "smiles": "OC(=O)CNC1=NC2=C(S1)C=CC=C2", 
	 "Tm": 448.15, 
	 "num_atms": 22, 
	 "gaussian": { 
		 "optdone": 1, 
		 "sigma_profile": "yes", 
		 "theory": "DFT", 
		 "functional": "B3LYP", 
		 "basiset": "6-31G**", 
		 "properties": { 
			 "R2extent": 4635.4589, 
			 "electric_dipole_moment_norm": 5.18267599412, 
			 "electric_quadrupole_moment_norm": 30.3264807841, 
			 "total_energy": -1005.94041667, 
			 "HOMO_LUMO_gap": 0.19398, 
			 "cosmo_polarized_energy": -16.27, 
			 "cosmo_cavitation_energy": 27.98, 
			 "cosmo_dispersion_energy": -21.27, 
			 "cosmo_repulsion_energy": 1.62, 
			 "cosmo_total_nonelectrostatic_energy": 8.32, 
			 "SMD_solvation_energy": 4.25 
		},
		"coords": [
			{
				"x": -3.3038314776,
				"y": 1.2323439975,
				"z": 0.8904624755,
				"element": "O" 
			},
			{
				"x": -3.6896488222,
				"y": 0.4738465375,
				"z": 1.9220260982,
				"element": "C" 
			},
			{
				"x": -4.8122630221,
				"y": 0.5029204885,
				"z": 2.3701601609,
				"element": "O" 
			},
			{
				"x": -2.6174477526,
				"y": -0.4796851691,
				"z": 2.4922099227,
				"element": "C" 
			},
			{
				"x": -1.4101324538,
				"y": 0.1674569625,
				"z": 3.0022457243,
				"element": "N" 
			},
			{
				"x": -0.4570086755,
				"y": 0.67668882,
				"z": 2.1845914957,
				"element": "C" 
			},
			{
				"x": -0.5958664759,
				"y": 0.7669213343,
				"z": 0.8883684094,
				"element": "N" 
			},
			{
				"x": 0.5523794749,
				"y": 1.2788795546,
				"z": 0.2932068682,
				"element": "C" 
			},
			{
				"x": 1.5972525022,
				"y": 1.6113404587,
				"z": 1.1856948439,
				"element": "C" 
			},
			{
				"x": 1.1063716497,
				"y": 1.222589545,
				"z": 2.8380303861,
				"element": "S" 
			},
			{
				"x": 2.7981847889,
				"y": 2.1582150627,
				"z": 0.7403621033,
				"element": "C" 
			},
			{
				"x": 2.9546005108,
				"y": 2.3692627658,
				"z": -0.6304184124,
				"element": "C" 
			},
			{
				"x": 1.9276969875,
				"y": 2.0427174037,
				"z": -1.5273407989,
				"element": "C" 
			},
			{
				"x": 0.726360014,
				"y": 1.5000001583,
				"z": -1.0776752227,
				"element": "C" 
			},
			{
				"x": -2.3508592248,
				"y": 1.0650358243,
				"z": 0.6685797392,
				"element": "H" 
			},
			{
				"x": -3.0790227795,
				"y": -1.0319984966,
				"z": 3.3102738109,
				"element": "H" 
			},
			{
				"x": -2.3214895816,
				"y": -1.1881521722,
				"z": 1.7091502125,
				"element": "H" 
			},
			{
				"x": -1.3518737879,
				"y": 0.3553754574,
				"z": 3.9906057725,
				"element": "H" 
			},
			{
				"x": 3.5921113421,
				"y": 2.411756657,
				"z": 1.4354254016,
				"element": "H" 
			},
			{
				"x": 3.8830612027,
				"y": 2.7913158553,
				"z": -1.0021027596,
				"element": "H" 
			},
			{
				"x": 2.0696363325,
				"y": 2.2166398811,
				"z": -2.5895951871,
				"element": "H" 
			},
			{
				"x": -0.0735107518,
				"y": 1.2472290738,
				"z": -1.7659610445,
				"element": "H" 
			}
		],
		 "valence_orbital": [ 
			{
				"type": "occ",
				"energy": -0.30271,
				"method": "rhf"
			},
			{
				"type": "occ",
				"energy": -0.29965,
				"method": "rhf"
			},
			{
				"type": "occ",
				"energy": -0.26088,
				"method": "rhf"
			},
			{
				"type": "occ",
				"energy": -0.24677,
				"method": "rhf"
			},
			{
				"type": "occ",
				"energy": -0.2253,
				"method": "rhf"
			},
			{
				"type": "unocc",
				"energy": -0.03132,
				"method": "rhf"
			},
			{
				"type": "unocc",
				"energy": -0.01814,
				"method": "rhf"
			},
			{
				"type": "unocc",
				"energy": -0.01521,
				"method": "rhf"
			},
			{
				"type": "unocc",
				"energy": 0.0105,
				"method": "rhf"
			},
			{
				"type": "unocc",
				"energy": 0.02326,
				"method": "rhf"
			}
		],
		"cosmo_sigma_profile": { 
			"-0.025": 0.0,
			"-0.024": 0.0,
			"-0.023": 0.0,
			"-0.022": 0.0,
			"-0.021": 0.0,
			"-0.02": 0.0,
			"-0.019": 0.0,
			"-0.018": 0.0,
			"-0.017": 0.438361134203,
			"-0.016": 1.50620817693,
			"-0.015": 1.69681730162,
			"-0.014": 1.66445177519,
			"-0.013": 1.33481607421,
			"-0.012": 1.12292270905,
			"-0.011": 1.40446166175,
			"-0.01": 1.7919003266,
			"-0.009": 1.29735352348,
			"-0.008": 4.86065300766,
			"-0.007": 8.38475779143,
			"-0.006": 11.0891800756,
			"-0.005": 12.8828210624,
			"-0.004": 15.2894725458,
			"-0.003": 14.0607601444,
			"-0.002": 13.5375402121,
			"-0.001": 15.219689715,
			"0.0": 14.6260187777,
			"0.001": 15.3392693199,
			"0.002": 15.3757734922,
			"0.003": 14.8406742379,
			"0.004": 15.6202515052,
			"0.005": 11.3544637712,
			"0.006": 3.65522876657,
			"0.007": 2.91933193923,
			"0.008": 2.97384152529,
			"0.009": 2.82988209421,
			"0.01": 3.69427317513,
			"0.011": 6.00217512642,
			"0.012": 6.3647930781,
			"0.013": 3.11311031825,
			"0.014": 0.365208803316,
			"0.015": 0.0,
			"0.016": 0.0,
			"0.017": 0.0,
			"0.018": 0.0,
			"0.019": 0.0,
			"0.02": 0.0,
			"0.021": 0.0,
			"0.022": 0.0,
			"0.023": 0.0,
			"0.024": 0.0,
			"0.025": 0.0
		}
	}
}
