{
	 "smiles": "NC(=O)NC(CC(O)=O)C1=CC=C(Br)C=C1", 
	 "Tm": 473.15, 
	 "num_atms": 27, 
	 "gaussian": { 
		 "optdone": 1, 
		 "sigma_profile": "yes", 
		 "theory": "DFT", 
		 "functional": "B3LYP", 
		 "basiset": "6-31G**", 
		 "properties": { 
			 "R2extent": 7047.8703, 
			 "electric_dipole_moment_norm": 3.88116633243, 
			 "electric_quadrupole_moment_norm": 19.6025907017, 
			 "total_energy": -3294.31742733, 
			 "HOMO_LUMO_gap": 0.2168, 
			 "cosmo_polarized_energy": -19.95, 
			 "cosmo_cavitation_energy": 33.85, 
			 "cosmo_dispersion_energy": -24.13, 
			 "cosmo_repulsion_energy": 1.92, 
			 "cosmo_total_nonelectrostatic_energy": 11.64, 
			 "SMD_solvation_energy": 6.25 
		},
		"coords": [
			{
				"x": 2.9698601253,
				"y": 1.0341978687,
				"z": -3.0730960977,
				"element": "N" 
			},
			{
				"x": 2.6623728362,
				"y": 0.3137048618,
				"z": -1.9296217886,
				"element": "C" 
			},
			{
				"x": 3.5202720618,
				"y": -0.1593898776,
				"z": -1.1939190789,
				"element": "O" 
			},
			{
				"x": 1.2998619728,
				"y": 0.1671226836,
				"z": -1.7083589438,
				"element": "N" 
			},
			{
				"x": 0.8618068411,
				"y": -0.7686297762,
				"z": -0.6753686035,
				"element": "C" 
			},
			{
				"x": 0.8740618115,
				"y": -2.2389420162,
				"z": -1.1668757941,
				"element": "C" 
			},
			{
				"x": -0.1818423156,
				"y": -2.6169208806,
				"z": -2.1825390457,
				"element": "C" 
			},
			{
				"x": -0.2567008839,
				"y": -1.7345117723,
				"z": -3.2184373262,
				"element": "O" 
			},
			{
				"x": -0.8932099224,
				"y": -3.5944208087,
				"z": -2.1282202713,
				"element": "O" 
			},
			{
				"x": -0.4536653353,
				"y": -0.3058266514,
				"z": -0.0501072378,
				"element": "C" 
			},
			{
				"x": -1.4461237478,
				"y": -1.201703515,
				"z": 0.3685670785,
				"element": "C" 
			},
			{
				"x": -2.6143605412,
				"y": -0.749513279,
				"z": 0.9875613313,
				"element": "C" 
			},
			{
				"x": -2.7930113214,
				"y": 0.6142555128,
				"z": 1.1945700363,
				"element": "C" 
			},
			{
				"x": -4.3903793037,
				"y": 1.242903469,
				"z": 2.0364119642,
				"element": "Br" 
			},
			{
				"x": -1.8214490046,
				"y": 1.5296897487,
				"z": 0.7917462069,
				"element": "C" 
			},
			{
				"x": -0.6634242381,
				"y": 1.0634119025,
				"z": 0.1741477313,
				"element": "C" 
			},
			{
				"x": 3.9408425544,
				"y": 1.3081573233,
				"z": -3.1177563005,
				"element": "H" 
			},
			{
				"x": 2.3152199952,
				"y": 1.7388287332,
				"z": -3.3826725674,
				"element": "H" 
			},
			{
				"x": 0.7068562578,
				"y": 0.1925637085,
				"z": -2.5290662191,
				"element": "H" 
			},
			{
				"x": 1.6448054571,
				"y": -0.7187234274,
				"z": 0.0890079129,
				"element": "H" 
			},
			{
				"x": 1.860929063,
				"y": -2.4137415783,
				"z": -1.6098068047,
				"element": "H" 
			},
			{
				"x": 0.7714253652,
				"y": -2.9319939032,
				"z": -0.3297041811,
				"element": "H" 
			},
			{
				"x": -0.9601696032,
				"y": -2.06787835,
				"z": -3.8014520529,
				"element": "H" 
			},
			{
				"x": -1.3356522855,
				"y": -2.2688541464,
				"z": 0.2112584877,
				"element": "H" 
			},
			{
				"x": -3.3757146926,
				"y": -1.455074234,
				"z": 1.299995729,
				"element": "H" 
			},
			{
				"x": -1.9684935253,
				"y": 2.5908261733,
				"z": 0.9587827017,
				"element": "H" 
			},
			{
				"x": 0.0930823791,
				"y": 1.7724622308,
				"z": -0.1454468666,
				"element": "H" 
			}
		],
		 "valence_orbital": [ 
			{
				"type": "occ",
				"energy": -0.2802,
				"method": "rhf"
			},
			{
				"type": "occ",
				"energy": -0.26914,
				"method": "rhf"
			},
			{
				"type": "occ",
				"energy": -0.26522,
				"method": "rhf"
			},
			{
				"type": "occ",
				"energy": -0.2597,
				"method": "rhf"
			},
			{
				"type": "occ",
				"energy": -0.23775,
				"method": "rhf"
			},
			{
				"type": "unocc",
				"energy": -0.02095,
				"method": "rhf"
			},
			{
				"type": "unocc",
				"energy": -0.01757,
				"method": "rhf"
			},
			{
				"type": "unocc",
				"energy": -0.00038,
				"method": "rhf"
			},
			{
				"type": "unocc",
				"energy": 0.00752,
				"method": "rhf"
			},
			{
				"type": "unocc",
				"energy": 0.04463,
				"method": "rhf"
			}
		],
		"cosmo_sigma_profile": { 
			"-0.025": 0.0,
			"-0.024": 0.0,
			"-0.023": 0.0,
			"-0.022": 0.0,
			"-0.021": 0.0,
			"-0.02": 0.0,
			"-0.019": 0.00582115016016,
			"-0.018": 0.892519560642,
			"-0.017": 0.811565774539,
			"-0.016": 0.725059458782,
			"-0.015": 1.00477864182,
			"-0.014": 1.70660614832,
			"-0.013": 4.38595138108,
			"-0.012": 3.28513360837,
			"-0.011": 2.98620256542,
			"-0.01": 3.32903910172,
			"-0.009": 3.68550813593,
			"-0.008": 2.76198213423,
			"-0.007": 8.09695605572,
			"-0.006": 13.4532303259,
			"-0.005": 15.2541532626,
			"-0.004": 15.0844649316,
			"-0.003": 15.2607222337,
			"-0.002": 14.3821828032,
			"-0.001": 15.53754725,
			"0.0": 16.2850936355,
			"0.001": 18.7544373157,
			"0.002": 22.1321619155,
			"0.003": 21.1822536967,
			"0.004": 22.3093992752,
			"0.005": 11.4320636605,
			"0.006": 3.08413170367,
			"0.007": 3.5778996487,
			"0.008": 3.57092514011,
			"0.009": 2.79623075115,
			"0.01": 3.4814489225,
			"0.011": 6.44644692751,
			"0.012": 4.85401446689,
			"0.013": 2.64789510894,
			"0.014": 5.25219734763,
			"0.015": 1.11237597325,
			"0.016": 0.0,
			"0.017": 0.0,
			"0.018": 0.0,
			"0.019": 0.0,
			"0.02": 0.0,
			"0.021": 0.0,
			"0.022": 0.0,
			"0.023": 0.0,
			"0.024": 0.0,
			"0.025": 0.0
		}
	}
}
