{
	 "smiles": "O=C1C(=O)C2=CC=CC=C12", 
	 "Tm": 404.15, 
	 "num_atms": 14, 
	 "gaussian": { 
		 "optdone": 1, 
		 "sigma_profile": "yes", 
		 "theory": "DFT", 
		 "functional": "B3LYP", 
		 "basiset": "6-31G**", 
		 "properties": { 
			 "R2extent": 1600.3869, 
			 "electric_dipole_moment_norm": 5.87145213044, 
			 "electric_quadrupole_moment_norm": 8.68229173778, 
			 "total_energy": -457.653636316, 
			 "HOMO_LUMO_gap": 0.14471, 
			 "cosmo_polarized_energy": -11.28, 
			 "cosmo_cavitation_energy": 19.8, 
			 "cosmo_dispersion_energy": -14.45, 
			 "cosmo_repulsion_energy": 1.18, 
			 "cosmo_total_nonelectrostatic_energy": 6.52, 
			 "SMD_solvation_energy": 4.9 
		},
		"coords": [
			{
				"x": -1.2225145805,
				"y": -0.2631252283,
				"z": -2.8182891219,
				"element": "O" 
			},
			{
				"x": -0.7635590476,
				"y": -0.7984879861,
				"z": -1.8467648814,
				"element": "C" 
			},
			{
				"x": -0.4887859536,
				"y": -2.2965251448,
				"z": -1.3641437333,
				"element": "C" 
			},
			{
				"x": -0.6464803142,
				"y": -3.4008692052,
				"z": -1.8076197369,
				"element": "O" 
			},
			{
				"x": 0.0595130051,
				"y": -1.685147091,
				"z": -0.0976583489,
				"element": "C" 
			},
			{
				"x": 0.6299216825,
				"y": -1.9729369658,
				"z": 1.1415098459,
				"element": "C" 
			},
			{
				"x": 0.947020334,
				"y": -0.8709427642,
				"z": 1.9375834683,
				"element": "C" 
			},
			{
				"x": 0.7036107947,
				"y": 0.453840921,
				"z": 1.5109752599,
				"element": "C" 
			},
			{
				"x": 0.1321988618,
				"y": 0.7363014695,
				"z": 0.2690542718,
				"element": "C" 
			},
			{
				"x": -0.1824145224,
				"y": -0.3678482376,
				"z": -0.5219091122,
				"element": "C" 
			},
			{
				"x": 0.8196243509,
				"y": -2.9878186326,
				"z": 1.4757083114,
				"element": "H" 
			},
			{
				"x": 1.3942713299,
				"y": -1.0276094213,
				"z": 2.9151518284,
				"element": "H" 
			},
			{
				"x": 0.9720414582,
				"y": 1.2706552683,
				"z": 2.1750368318,
				"element": "H" 
			},
			{
				"x": -0.0518473988,
				"y": 1.7564130181,
				"z": -0.0521348829,
				"element": "H" 
			}
		],
		 "valence_orbital": [ 
			{
				"type": "occ",
				"energy": -0.37145,
				"method": "rhf"
			},
			{
				"type": "occ",
				"energy": -0.31883,
				"method": "rhf"
			},
			{
				"type": "occ",
				"energy": -0.29105,
				"method": "rhf"
			},
			{
				"type": "occ",
				"energy": -0.28861,
				"method": "rhf"
			},
			{
				"type": "occ",
				"energy": -0.2385,
				"method": "rhf"
			},
			{
				"type": "unocc",
				"energy": -0.09379,
				"method": "rhf"
			},
			{
				"type": "unocc",
				"energy": -0.06473,
				"method": "rhf"
			},
			{
				"type": "unocc",
				"energy": 0.00319,
				"method": "rhf"
			},
			{
				"type": "unocc",
				"energy": 0.05283,
				"method": "rhf"
			},
			{
				"type": "unocc",
				"energy": 0.07585,
				"method": "rhf"
			}
		],
		"cosmo_sigma_profile": { 
			"-0.025": 0.0,
			"-0.024": 0.0,
			"-0.023": 0.0,
			"-0.022": 0.0,
			"-0.021": 0.0,
			"-0.02": 0.0,
			"-0.019": 0.0,
			"-0.018": 0.0,
			"-0.017": 0.0,
			"-0.016": 0.0,
			"-0.015": 0.0,
			"-0.014": 0.0,
			"-0.013": 0.0,
			"-0.012": 0.0,
			"-0.011": 0.0,
			"-0.01": 0.0,
			"-0.009": 0.604558749487,
			"-0.008": 7.80312921062,
			"-0.007": 11.0256180987,
			"-0.006": 12.5458807515,
			"-0.005": 8.55534790576,
			"-0.004": 9.91396901473,
			"-0.003": 9.6904697163,
			"-0.002": 12.5515709853,
			"-0.001": 12.4752464471,
			"0.0": 13.8470637402,
			"0.001": 15.0692428855,
			"0.002": 3.93950542593,
			"0.003": 1.77450048731,
			"0.004": 3.11904515074,
			"0.005": 3.806207674,
			"0.006": 3.24063805968,
			"0.007": 3.7734045807,
			"0.008": 4.9249030725,
			"0.009": 6.29418847954,
			"0.01": 10.8250600123,
			"0.011": 5.11726881398,
			"0.012": 0.143940762111,
			"0.013": 0.0,
			"0.014": 0.0,
			"0.015": 0.0,
			"0.016": 0.0,
			"0.017": 0.0,
			"0.018": 0.0,
			"0.019": 0.0,
			"0.02": 0.0,
			"0.021": 0.0,
			"0.022": 0.0,
			"0.023": 0.0,
			"0.024": 0.0,
			"0.025": 0.0
		}
	}
}
