{
	 "smiles": "CC1=CC=NC(N)=C1", 
	 "Tm": 372.65, 
	 "num_atms": 16, 
	 "gaussian": { 
		 "optdone": 1, 
		 "sigma_profile": "yes", 
		 "theory": "DFT", 
		 "functional": "B3LYP", 
		 "basiset": "6-31G**", 
		 "properties": { 
			 "R2extent": 1232.8351, 
			 "electric_dipole_moment_norm": 2.17656803248, 
			 "electric_quadrupole_moment_norm": 9.06026839062, 
			 "total_energy": -342.97571813, 
			 "HOMO_LUMO_gap": 0.20232, 
			 "cosmo_polarized_energy": -9.01, 
			 "cosmo_cavitation_energy": 19.48, 
			 "cosmo_dispersion_energy": -14.71, 
			 "cosmo_repulsion_energy": 1.23, 
			 "cosmo_total_nonelectrostatic_energy": 6.01, 
			 "SMD_solvation_energy": 2.12 
		},
		"coords": [
			{
				"x": -0.9272195684,
				"y": 2.2645396987,
				"z": 2.0901562005,
				"element": "C" 
			},
			{
				"x": -0.521575916,
				"y": 1.4710331269,
				"z": 0.8727520652,
				"element": "C" 
			},
			{
				"x": 0.2311364078,
				"y": 0.2896588645,
				"z": 0.9983343463,
				"element": "C" 
			},
			{
				"x": 0.5772929793,
				"y": -0.4016291475,
				"z": -0.1555219382,
				"element": "C" 
			},
			{
				"x": 0.2454063998,
				"y": -0.018869935,
				"z": -1.3962822795,
				"element": "N" 
			},
			{
				"x": -0.478189263,
				"y": 1.1031799477,
				"z": -1.5170102371,
				"element": "C" 
			},
			{
				"x": -0.8576831071,
				"y": 1.4489426932,
				"z": -2.802956963,
				"element": "N" 
			},
			{
				"x": -0.8801877738,
				"y": 1.8765179138,
				"z": -0.4074310383,
				"element": "C" 
			},
			{
				"x": -1.4937341036,
				"y": 3.1593536132,
				"z": 1.8188198434,
				"element": "H" 
			},
			{
				"x": -0.0486018897,
				"y": 2.5799049463,
				"z": 2.6641594865,
				"element": "H" 
			},
			{
				"x": -1.5486399637,
				"y": 1.6612513025,
				"z": 2.7616481149,
				"element": "H" 
			},
			{
				"x": 0.5397890791,
				"y": -0.0757678166,
				"z": 1.9730158577,
				"element": "H" 
			},
			{
				"x": 1.1624780137,
				"y": -1.3179125149,
				"z": -0.0882043751,
				"element": "H" 
			},
			{
				"x": -1.0311181362,
				"y": 2.4263615662,
				"z": -2.9841594927,
				"element": "H" 
			},
			{
				"x": -0.329604089,
				"y": 0.9735019616,
				"z": -3.521551381,
				"element": "H" 
			},
			{
				"x": -1.471149069,
				"y": 2.7766337794,
				"z": -0.5566682096,
				"element": "H" 
			}
		],
		 "valence_orbital": [ 
			{
				"type": "occ",
				"energy": -0.3538,
				"method": "rhf"
			},
			{
				"type": "occ",
				"energy": -0.30578,
				"method": "rhf"
			},
			{
				"type": "occ",
				"energy": -0.26198,
				"method": "rhf"
			},
			{
				"type": "occ",
				"energy": -0.24827,
				"method": "rhf"
			},
			{
				"type": "occ",
				"energy": -0.20752,
				"method": "rhf"
			},
			{
				"type": "unocc",
				"energy": -0.0052,
				"method": "rhf"
			},
			{
				"type": "unocc",
				"energy": 0.0147,
				"method": "rhf"
			},
			{
				"type": "unocc",
				"energy": 0.09009,
				"method": "rhf"
			},
			{
				"type": "unocc",
				"energy": 0.10909,
				"method": "rhf"
			},
			{
				"type": "unocc",
				"energy": 0.1306,
				"method": "rhf"
			}
		],
		"cosmo_sigma_profile": { 
			"-0.025": 0.0,
			"-0.024": 0.0,
			"-0.023": 0.0,
			"-0.022": 0.0,
			"-0.021": 0.0,
			"-0.02": 0.0,
			"-0.019": 0.0,
			"-0.018": 0.0,
			"-0.017": 0.0,
			"-0.016": 0.0,
			"-0.015": 0.0,
			"-0.014": 0.0287345575933,
			"-0.013": 0.850308651239,
			"-0.012": 1.87583025883,
			"-0.011": 2.8300499316,
			"-0.01": 1.88783038419,
			"-0.009": 2.32503498519,
			"-0.008": 2.74574050995,
			"-0.007": 2.56958391596,
			"-0.006": 3.64471495373,
			"-0.005": 9.31157971967,
			"-0.004": 12.6671001958,
			"-0.003": 13.3361034355,
			"-0.002": 12.1234615483,
			"-0.001": 12.3083644093,
			"0.0": 11.3198897602,
			"0.001": 7.8613793514,
			"0.002": 7.77688570917,
			"0.003": 6.10827734664,
			"0.004": 12.8955003527,
			"0.005": 9.7748446844,
			"0.006": 2.88038345617,
			"0.007": 2.57667550681,
			"0.008": 2.42375316961,
			"0.009": 2.10462301463,
			"0.01": 2.29092966514,
			"0.011": 2.19882687421,
			"0.012": 1.11639996509,
			"0.013": 1.15143407486,
			"0.014": 1.38258827606,
			"0.015": 0.664249519547,
			"0.016": 0.833022626694,
			"0.017": 0.227979769834,
			"0.018": 0.0,
			"0.019": 0.0,
			"0.02": 0.0,
			"0.021": 0.0,
			"0.022": 0.0,
			"0.023": 0.0,
			"0.024": 0.0,
			"0.025": 0.0
		}
	}
}
