{
	 "smiles": "CN1C(CSCC(F)(F)F)NC2=CC(Cl)=C(C=C2S1(=O)=O)S(N)(=O)=O", 
	 "Tm": 487.15, 
	 "num_atms": 38, 
	 "gaussian": { 
		 "optdone": 1, 
		 "sigma_profile": "yes", 
		 "theory": "DFT", 
		 "functional": "B3LYP", 
		 "basiset": "6-31G**", 
		 "properties": { 
			 "R2extent": 17997.7647, 
			 "electric_dipole_moment_norm": 8.65699650976, 
			 "electric_quadrupole_moment_norm": 56.2643927561, 
			 "total_energy": -2846.279229, 
			 "HOMO_LUMO_gap": 0.18398, 
			 "cosmo_polarized_energy": -33.59, 
			 "cosmo_cavitation_energy": 47.88, 
			 "cosmo_dispersion_energy": -34.6, 
			 "cosmo_repulsion_energy": 2.42, 
			 "cosmo_total_nonelectrostatic_energy": 15.69, 
			 "SMD_solvation_energy": 5.11 
		},
		"coords": [
			{
				"x": -0.948881376,
				"y": 2.4646840367,
				"z": 2.6011743242,
				"element": "C" 
			},
			{
				"x": 0.015415459,
				"y": 1.4640254804,
				"z": 2.1022759178,
				"element": "N" 
			},
			{
				"x": -0.3698740748,
				"y": 0.7688164816,
				"z": 0.85769828,
				"element": "C" 
			},
			{
				"x": -0.7802259083,
				"y": 1.7925851236,
				"z": -0.2165432465,
				"element": "C" 
			},
			{
				"x": -1.0837347909,
				"y": 1.0620282081,
				"z": -1.8750211908,
				"element": "S" 
			},
			{
				"x": -2.7135251294,
				"y": 0.2609668037,
				"z": -1.6539281486,
				"element": "C" 
			},
			{
				"x": -3.8993021937,
				"y": 1.2089244068,
				"z": -1.7289832129,
				"element": "C" 
			},
			{
				"x": -5.0471836107,
				"y": 0.5108127686,
				"z": -1.6105772248,
				"element": "F" 
			},
			{
				"x": -3.9405050478,
				"y": 1.8802080575,
				"z": -2.8903710642,
				"element": "F" 
			},
			{
				"x": -3.8771038401,
				"y": 2.1216129724,
				"z": -0.7274222554,
				"element": "F" 
			},
			{
				"x": 0.7731550607,
				"y": 0.0063828718,
				"z": 0.3689785741,
				"element": "N" 
			},
			{
				"x": 1.7713795264,
				"y": -0.5346348431,
				"z": 1.1260626514,
				"element": "C" 
			},
			{
				"x": 2.8470305343,
				"y": -1.2127342814,
				"z": 0.5142741548,
				"element": "C" 
			},
			{
				"x": 3.8858323127,
				"y": -1.7202689207,
				"z": 1.2792571135,
				"element": "C" 
			},
			{
				"x": 5.15838149,
				"y": -2.5711570018,
				"z": 0.4225618538,
				"element": "Cl" 
			},
			{
				"x": 3.9141181504,
				"y": -1.5738784168,
				"z": 2.6789740113,
				"element": "C" 
			},
			{
				"x": 2.8508640683,
				"y": -0.9088908249,
				"z": 3.2903926272,
				"element": "C" 
			},
			{
				"x": 1.7960447016,
				"y": -0.4197473692,
				"z": 2.5321156025,
				"element": "C" 
			},
			{
				"x": 0.3938737794,
				"y": 0.3074109811,
				"z": 3.3306505414,
				"element": "S" 
			},
			{
				"x": 0.8079804414,
				"y": 1.0431949191,
				"z": 4.5241436608,
				"element": "O" 
			},
			{
				"x": -0.6870546536,
				"y": -0.6865934941,
				"z": 3.4211129207,
				"element": "O" 
			},
			{
				"x": 5.2666353854,
				"y": -2.1161188392,
				"z": 3.7468840557,
				"element": "S" 
			},
			{
				"x": 5.3808045788,
				"y": -3.7777748144,
				"z": 3.5941685882,
				"element": "N" 
			},
			{
				"x": 4.8107720347,
				"y": -1.8719947563,
				"z": 5.1135895643,
				"element": "O" 
			},
			{
				"x": 6.51089778,
				"y": -1.5640559583,
				"z": 3.2241255282,
				"element": "O" 
			},
			{
				"x": -1.9816921227,
				"y": 2.0911387,
				"z": 2.6271376675,
				"element": "H" 
			},
			{
				"x": -0.6465634853,
				"y": 2.7431658075,
				"z": 3.6110448659,
				"element": "H" 
			},
			{
				"x": -0.8955280082,
				"y": 3.3568050624,
				"z": 1.9753426498,
				"element": "H" 
			},
			{
				"x": -1.2207266481,
				"y": 0.093895798,
				"z": 1.0604718388,
				"element": "H" 
			},
			{
				"x": 0.0357805709,
				"y": 2.505101467,
				"z": -0.3659279039,
				"element": "H" 
			},
			{
				"x": -1.6742740407,
				"y": 2.3358934691,
				"z": 0.0830670931,
				"element": "H" 
			},
			{
				"x": -2.7651762551,
				"y": -0.2883597383,
				"z": -0.7114685148,
				"element": "H" 
			},
			{
				"x": -2.8097658139,
				"y": -0.4592068068,
				"z": -2.4695592468,
				"element": "H" 
			},
			{
				"x": 0.7408266677,
				"y": -0.2199382986,
				"z": -0.6162950949,
				"element": "H" 
			},
			{
				"x": 2.8693277739,
				"y": -1.3305536227,
				"z": -0.5637448961,
				"element": "H" 
			},
			{
				"x": 2.8596287998,
				"y": -0.7747111289,
				"z": 4.3669089189,
				"element": "H" 
			},
			{
				"x": 5.6643994039,
				"y": -4.0766677052,
				"z": 2.6665677478,
				"element": "H" 
			},
			{
				"x": 4.56686848,
				"y": -4.2652665948,
				"z": 3.9543612479,
				"element": "H" 
			}
		],
		 "valence_orbital": [ 
			{
				"type": "occ",
				"energy": -0.30334,
				"method": "rhf"
			},
			{
				"type": "occ",
				"energy": -0.28556,
				"method": "rhf"
			},
			{
				"type": "occ",
				"energy": -0.27925,
				"method": "rhf"
			},
			{
				"type": "occ",
				"energy": -0.27863,
				"method": "rhf"
			},
			{
				"type": "occ",
				"energy": -0.24163,
				"method": "rhf"
			},
			{
				"type": "unocc",
				"energy": -0.05765,
				"method": "rhf"
			},
			{
				"type": "unocc",
				"energy": -0.04347,
				"method": "rhf"
			},
			{
				"type": "unocc",
				"energy": -0.01024,
				"method": "rhf"
			},
			{
				"type": "unocc",
				"energy": -0.00406,
				"method": "rhf"
			},
			{
				"type": "unocc",
				"energy": 0.01468,
				"method": "rhf"
			}
		],
		"cosmo_sigma_profile": { 
			"-0.025": 0.0,
			"-0.024": 0.0,
			"-0.023": 0.0,
			"-0.022": 0.0,
			"-0.021": 0.0,
			"-0.02": 0.0,
			"-0.019": 0.0,
			"-0.018": 0.0,
			"-0.017": 0.0,
			"-0.016": 0.525321514378,
			"-0.015": 1.78151059711,
			"-0.014": 2.11470329947,
			"-0.013": 3.28828685728,
			"-0.012": 3.43862054136,
			"-0.011": 4.15316535608,
			"-0.01": 6.84072282643,
			"-0.009": 10.0970309481,
			"-0.008": 11.807402715,
			"-0.007": 16.4711982561,
			"-0.006": 18.4538575559,
			"-0.005": 16.462480555,
			"-0.004": 18.928553902,
			"-0.003": 20.773602617,
			"-0.002": 18.0718101403,
			"-0.001": 24.5223507858,
			"0.0": 27.1367947207,
			"0.001": 19.3054583244,
			"0.002": 29.9050079612,
			"0.003": 35.6030313205,
			"0.004": 12.0139913017,
			"0.005": 9.30866298199,
			"0.006": 9.00407410331,
			"0.007": 9.18806371486,
			"0.008": 9.12682012908,
			"0.009": 11.1762579242,
			"0.01": 19.1490791939,
			"0.011": 14.9410102397,
			"0.012": 1.66948582726,
			"0.013": 0.0,
			"0.014": 0.0,
			"0.015": 0.0,
			"0.016": 0.0,
			"0.017": 0.0,
			"0.018": 0.0,
			"0.019": 0.0,
			"0.02": 0.0,
			"0.021": 0.0,
			"0.022": 0.0,
			"0.023": 0.0,
			"0.024": 0.0,
			"0.025": 0.0
		}
	}
}
