{
	 "smiles": "NC(=O)CC(NS(=O)(=O)C1=CC(F)=CC=C1)C(O)=O", 
	 "Tm": 447.15, 
	 "num_atms": 30, 
	 "gaussian": { 
		 "optdone": 1, 
		 "sigma_profile": "yes", 
		 "theory": "DFT", 
		 "functional": "B3LYP", 
		 "basiset": "6-31G**", 
		 "properties": { 
			 "R2extent": 6967.5958, 
			 "electric_dipole_moment_norm": 6.62087598207, 
			 "electric_quadrupole_moment_norm": 24.8160506284, 
			 "total_energy": -1371.30451662, 
			 "HOMO_LUMO_gap": 0.2142, 
			 "cosmo_polarized_energy": -25.14, 
			 "cosmo_cavitation_energy": 36.71, 
			 "cosmo_dispersion_energy": -26.07, 
			 "cosmo_repulsion_energy": 1.94, 
			 "cosmo_total_nonelectrostatic_energy": 12.58, 
			 "SMD_solvation_energy": 7.27 
		},
		"coords": [
			{
				"x": -4.2737819323,
				"y": -0.6189439042,
				"z": -2.1445939662,
				"element": "N" 
			},
			{
				"x": -3.0023778655,
				"y": -0.3689824697,
				"z": -2.5181800762,
				"element": "C" 
			},
			{
				"x": -2.7463977637,
				"y": 0.2412645804,
				"z": -3.5669912364,
				"element": "O" 
			},
			{
				"x": -1.9079953739,
				"y": -0.8850415317,
				"z": -1.6012847624,
				"element": "C" 
			},
			{
				"x": -0.8205378005,
				"y": 0.1814098052,
				"z": -1.3139242414,
				"element": "C" 
			},
			{
				"x": -0.1133193693,
				"y": -0.1529231323,
				"z": -0.0680286744,
				"element": "N" 
			},
			{
				"x": -0.7632041347,
				"y": 0.5360798119,
				"z": 1.3321539182,
				"element": "S" 
			},
			{
				"x": -0.53289925,
				"y": 1.98529457,
				"z": 1.3986675188,
				"element": "O" 
			},
			{
				"x": -2.1399394913,
				"y": 0.0256726846,
				"z": 1.4243996435,
				"element": "O" 
			},
			{
				"x": 0.2650824822,
				"y": -0.2492329061,
				"z": 2.5738637727,
				"element": "C" 
			},
			{
				"x": 1.1714007355,
				"y": 0.5434502389,
				"z": 3.2768526997,
				"element": "C" 
			},
			{
				"x": 1.9452656621,
				"y": -0.0781750288,
				"z": 4.2509594063,
				"element": "C" 
			},
			{
				"x": 2.829005872,
				"y": 0.660547845,
				"z": 4.9454050601,
				"element": "F" 
			},
			{
				"x": 1.8331902706,
				"y": -1.4360304009,
				"z": 4.5305708071,
				"element": "C" 
			},
			{
				"x": 0.9112207363,
				"y": -2.2014648515,
				"z": 3.8127545844,
				"element": "C" 
			},
			{
				"x": 0.1158412929,
				"y": -1.6144412956,
				"z": 2.8293859578,
				"element": "C" 
			},
			{
				"x": 0.2702716776,
				"y": 0.2957675167,
				"z": -2.4111481395,
				"element": "C" 
			},
			{
				"x": -0.1515350496,
				"y": 0.3776198642,
				"z": -3.6597371408,
				"element": "O" 
			},
			{
				"x": 1.4471226811,
				"y": 0.3227587196,
				"z": -2.1079393484,
				"element": "O" 
			},
			{
				"x": -4.4946185453,
				"y": -0.9963704553,
				"z": -1.2368516439,
				"element": "H" 
			},
			{
				"x": -5.0214559853,
				"y": -0.2577890457,
				"z": -2.7198048937,
				"element": "H" 
			},
			{
				"x": -1.4549898409,
				"y": -1.7662037268,
				"z": -2.0709534837,
				"element": "H" 
			},
			{
				"x": -2.3218028944,
				"y": -1.1961799104,
				"z": -0.6414039795,
				"element": "H" 
			},
			{
				"x": -1.2971178531,
				"y": 1.1718865347,
				"z": -1.2534585097,
				"element": "H" 
			},
			{
				"x": 0.8750244545,
				"y": 0.0969246573,
				"z": -0.1905799535,
				"element": "H" 
			},
			{
				"x": 1.2644008173,
				"y": 1.6043082018,
				"z": 3.0769605379,
				"element": "H" 
			},
			{
				"x": 2.459999095,
				"y": -1.8733533777,
				"z": 5.3000227853,
				"element": "H" 
			},
			{
				"x": 0.8132866291,
				"y": -3.2611050189,
				"z": 4.0262216928,
				"element": "H" 
			},
			{
				"x": -0.6076947351,
				"y": -2.1973162473,
				"z": 2.2717618425,
				"element": "H" 
			},
			{
				"x": -1.1552445213,
				"y": 0.3673682727,
				"z": -3.7203001776,
				"element": "H" 
			}
		],
		 "valence_orbital": [ 
			{
				"type": "occ",
				"energy": -0.29742,
				"method": "rhf"
			},
			{
				"type": "occ",
				"energy": -0.2915,
				"method": "rhf"
			},
			{
				"type": "occ",
				"energy": -0.27902,
				"method": "rhf"
			},
			{
				"type": "occ",
				"energy": -0.2738,
				"method": "rhf"
			},
			{
				"type": "occ",
				"energy": -0.26681,
				"method": "rhf"
			},
			{
				"type": "unocc",
				"energy": -0.05261,
				"method": "rhf"
			},
			{
				"type": "unocc",
				"energy": -0.02592,
				"method": "rhf"
			},
			{
				"type": "unocc",
				"energy": -0.0146,
				"method": "rhf"
			},
			{
				"type": "unocc",
				"energy": 0.00619,
				"method": "rhf"
			},
			{
				"type": "unocc",
				"energy": 0.04922,
				"method": "rhf"
			}
		],
		"cosmo_sigma_profile": { 
			"-0.025": 0.0,
			"-0.024": 0.0,
			"-0.023": 0.0,
			"-0.022": 0.0,
			"-0.021": 0.0,
			"-0.02": 0.0,
			"-0.019": 0.0,
			"-0.018": 0.0,
			"-0.017": 0.0,
			"-0.016": 0.371384214563,
			"-0.015": 2.68472656577,
			"-0.014": 2.33047717226,
			"-0.013": 2.21505143081,
			"-0.012": 3.60721764382,
			"-0.011": 3.01111080711,
			"-0.01": 3.33935124749,
			"-0.009": 5.73976419769,
			"-0.008": 12.9630257358,
			"-0.007": 14.5135204424,
			"-0.006": 13.9818976472,
			"-0.005": 12.7002037082,
			"-0.004": 13.2303605247,
			"-0.003": 14.3718532753,
			"-0.002": 13.7614126225,
			"-0.001": 19.5818810807,
			"0.0": 22.7679942173,
			"0.001": 19.8129317038,
			"0.002": 17.1435246674,
			"0.003": 13.9414475222,
			"0.004": 13.6333330217,
			"0.005": 4.53160149921,
			"0.006": 5.78925004884,
			"0.007": 8.21974213804,
			"0.008": 7.29311977358,
			"0.009": 7.77698606059,
			"0.01": 12.872679846,
			"0.011": 13.7688423232,
			"0.012": 5.72513825415,
			"0.013": 1.23728319966,
			"0.014": 0.0,
			"0.015": 0.0,
			"0.016": 0.0,
			"0.017": 0.0,
			"0.018": 0.0,
			"0.019": 0.0,
			"0.02": 0.0,
			"0.021": 0.0,
			"0.022": 0.0,
			"0.023": 0.0,
			"0.024": 0.0,
			"0.025": 0.0
		}
	}
}
