{
	 "smiles": "OC1CCN(CC1)C1=NN=C(Cl)C=C1", 
	 "Tm": 383.15, 
	 "num_atms": 26, 
	 "gaussian": { 
		 "optdone": 1, 
		 "sigma_profile": "yes", 
		 "theory": "DFT", 
		 "functional": "B3LYP", 
		 "basiset": "6-31G**", 
		 "properties": { 
			 "R2extent": 5512.4941, 
			 "electric_dipole_moment_norm": 5.0898029284, 
			 "electric_quadrupole_moment_norm": 23.755262317, 
			 "total_energy": -1049.81044443, 
			 "HOMO_LUMO_gap": 0.16359, 
			 "cosmo_polarized_energy": -16.09, 
			 "cosmo_cavitation_energy": 30.13, 
			 "cosmo_dispersion_energy": -22.63, 
			 "cosmo_repulsion_energy": 1.78, 
			 "cosmo_total_nonelectrostatic_energy": 9.29, 
			 "SMD_solvation_energy": 2.09 
		},
		"coords": [
			{
				"x": 4.19636431,
				"y": -0.7244024865,
				"z": -1.5985565632,
				"element": "O" 
			},
			{
				"x": 3.0796007152,
				"y": -0.0958391444,
				"z": -0.9830512708,
				"element": "C" 
			},
			{
				"x": 2.0990972457,
				"y": -1.1067027215,
				"z": -0.3770717846,
				"element": "C" 
			},
			{
				"x": 1.025040225,
				"y": -0.3866904375,
				"z": 0.4484347399,
				"element": "C" 
			},
			{
				"x": 0.4937942846,
				"y": 0.7699811235,
				"z": -0.2759305885,
				"element": "N" 
			},
			{
				"x": 0.809768055,
				"y": 0.873625243,
				"z": -1.7042029007,
				"element": "C" 
			},
			{
				"x": 2.3313872508,
				"y": 0.8702254776,
				"z": -1.9368522484,
				"element": "C" 
			},
			{
				"x": -0.434439244,
				"y": 1.5904905104,
				"z": 0.3131713409,
				"element": "C" 
			},
			{
				"x": -0.9450078135,
				"y": 2.5861663994,
				"z": -0.4442418842,
				"element": "N" 
			},
			{
				"x": -1.827385928,
				"y": 3.4409312752,
				"z": 0.0638992202,
				"element": "N" 
			},
			{
				"x": -2.2179796838,
				"y": 3.314422521,
				"z": 1.3170042141,
				"element": "C" 
			},
			{
				"x": -3.3852988265,
				"y": 4.4882613142,
				"z": 1.9026036192,
				"element": "Cl" 
			},
			{
				"x": -1.7588338851,
				"y": 2.3049960572,
				"z": 2.1759515237,
				"element": "C" 
			},
			{
				"x": -0.8439370842,
				"y": 1.4149388603,
				"z": 1.6638984159,
				"element": "C" 
			},
			{
				"x": 3.87162453,
				"y": -1.2240729771,
				"z": -2.360124071,
				"element": "H" 
			},
			{
				"x": 3.5172982478,
				"y": 0.4806918978,
				"z": -0.1594404921,
				"element": "H" 
			},
			{
				"x": 1.6360538471,
				"y": -1.6996938181,
				"z": -1.1772084482,
				"element": "H" 
			},
			{
				"x": 2.6389087368,
				"y": -1.8067511121,
				"z": 0.2672125074,
				"element": "H" 
			},
			{
				"x": 1.4782907536,
				"y": -0.0437077149,
				"z": 1.3893398814,
				"element": "H" 
			},
			{
				"x": 0.2203681231,
				"y": -1.0888692068,
				"z": 0.7173608085,
				"element": "H" 
			},
			{
				"x": 0.3528706313,
				"y": 1.7881409257,
				"z": -2.0764005143,
				"element": "H" 
			},
			{
				"x": 0.3405563188,
				"y": 0.0364006786,
				"z": -2.2413893294,
				"element": "H" 
			},
			{
				"x": 2.5234501364,
				"y": 0.5645132731,
				"z": -2.9733830369,
				"element": "H" 
			},
			{
				"x": 2.7351194517,
				"y": 1.8818265003,
				"z": -1.8312694255,
				"element": "H" 
			},
			{
				"x": -2.1179032711,
				"y": 2.2339632477,
				"z": 3.1963742787,
				"element": "H" 
			},
			{
				"x": -0.4593071268,
				"y": 0.610054314,
				"z": 2.2773720078,
				"element": "H" 
			}
		],
		 "valence_orbital": [ 
			{
				"type": "occ",
				"energy": -0.31058,
				"method": "rhf"
			},
			{
				"type": "occ",
				"energy": -0.29208,
				"method": "rhf"
			},
			{
				"type": "occ",
				"energy": -0.27335,
				"method": "rhf"
			},
			{
				"type": "occ",
				"energy": -0.23393,
				"method": "rhf"
			},
			{
				"type": "occ",
				"energy": -0.21523,
				"method": "rhf"
			},
			{
				"type": "unocc",
				"energy": -0.05164,
				"method": "rhf"
			},
			{
				"type": "unocc",
				"energy": -0.01053,
				"method": "rhf"
			},
			{
				"type": "unocc",
				"energy": 0.03509,
				"method": "rhf"
			},
			{
				"type": "unocc",
				"energy": 0.06373,
				"method": "rhf"
			},
			{
				"type": "unocc",
				"energy": 0.07546,
				"method": "rhf"
			}
		],
		"cosmo_sigma_profile": { 
			"-0.025": 0.0,
			"-0.024": 0.0,
			"-0.023": 0.0,
			"-0.022": 0.0,
			"-0.021": 0.0,
			"-0.02": 0.0,
			"-0.019": 0.0,
			"-0.018": 0.0,
			"-0.017": 0.0,
			"-0.016": 0.0,
			"-0.015": 0.527325750814,
			"-0.014": 1.03567900918,
			"-0.013": 1.05721797011,
			"-0.012": 0.872933438458,
			"-0.011": 1.16730094457,
			"-0.01": 1.07103523129,
			"-0.009": 3.2153698594,
			"-0.008": 4.56846980442,
			"-0.007": 6.03155826753,
			"-0.006": 6.06247694212,
			"-0.005": 13.4179948129,
			"-0.004": 23.3552412148,
			"-0.003": 23.9072484163,
			"-0.002": 23.7834195673,
			"-0.001": 23.4554620924,
			"0.0": 18.877633981,
			"0.001": 13.6622650162,
			"0.002": 8.48008262693,
			"0.003": 9.24606242513,
			"0.004": 12.1643069354,
			"0.005": 8.00410534028,
			"0.006": 4.83115686405,
			"0.007": 3.528466023,
			"0.008": 3.4079134444,
			"0.009": 3.20662516911,
			"0.01": 3.47342493243,
			"0.011": 3.28674006857,
			"0.012": 3.67381940899,
			"0.013": 4.42342411131,
			"0.014": 4.04572340096,
			"0.015": 1.73413311395,
			"0.016": 0.0216037155192,
			"0.017": 0.0,
			"0.018": 0.0,
			"0.019": 0.0,
			"0.02": 0.0,
			"0.021": 0.0,
			"0.022": 0.0,
			"0.023": 0.0,
			"0.024": 0.0,
			"0.025": 0.0
		}
	}
}
