{
	 "smiles": "C[C@]12CCC3C(CCC4=CC(=O)C=C[C@]34O)C1CCC2=O", 
	 "Tm": 493.15, 
	 "num_atms": 43, 
	 "gaussian": { 
		 "optdone": 1, 
		 "sigma_profile": "yes", 
		 "theory": "DFT", 
		 "functional": "B3LYP", 
		 "basiset": "6-31G**", 
		 "properties": { 
			 "R2extent": 6524.1887, 
			 "electric_dipole_moment_norm": 2.35124786018, 
			 "electric_quadrupole_moment_norm": 42.5043940269, 
			 "total_energy": -924.819713791, 
			 "HOMO_LUMO_gap": 0.16579, 
			 "cosmo_polarized_energy": -17.56, 
			 "cosmo_cavitation_energy": 39.98, 
			 "cosmo_dispersion_energy": -28.25, 
			 "cosmo_repulsion_energy": 2.1, 
			 "cosmo_total_nonelectrostatic_energy": 13.82, 
			 "SMD_solvation_energy": 7.03 
		},
		"coords": [
			{
				"x": 3.2548640963,
				"y": -0.0661459033,
				"z": -1.9772738397,
				"element": "C" 
			},
			{
				"x": 2.2664719317,
				"y": 0.7832633483,
				"z": -1.1521822628,
				"element": "C" 
			},
			{
				"x": 1.9332629526,
				"y": 0.0575181371,
				"z": 0.1713992232,
				"element": "C" 
			},
			{
				"x": 0.6490200352,
				"y": 0.5812236382,
				"z": 0.8213344746,
				"element": "C" 
			},
			{
				"x": -0.6127730321,
				"y": 0.4156696619,
				"z": -0.0726171748,
				"element": "C" 
			},
			{
				"x": -0.2916884373,
				"y": 0.4039174704,
				"z": -1.6086981028,
				"element": "C" 
			},
			{
				"x": -0.2900823228,
				"y": -1.0228018956,
				"z": -2.1887915585,
				"element": "C" 
			},
			{
				"x": -1.6829068849,
				"y": -1.6699082311,
				"z": -2.0375037448,
				"element": "C" 
			},
			{
				"x": -2.3928221579,
				"y": -1.2148366944,
				"z": -0.7823157732,
				"element": "C" 
			},
			{
				"x": -3.7321806162,
				"y": -1.1346091657,
				"z": -0.6847993339,
				"element": "C" 
			},
			{
				"x": -4.4235055478,
				"y": -0.7376095243,
				"z": 0.5575341481,
				"element": "C" 
			},
			{
				"x": -5.6471012645,
				"y": -0.6649724265,
				"z": 0.6289790266,
				"element": "O" 
			},
			{
				"x": -3.5577573791,
				"y": -0.4510409049,
				"z": 1.7266904474,
				"element": "C" 
			},
			{
				"x": -2.222390215,
				"y": -0.4971691866,
				"z": 1.6368884214,
				"element": "C" 
			},
			{
				"x": -1.4791584545,
				"y": -0.823818539,
				"z": 0.3643766559,
				"element": "C" 
			},
			{
				"x": -0.5619100527,
				"y": -1.908590325,
				"z": 0.6289003441,
				"element": "O" 
			},
			{
				"x": 0.9881127994,
				"y": 1.193565145,
				"z": -1.9527826424,
				"element": "C" 
			},
			{
				"x": 0.8267802006,
				"y": 2.7290230828,
				"z": -1.7548240221,
				"element": "C" 
			},
			{
				"x": 2.2519662587,
				"y": 3.2617865434,
				"z": -1.5702963348,
				"element": "C" 
			},
			{
				"x": 2.9681148737,
				"y": 2.129158213,
				"z": -0.8430692558,
				"element": "C" 
			},
			{
				"x": 3.9401033165,
				"y": 2.2448323855,
				"z": -0.1273389702,
				"element": "O" 
			},
			{
				"x": 3.5496854358,
				"y": 0.4408049943,
				"z": -2.9031729199,
				"element": "H" 
			},
			{
				"x": 2.8059678006,
				"y": -1.0267776258,
				"z": -2.2490792877,
				"element": "H" 
			},
			{
				"x": 4.1611382988,
				"y": -0.2590647223,
				"z": -1.3950761144,
				"element": "H" 
			},
			{
				"x": 1.8314125306,
				"y": -1.0169254803,
				"z": -0.0084492215,
				"element": "H" 
			},
			{
				"x": 2.7821899046,
				"y": 0.188150497,
				"z": 0.8516480415,
				"element": "H" 
			},
			{
				"x": 0.503641682,
				"y": 0.0720113958,
				"z": 1.7772745013,
				"element": "H" 
			},
			{
				"x": 0.7760058586,
				"y": 1.6443786521,
				"z": 1.0608782793,
				"element": "H" 
			},
			{
				"x": -1.2636415977,
				"y": 1.2773625647,
				"z": 0.1085321999,
				"element": "H" 
			},
			{
				"x": -1.1194682993,
				"y": 0.9296490006,
				"z": -2.1075827721,
				"element": "H" 
			},
			{
				"x": -0.0162536423,
				"y": -0.9900268056,
				"z": -3.2495394775,
				"element": "H" 
			},
			{
				"x": 0.4551456026,
				"y": -1.6391046591,
				"z": -1.6817392071,
				"element": "H" 
			},
			{
				"x": -1.5803666718,
				"y": -2.7627318275,
				"z": -2.019243581,
				"element": "H" 
			},
			{
				"x": -2.3164217459,
				"y": -1.4354887908,
				"z": -2.9004613227,
				"element": "H" 
			},
			{
				"x": -4.378039975,
				"y": -1.3822887334,
				"z": -1.524052293,
				"element": "H" 
			},
			{
				"x": -4.0689893843,
				"y": -0.2065090026,
				"z": 2.6534215947,
				"element": "H" 
			},
			{
				"x": -1.5987398065,
				"y": -0.2941541901,
				"z": 2.5046042883,
				"element": "H" 
			},
			{
				"x": -1.0863874147,
				"y": -2.6543082308,
				"z": 0.9523366813,
				"element": "H" 
			},
			{
				"x": 1.191059675,
				"y": 1.0282903667,
				"z": -3.0197253519,
				"element": "H" 
			},
			{
				"x": 0.2371830463,
				"y": 2.9416292433,
				"z": -0.8556705079,
				"element": "H" 
			},
			{
				"x": 0.2987282456,
				"y": 3.1886228469,
				"z": -2.5956140411,
				"element": "H" 
			},
			{
				"x": 2.7482787786,
				"y": 3.3961591312,
				"z": -2.5423885209,
				"element": "H" 
			},
			{
				"x": 2.3407515786,
				"y": 4.2045665463,
				"z": -1.0253106932,
				"element": "H" 
			}
		],
		 "valence_orbital": [ 
			{
				"type": "occ",
				"energy": -0.28867,
				"method": "rhf"
			},
			{
				"type": "occ",
				"energy": -0.27468,
				"method": "rhf"
			},
			{
				"type": "occ",
				"energy": -0.26247,
				"method": "rhf"
			},
			{
				"type": "occ",
				"energy": -0.2429,
				"method": "rhf"
			},
			{
				"type": "occ",
				"energy": -0.23733,
				"method": "rhf"
			},
			{
				"type": "unocc",
				"energy": -0.07154,
				"method": "rhf"
			},
			{
				"type": "unocc",
				"energy": -0.01932,
				"method": "rhf"
			},
			{
				"type": "unocc",
				"energy": -0.00312,
				"method": "rhf"
			},
			{
				"type": "unocc",
				"energy": 0.05659,
				"method": "rhf"
			},
			{
				"type": "unocc",
				"energy": 0.07959,
				"method": "rhf"
			}
		],
		"cosmo_sigma_profile": { 
			"-0.025": 0.0,
			"-0.024": 0.0,
			"-0.023": 0.0,
			"-0.022": 0.0,
			"-0.021": 0.0,
			"-0.02": 0.0,
			"-0.019": 0.0,
			"-0.018": 0.0,
			"-0.017": 0.0,
			"-0.016": 0.592748356476,
			"-0.015": 1.08951374214,
			"-0.014": 0.520873448665,
			"-0.013": 0.761167504938,
			"-0.012": 1.0754557232,
			"-0.011": 0.816782200107,
			"-0.01": 1.43647185552,
			"-0.009": 0.576875143351,
			"-0.008": 0.545482982208,
			"-0.007": 2.13532938364,
			"-0.006": 8.2016715842,
			"-0.005": 14.5824382453,
			"-0.004": 26.5122340094,
			"-0.003": 38.9567054495,
			"-0.002": 43.4749635227,
			"-0.001": 39.7638330411,
			"0.0": 32.134601626,
			"0.001": 21.9352274697,
			"0.002": 12.0132515711,
			"0.003": 8.03251816908,
			"0.004": 5.07505262173,
			"0.005": 4.68478357986,
			"0.006": 4.31257989684,
			"0.007": 5.63977980565,
			"0.008": 3.65502013085,
			"0.009": 4.64652384206,
			"0.01": 5.02854222501,
			"0.011": 4.63770366692,
			"0.012": 7.49044998661,
			"0.013": 7.21789000093,
			"0.014": 2.75946971683,
			"0.015": 0.223764431369,
			"0.016": 0.0,
			"0.017": 0.0,
			"0.018": 0.0,
			"0.019": 0.0,
			"0.02": 0.0,
			"0.021": 0.0,
			"0.022": 0.0,
			"0.023": 0.0,
			"0.024": 0.0,
			"0.025": 0.0
		}
	}
}
