{
	 "smiles": "BrCC1=C(CBr)C2=C(C=CC=C2)C(CBr)=C1CBr", 
	 "Tm": 470.15, 
	 "num_atms": 30, 
	 "gaussian": { 
		 "optdone": 1, 
		 "sigma_profile": "yes", 
		 "theory": "DFT", 
		 "functional": "B3LYP", 
		 "basiset": "6-31G**", 
		 "properties": { 
			 "R2extent": 13876.0312, 
			 "electric_dipole_moment_norm": 2.79909986067, 
			 "electric_quadrupole_moment_norm": 7.08635274877, 
			 "total_energy": -10826.3676432, 
			 "HOMO_LUMO_gap": 0.14745, 
			 "cosmo_polarized_energy": -10.45, 
			 "cosmo_cavitation_energy": 40.22, 
			 "cosmo_dispersion_energy": -29.34, 
			 "cosmo_repulsion_energy": 2.27, 
			 "cosmo_total_nonelectrostatic_energy": 13.16, 
			 "SMD_solvation_energy": 1.73 
		},
		"coords": [
			{
				"x": 2.8331632337,
				"y": 1.893380212,
				"z": -4.0471165439,
				"element": "Br" 
			},
			{
				"x": 1.7428570619,
				"y": 0.303023716,
				"z": -3.4741991463,
				"element": "C" 
			},
			{
				"x": 1.2233414048,
				"y": 0.4273865695,
				"z": -2.0746449084,
				"element": "C" 
			},
			{
				"x": -0.0304933956,
				"y": 0.9841467565,
				"z": -1.8397201208,
				"element": "C" 
			},
			{
				"x": -0.7646002913,
				"y": 1.6673933379,
				"z": -2.9498704174,
				"element": "C" 
			},
			{
				"x": -2.0514144261,
				"y": 0.4516690467,
				"z": -3.8974105745,
				"element": "Br" 
			},
			{
				"x": -0.5930133053,
				"y": 0.9572807066,
				"z": -0.5219116032,
				"element": "C" 
			},
			{
				"x": 0.1701863845,
				"y": 0.4045857997,
				"z": 0.5580745334,
				"element": "C" 
			},
			{
				"x": -0.3839728709,
				"y": 0.4362547363,
				"z": 1.8680261306,
				"element": "C" 
			},
			{
				"x": -1.6420196735,
				"y": 0.9439550686,
				"z": 2.09965417,
				"element": "C" 
			},
			{
				"x": -2.415848355,
				"y": 1.4370074852,
				"z": 1.0268241156,
				"element": "C" 
			},
			{
				"x": -1.900425831,
				"y": 1.4475457536,
				"z": -0.2492367242,
				"element": "C" 
			},
			{
				"x": 1.4678845255,
				"y": -0.1434078123,
				"z": 0.2945851067,
				"element": "C" 
			},
			{
				"x": 2.2230368829,
				"y": -0.8304571925,
				"z": 1.3881370654,
				"element": "C" 
			},
			{
				"x": 3.3522303633,
				"y": 0.4321187196,
				"z": 2.4664016636,
				"element": "Br" 
			},
			{
				"x": 2.0010586705,
				"y": -0.0880105133,
				"z": -0.9899054013,
				"element": "C" 
			},
			{
				"x": 3.418267304,
				"y": -0.506120211,
				"z": -1.2366910122,
				"element": "C" 
			},
			{
				"x": 3.5853448477,
				"y": -2.449049524,
				"z": -1.7296470591,
				"element": "Br" 
			},
			{
				"x": 2.4113149485,
				"y": -0.5445501985,
				"z": -3.5980547638,
				"element": "H" 
			},
			{
				"x": 0.9484807,
				"y": 0.2344859694,
				"z": -4.211920573,
				"element": "H" 
			},
			{
				"x": -0.1036689841,
				"y": 2.0329865829,
				"z": -3.7300319797,
				"element": "H" 
			},
			{
				"x": -1.3787436776,
				"y": 2.4915923028,
				"z": -2.5991322255,
				"element": "H" 
			},
			{
				"x": 0.2022064766,
				"y": 0.0834402046,
				"z": 2.7079688366,
				"element": "H" 
			},
			{
				"x": -2.0406855546,
				"y": 0.9628920074,
				"z": 3.1093720477,
				"element": "H" 
			},
			{
				"x": -3.4187649636,
				"y": 1.8110540752,
				"z": 1.2086791237,
				"element": "H" 
			},
			{
				"x": -2.5186922957,
				"y": 1.8094640777,
				"z": -1.0618476876,
				"element": "H" 
			},
			{
				"x": 2.919532462,
				"y": -1.5757694216,
				"z": 1.0159303161,
				"element": "H" 
			},
			{
				"x": 1.5684851141,
				"y": -1.2988319798,
				"z": 2.1173010951,
				"element": "H" 
			},
			{
				"x": 3.8722533281,
				"y": 0.0259669783,
				"z": -2.0681426993,
				"element": "H" 
			},
			{
				"x": 4.0484999162,
				"y": -0.3901332535,
				"z": -0.3595707643,
				"element": "H" 
			}
		],
		 "valence_orbital": [ 
			{
				"type": "occ",
				"energy": -0.2807,
				"method": "rhf"
			},
			{
				"type": "occ",
				"energy": -0.27861,
				"method": "rhf"
			},
			{
				"type": "occ",
				"energy": -0.27598,
				"method": "rhf"
			},
			{
				"type": "occ",
				"energy": -0.2603,
				"method": "rhf"
			},
			{
				"type": "occ",
				"energy": -0.23538,
				"method": "rhf"
			},
			{
				"type": "unocc",
				"energy": -0.08793,
				"method": "rhf"
			},
			{
				"type": "unocc",
				"energy": -0.06376,
				"method": "rhf"
			},
			{
				"type": "unocc",
				"energy": -0.02312,
				"method": "rhf"
			},
			{
				"type": "unocc",
				"energy": -0.01962,
				"method": "rhf"
			},
			{
				"type": "unocc",
				"energy": -0.00189,
				"method": "rhf"
			}
		],
		"cosmo_sigma_profile": { 
			"-0.025": 0.0,
			"-0.024": 0.0,
			"-0.023": 0.0,
			"-0.022": 0.0,
			"-0.021": 0.0,
			"-0.02": 0.0,
			"-0.019": 0.0,
			"-0.018": 0.0,
			"-0.017": 0.0,
			"-0.016": 0.0,
			"-0.015": 0.0,
			"-0.014": 0.0,
			"-0.013": 0.0,
			"-0.012": 0.0,
			"-0.011": 0.0,
			"-0.01": 0.456592419698,
			"-0.009": 3.36017174448,
			"-0.008": 5.76846362056,
			"-0.007": 10.04821792,
			"-0.006": 20.4893561388,
			"-0.005": 22.2134026447,
			"-0.004": 18.0921171216,
			"-0.003": 19.1535034618,
			"-0.002": 22.3803018871,
			"-0.001": 19.4593060611,
			"0.0": 23.7540552069,
			"0.001": 26.0857184095,
			"0.002": 29.8556242502,
			"0.003": 32.5992107298,
			"0.004": 31.0249178875,
			"0.005": 33.2912929564,
			"0.006": 16.9585291596,
			"0.007": 0.0221594893907,
			"0.008": 0.0,
			"0.009": 0.0,
			"0.01": 0.0,
			"0.011": 0.0,
			"0.012": 0.0,
			"0.013": 0.0,
			"0.014": 0.0,
			"0.015": 0.0,
			"0.016": 0.0,
			"0.017": 0.0,
			"0.018": 0.0,
			"0.019": 0.0,
			"0.02": 0.0,
			"0.021": 0.0,
			"0.022": 0.0,
			"0.023": 0.0,
			"0.024": 0.0,
			"0.025": 0.0
		}
	}
}
