{
	 "smiles": "O=C(NCC1=CC=CO1)C1=CC(=CC=C1)C#N", 
	 "Tm": 360.15, 
	 "num_atms": 27, 
	 "gaussian": { 
		 "optdone": 1, 
		 "sigma_profile": "yes", 
		 "theory": "DFT", 
		 "functional": "B3LYP", 
		 "basiset": "6-31G**", 
		 "properties": { 
			 "R2extent": 5998.951, 
			 "electric_dipole_moment_norm": 6.30876774893, 
			 "electric_quadrupole_moment_norm": 26.1814806604, 
			 "total_energy": -761.324636707, 
			 "HOMO_LUMO_gap": 0.17208, 
			 "cosmo_polarized_energy": -17.91, 
			 "cosmo_cavitation_energy": 34.04, 
			 "cosmo_dispersion_energy": -22.9, 
			 "cosmo_repulsion_energy": 1.8, 
			 "cosmo_total_nonelectrostatic_energy": 12.95, 
			 "SMD_solvation_energy": 7.98 
		},
		"coords": [
			{
				"x": -1.8713552944,
				"y": -2.5594724873,
				"z": 2.6308816074,
				"element": "O" 
			},
			{
				"x": -1.8378962192,
				"y": -1.5526554444,
				"z": 1.9343993564,
				"element": "C" 
			},
			{
				"x": -2.3292408098,
				"y": -0.3456895094,
				"z": 2.3880588025,
				"element": "N" 
			},
			{
				"x": -1.8070716484,
				"y": 0.9883483179,
				"z": 2.0489668693,
				"element": "C" 
			},
			{
				"x": -0.7440906534,
				"y": 1.4660827163,
				"z": 2.983685033,
				"element": "C" 
			},
			{
				"x": 0.5977273502,
				"y": 1.6777754161,
				"z": 2.863788619,
				"element": "C" 
			},
			{
				"x": 1.0591607638,
				"y": 2.1137344793,
				"z": 4.1503388994,
				"element": "C" 
			},
			{
				"x": -0.0351721568,
				"y": 2.1297088005,
				"z": 4.9579951214,
				"element": "C" 
			},
			{
				"x": -1.1450782697,
				"y": 1.741062711,
				"z": 4.2648164898,
				"element": "O" 
			},
			{
				"x": -1.3285923537,
				"y": -1.6245881467,
				"z": 0.5184738913,
				"element": "C" 
			},
			{
				"x": -0.2483331499,
				"y": -2.4743193909,
				"z": 0.2645069926,
				"element": "C" 
			},
			{
				"x": 0.2292123399,
				"y": -2.6306931704,
				"z": -1.043829566,
				"element": "C" 
			},
			{
				"x": -0.3969403576,
				"y": -1.9589431225,
				"z": -2.1093395602,
				"element": "C" 
			},
			{
				"x": -1.4931142904,
				"y": -1.139862484,
				"z": -1.855859269,
				"element": "C" 
			},
			{
				"x": -1.9556897281,
				"y": -0.9676579044,
				"z": -0.5493914324,
				"element": "C" 
			},
			{
				"x": 1.3558428104,
				"y": -3.4819798822,
				"z": -1.300834318,
				"element": "C" 
			},
			{
				"x": 2.2717677496,
				"y": -4.1656010921,
				"z": -1.5162121908,
				"element": "N" 
			},
			{
				"x": -2.6447365804,
				"y": -0.4322443033,
				"z": 3.3489162104,
				"element": "H" 
			},
			{
				"x": -1.3970170777,
				"y": 0.966219329,
				"z": 1.0398571239,
				"element": "H" 
			},
			{
				"x": -2.6481052074,
				"y": 1.6918356796,
				"z": 2.0473551586,
				"element": "H" 
			},
			{
				"x": 1.1888107319,
				"y": 1.5394770091,
				"z": 1.9695252121,
				"element": "H" 
			},
			{
				"x": 2.0691411445,
				"y": 2.3765767823,
				"z": 4.4296182111,
				"element": "H" 
			},
			{
				"x": -0.1928253581,
				"y": 2.3811311296,
				"z": 5.9952475732,
				"element": "H" 
			},
			{
				"x": 0.2068584001,
				"y": -3.0142984454,
				"z": 1.0870591563,
				"element": "H" 
			},
			{
				"x": -0.0253986566,
				"y": -2.0926213509,
				"z": -3.1196909235,
				"element": "H" 
			},
			{
				"x": -1.9927435788,
				"y": -0.6376428345,
				"z": -2.6783230334,
				"element": "H" 
			},
			{
				"x": -2.8244199,
				"y": -0.3443828024,
				"z": -0.3611100345,
				"element": "H" 
			}
		],
		 "valence_orbital": [ 
			{
				"type": "occ",
				"energy": -0.28689,
				"method": "rhf"
			},
			{
				"type": "occ",
				"energy": -0.27712,
				"method": "rhf"
			},
			{
				"type": "occ",
				"energy": -0.27383,
				"method": "rhf"
			},
			{
				"type": "occ",
				"energy": -0.25521,
				"method": "rhf"
			},
			{
				"type": "occ",
				"energy": -0.2356,
				"method": "rhf"
			},
			{
				"type": "unocc",
				"energy": -0.06352,
				"method": "rhf"
			},
			{
				"type": "unocc",
				"energy": -0.04643,
				"method": "rhf"
			},
			{
				"type": "unocc",
				"energy": -0.00363,
				"method": "rhf"
			},
			{
				"type": "unocc",
				"energy": 0.02237,
				"method": "rhf"
			},
			{
				"type": "unocc",
				"energy": 0.03403,
				"method": "rhf"
			}
		],
		"cosmo_sigma_profile": { 
			"-0.025": 0.0,
			"-0.024": 0.0,
			"-0.023": 0.0,
			"-0.022": 0.0,
			"-0.021": 0.0,
			"-0.02": 0.0,
			"-0.019": 0.0,
			"-0.018": 0.0,
			"-0.017": 0.0,
			"-0.016": 0.0,
			"-0.015": 0.0,
			"-0.014": 0.0,
			"-0.013": 0.374517080838,
			"-0.012": 0.772571822829,
			"-0.011": 0.591720205329,
			"-0.01": 0.662387525677,
			"-0.009": 2.46411950582,
			"-0.008": 7.64972405236,
			"-0.007": 16.4870863561,
			"-0.006": 21.0168332897,
			"-0.005": 17.5042913151,
			"-0.004": 17.9752383743,
			"-0.003": 17.4112759753,
			"-0.002": 18.9811916479,
			"-0.001": 18.1281358624,
			"0.0": 18.2873159269,
			"0.001": 20.1895298725,
			"0.002": 17.0521933255,
			"0.003": 11.9862763305,
			"0.004": 10.7026985069,
			"0.005": 11.4500728326,
			"0.006": 6.35029078711,
			"0.007": 6.71260551776,
			"0.008": 4.85658464039,
			"0.009": 4.6854750278,
			"0.01": 4.55285966833,
			"0.011": 4.81640644693,
			"0.012": 5.43611201835,
			"0.013": 6.28076361172,
			"0.014": 1.21404822611,
			"0.015": 0.0,
			"0.016": 0.0,
			"0.017": 0.0,
			"0.018": 0.0,
			"0.019": 0.0,
			"0.02": 0.0,
			"0.021": 0.0,
			"0.022": 0.0,
			"0.023": 0.0,
			"0.024": 0.0,
			"0.025": 0.0
		}
	}
}
