{
	 "smiles": "CCC1(CC)C(=O)NCC(C)C1=O", 
	 "Tm": 349.15, 
	 "num_atms": 30, 
	 "gaussian": { 
		 "optdone": 1, 
		 "sigma_profile": "yes", 
		 "theory": "DFT", 
		 "functional": "B3LYP", 
		 "basiset": "6-31G**", 
		 "properties": { 
			 "R2extent": 2332.5408, 
			 "electric_dipole_moment_norm": 3.22427407334, 
			 "electric_quadrupole_moment_norm": 14.1780706773, 
			 "total_energy": -596.534956267, 
			 "HOMO_LUMO_gap": 0.21286, 
			 "cosmo_polarized_energy": -13.48, 
			 "cosmo_cavitation_energy": 29.86, 
			 "cosmo_dispersion_energy": -20.9, 
			 "cosmo_repulsion_energy": 1.65, 
			 "cosmo_total_nonelectrostatic_energy": 10.6, 
			 "SMD_solvation_energy": 5.48 
		},
		"coords": [
			{
				"x": -0.4057606365,
				"y": -3.0297693442,
				"z": -1.0826063755,
				"element": "C" 
			},
			{
				"x": -0.3117936729,
				"y": -2.2372167108,
				"z": 0.2242339629,
				"element": "C" 
			},
			{
				"x": 0.6344190853,
				"y": -0.9831887829,
				"z": 0.2166059387,
				"element": "C" 
			},
			{
				"x": 2.0686319792,
				"y": -1.3963016055,
				"z": -0.2154428395,
				"element": "C" 
			},
			{
				"x": 3.115030775,
				"y": -0.280824886,
				"z": -0.1105718032,
				"element": "C" 
			},
			{
				"x": 0.7024393916,
				"y": -0.4964187784,
				"z": 1.6818177739,
				"element": "C" 
			},
			{
				"x": 1.0656015469,
				"y": -1.2535251029,
				"z": 2.5750303144,
				"element": "O" 
			},
			{
				"x": 0.3364073185,
				"y": 0.7930223664,
				"z": 1.9559443655,
				"element": "N" 
			},
			{
				"x": 0.0590587885,
				"y": 1.8329031821,
				"z": 0.9742300001,
				"element": "C" 
			},
			{
				"x": -0.7054104817,
				"y": 1.2497747303,
				"z": -0.222437431,
				"element": "C" 
			},
			{
				"x": -2.1596342421,
				"y": 0.8820093621,
				"z": 0.1328460112,
				"element": "C" 
			},
			{
				"x": 0.072158887,
				"y": 0.0525306298,
				"z": -0.7715811507,
				"element": "C" 
			},
			{
				"x": 0.2317059576,
				"y": -0.0800136935,
				"z": -1.9724634494,
				"element": "O" 
			},
			{
				"x": -1.1365360649,
				"y": -3.8368999158,
				"z": -0.9654050792,
				"element": "H" 
			},
			{
				"x": 0.5493153805,
				"y": -3.4908308602,
				"z": -1.349013645,
				"element": "H" 
			},
			{
				"x": -0.7191854104,
				"y": -2.405307406,
				"z": -1.9229875011,
				"element": "H" 
			},
			{
				"x": 0.056365796,
				"y": -2.8769519709,
				"z": 1.0318405528,
				"element": "H" 
			},
			{
				"x": -1.3169137055,
				"y": -1.9163480326,
				"z": 0.5242523641,
				"element": "H" 
			},
			{
				"x": 2.0170836018,
				"y": -1.7438336251,
				"z": -1.2495248376,
				"element": "H" 
			},
			{
				"x": 2.3675309737,
				"y": -2.2404212279,
				"z": 0.4136816917,
				"element": "H" 
			},
			{
				"x": 2.8591846143,
				"y": 0.572589819,
				"z": -0.7482364377,
				"element": "H" 
			},
			{
				"x": 3.2267099332,
				"y": 0.076106188,
				"z": 0.9186908182,
				"element": "H" 
			},
			{
				"x": 4.0937021013,
				"y": -0.64650916,
				"z": -0.4366275483,
				"element": "H" 
			},
			{
				"x": 0.4671591851,
				"y": 1.0532443,
				"z": 2.925043949,
				"element": "H" 
			},
			{
				"x": 0.9877053514,
				"y": 2.3091876917,
				"z": 0.6270987696,
				"element": "H" 
			},
			{
				"x": -0.5409406457,
				"y": 2.6106356913,
				"z": 1.4580435638,
				"element": "H" 
			},
			{
				"x": -0.7170769749,
				"y": 1.9884681017,
				"z": -1.030110123,
				"element": "H" 
			},
			{
				"x": -2.6570610369,
				"y": 0.4008405098,
				"z": -0.7139450539,
				"element": "H" 
			},
			{
				"x": -2.7206667928,
				"y": 1.7887476722,
				"z": 0.3826419234,
				"element": "H" 
			},
			{
				"x": -2.2104310026,
				"y": 0.2103008583,
				"z": 0.9936512755,
				"element": "H" 
			}
		],
		 "valence_orbital": [ 
			{
				"type": "occ",
				"energy": -0.33595,
				"method": "rhf"
			},
			{
				"type": "occ",
				"energy": -0.31533,
				"method": "rhf"
			},
			{
				"type": "occ",
				"energy": -0.25851,
				"method": "rhf"
			},
			{
				"type": "occ",
				"energy": -0.25128,
				"method": "rhf"
			},
			{
				"type": "occ",
				"energy": -0.24029,
				"method": "rhf"
			},
			{
				"type": "unocc",
				"energy": -0.02743,
				"method": "rhf"
			},
			{
				"type": "unocc",
				"energy": 0.01861,
				"method": "rhf"
			},
			{
				"type": "unocc",
				"energy": 0.0671,
				"method": "rhf"
			},
			{
				"type": "unocc",
				"energy": 0.09758,
				"method": "rhf"
			},
			{
				"type": "unocc",
				"energy": 0.10264,
				"method": "rhf"
			}
		],
		"cosmo_sigma_profile": { 
			"-0.025": 0.0,
			"-0.024": 0.0,
			"-0.023": 0.0,
			"-0.022": 0.0,
			"-0.021": 0.0,
			"-0.02": 0.0,
			"-0.019": 0.0,
			"-0.018": 0.0,
			"-0.017": 0.0,
			"-0.016": 0.0,
			"-0.015": 0.0,
			"-0.014": 0.665648351855,
			"-0.013": 1.23489198793,
			"-0.012": 1.24245433407,
			"-0.011": 0.981387233291,
			"-0.01": 0.892901071741,
			"-0.009": 0.529236861152,
			"-0.008": 1.40234337916,
			"-0.007": 2.25237320862,
			"-0.006": 5.04447699179,
			"-0.005": 12.4758716934,
			"-0.004": 18.9495202742,
			"-0.003": 27.6062463969,
			"-0.002": 28.3263264238,
			"-0.001": 31.0730516174,
			"0.0": 26.8060469566,
			"0.001": 19.3312296165,
			"0.002": 7.53123115313,
			"0.003": 4.17206486809,
			"0.004": 3.79670859651,
			"0.005": 2.68297679307,
			"0.006": 3.09562966259,
			"0.007": 3.37777871618,
			"0.008": 4.37176296581,
			"0.009": 2.34106762284,
			"0.01": 1.8626605595,
			"0.011": 4.76650871348,
			"0.012": 4.58361540932,
			"0.013": 3.56378688916,
			"0.014": 5.25032222975,
			"0.015": 0.808476486974,
			"0.016": 0.0,
			"0.017": 0.0,
			"0.018": 0.0,
			"0.019": 0.0,
			"0.02": 0.0,
			"0.021": 0.0,
			"0.022": 0.0,
			"0.023": 0.0,
			"0.024": 0.0,
			"0.025": 0.0
		}
	}
}
