{
	 "smiles": "BrC1=CC=C(C=C1)C1=CC=C(O1)C=CC(=O)C1=CC=CC=C1", 
	 "Tm": 415.15, 
	 "num_atms": 35, 
	 "gaussian": { 
		 "optdone": 1, 
		 "sigma_profile": "yes", 
		 "theory": "DFT", 
		 "functional": "B3LYP", 
		 "basiset": "6-31G**", 
		 "properties": { 
			 "R2extent": 16995.8028, 
			 "electric_dipole_moment_norm": 1.79675660566, 
			 "electric_quadrupole_moment_norm": 29.9219891515, 
			 "total_energy": -3453.6905168, 
			 "HOMO_LUMO_gap": 0.12414, 
			 "cosmo_polarized_energy": -12.9, 
			 "cosmo_cavitation_energy": 43.71, 
			 "cosmo_dispersion_energy": -31.6, 
			 "cosmo_repulsion_energy": 2.37, 
			 "cosmo_total_nonelectrostatic_energy": 14.48, 
			 "SMD_solvation_energy": 6.95 
		},
		"coords": [
			{
				"x": 7.1096433923,
				"y": 0.6320333933,
				"z": -0.0867325501,
				"element": "Br" 
			},
			{
				"x": 5.4058101178,
				"y": -0.2255823167,
				"z": -0.028611749,
				"element": "C" 
			},
			{
				"x": 5.2753807016,
				"y": -1.5294100119,
				"z": -0.5089671868,
				"element": "C" 
			},
			{
				"x": 4.0323569337,
				"y": -2.1509550941,
				"z": -0.4652974477,
				"element": "C" 
			},
			{
				"x": 2.9070474169,
				"y": -1.4853303027,
				"z": 0.0554106135,
				"element": "C" 
			},
			{
				"x": 3.0668912105,
				"y": -0.1718217925,
				"z": 0.532817841,
				"element": "C" 
			},
			{
				"x": 4.3076084989,
				"y": 0.4574426267,
				"z": 0.4925302426,
				"element": "C" 
			},
			{
				"x": 1.6110819706,
				"y": -2.1443383499,
				"z": 0.0973411164,
				"element": "C" 
			},
			{
				"x": 1.1760662044,
				"y": -3.3974804277,
				"z": -0.2783556238,
				"element": "C" 
			},
			{
				"x": -0.2088034369,
				"y": -3.4525491091,
				"z": 0.0132339628,
				"element": "C" 
			},
			{
				"x": -0.5562794221,
				"y": -2.2321041961,
				"z": 0.5529743205,
				"element": "C" 
			},
			{
				"x": 0.560056058,
				"y": -1.4334923079,
				"z": 0.6029877671,
				"element": "O" 
			},
			{
				"x": -1.8055164031,
				"y": -1.7248471993,
				"z": 1.0261411177,
				"element": "C" 
			},
			{
				"x": -2.0325133415,
				"y": -0.4933220039,
				"z": 1.5375826374,
				"element": "C" 
			},
			{
				"x": -3.3909202291,
				"y": -0.1288212464,
				"z": 1.9968666465,
				"element": "C" 
			},
			{
				"x": -4.3087656742,
				"y": -0.9497058089,
				"z": 1.9672883262,
				"element": "O" 
			},
			{
				"x": -3.6442752874,
				"y": 1.257289076,
				"z": 2.5173275517,
				"element": "C" 
			},
			{
				"x": -2.7195168572,
				"y": 2.3089167742,
				"z": 2.4197487116,
				"element": "C" 
			},
			{
				"x": -3.0320778449,
				"y": 3.5744646716,
				"z": 2.9168460766,
				"element": "C" 
			},
			{
				"x": -4.2688145277,
				"y": 3.8038788035,
				"z": 3.5216696764,
				"element": "C" 
			},
			{
				"x": -5.198284795,
				"y": 2.7639489504,
				"z": 3.6214627286,
				"element": "C" 
			},
			{
				"x": -4.8892589067,
				"y": 1.5038874906,
				"z": 3.1196182294,
				"element": "C" 
			},
			{
				"x": 6.1362023919,
				"y": -2.0503256944,
				"z": -0.9121200107,
				"element": "H" 
			},
			{
				"x": 3.9383859172,
				"y": -3.1646603221,
				"z": -0.8416093443,
				"element": "H" 
			},
			{
				"x": 2.211197314,
				"y": 0.3560695381,
				"z": 0.9381100781,
				"element": "H" 
			},
			{
				"x": 4.4214974971,
				"y": 1.4697971879,
				"z": 0.8629806757,
				"element": "H" 
			},
			{
				"x": 1.7789212991,
				"y": -4.1827367209,
				"z": -0.7099121565,
				"element": "H" 
			},
			{
				"x": -0.881126515,
				"y": -4.283030961,
				"z": -0.1487379067,
				"element": "H" 
			},
			{
				"x": -2.6508660357,
				"y": -2.4065169217,
				"z": 0.9644615088,
				"element": "H" 
			},
			{
				"x": -1.2177760593,
				"y": 0.2151806296,
				"z": 1.6257351715,
				"element": "H" 
			},
			{
				"x": -1.7574515092,
				"y": 2.1574112557,
				"z": 1.9426007003,
				"element": "H" 
			},
			{
				"x": -2.3100225054,
				"y": 4.3812470408,
				"z": 2.8302938005,
				"element": "H" 
			},
			{
				"x": -4.5088361341,
				"y": 4.7890450096,
				"z": 3.9116324381,
				"element": "H" 
			},
			{
				"x": -6.1626406019,
				"y": 2.9394848125,
				"z": 4.0895998046,
				"element": "H" 
			},
			{
				"x": -5.5959008374,
				"y": 0.6831335266,
				"z": 3.178482232,
				"element": "H" 
			}
		],
		 "valence_orbital": [ 
			{
				"type": "occ",
				"energy": -0.26145,
				"method": "rhf"
			},
			{
				"type": "occ",
				"energy": -0.25684,
				"method": "rhf"
			},
			{
				"type": "occ",
				"energy": -0.25325,
				"method": "rhf"
			},
			{
				"type": "occ",
				"energy": -0.24461,
				"method": "rhf"
			},
			{
				"type": "occ",
				"energy": -0.20877,
				"method": "rhf"
			},
			{
				"type": "unocc",
				"energy": -0.08463,
				"method": "rhf"
			},
			{
				"type": "unocc",
				"energy": -0.04293,
				"method": "rhf"
			},
			{
				"type": "unocc",
				"energy": -0.02319,
				"method": "rhf"
			},
			{
				"type": "unocc",
				"energy": -0.01148,
				"method": "rhf"
			},
			{
				"type": "unocc",
				"energy": -0.00328,
				"method": "rhf"
			}
		],
		"cosmo_sigma_profile": { 
			"-0.025": 0.0,
			"-0.024": 0.0,
			"-0.023": 0.0,
			"-0.022": 0.0,
			"-0.021": 0.0,
			"-0.02": 0.0,
			"-0.019": 0.0,
			"-0.018": 0.0,
			"-0.017": 0.0,
			"-0.016": 0.0,
			"-0.015": 0.0,
			"-0.014": 0.0,
			"-0.013": 0.0,
			"-0.012": 0.0,
			"-0.011": 0.0,
			"-0.01": 0.0,
			"-0.009": 1.90490405209,
			"-0.008": 7.67644554731,
			"-0.007": 12.6932596988,
			"-0.006": 19.5695773195,
			"-0.005": 21.9033964604,
			"-0.004": 21.3933459686,
			"-0.003": 19.2441901702,
			"-0.002": 18.2478261144,
			"-0.001": 22.0330262442,
			"0.0": 28.6135433661,
			"0.001": 42.3748160704,
			"0.002": 42.48733641,
			"0.003": 41.2909397447,
			"0.004": 29.125457286,
			"0.005": 10.2924362094,
			"0.006": 2.13177925753,
			"0.007": 1.37587156805,
			"0.008": 1.89874532792,
			"0.009": 1.78466307843,
			"0.01": 1.36276314871,
			"0.011": 2.38451686548,
			"0.012": 2.93134024303,
			"0.013": 3.47552493955,
			"0.014": 0.0503281781157,
			"0.015": 0.0,
			"0.016": 0.0,
			"0.017": 0.0,
			"0.018": 0.0,
			"0.019": 0.0,
			"0.02": 0.0,
			"0.021": 0.0,
			"0.022": 0.0,
			"0.023": 0.0,
			"0.024": 0.0,
			"0.025": 0.0
		}
	}
}
