{
	 "smiles": "CN1C(C(CCC1=O)C(N)=O)C1=CC=CS1", 
	 "Tm": 453.15, 
	 "num_atms": 30, 
	 "gaussian": { 
		 "optdone": 1, 
		 "sigma_profile": "yes", 
		 "theory": "DFT", 
		 "functional": "B3LYP", 
		 "basiset": "6-31G**", 
		 "properties": { 
			 "R2extent": 4511.9422, 
			 "electric_dipole_moment_norm": 6.52553117378, 
			 "electric_quadrupole_moment_norm": 10.7184678817, 
			 "total_energy": -1085.7535999, 
			 "HOMO_LUMO_gap": 0.20211, 
			 "cosmo_polarized_energy": -21.5, 
			 "cosmo_cavitation_energy": 33.27, 
			 "cosmo_dispersion_energy": -23.54, 
			 "cosmo_repulsion_energy": 1.79, 
			 "cosmo_total_nonelectrostatic_energy": 11.53, 
			 "SMD_solvation_energy": 6.3 
		},
		"coords": [
			{
				"x": 0.7479826717,
				"y": 0.6703904853,
				"z": 2.7415944839,
				"element": "C" 
			},
			{
				"x": -0.1859031653,
				"y": -0.0224122983,
				"z": 1.8577992532,
				"element": "N" 
			},
			{
				"x": -1.1208640433,
				"y": 0.7109837333,
				"z": 0.9800393456,
				"element": "C" 
			},
			{
				"x": -1.2621136866,
				"y": 0.0226070459,
				"z": -0.4296411981,
				"element": "C" 
			},
			{
				"x": -1.1768723038,
				"y": -1.5170274901,
				"z": -0.2921406392,
				"element": "C" 
			},
			{
				"x": -1.4517407623,
				"y": -1.9775578126,
				"z": 1.1449480988,
				"element": "C" 
			},
			{
				"x": -0.4306190905,
				"y": -1.3616142227,
				"z": 2.0907373334,
				"element": "C" 
			},
			{
				"x": 0.1478937274,
				"y": -2.0144849665,
				"z": 2.9514115559,
				"element": "O" 
			},
			{
				"x": -0.213857471,
				"y": 0.5037082226,
				"z": -1.4379606431,
				"element": "C" 
			},
			{
				"x": -0.6991160465,
				"y": 1.2386699845,
				"z": -2.4827095548,
				"element": "N" 
			},
			{
				"x": 0.9731804239,
				"y": 0.2206417214,
				"z": -1.3357025636,
				"element": "O" 
			},
			{
				"x": -0.8375027379,
				"y": 2.1925239902,
				"z": 0.8938098399,
				"element": "C" 
			},
			{
				"x": 0.2589837281,
				"y": 2.8703044233,
				"z": 0.4196284584,
				"element": "C" 
			},
			{
				"x": 0.1241350696,
				"y": 4.2886812126,
				"z": 0.4980603437,
				"element": "C" 
			},
			{
				"x": -1.074519107,
				"y": 4.6834435794,
				"z": 1.0265790634,
				"element": "C" 
			},
			{
				"x": -2.0545419852,
				"y": 3.3200968496,
				"z": 1.4475110199,
				"element": "S" 
			},
			{
				"x": 0.2416547855,
				"y": 1.4310541337,
				"z": 3.3457059904,
				"element": "H" 
			},
			{
				"x": 1.5485723817,
				"y": 1.1504557187,
				"z": 2.1743829436,
				"element": "H" 
			},
			{
				"x": 1.1723219104,
				"y": -0.0874658501,
				"z": 3.3986982053,
				"element": "H" 
			},
			{
				"x": -2.1240306267,
				"y": 0.6211806717,
				"z": 1.4231033948,
				"element": "H" 
			},
			{
				"x": -2.2593027952,
				"y": 0.3059804189,
				"z": -0.7874651852,
				"element": "H" 
			},
			{
				"x": -0.16399963,
				"y": -1.8268209664,
				"z": -0.5643629217,
				"element": "H" 
			},
			{
				"x": -1.8669311955,
				"y": -1.9947098674,
				"z": -0.9950495576,
				"element": "H" 
			},
			{
				"x": -2.467575164,
				"y": -1.6990476118,
				"z": 1.4597112209,
				"element": "H" 
			},
			{
				"x": -1.3674627963,
				"y": -3.0611580654,
				"z": 1.2445975633,
				"element": "H" 
			},
			{
				"x": -1.6280915021,
				"y": 1.627992819,
				"z": -2.4671474968,
				"element": "H" 
			},
			{
				"x": -0.0227487579,
				"y": 1.6511407907,
				"z": -3.1090748262,
				"element": "H" 
			},
			{
				"x": 1.1319113275,
				"y": 2.3666426785,
				"z": 0.0222873511,
				"element": "H" 
			},
			{
				"x": 0.890026554,
				"y": 4.9840470894,
				"z": 0.1733387625,
				"element": "H" 
			},
			{
				"x": -1.4381697127,
				"y": 5.6875535826,
				"z": 1.1950103581,
				"element": "H" 
			}
		],
		 "valence_orbital": [ 
			{
				"type": "occ",
				"energy": -0.26121,
				"method": "rhf"
			},
			{
				"type": "occ",
				"energy": -0.25763,
				"method": "rhf"
			},
			{
				"type": "occ",
				"energy": -0.24491,
				"method": "rhf"
			},
			{
				"type": "occ",
				"energy": -0.234,
				"method": "rhf"
			},
			{
				"type": "occ",
				"energy": -0.2282,
				"method": "rhf"
			},
			{
				"type": "unocc",
				"energy": -0.02609,
				"method": "rhf"
			},
			{
				"type": "unocc",
				"energy": 0.00511,
				"method": "rhf"
			},
			{
				"type": "unocc",
				"energy": 0.01831,
				"method": "rhf"
			},
			{
				"type": "unocc",
				"energy": 0.03726,
				"method": "rhf"
			},
			{
				"type": "unocc",
				"energy": 0.05358,
				"method": "rhf"
			}
		],
		"cosmo_sigma_profile": { 
			"-0.025": 0.0,
			"-0.024": 0.0,
			"-0.023": 0.0,
			"-0.022": 0.0,
			"-0.021": 0.0,
			"-0.02": 0.0,
			"-0.019": 0.0,
			"-0.018": 0.0,
			"-0.017": 0.0,
			"-0.016": 0.0,
			"-0.015": 0.16745735511,
			"-0.014": 1.46220481797,
			"-0.013": 2.60326124174,
			"-0.012": 2.82356264296,
			"-0.011": 2.42932727858,
			"-0.01": 2.12411837696,
			"-0.009": 2.60461662726,
			"-0.008": 5.42534600469,
			"-0.007": 10.3253968589,
			"-0.006": 12.0343522863,
			"-0.005": 13.4296592146,
			"-0.004": 20.6835154425,
			"-0.003": 23.3680064649,
			"-0.002": 22.7397926579,
			"-0.001": 20.0280493819,
			"0.0": 13.4128231716,
			"0.001": 15.1028420308,
			"0.002": 13.8091194241,
			"0.003": 13.4079326867,
			"0.004": 14.9916838363,
			"0.005": 9.52293477698,
			"0.006": 5.43851505875,
			"0.007": 3.35329395593,
			"0.008": 3.82859857413,
			"0.009": 2.81998861067,
			"0.01": 2.79259763739,
			"0.011": 2.87551399525,
			"0.012": 3.17404933291,
			"0.013": 6.1386890112,
			"0.014": 8.6478948868,
			"0.015": 2.29840459389,
			"0.016": 0.0929064354168,
			"0.017": 0.0,
			"0.018": 0.0,
			"0.019": 0.0,
			"0.02": 0.0,
			"0.021": 0.0,
			"0.022": 0.0,
			"0.023": 0.0,
			"0.024": 0.0,
			"0.025": 0.0
		}
	}
}
