{
	 "smiles": "NC1=C(C=C(C=C1)N1CCOCC1)C(O)=O", 
	 "Tm": 509.15, 
	 "num_atms": 30, 
	 "gaussian": { 
		 "optdone": 1, 
		 "sigma_profile": "yes", 
		 "theory": "DFT", 
		 "functional": "B3LYP", 
		 "basiset": "6-31G**", 
		 "properties": { 
			 "R2extent": 4896.7362, 
			 "electric_dipole_moment_norm": 6.48689036365, 
			 "electric_quadrupole_moment_norm": 23.7974486586, 
			 "total_energy": -762.780212838, 
			 "HOMO_LUMO_gap": 0.17085, 
			 "cosmo_polarized_energy": -20.36, 
			 "cosmo_cavitation_energy": 31.84, 
			 "cosmo_dispersion_energy": -24.01, 
			 "cosmo_repulsion_energy": 1.86, 
			 "cosmo_total_nonelectrostatic_energy": 9.69, 
			 "SMD_solvation_energy": 5.5 
		},
		"coords": [
			{
				"x": 0.8670736397,
				"y": -1.4395267824,
				"z": -3.9818672925,
				"element": "N" 
			},
			{
				"x": 0.6844816428,
				"y": -0.6467550633,
				"z": -2.7786009426,
				"element": "C" 
			},
			{
				"x": -0.5371523005,
				"y": -0.7090386079,
				"z": -2.078795058,
				"element": "C" 
			},
			{
				"x": -0.7046315162,
				"y": 0.0504857054,
				"z": -0.921230159,
				"element": "C" 
			},
			{
				"x": 0.3051935482,
				"y": 0.8898852257,
				"z": -0.4173189678,
				"element": "C" 
			},
			{
				"x": 1.5184457155,
				"y": 0.9396435108,
				"z": -1.1335848442,
				"element": "C" 
			},
			{
				"x": 1.6915832621,
				"y": 0.1849780275,
				"z": -2.2917450767,
				"element": "C" 
			},
			{
				"x": 0.0748058037,
				"y": 1.6718358511,
				"z": 0.7274973913,
				"element": "N" 
			},
			{
				"x": -0.6082363107,
				"y": 1.0456252633,
				"z": 1.8688046703,
				"element": "C" 
			},
			{
				"x": -1.1182449963,
				"y": 2.1152752875,
				"z": 2.8299324007,
				"element": "C" 
			},
			{
				"x": -0.0641759916,
				"y": 2.9620742594,
				"z": 3.2657882408,
				"element": "O" 
			},
			{
				"x": 0.5366467815,
				"y": 3.6079758652,
				"z": 2.1558854596,
				"element": "C" 
			},
			{
				"x": 1.1144131747,
				"y": 2.6039370677,
				"z": 1.1571000719,
				"element": "C" 
			},
			{
				"x": -1.7391122529,
				"y": -1.5334033452,
				"z": -2.5069651696,
				"element": "C" 
			},
			{
				"x": -1.6410282107,
				"y": -2.1893934104,
				"z": -3.666912057,
				"element": "O" 
			},
			{
				"x": -2.7451549806,
				"y": -1.5831616945,
				"z": -1.8280294656,
				"element": "O" 
			},
			{
				"x": 1.5074021515,
				"y": -2.2143720493,
				"z": -3.8172889652,
				"element": "H" 
			},
			{
				"x": 1.2620261329,
				"y": -0.8784121254,
				"z": -4.7323396259,
				"element": "H" 
			},
			{
				"x": -1.6735757848,
				"y": -0.0198656684,
				"z": -0.4426476684,
				"element": "H" 
			},
			{
				"x": 2.3434175269,
				"y": 1.549436251,
				"z": -0.7864253296,
				"element": "H" 
			},
			{
				"x": 2.6417259492,
				"y": 0.2335904955,
				"z": -2.8190614893,
				"element": "H" 
			},
			{
				"x": -1.4520179067,
				"y": 0.4490180716,
				"z": 1.5201798306,
				"element": "H" 
			},
			{
				"x": 0.0802808838,
				"y": 0.3725722494,
				"z": 2.408153625,
				"element": "H" 
			},
			{
				"x": -1.5389850565,
				"y": 1.6485853739,
				"z": 3.7250398449,
				"element": "H" 
			},
			{
				"x": -1.9049799831,
				"y": 2.7095572089,
				"z": 2.3374368686,
				"element": "H" 
			},
			{
				"x": 1.3338545887,
				"y": 4.2434287016,
				"z": 2.5524784164,
				"element": "H" 
			},
			{
				"x": -0.2004486947,
				"y": 4.2465390688,
				"z": 1.6419936012,
				"element": "H" 
			},
			{
				"x": 1.4852589464,
				"y": 3.1572208635,
				"z": 0.2890512931,
				"element": "H" 
			},
			{
				"x": 1.9701560614,
				"y": 2.079146711,
				"z": 1.6187204246,
				"element": "H" 
			},
			{
				"x": -0.7356218239,
				"y": -2.0153823121,
				"z": -4.0505500278,
				"element": "H" 
			}
		],
		 "valence_orbital": [ 
			{
				"type": "occ",
				"energy": -0.28488,
				"method": "rhf"
			},
			{
				"type": "occ",
				"energy": -0.26175,
				"method": "rhf"
			},
			{
				"type": "occ",
				"energy": -0.25919,
				"method": "rhf"
			},
			{
				"type": "occ",
				"energy": -0.25151,
				"method": "rhf"
			},
			{
				"type": "occ",
				"energy": -0.20803,
				"method": "rhf"
			},
			{
				"type": "unocc",
				"energy": -0.03718,
				"method": "rhf"
			},
			{
				"type": "unocc",
				"energy": -0.01082,
				"method": "rhf"
			},
			{
				"type": "unocc",
				"energy": 0.06078,
				"method": "rhf"
			},
			{
				"type": "unocc",
				"energy": 0.06829,
				"method": "rhf"
			},
			{
				"type": "unocc",
				"energy": 0.08671,
				"method": "rhf"
			}
		],
		"cosmo_sigma_profile": { 
			"-0.025": 0.0,
			"-0.024": 0.0,
			"-0.023": 0.0,
			"-0.022": 0.0,
			"-0.021": 0.0,
			"-0.02": 0.0,
			"-0.019": 0.0,
			"-0.018": 0.0,
			"-0.017": 0.0,
			"-0.016": 0.0,
			"-0.015": 0.0,
			"-0.014": 0.0,
			"-0.013": 1.64759166795,
			"-0.012": 3.42697791477,
			"-0.011": 3.18392874453,
			"-0.01": 2.80817552672,
			"-0.009": 2.62520603198,
			"-0.008": 3.13515876812,
			"-0.007": 5.97543114937,
			"-0.006": 12.5076811124,
			"-0.005": 17.0307420284,
			"-0.004": 22.3832102164,
			"-0.003": 31.7899635624,
			"-0.002": 20.2636964663,
			"-0.001": 15.427304795,
			"0.0": 10.5637441559,
			"0.001": 9.93028798,
			"0.002": 11.2289002333,
			"0.003": 10.9319143066,
			"0.004": 14.2287305526,
			"0.005": 7.65746086442,
			"0.006": 4.23727694723,
			"0.007": 4.16579401387,
			"0.008": 4.50680759861,
			"0.009": 3.76550086556,
			"0.01": 4.96369003665,
			"0.011": 4.64686275,
			"0.012": 7.81876708638,
			"0.013": 7.4991061726,
			"0.014": 2.29172554439,
			"0.015": 0.291430426588,
			"0.016": 0.0,
			"0.017": 0.0,
			"0.018": 0.0,
			"0.019": 0.0,
			"0.02": 0.0,
			"0.021": 0.0,
			"0.022": 0.0,
			"0.023": 0.0,
			"0.024": 0.0,
			"0.025": 0.0
		}
	}
}
