{
	 "smiles": "CC(C)C1=CC=C(C=C1)C1=NN(C=C1C(O)=O)C1=CC=CC=C1", 
	 "Tm": 496.15, 
	 "num_atms": 41, 
	 "gaussian": { 
		 "optdone": 1, 
		 "sigma_profile": "yes", 
		 "theory": "DFT", 
		 "functional": "B3LYP", 
		 "basiset": "6-31G**", 
		 "properties": { 
			 "R2extent": 10784.8051, 
			 "electric_dipole_moment_norm": 1.22659069375, 
			 "electric_quadrupole_moment_norm": 20.407806326, 
			 "total_energy": -994.840187808, 
			 "HOMO_LUMO_gap": 0.17797, 
			 "cosmo_polarized_energy": -14.2, 
			 "cosmo_cavitation_energy": 45.18, 
			 "cosmo_dispersion_energy": -31.85, 
			 "cosmo_repulsion_energy": 2.43, 
			 "cosmo_total_nonelectrostatic_energy": 15.76, 
			 "SMD_solvation_energy": 8.3 
		},
		"coords": [
			{
				"x": -1.0230650908,
				"y": 0.6495705734,
				"z": 5.4549601084,
				"element": "C" 
			},
			{
				"x": 0.0878168139,
				"y": -0.3085447602,
				"z": 4.9846510359,
				"element": "C" 
			},
			{
				"x": 1.4665575739,
				"y": 0.1494284717,
				"z": 5.4974209149,
				"element": "C" 
			},
			{
				"x": 0.0785616243,
				"y": -0.4893777381,
				"z": 3.473058626,
				"element": "C" 
			},
			{
				"x": 0.2991861206,
				"y": 0.5895993286,
				"z": 2.6029382381,
				"element": "C" 
			},
			{
				"x": 0.292599882,
				"y": 0.4151462544,
				"z": 1.2230106078,
				"element": "C" 
			},
			{
				"x": 0.0703451568,
				"y": -0.8524761359,
				"z": 0.6580832835,
				"element": "C" 
			},
			{
				"x": -0.1583874943,
				"y": -1.93224394,
				"z": 1.5210745895,
				"element": "C" 
			},
			{
				"x": -0.1519525791,
				"y": -1.7470402928,
				"z": 2.9027889742,
				"element": "C" 
			},
			{
				"x": 0.018732057,
				"y": -0.9855481646,
				"z": -0.812478982,
				"element": "C" 
			},
			{
				"x": -0.5245730984,
				"y": 0.0116532594,
				"z": -1.5118192716,
				"element": "N" 
			},
			{
				"x": -0.4422971479,
				"y": -0.3530853556,
				"z": -2.8213389086,
				"element": "N" 
			},
			{
				"x": 0.132280144,
				"y": -1.5674649309,
				"z": -2.9679584124,
				"element": "C" 
			},
			{
				"x": 0.4621881188,
				"y": -2.0246755443,
				"z": -1.7019737409,
				"element": "C" 
			},
			{
				"x": 1.1842681002,
				"y": -3.2926574062,
				"z": -1.5443732969,
				"element": "C" 
			},
			{
				"x": 1.5728514091,
				"y": -3.5669776229,
				"z": -0.2758814339,
				"element": "O" 
			},
			{
				"x": 1.4421041081,
				"y": -4.0432820993,
				"z": -2.4693050137,
				"element": "O" 
			},
			{
				"x": -0.9590816278,
				"y": 0.5055958399,
				"z": -3.8313266706,
				"element": "C" 
			},
			{
				"x": -0.5383403491,
				"y": 0.3662616566,
				"z": -5.1582350234,
				"element": "C" 
			},
			{
				"x": -1.0694308705,
				"y": 1.2040609387,
				"z": -6.1379445957,
				"element": "C" 
			},
			{
				"x": -2.0019982964,
				"y": 2.1861675096,
				"z": -5.8002926197,
				"element": "C" 
			},
			{
				"x": -2.4029152133,
				"y": 2.3264507116,
				"z": -4.4699024473,
				"element": "C" 
			},
			{
				"x": -1.8895974843,
				"y": 1.4894399981,
				"z": -3.4812769296,
				"element": "C" 
			},
			{
				"x": -1.0360103773,
				"y": 0.7193764865,
				"z": 6.5482639684,
				"element": "H" 
			},
			{
				"x": -0.8703903287,
				"y": 1.659884004,
				"z": 5.0597770733,
				"element": "H" 
			},
			{
				"x": -2.0081928785,
				"y": 0.3076159938,
				"z": 5.1228805971,
				"element": "H" 
			},
			{
				"x": -0.1173566243,
				"y": -1.2925397411,
				"z": 5.4266915042,
				"element": "H" 
			},
			{
				"x": 1.4697352271,
				"y": 0.2169890687,
				"z": 6.5909509425,
				"element": "H" 
			},
			{
				"x": 1.7287246546,
				"y": 1.1372128816,
				"z": 5.1027562882,
				"element": "H" 
			},
			{
				"x": 2.2534121193,
				"y": -0.548937429,
				"z": 5.1960143064,
				"element": "H" 
			},
			{
				"x": 0.4821023337,
				"y": 1.5819769383,
				"z": 3.0067506714,
				"element": "H" 
			},
			{
				"x": 0.4611610808,
				"y": 1.2605409035,
				"z": 0.5642350505,
				"element": "H" 
			},
			{
				"x": -0.3451464606,
				"y": -2.9182919675,
				"z": 1.1136422421,
				"element": "H" 
			},
			{
				"x": -0.33615252,
				"y": -2.5995958349,
				"z": 3.552341458,
				"element": "H" 
			},
			{
				"x": 0.2751983226,
				"y": -2.050013531,
				"z": -3.9214070897,
				"element": "H" 
			},
			{
				"x": 2.0494067952,
				"y": -4.4122198704,
				"z": -0.3301343547,
				"element": "H" 
			},
			{
				"x": 0.2095128109,
				"y": -0.3723512957,
				"z": -5.4258164725,
				"element": "H" 
			},
			{
				"x": -0.7404926096,
				"y": 1.0932665546,
				"z": -7.1668006439,
				"element": "H" 
			},
			{
				"x": -2.408554497,
				"y": 2.8392464364,
				"z": -6.5663096293,
				"element": "H" 
			},
			{
				"x": -3.1258265155,
				"y": 3.089294999,
				"z": -4.1965128637,
				"element": "H" 
			},
			{
				"x": -2.1915823893,
				"y": 1.5825448519,
				"z": -2.4456020801,
				"element": "H" 
			}
		],
		 "valence_orbital": [ 
			{
				"type": "occ",
				"energy": -0.26536,
				"method": "rhf"
			},
			{
				"type": "occ",
				"energy": -0.26227,
				"method": "rhf"
			},
			{
				"type": "occ",
				"energy": -0.24515,
				"method": "rhf"
			},
			{
				"type": "occ",
				"energy": -0.24349,
				"method": "rhf"
			},
			{
				"type": "occ",
				"energy": -0.2186,
				"method": "rhf"
			},
			{
				"type": "unocc",
				"energy": -0.04063,
				"method": "rhf"
			},
			{
				"type": "unocc",
				"energy": -0.02804,
				"method": "rhf"
			},
			{
				"type": "unocc",
				"energy": -0.0128,
				"method": "rhf"
			},
			{
				"type": "unocc",
				"energy": 0.00526,
				"method": "rhf"
			},
			{
				"type": "unocc",
				"energy": 0.01256,
				"method": "rhf"
			}
		],
		"cosmo_sigma_profile": { 
			"-0.025": 0.0,
			"-0.024": 0.0,
			"-0.023": 0.0,
			"-0.022": 0.0,
			"-0.021": 0.0,
			"-0.02": 0.0,
			"-0.019": 0.0168314335009,
			"-0.018": 0.55166842177,
			"-0.017": 1.12661672281,
			"-0.016": 1.02232451092,
			"-0.015": 0.418156846385,
			"-0.014": 0.425791228615,
			"-0.013": 0.148156267059,
			"-0.012": 1.11539188986,
			"-0.011": 2.38697327661,
			"-0.01": 2.41969194357,
			"-0.009": 1.95677719279,
			"-0.008": 2.70715881577,
			"-0.007": 4.08893344166,
			"-0.006": 11.1427326822,
			"-0.005": 17.8721256693,
			"-0.004": 23.768303575,
			"-0.003": 29.4589518011,
			"-0.002": 29.5001897937,
			"-0.001": 33.7099594816,
			"0.0": 33.7329268482,
			"0.001": 41.5649991077,
			"0.002": 24.8738339027,
			"0.003": 21.6468403007,
			"0.004": 22.3288665446,
			"0.005": 16.9278479561,
			"0.006": 9.89298609176,
			"0.007": 5.12678111555,
			"0.008": 4.59872353348,
			"0.009": 3.66410056999,
			"0.01": 2.79744001585,
			"0.011": 2.70194549382,
			"0.012": 5.4510423018,
			"0.013": 0.575375804598,
			"0.014": 0.0,
			"0.015": 0.0,
			"0.016": 0.0,
			"0.017": 0.0,
			"0.018": 0.0,
			"0.019": 0.0,
			"0.02": 0.0,
			"0.021": 0.0,
			"0.022": 0.0,
			"0.023": 0.0,
			"0.024": 0.0,
			"0.025": 0.0
		}
	}
}
