{
	 "smiles": "CC1=C(C=CC(F)=C1)N1C=C(O)C(=N1)C(O)=O", 
	 "Tm": 423.15, 
	 "num_atms": 26, 
	 "gaussian": { 
		 "optdone": 1, 
		 "sigma_profile": "yes", 
		 "theory": "DFT", 
		 "functional": "B3LYP", 
		 "basiset": "6-31G**", 
		 "properties": { 
			 "R2extent": 5359.4714, 
			 "electric_dipole_moment_norm": 4.46394721743, 
			 "electric_quadrupole_moment_norm": 13.792753468, 
			 "total_energy": -859.597106645, 
			 "HOMO_LUMO_gap": 0.17888, 
			 "cosmo_polarized_energy": -13.13, 
			 "cosmo_cavitation_energy": 31.52, 
			 "cosmo_dispersion_energy": -22.81, 
			 "cosmo_repulsion_energy": 1.73, 
			 "cosmo_total_nonelectrostatic_energy": 10.45, 
			 "SMD_solvation_energy": 7.16 
		},
		"coords": [
			{
				"x": 0.7301531184,
				"y": 3.0849236223,
				"z": -1.3635302369,
				"element": "C" 
			},
			{
				"x": -0.5305544507,
				"y": 2.3563751963,
				"z": -1.7661778949,
				"element": "C" 
			},
			{
				"x": -0.7238084195,
				"y": 0.9773310178,
				"z": -1.5574084021,
				"element": "C" 
			},
			{
				"x": -1.9281456231,
				"y": 0.3513515322,
				"z": -1.896496978,
				"element": "C" 
			},
			{
				"x": -2.9674829611,
				"y": 1.0785766876,
				"z": -2.4658223529,
				"element": "C" 
			},
			{
				"x": -2.7671190063,
				"y": 2.4350615501,
				"z": -2.6937026956,
				"element": "C" 
			},
			{
				"x": -3.7557860427,
				"y": 3.1591978269,
				"z": -3.2521918854,
				"element": "F" 
			},
			{
				"x": -1.5810176847,
				"y": 3.072171794,
				"z": -2.3545281139,
				"element": "C" 
			},
			{
				"x": 0.2963331102,
				"y": 0.1683879813,
				"z": -0.9674382845,
				"element": "N" 
			},
			{
				"x": 1.6089147577,
				"y": 0.0483319569,
				"z": -1.3738191691,
				"element": "C" 
			},
			{
				"x": 2.1821275716,
				"y": -0.9056975802,
				"z": -0.5534311781,
				"element": "C" 
			},
			{
				"x": 3.444175318,
				"y": -1.367777497,
				"z": -0.5571929397,
				"element": "O" 
			},
			{
				"x": 1.1330479783,
				"y": -1.3094725144,
				"z": 0.308196106,
				"element": "C" 
			},
			{
				"x": -0.0075420046,
				"y": -0.6553561341,
				"z": 0.0465530455,
				"element": "N" 
			},
			{
				"x": 1.2717100461,
				"y": -2.3106125425,
				"z": 1.3647289417,
				"element": "C" 
			},
			{
				"x": 0.1803294484,
				"y": -2.5673783457,
				"z": 2.1058861747,
				"element": "O" 
			},
			{
				"x": 2.3336898599,
				"y": -2.8842146458,
				"z": 1.5600714538,
				"element": "O" 
			},
			{
				"x": 0.5198370354,
				"y": 4.1463123423,
				"z": -1.2107510595,
				"element": "H" 
			},
			{
				"x": 1.1545906458,
				"y": 2.6821958145,
				"z": -0.440591697,
				"element": "H" 
			},
			{
				"x": 1.5058234238,
				"y": 3.0165129246,
				"z": -2.135347294,
				"element": "H" 
			},
			{
				"x": -2.0360852847,
				"y": -0.7099744883,
				"z": -1.7048071409,
				"element": "H" 
			},
			{
				"x": -3.9084698225,
				"y": 0.6138081214,
				"z": -2.7369262443,
				"element": "H" 
			},
			{
				"x": -1.4878452171,
				"y": 4.1382937294,
				"z": -2.533270441,
				"element": "H" 
			},
			{
				"x": 2.0063504244,
				"y": 0.610663729,
				"z": -2.2021347249,
				"element": "H" 
			},
			{
				"x": 3.4808453562,
				"y": -2.0379059122,
				"z": 0.156643781,
				"element": "H" 
			},
			{
				"x": -0.5425715771,
				"y": -1.9988061665,
				"z": 1.7873892301,
				"element": "H" 
			}
		],
		 "valence_orbital": [ 
			{
				"type": "occ",
				"energy": -0.2905,
				"method": "rhf"
			},
			{
				"type": "occ",
				"energy": -0.28606,
				"method": "rhf"
			},
			{
				"type": "occ",
				"energy": -0.27417,
				"method": "rhf"
			},
			{
				"type": "occ",
				"energy": -0.25686,
				"method": "rhf"
			},
			{
				"type": "occ",
				"energy": -0.23093,
				"method": "rhf"
			},
			{
				"type": "unocc",
				"energy": -0.05205,
				"method": "rhf"
			},
			{
				"type": "unocc",
				"energy": -0.03037,
				"method": "rhf"
			},
			{
				"type": "unocc",
				"energy": -0.01522,
				"method": "rhf"
			},
			{
				"type": "unocc",
				"energy": 0.02601,
				"method": "rhf"
			},
			{
				"type": "unocc",
				"energy": 0.07549,
				"method": "rhf"
			}
		],
		"cosmo_sigma_profile": { 
			"-0.025": 0.0,
			"-0.024": 0.0,
			"-0.023": 0.0,
			"-0.022": 0.0,
			"-0.021": 0.0,
			"-0.02": 0.0,
			"-0.019": 0.0,
			"-0.018": 0.0,
			"-0.017": 0.0,
			"-0.016": 0.394203815446,
			"-0.015": 0.659678603039,
			"-0.014": 0.760566632379,
			"-0.013": 0.519927758423,
			"-0.012": 0.823113055763,
			"-0.011": 0.877428733645,
			"-0.01": 1.64169466113,
			"-0.009": 3.62152763255,
			"-0.008": 5.03592300054,
			"-0.007": 9.42704371723,
			"-0.006": 10.6695646044,
			"-0.005": 13.7229393892,
			"-0.004": 14.5540949111,
			"-0.003": 16.9386998412,
			"-0.002": 17.5548862004,
			"-0.001": 21.4765168097,
			"0.0": 22.3644092669,
			"0.001": 19.3246853945,
			"0.002": 21.181382521,
			"0.003": 15.325338055,
			"0.004": 15.7772083103,
			"0.005": 5.41610575357,
			"0.006": 5.67303026194,
			"0.007": 3.81880003639,
			"0.008": 5.70470176401,
			"0.009": 7.15264394717,
			"0.01": 5.45955994721,
			"0.011": 4.14357984918,
			"0.012": 2.2878302892,
			"0.013": 0.558303328536,
			"0.014": 0.0,
			"0.015": 0.0,
			"0.016": 0.0,
			"0.017": 0.0,
			"0.018": 0.0,
			"0.019": 0.0,
			"0.02": 0.0,
			"0.021": 0.0,
			"0.022": 0.0,
			"0.023": 0.0,
			"0.024": 0.0,
			"0.025": 0.0
		}
	}
}
