{
	 "smiles": "NC1=CC(CS(N)(=O)=O)=CC=C1", 
	 "Tm": 418.15, 
	 "num_atms": 22, 
	 "gaussian": { 
		 "optdone": 1, 
		 "sigma_profile": "yes", 
		 "theory": "DFT", 
		 "functional": "B3LYP", 
		 "basiset": "6-31G**", 
		 "properties": { 
			 "R2extent": 3355.052, 
			 "electric_dipole_moment_norm": 4.17288109224, 
			 "electric_quadrupole_moment_norm": 19.2576313489, 
			 "total_energy": -930.85324882, 
			 "HOMO_LUMO_gap": 0.19345, 
			 "cosmo_polarized_energy": -19.81, 
			 "cosmo_cavitation_energy": 27.2, 
			 "cosmo_dispersion_energy": -20.17, 
			 "cosmo_repulsion_energy": 1.59, 
			 "cosmo_total_nonelectrostatic_energy": 8.61, 
			 "SMD_solvation_energy": 4.08 
		},
		"coords": [
			{
				"x": 2.2351743629,
				"y": 1.8305033642,
				"z": 0.7279838845,
				"element": "N" 
			},
			{
				"x": 1.0036863797,
				"y": 1.254507451,
				"z": 0.4224976676,
				"element": "C" 
			},
			{
				"x": 0.8465273967,
				"y": -0.1409334023,
				"z": 0.4245278388,
				"element": "C" 
			},
			{
				"x": -0.4012262521,
				"y": -0.7230426869,
				"z": 0.1800136937,
				"element": "C" 
			},
			{
				"x": -0.548635905,
				"y": -2.2213042445,
				"z": 0.1826687139,
				"element": "C" 
			},
			{
				"x": -0.5257105537,
				"y": -2.9801653727,
				"z": 1.8411651373,
				"element": "S" 
			},
			{
				"x": -1.830485343,
				"y": -2.2105467071,
				"z": 2.6019345113,
				"element": "N" 
			},
			{
				"x": -0.9130664005,
				"y": -4.3873198393,
				"z": 1.6955392537,
				"element": "O" 
			},
			{
				"x": 0.7303667143,
				"y": -2.6043362471,
				"z": 2.5011324585,
				"element": "O" 
			},
			{
				"x": -1.5140643429,
				"y": 0.0898969064,
				"z": -0.0702518152,
				"element": "C" 
			},
			{
				"x": -1.3599532845,
				"y": 1.4768284008,
				"z": -0.0825985264,
				"element": "C" 
			},
			{
				"x": -0.1196358518,
				"y": 2.0596678623,
				"z": 0.1594277269,
				"element": "C" 
			},
			{
				"x": 3.040070363,
				"y": 1.2331582631,
				"z": 0.6019155703,
				"element": "H" 
			},
			{
				"x": 2.3856899433,
				"y": 2.7607487588,
				"z": 0.3640162783,
				"element": "H" 
			},
			{
				"x": 1.7005533451,
				"y": -0.7764281136,
				"z": 0.6421299597,
				"element": "H" 
			},
			{
				"x": 0.2774714504,
				"y": -2.7248566284,
				"z": -0.3290245594,
				"element": "H" 
			},
			{
				"x": -1.4891517939,
				"y": -2.5474125432,
				"z": -0.2650517764,
				"element": "H" 
			},
			{
				"x": -2.3481687518,
				"y": -2.9130983832,
				"z": 3.1239296602,
				"element": "H" 
			},
			{
				"x": -1.4995022856,
				"y": -1.4667975818,
				"z": 3.2110583086,
				"element": "H" 
			},
			{
				"x": -2.4849665518,
				"y": -0.3587077079,
				"z": -0.2551446237,
				"element": "H" 
			},
			{
				"x": -2.2167880914,
				"y": 2.1132324693,
				"z": -0.2852381368,
				"element": "H" 
			},
			{
				"x": -0.0128845476,
				"y": 3.141605982,
				"z": 0.1513687747,
				"element": "H" 
			}
		],
		 "valence_orbital": [ 
			{
				"type": "occ",
				"energy": -0.30548,
				"method": "rhf"
			},
			{
				"type": "occ",
				"energy": -0.29513,
				"method": "rhf"
			},
			{
				"type": "occ",
				"energy": -0.28537,
				"method": "rhf"
			},
			{
				"type": "occ",
				"energy": -0.24845,
				"method": "rhf"
			},
			{
				"type": "occ",
				"energy": -0.20798,
				"method": "rhf"
			},
			{
				"type": "unocc",
				"energy": -0.01453,
				"method": "rhf"
			},
			{
				"type": "unocc",
				"energy": 0.00967,
				"method": "rhf"
			},
			{
				"type": "unocc",
				"energy": 0.0589,
				"method": "rhf"
			},
			{
				"type": "unocc",
				"energy": 0.0753,
				"method": "rhf"
			},
			{
				"type": "unocc",
				"energy": 0.0895,
				"method": "rhf"
			}
		],
		"cosmo_sigma_profile": { 
			"-0.025": 0.0,
			"-0.024": 0.0,
			"-0.023": 0.0,
			"-0.022": 0.0,
			"-0.021": 0.0,
			"-0.02": 0.0,
			"-0.019": 0.0,
			"-0.018": 0.0,
			"-0.017": 0.0,
			"-0.016": 0.0,
			"-0.015": 0.906593814594,
			"-0.014": 2.46803497352,
			"-0.013": 2.80320465232,
			"-0.012": 5.27275990785,
			"-0.011": 4.92817625722,
			"-0.01": 4.61860741685,
			"-0.009": 6.14651585607,
			"-0.008": 7.01149385651,
			"-0.007": 8.45215481402,
			"-0.006": 10.4781547016,
			"-0.005": 13.2900892143,
			"-0.004": 11.8131468078,
			"-0.003": 10.7208156271,
			"-0.002": 8.17206407115,
			"-0.001": 9.12679442271,
			"0.0": 7.45924232247,
			"0.001": 7.64335014132,
			"0.002": 8.6737811294,
			"0.003": 8.65837763869,
			"0.004": 8.82483898706,
			"0.005": 11.7891242609,
			"0.006": 12.1093474528,
			"0.007": 6.13416902396,
			"0.008": 5.16443903382,
			"0.009": 4.87157890772,
			"0.01": 6.00240852054,
			"0.011": 12.0927184694,
			"0.012": 7.39866854257,
			"0.013": 1.07233005153,
			"0.014": 0.544893869099,
			"0.015": 0.0670979761084,
			"0.016": 0.0,
			"0.017": 0.0,
			"0.018": 0.0,
			"0.019": 0.0,
			"0.02": 0.0,
			"0.021": 0.0,
			"0.022": 0.0,
			"0.023": 0.0,
			"0.024": 0.0,
			"0.025": 0.0
		}
	}
}
