{
	 "smiles": "CC(=O)C1=CC=C(O)C(=C1)[N+]([O-])=O", 
	 "Tm": 405.15, 
	 "num_atms": 20, 
	 "gaussian": { 
		 "optdone": 1, 
		 "sigma_profile": "yes", 
		 "theory": "DFT", 
		 "functional": "B3LYP", 
		 "basiset": "6-31G**", 
		 "properties": { 
			 "R2extent": 3128.3501, 
			 "electric_dipole_moment_norm": 0.472035983798, 
			 "electric_quadrupole_moment_norm": 16.6865121167, 
			 "total_energy": -664.626203069, 
			 "HOMO_LUMO_gap": 0.15134, 
			 "cosmo_polarized_energy": -10.99, 
			 "cosmo_cavitation_energy": 25.13, 
			 "cosmo_dispersion_energy": -18.6, 
			 "cosmo_repulsion_energy": 1.45, 
			 "cosmo_total_nonelectrostatic_energy": 7.99, 
			 "SMD_solvation_energy": 7.52 
		},
		"coords": [
			{
				"x": -1.8190004125,
				"y": 2.4962623174,
				"z": -3.3336129128,
				"element": "C" 
			},
			{
				"x": -0.6223840817,
				"y": 2.9157775447,
				"z": -2.4992017556,
				"element": "C" 
			},
			{
				"x": -0.1982966158,
				"y": 4.0608245401,
				"z": -2.5372125108,
				"element": "O" 
			},
			{
				"x": 0.039138265,
				"y": 1.8998852487,
				"z": -1.6199937495,
				"element": "C" 
			},
			{
				"x": 1.1538363332,
				"y": 2.3032984088,
				"z": -0.8469504096,
				"element": "C" 
			},
			{
				"x": 1.8121376132,
				"y": 1.4220194989,
				"z": -0.0154485648,
				"element": "C" 
			},
			{
				"x": 1.390060362,
				"y": 0.0805048206,
				"z": 0.089912781,
				"element": "C" 
			},
			{
				"x": 2.0587822184,
				"y": -0.7297044222,
				"z": 0.9059434002,
				"element": "O" 
			},
			{
				"x": 0.2717937346,
				"y": -0.3200905527,
				"z": -0.6869188818,
				"element": "C" 
			},
			{
				"x": -0.3904287479,
				"y": 0.5824587183,
				"z": -1.5286998253,
				"element": "C" 
			},
			{
				"x": -0.2164442526,
				"y": -1.6809344329,
				"z": -0.6288097248,
				"element": "N" 
			},
			{
				"x": -1.1833861219,
				"y": -2.000798844,
				"z": -1.3092458448,
				"element": "O" 
			},
			{
				"x": 0.3766012751,
				"y": -2.4885750062,
				"z": 0.1247206888,
				"element": "O" 
			},
			{
				"x": -2.6339839735,
				"y": 2.1313182015,
				"z": -2.6987714582,
				"element": "H" 
			},
			{
				"x": -1.5544800338,
				"y": 1.6873855451,
				"z": -4.0236476963,
				"element": "H" 
			},
			{
				"x": -2.1646396915,
				"y": 3.3584453336,
				"z": -3.9041121495,
				"element": "H" 
			},
			{
				"x": 1.4763111212,
				"y": 3.3359401169,
				"z": -0.9301061426,
				"element": "H" 
			},
			{
				"x": 2.6667300725,
				"y": 1.7262978891,
				"z": 0.5788776689,
				"element": "H" 
			},
			{
				"x": 1.6188934938,
				"y": -1.6135819683,
				"z": 0.8434985562,
				"element": "H" 
			},
			{
				"x": -1.2361405578,
				"y": 0.2110670426,
				"z": -2.0932214688,
				"element": "H" 
			}
		],
		 "valence_orbital": [ 
			{
				"type": "occ",
				"energy": -0.33011,
				"method": "rhf"
			},
			{
				"type": "occ",
				"energy": -0.31648,
				"method": "rhf"
			},
			{
				"type": "occ",
				"energy": -0.29673,
				"method": "rhf"
			},
			{
				"type": "occ",
				"energy": -0.26271,
				"method": "rhf"
			},
			{
				"type": "occ",
				"energy": -0.26078,
				"method": "rhf"
			},
			{
				"type": "unocc",
				"energy": -0.10944,
				"method": "rhf"
			},
			{
				"type": "unocc",
				"energy": -0.06784,
				"method": "rhf"
			},
			{
				"type": "unocc",
				"energy": -0.01972,
				"method": "rhf"
			},
			{
				"type": "unocc",
				"energy": 0.03084,
				"method": "rhf"
			},
			{
				"type": "unocc",
				"energy": 0.07415,
				"method": "rhf"
			}
		],
		"cosmo_sigma_profile": { 
			"-0.025": 0.0,
			"-0.024": 0.0,
			"-0.023": 0.0,
			"-0.022": 0.0,
			"-0.021": 0.0,
			"-0.02": 0.0,
			"-0.019": 0.0,
			"-0.018": 0.0,
			"-0.017": 0.0,
			"-0.016": 0.0,
			"-0.015": 0.0,
			"-0.014": 0.0,
			"-0.013": 0.0,
			"-0.012": 0.0,
			"-0.011": 0.193052846835,
			"-0.01": 0.613862949615,
			"-0.009": 0.696689090738,
			"-0.008": 6.25725520089,
			"-0.007": 12.0133438026,
			"-0.006": 14.2104771316,
			"-0.005": 11.8203960746,
			"-0.004": 12.611601876,
			"-0.003": 14.6252964459,
			"-0.002": 17.5387047483,
			"-0.001": 18.2947108072,
			"0.0": 16.9139563344,
			"0.001": 10.7387585425,
			"0.002": 7.54232744363,
			"0.003": 5.3340785877,
			"0.004": 4.90176477737,
			"0.005": 6.59220141041,
			"0.006": 6.50196218691,
			"0.007": 9.70730891088,
			"0.008": 7.02818899408,
			"0.009": 7.01303833519,
			"0.01": 2.7507311549,
			"0.011": 3.67196175816,
			"0.012": 2.94708231302,
			"0.013": 1.04165646376,
			"0.014": 0.00470266462749,
			"0.015": 0.0,
			"0.016": 0.0,
			"0.017": 0.0,
			"0.018": 0.0,
			"0.019": 0.0,
			"0.02": 0.0,
			"0.021": 0.0,
			"0.022": 0.0,
			"0.023": 0.0,
			"0.024": 0.0,
			"0.025": 0.0
		}
	}
}
