{
	 "smiles": "NC1=NN=C(C=C1)C1=CC=CC=C1", 
	 "Tm": 419.15, 
	 "num_atms": 22, 
	 "gaussian": { 
		 "optdone": 1, 
		 "sigma_profile": "yes", 
		 "theory": "DFT", 
		 "functional": "B3LYP", 
		 "basiset": "6-31G**", 
		 "properties": { 
			 "R2extent": 3046.2349, 
			 "electric_dipole_moment_norm": 3.8528368795, 
			 "electric_quadrupole_moment_norm": 17.2710165894, 
			 "total_energy": -550.716526751, 
			 "HOMO_LUMO_gap": 0.1698, 
			 "cosmo_polarized_energy": -15.63, 
			 "cosmo_cavitation_energy": 26.29, 
			 "cosmo_dispersion_energy": -19.82, 
			 "cosmo_repulsion_energy": 1.55, 
			 "cosmo_total_nonelectrostatic_energy": 8.03, 
			 "SMD_solvation_energy": 2.78 
		},
		"coords": [
			{
				"x": -3.6381085895,
				"y": -1.0092223694,
				"z": -3.2857555072,
				"element": "N" 
			},
			{
				"x": -2.6559655668,
				"y": -0.9497428289,
				"z": -2.320683072,
				"element": "C" 
			},
			{
				"x": -1.7230381805,
				"y": 0.0019885425,
				"z": -2.4942143502,
				"element": "N" 
			},
			{
				"x": -0.7788845651,
				"y": 0.1834928585,
				"z": -1.5816236065,
				"element": "N" 
			},
			{
				"x": -0.7136618312,
				"y": -0.5825159524,
				"z": -0.4823929083,
				"element": "C" 
			},
			{
				"x": -1.6494905245,
				"y": -1.6191274514,
				"z": -0.272795865,
				"element": "C" 
			},
			{
				"x": -2.6470679817,
				"y": -1.8067141952,
				"z": -1.2006277197,
				"element": "C" 
			},
			{
				"x": 0.3930097307,
				"y": -0.2920799665,
				"z": 0.4639318927,
				"element": "C" 
			},
			{
				"x": 0.3530200271,
				"y": -0.7239318427,
				"z": 1.7997745477,
				"element": "C" 
			},
			{
				"x": 1.4050773853,
				"y": -0.4464051243,
				"z": 2.6722881057,
				"element": "C" 
			},
			{
				"x": 2.5157534006,
				"y": 0.2716962889,
				"z": 2.2275494115,
				"element": "C" 
			},
			{
				"x": 2.5618677255,
				"y": 0.7150038416,
				"z": 0.9031681675,
				"element": "C" 
			},
			{
				"x": 1.5131398939,
				"y": 0.4382102284,
				"z": 0.0301455715,
				"element": "C" 
			},
			{
				"x": -4.0872064286,
				"y": -1.8991047646,
				"z": -3.4415021716,
				"element": "H" 
			},
			{
				"x": -3.4167018933,
				"y": -0.4885963976,
				"z": -4.1239718022,
				"element": "H" 
			},
			{
				"x": -1.575917008,
				"y": -2.2693507125,
				"z": 0.5921223977,
				"element": "H" 
			},
			{
				"x": -3.3950859402,
				"y": -2.5860867182,
				"z": -1.0860875236,
				"element": "H" 
			},
			{
				"x": -0.5130735049,
				"y": -1.2605021509,
				"z": 2.1755691438,
				"element": "H" 
			},
			{
				"x": 1.3513543808,
				"y": -0.785541512,
				"z": 3.7029895706,
				"element": "H" 
			},
			{
				"x": 3.3353901516,
				"y": 0.4875954111,
				"z": 2.9068684286,
				"element": "H" 
			},
			{
				"x": 3.4211455286,
				"y": 1.2768923696,
				"z": 0.5477365509,
				"element": "H" 
			},
			{
				"x": 1.5395437902,
				"y": 0.782042446,
				"z": -0.9974892618,
				"element": "H" 
			}
		],
		 "valence_orbital": [ 
			{
				"type": "occ",
				"energy": -0.30038,
				"method": "rhf"
			},
			{
				"type": "occ",
				"energy": -0.26129,
				"method": "rhf"
			},
			{
				"type": "occ",
				"energy": -0.24634,
				"method": "rhf"
			},
			{
				"type": "occ",
				"energy": -0.22214,
				"method": "rhf"
			},
			{
				"type": "occ",
				"energy": -0.21238,
				"method": "rhf"
			},
			{
				"type": "unocc",
				"energy": -0.04258,
				"method": "rhf"
			},
			{
				"type": "unocc",
				"energy": -0.03014,
				"method": "rhf"
			},
			{
				"type": "unocc",
				"energy": 0.00483,
				"method": "rhf"
			},
			{
				"type": "unocc",
				"energy": 0.03598,
				"method": "rhf"
			},
			{
				"type": "unocc",
				"energy": 0.078,
				"method": "rhf"
			}
		],
		"cosmo_sigma_profile": { 
			"-0.025": 0.0,
			"-0.024": 0.0,
			"-0.023": 0.0,
			"-0.022": 0.0,
			"-0.021": 0.0,
			"-0.02": 0.0,
			"-0.019": 0.0,
			"-0.018": 0.0,
			"-0.017": 0.0,
			"-0.016": 0.0,
			"-0.015": 0.0,
			"-0.014": 0.770093879734,
			"-0.013": 2.29105106002,
			"-0.012": 2.90017446606,
			"-0.011": 2.35232446062,
			"-0.01": 2.90929544946,
			"-0.009": 3.56821964028,
			"-0.008": 6.19261384639,
			"-0.007": 6.13021925335,
			"-0.006": 9.62641218947,
			"-0.005": 12.5451133026,
			"-0.004": 13.2912641631,
			"-0.003": 12.4248446794,
			"-0.002": 9.50728188605,
			"-0.001": 11.836032024,
			"0.0": 14.9937393042,
			"0.001": 17.5239152001,
			"0.002": 14.0199579024,
			"0.003": 11.5303970107,
			"0.004": 11.5121994385,
			"0.005": 14.0844712273,
			"0.006": 8.55478574476,
			"0.007": 3.12922579387,
			"0.008": 2.26362597268,
			"0.009": 2.00120068047,
			"0.01": 3.31895398406,
			"0.011": 2.27407469542,
			"0.012": 1.85804977332,
			"0.013": 1.90650433694,
			"0.014": 2.49678461054,
			"0.015": 2.23798228579,
			"0.016": 0.814857890703,
			"0.017": 0.085163039603,
			"0.018": 0.0,
			"0.019": 0.0,
			"0.02": 0.0,
			"0.021": 0.0,
			"0.022": 0.0,
			"0.023": 0.0,
			"0.024": 0.0,
			"0.025": 0.0
		}
	}
}
