{
	 "smiles": "COC1=CC=C(C=C1)C(=O)CN1C=C(N=C1C)[N+]([O-])=O", 
	 "Tm": 524.15, 
	 "num_atms": 33, 
	 "gaussian": { 
		 "optdone": 1, 
		 "sigma_profile": "yes", 
		 "theory": "DFT", 
		 "functional": "B3LYP", 
		 "basiset": "6-31G**", 
		 "properties": { 
			 "R2extent": 7763.968, 
			 "electric_dipole_moment_norm": 9.523180747, 
			 "electric_quadrupole_moment_norm": 38.7678545326, 
			 "total_energy": -968.25121054, 
			 "HOMO_LUMO_gap": 0.16647, 
			 "cosmo_polarized_energy": -24.58, 
			 "cosmo_cavitation_energy": 38.78, 
			 "cosmo_dispersion_energy": -27.18, 
			 "cosmo_repulsion_energy": 2.08, 
			 "cosmo_total_nonelectrostatic_energy": 13.68, 
			 "SMD_solvation_energy": 8.83 
		},
		"coords": [
			{
				"x": 0.9308013121,
				"y": -3.4409027136,
				"z": 5.5577431965,
				"element": "C" 
			},
			{
				"x": 1.4309871435,
				"y": -3.232748239,
				"z": 4.2402446286,
				"element": "O" 
			},
			{
				"x": 0.5989084751,
				"y": -2.7361601273,
				"z": 3.2965111214,
				"element": "C" 
			},
			{
				"x": -0.751770482,
				"y": -2.4122335477,
				"z": 3.5124612394,
				"element": "C" 
			},
			{
				"x": -1.5091313952,
				"y": -1.9076618982,
				"z": 2.4642351043,
				"element": "C" 
			},
			{
				"x": -0.9578080912,
				"y": -1.7094898731,
				"z": 1.1861663635,
				"element": "C" 
			},
			{
				"x": 0.3978352069,
				"y": -2.0424406315,
				"z": 0.9882001366,
				"element": "C" 
			},
			{
				"x": 1.1660247133,
				"y": -2.5477813494,
				"z": 2.0238378224,
				"element": "C" 
			},
			{
				"x": -1.8431767099,
				"y": -1.1619246087,
				"z": 0.1341461568,
				"element": "C" 
			},
			{
				"x": -3.0289984564,
				"y": -0.9334309491,
				"z": 0.3360417665,
				"element": "O" 
			},
			{
				"x": -1.2777373635,
				"y": -0.8165807174,
				"z": -1.2633567558,
				"element": "C" 
			},
			{
				"x": -0.9586232987,
				"y": 0.6073298523,
				"z": -1.3582424993,
				"element": "N" 
			},
			{
				"x": 0.2521467439,
				"y": 1.1797987653,
				"z": -1.056409227,
				"element": "C" 
			},
			{
				"x": 0.0478055015,
				"y": 2.5244799062,
				"z": -1.242971441,
				"element": "C" 
			},
			{
				"x": -1.2256586917,
				"y": 2.8049106592,
				"z": -1.6375373677,
				"element": "N" 
			},
			{
				"x": -1.8280406017,
				"y": 1.6361948495,
				"z": -1.6983953911,
				"element": "C" 
			},
			{
				"x": -3.2503563289,
				"y": 1.415172678,
				"z": -2.0958833147,
				"element": "C" 
			},
			{
				"x": 1.0515184137,
				"y": 3.5409015381,
				"z": -1.0534274481,
				"element": "N" 
			},
			{
				"x": 0.7433572727,
				"y": 4.7117341477,
				"z": -1.2485045096,
				"element": "O" 
			},
			{
				"x": 2.1696076603,
				"y": 3.1420299365,
				"z": -0.7005992418,
				"element": "O" 
			},
			{
				"x": 1.7683850401,
				"y": -3.8339723406,
				"z": 6.1344388388,
				"element": "H" 
			},
			{
				"x": 0.1114694636,
				"y": -4.1694647799,
				"z": 5.5643960469,
				"element": "H" 
			},
			{
				"x": 0.5882285198,
				"y": -2.5020505617,
				"z": 6.0083757444,
				"element": "H" 
			},
			{
				"x": -1.2085859827,
				"y": -2.5484933381,
				"z": 4.4851330087,
				"element": "H" 
			},
			{
				"x": -2.5524017376,
				"y": -1.6512239258,
				"z": 2.6142724622,
				"element": "H" 
			},
			{
				"x": 0.8680461183,
				"y": -1.9145041373,
				"z": 0.0190263166,
				"element": "H" 
			},
			{
				"x": 2.2095046132,
				"y": -2.8060448191,
				"z": 1.8800698936,
				"element": "H" 
			},
			{
				"x": -2.0585222522,
				"y": -1.046494774,
				"z": -1.9899281126,
				"element": "H" 
			},
			{
				"x": -0.3870935009,
				"y": -1.3875293661,
				"z": -1.5273594539,
				"element": "H" 
			},
			{
				"x": 1.1199004193,
				"y": 0.6214488505,
				"z": -0.7479748524,
				"element": "H" 
			},
			{
				"x": -3.7245845563,
				"y": 2.3901814831,
				"z": -2.211651674,
				"element": "H" 
			},
			{
				"x": -3.7880320573,
				"y": 0.8321756731,
				"z": -1.3432134805,
				"element": "H" 
			},
			{
				"x": -3.3242051111,
				"y": 0.8834743582,
				"z": -3.0529450777,
				"element": "H" 
			}
		],
		 "valence_orbital": [ 
			{
				"type": "occ",
				"energy": -0.28241,
				"method": "rhf"
			},
			{
				"type": "occ",
				"energy": -0.27027,
				"method": "rhf"
			},
			{
				"type": "occ",
				"energy": -0.26795,
				"method": "rhf"
			},
			{
				"type": "occ",
				"energy": -0.24995,
				"method": "rhf"
			},
			{
				"type": "occ",
				"energy": -0.24427,
				"method": "rhf"
			},
			{
				"type": "unocc",
				"energy": -0.0778,
				"method": "rhf"
			},
			{
				"type": "unocc",
				"energy": -0.06272,
				"method": "rhf"
			},
			{
				"type": "unocc",
				"energy": -0.0301,
				"method": "rhf"
			},
			{
				"type": "unocc",
				"energy": 0.00685,
				"method": "rhf"
			},
			{
				"type": "unocc",
				"energy": 0.02546,
				"method": "rhf"
			}
		],
		"cosmo_sigma_profile": { 
			"-0.025": 0.0,
			"-0.024": 0.0,
			"-0.023": 0.0,
			"-0.022": 0.0,
			"-0.021": 0.0,
			"-0.02": 0.0,
			"-0.019": 0.0,
			"-0.018": 0.0,
			"-0.017": 0.0,
			"-0.016": 0.0,
			"-0.015": 0.0,
			"-0.014": 0.0815897297466,
			"-0.013": 0.708443587823,
			"-0.012": 1.01231448084,
			"-0.011": 1.67673986702,
			"-0.01": 3.37489462158,
			"-0.009": 4.61340298782,
			"-0.008": 7.09963645197,
			"-0.007": 12.6122821598,
			"-0.006": 21.9029099425,
			"-0.005": 23.7778097826,
			"-0.004": 22.4022925807,
			"-0.003": 21.4414138234,
			"-0.002": 22.2676129502,
			"-0.001": 21.4150761471,
			"0.0": 16.0721600027,
			"0.001": 14.7460059634,
			"0.002": 19.0046004867,
			"0.003": 19.3549426461,
			"0.004": 9.5008987949,
			"0.005": 6.13357040411,
			"0.006": 6.35588742172,
			"0.007": 7.74241603721,
			"0.008": 14.1776145923,
			"0.009": 11.2698738007,
			"0.01": 8.51034233625,
			"0.011": 5.71214536668,
			"0.012": 2.44453491025,
			"0.013": 1.09265634797,
			"0.014": 1.32424940355,
			"0.015": 1.35403364853,
			"0.016": 0.801113893649,
			"0.017": 0.0481022252506,
			"0.018": 0.0,
			"0.019": 0.0,
			"0.02": 0.0,
			"0.021": 0.0,
			"0.022": 0.0,
			"0.023": 0.0,
			"0.024": 0.0,
			"0.025": 0.0
		}
	}
}
