{
	 "smiles": "NC(=O)N1CCC(O)CC1", 
	 "Tm": 421.15, 
	 "num_atms": 22, 
	 "gaussian": { 
		 "optdone": 1, 
		 "sigma_profile": "yes", 
		 "theory": "DFT", 
		 "functional": "B3LYP", 
		 "basiset": "6-31G**", 
		 "properties": { 
			 "R2extent": 1934.3934, 
			 "electric_dipole_moment_norm": 3.11360585014, 
			 "electric_quadrupole_moment_norm": 17.3743299666, 
			 "total_energy": -495.836878538, 
			 "HOMO_LUMO_gap": 0.28656, 
			 "cosmo_polarized_energy": -16.73, 
			 "cosmo_cavitation_energy": 23.56, 
			 "cosmo_dispersion_energy": -17.8, 
			 "cosmo_repulsion_energy": 1.46, 
			 "cosmo_total_nonelectrostatic_energy": 7.22, 
			 "SMD_solvation_energy": 3.81 
		},
		"coords": [
			{
				"x": -0.1673379473,
				"y": 0.9857113456,
				"z": 3.130861028,
				"element": "N" 
			},
			{
				"x": 1.0393303627,
				"y": 0.7991950654,
				"z": 2.4530176178,
				"element": "C" 
			},
			{
				"x": 2.1139854816,
				"y": 0.7775548321,
				"z": 3.0479028084,
				"element": "O" 
			},
			{
				"x": 0.937150402,
				"y": 0.6889307485,
				"z": 1.0853609328,
				"element": "N" 
			},
			{
				"x": -0.3202191041,
				"y": 0.8614134796,
				"z": 0.3494131443,
				"element": "C" 
			},
			{
				"x": -0.0310321736,
				"y": 1.2666937449,
				"z": -1.0975982305,
				"element": "C" 
			},
			{
				"x": 0.806439193,
				"y": 0.2174845991,
				"z": -1.8419594501,
				"element": "C" 
			},
			{
				"x": -0.1107759001,
				"y": -0.7394181732,
				"z": -2.3752548903,
				"element": "O" 
			},
			{
				"x": 1.8310273677,
				"y": -0.4496583504,
				"z": -0.8907568424,
				"element": "C" 
			},
			{
				"x": 2.159218053,
				"y": 0.4233995512,
				"z": 0.3227689869,
				"element": "C" 
			},
			{
				"x": -0.988339141,
				"y": 0.51042229,
				"z": 2.7821548983,
				"element": "H" 
			},
			{
				"x": -0.036797509,
				"y": 0.8920253203,
				"z": 4.1285477663,
				"element": "H" 
			},
			{
				"x": -0.9146481325,
				"y": -0.0660882358,
				"z": 0.3497859234,
				"element": "H" 
			},
			{
				"x": -0.9150601441,
				"y": 1.6387960123,
				"z": 0.8393078458,
				"element": "H" 
			},
			{
				"x": 0.500002408,
				"y": 2.2248670412,
				"z": -1.0993724825,
				"element": "H" 
			},
			{
				"x": -0.9697792436,
				"y": 1.4109539042,
				"z": -1.6404630017,
				"element": "H" 
			},
			{
				"x": 1.3378064827,
				"y": 0.7203373526,
				"z": -2.6653173383,
				"element": "H" 
			},
			{
				"x": 0.4019897917,
				"y": -1.4465518433,
				"z": -2.788058858,
				"element": "H" 
			},
			{
				"x": 2.7535051342,
				"y": -0.7056182972,
				"z": -1.4242912258,
				"element": "H" 
			},
			{
				"x": 1.3861632946,
				"y": -1.3865040033,
				"z": -0.5337708461,
				"element": "H" 
			},
			{
				"x": 2.862450247,
				"y": -0.0702075983,
				"z": 0.9947131658,
				"element": "H" 
			},
			{
				"x": 2.6359210771,
				"y": 1.3625612145,
				"z": 0.003209048,
				"element": "H" 
			}
		],
		 "valence_orbital": [ 
			{
				"type": "occ",
				"energy": -0.31802,
				"method": "rhf"
			},
			{
				"type": "occ",
				"energy": -0.27151,
				"method": "rhf"
			},
			{
				"type": "occ",
				"energy": -0.26386,
				"method": "rhf"
			},
			{
				"type": "occ",
				"energy": -0.24105,
				"method": "rhf"
			},
			{
				"type": "occ",
				"energy": -0.22501,
				"method": "rhf"
			},
			{
				"type": "unocc",
				"energy": 0.06155,
				"method": "rhf"
			},
			{
				"type": "unocc",
				"energy": 0.07154,
				"method": "rhf"
			},
			{
				"type": "unocc",
				"energy": 0.08445,
				"method": "rhf"
			},
			{
				"type": "unocc",
				"energy": 0.09327,
				"method": "rhf"
			},
			{
				"type": "unocc",
				"energy": 0.11453,
				"method": "rhf"
			}
		],
		"cosmo_sigma_profile": { 
			"-0.025": 0.0,
			"-0.024": 0.0,
			"-0.023": 0.0,
			"-0.022": 0.0,
			"-0.021": 0.0,
			"-0.02": 0.0,
			"-0.019": 0.0,
			"-0.018": 0.0,
			"-0.017": 0.0,
			"-0.016": 0.0306392197323,
			"-0.015": 0.838054086427,
			"-0.014": 0.965621951717,
			"-0.013": 1.91692402301,
			"-0.012": 2.75201425996,
			"-0.011": 3.71950425661,
			"-0.01": 2.79203551776,
			"-0.009": 2.96201315031,
			"-0.008": 3.87274743391,
			"-0.007": 3.17580922908,
			"-0.006": 3.73821206106,
			"-0.005": 4.91292996896,
			"-0.004": 18.869174004,
			"-0.003": 25.4891509134,
			"-0.002": 19.5713715018,
			"-0.001": 14.7214099619,
			"0.0": 9.35932247129,
			"0.001": 6.05431100088,
			"0.002": 6.06549685969,
			"0.003": 4.79547910976,
			"0.004": 3.63129592693,
			"0.005": 4.06056123095,
			"0.006": 2.93664279934,
			"0.007": 3.89688147029,
			"0.008": 3.05746465466,
			"0.009": 3.53094146931,
			"0.01": 2.9930875735,
			"0.011": 3.004360796,
			"0.012": 3.63231321469,
			"0.013": 2.71111560448,
			"0.014": 4.66833586308,
			"0.015": 6.43166913892,
			"0.016": 0.887607333585,
			"0.017": 0.0,
			"0.018": 0.0,
			"0.019": 0.0,
			"0.02": 0.0,
			"0.021": 0.0,
			"0.022": 0.0,
			"0.023": 0.0,
			"0.024": 0.0,
			"0.025": 0.0
		}
	}
}
