{
	 "smiles": "CC(C)(C)C1=CC=C(C=C1)C(=O)NC1=C(N)C=CC=C1", 
	 "Tm": 449.15, 
	 "num_atms": 40, 
	 "gaussian": { 
		 "optdone": 1, 
		 "sigma_profile": "yes", 
		 "theory": "DFT", 
		 "functional": "B3LYP", 
		 "basiset": "6-31G**", 
		 "properties": { 
			 "R2extent": 9565.0577, 
			 "electric_dipole_moment_norm": 4.35662559557, 
			 "electric_quadrupole_moment_norm": 22.6420139193, 
			 "total_energy": -844.629759242, 
			 "HOMO_LUMO_gap": 0.16629, 
			 "cosmo_polarized_energy": -15.57, 
			 "cosmo_cavitation_energy": 41.88, 
			 "cosmo_dispersion_energy": -29.86, 
			 "cosmo_repulsion_energy": 2.25, 
			 "cosmo_total_nonelectrostatic_energy": 14.27, 
			 "SMD_solvation_energy": 7.62 
		},
		"coords": [
			{
				"x": -0.9979636142,
				"y": 3.3682569879,
				"z": -2.6478255236,
				"element": "C" 
			},
			{
				"x": -1.237157062,
				"y": 3.5156107669,
				"z": -1.1259461886,
				"element": "C" 
			},
			{
				"x": -0.4868250787,
				"y": 4.7703803576,
				"z": -0.6405522471,
				"element": "C" 
			},
			{
				"x": -2.7478384372,
				"y": 3.7240697591,
				"z": -0.8620181451,
				"element": "C" 
			},
			{
				"x": -0.7649892505,
				"y": 2.2381094003,
				"z": -0.4094295994,
				"element": "C" 
			},
			{
				"x": 0.2300165286,
				"y": 2.2396440887,
				"z": 0.5792018467,
				"element": "C" 
			},
			{
				"x": 0.6325197913,
				"y": 1.0631150275,
				"z": 1.2084488094,
				"element": "C" 
			},
			{
				"x": 0.0637075033,
				"y": -0.1673447228,
				"z": 0.8651844544,
				"element": "C" 
			},
			{
				"x": -0.9415504282,
				"y": -0.1809761915,
				"z": -0.1133766499,
				"element": "C" 
			},
			{
				"x": -1.3429050766,
				"y": 0.9980026482,
				"z": -0.7336735731,
				"element": "C" 
			},
			{
				"x": 0.5597183775,
				"y": -1.3836060182,
				"z": 1.5973386734,
				"element": "C" 
			},
			{
				"x": 1.1888094065,
				"y": -1.2814441886,
				"z": 2.6472296249,
				"element": "O" 
			},
			{
				"x": 0.2589372804,
				"y": -2.5887873777,
				"z": 1.0043383099,
				"element": "N" 
			},
			{
				"x": 0.6287998274,
				"y": -3.8853007424,
				"z": 1.4140534944,
				"element": "C" 
			},
			{
				"x": 0.0444417491,
				"y": -4.9491290477,
				"z": 0.6864033012,
				"element": "C" 
			},
			{
				"x": -0.878351616,
				"y": -4.6206947283,
				"z": -0.3492042201,
				"element": "N" 
			},
			{
				"x": 0.4226197525,
				"y": -6.2618424419,
				"z": 0.9696675986,
				"element": "C" 
			},
			{
				"x": 1.3508590808,
				"y": -6.5347144598,
				"z": 1.9762028881,
				"element": "C" 
			},
			{
				"x": 1.8886495581,
				"y": -5.4853536115,
				"z": 2.7196270118,
				"element": "C" 
			},
			{
				"x": 1.5357059448,
				"y": -4.1630043663,
				"z": 2.4441423255,
				"element": "C" 
			},
			{
				"x": 0.0655285573,
				"y": 3.2253880052,
				"z": -2.8654873286,
				"element": "H" 
			},
			{
				"x": -1.5417163438,
				"y": 2.5159029227,
				"z": -3.0658652638,
				"element": "H" 
			},
			{
				"x": -1.3346463948,
				"y": 4.2684402953,
				"z": -3.1741843238,
				"element": "H" 
			},
			{
				"x": -0.6416994323,
				"y": 4.9507245908,
				"z": 0.4282017996,
				"element": "H" 
			},
			{
				"x": 0.5902652589,
				"y": 4.6979902236,
				"z": -0.8233819072,
				"element": "H" 
			},
			{
				"x": -0.854091496,
				"y": 5.6497188429,
				"z": -1.1793777892,
				"element": "H" 
			},
			{
				"x": -2.9467791267,
				"y": 3.8358639918,
				"z": 0.208810502,
				"element": "H" 
			},
			{
				"x": -3.3458941451,
				"y": 2.8837461653,
				"z": -1.2268485479,
				"element": "H" 
			},
			{
				"x": -3.1007261369,
				"y": 4.6288061451,
				"z": -1.3696481667,
				"element": "H" 
			},
			{
				"x": 0.7053624722,
				"y": 3.1684015073,
				"z": 0.8725021012,
				"element": "H" 
			},
			{
				"x": 1.3953234654,
				"y": 1.0770216011,
				"z": 1.9795490069,
				"element": "H" 
			},
			{
				"x": -1.4460400556,
				"y": -1.1046603176,
				"z": -0.3841846685,
				"element": "H" 
			},
			{
				"x": -2.1287913501,
				"y": 0.9475265608,
				"z": -1.4813377363,
				"element": "H" 
			},
			{
				"x": -0.1350139404,
				"y": -2.5714237435,
				"z": 0.0717432305,
				"element": "H" 
			},
			{
				"x": -1.1158112662,
				"y": -5.4324079169,
				"z": -0.9088822491,
				"element": "H" 
			},
			{
				"x": -1.741264587,
				"y": -4.2311059978,
				"z": 0.0245491337,
				"element": "H" 
			},
			{
				"x": -0.0262085283,
				"y": -7.0744870253,
				"z": 0.4026851461,
				"element": "H" 
			},
			{
				"x": 1.6340100657,
				"y": -7.5617831518,
				"z": 2.1859989606,
				"element": "H" 
			},
			{
				"x": 2.5977729174,
				"y": -5.6884472332,
				"z": 3.5165778659,
				"element": "H" 
			},
			{
				"x": 1.9550158297,
				"y": -3.3393066057,
				"z": 3.0042680434,
				"element": "H" 
			}
		],
		 "valence_orbital": [ 
			{
				"type": "occ",
				"energy": -0.25521,
				"method": "rhf"
			},
			{
				"type": "occ",
				"energy": -0.25162,
				"method": "rhf"
			},
			{
				"type": "occ",
				"energy": -0.24161,
				"method": "rhf"
			},
			{
				"type": "occ",
				"energy": -0.2302,
				"method": "rhf"
			},
			{
				"type": "occ",
				"energy": -0.20379,
				"method": "rhf"
			},
			{
				"type": "unocc",
				"energy": -0.0375,
				"method": "rhf"
			},
			{
				"type": "unocc",
				"energy": -0.00618,
				"method": "rhf"
			},
			{
				"type": "unocc",
				"energy": 0.00965,
				"method": "rhf"
			},
			{
				"type": "unocc",
				"energy": 0.01495,
				"method": "rhf"
			},
			{
				"type": "unocc",
				"energy": 0.06154,
				"method": "rhf"
			}
		],
		"cosmo_sigma_profile": { 
			"-0.025": 0.0,
			"-0.024": 0.0,
			"-0.023": 0.0,
			"-0.022": 0.0,
			"-0.021": 0.0,
			"-0.02": 0.0,
			"-0.019": 0.0,
			"-0.018": 0.0,
			"-0.017": 0.0,
			"-0.016": 0.0,
			"-0.015": 0.0,
			"-0.014": 0.0,
			"-0.013": 0.0205719756298,
			"-0.012": 2.0849363722,
			"-0.011": 2.80342709119,
			"-0.01": 3.89426375263,
			"-0.009": 5.34588195212,
			"-0.008": 4.50181542309,
			"-0.007": 4.8931754835,
			"-0.006": 8.24188685523,
			"-0.005": 14.9910142707,
			"-0.004": 17.0105412454,
			"-0.003": 31.4029052993,
			"-0.002": 30.7296713105,
			"-0.001": 28.5055752804,
			"0.0": 28.6404312397,
			"0.001": 35.9373991228,
			"0.002": 22.263095723,
			"0.003": 17.6175239288,
			"0.004": 20.456996231,
			"0.005": 19.8898819569,
			"0.006": 10.6549190607,
			"0.007": 4.18589688317,
			"0.008": 2.3062438729,
			"0.009": 2.95771085214,
			"0.01": 2.29522144394,
			"0.011": 1.84294279283,
			"0.012": 3.23540306362,
			"0.013": 3.13824865468,
			"0.014": 0.793990444871,
			"0.015": 0.0,
			"0.016": 0.0,
			"0.017": 0.0,
			"0.018": 0.0,
			"0.019": 0.0,
			"0.02": 0.0,
			"0.021": 0.0,
			"0.022": 0.0,
			"0.023": 0.0,
			"0.024": 0.0,
			"0.025": 0.0
		}
	}
}
