{
	 "smiles": "CC1=C(N)C=NN1C1=C(C)C=CC(C)=C1", 
	 "Tm": 336.15, 
	 "num_atms": 30, 
	 "gaussian": { 
		 "optdone": 1, 
		 "sigma_profile": "yes", 
		 "theory": "DFT", 
		 "functional": "B3LYP", 
		 "basiset": "6-31G**", 
		 "properties": { 
			 "R2extent": 3550.5717, 
			 "electric_dipole_moment_norm": 2.87914830636, 
			 "electric_quadrupole_moment_norm": 10.4862961154, 
			 "total_energy": -630.561827712, 
			 "HOMO_LUMO_gap": 0.1781, 
			 "cosmo_polarized_energy": -13.19, 
			 "cosmo_cavitation_energy": 32.75, 
			 "cosmo_dispersion_energy": -22.97, 
			 "cosmo_repulsion_energy": 1.8, 
			 "cosmo_total_nonelectrostatic_energy": 11.58, 
			 "SMD_solvation_energy": 5.09 
		},
		"coords": [
			{
				"x": -0.0991338775,
				"y": 2.5120682303,
				"z": 1.4745702139,
				"element": "C" 
			},
			{
				"x": -0.9780857486,
				"y": 1.3105414965,
				"z": 1.3433633467,
				"element": "C" 
			},
			{
				"x": -2.1911372952,
				"y": 1.0267092962,
				"z": 1.9548253529,
				"element": "C" 
			},
			{
				"x": -2.9542699144,
				"y": 1.8751919718,
				"z": 2.7802297101,
				"element": "N" 
			},
			{
				"x": -2.5274462581,
				"y": -0.2745128134,
				"z": 1.5139399702,
				"element": "C" 
			},
			{
				"x": -1.6052750036,
				"y": -0.7763692372,
				"z": 0.6938726756,
				"element": "N" 
			},
			{
				"x": -0.6744511623,
				"y": 0.2002851629,
				"z": 0.5791095993,
				"element": "N" 
			},
			{
				"x": 0.5018920161,
				"y": -0.0430077866,
				"z": -0.1946067888,
				"element": "C" 
			},
			{
				"x": 0.7590041203,
				"y": 0.6895158557,
				"z": -1.366372213,
				"element": "C" 
			},
			{
				"x": -0.192482759,
				"y": 1.7381326956,
				"z": -1.8893191825,
				"element": "C" 
			},
			{
				"x": 1.9376844301,
				"y": 0.383543624,
				"z": -2.0603220245,
				"element": "C" 
			},
			{
				"x": 2.8077174572,
				"y": -0.6140022141,
				"z": -1.627269285,
				"element": "C" 
			},
			{
				"x": 2.5295011697,
				"y": -1.3627089621,
				"z": -0.4761130563,
				"element": "C" 
			},
			{
				"x": 3.4422967111,
				"y": -2.4800942219,
				"z": -0.0287788671,
				"element": "C" 
			},
			{
				"x": 1.3664712628,
				"y": -1.0547665939,
				"z": 0.2333793301,
				"element": "C" 
			},
			{
				"x": 0.9341786777,
				"y": 2.2795069522,
				"z": 1.2034902077,
				"element": "H" 
			},
			{
				"x": -0.0930842062,
				"y": 2.8708798911,
				"z": 2.5111197469,
				"element": "H" 
			},
			{
				"x": -0.4295388752,
				"y": 3.3490527322,
				"z": 0.8464878767,
				"element": "H" 
			},
			{
				"x": -2.3963714834,
				"y": 2.6000195171,
				"z": 3.2176877121,
				"element": "H" 
			},
			{
				"x": -3.4525993917,
				"y": 1.3646902443,
				"z": 3.5002973568,
				"element": "H" 
			},
			{
				"x": -3.4047425235,
				"y": -0.8587245421,
				"z": 1.7612375882,
				"element": "H" 
			},
			{
				"x": -0.0172519022,
				"y": 2.7181712442,
				"z": -1.4298109885,
				"element": "H" 
			},
			{
				"x": -0.0689817666,
				"y": 1.860455114,
				"z": -2.9689914024,
				"element": "H" 
			},
			{
				"x": -1.2323811027,
				"y": 1.4667316408,
				"z": -1.68976229,
				"element": "H" 
			},
			{
				"x": 2.1659372471,
				"y": 0.932634771,
				"z": -2.9704959642,
				"element": "H" 
			},
			{
				"x": 3.7096651485,
				"y": -0.8221476446,
				"z": -2.1978003576,
				"element": "H" 
			},
			{
				"x": 3.3611503554,
				"y": -2.6571884419,
				"z": 1.0476184558,
				"element": "H" 
			},
			{
				"x": 4.4891221452,
				"y": -2.2578300791,
				"z": -0.2583676736,
				"element": "H" 
			},
			{
				"x": 3.1916235066,
				"y": -3.4215136609,
				"z": -0.5334592132,
				"element": "H" 
			},
			{
				"x": 1.1064890222,
				"y": -1.6041642423,
				"z": 1.1329401637,
				"element": "H" 
			}
		],
		 "valence_orbital": [ 
			{
				"type": "occ",
				"energy": -0.2714,
				"method": "rhf"
			},
			{
				"type": "occ",
				"energy": -0.25459,
				"method": "rhf"
			},
			{
				"type": "occ",
				"energy": -0.23548,
				"method": "rhf"
			},
			{
				"type": "occ",
				"energy": -0.22633,
				"method": "rhf"
			},
			{
				"type": "occ",
				"energy": -0.18617,
				"method": "rhf"
			},
			{
				"type": "unocc",
				"energy": -0.00807,
				"method": "rhf"
			},
			{
				"type": "unocc",
				"energy": 0.00058,
				"method": "rhf"
			},
			{
				"type": "unocc",
				"energy": 0.0361,
				"method": "rhf"
			},
			{
				"type": "unocc",
				"energy": 0.07159,
				"method": "rhf"
			},
			{
				"type": "unocc",
				"energy": 0.09399,
				"method": "rhf"
			}
		],
		"cosmo_sigma_profile": { 
			"-0.025": 0.0,
			"-0.024": 0.0,
			"-0.023": 0.0,
			"-0.022": 0.0,
			"-0.021": 0.0,
			"-0.02": 0.0,
			"-0.019": 0.0,
			"-0.018": 0.0,
			"-0.017": 0.0,
			"-0.016": 0.0,
			"-0.015": 0.0,
			"-0.014": 0.0,
			"-0.013": 0.0,
			"-0.012": 0.600379346317,
			"-0.011": 2.2405209234,
			"-0.01": 2.90949294682,
			"-0.009": 3.57274023024,
			"-0.008": 3.38660614047,
			"-0.007": 2.69042518375,
			"-0.006": 6.87166960461,
			"-0.005": 13.9755886067,
			"-0.004": 25.4758238847,
			"-0.003": 23.1162404532,
			"-0.002": 24.6162990486,
			"-0.001": 27.2615398975,
			"0.0": 27.2468112626,
			"0.001": 16.4776062436,
			"0.002": 10.9930652654,
			"0.003": 9.98729503934,
			"0.004": 11.7139969394,
			"0.005": 12.4177043446,
			"0.006": 9.30919754711,
			"0.007": 3.64255362407,
			"0.008": 2.52984020264,
			"0.009": 3.24550801419,
			"0.01": 2.20035976095,
			"0.011": 2.06087523876,
			"0.012": 1.62868637314,
			"0.013": 2.41097769001,
			"0.014": 1.51211653268,
			"0.015": 1.83302575311,
			"0.016": 1.73106461302,
			"0.017": 0.814452456953,
			"0.018": 0.0,
			"0.019": 0.0,
			"0.02": 0.0,
			"0.021": 0.0,
			"0.022": 0.0,
			"0.023": 0.0,
			"0.024": 0.0,
			"0.025": 0.0
		}
	}
}
