{
	 "smiles": "CC1=CC=C(OC2=CC=C(Br)C=C2)N=N1", 
	 "Tm": 393.15, 
	 "num_atms": 24, 
	 "gaussian": { 
		 "optdone": 1, 
		 "sigma_profile": "yes", 
		 "theory": "DFT", 
		 "functional": "B3LYP", 
		 "basiset": "6-31G**", 
		 "properties": { 
			 "R2extent": 8043.336, 
			 "electric_dipole_moment_norm": 4.62471490148, 
			 "electric_quadrupole_moment_norm": 5.6134738772, 
			 "total_energy": -3180.68339092, 
			 "HOMO_LUMO_gap": 0.17185, 
			 "cosmo_polarized_energy": -11.82, 
			 "cosmo_cavitation_energy": 31.51, 
			 "cosmo_dispersion_energy": -23.56, 
			 "cosmo_repulsion_energy": 1.85, 
			 "cosmo_total_nonelectrostatic_energy": 9.81, 
			 "SMD_solvation_energy": 3.19 
		},
		"coords": [
			{
				"x": 0.7655266144,
				"y": 0.2479556129,
				"z": -4.4231190186,
				"element": "C" 
			},
			{
				"x": 0.4488994819,
				"y": 0.6822800488,
				"z": -3.0165595062,
				"element": "C" 
			},
			{
				"x": 0.3688820368,
				"y": 2.0463165835,
				"z": -2.6567029041,
				"element": "C" 
			},
			{
				"x": 0.0743408352,
				"y": 2.3626601709,
				"z": -1.3520210704,
				"element": "C" 
			},
			{
				"x": -0.1269048183,
				"y": 1.2765033648,
				"z": -0.4796034499,
				"element": "C" 
			},
			{
				"x": -0.4467247086,
				"y": 1.5972187546,
				"z": 0.8050737537,
				"element": "O" 
			},
			{
				"x": -0.5672771385,
				"y": 0.6427397578,
				"z": 1.810122483,
				"element": "C" 
			},
			{
				"x": -1.6694773766,
				"y": 0.7837396823,
				"z": 2.6511790535,
				"element": "C" 
			},
			{
				"x": -1.8178021877,
				"y": -0.0605464931,
				"z": 3.7513647445,
				"element": "C" 
			},
			{
				"x": -0.8563379265,
				"y": -1.0395459926,
				"z": 3.9908439088,
				"element": "C" 
			},
			{
				"x": -1.0526787036,
				"y": -2.2054181817,
				"z": 5.4932798028,
				"element": "Br" 
			},
			{
				"x": 0.2487213456,
				"y": -1.1816463748,
				"z": 3.1518417938,
				"element": "C" 
			},
			{
				"x": 0.3989465227,
				"y": -0.3342991591,
				"z": 2.0554162692,
				"element": "C" 
			},
			{
				"x": -0.0419149921,
				"y": 0.0111160236,
				"z": -0.8508477761,
				"element": "N" 
			},
			{
				"x": 0.2489675075,
				"y": -0.2886103328,
				"z": -2.1242909686,
				"element": "N" 
			},
			{
				"x": 0.018557774,
				"y": 0.6228713367,
				"z": -5.1320188148,
				"element": "H" 
			},
			{
				"x": 0.7788905888,
				"y": -0.8419238425,
				"z": -4.4714871355,
				"element": "H" 
			},
			{
				"x": 1.741558952,
				"y": 0.6274090147,
				"z": -4.7463595197,
				"element": "H" 
			},
			{
				"x": 0.5384810158,
				"y": 2.8216694762,
				"z": -3.3983053843,
				"element": "H" 
			},
			{
				"x": -0.0066064586,
				"y": 3.3808287166,
				"z": -0.9876831892,
				"element": "H" 
			},
			{
				"x": -2.4004575617,
				"y": 1.5570725339,
				"z": 2.4405797591,
				"element": "H" 
			},
			{
				"x": -2.671872736,
				"y": 0.0423448811,
				"z": 4.4106141583,
				"element": "H" 
			},
			{
				"x": 0.9888919257,
				"y": -1.9479117691,
				"z": 3.3510886297,
				"element": "H" 
			},
			{
				"x": 1.2482900078,
				"y": -0.4452238125,
				"z": 1.393994381,
				"element": "H" 
			}
		],
		 "valence_orbital": [ 
			{
				"type": "occ",
				"energy": -0.28433,
				"method": "rhf"
			},
			{
				"type": "occ",
				"energy": -0.26557,
				"method": "rhf"
			},
			{
				"type": "occ",
				"energy": -0.26306,
				"method": "rhf"
			},
			{
				"type": "occ",
				"energy": -0.24002,
				"method": "rhf"
			},
			{
				"type": "occ",
				"energy": -0.22567,
				"method": "rhf"
			},
			{
				"type": "unocc",
				"energy": -0.05382,
				"method": "rhf"
			},
			{
				"type": "unocc",
				"energy": -0.02309,
				"method": "rhf"
			},
			{
				"type": "unocc",
				"energy": -0.01361,
				"method": "rhf"
			},
			{
				"type": "unocc",
				"energy": -0.00117,
				"method": "rhf"
			},
			{
				"type": "unocc",
				"energy": 0.00986,
				"method": "rhf"
			}
		],
		"cosmo_sigma_profile": { 
			"-0.025": 0.0,
			"-0.024": 0.0,
			"-0.023": 0.0,
			"-0.022": 0.0,
			"-0.021": 0.0,
			"-0.02": 0.0,
			"-0.019": 0.0,
			"-0.018": 0.0,
			"-0.017": 0.0,
			"-0.016": 0.0,
			"-0.015": 0.0,
			"-0.014": 0.0,
			"-0.013": 0.0,
			"-0.012": 0.0,
			"-0.011": 0.0,
			"-0.01": 0.0,
			"-0.009": 1.09785831782,
			"-0.008": 5.46916516986,
			"-0.007": 10.7252286069,
			"-0.006": 12.4458656901,
			"-0.005": 17.0246940577,
			"-0.004": 15.9680993803,
			"-0.003": 16.300675089,
			"-0.002": 19.3808527194,
			"-0.001": 26.3675176657,
			"0.0": 22.1578220186,
			"0.001": 17.954860537,
			"0.002": 22.0487256876,
			"0.003": 22.1023667258,
			"0.004": 15.1516140948,
			"0.005": 10.6008631776,
			"0.006": 3.33406099485,
			"0.007": 2.19413174029,
			"0.008": 2.09523445072,
			"0.009": 2.27198495546,
			"0.01": 1.7510334298,
			"0.011": 1.60906737247,
			"0.012": 2.14396746096,
			"0.013": 2.62910276576,
			"0.014": 1.96690922589,
			"0.015": 1.20434601404,
			"0.016": 0.639605514445,
			"0.017": 0.0155018280037,
			"0.018": 0.0,
			"0.019": 0.0,
			"0.02": 0.0,
			"0.021": 0.0,
			"0.022": 0.0,
			"0.023": 0.0,
			"0.024": 0.0,
			"0.025": 0.0
		}
	}
}
