{
	 "smiles": "CCCCCC1=CC=C(NC(=O)C2=CC=C(C)C=C2)C=C1", 
	 "Tm": 402.15, 
	 "num_atms": 44, 
	 "gaussian": { 
		 "optdone": 1, 
		 "sigma_profile": "yes", 
		 "theory": "DFT", 
		 "functional": "B3LYP", 
		 "basiset": "6-31G**", 
		 "properties": { 
			 "R2extent": 9667.6791, 
			 "electric_dipole_moment_norm": 3.69927135663, 
			 "electric_quadrupole_moment_norm": 21.9558859764, 
			 "total_energy": -867.901728978, 
			 "HOMO_LUMO_gap": 0.18289, 
			 "cosmo_polarized_energy": -11.75, 
			 "cosmo_cavitation_energy": 46.29, 
			 "cosmo_dispersion_energy": -31.16, 
			 "cosmo_repulsion_energy": 2.44, 
			 "cosmo_total_nonelectrostatic_energy": 17.57, 
			 "SMD_solvation_energy": 7.84 
		},
		"coords": [
			{
				"x": 5.3108480978,
				"y": -0.8250218908,
				"z": -2.2760295317,
				"element": "C" 
			},
			{
				"x": 4.0035129951,
				"y": -1.304990802,
				"z": -1.6343123729,
				"element": "C" 
			},
			{
				"x": 2.9033773027,
				"y": -0.2319955532,
				"z": -1.5488731883,
				"element": "C" 
			},
			{
				"x": 3.2245543821,
				"y": 0.990020837,
				"z": -0.6717020847,
				"element": "C" 
			},
			{
				"x": 3.389195847,
				"y": 0.6952686564,
				"z": 0.8375172434,
				"element": "C" 
			},
			{
				"x": 2.1298364164,
				"y": 0.1885200822,
				"z": 1.5096707439,
				"element": "C" 
			},
			{
				"x": 1.981282161,
				"y": -1.1534352479,
				"z": 1.8811511763,
				"element": "C" 
			},
			{
				"x": 0.8082018009,
				"y": -1.6168165253,
				"z": 2.4759703424,
				"element": "C" 
			},
			{
				"x": -0.2501560009,
				"y": -0.737785166,
				"z": 2.7361973535,
				"element": "C" 
			},
			{
				"x": -1.4033205782,
				"y": -1.2391201856,
				"z": 3.3928901495,
				"element": "N" 
			},
			{
				"x": -2.7251774042,
				"y": -0.821834838,
				"z": 3.3549276487,
				"element": "C" 
			},
			{
				"x": -3.4633535142,
				"y": -1.0740224192,
				"z": 4.3020633501,
				"element": "O" 
			},
			{
				"x": -3.2484947119,
				"y": -0.1415277673,
				"z": 2.1271315627,
				"element": "C" 
			},
			{
				"x": -4.3294436842,
				"y": 0.7367298927,
				"z": 2.285859191,
				"element": "C" 
			},
			{
				"x": -4.9093403714,
				"y": 1.3505302943,
				"z": 1.1801813096,
				"element": "C" 
			},
			{
				"x": -4.450363132,
				"y": 1.0832979621,
				"z": -0.1181827859,
				"element": "C" 
			},
			{
				"x": -5.1089646463,
				"y": 1.719230324,
				"z": -1.3189016948,
				"element": "C" 
			},
			{
				"x": -3.3854712855,
				"y": 0.1849991556,
				"z": -0.2705754423,
				"element": "C" 
			},
			{
				"x": -2.786415345,
				"y": -0.418619799,
				"z": 0.8332767538,
				"element": "C" 
			},
			{
				"x": -0.1055552056,
				"y": 0.6151065695,
				"z": 2.3954036244,
				"element": "C" 
			},
			{
				"x": 1.0617530684,
				"y": 1.0576371841,
				"z": 1.7795155078,
				"element": "C" 
			},
			{
				"x": 5.7917107935,
				"y": -0.0359013758,
				"z": -1.6884436653,
				"element": "H" 
			},
			{
				"x": 5.1329293909,
				"y": -0.4252316566,
				"z": -3.2812785806,
				"element": "H" 
			},
			{
				"x": 6.0292598753,
				"y": -1.6462614643,
				"z": -2.3682466346,
				"element": "H" 
			},
			{
				"x": 3.611935752,
				"y": -2.1503198939,
				"z": -2.214416146,
				"element": "H" 
			},
			{
				"x": 4.2148426234,
				"y": -1.7062744609,
				"z": -0.634540882,
				"element": "H" 
			},
			{
				"x": 2.6823991786,
				"y": 0.1221401163,
				"z": -2.565099388,
				"element": "H" 
			},
			{
				"x": 1.9805845069,
				"y": -0.6986052558,
				"z": -1.1821567645,
				"element": "H" 
			},
			{
				"x": 2.4216825945,
				"y": 1.7279930609,
				"z": -0.7955292994,
				"element": "H" 
			},
			{
				"x": 4.1392574271,
				"y": 1.4779274111,
				"z": -1.0308595388,
				"element": "H" 
			},
			{
				"x": 3.7122742347,
				"y": 1.6206267765,
				"z": 1.3312213275,
				"element": "H" 
			},
			{
				"x": 4.1987324153,
				"y": -0.0278661739,
				"z": 0.988811644,
				"element": "H" 
			},
			{
				"x": 2.7936494026,
				"y": -1.8524142192,
				"z": 1.6988367714,
				"element": "H" 
			},
			{
				"x": 0.7064467195,
				"y": -2.6660432006,
				"z": 2.7399938859,
				"element": "H" 
			},
			{
				"x": -1.2339821891,
				"y": -1.8198811586,
				"z": 4.2058859362,
				"element": "H" 
			},
			{
				"x": -4.7047891809,
				"y": 0.921680423,
				"z": 3.2868850091,
				"element": "H" 
			},
			{
				"x": -5.7364917367,
				"y": 2.0416262972,
				"z": 1.3228974681,
				"element": "H" 
			},
			{
				"x": -4.4227037922,
				"y": 1.7790421187,
				"z": -2.1686592459,
				"element": "H" 
			},
			{
				"x": -5.9808395872,
				"y": 1.1373406231,
				"z": -1.6435594958,
				"element": "H" 
			},
			{
				"x": -5.4615021125,
				"y": 2.7303560791,
				"z": -1.0933742308,
				"element": "H" 
			},
			{
				"x": -3.0205372916,
				"y": -0.0460548004,
				"z": -1.2682551239,
				"element": "H" 
			},
			{
				"x": -1.9669331773,
				"y": -1.1133666862,
				"z": 0.6847419107,
				"element": "H" 
			},
			{
				"x": -0.9008709496,
				"y": 1.3165544553,
				"z": 2.6212437169,
				"element": "H" 
			},
			{
				"x": 1.1539389107,
				"y": 2.1111622212,
				"z": 1.5258224692,
				"element": "H" 
			}
		],
		 "valence_orbital": [ 
			{
				"type": "occ",
				"energy": -0.25842,
				"method": "rhf"
			},
			{
				"type": "occ",
				"energy": -0.25646,
				"method": "rhf"
			},
			{
				"type": "occ",
				"energy": -0.24892,
				"method": "rhf"
			},
			{
				"type": "occ",
				"energy": -0.23826,
				"method": "rhf"
			},
			{
				"type": "occ",
				"energy": -0.21842,
				"method": "rhf"
			},
			{
				"type": "unocc",
				"energy": -0.03553,
				"method": "rhf"
			},
			{
				"type": "unocc",
				"energy": -0.01211,
				"method": "rhf"
			},
			{
				"type": "unocc",
				"energy": -0.0006,
				"method": "rhf"
			},
			{
				"type": "unocc",
				"energy": 0.00234,
				"method": "rhf"
			},
			{
				"type": "unocc",
				"energy": 0.05879,
				"method": "rhf"
			}
		],
		"cosmo_sigma_profile": { 
			"-0.025": 0.0,
			"-0.024": 0.0,
			"-0.023": 0.0,
			"-0.022": 0.0,
			"-0.021": 0.0,
			"-0.02": 0.0,
			"-0.019": 0.0,
			"-0.018": 0.0,
			"-0.017": 0.0,
			"-0.016": 0.0,
			"-0.015": 0.0,
			"-0.014": 0.598428155789,
			"-0.013": 0.958657121341,
			"-0.012": 0.969425806756,
			"-0.011": 0.845673617943,
			"-0.01": 1.01384577647,
			"-0.009": 0.867635761144,
			"-0.008": 1.05281212824,
			"-0.007": 1.56485147762,
			"-0.006": 5.27392006776,
			"-0.005": 17.5391777345,
			"-0.004": 28.0321874978,
			"-0.003": 31.0418051579,
			"-0.002": 38.6290883988,
			"-0.001": 46.1947961613,
			"0.0": 47.9832986904,
			"0.001": 41.6318066242,
			"0.002": 26.5572445211,
			"0.003": 16.2069460935,
			"0.004": 19.3315676044,
			"0.005": 16.1679618672,
			"0.006": 3.32129736436,
			"0.007": 2.03164629899,
			"0.008": 1.00237698278,
			"0.009": 1.88213511375,
			"0.01": 1.05290069097,
			"0.011": 1.66890021679,
			"0.012": 2.74650616755,
			"0.013": 4.9670050265,
			"0.014": 2.67483603135,
			"0.015": 0.0178066628288,
			"0.016": 0.0,
			"0.017": 0.0,
			"0.018": 0.0,
			"0.019": 0.0,
			"0.02": 0.0,
			"0.021": 0.0,
			"0.022": 0.0,
			"0.023": 0.0,
			"0.024": 0.0,
			"0.025": 0.0
		}
	}
}
