{
	 "smiles": "NN1C(=O)C2=CC=CC3=CC=CC(C1=O)=C23", 
	 "Tm": 539.15, 
	 "num_atms": 24, 
	 "gaussian": { 
		 "optdone": 1, 
		 "sigma_profile": "yes", 
		 "theory": "DFT", 
		 "functional": "B3LYP", 
		 "basiset": "6-31G**", 
		 "properties": { 
			 "R2extent": 3250.8437, 
			 "electric_dipole_moment_norm": 4.6646349332, 
			 "electric_quadrupole_moment_norm": 5.63830779401, 
			 "total_energy": -722.066557036, 
			 "HOMO_LUMO_gap": 0.1355, 
			 "cosmo_polarized_energy": -13.78, 
			 "cosmo_cavitation_energy": 27.89, 
			 "cosmo_dispersion_energy": -21.17, 
			 "cosmo_repulsion_energy": 1.57, 
			 "cosmo_total_nonelectrostatic_energy": 8.29, 
			 "SMD_solvation_energy": 5.75 
		},
		"coords": [
			{
				"x": 2.2249715082,
				"y": -2.8089409755,
				"z": -1.6234326256,
				"element": "N" 
			},
			{
				"x": 1.5211263792,
				"y": -1.885390364,
				"z": -0.8171431964,
				"element": "N" 
			},
			{
				"x": 2.1692658213,
				"y": -0.6802244805,
				"z": -0.5412298033,
				"element": "C" 
			},
			{
				"x": 3.3356198118,
				"y": -0.5214239122,
				"z": -0.8869702403,
				"element": "O" 
			},
			{
				"x": 1.364756763,
				"y": 0.3327960205,
				"z": 0.1768741195,
				"element": "C" 
			},
			{
				"x": 1.916612049,
				"y": 1.5716788966,
				"z": 0.4521321038,
				"element": "C" 
			},
			{
				"x": 1.1634524816,
				"y": 2.5510771591,
				"z": 1.1334470014,
				"element": "C" 
			},
			{
				"x": -0.1296425689,
				"y": 2.283693078,
				"z": 1.5354995274,
				"element": "C" 
			},
			{
				"x": -0.7270127242,
				"y": 1.0217934888,
				"z": 1.273972253,
				"element": "C" 
			},
			{
				"x": -2.0503041858,
				"y": 0.6975737124,
				"z": 1.6757258871,
				"element": "C" 
			},
			{
				"x": -2.5864817115,
				"y": -0.5456761774,
				"z": 1.4072427166,
				"element": "C" 
			},
			{
				"x": -1.8263400472,
				"y": -1.5193152508,
				"z": 0.7254253104,
				"element": "C" 
			},
			{
				"x": -0.5351921835,
				"y": -1.2362248773,
				"z": 0.3156138632,
				"element": "C" 
			},
			{
				"x": 0.2452148625,
				"y": -2.2691808231,
				"z": -0.4007106821,
				"element": "C" 
			},
			{
				"x": -0.1562922682,
				"y": -3.4051525549,
				"z": -0.6320060493,
				"element": "O" 
			},
			{
				"x": 0.0370943795,
				"y": 0.0353017425,
				"z": 0.5817617287,
				"element": "C" 
			},
			{
				"x": 3.2110019237,
				"y": -2.6614043859,
				"z": -1.416880223,
				"element": "H" 
			},
			{
				"x": 1.9153583733,
				"y": -3.7310837444,
				"z": -1.3226307355,
				"element": "H" 
			},
			{
				"x": 2.9341756623,
				"y": 1.7687340214,
				"z": 0.1316065689,
				"element": "H" 
			},
			{
				"x": 1.6085554972,
				"y": 3.5192701351,
				"z": 1.3402451554,
				"element": "H" 
			},
			{
				"x": -0.7083146899,
				"y": 3.038560253,
				"z": 2.0612712812,
				"element": "H" 
			},
			{
				"x": -2.6364700577,
				"y": 1.4462603377,
				"z": 2.2020312412,
				"element": "H" 
			},
			{
				"x": -3.5988094081,
				"y": -0.7810222742,
				"z": 1.7204280907,
				"element": "H" 
			},
			{
				"x": -2.2355456675,
				"y": -2.5004990252,
				"z": 0.5090267069,
				"element": "H" 
			}
		],
		 "valence_orbital": [ 
			{
				"type": "occ",
				"energy": -0.28784,
				"method": "rhf"
			},
			{
				"type": "occ",
				"energy": -0.26838,
				"method": "rhf"
			},
			{
				"type": "occ",
				"energy": -0.26825,
				"method": "rhf"
			},
			{
				"type": "occ",
				"energy": -0.24174,
				"method": "rhf"
			},
			{
				"type": "occ",
				"energy": -0.2283,
				"method": "rhf"
			},
			{
				"type": "unocc",
				"energy": -0.0928,
				"method": "rhf"
			},
			{
				"type": "unocc",
				"energy": -0.03097,
				"method": "rhf"
			},
			{
				"type": "unocc",
				"energy": -0.02382,
				"method": "rhf"
			},
			{
				"type": "unocc",
				"energy": 0.00658,
				"method": "rhf"
			},
			{
				"type": "unocc",
				"energy": 0.08305,
				"method": "rhf"
			}
		],
		"cosmo_sigma_profile": { 
			"-0.025": 0.0,
			"-0.024": 0.0,
			"-0.023": 0.0,
			"-0.022": 0.0,
			"-0.021": 0.0,
			"-0.02": 0.0,
			"-0.019": 0.0,
			"-0.018": 0.0,
			"-0.017": 0.0,
			"-0.016": 0.0,
			"-0.015": 0.0,
			"-0.014": 0.0,
			"-0.013": 0.0,
			"-0.012": 0.715559635925,
			"-0.011": 1.60103468016,
			"-0.01": 2.75252731593,
			"-0.009": 2.17959238378,
			"-0.008": 4.11790301904,
			"-0.007": 12.8727100673,
			"-0.006": 14.9912799528,
			"-0.005": 15.5876229897,
			"-0.004": 12.7648570228,
			"-0.003": 12.6655779259,
			"-0.002": 11.7395832811,
			"-0.001": 13.0297173603,
			"0.0": 18.5854214577,
			"0.001": 27.9059640768,
			"0.002": 20.4504216357,
			"0.003": 7.9135778242,
			"0.004": 3.83782950563,
			"0.005": 4.08649551506,
			"0.006": 3.90538294773,
			"0.007": 4.02767471216,
			"0.008": 3.46655286452,
			"0.009": 4.40723254983,
			"0.01": 4.69089821761,
			"0.011": 7.38878990166,
			"0.012": 6.64279500385,
			"0.013": 0.807986458678,
			"0.014": 0.890814571829,
			"0.015": 0.534859732165,
			"0.016": 0.238134473118,
			"0.017": 0.0,
			"0.018": 0.0,
			"0.019": 0.0,
			"0.02": 0.0,
			"0.021": 0.0,
			"0.022": 0.0,
			"0.023": 0.0,
			"0.024": 0.0,
			"0.025": 0.0
		}
	}
}
