{
	 "smiles": "CN1N=C(Br)C2=C1N=CN=C2N", 
	 "Tm": 502.15, 
	 "num_atms": 18, 
	 "gaussian": { 
		 "optdone": 1, 
		 "sigma_profile": "yes", 
		 "theory": "DFT", 
		 "functional": "B3LYP", 
		 "basiset": "6-31G**", 
		 "properties": { 
			 "R2extent": 3816.6876, 
			 "electric_dipole_moment_norm": 0.997351863687, 
			 "electric_quadrupole_moment_norm": 17.8004281572, 
			 "total_energy": -3077.41441966, 
			 "HOMO_LUMO_gap": 0.18955, 
			 "cosmo_polarized_energy": -11.26, 
			 "cosmo_cavitation_energy": 24.62, 
			 "cosmo_dispersion_energy": -19.15, 
			 "cosmo_repulsion_energy": 1.52, 
			 "cosmo_total_nonelectrostatic_energy": 6.99, 
			 "SMD_solvation_energy": -0.56 
		},
		"coords": [
			{
				"x": -0.3344198184,
				"y": -1.6988431679,
				"z": 2.3223077973,
				"element": "C" 
			},
			{
				"x": -0.4403917341,
				"y": -1.4488613745,
				"z": 0.8982805453,
				"element": "N" 
			},
			{
				"x": -0.9413708097,
				"y": -2.4036088009,
				"z": 0.0585786215,
				"element": "N" 
			},
			{
				"x": -0.9036156759,
				"y": -1.8715715566,
				"z": -1.1441038702,
				"element": "C" 
			},
			{
				"x": -1.5083947126,
				"y": -2.8458938539,
				"z": -2.6486042396,
				"element": "Br" 
			},
			{
				"x": -0.3786646536,
				"y": -0.5534010139,
				"z": -1.1375852192,
				"element": "C" 
			},
			{
				"x": -0.0891572448,
				"y": -0.3194434967,
				"z": 0.2226938989,
				"element": "C" 
			},
			{
				"x": 0.4327692608,
				"y": 0.8060020035,
				"z": 0.7384655434,
				"element": "N" 
			},
			{
				"x": 0.6612727403,
				"y": 1.7220922542,
				"z": -0.2007355655,
				"element": "C" 
			},
			{
				"x": 0.4407455302,
				"y": 1.6488862691,
				"z": -1.5261801181,
				"element": "N" 
			},
			{
				"x": -0.0813466248,
				"y": 0.5152504449,
				"z": -2.0212849879,
				"element": "C" 
			},
			{
				"x": -0.3000968767,
				"y": 0.4471763854,
				"z": -3.3526491363,
				"element": "N" 
			},
			{
				"x": -1.3220687775,
				"y": -1.8996286169,
				"z": 2.7455171792,
				"element": "H" 
			},
			{
				"x": 0.0897959267,
				"y": -0.8041979783,
				"z": 2.7792887342,
				"element": "H" 
			},
			{
				"x": 0.3179081979,
				"y": -2.5560546088,
				"z": 2.5079606086,
				"element": "H" 
			},
			{
				"x": 1.0852893019,
				"y": 2.6631344466,
				"z": 0.1447398478,
				"element": "H" 
			},
			{
				"x": -0.0641198305,
				"y": 1.2493490672,
				"z": -3.9147452447,
				"element": "H" 
			},
			{
				"x": -0.6915341992,
				"y": -0.3785864027,
				"z": -3.7760443946,
				"element": "H" 
			}
		],
		 "valence_orbital": [ 
			{
				"type": "occ",
				"energy": -0.29204,
				"method": "rhf"
			},
			{
				"type": "occ",
				"energy": -0.2806,
				"method": "rhf"
			},
			{
				"type": "occ",
				"energy": -0.26218,
				"method": "rhf"
			},
			{
				"type": "occ",
				"energy": -0.25969,
				"method": "rhf"
			},
			{
				"type": "occ",
				"energy": -0.22661,
				"method": "rhf"
			},
			{
				"type": "unocc",
				"energy": -0.03706,
				"method": "rhf"
			},
			{
				"type": "unocc",
				"energy": 0.00111,
				"method": "rhf"
			},
			{
				"type": "unocc",
				"energy": 0.00233,
				"method": "rhf"
			},
			{
				"type": "unocc",
				"energy": 0.03578,
				"method": "rhf"
			},
			{
				"type": "unocc",
				"energy": 0.07893,
				"method": "rhf"
			}
		],
		"cosmo_sigma_profile": { 
			"-0.025": 0.0,
			"-0.024": 0.0,
			"-0.023": 0.0,
			"-0.022": 0.0,
			"-0.021": 0.0,
			"-0.02": 0.0,
			"-0.019": 0.0,
			"-0.018": 0.0,
			"-0.017": 0.0,
			"-0.016": 0.0,
			"-0.015": 0.26196935528,
			"-0.014": 1.31540638676,
			"-0.013": 0.93044031192,
			"-0.012": 2.41136151306,
			"-0.011": 1.65607729879,
			"-0.01": 2.16485775259,
			"-0.009": 1.4056641333,
			"-0.008": 2.24867845502,
			"-0.007": 4.85825010341,
			"-0.006": 10.3237046553,
			"-0.005": 10.9844433443,
			"-0.004": 12.6193829914,
			"-0.003": 14.5206731259,
			"-0.002": 12.8647635845,
			"-0.001": 18.1451685565,
			"0.0": 18.4066209326,
			"0.001": 13.3715363547,
			"0.002": 13.7655753348,
			"0.003": 15.8855735325,
			"0.004": 10.6602501449,
			"0.005": 4.44794900303,
			"0.006": 3.91659194396,
			"0.007": 4.15890066809,
			"0.008": 3.43073644765,
			"0.009": 2.72145946112,
			"0.01": 3.16635890588,
			"0.011": 3.11191587483,
			"0.012": 2.84628008192,
			"0.013": 2.80682281111,
			"0.014": 0.987214301297,
			"0.015": 0.716714451283,
			"0.016": 0.0385476593216,
			"0.017": 0.0,
			"0.018": 0.0,
			"0.019": 0.0,
			"0.02": 0.0,
			"0.021": 0.0,
			"0.022": 0.0,
			"0.023": 0.0,
			"0.024": 0.0,
			"0.025": 0.0
		}
	}
}
