{
	 "smiles": "NC1=NN=C(O1)C1CC2=C(O1)C=CC=C2", 
	 "Tm": 472.15, 
	 "num_atms": 24, 
	 "gaussian": { 
		 "optdone": 1, 
		 "sigma_profile": "yes", 
		 "theory": "DFT", 
		 "functional": "B3LYP", 
		 "basiset": "6-31G**", 
		 "properties": { 
			 "R2extent": 4532.6198, 
			 "electric_dipole_moment_norm": 3.72733170512, 
			 "electric_quadrupole_moment_norm": 24.8378141818, 
			 "total_energy": -701.151968777, 
			 "HOMO_LUMO_gap": 0.2088, 
			 "cosmo_polarized_energy": -17.57, 
			 "cosmo_cavitation_energy": 28.88, 
			 "cosmo_dispersion_energy": -21.53, 
			 "cosmo_repulsion_energy": 1.7, 
			 "cosmo_total_nonelectrostatic_energy": 9.06, 
			 "SMD_solvation_energy": 3.09 
		},
		"coords": [
			{
				"x": -0.0128483301,
				"y": 1.4527858303,
				"z": -4.6315953974,
				"element": "N" 
			},
			{
				"x": -0.8237105507,
				"y": 1.4801134693,
				"z": -3.5322821814,
				"element": "C" 
			},
			{
				"x": -1.7467934371,
				"y": 2.3450773194,
				"z": -3.2253590158,
				"element": "N" 
			},
			{
				"x": -2.2169904811,
				"y": 1.9507845935,
				"z": -1.9664157023,
				"element": "N" 
			},
			{
				"x": -1.5557606096,
				"y": 0.8970040548,
				"z": -1.627046565,
				"element": "C" 
			},
			{
				"x": -0.6301784167,
				"y": 0.5300602314,
				"z": -2.5818523935,
				"element": "O" 
			},
			{
				"x": -1.6703421851,
				"y": 0.0958951659,
				"z": -0.3818296412,
				"element": "C" 
			},
			{
				"x": -0.3460777469,
				"y": -0.081346859,
				"z": 0.4193426337,
				"element": "C" 
			},
			{
				"x": -0.4040300195,
				"y": -1.54476736,
				"z": 0.7874951084,
				"element": "C" 
			},
			{
				"x": -1.4443749046,
				"y": -2.1320110002,
				"z": 0.0650270382,
				"element": "C" 
			},
			{
				"x": -2.1354359834,
				"y": -1.2440789488,
				"z": -0.7153751565,
				"element": "O" 
			},
			{
				"x": -1.732382933,
				"y": -3.4895449722,
				"z": 0.1439963905,
				"element": "C" 
			},
			{
				"x": -0.9311168951,
				"y": -4.2668402813,
				"z": 0.9883978402,
				"element": "C" 
			},
			{
				"x": 0.1140751168,
				"y": -3.6983603233,
				"z": 1.7223151107,
				"element": "C" 
			},
			{
				"x": 0.3859747363,
				"y": -2.3272772554,
				"z": 1.6209485132,
				"element": "C" 
			},
			{
				"x": 0.2983978409,
				"y": 0.5364766227,
				"z": -4.9225515926,
				"element": "H" 
			},
			{
				"x": -0.3402973491,
				"y": 2.0417213921,
				"z": -5.3846568972,
				"element": "H" 
			},
			{
				"x": -2.4408097658,
				"y": 0.5772070482,
				"z": 0.2291927869,
				"element": "H" 
			},
			{
				"x": 0.5273268342,
				"y": 0.1410071638,
				"z": -0.2049035229,
				"element": "H" 
			},
			{
				"x": -0.3174344852,
				"y": 0.5933242819,
				"z": 1.2797464316,
				"element": "H" 
			},
			{
				"x": -2.5495802217,
				"y": -3.9180032318,
				"z": -0.4258494428,
				"element": "H" 
			},
			{
				"x": -1.1324433701,
				"y": -5.3306380513,
				"z": 1.0763230589,
				"element": "H" 
			},
			{
				"x": 0.718315344,
				"y": -4.3215409818,
				"z": 2.3742233398,
				"element": "H" 
			},
			{
				"x": 1.2015178126,
				"y": -1.8853479082,
				"z": 2.1871092563,
				"element": "H" 
			}
		],
		 "valence_orbital": [ 
			{
				"type": "occ",
				"energy": -0.31561,
				"method": "rhf"
			},
			{
				"type": "occ",
				"energy": -0.27457,
				"method": "rhf"
			},
			{
				"type": "occ",
				"energy": -0.25019,
				"method": "rhf"
			},
			{
				"type": "occ",
				"energy": -0.23955,
				"method": "rhf"
			},
			{
				"type": "occ",
				"energy": -0.21692,
				"method": "rhf"
			},
			{
				"type": "unocc",
				"energy": -0.00812,
				"method": "rhf"
			},
			{
				"type": "unocc",
				"energy": -0.00535,
				"method": "rhf"
			},
			{
				"type": "unocc",
				"energy": 0.01202,
				"method": "rhf"
			},
			{
				"type": "unocc",
				"energy": 0.04436,
				"method": "rhf"
			},
			{
				"type": "unocc",
				"energy": 0.06576,
				"method": "rhf"
			}
		],
		"cosmo_sigma_profile": { 
			"-0.025": 0.0,
			"-0.024": 0.0,
			"-0.023": 0.0,
			"-0.022": 0.0,
			"-0.021": 0.0,
			"-0.02": 0.0,
			"-0.019": 0.0,
			"-0.018": 0.0,
			"-0.017": 0.0,
			"-0.016": 0.44776361842,
			"-0.015": 2.54105435664,
			"-0.014": 2.38699522143,
			"-0.013": 2.66436624173,
			"-0.012": 2.70522386381,
			"-0.011": 1.86313088034,
			"-0.01": 1.6403061004,
			"-0.009": 1.98097469551,
			"-0.008": 3.30463801192,
			"-0.007": 5.35551185464,
			"-0.006": 11.8310469455,
			"-0.005": 16.9744569201,
			"-0.004": 18.8941805847,
			"-0.003": 18.6438001899,
			"-0.002": 13.1227515426,
			"-0.001": 11.0274558977,
			"0.0": 10.6870693011,
			"0.001": 11.2133991369,
			"0.002": 12.7414137603,
			"0.003": 13.5138774345,
			"0.004": 13.3155503958,
			"0.005": 13.5850833741,
			"0.006": 9.86923994112,
			"0.007": 4.48852732214,
			"0.008": 2.72941254887,
			"0.009": 4.43706788225,
			"0.01": 4.40061698461,
			"0.011": 2.49775543286,
			"0.012": 3.56662463582,
			"0.013": 3.3352249806,
			"0.014": 2.42336030139,
			"0.015": 1.95193932761,
			"0.016": 0.830144618751,
			"0.017": 0.0195146898516,
			"0.018": 0.0,
			"0.019": 0.0,
			"0.02": 0.0,
			"0.021": 0.0,
			"0.022": 0.0,
			"0.023": 0.0,
			"0.024": 0.0,
			"0.025": 0.0
		}
	}
}
