{
	 "smiles": "CCOC(=O)C1=CNN(CC(O)=O)C1=N", 
	 "Tm": 469.15, 
	 "num_atms": 26, 
	 "gaussian": { 
		 "optdone": 1, 
		 "sigma_profile": "yes", 
		 "theory": "DFT", 
		 "functional": "B3LYP", 
		 "basiset": "6-31G**", 
		 "properties": { 
			 "R2extent": 4260.6215, 
			 "electric_dipole_moment_norm": 5.67885261827, 
			 "electric_quadrupole_moment_norm": 33.7486241715, 
			 "total_energy": -776.612245314, 
			 "HOMO_LUMO_gap": 0.16695, 
			 "cosmo_polarized_energy": -23.86, 
			 "cosmo_cavitation_energy": 30.6, 
			 "cosmo_dispersion_energy": -22.09, 
			 "cosmo_repulsion_energy": 1.75, 
			 "cosmo_total_nonelectrostatic_energy": 10.27, 
			 "SMD_solvation_energy": 6.9 
		},
		"coords": [
			{
				"x": 2.7155906592,
				"y": -2.9796556167,
				"z": 0.3597302669,
				"element": "C" 
			},
			{
				"x": 1.1989129596,
				"y": -2.8987485919,
				"z": 0.2828053124,
				"element": "C" 
			},
			{
				"x": 0.7580609833,
				"y": -1.5477962744,
				"z": -0.0098553389,
				"element": "O" 
			},
			{
				"x": 0.6148843232,
				"y": -0.7157802122,
				"z": 1.0501760956,
				"element": "C" 
			},
			{
				"x": 0.8288068546,
				"y": -1.0352334542,
				"z": 2.2052864901,
				"element": "O" 
			},
			{
				"x": 0.1756646444,
				"y": 0.6199770935,
				"z": 0.6363895843,
				"element": "C" 
			},
			{
				"x": -0.0761189409,
				"y": 1.6361789549,
				"z": 1.5180345165,
				"element": "C" 
			},
			{
				"x": -0.5754840959,
				"y": 2.7195457926,
				"z": 0.8636488237,
				"element": "N" 
			},
			{
				"x": -0.4486867996,
				"y": 2.4681981554,
				"z": -0.5089814792,
				"element": "N" 
			},
			{
				"x": -1.1227046343,
				"y": 3.3156123731,
				"z": -1.4852858523,
				"element": "C" 
			},
			{
				"x": -2.5590846966,
				"y": 2.8913572299,
				"z": -1.8699983549,
				"element": "C" 
			},
			{
				"x": -2.671172808,
				"y": 1.6737091522,
				"z": -2.393651823,
				"element": "O" 
			},
			{
				"x": -3.492319352,
				"y": 3.6491830124,
				"z": -1.7287827091,
				"element": "O" 
			},
			{
				"x": -0.1546432422,
				"y": 1.1194485681,
				"z": -0.6990008153,
				"element": "C" 
			},
			{
				"x": -0.2851868065,
				"y": 0.5901708513,
				"z": -1.8751860881,
				"element": "N" 
			},
			{
				"x": 3.0229118507,
				"y": -4.0206458753,
				"z": 0.5045710149,
				"element": "H" 
			},
			{
				"x": 3.0894380253,
				"y": -2.3920302399,
				"z": 1.2016424338,
				"element": "H" 
			},
			{
				"x": 3.1739101793,
				"y": -2.6116427206,
				"z": -0.5628545803,
				"element": "H" 
			},
			{
				"x": 0.8047451056,
				"y": -3.4948396042,
				"z": -0.5432566097,
				"element": "H" 
			},
			{
				"x": 0.7363504334,
				"y": -3.2211260095,
				"z": 1.2180868453,
				"element": "H" 
			},
			{
				"x": 0.0539448948,
				"y": 1.6468063141,
				"z": 2.5910603605,
				"element": "H" 
			},
			{
				"x": -0.3498206244,
				"y": 3.6642391443,
				"z": 1.1564041247,
				"element": "H" 
			},
			{
				"x": -0.4974834186,
				"y": 3.3047898099,
				"z": -2.3846580152,
				"element": "H" 
			},
			{
				"x": -1.1635496746,
				"y": 4.3339337725,
				"z": -1.0964785757,
				"element": "H" 
			},
			{
				"x": -1.7813423274,
				"y": 1.1936493099,
				"z": -2.3922934009,
				"element": "H" 
			},
			{
				"x": -0.0110234925,
				"y": -0.3880009351,
				"z": -1.8557522261,
				"element": "H" 
			}
		],
		 "valence_orbital": [ 
			{
				"type": "occ",
				"energy": -0.29278,
				"method": "rhf"
			},
			{
				"type": "occ",
				"energy": -0.28835,
				"method": "rhf"
			},
			{
				"type": "occ",
				"energy": -0.28102,
				"method": "rhf"
			},
			{
				"type": "occ",
				"energy": -0.25552,
				"method": "rhf"
			},
			{
				"type": "occ",
				"energy": -0.22178,
				"method": "rhf"
			},
			{
				"type": "unocc",
				"energy": -0.05483,
				"method": "rhf"
			},
			{
				"type": "unocc",
				"energy": -0.00121,
				"method": "rhf"
			},
			{
				"type": "unocc",
				"energy": 0.01783,
				"method": "rhf"
			},
			{
				"type": "unocc",
				"energy": 0.04643,
				"method": "rhf"
			},
			{
				"type": "unocc",
				"energy": 0.07909,
				"method": "rhf"
			}
		],
		"cosmo_sigma_profile": { 
			"-0.025": 0.0,
			"-0.024": 0.0,
			"-0.023": 0.0,
			"-0.022": 0.0,
			"-0.021": 0.0,
			"-0.02": 0.0,
			"-0.019": 0.0,
			"-0.018": 1.33216169902,
			"-0.017": 2.32999369196,
			"-0.016": 1.77180922262,
			"-0.015": 1.64428996601,
			"-0.014": 1.33536492417,
			"-0.013": 1.71626439398,
			"-0.012": 1.76446577359,
			"-0.011": 3.27074865198,
			"-0.01": 2.72935604494,
			"-0.009": 3.36521450002,
			"-0.008": 5.03200277911,
			"-0.007": 5.20481835158,
			"-0.006": 7.67278001987,
			"-0.005": 10.4260051789,
			"-0.004": 17.0937654531,
			"-0.003": 16.5224085609,
			"-0.002": 19.5085919196,
			"-0.001": 20.6964937429,
			"0.0": 25.3237774775,
			"0.001": 13.9258818511,
			"0.002": 10.140113959,
			"0.003": 8.58748920585,
			"0.004": 5.83964482217,
			"0.005": 4.97038106243,
			"0.006": 3.94854773333,
			"0.007": 3.64693223036,
			"0.008": 5.40710744282,
			"0.009": 5.50921343968,
			"0.01": 5.33009375532,
			"0.011": 9.00649697209,
			"0.012": 11.9391512075,
			"0.013": 4.86580602823,
			"0.014": 0.936516294327,
			"0.015": 0.0,
			"0.016": 0.0,
			"0.017": 0.0,
			"0.018": 0.0,
			"0.019": 0.0,
			"0.02": 0.0,
			"0.021": 0.0,
			"0.022": 0.0,
			"0.023": 0.0,
			"0.024": 0.0,
			"0.025": 0.0
		}
	}
}
