{
	 "smiles": "CC1=C(C(O)=O)C(C)=NO1", 
	 "Tm": 415.15, 
	 "num_atms": 17, 
	 "gaussian": { 
		 "optdone": 1, 
		 "sigma_profile": "yes", 
		 "theory": "DFT", 
		 "functional": "B3LYP", 
		 "basiset": "6-31G**", 
		 "properties": { 
			 "R2extent": 1717.8531, 
			 "electric_dipole_moment_norm": 2.91609658619, 
			 "electric_quadrupole_moment_norm": 9.56072849996, 
			 "total_energy": -513.260284014, 
			 "HOMO_LUMO_gap": 0.22624, 
			 "cosmo_polarized_energy": -11.04, 
			 "cosmo_cavitation_energy": 21.71, 
			 "cosmo_dispersion_energy": -15.93, 
			 "cosmo_repulsion_energy": 1.3, 
			 "cosmo_total_nonelectrostatic_energy": 7.08, 
			 "SMD_solvation_energy": 5.12 
		},
		"coords": [
			{
				"x": -2.1520584452,
				"y": -1.8078146637,
				"z": 1.2762532967,
				"element": "C" 
			},
			{
				"x": -0.7512505289,
				"y": -1.6181706145,
				"z": 0.8061081229,
				"element": "C" 
			},
			{
				"x": -0.1808255987,
				"y": -1.035598345,
				"z": -0.3024446104,
				"element": "C" 
			},
			{
				"x": -0.8204827191,
				"y": -0.3779418262,
				"z": -1.4384139535,
				"element": "C" 
			},
			{
				"x": -2.1783483904,
				"y": -0.3634891326,
				"z": -1.3417992951,
				"element": "O" 
			},
			{
				"x": -0.2351934253,
				"y": 0.1149955768,
				"z": -2.3842026751,
				"element": "O" 
			},
			{
				"x": 1.2318619168,
				"y": -1.2123762049,
				"z": -0.1086324733,
				"element": "C" 
			},
			{
				"x": 2.3541745733,
				"y": -0.779065972,
				"z": -0.9960570038,
				"element": "C" 
			},
			{
				"x": 1.4813622087,
				"y": -1.8428236769,
				"z": 1.0131357638,
				"element": "N" 
			},
			{
				"x": 0.2177672388,
				"y": -2.0997055957,
				"z": 1.5928219108,
				"element": "O" 
			},
			{
				"x": -2.7287010496,
				"y": -2.3813463726,
				"z": 0.5452901233,
				"element": "H" 
			},
			{
				"x": -2.1525217395,
				"y": -2.3344072069,
				"z": 2.2322317058,
				"element": "H" 
			},
			{
				"x": -2.6525272379,
				"y": -0.8425814733,
				"z": 1.3929343785,
				"element": "H" 
			},
			{
				"x": -2.4922427188,
				"y": 0.0926158175,
				"z": -2.1404123201,
				"element": "H" 
			},
			{
				"x": 2.2562489088,
				"y": -1.2309594346,
				"z": -1.9868935421,
				"element": "H" 
			},
			{
				"x": 2.3321593943,
				"y": 0.3044411964,
				"z": -1.1412083514,
				"element": "H" 
			},
			{
				"x": 3.3088776126,
				"y": -1.0698720716,
				"z": -0.553811077,
				"element": "H" 
			}
		],
		 "valence_orbital": [ 
			{
				"type": "occ",
				"energy": -0.32712,
				"method": "rhf"
			},
			{
				"type": "occ",
				"energy": -0.30921,
				"method": "rhf"
			},
			{
				"type": "occ",
				"energy": -0.29393,
				"method": "rhf"
			},
			{
				"type": "occ",
				"energy": -0.28468,
				"method": "rhf"
			},
			{
				"type": "occ",
				"energy": -0.26522,
				"method": "rhf"
			},
			{
				"type": "unocc",
				"energy": -0.03898,
				"method": "rhf"
			},
			{
				"type": "unocc",
				"energy": 0.00153,
				"method": "rhf"
			},
			{
				"type": "unocc",
				"energy": 0.07033,
				"method": "rhf"
			},
			{
				"type": "unocc",
				"energy": 0.09056,
				"method": "rhf"
			},
			{
				"type": "unocc",
				"energy": 0.09663,
				"method": "rhf"
			}
		],
		"cosmo_sigma_profile": { 
			"-0.025": 0.0,
			"-0.024": 0.0,
			"-0.023": 0.0,
			"-0.022": 0.0,
			"-0.021": 0.0,
			"-0.02": 0.0,
			"-0.019": 0.0,
			"-0.018": 0.863189786119,
			"-0.017": 0.672681012232,
			"-0.016": 1.07456813063,
			"-0.015": 1.04253867416,
			"-0.014": 0.46994423141,
			"-0.013": 0.228591283434,
			"-0.012": 0.942889350416,
			"-0.011": 0.988465089492,
			"-0.01": 0.631806695778,
			"-0.009": 0.408214549289,
			"-0.008": 0.390148051571,
			"-0.007": 2.33387027946,
			"-0.006": 7.71009021164,
			"-0.005": 11.3896879675,
			"-0.004": 12.8181041522,
			"-0.003": 17.1001099373,
			"-0.002": 22.3989271669,
			"-0.001": 19.0251808248,
			"0.0": 9.72149297156,
			"0.001": 5.59584433626,
			"0.002": 6.07786413123,
			"0.003": 4.96471761206,
			"0.004": 6.37621862018,
			"0.005": 5.38392094004,
			"0.006": 5.52137967385,
			"0.007": 5.43823949726,
			"0.008": 4.86532341066,
			"0.009": 3.16804304764,
			"0.01": 3.64104432862,
			"0.011": 4.22856251103,
			"0.012": 4.6795127845,
			"0.013": 1.31992520431,
			"0.014": 0.741108541665,
			"0.015": 0.064854681782,
			"0.016": 0.0,
			"0.017": 0.0,
			"0.018": 0.0,
			"0.019": 0.0,
			"0.02": 0.0,
			"0.021": 0.0,
			"0.022": 0.0,
			"0.023": 0.0,
			"0.024": 0.0,
			"0.025": 0.0
		}
	}
}
