{
	 "smiles": "CC1=C(Cl)C=CC(OCC(O)=O)=C1", 
	 "Tm": 454.15, 
	 "num_atms": 22, 
	 "gaussian": { 
		 "optdone": 1, 
		 "sigma_profile": "yes", 
		 "theory": "DFT", 
		 "functional": "B3LYP", 
		 "basiset": "6-31G**", 
		 "properties": { 
			 "R2extent": 3762.5206, 
			 "electric_dipole_moment_norm": 3.49998313282, 
			 "electric_quadrupole_moment_norm": 9.95851202439, 
			 "total_energy": -1034.25041881, 
			 "HOMO_LUMO_gap": 0.20837, 
			 "cosmo_polarized_energy": -13.32, 
			 "cosmo_cavitation_energy": 28.32, 
			 "cosmo_dispersion_energy": -20.51, 
			 "cosmo_repulsion_energy": 1.66, 
			 "cosmo_total_nonelectrostatic_energy": 9.47, 
			 "SMD_solvation_energy": 6.07 
		},
		"coords": [
			{
				"x": 2.2709804532,
				"y": -0.1761997795,
				"z": 2.0631923793,
				"element": "C" 
			},
			{
				"x": 0.8183911463,
				"y": 0.1222763626,
				"z": 1.7924431081,
				"element": "C" 
			},
			{
				"x": -0.1081044419,
				"y": 0.3060760527,
				"z": 2.8255943142,
				"element": "C" 
			},
			{
				"x": 0.4105270653,
				"y": 0.1829944201,
				"z": 4.5071463342,
				"element": "Cl" 
			},
			{
				"x": -1.4488099943,
				"y": 0.5919920507,
				"z": 2.563791177,
				"element": "C" 
			},
			{
				"x": -1.8923632791,
				"y": 0.6940091196,
				"z": 1.251766826,
				"element": "C" 
			},
			{
				"x": -0.9890673639,
				"y": 0.5111367817,
				"z": 0.1993222371,
				"element": "C" 
			},
			{
				"x": -1.5295164242,
				"y": 0.6101028184,
				"z": -1.0585442666,
				"element": "O" 
			},
			{
				"x": -0.7207609234,
				"y": 0.3673604605,
				"z": -2.1802925613,
				"element": "C" 
			},
			{
				"x": 0.1809788055,
				"y": 1.5472830196,
				"z": -2.5299824733,
				"element": "C" 
			},
			{
				"x": 0.941920046,
				"y": 1.2387423088,
				"z": -3.6074211831,
				"element": "O" 
			},
			{
				"x": 0.2180689985,
				"y": 2.6089538071,
				"z": -1.9601471352,
				"element": "O" 
			},
			{
				"x": 0.3515143332,
				"y": 0.2311905771,
				"z": 0.4732211913,
				"element": "C" 
			},
			{
				"x": 2.385744023,
				"y": -1.0998522491,
				"z": 2.6404265849,
				"element": "H" 
			},
			{
				"x": 2.8279606505,
				"y": -0.2836347905,
				"z": 1.1291589061,
				"element": "H" 
			},
			{
				"x": 2.7365201358,
				"y": 0.6225085548,
				"z": 2.6502631286,
				"element": "H" 
			},
			{
				"x": -2.1393419673,
				"y": 0.7310920442,
				"z": 3.3882453376,
				"element": "H" 
			},
			{
				"x": -2.9297332559,
				"y": 0.9128781735,
				"z": 1.0238595719,
				"element": "H" 
			},
			{
				"x": -1.4010136725,
				"y": 0.2042906943,
				"z": -3.0222422536,
				"element": "H" 
			},
			{
				"x": -0.1110518758,
				"y": -0.5397151578,
				"z": -2.0760798945,
				"element": "H" 
			},
			{
				"x": 1.4753125021,
				"y": 2.0272589613,
				"z": -3.8043144752,
				"element": "H" 
			},
			{
				"x": 1.070245039,
				"y": 0.1054557699,
				"z": -0.3283068535,
				"element": "H" 
			}
		],
		 "valence_orbital": [ 
			{
				"type": "occ",
				"energy": -0.30869,
				"method": "rhf"
			},
			{
				"type": "occ",
				"energy": -0.30617,
				"method": "rhf"
			},
			{
				"type": "occ",
				"energy": -0.28926,
				"method": "rhf"
			},
			{
				"type": "occ",
				"energy": -0.25438,
				"method": "rhf"
			},
			{
				"type": "occ",
				"energy": -0.22002,
				"method": "rhf"
			},
			{
				"type": "unocc",
				"energy": -0.01165,
				"method": "rhf"
			},
			{
				"type": "unocc",
				"energy": -0.00255,
				"method": "rhf"
			},
			{
				"type": "unocc",
				"energy": 0.0023,
				"method": "rhf"
			},
			{
				"type": "unocc",
				"energy": 0.03669,
				"method": "rhf"
			},
			{
				"type": "unocc",
				"energy": 0.06148,
				"method": "rhf"
			}
		],
		"cosmo_sigma_profile": { 
			"-0.025": 0.0,
			"-0.024": 0.0,
			"-0.023": 0.0,
			"-0.022": 0.0,
			"-0.021": 0.0,
			"-0.02": 0.0,
			"-0.019": 0.24290297463,
			"-0.018": 1.18019385235,
			"-0.017": 0.86115339245,
			"-0.016": 0.86223794554,
			"-0.015": 0.686254940134,
			"-0.014": 0.802548968262,
			"-0.013": 0.361713591554,
			"-0.012": 1.01055099482,
			"-0.011": 0.683860697104,
			"-0.01": 1.42238281323,
			"-0.009": 3.80043988338,
			"-0.008": 6.34077945072,
			"-0.007": 8.65863636279,
			"-0.006": 9.78350719488,
			"-0.005": 11.3670837927,
			"-0.004": 12.9783997297,
			"-0.003": 11.2166808643,
			"-0.002": 13.5107558274,
			"-0.001": 16.6086133194,
			"0.0": 14.8167041641,
			"0.001": 12.8238460803,
			"0.002": 15.8618360067,
			"0.003": 19.3696024237,
			"0.004": 21.4365481233,
			"0.005": 11.2431803474,
			"0.006": 4.42933053512,
			"0.007": 4.28964457895,
			"0.008": 5.71465171476,
			"0.009": 4.36730602442,
			"0.01": 3.38971907356,
			"0.011": 5.78887271554,
			"0.012": 1.36917912587,
			"0.013": 0.0,
			"0.014": 0.0,
			"0.015": 0.0,
			"0.016": 0.0,
			"0.017": 0.0,
			"0.018": 0.0,
			"0.019": 0.0,
			"0.02": 0.0,
			"0.021": 0.0,
			"0.022": 0.0,
			"0.023": 0.0,
			"0.024": 0.0,
			"0.0": 0.0
		}
	}
}
