{
	 "smiles": "CC(C)CC(N)C(=O)N1CCNC(=O)C1", 
	 "Tm": 436.15, 
	 "num_atms": 34, 
	 "gaussian": { 
		 "optdone": 1, 
		 "sigma_profile": "yes", 
		 "theory": "DFT", 
		 "functional": "B3LYP", 
		 "basiset": "6-31G**", 
		 "properties": { 
			 "R2extent": 4476.2426, 
			 "electric_dipole_moment_norm": 1.9987221843, 
			 "electric_quadrupole_moment_norm": 23.2436074833, 
			 "total_energy": -707.235161144, 
			 "HOMO_LUMO_gap": 0.24226, 
			 "cosmo_polarized_energy": -19.01, 
			 "cosmo_cavitation_energy": 33.83, 
			 "cosmo_dispersion_energy": -24.35, 
			 "cosmo_repulsion_energy": 1.93, 
			 "cosmo_total_nonelectrostatic_energy": 11.4, 
			 "SMD_solvation_energy": 5.16 
		},
		"coords": [
			{
				"x": -2.7885512285,
				"y": -1.7613103688,
				"z": 2.2354833127,
				"element": "C" 
			},
			{
				"x": -1.8574997321,
				"y": -2.1881824224,
				"z": 1.0858564664,
				"element": "C" 
			},
			{
				"x": -0.4065382486,
				"y": -2.3021128337,
				"z": 1.5742788906,
				"element": "C" 
			},
			{
				"x": -2.0532557112,
				"y": -1.3519163937,
				"z": -0.2077782667,
				"element": "C" 
			},
			{
				"x": -1.4789959687,
				"y": 0.0809645857,
				"z": -0.3297301375,
				"element": "C" 
			},
			{
				"x": -1.5020966651,
				"y": 0.806905088,
				"z": 0.9513687053,
				"element": "N" 
			},
			{
				"x": -0.0412012983,
				"y": 0.0884339771,
				"z": -0.8896431941,
				"element": "C" 
			},
			{
				"x": 0.6408251805,
				"y": -0.9239622331,
				"z": -0.9833097131,
				"element": "O" 
			},
			{
				"x": 0.4612039778,
				"y": 1.3188642302,
				"z": -1.2861768899,
				"element": "N" 
			},
			{
				"x": 1.8169386616,
				"y": 1.384995233,
				"z": -1.8229499841,
				"element": "C" 
			},
			{
				"x": 2.5695016617,
				"y": 2.521872392,
				"z": -1.1406569737,
				"element": "C" 
			},
			{
				"x": 1.779970393,
				"y": 3.749986903,
				"z": -1.200205341,
				"element": "N" 
			},
			{
				"x": 0.4225835702,
				"y": 3.8265557441,
				"z": -1.3069203313,
				"element": "C" 
			},
			{
				"x": -0.1931973824,
				"y": 4.8821963717,
				"z": -1.2508626206,
				"element": "O" 
			},
			{
				"x": -0.3261557541,
				"y": 2.5149614101,
				"z": -1.570575398,
				"element": "C" 
			},
			{
				"x": -2.4741577795,
				"y": -0.8086155517,
				"z": 2.6690277846,
				"element": "H" 
			},
			{
				"x": -3.828213678,
				"y": -1.6641113047,
				"z": 1.8987731147,
				"element": "H" 
			},
			{
				"x": -2.7727095473,
				"y": -2.5100966553,
				"z": 3.0356044554,
				"element": "H" 
			},
			{
				"x": -2.1790272246,
				"y": -3.1991396981,
				"z": 0.7926511583,
				"element": "H" 
			},
			{
				"x": -0.0354449794,
				"y": -1.3310083198,
				"z": 1.9136608358,
				"element": "H" 
			},
			{
				"x": -0.3496665275,
				"y": -3.0005931063,
				"z": 2.4177357355,
				"element": "H" 
			},
			{
				"x": 0.2569248081,
				"y": -2.6547736605,
				"z": 0.7824833848,
				"element": "H" 
			},
			{
				"x": -1.6469398978,
				"y": -1.9184614632,
				"z": -1.0517695901,
				"element": "H" 
			},
			{
				"x": -3.1354647183,
				"y": -1.2801113564,
				"z": -0.3818790214,
				"element": "H" 
			},
			{
				"x": -2.0920458137,
				"y": 0.5784732103,
				"z": -1.1052373168,
				"element": "H" 
			},
			{
				"x": -2.4619736345,
				"y": 0.9845736389,
				"z": 1.2337821619,
				"element": "H" 
			},
			{
				"x": -1.0349895,
				"y": 1.705692238,
				"z": 0.8864560923,
				"element": "H" 
			},
			{
				"x": 2.2995110998,
				"y": 0.4260327909,
				"z": -1.6386627753,
				"element": "H" 
			},
			{
				"x": 1.781811407,
				"y": 1.5544115184,
				"z": -2.9094514264,
				"element": "H" 
			},
			{
				"x": 3.5264852845,
				"y": 2.6896541816,
				"z": -1.6469929976,
				"element": "H" 
			},
			{
				"x": 2.783478729,
				"y": 2.2477329658,
				"z": -0.0984641508,
				"element": "H" 
			},
			{
				"x": 2.2257417918,
				"y": 4.6332320128,
				"z": -0.9870499213,
				"element": "H" 
			},
			{
				"x": -0.6407843891,
				"y": 2.5405357085,
				"z": -2.6263666488,
				"element": "H" 
			},
			{
				"x": -1.231066886,
				"y": 2.5553211674,
				"z": -0.9672793999,
				"element": "H" 
			}
		],
		 "valence_orbital": [ 
			{
				"type": "occ",
				"energy": -0.27525,
				"method": "rhf"
			},
			{
				"type": "occ",
				"energy": -0.26625,
				"method": "rhf"
			},
			{
				"type": "occ",
				"energy": -0.25965,
				"method": "rhf"
			},
			{
				"type": "occ",
				"energy": -0.24201,
				"method": "rhf"
			},
			{
				"type": "occ",
				"energy": -0.23767,
				"method": "rhf"
			},
			{
				"type": "unocc",
				"energy": 0.00459,
				"method": "rhf"
			},
			{
				"type": "unocc",
				"energy": 0.01629,
				"method": "rhf"
			},
			{
				"type": "unocc",
				"energy": 0.06016,
				"method": "rhf"
			},
			{
				"type": "unocc",
				"energy": 0.08126,
				"method": "rhf"
			},
			{
				"type": "unocc",
				"energy": 0.10524,
				"method": "rhf"
			}
		],
		"cosmo_sigma_profile": { 
			"-0.025": 0.0,
			"-0.024": 0.0,
			"-0.023": 0.0,
			"-0.022": 0.0,
			"-0.021": 0.0,
			"-0.02": 0.0,
			"-0.019": 0.0,
			"-0.018": 0.0,
			"-0.017": 0.0,
			"-0.016": 0.0,
			"-0.015": 0.0188327322459,
			"-0.014": 0.860803260813,
			"-0.013": 1.51599345862,
			"-0.012": 0.915767634079,
			"-0.011": 1.01557337466,
			"-0.01": 3.41690128282,
			"-0.009": 4.20124742423,
			"-0.008": 4.81978787831,
			"-0.007": 7.34121732633,
			"-0.006": 15.2956334327,
			"-0.005": 20.974283556,
			"-0.004": 19.157509716,
			"-0.003": 16.1399511286,
			"-0.002": 18.6750578788,
			"-0.001": 21.3386795675,
			"0.0": 22.6169695974,
			"0.001": 20.1785044635,
			"0.002": 18.3946867344,
			"0.003": 11.5925407972,
			"0.004": 5.8195942672,
			"0.005": 3.62973498068,
			"0.006": 4.73541055297,
			"0.007": 4.77994909468,
			"0.008": 2.40324340052,
			"0.009": 5.29657020314,
			"0.01": 3.20421148653,
			"0.011": 4.18206723469,
			"0.012": 5.07353001597,
			"0.013": 6.58261282091,
			"0.014": 6.46724411901,
			"0.015": 1.25143380546,
			"0.016": 0.0,
			"0.017": 0.0,
			"0.018": 0.0,
			"0.019": 0.0,
			"0.02": 0.0,
			"0.021": 0.0,
			"0.022": 0.0,
			"0.023": 0.0,
			"0.024": 0.0,
			"0.025": 0.0
		}
	}
}
