{
	 "smiles": "CC(C)(Cl)C#C", 
	 "Tm": 212.15, 
	 "num_atms": 13, 
	 "gaussian": { 
		 "optdone": 1, 
		 "sigma_profile": "yes", 
		 "theory": "DFT", 
		 "functional": "B3LYP", 
		 "basiset": "6-31G**", 
		 "properties": { 
			 "R2extent": 1504.7159, 
			 "electric_dipole_moment_norm": 2.30690980751, 
			 "electric_quadrupole_moment_norm": 8.71066865114, 
			 "total_energy": -654.878307161, 
			 "HOMO_LUMO_gap": 0.25909, 
			 "cosmo_polarized_energy": -5.5, 
			 "cosmo_cavitation_energy": 18.65, 
			 "cosmo_dispersion_energy": -12.92, 
			 "cosmo_repulsion_energy": 1.11, 
			 "cosmo_total_nonelectrostatic_energy": 6.84, 
			 "SMD_solvation_energy": 4.63 
		},
		"coords": [
			{
				"x": 0.0154615074,
				"y": -0.5750253124,
				"z": -1.7763803955,
				"element": "C" 
			},
			{
				"x": -1.0102289751,
				"y": -1.2434434991,
				"z": -0.85172727,
				"element": "C" 
			},
			{
				"x": -0.454446049,
				"y": -2.5134348264,
				"z": -0.1944633113,
				"element": "C" 
			},
			{
				"x": -2.4531144994,
				"y": -1.7648723097,
				"z": -1.9192676132,
				"element": "Cl" 
			},
			{
				"x": -1.5144362244,
				"y": -0.3062570007,
				"z": 0.1467186931,
				"element": "C" 
			},
			{
				"x": -1.8871294496,
				"y": 0.4727800714,
				"z": 0.990551312,
				"element": "C" 
			},
			{
				"x": -0.413116234,
				"y": 0.3029738091,
				"z": -2.2628053908,
				"element": "H" 
			},
			{
				"x": 0.880861407,
				"y": -0.259477297,
				"z": -1.1842368811,
				"element": "H" 
			},
			{
				"x": 0.3472905004,
				"y": -1.281099717,
				"z": -2.5415371741,
				"element": "H" 
			},
			{
				"x": -1.2122532608,
				"y": -2.9934382343,
				"z": 0.4272114358,
				"element": "H" 
			},
			{
				"x": -0.1222077135,
				"y": -3.218080249,
				"z": -0.9607581258,
				"element": "H" 
			},
			{
				"x": 0.3990713874,
				"y": -2.2466652548,
				"z": 0.4375664869,
				"element": "H" 
			},
			{
				"x": -2.2327523964,
				"y": 1.15933982,
				"z": 1.728528234,
				"element": "H" 
			}
		],
		 "valence_orbital": [ 
			{
				"type": "occ",
				"energy": -0.37185,
				"method": "rhf"
			},
			{
				"type": "occ",
				"energy": -0.3038,
				"method": "rhf"
			},
			{
				"type": "occ",
				"energy": -0.2952,
				"method": "rhf"
			},
			{
				"type": "occ",
				"energy": -0.27713,
				"method": "rhf"
			},
			{
				"type": "occ",
				"energy": -0.27447,
				"method": "rhf"
			},
			{
				"type": "unocc",
				"energy": -0.01538,
				"method": "rhf"
			},
			{
				"type": "unocc",
				"energy": 0.04331,
				"method": "rhf"
			},
			{
				"type": "unocc",
				"energy": 0.077,
				"method": "rhf"
			},
			{
				"type": "unocc",
				"energy": 0.09295,
				"method": "rhf"
			},
			{
				"type": "unocc",
				"energy": 0.11794,
				"method": "rhf"
			}
		],
		"cosmo_sigma_profile": { 
			"-0.025": 0.0,
			"-0.024": 0.0,
			"-0.023": 0.0,
			"-0.022": 0.0,
			"-0.021": 0.0,
			"-0.02": 0.0,
			"-0.019": 0.0,
			"-0.018": 0.0,
			"-0.017": 0.0,
			"-0.016": 0.0,
			"-0.015": 0.0,
			"-0.014": 0.0,
			"-0.013": 0.0557907924499,
			"-0.012": 1.08178903769,
			"-0.011": 1.34237200782,
			"-0.01": 0.889689084912,
			"-0.009": 1.20791944964,
			"-0.008": 1.41054632546,
			"-0.007": 0.482464793287,
			"-0.006": 3.99062208968,
			"-0.005": 12.3825163048,
			"-0.004": 11.0420077003,
			"-0.003": 12.1704327996,
			"-0.002": 14.5255707318,
			"-0.001": 16.3716464856,
			"0.0": 9.09613751084,
			"0.001": 7.16719781782,
			"0.002": 5.66553148195,
			"0.003": 8.34908626815,
			"0.004": 9.33520557213,
			"0.005": 12.9924619313,
			"0.006": 15.000560148,
			"0.007": 5.4888323198,
			"0.008": 0.0,
			"0.009": 0.0,
			"0.01": 0.0,
			"0.011": 0.0,
			"0.012": 0.0,
			"0.013": 0.0,
			"0.014": 0.0,
			"0.015": 0.0,
			"0.016": 0.0,
			"0.017": 0.0,
			"0.018": 0.0,
			"0.019": 0.0,
			"0.02": 0.0,
			"0.021": 0.0,
			"0.022": 0.0,
			"0.023": 0.0,
			"0.024": 0.0,
			"0.025": 0.0
		}
	}
}
