{
	 "smiles": "CC(=O)OC1=C(NC2=CC(=CC=C12)[N+]([O-])=O)C1=CC=C(C=C1)C1=C(OC(C)=O)C2=C(N1)C=C(C=C2)[N+]([O-])=O", 
	 "Tm": 553.15, 
	 "num_atms": 56, 
	 "gaussian": { 
		 "optdone": 1, 
		 "sigma_profile": "yes", 
		 "theory": "DFT", 
		 "functional": "B3LYP", 
		 "basiset": "6-31G**", 
		 "properties": { 
			 "R2extent": 34568.8479, 
			 "electric_dipole_moment_norm": 5.46697303999, 
			 "electric_quadrupole_moment_norm": 97.6091120285, 
			 "total_energy": -1822.25450771, 
			 "HOMO_LUMO_gap": 0.12464, 
			 "cosmo_polarized_energy": -36.1, 
			 "cosmo_cavitation_energy": 64.73, 
			 "cosmo_dispersion_energy": -44.0, 
			 "cosmo_repulsion_energy": 3.24, 
			 "cosmo_total_nonelectrostatic_energy": 23.97, 
			 "SMD_solvation_energy": 16.57 
		},
		"coords": [
			{
				"x": 3.9564615233,
				"y": -1.7865632196,
				"z": -4.3456280642,
				"element": "C" 
			},
			{
				"x": 2.5007405378,
				"y": -1.9611100382,
				"z": -4.6953224868,
				"element": "C" 
			},
			{
				"x": 2.0068910073,
				"y": -1.856389461,
				"z": -5.788727458,
				"element": "O" 
			},
			{
				"x": 1.7873968685,
				"y": -2.2787803033,
				"z": -3.5602871189,
				"element": "O" 
			},
			{
				"x": 0.4285573055,
				"y": -2.5230426184,
				"z": -3.6542798419,
				"element": "C" 
			},
			{
				"x": -0.4899022024,
				"y": -1.9622723683,
				"z": -2.7790466022,
				"element": "C" 
			},
			{
				"x": -1.7191655972,
				"y": -2.5566102781,
				"z": -3.0323520194,
				"element": "N" 
			},
			{
				"x": -1.6040024342,
				"y": -3.452276094,
				"z": -4.0730784799,
				"element": "C" 
			},
			{
				"x": -2.5782809869,
				"y": -4.2464950946,
				"z": -4.6709826764,
				"element": "C" 
			},
			{
				"x": -2.1447259203,
				"y": -5.0887301917,
				"z": -5.6874064683,
				"element": "C" 
			},
			{
				"x": -0.8029130092,
				"y": -5.156808592,
				"z": -6.1121594655,
				"element": "C" 
			},
			{
				"x": 0.151535444,
				"y": -4.3533896813,
				"z": -5.5146166272,
				"element": "C" 
			},
			{
				"x": -0.2393436382,
				"y": -3.4760880718,
				"z": -4.4829645069,
				"element": "C" 
			},
			{
				"x": -3.1365602516,
				"y": -5.9468890344,
				"z": -6.3415923246,
				"element": "N" 
			},
			{
				"x": -2.7450772085,
				"y": -6.7025961024,
				"z": -7.2319243706,
				"element": "O" 
			},
			{
				"x": -4.3073986291,
				"y": -5.8646836346,
				"z": -5.9622478267,
				"element": "O" 
			},
			{
				"x": -0.3270682474,
				"y": -0.9845266841,
				"z": -1.7048724741,
				"element": "C" 
			},
			{
				"x": -1.2142765167,
				"y": -0.9681789585,
				"z": -0.6112859901,
				"element": "C" 
			},
			{
				"x": -1.0789415755,
				"y": -0.032157767,
				"z": 0.4064759403,
				"element": "C" 
			},
			{
				"x": -0.0469084731,
				"y": 0.9231804851,
				"z": 0.3750534425,
				"element": "C" 
			},
			{
				"x": 0.8389705224,
				"y": 0.9121091469,
				"z": -0.7170409439,
				"element": "C" 
			},
			{
				"x": 0.7013728767,
				"y": -0.0238167625,
				"z": -1.7343497078,
				"element": "C" 
			},
			{
				"x": 0.0802015939,
				"y": 1.9088987166,
				"z": 1.4509283349,
				"element": "C" 
			},
			{
				"x": 1.185111134,
				"y": 2.4015437768,
				"z": 2.1242888901,
				"element": "C" 
			},
			{
				"x": 2.494352283,
				"y": 1.9659126456,
				"z": 1.998983508,
				"element": "O" 
			},
			{
				"x": 3.3155625377,
				"y": 2.5855487015,
				"z": 1.0850819313,
				"element": "C" 
			},
			{
				"x": 4.7201579544,
				"y": 2.0582473609,
				"z": 1.2223690633,
				"element": "C" 
			},
			{
				"x": 2.9321869259,
				"y": 3.4123501325,
				"z": 0.2958862878,
				"element": "O" 
			},
			{
				"x": 0.7464369709,
				"y": 3.3157196932,
				"z": 3.1255636312,
				"element": "C" 
			},
			{
				"x": -0.6731308967,
				"y": 3.3603317511,
				"z": 3.0236153085,
				"element": "C" 
			},
			{
				"x": -1.0460108308,
				"y": 2.4816573073,
				"z": 2.0283781004,
				"element": "N" 
			},
			{
				"x": -1.4505736867,
				"y": 4.1747453672,
				"z": 3.8415388344,
				"element": "C" 
			},
			{
				"x": -0.7633562931,
				"y": 4.9344326546,
				"z": 4.7820425038,
				"element": "C" 
			},
			{
				"x": 0.6380393389,
				"y": 4.9020561555,
				"z": 4.929176771,
				"element": "C" 
			},
			{
				"x": 1.3968318691,
				"y": 4.0906807199,
				"z": 4.1041587434,
				"element": "C" 
			},
			{
				"x": -1.5432494082,
				"y": 5.8055624169,
				"z": 5.666046246,
				"element": "N" 
			},
			{
				"x": -2.7679155182,
				"y": 5.8232584138,
				"z": 5.5214037963,
				"element": "O" 
			},
			{
				"x": -0.9317860523,
				"y": 6.470060024,
				"z": 6.5038074845,
				"element": "O" 
			},
			{
				"x": 4.5057796837,
				"y": -1.4798987771,
				"z": -5.2347875832,
				"element": "H" 
			},
			{
				"x": 4.3621970897,
				"y": -2.7284879179,
				"z": -3.9641164294,
				"element": "H" 
			},
			{
				"x": 4.0719672944,
				"y": -1.0398135456,
				"z": -3.554878311,
				"element": "H" 
			},
			{
				"x": -2.5932452122,
				"y": -2.2085938873,
				"z": -2.6716856388,
				"element": "H" 
			},
			{
				"x": -3.6205695959,
				"y": -4.2367602128,
				"z": -4.3776248287,
				"element": "H" 
			},
			{
				"x": -0.5475036945,
				"y": -5.8391639022,
				"z": -6.9121881838,
				"element": "H" 
			},
			{
				"x": 1.1795443243,
				"y": -4.3835052218,
				"z": -5.8534954667,
				"element": "H" 
			},
			{
				"x": -1.9911706811,
				"y": -1.7228966825,
				"z": -0.5311075893,
				"element": "H" 
			},
			{
				"x": -1.7545608282,
				"y": -0.0671781269,
				"z": 1.2563396774,
				"element": "H" 
			},
			{
				"x": 1.6045820238,
				"y": 1.6762614142,
				"z": -0.7890320191,
				"element": "H" 
			},
			{
				"x": 1.3800180479,
				"y": 0.0043536782,
				"z": -2.5777595903,
				"element": "H" 
			},
			{
				"x": 5.1077826488,
				"y": 2.2847470325,
				"z": 2.220005286,
				"element": "H" 
			},
			{
				"x": 5.3549869075,
				"y": 2.5156856285,
				"z": 0.4646264697,
				"element": "H" 
			},
			{
				"x": 4.7230903512,
				"y": 0.9699503357,
				"z": 1.1131623672,
				"element": "H" 
			},
			{
				"x": -1.9663282143,
				"y": 2.4269914629,
				"z": 1.620306713,
				"element": "H" 
			},
			{
				"x": -2.5300309473,
				"y": 4.2324805128,
				"z": 3.7786496328,
				"element": "H" 
			},
			{
				"x": 1.0920713544,
				"y": 5.5208987207,
				"z": 5.6919530513,
				"element": "H" 
			},
			{
				"x": 2.4761701307,
				"y": 4.0553389749,
				"z": 4.2074990786,
				"element": "H" 
			}
		],
		 "valence_orbital": [ 
			{
				"type": "occ",
				"energy": -0.28364,
				"method": "rhf"
			},
			{
				"type": "occ",
				"energy": -0.25769,
				"method": "rhf"
			},
			{
				"type": "occ",
				"energy": -0.24809,
				"method": "rhf"
			},
			{
				"type": "occ",
				"energy": -0.23502,
				"method": "rhf"
			},
			{
				"type": "occ",
				"energy": -0.21962,
				"method": "rhf"
			},
			{
				"type": "unocc",
				"energy": -0.09498,
				"method": "rhf"
			},
			{
				"type": "unocc",
				"energy": -0.0841,
				"method": "rhf"
			},
			{
				"type": "unocc",
				"energy": -0.05883,
				"method": "rhf"
			},
			{
				"type": "unocc",
				"energy": -0.03596,
				"method": "rhf"
			},
			{
				"type": "unocc",
				"energy": -0.02947,
				"method": "rhf"
			}
		],
		"cosmo_sigma_profile": { 
			"-0.025": 0.0,
			"-0.024": 0.0,
			"-0.023": 0.0,
			"-0.022": 0.0,
			"-0.021": 0.0,
			"-0.02": 0.0,
			"-0.019": 0.0,
			"-0.018": 0.0,
			"-0.017": 0.926358355203,
			"-0.016": 2.13764677121,
			"-0.015": 3.25899569149,
			"-0.014": 2.04658603568,
			"-0.013": 2.66401514236,
			"-0.012": 2.831371294,
			"-0.011": 3.71165365856,
			"-0.01": 3.31981006059,
			"-0.009": 3.73164208731,
			"-0.008": 6.10482193208,
			"-0.007": 19.3578004225,
			"-0.006": 29.6136748854,
			"-0.005": 32.389982979,
			"-0.004": 32.0942305208,
			"-0.003": 32.1110892286,
			"-0.002": 34.1186801978,
			"-0.001": 28.5344819199,
			"0.0": 36.0950307984,
			"0.001": 50.5815875513,
			"0.002": 42.2594794894,
			"0.003": 33.6639305602,
			"0.004": 15.1597943899,
			"0.005": 11.0115014517,
			"0.006": 12.5180090834,
			"0.007": 13.3413349546,
			"0.008": 24.592833463,
			"0.009": 15.2239386323,
			"0.01": 13.6578914301,
			"0.011": 11.1491837309,
			"0.012": 2.5313448677,
			"0.013": 0.0301774896739,
			"0.014": 0.0,
			"0.015": 0.0,
			"0.016": 0.0,
			"0.017": 0.0,
			"0.018": 0.0,
			"0.019": 0.0,
			"0.02": 0.0,
			"0.021": 0.0,
			"0.022": 0.0,
			"0.023": 0.0,
			"0.024": 0.0,
			"0.025": 0.0
		}
	}
}
