{
	 "smiles": "NC(=NO)C1=CC2=C(O1)C=CC=C2", 
	 "Tm": 457.15, 
	 "num_atms": 21, 
	 "gaussian": { 
		 "optdone": 1, 
		 "sigma_profile": "yes", 
		 "theory": "DFT", 
		 "functional": "B3LYP", 
		 "basiset": "6-31G**", 
		 "properties": { 
			 "R2extent": 3274.7485, 
			 "electric_dipole_moment_norm": 1.82758737411, 
			 "electric_quadrupole_moment_norm": 10.2638881263, 
			 "total_energy": -607.666978977, 
			 "HOMO_LUMO_gap": 0.16809, 
			 "cosmo_polarized_energy": -13.66, 
			 "cosmo_cavitation_energy": 25.9, 
			 "cosmo_dispersion_energy": -19.55, 
			 "cosmo_repulsion_energy": 1.55, 
			 "cosmo_total_nonelectrostatic_energy": 7.91, 
			 "SMD_solvation_energy": 4.68 
		},
		"coords": [
			{
				"x": 1.0488338121,
				"y": 0.8350643899,
				"z": 3.1717300852,
				"element": "N" 
			},
			{
				"x": 1.8749199828,
				"y": 0.472060822,
				"z": 2.1201843652,
				"element": "C" 
			},
			{
				"x": 3.1671149136,
				"y": 0.4186590611,
				"z": 2.1744916467,
				"element": "N" 
			},
			{
				"x": 3.6004194596,
				"y": 0.8885927745,
				"z": 3.4404701329,
				"element": "O" 
			},
			{
				"x": 1.2152040708,
				"y": 0.0494508732,
				"z": 0.8873194351,
				"element": "C" 
			},
			{
				"x": -0.0850217111,
				"y": -0.296969257,
				"z": 0.6516047267,
				"element": "C" 
			},
			{
				"x": -0.1707582655,
				"y": -0.6170499267,
				"z": -0.7483319027,
				"element": "C" 
			},
			{
				"x": 1.1324242882,
				"y": -0.4313793702,
				"z": -1.2509055617,
				"element": "C" 
			},
			{
				"x": 1.9749511417,
				"y": -0.0221513464,
				"z": -0.2550111394,
				"element": "O" 
			},
			{
				"x": 1.4834062869,
				"y": -0.6401392757,
				"z": -2.5792635607,
				"element": "C" 
			},
			{
				"x": 0.461911121,
				"y": -1.0571777169,
				"z": -3.431663056,
				"element": "C" 
			},
			{
				"x": -0.8510205711,
				"y": -1.2541817176,
				"z": -2.9608694781,
				"element": "C" 
			},
			{
				"x": -1.1819999641,
				"y": -1.0395827508,
				"z": -1.626526207,
				"element": "C" 
			},
			{
				"x": 1.556888932,
				"y": 1.2479720628,
				"z": 3.9427503144,
				"element": "H" 
			},
			{
				"x": 0.2186370179,
				"y": 1.3471345596,
				"z": 2.9081069626,
				"element": "H" 
			},
			{
				"x": 4.5595525093,
				"y": 0.8228770341,
				"z": 3.3589799509,
				"element": "H" 
			},
			{
				"x": -0.8711834075,
				"y": -0.353981729,
				"z": 1.3904245496,
				"element": "H" 
			},
			{
				"x": 2.4997280874,
				"y": -0.48565783,
				"z": -2.9244385756,
				"element": "H" 
			},
			{
				"x": 0.6839239549,
				"y": -1.2345263964,
				"z": -4.4796135398,
				"element": "H" 
			},
			{
				"x": -1.6183901043,
				"y": -1.5809203831,
				"z": -3.6563475363,
				"element": "H" 
			},
			{
				"x": -2.1968415543,
				"y": -1.1957938772,
				"z": -1.2730916119,
				"element": "H" 
			}
		],
		 "valence_orbital": [ 
			{
				"type": "occ",
				"energy": -0.29308,
				"method": "rhf"
			},
			{
				"type": "occ",
				"energy": -0.27705,
				"method": "rhf"
			},
			{
				"type": "occ",
				"energy": -0.24289,
				"method": "rhf"
			},
			{
				"type": "occ",
				"energy": -0.23262,
				"method": "rhf"
			},
			{
				"type": "occ",
				"energy": -0.20662,
				"method": "rhf"
			},
			{
				"type": "unocc",
				"energy": -0.03853,
				"method": "rhf"
			},
			{
				"type": "unocc",
				"energy": 0.01059,
				"method": "rhf"
			},
			{
				"type": "unocc",
				"energy": 0.02699,
				"method": "rhf"
			},
			{
				"type": "unocc",
				"energy": 0.06427,
				"method": "rhf"
			},
			{
				"type": "unocc",
				"energy": 0.09561,
				"method": "rhf"
			}
		],
		"cosmo_sigma_profile": { 
			"-0.025": 0.0,
			"-0.024": 0.0,
			"-0.023": 0.0,
			"-0.022": 0.0,
			"-0.021": 0.0,
			"-0.02": 0.0,
			"-0.019": 0.0,
			"-0.018": 0.0688686563507,
			"-0.017": 0.717058384333,
			"-0.016": 1.32726082063,
			"-0.015": 0.0974984960492,
			"-0.014": 1.30674742311,
			"-0.013": 2.19332978859,
			"-0.012": 1.95360062735,
			"-0.011": 3.05394920231,
			"-0.01": 3.32781189433,
			"-0.009": 2.87640992943,
			"-0.008": 4.19581057269,
			"-0.007": 5.64675200834,
			"-0.006": 10.3861359936,
			"-0.005": 11.9636230417,
			"-0.004": 11.713330191,
			"-0.003": 10.688545964,
			"-0.002": 9.43173068383,
			"-0.001": 9.54841165964,
			"0.0": 10.1667732216,
			"0.001": 13.9292418674,
			"0.002": 17.3526625671,
			"0.003": 16.033326601,
			"0.004": 13.880416792,
			"0.005": 13.9115658063,
			"0.006": 7.00264515395,
			"0.007": 5.63681797191,
			"0.008": 4.26912565974,
			"0.009": 3.96106477903,
			"0.01": 2.912829386,
			"0.011": 2.56483387325,
			"0.012": 1.88354748672,
			"0.013": 1.11572067718,
			"0.014": 1.45157698712,
			"0.015": 0.724663902512,
			"0.016": 0.000794188052253,
			"0.017": 0.0,
			"0.018": 0.0,
			"0.019": 0.0,
			"0.02": 0.0,
			"0.021": 0.0,
			"0.022": 0.0,
			"0.023": 0.0,
			"0.024": 0.0,
			"0.025": 0.0
		}
	}
}
