{
	 "smiles": "CN1N=C(C)C(SC#N)=C1N", 
	 "Tm": 450.15, 
	 "num_atms": 19, 
	 "gaussian": { 
		 "optdone": 1, 
		 "sigma_profile": "yes", 
		 "theory": "DFT", 
		 "functional": "B3LYP", 
		 "basiset": "6-31G**", 
		 "properties": { 
			 "R2extent": 2577.1946, 
			 "electric_dipole_moment_norm": 4.64157282179, 
			 "electric_quadrupole_moment_norm": 17.7404507144, 
			 "total_energy": -850.610334161, 
			 "HOMO_LUMO_gap": 0.21957, 
			 "cosmo_polarized_energy": -14.98, 
			 "cosmo_cavitation_energy": 26.08, 
			 "cosmo_dispersion_energy": -18.4, 
			 "cosmo_repulsion_energy": 1.47, 
			 "cosmo_total_nonelectrostatic_energy": 9.15, 
			 "SMD_solvation_energy": 5.68 
		},
		"coords": [
			{
				"x": -1.4204636662,
				"y": 2.4962320487,
				"z": 2.509029656,
				"element": "C" 
			},
			{
				"x": -1.4673140683,
				"y": 1.8006977428,
				"z": 1.2396025963,
				"element": "N" 
			},
			{
				"x": -2.5393047457,
				"y": 1.9789029634,
				"z": 0.3971662659,
				"element": "N" 
			},
			{
				"x": -2.2848043448,
				"y": 1.2300915878,
				"z": -0.665132317,
				"element": "C" 
			},
			{
				"x": -3.2393693979,
				"y": 1.1719170564,
				"z": -1.8149103727,
				"element": "C" 
			},
			{
				"x": -1.0457488848,
				"y": 0.5409713704,
				"z": -0.5104692071,
				"element": "C" 
			},
			{
				"x": -0.2205350765,
				"y": -0.5259115115,
				"z": -1.6417737311,
				"element": "S" 
			},
			{
				"x": -0.8410567977,
				"y": -2.0724828367,
				"z": -1.2192760349,
				"element": "C" 
			},
			{
				"x": -1.2244291848,
				"y": -3.1446137353,
				"z": -0.9677048521,
				"element": "N" 
			},
			{
				"x": -0.556583582,
				"y": 0.9362106452,
				"z": 0.7385302944,
				"element": "C" 
			},
			{
				"x": 0.6319592899,
				"y": 0.6413803166,
				"z": 1.3842935354,
				"element": "N" 
			},
			{
				"x": -2.0726832442,
				"y": 3.3657667701,
				"z": 2.4306292047,
				"element": "H" 
			},
			{
				"x": -0.3966938518,
				"y": 2.8229681564,
				"z": 2.7117175453,
				"element": "H" 
			},
			{
				"x": -1.7709939446,
				"y": 1.8638175681,
				"z": 3.3335373819,
				"element": "H" 
			},
			{
				"x": -4.0822830714,
				"y": 1.8388703523,
				"z": -1.6238594194,
				"element": "H" 
			},
			{
				"x": -2.7555728829,
				"y": 1.4748715041,
				"z": -2.7495869731,
				"element": "H" 
			},
			{
				"x": -3.6231835813,
				"y": 0.1564926357,
				"z": -1.9612656087,
				"element": "H" 
			},
			{
				"x": 1.1708012913,
				"y": -0.0612657639,
				"z": 0.8916722336,
				"element": "H" 
			},
			{
				"x": 0.5385597439,
				"y": 0.4050831294,
				"z": 2.3649998026,
				"element": "H" 
			}
		],
		 "valence_orbital": [ 
			{
				"type": "occ",
				"energy": -0.32859,
				"method": "rhf"
			},
			{
				"type": "occ",
				"energy": -0.29717,
				"method": "rhf"
			},
			{
				"type": "occ",
				"energy": -0.26342,
				"method": "rhf"
			},
			{
				"type": "occ",
				"energy": -0.25408,
				"method": "rhf"
			},
			{
				"type": "occ",
				"energy": -0.22795,
				"method": "rhf"
			},
			{
				"type": "unocc",
				"energy": -0.00838,
				"method": "rhf"
			},
			{
				"type": "unocc",
				"energy": 0.00747,
				"method": "rhf"
			},
			{
				"type": "unocc",
				"energy": 0.02282,
				"method": "rhf"
			},
			{
				"type": "unocc",
				"energy": 0.04651,
				"method": "rhf"
			},
			{
				"type": "unocc",
				"energy": 0.05414,
				"method": "rhf"
			}
		],
		"cosmo_sigma_profile": { 
			"-0.025": 0.0,
			"-0.024": 0.0,
			"-0.023": 0.0,
			"-0.022": 0.0,
			"-0.021": 0.0,
			"-0.02": 0.0,
			"-0.019": 0.0,
			"-0.018": 0.0,
			"-0.017": 0.0,
			"-0.016": 0.0,
			"-0.015": 0.0702975867048,
			"-0.014": 0.91313035311,
			"-0.013": 2.6537471695,
			"-0.012": 2.60069643252,
			"-0.011": 2.64662870091,
			"-0.01": 2.64858249152,
			"-0.009": 1.93154338533,
			"-0.008": 3.02369544176,
			"-0.007": 4.12447174627,
			"-0.006": 8.85291250013,
			"-0.005": 11.0232232876,
			"-0.004": 14.6127122908,
			"-0.003": 21.0222935012,
			"-0.002": 16.3361591081,
			"-0.001": 17.3447726718,
			"0.0": 14.9491612517,
			"0.001": 12.2339910053,
			"0.002": 12.8734601269,
			"0.003": 9.78514135689,
			"0.004": 6.69266484345,
			"0.005": 4.84186586214,
			"0.006": 5.18799647303,
			"0.007": 6.26176428481,
			"0.008": 4.75121466215,
			"0.009": 5.20533080283,
			"0.01": 5.73605857719,
			"0.011": 4.06009377723,
			"0.012": 3.84229487113,
			"0.013": 2.02838377493,
			"0.014": 1.06950291678,
			"0.015": 0.691018657942,
			"0.016": 0.269255840259,
			"0.017": 0.0,
			"0.018": 0.0,
			"0.019": 0.0,
			"0.02": 0.0,
			"0.021": 0.0,
			"0.022": 0.0,
			"0.023": 0.0,
			"0.024": 0.0,
			"0.025": 0.0
		}
	}
}
