{
	 "smiles": "OCCN1C(=O)NCC2=C1C=CC=C2", 
	 "Tm": 381.15, 
	 "num_atms": 26, 
	 "gaussian": { 
		 "optdone": 1, 
		 "sigma_profile": "yes", 
		 "theory": "DFT", 
		 "functional": "B3LYP", 
		 "basiset": "6-31G**", 
		 "properties": { 
			 "R2extent": 3067.2854, 
			 "electric_dipole_moment_norm": 3.87864613235, 
			 "electric_quadrupole_moment_norm": 11.8377268899, 
			 "total_energy": -648.261728332, 
			 "HOMO_LUMO_gap": 0.20274, 
			 "cosmo_polarized_energy": -15.6, 
			 "cosmo_cavitation_energy": 28.52, 
			 "cosmo_dispersion_energy": -21.17, 
			 "cosmo_repulsion_energy": 1.67, 
			 "cosmo_total_nonelectrostatic_energy": 9.02, 
			 "SMD_solvation_energy": 4.33 
		},
		"coords": [
			{
				"x": 2.4298251929,
				"y": -0.8808788915,
				"z": -2.1040143681,
				"element": "O" 
			},
			{
				"x": 1.4746886161,
				"y": -0.902016241,
				"z": -1.0528355559,
				"element": "C" 
			},
			{
				"x": 0.4213053607,
				"y": 0.1489156804,
				"z": -1.4038307371,
				"element": "C" 
			},
			{
				"x": -0.5574902612,
				"y": 0.3316164522,
				"z": -0.3315694192,
				"element": "N" 
			},
			{
				"x": -1.8595611063,
				"y": -0.1250337903,
				"z": -0.5879726949,
				"element": "C" 
			},
			{
				"x": -2.1746262643,
				"y": -0.6607587972,
				"z": -1.6441160438,
				"element": "O" 
			},
			{
				"x": -2.7757780828,
				"y": 0.1095603494,
				"z": 0.4126376419,
				"element": "N" 
			},
			{
				"x": -2.3859781354,
				"y": 0.2567896173,
				"z": 1.8080869235,
				"element": "C" 
			},
			{
				"x": -1.1597487461,
				"y": 1.128047009,
				"z": 1.8891418799,
				"element": "C" 
			},
			{
				"x": -0.2528056454,
				"y": 1.1057685051,
				"z": 0.8116185914,
				"element": "C" 
			},
			{
				"x": 0.9320880986,
				"y": 1.853894441,
				"z": 0.9093674651,
				"element": "C" 
			},
			{
				"x": 1.1946816323,
				"y": 2.6148216441,
				"z": 2.0484808129,
				"element": "C" 
			},
			{
				"x": 0.287802882,
				"y": 2.6519491716,
				"z": 3.1060037037,
				"element": "C" 
			},
			{
				"x": -0.8869879435,
				"y": 1.9049667537,
				"z": 3.0129112787,
				"element": "C" 
			},
			{
				"x": 3.0558890044,
				"y": -1.6001171382,
				"z": -1.9591434972,
				"element": "H" 
			},
			{
				"x": 1.9367893119,
				"y": -0.6692272271,
				"z": -0.0806840601,
				"element": "H" 
			},
			{
				"x": 0.9816893236,
				"y": -1.8816539738,
				"z": -0.9610584886,
				"element": "H" 
			},
			{
				"x": -0.1303803627,
				"y": -0.1680773816,
				"z": -2.2871034375,
				"element": "H" 
			},
			{
				"x": 0.9123713798,
				"y": 1.097996055,
				"z": -1.6388400679,
				"element": "H" 
			},
			{
				"x": -3.6554230174,
				"y": -0.3477790256,
				"z": 0.2166087999,
				"element": "H" 
			},
			{
				"x": -2.1875379463,
				"y": -0.7234330575,
				"z": 2.2777085525,
				"element": "H" 
			},
			{
				"x": -3.2151783969,
				"y": 0.7120935831,
				"z": 2.359253877,
				"element": "H" 
			},
			{
				"x": 1.6543430706,
				"y": 1.8501263544,
				"z": 0.1027718991,
				"element": "H" 
			},
			{
				"x": 2.1170975739,
				"y": 3.186002222,
				"z": 2.0991779333,
				"element": "H" 
			},
			{
				"x": 0.4901131101,
				"y": 3.2494598823,
				"z": 3.9891219728,
				"element": "H" 
			},
			{
				"x": -1.6055886484,
				"y": 1.9168678028,
				"z": 3.8290770381,
				"element": "H" 
			}
		],
		 "valence_orbital": [ 
			{
				"type": "occ",
				"energy": -0.27077,
				"method": "rhf"
			},
			{
				"type": "occ",
				"energy": -0.26585,
				"method": "rhf"
			},
			{
				"type": "occ",
				"energy": -0.25371,
				"method": "rhf"
			},
			{
				"type": "occ",
				"energy": -0.2468,
				"method": "rhf"
			},
			{
				"type": "occ",
				"energy": -0.212,
				"method": "rhf"
			},
			{
				"type": "unocc",
				"energy": -0.00926,
				"method": "rhf"
			},
			{
				"type": "unocc",
				"energy": -0.00457,
				"method": "rhf"
			},
			{
				"type": "unocc",
				"energy": 0.05968,
				"method": "rhf"
			},
			{
				"type": "unocc",
				"energy": 0.07082,
				"method": "rhf"
			},
			{
				"type": "unocc",
				"energy": 0.08741,
				"method": "rhf"
			}
		],
		"cosmo_sigma_profile": { 
			"-0.025": 0.0,
			"-0.024": 0.0,
			"-0.023": 0.0,
			"-0.022": 0.0,
			"-0.021": 0.0,
			"-0.02": 0.0,
			"-0.019": 0.0,
			"-0.018": 0.0,
			"-0.017": 0.0,
			"-0.016": 0.655509935375,
			"-0.015": 1.30748576868,
			"-0.014": 1.26852381936,
			"-0.013": 1.98714041086,
			"-0.012": 2.06594609462,
			"-0.011": 2.00831637515,
			"-0.01": 1.70083340694,
			"-0.009": 1.7563172067,
			"-0.008": 1.79016323461,
			"-0.007": 3.03223326614,
			"-0.006": 13.0938922798,
			"-0.005": 15.9196776434,
			"-0.004": 20.1477787864,
			"-0.003": 21.4623105874,
			"-0.002": 16.715492944,
			"-0.001": 15.531199834,
			"0.0": 13.5368332018,
			"0.001": 10.4452817135,
			"0.002": 9.9124431359,
			"0.003": 10.3767574874,
			"0.004": 11.9592850172,
			"0.005": 11.3442179701,
			"0.006": 8.5840064245,
			"0.007": 3.18596145082,
			"0.008": 2.97155649691,
			"0.009": 2.19695038993,
			"0.01": 2.12735296109,
			"0.011": 2.82351178865,
			"0.012": 3.17527143591,
			"0.013": 5.24493537569,
			"0.014": 6.40266121115,
			"0.015": 0.445682098229,
			"0.016": 0.0,
			"0.017": 0.0,
			"0.018": 0.0,
			"0.019": 0.0,
			"0.02": 0.0,
			"0.021": 0.0,
			"0.022": 0.0,
			"0.023": 0.0,
			"0.024": 0.0,
			"0.025": 0.0
		}
	}
}
