{
	 "smiles": "CC(=O)C1CCC2(C)C(CCC3C4CCC(O)C4(C)CCC23)C1", 
	 "Tm": 418.15, 
	 "num_atms": 57, 
	 "gaussian": { 
		 "optdone": 1, 
		 "sigma_profile": "yes", 
		 "theory": "DFT", 
		 "functional": "B3LYP", 
		 "basiset": "6-31G**", 
		 "properties": { 
			 "R2extent": 10090.4085, 
			 "electric_dipole_moment_norm": 2.64043261039, 
			 "electric_quadrupole_moment_norm": 24.2302967722, 
			 "total_energy": -971.191692398, 
			 "HOMO_LUMO_gap": 0.22998, 
			 "cosmo_polarized_energy": -12.44, 
			 "cosmo_cavitation_energy": 48.35, 
			 "cosmo_dispersion_energy": -33.79, 
			 "cosmo_repulsion_energy": 2.48, 
			 "cosmo_total_nonelectrostatic_energy": 17.05, 
			 "SMD_solvation_energy": 6.97 
		},
		"coords": [
			{
				"x": -3.7284617596,
				"y": -4.5910814782,
				"z": -3.6179435144,
				"element": "C" 
			},
			{
				"x": -3.8078929894,
				"y": -3.6852155871,
				"z": -2.3993933791,
				"element": "C" 
			},
			{
				"x": -4.7759833241,
				"y": -3.7003988685,
				"z": -1.6613079291,
				"element": "O" 
			},
			{
				"x": -2.6107887408,
				"y": -2.769083722,
				"z": -2.146526489,
				"element": "C" 
			},
			{
				"x": -1.3976107604,
				"y": -3.6145690642,
				"z": -1.6372885492,
				"element": "C" 
			},
			{
				"x": -0.5753299152,
				"y": -2.8760951283,
				"z": -0.5622806721,
				"element": "C" 
			},
			{
				"x": -0.3504977853,
				"y": -1.3717812709,
				"z": -0.8548653047,
				"element": "C" 
			},
			{
				"x": 0.3547834725,
				"y": -1.2105955199,
				"z": -2.2216118131,
				"element": "C" 
			},
			{
				"x": -1.7671281645,
				"y": -0.6660015736,
				"z": -0.9282201356,
				"element": "C" 
			},
			{
				"x": -2.0611747983,
				"y": 0.1878718402,
				"z": 0.3109292742,
				"element": "C" 
			},
			{
				"x": -1.0247877039,
				"y": 1.2980699748,
				"z": 0.5133792045,
				"element": "C" 
			},
			{
				"x": 0.4414157519,
				"y": 0.8079124125,
				"z": 0.3295242103,
				"element": "C" 
			},
			{
				"x": 1.3485232812,
				"y": 1.3475624638,
				"z": 1.4443372592,
				"element": "C" 
			},
			{
				"x": 1.4539064943,
				"y": 2.8667731945,
				"z": 1.6780655296,
				"element": "C" 
			},
			{
				"x": 2.7151432004,
				"y": 3.0153818347,
				"z": 2.5811420595,
				"element": "C" 
			},
			{
				"x": 3.4281330673,
				"y": 1.6267045878,
				"z": 2.5994841476,
				"element": "C" 
			},
			{
				"x": 3.2440169805,
				"y": 0.9409345706,
				"z": 3.8370123655,
				"element": "O" 
			},
			{
				"x": 2.8251392921,
				"y": 0.8852979509,
				"z": 1.3703915345,
				"element": "C" 
			},
			{
				"x": 3.5622324563,
				"y": 1.4038327043,
				"z": 0.114566854,
				"element": "C" 
			},
			{
				"x": 2.857073797,
				"y": -0.6472995557,
				"z": 1.418383181,
				"element": "C" 
			},
			{
				"x": 1.988830195,
				"y": -1.2495977496,
				"z": 0.2965026986,
				"element": "C" 
			},
			{
				"x": 0.5228059664,
				"y": -0.7477123574,
				"z": 0.2973372378,
				"element": "C" 
			},
			{
				"x": -2.9359103373,
				"y": -1.651778855,
				"z": -1.1538689852,
				"element": "C" 
			},
			{
				"x": -4.5556386939,
				"y": -5.3023567141,
				"z": -3.6066984515,
				"element": "H" 
			},
			{
				"x": -3.7885972603,
				"y": -3.9838189159,
				"z": -4.5296135346,
				"element": "H" 
			},
			{
				"x": -2.7739771502,
				"y": -5.1270205873,
				"z": -3.6558673057,
				"element": "H" 
			},
			{
				"x": -2.3380291379,
				"y": -2.3236396916,
				"z": -3.1134933476,
				"element": "H" 
			},
			{
				"x": -0.7576252736,
				"y": -3.8882665278,
				"z": -2.4826884299,
				"element": "H" 
			},
			{
				"x": -1.752265685,
				"y": -4.5582465354,
				"z": -1.2046230714,
				"element": "H" 
			},
			{
				"x": 0.3836598576,
				"y": -3.3922704109,
				"z": -0.448422688,
				"element": "H" 
			},
			{
				"x": -1.0836847749,
				"y": -2.9678361664,
				"z": 0.4058148377,
				"element": "H" 
			},
			{
				"x": 0.6495163566,
				"y": -0.1702458399,
				"z": -2.3968934273,
				"element": "H" 
			},
			{
				"x": 1.2532201264,
				"y": -1.8305115792,
				"z": -2.2991354789,
				"element": "H" 
			},
			{
				"x": -0.306128402,
				"y": -1.4932983524,
				"z": -3.0456324668,
				"element": "H" 
			},
			{
				"x": -1.7412337513,
				"y": 0.017731122,
				"z": -1.7899863356,
				"element": "H" 
			},
			{
				"x": -3.063460423,
				"y": 0.6255723771,
				"z": 0.2250739475,
				"element": "H" 
			},
			{
				"x": -2.0971360524,
				"y": -0.4622573576,
				"z": 1.1952783166,
				"element": "H" 
			},
			{
				"x": -1.2269243324,
				"y": 2.11650904,
				"z": -0.1882961759,
				"element": "H" 
			},
			{
				"x": -1.1538361164,
				"y": 1.7239323045,
				"z": 1.5158538745,
				"element": "H" 
			},
			{
				"x": 0.814694696,
				"y": 1.1888608887,
				"z": -0.6306128674,
				"element": "H" 
			},
			{
				"x": 0.9456988915,
				"y": 0.9132116408,
				"z": 2.378294605,
				"element": "H" 
			},
			{
				"x": 0.5583183928,
				"y": 3.2878581837,
				"z": 2.144049831,
				"element": "H" 
			},
			{
				"x": 1.588384149,
				"y": 3.3927498843,
				"z": 0.7260149663,
				"element": "H" 
			},
			{
				"x": 3.3819692763,
				"y": 3.8006386369,
				"z": 2.2121306831,
				"element": "H" 
			},
			{
				"x": 2.4589366126,
				"y": 3.2876479807,
				"z": 3.6100245891,
				"element": "H" 
			},
			{
				"x": 4.5147633196,
				"y": 1.7239558049,
				"z": 2.5098929516,
				"element": "H" 
			},
			{
				"x": 2.2966449878,
				"y": 0.9057127021,
				"z": 4.024015414,
				"element": "H" 
			},
			{
				"x": 4.5897364289,
				"y": 1.022690257,
				"z": 0.1088908456,
				"element": "H" 
			},
			{
				"x": 3.0893241104,
				"y": 1.0839927417,
				"z": -0.8170281951,
				"element": "H" 
			},
			{
				"x": 3.6214674063,
				"y": 2.4958066638,
				"z": 0.0873121969,
				"element": "H" 
			},
			{
				"x": 2.4948032596,
				"y": -0.9815653485,
				"z": 2.3971873799,
				"element": "H" 
			},
			{
				"x": 3.8854349215,
				"y": -1.0204918416,
				"z": 1.3283924212,
				"element": "H" 
			},
			{
				"x": 2.0044088108,
				"y": -2.3409900771,
				"z": 0.3894625342,
				"element": "H" 
			},
			{
				"x": 2.4565876957,
				"y": -1.0254073712,
				"z": -0.6677953776,
				"element": "H" 
			},
			{
				"x": 0.0828591244,
				"y": -1.0965324673,
				"z": 1.244729274,
				"element": "H" 
			},
			{
				"x": -3.8161296707,
				"y": -1.0950151296,
				"z": -1.4935054771,
				"element": "H" 
			},
			{
				"x": -3.2325993763,
				"y": -2.1094301181,
				"z": -0.2026748226,
				"element": "H" 
			}
		],
		 "valence_orbital": [ 
			{
				"type": "occ",
				"energy": -0.28807,
				"method": "rhf"
			},
			{
				"type": "occ",
				"energy": -0.2763,
				"method": "rhf"
			},
			{
				"type": "occ",
				"energy": -0.27123,
				"method": "rhf"
			},
			{
				"type": "occ",
				"energy": -0.25074,
				"method": "rhf"
			},
			{
				"type": "occ",
				"energy": -0.23756,
				"method": "rhf"
			},
			{
				"type": "unocc",
				"energy": -0.00758,
				"method": "rhf"
			},
			{
				"type": "unocc",
				"energy": 0.0629,
				"method": "rhf"
			},
			{
				"type": "unocc",
				"energy": 0.06483,
				"method": "rhf"
			},
			{
				"type": "unocc",
				"energy": 0.0788,
				"method": "rhf"
			},
			{
				"type": "unocc",
				"energy": 0.08384,
				"method": "rhf"
			}
		],
		"cosmo_sigma_profile": { 
			"-0.025": 0.0,
			"-0.024": 0.0,
			"-0.023": 0.0,
			"-0.022": 0.0,
			"-0.021": 0.0,
			"-0.02": 0.0,
			"-0.019": 0.0,
			"-0.018": 0.0,
			"-0.017": 0.0,
			"-0.016": 0.0,
			"-0.015": 0.0,
			"-0.014": 0.267392941024,
			"-0.013": 0.609402974647,
			"-0.012": 0.81304568635,
			"-0.011": 1.2738763489,
			"-0.01": 0.983731942161,
			"-0.009": 0.854775629772,
			"-0.008": 0.915770196102,
			"-0.007": 1.12397259708,
			"-0.006": 3.80330235032,
			"-0.005": 7.88919894848,
			"-0.004": 14.2991592264,
			"-0.003": 29.6246828406,
			"-0.002": 61.7392419913,
			"-0.001": 77.375172653,
			"0.0": 59.7466454111,
			"0.001": 40.9387281034,
			"0.002": 22.0826216178,
			"0.003": 5.23717305967,
			"0.004": 2.90781171722,
			"0.005": 3.20737126922,
			"0.006": 3.28734545307,
			"0.007": 2.6605146494,
			"0.008": 2.79773246913,
			"0.009": 3.1397425878,
			"0.01": 3.34318097096,
			"0.011": 3.18609691862,
			"0.012": 5.50890317805,
			"0.013": 5.03477555042,
			"0.014": 2.26930255692,
			"0.015": 1.85394713955,
			"0.016": 0.0979818374662,
			"0.017": 0.0,
			"0.018": 0.0,
			"0.019": 0.0,
			"0.02": 0.0,
			"0.021": 0.0,
			"0.022": 0.0,
			"0.023": 0.0,
			"0.024": 0.0,
			"0.025": 0.0
		}
	}
}
