{
	 "smiles": "C[C@@H](C1=NC=NC=C1F)[C@](O)(CN1C=NC=N1)C1=CC=C(F)C=C1F", 
	 "Tm": 401.65, 
	 "num_atms": 39, 
	 "gaussian": { 
		 "optdone": 1, 
		 "sigma_profile": "yes", 
		 "theory": "DFT", 
		 "functional": "B3LYP", 
		 "basiset": "6-31G**", 
		 "properties": { 
			 "R2extent": 7913.5761, 
			 "electric_dipole_moment_norm": 1.93926370306, 
			 "electric_quadrupole_moment_norm": 12.2617962775, 
			 "total_energy": -1266.59089863, 
			 "HOMO_LUMO_gap": 0.19009, 
			 "cosmo_polarized_energy": -16.37, 
			 "cosmo_cavitation_energy": 42.38, 
			 "cosmo_dispersion_energy": -28.22, 
			 "cosmo_repulsion_energy": 2.02, 
			 "cosmo_total_nonelectrostatic_energy": 16.19, 
			 "SMD_solvation_energy": 4.99 
		},
		"coords": [
			{
				"x": -2.0729823785,
				"y": 0.1117653558,
				"z": -0.7917249712,
				"element": "C" 
			},
			{
				"x": -0.7623672444,
				"y": -0.4702861616,
				"z": -0.2296208887,
				"element": "C" 
			},
			{
				"x": -0.1104354532,
				"y": -1.4010584768,
				"z": -1.2291768424,
				"element": "C" 
			},
			{
				"x": 0.2232375546,
				"y": -0.9424272009,
				"z": -2.4500209559,
				"element": "N" 
			},
			{
				"x": 0.7713782802,
				"y": -1.8015940719,
				"z": -3.3146719102,
				"element": "C" 
			},
			{
				"x": 1.0310501884,
				"y": -3.0956767384,
				"z": -3.1088925088,
				"element": "N" 
			},
			{
				"x": 0.7097098378,
				"y": -3.5660792675,
				"z": -1.8988991187,
				"element": "C" 
			},
			{
				"x": 0.1413163116,
				"y": -2.7443583111,
				"z": -0.9355311409,
				"element": "C" 
			},
			{
				"x": -0.1650358213,
				"y": -3.2502829404,
				"z": 0.2724996171,
				"element": "F" 
			},
			{
				"x": 0.2472447391,
				"y": 0.5963127631,
				"z": 0.3672007643,
				"element": "C" 
			},
			{
				"x": -0.4217893537,
				"y": 1.360830405,
				"z": 1.3558283394,
				"element": "O" 
			},
			{
				"x": 0.8717941666,
				"y": 1.5495785248,
				"z": -0.6886555138,
				"element": "C" 
			},
			{
				"x": -0.0891826122,
				"y": 2.4307302424,
				"z": -1.3380040501,
				"element": "N" 
			},
			{
				"x": -0.364658772,
				"y": 2.5931764068,
				"z": -2.6501721848,
				"element": "C" 
			},
			{
				"x": -1.2939092531,
				"y": 3.5216974166,
				"z": -2.8199115475,
				"element": "N" 
			},
			{
				"x": -1.5657252346,
				"y": 3.9075806447,
				"z": -1.5462894704,
				"element": "C" 
			},
			{
				"x": -0.8598740694,
				"y": 3.2846814959,
				"z": -0.6103252064,
				"element": "N" 
			},
			{
				"x": 1.3752352445,
				"y": -0.1635879424,
				"z": 1.0912074964,
				"element": "C" 
			},
			{
				"x": 2.7056125233,
				"y": -0.2028262331,
				"z": 0.6490983082,
				"element": "C" 
			},
			{
				"x": 3.7074840592,
				"y": -0.8922843613,
				"z": 1.3347851094,
				"element": "C" 
			},
			{
				"x": 3.3698442984,
				"y": -1.5624618949,
				"z": 2.5017823596,
				"element": "C" 
			},
			{
				"x": 4.3197470681,
				"y": -2.2304082876,
				"z": 3.1820428057,
				"element": "F" 
			},
			{
				"x": 2.0686315936,
				"y": -1.5687021031,
				"z": 2.9869202175,
				"element": "C" 
			},
			{
				"x": 1.1013303683,
				"y": -0.8744803615,
				"z": 2.271547371,
				"element": "C" 
			},
			{
				"x": -0.1549047019,
				"y": -0.9218770498,
				"z": 2.7534463206,
				"element": "F" 
			},
			{
				"x": -1.9414391311,
				"y": 0.5773771649,
				"z": -1.7689593318,
				"element": "H" 
			},
			{
				"x": -2.4817944291,
				"y": 0.8443149348,
				"z": -0.0930242592,
				"element": "H" 
			},
			{
				"x": -2.8091711504,
				"y": -0.6906729434,
				"z": -0.902113973,
				"element": "H" 
			},
			{
				"x": -1.0325459242,
				"y": -1.0694177581,
				"z": 0.6406760411,
				"element": "H" 
			},
			{
				"x": 1.0317122791,
				"y": -1.4047277929,
				"z": -4.2935025741,
				"element": "H" 
			},
			{
				"x": 0.9041344687,
				"y": -4.614402537,
				"z": -1.6827445407,
				"element": "H" 
			},
			{
				"x": -0.7885381722,
				"y": 2.162588349,
				"z": 0.9350070361,
				"element": "H" 
			},
			{
				"x": 1.3552707117,
				"y": 0.989180527,
				"z": -1.4872239339,
				"element": "H" 
			},
			{
				"x": 1.610074367,
				"y": 2.1764821259,
				"z": -0.1802396638,
				"element": "H" 
			},
			{
				"x": 0.1129841342,
				"y": 2.0061944636,
				"z": -3.4210632228,
				"element": "H" 
			},
			{
				"x": -2.2943157444,
				"y": 4.6660411635,
				"z": -1.2954344718,
				"element": "H" 
			},
			{
				"x": 2.9919633614,
				"y": 0.3159801759,
				"z": -0.257880535,
				"element": "H" 
			},
			{
				"x": 4.7304682344,
				"y": -0.9083753122,
				"z": 0.9771756943,
				"element": "H" 
			},
			{
				"x": 1.8046456553,
				"y": -2.0988244136,
				"z": 3.8937653353,
				"element": "H" 
			}
		],
		 "valence_orbital": [ 
			{
				"type": "occ",
				"energy": -0.27885,
				"method": "rhf"
			},
			{
				"type": "occ",
				"energy": -0.26986,
				"method": "rhf"
			},
			{
				"type": "occ",
				"energy": -0.26773,
				"method": "rhf"
			},
			{
				"type": "occ",
				"energy": -0.26447,
				"method": "rhf"
			},
			{
				"type": "occ",
				"energy": -0.25191,
				"method": "rhf"
			},
			{
				"type": "unocc",
				"energy": -0.06182,
				"method": "rhf"
			},
			{
				"type": "unocc",
				"energy": -0.03693,
				"method": "rhf"
			},
			{
				"type": "unocc",
				"energy": -0.02282,
				"method": "rhf"
			},
			{
				"type": "unocc",
				"energy": -0.01231,
				"method": "rhf"
			},
			{
				"type": "unocc",
				"energy": -0.0086,
				"method": "rhf"
			}
		],
		"cosmo_sigma_profile": { 
			"-0.025": 0.0,
			"-0.024": 0.0,
			"-0.023": 0.0,
			"-0.022": 0.0,
			"-0.021": 0.0,
			"-0.02": 0.0,
			"-0.019": 0.0,
			"-0.018": 0.0,
			"-0.017": 0.0,
			"-0.016": 0.0,
			"-0.015": 0.0,
			"-0.014": 0.0,
			"-0.013": 0.0,
			"-0.012": 0.0,
			"-0.011": 0.00129165347809,
			"-0.01": 1.34974137073,
			"-0.009": 7.01258934195,
			"-0.008": 11.358366324,
			"-0.007": 14.8642988985,
			"-0.006": 15.0499957965,
			"-0.005": 13.2628523554,
			"-0.004": 18.8212517183,
			"-0.003": 21.6210992632,
			"-0.002": 24.385067565,
			"-0.001": 28.4881659833,
			"0.0": 35.270040945,
			"0.001": 30.1114292925,
			"0.002": 26.751642887,
			"0.003": 26.0417932079,
			"0.004": 20.0863474853,
			"0.005": 8.19543127203,
			"0.006": 6.08650713877,
			"0.007": 4.37057747135,
			"0.008": 4.42842494004,
			"0.009": 3.98868144552,
			"0.01": 3.46386195393,
			"0.011": 3.41825345658,
			"0.012": 4.39690412725,
			"0.013": 2.99199789219,
			"0.014": 2.07378043613,
			"0.015": 1.1751759841,
			"0.016": 1.03116007112,
			"0.017": 0.0293381399736,
			"0.018": 0.0,
			"0.019": 0.0,
			"0.02": 0.0,
			"0.021": 0.0,
			"0.022": 0.0,
			"0.023": 0.0,
			"0.024": 0.0,
			"0.025": 0.0
		}
	}
}
