{
	 "smiles": "OC(=O)C1CCN1C(=O)COC(=O)C1=CC=CC=C1", 
	 "Tm": 423.15, 
	 "num_atms": 32, 
	 "gaussian": { 
		 "optdone": 1, 
		 "sigma_profile": "yes", 
		 "theory": "DFT", 
		 "functional": "B3LYP", 
		 "basiset": "6-31G**", 
		 "properties": { 
			 "R2extent": 6743.9151, 
			 "electric_dipole_moment_norm": 5.66750203352, 
			 "electric_quadrupole_moment_norm": 15.5276772503, 
			 "total_energy": -934.091005892, 
			 "HOMO_LUMO_gap": 0.18866, 
			 "cosmo_polarized_energy": -19.82, 
			 "cosmo_cavitation_energy": 37.48, 
			 "cosmo_dispersion_energy": -25.54, 
			 "cosmo_repulsion_energy": 2.01, 
			 "cosmo_total_nonelectrostatic_energy": 13.95, 
			 "SMD_solvation_energy": 8.57 
		},
		"coords": [
			{
				"x": -0.6175129397,
				"y": -3.7846446074,
				"z": -0.9925993565,
				"element": "O" 
			},
			{
				"x": -0.4068939085,
				"y": -3.9195055604,
				"z": 0.3351271402,
				"element": "C" 
			},
			{
				"x": -0.5553615295,
				"y": -4.9617426567,
				"z": 0.9316237987,
				"element": "O" 
			},
			{
				"x": 0.1128335679,
				"y": -2.6465315011,
				"z": 0.9801436392,
				"element": "C" 
			},
			{
				"x": 1.6111765891,
				"y": -2.3004561661,
				"z": 0.6748278009,
				"element": "C" 
			},
			{
				"x": 1.1241582658,
				"y": -0.9559126265,
				"z": 0.0685066341,
				"element": "C" 
			},
			{
				"x": -0.2570379335,
				"y": -1.3839859062,
				"z": 0.3495547982,
				"element": "N" 
			},
			{
				"x": -1.4859491573,
				"y": -0.8106878247,
				"z": 0.4193801988,
				"element": "C" 
			},
			{
				"x": -2.4393207454,
				"y": -1.3959787809,
				"z": 0.9220007224,
				"element": "O" 
			},
			{
				"x": -1.6535847715,
				"y": 0.6137653834,
				"z": -0.1012914108,
				"element": "C" 
			},
			{
				"x": -0.8168346217,
				"y": 0.908292925,
				"z": -1.231731692,
				"element": "O" 
			},
			{
				"x": 0.0771851343,
				"y": 1.9263042276,
				"z": -1.1067942856,
				"element": "C" 
			},
			{
				"x": 0.250751253,
				"y": 2.5438566806,
				"z": -0.0741777887,
				"element": "O" 
			},
			{
				"x": 0.8215414164,
				"y": 2.1751819991,
				"z": -2.3713578507,
				"element": "C" 
			},
			{
				"x": 0.576109402,
				"y": 1.4448457332,
				"z": -3.5435892928,
				"element": "C" 
			},
			{
				"x": 1.3050878697,
				"y": 1.7232953055,
				"z": -4.6986179584,
				"element": "C" 
			},
			{
				"x": 2.2762099189,
				"y": 2.7276917645,
				"z": -4.6900461582,
				"element": "C" 
			},
			{
				"x": 2.5206894117,
				"y": 3.457909299,
				"z": -3.5234624582,
				"element": "C" 
			},
			{
				"x": 1.7961299627,
				"y": 3.1835440382,
				"z": -2.3666850551,
				"element": "C" 
			},
			{
				"x": -0.9270480663,
				"y": -4.6521721314,
				"z": -1.3032004211,
				"element": "H" 
			},
			{
				"x": -0.1423513699,
				"y": -2.7006226057,
				"z": 2.0421878657,
				"element": "H" 
			},
			{
				"x": 2.2352434479,
				"y": -2.2131975246,
				"z": 1.5645269136,
				"element": "H" 
			},
			{
				"x": 2.0894767851,
				"y": -2.9696526695,
				"z": -0.0415562834,
				"element": "H" 
			},
			{
				"x": 1.4287857084,
				"y": -0.0569411117,
				"z": 0.6145092299,
				"element": "H" 
			},
			{
				"x": 1.3327199627,
				"y": -0.8194819368,
				"z": -0.9961736929,
				"element": "H" 
			},
			{
				"x": -2.6926793416,
				"y": 0.7192294122,
				"z": -0.4175412543,
				"element": "H" 
			},
			{
				"x": -1.4419963258,
				"y": 1.3252822223,
				"z": 0.7024909471,
				"element": "H" 
			},
			{
				"x": -0.1819877179,
				"y": 0.6702784776,
				"z": -3.5426860314,
				"element": "H" 
			},
			{
				"x": 1.1144740978,
				"y": 1.1584344053,
				"z": -5.6062474485,
				"element": "H" 
			},
			{
				"x": 2.8414315007,
				"y": 2.9424081338,
				"z": -5.5925320045,
				"element": "H" 
			},
			{
				"x": 3.274470582,
				"y": 4.2395175232,
				"z": -3.518014586,
				"element": "H" 
			},
			{
				"x": 1.9662835525,
				"y": 3.737376079,
				"z": -1.4496746599,
				"element": "H" 
			}
		],
		 "valence_orbital": [ 
			{
				"type": "occ",
				"energy": -0.2831,
				"method": "rhf"
			},
			{
				"type": "occ",
				"energy": -0.27048,
				"method": "rhf"
			},
			{
				"type": "occ",
				"energy": -0.26789,
				"method": "rhf"
			},
			{
				"type": "occ",
				"energy": -0.25459,
				"method": "rhf"
			},
			{
				"type": "occ",
				"energy": -0.24594,
				"method": "rhf"
			},
			{
				"type": "unocc",
				"energy": -0.05728,
				"method": "rhf"
			},
			{
				"type": "unocc",
				"energy": -0.01761,
				"method": "rhf"
			},
			{
				"type": "unocc",
				"energy": -0.00236,
				"method": "rhf"
			},
			{
				"type": "unocc",
				"energy": 0.01132,
				"method": "rhf"
			},
			{
				"type": "unocc",
				"energy": 0.04707,
				"method": "rhf"
			}
		],
		"cosmo_sigma_profile": { 
			"-0.025": 0.0,
			"-0.024": 0.0,
			"-0.023": 0.0,
			"-0.022": 0.0,
			"-0.021": 0.0,
			"-0.02": 0.0,
			"-0.019": 0.159031418839,
			"-0.018": 1.0636783841,
			"-0.017": 0.846446851544,
			"-0.016": 0.841828881069,
			"-0.015": 0.819584279968,
			"-0.014": 0.671187611914,
			"-0.013": 0.822748966352,
			"-0.012": 0.45908761323,
			"-0.011": 0.840018245726,
			"-0.01": 0.680943665871,
			"-0.009": 0.260934876925,
			"-0.008": 2.01049492551,
			"-0.007": 7.84807958112,
			"-0.006": 22.4860069392,
			"-0.005": 29.9064566405,
			"-0.004": 28.631395894,
			"-0.003": 24.412991005,
			"-0.002": 20.148965144,
			"-0.001": 14.347685032,
			"0.0": 15.0087439232,
			"0.001": 17.3772238796,
			"0.002": 15.0455199227,
			"0.003": 18.5737568162,
			"0.004": 16.5014836257,
			"0.005": 7.21537375875,
			"0.006": 5.87053418204,
			"0.007": 4.82132750539,
			"0.008": 5.24930426911,
			"0.009": 5.71990740489,
			"0.01": 5.81802220246,
			"0.011": 10.4477237959,
			"0.012": 6.30100592081,
			"0.013": 5.15856287754,
			"0.014": 1.59304066897,
			"0.015": 0.0132107110332,
			"0.016": 0.0,
			"0.017": 0.0,
			"0.018": 0.0,
			"0.019": 0.0,
			"0.02": 0.0,
			"0.021": 0.0,
			"0.022": 0.0,
			"0.023": 0.0,
			"0.024": 0.0,
			"0.025": 0.0
		}
	}
}
