{
	 "smiles": "FC(F)(F)C1=CC=C(C=C1)N1C=CN=C1", 
	 "Tm": 345.15, 
	 "num_atms": 22, 
	 "gaussian": { 
		 "optdone": 1, 
		 "sigma_profile": "yes", 
		 "theory": "DFT", 
		 "functional": "B3LYP", 
		 "basiset": "6-31G**", 
		 "properties": { 
			 "R2extent": 4472.5832, 
			 "electric_dipole_moment_norm": 1.20562704017, 
			 "electric_quadrupole_moment_norm": 19.6766634794, 
			 "total_energy": -794.300282111, 
			 "HOMO_LUMO_gap": 0.18796, 
			 "cosmo_polarized_energy": -10.91, 
			 "cosmo_cavitation_energy": 27.89, 
			 "cosmo_dispersion_energy": -20.19, 
			 "cosmo_repulsion_energy": 1.46, 
			 "cosmo_total_nonelectrostatic_energy": 9.16, 
			 "SMD_solvation_energy": 5.1 
		},
		"coords": [
			{
				"x": 2.056372186,
				"y": -4.0596943835,
				"z": -0.5663762414,
				"element": "F" 
			},
			{
				"x": 2.3055567686,
				"y": -2.7545037169,
				"z": -0.8127019953,
				"element": "C" 
			},
			{
				"x": 3.4054639516,
				"y": -2.4239104292,
				"z": -0.0963483365,
				"element": "F" 
			},
			{
				"x": 2.6397508042,
				"y": -2.6401647725,
				"z": -2.1172098713,
				"element": "F" 
			},
			{
				"x": 1.1303439618,
				"y": -1.8861040455,
				"z": -0.4598596957,
				"element": "C" 
			},
			{
				"x": 0.9151810855,
				"y": -0.6832217002,
				"z": -1.1342671535,
				"element": "C" 
			},
			{
				"x": -0.1402845384,
				"y": 0.1482990534,
				"z": -0.7745359525,
				"element": "C" 
			},
			{
				"x": -1.0018150817,
				"y": -0.2103234789,
				"z": 0.2727605908,
				"element": "C" 
			},
			{
				"x": -0.7829580503,
				"y": -1.4219799568,
				"z": 0.9469209168,
				"element": "C" 
			},
			{
				"x": 0.2739771815,
				"y": -2.2482306689,
				"z": 0.5820557892,
				"element": "C" 
			},
			{
				"x": -2.077501638,
				"y": 0.6351763455,
				"z": 0.6403781907,
				"element": "N" 
			},
			{
				"x": -2.4217519408,
				"y": 1.8584096242,
				"z": 0.0711167645,
				"element": "C" 
			},
			{
				"x": -3.5206971448,
				"y": 2.2954833468,
				"z": 0.7556149414,
				"element": "C" 
			},
			{
				"x": -3.8802261496,
				"y": 1.3918968569,
				"z": 1.734840329,
				"element": "N" 
			},
			{
				"x": -3.0073798418,
				"y": 0.4206437065,
				"z": 1.6417082005,
				"element": "C" 
			},
			{
				"x": 1.5690557862,
				"y": -0.3971484916,
				"z": -1.9508577212,
				"element": "H" 
			},
			{
				"x": -0.2868508073,
				"y": 1.0732722202,
				"z": -1.3177531857,
				"element": "H" 
			},
			{
				"x": -1.4324921403,
				"y": -1.7319796158,
				"z": 1.7557197903,
				"element": "H" 
			},
			{
				"x": 0.4273488172,
				"y": -3.1851678136,
				"z": 1.106288406,
				"element": "H" 
			},
			{
				"x": -1.8724094218,
				"y": 2.2965616174,
				"z": -0.7443270849,
				"element": "H" 
			},
			{
				"x": -4.0754625573,
				"y": 3.210277044,
				"z": 0.6003124177,
				"element": "H" 
			},
			{
				"x": -2.9951212305,
				"y": -0.4592907415,
				"z": 2.2659209008,
				"element": "H" 
			}
		],
		 "valence_orbital": [ 
			{
				"type": "occ",
				"energy": -0.32252,
				"method": "rhf"
			},
			{
				"type": "occ",
				"energy": -0.28327,
				"method": "rhf"
			},
			{
				"type": "occ",
				"energy": -0.27646,
				"method": "rhf"
			},
			{
				"type": "occ",
				"energy": -0.25526,
				"method": "rhf"
			},
			{
				"type": "occ",
				"energy": -0.23745,
				"method": "rhf"
			},
			{
				"type": "unocc",
				"energy": -0.04949,
				"method": "rhf"
			},
			{
				"type": "unocc",
				"energy": -0.0325,
				"method": "rhf"
			},
			{
				"type": "unocc",
				"energy": 0.02685,
				"method": "rhf"
			},
			{
				"type": "unocc",
				"energy": 0.06124,
				"method": "rhf"
			},
			{
				"type": "unocc",
				"energy": 0.06791,
				"method": "rhf"
			}
		],
		"cosmo_sigma_profile": { 
			"-0.025": 0.0,
			"-0.024": 0.0,
			"-0.023": 0.0,
			"-0.022": 0.0,
			"-0.021": 0.0,
			"-0.02": 0.0,
			"-0.019": 0.0,
			"-0.018": 0.0,
			"-0.017": 0.0,
			"-0.016": 0.0,
			"-0.015": 0.0,
			"-0.014": 0.0,
			"-0.013": 0.0,
			"-0.012": 0.305220597491,
			"-0.011": 2.89604112869,
			"-0.01": 3.11582937298,
			"-0.009": 4.2358587882,
			"-0.008": 5.40766442037,
			"-0.007": 9.35575302413,
			"-0.006": 10.6516403141,
			"-0.005": 8.67874357147,
			"-0.004": 10.8070573582,
			"-0.003": 8.45222149883,
			"-0.002": 12.4252106645,
			"-0.001": 14.04148716,
			"0.0": 17.2746774228,
			"0.001": 20.2190212916,
			"0.002": 34.0092412327,
			"0.003": 35.3052544445,
			"0.004": 7.2680683291,
			"0.005": 4.87283442956,
			"0.006": 2.21096259409,
			"0.007": 1.42497299388,
			"0.008": 1.77710233715,
			"0.009": 1.1289273955,
			"0.01": 1.46480821459,
			"0.011": 1.26471909086,
			"0.012": 1.52407597779,
			"0.013": 0.821379256991,
			"0.014": 1.1400479541,
			"0.015": 1.52611446031,
			"0.016": 0.643631822094,
			"0.017": 1.18269258734,
			"0.018": 0.132619194112,
			"0.019": 0.0,
			"0.02": 0.0,
			"0.021": 0.0,
			"0.022": 0.0,
			"0.023": 0.0,
			"0.024": 0.0,
			"0.025": 0.0
		}
	}
}
