{
	 "smiles": "CC(OC1=CC=C(C=C1)C1=NC2=C(S1)C=CC=C2)C(O)=O", 
	 "Tm": 491.15, 
	 "num_atms": 34, 
	 "gaussian": { 
		 "optdone": 1, 
		 "sigma_profile": "yes", 
		 "theory": "DFT", 
		 "functional": "B3LYP", 
		 "basiset": "6-31G**", 
		 "properties": { 
			 "R2extent": 11416.7899, 
			 "electric_dipole_moment_norm": 3.98249370244, 
			 "electric_quadrupole_moment_norm": 22.5124063081, 
			 "total_energy": -1296.17000002, 
			 "HOMO_LUMO_gap": 0.15931, 
			 "cosmo_polarized_energy": -16.25, 
			 "cosmo_cavitation_energy": 40.33, 
			 "cosmo_dispersion_energy": -29.86, 
			 "cosmo_repulsion_energy": 2.2, 
			 "cosmo_total_nonelectrostatic_energy": 12.67, 
			 "SMD_solvation_energy": 6.33 
		},
		"coords": [
			{
				"x": 4.6218762051,
				"y": 0.0372575975,
				"z": 1.9655447131,
				"element": "C" 
			},
			{
				"x": 4.2859574033,
				"y": 1.0665535639,
				"z": 0.8895057929,
				"element": "C" 
			},
			{
				"x": 2.9983309371,
				"y": 1.6705363176,
				"z": 1.1009644244,
				"element": "O" 
			},
			{
				"x": 1.8485310775,
				"y": 1.0551560773,
				"z": 0.6711206145,
				"element": "C" 
			},
			{
				"x": 1.8019943437,
				"y": -0.1847070915,
				"z": 0.0220664193,
				"element": "C" 
			},
			{
				"x": 0.5743132526,
				"y": -0.7033221264,
				"z": -0.3799147641,
				"element": "C" 
			},
			{
				"x": -0.623525452,
				"y": -0.0105005868,
				"z": -0.1439314401,
				"element": "C" 
			},
			{
				"x": -0.5560381405,
				"y": 1.2296178472,
				"z": 0.5147163375,
				"element": "C" 
			},
			{
				"x": 0.6617831519,
				"y": 1.7574091374,
				"z": 0.918673253,
				"element": "C" 
			},
			{
				"x": -1.8906873695,
				"y": -0.6016882293,
				"z": -0.5864470908,
				"element": "C" 
			},
			{
				"x": -1.9808987624,
				"y": -1.7465646101,
				"z": -1.1940346702,
				"element": "N" 
			},
			{
				"x": -3.2895274807,
				"y": -2.0661645031,
				"z": -1.4997575983,
				"element": "C" 
			},
			{
				"x": -4.2573419759,
				"y": -1.1098500838,
				"z": -1.1027891357,
				"element": "C" 
			},
			{
				"x": -3.4519202555,
				"y": 0.2315186945,
				"z": -0.3165010034,
				"element": "S" 
			},
			{
				"x": -5.6182775614,
				"y": -1.3034897123,
				"z": -1.3483939743,
				"element": "C" 
			},
			{
				"x": -6.0065974379,
				"y": -2.4718978592,
				"z": -2.0001286068,
				"element": "C" 
			},
			{
				"x": -5.0572286227,
				"y": -3.4290357064,
				"z": -2.3994935858,
				"element": "C" 
			},
			{
				"x": -3.7032140195,
				"y": -3.2364301178,
				"z": -2.1551350058,
				"element": "C" 
			},
			{
				"x": 5.3252087071,
				"y": 2.2031688183,
				"z": 0.8732090887,
				"element": "C" 
			},
			{
				"x": 4.8282508035,
				"y": 3.4490280855,
				"z": 0.9118984325,
				"element": "O" 
			},
			{
				"x": 6.5071928587,
				"y": 1.970049981,
				"z": 0.8118033691,
				"element": "O" 
			},
			{
				"x": 5.6437065385,
				"y": -0.3159095442,
				"z": 1.8141944041,
				"element": "H" 
			},
			{
				"x": 3.936515798,
				"y": -0.8125132352,
				"z": 1.9258752745,
				"element": "H" 
			},
			{
				"x": 4.5523998186,
				"y": 0.4940771387,
				"z": 2.9566645591,
				"element": "H" 
			},
			{
				"x": 4.3198034844,
				"y": 0.6133111056,
				"z": -0.1089803904,
				"element": "H" 
			},
			{
				"x": 2.7027473553,
				"y": -0.7547286986,
				"z": -0.1704950486,
				"element": "H" 
			},
			{
				"x": 0.526785957,
				"y": -1.6620550756,
				"z": -0.8839617729,
				"element": "H" 
			},
			{
				"x": -1.4623154056,
				"y": 1.7931680558,
				"z": 0.7163298868,
				"element": "H" 
			},
			{
				"x": 0.7142538887,
				"y": 2.7137501519,
				"z": 1.4284124814,
				"element": "H" 
			},
			{
				"x": -6.3548755945,
				"y": -0.5677110491,
				"z": -1.0421435613,
				"element": "H" 
			},
			{
				"x": -7.0596457929,
				"y": -2.6437485497,
				"z": -2.2017279733,
				"element": "H" 
			},
			{
				"x": -5.3888359553,
				"y": -4.3305076264,
				"z": -2.9057963074,
				"element": "H" 
			},
			{
				"x": -2.9589688473,
				"y": -3.9657629059,
				"z": -2.4573405706,
				"element": "H" 
			},
			{
				"x": 3.8589470928,
				"y": 3.3741847392,
				"z": 0.9779934491,
				"element": "H" 
			}
		],
		 "valence_orbital": [ 
			{
				"type": "occ",
				"energy": -0.27874,
				"method": "rhf"
			},
			{
				"type": "occ",
				"energy": -0.27442,
				"method": "rhf"
			},
			{
				"type": "occ",
				"energy": -0.26564,
				"method": "rhf"
			},
			{
				"type": "occ",
				"energy": -0.23834,
				"method": "rhf"
			},
			{
				"type": "occ",
				"energy": -0.22168,
				"method": "rhf"
			},
			{
				"type": "unocc",
				"energy": -0.06237,
				"method": "rhf"
			},
			{
				"type": "unocc",
				"energy": -0.02456,
				"method": "rhf"
			},
			{
				"type": "unocc",
				"energy": -0.00894,
				"method": "rhf"
			},
			{
				"type": "unocc",
				"energy": 0.00248,
				"method": "rhf"
			},
			{
				"type": "unocc",
				"energy": 0.00723,
				"method": "rhf"
			}
		],
		"cosmo_sigma_profile": { 
			"-0.025": 0.0,
			"-0.024": 0.0,
			"-0.023": 0.0,
			"-0.022": 0.0,
			"-0.021": 0.0,
			"-0.02": 0.0,
			"-0.019": 0.0,
			"-0.018": 0.0,
			"-0.017": 0.0,
			"-0.016": 0.0,
			"-0.015": 0.107039157663,
			"-0.014": 0.437366426096,
			"-0.013": 0.834873855327,
			"-0.012": 0.77061206542,
			"-0.011": 0.401740386658,
			"-0.01": 1.88099243119,
			"-0.009": 4.59980390244,
			"-0.008": 5.55956128059,
			"-0.007": 11.8252325119,
			"-0.006": 19.4032332438,
			"-0.005": 23.0261805221,
			"-0.004": 22.1197782853,
			"-0.003": 18.8888842373,
			"-0.002": 18.8520947862,
			"-0.001": 21.2835314716,
			"0.0": 21.6257313822,
			"0.001": 24.407796096,
			"0.002": 27.1755728987,
			"0.003": 33.3556736421,
			"0.004": 23.0370013032,
			"0.005": 10.919672144,
			"0.006": 4.53611520355,
			"0.007": 3.92826629564,
			"0.008": 4.30786062777,
			"0.009": 4.9287716538,
			"0.01": 6.2214754372,
			"0.011": 5.99866063818,
			"0.012": 4.34816269962,
			"0.013": 0.979505526424,
			"0.014": 0.0,
			"0.015": 0.0,
			"0.016": 0.0,
			"0.017": 0.0,
			"0.018": 0.0,
			"0.019": 0.0,
			"0.02": 0.0,
			"0.021": 0.0,
			"0.022": 0.0,
			"0.023": 0.0,
			"0.024": 0.0,
			"0.025": 0.0
		}
	}
}
