{
	 "smiles": "CC1=C(SC(N)=C1C(=O)N1CCOCC1)C1=CC=CC=C1", 
	 "Tm": 461.15, 
	 "num_atms": 39, 
	 "gaussian": { 
		 "optdone": 1, 
		 "sigma_profile": "yes", 
		 "theory": "DFT", 
		 "functional": "B3LYP", 
		 "basiset": "6-31G**", 
		 "properties": { 
			 "R2extent": 8711.4851, 
			 "electric_dipole_moment_norm": 2.19418823714, 
			 "electric_quadrupole_moment_norm": 13.4300836688, 
			 "total_energy": -1278.6860168, 
			 "HOMO_LUMO_gap": 0.17012, 
			 "cosmo_polarized_energy": -16.03, 
			 "cosmo_cavitation_energy": 41.62, 
			 "cosmo_dispersion_energy": -30.17, 
			 "cosmo_repulsion_energy": 2.26, 
			 "cosmo_total_nonelectrostatic_energy": 13.71, 
			 "SMD_solvation_energy": 6.62 
		},
		"coords": [
			{
				"x": -1.7228165355,
				"y": -1.2902304844,
				"z": 0.2709371929,
				"element": "C" 
			},
			{
				"x": -0.683599574,
				"y": -0.2007553576,
				"z": 0.3155427255,
				"element": "C" 
			},
			{
				"x": -0.9631292154,
				"y": 1.1398647818,
				"z": 0.4056267062,
				"element": "C" 
			},
			{
				"x": 0.5256564091,
				"y": 2.1006128152,
				"z": 0.3626087379,
				"element": "S" 
			},
			{
				"x": 1.5097867068,
				"y": 0.6682370343,
				"z": 0.2289252161,
				"element": "C" 
			},
			{
				"x": 2.8875526895,
				"y": 0.785147123,
				"z": 0.1303056245,
				"element": "N" 
			},
			{
				"x": 0.7341527488,
				"y": -0.4779318449,
				"z": 0.1997235729,
				"element": "C" 
			},
			{
				"x": 1.2858107813,
				"y": -1.8574277224,
				"z": 0.2513293371,
				"element": "C" 
			},
			{
				"x": 0.805382273,
				"y": -2.718512771,
				"z": 0.9834295502,
				"element": "O" 
			},
			{
				"x": 2.4346909836,
				"y": -2.1207744851,
				"z": -0.5067764082,
				"element": "N" 
			},
			{
				"x": 2.5736689163,
				"y": -1.6062227706,
				"z": -1.8813633345,
				"element": "C" 
			},
			{
				"x": 4.039376787,
				"y": -1.6727463377,
				"z": -2.305627921,
				"element": "C" 
			},
			{
				"x": 4.5614089851,
				"y": -2.9870393513,
				"z": -2.181270193,
				"element": "O" 
			},
			{
				"x": 4.4510231915,
				"y": -3.4564096847,
				"z": -0.8438343566,
				"element": "C" 
			},
			{
				"x": 3.0016661246,
				"y": -3.4685468637,
				"z": -0.3660325952,
				"element": "C" 
			},
			{
				"x": -2.2488254353,
				"y": 1.8472911114,
				"z": 0.5283139974,
				"element": "C" 
			},
			{
				"x": -3.2380361249,
				"y": 1.4011191477,
				"z": 1.4249075013,
				"element": "C" 
			},
			{
				"x": -4.4547019807,
				"y": 2.0725002144,
				"z": 1.5387373643,
				"element": "C" 
			},
			{
				"x": -4.7041199164,
				"y": 3.215842529,
				"z": 0.7773910982,
				"element": "C" 
			},
			{
				"x": -3.7249655212,
				"y": 3.6814916141,
				"z": -0.1026184305,
				"element": "C" 
			},
			{
				"x": -2.5138684345,
				"y": 3.0038357079,
				"z": -0.2293415128,
				"element": "C" 
			},
			{
				"x": -2.7193439864,
				"y": -0.8789593788,
				"z": 0.1011904718,
				"element": "H" 
			},
			{
				"x": -1.5015851072,
				"y": -2.001340218,
				"z": -0.5312374988,
				"element": "H" 
			},
			{
				"x": -1.7277073341,
				"y": -1.8686333763,
				"z": 1.1995320168,
				"element": "H" 
			},
			{
				"x": 3.3693479102,
				"y": -0.0917991252,
				"z": 0.2985474901,
				"element": "H" 
			},
			{
				"x": 3.2939315202,
				"y": 1.5598890384,
				"z": 0.6387095483,
				"element": "H" 
			},
			{
				"x": 2.2116752812,
				"y": -0.5798940397,
				"z": -1.9366330989,
				"element": "H" 
			},
			{
				"x": 1.9744764649,
				"y": -2.223917704,
				"z": -2.5680826878,
				"element": "H" 
			},
			{
				"x": 4.1408838136,
				"y": -1.3929310866,
				"z": -3.3581231199,
				"element": "H" 
			},
			{
				"x": 4.6310347555,
				"y": -0.9656545107,
				"z": -1.7001912945,
				"element": "H" 
			},
			{
				"x": 5.0568290111,
				"y": -2.8265887998,
				"z": -0.1699682924,
				"element": "H" 
			},
			{
				"x": 4.8636827164,
				"y": -4.469161151,
				"z": -0.8338857731,
				"element": "H" 
			},
			{
				"x": 2.4202563933,
				"y": -4.1913947762,
				"z": -0.9573520721,
				"element": "H" 
			},
			{
				"x": 2.9312924288,
				"y": -3.7683558095,
				"z": 0.6807811835,
				"element": "H" 
			},
			{
				"x": -3.0379604076,
				"y": 0.5371412622,
				"z": 2.0498857219,
				"element": "H" 
			},
			{
				"x": -5.2034563107,
				"y": 1.7091209979,
				"z": 2.2370830173,
				"element": "H" 
			},
			{
				"x": -5.6497265878,
				"y": 3.7415714746,
				"z": 0.8724098362,
				"element": "H" 
			},
			{
				"x": -3.9076804,
				"y": 4.5701424407,
				"z": -0.7003035632,
				"element": "H" 
			},
			{
				"x": -1.76816402,
				"y": 3.3605203566,
				"z": -0.9341757576,
				"element": "H" 
			}
		],
		 "valence_orbital": [ 
			{
				"type": "occ",
				"energy": -0.25391,
				"method": "rhf"
			},
			{
				"type": "occ",
				"energy": -0.24958,
				"method": "rhf"
			},
			{
				"type": "occ",
				"energy": -0.24304,
				"method": "rhf"
			},
			{
				"type": "occ",
				"energy": -0.23813,
				"method": "rhf"
			},
			{
				"type": "occ",
				"energy": -0.19359,
				"method": "rhf"
			},
			{
				"type": "unocc",
				"energy": -0.02347,
				"method": "rhf"
			},
			{
				"type": "unocc",
				"energy": -0.01749,
				"method": "rhf"
			},
			{
				"type": "unocc",
				"energy": -0.00287,
				"method": "rhf"
			},
			{
				"type": "unocc",
				"energy": 0.02175,
				"method": "rhf"
			},
			{
				"type": "unocc",
				"energy": 0.03387,
				"method": "rhf"
			}
		],
		"cosmo_sigma_profile": { 
			"-0.025": 0.0,
			"-0.024": 0.0,
			"-0.023": 0.0,
			"-0.022": 0.0,
			"-0.021": 0.0,
			"-0.02": 0.0,
			"-0.019": 0.0,
			"-0.018": 0.0,
			"-0.017": 0.0,
			"-0.016": 0.0,
			"-0.015": 0.0,
			"-0.014": 1.1884598731,
			"-0.013": 1.31173152027,
			"-0.012": 1.60752749137,
			"-0.011": 1.78629005331,
			"-0.01": 1.93958313093,
			"-0.009": 2.56619669421,
			"-0.008": 2.32246423021,
			"-0.007": 2.41805703529,
			"-0.006": 8.56092844439,
			"-0.005": 22.7625337774,
			"-0.004": 39.4471777528,
			"-0.003": 34.3766339928,
			"-0.002": 27.5789949687,
			"-0.001": 25.060085205,
			"0.0": 18.806134725,
			"0.001": 20.8451473373,
			"0.002": 19.2771619744,
			"0.003": 21.9913530672,
			"0.004": 21.6178910983,
			"0.005": 17.7860765555,
			"0.006": 9.1885266571,
			"0.007": 3.91036404086,
			"0.008": 3.06262252929,
			"0.009": 3.72735526786,
			"0.01": 3.83135287999,
			"0.011": 2.7187793444,
			"0.012": 3.81695141642,
			"0.013": 5.62519724565,
			"0.014": 1.88919055706,
			"0.015": 0.0,
			"0.016": 0.0,
			"0.017": 0.0,
			"0.018": 0.0,
			"0.019": 0.0,
			"0.02": 0.0,
			"0.021": 0.0,
			"0.022": 0.0,
			"0.023": 0.0,
			"0.024": 0.0,
			"0.025": 0.0
		}
	}
}
