{
	 "smiles": "CN(C)C1=CC=C(C)C=C1", 
	 "Tm": 248.15, 
	 "num_atms": 23, 
	 "gaussian": { 
		 "optdone": 1, 
		 "sigma_profile": "yes", 
		 "theory": "DFT", 
		 "functional": "B3LYP", 
		 "basiset": "6-31G**", 
		 "properties": { 
			 "R2extent": 1920.4554, 
			 "electric_dipole_moment_norm": 1.56541901739, 
			 "electric_quadrupole_moment_norm": 7.9433923962, 
			 "total_energy": -405.54281575, 
			 "HOMO_LUMO_gap": 0.19272, 
			 "cosmo_polarized_energy": -4.94, 
			 "cosmo_cavitation_energy": 24.88, 
			 "cosmo_dispersion_energy": -18.5, 
			 "cosmo_repulsion_energy": 1.48, 
			 "cosmo_total_nonelectrostatic_energy": 7.87, 
			 "SMD_solvation_energy": 3.84 
		},
		"coords": [
			{
				"x": -1.3151318928,
				"y": 1.575759555,
				"z": -2.3976184565,
				"element": "C" 
			},
			{
				"x": -1.0186659486,
				"y": 0.2731046255,
				"z": -1.8272746657,
				"element": "N" 
			},
			{
				"x": -0.4591625447,
				"y": -0.7332255223,
				"z": -2.7129177224,
				"element": "C" 
			},
			{
				"x": -0.7659621743,
				"y": 0.1797065948,
				"z": -0.457246412,
				"element": "C" 
			},
			{
				"x": -0.2263523014,
				"y": -0.9928251933,
				"z": 0.1156079846,
				"element": "C" 
			},
			{
				"x": -0.0149736758,
				"y": -1.0889587248,
				"z": 1.4886178866,
				"element": "C" 
			},
			{
				"x": -0.3111938086,
				"y": -0.0368060031,
				"z": 2.3624147437,
				"element": "C" 
			},
			{
				"x": -0.0437620004,
				"y": -0.1402646251,
				"z": 3.8456522849,
				"element": "C" 
			},
			{
				"x": -0.8365712787,
				"y": 1.1277376891,
				"z": 1.7913433172,
				"element": "C" 
			},
			{
				"x": -1.056285288,
				"y": 1.2464244758,
				"z": 0.421403905,
				"element": "C" 
			},
			{
				"x": -0.5002869905,
				"y": 2.305804398,
				"z": -2.2619333755,
				"element": "H" 
			},
			{
				"x": -1.4981828624,
				"y": 1.4637223964,
				"z": -3.4679312849,
				"element": "H" 
			},
			{
				"x": -2.2230064194,
				"y": 1.9998934861,
				"z": -1.9547240791,
				"element": "H" 
			},
			{
				"x": 0.6420409535,
				"y": -0.7755467219,
				"z": -2.6828038375,
				"element": "H" 
			},
			{
				"x": -0.7643660934,
				"y": -0.516032712,
				"z": -3.7382516828,
				"element": "H" 
			},
			{
				"x": -0.8403095156,
				"y": -1.7297291564,
				"z": -2.4639510346,
				"element": "H" 
			},
			{
				"x": 0.028009579,
				"y": -1.8414959947,
				"z": -0.5075646974,
				"element": "H" 
			},
			{
				"x": 0.3974085761,
				"y": -2.0135851583,
				"z": 1.8872225274,
				"element": "H" 
			},
			{
				"x": 0.9683976479,
				"y": 0.2000369799,
				"z": 4.1016874548,
				"element": "H" 
			},
			{
				"x": -0.7444056437,
				"y": 0.4719692532,
				"z": 4.4226613048,
				"element": "H" 
			},
			{
				"x": -0.1345333486,
				"y": -1.1728916987,
				"z": 4.1979457938,
				"element": "H" 
			},
			{
				"x": -1.0801955138,
				"y": 1.9730322387,
				"z": 2.4316595842,
				"element": "H" 
			},
			{
				"x": -1.461109456,
				"y": 2.1763698183,
				"z": 0.0411004614,
				"element": "H" 
			}
		],
		 "valence_orbital": [ 
			{
				"type": "occ",
				"energy": -0.33858,
				"method": "rhf"
			},
			{
				"type": "occ",
				"energy": -0.31928,
				"method": "rhf"
			},
			{
				"type": "occ",
				"energy": -0.26755,
				"method": "rhf"
			},
			{
				"type": "occ",
				"energy": -0.23511,
				"method": "rhf"
			},
			{
				"type": "occ",
				"energy": -0.17993,
				"method": "rhf"
			},
			{
				"type": "unocc",
				"energy": 0.01279,
				"method": "rhf"
			},
			{
				"type": "unocc",
				"energy": 0.02745,
				"method": "rhf"
			},
			{
				"type": "unocc",
				"energy": 0.08995,
				"method": "rhf"
			},
			{
				"type": "unocc",
				"energy": 0.11015,
				"method": "rhf"
			},
			{
				"type": "unocc",
				"energy": 0.11917,
				"method": "rhf"
			}
		],
		"cosmo_sigma_profile": { 
			"-0.025": 0.0,
			"-0.024": 0.0,
			"-0.023": 0.0,
			"-0.022": 0.0,
			"-0.021": 0.0,
			"-0.02": 0.0,
			"-0.019": 0.0,
			"-0.018": 0.0,
			"-0.017": 0.0,
			"-0.016": 0.0,
			"-0.015": 0.0,
			"-0.014": 0.0,
			"-0.013": 0.0,
			"-0.012": 0.0,
			"-0.011": 0.0,
			"-0.01": 0.0,
			"-0.009": 0.0,
			"-0.008": 0.0,
			"-0.007": 0.137619602568,
			"-0.006": 2.47841349762,
			"-0.005": 9.05000361824,
			"-0.004": 16.2748248385,
			"-0.003": 25.7667335972,
			"-0.002": 27.8663404809,
			"-0.001": 27.7328989344,
			"0.0": 18.2422832156,
			"0.001": 15.1840410814,
			"0.002": 7.3206143853,
			"0.003": 7.06418596242,
			"0.004": 7.40253259346,
			"0.005": 7.18673268028,
			"0.006": 8.06319426444,
			"0.007": 8.851876289,
			"0.008": 6.37429782964,
			"0.009": 0.642072739969,
			"0.01": 0.0694753091416,
			"0.011": 0.0,
			"0.012": 0.0,
			"0.013": 0.0,
			"0.014": 0.0,
			"0.015": 0.0,
			"0.016": 0.0,
			"0.017": 0.0,
			"0.018": 0.0,
			"0.019": 0.0,
			"0.02": 0.0,
			"0.021": 0.0,
			"0.022": 0.0,
			"0.023": 0.0,
			"0.024": 0.0,
			"0.025": 0.0
		}
	}
}
