{
	 "smiles": "CN1N=CC2=C1C=CC(=C2)[N+]([O-])=O", 
	 "Tm": 433.15, 
	 "num_atms": 20, 
	 "gaussian": { 
		 "optdone": 1, 
		 "sigma_profile": "yes", 
		 "theory": "DFT", 
		 "functional": "B3LYP", 
		 "basiset": "6-31G**", 
		 "properties": { 
			 "R2extent": 3048.112, 
			 "electric_dipole_moment_norm": 5.25717482019, 
			 "electric_quadrupole_moment_norm": 14.5858325364, 
			 "total_energy": -623.659291924, 
			 "HOMO_LUMO_gap": 0.15904, 
			 "cosmo_polarized_energy": -11.52, 
			 "cosmo_cavitation_energy": 25.1, 
			 "cosmo_dispersion_energy": -18.57, 
			 "cosmo_repulsion_energy": 1.44, 
			 "cosmo_total_nonelectrostatic_energy": 7.97, 
			 "SMD_solvation_energy": 5.75 
		},
		"coords": [
			{
				"x": 2.0337592275,
				"y": -2.1324840543,
				"z": 0.2478029687,
				"element": "C" 
			},
			{
				"x": 1.8863787166,
				"y": -0.7232315168,
				"z": -0.0585675417,
				"element": "N" 
			},
			{
				"x": 2.9454776042,
				"y": -0.0182464784,
				"z": -0.5556468436,
				"element": "N" 
			},
			{
				"x": 2.5270812019,
				"y": 1.221333083,
				"z": -0.7248133267,
				"element": "C" 
			},
			{
				"x": 1.1599049045,
				"y": 1.3649322074,
				"z": -0.334683919,
				"element": "C" 
			},
			{
				"x": 0.7839631126,
				"y": 0.0625281674,
				"z": 0.0961966886,
				"element": "C" 
			},
			{
				"x": -0.5106377326,
				"y": -0.2257147441,
				"z": 0.5691504656,
				"element": "C" 
			},
			{
				"x": -1.4200644339,
				"y": 0.8139886557,
				"z": 0.6006395775,
				"element": "C" 
			},
			{
				"x": -1.0411410954,
				"y": 2.106488454,
				"z": 0.1702995602,
				"element": "C" 
			},
			{
				"x": 0.2282790823,
				"y": 2.4092711375,
				"z": -0.2975487096,
				"element": "C" 
			},
			{
				"x": -2.0420283617,
				"y": 3.1777712374,
				"z": 0.2227341105,
				"element": "N" 
			},
			{
				"x": -3.1654506642,
				"y": 2.8928569907,
				"z": 0.6411358174,
				"element": "O" 
			},
			{
				"x": -1.7029484168,
				"y": 4.3005203573,
				"z": -0.1542715058,
				"element": "O" 
			},
			{
				"x": 1.2999326287,
				"y": -2.7280791533,
				"z": -0.3045929003,
				"element": "H" 
			},
			{
				"x": 1.911415676,
				"y": -2.3162541661,
				"z": 1.3204722645,
				"element": "H" 
			},
			{
				"x": 3.037980924,
				"y": -2.4254986791,
				"z": -0.0556437029,
				"element": "H" 
			},
			{
				"x": 3.2012793351,
				"y": 1.9710248062,
				"z": -1.1160922268,
				"element": "H" 
			},
			{
				"x": -0.7910555935,
				"y": -1.2206328799,
				"z": 0.8979120617,
				"element": "H" 
			},
			{
				"x": -2.4331757032,
				"y": 0.6663223992,
				"z": 0.9518116998,
				"element": "H" 
			},
			{
				"x": 0.461649588,
				"y": 3.4184041761,
				"z": -0.6137945382,
				"element": "H" 
			}
		],
		 "valence_orbital": [ 
			{
				"type": "occ",
				"energy": -0.30299,
				"method": "rhf"
			},
			{
				"type": "occ",
				"energy": -0.30111,
				"method": "rhf"
			},
			{
				"type": "occ",
				"energy": -0.28492,
				"method": "rhf"
			},
			{
				"type": "occ",
				"energy": -0.26668,
				"method": "rhf"
			},
			{
				"type": "occ",
				"energy": -0.24165,
				"method": "rhf"
			},
			{
				"type": "unocc",
				"energy": -0.08261,
				"method": "rhf"
			},
			{
				"type": "unocc",
				"energy": -0.04795,
				"method": "rhf"
			},
			{
				"type": "unocc",
				"energy": 0.01641,
				"method": "rhf"
			},
			{
				"type": "unocc",
				"energy": 0.04075,
				"method": "rhf"
			},
			{
				"type": "unocc",
				"energy": 0.07819,
				"method": "rhf"
			}
		],
		"cosmo_sigma_profile": { 
			"-0.025": 0.0,
			"-0.024": 0.0,
			"-0.023": 0.0,
			"-0.022": 0.0,
			"-0.021": 0.0,
			"-0.02": 0.0,
			"-0.019": 0.0,
			"-0.018": 0.0,
			"-0.017": 0.0,
			"-0.016": 0.0,
			"-0.015": 0.0,
			"-0.014": 0.0,
			"-0.013": 0.0,
			"-0.012": 0.0,
			"-0.011": 0.0,
			"-0.01": 0.0,
			"-0.009": 0.367833863759,
			"-0.008": 4.89694489386,
			"-0.007": 11.0113383149,
			"-0.006": 16.454764321,
			"-0.005": 14.9324966818,
			"-0.004": 13.218648573,
			"-0.003": 14.3591654761,
			"-0.002": 10.8093356711,
			"-0.001": 13.825615642,
			"0.0": 16.6298222104,
			"0.001": 20.2733938278,
			"0.002": 11.5195989039,
			"0.003": 6.52260857705,
			"0.004": 5.28051738029,
			"0.005": 3.41095708672,
			"0.006": 5.53896117699,
			"0.007": 6.66248007381,
			"0.008": 10.9040479764,
			"0.009": 6.12588604092,
			"0.01": 4.65805210877,
			"0.011": 1.95077855108,
			"0.012": 0.669653017786,
			"0.013": 1.35760865767,
			"0.014": 0.484546036944,
			"0.015": 0.0,
			"0.016": 0.0,
			"0.017": 0.0,
			"0.018": 0.0,
			"0.019": 0.0,
			"0.02": 0.0,
			"0.021": 0.0,
			"0.022": 0.0,
			"0.023": 0.0,
			"0.024": 0.0,
			"0.025": 0.0
		}
	}
}
