{
	 "smiles": "[O-][N+](=O)C1=CC2=C(NN=C2)C=C1", 
	 "Tm": 482.65, 
	 "num_atms": 17, 
	 "gaussian": { 
		 "optdone": 1, 
		 "sigma_profile": "yes", 
		 "theory": "DFT", 
		 "functional": "B3LYP", 
		 "basiset": "6-31G**", 
		 "properties": { 
			 "R2extent": 2939.9003, 
			 "electric_dipole_moment_norm": 4.66016531145, 
			 "electric_quadrupole_moment_norm": 24.5259455445, 
			 "total_energy": -584.344162169, 
			 "HOMO_LUMO_gap": 0.16503, 
			 "cosmo_polarized_energy": -13.57, 
			 "cosmo_cavitation_energy": 22.37, 
			 "cosmo_dispersion_energy": -16.91, 
			 "cosmo_repulsion_energy": 1.33, 
			 "cosmo_total_nonelectrostatic_energy": 6.78, 
			 "SMD_solvation_energy": 5.21 
		},
		"coords": [
			{
				"x": -3.9300719172,
				"y": 1.0757559162,
				"z": 0.718974556,
				"element": "O" 
			},
			{
				"x": -2.888316932,
				"y": 0.5560532248,
				"z": 1.1217841778,
				"element": "N" 
			},
			{
				"x": -2.8381212885,
				"y": -0.468937155,
				"z": 1.8027937221,
				"element": "O" 
			},
			{
				"x": -1.6201655465,
				"y": 1.2037084834,
				"z": 0.7652960411,
				"element": "C" 
			},
			{
				"x": -0.437999876,
				"y": 0.6329949965,
				"z": 1.2099461743,
				"element": "C" 
			},
			{
				"x": 0.7540350898,
				"y": 1.2752296152,
				"z": 0.8527871587,
				"element": "C" 
			},
			{
				"x": 0.7118690531,
				"y": 2.4596521202,
				"z": 0.0669216043,
				"element": "C" 
			},
			{
				"x": 2.0117035123,
				"y": 2.8287972742,
				"z": -0.1034964321,
				"element": "N" 
			},
			{
				"x": 2.8870397804,
				"y": 1.9810787384,
				"z": 0.5068867015,
				"element": "N" 
			},
			{
				"x": 2.1492295944,
				"y": 1.0509974091,
				"z": 1.0803291409,
				"element": "C" 
			},
			{
				"x": -0.4978752947,
				"y": 3.0251002341,
				"z": -0.3758007535,
				"element": "C" 
			},
			{
				"x": -1.6660318498,
				"y": 2.380955167,
				"z": -0.0160442968,
				"element": "C" 
			},
			{
				"x": -0.464297099,
				"y": -0.2706441988,
				"z": 1.8062512448,
				"element": "H" 
			},
			{
				"x": 2.3765553482,
				"y": 3.621670011,
				"z": -0.6072576671,
				"element": "H" 
			},
			{
				"x": 2.6220915828,
				"y": 0.252288983,
				"z": 1.6355184306,
				"element": "H" 
			},
			{
				"x": -0.521060183,
				"y": 3.9292263967,
				"z": -0.9751766891,
				"element": "H" 
			},
			{
				"x": -2.633983974,
				"y": 2.757872784,
				"z": -0.3203131133,
				"element": "H" 
			}
		],
		 "valence_orbital": [ 
			{
				"type": "occ",
				"energy": -0.30591,
				"method": "rhf"
			},
			{
				"type": "occ",
				"energy": -0.3036,
				"method": "rhf"
			},
			{
				"type": "occ",
				"energy": -0.28747,
				"method": "rhf"
			},
			{
				"type": "occ",
				"energy": -0.27045,
				"method": "rhf"
			},
			{
				"type": "occ",
				"energy": -0.25,
				"method": "rhf"
			},
			{
				"type": "unocc",
				"energy": -0.08497,
				"method": "rhf"
			},
			{
				"type": "unocc",
				"energy": -0.05063,
				"method": "rhf"
			},
			{
				"type": "unocc",
				"energy": 0.01446,
				"method": "rhf"
			},
			{
				"type": "unocc",
				"energy": 0.0369,
				"method": "rhf"
			},
			{
				"type": "unocc",
				"energy": 0.06567,
				"method": "rhf"
			}
		],
		"cosmo_sigma_profile": { 
			"-0.025": 0.0,
			"-0.024": 0.0,
			"-0.023": 0.0,
			"-0.022": 0.0,
			"-0.021": 0.0,
			"-0.02": 0.0,
			"-0.019": 0.0,
			"-0.018": 0.0878473433945,
			"-0.017": 1.54707380034,
			"-0.016": 1.62173676135,
			"-0.015": 1.28873159489,
			"-0.014": 1.00437619004,
			"-0.013": 0.924039586584,
			"-0.012": 1.35338729065,
			"-0.011": 1.15480804253,
			"-0.01": 1.14776650417,
			"-0.009": 2.0248544521,
			"-0.008": 6.77225889911,
			"-0.007": 6.57767704331,
			"-0.006": 7.65402129458,
			"-0.005": 7.76945633366,
			"-0.004": 7.60411234602,
			"-0.003": 7.43559023233,
			"-0.002": 9.75884309569,
			"-0.001": 12.0850779928,
			"0.0": 19.0728612982,
			"0.001": 19.8654059503,
			"0.002": 11.8836383688,
			"0.003": 4.46289397807,
			"0.004": 4.34454935057,
			"0.005": 4.36602300298,
			"0.006": 5.81024208105,
			"0.007": 6.94597987756,
			"0.008": 9.91686277514,
			"0.009": 6.3507285357,
			"0.01": 4.9077446909,
			"0.011": 1.3183715635,
			"0.012": 1.37069599084,
			"0.013": 0.979114958636,
			"0.014": 1.00998662933,
			"0.015": 0.192775710876,
			"0.016": 0.0,
			"0.017": 0.0,
			"0.018": 0.0,
			"0.019": 0.0,
			"0.02": 0.0,
			"0.021": 0.0,
			"0.022": 0.0,
			"0.023": 0.0,
			"0.024": 0.0,
			"0.025": 0.0
		}
	}
}
