{
	 "smiles": "CC(C)CN1C=NC2=C1C(=O)NC(=O)N2CC(C)C", 
	 "Tm": 432.15, 
	 "num_atms": 39, 
	 "gaussian": { 
		 "optdone": 1, 
		 "sigma_profile": "yes", 
		 "theory": "DFT", 
		 "functional": "B3LYP", 
		 "basiset": "6-31G**", 
		 "properties": { 
			 "R2extent": 5809.8408, 
			 "electric_dipole_moment_norm": 4.16864042225, 
			 "electric_quadrupole_moment_norm": 5.25259855595, 
			 "total_energy": -876.965984181, 
			 "HOMO_LUMO_gap": 0.18568, 
			 "cosmo_polarized_energy": -14.78, 
			 "cosmo_cavitation_energy": 39.33, 
			 "cosmo_dispersion_energy": -27.4, 
			 "cosmo_repulsion_energy": 2.09, 
			 "cosmo_total_nonelectrostatic_energy": 14.03, 
			 "SMD_solvation_energy": 6.74 
		},
		"coords": [
			{
				"x": 0.4280921796,
				"y": -2.5160455887,
				"z": 3.9612373268,
				"element": "C" 
			},
			{
				"x": -0.3955816383,
				"y": -2.8681313524,
				"z": 2.714775662,
				"element": "C" 
			},
			{
				"x": 0.4556988466,
				"y": -3.5865418836,
				"z": 1.6586623691,
				"element": "C" 
			},
			{
				"x": -1.148891332,
				"y": -1.6509968325,
				"z": 2.1347287696,
				"element": "C" 
			},
			{
				"x": -0.2892865598,
				"y": -0.6125767935,
				"z": 1.547812184,
				"element": "N" 
			},
			{
				"x": 0.3666190946,
				"y": 0.3883308411,
				"z": 2.1884533772,
				"element": "C" 
			},
			{
				"x": 1.0747900206,
				"y": 1.1709380757,
				"z": 1.3789435578,
				"element": "N" 
			},
			{
				"x": 0.8590558943,
				"y": 0.6450212527,
				"z": 0.1441145884,
				"element": "C" 
			},
			{
				"x": 0.0243068209,
				"y": -0.4607261567,
				"z": 0.2038322057,
				"element": "C" 
			},
			{
				"x": -0.3769236681,
				"y": -1.1981837514,
				"z": -0.9611669026,
				"element": "C" 
			},
			{
				"x": -1.1318807207,
				"y": -2.1640278754,
				"z": -1.0370550589,
				"element": "O" 
			},
			{
				"x": 0.241458863,
				"y": -0.6562698877,
				"z": -2.1012615426,
				"element": "N" 
			},
			{
				"x": 1.1261432305,
				"y": 0.4230176018,
				"z": -2.2228868673,
				"element": "C" 
			},
			{
				"x": 1.6210848486,
				"y": 0.7143973697,
				"z": -3.3008267479,
				"element": "O" 
			},
			{
				"x": 1.3851612144,
				"y": 1.1200449992,
				"z": -1.0435505783,
				"element": "N" 
			},
			{
				"x": 2.340154315,
				"y": 2.2447565108,
				"z": -1.0674449512,
				"element": "C" 
			},
			{
				"x": 1.7294495219,
				"y": 3.6421709777,
				"z": -1.3102849379,
				"element": "C" 
			},
			{
				"x": 0.7529722037,
				"y": 4.071524272,
				"z": -0.2059478207,
				"element": "C" 
			},
			{
				"x": 1.0951787517,
				"y": 3.791979256,
				"z": -2.7004969932,
				"element": "C" 
			},
			{
				"x": 1.2560275437,
				"y": -1.8414586965,
				"z": 3.7161654718,
				"element": "H" 
			},
			{
				"x": -0.1860320887,
				"y": -2.0362759114,
				"z": 4.7323286709,
				"element": "H" 
			},
			{
				"x": 0.8653555387,
				"y": -3.4185339346,
				"z": 4.3998822058,
				"element": "H" 
			},
			{
				"x": -1.1978751686,
				"y": -3.5524185997,
				"z": 3.0266425234,
				"element": "H" 
			},
			{
				"x": 0.8563906221,
				"y": -4.5215108798,
				"z": 2.0632296158,
				"element": "H" 
			},
			{
				"x": -0.1269942411,
				"y": -3.8148479527,
				"z": 0.7622283024,
				"element": "H" 
			},
			{
				"x": 1.3081592731,
				"y": -2.9685774591,
				"z": 1.3549921586,
				"element": "H" 
			},
			{
				"x": -1.7477496328,
				"y": -1.1735371385,
				"z": 2.9172628374,
				"element": "H" 
			},
			{
				"x": -1.8174189351,
				"y": -1.977208305,
				"z": 1.3364593518,
				"element": "H" 
			},
			{
				"x": 0.2924574219,
				"y": 0.5237033914,
				"z": 3.2585434689,
				"element": "H" 
			},
			{
				"x": 0.0489224716,
				"y": -1.1284967052,
				"z": -2.976119039,
				"element": "H" 
			},
			{
				"x": 2.8527829348,
				"y": 2.231509269,
				"z": -0.1028152284,
				"element": "H" 
			},
			{
				"x": 3.0590035063,
				"y": 2.0166768582,
				"z": -1.8570278788,
				"element": "H" 
			},
			{
				"x": 2.59835234,
				"y": 4.3164252042,
				"z": -1.2665896711,
				"element": "H" 
			},
			{
				"x": 0.4485075791,
				"y": 5.113389715,
				"z": -0.3528769532,
				"element": "H" 
			},
			{
				"x": -0.1550906691,
				"y": 3.4588658104,
				"z": -0.221977781,
				"element": "H" 
			},
			{
				"x": 1.1954439358,
				"y": 3.9756584128,
				"z": 0.789278327,
				"element": "H" 
			},
			{
				"x": 1.7846734831,
				"y": 3.4984905125,
				"z": -3.4960512121,
				"element": "H" 
			},
			{
				"x": 0.7920257163,
				"y": 4.831432467,
				"z": -2.8669957563,
				"element": "H" 
			},
			{
				"x": 0.2006564821,
				"y": 3.1681329071,
				"z": -2.798197054,
				"element": "H" 
			}
		],
		 "valence_orbital": [ 
			{
				"type": "occ",
				"energy": -0.28677,
				"method": "rhf"
			},
			{
				"type": "occ",
				"energy": -0.27983,
				"method": "rhf"
			},
			{
				"type": "occ",
				"energy": -0.27895,
				"method": "rhf"
			},
			{
				"type": "occ",
				"energy": -0.26048,
				"method": "rhf"
			},
			{
				"type": "occ",
				"energy": -0.22001,
				"method": "rhf"
			},
			{
				"type": "unocc",
				"energy": -0.03433,
				"method": "rhf"
			},
			{
				"type": "unocc",
				"energy": 0.02266,
				"method": "rhf"
			},
			{
				"type": "unocc",
				"energy": 0.03028,
				"method": "rhf"
			},
			{
				"type": "unocc",
				"energy": 0.07229,
				"method": "rhf"
			},
			{
				"type": "unocc",
				"energy": 0.09361,
				"method": "rhf"
			}
		],
		"cosmo_sigma_profile": { 
			"-0.025": 0.0,
			"-0.024": 0.0,
			"-0.023": 0.0,
			"-0.022": 0.0,
			"-0.021": 0.0,
			"-0.02": 0.0,
			"-0.019": 0.0,
			"-0.018": 0.0,
			"-0.017": 0.0,
			"-0.016": 0.0800258297821,
			"-0.015": 0.880811423034,
			"-0.014": 0.936753593161,
			"-0.013": 0.722052900649,
			"-0.012": 0.776285220073,
			"-0.011": 0.428163549183,
			"-0.01": 1.39201770881,
			"-0.009": 3.19299122498,
			"-0.008": 2.8382374145,
			"-0.007": 4.25717802816,
			"-0.006": 4.86774510819,
			"-0.005": 7.67377200954,
			"-0.004": 17.1370321046,
			"-0.003": 38.0158067618,
			"-0.002": 47.3410719673,
			"-0.001": 40.9627225758,
			"0.0": 31.3251730122,
			"0.001": 31.1829949562,
			"0.002": 15.2880528684,
			"0.003": 6.20328012924,
			"0.004": 6.04172577181,
			"0.005": 5.3994330169,
			"0.006": 4.44455391965,
			"0.007": 5.49894140345,
			"0.008": 3.58632624262,
			"0.009": 3.98319168723,
			"0.01": 4.05707482408,
			"0.011": 4.03363665723,
			"0.012": 6.17547072822,
			"0.013": 7.46824426549,
			"0.014": 1.21067742076,
			"0.015": 0.0,
			"0.016": 0.0,
			"0.017": 0.0,
			"0.018": 0.0,
			"0.019": 0.0,
			"0.02": 0.0,
			"0.021": 0.0,
			"0.022": 0.0,
			"0.023": 0.0,
			"0.024": 0.0,
			"0.025": 0.0
		}
	}
}
