{
	 "smiles": "COCCNC(=O)CC1=CC=C(N)C=C1", 
	 "Tm": 324.15, 
	 "num_atms": 31, 
	 "gaussian": { 
		 "optdone": 1, 
		 "sigma_profile": "yes", 
		 "theory": "DFT", 
		 "functional": "B3LYP", 
		 "basiset": "6-31G**", 
		 "properties": { 
			 "R2extent": 4660.2113, 
			 "electric_dipole_moment_norm": 5.26979629587, 
			 "electric_quadrupole_moment_norm": 17.629741942, 
			 "total_energy": -688.76778371, 
			 "HOMO_LUMO_gap": 0.19911, 
			 "cosmo_polarized_energy": -18.79, 
			 "cosmo_cavitation_energy": 34.1, 
			 "cosmo_dispersion_energy": -23.89, 
			 "cosmo_repulsion_energy": 1.93, 
			 "cosmo_total_nonelectrostatic_energy": 12.15, 
			 "SMD_solvation_energy": 6.33 
		},
		"coords": [
			{
				"x": 0.1515725202,
				"y": -2.7749587595,
				"z": 2.7079386399,
				"element": "C" 
			},
			{
				"x": 0.0677162277,
				"y": -1.989800263,
				"z": 1.536567032,
				"element": "O" 
			},
			{
				"x": -0.024348399,
				"y": -2.7588734084,
				"z": 0.3555772562,
				"element": "C" 
			},
			{
				"x": -0.0009231836,
				"y": -1.8222378442,
				"z": -0.8517321328,
				"element": "C" 
			},
			{
				"x": 1.2714239083,
				"y": -1.1583706681,
				"z": -1.0713806336,
				"element": "N" 
			},
			{
				"x": 1.6925156111,
				"y": 0.0760524797,
				"z": -0.6432902486,
				"element": "C" 
			},
			{
				"x": 2.8199538222,
				"y": 0.4744456005,
				"z": -0.9187287713,
				"element": "O" 
			},
			{
				"x": 0.7028176908,
				"y": 0.94621368,
				"z": 0.1314790499,
				"element": "C" 
			},
			{
				"x": -0.2533452342,
				"y": 1.6925718285,
				"z": -0.7850766775,
				"element": "C" 
			},
			{
				"x": 0.227022561,
				"y": 2.4437299611,
				"z": -1.8683013359,
				"element": "C" 
			},
			{
				"x": -0.6379148907,
				"y": 3.144958425,
				"z": -2.7012386469,
				"element": "C" 
			},
			{
				"x": -2.0266400702,
				"y": 3.122189972,
				"z": -2.4796330013,
				"element": "C" 
			},
			{
				"x": -2.8914069808,
				"y": 3.8751780227,
				"z": -3.2805802747,
				"element": "N" 
			},
			{
				"x": -2.5131905308,
				"y": 2.372573174,
				"z": -1.3975595446,
				"element": "C" 
			},
			{
				"x": -1.6361505978,
				"y": 1.6728580371,
				"z": -0.5694666205,
				"element": "C" 
			},
			{
				"x": -0.7386696835,
				"y": -3.4102487216,
				"z": 2.838455516,
				"element": "H" 
			},
			{
				"x": 1.0408283545,
				"y": -3.4239721306,
				"z": 2.6992026425,
				"element": "H" 
			},
			{
				"x": 0.2231533289,
				"y": -2.0885055158,
				"z": 3.5545344843,
				"element": "H" 
			},
			{
				"x": -0.9604343379,
				"y": -3.3449442993,
				"z": 0.3438783847,
				"element": "H" 
			},
			{
				"x": 0.8134516235,
				"y": -3.4743785726,
				"z": 0.291944143,
				"element": "H" 
			},
			{
				"x": -0.2444909306,
				"y": -2.408820429,
				"z": -1.7456972188,
				"element": "H" 
			},
			{
				"x": -0.7885970478,
				"y": -1.0725284796,
				"z": -0.746450578,
				"element": "H" 
			},
			{
				"x": 1.9885644352,
				"y": -1.6581346234,
				"z": -1.5811542132,
				"element": "H" 
			},
			{
				"x": 1.3259808911,
				"y": 1.6539322537,
				"z": 0.6869892948,
				"element": "H" 
			},
			{
				"x": 0.1489938482,
				"y": 0.346885404,
				"z": 0.8577055053,
				"element": "H" 
			},
			{
				"x": 1.2965615126,
				"y": 2.4705608949,
				"z": -2.0587392764,
				"element": "H" 
			},
			{
				"x": -0.2388098482,
				"y": 3.723731632,
				"z": -3.5311845274,
				"element": "H" 
			},
			{
				"x": -2.5436808356,
				"y": 4.076568159,
				"z": -4.2082557217,
				"element": "H" 
			},
			{
				"x": -3.8460047874,
				"y": 3.5433431612,
				"z": -3.3054102977,
				"element": "H" 
			},
			{
				"x": -3.5826373288,
				"y": 2.344390191,
				"z": -1.2014968781,
				"element": "H" 
			},
			{
				"x": -2.0392116484,
				"y": 1.1064908389,
				"z": 0.2674046504,
				"element": "H" 
			}
		],
		 "valence_orbital": [ 
			{
				"type": "occ",
				"energy": -0.26568,
				"method": "rhf"
			},
			{
				"type": "occ",
				"energy": -0.24086,
				"method": "rhf"
			},
			{
				"type": "occ",
				"energy": -0.23872,
				"method": "rhf"
			},
			{
				"type": "occ",
				"energy": -0.2323,
				"method": "rhf"
			},
			{
				"type": "occ",
				"energy": -0.19318,
				"method": "rhf"
			},
			{
				"type": "unocc",
				"energy": 0.00593,
				"method": "rhf"
			},
			{
				"type": "unocc",
				"energy": 0.0196,
				"method": "rhf"
			},
			{
				"type": "unocc",
				"energy": 0.04295,
				"method": "rhf"
			},
			{
				"type": "unocc",
				"energy": 0.08022,
				"method": "rhf"
			},
			{
				"type": "unocc",
				"energy": 0.08545,
				"method": "rhf"
			}
		],
		"cosmo_sigma_profile": { 
			"-0.025": 0.0,
			"-0.024": 0.0,
			"-0.023": 0.0,
			"-0.022": 0.0,
			"-0.021": 0.0,
			"-0.02": 0.0,
			"-0.019": 0.0,
			"-0.018": 0.0,
			"-0.017": 0.0,
			"-0.016": 0.0,
			"-0.015": 0.0,
			"-0.014": 0.0,
			"-0.013": 0.904891192193,
			"-0.012": 3.30670153781,
			"-0.011": 3.86535650598,
			"-0.01": 4.30909757567,
			"-0.009": 4.03092575484,
			"-0.008": 4.65220335049,
			"-0.007": 4.05903440509,
			"-0.006": 8.58475208207,
			"-0.005": 13.119387021,
			"-0.004": 29.1795985671,
			"-0.003": 29.7826710729,
			"-0.002": 25.1006447386,
			"-0.001": 16.2794325269,
			"0.0": 13.3036362524,
			"0.001": 11.0221708718,
			"0.002": 11.6633025019,
			"0.003": 10.9756977978,
			"0.004": 13.6399216867,
			"0.005": 10.6549666311,
			"0.006": 14.6220103529,
			"0.007": 9.20668728314,
			"0.008": 3.28000000161,
			"0.009": 2.86048335595,
			"0.01": 2.68819136048,
			"0.011": 2.33168989399,
			"0.012": 1.81712780214,
			"0.013": 3.08437031593,
			"0.014": 5.66090209199,
			"0.015": 3.32705049371,
			"0.016": 0.236161184735,
			"0.017": 0.0,
			"0.018": 0.0,
			"0.019": 0.0,
			"0.02": 0.0,
			"0.021": 0.0,
			"0.022": 0.0,
			"0.023": 0.0,
			"0.024": 0.0,
			"0.025": 0.0
		}
	}
}
