{
	 "smiles": "SC1=NC(=O)C(=NN1)C1=C(Cl)SC(Cl)=C1", 
	 "Tm": 477.15, 
	 "num_atms": 18, 
	 "gaussian": { 
		 "optdone": 1, 
		 "sigma_profile": "yes", 
		 "theory": "DFT", 
		 "functional": "B3LYP", 
		 "basiset": "6-31G**", 
		 "properties": { 
			 "R2extent": 6802.6019, 
			 "electric_dipole_moment_norm": 6.26199740259, 
			 "electric_quadrupole_moment_norm": 33.8328452673, 
			 "total_energy": -2224.71729404, 
			 "HOMO_LUMO_gap": 0.15851, 
			 "cosmo_polarized_energy": -23.25, 
			 "cosmo_cavitation_energy": 31.0, 
			 "cosmo_dispersion_energy": -24.04, 
			 "cosmo_repulsion_energy": 1.81, 
			 "cosmo_total_nonelectrostatic_energy": 8.77, 
			 "SMD_solvation_energy": 2.27 
		},
		"coords": [
			{
				"x": -1.2862959689,
				"y": 3.0765823162,
				"z": -5.4732464332,
				"element": "S" 
			},
			{
				"x": -1.1019642568,
				"y": 2.389763016,
				"z": -3.8367096383,
				"element": "C" 
			},
			{
				"x": -2.1541642802,
				"y": 2.3318512357,
				"z": -3.0933297506,
				"element": "N" 
			},
			{
				"x": -2.025589971,
				"y": 1.8426908325,
				"z": -1.7863104535,
				"element": "C" 
			},
			{
				"x": -2.9139106898,
				"y": 1.9452917916,
				"z": -0.962409582,
				"element": "O" 
			},
			{
				"x": -0.7036621625,
				"y": 1.2042174721,
				"z": -1.4662522637,
				"element": "C" 
			},
			{
				"x": 0.3296932669,
				"y": 1.3267177577,
				"z": -2.2490418652,
				"element": "N" 
			},
			{
				"x": 0.1321308626,
				"y": 1.9743623212,
				"z": -3.4241270013,
				"element": "N" 
			},
			{
				"x": -0.4663556427,
				"y": 0.5228035375,
				"z": -0.1809544116,
				"element": "C" 
			},
			{
				"x": -1.2920904916,
				"y": -0.3888324285,
				"z": 0.4378960931,
				"element": "C" 
			},
			{
				"x": -2.779565908,
				"y": -1.0519464398,
				"z": -0.1234016161,
				"element": "Cl" 
			},
			{
				"x": -0.6279397158,
				"y": -0.9903970717,
				"z": 1.9342042827,
				"element": "S" 
			},
			{
				"x": 0.7915259342,
				"y": 0.0023574881,
				"z": 1.7157843367,
				"element": "C" 
			},
			{
				"x": 2.0512319415,
				"y": 0.0003917788,
				"z": 2.9006597459,
				"element": "Cl" 
			},
			{
				"x": 0.7441664356,
				"y": 0.7311903825,
				"z": 0.5684817508,
				"element": "C" 
			},
			{
				"x": -0.0615218984,
				"y": 2.744827065,
				"z": -5.9332718714,
				"element": "H" 
			},
			{
				"x": 0.960668854,
				"y": 2.0559803496,
				"z": -3.9945632827,
				"element": "H" 
			},
			{
				"x": 1.5221436908,
				"y": 1.4126485957,
				"z": 0.2506919603,
				"element": "H" 
			}
		],
		 "valence_orbital": [ 
			{
				"type": "occ",
				"energy": -0.29333,
				"method": "rhf"
			},
			{
				"type": "occ",
				"energy": -0.27934,
				"method": "rhf"
			},
			{
				"type": "occ",
				"energy": -0.26175,
				"method": "rhf"
			},
			{
				"type": "occ",
				"energy": -0.25443,
				"method": "rhf"
			},
			{
				"type": "occ",
				"energy": -0.23466,
				"method": "rhf"
			},
			{
				"type": "unocc",
				"energy": -0.07615,
				"method": "rhf"
			},
			{
				"type": "unocc",
				"energy": -0.04747,
				"method": "rhf"
			},
			{
				"type": "unocc",
				"energy": -0.03133,
				"method": "rhf"
			},
			{
				"type": "unocc",
				"energy": -0.0225,
				"method": "rhf"
			},
			{
				"type": "unocc",
				"energy": -0.00487,
				"method": "rhf"
			}
		],
		"cosmo_sigma_profile": { 
			"-0.025": 0.0,
			"-0.024": 0.0,
			"-0.023": 0.0,
			"-0.022": 0.0,
			"-0.021": 0.0311760472412,
			"-0.02": 0.767227138824,
			"-0.019": 2.21363482645,
			"-0.018": 1.84166393936,
			"-0.017": 1.66656933776,
			"-0.016": 1.16690719401,
			"-0.015": 0.905260117741,
			"-0.014": 2.14206179722,
			"-0.013": 2.49234426501,
			"-0.012": 1.88777889794,
			"-0.011": 1.61769390627,
			"-0.01": 0.995673150345,
			"-0.009": 2.21724678938,
			"-0.008": 3.82799959007,
			"-0.007": 4.43424436803,
			"-0.006": 6.30046141758,
			"-0.005": 5.59279132047,
			"-0.004": 11.9517065659,
			"-0.003": 15.9964315608,
			"-0.002": 16.9269038475,
			"-0.001": 20.3921904234,
			"0.0": 27.7430052473,
			"0.001": 27.9374086949,
			"0.002": 28.7365765449,
			"0.003": 19.7632198713,
			"0.004": 9.86854184754,
			"0.005": 6.6003559375,
			"0.006": 4.82353292191,
			"0.007": 3.57011962351,
			"0.008": 2.28822303424,
			"0.009": 4.23754557604,
			"0.01": 3.26397649235,
			"0.011": 2.79980328058,
			"0.012": 5.52103226273,
			"0.013": 4.54074737673,
			"0.014": 2.74696167523,
			"0.015": 0.186914307957,
			"0.016": 0.0,
			"0.017": 0.0,
			"0.018": 0.0,
			"0.019": 0.0,
			"0.02": 0.0,
			"0.021": 0.0,
			"0.022": 0.0,
			"0.023": 0.0,
			"0.024": 0.0,
			"0.025": 0.0
		}
	}
}
