{
	 "smiles": "NC1=NN=C(CC2CC2)O1", 
	 "Tm": 415.15, 
	 "num_atms": 19, 
	 "gaussian": { 
		 "optdone": 1, 
		 "sigma_profile": "yes", 
		 "theory": "DFT", 
		 "functional": "B3LYP", 
		 "basiset": "6-31G**", 
		 "properties": { 
			 "R2extent": 2246.0764, 
			 "electric_dipole_moment_norm": 4.03869051674, 
			 "electric_quadrupole_moment_norm": 16.6457233934, 
			 "total_energy": -473.484269877, 
			 "HOMO_LUMO_gap": 0.24239, 
			 "cosmo_polarized_energy": -15.62, 
			 "cosmo_cavitation_energy": 23.32, 
			 "cosmo_dispersion_energy": -17.02, 
			 "cosmo_repulsion_energy": 1.42, 
			 "cosmo_total_nonelectrostatic_energy": 7.72, 
			 "SMD_solvation_energy": 1.96 
		},
		"coords": [
			{
				"x": 3.6414522843,
				"y": -2.478684906,
				"z": 0.457180342,
				"element": "N" 
			},
			{
				"x": 2.8274339469,
				"y": -1.523503735,
				"z": 1.0082422626,
				"element": "C" 
			},
			{
				"x": 3.1547769765,
				"y": -0.5083673429,
				"z": 1.7479899203,
				"element": "N" 
			},
			{
				"x": 1.9358583759,
				"y": 0.0873316736,
				"z": 2.1192509666,
				"element": "N" 
			},
			{
				"x": 0.9930885313,
				"y": -0.6008606344,
				"z": 1.5715208836,
				"element": "C" 
			},
			{
				"x": -0.4806064565,
				"y": -0.3858498366,
				"z": 1.611545439,
				"element": "C" 
			},
			{
				"x": -1.0819927281,
				"y": -0.0653165825,
				"z": 0.2494020468,
				"element": "C" 
			},
			{
				"x": -2.3173746546,
				"y": 0.7957824607,
				"z": 0.1625266825,
				"element": "C" 
			},
			{
				"x": -0.9850590277,
				"y": 1.3341719118,
				"z": -0.3035445549,
				"element": "C" 
			},
			{
				"x": 1.4862253338,
				"y": -1.6640914934,
				"z": 0.8366765602,
				"element": "O" 
			},
			{
				"x": 3.3235779374,
				"y": -2.8594527617,
				"z": -0.4237066669,
				"element": "H" 
			},
			{
				"x": 4.6154872223,
				"y": -2.208190471,
				"z": 0.4573844421,
				"element": "H" 
			},
			{
				"x": -0.9685452069,
				"y": -1.2741025154,
				"z": 2.0343581521,
				"element": "H" 
			},
			{
				"x": -0.652793305,
				"y": 0.440965326,
				"z": 2.3069458319,
				"element": "H" 
			},
			{
				"x": -1.0068569676,
				"y": -0.8759952864,
				"z": -0.4719794979,
				"element": "H" 
			},
			{
				"x": -3.0662451155,
				"y": 0.548568836,
				"z": -0.5838631654,
				"element": "H" 
			},
			{
				"x": -2.7287705038,
				"y": 1.1888526072,
				"z": 1.088369031,
				"element": "H" 
			},
			{
				"x": -0.4947459303,
				"y": 2.0847532757,
				"z": 0.3101323513,
				"element": "H" 
			},
			{
				"x": -0.8224107125,
				"y": 1.457989474,
				"z": -1.3698310268,
				"element": "H" 
			}
		],
		 "valence_orbital": [ 
			{
				"type": "occ",
				"energy": -0.30924,
				"method": "rhf"
			},
			{
				"type": "occ",
				"energy": -0.29548,
				"method": "rhf"
			},
			{
				"type": "occ",
				"energy": -0.28807,
				"method": "rhf"
			},
			{
				"type": "occ",
				"energy": -0.26475,
				"method": "rhf"
			},
			{
				"type": "occ",
				"energy": -0.22842,
				"method": "rhf"
			},
			{
				"type": "unocc",
				"energy": 0.01397,
				"method": "rhf"
			},
			{
				"type": "unocc",
				"energy": 0.0549,
				"method": "rhf"
			},
			{
				"type": "unocc",
				"energy": 0.07222,
				"method": "rhf"
			},
			{
				"type": "unocc",
				"energy": 0.09382,
				"method": "rhf"
			},
			{
				"type": "unocc",
				"energy": 0.10274,
				"method": "rhf"
			}
		],
		"cosmo_sigma_profile": { 
			"-0.025": 0.0,
			"-0.024": 0.0,
			"-0.023": 0.0,
			"-0.022": 0.0,
			"-0.021": 0.0,
			"-0.02": 0.0,
			"-0.019": 0.0,
			"-0.018": 0.0,
			"-0.017": 0.0,
			"-0.016": 0.0250472453494,
			"-0.015": 1.73882573796,
			"-0.014": 2.23157766143,
			"-0.013": 2.58153795732,
			"-0.012": 2.8632321786,
			"-0.011": 2.29510038002,
			"-0.01": 1.86484275749,
			"-0.009": 1.98471796784,
			"-0.008": 2.21429105796,
			"-0.007": 1.43152575539,
			"-0.006": 5.14070633015,
			"-0.005": 11.01549568,
			"-0.004": 15.7773681083,
			"-0.003": 18.6285005139,
			"-0.002": 15.0368293515,
			"-0.001": 11.9467082733,
			"0.0": 11.6536669102,
			"0.001": 12.0025979297,
			"0.002": 10.7919100233,
			"0.003": 9.97424433644,
			"0.004": 6.04057331049,
			"0.005": 5.86927262959,
			"0.006": 3.28744903846,
			"0.007": 1.96565851919,
			"0.008": 2.97555533616,
			"0.009": 2.62086886483,
			"0.01": 2.72935483871,
			"0.011": 3.14568164575,
			"0.012": 2.87268161994,
			"0.013": 3.51343446822,
			"0.014": 2.8081738046,
			"0.015": 2.82221830802,
			"0.016": 1.9856976825,
			"0.017": 0.300866298363,
			"0.018": 0.0,
			"0.019": 0.0,
			"0.02": 0.0,
			"0.021": 0.0,
			"0.022": 0.0,
			"0.023": 0.0,
			"0.024": 0.0,
			"0.025": 0.0
		}
	}
}
