{
	 "smiles": "OC(=O)C1=CC=C(O1)[N+]([O-])=O", 
	 "Tm": 459.15, 
	 "num_atms": 14, 
	 "gaussian": { 
		 "optdone": 1, 
		 "sigma_profile": "yes", 
		 "theory": "DFT", 
		 "functional": "B3LYP", 
		 "basiset": "6-31G**", 
		 "properties": { 
			 "R2extent": 2101.0786, 
			 "electric_dipole_moment_norm": 1.96241333057, 
			 "electric_quadrupole_moment_norm": 17.4861116856, 
			 "total_energy": -623.077453109, 
			 "HOMO_LUMO_gap": 0.17029, 
			 "cosmo_polarized_energy": -15.22, 
			 "cosmo_cavitation_energy": 20.95, 
			 "cosmo_dispersion_energy": -15.28, 
			 "cosmo_repulsion_energy": 1.24, 
			 "cosmo_total_nonelectrostatic_energy": 6.91, 
			 "SMD_solvation_energy": 8.21 
		},
		"coords": [
			{
				"x": 1.4193393548,
				"y": 0.0019179551,
				"z": -2.6072386753,
				"element": "O" 
			},
			{
				"x": 0.4159864828,
				"y": -0.5889498409,
				"z": -1.9271206885,
				"element": "C" 
			},
			{
				"x": -0.2981014754,
				"y": -1.4276829541,
				"z": -2.4214875601,
				"element": "O" 
			},
			{
				"x": 0.2381582289,
				"y": -0.1526048002,
				"z": -0.5241442984,
				"element": "C" 
			},
			{
				"x": -0.6606305603,
				"y": -0.5356232191,
				"z": 0.4377988913,
				"element": "C" 
			},
			{
				"x": -0.3552330056,
				"y": 0.2237863864,
				"z": 1.6000671968,
				"element": "C" 
			},
			{
				"x": 0.7081457372,
				"y": 1.0090235251,
				"z": 1.2483311184,
				"element": "C" 
			},
			{
				"x": 1.0874893319,
				"y": 0.801243748,
				"z": -0.0316085692,
				"element": "O" 
			},
			{
				"x": 1.4478464697,
				"y": 1.9778613458,
				"z": 2.0037970119,
				"element": "N" 
			},
			{
				"x": 2.3749761026,
				"y": 2.5545401186,
				"z": 1.4403915935,
				"element": "O" 
			},
			{
				"x": 1.0754718243,
				"y": 2.1428217393,
				"z": 3.1665630162,
				"element": "O" 
			},
			{
				"x": 1.884404571,
				"y": 0.6460860363,
				"z": -2.0497739326,
				"element": "H" 
			},
			{
				"x": -1.4382657517,
				"y": -1.2732425676,
				"z": 0.308316941,
				"element": "H" 
			},
			{
				"x": -0.8373873103,
				"y": 0.2081225271,
				"z": 2.5650079551,
				"element": "H" 
			}
		],
		 "valence_orbital": [ 
			{
				"type": "occ",
				"energy": -0.33276,
				"method": "rhf"
			},
			{
				"type": "occ",
				"energy": -0.32905,
				"method": "rhf"
			},
			{
				"type": "occ",
				"energy": -0.31703,
				"method": "rhf"
			},
			{
				"type": "occ",
				"energy": -0.30319,
				"method": "rhf"
			},
			{
				"type": "occ",
				"energy": -0.29093,
				"method": "rhf"
			},
			{
				"type": "unocc",
				"energy": -0.12064,
				"method": "rhf"
			},
			{
				"type": "unocc",
				"energy": -0.05708,
				"method": "rhf"
			},
			{
				"type": "unocc",
				"energy": 0.02258,
				"method": "rhf"
			},
			{
				"type": "unocc",
				"energy": 0.05591,
				"method": "rhf"
			},
			{
				"type": "unocc",
				"energy": 0.07298,
				"method": "rhf"
			}
		],
		"cosmo_sigma_profile": { 
			"-0.025": 0.0,
			"-0.024": 0.0,
			"-0.023": 0.0,
			"-0.022": 0.0,
			"-0.021": 0.0,
			"-0.02": 0.0,
			"-0.019": 0.04070548458,
			"-0.018": 0.681133437911,
			"-0.017": 0.875304874571,
			"-0.016": 0.50140432775,
			"-0.015": 0.361460649187,
			"-0.014": 0.478710103642,
			"-0.013": 1.65105144986,
			"-0.012": 1.74957138993,
			"-0.011": 1.94441836215,
			"-0.01": 4.07597193097,
			"-0.009": 3.88554826672,
			"-0.008": 6.64594498094,
			"-0.007": 7.95496360133,
			"-0.006": 7.27204924723,
			"-0.005": 10.7838286808,
			"-0.004": 9.05030456985,
			"-0.003": 9.8312136214,
			"-0.002": 11.1518288812,
			"-0.001": 10.3157943103,
			"0.0": 4.58011263902,
			"0.001": 5.02656713529,
			"0.002": 3.98676650286,
			"0.003": 4.0646112136,
			"0.004": 5.16186172536,
			"0.005": 5.0397264451,
			"0.006": 9.39925265758,
			"0.007": 14.2516204242,
			"0.008": 9.81423973796,
			"0.009": 7.71125173163,
			"0.01": 5.02372725565,
			"0.011": 4.71201013309,
			"0.012": 1.23118825732,
			"0.013": 0.0,
			"0.014": 0.0,
			"0.015": 0.0,
			"0.016": 0.0,
			"0.017": 0.0,
			"0.018": 0.0,
			"0.019": 0.0,
			"0.02": 0.0,
			"0.021": 0.0,
			"0.022": 0.0,
			"0.023": 0.0,
			"0.024": 0.0,
			"0.025": 0.0
		}
	}
}
