{
	 "smiles": "OC(=O)C1=CN=C(S1)C1=CC=NC=C1", 
	 "Tm": 581.15, 
	 "num_atms": 20, 
	 "gaussian": { 
		 "optdone": 1, 
		 "sigma_profile": "yes", 
		 "theory": "DFT", 
		 "functional": "B3LYP", 
		 "basiset": "6-31G**", 
		 "properties": { 
			 "R2extent": 4720.6982, 
			 "electric_dipole_moment_norm": 2.89580749706, 
			 "electric_quadrupole_moment_norm": 28.9248217225, 
			 "total_energy": -1004.70247923, 
			 "HOMO_LUMO_gap": 0.16041, 
			 "cosmo_polarized_energy": -16.69, 
			 "cosmo_cavitation_energy": 27.21, 
			 "cosmo_dispersion_energy": -20.73, 
			 "cosmo_repulsion_energy": 1.55, 
			 "cosmo_total_nonelectrostatic_energy": 8.03, 
			 "SMD_solvation_energy": 3.07 
		},
		"coords": [
			{
				"x": 2.5570062799,
				"y": -3.3953613656,
				"z": -3.2638466139,
				"element": "O" 
			},
			{
				"x": 1.2491333583,
				"y": -3.1454524723,
				"z": -3.5245530754,
				"element": "C" 
			},
			{
				"x": 0.7474796687,
				"y": -3.532099008,
				"z": -4.5535468993,
				"element": "O" 
			},
			{
				"x": 0.4713604245,
				"y": -2.387237938,
				"z": -2.5147285557,
				"element": "C" 
			},
			{
				"x": -0.8584950982,
				"y": -2.0630281116,
				"z": -2.650126527,
				"element": "C" 
			},
			{
				"x": -1.4199595874,
				"y": -1.36285848,
				"z": -1.6282138921,
				"element": "N" 
			},
			{
				"x": -0.5581668525,
				"y": -1.1190695908,
				"z": -0.6712673689,
				"element": "C" 
			},
			{
				"x": 1.0539725413,
				"y": -1.764937199,
				"z": -0.9919694791,
				"element": "S" 
			},
			{
				"x": -0.8813403518,
				"y": -0.3825150062,
				"z": 0.5560174343,
				"element": "C" 
			},
			{
				"x": 0.0587640852,
				"y": -0.1342484097,
				"z": 1.5657054714,
				"element": "C" 
			},
			{
				"x": -0.3413322892,
				"y": 0.5748464982,
				"z": 2.6966883561,
				"element": "C" 
			},
			{
				"x": -1.5818242741,
				"y": 1.0411504569,
				"z": 2.8851311615,
				"element": "N" 
			},
			{
				"x": -2.4745329533,
				"y": 0.7995682347,
				"z": 1.9152061981,
				"element": "C" 
			},
			{
				"x": -2.1846489597,
				"y": 0.1026794681,
				"z": 0.7449854137,
				"element": "C" 
			},
			{
				"x": 2.8350498161,
				"y": -3.0323998153,
				"z": -2.4108984276,
				"element": "H" 
			},
			{
				"x": -1.447009209,
				"y": -2.3404877153,
				"z": -3.5161014141,
				"element": "H" 
			},
			{
				"x": 1.0847436942,
				"y": -0.4810574777,
				"z": 1.4842516483,
				"element": "H" 
			},
			{
				"x": 0.374364254,
				"y": 0.7772997698,
				"z": 3.4910811838,
				"element": "H" 
			},
			{
				"x": -3.4786493108,
				"y": 1.1844650434,
				"z": 2.0820532681,
				"element": "H" 
			},
			{
				"x": -2.9406152364,
				"y": -0.0684568818,
				"z": -0.0122678822,
				"element": "H" 
			}
		],
		 "valence_orbital": [ 
			{
				"type": "occ",
				"energy": -0.30539,
				"method": "rhf"
			},
			{
				"type": "occ",
				"energy": -0.2905,
				"method": "rhf"
			},
			{
				"type": "occ",
				"energy": -0.28064,
				"method": "rhf"
			},
			{
				"type": "occ",
				"energy": -0.27075,
				"method": "rhf"
			},
			{
				"type": "occ",
				"energy": -0.26025,
				"method": "rhf"
			},
			{
				"type": "unocc",
				"energy": -0.09984,
				"method": "rhf"
			},
			{
				"type": "unocc",
				"energy": -0.03782,
				"method": "rhf"
			},
			{
				"type": "unocc",
				"energy": -0.02751,
				"method": "rhf"
			},
			{
				"type": "unocc",
				"energy": -0.02725,
				"method": "rhf"
			},
			{
				"type": "unocc",
				"energy": 0.02095,
				"method": "rhf"
			}
		],
		"cosmo_sigma_profile": { 
			"-0.025": 0.0,
			"-0.024": 0.0,
			"-0.023": 0.0,
			"-0.022": 0.0,
			"-0.021": 0.0,
			"-0.02": 0.0,
			"-0.019": 0.279917737117,
			"-0.018": 1.13315709625,
			"-0.017": 0.739351404024,
			"-0.016": 1.17983470961,
			"-0.015": 1.15909708111,
			"-0.014": 0.829913480054,
			"-0.013": 0.854043842233,
			"-0.012": 1.12921393875,
			"-0.011": 1.29892219186,
			"-0.01": 0.872973487435,
			"-0.009": 2.50463091754,
			"-0.008": 5.11124806111,
			"-0.007": 9.47258831006,
			"-0.006": 11.1056559157,
			"-0.005": 9.67875830267,
			"-0.004": 10.8096559774,
			"-0.003": 13.6168793072,
			"-0.002": 17.2039222111,
			"-0.001": 19.3736161961,
			"0.0": 21.8401416692,
			"0.001": 22.458355035,
			"0.002": 9.93370799246,
			"0.003": 6.12966718669,
			"0.004": 6.03425631271,
			"0.005": 5.13577069484,
			"0.006": 4.9892824785,
			"0.007": 4.32726122468,
			"0.008": 5.91469659365,
			"0.009": 6.10510480411,
			"0.01": 6.75352946406,
			"0.011": 6.91978356045,
			"0.012": 3.71716305953,
			"0.013": 1.25345608007,
			"0.014": 0.830075986213,
			"0.015": 0.777551881337,
			"0.016": 0.634183322757,
			"0.017": 0.0809244964097,
			"0.018": 0.0,
			"0.019": 0.0,
			"0.02": 0.0,
			"0.021": 0.0,
			"0.022": 0.0,
			"0.023": 0.0,
			"0.024": 0.0,
			"0.025": 0.0
		}
	}
}
