{
	 "smiles": "CC1=C(C=CC=C1)C(C)(C)C(O)=O", 
	 "Tm": 367.15, 
	 "num_atms": 27, 
	 "gaussian": { 
		 "optdone": 1, 
		 "sigma_profile": "yes", 
		 "theory": "DFT", 
		 "functional": "B3LYP", 
		 "basiset": "6-31G**", 
		 "properties": { 
			 "R2extent": 2437.3968, 
			 "electric_dipole_moment_norm": 4.00658403256, 
			 "electric_quadrupole_moment_norm": 13.0943803916, 
			 "total_energy": -578.068565518, 
			 "HOMO_LUMO_gap": 0.23472, 
			 "cosmo_polarized_energy": -14.8, 
			 "cosmo_cavitation_energy": 28.24, 
			 "cosmo_dispersion_energy": -20.18, 
			 "cosmo_repulsion_energy": 1.56, 
			 "cosmo_total_nonelectrostatic_energy": 9.63, 
			 "SMD_solvation_energy": 5.71 
		},
		"coords": [
			{
				"x": -0.5658792137,
				"y": 0.3704806941,
				"z": -2.7128282913,
				"element": "C" 
			},
			{
				"x": -0.5491544326,
				"y": 0.9487144187,
				"z": -1.3127564631,
				"element": "C" 
			},
			{
				"x": -0.0605256914,
				"y": 0.2585424017,
				"z": -0.1755647199,
				"element": "C" 
			},
			{
				"x": -0.1567166266,
				"y": 0.8860598408,
				"z": 1.0744458082,
				"element": "C" 
			},
			{
				"x": -0.7120901576,
				"y": 2.1561442498,
				"z": 1.2268658704,
				"element": "C" 
			},
			{
				"x": -1.1878650359,
				"y": 2.8348836339,
				"z": 0.1095854981,
				"element": "C" 
			},
			{
				"x": -1.10088244,
				"y": 2.22573821,
				"z": -1.1400056507,
				"element": "C" 
			},
			{
				"x": 0.6504202655,
				"y": -1.1069278587,
				"z": -0.2858976831,
				"element": "C" 
			},
			{
				"x": 2.0928065558,
				"y": -0.8762290681,
				"z": -0.8020204399,
				"element": "C" 
			},
			{
				"x": 0.7442706837,
				"y": -1.8540563953,
				"z": 1.0713158612,
				"element": "C" 
			},
			{
				"x": -0.1861190413,
				"y": -2.0753821479,
				"z": -1.1568023212,
				"element": "C" 
			},
			{
				"x": 0.4809909328,
				"y": -2.8457157968,
				"z": -2.0579781799,
				"element": "O" 
			},
			{
				"x": -1.3745718335,
				"y": -2.2203076171,
				"z": -1.0145052404,
				"element": "O" 
			},
			{
				"x": -0.6536619705,
				"y": 1.1707499359,
				"z": -3.4525674678,
				"element": "H" 
			},
			{
				"x": 0.3297775639,
				"y": -0.2038701865,
				"z": -2.9624627368,
				"element": "H" 
			},
			{
				"x": -1.4195123863,
				"y": -0.3029393215,
				"z": -2.8446121202,
				"element": "H" 
			},
			{
				"x": 0.2055182063,
				"y": 0.3793728377,
				"z": 1.9609445419,
				"element": "H" 
			},
			{
				"x": -0.7689888754,
				"y": 2.6050516432,
				"z": 2.2142880433,
				"element": "H" 
			},
			{
				"x": -1.6222689481,
				"y": 3.8258560352,
				"z": 0.2049536511,
				"element": "H" 
			},
			{
				"x": -1.4753030222,
				"y": 2.7499420722,
				"z": -2.0158266058,
				"element": "H" 
			},
			{
				"x": 2.6101507115,
				"y": -0.1926161837,
				"z": -0.123767375,
				"element": "H" 
			},
			{
				"x": 2.6807204896,
				"y": -1.8046449396,
				"z": -0.8140511118,
				"element": "H" 
			},
			{
				"x": 2.1212633253,
				"y": -0.4222028729,
				"z": -1.7967751824,
				"element": "H" 
			},
			{
				"x": 1.160690382,
				"y": -2.8547030536,
				"z": 0.915081665,
				"element": "H" 
			},
			{
				"x": 1.4049630298,
				"y": -1.3317650664,
				"z": 1.7684157999,
				"element": "H" 
			},
			{
				"x": -0.2436912987,
				"y": -1.9634682141,
				"z": 1.5228491519,
				"element": "H" 
			},
			{
				"x": 1.4185588273,
				"y": -2.6102072512,
				"z": -2.0750243019,
				"element": "H" 
			}
		],
		 "valence_orbital": [ 
			{
				"type": "occ",
				"energy": -0.32882,
				"method": "rhf"
			},
			{
				"type": "occ",
				"energy": -0.30974,
				"method": "rhf"
			},
			{
				"type": "occ",
				"energy": -0.26406,
				"method": "rhf"
			},
			{
				"type": "occ",
				"energy": -0.24541,
				"method": "rhf"
			},
			{
				"type": "occ",
				"energy": -0.23785,
				"method": "rhf"
			},
			{
				"type": "unocc",
				"energy": -0.00313,
				"method": "rhf"
			},
			{
				"type": "unocc",
				"energy": 0.0005,
				"method": "rhf"
			},
			{
				"type": "unocc",
				"energy": 0.01282,
				"method": "rhf"
			},
			{
				"type": "unocc",
				"energy": 0.05334,
				"method": "rhf"
			},
			{
				"type": "unocc",
				"energy": 0.09717,
				"method": "rhf"
			}
		],
		"cosmo_sigma_profile": { 
			"-0.025": 0.0,
			"-0.024": 0.0,
			"-0.023": 0.0,
			"-0.022": 0.0,
			"-0.021": 0.0,
			"-0.02": 0.0,
			"-0.019": 0.0,
			"-0.018": 0.0,
			"-0.017": 0.277715515988,
			"-0.016": 0.832249005892,
			"-0.015": 0.694200898213,
			"-0.014": 1.19845810724,
			"-0.013": 1.65853674479,
			"-0.012": 0.869730430247,
			"-0.011": 1.40212576423,
			"-0.01": 1.34998720149,
			"-0.009": 1.12710413528,
			"-0.008": 2.04022432869,
			"-0.007": 2.3366411707,
			"-0.006": 5.00069720128,
			"-0.005": 17.0327458749,
			"-0.004": 20.8941116236,
			"-0.003": 22.2763152748,
			"-0.002": 19.6155712877,
			"-0.001": 21.8461690187,
			"0.0": 19.8804974158,
			"0.001": 9.02460954592,
			"0.002": 8.29195653488,
			"0.003": 8.6052382261,
			"0.004": 8.39999017318,
			"0.005": 9.44995021374,
			"0.006": 9.46321595576,
			"0.007": 5.18838775332,
			"0.008": 2.91776670685,
			"0.009": 3.27186977901,
			"0.01": 4.43936050364,
			"0.011": 4.32768538755,
			"0.012": 5.03470781107,
			"0.013": 2.96294063539,
			"0.014": 0.243502310998,
			"0.015": 0.0,
			"0.016": 0.0,
			"0.017": 0.0,
			"0.018": 0.0,
			"0.019": 0.0,
			"0.02": 0.0,
			"0.021": 0.0,
			"0.022": 0.0,
			"0.023": 0.0,
			"0.024": 0.0,
			"0.025": 0.0
		}
	}
}
