{
	 "smiles": "[O-][N+](=O)C1=CC(C=N/C2=CC=CC=C2)=CC=C1C=NC1=CC=CC=C1", 
	 "Tm": 407.15, 
	 "num_atms": 40, 
	 "gaussian": { 
		 "optdone": 1, 
		 "sigma_profile": "yes", 
		 "theory": "DFT", 
		 "functional": "B3LYP", 
		 "basiset": "6-31G**", 
		 "properties": { 
			 "R2extent": 11725.5856, 
			 "electric_dipole_moment_norm": 4.28267917197, 
			 "electric_quadrupole_moment_norm": 15.8903686571, 
			 "total_energy": -1085.7294152, 
			 "HOMO_LUMO_gap": 0.124, 
			 "cosmo_polarized_energy": -17.8, 
			 "cosmo_cavitation_energy": 46.76, 
			 "cosmo_dispersion_energy": -31.43, 
			 "cosmo_repulsion_energy": 2.37, 
			 "cosmo_total_nonelectrostatic_energy": 17.69, 
			 "SMD_solvation_energy": 8.16 
		},
		"coords": [
			{
				"x": -0.9738382206,
				"y": -1.7498479478,
				"z": 1.4795919761,
				"element": "O" 
			},
			{
				"x": -0.8903473021,
				"y": -0.860396311,
				"z": 0.6406541716,
				"element": "N" 
			},
			{
				"x": -1.7080418904,
				"y": 0.0345025115,
				"z": 0.4524079136,
				"element": "O" 
			},
			{
				"x": 0.2590208456,
				"y": -0.9210651668,
				"z": -0.2887676425,
				"element": "C" 
			},
			{
				"x": -0.0607381364,
				"y": -1.0593619113,
				"z": -1.6300924996,
				"element": "C" 
			},
			{
				"x": 0.9597746498,
				"y": -1.250669826,
				"z": -2.5798361923,
				"element": "C" 
			},
			{
				"x": 0.7341730394,
				"y": -1.4736261114,
				"z": -4.0295007328,
				"element": "C" 
			},
			{
				"x": -0.2838817017,
				"y": -1.2936325178,
				"z": -4.7774044223,
				"element": "N" 
			},
			{
				"x": -1.4909783288,
				"y": -0.6896115119,
				"z": -4.3759232789,
				"element": "C" 
			},
			{
				"x": -1.5548510664,
				"y": 0.6836556467,
				"z": -4.0848695648,
				"element": "C" 
			},
			{
				"x": -2.7802715546,
				"y": 1.2772571892,
				"z": -3.7857288566,
				"element": "C" 
			},
			{
				"x": -3.9515045038,
				"y": 0.5173734645,
				"z": -3.7667628074,
				"element": "C" 
			},
			{
				"x": -3.8901942353,
				"y": -0.8452199224,
				"z": -4.0688238338,
				"element": "C" 
			},
			{
				"x": -2.6740792719,
				"y": -1.4460950257,
				"z": -4.3901283251,
				"element": "C" 
			},
			{
				"x": 2.286923699,
				"y": -1.2987140158,
				"z": -2.1240970857,
				"element": "C" 
			},
			{
				"x": 2.5912556521,
				"y": -1.1156611165,
				"z": -0.7802020143,
				"element": "C" 
			},
			{
				"x": 1.5880094248,
				"y": -0.9064446939,
				"z": 0.1781847216,
				"element": "C" 
			},
			{
				"x": 1.9907451409,
				"y": -0.6278577909,
				"z": 1.5645823687,
				"element": "C" 
			},
			{
				"x": 1.2103914078,
				"y": -0.0487105639,
				"z": 2.3928048174,
				"element": "N" 
			},
			{
				"x": 1.6402254512,
				"y": 0.2715872976,
				"z": 3.6913949269,
				"element": "C" 
			},
			{
				"x": 0.6832446051,
				"y": 0.1908747758,
				"z": 4.7166267018,
				"element": "C" 
			},
			{
				"x": 1.0375466616,
				"y": 0.4867014693,
				"z": 6.0299020997,
				"element": "C" 
			},
			{
				"x": 2.3375756126,
				"y": 0.9025422788,
				"z": 6.332286341,
				"element": "C" 
			},
			{
				"x": 3.2833299764,
				"y": 1.0189516532,
				"z": 5.310876323,
				"element": "C" 
			},
			{
				"x": 2.9432950849,
				"y": 0.702818097,
				"z": 3.9966938562,
				"element": "C" 
			},
			{
				"x": -1.1015002403,
				"y": -1.0410188072,
				"z": -1.9241952088,
				"element": "H" 
			},
			{
				"x": 1.6145293735,
				"y": -1.8857149981,
				"z": -4.535090143,
				"element": "H" 
			},
			{
				"x": -0.6439897026,
				"y": 1.2741089278,
				"z": -4.1041101425,
				"element": "H" 
			},
			{
				"x": -2.8165678425,
				"y": 2.3392154022,
				"z": -3.5602437338,
				"element": "H" 
			},
			{
				"x": -4.9021020159,
				"y": 0.9826708929,
				"z": -3.5255850244,
				"element": "H" 
			},
			{
				"x": -4.7961136337,
				"y": -1.4447414647,
				"z": -4.0644977099,
				"element": "H" 
			},
			{
				"x": -2.6228383092,
				"y": -2.499844183,
				"z": -4.6456557029,
				"element": "H" 
			},
			{
				"x": 3.0884094498,
				"y": -1.4687036599,
				"z": -2.8377213758,
				"element": "H" 
			},
			{
				"x": 3.6283511941,
				"y": -1.1183129769,
				"z": -0.4565471682,
				"element": "H" 
			},
			{
				"x": 3.0177069691,
				"y": -0.9255888764,
				"z": 1.8216506031,
				"element": "H" 
			},
			{
				"x": -0.3224417488,
				"y": -0.1229319212,
				"z": 4.4566619807,
				"element": "H" 
			},
			{
				"x": 0.2950368356,
				"y": 0.4053085607,
				"z": 6.8183573717,
				"element": "H" 
			},
			{
				"x": 2.6073167206,
				"y": 1.1503736361,
				"z": 7.3545807602,
				"element": "H" 
			},
			{
				"x": 4.2879363493,
				"y": 1.3652070975,
				"z": 5.536773689,
				"element": "H" 
			},
			{
				"x": 3.6718815619,
				"y": 0.8263224198,
				"z": 3.2008528431,
				"element": "H" 
			}
		],
		 "valence_orbital": [ 
			{
				"type": "occ",
				"energy": -0.26683,
				"method": "rhf"
			},
			{
				"type": "occ",
				"energy": -0.25643,
				"method": "rhf"
			},
			{
				"type": "occ",
				"energy": -0.25116,
				"method": "rhf"
			},
			{
				"type": "occ",
				"energy": -0.23192,
				"method": "rhf"
			},
			{
				"type": "occ",
				"energy": -0.21873,
				"method": "rhf"
			},
			{
				"type": "unocc",
				"energy": -0.09473,
				"method": "rhf"
			},
			{
				"type": "unocc",
				"energy": -0.06786,
				"method": "rhf"
			},
			{
				"type": "unocc",
				"energy": -0.03702,
				"method": "rhf"
			},
			{
				"type": "unocc",
				"energy": -0.02775,
				"method": "rhf"
			},
			{
				"type": "unocc",
				"energy": -0.00661,
				"method": "rhf"
			}
		],
		"cosmo_sigma_profile": { 
			"-0.025": 0.0,
			"-0.024": 0.0,
			"-0.023": 0.0,
			"-0.022": 0.0,
			"-0.021": 0.0,
			"-0.02": 0.0,
			"-0.019": 0.0,
			"-0.018": 0.0,
			"-0.017": 0.0,
			"-0.016": 0.0,
			"-0.015": 0.0,
			"-0.014": 0.0,
			"-0.013": 0.0,
			"-0.012": 0.0,
			"-0.011": 0.0,
			"-0.01": 0.284024655191,
			"-0.009": 4.16391855773,
			"-0.008": 9.40749241599,
			"-0.007": 10.9687377541,
			"-0.006": 20.4850783446,
			"-0.005": 26.9547127762,
			"-0.004": 28.4880027142,
			"-0.003": 27.9971513276,
			"-0.002": 25.800024731,
			"-0.001": 28.9192839686,
			"0.0": 28.0959310921,
			"0.001": 23.7520490689,
			"0.002": 21.4405076859,
			"0.003": 21.0988987872,
			"0.004": 24.6978817964,
			"0.005": 25.597123997,
			"0.006": 14.525850525,
			"0.007": 13.0852843184,
			"0.008": 9.32294916583,
			"0.009": 6.31861002396,
			"0.01": 1.7321865178,
			"0.011": 0.367200486962,
			"0.012": 1.19764324535,
			"0.013": 0.784131119602,
			"0.014": 0.848348307013,
			"0.015": 0.0311961873764,
			"0.016": 0.0,
			"0.017": 0.0,
			"0.018": 0.0,
			"0.019": 0.0,
			"0.02": 0.0,
			"0.021": 0.0,
			"0.022": 0.0,
			"0.023": 0.0,
			"0.024": 0.0,
			"0.025": 0.0
		}
	}
}
