{
	 "smiles": "CC(C)CC1=CC(=CC2=CC=C(O2)C2=CC=C(C)C=C2)C(=O)O1", 
	 "Tm": 351.15, 
	 "num_atms": 43, 
	 "gaussian": { 
		 "optdone": 1, 
		 "sigma_profile": "yes", 
		 "theory": "DFT", 
		 "functional": "B3LYP", 
		 "basiset": "6-31G**", 
		 "properties": { 
			 "R2extent": 11400.2633, 
			 "electric_dipole_moment_norm": 5.93697149227, 
			 "electric_quadrupole_moment_norm": 27.4528951275, 
			 "total_energy": -999.857621205, 
			 "HOMO_LUMO_gap": 0.11017, 
			 "cosmo_polarized_energy": -12.83, 
			 "cosmo_cavitation_energy": 47.46, 
			 "cosmo_dispersion_energy": -32.42, 
			 "cosmo_repulsion_energy": 2.47, 
			 "cosmo_total_nonelectrostatic_energy": 17.5, 
			 "SMD_solvation_energy": 9.13 
		},
		"coords": [
			{
				"x": -1.4618987148,
				"y": -1.3816763402,
				"z": -3.9561040354,
				"element": "C" 
			},
			{
				"x": -2.4142615059,
				"y": -2.5082698396,
				"z": -3.5334981749,
				"element": "C" 
			},
			{
				"x": -3.8026454874,
				"y": -2.3420219957,
				"z": -4.1674372099,
				"element": "C" 
			},
			{
				"x": -2.4721071032,
				"y": -2.6647953089,
				"z": -1.9857596128,
				"element": "C" 
			},
			{
				"x": -2.9410507038,
				"y": -1.4749557287,
				"z": -1.2208100392,
				"element": "C" 
			},
			{
				"x": -2.2777994911,
				"y": -0.5863769016,
				"z": -0.4442440169,
				"element": "C" 
			},
			{
				"x": -3.246819368,
				"y": 0.3569747314,
				"z": 0.0611380561,
				"element": "C" 
			},
			{
				"x": -3.1791475338,
				"y": 1.44935542,
				"z": 0.8739632402,
				"element": "C" 
			},
			{
				"x": -2.0390761187,
				"y": 2.0187778701,
				"z": 1.5036930765,
				"element": "C" 
			},
			{
				"x": -1.9179329369,
				"y": 3.1192756053,
				"z": 2.3317982282,
				"element": "C" 
			},
			{
				"x": -0.5508111025,
				"y": 3.2342282406,
				"z": 2.6715023097,
				"element": "C" 
			},
			{
				"x": 0.1078016436,
				"y": 2.2000647394,
				"z": 2.0376441959,
				"element": "C" 
			},
			{
				"x": -0.7951550408,
				"y": 1.4595433019,
				"z": 1.3268757028,
				"element": "O" 
			},
			{
				"x": 1.5017919558,
				"y": 1.7892514792,
				"z": 1.9962007815,
				"element": "C" 
			},
			{
				"x": 1.9126328116,
				"y": 0.6679173484,
				"z": 1.2544618794,
				"element": "C" 
			},
			{
				"x": 3.2508503252,
				"y": 0.2865645148,
				"z": 1.2278258606,
				"element": "C" 
			},
			{
				"x": 4.2285386533,
				"y": 1.0019203103,
				"z": 1.9314842605,
				"element": "C" 
			},
			{
				"x": 5.6831920931,
				"y": 0.6032694927,
				"z": 1.8764098546,
				"element": "C" 
			},
			{
				"x": 3.8135491707,
				"y": 2.1186517076,
				"z": 2.6735605802,
				"element": "C" 
			},
			{
				"x": 2.4806716882,
				"y": 2.5088299857,
				"z": 2.707763567,
				"element": "C" 
			},
			{
				"x": -4.5525548829,
				"y": -0.0726030565,
				"z": -0.5013685272,
				"element": "C" 
			},
			{
				"x": -5.6625976599,
				"y": 0.3837326273,
				"z": -0.3798475979,
				"element": "O" 
			},
			{
				"x": -4.3025247206,
				"y": -1.2049464102,
				"z": -1.2814299884,
				"element": "O" 
			},
			{
				"x": -0.4578398299,
				"y": -1.5271571578,
				"z": -3.5414323098,
				"element": "H" 
			},
			{
				"x": -1.3701549291,
				"y": -1.3410059944,
				"z": -5.0464884589,
				"element": "H" 
			},
			{
				"x": -1.8241048474,
				"y": -0.4060402407,
				"z": -3.6146869045,
				"element": "H" 
			},
			{
				"x": -1.9940975386,
				"y": -3.4561134708,
				"z": -3.8987124838,
				"element": "H" 
			},
			{
				"x": -3.7247252744,
				"y": -2.3371631898,
				"z": -5.2600498999,
				"element": "H" 
			},
			{
				"x": -4.4725259548,
				"y": -3.1600446472,
				"z": -3.8819486496,
				"element": "H" 
			},
			{
				"x": -4.2770735128,
				"y": -1.4067189851,
				"z": -3.8573741082,
				"element": "H" 
			},
			{
				"x": -1.4698207071,
				"y": -2.9148117849,
				"z": -1.6202211636,
				"element": "H" 
			},
			{
				"x": -3.126992663,
				"y": -3.5116753992,
				"z": -1.742474265,
				"element": "H" 
			},
			{
				"x": -1.2187013348,
				"y": -0.5952269865,
				"z": -0.2397021524,
				"element": "H" 
			},
			{
				"x": -4.1186091069,
				"y": 1.9601972371,
				"z": 1.0718087158,
				"element": "H" 
			},
			{
				"x": -2.7295834138,
				"y": 3.75890046,
				"z": 2.6482800364,
				"element": "H" 
			},
			{
				"x": -0.10158381,
				"y": 3.9848098772,
				"z": 3.3047059345,
				"element": "H" 
			},
			{
				"x": 1.1763565399,
				"y": 0.0950681347,
				"z": 0.7019471446,
				"element": "H" 
			},
			{
				"x": 3.5423416985,
				"y": -0.5864364912,
				"z": 0.6491850661,
				"element": "H" 
			},
			{
				"x": 5.7999100202,
				"y": -0.4487859601,
				"z": 1.6009616573,
				"element": "H" 
			},
			{
				"x": 6.229223494,
				"y": 1.1984249559,
				"z": 1.1333973102,
				"element": "H" 
			},
			{
				"x": 6.1781134581,
				"y": 0.7588779005,
				"z": 2.8402671573,
				"element": "H" 
			},
			{
				"x": 4.5487930712,
				"y": 2.6898990007,
				"z": 3.2349200289,
				"element": "H" 
			},
			{
				"x": 2.1950286693,
				"y": 3.3766909483,
				"z": 3.294294954,
				"element": "H" 
			}
		],
		 "valence_orbital": [ 
			{
				"type": "occ",
				"energy": -0.27879,
				"method": "rhf"
			},
			{
				"type": "occ",
				"energy": -0.26852,
				"method": "rhf"
			},
			{
				"type": "occ",
				"energy": -0.26055,
				"method": "rhf"
			},
			{
				"type": "occ",
				"energy": -0.2373,
				"method": "rhf"
			},
			{
				"type": "occ",
				"energy": -0.19081,
				"method": "rhf"
			},
			{
				"type": "unocc",
				"energy": -0.08064,
				"method": "rhf"
			},
			{
				"type": "unocc",
				"energy": -0.02524,
				"method": "rhf"
			},
			{
				"type": "unocc",
				"energy": -0.01032,
				"method": "rhf"
			},
			{
				"type": "unocc",
				"energy": 0.03505,
				"method": "rhf"
			},
			{
				"type": "unocc",
				"energy": 0.04861,
				"method": "rhf"
			}
		],
		"cosmo_sigma_profile": { 
			"-0.025": 0.0,
			"-0.024": 0.0,
			"-0.023": 0.0,
			"-0.022": 0.0,
			"-0.021": 0.0,
			"-0.02": 0.0,
			"-0.019": 0.0,
			"-0.018": 0.0,
			"-0.017": 0.0,
			"-0.016": 0.0,
			"-0.015": 0.0,
			"-0.014": 0.0,
			"-0.013": 0.0,
			"-0.012": 0.0,
			"-0.011": 0.0,
			"-0.01": 0.0,
			"-0.009": 0.390107026315,
			"-0.008": 5.64126856019,
			"-0.007": 6.93926709823,
			"-0.006": 9.5608896333,
			"-0.005": 17.7061613306,
			"-0.004": 26.0649283932,
			"-0.003": 31.6441378589,
			"-0.002": 38.2763252328,
			"-0.001": 42.0526855573,
			"0.0": 37.6941394939,
			"0.001": 44.2948026614,
			"0.002": 38.4872515181,
			"0.003": 26.2607623065,
			"0.004": 15.2239858208,
			"0.005": 11.4477417685,
			"0.006": 2.93871510323,
			"0.007": 2.63019219541,
			"0.008": 2.63778448254,
			"0.009": 3.97402747109,
			"0.01": 2.65747824466,
			"0.011": 4.76628838344,
			"0.012": 4.70208146637,
			"0.013": 0.805516516304,
			"0.014": 0.0,
			"0.015": 0.0,
			"0.016": 0.0,
			"0.017": 0.0,
			"0.018": 0.0,
			"0.019": 0.0,
			"0.02": 0.0,
			"0.021": 0.0,
			"0.022": 0.0,
			"0.023": 0.0,
			"0.024": 0.0,
			"0.025": 0.0
		}
	}
}
