{
	 "smiles": "CCOC1=C(OC)C=C(C=O)C=C1OC", 
	 "Tm": 322.15, 
	 "num_atms": 29, 
	 "gaussian": { 
		 "optdone": 1, 
		 "sigma_profile": "yes", 
		 "theory": "DFT", 
		 "functional": "B3LYP", 
		 "basiset": "6-31G**", 
		 "properties": { 
			 "R2extent": 5357.1635, 
			 "electric_dipole_moment_norm": 2.51360103437, 
			 "electric_quadrupole_moment_norm": 27.6177490372, 
			 "total_energy": -728.457140423, 
			 "HOMO_LUMO_gap": 0.16647, 
			 "cosmo_polarized_energy": -13.24, 
			 "cosmo_cavitation_energy": 33.11, 
			 "cosmo_dispersion_energy": -23.12, 
			 "cosmo_repulsion_energy": 1.85, 
			 "cosmo_total_nonelectrostatic_energy": 11.84, 
			 "SMD_solvation_energy": 8.68 
		},
		"coords": [
			{
				"x": -2.9258256275,
				"y": -0.2975628064,
				"z": -0.7493998653,
				"element": "C" 
			},
			{
				"x": -1.7214667889,
				"y": 0.4400481498,
				"z": -0.195256943,
				"element": "C" 
			},
			{
				"x": -0.8489561912,
				"y": 0.7365666934,
				"z": -1.3021742904,
				"element": "O" 
			},
			{
				"x": 0.3018382833,
				"y": 1.3980609477,
				"z": -0.988921564,
				"element": "C" 
			},
			{
				"x": 1.4149463376,
				"y": 0.7006734535,
				"z": -0.4684106216,
				"element": "C" 
			},
			{
				"x": 1.2126334192,
				"y": -0.6285250842,
				"z": -0.2507936054,
				"element": "O" 
			},
			{
				"x": 2.3059288551,
				"y": -1.3941828125,
				"z": 0.2374888812,
				"element": "C" 
			},
			{
				"x": 2.608915021,
				"y": 1.3757839302,
				"z": -0.2192599271,
				"element": "C" 
			},
			{
				"x": 2.6889175872,
				"y": 2.7479320485,
				"z": -0.4877116567,
				"element": "C" 
			},
			{
				"x": 3.9523771851,
				"y": 3.4673498693,
				"z": -0.2274323421,
				"element": "C" 
			},
			{
				"x": 4.9650113603,
				"y": 2.9576683859,
				"z": 0.2172424731,
				"element": "O" 
			},
			{
				"x": 1.5939721242,
				"y": 3.4548546726,
				"z": -0.9981682965,
				"element": "C" 
			},
			{
				"x": 0.392888213,
				"y": 2.7811564786,
				"z": -1.2425578733,
				"element": "C" 
			},
			{
				"x": -0.7418491724,
				"y": 3.3606125908,
				"z": -1.7226473203,
				"element": "O" 
			},
			{
				"x": -0.7025527301,
				"y": 4.7452040369,
				"z": -2.0294909073,
				"element": "C" 
			},
			{
				"x": -3.6250805987,
				"y": -0.5385304701,
				"z": 0.0576564919,
				"element": "H" 
			},
			{
				"x": -2.6157758811,
				"y": -1.2292696864,
				"z": -1.2309695772,
				"element": "H" 
			},
			{
				"x": -3.4457314655,
				"y": 0.3171450634,
				"z": -1.4895887255,
				"element": "H" 
			},
			{
				"x": -1.1857487832,
				"y": -0.1733200116,
				"z": 0.5389417361,
				"element": "H" 
			},
			{
				"x": -2.0219886358,
				"y": 1.3794753264,
				"z": 0.2879060348,
				"element": "H" 
			},
			{
				"x": 3.155279064,
				"y": -1.3689317253,
				"z": -0.456037791,
				"element": "H" 
			},
			{
				"x": 2.6372882539,
				"y": -1.0436716696,
				"z": 1.2229408093,
				"element": "H" 
			},
			{
				"x": 1.9393379546,
				"y": -2.4180539417,
				"z": 0.3225171428,
				"element": "H" 
			},
			{
				"x": 3.4879159361,
				"y": 0.8814560685,
				"z": 0.1747943623,
				"element": "H" 
			},
			{
				"x": 3.9229883617,
				"y": 4.5531448178,
				"z": -0.4728002068,
				"element": "H" 
			},
			{
				"x": 1.6907058956,
				"y": 4.5178789925,
				"z": -1.1892076205,
				"element": "H" 
			},
			{
				"x": 0.0431442235,
				"y": 4.9673441499,
				"z": -2.8036180152,
				"element": "H" 
			},
			{
				"x": -1.6951995366,
				"y": 4.9968838724,
				"z": -2.4056086683,
				"element": "H" 
			},
			{
				"x": -0.4891126646,
				"y": 5.3533086598,
				"z": -1.1406321141,
				"element": "H" 
			}
		],
		 "valence_orbital": [ 
			{
				"type": "occ",
				"energy": -0.30495,
				"method": "rhf"
			},
			{
				"type": "occ",
				"energy": -0.26949,
				"method": "rhf"
			},
			{
				"type": "occ",
				"energy": -0.25006,
				"method": "rhf"
			},
			{
				"type": "occ",
				"energy": -0.22749,
				"method": "rhf"
			},
			{
				"type": "occ",
				"energy": -0.22196,
				"method": "rhf"
			},
			{
				"type": "unocc",
				"energy": -0.05549,
				"method": "rhf"
			},
			{
				"type": "unocc",
				"energy": 0.01232,
				"method": "rhf"
			},
			{
				"type": "unocc",
				"energy": 0.05047,
				"method": "rhf"
			},
			{
				"type": "unocc",
				"energy": 0.07963,
				"method": "rhf"
			},
			{
				"type": "unocc",
				"energy": 0.0938,
				"method": "rhf"
			}
		],
		"cosmo_sigma_profile": { 
			"-0.025": 0.0,
			"-0.024": 0.0,
			"-0.023": 0.0,
			"-0.022": 0.0,
			"-0.021": 0.0,
			"-0.02": 0.0,
			"-0.019": 0.0,
			"-0.018": 0.0,
			"-0.017": 0.0,
			"-0.016": 0.0,
			"-0.015": 0.0,
			"-0.014": 0.0,
			"-0.013": 0.0,
			"-0.012": 0.0,
			"-0.011": 0.0,
			"-0.01": 0.0,
			"-0.009": 0.0,
			"-0.008": 0.986309527048,
			"-0.007": 4.89735435108,
			"-0.006": 16.6320762283,
			"-0.005": 22.0321665997,
			"-0.004": 28.2036011882,
			"-0.003": 30.902915091,
			"-0.002": 21.9900990822,
			"-0.001": 18.5314171333,
			"0.0": 17.4541660141,
			"0.001": 17.0742388403,
			"0.002": 16.1458363147,
			"0.003": 15.1147120824,
			"0.004": 7.47055450553,
			"0.005": 5.89257047204,
			"0.006": 4.07774856894,
			"0.007": 4.61032133742,
			"0.008": 4.79344776143,
			"0.009": 4.54442325806,
			"0.01": 5.20022115308,
			"0.011": 7.01352774661,
			"0.012": 6.02328952059,
			"0.013": 2.0635399168,
			"0.014": 0.132668820236,
			"0.015": 0.0,
			"0.016": 0.0,
			"0.017": 0.0,
			"0.018": 0.0,
			"0.019": 0.0,
			"0.02": 0.0,
			"0.021": 0.0,
			"0.022": 0.0,
			"0.023": 0.0,
			"0.024": 0.0,
			"0.025": 0.0
		}
	}
}
