{
	 "smiles": "CCN(CCC(N)=S)C(C)=O", 
	 "Tm": 330.15, 
	 "num_atms": 25, 
	 "gaussian": { 
		 "optdone": 1, 
		 "sigma_profile": "yes", 
		 "theory": "DFT", 
		 "functional": "B3LYP", 
		 "basiset": "6-31G**", 
		 "properties": { 
			 "R2extent": 2587.3496, 
			 "electric_dipole_moment_norm": 6.60128153391, 
			 "electric_quadrupole_moment_norm": 19.1606704358, 
			 "total_energy": -858.119917066, 
			 "HOMO_LUMO_gap": 0.1704, 
			 "cosmo_polarized_energy": -24.95, 
			 "cosmo_cavitation_energy": 28.76, 
			 "cosmo_dispersion_energy": -20.07, 
			 "cosmo_repulsion_energy": 1.58, 
			 "cosmo_total_nonelectrostatic_energy": 10.27, 
			 "SMD_solvation_energy": 4.83 
		},
		"coords": [
			{
				"x": -0.9063721025,
				"y": -1.2174700101,
				"z": 1.0473993423,
				"element": "C" 
			},
			{
				"x": -0.9792751995,
				"y": -1.5456539774,
				"z": -0.4455799814,
				"element": "C" 
			},
			{
				"x": -0.3581248934,
				"y": -0.5307180258,
				"z": -1.3159848075,
				"element": "N" 
			},
			{
				"x": 0.8599024619,
				"y": -0.8950771324,
				"z": -2.0215704459,
				"element": "C" 
			},
			{
				"x": 2.1316423815,
				"y": -1.0006995813,
				"z": -1.1403053313,
				"element": "C" 
			},
			{
				"x": 2.6518254678,
				"y": 0.318661192,
				"z": -0.5966729017,
				"element": "C" 
			},
			{
				"x": 3.1168897847,
				"y": 1.1678663839,
				"z": -1.542581788,
				"element": "N" 
			},
			{
				"x": 2.6509592714,
				"y": 0.7114371572,
				"z": 1.0152469334,
				"element": "S" 
			},
			{
				"x": -1.0847613099,
				"y": 0.6186031534,
				"z": -1.5473617107,
				"element": "C" 
			},
			{
				"x": -0.5073307262,
				"y": 1.6694192279,
				"z": -2.4891650001,
				"element": "C" 
			},
			{
				"x": -2.1756742564,
				"y": 0.7905937957,
				"z": -1.0132450311,
				"element": "O" 
			},
			{
				"x": -1.3644887683,
				"y": -2.0269595007,
				"z": 1.6265566375,
				"element": "H" 
			},
			{
				"x": -1.4564156101,
				"y": -0.2965461105,
				"z": 1.250061836,
				"element": "H" 
			},
			{
				"x": 0.1255373319,
				"y": -1.085832745,
				"z": 1.384252889,
				"element": "H" 
			},
			{
				"x": -2.0270144757,
				"y": -1.6452660507,
				"z": -0.7455148606,
				"element": "H" 
			},
			{
				"x": -0.4792013941,
				"y": -2.4978487728,
				"z": -0.653983479,
				"element": "H" 
			},
			{
				"x": 0.7135701204,
				"y": -1.8762107064,
				"z": -2.4943898081,
				"element": "H" 
			},
			{
				"x": 1.0296993018,
				"y": -0.1866769574,
				"z": -2.8338397625,
				"element": "H" 
			},
			{
				"x": 1.9500516943,
				"y": -1.6719215886,
				"z": -0.3010373721,
				"element": "H" 
			},
			{
				"x": 2.9184151524,
				"y": -1.4571079034,
				"z": -1.7586941591,
				"element": "H" 
			},
			{
				"x": 3.5185203054,
				"y": 2.0475784175,
				"z": -1.2514346759,
				"element": "H" 
			},
			{
				"x": 3.2299659919,
				"y": 0.8854045649,
				"z": -2.5054221316,
				"element": "H" 
			},
			{
				"x": -0.5008978823,
				"y": 1.3167203932,
				"z": -3.5271415921,
				"element": "H" 
			},
			{
				"x": -1.1577553287,
				"y": 2.5413539098,
				"z": -2.4270382798,
				"element": "H" 
			},
			{
				"x": 0.5123326817,
				"y": 1.958550867,
				"z": -2.2200545195,
				"element": "H" 
			}
		],
		 "valence_orbital": [ 
			{
				"type": "occ",
				"energy": -0.33004,
				"method": "rhf"
			},
			{
				"type": "occ",
				"energy": -0.24098,
				"method": "rhf"
			},
			{
				"type": "occ",
				"energy": -0.24015,
				"method": "rhf"
			},
			{
				"type": "occ",
				"energy": -0.23828,
				"method": "rhf"
			},
			{
				"type": "occ",
				"energy": -0.21342,
				"method": "rhf"
			},
			{
				"type": "unocc",
				"energy": -0.04302,
				"method": "rhf"
			},
			{
				"type": "unocc",
				"energy": 0.02826,
				"method": "rhf"
			},
			{
				"type": "unocc",
				"energy": 0.04502,
				"method": "rhf"
			},
			{
				"type": "unocc",
				"energy": 0.07829,
				"method": "rhf"
			},
			{
				"type": "unocc",
				"energy": 0.09484,
				"method": "rhf"
			}
		],
		"cosmo_sigma_profile": { 
			"-0.025": 0.0,
			"-0.024": 0.0,
			"-0.023": 0.0,
			"-0.022": 0.0,
			"-0.021": 0.0,
			"-0.02": 0.0,
			"-0.019": 0.0,
			"-0.018": 0.0,
			"-0.017": 0.0,
			"-0.016": 0.683025465428,
			"-0.015": 1.85148183848,
			"-0.014": 3.20506011761,
			"-0.013": 2.85979492732,
			"-0.012": 2.75107185627,
			"-0.011": 2.62595986535,
			"-0.01": 2.90181086424,
			"-0.009": 1.98606074816,
			"-0.008": 2.10409236363,
			"-0.007": 5.87543382151,
			"-0.006": 12.0775150946,
			"-0.005": 14.2348768716,
			"-0.004": 12.6515046501,
			"-0.003": 17.5879797065,
			"-0.002": 19.6767812228,
			"-0.001": 18.7402521141,
			"0.0": 14.0775129297,
			"0.001": 12.0268547857,
			"0.002": 7.53453986821,
			"0.003": 6.6463122418,
			"0.004": 6.81385836446,
			"0.005": 7.42048503439,
			"0.006": 7.20765321351,
			"0.007": 7.84257079751,
			"0.008": 7.64740974989,
			"0.009": 7.00996401286,
			"0.01": 5.18569926595,
			"0.011": 3.95467626873,
			"0.012": 3.29981327519,
			"0.013": 2.08847725269,
			"0.014": 4.2301157652,
			"0.015": 2.46473369357,
			"0.016": 0.142647890029,
			"0.017": 0.0,
			"0.018": 0.0,
			"0.019": 0.0,
			"0.02": 0.0,
			"0.021": 0.0,
			"0.022": 0.0,
			"0.023": 0.0,
			"0.024": 0.0,
			"0.025": 0.0
		}
	}
}
