{
	 "smiles": "OC(=O)C1CC1C1=C(OC(F)F)C=CC=C1", 
	 "Tm": 337.15, 
	 "num_atms": 26, 
	 "gaussian": { 
		 "optdone": 1, 
		 "sigma_profile": "yes", 
		 "theory": "DFT", 
		 "functional": "B3LYP", 
		 "basiset": "6-31G**", 
		 "properties": { 
			 "R2extent": 4709.3834, 
			 "electric_dipole_moment_norm": 1.82912560804, 
			 "electric_quadrupole_moment_norm": 19.364483085, 
			 "total_energy": -850.530989211, 
			 "HOMO_LUMO_gap": 0.2253, 
			 "cosmo_polarized_energy": -12.44, 
			 "cosmo_cavitation_energy": 31.63, 
			 "cosmo_dispersion_energy": -22.01, 
			 "cosmo_repulsion_energy": 1.7, 
			 "cosmo_total_nonelectrostatic_energy": 11.32, 
			 "SMD_solvation_energy": 7.56 
		},
		"coords": [
			{
				"x": 2.8896585065,
				"y": 1.5270043123,
				"z": -0.883379624,
				"element": "O" 
			},
			{
				"x": 3.2335301796,
				"y": 0.2109650745,
				"z": -0.902569313,
				"element": "C" 
			},
			{
				"x": 4.3840085327,
				"y": -0.1545968028,
				"z": -1.0215789871,
				"element": "O" 
			},
			{
				"x": 2.0661864214,
				"y": -0.6950537364,
				"z": -0.7630490685,
				"element": "C" 
			},
			{
				"x": 0.7116315342,
				"y": -0.3269592136,
				"z": -1.3481718094,
				"element": "C" 
			},
			{
				"x": 0.8998492799,
				"y": -0.3152715781,
				"z": 0.1397829565,
				"element": "C" 
			},
			{
				"x": 0.2499340504,
				"y": -1.3343763556,
				"z": 1.0228580299,
				"element": "C" 
			},
			{
				"x": -1.091545773,
				"y": -1.156652792,
				"z": 1.4085985704,
				"element": "C" 
			},
			{
				"x": -1.7196944696,
				"y": -0.0284983136,
				"z": 0.8950651203,
				"element": "O" 
			},
			{
				"x": -2.7272268157,
				"y": 0.5445819535,
				"z": 1.6287697097,
				"element": "C" 
			},
			{
				"x": -3.9067666945,
				"y": -0.1160859864,
				"z": 1.4343290514,
				"element": "F" 
			},
			{
				"x": -2.88626539,
				"y": 1.7956339822,
				"z": 1.1616530774,
				"element": "F" 
			},
			{
				"x": -1.7472136544,
				"y": -2.0736895025,
				"z": 2.2300310898,
				"element": "C" 
			},
			{
				"x": -1.0467166616,
				"y": -3.1837201327,
				"z": 2.7090780045,
				"element": "C" 
			},
			{
				"x": 0.2866558624,
				"y": -3.3755010621,
				"z": 2.356919039,
				"element": "C" 
			},
			{
				"x": 0.9213995092,
				"y": -2.4556920736,
				"z": 1.5182777616,
				"element": "C" 
			},
			{
				"x": 3.7222023899,
				"y": 2.0184302833,
				"z": -0.9766030031,
				"element": "H" 
			},
			{
				"x": 2.3551655593,
				"y": -1.7384899033,
				"z": -0.8079037772,
				"element": "H" 
			},
			{
				"x": 0.1443840051,
				"y": -1.1415198995,
				"z": -1.7868629041,
				"element": "H" 
			},
			{
				"x": 0.6249447986,
				"y": 0.6275528827,
				"z": -1.8548084577,
				"element": "H" 
			},
			{
				"x": 0.9663480808,
				"y": 0.6811454935,
				"z": 0.5695279061,
				"element": "H" 
			},
			{
				"x": -2.5153651856,
				"y": 0.5612941704,
				"z": 2.7045928587,
				"element": "H" 
			},
			{
				"x": -2.7961838045,
				"y": -1.9408065403,
				"z": 2.4661065927,
				"element": "H" 
			},
			{
				"x": -1.5550503944,
				"y": -3.8981697341,
				"z": 3.3494938512,
				"element": "H" 
			},
			{
				"x": 0.8342372255,
				"y": -4.2357803298,
				"z": 2.7289950332,
				"element": "H" 
			},
			{
				"x": 1.9638929079,
				"y": -2.6016441962,
				"z": 1.2531482916,
				"element": "H" 
			}
		],
		 "valence_orbital": [ 
			{
				"type": "occ",
				"energy": -0.32368,
				"method": "rhf"
			},
			{
				"type": "occ",
				"energy": -0.30175,
				"method": "rhf"
			},
			{
				"type": "occ",
				"energy": -0.27294,
				"method": "rhf"
			},
			{
				"type": "occ",
				"energy": -0.25806,
				"method": "rhf"
			},
			{
				"type": "occ",
				"energy": -0.24226,
				"method": "rhf"
			},
			{
				"type": "unocc",
				"energy": -0.01696,
				"method": "rhf"
			},
			{
				"type": "unocc",
				"energy": -0.00935,
				"method": "rhf"
			},
			{
				"type": "unocc",
				"energy": 0.0057,
				"method": "rhf"
			},
			{
				"type": "unocc",
				"energy": 0.07417,
				"method": "rhf"
			},
			{
				"type": "unocc",
				"energy": 0.08452,
				"method": "rhf"
			}
		],
		"cosmo_sigma_profile": { 
			"-0.025": 0.0,
			"-0.024": 0.0,
			"-0.023": 0.0,
			"-0.022": 0.0,
			"-0.021": 0.0,
			"-0.02": 0.0,
			"-0.019": 0.0,
			"-0.018": 0.549490279992,
			"-0.017": 1.09897253208,
			"-0.016": 0.723673027281,
			"-0.015": 0.739774578916,
			"-0.014": 0.898132959973,
			"-0.013": 1.00664349684,
			"-0.012": 0.0238096529101,
			"-0.011": 0.733839733985,
			"-0.01": 3.40278082096,
			"-0.009": 2.9011079702,
			"-0.008": 2.68731474069,
			"-0.007": 5.42045901505,
			"-0.006": 13.1438710136,
			"-0.005": 17.0138423526,
			"-0.004": 15.884699143,
			"-0.003": 14.6317900588,
			"-0.002": 16.3480431778,
			"-0.001": 16.1278423795,
			"0.0": 15.226900517,
			"0.001": 16.465458266,
			"0.002": 18.4335425718,
			"0.003": 25.3411135991,
			"0.004": 26.088126905,
			"0.005": 12.5760966042,
			"0.006": 5.14011775705,
			"0.007": 3.92127104804,
			"0.008": 1.51368873002,
			"0.009": 1.83377845005,
			"0.01": 2.23361150129,
			"0.011": 2.64139028784,
			"0.012": 5.60652750227,
			"0.013": 1.68219103769,
			"0.014": 0.0434369534188,
			"0.015": 0.0,
			"0.016": 0.0,
			"0.017": 0.0,
			"0.018": 0.0,
			"0.019": 0.0,
			"0.02": 0.0,
			"0.021": 0.0,
			"0.022": 0.0,
			"0.023": 0.0,
			"0.024": 0.0,
			"0.025": 0.0
		}
	}
}
