{
	 "smiles": "COC1=C(C=C(C=C1)C(O)=O)S(=O)(=O)N(C)C", 
	 "Tm": 423.15, 
	 "num_atms": 30, 
	 "gaussian": { 
		 "optdone": 1, 
		 "sigma_profile": "yes", 
		 "theory": "DFT", 
		 "functional": "B3LYP", 
		 "basiset": "6-31G**", 
		 "properties": { 
			 "R2extent": 4646.0892, 
			 "electric_dipole_moment_norm": 2.03666386525, 
			 "electric_quadrupole_moment_norm": 32.7722573183, 
			 "total_energy": -1217.88151302, 
			 "HOMO_LUMO_gap": 0.19103, 
			 "cosmo_polarized_energy": -21.82, 
			 "cosmo_cavitation_energy": 35.14, 
			 "cosmo_dispersion_energy": -24.85, 
			 "cosmo_repulsion_energy": 1.88, 
			 "cosmo_total_nonelectrostatic_energy": 12.17, 
			 "SMD_solvation_energy": 7.88 
		},
		"coords": [
			{
				"x": -0.7156982185,
				"y": -3.9183808913,
				"z": 0.915546769,
				"element": "C" 
			},
			{
				"x": -0.2092029982,
				"y": -2.58877075,
				"z": 0.866031173,
				"element": "O" 
			},
			{
				"x": -0.6812314998,
				"y": -1.7353651903,
				"z": -0.0604895751,
				"element": "C" 
			},
			{
				"x": -0.131888792,
				"y": -0.4307325007,
				"z": -0.0515002595,
				"element": "C" 
			},
			{
				"x": -0.5607246419,
				"y": 0.5129734485,
				"z": -0.9720086273,
				"element": "C" 
			},
			{
				"x": -1.5419774794,
				"y": 0.1888587362,
				"z": -1.9217101184,
				"element": "C" 
			},
			{
				"x": -2.0833559259,
				"y": -1.1003553159,
				"z": -1.9287484123,
				"element": "C" 
			},
			{
				"x": -1.6620722059,
				"y": -2.0566276903,
				"z": -1.0111270993,
				"element": "C" 
			},
			{
				"x": -2.0288627161,
				"y": 1.1656635296,
				"z": -2.9222500173,
				"element": "C" 
			},
			{
				"x": -1.4292424199,
				"y": 2.3807382135,
				"z": -2.8152623617,
				"element": "O" 
			},
			{
				"x": -2.8750058316,
				"y": 0.9372038079,
				"z": -3.7648014208,
				"element": "O" 
			},
			{
				"x": 1.1315063707,
				"y": -0.0216201751,
				"z": 1.1758356976,
				"element": "S" 
			},
			{
				"x": 0.4919596026,
				"y": -0.069256221,
				"z": 2.4918078483,
				"element": "O" 
			},
			{
				"x": 2.3157310288,
				"y": -0.8247904329,
				"z": 0.8665980435,
				"element": "O" 
			},
			{
				"x": 1.5307169919,
				"y": 1.5698978523,
				"z": 0.8839129406,
				"element": "N" 
			},
			{
				"x": 2.5741787558,
				"y": 1.9189326063,
				"z": -0.0735876275,
				"element": "C" 
			},
			{
				"x": 0.7901084711,
				"y": 2.6574356503,
				"z": 1.513350933,
				"element": "C" 
			},
			{
				"x": -1.7924031193,
				"y": -3.9264994454,
				"z": 1.1211875931,
				"element": "H" 
			},
			{
				"x": -0.5145273806,
				"y": -4.4556668498,
				"z": -0.0185255974,
				"element": "H" 
			},
			{
				"x": -0.1851610397,
				"y": -4.4023129027,
				"z": 1.7351110803,
				"element": "H" 
			},
			{
				"x": -0.1376378276,
				"y": 1.5087606677,
				"z": -0.9612590182,
				"element": "H" 
			},
			{
				"x": -2.8411866319,
				"y": -1.3403012481,
				"z": -2.6669461234,
				"element": "H" 
			},
			{
				"x": -2.0951418919,
				"y": -3.0489381899,
				"z": -1.0349682371,
				"element": "H" 
			},
			{
				"x": -1.8236701427,
				"y": 2.9293127334,
				"z": -3.5128302003,
				"element": "H" 
			},
			{
				"x": 3.3011678445,
				"y": 2.5857814521,
				"z": 0.4052543876,
				"element": "H" 
			},
			{
				"x": 2.1602382976,
				"y": 2.4301750178,
				"z": -0.9540124984,
				"element": "H" 
			},
			{
				"x": 3.0946193993,
				"y": 1.0159723753,
				"z": -0.3904340236,
				"element": "H" 
			},
			{
				"x": 0.1116154123,
				"y": 2.2505346754,
				"z": 2.2621379143,
				"element": "H" 
			},
			{
				"x": 0.2160391162,
				"y": 3.235414977,
				"z": 0.7756193978,
				"element": "H" 
			},
			{
				"x": 1.4915094723,
				"y": 3.3345620601,
				"z": 2.0153674394,
				"element": "H" 
			}
		],
		 "valence_orbital": [ 
			{
				"type": "occ",
				"energy": -0.29703,
				"method": "rhf"
			},
			{
				"type": "occ",
				"energy": -0.28162,
				"method": "rhf"
			},
			{
				"type": "occ",
				"energy": -0.27326,
				"method": "rhf"
			},
			{
				"type": "occ",
				"energy": -0.25286,
				"method": "rhf"
			},
			{
				"type": "occ",
				"energy": -0.24411,
				"method": "rhf"
			},
			{
				"type": "unocc",
				"energy": -0.05308,
				"method": "rhf"
			},
			{
				"type": "unocc",
				"energy": -0.03265,
				"method": "rhf"
			},
			{
				"type": "unocc",
				"energy": 0.04475,
				"method": "rhf"
			},
			{
				"type": "unocc",
				"energy": 0.05367,
				"method": "rhf"
			},
			{
				"type": "unocc",
				"energy": 0.06668,
				"method": "rhf"
			}
		],
		"cosmo_sigma_profile": { 
			"-0.025": 0.0,
			"-0.024": 0.0,
			"-0.023": 0.0,
			"-0.022": 0.0,
			"-0.021": 0.0,
			"-0.02": 0.0,
			"-0.019": 0.0450727435376,
			"-0.018": 0.598032337046,
			"-0.017": 1.39230638034,
			"-0.016": 0.399952037315,
			"-0.015": 0.471956371745,
			"-0.014": 0.807636538104,
			"-0.013": 1.07430742103,
			"-0.012": 0.766945973939,
			"-0.011": 0.740894074085,
			"-0.01": 0.576768662672,
			"-0.009": 0.633862381515,
			"-0.008": 3.59445713201,
			"-0.007": 10.7924446782,
			"-0.006": 16.8277348299,
			"-0.005": 25.6030584329,
			"-0.004": 26.5801517284,
			"-0.003": 25.6498613208,
			"-0.002": 23.9484171915,
			"-0.001": 12.4993310655,
			"0.0": 17.3621192518,
			"0.001": 18.3936419268,
			"0.002": 12.7559261111,
			"0.003": 6.68702386603,
			"0.004": 6.74269738452,
			"0.005": 6.27809308777,
			"0.006": 5.70658958642,
			"0.007": 5.90993892378,
			"0.008": 4.02842825291,
			"0.009": 7.5253466902,
			"0.01": 9.78382876338,
			"0.011": 14.4586837581,
			"0.012": 10.2673218547,
			"0.013": 0.0973077220882,
			"0.014": 0.0,
			"0.015": 0.0,
			"0.016": 0.0,
			"0.017": 0.0,
			"0.018": 0.0,
			"0.019": 0.0,
			"0.02": 0.0,
			"0.021": 0.0,
			"0.022": 0.0,
			"0.023": 0.0,
			"0.024": 0.0,
			"0.025": 0.0
		}
	}
}
