{
	 "smiles": "CN(C)C(=O)C(C1=CC=CC=C1)C1=CC=CC=C1", 
	 "Tm": 407.15, 
	 "num_atms": 35, 
	 "gaussian": { 
		 "optdone": 1, 
		 "sigma_profile": "yes", 
		 "theory": "DFT", 
		 "functional": "B3LYP", 
		 "basiset": "6-31G**", 
		 "properties": { 
			 "R2extent": 4760.2561, 
			 "electric_dipole_moment_norm": 3.38747617851, 
			 "electric_quadrupole_moment_norm": 10.441084288, 
			 "total_energy": -749.934482209, 
			 "HOMO_LUMO_gap": 0.22237, 
			 "cosmo_polarized_energy": -13.02, 
			 "cosmo_cavitation_energy": 37.4, 
			 "cosmo_dispersion_energy": -25.62, 
			 "cosmo_repulsion_energy": 2.01, 
			 "cosmo_total_nonelectrostatic_energy": 13.78, 
			 "SMD_solvation_energy": 6.69 
		},
		"coords": [
			{
				"x": -2.372498924,
				"y": 0.737518524,
				"z": -3.7468751119,
				"element": "C" 
			},
			{
				"x": -1.3701271072,
				"y": 0.1398145155,
				"z": -2.8728334809,
				"element": "N" 
			},
			{
				"x": -0.5109063764,
				"y": -0.868590941,
				"z": -3.4790663009,
				"element": "C" 
			},
			{
				"x": -1.3098913757,
				"y": 0.5476570394,
				"z": -1.5626988426,
				"element": "C" 
			},
			{
				"x": -2.0125105865,
				"y": 1.4600517322,
				"z": -1.1341743868,
				"element": "O" 
			},
			{
				"x": -0.2925715992,
				"y": -0.1692697904,
				"z": -0.646413042,
				"element": "C" 
			},
			{
				"x": 1.0740398095,
				"y": 0.5201619237,
				"z": -0.7210099269,
				"element": "C" 
			},
			{
				"x": 1.2002953233,
				"y": 1.9045530353,
				"z": -0.9019655953,
				"element": "C" 
			},
			{
				"x": 2.4614860158,
				"y": 2.5026357264,
				"z": -0.9379011359,
				"element": "C" 
			},
			{
				"x": 3.6145064817,
				"y": 1.7292745341,
				"z": -0.7968577269,
				"element": "C" 
			},
			{
				"x": 3.4991388555,
				"y": 0.3492994643,
				"z": -0.6185924128,
				"element": "C" 
			},
			{
				"x": 2.2389935625,
				"y": -0.2477997669,
				"z": -0.5817226804,
				"element": "C" 
			},
			{
				"x": -0.8162709778,
				"y": -0.290393934,
				"z": 0.7827789414,
				"element": "C" 
			},
			{
				"x": -1.0065042728,
				"y": 0.8289066701,
				"z": 1.6043589007,
				"element": "C" 
			},
			{
				"x": -1.4741624399,
				"y": 0.6771082942,
				"z": 2.9087104943,
				"element": "C" 
			},
			{
				"x": -1.7576072529,
				"y": -0.593318202,
				"z": 3.4166164444,
				"element": "C" 
			},
			{
				"x": -1.571197995,
				"y": -1.7135132943,
				"z": 2.6077482513,
				"element": "C" 
			},
			{
				"x": -1.1038670577,
				"y": -1.5587172683,
				"z": 1.3007404543,
				"element": "C" 
			},
			{
				"x": -2.9714282281,
				"y": 1.4302141902,
				"z": -3.1586636503,
				"element": "H" 
			},
			{
				"x": -3.0201787147,
				"y": -0.0385017273,
				"z": -4.1733388552,
				"element": "H" 
			},
			{
				"x": -1.8942352677,
				"y": 1.2805949346,
				"z": -4.5716870057,
				"element": "H" 
			},
			{
				"x": 0.472347066,
				"y": -0.8907239814,
				"z": -3.0087925738,
				"element": "H" 
			},
			{
				"x": -0.9529938898,
				"y": -1.8741881801,
				"z": -3.4403750384,
				"element": "H" 
			},
			{
				"x": -0.3588231875,
				"y": -0.6107250227,
				"z": -4.5316423569,
				"element": "H" 
			},
			{
				"x": -0.1557243108,
				"y": -1.1927637418,
				"z": -1.0052507122,
				"element": "H" 
			},
			{
				"x": 0.3080810193,
				"y": 2.5121561812,
				"z": -1.0174133981,
				"element": "H" 
			},
			{
				"x": 2.5408615075,
				"y": 3.5769806028,
				"z": -1.0791519242,
				"element": "H" 
			},
			{
				"x": 4.5945054099,
				"y": 2.1967428905,
				"z": -0.8271192722,
				"element": "H" 
			},
			{
				"x": 4.3895431937,
				"y": -0.2634975358,
				"z": -0.5086426056,
				"element": "H" 
			},
			{
				"x": 2.1560855987,
				"y": -1.3219729189,
				"z": -0.4330572603,
				"element": "H" 
			},
			{
				"x": -0.7956974705,
				"y": 1.8187440772,
				"z": 1.2181171041,
				"element": "H" 
			},
			{
				"x": -1.6183036213,
				"y": 1.5554469716,
				"z": 3.5317770366,
				"element": "H" 
			},
			{
				"x": -2.1195371917,
				"y": -0.7072072948,
				"z": 4.4345940055,
				"element": "H" 
			},
			{
				"x": -1.7872094282,
				"y": -2.7074331197,
				"z": 2.9898118797,
				"element": "H" 
			},
			{
				"x": -0.962436568,
				"y": -2.437644588,
				"z": 0.6753917838,
				"element": "H" 
			}
		],
		 "valence_orbital": [ 
			{
				"type": "occ",
				"energy": -0.25022,
				"method": "rhf"
			},
			{
				"type": "occ",
				"energy": -0.24516,
				"method": "rhf"
			},
			{
				"type": "occ",
				"energy": -0.23696,
				"method": "rhf"
			},
			{
				"type": "occ",
				"energy": -0.23354,
				"method": "rhf"
			},
			{
				"type": "occ",
				"energy": -0.2298,
				"method": "rhf"
			},
			{
				"type": "unocc",
				"energy": -0.00743,
				"method": "rhf"
			},
			{
				"type": "unocc",
				"energy": -0.00638,
				"method": "rhf"
			},
			{
				"type": "unocc",
				"energy": 0.00827,
				"method": "rhf"
			},
			{
				"type": "unocc",
				"energy": 0.01304,
				"method": "rhf"
			},
			{
				"type": "unocc",
				"energy": 0.03462,
				"method": "rhf"
			}
		],
		"cosmo_sigma_profile": { 
			"-0.025": 0.0,
			"-0.024": 0.0,
			"-0.023": 0.0,
			"-0.022": 0.0,
			"-0.021": 0.0,
			"-0.02": 0.0,
			"-0.019": 0.0,
			"-0.018": 0.0,
			"-0.017": 0.0,
			"-0.016": 0.0,
			"-0.015": 0.0,
			"-0.014": 0.0,
			"-0.013": 0.0,
			"-0.012": 0.0,
			"-0.011": 0.0,
			"-0.01": 0.0,
			"-0.009": 0.0,
			"-0.008": 0.0,
			"-0.007": 0.917210531189,
			"-0.006": 11.7482368702,
			"-0.005": 28.054896108,
			"-0.004": 35.0533567415,
			"-0.003": 35.5052357005,
			"-0.002": 29.602776597,
			"-0.001": 23.5876036451,
			"0.0": 14.3458519233,
			"0.001": 17.7565700934,
			"0.002": 15.680478647,
			"0.003": 15.9668146452,
			"0.004": 15.6945855297,
			"0.005": 18.5302622395,
			"0.006": 15.6551981835,
			"0.007": 3.37867387027,
			"0.008": 2.943548441,
			"0.009": 1.50738654355,
			"0.01": 1.35982546871,
			"0.011": 2.02834744005,
			"0.012": 1.46028296199,
			"0.013": 2.95408503076,
			"0.014": 3.40241528246,
			"0.015": 0.0288985689602,
			"0.016": 0.0,
			"0.017": 0.0,
			"0.018": 0.0,
			"0.019": 0.0,
			"0.02": 0.0,
			"0.021": 0.0,
			"0.022": 0.0,
			"0.023": 0.0,
			"0.024": 0.0,
			"0.025": 0.0
		}
	}
}
