{
	 "smiles": "OC1=NN=C(O1)C1C2=CC=CC=C2OC2=C1C=CC=C2", 
	 "Tm": 609.15, 
	 "num_atms": 30, 
	 "gaussian": { 
		 "optdone": 1, 
		 "sigma_profile": "yes", 
		 "theory": "DFT", 
		 "functional": "B3LYP", 
		 "basiset": "6-31G**", 
		 "properties": { 
			 "R2extent": 5189.289, 
			 "electric_dipole_moment_norm": 2.22406703136, 
			 "electric_quadrupole_moment_norm": 13.2792644375, 
			 "total_energy": -912.757359985, 
			 "HOMO_LUMO_gap": 0.1935, 
			 "cosmo_polarized_energy": -17.32, 
			 "cosmo_cavitation_energy": 35.07, 
			 "cosmo_dispersion_energy": -25.21, 
			 "cosmo_repulsion_energy": 1.92, 
			 "cosmo_total_nonelectrostatic_energy": 11.78, 
			 "SMD_solvation_energy": 5.11 
		},
		"coords": [
			{
				"x": 1.6769403101,
				"y": 0.9601593988,
				"z": 4.2930959117,
				"element": "O" 
			},
			{
				"x": 1.4241715241,
				"y": 1.0325704699,
				"z": 2.9898253429,
				"element": "C" 
			},
			{
				"x": 1.9857514921,
				"y": 1.7672719436,
				"z": 2.0859253545,
				"element": "N" 
			},
			{
				"x": 1.3222743711,
				"y": 1.439899327,
				"z": 0.8891940393,
				"element": "N" 
			},
			{
				"x": 0.4359254353,
				"y": 0.5504243624,
				"z": 1.1831398356,
				"element": "C" 
			},
			{
				"x": 0.4381954575,
				"y": 0.2360565695,
				"z": 2.5312708594,
				"element": "O" 
			},
			{
				"x": -0.535686715,
				"y": -0.1943580458,
				"z": 0.3037068988,
				"element": "C" 
			},
			{
				"x": -0.7286522208,
				"y": 0.5177698345,
				"z": -1.0210889712,
				"element": "C" 
			},
			{
				"x": -1.5002607058,
				"y": 1.680689891,
				"z": -1.1238588591,
				"element": "C" 
			},
			{
				"x": -1.6359861225,
				"y": 2.3514622886,
				"z": -2.3359692212,
				"element": "C" 
			},
			{
				"x": -0.9893868709,
				"y": 1.8580718538,
				"z": -3.4740474087,
				"element": "C" 
			},
			{
				"x": -0.2288953625,
				"y": 0.6961803561,
				"z": -3.3980967508,
				"element": "C" 
			},
			{
				"x": -0.1072964846,
				"y": 0.0326500106,
				"z": -2.1744739281,
				"element": "C" 
			},
			{
				"x": 0.642796744,
				"y": -1.1214448166,
				"z": -2.1825145559,
				"element": "O" 
			},
			{
				"x": 0.5271167438,
				"y": -1.9914875248,
				"z": -1.1256618883,
				"element": "C" 
			},
			{
				"x": -0.068479208,
				"y": -1.6295674199,
				"z": 0.0874263076,
				"element": "C" 
			},
			{
				"x": -0.1753343558,
				"y": -2.600852778,
				"z": 1.090136616,
				"element": "C" 
			},
			{
				"x": 0.3145941109,
				"y": -3.8907261987,
				"z": 0.8990604052,
				"element": "C" 
			},
			{
				"x": 0.9251623574,
				"y": -4.2252840905,
				"z": -0.3139244938,
				"element": "C" 
			},
			{
				"x": 1.0276501484,
				"y": -3.2803863646,
				"z": -1.329669432,
				"element": "C" 
			},
			{
				"x": 2.3992129099,
				"y": 1.5810345648,
				"z": 4.4738977459,
				"element": "H" 
			},
			{
				"x": -1.4902771868,
				"y": -0.2149351974,
				"z": 0.84685243,
				"element": "H" 
			},
			{
				"x": -1.9866599341,
				"y": 2.0676406468,
				"z": -0.2319137177,
				"element": "H" 
			},
			{
				"x": -2.2351779536,
				"y": 3.2545672212,
				"z": -2.3936478653,
				"element": "H" 
			},
			{
				"x": -1.0846840436,
				"y": 2.3750970488,
				"z": -4.4241877723,
				"element": "H" 
			},
			{
				"x": 0.271760234,
				"y": 0.2823200503,
				"z": -4.2669081904,
				"element": "H" 
			},
			{
				"x": -0.6366820311,
				"y": -2.3299881298,
				"z": 2.0358887178,
				"element": "H" 
			},
			{
				"x": 0.2245734074,
				"y": -4.6286023527,
				"z": 1.6899634632,
				"element": "H" 
			},
			{
				"x": 1.3134714774,
				"y": -5.2268864069,
				"z": -0.4727237949,
				"element": "H" 
			},
			{
				"x": 1.4807624716,
				"y": -3.5164465119,
				"z": -2.286697078,
				"element": "H" 
			}
		],
		 "valence_orbital": [ 
			{
				"type": "occ",
				"energy": -0.26239,
				"method": "rhf"
			},
			{
				"type": "occ",
				"energy": -0.25847,
				"method": "rhf"
			},
			{
				"type": "occ",
				"energy": -0.2524,
				"method": "rhf"
			},
			{
				"type": "occ",
				"energy": -0.247,
				"method": "rhf"
			},
			{
				"type": "occ",
				"energy": -0.21601,
				"method": "rhf"
			},
			{
				"type": "unocc",
				"energy": -0.02251,
				"method": "rhf"
			},
			{
				"type": "unocc",
				"energy": -0.01463,
				"method": "rhf"
			},
			{
				"type": "unocc",
				"energy": -0.00207,
				"method": "rhf"
			},
			{
				"type": "unocc",
				"energy": 0.01233,
				"method": "rhf"
			},
			{
				"type": "unocc",
				"energy": 0.01861,
				"method": "rhf"
			}
		],
		"cosmo_sigma_profile": { 
			"-0.025": 0.0,
			"-0.024": 0.0,
			"-0.023": 0.0,
			"-0.022": 0.0,
			"-0.021": 0.352602617915,
			"-0.02": 1.14559711576,
			"-0.019": 1.08495905817,
			"-0.018": 0.442025845816,
			"-0.017": 0.946580848248,
			"-0.016": 0.501934548834,
			"-0.015": 0.825746999421,
			"-0.014": 0.792681689323,
			"-0.013": 0.642404745984,
			"-0.012": 0.851183945553,
			"-0.011": 0.579842823183,
			"-0.01": 0.815948733285,
			"-0.009": 0.761367154828,
			"-0.008": 3.86321596164,
			"-0.007": 8.512795965,
			"-0.006": 18.0723968652,
			"-0.005": 19.0596604742,
			"-0.004": 21.7231379504,
			"-0.003": 17.1156410317,
			"-0.002": 16.6430505436,
			"-0.001": 16.4260162352,
			"0.0": 14.3675691145,
			"0.001": 18.1981460235,
			"0.002": 21.7467780782,
			"0.003": 23.4122295092,
			"0.004": 22.9681110752,
			"0.005": 16.297708937,
			"0.006": 5.86408397161,
			"0.007": 5.81128906507,
			"0.008": 4.788181322,
			"0.009": 2.15870264306,
			"0.01": 2.88834577449,
			"0.011": 3.2771201802,
			"0.012": 3.19014565654,
			"0.013": 2.9249909679,
			"0.014": 2.21843160609,
			"0.015": 1.05696866518,
			"0.016": 0.0,
			"0.017": 0.0,
			"0.018": 0.0,
			"0.019": 0.0,
			"0.02": 0.0,
			"0.021": 0.0,
			"0.022": 0.0,
			"0.023": 0.0,
			"0.024": 0.0,
			"0.025": 0.0
		}
	}
}
