{
	 "smiles": "FC1=CC=C(C=C1)C1=CSC2=C1C(Cl)=NC(CC1=CC=C(Cl)C=C1)=N2", 
	 "Tm": 422.15, 
	 "num_atms": 36, 
	 "gaussian": { 
		 "optdone": 1, 
		 "sigma_profile": "yes", 
		 "theory": "DFT", 
		 "functional": "B3LYP", 
		 "basiset": "6-31G**", 
		 "properties": { 
			 "R2extent": 14614.6702, 
			 "electric_dipole_moment_norm": 3.12075915924, 
			 "electric_quadrupole_moment_norm": 9.60990391992, 
			 "total_energy": -2258.56966179, 
			 "HOMO_LUMO_gap": 0.17205, 
			 "cosmo_polarized_energy": -10.49, 
			 "cosmo_cavitation_energy": 47.46, 
			 "cosmo_dispersion_energy": -33.44, 
			 "cosmo_repulsion_energy": 2.48, 
			 "cosmo_total_nonelectrostatic_energy": 16.49, 
			 "SMD_solvation_energy": 4.42 
		},
		"coords": [
			{
				"x": 0.6471978181,
				"y": 3.3341357013,
				"z": -6.4670038413,
				"element": "F" 
			},
			{
				"x": 0.7363434819,
				"y": 3.096630255,
				"z": -5.1429678533,
				"element": "C" 
			},
			{
				"x": 0.5861606301,
				"y": 4.1548132017,
				"z": -4.2553890526,
				"element": "C" 
			},
			{
				"x": 0.6788952042,
				"y": 3.8978305223,
				"z": -2.8876441048,
				"element": "C" 
			},
			{
				"x": 0.9163066764,
				"y": 2.6003711065,
				"z": -2.4090830855,
				"element": "C" 
			},
			{
				"x": 1.0680813033,
				"y": 1.557423886,
				"z": -3.3373601902,
				"element": "C" 
			},
			{
				"x": 0.9776620782,
				"y": 1.7979367293,
				"z": -4.7057444406,
				"element": "C" 
			},
			{
				"x": 1.0845982451,
				"y": 2.365077584,
				"z": -0.9513766547,
				"element": "C" 
			},
			{
				"x": 2.0667382432,
				"y": 2.9995369464,
				"z": -0.243198935,
				"element": "C" 
			},
			{
				"x": 2.1604214978,
				"y": 2.5701963428,
				"z": 1.4449793837,
				"element": "S" 
			},
			{
				"x": 0.8155238504,
				"y": 1.4683894665,
				"z": 1.244628409,
				"element": "C" 
			},
			{
				"x": 0.3271084157,
				"y": 1.4738204707,
				"z": -0.0902049825,
				"element": "C" 
			},
			{
				"x": -0.8142789479,
				"y": 0.6590881495,
				"z": -0.2418461781,
				"element": "C" 
			},
			{
				"x": -1.6926438458,
				"y": 0.5901855309,
				"z": -1.7597443542,
				"element": "Cl" 
			},
			{
				"x": -1.3132219869,
				"y": -0.0679450364,
				"z": 0.7337603911,
				"element": "N" 
			},
			{
				"x": -0.7199582839,
				"y": -0.0148886847,
				"z": 1.9459534639,
				"element": "C" 
			},
			{
				"x": -1.288535487,
				"y": -0.9123404188,
				"z": 3.023035177,
				"element": "C" 
			},
			{
				"x": -0.7881076544,
				"y": -2.3423749526,
				"z": 2.8879241192,
				"element": "C" 
			},
			{
				"x": 0.2895595915,
				"y": -2.7972879894,
				"z": 3.6562742515,
				"element": "C" 
			},
			{
				"x": 0.7685222038,
				"y": -4.1014160473,
				"z": 3.5262249835,
				"element": "C" 
			},
			{
				"x": 0.1601505799,
				"y": -4.9572841711,
				"z": 2.610086508,
				"element": "C" 
			},
			{
				"x": 0.7519970015,
				"y": -6.6056266167,
				"z": 2.4397209969,
				"element": "Cl" 
			},
			{
				"x": -0.9119590936,
				"y": -4.528953112,
				"z": 1.8277427085,
				"element": "C" 
			},
			{
				"x": -1.3781643984,
				"y": -3.2228259553,
				"z": 1.97180636,
				"element": "C" 
			},
			{
				"x": 0.3268122801,
				"y": 0.7503996043,
				"z": 2.2536809486,
				"element": "N" 
			},
			{
				"x": 0.3955935613,
				"y": 5.152462231,
				"z": -4.6355505922,
				"element": "H" 
			},
			{
				"x": 0.5524768667,
				"y": 4.7113996184,
				"z": -2.1799510229,
				"element": "H" 
			},
			{
				"x": 1.2655283945,
				"y": 0.5498541361,
				"z": -2.9859335627,
				"element": "H" 
			},
			{
				"x": 1.0956322047,
				"y": 1.0010129658,
				"z": -5.4317835495,
				"element": "H" 
			},
			{
				"x": 2.7870087008,
				"y": 3.6965574147,
				"z": -0.6501226696,
				"element": "H" 
			},
			{
				"x": -2.3797234568,
				"y": -0.8924305462,
				"z": 2.9457084063,
				"element": "H" 
			},
			{
				"x": -0.9995121644,
				"y": -0.5037114885,
				"z": 3.9938212839,
				"element": "H" 
			},
			{
				"x": 0.7633019735,
				"y": -2.1262608278,
				"z": 4.367566291,
				"element": "H" 
			},
			{
				"x": 1.6007539538,
				"y": -4.4497192327,
				"z": 4.1279261685,
				"element": "H" 
			},
			{
				"x": -1.3744974655,
				"y": -5.2080257422,
				"z": 1.1199714866,
				"element": "H" 
			},
			{
				"x": -2.2064719715,
				"y": -2.8806310413,
				"z": 1.3584937326,
				"element": "H" 
			}
		],
		 "valence_orbital": [ 
			{
				"type": "occ",
				"energy": -0.26886,
				"method": "rhf"
			},
			{
				"type": "occ",
				"energy": -0.26209,
				"method": "rhf"
			},
			{
				"type": "occ",
				"energy": -0.26148,
				"method": "rhf"
			},
			{
				"type": "occ",
				"energy": -0.24129,
				"method": "rhf"
			},
			{
				"type": "occ",
				"energy": -0.23573,
				"method": "rhf"
			},
			{
				"type": "unocc",
				"energy": -0.06368,
				"method": "rhf"
			},
			{
				"type": "unocc",
				"energy": -0.04782,
				"method": "rhf"
			},
			{
				"type": "unocc",
				"energy": -0.02418,
				"method": "rhf"
			},
			{
				"type": "unocc",
				"energy": -0.02015,
				"method": "rhf"
			},
			{
				"type": "unocc",
				"energy": -0.01231,
				"method": "rhf"
			}
		],
		"cosmo_sigma_profile": { 
			"-0.025": 0.0,
			"-0.024": 0.0,
			"-0.023": 0.0,
			"-0.022": 0.0,
			"-0.021": 0.0,
			"-0.02": 0.0,
			"-0.019": 0.0,
			"-0.018": 0.0,
			"-0.017": 0.0,
			"-0.016": 0.0,
			"-0.015": 0.0,
			"-0.014": 0.0,
			"-0.013": 0.0,
			"-0.012": 0.0,
			"-0.011": 0.0,
			"-0.01": 0.785773326188,
			"-0.009": 2.31250584764,
			"-0.008": 2.35644842362,
			"-0.007": 9.7751964314,
			"-0.006": 19.953309849,
			"-0.005": 23.0816855616,
			"-0.004": 22.7092030692,
			"-0.003": 22.841381032,
			"-0.002": 30.1881866197,
			"-0.001": 29.6000816451,
			"0.0": 33.247843288,
			"0.001": 39.4611714551,
			"0.002": 40.1150937557,
			"0.003": 41.5294450138,
			"0.004": 42.1630265775,
			"0.005": 16.6679631768,
			"0.006": 2.70054257584,
			"0.007": 2.1985317399,
			"0.008": 2.51804492083,
			"0.009": 1.98673877345,
			"0.01": 1.17351728222,
			"0.011": 1.21916244158,
			"0.012": 0.711012303367,
			"0.013": 0.0804561595462,
			"0.014": 0.0,
			"0.015": 0.0,
			"0.016": 0.0,
			"0.017": 0.0,
			"0.018": 0.0,
			"0.019": 0.0,
			"0.02": 0.0,
			"0.021": 0.0,
			"0.022": 0.0,
			"0.023": 0.0,
			"0.024": 0.0,
			"0.025": 0.0
		}
	}
}
