{
	 "smiles": "CC1=C(N)C=CC(OCCO)=C1", 
	 "Tm": 336.15, 
	 "num_atms": 25, 
	 "gaussian": { 
		 "optdone": 1, 
		 "sigma_profile": "yes", 
		 "theory": "DFT", 
		 "functional": "B3LYP", 
		 "basiset": "6-31G**", 
		 "properties": { 
			 "R2extent": 3435.1902, 
			 "electric_dipole_moment_norm": 2.96082104998, 
			 "electric_quadrupole_moment_norm": 8.28095545091, 
			 "total_energy": -555.974077308, 
			 "HOMO_LUMO_gap": 0.18927, 
			 "cosmo_polarized_energy": -13.48, 
			 "cosmo_cavitation_energy": 27.87, 
			 "cosmo_dispersion_energy": -20.65, 
			 "cosmo_repulsion_energy": 1.68, 
			 "cosmo_total_nonelectrostatic_energy": 8.89, 
			 "SMD_solvation_energy": 4.94 
		},
		"coords": [
			{
				"x": -1.6671018018,
				"y": 1.4840851748,
				"z": -2.8151741979,
				"element": "C" 
			},
			{
				"x": -1.579646011,
				"y": 1.0405865746,
				"z": -1.3759242202,
				"element": "C" 
			},
			{
				"x": -2.4736497299,
				"y": 0.0628061498,
				"z": -0.8794728595,
				"element": "C" 
			},
			{
				"x": -3.4794796339,
				"y": -0.4632616382,
				"z": -1.7128181612,
				"element": "N" 
			},
			{
				"x": -2.3801916572,
				"y": -0.3155252039,
				"z": 0.4627636205,
				"element": "C" 
			},
			{
				"x": -1.4318333189,
				"y": 0.2481745678,
				"z": 1.321259179,
				"element": "C" 
			},
			{
				"x": -0.5465207612,
				"y": 1.2099137077,
				"z": 0.8310612567,
				"element": "C" 
			},
			{
				"x": 0.4263619695,
				"y": 1.8526087954,
				"z": 1.5625657304,
				"element": "O" 
			},
			{
				"x": 0.5834061575,
				"y": 1.5467298215,
				"z": 2.9407360381,
				"element": "C" 
			},
			{
				"x": 1.4401167418,
				"y": 0.2996836483,
				"z": 3.1521630796,
				"element": "C" 
			},
			{
				"x": 1.5538394741,
				"y": 0.123069226,
				"z": 4.5578260387,
				"element": "O" 
			},
			{
				"x": -0.6331858528,
				"y": 1.5899346721,
				"z": -0.5143594203,
				"element": "C" 
			},
			{
				"x": -0.9658188996,
				"y": 2.2962322624,
				"z": -3.0214725074,
				"element": "H" 
			},
			{
				"x": -1.4318575862,
				"y": 0.6671465661,
				"z": -3.5127831792,
				"element": "H" 
			},
			{
				"x": -2.6771223469,
				"y": 1.8329771051,
				"z": -3.062247726,
				"element": "H" 
			},
			{
				"x": -3.1986608798,
				"y": -0.5867191335,
				"z": -2.6773714233,
				"element": "H" 
			},
			{
				"x": -3.8923082935,
				"y": -1.3156086864,
				"z": -1.3560035127,
				"element": "H" 
			},
			{
				"x": -3.0634159423,
				"y": -1.0668816994,
				"z": 0.8526862435,
				"element": "H" 
			},
			{
				"x": -1.3985736666,
				"y": -0.0802352562,
				"z": 2.3534923737,
				"element": "H" 
			},
			{
				"x": 1.0902937579,
				"y": 2.4083707432,
				"z": 3.3837653189,
				"element": "H" 
			},
			{
				"x": -0.3835396971,
				"y": 1.4338221525,
				"z": 3.4458002256,
				"element": "H" 
			},
			{
				"x": 2.4177075109,
				"y": 0.4589339386,
				"z": 2.6725708163,
				"element": "H" 
			},
			{
				"x": 0.9693687319,
				"y": -0.5677498296,
				"z": 2.6662809536,
				"element": "H" 
			},
			{
				"x": 2.1240966208,
				"y": -0.6372602463,
				"z": 4.7216613782,
				"element": "H" 
			},
			{
				"x": 0.0599151142,
				"y": 2.3435665875,
				"z": -0.8768050449,
				"element": "H" 
			}
		],
		 "valence_orbital": [ 
			{
				"type": "occ",
				"energy": -0.31136,
				"method": "rhf"
			},
			{
				"type": "occ",
				"energy": -0.27319,
				"method": "rhf"
			},
			{
				"type": "occ",
				"energy": -0.26678,
				"method": "rhf"
			},
			{
				"type": "occ",
				"energy": -0.2346,
				"method": "rhf"
			},
			{
				"type": "occ",
				"energy": -0.18032,
				"method": "rhf"
			},
			{
				"type": "unocc",
				"energy": 0.00895,
				"method": "rhf"
			},
			{
				"type": "unocc",
				"energy": 0.03455,
				"method": "rhf"
			},
			{
				"type": "unocc",
				"energy": 0.06726,
				"method": "rhf"
			},
			{
				"type": "unocc",
				"energy": 0.08025,
				"method": "rhf"
			},
			{
				"type": "unocc",
				"energy": 0.10323,
				"method": "rhf"
			}
		],
		"cosmo_sigma_profile": { 
			"-0.025": 0.0,
			"-0.024": 0.0,
			"-0.023": 0.0,
			"-0.022": 0.0,
			"-0.021": 0.0,
			"-0.02": 0.0,
			"-0.019": 0.0,
			"-0.018": 0.0,
			"-0.017": 0.00767011108449,
			"-0.016": 0.910337640722,
			"-0.015": 1.11174467503,
			"-0.014": 0.630653315194,
			"-0.013": 1.20905143264,
			"-0.012": 1.2505472253,
			"-0.011": 2.95172486349,
			"-0.01": 3.47223181631,
			"-0.009": 3.85491722446,
			"-0.008": 4.47514144121,
			"-0.007": 3.59401722123,
			"-0.006": 7.29923074227,
			"-0.005": 11.5197210032,
			"-0.004": 18.2781358011,
			"-0.003": 20.100912059,
			"-0.002": 17.0180175816,
			"-0.001": 14.129421504,
			"0.0": 14.4403277501,
			"0.001": 12.3506501251,
			"0.002": 7.8203981008,
			"0.003": 8.4500530209,
			"0.004": 9.88820699521,
			"0.005": 11.3421150368,
			"0.006": 11.998438352,
			"0.007": 9.11602084263,
			"0.008": 3.71501745383,
			"0.009": 3.72627229847,
			"0.01": 3.70826505623,
			"0.011": 2.45219918829,
			"0.012": 2.28760672957,
			"0.013": 2.96657180001,
			"0.014": 1.11648776631,
			"0.015": 0.837767921686,
			"0.016": 0.328896505268,
			"0.017": 0.0,
			"0.018": 0.0,
			"0.019": 0.0,
			"0.02": 0.0,
			"0.021": 0.0,
			"0.022": 0.0,
			"0.023": 0.0,
			"0.024": 0.0,
			"0.025": 0.0
		}
	}
}
