{
	 "smiles": "OC1=NC=C(I)C=C1", 
	 "Tm": 463.15, 
	 "num_atms": 12, 
	 "gaussian": { 
		 "optdone": 1, 
		 "sigma_profile": "no", 
		 "theory": "DFT", 
		 "functional": "B3LYP", 
		 "basiset": "6-31G**", 
		 "properties": { 
			 "R2extent": 1295.0757, 
			 "electric_dipole_moment_norm": 0.83228760654, 
			 "electric_quadrupole_moment_norm": 4.99711294649, 
			 "total_energy": -334.302598745, 
			 "HOMO_LUMO_gap": 0.1917, 
			 "cosmo_polarized_energy": -99522.53, 
			 "cosmo_cavitation_energy": 19.67, 
			 "cosmo_dispersion_energy": -16.36, 
			 "cosmo_repulsion_energy": 1.32, 
			 "cosmo_total_nonelectrostatic_energy": 4.63, 
			 "SMD_solvation_energy": 1.72 
		},
		"coords": [
			{
				"x": 2.0765333038,
				"y": -1.1368365418,
				"z": 1.0873255182,
				"element": "O" 
			},
			{
				"x": 1.4004085063,
				"y": -0.0831262155,
				"z": 0.5832067381,
				"element": "C" 
			},
			{
				"x": 1.9947565814,
				"y": 1.1066738156,
				"z": 0.6263164851,
				"element": "N" 
			},
			{
				"x": 1.3372632476,
				"y": 2.1631378185,
				"z": 0.1300496503,
				"element": "C" 
			},
			{
				"x": 0.063695182,
				"y": 2.058457302,
				"z": -0.4245438279,
				"element": "C" 
			},
			{
				"x": -0.9088329287,
				"y": 3.7732627386,
				"z": -1.1872987366,
				"element": "I" 
			},
			{
				"x": -0.5545845824,
				"y": 0.8019119271,
				"z": -0.4658067805,
				"element": "C" 
			},
			{
				"x": 0.1212506458,
				"y": -0.2958879913,
				"z": 0.0465525794,
				"element": "C" 
			},
			{
				"x": 2.9249163144,
				"y": -0.7874968607,
				"z": 1.4038349061,
				"element": "H" 
			},
			{
				"x": 1.849816515,
				"y": 3.1198911649,
				"z": 0.1803296447,
				"element": "H" 
			},
			{
				"x": -1.5455652842,
				"y": 0.68460249,
				"z": -0.8905520398,
				"element": "H" 
			},
			{
				"x": -0.3097575008,
				"y": -1.2902896474,
				"z": 0.0401858628,
				"element": "H" 
			}
		],
		 "valence_orbital": [ 
			{
				"type": "occ",
				"energy": -0.30769,
				"method": "rhf"
			},
			{
				"type": "occ",
				"energy": -0.28693,
				"method": "rhf"
			},
			{
				"type": "occ",
				"energy": -0.28497,
				"method": "rhf"
			},
			{
				"type": "occ",
				"energy": -0.27237,
				"method": "rhf"
			},
			{
				"type": "occ",
				"energy": -0.23486,
				"method": "rhf"
			},
			{
				"type": "unocc",
				"energy": -0.04316,
				"method": "rhf"
			},
			{
				"type": "unocc",
				"energy": -0.03782,
				"method": "rhf"
			},
			{
				"type": "unocc",
				"energy": -0.01517,
				"method": "rhf"
			},
			{
				"type": "unocc",
				"energy": 0.04047,
				"method": "rhf"
			},
			{
				"type": "unocc",
				"energy": 0.04796,
				"method": "rhf"
			}
		],
		"cosmo_sigma_profile": { 
			"0.0": 0.0,
			"0.0": 0.0,
			"0.0": 0.0,
			"0.0": 0.0,
			"0.0": 0.0,
			"0.0": 0.0,
			"0.0": 0.0,
			"0.0": 0.0,
			"0.0": 0.0,
			"0.0": 0.0,
			"0.0": 0.0,
			"0.0": 0.0,
			"0.0": 0.0,
			"0.0": 0.0,
			"0.0": 0.0,
			"0.0": 0.0,
			"0.0": 0.0,
			"0.0": 0.0,
			"0.0": 0.0,
			"0.0": 0.0,
			"0.0": 0.0,
			"0.0": 0.0,
			"0.0": 0.0,
			"0.0": 0.0,
			"0.0": 0.0,
			"0.0": 0.0,
			"0.0": 0.0,
			"0.0": 0.0,
			"0.0": 0.0,
			"0.0": 0.0,
			"0.0": 0.0,
			"0.0": 0.0,
			"0.0": 0.0,
			"0.0": 0.0,
			"0.0": 0.0,
			"0.0": 0.0,
			"0.0": 0.0,
			"0.0": 0.0,
			"0.0": 0.0,
			"0.0": 0.0,
			"0.0": 0.0,
			"0.0": 0.0,
			"0.0": 0.0,
			"0.0": 0.0,
			"0.0": 0.0,
			"0.0": 0.0,
			"0.0": 0.0,
			"0.0": 0.0,
			"0.0": 0.0,
			"0.0": 0.0,
			"0.0": 0.0
		}
	}
}
