{
	 "smiles": "CCNC(=S)NCC", 
	 "Tm": 350.65, 
	 "num_atms": 20, 
	 "gaussian": { 
		 "optdone": 1, 
		 "sigma_profile": "yes", 
		 "theory": "DFT", 
		 "functional": "B3LYP", 
		 "basiset": "6-31G**", 
		 "properties": { 
			 "R2extent": 1734.0302, 
			 "electric_dipole_moment_norm": 5.04115558776, 
			 "electric_quadrupole_moment_norm": 8.58938292079, 
			 "total_energy": -705.478625888, 
			 "HOMO_LUMO_gap": 0.20548, 
			 "cosmo_polarized_energy": -17.04, 
			 "cosmo_cavitation_energy": 24.03, 
			 "cosmo_dispersion_energy": -17.9, 
			 "cosmo_repulsion_energy": 1.48, 
			 "cosmo_total_nonelectrostatic_energy": 7.6, 
			 "SMD_solvation_energy": 2.53 
		},
		"coords": [
			{
				"x": -0.9686973575,
				"y": 1.3584372569,
				"z": 2.9351153439,
				"element": "C" 
			},
			{
				"x": 0.1359769975,
				"y": 0.6303240988,
				"z": 2.1651478775,
				"element": "C" 
			},
			{
				"x": 0.2834897347,
				"y": 1.0892131067,
				"z": 0.786797745,
				"element": "N" 
			},
			{
				"x": -0.4257155767,
				"y": 0.6067784552,
				"z": -0.2762629914,
				"element": "C" 
			},
			{
				"x": -1.4799232014,
				"y": -0.7065218236,
				"z": -0.1649685494,
				"element": "S" 
			},
			{
				"x": -0.2006224471,
				"y": 1.2893705338,
				"z": -1.4378331686,
				"element": "N" 
			},
			{
				"x": -0.7273011767,
				"y": 0.907421062,
				"z": -2.7450890433,
				"element": "C" 
			},
			{
				"x": 0.1607022004,
				"y": -0.091033184,
				"z": -3.4919814933,
				"element": "C" 
			},
			{
				"x": -1.0208238164,
				"y": 0.9875247898,
				"z": 3.9642917073,
				"element": "H" 
			},
			{
				"x": -1.9367586397,
				"y": 1.1874238471,
				"z": 2.457490398,
				"element": "H" 
			},
			{
				"x": -0.7839116972,
				"y": 2.4379515178,
				"z": 2.9754799152,
				"element": "H" 
			},
			{
				"x": 1.1056169354,
				"y": 0.7680574102,
				"z": 2.6574904916,
				"element": "H" 
			},
			{
				"x": -0.073545126,
				"y": -0.4400820176,
				"z": 2.1245420103,
				"element": "H" 
			},
			{
				"x": 0.7278939801,
				"y": 1.9913171209,
				"z": 0.6711211343,
				"element": "H" 
			},
			{
				"x": 0.5878685971,
				"y": 1.9239965052,
				"z": -1.4521938914,
				"element": "H" 
			},
			{
				"x": -0.847604656,
				"y": 1.8284826506,
				"z": -3.3271057465,
				"element": "H" 
			},
			{
				"x": -1.7181340791,
				"y": 0.4812553293,
				"z": -2.5779464967,
				"element": "H" 
			},
			{
				"x": 1.1658816509,
				"y": 0.3130365711,
				"z": -3.6577243682,
				"element": "H" 
			},
			{
				"x": -0.2727795515,
				"y": -0.3258159535,
				"z": -4.4699721827,
				"element": "H" 
			},
			{
				"x": 0.2470872291,
				"y": -1.0191372766,
				"z": -2.9212986916,
				"element": "H" 
			}
		],
		 "valence_orbital": [ 
			{
				"type": "occ",
				"energy": -0.34997,
				"method": "rhf"
			},
			{
				"type": "occ",
				"energy": -0.34471,
				"method": "rhf"
			},
			{
				"type": "occ",
				"energy": -0.24823,
				"method": "rhf"
			},
			{
				"type": "occ",
				"energy": -0.20825,
				"method": "rhf"
			},
			{
				"type": "occ",
				"energy": -0.19655,
				"method": "rhf"
			},
			{
				"type": "unocc",
				"energy": 0.00893,
				"method": "rhf"
			},
			{
				"type": "unocc",
				"energy": 0.05092,
				"method": "rhf"
			},
			{
				"type": "unocc",
				"energy": 0.09778,
				"method": "rhf"
			},
			{
				"type": "unocc",
				"energy": 0.10815,
				"method": "rhf"
			},
			{
				"type": "unocc",
				"energy": 0.1197,
				"method": "rhf"
			}
		],
		"cosmo_sigma_profile": { 
			"-0.025": 0.0,
			"-0.024": 0.0,
			"-0.023": 0.0,
			"-0.022": 0.0,
			"-0.021": 0.0,
			"-0.02": 0.0,
			"-0.019": 0.0,
			"-0.018": 0.0682859911924,
			"-0.017": 0.964566628418,
			"-0.016": 1.40403073776,
			"-0.015": 2.34471543492,
			"-0.014": 1.88358977048,
			"-0.013": 2.10672576145,
			"-0.012": 1.27143278932,
			"-0.011": 2.10329958015,
			"-0.01": 1.8616294631,
			"-0.009": 1.89800883787,
			"-0.008": 1.80373396596,
			"-0.007": 1.49198535013,
			"-0.006": 2.26251854469,
			"-0.005": 7.073565004,
			"-0.004": 10.2967952422,
			"-0.003": 16.1480901603,
			"-0.002": 19.8906458742,
			"-0.001": 19.5380392913,
			"0.0": 16.3774680178,
			"0.001": 17.5405991669,
			"0.002": 8.13137966099,
			"0.003": 5.29614677233,
			"0.004": 5.85976147616,
			"0.005": 7.55368689127,
			"0.006": 4.49155070029,
			"0.007": 4.79461415359,
			"0.008": 4.37902976678,
			"0.009": 4.67551767535,
			"0.01": 5.78763706996,
			"0.011": 7.50582640221,
			"0.012": 2.95898248991,
			"0.013": 0.0,
			"0.014": 0.0,
			"0.015": 0.0,
			"0.016": 0.0,
			"0.017": 0.0,
			"0.018": 0.0,
			"0.019": 0.0,
			"0.02": 0.0,
			"0.021": 0.0,
			"0.022": 0.0,
			"0.023": 0.0,
			"0.024": 0.0,
			"0.025": 0.0
		}
	}
}
