{
	 "smiles": "CCCCOC(=O)C1=CC=C(N)C=C1", 
	 "Tm": 330.95, 
	 "num_atms": 29, 
	 "gaussian": { 
		 "optdone": 1, 
		 "sigma_profile": "yes", 
		 "theory": "DFT", 
		 "functional": "B3LYP", 
		 "basiset": "6-31G**", 
		 "properties": { 
			 "R2extent": 5205.4427, 
			 "electric_dipole_moment_norm": 3.50958063592, 
			 "electric_quadrupole_moment_norm": 21.1462866875, 
			 "total_energy": -633.443441002, 
			 "HOMO_LUMO_gap": 0.18502, 
			 "cosmo_polarized_energy": -13.15, 
			 "cosmo_cavitation_energy": 32.65, 
			 "cosmo_dispersion_energy": -23.65, 
			 "cosmo_repulsion_energy": 1.9, 
			 "cosmo_total_nonelectrostatic_energy": 10.9, 
			 "SMD_solvation_energy": 6.24 
		},
		"coords": [
			{
				"x": 4.5859755479,
				"y": -1.8605048994,
				"z": 1.8173625363,
				"element": "C" 
			},
			{
				"x": 3.4337061992,
				"y": -2.1596070417,
				"z": 2.7850140005,
				"element": "C" 
			},
			{
				"x": 2.0353096929,
				"y": -2.1134299297,
				"z": 2.1472157996,
				"element": "C" 
			},
			{
				"x": 1.6320686607,
				"y": -0.723650794,
				"z": 1.6744081607,
				"element": "C" 
			},
			{
				"x": 0.2857114351,
				"y": -0.8139670139,
				"z": 1.1667254496,
				"element": "O" 
			},
			{
				"x": -0.2319693613,
				"y": 0.3351623228,
				"z": 0.6633683529,
				"element": "C" 
			},
			{
				"x": 0.390985118,
				"y": 1.3820881958,
				"z": 0.6368109574,
				"element": "O" 
			},
			{
				"x": -1.6148186147,
				"y": 0.1638130506,
				"z": 0.1623911844,
				"element": "C" 
			},
			{
				"x": -2.2979378051,
				"y": -1.0615744267,
				"z": 0.2068381322,
				"element": "C" 
			},
			{
				"x": -3.593018072,
				"y": -1.1693372136,
				"z": -0.2800584017,
				"element": "C" 
			},
			{
				"x": -4.2484639524,
				"y": -0.0489748625,
				"z": -0.828059506,
				"element": "C" 
			},
			{
				"x": -5.5598949736,
				"y": -0.1421285324,
				"z": -1.2685767789,
				"element": "N" 
			},
			{
				"x": -3.5614743953,
				"y": 1.1809031821,
				"z": -0.8712985271,
				"element": "C" 
			},
			{
				"x": -2.2679080234,
				"y": 1.2799373248,
				"z": -0.3831093107,
				"element": "C" 
			},
			{
				"x": 4.5394856413,
				"y": -0.8398369643,
				"z": 1.4240852469,
				"element": "H" 
			},
			{
				"x": 4.570001376,
				"y": -2.5458642537,
				"z": 0.9619978418,
				"element": "H" 
			},
			{
				"x": 5.5544027939,
				"y": -1.9739529136,
				"z": 2.3152171886,
				"element": "H" 
			},
			{
				"x": 3.4713845579,
				"y": -1.4575078481,
				"z": 3.6290330069,
				"element": "H" 
			},
			{
				"x": 3.5800952208,
				"y": -3.1570275027,
				"z": 3.2168597903,
				"element": "H" 
			},
			{
				"x": 1.290106949,
				"y": -2.4587666535,
				"z": 2.8738557695,
				"element": "H" 
			},
			{
				"x": 1.9897249675,
				"y": -2.8067633584,
				"z": 1.297480367,
				"element": "H" 
			},
			{
				"x": 2.2835026739,
				"y": -0.3436765538,
				"z": 0.8818169075,
				"element": "H" 
			},
			{
				"x": 1.6579204048,
				"y": 0.0041621051,
				"z": 2.4938232387,
				"element": "H" 
			},
			{
				"x": -1.8035814872,
				"y": -1.9313905123,
				"z": 0.6244470543,
				"element": "H" 
			},
			{
				"x": -4.112453578,
				"y": -2.123470681,
				"z": -0.2369778858,
				"element": "H" 
			},
			{
				"x": -5.8686109597,
				"y": 0.5692734364,
				"z": -1.9150699581,
				"element": "H" 
			},
			{
				"x": -5.8906024799,
				"y": -1.0660579984,
				"z": -1.5058168908,
				"element": "H" 
			},
			{
				"x": -4.0558632666,
				"y": 2.0548948161,
				"z": -1.2880674042,
				"element": "H" 
			},
			{
				"x": -1.7342842699,
				"y": 2.2240555198,
				"z": -0.416316322,
				"element": "H" 
			}
		],
		 "valence_orbital": [ 
			{
				"type": "occ",
				"energy": -0.30841,
				"method": "rhf"
			},
			{
				"type": "occ",
				"energy": -0.28555,
				"method": "rhf"
			},
			{
				"type": "occ",
				"energy": -0.25737,
				"method": "rhf"
			},
			{
				"type": "occ",
				"energy": -0.25167,
				"method": "rhf"
			},
			{
				"type": "occ",
				"energy": -0.20915,
				"method": "rhf"
			},
			{
				"type": "unocc",
				"energy": -0.02413,
				"method": "rhf"
			},
			{
				"type": "unocc",
				"energy": 0.00045,
				"method": "rhf"
			},
			{
				"type": "unocc",
				"energy": 0.06811,
				"method": "rhf"
			},
			{
				"type": "unocc",
				"energy": 0.08248,
				"method": "rhf"
			},
			{
				"type": "unocc",
				"energy": 0.08695,
				"method": "rhf"
			}
		],
		"cosmo_sigma_profile": { 
			"-0.025": 0.0,
			"-0.024": 0.0,
			"-0.023": 0.0,
			"-0.022": 0.0,
			"-0.021": 0.0,
			"-0.02": 0.0,
			"-0.019": 0.0,
			"-0.018": 0.0,
			"-0.017": 0.0,
			"-0.016": 0.0,
			"-0.015": 0.0,
			"-0.014": 0.0826512550604,
			"-0.013": 2.20843283616,
			"-0.012": 2.73875180926,
			"-0.011": 2.73130911061,
			"-0.01": 3.16422007355,
			"-0.009": 3.10908087364,
			"-0.008": 2.96546324396,
			"-0.007": 3.97541618925,
			"-0.006": 4.63626691585,
			"-0.005": 7.80071468017,
			"-0.004": 14.1659787616,
			"-0.003": 22.3553093425,
			"-0.002": 27.4314993067,
			"-0.001": 27.3037157764,
			"0.0": 24.6460043576,
			"0.001": 21.8047665862,
			"0.002": 15.9607922758,
			"0.003": 12.7448043344,
			"0.004": 14.4745175604,
			"0.005": 16.3832247742,
			"0.006": 5.69095202076,
			"0.007": 2.59861166863,
			"0.008": 1.89334727129,
			"0.009": 2.27566943115,
			"0.01": 2.60602802154,
			"0.011": 2.35580166721,
			"0.012": 4.03113392129,
			"0.013": 4.2112166992,
			"0.014": 0.096433604727,
			"0.015": 0.0,
			"0.016": 0.0,
			"0.017": 0.0,
			"0.018": 0.0,
			"0.019": 0.0,
			"0.02": 0.0,
			"0.021": 0.0,
			"0.022": 0.0,
			"0.023": 0.0,
			"0.024": 0.0,
			"0.025": 0.0
		}
	}
}
