{
	 "smiles": "CC1=C(CS(C)(=O)=O)C=C(S1)C(O)=O", 
	 "Tm": 507.15, 
	 "num_atms": 24, 
	 "gaussian": { 
		 "optdone": 1, 
		 "sigma_profile": "yes", 
		 "theory": "DFT", 
		 "functional": "B3LYP", 
		 "basiset": "6-31G**", 
		 "properties": { 
			 "R2extent": 4484.6504, 
			 "electric_dipole_moment_norm": 5.14848083419, 
			 "electric_quadrupole_moment_norm": 30.4146475173, 
			 "total_energy": -1408.09060465, 
			 "HOMO_LUMO_gap": 0.18835, 
			 "cosmo_polarized_energy": -26.57, 
			 "cosmo_cavitation_energy": 31.18, 
			 "cosmo_dispersion_energy": -22.7, 
			 "cosmo_repulsion_energy": 1.71, 
			 "cosmo_total_nonelectrostatic_energy": 10.18, 
			 "SMD_solvation_energy": 5.96 
		},
		"coords": [
			{
				"x": -0.1833934754,
				"y": -0.5288435741,
				"z": 2.8673040845,
				"element": "C" 
			},
			{
				"x": -0.3835085889,
				"y": 0.3382574793,
				"z": 1.6563334091,
				"element": "C" 
			},
			{
				"x": 0.1711365054,
				"y": 0.2048386794,
				"z": 0.395143607,
				"element": "C" 
			},
			{
				"x": 1.1379619697,
				"y": -0.8716170857,
				"z": 0.0042140397,
				"element": "C" 
			},
			{
				"x": 2.7638235864,
				"y": -0.2646688042,
				"z": -0.5990119406,
				"element": "S" 
			},
			{
				"x": 3.4441532742,
				"y": 0.6636695505,
				"z": 0.7941545621,
				"element": "C" 
			},
			{
				"x": 3.6043298125,
				"y": -1.4498269564,
				"z": -0.8228891218,
				"element": "O" 
			},
			{
				"x": 2.5100122347,
				"y": 0.6886159907,
				"z": -1.6940997286,
				"element": "O" 
			},
			{
				"x": -0.2977754734,
				"y": 1.2022208781,
				"z": -0.5133465761,
				"element": "C" 
			},
			{
				"x": -1.1909800905,
				"y": 2.0773994967,
				"z": 0.0529680789,
				"element": "C" 
			},
			{
				"x": -1.4873258781,
				"y": 1.6760996567,
				"z": 1.7219758388,
				"element": "S" 
			},
			{
				"x": -1.9086497285,
				"y": 3.2364368551,
				"z": -0.5203359795,
				"element": "C" 
			},
			{
				"x": -1.5475755226,
				"y": 3.619444674,
				"z": -1.7708662579,
				"element": "O" 
			},
			{
				"x": -2.7792500085,
				"y": 3.8288150998,
				"z": 0.0765120603,
				"element": "O" 
			},
			{
				"x": -0.8216552412,
				"y": -1.4196972005,
				"z": 2.8296738022,
				"element": "H" 
			},
			{
				"x": -0.4259396145,
				"y": 0.0095089834,
				"z": 3.7870982052,
				"element": "H" 
			},
			{
				"x": 0.8535797422,
				"y": -0.8681282338,
				"z": 2.9493903507,
				"element": "H" 
			},
			{
				"x": 1.3548678527,
				"y": -1.5686959897,
				"z": 0.8158605359,
				"element": "H" 
			},
			{
				"x": 0.7868359988,
				"y": -1.4584474336,
				"z": -0.8519706264,
				"element": "H" 
			},
			{
				"x": 4.3910912011,
				"y": 1.0772468682,
				"z": 0.442616329,
				"element": "H" 
			},
			{
				"x": 2.7568933544,
				"y": 1.4656758068,
				"z": 1.0653773515,
				"element": "H" 
			},
			{
				"x": 3.6179118521,
				"y": -0.0158666082,
				"z": 1.6298988928,
				"element": "H" 
			},
			{
				"x": 0.04909645,
				"y": 1.2430553505,
				"z": -1.5402963765,
				"element": "H" 
			},
			{
				"x": -0.7767402126,
				"y": 3.1223065171,
				"z": -2.0787045402,
				"element": "H" 
			}
		],
		 "valence_orbital": [ 
			{
				"type": "occ",
				"energy": -0.30845,
				"method": "rhf"
			},
			{
				"type": "occ",
				"energy": -0.30483,
				"method": "rhf"
			},
			{
				"type": "occ",
				"energy": -0.28197,
				"method": "rhf"
			},
			{
				"type": "occ",
				"energy": -0.27423,
				"method": "rhf"
			},
			{
				"type": "occ",
				"energy": -0.25567,
				"method": "rhf"
			},
			{
				"type": "unocc",
				"energy": -0.06732,
				"method": "rhf"
			},
			{
				"type": "unocc",
				"energy": -0.00715,
				"method": "rhf"
			},
			{
				"type": "unocc",
				"energy": 0.00545,
				"method": "rhf"
			},
			{
				"type": "unocc",
				"energy": 0.04699,
				"method": "rhf"
			},
			{
				"type": "unocc",
				"energy": 0.05278,
				"method": "rhf"
			}
		],
		"cosmo_sigma_profile": { 
			"-0.025": 0.0,
			"-0.024": 0.0,
			"-0.023": 0.0,
			"-0.022": 0.0,
			"-0.021": 0.0,
			"-0.02": 0.0868734912331,
			"-0.019": 0.97702367128,
			"-0.018": 0.731010255144,
			"-0.017": 1.06540413599,
			"-0.016": 1.01175761791,
			"-0.015": 0.91544725446,
			"-0.014": 1.02448968485,
			"-0.013": 0.83624280405,
			"-0.012": 1.07139937861,
			"-0.011": 1.52887644954,
			"-0.01": 2.50093950636,
			"-0.009": 7.60466970169,
			"-0.008": 9.65038133084,
			"-0.007": 9.58199971726,
			"-0.006": 16.2954474098,
			"-0.005": 17.5501738384,
			"-0.004": 18.4535268679,
			"-0.003": 16.7706632819,
			"-0.002": 14.9452926702,
			"-0.001": 10.8093600136,
			"0.0": 9.01470781843,
			"0.001": 14.3175174131,
			"0.002": 13.8550849687,
			"0.003": 9.09052029521,
			"0.004": 4.14401961875,
			"0.005": 5.32760474814,
			"0.006": 4.18744864075,
			"0.007": 4.69219299341,
			"0.008": 6.39810887499,
			"0.009": 6.52893328453,
			"0.01": 8.38249359977,
			"0.011": 13.3852685475,
			"0.012": 13.9696148665,
			"0.013": 3.0882095779,
			"0.014": 0.0300861922022,
			"0.015": 0.0,
			"0.016": 0.0,
			"0.017": 0.0,
			"0.018": 0.0,
			"0.019": 0.0,
			"0.02": 0.0,
			"0.021": 0.0,
			"0.022": 0.0,
			"0.023": 0.0,
			"0.024": 0.0,
			"0.025": 0.0
		}
	}
}
