{
	 "smiles": "OC(=O)C(=C)C(F)(F)F", 
	 "Tm": 323.95, 
	 "num_atms": 12, 
	 "gaussian": { 
		 "optdone": 1, 
		 "sigma_profile": "yes", 
		 "theory": "DFT", 
		 "functional": "B3LYP", 
		 "basiset": "6-31G**", 
		 "properties": { 
			 "R2extent": 1285.3175, 
			 "electric_dipole_moment_norm": 4.89940723047, 
			 "electric_quadrupole_moment_norm": 8.74079450794, 
			 "total_energy": -604.180853187, 
			 "HOMO_LUMO_gap": 0.21659, 
			 "cosmo_polarized_energy": -14.55, 
			 "cosmo_cavitation_energy": 18.45, 
			 "cosmo_dispersion_energy": -12.87, 
			 "cosmo_repulsion_energy": 1.01, 
			 "cosmo_total_nonelectrostatic_energy": 6.58, 
			 "SMD_solvation_energy": 6.33 
		},
		"coords": [
			{
				"x": 1.0366812276,
				"y": 2.2849271457,
				"z": -1.0790546396,
				"element": "O" 
			},
			{
				"x": 0.8683165124,
				"y": 0.9414728222,
				"z": -0.9912678604,
				"element": "C" 
			},
			{
				"x": 1.7643905262,
				"y": 0.1833301934,
				"z": -1.2604169133,
				"element": "O" 
			},
			{
				"x": -0.4804595865,
				"y": 0.4768730245,
				"z": -0.5100317289,
				"element": "C" 
			},
			{
				"x": -1.2179103262,
				"y": 1.1522249415,
				"z": 0.3753024122,
				"element": "C" 
			},
			{
				"x": -0.9228092588,
				"y": -0.8794947145,
				"z": -1.0166207881,
				"element": "C" 
			},
			{
				"x": -2.1984961986,
				"y": -1.1421382234,
				"z": -0.6542629107,
				"element": "F" 
			},
			{
				"x": -0.866507837,
				"y": -0.9259448908,
				"z": -2.362064462,
				"element": "F" 
			},
			{
				"x": -0.1540188255,
				"y": -1.8667965915,
				"z": -0.5336049349,
				"element": "F" 
			},
			{
				"x": 0.1835458429,
				"y": 2.7352443671,
				"z": -1.0054344133,
				"element": "H" 
			},
			{
				"x": -0.8868402743,
				"y": 2.1007207908,
				"z": 0.7878622767,
				"element": "H" 
			},
			{
				"x": -2.1597918022,
				"y": 0.758281135,
				"z": 0.7389939623,
				"element": "H" 
			}
		],
		 "valence_orbital": [ 
			{
				"type": "occ",
				"energy": -0.40627,
				"method": "rhf"
			},
			{
				"type": "occ",
				"energy": -0.38371,
				"method": "rhf"
			},
			{
				"type": "occ",
				"energy": -0.33973,
				"method": "rhf"
			},
			{
				"type": "occ",
				"energy": -0.32249,
				"method": "rhf"
			},
			{
				"type": "occ",
				"energy": -0.29116,
				"method": "rhf"
			},
			{
				"type": "unocc",
				"energy": -0.07457,
				"method": "rhf"
			},
			{
				"type": "unocc",
				"energy": 0.02637,
				"method": "rhf"
			},
			{
				"type": "unocc",
				"energy": 0.04776,
				"method": "rhf"
			},
			{
				"type": "unocc",
				"energy": 0.10622,
				"method": "rhf"
			},
			{
				"type": "unocc",
				"energy": 0.12175,
				"method": "rhf"
			}
		],
		"cosmo_sigma_profile": { 
			"-0.025": 0.0,
			"-0.024": 0.0,
			"-0.023": 0.0,
			"-0.022": 0.0,
			"-0.021": 0.0,
			"-0.02": 0.0175288204418,
			"-0.019": 0.857762167361,
			"-0.018": 1.18214647495,
			"-0.017": 1.3756584746,
			"-0.016": 0.694670032034,
			"-0.015": 1.10680610311,
			"-0.014": 1.33173019829,
			"-0.013": 1.22559099569,
			"-0.012": 1.15316891553,
			"-0.011": 1.1692999338,
			"-0.01": 1.83321302841,
			"-0.009": 2.9242227089,
			"-0.008": 3.67115125766,
			"-0.007": 4.35370313013,
			"-0.006": 3.98067227183,
			"-0.005": 6.56612714397,
			"-0.004": 5.95563605531,
			"-0.003": 7.57569153778,
			"-0.002": 7.08227625988,
			"-0.001": 6.14241149591,
			"0.0": 6.08670527361,
			"0.001": 9.00472562285,
			"0.002": 23.0934226103,
			"0.003": 15.0813803893,
			"0.004": 4.53134686467,
			"0.005": 2.90377689801,
			"0.006": 3.62720052689,
			"0.007": 2.70170509604,
			"0.008": 3.98935915799,
			"0.009": 5.33355001391,
			"0.01": 5.71043363523,
			"0.011": 4.24144348278,
			"0.012": 1.45165938398,
			"0.013": 0.0309745529168,
			"0.014": 0.0,
			"0.015": 0.0,
			"0.016": 0.0,
			"0.017": 0.0,
			"0.018": 0.0,
			"0.019": 0.0,
			"0.02": 0.0,
			"0.021": 0.0,
			"0.022": 0.0,
			"0.023": 0.0,
			"0.024": 0.0,
			"0.025": 0.0
		}
	}
}
