{
	 "smiles": "CC(C)(NS(C)(=O)=O)C#N", 
	 "Tm": 335.15, 
	 "num_atms": 20, 
	 "gaussian": { 
		 "optdone": 1, 
		 "sigma_profile": "yes", 
		 "theory": "DFT", 
		 "functional": "B3LYP", 
		 "basiset": "6-31G**", 
		 "properties": { 
			 "R2extent": 2838.727, 
			 "electric_dipole_moment_norm": 6.73128254867, 
			 "electric_quadrupole_moment_norm": 12.4760924768, 
			 "total_energy": -854.611685037, 
			 "HOMO_LUMO_gap": 0.31198, 
			 "cosmo_polarized_energy": -20.42, 
			 "cosmo_cavitation_energy": 24.99, 
			 "cosmo_dispersion_energy": -17.67, 
			 "cosmo_repulsion_energy": 1.39, 
			 "cosmo_total_nonelectrostatic_energy": 8.71, 
			 "SMD_solvation_energy": 5.13 
		},
		"coords": [
			{
				"x": 2.0042866687,
				"y": 0.1321725906,
				"z": 0.3392492975,
				"element": "C" 
			},
			{
				"x": 0.6035060397,
				"y": 0.7274200651,
				"z": 0.0772419479,
				"element": "C" 
			},
			{
				"x": 0.1500998839,
				"y": 0.4043887974,
				"z": -1.3580972789,
				"element": "C" 
			},
			{
				"x": 0.7407095903,
				"y": 2.190128731,
				"z": 0.2775784168,
				"element": "N" 
			},
			{
				"x": -0.5654480621,
				"y": 3.2745763402,
				"z": 0.0780282168,
				"element": "S" 
			},
			{
				"x": -0.1540983515,
				"y": 4.0739344783,
				"z": -1.4813245902,
				"element": "C" 
			},
			{
				"x": -0.4028708448,
				"y": 4.2600530127,
				"z": 1.1485185729,
				"element": "O" 
			},
			{
				"x": -1.8155702414,
				"y": 2.537072065,
				"z": -0.1145513824,
				"element": "O" 
			},
			{
				"x": -0.3384978644,
				"y": 0.1164691748,
				"z": 1.0533531052,
				"element": "C" 
			},
			{
				"x": -1.0187975928,
				"y": -0.3997523423,
				"z": 1.8392427727,
				"element": "N" 
			},
			{
				"x": 2.3424395587,
				"y": 0.3516646517,
				"z": 1.3563381214,
				"element": "H" 
			},
			{
				"x": 1.9787033651,
				"y": -0.953435428,
				"z": 0.2183272986,
				"element": "H" 
			},
			{
				"x": 2.7164339606,
				"y": 0.558570799,
				"z": -0.3715621677,
				"element": "H" 
			},
			{
				"x": 0.1382327734,
				"y": -0.6786398299,
				"z": -1.5026206174,
				"element": "H" 
			},
			{
				"x": 0.8605139996,
				"y": 0.8434282608,
				"z": -2.0648021657,
				"element": "H" 
			},
			{
				"x": -0.8524260282,
				"y": 0.7875005391,
				"z": -1.5512437786,
				"element": "H" 
			},
			{
				"x": 1.1561929767,
				"y": 2.4187260786,
				"z": 1.1787279689,
				"element": "H" 
			},
			{
				"x": 0.8161505536,
				"y": 4.5598119323,
				"z": -1.3799715534,
				"element": "H" 
			},
			{
				"x": -0.139190923,
				"y": 3.3264586574,
				"z": -2.2747252447,
				"element": "H" 
			},
			{
				"x": -0.937069462,
				"y": 4.8109514262,
				"z": -1.6695069398,
				"element": "H" 
			}
		],
		 "valence_orbital": [ 
			{
				"type": "occ",
				"energy": -0.33256,
				"method": "rhf"
			},
			{
				"type": "occ",
				"energy": -0.32471,
				"method": "rhf"
			},
			{
				"type": "occ",
				"energy": -0.31545,
				"method": "rhf"
			},
			{
				"type": "occ",
				"energy": -0.31157,
				"method": "rhf"
			},
			{
				"type": "occ",
				"energy": -0.2934,
				"method": "rhf"
			},
			{
				"type": "unocc",
				"energy": 0.01858,
				"method": "rhf"
			},
			{
				"type": "unocc",
				"energy": 0.03073,
				"method": "rhf"
			},
			{
				"type": "unocc",
				"energy": 0.04293,
				"method": "rhf"
			},
			{
				"type": "unocc",
				"energy": 0.05715,
				"method": "rhf"
			},
			{
				"type": "unocc",
				"energy": 0.07074,
				"method": "rhf"
			}
		],
		"cosmo_sigma_profile": { 
			"-0.025": 0.0,
			"-0.024": 0.0,
			"-0.023": 0.0,
			"-0.022": 0.0,
			"-0.021": 0.0,
			"-0.02": 0.0,
			"-0.019": 0.0,
			"-0.018": 0.0,
			"-0.017": 0.0,
			"-0.016": 0.0,
			"-0.015": 0.461766502682,
			"-0.014": 1.19286787732,
			"-0.013": 1.27826543562,
			"-0.012": 1.13541362809,
			"-0.011": 1.41780954457,
			"-0.01": 1.58897174311,
			"-0.009": 3.58975533797,
			"-0.008": 6.53861131498,
			"-0.007": 9.84652671987,
			"-0.006": 14.3263830231,
			"-0.005": 17.5961896664,
			"-0.004": 17.7149203801,
			"-0.003": 15.2510869545,
			"-0.002": 17.0561281767,
			"-0.001": 8.95062350428,
			"0.0": 4.34139346191,
			"0.001": 4.59720020816,
			"0.002": 3.70859768935,
			"0.003": 4.08190797079,
			"0.004": 3.67975465585,
			"0.005": 4.51603500972,
			"0.006": 4.66652885224,
			"0.007": 5.87333421139,
			"0.008": 7.41533281348,
			"0.009": 8.4464910051,
			"0.01": 11.1264423518,
			"0.011": 11.6748816564,
			"0.012": 3.732249962,
			"0.013": 1.36389062242,
			"0.014": 0.00770588408351,
			"0.015": 0.0,
			"0.016": 0.0,
			"0.017": 0.0,
			"0.018": 0.0,
			"0.019": 0.0,
			"0.02": 0.0,
			"0.021": 0.0,
			"0.022": 0.0,
			"0.023": 0.0,
			"0.024": 0.0,
			"0.025": 0.0
		}
	}
}
