{
	 "smiles": "OC(=O)C1=CC(SC(F)(F)F)=CC=C1", 
	 "Tm": 346.15, 
	 "num_atms": 19, 
	 "gaussian": { 
		 "optdone": 1, 
		 "sigma_profile": "yes", 
		 "theory": "DFT", 
		 "functional": "B3LYP", 
		 "basiset": "6-31G**", 
		 "properties": { 
			 "R2extent": 3863.3626, 
			 "electric_dipole_moment_norm": 3.17147192799, 
			 "electric_quadrupole_moment_norm": 19.8304193569, 
			 "total_energy": -1156.01756313, 
			 "HOMO_LUMO_gap": 0.20569, 
			 "cosmo_polarized_energy": -13.38, 
			 "cosmo_cavitation_energy": 27.47, 
			 "cosmo_dispersion_energy": -19.67, 
			 "cosmo_repulsion_energy": 1.45, 
			 "cosmo_total_nonelectrostatic_energy": 9.26, 
			 "SMD_solvation_energy": 6.63 
		},
		"coords": [
			{
				"x": -1.5406977824,
				"y": 2.102988985,
				"z": -1.9670343047,
				"element": "O" 
			},
			{
				"x": -0.1983555471,
				"y": 2.0493436121,
				"z": -2.1652973134,
				"element": "C" 
			},
			{
				"x": 0.3500414433,
				"y": 2.8908109224,
				"z": -2.8361382711,
				"element": "O" 
			},
			{
				"x": 0.5415204362,
				"y": 0.9123408881,
				"z": -1.519208531,
				"element": "C" 
			},
			{
				"x": 0.0347695754,
				"y": 0.1961536046,
				"z": -0.4275731396,
				"element": "C" 
			},
			{
				"x": 0.7796507327,
				"y": -0.8450120909,
				"z": 0.1361186611,
				"element": "C" 
			},
			{
				"x": 0.0847379482,
				"y": -1.7862620821,
				"z": 1.497455849,
				"element": "S" 
			},
			{
				"x": 1.0254919717,
				"y": -1.0510611048,
				"z": 2.8805405234,
				"element": "C" 
			},
			{
				"x": 2.3517878465,
				"y": -1.2382574339,
				"z": 2.7600444504,
				"element": "F" 
			},
			{
				"x": 0.8209388182,
				"y": 0.2693612295,
				"z": 3.0015651075,
				"element": "F" 
			},
			{
				"x": 0.6145636951,
				"y": -1.6523785442,
				"z": 4.0069718897,
				"element": "F" 
			},
			{
				"x": 2.0347786372,
				"y": -1.1740402396,
				"z": -0.3899731847,
				"element": "C" 
			},
			{
				"x": 2.5500779611,
				"y": -0.4422650426,
				"z": -1.4615825933,
				"element": "C" 
			},
			{
				"x": 1.8120586771,
				"y": 0.598061685,
				"z": -2.0200528397,
				"element": "C" 
			},
			{
				"x": -1.8581268895,
				"y": 1.2873151653,
				"z": -1.5557966057,
				"element": "H" 
			},
			{
				"x": -0.9176562717,
				"y": 0.4550949985,
				"z": 0.0260584326,
				"element": "H" 
			},
			{
				"x": 2.6016740001,
				"y": -1.9897315191,
				"z": 0.0450351531,
				"element": "H" 
			},
			{
				"x": 3.528482149,
				"y": -0.6895115461,
				"z": -1.8616402011,
				"element": "H" 
			},
			{
				"x": 2.1970625988,
				"y": 1.1823485129,
				"z": -2.8486930825,
				"element": "H" 
			}
		],
		 "valence_orbital": [ 
			{
				"type": "occ",
				"energy": -0.3268,
				"method": "rhf"
			},
			{
				"type": "occ",
				"energy": -0.29441,
				"method": "rhf"
			},
			{
				"type": "occ",
				"energy": -0.29002,
				"method": "rhf"
			},
			{
				"type": "occ",
				"energy": -0.27953,
				"method": "rhf"
			},
			{
				"type": "occ",
				"energy": -0.27373,
				"method": "rhf"
			},
			{
				"type": "unocc",
				"energy": -0.06804,
				"method": "rhf"
			},
			{
				"type": "unocc",
				"energy": -0.05113,
				"method": "rhf"
			},
			{
				"type": "unocc",
				"energy": 0.00024,
				"method": "rhf"
			},
			{
				"type": "unocc",
				"energy": 0.02856,
				"method": "rhf"
			},
			{
				"type": "unocc",
				"energy": 0.04894,
				"method": "rhf"
			}
		],
		"cosmo_sigma_profile": { 
			"-0.025": 0.0,
			"-0.024": 0.0,
			"-0.023": 0.0,
			"-0.022": 0.0,
			"-0.021": 0.0,
			"-0.02": 0.109514867991,
			"-0.019": 0.729420784987,
			"-0.018": 0.924871728001,
			"-0.017": 1.07437876734,
			"-0.016": 1.4762716514,
			"-0.015": 0.685745917815,
			"-0.014": 0.608615528683,
			"-0.013": 0.896404434324,
			"-0.012": 1.59816804521,
			"-0.011": 1.27042364247,
			"-0.01": 1.20526531437,
			"-0.009": 1.25339356506,
			"-0.008": 2.9076086097,
			"-0.007": 6.626667375,
			"-0.006": 8.67179091721,
			"-0.005": 7.22276843631,
			"-0.004": 8.87838026533,
			"-0.003": 10.210425386,
			"-0.002": 12.5384325622,
			"-0.001": 17.7973794974,
			"0.0": 20.2250501982,
			"0.001": 34.874561366,
			"0.002": 38.978482591,
			"0.003": 6.82361942302,
			"0.004": 4.69987789784,
			"0.005": 4.68529340856,
			"0.006": 1.67117626336,
			"0.007": 2.9165578751,
			"0.008": 3.29714846238,
			"0.009": 3.24034148556,
			"0.01": 5.4417078317,
			"0.011": 5.14501601249,
			"0.012": 3.50674885151,
			"0.013": 0.839201423406,
			"0.014": 0.0,
			"0.015": 0.0,
			"0.016": 0.0,
			"0.017": 0.0,
			"0.018": 0.0,
			"0.019": 0.0,
			"0.02": 0.0,
			"0.021": 0.0,
			"0.022": 0.0,
			"0.023": 0.0,
			"0.024": 0.0,
			"0.025": 0.0
		}
	}
}
