{
	 "smiles": "CC1(C)C2=CC=CC=C2[N+](CC2=CC=CC=C2)=C1C=CC1=C([O-])C(=CC(=C1)[N+]([O-])=O)[N+]([O-])=O", 
	 "Tm": 518.15, 
	 "num_atms": 54, 
	 "gaussian": { 
		 "optdone": 1, 
		 "sigma_profile": "yes", 
		 "theory": "DFT", 
		 "functional": "B3LYP", 
		 "basiset": "6-31G**", 
		 "properties": { 
			 "R2extent": 17471.5668, 
			 "electric_dipole_moment_norm": 16.1081507871, 
			 "electric_quadrupole_moment_norm": 25.1170904346, 
			 "total_energy": -1505.47050668, 
			 "HOMO_LUMO_gap": 0.09964, 
			 "cosmo_polarized_energy": -32.34, 
			 "cosmo_cavitation_energy": 58.86, 
			 "cosmo_dispersion_energy": -37.86, 
			 "cosmo_repulsion_energy": 2.8, 
			 "cosmo_total_nonelectrostatic_energy": 23.8, 
			 "SMD_solvation_energy": 14.68 
		},
		"coords": [
			{
				"x": -0.6103742773,
				"y": 3.6236310511,
				"z": -0.2476999008,
				"element": "C" 
			},
			{
				"x": -0.1636691688,
				"y": 2.8037974367,
				"z": -1.4802753745,
				"element": "C" 
			},
			{
				"x": -1.3279876462,
				"y": 2.6850881067,
				"z": -2.4951746955,
				"element": "C" 
			},
			{
				"x": 1.0793892703,
				"y": 3.3822057177,
				"z": -2.1264554804,
				"element": "C" 
			},
			{
				"x": 1.3191632172,
				"y": 4.6206865254,
				"z": -2.705415055,
				"element": "C" 
			},
			{
				"x": 2.5886886991,
				"y": 4.8864682079,
				"z": -3.2368317113,
				"element": "C" 
			},
			{
				"x": 3.5978972769,
				"y": 3.9219234954,
				"z": -3.1816094084,
				"element": "C" 
			},
			{
				"x": 3.3697386436,
				"y": 2.6688370926,
				"z": -2.6009467836,
				"element": "C" 
			},
			{
				"x": 2.0980024003,
				"y": 2.4263698793,
				"z": -2.0895269006,
				"element": "C" 
			},
			{
				"x": 1.6106797954,
				"y": 1.24773159,
				"z": -1.4666612188,
				"element": "N" 
			},
			{
				"x": 2.3730975585,
				"y": 0.0004488213,
				"z": -1.4745872919,
				"element": "C" 
			},
			{
				"x": 3.2222967088,
				"y": -0.2643787879,
				"z": -0.2400031417,
				"element": "C" 
			},
			{
				"x": 3.6143848517,
				"y": -1.5824256786,
				"z": 0.0335310558,
				"element": "C" 
			},
			{
				"x": 4.419291174,
				"y": -1.8683551021,
				"z": 1.136026159,
				"element": "C" 
			},
			{
				"x": 4.8404090731,
				"y": -0.8381196183,
				"z": 1.9799371892,
				"element": "C" 
			},
			{
				"x": 4.4523420862,
				"y": 0.4750706962,
				"z": 1.7138130647,
				"element": "C" 
			},
			{
				"x": 3.6475188302,
				"y": 0.7625842803,
				"z": 0.6089848878,
				"element": "C" 
			},
			{
				"x": 0.3227136233,
				"y": 1.4090907861,
				"z": -1.0578486641,
				"element": "C" 
			},
			{
				"x": -0.5170127496,
				"y": 0.5183111718,
				"z": -0.3917994263,
				"element": "C" 
			},
			{
				"x": -0.1727550617,
				"y": -0.6499147839,
				"z": 0.2905145192,
				"element": "C" 
			},
			{
				"x": -1.0487477142,
				"y": -1.5336980615,
				"z": 0.9555250577,
				"element": "C" 
			},
			{
				"x": -2.5274290833,
				"y": -1.3435141108,
				"z": 0.9593808254,
				"element": "C" 
			},
			{
				"x": -3.0866432786,
				"y": -0.4447052194,
				"z": 0.3229523363,
				"element": "O" 
			},
			{
				"x": -3.2561076171,
				"y": -2.3507710026,
				"z": 1.7539684063,
				"element": "C" 
			},
			{
				"x": -2.6514252658,
				"y": -3.4142437382,
				"z": 2.359656469,
				"element": "C" 
			},
			{
				"x": -1.242531954,
				"y": -3.5485964785,
				"z": 2.3022006871,
				"element": "C" 
			},
			{
				"x": -0.4666052035,
				"y": -2.6304425122,
				"z": 1.6314564185,
				"element": "C" 
			},
			{
				"x": -0.6085705955,
				"y": -4.6710441771,
				"z": 2.9712245404,
				"element": "N" 
			},
			{
				"x": -1.3348570825,
				"y": -5.4635528022,
				"z": 3.5768086468,
				"element": "O" 
			},
			{
				"x": 0.6212676051,
				"y": -4.770265873,
				"z": 2.8956301478,
				"element": "O" 
			},
			{
				"x": -4.7089106963,
				"y": -2.2393189649,
				"z": 1.9099281514,
				"element": "N" 
			},
			{
				"x": -5.1955854533,
				"y": -1.1136280845,
				"z": 1.9494317033,
				"element": "O" 
			},
			{
				"x": -5.3488044775,
				"y": -3.2899619388,
				"z": 2.0237843893,
				"element": "O" 
			},
			{
				"x": 0.1971217389,
				"y": 3.7132576971,
				"z": 0.4842455498,
				"element": "H" 
			},
			{
				"x": -1.468582712,
				"y": 3.1534001308,
				"z": 0.2395982018,
				"element": "H" 
			},
			{
				"x": -0.9022808535,
				"y": 4.6310624087,
				"z": -0.5594820172,
				"element": "H" 
			},
			{
				"x": -2.2003972097,
				"y": 2.2121078554,
				"z": -2.036647901,
				"element": "H" 
			},
			{
				"x": -1.6193879878,
				"y": 3.6835426681,
				"z": -2.8349911905,
				"element": "H" 
			},
			{
				"x": -1.034578768,
				"y": 2.0991232648,
				"z": -3.3704772499,
				"element": "H" 
			},
			{
				"x": 0.5388801105,
				"y": 5.375228336,
				"z": -2.7479529336,
				"element": "H" 
			},
			{
				"x": 2.7909733775,
				"y": 5.8516400971,
				"z": -3.6901647915,
				"element": "H" 
			},
			{
				"x": 4.5790410422,
				"y": 4.1449333788,
				"z": -3.5890713582,
				"element": "H" 
			},
			{
				"x": 4.1648074912,
				"y": 1.9334413623,
				"z": -2.5422002629,
				"element": "H" 
			},
			{
				"x": 1.6618708786,
				"y": -0.8171276496,
				"z": -1.6269337699,
				"element": "H" 
			},
			{
				"x": 3.0072208376,
				"y": 0.0301465647,
				"z": -2.3677656135,
				"element": "H" 
			},
			{
				"x": 3.2852483567,
				"y": -2.3903882116,
				"z": -0.6161710527,
				"element": "H" 
			},
			{
				"x": 4.707808701,
				"y": -2.8948670227,
				"z": 1.3404959619,
				"element": "H" 
			},
			{
				"x": 5.4609048523,
				"y": -1.0600923986,
				"z": 2.842730766,
				"element": "H" 
			},
			{
				"x": 4.77149845,
				"y": 1.2805597412,
				"z": 2.3685754822,
				"element": "H" 
			},
			{
				"x": 3.3473862233,
				"y": 1.7877050526,
				"z": 0.4153398273,
				"element": "H" 
			},
			{
				"x": -1.5639626718,
				"y": 0.7941513844,
				"z": -0.3515667218,
				"element": "H" 
			},
			{
				"x": 0.8781998045,
				"y": -0.9048335432,
				"z": 0.3924767092,
				"element": "H" 
			},
			{
				"x": -3.2422681079,
				"y": -4.1501186188,
				"z": 2.8903387737,
				"element": "H" 
			},
			{
				"x": 0.6099329579,
				"y": -2.7656804214,
				"z": 1.6265039889,
				"element": "H" 
			}
		],
		 "valence_orbital": [ 
			{
				"type": "occ",
				"energy": -0.27284,
				"method": "rhf"
			},
			{
				"type": "occ",
				"energy": -0.26741,
				"method": "rhf"
			},
			{
				"type": "occ",
				"energy": -0.25005,
				"method": "rhf"
			},
			{
				"type": "occ",
				"energy": -0.23632,
				"method": "rhf"
			},
			{
				"type": "occ",
				"energy": -0.21426,
				"method": "rhf"
			},
			{
				"type": "unocc",
				"energy": -0.11462,
				"method": "rhf"
			},
			{
				"type": "unocc",
				"energy": -0.06694,
				"method": "rhf"
			},
			{
				"type": "unocc",
				"energy": -0.05533,
				"method": "rhf"
			},
			{
				"type": "unocc",
				"energy": -0.04171,
				"method": "rhf"
			},
			{
				"type": "unocc",
				"energy": -0.0331,
				"method": "rhf"
			}
		],
		"cosmo_sigma_profile": { 
			"-0.025": 0.0,
			"-0.024": 0.0,
			"-0.023": 0.0,
			"-0.022": 0.0,
			"-0.021": 0.0,
			"-0.02": 0.0,
			"-0.019": 0.0,
			"-0.018": 0.0,
			"-0.017": 0.0,
			"-0.016": 0.0,
			"-0.015": 0.0,
			"-0.014": 0.0,
			"-0.013": 0.0,
			"-0.012": 0.0,
			"-0.011": 0.0,
			"-0.01": 0.125525828374,
			"-0.009": 1.96317256967,
			"-0.008": 6.8662995548,
			"-0.007": 12.1173871088,
			"-0.006": 31.8587414018,
			"-0.005": 42.7354019708,
			"-0.004": 40.0202006676,
			"-0.003": 37.1895924874,
			"-0.002": 40.9301596591,
			"-0.001": 43.593311038,
			"0.0": 36.3651187729,
			"0.001": 24.7439685679,
			"0.002": 20.0206404935,
			"0.003": 21.9382329164,
			"0.004": 21.275716194,
			"0.005": 14.0231663982,
			"0.006": 7.39178109487,
			"0.007": 9.61323231245,
			"0.008": 19.2304402766,
			"0.009": 14.9878727873,
			"0.01": 10.3865797838,
			"0.011": 5.40098000085,
			"0.012": 2.08990558194,
			"0.013": 2.45841954277,
			"0.014": 1.86300332071,
			"0.015": 1.60070237623,
			"0.016": 0.100998802278,
			"0.017": 0.0,
			"0.018": 0.0,
			"0.019": 0.0,
			"0.02": 0.0,
			"0.021": 0.0,
			"0.022": 0.0,
			"0.023": 0.0,
			"0.024": 0.0,
			"0.025": 0.0
		}
	}
}
