{
	 "smiles": "CC=CC(C)C(C)C=CC", 
	 "Tm": 208.35, 
	 "num_atms": 28, 
	 "gaussian": { 
		 "optdone": 1, 
		 "sigma_profile": "yes", 
		 "theory": "DFT", 
		 "functional": "B3LYP", 
		 "basiset": "6-31G**", 
		 "properties": { 
			 "R2extent": 2344.9734, 
			 "electric_dipole_moment_norm": 0.124325459983, 
			 "electric_quadrupole_moment_norm": 1.79187108074, 
			 "total_energy": -391.893402542, 
			 "HOMO_LUMO_gap": 0.25764, 
			 "cosmo_polarized_energy": -2.3, 
			 "cosmo_cavitation_energy": 29.68, 
			 "cosmo_dispersion_energy": -20.18, 
			 "cosmo_repulsion_energy": 1.71, 
			 "cosmo_total_nonelectrostatic_energy": 11.21, 
			 "SMD_solvation_energy": 5.59 
		},
		"coords": [
			{
				"x": -3.8336073189,
				"y": 0.3970491094,
				"z": -0.6251443628,
				"element": "C" 
			},
			{
				"x": -2.4071904965,
				"y": 0.537634116,
				"z": -1.0756157631,
				"element": "C" 
			},
			{
				"x": -1.4623369415,
				"y": -0.3983456558,
				"z": -0.9486015184,
				"element": "C" 
			},
			{
				"x": -0.0359924656,
				"y": -0.2677659561,
				"z": -1.4221213283,
				"element": "C" 
			},
			{
				"x": 0.249140566,
				"y": -1.2638889825,
				"z": -2.5638061171,
				"element": "C" 
			},
			{
				"x": 0.9980638256,
				"y": -0.3983333967,
				"z": -0.2500812292,
				"element": "C" 
			},
			{
				"x": 0.8488185225,
				"y": 0.7585299411,
				"z": 0.7450920774,
				"element": "C" 
			},
			{
				"x": 0.9728686675,
				"y": -1.7679112925,
				"z": 0.3932185144,
				"element": "C" 
			},
			{
				"x": 0.6878572621,
				"y": -2.0587936833,
				"z": 1.666409341,
				"element": "C" 
			},
			{
				"x": 0.6892087956,
				"y": -3.4444707421,
				"z": 2.2483632757,
				"element": "C" 
			},
			{
				"x": -4.1003876133,
				"y": 1.1723995593,
				"z": 0.1046513133,
				"element": "H" 
			},
			{
				"x": -4.530405623,
				"y": 0.508319861,
				"z": -1.4661155602,
				"element": "H" 
			},
			{
				"x": -4.0147121654,
				"y": -0.5784783396,
				"z": -0.1634067639,
				"element": "H" 
			},
			{
				"x": -2.1443402782,
				"y": 1.487543316,
				"z": -1.5453033555,
				"element": "H" 
			},
			{
				"x": -1.719947383,
				"y": -1.3486249207,
				"z": -0.4773351605,
				"element": "H" 
			},
			{
				"x": 0.093752363,
				"y": 0.7447014971,
				"z": -1.8294092847,
				"element": "H" 
			},
			{
				"x": 0.0442888058,
				"y": -2.2963126461,
				"z": -2.2620599634,
				"element": "H" 
			},
			{
				"x": 1.2954685029,
				"y": -1.2085827045,
				"z": -2.8866266222,
				"element": "H" 
			},
			{
				"x": -0.3852088824,
				"y": -1.0451361424,
				"z": -3.4281854912,
				"element": "H" 
			},
			{
				"x": 1.986484003,
				"y": -0.297318428,
				"z": -0.7271677047,
				"element": "H" 
			},
			{
				"x": 0.9521386328,
				"y": 1.7196263697,
				"z": 0.2303973932,
				"element": "H" 
			},
			{
				"x": 1.6144930955,
				"y": 0.7103162013,
				"z": 1.5256586276,
				"element": "H" 
			},
			{
				"x": -0.1337562168,
				"y": 0.7496702925,
				"z": 1.2266946744,
				"element": "H" 
			},
			{
				"x": 1.2263497444,
				"y": -2.5968695896,
				"z": -0.2695066454,
				"element": "H" 
			},
			{
				"x": 0.4381104241,
				"y": -1.2554253096,
				"z": 2.3582728968,
				"element": "H" 
			},
			{
				"x": -0.293411976,
				"y": -3.7038915239,
				"z": 2.6633357034,
				"element": "H" 
			},
			{
				"x": 0.9479792019,
				"y": -4.1972760236,
				"z": 1.4971317451,
				"element": "H" 
			},
			{
				"x": 1.407374948,
				"y": -3.5297649265,
				"z": 3.0742613084,
				"element": "H" 
			}
		],
		 "valence_orbital": [ 
			{
				"type": "occ",
				"energy": -0.32057,
				"method": "rhf"
			},
			{
				"type": "occ",
				"energy": -0.31632,
				"method": "rhf"
			},
			{
				"type": "occ",
				"energy": -0.30889,
				"method": "rhf"
			},
			{
				"type": "occ",
				"energy": -0.23995,
				"method": "rhf"
			},
			{
				"type": "occ",
				"energy": -0.23007,
				"method": "rhf"
			},
			{
				"type": "unocc",
				"energy": 0.02757,
				"method": "rhf"
			},
			{
				"type": "unocc",
				"energy": 0.03657,
				"method": "rhf"
			},
			{
				"type": "unocc",
				"energy": 0.09994,
				"method": "rhf"
			},
			{
				"type": "unocc",
				"energy": 0.11119,
				"method": "rhf"
			},
			{
				"type": "unocc",
				"energy": 0.11814,
				"method": "rhf"
			}
		],
		"cosmo_sigma_profile": { 
			"-0.025": 0.0,
			"-0.024": 0.0,
			"-0.023": 0.0,
			"-0.022": 0.0,
			"-0.021": 0.0,
			"-0.02": 0.0,
			"-0.019": 0.0,
			"-0.018": 0.0,
			"-0.017": 0.0,
			"-0.016": 0.0,
			"-0.015": 0.0,
			"-0.014": 0.0,
			"-0.013": 0.0,
			"-0.012": 0.0,
			"-0.011": 0.0,
			"-0.01": 0.0,
			"-0.009": 0.0,
			"-0.008": 0.0,
			"-0.007": 0.0,
			"-0.006": 0.0,
			"-0.005": 0.0,
			"-0.004": 3.57275689873,
			"-0.003": 24.6540043823,
			"-0.002": 37.9051717964,
			"-0.001": 42.6715482107,
			"0.0": 36.736275793,
			"0.001": 34.7966142979,
			"0.002": 17.3695358396,
			"0.003": 9.90550218814,
			"0.004": 9.9204613497,
			"0.005": 7.55595854443,
			"0.006": 2.6358276275,
			"0.007": 1.85580846093,
			"0.008": 0.237441450714,
			"0.009": 0.0,
			"0.01": 0.0,
			"0.011": 0.0,
			"0.012": 0.0,
			"0.013": 0.0,
			"0.014": 0.0,
			"0.015": 0.0,
			"0.016": 0.0,
			"0.017": 0.0,
			"0.018": 0.0,
			"0.019": 0.0,
			"0.02": 0.0,
			"0.021": 0.0,
			"0.022": 0.0,
			"0.023": 0.0,
			"0.024": 0.0,
			"0.025": 0.0
		}
	}
}
