{
	 "smiles": "O=N(=O)C1=CC=C(C=NN(C2=CC=CC=C2)P(=O)(N2CC2)N2CC2)C=C1", 
	 "Tm": 423.15, 
	 "num_atms": 44, 
	 "gaussian": { 
		 "optdone": 1, 
		 "sigma_profile": "yes", 
		 "theory": "DFT", 
		 "functional": "B3LYP", 
		 "basiset": "6-31G**", 
		 "properties": { 
			 "R2extent": 12808.3749, 
			 "electric_dipole_moment_norm": 6.69642251728, 
			 "electric_quadrupole_moment_norm": 40.934265545, 
			 "total_energy": -1499.26256405, 
			 "HOMO_LUMO_gap": 0.12758, 
			 "cosmo_polarized_energy": -18.96, 
			 "cosmo_cavitation_energy": 51.0, 
			 "cosmo_dispersion_energy": -33.49, 
			 "cosmo_repulsion_energy": 2.53, 
			 "cosmo_total_nonelectrostatic_energy": 20.04, 
			 "SMD_solvation_energy": 8.86 
		},
		"coords": [
			{
				"x": 0.8795673865,
				"y": -2.8664934475,
				"z": 5.7987186567,
				"element": "O" 
			},
			{
				"x": 1.5013605662,
				"y": -2.9103453151,
				"z": 4.7356938479,
				"element": "N" 
			},
			{
				"x": 2.5392778259,
				"y": -3.5503703195,
				"z": 4.5598246463,
				"element": "O" 
			},
			{
				"x": 0.9689439437,
				"y": -2.1486335197,
				"z": 3.6012351887,
				"element": "C" 
			},
			{
				"x": -0.2040691182,
				"y": -1.4151560948,
				"z": 3.7692891964,
				"element": "C" 
			},
			{
				"x": -0.7007067795,
				"y": -0.6961633442,
				"z": 2.6879506808,
				"element": "C" 
			},
			{
				"x": -0.0395245697,
				"y": -0.7042917633,
				"z": 1.4462890794,
				"element": "C" 
			},
			{
				"x": -0.610137577,
				"y": 0.0682630967,
				"z": 0.3375197975,
				"element": "C" 
			},
			{
				"x": -0.0329573703,
				"y": 0.0316382842,
				"z": -0.8121315744,
				"element": "N" 
			},
			{
				"x": -0.4752988294,
				"y": 0.7391946508,
				"z": -1.9035566234,
				"element": "N" 
			},
			{
				"x": 0.2180964142,
				"y": 0.376202256,
				"z": -3.1163955075,
				"element": "C" 
			},
			{
				"x": 0.5973757491,
				"y": 1.3474612788,
				"z": -4.0489462825,
				"element": "C" 
			},
			{
				"x": 1.2823193972,
				"y": 0.9674694238,
				"z": -5.2030311146,
				"element": "C" 
			},
			{
				"x": 1.6109649593,
				"y": -0.3700823774,
				"z": -5.4274355649,
				"element": "C" 
			},
			{
				"x": 1.2402999196,
				"y": -1.3345925502,
				"z": -4.4885395392,
				"element": "C" 
			},
			{
				"x": 0.5394039464,
				"y": -0.9681883142,
				"z": -3.3409075466,
				"element": "C" 
			},
			{
				"x": -1.9106754409,
				"y": 1.6993668891,
				"z": -1.9894705802,
				"element": "P" 
			},
			{
				"x": -2.115682109,
				"y": 2.3283672148,
				"z": -3.3255544435,
				"element": "O" 
			},
			{
				"x": -3.1252726016,
				"y": 0.6512396179,
				"z": -1.4399989349,
				"element": "N" 
			},
			{
				"x": -4.5275732202,
				"y": 0.9261149478,
				"z": -1.8109453729,
				"element": "C" 
			},
			{
				"x": -3.7982478612,
				"y": -0.2071446632,
				"z": -2.4327033105,
				"element": "C" 
			},
			{
				"x": -1.7469091282,
				"y": 2.7448121319,
				"z": -0.6649090107,
				"element": "N" 
			},
			{
				"x": -2.519787603,
				"y": 4.0018076471,
				"z": -0.6539486014,
				"element": "C" 
			},
			{
				"x": -1.0504258027,
				"y": 4.0270785265,
				"z": -0.8641493242,
				"element": "C" 
			},
			{
				"x": 1.1463556096,
				"y": -1.4542622424,
				"z": 1.3115975527,
				"element": "C" 
			},
			{
				"x": 1.6520757699,
				"y": -2.176226844,
				"z": 2.3819366358,
				"element": "C" 
			},
			{
				"x": -0.7015549656,
				"y": -1.419896647,
				"z": 4.7309120811,
				"element": "H" 
			},
			{
				"x": -1.6145243839,
				"y": -0.1198252382,
				"z": 2.8016421068,
				"element": "H" 
			},
			{
				"x": -1.5055498395,
				"y": 0.6482806708,
				"z": 0.5494222223,
				"element": "H" 
			},
			{
				"x": 0.3466126922,
				"y": 2.3868456108,
				"z": -3.8809560151,
				"element": "H" 
			},
			{
				"x": 1.5697159011,
				"y": 1.7277694835,
				"z": -5.9233924044,
				"element": "H" 
			},
			{
				"x": 2.1520399806,
				"y": -0.6579230897,
				"z": -6.3238743779,
				"element": "H" 
			},
			{
				"x": 1.4891395436,
				"y": -2.3794026932,
				"z": -4.6510836578,
				"element": "H" 
			},
			{
				"x": 0.2492287355,
				"y": -1.7111163275,
				"z": -2.60701453,
				"element": "H" 
			},
			{
				"x": -4.7281589181,
				"y": 1.7877066401,
				"z": -2.4436167957,
				"element": "H" 
			},
			{
				"x": -5.2453087911,
				"y": 0.7460463566,
				"z": -1.0152360066,
				"element": "H" 
			},
			{
				"x": -3.9770593844,
				"y": -1.2240582235,
				"z": -2.094664906,
				"element": "H" 
			},
			{
				"x": -3.5125607449,
				"y": -0.0986046907,
				"z": -3.4765756018,
				"element": "H" 
			},
			{
				"x": -3.1431171039,
				"y": 4.2248909884,
				"z": -1.5168702836,
				"element": "H" 
			},
			{
				"x": -2.9409698589,
				"y": 4.2619168166,
				"z": 0.3132727044,
				"element": "H" 
			},
			{
				"x": -0.3842014523,
				"y": 4.3048170559,
				"z": -0.0522575578,
				"element": "H" 
			},
			{
				"x": -0.6999342809,
				"y": 4.2670651716,
				"z": -1.8655366005,
				"element": "H" 
			},
			{
				"x": 1.6586793871,
				"y": -1.4532222487,
				"z": 0.3562025451,
				"element": "H" 
			},
			{
				"x": 2.5617500068,
				"y": -2.7576548054,
				"z": 2.2982951265,
				"element": "H" 
			}
		],
		 "valence_orbital": [ 
			{
				"type": "occ",
				"energy": -0.27159,
				"method": "rhf"
			},
			{
				"type": "occ",
				"energy": -0.26508,
				"method": "rhf"
			},
			{
				"type": "occ",
				"energy": -0.25853,
				"method": "rhf"
			},
			{
				"type": "occ",
				"energy": -0.25028,
				"method": "rhf"
			},
			{
				"type": "occ",
				"energy": -0.2158,
				"method": "rhf"
			},
			{
				"type": "unocc",
				"energy": -0.08822,
				"method": "rhf"
			},
			{
				"type": "unocc",
				"energy": -0.03132,
				"method": "rhf"
			},
			{
				"type": "unocc",
				"energy": -0.01817,
				"method": "rhf"
			},
			{
				"type": "unocc",
				"energy": -0.00276,
				"method": "rhf"
			},
			{
				"type": "unocc",
				"energy": -0.00052,
				"method": "rhf"
			}
		],
		"cosmo_sigma_profile": { 
			"-0.025": 0.0,
			"-0.024": 0.0,
			"-0.023": 0.0,
			"-0.022": 0.0,
			"-0.021": 0.0,
			"-0.02": 0.0,
			"-0.019": 0.0,
			"-0.018": 0.0,
			"-0.017": 0.0,
			"-0.016": 0.0,
			"-0.015": 0.0,
			"-0.014": 0.0,
			"-0.013": 0.0,
			"-0.012": 0.0,
			"-0.011": 0.0,
			"-0.01": 0.0,
			"-0.009": 0.0259798624503,
			"-0.008": 2.40909777873,
			"-0.007": 13.1086350563,
			"-0.006": 27.1009808228,
			"-0.005": 34.4990408206,
			"-0.004": 35.425159025,
			"-0.003": 34.4416201551,
			"-0.002": 30.5862662342,
			"-0.001": 29.4836552574,
			"0.0": 26.7630086153,
			"0.001": 31.9942626627,
			"0.002": 30.4913771905,
			"0.003": 17.0121362987,
			"0.004": 16.1381286381,
			"0.005": 20.0784238766,
			"0.006": 12.3374840458,
			"0.007": 10.8214340556,
			"0.008": 12.697461605,
			"0.009": 7.3264500007,
			"0.01": 4.23986046245,
			"0.011": 1.58343448213,
			"0.012": 1.52889498308,
			"0.013": 1.70920358298,
			"0.014": 3.77681558761,
			"0.015": 0.580939149995,
			"0.016": 0.0,
			"0.017": 0.0,
			"0.018": 0.0,
			"0.019": 0.0,
			"0.02": 0.0,
			"0.021": 0.0,
			"0.022": 0.0,
			"0.023": 0.0,
			"0.024": 0.0,
			"0.025": 0.0
		}
	}
}
