{
	 "smiles": "COCCN1C(=O)NC(=O)C(NCC2=CC=CC=C2)=C1N", 
	 "Tm": 425.15, 
	 "num_atms": 39, 
	 "gaussian": { 
		 "optdone": 1, 
		 "sigma_profile": "yes", 
		 "theory": "DFT", 
		 "functional": "B3LYP", 
		 "basiset": "6-31G**", 
		 "properties": { 
			 "R2extent": 6644.6587, 
			 "electric_dipole_moment_norm": 6.11373441605, 
			 "electric_quadrupole_moment_norm": 11.366210167, 
			 "total_energy": -989.034342797, 
			 "HOMO_LUMO_gap": 0.16089, 
			 "cosmo_polarized_energy": -20.56, 
			 "cosmo_cavitation_energy": 41.57, 
			 "cosmo_dispersion_energy": -28.47, 
			 "cosmo_repulsion_energy": 2.23, 
			 "cosmo_total_nonelectrostatic_energy": 15.32, 
			 "SMD_solvation_energy": 7.29 
		},
		"coords": [
			{
				"x": -0.4685824191,
				"y": 4.4230841901,
				"z": 1.5543707782,
				"element": "C" 
			},
			{
				"x": 0.3752346678,
				"y": 3.32874976,
				"z": 1.8671074998,
				"element": "O" 
			},
			{
				"x": 1.7037260091,
				"y": 3.480089829,
				"z": 1.3888537544,
				"element": "C" 
			},
			{
				"x": 2.4716101456,
				"y": 2.1864905493,
				"z": 1.6308059785,
				"element": "C" 
			},
			{
				"x": 2.1009235118,
				"y": 1.0849458606,
				"z": 0.7330695324,
				"element": "N" 
			},
			{
				"x": 2.9069350538,
				"y": 0.9334593183,
				"z": -0.3911686395,
				"element": "C" 
			},
			{
				"x": 3.7713344714,
				"y": 1.7414397032,
				"z": -0.7136090615,
				"element": "O" 
			},
			{
				"x": 2.6682379281,
				"y": -0.2267357851,
				"z": -1.0976944922,
				"element": "N" 
			},
			{
				"x": 1.7599330303,
				"y": -1.2582853498,
				"z": -0.8185363387,
				"element": "C" 
			},
			{
				"x": 1.7457327632,
				"y": -2.2545686993,
				"z": -1.5390066329,
				"element": "O" 
			},
			{
				"x": 0.8795353525,
				"y": -0.9771324668,
				"z": 0.3069989328,
				"element": "C" 
			},
			{
				"x": -0.1151791115,
				"y": -1.8930702861,
				"z": 0.6953654864,
				"element": "N" 
			},
			{
				"x": -0.9169322833,
				"y": -2.6129920923,
				"z": -0.3186857448,
				"element": "C" 
			},
			{
				"x": -1.8050037614,
				"y": -1.732938287,
				"z": -1.1823958796,
				"element": "C" 
			},
			{
				"x": -1.3797481294,
				"y": -1.3014162129,
				"z": -2.4463903734,
				"element": "C" 
			},
			{
				"x": -2.1866002707,
				"y": -0.4663131738,
				"z": -3.2221157882,
				"element": "C" 
			},
			{
				"x": -3.4313577212,
				"y": -0.0507522135,
				"z": -2.7460132386,
				"element": "C" 
			},
			{
				"x": -3.8679078341,
				"y": -0.4783189736,
				"z": -1.4898330124,
				"element": "C" 
			},
			{
				"x": -3.0594695969,
				"y": -1.3131472088,
				"z": -0.7180777176,
				"element": "C" 
			},
			{
				"x": 1.0770447453,
				"y": 0.1679169192,
				"z": 1.040321686,
				"element": "C" 
			},
			{
				"x": 0.2447556821,
				"y": 0.4361092433,
				"z": 2.132456046,
				"element": "N" 
			},
			{
				"x": -0.1010686436,
				"y": 5.3549251386,
				"z": 2.0087668587,
				"element": "H" 
			},
			{
				"x": -1.4572840612,
				"y": 4.1955566543,
				"z": 1.9578869218,
				"element": "H" 
			},
			{
				"x": -0.5491020246,
				"y": 4.5697674484,
				"z": 0.4678827099,
				"element": "H" 
			},
			{
				"x": 2.2071166802,
				"y": 4.3029982586,
				"z": 1.9219390025,
				"element": "H" 
			},
			{
				"x": 1.7103682371,
				"y": 3.7181349565,
				"z": 0.3155507099,
				"element": "H" 
			},
			{
				"x": 2.3330863643,
				"y": 1.8604445105,
				"z": 2.6644970111,
				"element": "H" 
			},
			{
				"x": 3.530992243,
				"y": 2.3796820544,
				"z": 1.4576316324,
				"element": "H" 
			},
			{
				"x": 3.2679136323,
				"y": -0.3780569119,
				"z": -1.899279775,
				"element": "H" 
			},
			{
				"x": -0.7255235232,
				"y": -1.4242720879,
				"z": 1.3603044612,
				"element": "H" 
			},
			{
				"x": -0.2303303659,
				"y": -3.1861998867,
				"z": -0.9392711942,
				"element": "H" 
			},
			{
				"x": -1.5371121875,
				"y": -3.3188327104,
				"z": 0.2446419841,
				"element": "H" 
			},
			{
				"x": -0.4136694954,
				"y": -1.6307472681,
				"z": -2.8185105,
				"element": "H" 
			},
			{
				"x": -1.8444819084,
				"y": -0.1442492791,
				"z": -4.2020891584,
				"element": "H" 
			},
			{
				"x": -4.0605785563,
				"y": 0.5957457058,
				"z": -3.351536562,
				"element": "H" 
			},
			{
				"x": -4.8401753358,
				"y": -0.1682180661,
				"z": -1.116169585,
				"element": "H" 
			},
			{
				"x": -3.4098826577,
				"y": -1.6510297291,
				"z": 0.2556271325,
				"element": "H" 
			},
			{
				"x": 0.4152195535,
				"y": -0.1360145322,
				"z": 2.9521458733,
				"element": "H" 
			},
			{
				"x": 0.1224898158,
				"y": 1.4226511205,
				"z": 2.341459702,
				"element": "H" 
			}
		],
		 "valence_orbital": [ 
			{
				"type": "occ",
				"energy": -0.26988,
				"method": "rhf"
			},
			{
				"type": "occ",
				"energy": -0.24937,
				"method": "rhf"
			},
			{
				"type": "occ",
				"energy": -0.24114,
				"method": "rhf"
			},
			{
				"type": "occ",
				"energy": -0.23706,
				"method": "rhf"
			},
			{
				"type": "occ",
				"energy": -0.18147,
				"method": "rhf"
			},
			{
				"type": "unocc",
				"energy": -0.02058,
				"method": "rhf"
			},
			{
				"type": "unocc",
				"energy": 0.00455,
				"method": "rhf"
			},
			{
				"type": "unocc",
				"energy": 0.0082,
				"method": "rhf"
			},
			{
				"type": "unocc",
				"energy": 0.02677,
				"method": "rhf"
			},
			{
				"type": "unocc",
				"energy": 0.07231,
				"method": "rhf"
			}
		],
		"cosmo_sigma_profile": { 
			"-0.025": 0.0,
			"-0.024": 0.0,
			"-0.023": 0.0,
			"-0.022": 0.0,
			"-0.021": 0.0,
			"-0.02": 0.0,
			"-0.019": 0.0,
			"-0.018": 0.0,
			"-0.017": 0.0,
			"-0.016": 0.142770038308,
			"-0.015": 0.641120250695,
			"-0.014": 0.834547159487,
			"-0.013": 2.10486176361,
			"-0.012": 2.56065435159,
			"-0.011": 1.23480510806,
			"-0.01": 1.90459025697,
			"-0.009": 2.46640495838,
			"-0.008": 3.77193028815,
			"-0.007": 5.67092145885,
			"-0.006": 11.5840485042,
			"-0.005": 25.5677729523,
			"-0.004": 35.172070069,
			"-0.003": 34.713511615,
			"-0.002": 29.1987436729,
			"-0.001": 21.6841594663,
			"0.0": 21.0329512032,
			"0.001": 15.8501123973,
			"0.002": 14.7682467052,
			"0.003": 15.3190678557,
			"0.004": 14.3987619869,
			"0.005": 13.2699396084,
			"0.006": 14.0915404294,
			"0.007": 6.40015703732,
			"0.008": 4.65936288734,
			"0.009": 4.64652468231,
			"0.01": 3.7501627141,
			"0.011": 3.91568133053,
			"0.012": 4.61487792204,
			"0.013": 9.05488200797,
			"0.014": 3.23968803539,
			"0.015": 0.299511017098,
			"0.016": 0.0,
			"0.017": 0.0,
			"0.018": 0.0,
			"0.019": 0.0,
			"0.02": 0.0,
			"0.021": 0.0,
			"0.022": 0.0,
			"0.023": 0.0,
			"0.024": 0.0,
			"0.025": 0.0
		}
	}
}
