{
	 "smiles": "OC(=O)C(=O)CC1=CC=CS1", 
	 "Tm": 437.15, 
	 "num_atms": 17, 
	 "gaussian": { 
		 "optdone": 1, 
		 "sigma_profile": "yes", 
		 "theory": "DFT", 
		 "functional": "B3LYP", 
		 "basiset": "6-31G**", 
		 "properties": { 
			 "R2extent": 3097.0863, 
			 "electric_dipole_moment_norm": 1.13273991719, 
			 "electric_quadrupole_moment_norm": 10.3933365494, 
			 "total_energy": -894.198362256, 
			 "HOMO_LUMO_gap": 0.14923, 
			 "cosmo_polarized_energy": -12.32, 
			 "cosmo_cavitation_energy": 24.09, 
			 "cosmo_dispersion_energy": -17.57, 
			 "cosmo_repulsion_energy": 1.39, 
			 "cosmo_total_nonelectrostatic_energy": 7.91, 
			 "SMD_solvation_energy": 6.14 
		},
		"coords": [
			{
				"x": 1.8081871736,
				"y": -0.835686556,
				"z": -2.4793951764,
				"element": "O" 
			},
			{
				"x": 1.625645563,
				"y": -1.5862029879,
				"z": -1.3851530594,
				"element": "C" 
			},
			{
				"x": 1.7723990372,
				"y": -2.7888123757,
				"z": -1.3420723728,
				"element": "O" 
			},
			{
				"x": 1.2388744534,
				"y": -0.7421897955,
				"z": -0.150581283,
				"element": "C" 
			},
			{
				"x": 1.3429359737,
				"y": 0.4627061309,
				"z": -0.1648528941,
				"element": "O" 
			},
			{
				"x": 0.7287363118,
				"y": -1.5447080937,
				"z": 1.0396136578,
				"element": "C" 
			},
			{
				"x": -0.7196540325,
				"y": -1.9138869268,
				"z": 0.8242162252,
				"element": "C" 
			},
			{
				"x": -1.8117087585,
				"y": -1.0905809243,
				"z": 0.9474426076,
				"element": "C" 
			},
			{
				"x": -3.0468395555,
				"y": -1.743059087,
				"z": 0.6589472552,
				"element": "C" 
			},
			{
				"x": -2.8805343529,
				"y": -3.056155819,
				"z": 0.3121055564,
				"element": "C" 
			},
			{
				"x": -1.2093172636,
				"y": -3.5132786843,
				"z": 0.3256143755,
				"element": "S" 
			},
			{
				"x": 2.0649249023,
				"y": -1.4439670903,
				"z": -3.1935501957,
				"element": "H" 
			},
			{
				"x": 1.3435426031,
				"y": -2.4386965864,
				"z": 1.1685199294,
				"element": "H" 
			},
			{
				"x": 0.8249637069,
				"y": -0.9096835701,
				"z": 1.9240761501,
				"element": "H" 
			},
			{
				"x": -1.7292423309,
				"y": -0.0495527569,
				"z": 1.2411700319,
				"element": "H" 
			},
			{
				"x": -4.0140407117,
				"y": -1.2563144085,
				"z": 0.7107428326,
				"element": "H" 
			},
			{
				"x": -3.6372727194,
				"y": -3.7821304685,
				"z": 0.0487563598,
				"element": "H" 
			}
		],
		 "valence_orbital": [ 
			{
				"type": "occ",
				"energy": -0.33791,
				"method": "rhf"
			},
			{
				"type": "occ",
				"energy": -0.32614,
				"method": "rhf"
			},
			{
				"type": "occ",
				"energy": -0.26739,
				"method": "rhf"
			},
			{
				"type": "occ",
				"energy": -0.25416,
				"method": "rhf"
			},
			{
				"type": "occ",
				"energy": -0.23131,
				"method": "rhf"
			},
			{
				"type": "unocc",
				"energy": -0.08208,
				"method": "rhf"
			},
			{
				"type": "unocc",
				"energy": -0.0144,
				"method": "rhf"
			},
			{
				"type": "unocc",
				"energy": 0.02444,
				"method": "rhf"
			},
			{
				"type": "unocc",
				"energy": 0.05347,
				"method": "rhf"
			},
			{
				"type": "unocc",
				"energy": 0.05934,
				"method": "rhf"
			}
		],
		"cosmo_sigma_profile": { 
			"-0.025": 0.0,
			"-0.024": 0.0,
			"-0.023": 0.0,
			"-0.022": 0.0,
			"-0.021": 0.0,
			"-0.02": 0.106123273212,
			"-0.019": 1.29656066731,
			"-0.018": 0.600810793449,
			"-0.017": 0.783198522788,
			"-0.016": 1.06653576526,
			"-0.015": 1.20104820862,
			"-0.014": 0.364469202025,
			"-0.013": 0.56190582254,
			"-0.012": 0.940504637535,
			"-0.011": 0.794668280183,
			"-0.01": 0.542884266831,
			"-0.009": 1.15325179775,
			"-0.008": 4.03703733544,
			"-0.007": 8.00271344579,
			"-0.006": 12.151699929,
			"-0.005": 14.7048852066,
			"-0.004": 11.524768032,
			"-0.003": 11.7205412412,
			"-0.002": 10.1018060783,
			"-0.001": 9.19863971869,
			"0.0": 10.1511826567,
			"0.001": 9.56700086558,
			"0.002": 11.4233127808,
			"0.003": 13.257352626,
			"0.004": 13.8837330393,
			"0.005": 11.2404100425,
			"0.006": 5.58859463966,
			"0.007": 4.57565132877,
			"0.008": 5.86117511006,
			"0.009": 6.05592849144,
			"0.01": 8.42147369391,
			"0.011": 3.50822664584,
			"0.012": 0.413513278994,
			"0.013": 0.0,
			"0.014": 0.0,
			"0.015": 0.0,
			"0.016": 0.0,
			"0.017": 0.0,
			"0.018": 0.0,
			"0.019": 0.0,
			"0.02": 0.0,
			"0.021": 0.0,
			"0.022": 0.0,
			"0.023": 0.0,
			"0.024": 0.0,
			"0.025": 0.0
		}
	}
}
