{
	 "smiles": "CCNC(=O)NCCO", 
	 "Tm": 327.15, 
	 "num_atms": 21, 
	 "gaussian": { 
		 "optdone": 1, 
		 "sigma_profile": "yes", 
		 "theory": "DFT", 
		 "functional": "B3LYP", 
		 "basiset": "6-31G**", 
		 "properties": { 
			 "R2extent": 1843.4069, 
			 "electric_dipole_moment_norm": 4.16577948648, 
			 "electric_quadrupole_moment_norm": 14.9322444371, 
			 "total_energy": -457.729879527, 
			 "HOMO_LUMO_gap": 0.29406, 
			 "cosmo_polarized_energy": -16.16, 
			 "cosmo_cavitation_energy": 24.02, 
			 "cosmo_dispersion_energy": -17.61, 
			 "cosmo_repulsion_energy": 1.52, 
			 "cosmo_total_nonelectrostatic_energy": 7.93, 
			 "SMD_solvation_energy": 3.89 
		},
		"coords": [
			{
				"x": -1.9317168287,
				"y": 0.0215293652,
				"z": 2.4532657904,
				"element": "C" 
			},
			{
				"x": -2.3420232411,
				"y": -0.0141059724,
				"z": 0.9809511231,
				"element": "C" 
			},
			{
				"x": -1.193572184,
				"y": -0.1908052019,
				"z": 0.0868040569,
				"element": "N" 
			},
			{
				"x": -0.4400647035,
				"y": 0.9272332693,
				"z": -0.2440405602,
				"element": "C" 
			},
			{
				"x": -0.6289629486,
				"y": 2.0262952065,
				"z": 0.2696015164,
				"element": "O" 
			},
			{
				"x": 0.5373572646,
				"y": 0.7258418786,
				"z": -1.1998973368,
				"element": "N" 
			},
			{
				"x": 1.203079785,
				"y": -0.525536012,
				"z": -1.5230795787,
				"element": "C" 
			},
			{
				"x": 2.6996553626,
				"y": -0.4377244053,
				"z": -1.2376728156,
				"element": "C" 
			},
			{
				"x": 3.2090023642,
				"y": 0.6424687221,
				"z": -2.0121222514,
				"element": "O" 
			},
			{
				"x": -1.4190611916,
				"y": -0.902249548,
				"z": 2.7401208439,
				"element": "H" 
			},
			{
				"x": -2.8131466953,
				"y": 0.1422284169,
				"z": 3.0923810891,
				"element": "H" 
			},
			{
				"x": -1.2606855805,
				"y": 0.8651349663,
				"z": 2.6301164581,
				"element": "H" 
			},
			{
				"x": -2.8700504135,
				"y": 0.9115356781,
				"z": 0.7245383895,
				"element": "H" 
			},
			{
				"x": -3.0221059786,
				"y": -0.8525726942,
				"z": 0.7980526651,
				"element": "H" 
			},
			{
				"x": -1.3047471072,
				"y": -0.8829359797,
				"z": -0.6395823906,
				"element": "H" 
			},
			{
				"x": 1.0852420239,
				"y": 1.5570245627,
				"z": -1.3793240138,
				"element": "H" 
			},
			{
				"x": 1.0615192509,
				"y": -0.7827342087,
				"z": -2.5822333062,
				"element": "H" 
			},
			{
				"x": 0.781117563,
				"y": -1.3337790918,
				"z": -0.9196489151,
				"element": "H" 
			},
			{
				"x": 2.8541385056,
				"y": -0.2672688139,
				"z": -0.1619537196,
				"element": "H" 
			},
			{
				"x": 3.1807075495,
				"y": -1.3910183216,
				"z": -1.5084350202,
				"element": "H" 
			},
			{
				"x": 4.0977172031,
				"y": 0.8523381837,
				"z": -1.7017420243,
				"element": "H" 
			}
		],
		 "valence_orbital": [ 
			{
				"type": "occ",
				"energy": -0.33606,
				"method": "rhf"
			},
			{
				"type": "occ",
				"energy": -0.28422,
				"method": "rhf"
			},
			{
				"type": "occ",
				"energy": -0.25057,
				"method": "rhf"
			},
			{
				"type": "occ",
				"energy": -0.23945,
				"method": "rhf"
			},
			{
				"type": "occ",
				"energy": -0.23319,
				"method": "rhf"
			},
			{
				"type": "unocc",
				"energy": 0.06087,
				"method": "rhf"
			},
			{
				"type": "unocc",
				"energy": 0.06358,
				"method": "rhf"
			},
			{
				"type": "unocc",
				"energy": 0.08744,
				"method": "rhf"
			},
			{
				"type": "unocc",
				"energy": 0.10997,
				"method": "rhf"
			},
			{
				"type": "unocc",
				"energy": 0.12747,
				"method": "rhf"
			}
		],
		"cosmo_sigma_profile": { 
			"-0.025": 0.0,
			"-0.024": 0.0,
			"-0.023": 0.0,
			"-0.022": 0.0,
			"-0.021": 0.0,
			"-0.02": 0.0,
			"-0.019": 0.0,
			"-0.018": 0.0,
			"-0.017": 0.0729679923482,
			"-0.016": 0.820712841315,
			"-0.015": 1.15831757981,
			"-0.014": 1.07361623402,
			"-0.013": 1.9019230479,
			"-0.012": 2.40054365788,
			"-0.011": 1.71026741388,
			"-0.01": 2.57589516358,
			"-0.009": 1.88235627496,
			"-0.008": 2.36992684267,
			"-0.007": 4.29321586389,
			"-0.006": 3.99220552946,
			"-0.005": 7.608089067,
			"-0.004": 16.4509470746,
			"-0.003": 19.7640811716,
			"-0.002": 17.7286737979,
			"-0.001": 16.2654463007,
			"0.0": 13.6201168228,
			"0.001": 12.4995809489,
			"0.002": 8.6886362898,
			"0.003": 5.79826454405,
			"0.004": 6.04996393475,
			"0.005": 4.84517807576,
			"0.006": 3.53266982543,
			"0.007": 3.26751025754,
			"0.008": 3.47435110957,
			"0.009": 3.078025581,
			"0.01": 2.88271040243,
			"0.011": 2.20975057268,
			"0.012": 2.28078034167,
			"0.013": 2.69215411681,
			"0.014": 3.87507733764,
			"0.015": 4.98306650319,
			"0.016": 0.569951708393,
			"0.017": 0.0,
			"0.018": 0.0,
			"0.019": 0.0,
			"0.02": 0.0,
			"0.021": 0.0,
			"0.022": 0.0,
			"0.023": 0.0,
			"0.024": 0.0,
			"0.025": 0.0
		}
	}
}
