{
	 "smiles": "CC1C(OC(=O)N1C1=C(N)C=CC=N1)C(F)(F)F", 
	 "Tm": 336.15, 
	 "num_atms": 28, 
	 "gaussian": { 
		 "optdone": 1, 
		 "sigma_profile": "yes", 
		 "theory": "DFT", 
		 "functional": "B3LYP", 
		 "basiset": "6-31G**", 
		 "properties": { 
			 "R2extent": 5947.8348, 
			 "electric_dipole_moment_norm": 3.11709832376, 
			 "electric_quadrupole_moment_norm": 17.4682152846, 
			 "total_energy": -1001.3435986, 
			 "HOMO_LUMO_gap": 0.18519, 
			 "cosmo_polarized_energy": -13.21, 
			 "cosmo_cavitation_energy": 32.08, 
			 "cosmo_dispersion_energy": -22.84, 
			 "cosmo_repulsion_energy": 1.69, 
			 "cosmo_total_nonelectrostatic_energy": 10.93, 
			 "SMD_solvation_energy": 6.44 
		},
		"coords": [
			{
				"x": -0.8798816418,
				"y": 2.6859410593,
				"z": -0.9887486104,
				"element": "C" 
			},
			{
				"x": -1.3376768114,
				"y": 1.2355012066,
				"z": -0.8539115783,
				"element": "C" 
			},
			{
				"x": -2.5909790266,
				"y": 0.8058191385,
				"z": -1.6599861215,
				"element": "C" 
			},
			{
				"x": -2.332081524,
				"y": -0.5403528252,
				"z": -2.063942781,
				"element": "O" 
			},
			{
				"x": -0.9942453374,
				"y": -0.8121482016,
				"z": -1.9512597553,
				"element": "C" 
			},
			{
				"x": -0.5195048323,
				"y": -1.8592251952,
				"z": -2.3369414036,
				"element": "O" 
			},
			{
				"x": -0.3581773996,
				"y": 0.2555175521,
				"z": -1.3611910028,
				"element": "N" 
			},
			{
				"x": 0.9518076952,
				"y": 0.1780207279,
				"z": -0.7942702938,
				"element": "C" 
			},
			{
				"x": 2.0661625785,
				"y": -0.2729041409,
				"z": -1.5505121958,
				"element": "C" 
			},
			{
				"x": 1.9639595988,
				"y": -0.6398032642,
				"z": -2.8828833961,
				"element": "N" 
			},
			{
				"x": 3.3023838895,
				"y": -0.2456682756,
				"z": -0.883964954,
				"element": "C" 
			},
			{
				"x": 3.3957885152,
				"y": 0.2208842701,
				"z": 0.4224722647,
				"element": "C" 
			},
			{
				"x": 2.2347236984,
				"y": 0.6513082788,
				"z": 1.0593452677,
				"element": "C" 
			},
			{
				"x": 1.0414492745,
				"y": 0.6224734202,
				"z": 0.4561131531,
				"element": "N" 
			},
			{
				"x": -2.9137418221,
				"y": 1.6040767081,
				"z": -2.9263589164,
				"element": "C" 
			},
			{
				"x": -1.863389982,
				"y": 1.6756750537,
				"z": -3.7660197193,
				"element": "F" 
			},
			{
				"x": -3.9329432517,
				"y": 1.0310451317,
				"z": -3.5874266776,
				"element": "F" 
			},
			{
				"x": -3.288829165,
				"y": 2.8624469322,
				"z": -2.6083733475,
				"element": "F" 
			},
			{
				"x": -1.6757393489,
				"y": 3.3631523772,
				"z": -0.6689520306,
				"element": "H" 
			},
			{
				"x": -0.6070428406,
				"y": 2.9252696064,
				"z": -2.0179515348,
				"element": "H" 
			},
			{
				"x": -0.0152028808,
				"y": 2.8447924359,
				"z": -0.3433491078,
				"element": "H" 
			},
			{
				"x": -1.5231438447,
				"y": 1.025889501,
				"z": 0.2055399417,
				"element": "H" 
			},
			{
				"x": -3.4939540222,
				"y": 0.8193302849,
				"z": -1.0446846238,
				"element": "H" 
			},
			{
				"x": 1.1416432832,
				"y": -1.200858997,
				"z": -3.0913357897,
				"element": "H" 
			},
			{
				"x": 2.8089187383,
				"y": -1.0546827355,
				"z": -3.2536304833,
				"element": "H" 
			},
			{
				"x": 4.190224185,
				"y": -0.5824411676,
				"z": -1.4136270022,
				"element": "H" 
			},
			{
				"x": 4.3521401355,
				"y": 0.2503786687,
				"z": 0.9346419096,
				"element": "H" 
			},
			{
				"x": 2.2537321388,
				"y": 1.0329624495,
				"z": 2.0770087884,
				"element": "H" 
			}
		],
		 "valence_orbital": [ 
			{
				"type": "occ",
				"energy": -0.30375,
				"method": "rhf"
			},
			{
				"type": "occ",
				"energy": -0.29499,
				"method": "rhf"
			},
			{
				"type": "occ",
				"energy": -0.27101,
				"method": "rhf"
			},
			{
				"type": "occ",
				"energy": -0.26217,
				"method": "rhf"
			},
			{
				"type": "occ",
				"energy": -0.21298,
				"method": "rhf"
			},
			{
				"type": "unocc",
				"energy": -0.02779,
				"method": "rhf"
			},
			{
				"type": "unocc",
				"energy": -0.00237,
				"method": "rhf"
			},
			{
				"type": "unocc",
				"energy": 0.03102,
				"method": "rhf"
			},
			{
				"type": "unocc",
				"energy": 0.06989,
				"method": "rhf"
			},
			{
				"type": "unocc",
				"energy": 0.07999,
				"method": "rhf"
			}
		],
		"cosmo_sigma_profile": { 
			"-0.025": 0.0,
			"-0.024": 0.0,
			"-0.023": 0.0,
			"-0.022": 0.0,
			"-0.021": 0.0,
			"-0.02": 0.0,
			"-0.019": 0.0,
			"-0.018": 0.0,
			"-0.017": 0.0,
			"-0.016": 0.0,
			"-0.015": 0.0,
			"-0.014": 0.0,
			"-0.013": 0.636703531857,
			"-0.012": 1.61880500687,
			"-0.011": 2.15902184576,
			"-0.01": 6.10984694659,
			"-0.009": 5.06342104354,
			"-0.008": 5.56916287588,
			"-0.007": 7.73053153587,
			"-0.006": 10.1844654073,
			"-0.005": 12.932860236,
			"-0.004": 11.0635209497,
			"-0.003": 13.4491393427,
			"-0.002": 13.9407487268,
			"-0.001": 17.5554100511,
			"0.0": 20.8902002658,
			"0.001": 19.7600718824,
			"0.002": 38.5690600347,
			"0.003": 21.448342001,
			"0.004": 9.73066419496,
			"0.005": 5.78448337771,
			"0.006": 4.89093382397,
			"0.007": 4.48281288534,
			"0.008": 5.02287480626,
			"0.009": 4.45584351455,
			"0.01": 4.01073798251,
			"0.011": 4.70131721995,
			"0.012": 2.62554714232,
			"0.013": 0.816819262996,
			"0.014": 0.414504881695,
			"0.015": 0.0,
			"0.016": 0.0,
			"0.017": 0.0,
			"0.018": 0.0,
			"0.019": 0.0,
			"0.02": 0.0,
			"0.021": 0.0,
			"0.022": 0.0,
			"0.023": 0.0,
			"0.024": 0.0,
			"0.025": 0.0
		}
	}
}
