{
	 "smiles": "ON=C(CBr)C1=CC=C(F)C=C1", 
	 "Tm": 360.15, 
	 "num_atms": 19, 
	 "gaussian": { 
		 "optdone": 1, 
		 "sigma_profile": "yes", 
		 "theory": "DFT", 
		 "functional": "B3LYP", 
		 "basiset": "6-31G**", 
		 "properties": { 
			 "R2extent": 4282.3498, 
			 "electric_dipole_moment_norm": 2.12344074794, 
			 "electric_quadrupole_moment_norm": 14.935664562, 
			 "total_energy": -3110.22323085, 
			 "HOMO_LUMO_gap": 0.18822, 
			 "cosmo_polarized_energy": -9.96, 
			 "cosmo_cavitation_energy": 26.22, 
			 "cosmo_dispersion_energy": -19.23, 
			 "cosmo_repulsion_energy": 1.54, 
			 "cosmo_total_nonelectrostatic_energy": 8.53, 
			 "SMD_solvation_energy": 3.89 
		},
		"coords": [
			{
				"x": 0.1223857261,
				"y": -2.1671888315,
				"z": 2.5040152617,
				"element": "O" 
			},
			{
				"x": 0.8634525134,
				"y": -1.0522795526,
				"z": 2.8949789595,
				"element": "N" 
			},
			{
				"x": 1.0794826272,
				"y": -0.1971506939,
				"z": 1.9512602459,
				"element": "C" 
			},
			{
				"x": 1.8254508152,
				"y": 1.0011356598,
				"z": 2.4655149269,
				"element": "C" 
			},
			{
				"x": 3.6442981386,
				"y": 1.1569285702,
				"z": 1.6655087451,
				"element": "Br" 
			},
			{
				"x": 0.6812464071,
				"y": -0.27365831,
				"z": 0.5237007584,
				"element": "C" 
			},
			{
				"x": 0.5987101217,
				"y": -1.499598761,
				"z": -0.1640712666,
				"element": "C" 
			},
			{
				"x": 0.2491347301,
				"y": -1.5446429626,
				"z": -1.5105329969,
				"element": "C" 
			},
			{
				"x": -0.0309948046,
				"y": -0.3558797032,
				"z": -2.1744660101,
				"element": "C" 
			},
			{
				"x": -0.3782724756,
				"y": -0.3968561119,
				"z": -3.4751990191,
				"element": "F" 
			},
			{
				"x": 0.0413042252,
				"y": 0.8749917781,
				"z": -1.5331717102,
				"element": "C" 
			},
			{
				"x": 0.4067011318,
				"y": 0.9070845397,
				"z": -0.1905492515,
				"element": "C" 
			},
			{
				"x": 0.0431919223,
				"y": -2.6560005544,
				"z": 3.3343671864,
				"element": "H" 
			},
			{
				"x": 1.9754240179,
				"y": 0.9109451442,
				"z": 3.5379228221,
				"element": "H" 
			},
			{
				"x": 1.3416950963,
				"y": 1.9474726472,
				"z": 2.2301283572,
				"element": "H" 
			},
			{
				"x": 0.8141671615,
				"y": -2.4208728912,
				"z": 0.3587938696,
				"element": "H" 
			},
			{
				"x": 0.1915036987,
				"y": -2.4849515142,
				"z": -2.0478131911,
				"element": "H" 
			},
			{
				"x": -0.1790152011,
				"y": 1.7827850318,
				"z": -2.0837752825,
				"element": "H" 
			},
			{
				"x": 0.4701341482,
				"y": 1.8720365154,
				"z": 0.3000875952,
				"element": "H" 
			}
		],
		 "valence_orbital": [ 
			{
				"type": "occ",
				"energy": -0.28644,
				"method": "rhf"
			},
			{
				"type": "occ",
				"energy": -0.27321,
				"method": "rhf"
			},
			{
				"type": "occ",
				"energy": -0.27187,
				"method": "rhf"
			},
			{
				"type": "occ",
				"energy": -0.26581,
				"method": "rhf"
			},
			{
				"type": "occ",
				"energy": -0.23828,
				"method": "rhf"
			},
			{
				"type": "unocc",
				"energy": -0.05006,
				"method": "rhf"
			},
			{
				"type": "unocc",
				"energy": -0.01747,
				"method": "rhf"
			},
			{
				"type": "unocc",
				"energy": -0.00818,
				"method": "rhf"
			},
			{
				"type": "unocc",
				"energy": 0.04687,
				"method": "rhf"
			},
			{
				"type": "unocc",
				"energy": 0.06653,
				"method": "rhf"
			}
		],
		"cosmo_sigma_profile": { 
			"-0.025": 0.0,
			"-0.024": 0.0,
			"-0.023": 0.0,
			"-0.022": 0.0,
			"-0.021": 0.0,
			"-0.02": 0.0,
			"-0.019": 0.0172368554816,
			"-0.018": 0.691886998327,
			"-0.017": 1.37726299446,
			"-0.016": 0.562167112404,
			"-0.015": 0.950447170093,
			"-0.014": 0.559425607669,
			"-0.013": 0.486344241561,
			"-0.012": 0.487168989284,
			"-0.011": 1.06958728572,
			"-0.01": 2.61436901027,
			"-0.009": 2.86444775127,
			"-0.008": 4.64999883351,
			"-0.007": 8.28099826578,
			"-0.006": 8.99975434741,
			"-0.005": 11.1467903607,
			"-0.004": 8.05169400485,
			"-0.003": 9.32180931445,
			"-0.002": 9.27438160404,
			"-0.001": 10.299323343,
			"0.0": 15.5594062022,
			"0.001": 15.5968125777,
			"0.002": 17.9797055704,
			"0.003": 22.7088859211,
			"0.004": 24.47768175,
			"0.005": 14.394198304,
			"0.006": 11.7181125683,
			"0.007": 3.10934931766,
			"0.008": 2.37446083295,
			"0.009": 1.27741679118,
			"0.01": 1.43508937541,
			"0.011": 0.659253743664,
			"0.012": 0.148287710199,
			"0.013": 0.0,
			"0.014": 0.0,
			"0.015": 0.0,
			"0.016": 0.0,
			"0.017": 0.0,
			"0.018": 0.0,
			"0.019": 0.0,
			"0.02": 0.0,
			"0.021": 0.0,
			"0.022": 0.0,
			"0.023": 0.0,
			"0.024": 0.0,
			"0.025": 0.0
		}
	}
}
