{
	 "smiles": "O=C1CC2CCCC(C1)N2CC1=CC=CS1", 
	 "Tm": 362.15, 
	 "num_atms": 33, 
	 "gaussian": { 
		 "optdone": 1, 
		 "sigma_profile": "yes", 
		 "theory": "DFT", 
		 "functional": "B3LYP", 
		 "basiset": "6-31G**", 
		 "properties": { 
			 "R2extent": 4770.4729, 
			 "electric_dipole_moment_norm": 2.54951084328, 
			 "electric_quadrupole_moment_norm": 19.4866178569, 
			 "total_energy": -1033.7744501, 
			 "HOMO_LUMO_gap": 0.20302, 
			 "cosmo_polarized_energy": -9.91, 
			 "cosmo_cavitation_energy": 34.18, 
			 "cosmo_dispersion_energy": -24.86, 
			 "cosmo_repulsion_energy": 1.87, 
			 "cosmo_total_nonelectrostatic_energy": 11.19, 
			 "SMD_solvation_energy": 4.27 
		},
		"coords": [
			{
				"x": -2.0787868026,
				"y": -1.5169094319,
				"z": 4.3991719669,
				"element": "O" 
			},
			{
				"x": -1.8209591675,
				"y": -1.1927040893,
				"z": 3.2545535593,
				"element": "C" 
			},
			{
				"x": -0.759228051,
				"y": -1.9022322906,
				"z": 2.4253508953,
				"element": "C" 
			},
			{
				"x": 0.0235473863,
				"y": -0.9579389198,
				"z": 1.486593276,
				"element": "C" 
			},
			{
				"x": 1.0320876769,
				"y": -0.0594551813,
				"z": 2.2406449485,
				"element": "C" 
			},
			{
				"x": 0.3342991083,
				"y": 0.990023232,
				"z": 3.1236182884,
				"element": "C" 
			},
			{
				"x": -0.7593197155,
				"y": 1.7317783191,
				"z": 2.336206396,
				"element": "C" 
			},
			{
				"x": -1.6950386576,
				"y": 0.7563470049,
				"z": 1.584707559,
				"element": "C" 
			},
			{
				"x": -2.578351076,
				"y": -0.0840383084,
				"z": 2.5346325923,
				"element": "C" 
			},
			{
				"x": -0.9624189303,
				"y": -0.1779883954,
				"z": 0.7102618679,
				"element": "N" 
			},
			{
				"x": -0.4412664649,
				"y": 0.4146981963,
				"z": -0.5204625309,
				"element": "C" 
			},
			{
				"x": -0.1835737953,
				"y": -0.6318092136,
				"z": -1.5776831738,
				"element": "C" 
			},
			{
				"x": -0.9166735848,
				"y": -1.753718702,
				"z": -1.8638580911,
				"element": "C" 
			},
			{
				"x": -0.407764077,
				"y": -2.4951397351,
				"z": -2.9740493885,
				"element": "C" 
			},
			{
				"x": 0.708346985,
				"y": -1.9290213105,
				"z": -3.5243110825,
				"element": "C" 
			},
			{
				"x": 1.1592879043,
				"y": -0.4787805309,
				"z": -2.6838194991,
				"element": "S" 
			},
			{
				"x": -1.2867868207,
				"y": -2.6335949879,
				"z": 1.7985152386,
				"element": "H" 
			},
			{
				"x": -0.0996060466,
				"y": -2.4553131925,
				"z": 3.1001133986,
				"element": "H" 
			},
			{
				"x": 0.5749516403,
				"y": -1.579108357,
				"z": 0.7736163545,
				"element": "H" 
			},
			{
				"x": 1.7036155758,
				"y": -0.6846511728,
				"z": 2.8410014603,
				"element": "H" 
			},
			{
				"x": 1.6670165914,
				"y": 0.4501409906,
				"z": 1.5044483184,
				"element": "H" 
			},
			{
				"x": 1.0701460839,
				"y": 1.7055203968,
				"z": 3.5083960394,
				"element": "H" 
			},
			{
				"x": -0.1018268011,
				"y": 0.5082643898,
				"z": 4.006621168,
				"element": "H" 
			},
			{
				"x": -0.289888436,
				"y": 2.3986820243,
				"z": 1.6008841216,
				"element": "H" 
			},
			{
				"x": -1.3483988381,
				"y": 2.372934322,
				"z": 3.0029804652,
				"element": "H" 
			},
			{
				"x": -2.3634603592,
				"y": 1.3443930604,
				"z": 0.9443623087,
				"element": "H" 
			},
			{
				"x": -3.0876902758,
				"y": 0.5334120341,
				"z": 3.2801064757,
				"element": "H" 
			},
			{
				"x": -3.3473296612,
				"y": -0.5771321568,
				"z": 1.9251147221,
				"element": "H" 
			},
			{
				"x": -1.2027367179,
				"y": 1.1156405494,
				"z": -0.8877451174,
				"element": "H" 
			},
			{
				"x": 0.4734163976,
				"y": 1.0168646179,
				"z": -0.3761270659,
				"element": "H" 
			},
			{
				"x": -1.7907516799,
				"y": -2.0333411337,
				"z": -1.2878150283,
				"element": "H" 
			},
			{
				"x": -0.8551996212,
				"y": -3.4107312799,
				"z": -3.3447605008,
				"element": "H" 
			},
			{
				"x": 1.2941402304,
				"y": -2.2719907486,
				"z": -4.3656699424,
				"element": "H" 
			}
		],
		 "valence_orbital": [ 
			{
				"type": "occ",
				"energy": -0.31394,
				"method": "rhf"
			},
			{
				"type": "occ",
				"energy": -0.25027,
				"method": "rhf"
			},
			{
				"type": "occ",
				"energy": -0.23532,
				"method": "rhf"
			},
			{
				"type": "occ",
				"energy": -0.22938,
				"method": "rhf"
			},
			{
				"type": "occ",
				"energy": -0.21613,
				"method": "rhf"
			},
			{
				"type": "unocc",
				"energy": -0.01311,
				"method": "rhf"
			},
			{
				"type": "unocc",
				"energy": -0.01038,
				"method": "rhf"
			},
			{
				"type": "unocc",
				"energy": 0.02671,
				"method": "rhf"
			},
			{
				"type": "unocc",
				"energy": 0.05956,
				"method": "rhf"
			},
			{
				"type": "unocc",
				"energy": 0.07302,
				"method": "rhf"
			}
		],
		"cosmo_sigma_profile": { 
			"-0.025": 0.0,
			"-0.024": 0.0,
			"-0.023": 0.0,
			"-0.022": 0.0,
			"-0.021": 0.0,
			"-0.02": 0.0,
			"-0.019": 0.0,
			"-0.018": 0.0,
			"-0.017": 0.0,
			"-0.016": 0.0,
			"-0.015": 0.0,
			"-0.014": 0.0,
			"-0.013": 0.0,
			"-0.012": 0.0,
			"-0.011": 0.0,
			"-0.01": 0.0,
			"-0.009": 0.0168317068848,
			"-0.008": 1.49231745997,
			"-0.007": 1.79133836859,
			"-0.006": 6.48890673979,
			"-0.005": 14.754504187,
			"-0.004": 24.5678202933,
			"-0.003": 37.8640488691,
			"-0.002": 35.1455817041,
			"-0.001": 30.517704077,
			"0.0": 23.2620894478,
			"0.001": 16.4083347182,
			"0.002": 11.3910332934,
			"0.003": 12.050171418,
			"0.004": 12.808275556,
			"0.005": 13.1788453421,
			"0.006": 8.09947485141,
			"0.007": 2.82921259104,
			"0.008": 1.76252061425,
			"0.009": 1.80978638783,
			"0.01": 1.6544981583,
			"0.011": 2.43856037572,
			"0.012": 4.31038608332,
			"0.013": 3.75492646258,
			"0.014": 1.05503254339,
			"0.015": 0.0,
			"0.016": 0.0,
			"0.017": 0.0,
			"0.018": 0.0,
			"0.019": 0.0,
			"0.02": 0.0,
			"0.021": 0.0,
			"0.022": 0.0,
			"0.023": 0.0,
			"0.024": 0.0,
			"0.025": 0.0
		}
	}
}
