{
	 "smiles": "COC1=C2OC(=O)SC2=CC(C=O)=C1", 
	 "Tm": 434.15, 
	 "num_atms": 20, 
	 "gaussian": { 
		 "optdone": 1, 
		 "sigma_profile": "yes", 
		 "theory": "DFT", 
		 "functional": "B3LYP", 
		 "basiset": "6-31G**", 
		 "properties": { 
			 "R2extent": 3393.3407, 
			 "electric_dipole_moment_norm": 4.4083863465, 
			 "electric_quadrupole_moment_norm": 28.5674738258, 
			 "total_energy": -1045.63566731, 
			 "HOMO_LUMO_gap": 0.17169, 
			 "cosmo_polarized_energy": -13.13, 
			 "cosmo_cavitation_energy": 27.4, 
			 "cosmo_dispersion_energy": -20.6, 
			 "cosmo_repulsion_energy": 1.56, 
			 "cosmo_total_nonelectrostatic_energy": 8.35, 
			 "SMD_solvation_energy": 7.69 
		},
		"coords": [
			{
				"x": -0.6670693127,
				"y": -4.0416180895,
				"z": 0.4249058762,
				"element": "C" 
			},
			{
				"x": -0.9622195434,
				"y": -2.6524265291,
				"z": 0.5199433865,
				"element": "O" 
			},
			{
				"x": -0.001411781,
				"y": -1.77235548,
				"z": 0.153563632,
				"element": "C" 
			},
			{
				"x": -0.3244082541,
				"y": -0.4104853655,
				"z": 0.2593493954,
				"element": "C" 
			},
			{
				"x": -1.5470175337,
				"y": 0.0070767334,
				"z": 0.7095437135,
				"element": "O" 
			},
			{
				"x": -1.68298893,
				"y": 1.3809528041,
				"z": 0.7455918319,
				"element": "C" 
			},
			{
				"x": -2.6796354866,
				"y": 1.9275045602,
				"z": 1.1111860962,
				"element": "O" 
			},
			{
				"x": -0.1645563276,
				"y": 2.1749411476,
				"z": 0.1731479396,
				"element": "S" 
			},
			{
				"x": 0.5797652679,
				"y": 0.5960034509,
				"z": -0.0872691321,
				"element": "C" 
			},
			{
				"x": 1.8499935831,
				"y": 0.2837135876,
				"z": -0.5561108331,
				"element": "C" 
			},
			{
				"x": 2.1855770543,
				"y": -1.0706110731,
				"z": -0.6666727609,
				"element": "C" 
			},
			{
				"x": 3.5296708959,
				"y": -1.4490559393,
				"z": -1.1621935957,
				"element": "C" 
			},
			{
				"x": 4.3906257286,
				"y": -0.6563143473,
				"z": -1.4904329334,
				"element": "O" 
			},
			{
				"x": 1.2765349948,
				"y": -2.0853842156,
				"z": -0.3181743961,
				"element": "C" 
			},
			{
				"x": 0.1767708368,
				"y": -4.316449766,
				"z": 1.0694985849,
				"element": "H" 
			},
			{
				"x": -1.5646778124,
				"y": -4.5588595565,
				"z": 0.7640376566,
				"element": "H" 
			},
			{
				"x": -0.447210926,
				"y": -4.3342004218,
				"z": -0.6090949835,
				"element": "H" 
			},
			{
				"x": 2.5776157869,
				"y": 1.0373818519,
				"z": -0.8343681673,
				"element": "H" 
			},
			{
				"x": 3.7100536811,
				"y": -2.5458076273,
				"z": -1.2178745782,
				"element": "H" 
			},
			{
				"x": 1.583388078,
				"y": -3.1205057247,
				"z": -0.4213767325,
				"element": "H" 
			}
		],
		 "valence_orbital": [ 
			{
				"type": "occ",
				"energy": -0.31522,
				"method": "rhf"
			},
			{
				"type": "occ",
				"energy": -0.30666,
				"method": "rhf"
			},
			{
				"type": "occ",
				"energy": -0.26762,
				"method": "rhf"
			},
			{
				"type": "occ",
				"energy": -0.25251,
				"method": "rhf"
			},
			{
				"type": "occ",
				"energy": -0.24702,
				"method": "rhf"
			},
			{
				"type": "unocc",
				"energy": -0.07533,
				"method": "rhf"
			},
			{
				"type": "unocc",
				"energy": -0.02675,
				"method": "rhf"
			},
			{
				"type": "unocc",
				"energy": -0.01547,
				"method": "rhf"
			},
			{
				"type": "unocc",
				"energy": -0.00929,
				"method": "rhf"
			},
			{
				"type": "unocc",
				"energy": 0.03102,
				"method": "rhf"
			}
		],
		"cosmo_sigma_profile": { 
			"-0.025": 0.0,
			"-0.024": 0.0,
			"-0.023": 0.0,
			"-0.022": 0.0,
			"-0.021": 0.0,
			"-0.02": 0.0,
			"-0.019": 0.0,
			"-0.018": 0.0,
			"-0.017": 0.0,
			"-0.016": 0.0,
			"-0.015": 0.0,
			"-0.014": 0.0,
			"-0.013": 0.0,
			"-0.012": 0.0,
			"-0.011": 0.0,
			"-0.01": 0.0614341446991,
			"-0.009": 2.4866150578,
			"-0.008": 6.05795453311,
			"-0.007": 9.90005068837,
			"-0.006": 15.8727702678,
			"-0.005": 14.8595019212,
			"-0.004": 16.082817847,
			"-0.003": 15.1309989448,
			"-0.002": 15.6670278625,
			"-0.001": 21.3936584255,
			"0.0": 18.5787262939,
			"0.001": 17.2480902289,
			"0.002": 9.76414384815,
			"0.003": 7.52360796376,
			"0.004": 5.99071590048,
			"0.005": 5.05023223068,
			"0.006": 6.08673039896,
			"0.007": 5.37731417574,
			"0.008": 6.85776865511,
			"0.009": 8.89646255483,
			"0.01": 7.54742507081,
			"0.011": 4.25670800581,
			"0.012": 2.12474824901,
			"0.013": 0.325084687138,
			"0.014": 0.0,
			"0.015": 0.0,
			"0.016": 0.0,
			"0.017": 0.0,
			"0.018": 0.0,
			"0.019": 0.0,
			"0.02": 0.0,
			"0.021": 0.0,
			"0.022": 0.0,
			"0.023": 0.0,
			"0.024": 0.0,
			"0.025": 0.0
		}
	}
}
