{
	 "smiles": "O=C1CCC(=O)N1CC1CO1", 
	 "Tm": 335.15, 
	 "num_atms": 20, 
	 "gaussian": { 
		 "optdone": 1, 
		 "sigma_profile": "yes", 
		 "theory": "DFT", 
		 "functional": "B3LYP", 
		 "basiset": "6-31G**", 
		 "properties": { 
			 "R2extent": 2045.3791, 
			 "electric_dipole_moment_norm": 3.55567277881, 
			 "electric_quadrupole_moment_norm": 9.9618963004, 
			 "total_energy": -552.57786834, 
			 "HOMO_LUMO_gap": 0.23934, 
			 "cosmo_polarized_energy": -13.97, 
			 "cosmo_cavitation_energy": 23.94, 
			 "cosmo_dispersion_energy": -17.32, 
			 "cosmo_repulsion_energy": 1.42, 
			 "cosmo_total_nonelectrostatic_energy": 8.03, 
			 "SMD_solvation_energy": 5.16 
		},
		"coords": [
			{
				"x": 0.6483409289,
				"y": 0.8561647551,
				"z": 0.9419850678,
				"element": "O" 
			},
			{
				"x": 0.5819593381,
				"y": -0.0848489895,
				"z": 0.1782879849,
				"element": "C" 
			},
			{
				"x": 1.7147750351,
				"y": -1.0076128724,
				"z": -0.2629219427,
				"element": "C" 
			},
			{
				"x": 1.0647900953,
				"y": -2.0146938587,
				"z": -1.2254321914,
				"element": "C" 
			},
			{
				"x": -0.4081474666,
				"y": -1.6193670701,
				"z": -1.2859697095,
				"element": "C" 
			},
			{
				"x": -1.2925632719,
				"y": -2.1459045999,
				"z": -1.9272701174,
				"element": "O" 
			},
			{
				"x": -0.5874754498,
				"y": -0.5133091506,
				"z": -0.4513867778,
				"element": "N" 
			},
			{
				"x": -1.8814889896,
				"y": 0.1309760464,
				"z": -0.2483196483,
				"element": "C" 
			},
			{
				"x": -2.0944579773,
				"y": 1.3024809303,
				"z": -1.1880219072,
				"element": "C" 
			},
			{
				"x": -1.6976723219,
				"y": 2.6623117088,
				"z": -0.7975094323,
				"element": "C" 
			},
			{
				"x": -3.0727949087,
				"y": 2.2490236601,
				"z": -0.7560424416,
				"element": "O" 
			},
			{
				"x": 2.4995327968,
				"y": -0.4030979578,
				"z": -0.72640327,
				"element": "H" 
			},
			{
				"x": 2.1531173627,
				"y": -1.4722062189,
				"z": 0.6248047988,
				"element": "H" 
			},
			{
				"x": 1.1345386976,
				"y": -3.0516723783,
				"z": -0.8850847398,
				"element": "H" 
			},
			{
				"x": 1.4786985318,
				"y": -1.983006139,
				"z": -2.237217086,
				"element": "H" 
			},
			{
				"x": -1.9276263746,
				"y": 0.4838611709,
				"z": 0.7844105278,
				"element": "H" 
			},
			{
				"x": -2.6494723769,
				"y": -0.6294926353,
				"z": -0.410876363,
				"element": "H" 
			},
			{
				"x": -2.13791694,
				"y": 1.0472963594,
				"z": -2.2484673323,
				"element": "H" 
			},
			{
				"x": -1.4562210039,
				"y": 3.394056513,
				"z": -1.5679741484,
				"element": "H" 
			},
			{
				"x": -1.2193157048,
				"y": 2.8142407264,
				"z": 0.1685087283,
				"element": "H" 
			}
		],
		 "valence_orbital": [ 
			{
				"type": "occ",
				"energy": -0.31082,
				"method": "rhf"
			},
			{
				"type": "occ",
				"energy": -0.29528,
				"method": "rhf"
			},
			{
				"type": "occ",
				"energy": -0.28694,
				"method": "rhf"
			},
			{
				"type": "occ",
				"energy": -0.26926,
				"method": "rhf"
			},
			{
				"type": "occ",
				"energy": -0.26544,
				"method": "rhf"
			},
			{
				"type": "unocc",
				"energy": -0.0261,
				"method": "rhf"
			},
			{
				"type": "unocc",
				"energy": 0.01577,
				"method": "rhf"
			},
			{
				"type": "unocc",
				"energy": 0.07664,
				"method": "rhf"
			},
			{
				"type": "unocc",
				"energy": 0.09718,
				"method": "rhf"
			},
			{
				"type": "unocc",
				"energy": 0.11074,
				"method": "rhf"
			}
		],
		"cosmo_sigma_profile": { 
			"-0.025": 0.0,
			"-0.024": 0.0,
			"-0.023": 0.0,
			"-0.022": 0.0,
			"-0.021": 0.0,
			"-0.02": 0.0,
			"-0.019": 0.0,
			"-0.018": 0.0,
			"-0.017": 0.0,
			"-0.016": 0.0,
			"-0.015": 0.0,
			"-0.014": 0.0,
			"-0.013": 0.0,
			"-0.012": 0.0,
			"-0.011": 0.0,
			"-0.01": 0.0,
			"-0.009": 0.0,
			"-0.008": 1.07715532136,
			"-0.007": 15.5717717483,
			"-0.006": 21.6162963488,
			"-0.005": 18.2729928398,
			"-0.004": 20.661674051,
			"-0.003": 18.3363195093,
			"-0.002": 11.923739379,
			"-0.001": 7.74795776588,
			"0.0": 6.09454025076,
			"0.001": 4.89733009014,
			"0.002": 4.48558228593,
			"0.003": 5.24683119515,
			"0.004": 4.43716641771,
			"0.005": 4.30303134128,
			"0.006": 4.14833162718,
			"0.007": 3.36136024301,
			"0.008": 4.51491839911,
			"0.009": 5.23431538238,
			"0.01": 5.93805961261,
			"0.011": 9.78214301044,
			"0.012": 9.37724628103,
			"0.013": 2.20240985207,
			"0.014": 0.0016765387794,
			"0.015": 0.0,
			"0.016": 0.0,
			"0.017": 0.0,
			"0.018": 0.0,
			"0.019": 0.0,
			"0.02": 0.0,
			"0.021": 0.0,
			"0.022": 0.0,
			"0.023": 0.0,
			"0.024": 0.0,
			"0.025": 0.0
		}
	}
}
