{
	 "smiles": "CCOC1=CC=C2NC(S)=NC2=C1", 
	 "Tm": 522.15, 
	 "num_atms": 23, 
	 "gaussian": { 
		 "optdone": 1, 
		 "sigma_profile": "yes", 
		 "theory": "DFT", 
		 "functional": "B3LYP", 
		 "basiset": "6-31G**", 
		 "properties": { 
			 "R2extent": 4241.7969, 
			 "electric_dipole_moment_norm": 4.84829142379, 
			 "electric_quadrupole_moment_norm": 19.1682021244, 
			 "total_energy": -931.892070918, 
			 "HOMO_LUMO_gap": 0.18056, 
			 "cosmo_polarized_energy": -17.52, 
			 "cosmo_cavitation_energy": 28.51, 
			 "cosmo_dispersion_energy": -21.9, 
			 "cosmo_repulsion_energy": 1.7, 
			 "cosmo_total_nonelectrostatic_energy": 8.31, 
			 "SMD_solvation_energy": 2.43 
		},
		"coords": [
			{
				"x": 1.9753849825,
				"y": -0.1754033853,
				"z": 3.4727623289,
				"element": "C" 
			},
			{
				"x": 0.7109323222,
				"y": -1.0273771966,
				"z": 3.4044317294,
				"element": "C" 
			},
			{
				"x": -0.2196523434,
				"y": -0.5588927391,
				"z": 2.4300743974,
				"element": "O" 
			},
			{
				"x": -0.0312217923,
				"y": -0.8389590517,
				"z": 1.1007725166,
				"element": "C" 
			},
			{
				"x": 1.0012346232,
				"y": -1.6648889371,
				"z": 0.602135222,
				"element": "C" 
			},
			{
				"x": 1.1230486107,
				"y": -1.9259449398,
				"z": -0.7643097845,
				"element": "C" 
			},
			{
				"x": 0.1858919686,
				"y": -1.3496519345,
				"z": -1.6143652405,
				"element": "C" 
			},
			{
				"x": -0.0014139649,
				"y": -1.3756572154,
				"z": -2.9923556359,
				"element": "N" 
			},
			{
				"x": -1.107335389,
				"y": -0.5910512455,
				"z": -3.249942252,
				"element": "C" 
			},
			{
				"x": -1.7963190727,
				"y": -0.4072382239,
				"z": -4.87188583,
				"element": "S" 
			},
			{
				"x": -1.6369381301,
				"y": -0.0563468499,
				"z": -2.1810457945,
				"element": "N" 
			},
			{
				"x": -0.8524781691,
				"y": -0.5182919005,
				"z": -1.1288774147,
				"element": "C" 
			},
			{
				"x": -0.9630488769,
				"y": -0.2560743855,
				"z": 0.2372088007,
				"element": "C" 
			},
			{
				"x": 1.7164766246,
				"y": 0.8679792906,
				"z": 3.6740683469,
				"element": "H" 
			},
			{
				"x": 2.5392015138,
				"y": -0.2109189575,
				"z": 2.5366451998,
				"element": "H" 
			},
			{
				"x": 2.6262238332,
				"y": -0.5316966611,
				"z": 4.2785702048,
				"element": "H" 
			},
			{
				"x": 0.1654193062,
				"y": -0.9666480094,
				"z": 4.3507335766,
				"element": "H" 
			},
			{
				"x": 0.9473004127,
				"y": -2.0862604984,
				"z": 3.2351279543,
				"element": "H" 
			},
			{
				"x": 1.7206897035,
				"y": -2.1102397536,
				"z": 1.2777550839,
				"element": "H" 
			},
			{
				"x": 1.9241787401,
				"y": -2.5598179601,
				"z": -1.1321024089,
				"element": "H" 
			},
			{
				"x": 0.4720738534,
				"y": -1.9670695778,
				"z": -3.656526799,
				"element": "H" 
			},
			{
				"x": -0.6164994887,
				"y": -0.3162545944,
				"z": -5.5214771909,
				"element": "H" 
			},
			{
				"x": -1.7488492676,
				"y": 0.3773047263,
				"z": 0.6319029896,
				"element": "H" 
			}
		],
		 "valence_orbital": [ 
			{
				"type": "occ",
				"energy": -0.29927,
				"method": "rhf"
			},
			{
				"type": "occ",
				"energy": -0.27593,
				"method": "rhf"
			},
			{
				"type": "occ",
				"energy": -0.27114,
				"method": "rhf"
			},
			{
				"type": "occ",
				"energy": -0.22082,
				"method": "rhf"
			},
			{
				"type": "occ",
				"energy": -0.20221,
				"method": "rhf"
			},
			{
				"type": "unocc",
				"energy": -0.02165,
				"method": "rhf"
			},
			{
				"type": "unocc",
				"energy": 0.0135,
				"method": "rhf"
			},
			{
				"type": "unocc",
				"energy": 0.03168,
				"method": "rhf"
			},
			{
				"type": "unocc",
				"energy": 0.05115,
				"method": "rhf"
			},
			{
				"type": "unocc",
				"energy": 0.06396,
				"method": "rhf"
			}
		],
		"cosmo_sigma_profile": { 
			"-0.025": 0.0,
			"-0.024": 0.0,
			"-0.023": 0.0,
			"-0.022": 0.0,
			"-0.021": 0.0,
			"-0.02": 0.0,
			"-0.019": 0.0,
			"-0.018": 0.0,
			"-0.017": 0.403401348093,
			"-0.016": 1.77621955493,
			"-0.015": 1.85592872971,
			"-0.014": 1.63621807022,
			"-0.013": 1.50625951791,
			"-0.012": 2.96431815644,
			"-0.011": 3.6099766363,
			"-0.01": 2.38524139808,
			"-0.009": 2.02262617771,
			"-0.008": 2.4691873939,
			"-0.007": 4.52993465199,
			"-0.006": 8.03199663535,
			"-0.005": 10.8633436564,
			"-0.004": 14.0799660783,
			"-0.003": 16.5384630537,
			"-0.002": 16.195115661,
			"-0.001": 13.3095738102,
			"0.0": 16.7702793868,
			"0.001": 16.5596132852,
			"0.002": 13.0827043491,
			"0.003": 12.8725942895,
			"0.004": 16.3759456565,
			"0.005": 17.8018284547,
			"0.006": 7.74482987519,
			"0.007": 5.66772235483,
			"0.008": 4.01597667647,
			"0.009": 3.5152088129,
			"0.01": 2.50229231506,
			"0.011": 2.582545175,
			"0.012": 1.3573281023,
			"0.013": 0.992709136888,
			"0.014": 1.13207583937,
			"0.015": 0.692660547414,
			"0.016": 1.147137078,
			"0.017": 0.635275955983,
			"0.018": 0.035615760605,
			"0.019": 0.0,
			"0.02": 0.0,
			"0.021": 0.0,
			"0.022": 0.0,
			"0.023": 0.0,
			"0.024": 0.0,
			"0.025": 0.0
		}
	}
}
