{
	 "smiles": "NC1=CC=C(C=C1)N1CCCCC1", 
	 "Tm": 300.15, 
	 "num_atms": 29, 
	 "gaussian": { 
		 "optdone": 1, 
		 "sigma_profile": "yes", 
		 "theory": "DFT", 
		 "functional": "B3LYP", 
		 "basiset": "6-31G**", 
		 "properties": { 
			 "R2extent": 3893.7798, 
			 "electric_dipole_moment_norm": 1.37442379563, 
			 "electric_quadrupole_moment_norm": 10.1958091665, 
			 "total_energy": -538.314230777, 
			 "HOMO_LUMO_gap": 0.17144, 
			 "cosmo_polarized_energy": -8.85, 
			 "cosmo_cavitation_energy": 29.55, 
			 "cosmo_dispersion_energy": -22.24, 
			 "cosmo_repulsion_energy": 1.76, 
			 "cosmo_total_nonelectrostatic_energy": 9.07, 
			 "SMD_solvation_energy": 3.4 
		},
		"coords": [
			{
				"x": -2.123500802,
				"y": -5.5914969804,
				"z": -0.8178796766,
				"element": "N" 
			},
			{
				"x": -1.6964509794,
				"y": -4.2494257072,
				"z": -0.7453685604,
				"element": "C" 
			},
			{
				"x": -0.4284663749,
				"y": -3.8639220878,
				"z": -1.2000260627,
				"element": "C" 
			},
			{
				"x": 0.0252712361,
				"y": -2.5537273633,
				"z": -1.0653269341,
				"element": "C" 
			},
			{
				"x": -0.7782042052,
				"y": -1.5541221311,
				"z": -0.4783903166,
				"element": "C" 
			},
			{
				"x": -2.0572952206,
				"y": -1.9474765127,
				"z": -0.0312776231,
				"element": "C" 
			},
			{
				"x": -2.497893252,
				"y": -3.2623975072,
				"z": -0.1554773093,
				"element": "C" 
			},
			{
				"x": -0.337319434,
				"y": -0.235810555,
				"z": -0.3538046064,
				"element": "N" 
			},
			{
				"x": -0.9316838519,
				"y": 0.6617931695,
				"z": 0.6330765397,
				"element": "C" 
			},
			{
				"x": 0.1122083608,
				"y": 1.6479069264,
				"z": 1.1709310581,
				"element": "C" 
			},
			{
				"x": 0.7264885105,
				"y": 2.5148658062,
				"z": 0.0512469268,
				"element": "C" 
			},
			{
				"x": 0.7490377931,
				"y": 1.7571669253,
				"z": -1.2950413264,
				"element": "C" 
			},
			{
				"x": 0.8195853718,
				"y": 0.2380149516,
				"z": -1.1032483859,
				"element": "C" 
			},
			{
				"x": -1.6996549764,
				"y": -6.1072268299,
				"z": -1.5790788843,
				"element": "H" 
			},
			{
				"x": -3.1305358752,
				"y": -5.6911131909,
				"z": -0.8521620085,
				"element": "H" 
			},
			{
				"x": 0.2267249831,
				"y": -4.6058601289,
				"z": -1.6517134879,
				"element": "H" 
			},
			{
				"x": 1.0273447363,
				"y": -2.3178647314,
				"z": -1.4054258114,
				"element": "H" 
			},
			{
				"x": -2.7325529448,
				"y": -1.2142762286,
				"z": 0.3959225192,
				"element": "H" 
			},
			{
				"x": -3.4907641194,
				"y": -3.5234081026,
				"z": 0.2049433756,
				"element": "H" 
			},
			{
				"x": -1.7917799791,
				"y": 1.2180389762,
				"z": 0.2194731164,
				"element": "H" 
			},
			{
				"x": -1.3183200979,
				"y": 0.061794785,
				"z": 1.4640604626,
				"element": "H" 
			},
			{
				"x": -0.3466644748,
				"y": 2.2771505338,
				"z": 1.9414719336,
				"element": "H" 
			},
			{
				"x": 0.899127037,
				"y": 1.0682236974,
				"z": 1.6678006367,
				"element": "H" 
			},
			{
				"x": 0.1566761235,
				"y": 3.4437785946,
				"z": -0.0653263824,
				"element": "H" 
			},
			{
				"x": 1.7416966719,
				"y": 2.8108865446,
				"z": 0.3389805426,
				"element": "H" 
			},
			{
				"x": 1.5937063654,
				"y": 2.0843741565,
				"z": -1.9110317653,
				"element": "H" 
			},
			{
				"x": -0.1604612031,
				"y": 1.9812205578,
				"z": -1.8646933006,
				"element": "H" 
			},
			{
				"x": 0.8208245244,
				"y": -0.2480691001,
				"z": -2.0852650831,
				"element": "H" 
			},
			{
				"x": 1.7746560768,
				"y": -0.0344184676,
				"z": -0.6171695861,
				"element": "H" 
			}
		],
		 "valence_orbital": [ 
			{
				"type": "occ",
				"energy": -0.31171,
				"method": "rhf"
			},
			{
				"type": "occ",
				"energy": -0.2987,
				"method": "rhf"
			},
			{
				"type": "occ",
				"energy": -0.23203,
				"method": "rhf"
			},
			{
				"type": "occ",
				"energy": -0.23124,
				"method": "rhf"
			},
			{
				"type": "occ",
				"energy": -0.15677,
				"method": "rhf"
			},
			{
				"type": "unocc",
				"energy": 0.01467,
				"method": "rhf"
			},
			{
				"type": "unocc",
				"energy": 0.04434,
				"method": "rhf"
			},
			{
				"type": "unocc",
				"energy": 0.0783,
				"method": "rhf"
			},
			{
				"type": "unocc",
				"energy": 0.09346,
				"method": "rhf"
			},
			{
				"type": "unocc",
				"energy": 0.11289,
				"method": "rhf"
			}
		],
		"cosmo_sigma_profile": { 
			"-0.025": 0.0,
			"-0.024": 0.0,
			"-0.023": 0.0,
			"-0.022": 0.0,
			"-0.021": 0.0,
			"-0.02": 0.0,
			"-0.019": 0.0,
			"-0.018": 0.0,
			"-0.017": 0.0,
			"-0.016": 0.0,
			"-0.015": 0.0,
			"-0.014": 0.0,
			"-0.013": 0.0,
			"-0.012": 0.297740325779,
			"-0.011": 2.55011834938,
			"-0.01": 2.6267149566,
			"-0.009": 1.99976685083,
			"-0.008": 3.77901467944,
			"-0.007": 3.13821249,
			"-0.006": 3.11183113249,
			"-0.005": 5.62220695973,
			"-0.004": 10.0758926619,
			"-0.003": 22.3429046342,
			"-0.002": 36.6081933995,
			"-0.001": 39.5306973469,
			"0.0": 21.9399486122,
			"0.001": 14.4479616655,
			"0.002": 7.22865628297,
			"0.003": 5.63261833891,
			"0.004": 7.80168371761,
			"0.005": 7.17468780425,
			"0.006": 8.32035839643,
			"0.007": 9.53433366593,
			"0.008": 9.02418574967,
			"0.009": 2.28039701862,
			"0.01": 0.578678724441,
			"0.011": 0.868952071724,
			"0.012": 1.00748741134,
			"0.013": 0.550790808874,
			"0.014": 0.77828409786,
			"0.015": 0.688892217139,
			"0.016": 0.563166605717,
			"0.017": 0.312550442011,
			"0.018": 0.0,
			"0.019": 0.0,
			"0.02": 0.0,
			"0.021": 0.0,
			"0.022": 0.0,
			"0.023": 0.0,
			"0.024": 0.0,
			"0.025": 0.0
		}
	}
}
