{
	 "smiles": "OC(=O)CNS(=O)(=O)C1=CC(=C(Cl)C=C1)[N+]([O-])=O", 
	 "Tm": 424.15, 
	 "num_atms": 25, 
	 "gaussian": { 
		 "optdone": 1, 
		 "sigma_profile": "yes", 
		 "theory": "DFT", 
		 "functional": "B3LYP", 
		 "basiset": "6-31G**", 
		 "properties": { 
			 "R2extent": 7104.2811, 
			 "electric_dipole_moment_norm": 6.00906306674, 
			 "electric_quadrupole_moment_norm": 23.6574159307, 
			 "total_energy": -1728.11226164, 
			 "HOMO_LUMO_gap": 0.15549, 
			 "cosmo_polarized_energy": -24.35, 
			 "cosmo_cavitation_energy": 34.38, 
			 "cosmo_dispersion_energy": -24.92, 
			 "cosmo_repulsion_energy": 1.89, 
			 "cosmo_total_nonelectrostatic_energy": 11.35, 
			 "SMD_solvation_energy": 8.0 
		},
		"coords": [
			{
				"x": 1.1914564076,
				"y": -2.8685581843,
				"z": -2.1079776554,
				"element": "O" 
			},
			{
				"x": 1.9297706966,
				"y": -2.7168123141,
				"z": -0.9997403994,
				"element": "C" 
			},
			{
				"x": 2.9628363642,
				"y": -3.318077475,
				"z": -0.8280933274,
				"element": "O" 
			},
			{
				"x": 1.406259605,
				"y": -1.7268463189,
				"z": 0.0620892579,
				"element": "C" 
			},
			{
				"x": 0.0411865924,
				"y": -1.9724608552,
				"z": 0.5458031127,
				"element": "N" 
			},
			{
				"x": -1.2977285725,
				"y": -1.3873980833,
				"z": -0.2627790909,
				"element": "S" 
			},
			{
				"x": -0.910739863,
				"y": -1.0964941096,
				"z": -1.6587569485,
				"element": "O" 
			},
			{
				"x": -2.3958814669,
				"y": -2.2919031161,
				"z": 0.0690698384,
				"element": "O" 
			},
			{
				"x": -1.6259756605,
				"y": 0.2029729017,
				"z": 0.4966672479,
				"element": "C" 
			},
			{
				"x": -1.19521868,
				"y": 1.3656276279,
				"z": -0.1281200727,
				"element": "C" 
			},
			{
				"x": -1.4654505831,
				"y": 2.5989383463,
				"z": 0.4661623973,
				"element": "C" 
			},
			{
				"x": -2.1446800367,
				"y": 2.6714398625,
				"z": 1.6920679646,
				"element": "C" 
			},
			{
				"x": -2.4507463568,
				"y": 4.156341464,
				"z": 2.5347608787,
				"element": "Cl" 
			},
			{
				"x": -2.563950693,
				"y": 1.4817726461,
				"z": 2.3038336866,
				"element": "C" 
			},
			{
				"x": -2.3194076092,
				"y": 0.2505282855,
				"z": 1.7096395289,
				"element": "C" 
			},
			{
				"x": -1.0025650727,
				"y": 3.7885151176,
				"z": -0.2772548484,
				"element": "N" 
			},
			{
				"x": 0.0196430489,
				"y": 3.6475322777,
				"z": -0.9462974266,
				"element": "O" 
			},
			{
				"x": -1.6726636267,
				"y": 4.8104366218,
				"z": -0.201928773,
				"element": "O" 
			},
			{
				"x": 0.4246798726,
				"y": -2.2578858085,
				"z": -2.121766973,
				"element": "H" 
			},
			{
				"x": 2.0855840828,
				"y": -1.786862426,
				"z": 0.913667827,
				"element": "H" 
			},
			{
				"x": 1.4538606165,
				"y": -0.7067523111,
				"z": -0.3324536202,
				"element": "H" 
			},
			{
				"x": -0.1542563151,
				"y": -2.8960779998,
				"z": 0.9210119757,
				"element": "H" 
			},
			{
				"x": -0.6715159359,
				"y": 1.3370048653,
				"z": -1.075407008,
				"element": "H" 
			},
			{
				"x": -3.0866944994,
				"y": 1.539852858,
				"z": 3.2515281111,
				"element": "H" 
			},
			{
				"x": -2.6698023152,
				"y": -0.6635338723,
				"z": 2.1762743168,
				"element": "H" 
			}
		],
		 "valence_orbital": [ 
			{
				"type": "occ",
				"energy": -0.32412,
				"method": "rhf"
			},
			{
				"type": "occ",
				"energy": -0.31889,
				"method": "rhf"
			},
			{
				"type": "occ",
				"energy": -0.30761,
				"method": "rhf"
			},
			{
				"type": "occ",
				"energy": -0.29869,
				"method": "rhf"
			},
			{
				"type": "occ",
				"energy": -0.27166,
				"method": "rhf"
			},
			{
				"type": "unocc",
				"energy": -0.11617,
				"method": "rhf"
			},
			{
				"type": "unocc",
				"energy": -0.08279,
				"method": "rhf"
			},
			{
				"type": "unocc",
				"energy": -0.05014,
				"method": "rhf"
			},
			{
				"type": "unocc",
				"energy": -0.01494,
				"method": "rhf"
			},
			{
				"type": "unocc",
				"energy": -0.00866,
				"method": "rhf"
			}
		],
		"cosmo_sigma_profile": { 
			"-0.025": 0.0,
			"-0.024": 0.0,
			"-0.023": 0.0,
			"-0.022": 0.0,
			"-0.021": 0.0,
			"-0.02": 0.0,
			"-0.019": 0.0,
			"-0.018": 0.0,
			"-0.017": 0.283098631041,
			"-0.016": 1.37546643881,
			"-0.015": 0.971591053924,
			"-0.014": 1.60859218888,
			"-0.013": 1.13171702994,
			"-0.012": 0.952590309552,
			"-0.011": 1.70230821183,
			"-0.01": 5.46506848602,
			"-0.009": 10.689464432,
			"-0.008": 11.2443603719,
			"-0.007": 12.8747625806,
			"-0.006": 12.9003414548,
			"-0.005": 12.5275026157,
			"-0.004": 14.1401625264,
			"-0.003": 21.0393790409,
			"-0.002": 19.5053187511,
			"-0.001": 15.0285153903,
			"0.0": 10.904295956,
			"0.001": 12.7983180219,
			"0.002": 11.3650844873,
			"0.003": 11.1311853914,
			"0.004": 10.0036044291,
			"0.005": 8.59975471655,
			"0.006": 10.9134987758,
			"0.007": 15.5273215093,
			"0.008": 10.490559404,
			"0.009": 12.1736901119,
			"0.01": 8.32416894608,
			"0.011": 6.28008704028,
			"0.012": 4.66076210187,
			"0.013": 1.61094929284,
			"0.014": 0.0263812889356,
			"0.015": 0.0,
			"0.016": 0.0,
			"0.017": 0.0,
			"0.018": 0.0,
			"0.019": 0.0,
			"0.02": 0.0,
			"0.021": 0.0,
			"0.022": 0.0,
			"0.023": 0.0,
			"0.024": 0.0,
			"0.025": 0.0
		}
	}
}
