{
	 "smiles": "O=C1NCCSC1CC1=CC=CC=C1", 
	 "Tm": 381.15, 
	 "num_atms": 27, 
	 "gaussian": { 
		 "optdone": 1, 
		 "sigma_profile": "yes", 
		 "theory": "DFT", 
		 "functional": "B3LYP", 
		 "basiset": "6-31G**", 
		 "properties": { 
			 "R2extent": 3015.0191, 
			 "electric_dipole_moment_norm": 3.2356324714, 
			 "electric_quadrupole_moment_norm": 8.75612231185, 
			 "total_energy": -955.184953423, 
			 "HOMO_LUMO_gap": 0.22152, 
			 "cosmo_polarized_energy": -12.54, 
			 "cosmo_cavitation_energy": 30.09, 
			 "cosmo_dispersion_energy": -21.89, 
			 "cosmo_repulsion_energy": 1.68, 
			 "cosmo_total_nonelectrostatic_energy": 9.88, 
			 "SMD_solvation_energy": 3.96 
		},
		"coords": [
			{
				"x": -2.4488652498,
				"y": -1.5754833437,
				"z": -0.1083380971,
				"element": "O" 
			},
			{
				"x": -1.6669439207,
				"y": -0.7836830418,
				"z": 0.4122478542,
				"element": "C" 
			},
			{
				"x": -2.0908821317,
				"y": 0.4422423376,
				"z": 0.8296570594,
				"element": "N" 
			},
			{
				"x": -1.3598646306,
				"y": 1.5206867227,
				"z": 1.4894446967,
				"element": "C" 
			},
			{
				"x": 0.1091704332,
				"y": 1.5276258142,
				"z": 1.0958084822,
				"element": "C" 
			},
			{
				"x": 0.8928646785,
				"y": -0.0660360474,
				"z": 1.5255920969,
				"element": "S" 
			},
			{
				"x": -0.1940154663,
				"y": -1.1975876965,
				"z": 0.5510476913,
				"element": "C" 
			},
			{
				"x": 0.3855745467,
				"y": -1.5987562094,
				"z": -0.834698476,
				"element": "C" 
			},
			{
				"x": 0.4844051999,
				"y": -0.4818691151,
				"z": -1.851383661,
				"element": "C" 
			},
			{
				"x": 1.6792147553,
				"y": 0.2314171571,
				"z": -2.0254140805,
				"element": "C" 
			},
			{
				"x": 1.7630780139,
				"y": 1.2726441839,
				"z": -2.9523948974,
				"element": "C" 
			},
			{
				"x": 0.6520560031,
				"y": 1.6133515688,
				"z": -3.7261378261,
				"element": "C" 
			},
			{
				"x": -0.5409306557,
				"y": 0.9043933437,
				"z": -3.5683659477,
				"element": "C" 
			},
			{
				"x": -0.6238496028,
				"y": -0.1341633116,
				"z": -2.6399875642,
				"element": "C" 
			},
			{
				"x": -3.0876211988,
				"y": 0.5614412681,
				"z": 0.700802249,
				"element": "H" 
			},
			{
				"x": -1.825163709,
				"y": 2.4673602187,
				"z": 1.1880784359,
				"element": "H" 
			},
			{
				"x": -1.4478281513,
				"y": 1.4393131459,
				"z": 2.5813377433,
				"element": "H" 
			},
			{
				"x": 0.2342593093,
				"y": 1.7313897548,
				"z": 0.0295313758,
				"element": "H" 
			},
			{
				"x": 0.6446377529,
				"y": 2.2926129042,
				"z": 1.6642755714,
				"element": "H" 
			},
			{
				"x": -0.2258503418,
				"y": -2.1102367479,
				"z": 1.1548855264,
				"element": "H" 
			},
			{
				"x": 1.3745206872,
				"y": -2.0347306445,
				"z": -0.663280302,
				"element": "H" 
			},
			{
				"x": -0.2654897363,
				"y": -2.3916219083,
				"z": -1.2162710878,
				"element": "H" 
			},
			{
				"x": 2.5477436625,
				"y": -0.0327580396,
				"z": -1.4284677945,
				"element": "H" 
			},
			{
				"x": 2.6984847029,
				"y": 1.811899195,
				"z": -3.0746898514,
				"element": "H" 
			},
			{
				"x": 0.7178115647,
				"y": 2.4188419306,
				"z": -4.4521852504,
				"element": "H" 
			},
			{
				"x": -1.4075578929,
				"y": 1.1557666939,
				"z": -4.1737781454,
				"element": "H" 
			},
			{
				"x": -1.5525586225,
				"y": -0.6848601336,
				"z": -2.5195158011,
				"element": "H" 
			}
		],
		 "valence_orbital": [ 
			{
				"type": "occ",
				"energy": -0.25704,
				"method": "rhf"
			},
			{
				"type": "occ",
				"energy": -0.2522,
				"method": "rhf"
			},
			{
				"type": "occ",
				"energy": -0.2469,
				"method": "rhf"
			},
			{
				"type": "occ",
				"energy": -0.24276,
				"method": "rhf"
			},
			{
				"type": "occ",
				"energy": -0.22431,
				"method": "rhf"
			},
			{
				"type": "unocc",
				"energy": -0.00279,
				"method": "rhf"
			},
			{
				"type": "unocc",
				"energy": -0.00078,
				"method": "rhf"
			},
			{
				"type": "unocc",
				"energy": 0.0178,
				"method": "rhf"
			},
			{
				"type": "unocc",
				"energy": 0.03555,
				"method": "rhf"
			},
			{
				"type": "unocc",
				"energy": 0.07077,
				"method": "rhf"
			}
		],
		"cosmo_sigma_profile": { 
			"-0.025": 0.0,
			"-0.024": 0.0,
			"-0.023": 0.0,
			"-0.022": 0.0,
			"-0.021": 0.0,
			"-0.02": 0.0,
			"-0.019": 0.0,
			"-0.018": 0.0,
			"-0.017": 0.0,
			"-0.016": 0.0,
			"-0.015": 0.0216643549536,
			"-0.014": 0.671298096197,
			"-0.013": 1.17144054921,
			"-0.012": 1.31891423132,
			"-0.011": 0.793696048812,
			"-0.01": 0.831245930095,
			"-0.009": 1.30596155182,
			"-0.008": 1.30318741629,
			"-0.007": 6.08411427982,
			"-0.006": 10.545866411,
			"-0.005": 18.5973597163,
			"-0.004": 23.9783494937,
			"-0.003": 24.6254745615,
			"-0.002": 17.4389426088,
			"-0.001": 15.1723239125,
			"0.0": 14.9210704883,
			"0.001": 13.7371225563,
			"0.002": 13.9074835252,
			"0.003": 14.7070510718,
			"0.004": 13.5336910893,
			"0.005": 12.3085177637,
			"0.006": 9.23171569299,
			"0.007": 4.45580038459,
			"0.008": 2.75565002769,
			"0.009": 2.52176264222,
			"0.01": 2.35411378697,
			"0.011": 1.27568813706,
			"0.012": 1.56776092001,
			"0.013": 2.59019857721,
			"0.014": 4.74495489394,
			"0.015": 0.656901075682,
			"0.016": 0.0,
			"0.017": 0.0,
			"0.018": 0.0,
			"0.019": 0.0,
			"0.02": 0.0,
			"0.021": 0.0,
			"0.022": 0.0,
			"0.023": 0.0,
			"0.024": 0.0,
			"0.025": 0.0
		}
	}
}
