{
	 "smiles": "OC(=O)CC(C(O)=O)C1=CC=CC=C1", 
	 "Tm": 447.15, 
	 "num_atms": 24, 
	 "gaussian": { 
		 "optdone": 1, 
		 "sigma_profile": "yes", 
		 "theory": "DFT", 
		 "functional": "B3LYP", 
		 "basiset": "6-31G**", 
		 "properties": { 
			 "R2extent": 4085.231, 
			 "electric_dipole_moment_norm": 4.27972654968, 
			 "electric_quadrupole_moment_norm": 26.0851815834, 
			 "total_energy": -688.008558622, 
			 "HOMO_LUMO_gap": 0.22189, 
			 "cosmo_polarized_energy": -18.87, 
			 "cosmo_cavitation_energy": 28.42, 
			 "cosmo_dispersion_energy": -20.3, 
			 "cosmo_repulsion_energy": 1.61, 
			 "cosmo_total_nonelectrostatic_energy": 9.73, 
			 "SMD_solvation_energy": 6.97 
		},
		"coords": [
			{
				"x": 3.9054683682,
				"y": -1.731791022,
				"z": -1.3889511455,
				"element": "O" 
			},
			{
				"x": 3.5046001612,
				"y": -1.3679216858,
				"z": -0.1521985482,
				"element": "C" 
			},
			{
				"x": 4.3052171369,
				"y": -0.9562614483,
				"z": 0.6516056564,
				"element": "O" 
			},
			{
				"x": 2.0222303749,
				"y": -1.4998772993,
				"z": 0.2242440241,
				"element": "C" 
			},
			{
				"x": 0.9448158926,
				"y": -1.4439706897,
				"z": -0.9049228952,
				"element": "C" 
			},
			{
				"x": 0.8407507241,
				"y": -2.8069504516,
				"z": -1.5790580628,
				"element": "C" 
			},
			{
				"x": 1.6478822245,
				"y": -2.8628254363,
				"z": -2.6868838925,
				"element": "O" 
			},
			{
				"x": 0.2064429427,
				"y": -3.7639673436,
				"z": -1.2111475516,
				"element": "O" 
			},
			{
				"x": -0.3978048711,
				"y": -0.9666212153,
				"z": -0.3686672949,
				"element": "C" 
			},
			{
				"x": -1.131371873,
				"y": -1.7117719686,
				"z": 0.5656892618,
				"element": "C" 
			},
			{
				"x": -2.3377789476,
				"y": -1.2218933842,
				"z": 1.0654096565,
				"element": "C" 
			},
			{
				"x": -2.8272297147,
				"y": 0.0162593679,
				"z": 0.6437350251,
				"element": "C" 
			},
			{
				"x": -2.1033819017,
				"y": 0.7634808446,
				"z": -0.2853307742,
				"element": "C" 
			},
			{
				"x": -0.8968940978,
				"y": 0.2727862184,
				"z": -0.7874187119,
				"element": "C" 
			},
			{
				"x": 3.1855118493,
				"y": -2.0902985041,
				"z": -1.9370669441,
				"element": "H" 
			},
			{
				"x": 1.8324510309,
				"y": -0.683075068,
				"z": 0.9230794047,
				"element": "H" 
			},
			{
				"x": 1.9077510828,
				"y": -2.4253434209,
				"z": 0.8015897027,
				"element": "H" 
			},
			{
				"x": 1.2804914741,
				"y": -0.7300165572,
				"z": -1.6632957565,
				"element": "H" 
			},
			{
				"x": 1.5980592117,
				"y": -3.7722956471,
				"z": -3.030544854,
				"element": "H" 
			},
			{
				"x": -0.7700106784,
				"y": -2.6825488461,
				"z": 0.8854531969,
				"element": "H" 
			},
			{
				"x": -2.8974092277,
				"y": -1.8111834694,
				"z": 1.7860351912,
				"element": "H" 
			},
			{
				"x": -3.7665152915,
				"y": 0.3945646678,
				"z": 1.0364055692,
				"element": "H" 
			},
			{
				"x": -2.4747910262,
				"y": 1.7270660024,
				"z": -0.6217480433,
				"element": "H" 
			},
			{
				"x": -0.3372848441,
				"y": 0.8606563563,
				"z": -1.5110122139,
				"element": "H" 
			}
		],
		 "valence_orbital": [ 
			{
				"type": "occ",
				"energy": -0.3095,
				"method": "rhf"
			},
			{
				"type": "occ",
				"energy": -0.30394,
				"method": "rhf"
			},
			{
				"type": "occ",
				"energy": -0.27065,
				"method": "rhf"
			},
			{
				"type": "occ",
				"energy": -0.25997,
				"method": "rhf"
			},
			{
				"type": "occ",
				"energy": -0.25325,
				"method": "rhf"
			},
			{
				"type": "unocc",
				"energy": -0.03136,
				"method": "rhf"
			},
			{
				"type": "unocc",
				"energy": -0.01154,
				"method": "rhf"
			},
			{
				"type": "unocc",
				"energy": -0.00869,
				"method": "rhf"
			},
			{
				"type": "unocc",
				"energy": 0.01436,
				"method": "rhf"
			},
			{
				"type": "unocc",
				"energy": 0.04617,
				"method": "rhf"
			}
		],
		"cosmo_sigma_profile": { 
			"-0.025": 0.0,
			"-0.024": 0.0,
			"-0.023": 0.0,
			"-0.022": 0.0,
			"-0.021": 0.0,
			"-0.02": 0.0854235928371,
			"-0.019": 0.899642893673,
			"-0.018": 1.11885751679,
			"-0.017": 0.724278392555,
			"-0.016": 0.540951385775,
			"-0.015": 1.12168378096,
			"-0.014": 0.878303958348,
			"-0.013": 0.687046767944,
			"-0.012": 1.25327421727,
			"-0.011": 1.70150559467,
			"-0.01": 1.44684879908,
			"-0.009": 3.23889455926,
			"-0.008": 7.59896129896,
			"-0.007": 8.30045758396,
			"-0.006": 13.9914534859,
			"-0.005": 17.3951052348,
			"-0.004": 17.1786543892,
			"-0.003": 14.4744202779,
			"-0.002": 12.4319876054,
			"-0.001": 10.4009594781,
			"0.0": 8.97584159804,
			"0.001": 9.50613804094,
			"0.002": 10.8070012156,
			"0.003": 9.29920133359,
			"0.004": 11.448998843,
			"0.005": 13.8383506788,
			"0.006": 8.01617570343,
			"0.007": 3.60934956017,
			"0.008": 4.88933888484,
			"0.009": 5.87998528453,
			"0.01": 7.21889589262,
			"0.011": 7.30248343021,
			"0.012": 6.35578895323,
			"0.013": 2.92605357967,
			"0.014": 0.327689206002,
			"0.015": 0.0,
			"0.016": 0.0,
			"0.017": 0.0,
			"0.018": 0.0,
			"0.019": 0.0,
			"0.02": 0.0,
			"0.021": 0.0,
			"0.022": 0.0,
			"0.023": 0.0,
			"0.024": 0.0,
			"0.025": 0.0
		}
	}
}
