{
	 "smiles": "OC(=O)C1=C(I)C=C(Cl)C=C1", 
	 "Tm": 431.15, 
	 "num_atms": 15, 
	 "gaussian": { 
		 "optdone": 1, 
		 "sigma_profile": "yes", 
		 "theory": "DFT", 
		 "functional": "B3LYP", 
		 "basiset": "6-31G**", 
		 "properties": { 
			 "R2extent": 2647.1324, 
			 "electric_dipole_moment_norm": 3.19771925128, 
			 "electric_quadrupole_moment_norm": 15.3680832338, 
			 "total_energy": -891.180626441, 
			 "HOMO_LUMO_gap": 0.19631, 
			 "cosmo_polarized_energy": -10.59, 
			 "cosmo_cavitation_energy": 24.6, 
			 "cosmo_dispersion_energy": -19.78, 
			 "cosmo_repulsion_energy": 1.54, 
			 "cosmo_total_nonelectrostatic_energy": 6.36, 
			 "SMD_solvation_energy": 4.29 
		},
		"coords": [
			{
				"x": 0.5483234853,
				"y": -3.0615410917,
				"z": 2.4588384903,
				"element": "O" 
			},
			{
				"x": -0.2977513686,
				"y": -2.2661058805,
				"z": 1.7777656429,
				"element": "C" 
			},
			{
				"x": -1.4830178079,
				"y": -2.3060079534,
				"z": 2.0149073469,
				"element": "O" 
			},
			{
				"x": 0.2574769303,
				"y": -1.2796443856,
				"z": 0.7698963399,
				"element": "C" 
			},
			{
				"x": 1.4287720242,
				"y": -1.3607180003,
				"z": -0.0047652234,
				"element": "C" 
			},
			{
				"x": 2.7652593934,
				"y": -3.0270300568,
				"z": 0.005952631,
				"element": "I" 
			},
			{
				"x": 1.78020024,
				"y": -0.345772384,
				"z": -0.8993782308,
				"element": "C" 
			},
			{
				"x": 0.9576767517,
				"y": 0.7724778707,
				"z": -1.0214173715,
				"element": "C" 
			},
			{
				"x": 1.4119408823,
				"y": 2.0444201084,
				"z": -2.1333213252,
				"element": "Cl" 
			},
			{
				"x": -0.2175569075,
				"y": 0.8839365864,
				"z": -0.2801052776,
				"element": "C" 
			},
			{
				"x": -0.5524650217,
				"y": -0.1421687277,
				"z": 0.5918804448,
				"element": "C" 
			},
			{
				"x": 1.4699666673,
				"y": -2.9428814355,
				"z": 2.1780794337,
				"element": "H" 
			},
			{
				"x": 2.6778805033,
				"y": -0.4207899767,
				"z": -1.4997280484,
				"element": "H" 
			},
			{
				"x": -0.856108945,
				"y": 1.7528984687,
				"z": -0.3887687989,
				"element": "H" 
			},
			{
				"x": -1.4699968272,
				"y": -0.095673142,
				"z": 1.1674639461,
				"element": "H" 
			}
		],
		 "valence_orbital": [ 
			{
				"type": "occ",
				"energy": -0.31956,
				"method": "rhf"
			},
			{
				"type": "occ",
				"energy": -0.29838,
				"method": "rhf"
			},
			{
				"type": "occ",
				"energy": -0.28911,
				"method": "rhf"
			},
			{
				"type": "occ",
				"energy": -0.2752,
				"method": "rhf"
			},
			{
				"type": "occ",
				"energy": -0.26932,
				"method": "rhf"
			},
			{
				"type": "unocc",
				"energy": -0.07301,
				"method": "rhf"
			},
			{
				"type": "unocc",
				"energy": -0.06894,
				"method": "rhf"
			},
			{
				"type": "unocc",
				"energy": -0.04609,
				"method": "rhf"
			},
			{
				"type": "unocc",
				"energy": 0.01371,
				"method": "rhf"
			},
			{
				"type": "unocc",
				"energy": 0.02752,
				"method": "rhf"
			}
		],
		"cosmo_sigma_profile": { 
			"-0.025": 0.0,
			"-0.024": 0.0,
			"-0.023": 0.0,
			"-0.022": 0.0,
			"-0.021": 0.0,
			"-0.02": 0.0,
			"-0.019": 0.0,
			"-0.018": 0.0,
			"-0.017": 0.0,
			"-0.016": 0.0,
			"-0.015": 0.0937022952275,
			"-0.014": 0.776248865634,
			"-0.013": 1.18950580942,
			"-0.012": 0.552219530992,
			"-0.011": 1.10032577798,
			"-0.01": 0.998464350968,
			"-0.009": 1.73436091249,
			"-0.008": 5.67851842374,
			"-0.007": 8.18254100716,
			"-0.006": 7.42870818033,
			"-0.005": 9.39968756728,
			"-0.004": 9.90233859803,
			"-0.003": 11.5910949766,
			"-0.002": 13.6945463574,
			"-0.001": 18.7271934932,
			"0.0": 27.1430753137,
			"0.001": 20.9126444977,
			"0.002": 15.1019745194,
			"0.003": 14.9390296532,
			"0.004": 8.73553650535,
			"0.005": 2.80654767689,
			"0.006": 1.87975664904,
			"0.007": 2.80210339262,
			"0.008": 2.52493536366,
			"0.009": 3.87036176348,
			"0.01": 4.78534176539,
			"0.011": 5.41972004987,
			"0.012": 2.96114682827,
			"0.013": 0.705048724903,
			"0.014": 0.0,
			"0.015": 0.0,
			"0.016": 0.0,
			"0.017": 0.0,
			"0.018": 0.0,
			"0.019": 0.0,
			"0.02": 0.0,
			"0.021": 0.0,
			"0.022": 0.0,
			"0.023": 0.0,
			"0.024": 0.0,
			"0.025": 0.0
		}
	}
}
