{
	 "smiles": "CC(C)C(=O)NC1=NC(CC(O)=O)=CS1", 
	 "Tm": 461.15, 
	 "num_atms": 27, 
	 "gaussian": { 
		 "optdone": 1, 
		 "sigma_profile": "yes", 
		 "theory": "DFT", 
		 "functional": "B3LYP", 
		 "basiset": "6-31G**", 
		 "properties": { 
			 "R2extent": 4113.5355, 
			 "electric_dipole_moment_norm": 5.23617558625, 
			 "electric_quadrupole_moment_norm": 23.522052305, 
			 "total_energy": -1083.57404344, 
			 "HOMO_LUMO_gap": 0.18641, 
			 "cosmo_polarized_energy": -18.61, 
			 "cosmo_cavitation_energy": 32.24, 
			 "cosmo_dispersion_energy": -22.74, 
			 "cosmo_repulsion_energy": 1.75, 
			 "cosmo_total_nonelectrostatic_energy": 11.26, 
			 "SMD_solvation_energy": 7.31 
		},
		"coords": [
			{
				"x": -1.2553910967,
				"y": 1.9785526467,
				"z": -1.7133363988,
				"element": "C" 
			},
			{
				"x": -1.7509407841,
				"y": 0.6610200348,
				"z": -2.3311786002,
				"element": "C" 
			},
			{
				"x": -0.5997319288,
				"y": -0.2603616485,
				"z": -2.7820122628,
				"element": "C" 
			},
			{
				"x": -2.804130158,
				"y": -0.0864525677,
				"z": -1.512672281,
				"element": "C" 
			},
			{
				"x": -3.8106825114,
				"y": -0.532251674,
				"z": -2.034886594,
				"element": "O" 
			},
			{
				"x": -2.7138639478,
				"y": -0.2414497872,
				"z": -0.1108544219,
				"element": "N" 
			},
			{
				"x": -1.6931043797,
				"y": -0.088177813,
				"z": 0.8060379411,
				"element": "C" 
			},
			{
				"x": -0.4157581477,
				"y": -0.2374350599,
				"z": 0.5855334376,
				"element": "N" 
			},
			{
				"x": 0.3343828286,
				"y": -0.0193231435,
				"z": 1.7330291819,
				"element": "C" 
			},
			{
				"x": 1.8274329282,
				"y": -0.1583908183,
				"z": 1.6391082946,
				"element": "C" 
			},
			{
				"x": 2.3470262166,
				"y": -1.4832207384,
				"z": 1.0464993059,
				"element": "C" 
			},
			{
				"x": 1.6088564353,
				"y": -2.0272581585,
				"z": 0.0630758155,
				"element": "O" 
			},
			{
				"x": 3.3883540127,
				"y": -1.9733162221,
				"z": 1.4086712633,
				"element": "O" 
			},
			{
				"x": -0.3884383668,
				"y": 0.2749473333,
				"z": 2.8494056241,
				"element": "C" 
			},
			{
				"x": -2.0862007616,
				"y": 0.3458070359,
				"z": 2.4695893192,
				"element": "S" 
			},
			{
				"x": -2.0887919813,
				"y": 2.6077411702,
				"z": -1.3845051901,
				"element": "H" 
			},
			{
				"x": -0.5877305294,
				"y": 1.8135895386,
				"z": -0.8661278495,
				"element": "H" 
			},
			{
				"x": -0.6975457612,
				"y": 2.5389544228,
				"z": -2.470261341,
				"element": "H" 
			},
			{
				"x": -2.327717845,
				"y": 0.9078233447,
				"z": -3.2286252263,
				"element": "H" 
			},
			{
				"x": 0.0585071112,
				"y": -0.5228746432,
				"z": -1.9528017883,
				"element": "H" 
			},
			{
				"x": -0.9859988839,
				"y": -1.1803334981,
				"z": -3.2305485459,
				"element": "H" 
			},
			{
				"x": -0.0004282786,
				"y": 0.2558369959,
				"z": -3.5387120331,
				"element": "H" 
			},
			{
				"x": -3.5823584982,
				"y": -0.6240348986,
				"z": 0.2464900739,
				"element": "H" 
			},
			{
				"x": 2.2230508688,
				"y": 0.6384474734,
				"z": 0.9932686511,
				"element": "H" 
			},
			{
				"x": 2.2954421533,
				"y": -0.0401610701,
				"z": 2.6168371895,
				"element": "H" 
			},
			{
				"x": 0.7782328163,
				"y": -1.5158652919,
				"z": -0.053103595,
				"element": "H" 
			},
			{
				"x": -0.0348715109,
				"y": 0.4370870368,
				"z": 3.8571800302,
				"element": "H" 
			}
		],
		 "valence_orbital": [ 
			{
				"type": "occ",
				"energy": -0.31329,
				"method": "rhf"
			},
			{
				"type": "occ",
				"energy": -0.30322,
				"method": "rhf"
			},
			{
				"type": "occ",
				"energy": -0.27425,
				"method": "rhf"
			},
			{
				"type": "occ",
				"energy": -0.26801,
				"method": "rhf"
			},
			{
				"type": "occ",
				"energy": -0.24514,
				"method": "rhf"
			},
			{
				"type": "unocc",
				"energy": -0.05873,
				"method": "rhf"
			},
			{
				"type": "unocc",
				"energy": -0.01939,
				"method": "rhf"
			},
			{
				"type": "unocc",
				"energy": -0.00326,
				"method": "rhf"
			},
			{
				"type": "unocc",
				"energy": 0.01263,
				"method": "rhf"
			},
			{
				"type": "unocc",
				"energy": 0.0289,
				"method": "rhf"
			}
		],
		"cosmo_sigma_profile": { 
			"-0.025": 0.0,
			"-0.024": 0.0,
			"-0.023": 0.0,
			"-0.022": 0.0,
			"-0.021": 0.0,
			"-0.02": 0.0,
			"-0.019": 0.0,
			"-0.018": 0.0,
			"-0.017": 0.0,
			"-0.016": 0.665760042308,
			"-0.015": 0.915872913616,
			"-0.014": 1.18789637233,
			"-0.013": 1.1761691987,
			"-0.012": 1.15781264374,
			"-0.011": 0.7904634563,
			"-0.01": 1.77555590872,
			"-0.009": 3.18136783253,
			"-0.008": 6.28183316382,
			"-0.007": 8.94372641469,
			"-0.006": 6.99373013116,
			"-0.005": 9.12542489176,
			"-0.004": 20.151227396,
			"-0.003": 26.3767185699,
			"-0.002": 27.1661284318,
			"-0.001": 27.6106794373,
			"0.0": 25.3502884495,
			"0.001": 19.3819193044,
			"0.002": 11.2622651776,
			"0.003": 6.27360209069,
			"0.004": 2.66331308172,
			"0.005": 3.63113299663,
			"0.006": 3.69179325168,
			"0.007": 2.92692885996,
			"0.008": 3.70905965786,
			"0.009": 3.58817406132,
			"0.01": 6.59869869956,
			"0.011": 8.14269033832,
			"0.012": 10.7284897867,
			"0.013": 5.77346786487,
			"0.014": 0.520288262572,
			"0.015": 0.0,
			"0.016": 0.0,
			"0.017": 0.0,
			"0.018": 0.0,
			"0.019": 0.0,
			"0.02": 0.0,
			"0.021": 0.0,
			"0.022": 0.0,
			"0.023": 0.0,
			"0.024": 0.0,
			"0.025": 0.0
		}
	}
}
