{
	 "smiles": "NS(=O)(=O)C1=CC(=CC=C1)C(=N/O)C1=CC=CC=C1", 
	 "Tm": 428.15, 
	 "num_atms": 31, 
	 "gaussian": { 
		 "optdone": 1, 
		 "sigma_profile": "yes", 
		 "theory": "DFT", 
		 "functional": "B3LYP", 
		 "basiset": "6-31G**", 
		 "properties": { 
			 "R2extent": 6735.363, 
			 "electric_dipole_moment_norm": 5.97963623141, 
			 "electric_quadrupole_moment_norm": 30.2348246071, 
			 "total_energy": -1235.84908281, 
			 "HOMO_LUMO_gap": 0.17671, 
			 "cosmo_polarized_energy": -23.91, 
			 "cosmo_cavitation_energy": 37.4, 
			 "cosmo_dispersion_energy": -26.49, 
			 "cosmo_repulsion_energy": 2.03, 
			 "cosmo_total_nonelectrostatic_energy": 12.95, 
			 "SMD_solvation_energy": 6.02 
		},
		"coords": [
			{
				"x": -0.1893366842,
				"y": -1.4375159847,
				"z": 2.5931646743,
				"element": "N" 
			},
			{
				"x": 0.301561473,
				"y": -2.5261426512,
				"z": 1.408514915,
				"element": "S" 
			},
			{
				"x": -0.9296815581,
				"y": -3.1063503227,
				"z": 0.8766719568,
				"element": "O" 
			},
			{
				"x": 1.3621656132,
				"y": -3.3232114018,
				"z": 2.0220653682,
				"element": "O" 
			},
			{
				"x": 1.0555245452,
				"y": -1.5549598682,
				"z": 0.0922465745,
				"element": "C" 
			},
			{
				"x": 0.2442590896,
				"y": -1.0200032318,
				"z": -0.9085554432,
				"element": "C" 
			},
			{
				"x": 0.816730975,
				"y": -0.2494695498,
				"z": -1.9304855675,
				"element": "C" 
			},
			{
				"x": 2.2039707651,
				"y": -0.0302289018,
				"z": -1.9188402878,
				"element": "C" 
			},
			{
				"x": 3.0021588165,
				"y": -0.570346458,
				"z": -0.9113955147,
				"element": "C" 
			},
			{
				"x": 2.4353145995,
				"y": -1.3434249292,
				"z": 0.1024793823,
				"element": "C" 
			},
			{
				"x": -0.0562819843,
				"y": 0.311331797,
				"z": -3.0045097065,
				"element": "C" 
			},
			{
				"x": 0.171388712,
				"y": 0.2076042889,
				"z": -4.2712335693,
				"element": "N" 
			},
			{
				"x": 1.3214414313,
				"y": -0.5284321559,
				"z": -4.5717643323,
				"element": "O" 
			},
			{
				"x": -1.3008615411,
				"y": 1.0406109956,
				"z": -2.6366139782,
				"element": "C" 
			},
			{
				"x": -2.4013837062,
				"y": 1.0585945754,
				"z": -3.5111241453,
				"element": "C" 
			},
			{
				"x": -3.5545902308,
				"y": 1.7660051497,
				"z": -3.1830771828,
				"element": "C" 
			},
			{
				"x": -3.632963116,
				"y": 2.4678177654,
				"z": -1.976936498,
				"element": "C" 
			},
			{
				"x": -2.5463634564,
				"y": 2.4575402799,
				"z": -1.1016988615,
				"element": "C" 
			},
			{
				"x": -1.3899644016,
				"y": 1.7482800752,
				"z": -1.426660882,
				"element": "C" 
			},
			{
				"x": -0.9281191551,
				"y": -0.8170203247,
				"z": 2.2778941216,
				"element": "H" 
			},
			{
				"x": 0.5864639404,
				"y": -0.9495139548,
				"z": 3.0292116583,
				"element": "H" 
			},
			{
				"x": -0.820760441,
				"y": -1.2260967186,
				"z": -0.9061588194,
				"element": "H" 
			},
			{
				"x": 2.6543831606,
				"y": 0.5548424185,
				"z": -2.7117687558,
				"element": "H" 
			},
			{
				"x": 4.0740638556,
				"y": -0.3977780703,
				"z": -0.9222782042,
				"element": "H" 
			},
			{
				"x": 3.0448920226,
				"y": -1.7958408565,
				"z": 0.8772037851,
				"element": "H" 
			},
			{
				"x": 1.3205575775,
				"y": -0.5144232103,
				"z": -5.5383714691,
				"element": "H" 
			},
			{
				"x": -2.3377009642,
				"y": 0.5082910627,
				"z": -4.443128457,
				"element": "H" 
			},
			{
				"x": -4.399017709,
				"y": 1.7631373124,
				"z": -3.8662819457,
				"element": "H" 
			},
			{
				"x": -4.5355562087,
				"y": 3.0149317989,
				"z": -1.7208127738,
				"element": "H" 
			},
			{
				"x": -2.5956047954,
				"y": 3.0062479343,
				"z": -0.1654308142,
				"element": "H" 
			},
			{
				"x": -0.544990625,
				"y": 1.7555231363,
				"z": -0.7455252279,
				"element": "H" 
			}
		],
		 "valence_orbital": [ 
			{
				"type": "occ",
				"energy": -0.28312,
				"method": "rhf"
			},
			{
				"type": "occ",
				"energy": -0.27488,
				"method": "rhf"
			},
			{
				"type": "occ",
				"energy": -0.26889,
				"method": "rhf"
			},
			{
				"type": "occ",
				"energy": -0.25941,
				"method": "rhf"
			},
			{
				"type": "occ",
				"energy": -0.23342,
				"method": "rhf"
			},
			{
				"type": "unocc",
				"energy": -0.05671,
				"method": "rhf"
			},
			{
				"type": "unocc",
				"energy": -0.03992,
				"method": "rhf"
			},
			{
				"type": "unocc",
				"energy": -0.02652,
				"method": "rhf"
			},
			{
				"type": "unocc",
				"energy": -0.00831,
				"method": "rhf"
			},
			{
				"type": "unocc",
				"energy": 0.03745,
				"method": "rhf"
			}
		],
		"cosmo_sigma_profile": { 
			"-0.025": 0.0,
			"-0.024": 0.0,
			"-0.023": 0.0,
			"-0.022": 0.0,
			"-0.021": 0.0,
			"-0.02": 0.0,
			"-0.019": 0.0,
			"-0.018": 0.33128439004,
			"-0.017": 1.15189617073,
			"-0.016": 0.958058453802,
			"-0.015": 3.22029729069,
			"-0.014": 3.47987426868,
			"-0.013": 2.88015348352,
			"-0.012": 3.55201993971,
			"-0.011": 3.63679358452,
			"-0.01": 2.77875848208,
			"-0.009": 2.80413213743,
			"-0.008": 3.39323623504,
			"-0.007": 6.01577969264,
			"-0.006": 15.4256205576,
			"-0.005": 20.2539993992,
			"-0.004": 18.7949222582,
			"-0.003": 18.0118275882,
			"-0.002": 17.0297480534,
			"-0.001": 15.3176134699,
			"0.0": 15.3182356789,
			"0.001": 19.1369450546,
			"0.002": 20.9163277756,
			"0.003": 16.5073646391,
			"0.004": 17.2924415927,
			"0.005": 17.0820859738,
			"0.006": 6.76441740589,
			"0.007": 6.90400562982,
			"0.008": 7.35816902154,
			"0.009": 7.17893254072,
			"0.01": 9.55567299562,
			"0.011": 11.2092565919,
			"0.012": 4.5063726486,
			"0.013": 0.186172023796,
			"0.014": 0.0,
			"0.015": 0.0,
			"0.016": 0.0,
			"0.017": 0.0,
			"0.018": 0.0,
			"0.019": 0.0,
			"0.02": 0.0,
			"0.021": 0.0,
			"0.022": 0.0,
			"0.023": 0.0,
			"0.024": 0.0,
			"0.025": 0.0
		}
	}
}
