{
	 "smiles": "CCOC1=NC(C=O)=CC=C1", 
	 "Tm": 329.15, 
	 "num_atms": 20, 
	 "gaussian": { 
		 "optdone": 1, 
		 "sigma_profile": "yes", 
		 "theory": "DFT", 
		 "functional": "B3LYP", 
		 "basiset": "6-31G**", 
		 "properties": { 
			 "R2extent": 2070.5276, 
			 "electric_dipole_moment_norm": 2.91322314628, 
			 "electric_quadrupole_moment_norm": 11.9974724797, 
			 "total_energy": -515.465926998, 
			 "HOMO_LUMO_gap": 0.1695, 
			 "cosmo_polarized_energy": -7.47, 
			 "cosmo_cavitation_energy": 24.52, 
			 "cosmo_dispersion_energy": -17.7, 
			 "cosmo_repulsion_energy": 1.44, 
			 "cosmo_total_nonelectrostatic_energy": 8.27, 
			 "SMD_solvation_energy": 5.26 
		},
		"coords": [
			{
				"x": 1.2501689357,
				"y": 2.41580366,
				"z": -1.3113608312,
				"element": "C" 
			},
			{
				"x": 1.1768127507,
				"y": 1.0103541302,
				"z": -1.8909598264,
				"element": "C" 
			},
			{
				"x": 1.847679333,
				"y": 0.0463521177,
				"z": -1.051674893,
				"element": "O" 
			},
			{
				"x": 1.1758058366,
				"y": -0.475070221,
				"z": -0.0044067685,
				"element": "C" 
			},
			{
				"x": -0.0745402741,
				"y": -0.1069938089,
				"z": 0.2435026355,
				"element": "N" 
			},
			{
				"x": -0.6967784551,
				"y": -0.6751588211,
				"z": 1.2975016413,
				"element": "C" 
			},
			{
				"x": -2.0988361603,
				"y": -0.2248312467,
				"z": 1.5271332964,
				"element": "C" 
			},
			{
				"x": -2.8065574555,
				"y": -0.6305616301,
				"z": 2.4275844556,
				"element": "O" 
			},
			{
				"x": -0.1028600045,
				"y": -1.6149523137,
				"z": 2.1341636837,
				"element": "C" 
			},
			{
				"x": 1.2184004137,
				"y": -1.9882112773,
				"z": 1.8593922212,
				"element": "C" 
			},
			{
				"x": 1.8746564512,
				"y": -1.4184550463,
				"z": 0.7804632461,
				"element": "C" 
			},
			{
				"x": 2.2888361211,
				"y": 2.7044573637,
				"z": -1.1249667281,
				"element": "H" 
			},
			{
				"x": 0.6915487461,
				"y": 2.4780806822,
				"z": -0.3746174856,
				"element": "H" 
			},
			{
				"x": 0.8163204331,
				"y": 3.131076979,
				"z": -2.0183749301,
				"element": "H" 
			},
			{
				"x": 1.7114459651,
				"y": 0.9485478421,
				"z": -2.8423773003,
				"element": "H" 
			},
			{
				"x": 0.1397065378,
				"y": 0.7002563258,
				"z": -2.0415342055,
				"element": "H" 
			},
			{
				"x": -2.4476248869,
				"y": 0.5278432258,
				"z": 0.789663238,
				"element": "H" 
			},
			{
				"x": -0.6689621305,
				"y": -2.023905271,
				"z": 2.9628154001,
				"element": "H" 
			},
			{
				"x": 1.727401057,
				"y": -2.7178452373,
				"z": 2.482373519,
				"element": "H" 
			},
			{
				"x": 2.895876786,
				"y": -1.6725874532,
				"z": 0.5202796318,
				"element": "H" 
			}
		],
		 "valence_orbital": [ 
			{
				"type": "occ",
				"energy": -0.3302,
				"method": "rhf"
			},
			{
				"type": "occ",
				"energy": -0.29745,
				"method": "rhf"
			},
			{
				"type": "occ",
				"energy": -0.28659,
				"method": "rhf"
			},
			{
				"type": "occ",
				"energy": -0.25502,
				"method": "rhf"
			},
			{
				"type": "occ",
				"energy": -0.24112,
				"method": "rhf"
			},
			{
				"type": "unocc",
				"energy": -0.07162,
				"method": "rhf"
			},
			{
				"type": "unocc",
				"energy": -0.01808,
				"method": "rhf"
			},
			{
				"type": "unocc",
				"energy": 0.03896,
				"method": "rhf"
			},
			{
				"type": "unocc",
				"energy": 0.09716,
				"method": "rhf"
			},
			{
				"type": "unocc",
				"energy": 0.1099,
				"method": "rhf"
			}
		],
		"cosmo_sigma_profile": { 
			"-0.025": 0.0,
			"-0.024": 0.0,
			"-0.023": 0.0,
			"-0.022": 0.0,
			"-0.021": 0.0,
			"-0.02": 0.0,
			"-0.019": 0.0,
			"-0.018": 0.0,
			"-0.017": 0.0,
			"-0.016": 0.0,
			"-0.015": 0.0,
			"-0.014": 0.0,
			"-0.013": 0.0,
			"-0.012": 0.0,
			"-0.011": 0.0,
			"-0.01": 0.0,
			"-0.009": 0.0,
			"-0.008": 1.54658752107,
			"-0.007": 5.5551318362,
			"-0.006": 8.55167589527,
			"-0.005": 11.4870510254,
			"-0.004": 15.2781472465,
			"-0.003": 19.0330046174,
			"-0.002": 16.0780981244,
			"-0.001": 16.9756330162,
			"0.0": 24.9139824509,
			"0.001": 22.62511857,
			"0.002": 13.025507791,
			"0.003": 4.99105186242,
			"0.004": 5.38532731044,
			"0.005": 5.10480827922,
			"0.006": 3.3521410024,
			"0.007": 4.09865396115,
			"0.008": 3.64795666366,
			"0.009": 4.13510538801,
			"0.01": 3.87750999881,
			"0.011": 3.97346918969,
			"0.012": 1.64743304038,
			"0.013": 0.182178065413,
			"0.014": 0.0,
			"0.015": 0.0,
			"0.016": 0.0,
			"0.017": 0.0,
			"0.018": 0.0,
			"0.019": 0.0,
			"0.02": 0.0,
			"0.021": 0.0,
			"0.022": 0.0,
			"0.023": 0.0,
			"0.024": 0.0,
			"0.025": 0.0
		}
	}
}
