{
	 "smiles": "CC(C)(C)C1=NC(N)=NN=C1", 
	 "Tm": 461.15, 
	 "num_atms": 23, 
	 "gaussian": { 
		 "optdone": 1, 
		 "sigma_profile": "yes", 
		 "theory": "DFT", 
		 "functional": "B3LYP", 
		 "basiset": "6-31G**", 
		 "properties": { 
			 "R2extent": 1879.9591, 
			 "electric_dipole_moment_norm": 3.0456112769, 
			 "electric_quadrupole_moment_norm": 13.6054272752, 
			 "total_energy": -492.966841532, 
			 "HOMO_LUMO_gap": 0.16614, 
			 "cosmo_polarized_energy": -11.68, 
			 "cosmo_cavitation_energy": 25.61, 
			 "cosmo_dispersion_energy": -18.48, 
			 "cosmo_repulsion_energy": 1.5, 
			 "cosmo_total_nonelectrostatic_energy": 8.62, 
			 "SMD_solvation_energy": 2.13 
		},
		"coords": [
			{
				"x": 2.0148889624,
				"y": 1.1873550331,
				"z": 1.3215838924,
				"element": "C" 
			},
			{
				"x": 0.5299479487,
				"y": 0.9011658611,
				"z": 1.6440920488,
				"element": "C" 
			},
			{
				"x": 0.4346597464,
				"y": -0.335118318,
				"z": 2.5678149627,
				"element": "C" 
			},
			{
				"x": -0.0813887552,
				"y": 2.1198552463,
				"z": 2.3577385073,
				"element": "C" 
			},
			{
				"x": -0.1911865892,
				"y": 0.5773238785,
				"z": 0.3331289818,
				"element": "C" 
			},
			{
				"x": 0.2661502289,
				"y": -0.4667208724,
				"z": -0.3591654333,
				"element": "N" 
			},
			{
				"x": -0.3777592508,
				"y": -0.7398641448,
				"z": -1.5075884815,
				"element": "C" 
			},
			{
				"x": 0.0910798406,
				"y": -1.7688974767,
				"z": -2.265387013,
				"element": "N" 
			},
			{
				"x": -1.4476831577,
				"y": -0.0740635577,
				"z": -2.0038808097,
				"element": "N" 
			},
			{
				"x": -1.8929338667,
				"y": 0.959519341,
				"z": -1.3111612926,
				"element": "N" 
			},
			{
				"x": -1.2875052457,
				"y": 1.2997616079,
				"z": -0.1689072363,
				"element": "C" 
			},
			{
				"x": 2.5711702483,
				"y": 1.3709533475,
				"z": 2.2469914169,
				"element": "H" 
			},
			{
				"x": 2.1174081155,
				"y": 2.0720759909,
				"z": 0.6838907855,
				"element": "H" 
			},
			{
				"x": 2.4677615116,
				"y": 0.3391817653,
				"z": 0.8029124757,
				"element": "H" 
			},
			{
				"x": 0.8522722898,
				"y": -1.2170779451,
				"z": 2.0765539196,
				"element": "H" 
			},
			{
				"x": -0.6060013363,
				"y": -0.5514876705,
				"z": 2.8328314552,
				"element": "H" 
			},
			{
				"x": 0.9892262185,
				"y": -0.1545328449,
				"z": 3.4948177666,
				"element": "H" 
			},
			{
				"x": -0.0200021806,
				"y": 3.0256490468,
				"z": 1.7454191623,
				"element": "H" 
			},
			{
				"x": -1.1310059526,
				"y": 1.9548477193,
				"z": 2.6227899755,
				"element": "H" 
			},
			{
				"x": 0.4656655838,
				"y": 2.3129417316,
				"z": 3.2858336259,
				"element": "H" 
			},
			{
				"x": 0.7395010374,
				"y": -2.4103800456,
				"z": -1.8389727314,
				"element": "H" 
			},
			{
				"x": -0.4927821004,
				"y": -2.0893128827,
				"z": -3.0213917182,
				"element": "H" 
			},
			{
				"x": -1.7071832969,
				"y": 2.1579251889,
				"z": 0.3409557397,
				"element": "H" 
			}
		],
		 "valence_orbital": [ 
			{
				"type": "occ",
				"energy": -0.31998,
				"method": "rhf"
			},
			{
				"type": "occ",
				"energy": -0.30786,
				"method": "rhf"
			},
			{
				"type": "occ",
				"energy": -0.30696,
				"method": "rhf"
			},
			{
				"type": "occ",
				"energy": -0.23694,
				"method": "rhf"
			},
			{
				"type": "occ",
				"energy": -0.22114,
				"method": "rhf"
			},
			{
				"type": "unocc",
				"energy": -0.055,
				"method": "rhf"
			},
			{
				"type": "unocc",
				"energy": -0.00471,
				"method": "rhf"
			},
			{
				"type": "unocc",
				"energy": 0.08246,
				"method": "rhf"
			},
			{
				"type": "unocc",
				"energy": 0.0882,
				"method": "rhf"
			},
			{
				"type": "unocc",
				"energy": 0.12655,
				"method": "rhf"
			}
		],
		"cosmo_sigma_profile": { 
			"-0.025": 0.0,
			"-0.024": 0.0,
			"-0.023": 0.0,
			"-0.022": 0.0,
			"-0.021": 0.0,
			"-0.02": 0.0,
			"-0.019": 0.0,
			"-0.018": 0.0,
			"-0.017": 0.0,
			"-0.016": 0.0,
			"-0.015": 0.0235125401486,
			"-0.014": 1.5996409752,
			"-0.013": 2.28085786459,
			"-0.012": 2.14325315885,
			"-0.011": 1.41104476629,
			"-0.01": 1.86906578612,
			"-0.009": 2.56641500785,
			"-0.008": 1.8158604539,
			"-0.007": 1.91226323019,
			"-0.006": 2.68852362342,
			"-0.005": 3.97078987788,
			"-0.004": 10.7875039763,
			"-0.003": 26.1212448453,
			"-0.002": 20.6301080183,
			"-0.001": 21.5359586245,
			"0.0": 23.9890166177,
			"0.001": 24.0053916058,
			"0.002": 7.44512902504,
			"0.003": 5.2937455143,
			"0.004": 5.44156258687,
			"0.005": 4.34168497661,
			"0.006": 4.46393974237,
			"0.007": 3.89467828427,
			"0.008": 3.46679212027,
			"0.009": 2.62373658187,
			"0.01": 2.0630313189,
			"0.011": 1.902377769,
			"0.012": 3.06610594631,
			"0.013": 2.55995819249,
			"0.014": 2.17277196399,
			"0.015": 2.14003191053,
			"0.016": 0.391413535787,
			"0.017": 0.0,
			"0.018": 0.0,
			"0.019": 0.0,
			"0.02": 0.0,
			"0.021": 0.0,
			"0.022": 0.0,
			"0.023": 0.0,
			"0.024": 0.0,
			"0.025": 0.0
		}
	}
}
