{
	 "smiles": "OC(=O)C1=CC=C(NC(=O)C2=CC=C(Br)O2)C=C1", 
	 "Tm": 550.15, 
	 "num_atms": 26, 
	 "gaussian": { 
		 "optdone": 1, 
		 "sigma_profile": "yes", 
		 "theory": "DFT", 
		 "functional": "B3LYP", 
		 "basiset": "6-31G**", 
		 "properties": { 
			 "R2extent": 6945.2521, 
			 "electric_dipole_moment_norm": 3.51604288085, 
			 "electric_quadrupole_moment_norm": 34.6680937186, 
			 "total_energy": -3389.13369028, 
			 "HOMO_LUMO_gap": 0.17462, 
			 "cosmo_polarized_energy": -21.65, 
			 "cosmo_cavitation_energy": 34.92, 
			 "cosmo_dispersion_energy": -24.68, 
			 "cosmo_repulsion_energy": 1.93, 
			 "cosmo_total_nonelectrostatic_energy": 12.17, 
			 "SMD_solvation_energy": 7.08 
		},
		"coords": [
			{
				"x": 3.3705760183,
				"y": -0.3403610355,
				"z": -3.4762829676,
				"element": "O" 
			},
			{
				"x": 3.2177276796,
				"y": -0.5204025898,
				"z": -2.1353817305,
				"element": "C" 
			},
			{
				"x": 4.1296296637,
				"y": -0.2596891243,
				"z": -1.3857439932,
				"element": "O" 
			},
			{
				"x": 1.8945449656,
				"y": -1.0423409739,
				"z": -1.6707962833,
				"element": "C" 
			},
			{
				"x": 0.9989828481,
				"y": -1.7298193122,
				"z": -2.5017101887,
				"element": "C" 
			},
			{
				"x": -0.2131344967,
				"y": -2.1972873628,
				"z": -2.0048834491,
				"element": "C" 
			},
			{
				"x": -0.5519597728,
				"y": -1.9961545412,
				"z": -0.6588833384,
				"element": "C" 
			},
			{
				"x": -1.7711503286,
				"y": -2.5307896786,
				"z": -0.1922238237,
				"element": "N" 
			},
			{
				"x": -2.5877019768,
				"y": -2.1753295854,
				"z": 0.8718436371,
				"element": "C" 
			},
			{
				"x": -3.3375137437,
				"y": -3.0025693842,
				"z": 1.378823204,
				"element": "O" 
			},
			{
				"x": -2.6181080437,
				"y": -0.781671654,
				"z": 1.3429604256,
				"element": "C" 
			},
			{
				"x": -3.1916471102,
				"y": -0.2730183109,
				"z": 2.477750355,
				"element": "C" 
			},
			{
				"x": -3.0181028271,
				"y": 1.1400197733,
				"z": 2.4318934722,
				"element": "C" 
			},
			{
				"x": -2.3583837292,
				"y": 1.3854641223,
				"z": 1.2602593591,
				"element": "C" 
			},
			{
				"x": -1.7832683826,
				"y": 2.9783087135,
				"z": 0.4771217761,
				"element": "Br" 
			},
			{
				"x": -2.104948629,
				"y": 0.2451140484,
				"z": 0.5813740866,
				"element": "O" 
			},
			{
				"x": 0.3595635668,
				"y": -1.3437026885,
				"z": 0.1871255599,
				"element": "C" 
			},
			{
				"x": 1.5624113316,
				"y": -0.8715563256,
				"z": -0.3190712309,
				"element": "C" 
			},
			{
				"x": 2.516870808,
				"y": -0.4183676366,
				"z": -3.9235845503,
				"element": "H" 
			},
			{
				"x": 1.2458247901,
				"y": -1.9362264791,
				"z": -3.5403453989,
				"element": "H" 
			},
			{
				"x": -0.9066866145,
				"y": -2.7187377082,
				"z": -2.6580548019,
				"element": "H" 
			},
			{
				"x": -2.014703155,
				"y": -3.4527232464,
				"z": -0.5351376791,
				"element": "H" 
			},
			{
				"x": -3.6814319039,
				"y": -0.8576141485,
				"z": 3.2421044279,
				"element": "H" 
			},
			{
				"x": -3.3361806205,
				"y": 1.8761994178,
				"z": 3.1536886491,
				"element": "H" 
			},
			{
				"x": 0.1316444619,
				"y": -1.2257456179,
				"z": 1.2403306585,
				"element": "H" 
			},
			{
				"x": 2.2787452004,
				"y": -0.3768986719,
				"z": 0.3278238242,
				"element": "H" 
			}
		],
		 "valence_orbital": [ 
			{
				"type": "occ",
				"energy": -0.27939,
				"method": "rhf"
			},
			{
				"type": "occ",
				"energy": -0.27864,
				"method": "rhf"
			},
			{
				"type": "occ",
				"energy": -0.27243,
				"method": "rhf"
			},
			{
				"type": "occ",
				"energy": -0.2473,
				"method": "rhf"
			},
			{
				"type": "occ",
				"energy": -0.24177,
				"method": "rhf"
			},
			{
				"type": "unocc",
				"energy": -0.06715,
				"method": "rhf"
			},
			{
				"type": "unocc",
				"energy": -0.04286,
				"method": "rhf"
			},
			{
				"type": "unocc",
				"energy": -0.02878,
				"method": "rhf"
			},
			{
				"type": "unocc",
				"energy": -0.00659,
				"method": "rhf"
			},
			{
				"type": "unocc",
				"energy": 0.01994,
				"method": "rhf"
			}
		],
		"cosmo_sigma_profile": { 
			"-0.025": 0.0,
			"-0.024": 0.0,
			"-0.023": 0.0,
			"-0.022": 0.0,
			"-0.021": 0.0,
			"-0.02": 0.0,
			"-0.019": 0.23740485551,
			"-0.018": 0.805927357982,
			"-0.017": 0.871288670736,
			"-0.016": 1.09074886565,
			"-0.015": 1.6637027669,
			"-0.014": 1.95863495551,
			"-0.013": 2.18616623157,
			"-0.012": 2.71212236581,
			"-0.011": 2.29988751764,
			"-0.01": 2.36494675751,
			"-0.009": 3.90083969592,
			"-0.008": 7.21684705192,
			"-0.007": 11.5009214459,
			"-0.006": 13.5606885275,
			"-0.005": 13.1852813366,
			"-0.004": 11.1070085385,
			"-0.003": 12.8543056765,
			"-0.002": 15.9472281567,
			"-0.001": 22.6071307778,
			"0.0": 21.3230289841,
			"0.001": 23.2174392216,
			"0.002": 30.7454639234,
			"0.003": 23.6232328356,
			"0.004": 6.73978185847,
			"0.005": 5.39194631611,
			"0.006": 3.92371263188,
			"0.007": 4.14542365187,
			"0.008": 3.59777604621,
			"0.009": 5.12861602621,
			"0.01": 5.67630369821,
			"0.011": 7.6377077436,
			"0.012": 10.1105572887,
			"0.013": 5.14710078062,
			"0.014": 0.115416054313,
			"0.015": 0.0,
			"0.016": 0.0,
			"0.017": 0.0,
			"0.018": 0.0,
			"0.019": 0.0,
			"0.02": 0.0,
			"0.021": 0.0,
			"0.022": 0.0,
			"0.023": 0.0,
			"0.024": 0.0,
			"0.025": 0.0
		}
	}
}
