{
	 "smiles": "CN1N=CC2=C1CCCC2O", 
	 "Tm": 378.15, 
	 "num_atms": 23, 
	 "gaussian": { 
		 "optdone": 1, 
		 "sigma_profile": "yes", 
		 "theory": "DFT", 
		 "functional": "B3LYP", 
		 "basiset": "6-31G**", 
		 "properties": { 
			 "R2extent": 2410.6496, 
			 "electric_dipole_moment_norm": 3.70579762669, 
			 "electric_quadrupole_moment_norm": 11.79682616, 
			 "total_energy": -496.79027434, 
			 "HOMO_LUMO_gap": 0.24843, 
			 "cosmo_polarized_energy": -12.82, 
			 "cosmo_cavitation_energy": 24.84, 
			 "cosmo_dispersion_energy": -18.55, 
			 "cosmo_repulsion_energy": 1.5, 
			 "cosmo_total_nonelectrostatic_energy": 7.79, 
			 "SMD_solvation_energy": 2.86 
		},
		"coords": [
			{
				"x": 0.7052664132,
				"y": -1.3551743922,
				"z": -1.7365740814,
				"element": "C" 
			},
			{
				"x": -0.4901220386,
				"y": -0.823664562,
				"z": -1.1139441081,
				"element": "N" 
			},
			{
				"x": -1.5802796419,
				"y": -0.5541648978,
				"z": -1.8794630932,
				"element": "N" 
			},
			{
				"x": -2.5063264158,
				"y": -0.1341871641,
				"z": -1.0190006912,
				"element": "C" 
			},
			{
				"x": -2.0254084602,
				"y": -0.1382127493,
				"z": 0.3092711285,
				"element": "C" 
			},
			{
				"x": -0.7207503734,
				"y": -0.5917762847,
				"z": 0.2084273257,
				"element": "C" 
			},
			{
				"x": 0.2309483399,
				"y": -0.8039835238,
				"z": 1.3454216077,
				"element": "C" 
			},
			{
				"x": -0.3305691036,
				"y": -0.1066442325,
				"z": 2.6043195066,
				"element": "C" 
			},
			{
				"x": -1.8405387912,
				"y": -0.3507181478,
				"z": 2.7711425535,
				"element": "C" 
			},
			{
				"x": -2.6590901801,
				"y": 0.2489604145,
				"z": 1.6101796592,
				"element": "C" 
			},
			{
				"x": -4.0105836838,
				"y": -0.2148068123,
				"z": 1.61336001,
				"element": "O" 
			},
			{
				"x": 0.5957287189,
				"y": -1.2223226181,
				"z": -2.8124791455,
				"element": "H" 
			},
			{
				"x": 0.832842732,
				"y": -2.4216672189,
				"z": -1.5180322274,
				"element": "H" 
			},
			{
				"x": 1.5929159242,
				"y": -0.8152693747,
				"z": -1.3929872206,
				"element": "H" 
			},
			{
				"x": -3.4872154407,
				"y": 0.1463181796,
				"z": -1.3774778107,
				"element": "H" 
			},
			{
				"x": 1.2312789119,
				"y": -0.416981308,
				"z": 1.1120512692,
				"element": "H" 
			},
			{
				"x": 0.3558991962,
				"y": -1.8792283769,
				"z": 1.5411694466,
				"element": "H" 
			},
			{
				"x": -0.1454051102,
				"y": 0.9728938773,
				"z": 2.5278575491,
				"element": "H" 
			},
			{
				"x": 0.2098615851,
				"y": -0.4550145269,
				"z": 3.4909191835,
				"element": "H" 
			},
			{
				"x": -2.1870457778,
				"y": 0.0700288693,
				"z": 3.7238183532,
				"element": "H" 
			},
			{
				"x": -2.047955422,
				"y": -1.4278108939,
				"z": 2.7981486803,
				"element": "H" 
			},
			{
				"x": -2.6537556515,
				"y": 1.3495492739,
				"z": 1.7099649829,
				"element": "H" 
			},
			{
				"x": -4.4384957308,
				"y": 0.1451764694,
				"z": 2.4015071221,
				"element": "H" 
			}
		],
		 "valence_orbital": [ 
			{
				"type": "occ",
				"energy": -0.31924,
				"method": "rhf"
			},
			{
				"type": "occ",
				"energy": -0.27218,
				"method": "rhf"
			},
			{
				"type": "occ",
				"energy": -0.26458,
				"method": "rhf"
			},
			{
				"type": "occ",
				"energy": -0.2327,
				"method": "rhf"
			},
			{
				"type": "occ",
				"energy": -0.21976,
				"method": "rhf"
			},
			{
				"type": "unocc",
				"energy": 0.02867,
				"method": "rhf"
			},
			{
				"type": "unocc",
				"energy": 0.05933,
				"method": "rhf"
			},
			{
				"type": "unocc",
				"energy": 0.08383,
				"method": "rhf"
			},
			{
				"type": "unocc",
				"energy": 0.10002,
				"method": "rhf"
			},
			{
				"type": "unocc",
				"energy": 0.10813,
				"method": "rhf"
			}
		],
		"cosmo_sigma_profile": { 
			"-0.025": 0.0,
			"-0.024": 0.0,
			"-0.023": 0.0,
			"-0.022": 0.0,
			"-0.021": 0.0,
			"-0.02": 0.0,
			"-0.019": 0.0,
			"-0.018": 0.0,
			"-0.017": 0.0,
			"-0.016": 0.0,
			"-0.015": 0.852527012749,
			"-0.014": 0.837263364628,
			"-0.013": 1.37431220742,
			"-0.012": 0.87902780309,
			"-0.011": 0.157371311237,
			"-0.01": 1.23067750137,
			"-0.009": 1.04666394525,
			"-0.008": 1.0678353816,
			"-0.007": 1.4888782473,
			"-0.006": 7.71839882359,
			"-0.005": 11.2445896114,
			"-0.004": 17.6814454959,
			"-0.003": 28.7237408945,
			"-0.002": 24.0309134672,
			"-0.001": 19.3173893455,
			"0.0": 12.0316019861,
			"0.001": 7.67201310764,
			"0.002": 5.69117593836,
			"0.003": 5.5515489096,
			"0.004": 5.08399722228,
			"0.005": 6.11975675316,
			"0.006": 6.35774855828,
			"0.007": 3.79561204589,
			"0.008": 3.82095157259,
			"0.009": 2.84194270745,
			"0.01": 4.260554126,
			"0.011": 2.53424005352,
			"0.012": 2.17628961808,
			"0.013": 2.9551768131,
			"0.014": 2.95205919899,
			"0.015": 1.48297443275,
			"0.016": 0.81697268742,
			"0.017": 0.189481633948,
			"0.018": 0.0,
			"0.019": 0.0,
			"0.02": 0.0,
			"0.021": 0.0,
			"0.022": 0.0,
			"0.023": 0.0,
			"0.024": 0.0,
			"0.025": 0.0
		}
	}
}
