{
	 "smiles": "CON=C(C(=O)N[C@H]1[C@H]2SCC(CSC3=NN=NN3C)=C(N2C1=O)C(O)=O)C1=CSC(N)=N1", 
	 "Tm": 433.15, 
	 "num_atms": 50, 
	 "gaussian": { 
		 "optdone": 1, 
		 "sigma_profile": "yes", 
		 "theory": "DFT", 
		 "functional": "B3LYP", 
		 "basiset": "6-31G**", 
		 "properties": { 
			 "R2extent": 18771.5769, 
			 "electric_dipole_moment_norm": 4.66929940034, 
			 "electric_quadrupole_moment_norm": 20.7477238896, 
			 "total_energy": -2683.26184607, 
			 "HOMO_LUMO_gap": 0.12873, 
			 "cosmo_polarized_energy": -32.71, 
			 "cosmo_cavitation_energy": 57.98, 
			 "cosmo_dispersion_energy": -39.31, 
			 "cosmo_repulsion_energy": 2.75, 
			 "cosmo_total_nonelectrostatic_energy": 21.42, 
			 "SMD_solvation_energy": 8.09 
		},
		"coords": [
			{
				"x": 2.6160386705,
				"y": -4.4759820365,
				"z": -6.9533213211,
				"element": "C" 
			},
			{
				"x": 2.5517315161,
				"y": -4.2354504297,
				"z": -5.5435354749,
				"element": "O" 
			},
			{
				"x": 2.1889317423,
				"y": -2.9269597436,
				"z": -5.3342261387,
				"element": "N" 
			},
			{
				"x": 2.0581295163,
				"y": -2.5909413543,
				"z": -4.0892700496,
				"element": "C" 
			},
			{
				"x": 1.6673633713,
				"y": -1.1108636743,
				"z": -4.0046075228,
				"element": "C" 
			},
			{
				"x": 1.7826596073,
				"y": -0.3566775303,
				"z": -4.9590140961,
				"element": "O" 
			},
			{
				"x": 1.1502562975,
				"y": -0.7038947753,
				"z": -2.7987993643,
				"element": "N" 
			},
			{
				"x": 0.8357455801,
				"y": 0.6689494131,
				"z": -2.5841104476,
				"element": "C" 
			},
			{
				"x": -0.6103435183,
				"y": 1.0451091018,
				"z": -2.1051756123,
				"element": "C" 
			},
			{
				"x": -1.7189471649,
				"y": -0.3399264197,
				"z": -1.7315604179,
				"element": "S" 
			},
			{
				"x": -2.7240587546,
				"y": 0.6624436193,
				"z": -0.5743410911,
				"element": "C" 
			},
			{
				"x": -1.9755439807,
				"y": 1.4675702259,
				"z": 0.4724441781,
				"element": "C" 
			},
			{
				"x": -2.8129779641,
				"y": 1.7528106622,
				"z": 1.6844181931,
				"element": "C" 
			},
			{
				"x": -2.9902152579,
				"y": 0.2665090164,
				"z": 2.8363386797,
				"element": "S" 
			},
			{
				"x": -1.3770417249,
				"y": -0.4283995773,
				"z": 2.7785249918,
				"element": "C" 
			},
			{
				"x": -0.9748498617,
				"y": -1.3653902118,
				"z": 1.9291396678,
				"element": "N" 
			},
			{
				"x": 0.3127455285,
				"y": -1.6157228989,
				"z": 2.2364579446,
				"element": "N" 
			},
			{
				"x": 0.7146503859,
				"y": -0.884100606,
				"z": 3.2365007978,
				"element": "N" 
			},
			{
				"x": -0.3340062091,
				"y": -0.1297268301,
				"z": 3.5978329619,
				"element": "N" 
			},
			{
				"x": -0.2245023342,
				"y": 0.8441174051,
				"z": 4.6813495177,
				"element": "C" 
			},
			{
				"x": -0.6808156526,
				"y": 1.8742586536,
				"z": 0.3382026799,
				"element": "C" 
			},
			{
				"x": -0.0079826812,
				"y": 1.6028537132,
				"z": -0.8765562981,
				"element": "N" 
			},
			{
				"x": 1.280143524,
				"y": 1.2367275892,
				"z": -1.2298125145,
				"element": "C" 
			},
			{
				"x": 2.338378099,
				"y": 1.3309597332,
				"z": -0.6287939505,
				"element": "O" 
			},
			{
				"x": 0.0848452293,
				"y": 2.6211154117,
				"z": 1.4247030622,
				"element": "C" 
			},
			{
				"x": 1.4016066553,
				"y": 2.7020257911,
				"z": 1.3382107116,
				"element": "O" 
			},
			{
				"x": -0.4892135326,
				"y": 3.1329420111,
				"z": 2.3737290539,
				"element": "O" 
			},
			{
				"x": 2.2556204831,
				"y": -3.4583619059,
				"z": -2.9064481965,
				"element": "C" 
			},
			{
				"x": 2.7752458781,
				"y": -4.728327825,
				"z": -2.9131675411,
				"element": "C" 
			},
			{
				"x": 2.8608218954,
				"y": -5.3660453944,
				"z": -1.2959396664,
				"element": "S" 
			},
			{
				"x": 2.1578066467,
				"y": -3.8522084821,
				"z": -0.6976709846,
				"element": "C" 
			},
			{
				"x": 1.966656351,
				"y": -3.6538472064,
				"z": 0.6275966416,
				"element": "N" 
			},
			{
				"x": 1.9074494817,
				"y": -2.984056364,
				"z": -1.6404606834,
				"element": "N" 
			},
			{
				"x": 1.6370690993,
				"y": -4.3195546331,
				"z": -7.415801503,
				"element": "H" 
			},
			{
				"x": 2.9193179542,
				"y": -5.5194639925,
				"z": -7.0577455777,
				"element": "H" 
			},
			{
				"x": 3.3530751696,
				"y": -3.8177825597,
				"z": -7.4221453631,
				"element": "H" 
			},
			{
				"x": 1.2225909702,
				"y": -1.3696832078,
				"z": -2.0186241567,
				"element": "H" 
			},
			{
				"x": 1.1685850792,
				"y": 1.2415318844,
				"z": -3.4544941707,
				"element": "H" 
			},
			{
				"x": -1.1213110972,
				"y": 1.8124390397,
				"z": -2.693527835,
				"element": "H" 
			},
			{
				"x": -3.3645720065,
				"y": -0.0577219557,
				"z": -0.0567468105,
				"element": "H" 
			},
			{
				"x": -3.3848092201,
				"y": 1.3293751625,
				"z": -1.1438526014,
				"element": "H" 
			},
			{
				"x": -3.8538196264,
				"y": 1.9257211741,
				"z": 1.391896178,
				"element": "H" 
			},
			{
				"x": -2.4359379607,
				"y": 2.5890911964,
				"z": 2.2599986558,
				"element": "H" 
			},
			{
				"x": -0.1408246821,
				"y": 1.8500735406,
				"z": 4.263043907,
				"element": "H" 
			},
			{
				"x": 0.6685716109,
				"y": 0.5919907235,
				"z": 5.2512585699,
				"element": "H" 
			},
			{
				"x": -1.1104751837,
				"y": 0.7757586453,
				"z": 5.3136845257,
				"element": "H" 
			},
			{
				"x": 1.8427593107,
				"y": 2.1596266526,
				"z": 0.620572547,
				"element": "H" 
			},
			{
				"x": 3.1154152538,
				"y": -5.3104611137,
				"z": -3.7494658128,
				"element": "H" 
			},
			{
				"x": 1.4253031086,
				"y": -2.8564475305,
				"z": 0.960240652,
				"element": "H" 
			},
			{
				"x": 1.9969343975,
				"y": -4.447702107,
				"z": 1.2463710854,
				"element": "H" 
			}
		],
		 "valence_orbital": [ 
			{
				"type": "occ",
				"energy": -0.25783,
				"method": "rhf"
			},
			{
				"type": "occ",
				"energy": -0.25355,
				"method": "rhf"
			},
			{
				"type": "occ",
				"energy": -0.24995,
				"method": "rhf"
			},
			{
				"type": "occ",
				"energy": -0.24575,
				"method": "rhf"
			},
			{
				"type": "occ",
				"energy": -0.20771,
				"method": "rhf"
			},
			{
				"type": "unocc",
				"energy": -0.07898,
				"method": "rhf"
			},
			{
				"type": "unocc",
				"energy": -0.05274,
				"method": "rhf"
			},
			{
				"type": "unocc",
				"energy": -0.04517,
				"method": "rhf"
			},
			{
				"type": "unocc",
				"energy": -0.02338,
				"method": "rhf"
			},
			{
				"type": "unocc",
				"energy": -0.0119,
				"method": "rhf"
			}
		],
		"cosmo_sigma_profile": { 
			"-0.025": 0.0,
			"-0.024": 0.0,
			"-0.023": 0.0,
			"-0.022": 0.0,
			"-0.021": 0.0,
			"-0.02": 0.0,
			"-0.019": 0.0,
			"-0.018": 0.0,
			"-0.017": 0.0,
			"-0.016": 0.055263516132,
			"-0.015": 1.13093383753,
			"-0.014": 1.14944887235,
			"-0.013": 1.51421522423,
			"-0.012": 1.36095331273,
			"-0.011": 0.671299812916,
			"-0.01": 2.22044260019,
			"-0.009": 9.62568789693,
			"-0.008": 19.1575358971,
			"-0.007": 20.6740523458,
			"-0.006": 23.3945789141,
			"-0.005": 28.9522697727,
			"-0.004": 32.3535529457,
			"-0.003": 31.7492860763,
			"-0.002": 28.3050575523,
			"-0.001": 27.6751745462,
			"0.0": 29.9736080715,
			"0.001": 32.6003012845,
			"0.002": 32.9240706808,
			"0.003": 28.3410713585,
			"0.004": 22.4123773443,
			"0.005": 17.5950319743,
			"0.006": 13.1347051704,
			"0.007": 10.9306596876,
			"0.008": 10.0297197844,
			"0.009": 9.2661359039,
			"0.01": 9.29899999285,
			"0.011": 7.62199021141,
			"0.012": 6.90220990463,
			"0.013": 4.80936623164,
			"0.014": 1.84740256033,
			"0.015": 1.34222060301,
			"0.016": 1.20066333517,
			"0.017": 0.814969872701,
			"0.018": 0.0765253649902,
			"0.019": 0.0,
			"0.02": 0.0,
			"0.021": 0.0,
			"0.022": 0.0,
			"0.023": 0.0,
			"0.024": 0.0,
			"0.025": 0.0
		}
	}
}
