{
	 "smiles": "CC(=O)NC1=C(C=C(C)C(C)=C1)[N+]([O-])=O", 
	 "Tm": 463.15, 
	 "num_atms": 27, 
	 "gaussian": { 
		 "optdone": 1, 
		 "sigma_profile": "yes", 
		 "theory": "DFT", 
		 "functional": "B3LYP", 
		 "basiset": "6-31G**", 
		 "properties": { 
			 "R2extent": 3874.8181, 
			 "electric_dipole_moment_norm": 7.20689386213, 
			 "electric_quadrupole_moment_norm": 6.80900560508, 
			 "total_energy": -723.401256467, 
			 "HOMO_LUMO_gap": 0.14377, 
			 "cosmo_polarized_energy": -14.62, 
			 "cosmo_cavitation_energy": 30.88, 
			 "cosmo_dispersion_energy": -22.11, 
			 "cosmo_repulsion_energy": 1.72, 
			 "cosmo_total_nonelectrostatic_energy": 10.49, 
			 "SMD_solvation_energy": 8.16 
		},
		"coords": [
			{
				"x": 1.0864204881,
				"y": 2.5528414063,
				"z": -0.0568909249,
				"element": "C" 
			},
			{
				"x": 1.9710722469,
				"y": 1.3252583453,
				"z": 0.047208201,
				"element": "C" 
			},
			{
				"x": 3.163624683,
				"y": 1.4193198379,
				"z": 0.2835803548,
				"element": "O" 
			},
			{
				"x": 1.4391744684,
				"y": 0.0530666013,
				"z": -0.1739644405,
				"element": "N" 
			},
			{
				"x": 0.1488234317,
				"y": -0.3957041546,
				"z": -0.429117602,
				"element": "C" 
			},
			{
				"x": -0.1023513985,
				"y": -1.5662211814,
				"z": -1.1910455013,
				"element": "C" 
			},
			{
				"x": -1.4107795409,
				"y": -1.9977100075,
				"z": -1.4407680871,
				"element": "C" 
			},
			{
				"x": -2.5168373172,
				"y": -1.3191821507,
				"z": -0.9512362359,
				"element": "C" 
			},
			{
				"x": -3.9121507849,
				"y": -1.816138785,
				"z": -1.238315567,
				"element": "C" 
			},
			{
				"x": -2.2905793383,
				"y": -0.165803541,
				"z": -0.1615006372,
				"element": "C" 
			},
			{
				"x": -3.4488729043,
				"y": 0.5935461798,
				"z": 0.435103051,
				"element": "C" 
			},
			{
				"x": -0.9875540882,
				"y": 0.258922933,
				"z": 0.0851120779,
				"element": "C" 
			},
			{
				"x": 0.9636803113,
				"y": -2.3891228032,
				"z": -1.7538706305,
				"element": "N" 
			},
			{
				"x": 0.6624049922,
				"y": -3.2320843479,
				"z": -2.5971702621,
				"element": "O" 
			},
			{
				"x": 2.1272156418,
				"y": -2.2204237295,
				"z": -1.353565939,
				"element": "O" 
			},
			{
				"x": 0.6143902648,
				"y": 2.7702692531,
				"z": 0.9073107742,
				"element": "H" 
			},
			{
				"x": 0.3019324855,
				"y": 2.4554977316,
				"z": -0.8105188308,
				"element": "H" 
			},
			{
				"x": 1.7390431169,
				"y": 3.3913951899,
				"z": -0.3021329584,
				"element": "H" 
			},
			{
				"x": 2.1595760116,
				"y": -0.6511907992,
				"z": -0.3127122959,
				"element": "H" 
			},
			{
				"x": -1.5323803468,
				"y": -2.8929507779,
				"z": -2.0380992443,
				"element": "H" 
			},
			{
				"x": -4.4512649293,
				"y": -2.0668988616,
				"z": -0.3168471215,
				"element": "H" 
			},
			{
				"x": -4.5113018247,
				"y": -1.060456534,
				"z": -1.7601893743,
				"element": "H" 
			},
			{
				"x": -3.8875418054,
				"y": -2.711609988,
				"z": -1.8636715487,
				"element": "H" 
			},
			{
				"x": -4.1175062773,
				"y": 0.9743508682,
				"z": -0.3459328892,
				"element": "H" 
			},
			{
				"x": -4.0561667677,
				"y": -0.0501971158,
				"z": 1.0819894294,
				"element": "H" 
			},
			{
				"x": -3.1073817725,
				"y": 1.4437770124,
				"z": 1.0299129184,
				"element": "H" 
			},
			{
				"x": -0.8413890461,
				"y": 1.1133494186,
				"z": 0.7320332838,
				"element": "H" 
			}
		],
		 "valence_orbital": [ 
			{
				"type": "occ",
				"energy": -0.30735,
				"method": "rhf"
			},
			{
				"type": "occ",
				"energy": -0.29521,
				"method": "rhf"
			},
			{
				"type": "occ",
				"energy": -0.27622,
				"method": "rhf"
			},
			{
				"type": "occ",
				"energy": -0.26214,
				"method": "rhf"
			},
			{
				"type": "occ",
				"energy": -0.23641,
				"method": "rhf"
			},
			{
				"type": "unocc",
				"energy": -0.09264,
				"method": "rhf"
			},
			{
				"type": "unocc",
				"energy": -0.02954,
				"method": "rhf"
			},
			{
				"type": "unocc",
				"energy": -0.00692,
				"method": "rhf"
			},
			{
				"type": "unocc",
				"energy": 0.02292,
				"method": "rhf"
			},
			{
				"type": "unocc",
				"energy": 0.06966,
				"method": "rhf"
			}
		],
		"cosmo_sigma_profile": { 
			"-0.025": 0.0,
			"-0.024": 0.0,
			"-0.023": 0.0,
			"-0.022": 0.0,
			"-0.021": 0.0,
			"-0.02": 0.0,
			"-0.019": 0.0,
			"-0.018": 0.0,
			"-0.017": 0.0,
			"-0.016": 0.0,
			"-0.015": 0.0,
			"-0.014": 0.0,
			"-0.013": 0.0,
			"-0.012": 0.0,
			"-0.011": 0.0,
			"-0.01": 0.0160058904242,
			"-0.009": 1.3259575389,
			"-0.008": 2.56484026632,
			"-0.007": 4.26374343352,
			"-0.006": 8.99914034453,
			"-0.005": 21.4936974332,
			"-0.004": 25.4255769091,
			"-0.003": 24.9367889866,
			"-0.002": 26.341273322,
			"-0.001": 27.5661651452,
			"0.0": 18.7339889792,
			"0.001": 15.0772636,
			"0.002": 14.1213133944,
			"0.003": 5.15571036453,
			"0.004": 3.66336433031,
			"0.005": 3.65390023742,
			"0.006": 5.42028799173,
			"0.007": 6.76466149777,
			"0.008": 6.99768814375,
			"0.009": 5.13940095462,
			"0.01": 4.9420984339,
			"0.011": 2.45870701315,
			"0.012": 4.09539763211,
			"0.013": 4.80030364434,
			"0.014": 1.00820384302,
			"0.015": 0.0,
			"0.016": 0.0,
			"0.017": 0.0,
			"0.018": 0.0,
			"0.019": 0.0,
			"0.02": 0.0,
			"0.021": 0.0,
			"0.022": 0.0,
			"0.023": 0.0,
			"0.024": 0.0,
			"0.025": 0.0
		}
	}
}
