{
	 "smiles": "CCOC(C)C1=NC(C)=C(S1)C(O)=O", 
	 "Tm": 386.15, 
	 "num_atms": 27, 
	 "gaussian": { 
		 "optdone": 1, 
		 "sigma_profile": "yes", 
		 "theory": "DFT", 
		 "functional": "B3LYP", 
		 "basiset": "6-31G**", 
		 "properties": { 
			 "R2extent": 4388.8126, 
			 "electric_dipole_moment_norm": 4.66161402199, 
			 "electric_quadrupole_moment_norm": 14.654190169, 
			 "total_energy": -1029.40553842, 
			 "HOMO_LUMO_gap": 0.1887, 
			 "cosmo_polarized_energy": -13.65, 
			 "cosmo_cavitation_energy": 31.75, 
			 "cosmo_dispersion_energy": -23.13, 
			 "cosmo_repulsion_energy": 1.82, 
			 "cosmo_total_nonelectrostatic_energy": 10.45, 
			 "SMD_solvation_energy": 5.18 
		},
		"coords": [
			{
				"x": 3.801060514,
				"y": 2.7727249757,
				"z": -1.4266479458,
				"element": "C" 
			},
			{
				"x": 2.9556856914,
				"y": 1.5188932172,
				"z": -1.5745516757,
				"element": "C" 
			},
			{
				"x": 3.3561082241,
				"y": 0.6061551397,
				"z": -0.5485362517,
				"element": "O" 
			},
			{
				"x": 2.5526563767,
				"y": -0.5562323595,
				"z": -0.3800662137,
				"element": "C" 
			},
			{
				"x": 2.2683780857,
				"y": -1.3484468445,
				"z": -1.658034283,
				"element": "C" 
			},
			{
				"x": 1.2798109057,
				"y": -0.2182201731,
				"z": 0.3749553191,
				"element": "C" 
			},
			{
				"x": 0.1728825705,
				"y": -0.8983682641,
				"z": 0.331778945,
				"element": "N" 
			},
			{
				"x": -0.7824033539,
				"y": -0.4078604527,
				"z": 1.1975840472,
				"element": "C" 
			},
			{
				"x": -2.1121429349,
				"y": -1.0958906972,
				"z": 1.2434421098,
				"element": "C" 
			},
			{
				"x": -0.3843020531,
				"y": 0.6978734925,
				"z": 1.9256574428,
				"element": "C" 
			},
			{
				"x": 1.2679639331,
				"y": 1.1191163737,
				"z": 1.5101840714,
				"element": "S" 
			},
			{
				"x": -1.1905476133,
				"y": 1.4649338847,
				"z": 2.9038814149,
				"element": "C" 
			},
			{
				"x": -0.7137985331,
				"y": 2.6860658397,
				"z": 3.2702879036,
				"element": "O" 
			},
			{
				"x": -2.2260249961,
				"y": 1.0639592811,
				"z": 3.3862351682,
				"element": "O" 
			},
			{
				"x": 4.8644500271,
				"y": 2.5264495649,
				"z": -1.4965298673,
				"element": "H" 
			},
			{
				"x": 3.6234819452,
				"y": 3.2491837791,
				"z": -0.4582247009,
				"element": "H" 
			},
			{
				"x": 3.5581290081,
				"y": 3.489357303,
				"z": -2.2174031603,
				"element": "H" 
			},
			{
				"x": 1.8863579285,
				"y": 1.7604078744,
				"z": -1.4822986728,
				"element": "H" 
			},
			{
				"x": 3.1104317176,
				"y": 1.0682387304,
				"z": -2.5642541674,
				"element": "H" 
			},
			{
				"x": 3.1552244974,
				"y": -1.1887890565,
				"z": 0.2855100241,
				"element": "H" 
			},
			{
				"x": 3.210907632,
				"y": -1.5771897973,
				"z": -2.16302808,
				"element": "H" 
			},
			{
				"x": 1.7639280303,
				"y": -2.2822303286,
				"z": -1.4018177164,
				"element": "H" 
			},
			{
				"x": 1.6173992192,
				"y": -0.8011847755,
				"z": -2.3440406127,
				"element": "H" 
			},
			{
				"x": -2.4959067212,
				"y": -1.2230967974,
				"z": 0.2263229755,
				"element": "H" 
			},
			{
				"x": -2.8236773688,
				"y": -0.5435187224,
				"z": 1.8536392147,
				"element": "H" 
			},
			{
				"x": -1.9931584664,
				"y": -2.0988161617,
				"z": 1.6696931588,
				"element": "H" 
			},
			{
				"x": 0.0460057342,
				"y": 2.9479849746,
				"z": 2.7305615525,
				"element": "H" 
			}
		],
		 "valence_orbital": [ 
			{
				"type": "occ",
				"energy": -0.29805,
				"method": "rhf"
			},
			{
				"type": "occ",
				"energy": -0.29253,
				"method": "rhf"
			},
			{
				"type": "occ",
				"energy": -0.27787,
				"method": "rhf"
			},
			{
				"type": "occ",
				"energy": -0.27401,
				"method": "rhf"
			},
			{
				"type": "occ",
				"energy": -0.25298,
				"method": "rhf"
			},
			{
				"type": "unocc",
				"energy": -0.06428,
				"method": "rhf"
			},
			{
				"type": "unocc",
				"energy": -0.00659,
				"method": "rhf"
			},
			{
				"type": "unocc",
				"energy": 0.00417,
				"method": "rhf"
			},
			{
				"type": "unocc",
				"energy": 0.05969,
				"method": "rhf"
			},
			{
				"type": "unocc",
				"energy": 0.07948,
				"method": "rhf"
			}
		],
		"cosmo_sigma_profile": { 
			"-0.025": 0.0,
			"-0.024": 0.0,
			"-0.023": 0.0,
			"-0.022": 0.0,
			"-0.021": 0.0,
			"-0.02": 0.0,
			"-0.019": 0.0,
			"-0.018": 0.0906974098605,
			"-0.017": 0.755218225328,
			"-0.016": 1.12053482605,
			"-0.015": 0.660508565504,
			"-0.014": 0.88781422038,
			"-0.013": 1.01584650601,
			"-0.012": 0.953887389972,
			"-0.011": 1.37154143916,
			"-0.01": 1.19011761701,
			"-0.009": 0.611795668417,
			"-0.008": 0.651102574925,
			"-0.007": 3.27854094535,
			"-0.006": 5.09788302142,
			"-0.005": 8.92442740697,
			"-0.004": 21.0144166115,
			"-0.003": 29.4929619884,
			"-0.002": 29.3146009678,
			"-0.001": 30.7545724584,
			"0.0": 30.4327509607,
			"0.001": 18.0385138019,
			"0.002": 8.10618121493,
			"0.003": 7.32899432451,
			"0.004": 5.93376296077,
			"0.005": 5.02459273937,
			"0.006": 5.26993682158,
			"0.007": 5.12291458518,
			"0.008": 4.47526312301,
			"0.009": 5.4193712868,
			"0.01": 7.20342444877,
			"0.011": 6.48462908316,
			"0.012": 4.79496400079,
			"0.013": 1.32810851102,
			"0.014": 0.0,
			"0.015": 0.0,
			"0.016": 0.0,
			"0.017": 0.0,
			"0.018": 0.0,
			"0.019": 0.0,
			"0.02": 0.0,
			"0.021": 0.0,
			"0.022": 0.0,
			"0.023": 0.0,
			"0.024": 0.0,
			"0.025": 0.0
		}
	}
}
