{
	 "smiles": "CNC1(CCC2=C1C=CC=C2)C(O)=O", 
	 "Tm": 553.15, 
	 "num_atms": 27, 
	 "gaussian": { 
		 "optdone": 1, 
		 "sigma_profile": "yes", 
		 "theory": "DFT", 
		 "functional": "B3LYP", 
		 "basiset": "6-31G**", 
		 "properties": { 
			 "R2extent": 4234.8969, 
			 "electric_dipole_moment_norm": 5.18236673828, 
			 "electric_quadrupole_moment_norm": 25.8460805323, 
			 "total_energy": -632.217227776, 
			 "HOMO_LUMO_gap": 0.23012, 
			 "cosmo_polarized_energy": -14.41, 
			 "cosmo_cavitation_energy": 28.8, 
			 "cosmo_dispersion_energy": -20.62, 
			 "cosmo_repulsion_energy": 1.61, 
			 "cosmo_total_nonelectrostatic_energy": 9.8, 
			 "SMD_solvation_energy": 5.1 
		},
		"coords": [
			{
				"x": -0.9602637482,
				"y": 2.2899472417,
				"z": 2.512985165,
				"element": "C" 
			},
			{
				"x": -2.0843196247,
				"y": 1.6691092531,
				"z": 1.8011008492,
				"element": "N" 
			},
			{
				"x": -2.1380645507,
				"y": 1.8758510426,
				"z": 0.3278577783,
				"element": "C" 
			},
			{
				"x": -3.0412301718,
				"y": 0.7684947693,
				"z": -0.2958568092,
				"element": "C" 
			},
			{
				"x": -2.0767494638,
				"y": -0.3826611605,
				"z": -0.6698950905,
				"element": "C" 
			},
			{
				"x": -0.7747755208,
				"y": 0.3449061149,
				"z": -0.9264614838,
				"element": "C" 
			},
			{
				"x": -0.8228496428,
				"y": 1.6459472266,
				"z": -0.4069484165,
				"element": "C" 
			},
			{
				"x": 0.2584718716,
				"y": 2.512597159,
				"z": -0.5641506134,
				"element": "C" 
			},
			{
				"x": 1.3992860673,
				"y": 2.0580952739,
				"z": -1.2315228844,
				"element": "C" 
			},
			{
				"x": 1.4539337281,
				"y": 0.7547503284,
				"z": -1.7350574495,
				"element": "C" 
			},
			{
				"x": 0.364490465,
				"y": -0.1089733627,
				"z": -1.5887009079,
				"element": "C" 
			},
			{
				"x": -2.7716326008,
				"y": 3.2660751026,
				"z": 0.0806395064,
				"element": "C" 
			},
			{
				"x": -3.5241819637,
				"y": 3.6902569051,
				"z": 1.1098679123,
				"element": "O" 
			},
			{
				"x": -2.6496331391,
				"y": 3.8859085145,
				"z": -0.9491414278,
				"element": "O" 
			},
			{
				"x": 0.0263651516,
				"y": 1.9531582836,
				"z": 2.1697946146,
				"element": "H" 
			},
			{
				"x": -1.0586894484,
				"y": 2.0694153072,
				"z": 3.5795372266,
				"element": "H" 
			},
			{
				"x": -1.0104144344,
				"y": 3.3767784506,
				"z": 2.3920065963,
				"element": "H" 
			},
			{
				"x": -2.1105739076,
				"y": 0.6744073885,
				"z": 2.0057596659,
				"element": "H" 
			},
			{
				"x": -3.8478581572,
				"y": 0.4766946499,
				"z": 0.3837675419,
				"element": "H" 
			},
			{
				"x": -3.4942634722,
				"y": 1.1705313517,
				"z": -1.2062825012,
				"element": "H" 
			},
			{
				"x": -1.9716293458,
				"y": -1.1062297523,
				"z": 0.1512038675,
				"element": "H" 
			},
			{
				"x": -2.42820411,
				"y": -0.9488314993,
				"z": -1.5385117507,
				"element": "H" 
			},
			{
				"x": 0.2052179586,
				"y": 3.5353825021,
				"z": -0.2041185715,
				"element": "H" 
			},
			{
				"x": 2.2443521035,
				"y": 2.7262077684,
				"z": -1.3698132043,
				"element": "H" 
			},
			{
				"x": 2.3438709814,
				"y": 0.4160367248,
				"z": -2.2580144812,
				"element": "H" 
			},
			{
				"x": 0.4029557849,
				"y": -1.1143506726,
				"z": -2.0002031485,
				"element": "H" 
			},
			{
				"x": -3.4017108099,
				"y": 2.9938950889,
				"z": 1.8005580162,
				"element": "H" 
			}
		],
		 "valence_orbital": [ 
			{
				"type": "occ",
				"energy": -0.29904,
				"method": "rhf"
			},
			{
				"type": "occ",
				"energy": -0.27508,
				"method": "rhf"
			},
			{
				"type": "occ",
				"energy": -0.25466,
				"method": "rhf"
			},
			{
				"type": "occ",
				"energy": -0.24665,
				"method": "rhf"
			},
			{
				"type": "occ",
				"energy": -0.2404,
				"method": "rhf"
			},
			{
				"type": "unocc",
				"energy": -0.01028,
				"method": "rhf"
			},
			{
				"type": "unocc",
				"energy": -0.00544,
				"method": "rhf"
			},
			{
				"type": "unocc",
				"energy": 0.01677,
				"method": "rhf"
			},
			{
				"type": "unocc",
				"energy": 0.06578,
				"method": "rhf"
			},
			{
				"type": "unocc",
				"energy": 0.09632,
				"method": "rhf"
			}
		],
		"cosmo_sigma_profile": { 
			"-0.025": 0.0,
			"-0.024": 0.0,
			"-0.023": 0.0,
			"-0.022": 0.0,
			"-0.021": 0.0,
			"-0.02": 0.0,
			"-0.019": 0.0,
			"-0.018": 0.0,
			"-0.017": 0.0,
			"-0.016": 0.0,
			"-0.015": 0.0,
			"-0.014": 0.0,
			"-0.013": 0.0,
			"-0.012": 0.285434463804,
			"-0.011": 1.12139718807,
			"-0.01": 2.20910871677,
			"-0.009": 2.04411952112,
			"-0.008": 2.07444677059,
			"-0.007": 3.03207507541,
			"-0.006": 7.37792626563,
			"-0.005": 18.6580457927,
			"-0.004": 25.170201918,
			"-0.003": 26.8230224556,
			"-0.002": 22.1220890649,
			"-0.001": 24.2755885903,
			"0.0": 11.745817103,
			"0.001": 9.05358666027,
			"0.002": 7.60740622746,
			"0.003": 8.239560068,
			"0.004": 8.53921215514,
			"0.005": 8.97462533625,
			"0.006": 9.01114095596,
			"0.007": 2.48587110154,
			"0.008": 2.98078609871,
			"0.009": 3.17198449192,
			"0.01": 4.81480822917,
			"0.011": 5.27289319299,
			"0.012": 5.86974162609,
			"0.013": 3.3686820696,
			"0.014": 0.550589236961,
			"0.015": 0.0,
			"0.016": 0.0,
			"0.017": 0.0,
			"0.018": 0.0,
			"0.019": 0.0,
			"0.02": 0.0,
			"0.021": 0.0,
			"0.022": 0.0,
			"0.023": 0.0,
			"0.024": 0.0,
			"0.025": 0.0
		}
	}
}
