{
	 "smiles": "CC(C)OC(=O)C=CC(=O)OC(C)C", 
	 "Tm": 275.2, 
	 "num_atms": 30, 
	 "gaussian": { 
		 "optdone": 1, 
		 "sigma_profile": "yes", 
		 "theory": "DFT", 
		 "functional": "B3LYP", 
		 "basiset": "6-31G**", 
		 "properties": { 
			 "R2extent": 5262.2274, 
			 "electric_dipole_moment_norm": 3.74784563716, 
			 "electric_quadrupole_moment_norm": 12.9270950987, 
			 "total_energy": -691.629921992, 
			 "HOMO_LUMO_gap": 0.19444, 
			 "cosmo_polarized_energy": -9.79, 
			 "cosmo_cavitation_energy": 34.51, 
			 "cosmo_dispersion_energy": -23.95, 
			 "cosmo_repulsion_energy": 1.96, 
			 "cosmo_total_nonelectrostatic_energy": 12.52, 
			 "SMD_solvation_energy": 8.44 
		},
		"coords": [
			{
				"x": -1.1239177972,
				"y": -3.7060687546,
				"z": -2.4824832698,
				"element": "C" 
			},
			{
				"x": -1.3415672013,
				"y": -3.412765844,
				"z": -1.0014665313,
				"element": "C" 
			},
			{
				"x": -2.7000720199,
				"y": -3.8615713925,
				"z": -0.4824840224,
				"element": "C" 
			},
			{
				"x": -1.2855604991,
				"y": -1.9709822743,
				"z": -0.7814700733,
				"element": "O" 
			},
			{
				"x": -0.0634976216,
				"y": -1.4193944669,
				"z": -0.6276530995,
				"element": "C" 
			},
			{
				"x": 0.9837393814,
				"y": -2.0365707905,
				"z": -0.662761302,
				"element": "O" 
			},
			{
				"x": -0.1834515936,
				"y": 0.0469062156,
				"z": -0.4054054903,
				"element": "C" 
			},
			{
				"x": 0.9093888019,
				"y": 0.7981181203,
				"z": -0.224634465,
				"element": "C" 
			},
			{
				"x": 0.898825654,
				"y": 2.2650354719,
				"z": 0.0076457017,
				"element": "C" 
			},
			{
				"x": 1.9161067566,
				"y": 2.909220296,
				"z": 0.1806740539,
				"element": "O" 
			},
			{
				"x": -0.3452555498,
				"y": 2.7880511885,
				"z": 0.000473631,
				"element": "O" 
			},
			{
				"x": -0.4627566288,
				"y": 4.2271547194,
				"z": 0.2124464736,
				"element": "C" 
			},
			{
				"x": -1.7527641508,
				"y": 4.6463122412,
				"z": -0.477763816,
				"element": "C" 
			},
			{
				"x": -0.4452291622,
				"y": 4.5218304238,
				"z": 1.7088357561,
				"element": "C" 
			},
			{
				"x": -1.8885021426,
				"y": -3.2108585273,
				"z": -3.0897719938,
				"element": "H" 
			},
			{
				"x": -0.1374138116,
				"y": -3.3617808984,
				"z": -2.8011929864,
				"element": "H" 
			},
			{
				"x": -1.1847220745,
				"y": -4.7840286134,
				"z": -2.663849529,
				"element": "H" 
			},
			{
				"x": -0.5336599944,
				"y": -3.8614637691,
				"z": -0.4161115994,
				"element": "H" 
			},
			{
				"x": -2.8022825296,
				"y": -4.9456803375,
				"z": -0.5911678277,
				"element": "H" 
			},
			{
				"x": -2.8162462594,
				"y": -3.6085677309,
				"z": 0.5749812752,
				"element": "H" 
			},
			{
				"x": -3.5085058829,
				"y": -3.3819097829,
				"z": -1.0433912292,
				"element": "H" 
			},
			{
				"x": -1.1790537929,
				"y": 0.4761015184,
				"z": -0.3961034526,
				"element": "H" 
			},
			{
				"x": 1.8949667393,
				"y": 0.3433850546,
				"z": -0.2376511991,
				"element": "H" 
			},
			{
				"x": 0.4029566413,
				"y": 4.6961757142,
				"z": -0.2640796341,
				"element": "H" 
			},
			{
				"x": -1.7256247132,
				"y": 4.3936985563,
				"z": -1.5413453968,
				"element": "H" 
			},
			{
				"x": -2.6159583448,
				"y": 4.1474061813,
				"z": -0.025602534,
				"element": "H" 
			},
			{
				"x": -1.8930217319,
				"y": 5.727515737,
				"z": -0.3834263354,
				"element": "H" 
			},
			{
				"x": 0.4995840283,
				"y": 4.199880792,
				"z": 2.1525909278,
				"element": "H" 
			},
			{
				"x": -0.5542429125,
				"y": 5.5976420767,
				"z": 1.880274763,
				"element": "H" 
			},
			{
				"x": -1.2699615884,
				"y": 4.0074088751,
				"z": 2.2126932046,
				"element": "H" 
			}
		],
		 "valence_orbital": [ 
			{
				"type": "occ",
				"energy": -0.30114,
				"method": "rhf"
			},
			{
				"type": "occ",
				"energy": -0.30006,
				"method": "rhf"
			},
			{
				"type": "occ",
				"energy": -0.28882,
				"method": "rhf"
			},
			{
				"type": "occ",
				"energy": -0.28157,
				"method": "rhf"
			},
			{
				"type": "occ",
				"energy": -0.27237,
				"method": "rhf"
			},
			{
				"type": "unocc",
				"energy": -0.07793,
				"method": "rhf"
			},
			{
				"type": "unocc",
				"energy": 0.03959,
				"method": "rhf"
			},
			{
				"type": "unocc",
				"energy": 0.09176,
				"method": "rhf"
			},
			{
				"type": "unocc",
				"energy": 0.09293,
				"method": "rhf"
			},
			{
				"type": "unocc",
				"energy": 0.10346,
				"method": "rhf"
			}
		],
		"cosmo_sigma_profile": { 
			"-0.025": 0.0,
			"-0.024": 0.0,
			"-0.023": 0.0,
			"-0.022": 0.0,
			"-0.021": 0.0,
			"-0.02": 0.0,
			"-0.019": 0.0,
			"-0.018": 0.0,
			"-0.017": 0.0,
			"-0.016": 0.0,
			"-0.015": 0.0,
			"-0.014": 0.0,
			"-0.013": 0.0,
			"-0.012": 0.0,
			"-0.011": 0.0,
			"-0.01": 0.0,
			"-0.009": 0.0,
			"-0.008": 0.167587212068,
			"-0.007": 1.83272880353,
			"-0.006": 2.06853459126,
			"-0.005": 7.41033811386,
			"-0.004": 30.3911620905,
			"-0.003": 38.32260278,
			"-0.002": 38.5788782932,
			"-0.001": 33.3284610851,
			"0.0": 41.1522378694,
			"0.001": 16.8293885573,
			"0.002": 8.72160911788,
			"0.003": 6.67792208775,
			"0.004": 6.90352027903,
			"0.005": 6.3783345221,
			"0.006": 4.28729524932,
			"0.007": 3.98413482668,
			"0.008": 3.42297802358,
			"0.009": 3.46134463396,
			"0.01": 3.688587729,
			"0.011": 6.85678882539,
			"0.012": 5.92880922706,
			"0.013": 0.327552466954,
			"0.014": 0.0,
			"0.015": 0.0,
			"0.016": 0.0,
			"0.017": 0.0,
			"0.018": 0.0,
			"0.019": 0.0,
			"0.02": 0.0,
			"0.021": 0.0,
			"0.022": 0.0,
			"0.023": 0.0,
			"0.024": 0.0,
			"0.025": 0.0
		}
	}
}
