{
	 "smiles": "CC(=O)NC1=CC=C(CCN)C=C1", 
	 "Tm": 395.15, 
	 "num_atms": 27, 
	 "gaussian": { 
		 "optdone": 1, 
		 "sigma_profile": "yes", 
		 "theory": "DFT", 
		 "functional": "B3LYP", 
		 "basiset": "6-31G**", 
		 "properties": { 
			 "R2extent": 4633.1056, 
			 "electric_dipole_moment_norm": 3.71181172745, 
			 "electric_quadrupole_moment_norm": 23.9518563608, 
			 "total_energy": -574.246896013, 
			 "HOMO_LUMO_gap": 0.20326, 
			 "cosmo_polarized_energy": -15.32, 
			 "cosmo_cavitation_energy": 30.56, 
			 "cosmo_dispersion_energy": -21.81, 
			 "cosmo_repulsion_energy": 1.76, 
			 "cosmo_total_nonelectrostatic_energy": 10.52, 
			 "SMD_solvation_energy": 4.5 
		},
		"coords": [
			{
				"x": -0.6189818087,
				"y": 4.445700607,
				"z": -2.8045846177,
				"element": "C" 
			},
			{
				"x": 0.4765375686,
				"y": 3.585891423,
				"z": -3.4065653501,
				"element": "C" 
			},
			{
				"x": 1.094683733,
				"y": 3.9311250548,
				"z": -4.4036308515,
				"element": "O" 
			},
			{
				"x": 0.7908501049,
				"y": 2.3828716705,
				"z": -2.7954247432,
				"element": "N" 
			},
			{
				"x": 0.2797884625,
				"y": 1.7508414153,
				"z": -1.6387278584,
				"element": "C" 
			},
			{
				"x": 1.1779898134,
				"y": 1.118964472,
				"z": -0.7651234772,
				"element": "C" 
			},
			{
				"x": 0.7151779413,
				"y": 0.4521638909,
				"z": 0.3653012103,
				"element": "C" 
			},
			{
				"x": -0.6512094754,
				"y": 0.4053083334,
				"z": 0.6768634114,
				"element": "C" 
			},
			{
				"x": -1.152272711,
				"y": -0.3542955602,
				"z": 1.8835874212,
				"element": "C" 
			},
			{
				"x": -1.4398298986,
				"y": -1.8469953018,
				"z": 1.5830992231,
				"element": "C" 
			},
			{
				"x": -1.9267730052,
				"y": -2.6424917545,
				"z": 2.7078554522,
				"element": "N" 
			},
			{
				"x": -1.5384909624,
				"y": 1.0343299961,
				"z": -0.2055377881,
				"element": "C" 
			},
			{
				"x": -1.0911610716,
				"y": 1.6843415743,
				"z": -1.3550379548,
				"element": "C" 
			},
			{
				"x": -0.6794997865,
				"y": 4.3645820925,
				"z": -1.7172356245,
				"element": "H" 
			},
			{
				"x": -0.4157547336,
				"y": 5.4769762088,
				"z": -3.0953833564,
				"element": "H" 
			},
			{
				"x": -1.5919647515,
				"y": 4.1658255871,
				"z": -3.2223243221,
				"element": "H" 
			},
			{
				"x": 1.6105880705,
				"y": 1.9623181377,
				"z": -3.2164903767,
				"element": "H" 
			},
			{
				"x": 2.2439103117,
				"y": 1.1659083331,
				"z": -0.9720891069,
				"element": "H" 
			},
			{
				"x": 1.4321551628,
				"y": -0.0263804656,
				"z": 1.0282123533,
				"element": "H" 
			},
			{
				"x": -0.4141129696,
				"y": -0.2965263804,
				"z": 2.6943579157,
				"element": "H" 
			},
			{
				"x": -2.0719524528,
				"y": 0.1103152691,
				"z": 2.2624500952,
				"element": "H" 
			},
			{
				"x": -2.1758255502,
				"y": -1.9123344777,
				"z": 0.7726816401,
				"element": "H" 
			},
			{
				"x": -0.5252020121,
				"y": -2.3166851266,
				"z": 1.2014672539,
				"element": "H" 
			},
			{
				"x": -1.254705582,
				"y": -2.6161838845,
				"z": 3.4717239523,
				"element": "H" 
			},
			{
				"x": -2.7877293614,
				"y": -2.2411522928,
				"z": 3.0732710494,
				"element": "H" 
			},
			{
				"x": -2.6061029005,
				"y": 1.0039853959,
				"z": -0.0010430053,
				"element": "H" 
			},
			{
				"x": -1.8094121356,
				"y": 2.1212957829,
				"z": -2.0389725449,
				"element": "H" 
			}
		],
		 "valence_orbital": [ 
			{
				"type": "occ",
				"energy": -0.29303,
				"method": "rhf"
			},
			{
				"type": "occ",
				"energy": -0.26026,
				"method": "rhf"
			},
			{
				"type": "occ",
				"energy": -0.25011,
				"method": "rhf"
			},
			{
				"type": "occ",
				"energy": -0.24168,
				"method": "rhf"
			},
			{
				"type": "occ",
				"energy": -0.21869,
				"method": "rhf"
			},
			{
				"type": "unocc",
				"energy": -0.01543,
				"method": "rhf"
			},
			{
				"type": "unocc",
				"energy": -0.01199,
				"method": "rhf"
			},
			{
				"type": "unocc",
				"energy": 0.03471,
				"method": "rhf"
			},
			{
				"type": "unocc",
				"energy": 0.07578,
				"method": "rhf"
			},
			{
				"type": "unocc",
				"energy": 0.08395,
				"method": "rhf"
			}
		],
		"cosmo_sigma_profile": { 
			"-0.025": 0.0,
			"-0.024": 0.0,
			"-0.023": 0.0,
			"-0.022": 0.0,
			"-0.021": 0.0,
			"-0.02": 0.0,
			"-0.019": 0.0,
			"-0.018": 0.0,
			"-0.017": 0.0,
			"-0.016": 0.0,
			"-0.015": 0.0,
			"-0.014": 0.307198768278,
			"-0.013": 0.902852279356,
			"-0.012": 1.20413820049,
			"-0.011": 1.2646089059,
			"-0.01": 1.04065129165,
			"-0.009": 3.77348445579,
			"-0.008": 4.28129763226,
			"-0.007": 8.04945448295,
			"-0.006": 10.2667173954,
			"-0.005": 14.7415820092,
			"-0.004": 20.7911200957,
			"-0.003": 25.0606640427,
			"-0.002": 24.505477843,
			"-0.001": 19.9044879873,
			"0.0": 14.4979352998,
			"0.001": 12.8334948235,
			"0.002": 11.0113164744,
			"0.003": 11.3474666537,
			"0.004": 9.79582081034,
			"0.005": 10.275391554,
			"0.006": 5.67754037285,
			"0.007": 2.56843096223,
			"0.008": 2.04539871965,
			"0.009": 0.679694942399,
			"0.01": 2.32468748553,
			"0.011": 2.78744094114,
			"0.012": 2.31838325736,
			"0.013": 5.79151055148,
			"0.014": 5.4890966027,
			"0.015": 1.44321435711,
			"0.016": 0.192832215255,
			"0.017": 0.785146279925,
			"0.018": 1.02858077107,
			"0.019": 0.438026966285,
			"0.02": 0.354551763466,
			"0.021": 0.0,
			"0.022": 0.0,
			"0.023": 0.0,
			"0.024": 0.0,
			"0.025": 0.0
		}
	}
}
