{
	 "smiles": "CC1=CC(O)=C(C)C(O)=C1", 
	 "Tm": 435.15, 
	 "num_atms": 20, 
	 "gaussian": { 
		 "optdone": 1, 
		 "sigma_profile": "yes", 
		 "theory": "DFT", 
		 "functional": "B3LYP", 
		 "basiset": "6-31G**", 
		 "properties": { 
			 "R2extent": 1931.8504, 
			 "electric_dipole_moment_norm": 2.3600481923, 
			 "electric_quadrupole_moment_norm": 14.5502789331, 
			 "total_energy": -461.328362526, 
			 "HOMO_LUMO_gap": 0.21559, 
			 "cosmo_polarized_energy": -11.84, 
			 "cosmo_cavitation_energy": 22.84, 
			 "cosmo_dispersion_energy": -17.27, 
			 "cosmo_repulsion_energy": 1.4, 
			 "cosmo_total_nonelectrostatic_energy": 6.97, 
			 "SMD_solvation_energy": 4.43 
		},
		"coords": [
			{
				"x": -2.0441292689,
				"y": -0.5134718918,
				"z": 1.3272046652,
				"element": "C" 
			},
			{
				"x": -0.757877954,
				"y": 0.1635999373,
				"z": 0.9150238927,
				"element": "C" 
			},
			{
				"x": 0.3669495783,
				"y": -0.594990741,
				"z": 0.5815933123,
				"element": "C" 
			},
			{
				"x": 1.5436882628,
				"y": 0.0336902634,
				"z": 0.1706750585,
				"element": "C" 
			},
			{
				"x": 2.5956828107,
				"y": -0.789790711,
				"z": -0.1350565355,
				"element": "O" 
			},
			{
				"x": 1.6358740989,
				"y": 1.4339269834,
				"z": 0.0649959659,
				"element": "C" 
			},
			{
				"x": 2.8941644617,
				"y": 2.1081835574,
				"z": -0.4340972974,
				"element": "C" 
			},
			{
				"x": 0.5001135645,
				"y": 2.1775120976,
				"z": 0.4357566176,
				"element": "C" 
			},
			{
				"x": 0.484374709,
				"y": 3.5474900216,
				"z": 0.401210722,
				"element": "O" 
			},
			{
				"x": -0.680561528,
				"y": 1.5569253226,
				"z": 0.8476712157,
				"element": "C" 
			},
			{
				"x": -2.6227903473,
				"y": 0.1115234225,
				"z": 2.0138374238,
				"element": "H" 
			},
			{
				"x": -2.6792024146,
				"y": -0.7147905251,
				"z": 0.4553915858,
				"element": "H" 
			},
			{
				"x": -1.8519177158,
				"y": -1.4721709288,
				"z": 1.81800334,
				"element": "H" 
			},
			{
				"x": 0.3546095277,
				"y": -1.678403499,
				"z": 0.6408305193,
				"element": "H" 
			},
			{
				"x": 3.3910449992,
				"y": -0.262694956,
				"z": -0.2752389393,
				"element": "H" 
			},
			{
				"x": 2.6690279839,
				"y": 3.0361904744,
				"z": -0.9729703586,
				"element": "H" 
			},
			{
				"x": 3.6063409259,
				"y": 2.3560200234,
				"z": 0.3649772627,
				"element": "H" 
			},
			{
				"x": 3.4238718676,
				"y": 1.4854919934,
				"z": -1.16479791,
				"element": "H" 
			},
			{
				"x": 1.3750782,
				"y": 3.8787767538,
				"z": 0.2369778418,
				"element": "H" 
			},
			{
				"x": -1.5248417616,
				"y": 2.182582402,
				"z": 1.1182116174,
				"element": "H" 
			}
		],
		 "valence_orbital": [ 
			{
				"type": "occ",
				"energy": -0.34116,
				"method": "rhf"
			},
			{
				"type": "occ",
				"energy": -0.34049,
				"method": "rhf"
			},
			{
				"type": "occ",
				"energy": -0.29466,
				"method": "rhf"
			},
			{
				"type": "occ",
				"energy": -0.21976,
				"method": "rhf"
			},
			{
				"type": "occ",
				"energy": -0.20513,
				"method": "rhf"
			},
			{
				"type": "unocc",
				"energy": 0.01046,
				"method": "rhf"
			},
			{
				"type": "unocc",
				"energy": 0.02653,
				"method": "rhf"
			},
			{
				"type": "unocc",
				"energy": 0.04887,
				"method": "rhf"
			},
			{
				"type": "unocc",
				"energy": 0.09821,
				"method": "rhf"
			},
			{
				"type": "unocc",
				"energy": 0.11328,
				"method": "rhf"
			}
		],
		"cosmo_sigma_profile": { 
			"-0.025": 0.0,
			"-0.024": 0.0,
			"-0.023": 0.0,
			"-0.022": 0.0,
			"-0.021": 0.0,
			"-0.02": 0.0,
			"-0.019": 0.0,
			"-0.018": 0.0,
			"-0.017": 0.0224439277204,
			"-0.016": 1.33147579753,
			"-0.015": 1.96137131524,
			"-0.014": 1.28378750469,
			"-0.013": 2.31568719262,
			"-0.012": 2.00038707176,
			"-0.011": 1.00941201463,
			"-0.01": 1.97416498792,
			"-0.009": 3.13934635347,
			"-0.008": 2.84782567318,
			"-0.007": 1.6077004973,
			"-0.006": 2.9289620284,
			"-0.005": 8.41964252493,
			"-0.004": 14.2592410868,
			"-0.003": 14.3320000717,
			"-0.002": 14.5674767514,
			"-0.001": 12.6818724077,
			"0.0": 14.9126580041,
			"0.001": 9.17640523437,
			"0.002": 8.08053059678,
			"0.003": 6.18190313719,
			"0.004": 9.34689825603,
			"0.005": 12.0419714794,
			"0.006": 12.2360538286,
			"0.007": 6.09425433682,
			"0.008": 3.07573292512,
			"0.009": 2.7880551666,
			"0.01": 2.86083508251,
			"0.011": 3.99068929161,
			"0.012": 2.6757737109,
			"0.013": 0.0,
			"0.014": 0.0,
			"0.015": 0.0,
			"0.016": 0.0,
			"0.017": 0.0,
			"0.018": 0.0,
			"0.019": 0.0,
			"0.02": 0.0,
			"0.021": 0.0,
			"0.022": 0.0,
			"0.023": 0.0,
			"0.024": 0.0,
			"0.025": 0.0
		}
	}
}
