{
	 "smiles": "OC(=O)CCNC(=O)C1=C(Br)C=CC(F)=C1", 
	 "Tm": 386.15, 
	 "num_atms": 25, 
	 "gaussian": { 
		 "optdone": 1, 
		 "sigma_profile": "yes", 
		 "theory": "DFT", 
		 "functional": "B3LYP", 
		 "basiset": "6-31G**", 
		 "properties": { 
			 "R2extent": 7075.0329, 
			 "electric_dipole_moment_norm": 8.38439830936, 
			 "electric_quadrupole_moment_norm": 20.0541380246, 
			 "total_energy": -3338.17802921, 
			 "HOMO_LUMO_gap": 0.17493, 
			 "cosmo_polarized_energy": -17.82, 
			 "cosmo_cavitation_energy": 31.96, 
			 "cosmo_dispersion_energy": -23.53, 
			 "cosmo_repulsion_energy": 1.8, 
			 "cosmo_total_nonelectrostatic_energy": 10.22, 
			 "SMD_solvation_energy": 5.72 
		},
		"coords": [
			{
				"x": -1.9914456419,
				"y": 2.7232294486,
				"z": 1.4072776233,
				"element": "O" 
			},
			{
				"x": -2.5932878531,
				"y": 2.2756180694,
				"z": 2.5201955151,
				"element": "C" 
			},
			{
				"x": -3.1142284112,
				"y": 3.0295726194,
				"z": 3.3097827319,
				"element": "O" 
			},
			{
				"x": -2.5733523257,
				"y": 0.7566537185,
				"z": 2.725527205,
				"element": "C" 
			},
			{
				"x": -3.1097926179,
				"y": -0.0561674032,
				"z": 1.5134458804,
				"element": "C" 
			},
			{
				"x": -2.1524133499,
				"y": -1.0065721957,
				"z": 0.9492467964,
				"element": "N" 
			},
			{
				"x": -1.0680326509,
				"y": -0.5830791678,
				"z": 0.2711479122,
				"element": "C" 
			},
			{
				"x": -0.8448298951,
				"y": 0.6254451723,
				"z": 0.0959876019,
				"element": "O" 
			},
			{
				"x": -0.1313796027,
				"y": -1.5930232603,
				"z": -0.3564737168,
				"element": "C" 
			},
			{
				"x": 0.094916959,
				"y": -2.9365798892,
				"z": -0.0033057425,
				"element": "C" 
			},
			{
				"x": -0.7560995296,
				"y": -3.8213457828,
				"z": 1.4786593933,
				"element": "Br" 
			},
			{
				"x": 1.0108912164,
				"y": -3.7239257469,
				"z": -0.7049716569,
				"element": "C" 
			},
			{
				"x": 1.7207096483,
				"y": -3.1982734443,
				"z": -1.7799533593,
				"element": "C" 
			},
			{
				"x": 1.5041897626,
				"y": -1.8696690273,
				"z": -2.1257553047,
				"element": "C" 
			},
			{
				"x": 2.1847502561,
				"y": -1.3417452278,
				"z": -3.1571257989,
				"element": "F" 
			},
			{
				"x": 0.6073071153,
				"y": -1.074339385,
				"z": -1.4333866947,
				"element": "C" 
			},
			{
				"x": -1.5698544053,
				"y": 1.9860796609,
				"z": 0.9043302145,
				"element": "H" 
			},
			{
				"x": -3.1602892459,
				"y": 0.5533819205,
				"z": 3.6223394177,
				"element": "H" 
			},
			{
				"x": -1.5413401854,
				"y": 0.4531967478,
				"z": 2.9342419521,
				"element": "H" 
			},
			{
				"x": -3.9846998066,
				"y": -0.6372198928,
				"z": 1.8106883099,
				"element": "H" 
			},
			{
				"x": -3.4277203449,
				"y": 0.6203327611,
				"z": 0.7141990216,
				"element": "H" 
			},
			{
				"x": -2.2818588408,
				"y": -1.9939072426,
				"z": 1.1159328973,
				"element": "H" 
			},
			{
				"x": 1.169774524,
				"y": -4.7521373875,
				"z": -0.4024865341,
				"element": "H" 
			},
			{
				"x": 2.4317304544,
				"y": -3.7992975468,
				"z": -2.3356602636,
				"element": "H" 
			},
			{
				"x": 0.4682547707,
				"y": -0.0356275186,
				"z": -1.7066834012,
				"element": "H" 
			}
		],
		 "valence_orbital": [ 
			{
				"type": "occ",
				"energy": -0.29526,
				"method": "rhf"
			},
			{
				"type": "occ",
				"energy": -0.28889,
				"method": "rhf"
			},
			{
				"type": "occ",
				"energy": -0.28362,
				"method": "rhf"
			},
			{
				"type": "occ",
				"energy": -0.26773,
				"method": "rhf"
			},
			{
				"type": "occ",
				"energy": -0.2473,
				"method": "rhf"
			},
			{
				"type": "unocc",
				"energy": -0.07237,
				"method": "rhf"
			},
			{
				"type": "unocc",
				"energy": -0.03867,
				"method": "rhf"
			},
			{
				"type": "unocc",
				"energy": -0.03053,
				"method": "rhf"
			},
			{
				"type": "unocc",
				"energy": 0.02327,
				"method": "rhf"
			},
			{
				"type": "unocc",
				"energy": 0.02844,
				"method": "rhf"
			}
		],
		"cosmo_sigma_profile": { 
			"-0.025": 0.0,
			"-0.024": 0.0,
			"-0.023": 0.0,
			"-0.022": 0.0,
			"-0.021": 0.0,
			"-0.02": 0.0,
			"-0.019": 0.0,
			"-0.018": 0.0,
			"-0.017": 0.0,
			"-0.016": 0.0,
			"-0.015": 0.0,
			"-0.014": 0.0,
			"-0.013": 0.376959369767,
			"-0.012": 0.775279700618,
			"-0.011": 0.794931678352,
			"-0.01": 1.25726659618,
			"-0.009": 2.87408560792,
			"-0.008": 6.68604358999,
			"-0.007": 11.5042789842,
			"-0.006": 15.4705383442,
			"-0.005": 16.133937615,
			"-0.004": 16.9485800937,
			"-0.003": 17.5475641577,
			"-0.002": 16.7453042776,
			"-0.001": 21.6983910386,
			"0.0": 25.4820399923,
			"0.001": 20.9398226756,
			"0.002": 14.9022800486,
			"0.003": 16.1355546343,
			"0.004": 11.8493014916,
			"0.005": 3.56874710362,
			"0.006": 3.41058774148,
			"0.007": 3.29357202445,
			"0.008": 4.44669191879,
			"0.009": 3.75940998165,
			"0.01": 4.16685490798,
			"0.011": 4.81552468479,
			"0.012": 7.16000359679,
			"0.013": 4.73806133353,
			"0.014": 1.52820749963,
			"0.015": 0.0,
			"0.016": 0.0,
			"0.017": 0.0,
			"0.018": 0.0,
			"0.019": 0.0,
			"0.02": 0.0,
			"0.021": 0.0,
			"0.022": 0.0,
			"0.023": 0.0,
			"0.024": 0.0,
			"0.025": 0.0
		}
	}
}
