{
	 "smiles": "COC1=C(Cl)C=C(NC(=O)CC#N)C=C1", 
	 "Tm": 384.15, 
	 "num_atms": 24, 
	 "gaussian": { 
		 "optdone": 1, 
		 "sigma_profile": "yes", 
		 "theory": "DFT", 
		 "functional": "B3LYP", 
		 "basiset": "6-31G**", 
		 "properties": { 
			 "R2extent": 4470.6056, 
			 "electric_dipole_moment_norm": 3.9423195634, 
			 "electric_quadrupole_moment_norm": 26.2836217234, 
			 "total_energy": -1106.60541876, 
			 "HOMO_LUMO_gap": 0.20262, 
			 "cosmo_polarized_energy": -18.16, 
			 "cosmo_cavitation_energy": 31.63, 
			 "cosmo_dispersion_energy": -21.97, 
			 "cosmo_repulsion_energy": 1.75, 
			 "cosmo_total_nonelectrostatic_energy": 11.41, 
			 "SMD_solvation_energy": 8.05 
		},
		"coords": [
			{
				"x": -1.282106523,
				"y": -4.4977320842,
				"z": -0.3835542772,
				"element": "C" 
			},
			{
				"x": -2.0200174951,
				"y": -3.3030964963,
				"z": -0.1547653216,
				"element": "O" 
			},
			{
				"x": -1.3918503476,
				"y": -2.1155643565,
				"z": -0.31146907,
				"element": "C" 
			},
			{
				"x": -2.1569546229,
				"y": -0.952442655,
				"z": -0.0804954043,
				"element": "C" 
			},
			{
				"x": -3.8354120349,
				"y": -1.1041856904,
				"z": 0.3850771084,
				"element": "Cl" 
			},
			{
				"x": -1.5928223716,
				"y": 0.3098318705,
				"z": -0.2039923698,
				"element": "C" 
			},
			{
				"x": -0.2500349467,
				"y": 0.4498836229,
				"z": -0.5836249596,
				"element": "C" 
			},
			{
				"x": 0.2918264241,
				"y": 1.7596979006,
				"z": -0.7442584513,
				"element": "N" 
			},
			{
				"x": 1.3221282278,
				"y": 2.3666803161,
				"z": -0.0702579228,
				"element": "C" 
			},
			{
				"x": 1.6785212448,
				"y": 3.5039208588,
				"z": -0.320321876,
				"element": "O" 
			},
			{
				"x": 2.0016267439,
				"y": 1.5518425412,
				"z": 1.0536061231,
				"element": "C" 
			},
			{
				"x": 3.1410419307,
				"y": 0.7770331099,
				"z": 0.5630485816,
				"element": "C" 
			},
			{
				"x": 4.0324872833,
				"y": 0.1530319404,
				"z": 0.1584996602,
				"element": "N" 
			},
			{
				"x": 0.5100085543,
				"y": -0.6931142674,
				"z": -0.8383583281,
				"element": "C" 
			},
			{
				"x": -0.0511344928,
				"y": -1.9617310856,
				"z": -0.6857339758,
				"element": "C" 
			},
			{
				"x": -0.4315027386,
				"y": -4.5820371057,
				"z": 0.3036304311,
				"element": "H" 
			},
			{
				"x": -1.979210955,
				"y": -5.3151414846,
				"z": -0.1978461522,
				"element": "H" 
			},
			{
				"x": -0.921933343,
				"y": -4.555159562,
				"z": -1.4178561797,
				"element": "H" 
			},
			{
				"x": -2.1967332066,
				"y": 1.1875455451,
				"z": -0.0010637733,
				"element": "H" 
			},
			{
				"x": -0.1491865568,
				"y": 2.3785764135,
				"z": -1.4150435744,
				"element": "H" 
			},
			{
				"x": 1.2981002693,
				"y": 0.8730875221,
				"z": 1.5454421053,
				"element": "H" 
			},
			{
				"x": 2.3578047561,
				"y": 2.2847861818,
				"z": 1.7823352316,
				"element": "H" 
			},
			{
				"x": 1.5415064792,
				"y": -0.5990504942,
				"z": -1.1592160505,
				"element": "H" 
			},
			{
				"x": 0.5625477213,
				"y": -2.8327625409,
				"z": -0.8795815547,
				"element": "H" 
			}
		],
		 "valence_orbital": [ 
			{
				"type": "occ",
				"energy": -0.31998,
				"method": "rhf"
			},
			{
				"type": "occ",
				"energy": -0.28824,
				"method": "rhf"
			},
			{
				"type": "occ",
				"energy": -0.27311,
				"method": "rhf"
			},
			{
				"type": "occ",
				"energy": -0.26805,
				"method": "rhf"
			},
			{
				"type": "occ",
				"energy": -0.23653,
				"method": "rhf"
			},
			{
				"type": "unocc",
				"energy": -0.03391,
				"method": "rhf"
			},
			{
				"type": "unocc",
				"energy": -0.02767,
				"method": "rhf"
			},
			{
				"type": "unocc",
				"energy": 0.00114,
				"method": "rhf"
			},
			{
				"type": "unocc",
				"energy": 0.01957,
				"method": "rhf"
			},
			{
				"type": "unocc",
				"energy": 0.0305,
				"method": "rhf"
			}
		],
		"cosmo_sigma_profile": { 
			"-0.025": 0.0,
			"-0.024": 0.0,
			"-0.023": 0.0,
			"-0.022": 0.0,
			"-0.021": 0.0,
			"-0.02": 0.0,
			"-0.019": 0.0,
			"-0.018": 0.0,
			"-0.017": 0.0,
			"-0.016": 0.0,
			"-0.015": 0.725964161292,
			"-0.014": 1.26478386112,
			"-0.013": 0.957470051209,
			"-0.012": 0.837590862266,
			"-0.011": 1.00892600766,
			"-0.01": 2.62805075341,
			"-0.009": 5.84639487524,
			"-0.008": 7.22928277193,
			"-0.007": 12.3734205695,
			"-0.006": 18.6297201465,
			"-0.005": 17.397399887,
			"-0.004": 14.8697914111,
			"-0.003": 14.2163251357,
			"-0.002": 12.8894933777,
			"-0.001": 13.4856024373,
			"0.0": 14.16566925,
			"0.001": 19.1114240051,
			"0.002": 18.4521659869,
			"0.003": 12.3279458706,
			"0.004": 12.003187502,
			"0.005": 9.96596932529,
			"0.006": 5.38435587635,
			"0.007": 5.60857665198,
			"0.008": 5.93467826017,
			"0.009": 5.4285410556,
			"0.01": 5.89920466367,
			"0.011": 5.0110497231,
			"0.012": 7.30877550596,
			"0.013": 4.61183810593,
			"0.014": 0.139745458346,
			"0.015": 0.0,
			"0.016": 0.0,
			"0.017": 0.0,
			"0.018": 0.0,
			"0.019": 0.0,
			"0.02": 0.0,
			"0.021": 0.0,
			"0.022": 0.0,
			"0.023": 0.0,
			"0.024": 0.0,
			"0.0": 0.0
		}
	}
}
