{
	 "smiles": "NS(=O)(=O)C1=CC(=C(Cl)S1)[N+]([O-])=O", 
	 "Tm": 434.15, 
	 "num_atms": 16, 
	 "gaussian": { 
		 "optdone": 1, 
		 "sigma_profile": "yes", 
		 "theory": "DFT", 
		 "functional": "B3LYP", 
		 "basiset": "6-31G**", 
		 "properties": { 
			 "R2extent": 4439.5949, 
			 "electric_dipole_moment_norm": 4.40559147561, 
			 "electric_quadrupole_moment_norm": 12.8291290589, 
			 "total_energy": -1820.98603929, 
			 "HOMO_LUMO_gap": 0.17304, 
			 "cosmo_polarized_energy": -16.89, 
			 "cosmo_cavitation_energy": 26.91, 
			 "cosmo_dispersion_energy": -20.84, 
			 "cosmo_repulsion_energy": 1.58, 
			 "cosmo_total_nonelectrostatic_energy": 7.65, 
			 "SMD_solvation_energy": 6.01 
		},
		"coords": [
			{
				"x": 3.0875713132,
				"y": -0.2702795149,
				"z": -1.4934710569,
				"element": "N" 
			},
			{
				"x": 1.8782810009,
				"y": -1.3348622931,
				"z": -1.9866801465,
				"element": "S" 
			},
			{
				"x": 2.5160416071,
				"y": -2.6458400606,
				"z": -2.0952597264,
				"element": "O" 
			},
			{
				"x": 1.1036846136,
				"y": -0.7277071886,
				"z": -3.067405242,
				"element": "O" 
			},
			{
				"x": 0.7968637436,
				"y": -1.3809059694,
				"z": -0.5773496634,
				"element": "C" 
			},
			{
				"x": -0.4086450224,
				"y": -0.7520403681,
				"z": -0.4878021424,
				"element": "C" 
			},
			{
				"x": -1.03820576,
				"y": -0.9941159813,
				"z": 0.7668852854,
				"element": "C" 
			},
			{
				"x": -0.2987012256,
				"y": -1.8087105304,
				"z": 1.6043867502,
				"element": "C" 
			},
			{
				"x": -0.6464069899,
				"y": -2.3751571856,
				"z": 3.1811130384,
				"element": "Cl" 
			},
			{
				"x": 1.1877396727,
				"y": -2.2993599244,
				"z": 0.8534910238,
				"element": "S" 
			},
			{
				"x": -2.335026753,
				"y": -0.4100186863,
				"z": 1.071382745,
				"element": "N" 
			},
			{
				"x": -2.833008851,
				"y": 0.2963329285,
				"z": 0.1939323649,
				"element": "O" 
			},
			{
				"x": -2.8410527851,
				"y": -0.651087084,
				"z": 2.1640748251,
				"element": "O" 
			},
			{
				"x": 2.9653830706,
				"y": 0.6432040119,
				"z": -1.9228189107,
				"element": "H" 
			},
			{
				"x": 3.9962385643,
				"y": -0.6733858371,
				"z": -1.7075038403,
				"element": "H" 
			},
			{
				"x": -0.847556199,
				"y": -0.1481663166,
				"z": -1.2698753041,
				"element": "H" 
			}
		],
		 "valence_orbital": [ 
			{
				"type": "occ",
				"energy": -0.32159,
				"method": "rhf"
			},
			{
				"type": "occ",
				"energy": -0.31878,
				"method": "rhf"
			},
			{
				"type": "occ",
				"energy": -0.30784,
				"method": "rhf"
			},
			{
				"type": "occ",
				"energy": -0.30385,
				"method": "rhf"
			},
			{
				"type": "occ",
				"energy": -0.27915,
				"method": "rhf"
			},
			{
				"type": "unocc",
				"energy": -0.10611,
				"method": "rhf"
			},
			{
				"type": "unocc",
				"energy": -0.06987,
				"method": "rhf"
			},
			{
				"type": "unocc",
				"energy": -0.02834,
				"method": "rhf"
			},
			{
				"type": "unocc",
				"energy": -0.01561,
				"method": "rhf"
			},
			{
				"type": "unocc",
				"energy": 0.03003,
				"method": "rhf"
			}
		],
		"cosmo_sigma_profile": { 
			"-0.025": 0.0,
			"-0.024": 0.0,
			"-0.023": 0.0,
			"-0.022": 0.0,
			"-0.021": 0.0,
			"-0.02": 0.0,
			"-0.019": 0.0,
			"-0.018": 0.0,
			"-0.017": 0.0,
			"-0.016": 0.714687561614,
			"-0.015": 2.31712676369,
			"-0.014": 2.60860436692,
			"-0.013": 3.16721499134,
			"-0.012": 2.82908965215,
			"-0.011": 1.70938747184,
			"-0.01": 1.75486100484,
			"-0.009": 2.26826168299,
			"-0.008": 3.6629356893,
			"-0.007": 4.69443891145,
			"-0.006": 6.90739315734,
			"-0.005": 12.1286726991,
			"-0.004": 19.4366413953,
			"-0.003": 18.829558521,
			"-0.002": 15.0497181633,
			"-0.001": 14.4012497871,
			"0.0": 14.4302048047,
			"0.001": 11.3376632285,
			"0.002": 8.01582207546,
			"0.003": 6.24914806619,
			"0.004": 6.15146279991,
			"0.005": 5.94099024746,
			"0.006": 9.94410915251,
			"0.007": 13.7385086325,
			"0.008": 8.59279747487,
			"0.009": 11.1703909633,
			"0.01": 10.1292193769,
			"0.011": 2.69169513251,
			"0.012": 0.0,
			"0.013": 0.0,
			"0.014": 0.0,
			"0.015": 0.0,
			"0.016": 0.0,
			"0.017": 0.0,
			"0.018": 0.0,
			"0.019": 0.0,
			"0.02": 0.0,
			"0.021": 0.0,
			"0.022": 0.0,
			"0.023": 0.0,
			"0.024": 0.0,
			"0.025": 0.0
		}
	}
}
