{
	 "smiles": "N#CCC1=NC(=NN1)C1=CC=CC=C1", 
	 "Tm": 439.15, 
	 "num_atms": 22, 
	 "gaussian": { 
		 "optdone": 1, 
		 "sigma_profile": "yes", 
		 "theory": "DFT", 
		 "functional": "B3LYP", 
		 "basiset": "6-31G**", 
		 "properties": { 
			 "R2extent": 3738.235, 
			 "electric_dipole_moment_norm": 1.51581534495, 
			 "electric_quadrupole_moment_norm": 10.3540807013, 
			 "total_energy": -604.869725615, 
			 "HOMO_LUMO_gap": 0.20018, 
			 "cosmo_polarized_energy": -15.71, 
			 "cosmo_cavitation_energy": 28.02, 
			 "cosmo_dispersion_energy": -20.32, 
			 "cosmo_repulsion_energy": 1.59, 
			 "cosmo_total_nonelectrostatic_energy": 9.3, 
			 "SMD_solvation_energy": 3.58 
		},
		"coords": [
			{
				"x": -5.018021191,
				"y": 1.3980774787,
				"z": -0.1648457433,
				"element": "N" 
			},
			{
				"x": -4.0183813749,
				"y": 1.3700226492,
				"z": -0.7530929606,
				"element": "C" 
			},
			{
				"x": -2.7337320627,
				"y": 1.3031494058,
				"z": -1.4539025544,
				"element": "C" 
			},
			{
				"x": -1.7023421497,
				"y": 0.5105986634,
				"z": -0.6956459066,
				"element": "C" 
			},
			{
				"x": -0.4663189715,
				"y": 0.2941846956,
				"z": -1.0979454095,
				"element": "N" 
			},
			{
				"x": 0.0679221301,
				"y": -0.463685298,
				"z": -0.0843914422,
				"element": "C" 
			},
			{
				"x": -0.7818607654,
				"y": -0.7167823467,
				"z": 0.910550092,
				"element": "N" 
			},
			{
				"x": -1.9074501551,
				"y": -0.085138716,
				"z": 0.5000744959,
				"element": "N" 
			},
			{
				"x": 1.4536529424,
				"y": -0.9527265118,
				"z": -0.0951101268,
				"element": "C" 
			},
			{
				"x": 1.9478057494,
				"y": -1.7251162967,
				"z": 0.9677354455,
				"element": "C" 
			},
			{
				"x": 3.2627215988,
				"y": -2.1833672514,
				"z": 0.9471237383,
				"element": "C" 
			},
			{
				"x": 4.0984067313,
				"y": -1.8777110641,
				"z": -0.1307123547,
				"element": "C" 
			},
			{
				"x": 3.6104466099,
				"y": -1.1095905164,
				"z": -1.1899016128,
				"element": "C" 
			},
			{
				"x": 2.2952185496,
				"y": -0.6481602841,
				"z": -1.1747800042,
				"element": "C" 
			},
			{
				"x": -2.8853076006,
				"y": 0.855308628,
				"z": -2.442932804,
				"element": "H" 
			},
			{
				"x": -2.3619893308,
				"y": 2.3203885387,
				"z": -1.6234482176,
				"element": "H" 
			},
			{
				"x": -2.743971808,
				"y": -0.1036176615,
				"z": 1.0671752057,
				"element": "H" 
			},
			{
				"x": 1.2937470986,
				"y": -1.9587411201,
				"z": 1.8012688991,
				"element": "H" 
			},
			{
				"x": 3.6372644755,
				"y": -2.7805309514,
				"z": 1.7736155355,
				"element": "H" 
			},
			{
				"x": 5.1236294278,
				"y": -2.2365157723,
				"z": -0.1440872416,
				"element": "H" 
			},
			{
				"x": 4.2554563551,
				"y": -0.8689747806,
				"z": -2.030193595,
				"element": "H" 
			},
			{
				"x": 1.9059037412,
				"y": -0.0508714883,
				"z": -1.9922534387,
				"element": "H" 
			}
		],
		 "valence_orbital": [ 
			{
				"type": "occ",
				"energy": -0.31485,
				"method": "rhf"
			},
			{
				"type": "occ",
				"energy": -0.2897,
				"method": "rhf"
			},
			{
				"type": "occ",
				"energy": -0.28797,
				"method": "rhf"
			},
			{
				"type": "occ",
				"energy": -0.24996,
				"method": "rhf"
			},
			{
				"type": "occ",
				"energy": -0.23114,
				"method": "rhf"
			},
			{
				"type": "unocc",
				"energy": -0.03096,
				"method": "rhf"
			},
			{
				"type": "unocc",
				"energy": -0.00662,
				"method": "rhf"
			},
			{
				"type": "unocc",
				"energy": 0.00443,
				"method": "rhf"
			},
			{
				"type": "unocc",
				"energy": 0.00736,
				"method": "rhf"
			},
			{
				"type": "unocc",
				"energy": 0.01778,
				"method": "rhf"
			}
		],
		"cosmo_sigma_profile": { 
			"-0.025": 0.0,
			"-0.024": 0.0,
			"-0.023": 0.0,
			"-0.022": 0.0,
			"-0.021": 0.0,
			"-0.02": 0.0,
			"-0.019": 0.0,
			"-0.018": 0.0923653205451,
			"-0.017": 0.853490136271,
			"-0.016": 0.64226574476,
			"-0.015": 0.869774891207,
			"-0.014": 0.950859493602,
			"-0.013": 1.00796832889,
			"-0.012": 1.13682685262,
			"-0.011": 3.61562303324,
			"-0.01": 7.01853617512,
			"-0.009": 5.8921425461,
			"-0.008": 7.07311423496,
			"-0.007": 6.31323664978,
			"-0.006": 8.82598765352,
			"-0.005": 11.4954903241,
			"-0.004": 13.0014873252,
			"-0.003": 12.184384942,
			"-0.002": 11.2651152706,
			"-0.001": 10.2379767834,
			"0.0": 9.28252143047,
			"0.001": 12.5507511701,
			"0.002": 15.204146943,
			"0.003": 18.1009521487,
			"0.004": 15.435623008,
			"0.005": 15.9651681898,
			"0.006": 6.08298313347,
			"0.007": 5.86031532239,
			"0.008": 5.6525134066,
			"0.009": 5.20697113661,
			"0.01": 4.28451972512,
			"0.011": 4.60835808261,
			"0.012": 3.94399665793,
			"0.013": 1.67761209498,
			"0.014": 0.108490298188,
			"0.015": 0.0,
			"0.016": 0.0,
			"0.017": 0.0,
			"0.018": 0.0,
			"0.019": 0.0,
			"0.02": 0.0,
			"0.021": 0.0,
			"0.022": 0.0,
			"0.023": 0.0,
			"0.024": 0.0,
			"0.025": 0.0
		}
	}
}
