{
	 "smiles": "CC(=O)NC1=CC=C(C=C1C)[N+]([O-])=O", 
	 "Tm": 472.15, 
	 "num_atms": 24, 
	 "gaussian": { 
		 "optdone": 1, 
		 "sigma_profile": "yes", 
		 "theory": "DFT", 
		 "functional": "B3LYP", 
		 "basiset": "6-31G**", 
		 "properties": { 
			 "R2extent": 4857.5264, 
			 "electric_dipole_moment_norm": 7.37447257165, 
			 "electric_quadrupole_moment_norm": 20.3371683791, 
			 "total_energy": -684.089615805, 
			 "HOMO_LUMO_gap": 0.16217, 
			 "cosmo_polarized_energy": -16.96, 
			 "cosmo_cavitation_energy": 28.71, 
			 "cosmo_dispersion_energy": -20.9, 
			 "cosmo_repulsion_energy": 1.64, 
			 "cosmo_total_nonelectrostatic_energy": 9.45, 
			 "SMD_solvation_energy": 7.95 
		},
		"coords": [
			{
				"x": -2.0852064925,
				"y": 0.6103026395,
				"z": 3.0404545036,
				"element": "C" 
			},
			{
				"x": -0.5985440708,
				"y": 0.3980246252,
				"z": 2.7973302794,
				"element": "C" 
			},
			{
				"x": 0.2018220317,
				"y": 0.323657067,
				"z": 3.7146755338,
				"element": "O" 
			},
			{
				"x": -0.2517848009,
				"y": 0.3300374369,
				"z": 1.4553958306,
				"element": "N" 
			},
			{
				"x": 1.0179189229,
				"y": 0.1897625969,
				"z": 0.8731481535,
				"element": "C" 
			},
			{
				"x": 2.1887019776,
				"y": 0.0856233575,
				"z": 1.6460056302,
				"element": "C" 
			},
			{
				"x": 3.4235406607,
				"y": -0.0517456137,
				"z": 1.0247126032,
				"element": "C" 
			},
			{
				"x": 3.4857765016,
				"y": -0.0850408997,
				"z": -0.3652683555,
				"element": "C" 
			},
			{
				"x": 2.335006089,
				"y": 0.0163767376,
				"z": -1.1452737167,
				"element": "C" 
			},
			{
				"x": 1.0879232524,
				"y": 0.154617519,
				"z": -0.5445283956,
				"element": "C" 
			},
			{
				"x": -0.1543207156,
				"y": 0.2632295254,
				"z": -1.3980216451,
				"element": "C" 
			},
			{
				"x": 4.7832487373,
				"y": -0.229599327,
				"z": -1.0269079489,
				"element": "N" 
			},
			{
				"x": 4.7998502165,
				"y": -0.2552183521,
				"z": -2.2595725754,
				"element": "O" 
			},
			{
				"x": 5.7840321765,
				"y": -0.3172395398,
				"z": -0.3139392288,
				"element": "O" 
			},
			{
				"x": -2.7183415511,
				"y": 0.2865668825,
				"z": 2.2092281502,
				"element": "H" 
			},
			{
				"x": -2.2699230139,
				"y": 1.6744917671,
				"z": 3.222361296,
				"element": "H" 
			},
			{
				"x": -2.3672754382,
				"y": 0.0657790633,
				"z": 3.9427738919,
				"element": "H" 
			},
			{
				"x": -1.0194259806,
				"y": 0.4022772549,
				"z": 0.8056609527,
				"element": "H" 
			},
			{
				"x": 2.1101004618,
				"y": 0.1138979681,
				"z": 2.722784822,
				"element": "H" 
			},
			{
				"x": 4.3352681427,
				"y": -0.1331306472,
				"z": 1.6029548691,
				"element": "H" 
			},
			{
				"x": 2.4297797896,
				"y": -0.0144829944,
				"z": -2.2239723111,
				"element": "H" 
			},
			{
				"x": 0.1030178962,
				"y": 0.2147895309,
				"z": -2.4579390757,
				"element": "H" 
			},
			{
				"x": -0.8633285766,
				"y": -0.5517416234,
				"z": -1.2005202123,
				"element": "H" 
			},
			{
				"x": -0.6839362166,
				"y": 1.2118650254,
				"z": -1.2379430511,
				"element": "H" 
			}
		],
		 "valence_orbital": [ 
			{
				"type": "occ",
				"energy": -0.29926,
				"method": "rhf"
			},
			{
				"type": "occ",
				"energy": -0.28173,
				"method": "rhf"
			},
			{
				"type": "occ",
				"energy": -0.27212,
				"method": "rhf"
			},
			{
				"type": "occ",
				"energy": -0.27005,
				"method": "rhf"
			},
			{
				"type": "occ",
				"energy": -0.24403,
				"method": "rhf"
			},
			{
				"type": "unocc",
				"energy": -0.08186,
				"method": "rhf"
			},
			{
				"type": "unocc",
				"energy": -0.02164,
				"method": "rhf"
			},
			{
				"type": "unocc",
				"energy": -0.01508,
				"method": "rhf"
			},
			{
				"type": "unocc",
				"energy": 0.03447,
				"method": "rhf"
			},
			{
				"type": "unocc",
				"energy": 0.04817,
				"method": "rhf"
			}
		],
		"cosmo_sigma_profile": { 
			"-0.025": 0.0,
			"-0.024": 0.0,
			"-0.023": 0.0,
			"-0.022": 0.0,
			"-0.021": 0.0,
			"-0.02": 0.0,
			"-0.019": 0.0,
			"-0.018": 0.0,
			"-0.017": 0.0,
			"-0.016": 0.0,
			"-0.015": 0.157288075296,
			"-0.014": 1.13815777558,
			"-0.013": 1.44906522249,
			"-0.012": 1.22925320278,
			"-0.011": 1.8830564753,
			"-0.01": 1.63894992314,
			"-0.009": 1.49692419097,
			"-0.008": 2.94831256066,
			"-0.007": 6.76955086225,
			"-0.006": 12.1192297626,
			"-0.005": 15.9811995116,
			"-0.004": 15.1085487619,
			"-0.003": 18.2494885714,
			"-0.002": 19.9431847993,
			"-0.001": 20.1491461564,
			"0.0": 15.9894022504,
			"0.001": 16.7802059638,
			"0.002": 15.5641523425,
			"0.003": 8.25703858505,
			"0.004": 3.9145495583,
			"0.005": 3.7191982696,
			"0.006": 5.00291984246,
			"0.007": 5.64094024762,
			"0.008": 12.8894926469,
			"0.009": 6.07680558162,
			"0.01": 5.89152169365,
			"0.011": 3.67044806859,
			"0.012": 2.68616690433,
			"0.013": 2.05533525223,
			"0.014": 0.436785832196,
			"0.015": 0.0,
			"0.016": 0.0,
			"0.017": 0.0,
			"0.018": 0.0,
			"0.019": 0.0,
			"0.02": 0.0,
			"0.021": 0.0,
			"0.022": 0.0,
			"0.023": 0.0,
			"0.024": 0.0,
			"0.025": 0.0
		}
	}
}
