{
	 "smiles": "COC1=CC(=C(NC(=O)C=C)C=C1)[N+]([O-])=O", 
	 "Tm": 398.15, 
	 "num_atms": 26, 
	 "gaussian": { 
		 "optdone": 1, 
		 "sigma_profile": "yes", 
		 "theory": "DFT", 
		 "functional": "B3LYP", 
		 "basiset": "6-31G**", 
		 "properties": { 
			 "R2extent": 4858.9576, 
			 "electric_dipole_moment_norm": 6.07968193494, 
			 "electric_quadrupole_moment_norm": 17.6662244172, 
			 "total_energy": -797.352626261, 
			 "HOMO_LUMO_gap": 0.14465, 
			 "cosmo_polarized_energy": -17.52, 
			 "cosmo_cavitation_energy": 31.59, 
			 "cosmo_dispersion_energy": -21.9, 
			 "cosmo_repulsion_energy": 1.71, 
			 "cosmo_total_nonelectrostatic_energy": 11.4, 
			 "SMD_solvation_energy": 10.02 
		},
		"coords": [
			{
				"x": 2.14078637,
				"y": 4.7122894448,
				"z": -0.91766273,
				"element": "C" 
			},
			{
				"x": 1.1463266616,
				"y": 4.2642237267,
				"z": -1.8320181514,
				"element": "O" 
			},
			{
				"x": 0.2630198029,
				"y": 3.3233698814,
				"z": -1.4118618793,
				"element": "C" 
			},
			{
				"x": 0.2515017168,
				"y": 2.7576587905,
				"z": -0.1376981746,
				"element": "C" 
			},
			{
				"x": -0.7231626955,
				"y": 1.8099070113,
				"z": 0.1924558422,
				"element": "C" 
			},
			{
				"x": -1.6663844718,
				"y": 1.3471931507,
				"z": -0.7411013259,
				"element": "C" 
			},
			{
				"x": -2.6444303707,
				"y": 0.3580938035,
				"z": -0.5009650365,
				"element": "N" 
			},
			{
				"x": -2.5198705457,
				"y": -0.9235751745,
				"z": 0.0201797849,
				"element": "C" 
			},
			{
				"x": -3.5266567937,
				"y": -1.5682534602,
				"z": 0.2780950476,
				"element": "O" 
			},
			{
				"x": -1.1405016603,
				"y": -1.470514842,
				"z": 0.1652049552,
				"element": "C" 
			},
			{
				"x": -0.9540526822,
				"y": -2.6647076208,
				"z": 0.7305660264,
				"element": "C" 
			},
			{
				"x": -1.6194168503,
				"y": 1.9330019651,
				"z": -2.0200792511,
				"element": "C" 
			},
			{
				"x": -0.6969260461,
				"y": 2.9110836733,
				"z": -2.351502565,
				"element": "C" 
			},
			{
				"x": -0.7212207324,
				"y": 1.3704247766,
				"z": 1.6033296186,
				"element": "N" 
			},
			{
				"x": -1.7899431756,
				"y": 1.0405988611,
				"z": 2.1081469737,
				"element": "O" 
			},
			{
				"x": 0.3569925779,
				"y": 1.4023995294,
				"z": 2.1979543327,
				"element": "O" 
			},
			{
				"x": 2.734061182,
				"y": 5.4493198686,
				"z": -1.4595364761,
				"element": "H" 
			},
			{
				"x": 2.789695854,
				"y": 3.8887131734,
				"z": -0.5956429115,
				"element": "H" 
			},
			{
				"x": 1.6911132612,
				"y": 5.1853250541,
				"z": -0.0360842872,
				"element": "H" 
			},
			{
				"x": 0.963250789,
				"y": 3.0343762853,
				"z": 0.6270220185,
				"element": "H" 
			},
			{
				"x": -3.6130065441,
				"y": 0.6223135378,
				"z": -0.6341236065,
				"element": "H" 
			},
			{
				"x": -0.3015960301,
				"y": -0.8918208718,
				"z": -0.2099960669,
				"element": "H" 
			},
			{
				"x": -1.8056692958,
				"y": -3.2294423796,
				"z": 1.0973869045,
				"element": "H" 
			},
			{
				"x": 0.035434287,
				"y": -3.0966121688,
				"z": 0.8391061019,
				"element": "H" 
			},
			{
				"x": -2.3282462379,
				"y": 1.5828107928,
				"z": -2.7639768588,
				"element": "H" 
			},
			{
				"x": -0.6810983703,
				"y": 3.3546231914,
				"z": -3.3412982853,
				"element": "H" 
			}
		],
		 "valence_orbital": [ 
			{
				"type": "occ",
				"energy": -0.28619,
				"method": "rhf"
			},
			{
				"type": "occ",
				"energy": -0.27924,
				"method": "rhf"
			},
			{
				"type": "occ",
				"energy": -0.27304,
				"method": "rhf"
			},
			{
				"type": "occ",
				"energy": -0.25482,
				"method": "rhf"
			},
			{
				"type": "occ",
				"energy": -0.23586,
				"method": "rhf"
			},
			{
				"type": "unocc",
				"energy": -0.09121,
				"method": "rhf"
			},
			{
				"type": "unocc",
				"energy": -0.0419,
				"method": "rhf"
			},
			{
				"type": "unocc",
				"energy": -0.02315,
				"method": "rhf"
			},
			{
				"type": "unocc",
				"energy": -0.00869,
				"method": "rhf"
			},
			{
				"type": "unocc",
				"energy": 0.07187,
				"method": "rhf"
			}
		],
		"cosmo_sigma_profile": { 
			"-0.025": 0.0,
			"-0.024": 0.0,
			"-0.023": 0.0,
			"-0.022": 0.0,
			"-0.021": 0.0,
			"-0.02": 0.0,
			"-0.019": 0.0,
			"-0.018": 0.0,
			"-0.017": 0.0,
			"-0.016": 0.0,
			"-0.015": 0.549498838664,
			"-0.014": 1.33737095894,
			"-0.013": 0.693793268266,
			"-0.012": 0.647650143635,
			"-0.011": 1.22803692571,
			"-0.01": 1.34536419718,
			"-0.009": 1.03496323218,
			"-0.008": 4.58794917596,
			"-0.007": 12.4268997843,
			"-0.006": 19.3883811783,
			"-0.005": 18.8701297258,
			"-0.004": 18.840499904,
			"-0.003": 16.1967220526,
			"-0.002": 14.8406843348,
			"-0.001": 15.9968373516,
			"0.0": 18.4330159735,
			"0.001": 19.0371843853,
			"0.002": 12.433365274,
			"0.003": 9.29609628002,
			"0.004": 8.25729757381,
			"0.005": 5.57847276752,
			"0.006": 7.05803215527,
			"0.007": 13.3256434335,
			"0.008": 9.55134937117,
			"0.009": 6.42296188888,
			"0.01": 3.56637628228,
			"0.011": 1.55401404637,
			"0.012": 2.62452366705,
			"0.013": 5.65628844948,
			"0.014": 1.4730893929,
			"0.015": 0.0,
			"0.016": 0.0,
			"0.017": 0.0,
			"0.018": 0.0,
			"0.019": 0.0,
			"0.02": 0.0,
			"0.021": 0.0,
			"0.022": 0.0,
			"0.023": 0.0,
			"0.024": 0.0,
			"0.025": 0.0
		}
	}
}
