{
	 "smiles": "OC1=C(Cl)C=C(F)C=C1", 
	 "Tm": 296.15, 
	 "num_atms": 13, 
	 "gaussian": { 
		 "optdone": 1, 
		 "sigma_profile": "yes", 
		 "theory": "DFT", 
		 "functional": "B3LYP", 
		 "basiset": "6-31G**", 
		 "properties": { 
			 "R2extent": 1613.786, 
			 "electric_dipole_moment_norm": 0.537471943454, 
			 "electric_quadrupole_moment_norm": 4.41624279224, 
			 "total_energy": -866.293497617, 
			 "HOMO_LUMO_gap": 0.20369, 
			 "cosmo_polarized_energy": -5.31, 
			 "cosmo_cavitation_energy": 19.5, 
			 "cosmo_dispersion_energy": -14.8, 
			 "cosmo_repulsion_energy": 1.19, 
			 "cosmo_total_nonelectrostatic_energy": 5.89, 
			 "SMD_solvation_energy": 4.01 
		},
		"coords": [
			{
				"x": 0.9535719183,
				"y": 2.117354652,
				"z": 2.1054722178,
				"element": "O" 
			},
			{
				"x": 0.5182837608,
				"y": 1.3871361898,
				"z": 1.0477005915,
				"element": "C" 
			},
			{
				"x": 1.3068857368,
				"y": 0.4311774494,
				"z": 0.3889557018,
				"element": "C" 
			},
			{
				"x": 2.9505633509,
				"y": 0.1604119553,
				"z": 0.9615681054,
				"element": "Cl" 
			},
			{
				"x": 0.8221015447,
				"y": -0.2983868926,
				"z": -0.6946645928,
				"element": "C" 
			},
			{
				"x": -0.4779796458,
				"y": -0.0586319619,
				"z": -1.1186760629,
				"element": "C" 
			},
			{
				"x": -0.9586860702,
				"y": -0.7594261383,
				"z": -2.1676072609,
				"element": "F" 
			},
			{
				"x": -1.2917402583,
				"y": 0.8802409881,
				"z": -0.4925895545,
				"element": "C" 
			},
			{
				"x": -0.7876885073,
				"y": 1.5978682517,
				"z": 0.5878156268,
				"element": "C" 
			},
			{
				"x": 1.867024196,
				"y": 1.8650395919,
				"z": 2.3082587577,
				"element": "H" 
			},
			{
				"x": 1.4381469135,
				"y": -1.0342401323,
				"z": -1.1969207926,
				"element": "H" 
			},
			{
				"x": -2.3019619897,
				"y": 1.0398730429,
				"z": -0.8521621478,
				"element": "H" 
			},
			{
				"x": -1.3936209496,
				"y": 2.3375830039,
				"z": 1.0998494105,
				"element": "H" 
			}
		],
		 "valence_orbital": [ 
			{
				"type": "occ",
				"energy": -0.35975,
				"method": "rhf"
			},
			{
				"type": "occ",
				"energy": -0.33816,
				"method": "rhf"
			},
			{
				"type": "occ",
				"energy": -0.33216,
				"method": "rhf"
			},
			{
				"type": "occ",
				"energy": -0.26521,
				"method": "rhf"
			},
			{
				"type": "occ",
				"energy": -0.22902,
				"method": "rhf"
			},
			{
				"type": "unocc",
				"energy": -0.02533,
				"method": "rhf"
			},
			{
				"type": "unocc",
				"energy": 0.00307,
				"method": "rhf"
			},
			{
				"type": "unocc",
				"energy": 0.01106,
				"method": "rhf"
			},
			{
				"type": "unocc",
				"energy": 0.08361,
				"method": "rhf"
			},
			{
				"type": "unocc",
				"energy": 0.10447,
				"method": "rhf"
			}
		],
		"cosmo_sigma_profile": { 
			"-0.025": 0.0,
			"-0.024": 0.0,
			"-0.023": 0.0,
			"-0.022": 0.0,
			"-0.021": 0.0,
			"-0.02": 0.0,
			"-0.019": 0.0,
			"-0.018": 0.0,
			"-0.017": 0.0,
			"-0.016": 0.0496172064648,
			"-0.015": 0.260092777341,
			"-0.014": 1.0633526254,
			"-0.013": 0.845232693844,
			"-0.012": 0.520777625729,
			"-0.011": 0.258079160116,
			"-0.01": 1.26937486275,
			"-0.009": 1.50869881258,
			"-0.008": 3.59608859907,
			"-0.007": 6.17675002001,
			"-0.006": 6.30166448211,
			"-0.005": 6.29793576486,
			"-0.004": 6.27643074149,
			"-0.003": 5.94278053339,
			"-0.002": 7.18632729123,
			"-0.001": 9.92080763413,
			"0.0": 13.7783165095,
			"0.001": 20.7729943654,
			"0.002": 21.1683406434,
			"0.003": 16.2601557491,
			"0.004": 17.3278931509,
			"0.005": 4.32424990337,
			"0.006": 1.16269961267,
			"0.007": 1.18063549545,
			"0.008": 1.49383120909,
			"0.009": 1.62574684848,
			"0.01": 1.90335709972,
			"0.011": 0.692591458375,
			"0.012": 0.0,
			"0.013": 0.0,
			"0.014": 0.0,
			"0.015": 0.0,
			"0.016": 0.0,
			"0.017": 0.0,
			"0.018": 0.0,
			"0.019": 0.0,
			"0.02": 0.0,
			"0.021": 0.0,
			"0.022": 0.0,
			"0.023": 0.0,
			"0.024": 0.0,
			"0.025": 0.0
		}
	}
}
