{
	 "smiles": "CN(C)C1=CC=C(C=CC(O)=O)C=C1", 
	 "Tm": 499.15, 
	 "num_atms": 27, 
	 "gaussian": { 
		 "optdone": 1, 
		 "sigma_profile": "yes", 
		 "theory": "DFT", 
		 "functional": "B3LYP", 
		 "basiset": "6-31G**", 
		 "properties": { 
			 "R2extent": 5129.8473, 
			 "electric_dipole_moment_norm": 5.85691644639, 
			 "electric_quadrupole_moment_norm": 14.3160430923, 
			 "total_energy": -632.205583747, 
			 "HOMO_LUMO_gap": 0.14268, 
			 "cosmo_polarized_energy": -13.66, 
			 "cosmo_cavitation_energy": 31.02, 
			 "cosmo_dispersion_energy": -22.6, 
			 "cosmo_repulsion_energy": 1.76, 
			 "cosmo_total_nonelectrostatic_energy": 10.19, 
			 "SMD_solvation_energy": 6.41 
		},
		"coords": [
			{
				"x": -3.710394487,
				"y": 0.0038937731,
				"z": 1.8631071376,
				"element": "C" 
			},
			{
				"x": -2.2730590391,
				"y": 0.1349845013,
				"z": 2.0330484198,
				"element": "N" 
			},
			{
				"x": -1.7347759027,
				"y": 0.4566497376,
				"z": 3.3442409009,
				"element": "C" 
			},
			{
				"x": -1.4235880583,
				"y": -0.1930842121,
				"z": 0.9965909391,
				"element": "C" 
			},
			{
				"x": -1.9199395923,
				"y": -0.5862564897,
				"z": -0.2697507874,
				"element": "C" 
			},
			{
				"x": -1.0523988036,
				"y": -0.9010757183,
				"z": -1.3045535024,
				"element": "C" 
			},
			{
				"x": 0.3464222305,
				"y": -0.8517012771,
				"z": -1.1541123086,
				"element": "C" 
			},
			{
				"x": 1.1979543085,
				"y": -1.1950194845,
				"z": -2.2800572762,
				"element": "C" 
			},
			{
				"x": 2.5471430423,
				"y": -1.2061194154,
				"z": -2.3358967752,
				"element": "C" 
			},
			{
				"x": 3.2263687109,
				"y": -1.5866632334,
				"z": -3.5802496687,
				"element": "C" 
			},
			{
				"x": 4.5822981184,
				"y": -1.5391445361,
				"z": -3.4473861671,
				"element": "O" 
			},
			{
				"x": 2.6977183371,
				"y": -1.9128168368,
				"z": -4.6294440334,
				"element": "O" 
			},
			{
				"x": 0.8349650008,
				"y": -0.4658411033,
				"z": 0.110818408,
				"element": "C" 
			},
			{
				"x": -0.013919459,
				"y": -0.147556535,
				"z": 1.1564982949,
				"element": "C" 
			},
			{
				"x": -4.2106551967,
				"y": 0.3219200625,
				"z": 2.7783688733,
				"element": "H" 
			},
			{
				"x": -4.0124733459,
				"y": -1.0320298945,
				"z": 1.6522399236,
				"element": "H" 
			},
			{
				"x": -4.0777399018,
				"y": 0.6359221909,
				"z": 1.0446515206,
				"element": "H" 
			},
			{
				"x": -1.0668743601,
				"y": 1.3263681042,
				"z": 3.3031991347,
				"element": "H" 
			},
			{
				"x": -2.5560617204,
				"y": 0.7012115398,
				"z": 4.0186278497,
				"element": "H" 
			},
			{
				"x": -1.1733858563,
				"y": -0.3811191466,
				"z": 3.7821496605,
				"element": "H" 
			},
			{
				"x": -2.9866087497,
				"y": -0.6468784041,
				"z": -0.4458799007,
				"element": "H" 
			},
			{
				"x": -1.4674255369,
				"y": -1.1982191757,
				"z": -2.2645623774,
				"element": "H" 
			},
			{
				"x": 0.683684125,
				"y": -1.4796893603,
				"z": -3.1975343481,
				"element": "H" 
			},
			{
				"x": 3.1789255021,
				"y": -0.9433583797,
				"z": -1.4941203428,
				"element": "H" 
			},
			{
				"x": 4.9349149507,
				"y": -1.804226937,
				"z": -4.3125530242,
				"element": "H" 
			},
			{
				"x": 1.9062672294,
				"y": -0.4158477314,
				"z": 0.2815251482,
				"element": "H" 
			},
			{
				"x": 0.4175384539,
				"y": 0.1383979618,
				"z": 2.1077343012,
				"element": "H" 
			}
		],
		 "valence_orbital": [ 
			{
				"type": "occ",
				"energy": -0.29693,
				"method": "rhf"
			},
			{
				"type": "occ",
				"energy": -0.25726,
				"method": "rhf"
			},
			{
				"type": "occ",
				"energy": -0.25664,
				"method": "rhf"
			},
			{
				"type": "occ",
				"energy": -0.25434,
				"method": "rhf"
			},
			{
				"type": "occ",
				"energy": -0.19177,
				"method": "rhf"
			},
			{
				"type": "unocc",
				"energy": -0.04909,
				"method": "rhf"
			},
			{
				"type": "unocc",
				"energy": -0.00186,
				"method": "rhf"
			},
			{
				"type": "unocc",
				"energy": 0.03938,
				"method": "rhf"
			},
			{
				"type": "unocc",
				"energy": 0.07716,
				"method": "rhf"
			},
			{
				"type": "unocc",
				"energy": 0.09602,
				"method": "rhf"
			}
		],
		"cosmo_sigma_profile": { 
			"-0.025": 0.0,
			"-0.024": 0.0,
			"-0.023": 0.0,
			"-0.022": 0.0,
			"-0.021": 0.0,
			"-0.02": 0.0,
			"-0.019": 0.0,
			"-0.018": 0.0914933742921,
			"-0.017": 0.80315353113,
			"-0.016": 0.817713331435,
			"-0.015": 0.924681055849,
			"-0.014": 0.699033512216,
			"-0.013": 0.865343663501,
			"-0.012": 0.506666677777,
			"-0.011": 0.450291985043,
			"-0.01": 0.795664180369,
			"-0.009": 0.873217276237,
			"-0.008": 1.05270360286,
			"-0.007": 5.01427591118,
			"-0.006": 11.1231902979,
			"-0.005": 18.4186756961,
			"-0.004": 24.4147232331,
			"-0.003": 21.2149978111,
			"-0.002": 23.9478917677,
			"-0.001": 15.9330612425,
			"0.0": 12.6399482427,
			"0.001": 13.0469796394,
			"0.002": 14.5283256998,
			"0.003": 15.1838560308,
			"0.004": 16.9264844059,
			"0.005": 15.5824767092,
			"0.006": 7.49553123631,
			"0.007": 3.11738410165,
			"0.008": 2.68023470781,
			"0.009": 1.89857677849,
			"0.01": 3.93901531744,
			"0.011": 2.07575730632,
			"0.012": 3.73112075735,
			"0.013": 4.83841445106,
			"0.014": 0.316500680624,
			"0.015": 0.0,
			"0.016": 0.0,
			"0.017": 0.0,
			"0.018": 0.0,
			"0.019": 0.0,
			"0.02": 0.0,
			"0.021": 0.0,
			"0.022": 0.0,
			"0.023": 0.0,
			"0.024": 0.0,
			"0.025": 0.0
		}
	}
}
