{
	 "smiles": "FC1=CC(F)=C(Br)C(F)=C1", 
	 "Tm": 277.15, 
	 "num_atms": 12, 
	 "gaussian": { 
		 "optdone": 1, 
		 "sigma_profile": "yes", 
		 "theory": "DFT", 
		 "functional": "B3LYP", 
		 "basiset": "6-31G**", 
		 "properties": { 
			 "R2extent": 4599.9069, 
			 "electric_dipole_moment_norm": 1.18728431304, 
			 "electric_quadrupole_moment_norm": 3.60967357527, 
			 "total_energy": -3100.73838576, 
			 "HOMO_LUMO_gap": 0.2269, 
			 "cosmo_polarized_energy": -3.32, 
			 "cosmo_cavitation_energy": 20.51, 
			 "cosmo_dispersion_energy": -15.28, 
			 "cosmo_repulsion_energy": 1.17, 
			 "cosmo_total_nonelectrostatic_energy": 6.4, 
			 "SMD_solvation_energy": 4.01 
		},
		"coords": [
			{
				"x": -0.6660195086,
				"y": 1.4759777582,
				"z": -2.1174081521,
				"element": "F" 
			},
			{
				"x": 0.0705354045,
				"y": 1.652578357,
				"z": -1.0086412757,
				"element": "C" 
			},
			{
				"x": -0.3705892926,
				"y": 1.0888412235,
				"z": 0.1830178325,
				"element": "C" 
			},
			{
				"x": 0.4075726523,
				"y": 1.284393476,
				"z": 1.318216337,
				"element": "C" 
			},
			{
				"x": 0.0011038788,
				"y": 0.7503435419,
				"z": 2.4754964998,
				"element": "F" 
			},
			{
				"x": 1.595529458,
				"y": 2.0182667022,
				"z": 1.2870381846,
				"element": "C" 
			},
			{
				"x": 2.6313711059,
				"y": 2.2667104814,
				"z": 2.8462908476,
				"element": "Br" 
			},
			{
				"x": 1.9909753337,
				"y": 2.5620902636,
				"z": 0.0628375213,
				"element": "C" 
			},
			{
				"x": 3.1241176279,
				"y": 3.2703979698,
				"z": -0.0005196631,
				"element": "F" 
			},
			{
				"x": 1.2443458695,
				"y": 2.3919981021,
				"z": -1.0973574873,
				"element": "C" 
			},
			{
				"x": -1.287759682,
				"y": 0.5158031388,
				"z": 0.2330142659,
				"element": "H" 
			},
			{
				"x": 1.5722171526,
				"y": 2.8236989855,
				"z": -2.0344849104,
				"element": "H" 
			}
		],
		 "valence_orbital": [ 
			{
				"type": "occ",
				"energy": -0.37304,
				"method": "rhf"
			},
			{
				"type": "occ",
				"energy": -0.32515,
				"method": "rhf"
			},
			{
				"type": "occ",
				"energy": -0.30027,
				"method": "rhf"
			},
			{
				"type": "occ",
				"energy": -0.27127,
				"method": "rhf"
			},
			{
				"type": "occ",
				"energy": -0.25207,
				"method": "rhf"
			},
			{
				"type": "unocc",
				"energy": -0.02517,
				"method": "rhf"
			},
			{
				"type": "unocc",
				"energy": -0.02495,
				"method": "rhf"
			},
			{
				"type": "unocc",
				"energy": -0.01374,
				"method": "rhf"
			},
			{
				"type": "unocc",
				"energy": 0.08269,
				"method": "rhf"
			},
			{
				"type": "unocc",
				"energy": 0.12457,
				"method": "rhf"
			}
		],
		"cosmo_sigma_profile": { 
			"-0.025": 0.0,
			"-0.024": 0.0,
			"-0.023": 0.0,
			"-0.022": 0.0,
			"-0.021": 0.0,
			"-0.02": 0.0,
			"-0.019": 0.0,
			"-0.018": 0.0,
			"-0.017": 0.0,
			"-0.016": 0.0,
			"-0.015": 0.0,
			"-0.014": 0.0,
			"-0.013": 0.0,
			"-0.012": 0.0,
			"-0.011": 0.0,
			"-0.01": 0.695642432156,
			"-0.009": 3.42642617765,
			"-0.008": 2.74724294015,
			"-0.007": 3.13615766862,
			"-0.006": 3.55319141443,
			"-0.005": 4.51375350556,
			"-0.004": 3.98746090643,
			"-0.003": 5.47150856593,
			"-0.002": 15.8521871569,
			"-0.001": 28.0355497579,
			"0.0": 20.142469518,
			"0.001": 10.9879974338,
			"0.002": 14.1797040773,
			"0.003": 35.0156843221,
			"0.004": 16.81045515,
			"0.005": 1.02602885008,
			"0.006": 0.0,
			"0.007": 0.0,
			"0.008": 0.0,
			"0.009": 0.0,
			"0.01": 0.0,
			"0.011": 0.0,
			"0.012": 0.0,
			"0.013": 0.0,
			"0.014": 0.0,
			"0.015": 0.0,
			"0.016": 0.0,
			"0.017": 0.0,
			"0.018": 0.0,
			"0.019": 0.0,
			"0.02": 0.0,
			"0.021": 0.0,
			"0.022": 0.0,
			"0.023": 0.0,
			"0.024": 0.0,
			"0.025": 0.0
		}
	}
}
