{
	 "smiles": "CC(C)=CC(=O)NC1=C(C(O)=O)C(=CS1)C1=CC=CC=C1", 
	 "Tm": 476.15, 
	 "num_atms": 36, 
	 "gaussian": { 
		 "optdone": 1, 
		 "sigma_profile": "yes", 
		 "theory": "DFT", 
		 "functional": "B3LYP", 
		 "basiset": "6-31G**", 
		 "properties": { 
			 "R2extent": 9254.2999, 
			 "electric_dipole_moment_norm": 4.22324041703, 
			 "electric_quadrupole_moment_norm": 17.9485150692, 
			 "total_energy": -1297.36920993, 
			 "HOMO_LUMO_gap": 0.15525, 
			 "cosmo_polarized_energy": -17.85, 
			 "cosmo_cavitation_energy": 41.78, 
			 "cosmo_dispersion_energy": -29.7, 
			 "cosmo_repulsion_energy": 2.23, 
			 "cosmo_total_nonelectrostatic_energy": 14.32, 
			 "SMD_solvation_energy": 8.65 
		},
		"coords": [
			{
				"x": -2.0414400067,
				"y": -4.9980427468,
				"z": -1.5310007187,
				"element": "C" 
			},
			{
				"x": -1.619218657,
				"y": -3.7949453994,
				"z": -0.724167551,
				"element": "C" 
			},
			{
				"x": -2.4118282935,
				"y": -2.5425071981,
				"z": -1.0101049562,
				"element": "C" 
			},
			{
				"x": -0.6329200616,
				"y": -3.9125103763,
				"z": 0.1855128207,
				"element": "C" 
			},
			{
				"x": -0.0838304467,
				"y": -2.8976209309,
				"z": 1.1219904956,
				"element": "C" 
			},
			{
				"x": 0.2205649197,
				"y": -3.1839675858,
				"z": 2.2758352554,
				"element": "O" 
			},
			{
				"x": 0.117478271,
				"y": -1.6230197534,
				"z": 0.6181069131,
				"element": "N" 
			},
			{
				"x": 0.6318027931,
				"y": -0.5552474592,
				"z": 1.3289748023,
				"element": "C" 
			},
			{
				"x": 0.8805149218,
				"y": 0.7306577246,
				"z": 0.8373307242,
				"element": "C" 
			},
			{
				"x": 0.7136960274,
				"y": 1.1397819026,
				"z": -0.5608106055,
				"element": "C" 
			},
			{
				"x": 0.123554926,
				"y": 0.1737561379,
				"z": -1.3542007029,
				"element": "O" 
			},
			{
				"x": 1.041268618,
				"y": 2.1971304533,
				"z": -1.0583775399,
				"element": "O" 
			},
			{
				"x": 1.4310721145,
				"y": 1.6052763421,
				"z": 1.8607988821,
				"element": "C" 
			},
			{
				"x": 1.5801997163,
				"y": 0.9482245128,
				"z": 3.0484439119,
				"element": "C" 
			},
			{
				"x": 1.0763841659,
				"y": -0.7156195599,
				"z": 3.0053867729,
				"element": "S" 
			},
			{
				"x": 1.785128446,
				"y": 3.0439371306,
				"z": 1.7404488122,
				"element": "C" 
			},
			{
				"x": 0.8629365201,
				"y": 3.998868277,
				"z": 1.283942631,
				"element": "C" 
			},
			{
				"x": 1.1917609608,
				"y": 5.3519001659,
				"z": 1.2679485476,
				"element": "C" 
			},
			{
				"x": 2.4485856978,
				"y": 5.7786242034,
				"z": 1.7052535084,
				"element": "C" 
			},
			{
				"x": 3.3741757662,
				"y": 4.8396429551,
				"z": 2.1596618442,
				"element": "C" 
			},
			{
				"x": 3.0437815334,
				"y": 3.4836967986,
				"z": 2.1782507652,
				"element": "C" 
			},
			{
				"x": -1.4262436418,
				"y": -5.8748996781,
				"z": -1.3165490592,
				"element": "H" 
			},
			{
				"x": -1.9755633633,
				"y": -4.784814896,
				"z": -2.6056901437,
				"element": "H" 
			},
			{
				"x": -3.0894962886,
				"y": -5.2524652267,
				"z": -1.3282484958,
				"element": "H" 
			},
			{
				"x": -3.4825692674,
				"y": -2.7778979112,
				"z": -1.0160826144,
				"element": "H" 
			},
			{
				"x": -2.2454649253,
				"y": -1.745880047,
				"z": -0.2847993593,
				"element": "H" 
			},
			{
				"x": -2.1774011616,
				"y": -2.1522471168,
				"z": -2.0093039936,
				"element": "H" 
			},
			{
				"x": -0.2042866921,
				"y": -4.8950193082,
				"z": 0.3664924071,
				"element": "H" 
			},
			{
				"x": -0.0407791202,
				"y": -1.4428580488,
				"z": -0.3662322055,
				"element": "H" 
			},
			{
				"x": 0.1051420944,
				"y": 0.5609697705,
				"z": -2.2446094399,
				"element": "H" 
			},
			{
				"x": 1.9316197664,
				"y": 1.3710580712,
				"z": 3.9793667424,
				"element": "H" 
			},
			{
				"x": -0.1155745214,
				"y": 3.6776993636,
				"z": 0.9436915934,
				"element": "H" 
			},
			{
				"x": 0.4640049453,
				"y": 6.0767953756,
				"z": 0.914196311,
				"element": "H" 
			},
			{
				"x": 2.7031921216,
				"y": 6.8345534991,
				"z": 1.6887024942,
				"element": "H" 
			},
			{
				"x": 4.3564400885,
				"y": 5.1589937693,
				"z": 2.4966119192,
				"element": "H" 
			},
			{
				"x": 3.7697120334,
				"y": 2.7520967893,
				"z": 2.5209292315,
				"element": "H" 
			}
		],
		 "valence_orbital": [ 
			{
				"type": "occ",
				"energy": -0.2623,
				"method": "rhf"
			},
			{
				"type": "occ",
				"energy": -0.25935,
				"method": "rhf"
			},
			{
				"type": "occ",
				"energy": -0.24088,
				"method": "rhf"
			},
			{
				"type": "occ",
				"energy": -0.23467,
				"method": "rhf"
			},
			{
				"type": "occ",
				"energy": -0.21039,
				"method": "rhf"
			},
			{
				"type": "unocc",
				"energy": -0.05514,
				"method": "rhf"
			},
			{
				"type": "unocc",
				"energy": -0.01777,
				"method": "rhf"
			},
			{
				"type": "unocc",
				"energy": -0.01122,
				"method": "rhf"
			},
			{
				"type": "unocc",
				"energy": 0.00845,
				"method": "rhf"
			},
			{
				"type": "unocc",
				"energy": 0.02513,
				"method": "rhf"
			}
		],
		"cosmo_sigma_profile": { 
			"-0.025": 0.0,
			"-0.024": 0.0,
			"-0.023": 0.0,
			"-0.022": 0.0,
			"-0.021": 0.0,
			"-0.02": 0.0,
			"-0.019": 0.0824756578024,
			"-0.018": 0.647168445815,
			"-0.017": 0.954163333386,
			"-0.016": 0.974717707395,
			"-0.015": 0.422004307625,
			"-0.014": 0.412051025012,
			"-0.013": 0.376826546828,
			"-0.012": 1.0946981839,
			"-0.011": 1.01386356303,
			"-0.01": 0.790972473383,
			"-0.009": 0.388811227223,
			"-0.008": 3.01855478156,
			"-0.007": 3.94698687262,
			"-0.006": 8.72552768899,
			"-0.005": 22.2134828252,
			"-0.004": 32.1435653191,
			"-0.003": 32.7469503541,
			"-0.002": 30.3381927192,
			"-0.001": 34.9918168283,
			"0.0": 27.2900449389,
			"0.001": 21.4438801655,
			"0.002": 21.4877056081,
			"0.003": 20.1479428785,
			"0.004": 15.7718539507,
			"0.005": 10.9213721806,
			"0.006": 10.2336046871,
			"0.007": 4.31727593943,
			"0.008": 3.14395030728,
			"0.009": 4.11314123831,
			"0.01": 4.50931061174,
			"0.011": 5.26526537457,
			"0.012": 7.77999976441,
			"0.013": 3.12360071249,
			"0.014": 0.408236108042,
			"0.015": 0.0,
			"0.016": 0.0,
			"0.017": 0.0,
			"0.018": 0.0,
			"0.019": 0.0,
			"0.02": 0.0,
			"0.021": 0.0,
			"0.022": 0.0,
			"0.023": 0.0,
			"0.024": 0.0,
			"0.025": 0.0
		}
	}
}
