{
	 "smiles": "CC(Cl)C(=O)NC1=C(F)C(F)=C(F)C=C1", 
	 "Tm": 411.15, 
	 "num_atms": 22, 
	 "gaussian": { 
		 "optdone": 1, 
		 "sigma_profile": "yes", 
		 "theory": "DFT", 
		 "functional": "B3LYP", 
		 "basiset": "6-31G**", 
		 "properties": { 
			 "R2extent": 4617.6527, 
			 "electric_dipole_moment_norm": 1.88469847456, 
			 "electric_quadrupole_moment_norm": 5.01578066506, 
			 "total_energy": -1236.85656213, 
			 "HOMO_LUMO_gap": 0.20444, 
			 "cosmo_polarized_energy": -7.51, 
			 "cosmo_cavitation_energy": 29.76, 
			 "cosmo_dispersion_energy": -21.27, 
			 "cosmo_repulsion_energy": 1.6, 
			 "cosmo_total_nonelectrostatic_energy": 10.09, 
			 "SMD_solvation_energy": 6.66 
		},
		"coords": [
			{
				"x": -1.2653705911,
				"y": 2.2932257392,
				"z": -3.0024159659,
				"element": "C" 
			},
			{
				"x": -1.1006859509,
				"y": 0.8352909593,
				"z": -2.5816106972,
				"element": "C" 
			},
			{
				"x": -2.70263994,
				"y": 0.1699690162,
				"z": -1.9841694558,
				"element": "Cl" 
			},
			{
				"x": 0.0637953839,
				"y": 0.6793556018,
				"z": -1.58582737,
				"element": "C" 
			},
			{
				"x": 1.1777776288,
				"y": 1.0050670555,
				"z": -1.9764819371,
				"element": "O" 
			},
			{
				"x": -0.2290218419,
				"y": 0.2062192647,
				"z": -0.3420692801,
				"element": "N" 
			},
			{
				"x": 0.665859694,
				"y": -0.0056529252,
				"z": 0.7212619527,
				"element": "C" 
			},
			{
				"x": 0.1111353053,
				"y": -0.5134073412,
				"z": 1.9044801223,
				"element": "C" 
			},
			{
				"x": -1.2148037935,
				"y": -0.7634459141,
				"z": 1.9515418869,
				"element": "F" 
			},
			{
				"x": 0.8870306265,
				"y": -0.7649523383,
				"z": 3.027221102,
				"element": "C" 
			},
			{
				"x": 0.3214896964,
				"y": -1.2493905043,
				"z": 4.1390085551,
				"element": "F" 
			},
			{
				"x": 2.2559739826,
				"y": -0.505171266,
				"z": 2.9740294726,
				"element": "C" 
			},
			{
				"x": 2.9992043655,
				"y": -0.7517474705,
				"z": 4.0648607297,
				"element": "F" 
			},
			{
				"x": 2.8290808392,
				"y": -0.0027378403,
				"z": 1.8145809139,
				"element": "C" 
			},
			{
				"x": 2.0440744113,
				"y": 0.2490332752,
				"z": 0.6878773397,
				"element": "C" 
			},
			{
				"x": -0.3011015949,
				"y": 2.6565172968,
				"z": -3.3664488214,
				"element": "H" 
			},
			{
				"x": -1.5799721316,
				"y": 2.9107370372,
				"z": -2.1568136213,
				"element": "H" 
			},
			{
				"x": -2.0080598839,
				"y": 2.3810508406,
				"z": -3.7978521377,
				"element": "H" 
			},
			{
				"x": -0.8497725103,
				"y": 0.2149397192,
				"z": -3.4439597058,
				"element": "H" 
			},
			{
				"x": -1.1945790874,
				"y": -0.0383962734,
				"z": -0.158439489,
				"element": "H" 
			},
			{
				"x": 3.8959575844,
				"y": 0.1896164205,
				"z": 1.8014938706,
				"element": "H" 
			},
			{
				"x": 2.4818278077,
				"y": 0.6395796472,
				"z": -0.2189674643,
				"element": "H" 
			}
		],
		 "valence_orbital": [ 
			{
				"type": "occ",
				"energy": -0.3236,
				"method": "rhf"
			},
			{
				"type": "occ",
				"energy": -0.31283,
				"method": "rhf"
			},
			{
				"type": "occ",
				"energy": -0.27443,
				"method": "rhf"
			},
			{
				"type": "occ",
				"energy": -0.26315,
				"method": "rhf"
			},
			{
				"type": "occ",
				"energy": -0.23747,
				"method": "rhf"
			},
			{
				"type": "unocc",
				"energy": -0.03303,
				"method": "rhf"
			},
			{
				"type": "unocc",
				"energy": -0.01898,
				"method": "rhf"
			},
			{
				"type": "unocc",
				"energy": 0.00192,
				"method": "rhf"
			},
			{
				"type": "unocc",
				"energy": 0.0267,
				"method": "rhf"
			},
			{
				"type": "unocc",
				"energy": 0.03791,
				"method": "rhf"
			}
		],
		"cosmo_sigma_profile": { 
			"-0.025": 0.0,
			"-0.024": 0.0,
			"-0.023": 0.0,
			"-0.022": 0.0,
			"-0.021": 0.0,
			"-0.02": 0.0,
			"-0.019": 0.0,
			"-0.018": 0.0,
			"-0.017": 0.0,
			"-0.016": 0.0,
			"-0.015": 0.0,
			"-0.014": 0.0,
			"-0.013": 0.0,
			"-0.012": 0.0,
			"-0.011": 0.0,
			"-0.01": 0.0,
			"-0.009": 1.71809767327,
			"-0.008": 5.00702337587,
			"-0.007": 5.45290247911,
			"-0.006": 9.30044116426,
			"-0.005": 13.6274960369,
			"-0.004": 11.8028256149,
			"-0.003": 16.3388603454,
			"-0.002": 24.0428494077,
			"-0.001": 25.3806784021,
			"0.0": 19.4786978151,
			"0.001": 18.256505979,
			"0.002": 22.9713037937,
			"0.003": 32.8588785353,
			"0.004": 12.6569442891,
			"0.005": 8.20185565562,
			"0.006": 2.83493236222,
			"0.007": 1.28783937207,
			"0.008": 1.54602353711,
			"0.009": 1.68947994153,
			"0.01": 1.68757759281,
			"0.011": 2.3594174987,
			"0.012": 2.14322691262,
			"0.013": 0.523018972769,
			"0.014": 0.0,
			"0.015": 0.0,
			"0.016": 0.0,
			"0.017": 0.0,
			"0.018": 0.0,
			"0.019": 0.0,
			"0.02": 0.0,
			"0.021": 0.0,
			"0.022": 0.0,
			"0.023": 0.0,
			"0.024": 0.0,
			"0.025": 0.0
		}
	}
}
