{
	 "smiles": "CCOC(=O)C1=C(Cl)C2=C(N=C1)C(C)=CC(Br)=C2", 
	 "Tm": 375.15, 
	 "num_atms": 29, 
	 "gaussian": { 
		 "optdone": 1, 
		 "sigma_profile": "yes", 
		 "theory": "DFT", 
		 "functional": "B3LYP", 
		 "basiset": "6-31G**", 
		 "properties": { 
			 "R2extent": 12592.3114, 
			 "electric_dipole_moment_norm": 2.52839293821, 
			 "electric_quadrupole_moment_norm": 12.2192575192, 
			 "total_energy": -3738.83308684, 
			 "HOMO_LUMO_gap": 0.15807, 
			 "cosmo_polarized_energy": -8.65, 
			 "cosmo_cavitation_energy": 37.24, 
			 "cosmo_dispersion_energy": -27.49, 
			 "cosmo_repulsion_energy": 2.13, 
			 "cosmo_total_nonelectrostatic_energy": 11.88, 
			 "SMD_solvation_energy": 4.8 
		},
		"coords": [
			{
				"x": 3.7308344891,
				"y": -2.46207266,
				"z": -2.4824271142,
				"element": "C" 
			},
			{
				"x": 3.4836700713,
				"y": -1.3365934728,
				"z": -1.4897803933,
				"element": "C" 
			},
			{
				"x": 2.1033376609,
				"y": -1.3196329552,
				"z": -1.0463210027,
				"element": "O" 
			},
			{
				"x": 1.2277865405,
				"y": -0.6493325755,
				"z": -1.831307551,
				"element": "C" 
			},
			{
				"x": 1.5375081043,
				"y": -0.0963789786,
				"z": -2.8646377447,
				"element": "O" 
			},
			{
				"x": -0.1432357858,
				"y": -0.6711214764,
				"z": -1.2288189678,
				"element": "C" 
			},
			{
				"x": -1.3109493904,
				"y": -0.456772329,
				"z": -1.9478278585,
				"element": "C" 
			},
			{
				"x": -1.2958546157,
				"y": -0.2107972318,
				"z": -3.6744711585,
				"element": "Cl" 
			},
			{
				"x": -2.5727697096,
				"y": -0.4655434933,
				"z": -1.2796036641,
				"element": "C" 
			},
			{
				"x": -2.5602946619,
				"y": -0.6943925484,
				"z": 0.1347531905,
				"element": "C" 
			},
			{
				"x": -1.4102435473,
				"y": -0.9039848872,
				"z": 0.8329813081,
				"element": "N" 
			},
			{
				"x": -0.275827054,
				"y": -0.8952690866,
				"z": 0.1739989974,
				"element": "C" 
			},
			{
				"x": -3.792139348,
				"y": -0.7120452794,
				"z": 0.8647371529,
				"element": "C" 
			},
			{
				"x": -3.7746573686,
				"y": -0.9528261121,
				"z": 2.3508697688,
				"element": "C" 
			},
			{
				"x": -4.9731803934,
				"y": -0.5068446874,
				"z": 0.1819658378,
				"element": "C" 
			},
			{
				"x": -4.9709352392,
				"y": -0.2835894808,
				"z": -1.2132311589,
				"element": "C" 
			},
			{
				"x": -6.6442552979,
				"y": -0.0073417387,
				"z": -2.0896250388,
				"element": "Br" 
			},
			{
				"x": -3.8100101663,
				"y": -0.2604106918,
				"z": -1.9446311222,
				"element": "C" 
			},
			{
				"x": 4.7947829433,
				"y": -2.5007196247,
				"z": -2.7385725067,
				"element": "H" 
			},
			{
				"x": 3.1630274821,
				"y": -2.2965980329,
				"z": -3.4009816698,
				"element": "H" 
			},
			{
				"x": 3.4448724564,
				"y": -3.4279145515,
				"z": -2.0559076273,
				"element": "H" 
			},
			{
				"x": 4.0580379808,
				"y": -1.4772279405,
				"z": -0.571241768,
				"element": "H" 
			},
			{
				"x": 3.7243042306,
				"y": -0.3642820183,
				"z": -1.9257319712,
				"element": "H" 
			},
			{
				"x": 0.6290454289,
				"y": -1.0666033736,
				"z": 0.7492386901,
				"element": "H" 
			},
			{
				"x": -4.7879227025,
				"y": -0.9363474306,
				"z": 2.7598031026,
				"element": "H" 
			},
			{
				"x": -3.1748403872,
				"y": -0.1942576108,
				"z": 2.8627423338,
				"element": "H" 
			},
			{
				"x": -3.3149118997,
				"y": -1.9176900938,
				"z": 2.5851479858,
				"element": "H" 
			},
			{
				"x": -5.9179682913,
				"y": -0.515767114,
				"z": 0.7144205518,
				"element": "H" 
			},
			{
				"x": -3.8300115293,
				"y": -0.0872425245,
				"z": -3.0117406017,
				"element": "H" 
			}
		],
		 "valence_orbital": [ 
			{
				"type": "occ",
				"energy": -0.294,
				"method": "rhf"
			},
			{
				"type": "occ",
				"energy": -0.28269,
				"method": "rhf"
			},
			{
				"type": "occ",
				"energy": -0.26769,
				"method": "rhf"
			},
			{
				"type": "occ",
				"energy": -0.26288,
				"method": "rhf"
			},
			{
				"type": "occ",
				"energy": -0.23925,
				"method": "rhf"
			},
			{
				"type": "unocc",
				"energy": -0.08118,
				"method": "rhf"
			},
			{
				"type": "unocc",
				"energy": -0.05005,
				"method": "rhf"
			},
			{
				"type": "unocc",
				"energy": -0.00037,
				"method": "rhf"
			},
			{
				"type": "unocc",
				"energy": 0.00111,
				"method": "rhf"
			},
			{
				"type": "unocc",
				"energy": 0.01766,
				"method": "rhf"
			}
		],
		"cosmo_sigma_profile": { 
			"-0.025": 0.0,
			"-0.024": 0.0,
			"-0.023": 0.0,
			"-0.022": 0.0,
			"-0.021": 0.0,
			"-0.02": 0.0,
			"-0.019": 0.0,
			"-0.018": 0.0,
			"-0.017": 0.0,
			"-0.016": 0.0,
			"-0.015": 0.0,
			"-0.014": 0.0,
			"-0.013": 0.0,
			"-0.012": 0.0,
			"-0.011": 0.0,
			"-0.01": 0.0,
			"-0.009": 0.0,
			"-0.008": 0.435708713751,
			"-0.007": 3.14820559942,
			"-0.006": 6.85710510928,
			"-0.005": 13.6212319508,
			"-0.004": 25.1201543244,
			"-0.003": 27.5974208202,
			"-0.002": 35.3748683783,
			"-0.001": 38.6901064839,
			"0.0": 40.1686269293,
			"0.001": 29.1919977676,
			"0.002": 19.5768854213,
			"0.003": 17.1597642788,
			"0.004": 16.1844959877,
			"0.005": 6.01935573677,
			"0.006": 4.62834922905,
			"0.007": 3.22383612795,
			"0.008": 2.82240803996,
			"0.009": 2.9312778354,
			"0.01": 2.8373958727,
			"0.011": 4.46162608163,
			"0.012": 2.49451584699,
			"0.013": 0.484720349808,
			"0.014": 0.0862064389507,
			"0.015": 0.0,
			"0.016": 0.0,
			"0.017": 0.0,
			"0.018": 0.0,
			"0.019": 0.0,
			"0.02": 0.0,
			"0.021": 0.0,
			"0.022": 0.0,
			"0.023": 0.0,
			"0.024": 0.0,
			"0.025": 0.0
		}
	}
}
