{
	 "smiles": "COC(=O)C1=CC(=CC(OCC2=CC(COC3=CC(=CC(=C3)C(=O)OC)C(=O)OC)=CC(COC3=CC(=CC(=C3)C(=O)OC)C(=O)OC)=C2)=C1)C(=O)OC", 
	 "Tm": 461.15, 
	 "num_atms": 90, 
	 "gaussian": { 
		 "optdone": 1, 
		 "sigma_profile": "yes", 
		 "theory": "DFT", 
		 "functional": "B3LYP", 
		 "basiset": "6-31G**", 
		 "properties": { 
			 "R2extent": 52459.7799, 
			 "electric_dipole_moment_norm": 1.87296243956, 
			 "electric_quadrupole_moment_norm": 59.126820254, 
			 "total_energy": -2636.25724784, 
			 "HOMO_LUMO_gap": 0.16956, 
			 "cosmo_polarized_energy": -33.49, 
			 "cosmo_cavitation_energy": 96.14, 
			 "cosmo_dispersion_energy": -58.23, 
			 "cosmo_repulsion_energy": 4.24, 
			 "cosmo_total_nonelectrostatic_energy": 42.15, 
			 "SMD_solvation_energy": 24.06 
		},
		"coords": [
			{
				"x": -8.1876519706,
				"y": 5.8707201444,
				"z": -0.5206288864,
				"element": "C" 
			},
			{
				"x": -7.5214631436,
				"y": 4.6031948148,
				"z": -0.408519053,
				"element": "O" 
			},
			{
				"x": -8.2161646558,
				"y": 3.5452188554,
				"z": -0.8845548736,
				"element": "C" 
			},
			{
				"x": -9.3230838681,
				"y": 3.6418790776,
				"z": -1.3747225561,
				"element": "O" 
			},
			{
				"x": -7.4693202922,
				"y": 2.2598960121,
				"z": -0.7376875005,
				"element": "C" 
			},
			{
				"x": -8.0857399788,
				"y": 1.0895602807,
				"z": -1.1975871709,
				"element": "C" 
			},
			{
				"x": -7.4192334166,
				"y": -0.128400104,
				"z": -1.0766077514,
				"element": "C" 
			},
			{
				"x": -6.1395041401,
				"y": -0.1917299199,
				"z": -0.5000096877,
				"element": "C" 
			},
			{
				"x": -5.5307113666,
				"y": 0.9809719078,
				"z": -0.0458086855,
				"element": "C" 
			},
			{
				"x": -4.2951591705,
				"y": 1.0393759598,
				"z": 0.5321238001,
				"element": "O" 
			},
			{
				"x": -3.5385276446,
				"y": -0.1640119592,
				"z": 0.6447428357,
				"element": "C" 
			},
			{
				"x": -2.1898980958,
				"y": 0.1578007594,
				"z": 1.2438271272,
				"element": "C" 
			},
			{
				"x": -1.5198548929,
				"y": 1.3374789459,
				"z": 0.9078491351,
				"element": "C" 
			},
			{
				"x": -0.2497865931,
				"y": 1.6050347818,
				"z": 1.4264360633,
				"element": "C" 
			},
			{
				"x": 0.4422327655,
				"y": 2.9097694268,
				"z": 1.0722170585,
				"element": "C" 
			},
			{
				"x": 1.84373892,
				"y": 2.9078615034,
				"z": 1.3202956784,
				"element": "O" 
			},
			{
				"x": 2.6790609328,
				"y": 2.2145082286,
				"z": 0.4849575639,
				"element": "C" 
			},
			{
				"x": 4.0258653757,
				"y": 2.2094317474,
				"z": 0.8708505569,
				"element": "C" 
			},
			{
				"x": 4.9717406786,
				"y": 1.5309422412,
				"z": 0.1013260281,
				"element": "C" 
			},
			{
				"x": 4.5865026344,
				"y": 0.8683351674,
				"z": -1.070909132,
				"element": "C" 
			},
			{
				"x": 3.2421715927,
				"y": 0.8645488359,
				"z": -1.4418433596,
				"element": "C" 
			},
			{
				"x": 2.2803099082,
				"y": 1.5279025947,
				"z": -0.6632614464,
				"element": "C" 
			},
			{
				"x": 2.7577723971,
				"y": 0.1016068555,
				"z": -2.6320184165,
				"element": "C" 
			},
			{
				"x": 1.5807867812,
				"y": -0.1025533504,
				"z": -2.8777181473,
				"element": "O" 
			},
			{
				"x": 3.7686882618,
				"y": -0.3388301416,
				"z": -3.3996777934,
				"element": "O" 
			},
			{
				"x": 3.39969035,
				"y": -1.1597363502,
				"z": -4.5230228717,
				"element": "C" 
			},
			{
				"x": 6.3980225634,
				"y": 1.4174784343,
				"z": 0.5290225317,
				"element": "C" 
			},
			{
				"x": 7.2482922378,
				"y": 0.8097293999,
				"z": -0.0969488517,
				"element": "O" 
			},
			{
				"x": 6.6363180752,
				"y": 2.0361800016,
				"z": 1.6999018217,
				"element": "O" 
			},
			{
				"x": 7.9508375993,
				"y": 1.8378664064,
				"z": 2.2510826727,
				"element": "C" 
			},
			{
				"x": 0.3545092031,
				"y": 0.681400236,
				"z": 2.2831949048,
				"element": "C" 
			},
			{
				"x": -0.2885695125,
				"y": -0.5175302455,
				"z": 2.5992399933,
				"element": "C" 
			},
			{
				"x": 0.3713715094,
				"y": -1.5356949592,
				"z": 3.5131843684,
				"element": "C" 
			},
			{
				"x": 1.7951879742,
				"y": -1.4737432274,
				"z": 3.5257938508,
				"element": "O" 
			},
			{
				"x": 2.494860084,
				"y": -1.9004321655,
				"z": 2.4282059064,
				"element": "C" 
			},
			{
				"x": 1.9131880539,
				"y": -2.3716479649,
				"z": 1.2484270734,
				"element": "C" 
			},
			{
				"x": 2.7355343498,
				"y": -2.7548342211,
				"z": 0.1777193106,
				"element": "C" 
			},
			{
				"x": 4.1253158297,
				"y": -2.6867775294,
				"z": 0.2827965279,
				"element": "C" 
			},
			{
				"x": 4.6987657188,
				"y": -2.2076873368,
				"z": 1.4665790384,
				"element": "C" 
			},
			{
				"x": 3.8879003253,
				"y": -1.8140626249,
				"z": 2.5328634264,
				"element": "C" 
			},
			{
				"x": 6.1755334389,
				"y": -2.0281303543,
				"z": 1.6142272724,
				"element": "C" 
			},
			{
				"x": 6.70159989,
				"y": -1.4638328578,
				"z": 2.5575673016,
				"element": "O" 
			},
			{
				"x": 6.8571874107,
				"y": -2.5500555725,
				"z": 0.5804384397,
				"element": "O" 
			},
			{
				"x": 8.2789206019,
				"y": -2.3248449359,
				"z": 0.5884262423,
				"element": "C" 
			},
			{
				"x": 2.1557301769,
				"y": -3.1581960786,
				"z": -1.136722762,
				"element": "C" 
			},
			{
				"x": 2.819537593,
				"y": -3.4333237573,
				"z": -2.1202560122,
				"element": "O" 
			},
			{
				"x": 0.8074393836,
				"y": -3.1577829836,
				"z": -1.1298851713,
				"element": "O" 
			},
			{
				"x": 0.182307852,
				"y": -3.3683571896,
				"z": -2.4079164319,
				"element": "C" 
			},
			{
				"x": -1.5640574429,
				"y": -0.7676926917,
				"z": 2.0839547879,
				"element": "C" 
			},
			{
				"x": -6.1980479223,
				"y": 2.2079323525,
				"z": -0.1643761927,
				"element": "C" 
			},
			{
				"x": -8.1106103947,
				"y": -1.353546602,
				"z": -1.5767560311,
				"element": "C" 
			},
			{
				"x": -9.2141671905,
				"y": -1.3626954651,
				"z": -2.0830676816,
				"element": "O" 
			},
			{
				"x": -7.3675415535,
				"y": -2.4728498181,
				"z": -1.4044353739,
				"element": "O" 
			},
			{
				"x": -7.9806076883,
				"y": -3.6868283612,
				"z": -1.8664178713,
				"element": "C" 
			},
			{
				"x": -7.5003149067,
				"y": 6.6026032086,
				"z": -0.0966438943,
				"element": "H" 
			},
			{
				"x": -9.1291529608,
				"y": 5.8604675263,
				"z": 0.0340992799,
				"element": "H" 
			},
			{
				"x": -8.3991102325,
				"y": 6.1025166537,
				"z": -1.5674464251,
				"element": "H" 
			},
			{
				"x": -9.072164042,
				"y": 1.1311702946,
				"z": -1.6427418959,
				"element": "H" 
			},
			{
				"x": -5.6514264146,
				"y": -1.1529765789,
				"z": -0.417682613,
				"element": "H" 
			},
			{
				"x": -3.4160762239,
				"y": -0.6135738786,
				"z": -0.3526184016,
				"element": "H" 
			},
			{
				"x": -4.0705050213,
				"y": -0.8921839815,
				"z": 1.2723830094,
				"element": "H" 
			},
			{
				"x": -2.0007070908,
				"y": 2.0471210487,
				"z": 0.2407133129,
				"element": "H" 
			},
			{
				"x": 0.0618953984,
				"y": 3.7197818866,
				"z": 1.7037817815,
				"element": "H" 
			},
			{
				"x": 0.2321963485,
				"y": 3.1852373938,
				"z": 0.030037496,
				"element": "H" 
			},
			{
				"x": 4.3138507802,
				"y": 2.7198883317,
				"z": 1.7816347275,
				"element": "H" 
			},
			{
				"x": 5.3292244489,
				"y": 0.338935038,
				"z": -1.6527700446,
				"element": "H" 
			},
			{
				"x": 1.2441572114,
				"y": 1.4599084126,
				"z": -0.9694919522,
				"element": "H" 
			},
			{
				"x": 2.6330185967,
				"y": -0.6640267138,
				"z": -5.1227291065,
				"element": "H" 
			},
			{
				"x": 4.315518066,
				"y": -1.2891218681,
				"z": -5.0996355617,
				"element": "H" 
			},
			{
				"x": 3.0320355217,
				"y": -2.1241710547,
				"z": -4.1668871566,
				"element": "H" 
			},
			{
				"x": 8.7181574994,
				"y": 2.1322057083,
				"z": 1.5315122721,
				"element": "H" 
			},
			{
				"x": 7.9926193316,
				"y": 2.4697256404,
				"z": 3.1381588997,
				"element": "H" 
			},
			{
				"x": 8.0788659309,
				"y": 0.7869257876,
				"z": 2.5207592875,
				"element": "H" 
			},
			{
				"x": 1.3403585326,
				"y": 0.8835701517,
				"z": 2.6854745694,
				"element": "H" 
			},
			{
				"x": 0.0912112451,
				"y": -1.3498507826,
				"z": 4.5554544119,
				"element": "H" 
			},
			{
				"x": 0.0341939546,
				"y": -2.5501116067,
				"z": 3.2592025205,
				"element": "H" 
			},
			{
				"x": 0.8408341524,
				"y": -2.4076471218,
				"z": 1.120582905,
				"element": "H" 
			},
			{
				"x": 4.7396167009,
				"y": -2.97098278,
				"z": -0.5612573605,
				"element": "H" 
			},
			{
				"x": 4.3389633197,
				"y": -1.4240819754,
				"z": 3.4382197858,
				"element": "H" 
			},
			{
				"x": 8.7140250648,
				"y": -2.6621270245,
				"z": 1.5319404978,
				"element": "H" 
			},
			{
				"x": 8.4810383793,
				"y": -1.2619054278,
				"z": 0.4422828147,
				"element": "H" 
			},
			{
				"x": 8.6689179777,
				"y": -2.9081320712,
				"z": -0.2455917196,
				"element": "H" 
			},
			{
				"x": 0.5541488948,
				"y": -4.2835666142,
				"z": -2.8736366945,
				"element": "H" 
			},
			{
				"x": -0.8852102317,
				"y": -3.4482112956,
				"z": -2.2018193438,
				"element": "H" 
			},
			{
				"x": 0.383843507,
				"y": -2.5132711403,
				"z": -3.0577613821,
				"element": "H" 
			},
			{
				"x": -2.0723107801,
				"y": -1.6982346166,
				"z": 2.330867148,
				"element": "H" 
			},
			{
				"x": -5.7128997868,
				"y": 3.1071471482,
				"z": 0.1948983574,
				"element": "H" 
			},
			{
				"x": -8.1867803929,
				"y": -3.6298029307,
				"z": -2.9380728172,
				"element": "H" 
			},
			{
				"x": -7.2618134249,
				"y": -4.4786624385,
				"z": -1.6556130816,
				"element": "H" 
			},
			{
				"x": -8.9194388883,
				"y": -3.8688785329,
				"z": -1.3375952323,
				"element": "H" 
			}
		],
		 "valence_orbital": [ 
			{
				"type": "occ",
				"energy": -0.25789,
				"method": "rhf"
			},
			{
				"type": "occ",
				"energy": -0.25578,
				"method": "rhf"
			},
			{
				"type": "occ",
				"energy": -0.23905,
				"method": "rhf"
			},
			{
				"type": "occ",
				"energy": -0.23753,
				"method": "rhf"
			},
			{
				"type": "occ",
				"energy": -0.23072,
				"method": "rhf"
			},
			{
				"type": "unocc",
				"energy": -0.06116,
				"method": "rhf"
			},
			{
				"type": "unocc",
				"energy": -0.05823,
				"method": "rhf"
			},
			{
				"type": "unocc",
				"energy": -0.05426,
				"method": "rhf"
			},
			{
				"type": "unocc",
				"energy": -0.03618,
				"method": "rhf"
			},
			{
				"type": "unocc",
				"energy": -0.03483,
				"method": "rhf"
			}
		],
		"cosmo_sigma_profile": { 
			"-0.025": 0.0,
			"-0.024": 0.0,
			"-0.023": 0.0,
			"-0.022": 0.0,
			"-0.021": 0.0,
			"-0.02": 0.0,
			"-0.019": 0.0,
			"-0.018": 0.0,
			"-0.017": 0.0,
			"-0.016": 0.0,
			"-0.015": 0.0,
			"-0.014": 0.0,
			"-0.013": 0.0,
			"-0.012": 0.0,
			"-0.011": 0.0,
			"-0.01": 0.0,
			"-0.009": 0.0,
			"-0.008": 2.23078949376,
			"-0.007": 23.9348959743,
			"-0.006": 47.3619356875,
			"-0.005": 52.8571062445,
			"-0.004": 58.2953424618,
			"-0.003": 74.1365392962,
			"-0.002": 54.8166378707,
			"-0.001": 54.9749726859,
			"0.0": 62.9559653066,
			"0.001": 80.2140088457,
			"0.002": 64.9765057434,
			"0.003": 39.9249218116,
			"0.004": 38.4797529747,
			"0.005": 25.569808875,
			"0.006": 16.9369251995,
			"0.007": 12.6496040108,
			"0.008": 11.1401207469,
			"0.009": 12.0834883234,
			"0.01": 9.78991762785,
			"0.011": 16.0691605632,
			"0.012": 7.22700307796,
			"0.013": 0.0131877947006,
			"0.014": 0.0,
			"0.015": 0.0,
			"0.016": 0.0,
			"0.017": 0.0,
			"0.018": 0.0,
			"0.019": 0.0,
			"0.02": 0.0,
			"0.021": 0.0,
			"0.022": 0.0,
			"0.023": 0.0,
			"0.024": 0.0,
			"0.025": 0.0
		}
	}
}
