{
	 "smiles": "C1CCC(CC1)P(C1CCCCC1)C1=CC=CC=C1C1=CC=CC=C1", 
	 "Tm": 377.15, 
	 "num_atms": 56, 
	 "gaussian": { 
		 "optdone": 1, 
		 "sigma_profile": "yes", 
		 "theory": "DFT", 
		 "functional": "B3LYP", 
		 "basiset": "6-31G**", 
		 "properties": { 
			 "R2extent": 9493.2946, 
			 "electric_dipole_moment_norm": 0.844764511565, 
			 "electric_quadrupole_moment_norm": 7.19320829742, 
			 "total_energy": -1274.60024262, 
			 "HOMO_LUMO_gap": 0.17674, 
			 "cosmo_polarized_energy": -6.89, 
			 "cosmo_cavitation_energy": 52.57, 
			 "cosmo_dispersion_energy": -34.99, 
			 "cosmo_repulsion_energy": 2.7, 
			 "cosmo_total_nonelectrostatic_energy": 20.28, 
			 "SMD_solvation_energy": 6.79 
		},
		"coords": [
			{
				"x": -0.121310216,
				"y": -1.4354363526,
				"z": -3.2269082147,
				"element": "C" 
			},
			{
				"x": 0.867247772,
				"y": -1.8775188222,
				"z": -2.1415172181,
				"element": "C" 
			},
			{
				"x": 0.3563274379,
				"y": -1.5027732943,
				"z": -0.7294486382,
				"element": "C" 
			},
			{
				"x": -0.4357039094,
				"y": -0.1686117511,
				"z": -0.7237347162,
				"element": "C" 
			},
			{
				"x": 0.0357644599,
				"y": 0.7487732688,
				"z": -1.8711802485,
				"element": "C" 
			},
			{
				"x": -0.2620356353,
				"y": 0.1070738148,
				"z": -3.2480250193,
				"element": "C" 
			},
			{
				"x": -0.5716089518,
				"y": 0.7736411431,
				"z": 0.9311007938,
				"element": "P" 
			},
			{
				"x": -2.1469185121,
				"y": 0.0281694333,
				"z": 1.6639246219,
				"element": "C" 
			},
			{
				"x": -2.4003448383,
				"y": -1.4882677696,
				"z": 1.5491973066,
				"element": "C" 
			},
			{
				"x": -3.5957025214,
				"y": -1.9149023093,
				"z": 2.4383414761,
				"element": "C" 
			},
			{
				"x": -4.6775960875,
				"y": -0.8127119527,
				"z": 2.5387976398,
				"element": "C" 
			},
			{
				"x": -4.7002508896,
				"y": 0.0451220438,
				"z": 1.267826648,
				"element": "C" 
			},
			{
				"x": -3.3625098177,
				"y": 0.8022518775,
				"z": 1.0755698709,
				"element": "C" 
			},
			{
				"x": 0.7872398725,
				"y": 0.108498875,
				"z": 2.0249155743,
				"element": "C" 
			},
			{
				"x": 0.5053661545,
				"y": -0.6630762859,
				"z": 3.1669549531,
				"element": "C" 
			},
			{
				"x": 1.5059117234,
				"y": -1.1145999354,
				"z": 4.027859538,
				"element": "C" 
			},
			{
				"x": 2.8378058514,
				"y": -0.8108227612,
				"z": 3.7606733919,
				"element": "C" 
			},
			{
				"x": 3.143939943,
				"y": -0.0349871745,
				"z": 2.64511994,
				"element": "C" 
			},
			{
				"x": 2.146686391,
				"y": 0.4478699811,
				"z": 1.7817907178,
				"element": "C" 
			},
			{
				"x": 2.6026588264,
				"y": 1.3137753378,
				"z": 0.6509382495,
				"element": "C" 
			},
			{
				"x": 3.5507281069,
				"y": 0.8304441485,
				"z": -0.2661080711,
				"element": "C" 
			},
			{
				"x": 4.0380752267,
				"y": 1.6438207529,
				"z": -1.2906737546,
				"element": "C" 
			},
			{
				"x": 3.5920814687,
				"y": 2.9611814102,
				"z": -1.4102446165,
				"element": "C" 
			},
			{
				"x": 2.660491252,
				"y": 3.4583538257,
				"z": -0.4963460999,
				"element": "C" 
			},
			{
				"x": 2.1707101644,
				"y": 2.6444323168,
				"z": 0.5251218805,
				"element": "C" 
			},
			{
				"x": 0.1904866241,
				"y": -1.8026245574,
				"z": -4.2113150603,
				"element": "H" 
			},
			{
				"x": -1.0965529945,
				"y": -1.8986261904,
				"z": -3.0253517547,
				"element": "H" 
			},
			{
				"x": 1.8362325304,
				"y": -1.395150314,
				"z": -2.3240231777,
				"element": "H" 
			},
			{
				"x": 1.0482380804,
				"y": -2.9575896287,
				"z": -2.1934232578,
				"element": "H" 
			},
			{
				"x": 1.2075425493,
				"y": -1.4482605769,
				"z": -0.0443595018,
				"element": "H" 
			},
			{
				"x": -0.2892748229,
				"y": -2.3020373094,
				"z": -0.348005416,
				"element": "H" 
			},
			{
				"x": -1.4902210792,
				"y": -0.3980039016,
				"z": -0.9325424203,
				"element": "H" 
			},
			{
				"x": -0.4495313577,
				"y": 1.7277151322,
				"z": -1.8023101649,
				"element": "H" 
			},
			{
				"x": 1.109151849,
				"y": 0.9353767178,
				"z": -1.770573152,
				"element": "H" 
			},
			{
				"x": 0.4207749811,
				"y": 0.5343015167,
				"z": -3.9924086557,
				"element": "H" 
			},
			{
				"x": -1.2749514022,
				"y": 0.3763220206,
				"z": -3.5723484117,
				"element": "H" 
			},
			{
				"x": -2.0881347397,
				"y": 0.2833150849,
				"z": 2.7302462102,
				"element": "H" 
			},
			{
				"x": -2.619307115,
				"y": -1.7305876606,
				"z": 0.5021330502,
				"element": "H" 
			},
			{
				"x": -1.5132416775,
				"y": -2.0703526668,
				"z": 1.8135469281,
				"element": "H" 
			},
			{
				"x": -4.0339333509,
				"y": -2.8338380715,
				"z": 2.0301322519,
				"element": "H" 
			},
			{
				"x": -3.237967397,
				"y": -2.1680950604,
				"z": 3.4441228606,
				"element": "H" 
			},
			{
				"x": -4.4738553546,
				"y": -0.1645270672,
				"z": 3.4011211249,
				"element": "H" 
			},
			{
				"x": -5.6600558985,
				"y": -1.2617467121,
				"z": 2.7225673532,
				"element": "H" 
			},
			{
				"x": -5.530246175,
				"y": 0.7601680053,
				"z": 1.2944135709,
				"element": "H" 
			},
			{
				"x": -4.8884277554,
				"y": -0.606123225,
				"z": 0.4042866071,
				"element": "H" 
			},
			{
				"x": -3.2129380528,
				"y": 0.9928255993,
				"z": 0.005014819,
				"element": "H" 
			},
			{
				"x": -3.4127204141,
				"y": 1.7883075539,
				"z": 1.5505782211,
				"element": "H" 
			},
			{
				"x": -0.5180026852,
				"y": -0.9291584099,
				"z": 3.3995207545,
				"element": "H" 
			},
			{
				"x": 1.2391519292,
				"y": -1.7082232168,
				"z": 4.8979363509,
				"element": "H" 
			},
			{
				"x": 3.6297991435,
				"y": -1.1596267543,
				"z": 4.4170564844,
				"element": "H" 
			},
			{
				"x": 4.1767263529,
				"y": 0.2339303153,
				"z": 2.4422707711,
				"element": "H" 
			},
			{
				"x": 3.8993161069,
				"y": -0.1947038154,
				"z": -0.1764230826,
				"element": "H" 
			},
			{
				"x": 4.7660794711,
				"y": 1.2478541116,
				"z": -1.9933250576,
				"element": "H" 
			},
			{
				"x": 3.970658813,
				"y": 3.5966381771,
				"z": -2.2057875277,
				"element": "H" 
			},
			{
				"x": 2.3170012084,
				"y": 4.4860675875,
				"z": -0.574145049,
				"element": "H" 
			},
			{
				"x": 1.4528493617,
				"y": 3.0407534955,
				"z": 1.2348483264,
				"element": "H" 
			}
		],
		 "valence_orbital": [ 
			{
				"type": "occ",
				"energy": -0.26063,
				"method": "rhf"
			},
			{
				"type": "occ",
				"energy": -0.25608,
				"method": "rhf"
			},
			{
				"type": "occ",
				"energy": -0.24677,
				"method": "rhf"
			},
			{
				"type": "occ",
				"energy": -0.23334,
				"method": "rhf"
			},
			{
				"type": "occ",
				"energy": -0.19718,
				"method": "rhf"
			},
			{
				"type": "unocc",
				"energy": -0.02044,
				"method": "rhf"
			},
			{
				"type": "unocc",
				"energy": -0.00619,
				"method": "rhf"
			},
			{
				"type": "unocc",
				"energy": -0.00017,
				"method": "rhf"
			},
			{
				"type": "unocc",
				"energy": 0.01622,
				"method": "rhf"
			},
			{
				"type": "unocc",
				"energy": 0.06368,
				"method": "rhf"
			}
		],
		"cosmo_sigma_profile": { 
			"-0.025": 0.0,
			"-0.024": 0.0,
			"-0.023": 0.0,
			"-0.022": 0.0,
			"-0.021": 0.0,
			"-0.02": 0.0,
			"-0.019": 0.0,
			"-0.018": 0.0,
			"-0.017": 0.0,
			"-0.016": 0.0,
			"-0.015": 0.0,
			"-0.014": 0.0,
			"-0.013": 0.0,
			"-0.012": 0.0,
			"-0.011": 0.0,
			"-0.01": 0.0,
			"-0.009": 0.0,
			"-0.008": 0.0,
			"-0.007": 0.0,
			"-0.006": 4.44569710399,
			"-0.005": 15.1980610964,
			"-0.004": 21.2850362844,
			"-0.003": 30.6193358082,
			"-0.002": 52.539215016,
			"-0.001": 63.4469489988,
			"0.0": 63.9370905667,
			"0.001": 56.393969419,
			"0.002": 32.3058159861,
			"0.003": 18.1841165301,
			"0.004": 18.0404222745,
			"0.005": 16.545173758,
			"0.006": 9.07169258639,
			"0.007": 1.08657462357,
			"0.008": 1.45238695433,
			"0.009": 0.924474154446,
			"0.01": 0.817161946229,
			"0.011": 0.937401854494,
			"0.012": 0.436968036725,
			"0.013": 0.589974833253,
			"0.014": 0.463066521066,
			"0.015": 0.0686673412889,
			"0.016": 0.0,
			"0.017": 0.0,
			"0.018": 0.0,
			"0.019": 0.0,
			"0.02": 0.0,
			"0.021": 0.0,
			"0.022": 0.0,
			"0.023": 0.0,
			"0.024": 0.0,
			"0.025": 0.0
		}
	}
}
