{
	 "smiles": "CC(=O)OC1CC23OC(C)(C)OC2C2(C(CC4C(C)(C)CCC(OC(C)=O)C4(C)C12)OC(C)=O)C(=O)C3=C", 
	 "Tm": 532.15, 
	 "num_atms": 78, 
	 "gaussian": { 
		 "optdone": 1, 
		 "sigma_profile": "yes", 
		 "theory": "DFT", 
		 "functional": "B3LYP", 
		 "basiset": "6-31G**", 
		 "properties": { 
			 "R2extent": 16772.1803, 
			 "electric_dipole_moment_norm": 1.16177763793, 
			 "electric_quadrupole_moment_norm": 24.5723773256, 
			 "total_energy": -1806.2349935, 
			 "HOMO_LUMO_gap": 0.18059, 
			 "cosmo_polarized_energy": -25.75, 
			 "cosmo_cavitation_energy": 69.88, 
			 "cosmo_dispersion_energy": -41.57, 
			 "cosmo_repulsion_energy": 3.06, 
			 "cosmo_total_nonelectrostatic_energy": 31.37, 
			 "SMD_solvation_energy": 15.05 
		},
		"coords": [
			{
				"x": 3.2279530257,
				"y": 2.8017171975,
				"z": 0.971962171,
				"element": "C" 
			},
			{
				"x": 2.4844470767,
				"y": 1.6518933922,
				"z": 1.6052235562,
				"element": "C" 
			},
			{
				"x": 2.5638125131,
				"y": 1.3083815322,
				"z": 2.7639208544,
				"element": "O" 
			},
			{
				"x": 1.6956737481,
				"y": 1.0314694423,
				"z": 0.6889167188,
				"element": "O" 
			},
			{
				"x": 0.9426677155,
				"y": -0.1246250393,
				"z": 1.1378127238,
				"element": "C" 
			},
			{
				"x": 1.8978059287,
				"y": -1.3464216429,
				"z": 1.2094614068,
				"element": "C" 
			},
			{
				"x": 2.0849550748,
				"y": -1.9458598277,
				"z": -0.1829763064,
				"element": "C" 
			},
			{
				"x": 2.8355706766,
				"y": -3.1498835724,
				"z": -0.2130364054,
				"element": "O" 
			},
			{
				"x": 2.2326917005,
				"y": -4.0036518152,
				"z": -1.2236427141,
				"element": "C" 
			},
			{
				"x": 3.2042742411,
				"y": -4.2392430213,
				"z": -2.3712946548,
				"element": "C" 
			},
			{
				"x": 1.7881972171,
				"y": -5.2962078584,
				"z": -0.5427591193,
				"element": "C" 
			},
			{
				"x": 1.0969183437,
				"y": -3.2809596316,
				"z": -1.7403149707,
				"element": "O" 
			},
			{
				"x": 0.7211269974,
				"y": -2.3642605712,
				"z": -0.7208037164,
				"element": "C" 
			},
			{
				"x": 0.0867383091,
				"y": -1.0381994104,
				"z": -1.1717505148,
				"element": "C" 
			},
			{
				"x": -1.1512329956,
				"y": -1.2456417227,
				"z": -2.0552828246,
				"element": "C" 
			},
			{
				"x": -2.0722475526,
				"y": -0.0370858486,
				"z": -2.1533593196,
				"element": "C" 
			},
			{
				"x": -2.5275191495,
				"y": 0.3704992351,
				"z": -0.739844782,
				"element": "C" 
			},
			{
				"x": -3.8423334025,
				"y": 1.2383462464,
				"z": -0.718058902,
				"element": "C" 
			},
			{
				"x": -3.8280525368,
				"y": 2.4819488483,
				"z": -1.6372461876,
				"element": "C" 
			},
			{
				"x": -5.0164930068,
				"y": 0.3470110833,
				"z": -1.1887834747,
				"element": "C" 
			},
			{
				"x": -4.1471911048,
				"y": 1.6600854966,
				"z": 0.7412997672,
				"element": "C" 
			},
			{
				"x": -2.950907749,
				"y": 2.2589380169,
				"z": 1.4858908945,
				"element": "C" 
			},
			{
				"x": -1.7654506738,
				"y": 1.2908242801,
				"z": 1.5120586227,
				"element": "C" 
			},
			{
				"x": -2.1718049487,
				"y": 0.0785011636,
				"z": 2.2209522661,
				"element": "O" 
			},
			{
				"x": -2.1139010128,
				"y": 0.1035165014,
				"z": 3.5771727866,
				"element": "C" 
			},
			{
				"x": -2.6039184304,
				"y": -1.20258648,
				"z": 4.1580122432,
				"element": "C" 
			},
			{
				"x": -1.7241091515,
				"y": 1.0529681583,
				"z": 4.2197762224,
				"element": "O" 
			},
			{
				"x": -1.2921925602,
				"y": 0.8874777226,
				"z": 0.0883664352,
				"element": "C" 
			},
			{
				"x": -0.6501766455,
				"y": 2.144807418,
				"z": -0.5514576363,
				"element": "C" 
			},
			{
				"x": -0.2897823165,
				"y": -0.3304656238,
				"z": 0.2043908638,
				"element": "C" 
			},
			{
				"x": -0.6955055789,
				"y": -1.6400301862,
				"z": -3.3675846575,
				"element": "O" 
			},
			{
				"x": -1.2668579881,
				"y": -2.7363404271,
				"z": -3.9239118245,
				"element": "C" 
			},
			{
				"x": -0.5781753967,
				"y": -3.0813354263,
				"z": -5.2210371858,
				"element": "C" 
			},
			{
				"x": -2.1903309887,
				"y": -3.3491236321,
				"z": -3.4334853907,
				"element": "O" 
			},
			{
				"x": 1.2938477665,
				"y": -0.3336477202,
				"z": -1.8407654309,
				"element": "C" 
			},
			{
				"x": 1.26041959,
				"y": 0.5207412198,
				"z": -2.7034215694,
				"element": "O" 
			},
			{
				"x": 2.5296187701,
				"y": -0.9179101889,
				"z": -1.2217241747,
				"element": "C" 
			},
			{
				"x": 3.7692363202,
				"y": -0.6152021824,
				"z": -1.608436161,
				"element": "C" 
			},
			{
				"x": 2.5209266944,
				"y": 3.5463123028,
				"z": 0.5936522207,
				"element": "H" 
			},
			{
				"x": 3.8071997288,
				"y": 2.441979806,
				"z": 0.1165884082,
				"element": "H" 
			},
			{
				"x": 3.8865185197,
				"y": 3.2581479359,
				"z": 1.7101630828,
				"element": "H" 
			},
			{
				"x": 0.5958407627,
				"y": 0.0898585021,
				"z": 2.1503212083,
				"element": "H" 
			},
			{
				"x": 2.8409946202,
				"y": -1.0322981134,
				"z": 1.6609938333,
				"element": "H" 
			},
			{
				"x": 1.4646620226,
				"y": -2.1112394069,
				"z": 1.8639093886,
				"element": "H" 
			},
			{
				"x": 2.7410928542,
				"y": -4.8746105515,
				"z": -3.1317979641,
				"element": "H" 
			},
			{
				"x": 4.104653459,
				"y": -4.7377765154,
				"z": -2.0023521641,
				"element": "H" 
			},
			{
				"x": 3.4824323515,
				"y": -3.2868748627,
				"z": -2.824904822,
				"element": "H" 
			},
			{
				"x": 2.6482776823,
				"y": -5.7950355617,
				"z": -0.0875186341,
				"element": "H" 
			},
			{
				"x": 1.0598199093,
				"y": -5.0856861151,
				"z": 0.2443634055,
				"element": "H" 
			},
			{
				"x": 1.3320519701,
				"y": -5.9714288729,
				"z": -1.2718089309,
				"element": "H" 
			},
			{
				"x": 0.0993316988,
				"y": -2.8672686985,
				"z": 0.0331563927,
				"element": "H" 
			},
			{
				"x": -1.7278890889,
				"y": -2.0814850507,
				"z": -1.645406885,
				"element": "H" 
			},
			{
				"x": -1.5573759659,
				"y": 0.7767909626,
				"z": -2.6699693545,
				"element": "H" 
			},
			{
				"x": -2.9276467987,
				"y": -0.3268764455,
				"z": -2.7700175683,
				"element": "H" 
			},
			{
				"x": -2.8318891445,
				"y": -0.5562357819,
				"z": -0.2311697616,
				"element": "H" 
			},
			{
				"x": -4.8495018441,
				"y": 2.8636063476,
				"z": -1.7459616852,
				"element": "H" 
			},
			{
				"x": -3.4608780087,
				"y": 2.2457016092,
				"z": -2.6405135227,
				"element": "H" 
			},
			{
				"x": -3.2255144739,
				"y": 3.305060496,
				"z": -1.2472906024,
				"element": "H" 
			},
			{
				"x": -4.9534004369,
				"y": 0.1004387907,
				"z": -2.2528938492,
				"element": "H" 
			},
			{
				"x": -5.9671225093,
				"y": 0.8695881858,
				"z": -1.0342175013,
				"element": "H" 
			},
			{
				"x": -5.0580329985,
				"y": -0.5927745516,
				"z": -0.6271988394,
				"element": "H" 
			},
			{
				"x": -4.49163849,
				"y": 0.7788661209,
				"z": 1.296156598,
				"element": "H" 
			},
			{
				"x": -4.9826694118,
				"y": 2.3710627941,
				"z": 0.74367478,
				"element": "H" 
			},
			{
				"x": -2.6279357208,
				"y": 3.1984474333,
				"z": 1.0253006403,
				"element": "H" 
			},
			{
				"x": -3.2207482523,
				"y": 2.5022252455,
				"z": 2.5180433149,
				"element": "H" 
			},
			{
				"x": -0.9424214813,
				"y": 1.734557285,
				"z": 2.0777062106,
				"element": "H" 
			},
			{
				"x": -2.0655691922,
				"y": -2.0457902618,
				"z": 3.716305505,
				"element": "H" 
			},
			{
				"x": -3.6650817303,
				"y": -1.3364645219,
				"z": 3.9258648472,
				"element": "H" 
			},
			{
				"x": -2.4633932485,
				"y": -1.1925165783,
				"z": 5.2383307359,
				"element": "H" 
			},
			{
				"x": -1.4068458525,
				"y": 2.8741859563,
				"z": -0.8325810684,
				"element": "H" 
			},
			{
				"x": -0.0798231726,
				"y": 1.9033665763,
				"z": -1.4467208086,
				"element": "H" 
			},
			{
				"x": 0.033099996,
				"y": 2.6308929499,
				"z": 0.1454408563,
				"element": "H" 
			},
			{
				"x": -0.8697894279,
				"y": -1.0926627644,
				"z": 0.7378273814,
				"element": "H" 
			},
			{
				"x": -1.1459946418,
				"y": -3.8496915864,
				"z": -5.7451021884,
				"element": "H" 
			},
			{
				"x": 0.4266342397,
				"y": -3.4529615812,
				"z": -4.9964216459,
				"element": "H" 
			},
			{
				"x": -0.4666661071,
				"y": -2.1918999967,
				"z": -5.8462146451,
				"element": "H" 
			},
			{
				"x": 3.9254788367,
				"y": 0.113235682,
				"z": -2.3994180205,
				"element": "H" 
			},
			{
				"x": 4.6387408272,
				"y": -1.0930922897,
				"z": -1.1671579574,
				"element": "H" 
			}
		],
		 "valence_orbital": [ 
			{
				"type": "occ",
				"energy": -0.27446,
				"method": "rhf"
			},
			{
				"type": "occ",
				"energy": -0.27386,
				"method": "rhf"
			},
			{
				"type": "occ",
				"energy": -0.26606,
				"method": "rhf"
			},
			{
				"type": "occ",
				"energy": -0.25746,
				"method": "rhf"
			},
			{
				"type": "occ",
				"energy": -0.24366,
				"method": "rhf"
			},
			{
				"type": "unocc",
				"energy": -0.06307,
				"method": "rhf"
			},
			{
				"type": "unocc",
				"energy": 0.00559,
				"method": "rhf"
			},
			{
				"type": "unocc",
				"energy": 0.00665,
				"method": "rhf"
			},
			{
				"type": "unocc",
				"energy": 0.01979,
				"method": "rhf"
			},
			{
				"type": "unocc",
				"energy": 0.05433,
				"method": "rhf"
			}
		],
		"cosmo_sigma_profile": { 
			"-0.025": 0.0,
			"-0.024": 0.0,
			"-0.023": 0.0,
			"-0.022": 0.0,
			"-0.021": 0.0,
			"-0.02": 0.0,
			"-0.019": 0.0,
			"-0.018": 0.0,
			"-0.017": 0.0,
			"-0.016": 0.0,
			"-0.015": 0.0,
			"-0.014": 0.0,
			"-0.013": 0.0,
			"-0.012": 0.0,
			"-0.011": 0.0,
			"-0.01": 0.0,
			"-0.009": 0.380350653385,
			"-0.008": 2.2498940864,
			"-0.007": 6.8174413285,
			"-0.006": 22.9870201209,
			"-0.005": 36.3600307925,
			"-0.004": 50.2740405954,
			"-0.003": 56.660375734,
			"-0.002": 78.1275592245,
			"-0.001": 65.0725529795,
			"0.0": 48.1686833175,
			"0.001": 37.0564624957,
			"0.002": 20.74464089,
			"0.003": 13.1232031014,
			"0.004": 13.0209856297,
			"0.005": 12.7143210147,
			"0.006": 11.3339656788,
			"0.007": 10.6366521429,
			"0.008": 7.78905973973,
			"0.009": 8.16251599156,
			"0.01": 9.4423556691,
			"0.011": 14.1555022969,
			"0.012": 14.7410621585,
			"0.013": 3.25463497808,
			"0.014": 0.0130779763108,
			"0.015": 0.0,
			"0.016": 0.0,
			"0.017": 0.0,
			"0.018": 0.0,
			"0.019": 0.0,
			"0.02": 0.0,
			"0.021": 0.0,
			"0.022": 0.0,
			"0.023": 0.0,
			"0.024": 0.0,
			"0.025": 0.0
		}
	}
}
