{
	 "smiles": "CCC1=C(C)NC=C1C", 
	 "Tm": 273.15, 
	 "num_atms": 22, 
	 "gaussian": { 
		 "optdone": 1, 
		 "sigma_profile": "yes", 
		 "theory": "DFT", 
		 "functional": "B3LYP", 
		 "basiset": "6-31G**", 
		 "properties": { 
			 "R2extent": 1668.9564, 
			 "electric_dipole_moment_norm": 1.72646303754, 
			 "electric_quadrupole_moment_norm": 6.85945181848, 
			 "total_energy": -367.447899951, 
			 "HOMO_LUMO_gap": 0.23847, 
			 "cosmo_polarized_energy": -5.93, 
			 "cosmo_cavitation_energy": 24.22, 
			 "cosmo_dispersion_energy": -17.33, 
			 "cosmo_repulsion_energy": 1.44, 
			 "cosmo_total_nonelectrostatic_energy": 8.34, 
			 "SMD_solvation_energy": 4.48 
		},
		"coords": [
			{
				"x": -0.7772711641,
				"y": -0.1502111477,
				"z": 2.1457551524,
				"element": "C" 
			},
			{
				"x": 0.0162593084,
				"y": -1.2174793976,
				"z": 1.3687819438,
				"element": "C" 
			},
			{
				"x": 0.9912223645,
				"y": -0.6477670848,
				"z": 0.3732250397,
				"element": "C" 
			},
			{
				"x": 0.7707755818,
				"y": -0.4475997635,
				"z": -0.9803767407,
				"element": "C" 
			},
			{
				"x": -0.4212103466,
				"y": -0.7254250366,
				"z": -1.8410723235,
				"element": "C" 
			},
			{
				"x": 1.9145226109,
				"y": 0.1169326855,
				"z": -1.5044833647,
				"element": "N" 
			},
			{
				"x": 2.8578804568,
				"y": 0.277138109,
				"z": -0.5143413022,
				"element": "C" 
			},
			{
				"x": 2.3210438786,
				"y": -0.1844192728,
				"z": 0.6667862302,
				"element": "C" 
			},
			{
				"x": 3.0082693471,
				"y": -0.2107701346,
				"z": 2.0013528016,
				"element": "C" 
			},
			{
				"x": -0.106434269,
				"y": 0.518760966,
				"z": 2.6945680683,
				"element": "H" 
			},
			{
				"x": -1.3700302358,
				"y": 0.4681092593,
				"z": 1.4636149331,
				"element": "H" 
			},
			{
				"x": -1.460181945,
				"y": -0.6105961773,
				"z": 2.8688823093,
				"element": "H" 
			},
			{
				"x": 0.5558528675,
				"y": -1.8499646458,
				"z": 2.0859389212,
				"element": "H" 
			},
			{
				"x": -0.6908082609,
				"y": -1.8845382382,
				"z": 0.8598543037,
				"element": "H" 
			},
			{
				"x": -0.9339148043,
				"y": 0.1928332098,
				"z": -2.1578196439,
				"element": "H" 
			},
			{
				"x": -0.1499895739,
				"y": -1.2775379562,
				"z": -2.7501520608,
				"element": "H" 
			},
			{
				"x": -1.1501772513,
				"y": -1.3317240483,
				"z": -1.2979447192,
				"element": "H" 
			},
			{
				"x": 2.0435714179,
				"y": 0.3579063616,
				"z": -2.4736402251,
				"element": "H" 
			},
			{
				"x": 3.8312907101,
				"y": 0.6953605161,
				"z": -0.7270899158,
				"element": "H" 
			},
			{
				"x": 4.0429211801,
				"y": 0.1361059085,
				"z": 1.9169036794,
				"element": "H" 
			},
			{
				"x": 2.5084100834,
				"y": 0.4291683715,
				"z": 2.7393883778,
				"element": "H" 
			},
			{
				"x": 3.0361980436,
				"y": -1.2218824841,
				"z": 2.4268685356,
				"element": "H" 
			}
		],
		 "valence_orbital": [ 
			{
				"type": "occ",
				"energy": -0.34632,
				"method": "rhf"
			},
			{
				"type": "occ",
				"energy": -0.32809,
				"method": "rhf"
			},
			{
				"type": "occ",
				"energy": -0.31332,
				"method": "rhf"
			},
			{
				"type": "occ",
				"energy": -0.2115,
				"method": "rhf"
			},
			{
				"type": "occ",
				"energy": -0.1858,
				"method": "rhf"
			},
			{
				"type": "unocc",
				"energy": 0.05267,
				"method": "rhf"
			},
			{
				"type": "unocc",
				"energy": 0.0834,
				"method": "rhf"
			},
			{
				"type": "unocc",
				"energy": 0.08769,
				"method": "rhf"
			},
			{
				"type": "unocc",
				"energy": 0.1021,
				"method": "rhf"
			},
			{
				"type": "unocc",
				"energy": 0.11807,
				"method": "rhf"
			}
		],
		"cosmo_sigma_profile": { 
			"-0.025": 0.0,
			"-0.024": 0.0,
			"-0.023": 0.0,
			"-0.022": 0.0,
			"-0.021": 0.0,
			"-0.02": 0.0,
			"-0.019": 0.0,
			"-0.018": 0.0,
			"-0.017": 0.0,
			"-0.016": 0.0,
			"-0.015": 0.175343665322,
			"-0.014": 1.33458229007,
			"-0.013": 0.964724860685,
			"-0.012": 1.26727143826,
			"-0.011": 1.3036959213,
			"-0.01": 0.519822190176,
			"-0.009": 1.31183189229,
			"-0.008": 1.26315405907,
			"-0.007": 1.26220390858,
			"-0.006": 2.55607585449,
			"-0.005": 3.31060547202,
			"-0.004": 8.16860714103,
			"-0.003": 14.2286302496,
			"-0.002": 23.7291001408,
			"-0.001": 23.2183084076,
			"0.0": 27.1341679699,
			"0.001": 26.2219544134,
			"0.002": 15.4294176257,
			"0.003": 6.20691762868,
			"0.004": 5.14621802822,
			"0.005": 4.17126655817,
			"0.006": 4.58002772207,
			"0.007": 4.91150744424,
			"0.008": 3.79584114973,
			"0.009": 4.54703827324,
			"0.01": 2.3252920097,
			"0.011": 0.00604086677822,
			"0.012": 0.0,
			"0.013": 0.0,
			"0.014": 0.0,
			"0.015": 0.0,
			"0.016": 0.0,
			"0.017": 0.0,
			"0.018": 0.0,
			"0.019": 0.0,
			"0.02": 0.0,
			"0.021": 0.0,
			"0.022": 0.0,
			"0.023": 0.0,
			"0.024": 0.0,
			"0.025": 0.0
		}
	}
}
