{
	 "smiles": "COC1=CC2=C(C=C1)N(CC(O)=O)C=C2", 
	 "Tm": 414.15, 
	 "num_atms": 26, 
	 "gaussian": { 
		 "optdone": 1, 
		 "sigma_profile": "yes", 
		 "theory": "DFT", 
		 "functional": "B3LYP", 
		 "basiset": "6-31G**", 
		 "properties": { 
			 "R2extent": 3928.1343, 
			 "electric_dipole_moment_norm": 4.08447234781, 
			 "electric_quadrupole_moment_norm": 29.0177915652, 
			 "total_energy": -706.207588493, 
			 "HOMO_LUMO_gap": 0.18772, 
			 "cosmo_polarized_energy": -23.54, 
			 "cosmo_cavitation_energy": 30.58, 
			 "cosmo_dispersion_energy": -21.87, 
			 "cosmo_repulsion_energy": 1.71, 
			 "cosmo_total_nonelectrostatic_energy": 10.42, 
			 "SMD_solvation_energy": 7.17 
		},
		"coords": [
			{
				"x": -1.9307304668,
				"y": 1.0950824208,
				"z": 4.1336617684,
				"element": "C" 
			},
			{
				"x": -1.4075448006,
				"y": -0.0187890015,
				"z": 3.4345700064,
				"element": "O" 
			},
			{
				"x": -1.067887733,
				"y": 0.1524317192,
				"z": 2.1170208927,
				"element": "C" 
			},
			{
				"x": -1.2150941474,
				"y": 1.3428929424,
				"z": 1.4119691864,
				"element": "C" 
			},
			{
				"x": -0.821609552,
				"y": 1.3762765644,
				"z": 0.0594777711,
				"element": "C" 
			},
			{
				"x": -0.2962606333,
				"y": 0.2079007493,
				"z": -0.5480624832,
				"element": "C" 
			},
			{
				"x": -0.1443963856,
				"y": -0.9865798388,
				"z": 0.1658061195,
				"element": "C" 
			},
			{
				"x": -0.5350263278,
				"y": -1.0020172246,
				"z": 1.4951335417,
				"element": "C" 
			},
			{
				"x": -0.0190965401,
				"y": 0.5106497596,
				"z": -1.8763835885,
				"element": "N" 
			},
			{
				"x": 0.6023087059,
				"y": -0.3649390973,
				"z": -2.8245886379,
				"element": "C" 
			},
			{
				"x": 2.1420682468,
				"y": -0.3497122846,
				"z": -2.7798111184,
				"element": "C" 
			},
			{
				"x": 2.729858504,
				"y": -1.263833909,
				"z": -3.5985857262,
				"element": "O" 
			},
			{
				"x": 2.80050849,
				"y": 0.4008387203,
				"z": -2.1151286901,
				"element": "O" 
			},
			{
				"x": -0.3307199828,
				"y": 1.8437481134,
				"z": -2.0930706294,
				"element": "C" 
			},
			{
				"x": -0.8300387479,
				"y": 2.4007158973,
				"z": -0.9469787731,
				"element": "C" 
			},
			{
				"x": -1.2157807998,
				"y": 1.9283646181,
				"z": 4.1650469102,
				"element": "H" 
			},
			{
				"x": -2.8698141024,
				"y": 1.45118353,
				"z": 3.6884894535,
				"element": "H" 
			},
			{
				"x": -2.1252953962,
				"y": 0.7518536031,
				"z": 5.1513984934,
				"element": "H" 
			},
			{
				"x": -1.6178659087,
				"y": 2.2337034039,
				"z": 1.8790988398,
				"element": "H" 
			},
			{
				"x": 0.2751697794,
				"y": -1.8795452832,
				"z": -0.2882781778,
				"element": "H" 
			},
			{
				"x": -0.4350022722,
				"y": -1.8997474038,
				"z": 2.0956152696,
				"element": "H" 
			},
			{
				"x": 0.2474854788,
				"y": -1.3913074179,
				"z": -2.6645874171,
				"element": "H" 
			},
			{
				"x": 0.290489985,
				"y": -0.0816496755,
				"z": -3.8380274427,
				"element": "H" 
			},
			{
				"x": 2.0645511823,
				"y": -1.7998520617,
				"z": -4.0545753469,
				"element": "H" 
			},
			{
				"x": -0.1674213294,
				"y": 2.2846663419,
				"z": -3.066644456,
				"element": "H" 
			},
			{
				"x": -1.1675552461,
				"y": 3.4210648138,
				"z": -0.8336657655,
				"element": "H" 
			}
		],
		 "valence_orbital": [ 
			{
				"type": "occ",
				"energy": -0.29252,
				"method": "rhf"
			},
			{
				"type": "occ",
				"energy": -0.28505,
				"method": "rhf"
			},
			{
				"type": "occ",
				"energy": -0.26901,
				"method": "rhf"
			},
			{
				"type": "occ",
				"energy": -0.20309,
				"method": "rhf"
			},
			{
				"type": "occ",
				"energy": -0.19523,
				"method": "rhf"
			},
			{
				"type": "unocc",
				"energy": -0.00751,
				"method": "rhf"
			},
			{
				"type": "unocc",
				"energy": -0.00158,
				"method": "rhf"
			},
			{
				"type": "unocc",
				"energy": 0.03379,
				"method": "rhf"
			},
			{
				"type": "unocc",
				"energy": 0.04256,
				"method": "rhf"
			},
			{
				"type": "unocc",
				"energy": 0.06967,
				"method": "rhf"
			}
		],
		"cosmo_sigma_profile": { 
			"-0.025": 0.0,
			"-0.024": 0.0,
			"-0.023": 0.0,
			"-0.022": 0.0,
			"-0.021": 0.0,
			"-0.02": 0.49040431832,
			"-0.019": 1.44399191366,
			"-0.018": 1.35240378971,
			"-0.017": 1.05593825571,
			"-0.016": 1.63679536873,
			"-0.015": 1.09100060943,
			"-0.014": 0.839493624133,
			"-0.013": 1.27550767571,
			"-0.012": 1.52851146253,
			"-0.011": 2.09519474444,
			"-0.01": 4.19318138551,
			"-0.009": 6.36614914207,
			"-0.008": 6.66573571397,
			"-0.007": 5.47309952496,
			"-0.006": 9.07385614485,
			"-0.005": 16.3549067253,
			"-0.004": 17.6293322883,
			"-0.003": 18.4118327461,
			"-0.002": 12.8909034204,
			"-0.001": 9.22443684129,
			"0.0": 9.41922344501,
			"0.001": 8.98009529416,
			"0.002": 8.90066338122,
			"0.003": 9.00308243812,
			"0.004": 11.9196698883,
			"0.005": 16.320882438,
			"0.006": 20.6341783827,
			"0.007": 9.00791327652,
			"0.008": 4.65666779522,
			"0.009": 5.97367871218,
			"0.01": 7.45265955497,
			"0.011": 7.48078390815,
			"0.012": 4.07270854159,
			"0.013": 0.631816268529,
			"0.014": 0.0,
			"0.015": 0.0,
			"0.016": 0.0,
			"0.017": 0.0,
			"0.018": 0.0,
			"0.019": 0.0,
			"0.02": 0.0,
			"0.021": 0.0,
			"0.022": 0.0,
			"0.023": 0.0,
			"0.024": 0.0,
			"0.025": 0.0
		}
	}
}
