{
	 "smiles": "OC(=O)C1=C(Cl)C2=C(S1)C=C(C=C2)C(F)(F)F", 
	 "Tm": 479.15, 
	 "num_atms": 21, 
	 "gaussian": { 
		 "optdone": 1, 
		 "sigma_profile": "yes", 
		 "theory": "DFT", 
		 "functional": "B3LYP", 
		 "basiset": "6-31G**", 
		 "properties": { 
			 "R2extent": 6697.9152, 
			 "electric_dipole_moment_norm": 1.00041498389, 
			 "electric_quadrupole_moment_norm": 12.9248378528, 
			 "total_energy": -1691.84196894, 
			 "HOMO_LUMO_gap": 0.15888, 
			 "cosmo_polarized_energy": -10.3, 
			 "cosmo_cavitation_energy": 31.23, 
			 "cosmo_dispersion_energy": -23.05, 
			 "cosmo_repulsion_energy": 1.66, 
			 "cosmo_total_nonelectrostatic_energy": 9.84, 
			 "SMD_solvation_energy": 6.92 
		},
		"coords": [
			{
				"x": 0.4427838224,
				"y": -0.0207940356,
				"z": -4.1447293842,
				"element": "O" 
			},
			{
				"x": -0.0070211119,
				"y": 1.0643975854,
				"z": -3.4639481864,
				"element": "C" 
			},
			{
				"x": -0.6084009008,
				"y": 1.9733202189,
				"z": -3.9933812358,
				"element": "O" 
			},
			{
				"x": 0.3351765506,
				"y": 0.9723826374,
				"z": -2.0328289277,
				"element": "C" 
			},
			{
				"x": 0.0502455906,
				"y": 1.8726818928,
				"z": -1.0362493072,
				"element": "C" 
			},
			{
				"x": -0.8022306367,
				"y": 3.3632197176,
				"z": -1.2497549199,
				"element": "Cl" 
			},
			{
				"x": 0.5313021792,
				"y": 1.4742275281,
				"z": 0.2595938927,
				"element": "C" 
			},
			{
				"x": 1.1956210813,
				"y": 0.2271203462,
				"z": 0.1981639729,
				"element": "C" 
			},
			{
				"x": 1.2178806489,
				"y": -0.4246757316,
				"z": -1.4231438206,
				"element": "S" 
			},
			{
				"x": 1.7477119412,
				"y": -0.3593184578,
				"z": 1.3430086381,
				"element": "C" 
			},
			{
				"x": 1.6260673128,
				"y": 0.3177092899,
				"z": 2.5483325126,
				"element": "C" 
			},
			{
				"x": 0.9654625823,
				"y": 1.5633969283,
				"z": 2.6261095768,
				"element": "C" 
			},
			{
				"x": 0.4208429146,
				"y": 2.1416313436,
				"z": 1.4949810337,
				"element": "C" 
			},
			{
				"x": 2.2067193796,
				"y": -0.2609847586,
				"z": 3.8117691778,
				"element": "C" 
			},
			{
				"x": 2.7699091279,
				"y": -1.4705280146,
				"z": 3.6108691833,
				"element": "F" 
			},
			{
				"x": 1.259375568,
				"y": -0.4064983705,
				"z": 4.7653015559,
				"element": "F" 
			},
			{
				"x": 3.1577446698,
				"y": 0.5483229701,
				"z": 4.3301584787,
				"element": "F" 
			},
			{
				"x": 0.1823584825,
				"y": 0.1103729092,
				"z": -5.0712114967,
				"element": "H" 
			},
			{
				"x": 2.2565834817,
				"y": -1.3150210556,
				"z": 1.2976620058,
				"element": "H" 
			},
			{
				"x": 0.8873093919,
				"y": 2.0643348507,
				"z": 3.5851274045,
				"element": "H" 
			},
			{
				"x": -0.0883420759,
				"y": 3.0978022062,
				"z": 1.5470698455,
				"element": "H" 
			}
		],
		 "valence_orbital": [ 
			{
				"type": "occ",
				"energy": -0.33142,
				"method": "rhf"
			},
			{
				"type": "occ",
				"energy": -0.30106,
				"method": "rhf"
			},
			{
				"type": "occ",
				"energy": -0.28894,
				"method": "rhf"
			},
			{
				"type": "occ",
				"energy": -0.26827,
				"method": "rhf"
			},
			{
				"type": "occ",
				"energy": -0.24442,
				"method": "rhf"
			},
			{
				"type": "unocc",
				"energy": -0.08554,
				"method": "rhf"
			},
			{
				"type": "unocc",
				"energy": -0.03258,
				"method": "rhf"
			},
			{
				"type": "unocc",
				"energy": -0.01229,
				"method": "rhf"
			},
			{
				"type": "unocc",
				"energy": -0.01125,
				"method": "rhf"
			},
			{
				"type": "unocc",
				"energy": 0.03207,
				"method": "rhf"
			}
		],
		"cosmo_sigma_profile": { 
			"-0.025": 0.0,
			"-0.024": 0.0,
			"-0.023": 0.0,
			"-0.022": 0.0,
			"-0.021": 0.0,
			"-0.02": 0.0143573054809,
			"-0.019": 0.804235036098,
			"-0.018": 1.03871955101,
			"-0.017": 0.799092190124,
			"-0.016": 0.410282873385,
			"-0.015": 0.923486038052,
			"-0.014": 0.560841891183,
			"-0.013": 0.446485269512,
			"-0.012": 1.27801576059,
			"-0.011": 0.804442157872,
			"-0.01": 0.935079730797,
			"-0.009": 2.2281413094,
			"-0.008": 4.01474235905,
			"-0.007": 5.87400274362,
			"-0.006": 6.48358323518,
			"-0.005": 5.88866405267,
			"-0.004": 9.63017239053,
			"-0.003": 14.6581339888,
			"-0.002": 17.6950607939,
			"-0.001": 25.3847467237,
			"0.0": 26.7124074565,
			"0.001": 31.8114477895,
			"0.002": 35.6834216872,
			"0.003": 33.2968260085,
			"0.004": 5.19858486303,
			"0.005": 4.71173898377,
			"0.006": 3.14684665399,
			"0.007": 2.67155940936,
			"0.008": 1.78515854869,
			"0.009": 1.95934502848,
			"0.01": 3.28491984935,
			"0.011": 5.54778549864,
			"0.012": 0.673510788989,
			"0.013": 0.0,
			"0.014": 0.0,
			"0.015": 0.0,
			"0.016": 0.0,
			"0.017": 0.0,
			"0.018": 0.0,
			"0.019": 0.0,
			"0.02": 0.0,
			"0.021": 0.0,
			"0.022": 0.0,
			"0.023": 0.0,
			"0.024": 0.0,
			"0.025": 0.0
		}
	}
}
