{
	 "smiles": "CC1=NC(O)=C(CN)C=N1", 
	 "Tm": 468.15, 
	 "num_atms": 19, 
	 "gaussian": { 
		 "optdone": 1, 
		 "sigma_profile": "yes", 
		 "theory": "DFT", 
		 "functional": "B3LYP", 
		 "basiset": "6-31G**", 
		 "properties": { 
			 "R2extent": 1732.7608, 
			 "electric_dipole_moment_norm": 2.48338400172, 
			 "electric_quadrupole_moment_norm": 8.61824399225, 
			 "total_energy": -473.549919235, 
			 "HOMO_LUMO_gap": 0.21621, 
			 "cosmo_polarized_energy": -11.41, 
			 "cosmo_cavitation_energy": 22.75, 
			 "cosmo_dispersion_energy": -17.19, 
			 "cosmo_repulsion_energy": 1.43, 
			 "cosmo_total_nonelectrostatic_energy": 6.99, 
			 "SMD_solvation_energy": 0.89 
		},
		"coords": [
			{
				"x": 2.4922232883,
				"y": 0.2075570233,
				"z": -1.7564981879,
				"element": "C" 
			},
			{
				"x": 1.5040015758,
				"y": -0.0633856248,
				"z": -0.6546476942,
				"element": "C" 
			},
			{
				"x": 0.3497936563,
				"y": -0.6617583344,
				"z": -1.0084433607,
				"element": "N" 
			},
			{
				"x": -0.5234933645,
				"y": -0.9016230303,
				"z": -0.0393945326,
				"element": "C" 
			},
			{
				"x": -1.680383725,
				"y": -1.5102491639,
				"z": -0.3793956001,
				"element": "O" 
			},
			{
				"x": -0.306690185,
				"y": -0.5613375799,
				"z": 1.3082774435,
				"element": "C" 
			},
			{
				"x": -1.3327456623,
				"y": -0.8516133791,
				"z": 2.3798523163,
				"element": "C" 
			},
			{
				"x": -1.0446320459,
				"y": -0.1168484427,
				"z": 3.614264446,
				"element": "N" 
			},
			{
				"x": 0.9194958057,
				"y": 0.0458075719,
				"z": 1.5453053851,
				"element": "C" 
			},
			{
				"x": 1.8305113836,
				"y": 0.3020742385,
				"z": 0.5869670292,
				"element": "N" 
			},
			{
				"x": 3.3829339266,
				"y": 0.687283589,
				"z": -1.3500596464,
				"element": "H" 
			},
			{
				"x": 2.0458523293,
				"y": 0.85386323,
				"z": -2.5196516537,
				"element": "H" 
			},
			{
				"x": 2.7750925704,
				"y": -0.7260526702,
				"z": -2.253975475,
				"element": "H" 
			},
			{
				"x": -1.6343156011,
				"y": -1.6504244114,
				"z": -1.3395181828,
				"element": "H" 
			},
			{
				"x": -2.3354617254,
				"y": -0.6659282042,
				"z": 1.9609736505,
				"element": "H" 
			},
			{
				"x": -1.3064831311,
				"y": -1.924185423,
				"z": 2.6150989231,
				"element": "H" 
			},
			{
				"x": -1.6447781976,
				"y": -0.4528490665,
				"z": 4.3616835984,
				"element": "H" 
			},
			{
				"x": -1.2602246501,
				"y": 0.8695901819,
				"z": 3.4891932576,
				"element": "H" 
			},
			{
				"x": 1.1759037519,
				"y": 0.3389794957,
				"z": 2.5598682837,
				"element": "H" 
			}
		],
		 "valence_orbital": [ 
			{
				"type": "occ",
				"energy": -0.29857,
				"method": "rhf"
			},
			{
				"type": "occ",
				"energy": -0.28663,
				"method": "rhf"
			},
			{
				"type": "occ",
				"energy": -0.2542,
				"method": "rhf"
			},
			{
				"type": "occ",
				"energy": -0.24581,
				"method": "rhf"
			},
			{
				"type": "occ",
				"energy": -0.2365,
				"method": "rhf"
			},
			{
				"type": "unocc",
				"energy": -0.02029,
				"method": "rhf"
			},
			{
				"type": "unocc",
				"energy": -0.00471,
				"method": "rhf"
			},
			{
				"type": "unocc",
				"energy": 0.0783,
				"method": "rhf"
			},
			{
				"type": "unocc",
				"energy": 0.08224,
				"method": "rhf"
			},
			{
				"type": "unocc",
				"energy": 0.12371,
				"method": "rhf"
			}
		],
		"cosmo_sigma_profile": { 
			"-0.025": 0.0,
			"-0.024": 0.0,
			"-0.023": 0.0,
			"-0.022": 0.0,
			"-0.021": 0.0,
			"-0.02": 0.0,
			"-0.019": 0.0,
			"-0.018": 0.126810932774,
			"-0.017": 0.752241129588,
			"-0.016": 0.84447158022,
			"-0.015": 0.670436412011,
			"-0.014": 0.793962073598,
			"-0.013": 0.322905970886,
			"-0.012": 0.534626897942,
			"-0.011": 1.38351571762,
			"-0.01": 3.07636658239,
			"-0.009": 3.57524564144,
			"-0.008": 3.10983397362,
			"-0.007": 3.80566164986,
			"-0.006": 4.17985811334,
			"-0.005": 9.24226691267,
			"-0.004": 11.0909546009,
			"-0.003": 14.5122667981,
			"-0.002": 14.8966531236,
			"-0.001": 18.1679732523,
			"0.0": 18.6251622558,
			"0.001": 12.756714304,
			"0.002": 8.19250818658,
			"0.003": 6.89687592139,
			"0.004": 5.51700997854,
			"0.005": 4.30484206043,
			"0.006": 4.96564443651,
			"0.007": 4.68639698491,
			"0.008": 4.51889965469,
			"0.009": 4.37712768143,
			"0.01": 2.96974788296,
			"0.011": 2.31487929727,
			"0.012": 2.26421595549,
			"0.013": 1.57741148139,
			"0.014": 1.24900090756,
			"0.015": 1.47735748086,
			"0.016": 1.10769797674,
			"0.017": 0.331036049719,
			"0.018": 0.0,
			"0.019": 0.0,
			"0.02": 0.0,
			"0.021": 0.0,
			"0.022": 0.0,
			"0.023": 0.0,
			"0.024": 0.0,
			"0.025": 0.0
		}
	}
}
