{
	 "smiles": "CC(C)OC(N)=O", 
	 "Tm": 366.15, 
	 "num_atms": 16, 
	 "gaussian": { 
		 "optdone": 1, 
		 "sigma_profile": "yes", 
		 "theory": "DFT", 
		 "functional": "B3LYP", 
		 "basiset": "6-31G**", 
		 "properties": { 
			 "R2extent": 933.5682, 
			 "electric_dipole_moment_norm": 2.37777838538, 
			 "electric_quadrupole_moment_norm": 10.0726326583, 
			 "total_energy": -363.084986036, 
			 "HOMO_LUMO_gap": 0.3292, 
			 "cosmo_polarized_energy": -10.08, 
			 "cosmo_cavitation_energy": 19.35, 
			 "cosmo_dispersion_energy": -14.24, 
			 "cosmo_repulsion_energy": 1.25, 
			 "cosmo_total_nonelectrostatic_energy": 6.36, 
			 "SMD_solvation_energy": 4.93 
		},
		"coords": [
			{
				"x": -0.28883556,
				"y": 1.328497549,
				"z": 1.9557504494,
				"element": "C" 
			},
			{
				"x": -0.9402093543,
				"y": 0.4286061685,
				"z": 0.9144334555,
				"element": "C" 
			},
			{
				"x": -2.3176671347,
				"y": 0.9102017404,
				"z": 0.4689790407,
				"element": "C" 
			},
			{
				"x": -0.035584434,
				"y": 0.415764351,
				"z": -0.2236106935,
				"element": "O" 
			},
			{
				"x": -0.0865889497,
				"y": -0.6857480708,
				"z": -1.0187861026,
				"element": "C" 
			},
			{
				"x": 0.800042728,
				"y": -0.5561063252,
				"z": -2.0463712909,
				"element": "N" 
			},
			{
				"x": -0.8110426577,
				"y": -1.648477452,
				"z": -0.8425949888,
				"element": "O" 
			},
			{
				"x": -0.9056283447,
				"y": 1.3659060137,
				"z": 2.8590711006,
				"element": "H" 
			},
			{
				"x": -0.178284194,
				"y": 2.3485427709,
				"z": 1.5735047151,
				"element": "H" 
			},
			{
				"x": 0.7013865553,
				"y": 0.9533235438,
				"z": 2.2288904266,
				"element": "H" 
			},
			{
				"x": -1.0161605274,
				"y": -0.5980986243,
				"z": 1.2843076098,
				"element": "H" 
			},
			{
				"x": -3.0021861826,
				"y": 0.942072845,
				"z": 1.3231929825,
				"element": "H" 
			},
			{
				"x": -2.2549239501,
				"y": 1.9159303746,
				"z": 0.0402084404,
				"element": "H" 
			},
			{
				"x": -2.7333748409,
				"y": 0.2291184103,
				"z": -0.2770828962,
				"element": "H" 
			},
			{
				"x": 0.866378016,
				"y": -1.3045367282,
				"z": -2.7138637103,
				"element": "H" 
			},
			{
				"x": 1.3744788308,
				"y": 0.2644034331,
				"z": -2.1368285384,
				"element": "H" 
			}
		],
		 "valence_orbital": [ 
			{
				"type": "occ",
				"energy": -0.35455,
				"method": "rhf"
			},
			{
				"type": "occ",
				"energy": -0.32914,
				"method": "rhf"
			},
			{
				"type": "occ",
				"energy": -0.28508,
				"method": "rhf"
			},
			{
				"type": "occ",
				"energy": -0.26678,
				"method": "rhf"
			},
			{
				"type": "occ",
				"energy": -0.26424,
				"method": "rhf"
			},
			{
				"type": "unocc",
				"energy": 0.06496,
				"method": "rhf"
			},
			{
				"type": "unocc",
				"energy": 0.08226,
				"method": "rhf"
			},
			{
				"type": "unocc",
				"energy": 0.10185,
				"method": "rhf"
			},
			{
				"type": "unocc",
				"energy": 0.12422,
				"method": "rhf"
			},
			{
				"type": "unocc",
				"energy": 0.14238,
				"method": "rhf"
			}
		],
		"cosmo_sigma_profile": { 
			"-0.025": 0.0,
			"-0.024": 0.0,
			"-0.023": 0.0,
			"-0.022": 0.0,
			"-0.021": 0.0,
			"-0.02": 0.0,
			"-0.019": 0.0,
			"-0.018": 0.0,
			"-0.017": 0.0,
			"-0.016": 0.0,
			"-0.015": 0.186559626865,
			"-0.014": 2.06746014682,
			"-0.013": 2.5931250306,
			"-0.012": 1.31391226137,
			"-0.011": 2.08636680987,
			"-0.01": 1.98566491477,
			"-0.009": 2.15332728735,
			"-0.008": 1.62690628723,
			"-0.007": 1.45270905532,
			"-0.006": 1.72113010672,
			"-0.005": 1.46431072234,
			"-0.004": 9.86368782013,
			"-0.003": 17.3569882371,
			"-0.002": 14.4973562999,
			"-0.001": 14.1009871203,
			"0.0": 19.4079820222,
			"0.001": 12.3081261294,
			"0.002": 6.17703450456,
			"0.003": 6.86603671295,
			"0.004": 5.17392835283,
			"0.005": 3.21235703138,
			"0.006": 2.61917502447,
			"0.007": 3.10134338756,
			"0.008": 2.74874232533,
			"0.009": 1.94156238713,
			"0.01": 1.20655003834,
			"0.011": 1.35793432374,
			"0.012": 1.87302015485,
			"0.013": 4.21713490321,
			"0.014": 3.81792174466,
			"0.015": 0.116152699791,
			"0.016": 0.0,
			"0.017": 0.0,
			"0.018": 0.0,
			"0.019": 0.0,
			"0.02": 0.0,
			"0.021": 0.0,
			"0.022": 0.0,
			"0.023": 0.0,
			"0.024": 0.0,
			"0.025": 0.0
		}
	}
}
