{
	 "smiles": "CC1=C(C=CC=C1)C1=NNN=N1", 
	 "Tm": 427.15, 
	 "num_atms": 20, 
	 "gaussian": { 
		 "optdone": 1, 
		 "sigma_profile": "yes", 
		 "theory": "DFT", 
		 "functional": "B3LYP", 
		 "basiset": "6-31G**", 
		 "properties": { 
			 "R2extent": 3022.7692, 
			 "electric_dipole_moment_norm": 2.27311223436, 
			 "electric_quadrupole_moment_norm": 18.5340019432, 
			 "total_energy": -528.6360346, 
			 "HOMO_LUMO_gap": 0.19958, 
			 "cosmo_polarized_energy": -11.26, 
			 "cosmo_cavitation_energy": 24.02, 
			 "cosmo_dispersion_energy": -18.21, 
			 "cosmo_repulsion_energy": 1.44, 
			 "cosmo_total_nonelectrostatic_energy": 7.24, 
			 "SMD_solvation_energy": 2.28 
		},
		"coords": [
			{
				"x": -2.008879984,
				"y": -1.6476018104,
				"z": -1.9296906804,
				"element": "C" 
			},
			{
				"x": -1.0027361461,
				"y": -0.8257454278,
				"z": -1.160196492,
				"element": "C" 
			},
			{
				"x": -0.1449274711,
				"y": -1.3678153968,
				"z": -0.1720256285,
				"element": "C" 
			},
			{
				"x": 0.7649075591,
				"y": -0.5303932948,
				"z": 0.4985991111,
				"element": "C" 
			},
			{
				"x": 0.8403786004,
				"y": 0.827218893,
				"z": 0.2098434253,
				"element": "C" 
			},
			{
				"x": -0.0003663242,
				"y": 1.3700908931,
				"z": -0.7619061574,
				"element": "C" 
			},
			{
				"x": -0.9039327998,
				"y": 0.5459592825,
				"z": -1.4298812186,
				"element": "C" 
			},
			{
				"x": -0.142695951,
				"y": -2.787913112,
				"z": 0.2095178863,
				"element": "C" 
			},
			{
				"x": -0.9200685884,
				"y": -3.7513053308,
				"z": -0.2970444682,
				"element": "N" 
			},
			{
				"x": -0.5072431618,
				"y": -4.8102181299,
				"z": 0.3921023206,
				"element": "N" 
			},
			{
				"x": 0.4563757965,
				"y": -4.5626454755,
				"z": 1.2731592684,
				"element": "N" 
			},
			{
				"x": 0.6998037704,
				"y": -3.2866775816,
				"z": 1.1712142455,
				"element": "N" 
			},
			{
				"x": -2.5541898709,
				"y": -1.0136863021,
				"z": -2.6339933369,
				"element": "H" 
			},
			{
				"x": -1.5294226962,
				"y": -2.4558012574,
				"z": -2.4904521346,
				"element": "H" 
			},
			{
				"x": -2.7324948625,
				"y": -2.1299066649,
				"z": -1.2654625456,
				"element": "H" 
			},
			{
				"x": 1.4112309184,
				"y": -0.9682097374,
				"z": 1.2509697022,
				"element": "H" 
			},
			{
				"x": 1.5501950192,
				"y": 1.4550193125,
				"z": 0.7399492431,
				"element": "H" 
			},
			{
				"x": 0.0453158369,
				"y": 2.4289689813,
				"z": -1.0001542147,
				"element": "H" 
			},
			{
				"x": -1.5573986516,
				"y": 0.9724083996,
				"z": -2.1863673895,
				"element": "H" 
			},
			{
				"x": -0.8943509932,
				"y": -5.7343462406,
				"z": 0.258619064,
				"element": "H" 
			}
		],
		 "valence_orbital": [ 
			{
				"type": "occ",
				"energy": -0.31838,
				"method": "rhf"
			},
			{
				"type": "occ",
				"energy": -0.31682,
				"method": "rhf"
			},
			{
				"type": "occ",
				"energy": -0.29062,
				"method": "rhf"
			},
			{
				"type": "occ",
				"energy": -0.24593,
				"method": "rhf"
			},
			{
				"type": "occ",
				"energy": -0.23692,
				"method": "rhf"
			},
			{
				"type": "unocc",
				"energy": -0.03734,
				"method": "rhf"
			},
			{
				"type": "unocc",
				"energy": -0.02387,
				"method": "rhf"
			},
			{
				"type": "unocc",
				"energy": 0.00157,
				"method": "rhf"
			},
			{
				"type": "unocc",
				"energy": 0.06396,
				"method": "rhf"
			},
			{
				"type": "unocc",
				"energy": 0.06737,
				"method": "rhf"
			}
		],
		"cosmo_sigma_profile": { 
			"-0.025": 0.0,
			"-0.024": 0.0,
			"-0.023": 0.0,
			"-0.022": 0.0,
			"-0.021": 0.0,
			"-0.02": 0.200791237933,
			"-0.019": 1.88813818283,
			"-0.018": 1.7995778276,
			"-0.017": 0.983988538633,
			"-0.016": 0.524345691145,
			"-0.015": 1.71954907958,
			"-0.014": 0.713727003846,
			"-0.013": 0.338032015757,
			"-0.012": 1.1224851829,
			"-0.011": 0.68100211577,
			"-0.01": 0.0758333376846,
			"-0.009": 0.835241244318,
			"-0.008": 1.15326282622,
			"-0.007": 0.707955167023,
			"-0.006": 4.98673819557,
			"-0.005": 10.323577475,
			"-0.004": 11.9810876286,
			"-0.003": 15.3849649885,
			"-0.002": 14.1980497564,
			"-0.001": 14.2615906039,
			"0.0": 17.6270617112,
			"0.001": 15.6031982033,
			"0.002": 13.2684185996,
			"0.003": 12.4917121183,
			"0.004": 13.5093494034,
			"0.005": 12.5713968682,
			"0.006": 3.93497769609,
			"0.007": 3.71827024404,
			"0.008": 4.49894192937,
			"0.009": 3.7979417179,
			"0.01": 3.31949793945,
			"0.011": 2.43515291939,
			"0.012": 1.35028626336,
			"0.013": 0.516607280433,
			"0.014": 0.0,
			"0.015": 0.0,
			"0.016": 0.0,
			"0.017": 0.0,
			"0.018": 0.0,
			"0.019": 0.0,
			"0.02": 0.0,
			"0.021": 0.0,
			"0.022": 0.0,
			"0.023": 0.0,
			"0.024": 0.0,
			"0.025": 0.0
		}
	}
}
