{
	 "smiles": "CN(C)C(=O)COC1=C(C=CC=C1)C(O)=O", 
	 "Tm": 401.15, 
	 "num_atms": 29, 
	 "gaussian": { 
		 "optdone": 1, 
		 "sigma_profile": "yes", 
		 "theory": "DFT", 
		 "functional": "B3LYP", 
		 "basiset": "6-31G**", 
		 "properties": { 
			 "R2extent": 4170.7532, 
			 "electric_dipole_moment_norm": 2.67642150828, 
			 "electric_quadrupole_moment_norm": 18.9499700314, 
			 "total_energy": -782.662118633, 
			 "HOMO_LUMO_gap": 0.18535, 
			 "cosmo_polarized_energy": -15.53, 
			 "cosmo_cavitation_energy": 32.81, 
			 "cosmo_dispersion_energy": -22.96, 
			 "cosmo_repulsion_energy": 1.8, 
			 "cosmo_total_nonelectrostatic_energy": 11.65, 
			 "SMD_solvation_energy": 7.71 
		},
		"coords": [
			{
				"x": -1.4580963109,
				"y": 2.5034199862,
				"z": -1.5718029693,
				"element": "C" 
			},
			{
				"x": -0.0147411618,
				"y": 2.3109035394,
				"z": -1.6495297397,
				"element": "N" 
			},
			{
				"x": 0.5586401353,
				"y": 2.3739403426,
				"z": -2.9883207276,
				"element": "C" 
			},
			{
				"x": 0.8306185362,
				"y": 2.2176735288,
				"z": -0.5810333301,
				"element": "C" 
			},
			{
				"x": 2.0553780273,
				"y": 2.1732176891,
				"z": -0.693320185,
				"element": "O" 
			},
			{
				"x": 0.2230194602,
				"y": 2.1938357865,
				"z": 0.8348156526,
				"element": "C" 
			},
			{
				"x": -0.7772461446,
				"y": 1.2066956167,
				"z": 1.0668884103,
				"element": "O" 
			},
			{
				"x": -0.423322045,
				"y": -0.1053953619,
				"z": 1.1699584083,
				"element": "C" 
			},
			{
				"x": -1.4448817196,
				"y": -1.0378106775,
				"z": 1.4796694479,
				"element": "C" 
			},
			{
				"x": -1.0962502949,
				"y": -2.389478652,
				"z": 1.6322903774,
				"element": "C" 
			},
			{
				"x": 0.2114692894,
				"y": -2.8303116596,
				"z": 1.4738812649,
				"element": "C" 
			},
			{
				"x": 1.2028104597,
				"y": -1.9026791569,
				"z": 1.1515288999,
				"element": "C" 
			},
			{
				"x": 0.8959366243,
				"y": -0.5516161767,
				"z": 0.9995847789,
				"element": "C" 
			},
			{
				"x": -2.8904012945,
				"y": -0.7306400102,
				"z": 1.6676536438,
				"element": "C" 
			},
			{
				"x": -3.2686931558,
				"y": 0.5369492542,
				"z": 1.3738470854,
				"element": "O" 
			},
			{
				"x": -3.7073505421,
				"y": -1.5534526325,
				"z": 2.0421844326,
				"element": "O" 
			},
			{
				"x": -1.7297747452,
				"y": 3.5340477783,
				"z": -1.8387846615,
				"element": "H" 
			},
			{
				"x": -1.8393990844,
				"y": 2.2666498706,
				"z": -0.5812889673,
				"element": "H" 
			},
			{
				"x": -1.9506326075,
				"y": 1.8316362449,
				"z": -2.2840422132,
				"element": "H" 
			},
			{
				"x": 1.6299593563,
				"y": 2.195482476,
				"z": -2.9156566496,
				"element": "H" 
			},
			{
				"x": 0.3858209225,
				"y": 3.3603012884,
				"z": -3.4379535326,
				"element": "H" 
			},
			{
				"x": 0.0960341268,
				"y": 1.6158968481,
				"z": -3.6306847282,
				"element": "H" 
			},
			{
				"x": 1.0628741395,
				"y": 2.0826016979,
				"z": 1.5253572604,
				"element": "H" 
			},
			{
				"x": -0.2750322315,
				"y": 3.1454481283,
				"z": 1.0447111243,
				"element": "H" 
			},
			{
				"x": -1.8954023984,
				"y": -3.0794804239,
				"z": 1.8792886069,
				"element": "H" 
			},
			{
				"x": 0.4540695574,
				"y": -3.8810857155,
				"z": 1.5938832074,
				"element": "H" 
			},
			{
				"x": 2.2305796057,
				"y": -2.2257808403,
				"z": 1.0120810795,
				"element": "H" 
			},
			{
				"x": 1.6804927874,
				"y": 0.1442580886,
				"z": 0.7280597566,
				"element": "H" 
			},
			{
				"x": -4.2256792917,
				"y": 0.5478731422,
				"z": 1.5462342668,
				"element": "H" 
			}
		],
		 "valence_orbital": [ 
			{
				"type": "occ",
				"energy": -0.27363,
				"method": "rhf"
			},
			{
				"type": "occ",
				"energy": -0.25949,
				"method": "rhf"
			},
			{
				"type": "occ",
				"energy": -0.25812,
				"method": "rhf"
			},
			{
				"type": "occ",
				"energy": -0.24725,
				"method": "rhf"
			},
			{
				"type": "occ",
				"energy": -0.22982,
				"method": "rhf"
			},
			{
				"type": "unocc",
				"energy": -0.04447,
				"method": "rhf"
			},
			{
				"type": "unocc",
				"energy": 0.00139,
				"method": "rhf"
			},
			{
				"type": "unocc",
				"energy": 0.00636,
				"method": "rhf"
			},
			{
				"type": "unocc",
				"energy": 0.05789,
				"method": "rhf"
			},
			{
				"type": "unocc",
				"energy": 0.08122,
				"method": "rhf"
			}
		],
		"cosmo_sigma_profile": { 
			"-0.025": 0.0,
			"-0.024": 0.0,
			"-0.023": 0.0,
			"-0.022": 0.0,
			"-0.021": 0.0,
			"-0.02": 0.0,
			"-0.019": 0.0,
			"-0.018": 0.328117058586,
			"-0.017": 0.677629423239,
			"-0.016": 1.22286209957,
			"-0.015": 0.483221431726,
			"-0.014": 0.579143273494,
			"-0.013": 1.04496640505,
			"-0.012": 0.90338421627,
			"-0.011": 0.583135508524,
			"-0.01": 0.485761087513,
			"-0.009": 0.531724792056,
			"-0.008": 2.89825377548,
			"-0.007": 5.68218609928,
			"-0.006": 12.2027110007,
			"-0.005": 21.2614526245,
			"-0.004": 24.1532049396,
			"-0.003": 21.145947435,
			"-0.002": 25.2129692129,
			"-0.001": 17.2862752403,
			"0.0": 16.3165166706,
			"0.001": 18.2832567161,
			"0.002": 15.9044460323,
			"0.003": 14.7733841945,
			"0.004": 13.7388899426,
			"0.005": 7.18430066348,
			"0.006": 4.02015604241,
			"0.007": 3.4615171546,
			"0.008": 4.43675468048,
			"0.009": 3.25214565344,
			"0.01": 3.44138650818,
			"0.011": 5.18622308399,
			"0.012": 6.9339921521,
			"0.013": 4.33033208458,
			"0.014": 2.52454767789,
			"0.015": 0.0707410128797,
			"0.016": 0.0,
			"0.017": 0.0,
			"0.018": 0.0,
			"0.019": 0.0,
			"0.02": 0.0,
			"0.021": 0.0,
			"0.022": 0.0,
			"0.023": 0.0,
			"0.024": 0.0,
			"0.025": 0.0
		}
	}
}
