{
	 "smiles": "CCCN=C=O", 
	 "Tm": 243.15, 
	 "num_atms": 13, 
	 "gaussian": { 
		 "optdone": 1, 
		 "sigma_profile": "yes", 
		 "theory": "DFT", 
		 "functional": "B3LYP", 
		 "basiset": "6-31G**", 
		 "properties": { 
			 "R2extent": 994.0305, 
			 "electric_dipole_moment_norm": 2.91296677976, 
			 "electric_quadrupole_moment_norm": 7.71804961114, 
			 "total_energy": -286.623317654, 
			 "HOMO_LUMO_gap": 0.29608, 
			 "cosmo_polarized_energy": -4.35, 
			 "cosmo_cavitation_energy": 17.29, 
			 "cosmo_dispersion_energy": -12.39, 
			 "cosmo_repulsion_energy": 1.11, 
			 "cosmo_total_nonelectrostatic_energy": 6.01, 
			 "SMD_solvation_energy": 4.93 
		},
		"coords": [
			{
				"x": -0.9624637155,
				"y": -0.527023994,
				"z": -0.8055177201,
				"element": "C" 
			},
			{
				"x": 0.4281550123,
				"y": -0.3556851101,
				"z": -1.4209965865,
				"element": "C" 
			},
			{
				"x": 1.2033454291,
				"y": 0.8364104393,
				"z": -0.8545220492,
				"element": "C" 
			},
			{
				"x": 1.4599322612,
				"y": 0.6657163768,
				"z": 0.5638459779,
				"element": "N" 
			},
			{
				"x": 1.8078641734,
				"y": 1.3187379793,
				"z": 1.5163137488,
				"element": "C" 
			},
			{
				"x": 2.1375780452,
				"y": 1.8425603731,
				"z": 2.5232154399,
				"element": "O" 
			},
			{
				"x": -1.5879244545,
				"y": 0.3548103855,
				"z": -0.9867472492,
				"element": "H" 
			},
			{
				"x": -1.476675631,
				"y": -1.3938983763,
				"z": -1.2314801421,
				"element": "H" 
			},
			{
				"x": -0.8935264671,
				"y": -0.6725227753,
				"z": 0.2766378188,
				"element": "H" 
			},
			{
				"x": 0.3472803494,
				"y": -0.2106942737,
				"z": -2.5054877948,
				"element": "H" 
			},
			{
				"x": 1.0221913467,
				"y": -1.2642942457,
				"z": -1.2672472409,
				"element": "H" 
			},
			{
				"x": 2.1617904084,
				"y": 0.9391334095,
				"z": -1.3779269246,
				"element": "H" 
			},
			{
				"x": 0.6371532423,
				"y": 1.7628498117,
				"z": -1.0171872781,
				"element": "H" 
			}
		],
		 "valence_orbital": [ 
			{
				"type": "occ",
				"energy": -0.3641,
				"method": "rhf"
			},
			{
				"type": "occ",
				"energy": -0.35719,
				"method": "rhf"
			},
			{
				"type": "occ",
				"energy": -0.34953,
				"method": "rhf"
			},
			{
				"type": "occ",
				"energy": -0.28981,
				"method": "rhf"
			},
			{
				"type": "occ",
				"energy": -0.27412,
				"method": "rhf"
			},
			{
				"type": "unocc",
				"energy": 0.02196,
				"method": "rhf"
			},
			{
				"type": "unocc",
				"energy": 0.06194,
				"method": "rhf"
			},
			{
				"type": "unocc",
				"energy": 0.09651,
				"method": "rhf"
			},
			{
				"type": "unocc",
				"energy": 0.12335,
				"method": "rhf"
			},
			{
				"type": "unocc",
				"energy": 0.13538,
				"method": "rhf"
			}
		],
		"cosmo_sigma_profile": { 
			"-0.025": 0.0,
			"-0.024": 0.0,
			"-0.023": 0.0,
			"-0.022": 0.0,
			"-0.021": 0.0,
			"-0.02": 0.0,
			"-0.019": 0.0,
			"-0.018": 0.0,
			"-0.017": 0.0,
			"-0.016": 0.0,
			"-0.015": 0.0,
			"-0.014": 0.0,
			"-0.013": 0.0,
			"-0.012": 0.0,
			"-0.011": 0.0,
			"-0.01": 0.0,
			"-0.009": 0.0,
			"-0.008": 0.0,
			"-0.007": 0.0,
			"-0.006": 2.67980847527,
			"-0.005": 8.58441020817,
			"-0.004": 11.1921013626,
			"-0.003": 18.0910991448,
			"-0.002": 14.2476213872,
			"-0.001": 17.0392559233,
			"0.0": 15.7445235381,
			"0.001": 14.1294010932,
			"0.002": 6.7474064308,
			"0.003": 3.98256714213,
			"0.004": 3.95492270827,
			"0.005": 2.86727326562,
			"0.006": 2.71370551265,
			"0.007": 3.57247137005,
			"0.008": 6.3732208556,
			"0.009": 4.75174758218,
			"0.01": 0.0,
			"0.011": 0.0,
			"0.012": 0.0,
			"0.013": 0.0,
			"0.014": 0.0,
			"0.015": 0.0,
			"0.016": 0.0,
			"0.017": 0.0,
			"0.018": 0.0,
			"0.019": 0.0,
			"0.02": 0.0,
			"0.021": 0.0,
			"0.022": 0.0,
			"0.023": 0.0,
			"0.024": 0.0,
			"0.025": 0.0
		}
	}
}
