{
	 "smiles": "NC1=CC2=C(NC(CCN3CCOCC3)=N2)C=C1", 
	 "Tm": 475.15, 
	 "num_atms": 36, 
	 "gaussian": { 
		 "optdone": 1, 
		 "sigma_profile": "yes", 
		 "theory": "DFT", 
		 "functional": "B3LYP", 
		 "basiset": "6-31G**", 
		 "properties": { 
			 "R2extent": 7229.1394, 
			 "electric_dipole_moment_norm": 2.51772829352, 
			 "electric_quadrupole_moment_norm": 20.9671904074, 
			 "total_energy": -800.450771666, 
			 "HOMO_LUMO_gap": 0.17922, 
			 "cosmo_polarized_energy": -19.21, 
			 "cosmo_cavitation_energy": 37.19, 
			 "cosmo_dispersion_energy": -27.24, 
			 "cosmo_repulsion_energy": 2.1, 
			 "cosmo_total_nonelectrostatic_energy": 12.05, 
			 "SMD_solvation_energy": 3.0 
		},
		"coords": [
			{
				"x": 2.8233173434,
				"y": -6.3560548511,
				"z": -1.1142762756,
				"element": "N" 
			},
			{
				"x": 2.2672341934,
				"y": -5.0911125296,
				"z": -0.8422845644,
				"element": "C" 
			},
			{
				"x": 1.002151835,
				"y": -4.7484707029,
				"z": -1.3286479702,
				"element": "C" 
			},
			{
				"x": 0.4618312546,
				"y": -3.5053905396,
				"z": -0.9785209138,
				"element": "C" 
			},
			{
				"x": 1.1939526332,
				"y": -2.6170132386,
				"z": -0.1531183974,
				"element": "C" 
			},
			{
				"x": 0.376786076,
				"y": -1.5041322219,
				"z": -0.0278201335,
				"element": "N" 
			},
			{
				"x": -0.7701532108,
				"y": -1.7683723495,
				"z": -0.7373702721,
				"element": "C" 
			},
			{
				"x": -1.8805201388,
				"y": -0.7637562398,
				"z": -0.8332000609,
				"element": "C" 
			},
			{
				"x": -2.1353600729,
				"y": 0.0334699044,
				"z": 0.4576534693,
				"element": "C" 
			},
			{
				"x": -0.9938008127,
				"y": 0.8688091219,
				"z": 0.8675497879,
				"element": "N" 
			},
			{
				"x": -1.1157393206,
				"y": 1.3911292163,
				"z": 2.249988682,
				"element": "C" 
			},
			{
				"x": -1.5880811325,
				"y": 2.8429712947,
				"z": 2.2905531932,
				"element": "C" 
			},
			{
				"x": -0.6804172954,
				"y": 3.7116761011,
				"z": 1.614132091,
				"element": "O" 
			},
			{
				"x": 0.0558280243,
				"y": 3.081969799,
				"z": 0.56884116,
				"element": "C" 
			},
			{
				"x": -0.7258726086,
				"y": 1.9557606873,
				"z": -0.0969283475,
				"element": "C" 
			},
			{
				"x": -0.7614542068,
				"y": -2.9463181783,
				"z": -1.3247749105,
				"element": "N" 
			},
			{
				"x": 2.4569944875,
				"y": -2.9456323843,
				"z": 0.3380433662,
				"element": "C" 
			},
			{
				"x": 2.9783243062,
				"y": -4.1866069406,
				"z": -0.0142422394,
				"element": "C" 
			},
			{
				"x": 2.4523670647,
				"y": -6.7905816796,
				"z": -1.9494996674,
				"element": "H" 
			},
			{
				"x": 3.8350987713,
				"y": -6.3619964691,
				"z": -1.1333611353,
				"element": "H" 
			},
			{
				"x": 0.4401392698,
				"y": -5.4287857713,
				"z": -1.9621890726,
				"element": "H" 
			},
			{
				"x": 0.4706931986,
				"y": -0.669401323,
				"z": 0.5431454894,
				"element": "H" 
			},
			{
				"x": -1.6865526443,
				"y": -0.07359682,
				"z": -1.665385302,
				"element": "H" 
			},
			{
				"x": -2.7905928343,
				"y": -1.3077270064,
				"z": -1.1007404715,
				"element": "H" 
			},
			{
				"x": -3.0481261353,
				"y": 0.6415250734,
				"z": 0.3162103078,
				"element": "H" 
			},
			{
				"x": -2.3386338083,
				"y": -0.6727210897,
				"z": 1.2696053773,
				"element": "H" 
			},
			{
				"x": -0.1417014838,
				"y": 1.3253433505,
				"z": 2.7511721242,
				"element": "H" 
			},
			{
				"x": -1.8064571743,
				"y": 0.7580464326,
				"z": 2.8150260609,
				"element": "H" 
			},
			{
				"x": -1.6566029716,
				"y": 3.1950591175,
				"z": 3.3258166245,
				"element": "H" 
			},
			{
				"x": -2.5930005385,
				"y": 2.9248680321,
				"z": 1.8462851606,
				"element": "H" 
			},
			{
				"x": 1.0111040035,
				"y": 2.6895024788,
				"z": 0.9526488638,
				"element": "H" 
			},
			{
				"x": 0.2897678149,
				"y": 3.8589411281,
				"z": -0.16571063,
				"element": "H" 
			},
			{
				"x": -1.6644812015,
				"y": 2.3730428983,
				"z": -0.5031336425,
				"element": "H" 
			},
			{
				"x": -0.1519563202,
				"y": 1.5666389949,
				"z": -0.9460640732,
				"element": "H" 
			},
			{
				"x": 3.0230084159,
				"y": -2.2681275613,
				"z": 0.9707721521,
				"element": "H" 
			},
			{
				"x": 3.9563052186,
				"y": -4.4793557341,
				"z": 0.3595241696,
				"element": "H" 
			}
		],
		 "valence_orbital": [ 
			{
				"type": "occ",
				"energy": -0.25751,
				"method": "rhf"
			},
			{
				"type": "occ",
				"energy": -0.25205,
				"method": "rhf"
			},
			{
				"type": "occ",
				"energy": -0.23407,
				"method": "rhf"
			},
			{
				"type": "occ",
				"energy": -0.20546,
				"method": "rhf"
			},
			{
				"type": "occ",
				"energy": -0.17832,
				"method": "rhf"
			},
			{
				"type": "unocc",
				"energy": 0.0009,
				"method": "rhf"
			},
			{
				"type": "unocc",
				"energy": 0.04863,
				"method": "rhf"
			},
			{
				"type": "unocc",
				"energy": 0.06162,
				"method": "rhf"
			},
			{
				"type": "unocc",
				"energy": 0.07219,
				"method": "rhf"
			},
			{
				"type": "unocc",
				"energy": 0.08964,
				"method": "rhf"
			}
		],
		"cosmo_sigma_profile": { 
			"-0.025": 0.0,
			"-0.024": 0.0,
			"-0.023": 0.0,
			"-0.022": 0.0,
			"-0.021": 0.0,
			"-0.02": 0.0,
			"-0.019": 0.0,
			"-0.018": 0.0,
			"-0.017": 0.0,
			"-0.016": 0.0,
			"-0.015": 0.0,
			"-0.014": 0.0,
			"-0.013": 0.0,
			"-0.012": 0.897249359757,
			"-0.011": 2.77645496466,
			"-0.01": 2.83787411203,
			"-0.009": 3.64948926224,
			"-0.008": 3.85349788035,
			"-0.007": 4.7117658811,
			"-0.006": 7.58312507774,
			"-0.005": 22.2907801012,
			"-0.004": 34.3538196229,
			"-0.003": 46.1684803951,
			"-0.002": 29.3489563218,
			"-0.001": 18.3713254737,
			"0.0": 11.7902045756,
			"0.001": 7.38763748018,
			"0.002": 8.36551072007,
			"0.003": 10.616512581,
			"0.004": 10.1273912963,
			"0.005": 10.6089956039,
			"0.006": 13.1529787755,
			"0.007": 11.9080350328,
			"0.008": 5.66545528554,
			"0.009": 3.66702855465,
			"0.01": 2.59144117897,
			"0.011": 3.48718461424,
			"0.012": 3.19228159591,
			"0.013": 3.57182415352,
			"0.014": 2.69539781322,
			"0.015": 2.27714898154,
			"0.016": 1.3208003892,
			"0.017": 0.6686258776,
			"0.018": 1.19665798018,
			"0.019": 0.39560502554,
			"0.02": 0.0,
			"0.021": 0.0,
			"0.022": 0.0,
			"0.023": 0.0,
			"0.024": 0.0,
			"0.025": 0.0
		}
	}
}
