{
	 "smiles": "CSC1=NC(N)=C(S1)C(=O)C1=CC=C(Br)C=C1", 
	 "Tm": 437.15, 
	 "num_atms": 26, 
	 "gaussian": { 
		 "optdone": 1, 
		 "sigma_profile": "yes", 
		 "theory": "DFT", 
		 "functional": "B3LYP", 
		 "basiset": "6-31G**", 
		 "properties": { 
			 "R2extent": 10910.8641, 
			 "electric_dipole_moment_norm": 4.94683562189, 
			 "electric_quadrupole_moment_norm": 13.0942976242, 
			 "total_energy": -3977.10001861, 
			 "HOMO_LUMO_gap": 0.14337, 
			 "cosmo_polarized_energy": -15.01, 
			 "cosmo_cavitation_energy": 36.35, 
			 "cosmo_dispersion_energy": -27.63, 
			 "cosmo_repulsion_energy": 2.07, 
			 "cosmo_total_nonelectrostatic_energy": 10.79, 
			 "SMD_solvation_energy": 4.04 
		},
		"coords": [
			{
				"x": 0.432354924,
				"y": -2.374235049,
				"z": -5.279061169,
				"element": "C" 
			},
			{
				"x": 1.3511108314,
				"y": -2.9437028423,
				"z": -3.8075980665,
				"element": "S" 
			},
			{
				"x": 0.6915549304,
				"y": -1.8616971926,
				"z": -2.5902257439,
				"element": "C" 
			},
			{
				"x": -0.2065987437,
				"y": -0.942992251,
				"z": -2.8431815821,
				"element": "N" 
			},
			{
				"x": -0.5439216678,
				"y": -0.2601192839,
				"z": -1.6973215574,
				"element": "C" 
			},
			{
				"x": -1.4765610532,
				"y": 0.7322437074,
				"z": -1.8518665782,
				"element": "N" 
			},
			{
				"x": 0.0996089548,
				"y": -0.6759633727,
				"z": -0.5292385783,
				"element": "C" 
			},
			{
				"x": 1.2334045013,
				"y": -1.9721204286,
				"z": -0.9363085942,
				"element": "S" 
			},
			{
				"x": 0.153493352,
				"y": -0.1950862707,
				"z": 0.8419972251,
				"element": "C" 
			},
			{
				"x": 1.0717185193,
				"y": -0.5468035138,
				"z": 1.5884017824,
				"element": "O" 
			},
			{
				"x": -0.9058339627,
				"y": 0.7258340011,
				"z": 1.3851600026,
				"element": "C" 
			},
			{
				"x": -0.5136315554,
				"y": 1.7035992001,
				"z": 2.3119279843,
				"element": "C" 
			},
			{
				"x": -1.4531787423,
				"y": 2.5391021862,
				"z": 2.9084246957,
				"element": "C" 
			},
			{
				"x": -2.8040977006,
				"y": 2.3721447688,
				"z": 2.597130677,
				"element": "C" 
			},
			{
				"x": -4.1020069086,
				"y": 3.5085582166,
				"z": 3.41584024,
				"element": "Br" 
			},
			{
				"x": -3.2238382202,
				"y": 1.3865167263,
				"z": 1.7056355254,
				"element": "C" 
			},
			{
				"x": -2.269439861,
				"y": 0.5677627894,
				"z": 1.0993505207,
				"element": "C" 
			},
			{
				"x": 0.6586506108,
				"y": -1.3285492738,
				"z": -5.4876433379,
				"element": "H" 
			},
			{
				"x": 0.774106564,
				"y": -3.005751875,
				"z": -6.1013651496,
				"element": "H" 
			},
			{
				"x": -0.6400878972,
				"y": -2.4980394316,
				"z": -5.1284109,
				"element": "H" 
			},
			{
				"x": -1.5993822018,
				"y": 1.0431647157,
				"z": -2.8043628657,
				"element": "H" 
			},
			{
				"x": -1.548626611,
				"y": 1.4401462246,
				"z": -1.1377451294,
				"element": "H" 
			},
			{
				"x": 0.5380963959,
				"y": 1.7908074399,
				"z": 2.5636356417,
				"element": "H" 
			},
			{
				"x": -1.1469548862,
				"y": 3.3042022128,
				"z": 3.6126831675,
				"element": "H" 
			},
			{
				"x": -4.27884445,
				"y": 1.2544776953,
				"z": 1.4944177831,
				"element": "H" 
			},
			{
				"x": -2.5942951222,
				"y": -0.2083990993,
				"z": 0.4139240067,
				"element": "H" 
			}
		],
		 "valence_orbital": [ 
			{
				"type": "occ",
				"energy": -0.27462,
				"method": "rhf"
			},
			{
				"type": "occ",
				"energy": -0.2612,
				"method": "rhf"
			},
			{
				"type": "occ",
				"energy": -0.25618,
				"method": "rhf"
			},
			{
				"type": "occ",
				"energy": -0.24311,
				"method": "rhf"
			},
			{
				"type": "occ",
				"energy": -0.21153,
				"method": "rhf"
			},
			{
				"type": "unocc",
				"energy": -0.06816,
				"method": "rhf"
			},
			{
				"type": "unocc",
				"energy": -0.02743,
				"method": "rhf"
			},
			{
				"type": "unocc",
				"energy": -0.02416,
				"method": "rhf"
			},
			{
				"type": "unocc",
				"energy": -0.0016,
				"method": "rhf"
			},
			{
				"type": "unocc",
				"energy": 0.00123,
				"method": "rhf"
			}
		],
		"cosmo_sigma_profile": { 
			"-0.025": 0.0,
			"-0.024": 0.0,
			"-0.023": 0.0,
			"-0.022": 0.0,
			"-0.021": 0.0,
			"-0.02": 0.0,
			"-0.019": 0.0,
			"-0.018": 0.0,
			"-0.017": 0.0,
			"-0.016": 0.0,
			"-0.015": 0.0326473429083,
			"-0.014": 0.842362530567,
			"-0.013": 1.68077222027,
			"-0.012": 1.83902352179,
			"-0.011": 1.7549421404,
			"-0.01": 2.03496312734,
			"-0.009": 2.72130181566,
			"-0.008": 4.58139289899,
			"-0.007": 10.1470070634,
			"-0.006": 13.1277217045,
			"-0.005": 14.6504563115,
			"-0.004": 16.1939981709,
			"-0.003": 18.4099492287,
			"-0.002": 20.0656091963,
			"-0.001": 20.4236045595,
			"0.0": 26.0828295398,
			"0.001": 29.0588920928,
			"0.002": 31.4215798702,
			"0.003": 23.2325065495,
			"0.004": 21.7992452218,
			"0.005": 10.0258077326,
			"0.006": 6.6977438711,
			"0.007": 4.69448513397,
			"0.008": 3.29512240221,
			"0.009": 2.81538352116,
			"0.01": 1.48860296421,
			"0.011": 2.36454842199,
			"0.012": 3.77133255468,
			"0.013": 3.38405753492,
			"0.014": 0.320572092307,
			"0.015": 0.0,
			"0.016": 0.0,
			"0.017": 0.0,
			"0.018": 0.0,
			"0.019": 0.0,
			"0.02": 0.0,
			"0.021": 0.0,
			"0.022": 0.0,
			"0.023": 0.0,
			"0.024": 0.0,
			"0.025": 0.0
		}
	}
}
