{
	 "smiles": "CC1SC2=CC=C(Cl)C=C2C2=C1C=NC(N)=N2", 
	 "Tm": 455.15, 
	 "num_atms": 27, 
	 "gaussian": { 
		 "optdone": 1, 
		 "sigma_profile": "yes", 
		 "theory": "DFT", 
		 "functional": "B3LYP", 
		 "basiset": "6-31G**", 
		 "properties": { 
			 "R2extent": 5109.3247, 
			 "electric_dipole_moment_norm": 1.62252563, 
			 "electric_quadrupole_moment_norm": 11.8301203912, 
			 "total_energy": -1485.96958701, 
			 "HOMO_LUMO_gap": 0.15418, 
			 "cosmo_polarized_energy": -11.33, 
			 "cosmo_cavitation_energy": 33.72, 
			 "cosmo_dispersion_energy": -25.17, 
			 "cosmo_repulsion_energy": 1.91, 
			 "cosmo_total_nonelectrostatic_energy": 10.46, 
			 "SMD_solvation_energy": 2.09 
		},
		"coords": [
			{
				"x": 1.051136419,
				"y": 0.480914346,
				"z": 2.7806964577,
				"element": "C" 
			},
			{
				"x": -0.2762176146,
				"y": 1.0299003921,
				"z": 2.2352361362,
				"element": "C" 
			},
			{
				"x": -1.5688691689,
				"y": -0.2841961648,
				"z": 2.1181074557,
				"element": "S" 
			},
			{
				"x": -1.0186221719,
				"y": -1.0982304064,
				"z": 0.6371308835,
				"element": "C" 
			},
			{
				"x": -1.3162456721,
				"y": -2.4591066548,
				"z": 0.482703454,
				"element": "C" 
			},
			{
				"x": -0.9688641693,
				"y": -3.1407192263,
				"z": -0.679348857,
				"element": "C" 
			},
			{
				"x": -0.3044983863,
				"y": -2.4524975028,
				"z": -1.6968879244,
				"element": "C" 
			},
			{
				"x": 0.1568910831,
				"y": -3.3102633262,
				"z": -3.1610112048,
				"element": "Cl" 
			},
			{
				"x": -0.0032144189,
				"y": -1.1041494425,
				"z": -1.5691567954,
				"element": "C" 
			},
			{
				"x": -0.3620551248,
				"y": -0.4063071267,
				"z": -0.4047208187,
				"element": "C" 
			},
			{
				"x": -0.0891644869,
				"y": 1.0461235312,
				"z": -0.320354728,
				"element": "C" 
			},
			{
				"x": -0.1195741524,
				"y": 1.7311308007,
				"z": 0.9088999046,
				"element": "C" 
			},
			{
				"x": 0.0704732423,
				"y": 3.1137746421,
				"z": 0.8315640147,
				"element": "C" 
			},
			{
				"x": 0.3061825198,
				"y": 3.7747361379,
				"z": -0.2983363825,
				"element": "N" 
			},
			{
				"x": 0.3677352424,
				"y": 3.0092830616,
				"z": -1.4087524499,
				"element": "C" 
			},
			{
				"x": 0.6847405068,
				"y": 3.6451849008,
				"z": -2.5743350767,
				"element": "N" 
			},
			{
				"x": 0.1609994129,
				"y": 1.6851933397,
				"z": -1.4725009733,
				"element": "N" 
			},
			{
				"x": 1.7763901441,
				"y": 1.2958294869,
				"z": 2.8846470942,
				"element": "H" 
			},
			{
				"x": 0.9062244428,
				"y": 0.0133654808,
				"z": 3.7585440998,
				"element": "H" 
			},
			{
				"x": 1.474786884,
				"y": -0.2636194998,
				"z": 2.1008095811,
				"element": "H" 
			},
			{
				"x": -0.6984617674,
				"y": 1.7338259205,
				"z": 2.9607007137,
				"element": "H" 
			},
			{
				"x": -1.8174280198,
				"y": -2.9903820859,
				"z": 1.2859081325,
				"element": "H" 
			},
			{
				"x": -1.1973134435,
				"y": -4.1948871517,
				"z": -0.7906144839,
				"element": "H" 
			},
			{
				"x": 0.4954017802,
				"y": -0.5627457518,
				"z": -2.3634318321,
				"element": "H" 
			},
			{
				"x": 0.0270007408,
				"y": 3.7176579635,
				"z": 1.7390808565,
				"element": "H" 
			},
			{
				"x": 0.62597521,
				"y": 4.6508216961,
				"z": -2.5784617432,
				"element": "H" 
			},
			{
				"x": 0.5148909685,
				"y": 3.1479626399,
				"z": -3.4337155142,
				"element": "H" 
			}
		],
		 "valence_orbital": [ 
			{
				"type": "occ",
				"energy": -0.27703,
				"method": "rhf"
			},
			{
				"type": "occ",
				"energy": -0.26114,
				"method": "rhf"
			},
			{
				"type": "occ",
				"energy": -0.25137,
				"method": "rhf"
			},
			{
				"type": "occ",
				"energy": -0.22717,
				"method": "rhf"
			},
			{
				"type": "occ",
				"energy": -0.21785,
				"method": "rhf"
			},
			{
				"type": "unocc",
				"energy": -0.06367,
				"method": "rhf"
			},
			{
				"type": "unocc",
				"energy": -0.02227,
				"method": "rhf"
			},
			{
				"type": "unocc",
				"energy": -0.01048,
				"method": "rhf"
			},
			{
				"type": "unocc",
				"energy": 0.02037,
				"method": "rhf"
			},
			{
				"type": "unocc",
				"energy": 0.0259,
				"method": "rhf"
			}
		],
		"cosmo_sigma_profile": { 
			"-0.025": 0.0,
			"-0.024": 0.0,
			"-0.023": 0.0,
			"-0.022": 0.0,
			"-0.021": 0.0,
			"-0.02": 0.0,
			"-0.019": 0.0,
			"-0.018": 0.0,
			"-0.017": 0.0,
			"-0.016": 0.0,
			"-0.015": 0.0,
			"-0.014": 0.651216061915,
			"-0.013": 1.90554664666,
			"-0.012": 2.2245741506,
			"-0.011": 1.80354399056,
			"-0.01": 1.97963689733,
			"-0.009": 2.37519860073,
			"-0.008": 4.64944188122,
			"-0.007": 11.5468873885,
			"-0.006": 10.0562135761,
			"-0.005": 9.45939694323,
			"-0.004": 13.0817548929,
			"-0.003": 17.2044590911,
			"-0.002": 15.3890752451,
			"-0.001": 20.9355676247,
			"0.0": 26.4875083047,
			"0.001": 26.4124101684,
			"0.002": 28.284951666,
			"0.003": 21.5561121751,
			"0.004": 18.5614665761,
			"0.005": 13.6661277492,
			"0.006": 7.06149222289,
			"0.007": 5.58768822832,
			"0.008": 4.61546743381,
			"0.009": 2.06025124198,
			"0.01": 1.75257937542,
			"0.011": 1.57523139473,
			"0.012": 0.604224290053,
			"0.013": 0.954869690508,
			"0.014": 0.690966145724,
			"0.015": 0.554651251173,
			"0.016": 0.0228930121131,
			"0.017": 0.0,
			"0.018": 0.0,
			"0.019": 0.0,
			"0.02": 0.0,
			"0.021": 0.0,
			"0.022": 0.0,
			"0.023": 0.0,
			"0.024": 0.0,
			"0.025": 0.0
		}
	}
}
