{
	 "smiles": "CN1C(=O)C(C2=NNC(=O)C2=C/NC2=CC=CC=C2)=C(O)C2=CC=CC=C12", 
	 "Tm": 545.15, 
	 "num_atms": 43, 
	 "gaussian": { 
		 "optdone": 1, 
		 "sigma_profile": "yes", 
		 "theory": "DFT", 
		 "functional": "B3LYP", 
		 "basiset": "6-31G**", 
		 "properties": { 
			 "R2extent": 13051.9239, 
			 "electric_dipole_moment_norm": 3.12532460074, 
			 "electric_quadrupole_moment_norm": 15.0206078399, 
			 "total_energy": -1216.48677471, 
			 "HOMO_LUMO_gap": 0.13423, 
			 "cosmo_polarized_energy": -15.86, 
			 "cosmo_cavitation_energy": 46.22, 
			 "cosmo_dispersion_energy": -34.33, 
			 "cosmo_repulsion_energy": 2.48, 
			 "cosmo_total_nonelectrostatic_energy": 14.38, 
			 "SMD_solvation_energy": 8.2 
		},
		"coords": [
			{
				"x": -0.0161923889,
				"y": 3.4140232951,
				"z": 0.4551672544,
				"element": "C" 
			},
			{
				"x": 0.7950671737,
				"y": 2.5153072661,
				"z": -0.3661124131,
				"element": "N" 
			},
			{
				"x": 0.2922708146,
				"y": 1.2175977008,
				"z": -0.5840537883,
				"element": "C" 
			},
			{
				"x": -0.8008840854,
				"y": 0.9184902722,
				"z": -0.084354426,
				"element": "O" 
			},
			{
				"x": 1.0911904158,
				"y": 0.3070567135,
				"z": -1.3963675782,
				"element": "C" 
			},
			{
				"x": 0.663421527,
				"y": -1.0845952884,
				"z": -1.6418712933,
				"element": "C" 
			},
			{
				"x": 1.3658217156,
				"y": -1.7693179481,
				"z": -2.5412244318,
				"element": "N" 
			},
			{
				"x": 0.8733049762,
				"y": -3.0467360985,
				"z": -2.5977287668,
				"element": "N" 
			},
			{
				"x": -0.1801526395,
				"y": -3.2525450579,
				"z": -1.7444754204,
				"element": "C" 
			},
			{
				"x": -0.8111607906,
				"y": -4.3154677851,
				"z": -1.5952055577,
				"element": "O" 
			},
			{
				"x": -0.3542378287,
				"y": -1.9591604461,
				"z": -1.0797989861,
				"element": "C" 
			},
			{
				"x": -1.3320473653,
				"y": -1.8087593426,
				"z": -0.1085555904,
				"element": "C" 
			},
			{
				"x": -2.1263633457,
				"y": -2.8302685624,
				"z": 0.2307500491,
				"element": "N" 
			},
			{
				"x": -3.1714626009,
				"y": -2.8146815547,
				"z": 1.1734621043,
				"element": "C" 
			},
			{
				"x": -3.7471399596,
				"y": -4.0439675819,
				"z": 1.5274458123,
				"element": "C" 
			},
			{
				"x": -4.7849510793,
				"y": -4.0892329598,
				"z": 2.454992088,
				"element": "C" 
			},
			{
				"x": -5.2595230796,
				"y": -2.9147337582,
				"z": 3.0418790374,
				"element": "C" 
			},
			{
				"x": -4.6879217253,
				"y": -1.6917791339,
				"z": 2.6834982305,
				"element": "C" 
			},
			{
				"x": -3.6533486676,
				"y": -1.6309070849,
				"z": 1.7520295836,
				"element": "C" 
			},
			{
				"x": 2.2771305948,
				"y": 0.7725271861,
				"z": -1.9709394485,
				"element": "C" 
			},
			{
				"x": 3.0434375314,
				"y": 0.041146111,
				"z": -2.7699961927,
				"element": "O" 
			},
			{
				"x": 2.7587078123,
				"y": 2.1116607865,
				"z": -1.7152407429,
				"element": "C" 
			},
			{
				"x": 3.9713000041,
				"y": 2.5659215542,
				"z": -2.2672469467,
				"element": "C" 
			},
			{
				"x": 4.4292160011,
				"y": 3.8481027027,
				"z": -2.0134757692,
				"element": "C" 
			},
			{
				"x": 3.6691888685,
				"y": 4.6992990668,
				"z": -1.1987984499,
				"element": "C" 
			},
			{
				"x": 2.4682818509,
				"y": 4.2754241801,
				"z": -0.6458645739,
				"element": "C" 
			},
			{
				"x": 1.993047636,
				"y": 2.971668018,
				"z": -0.8961641394,
				"element": "C" 
			},
			{
				"x": -0.3006063232,
				"y": 4.3035966556,
				"z": -0.1153709855,
				"element": "H" 
			},
			{
				"x": -0.9087176391,
				"y": 2.8682044884,
				"z": 0.7482407696,
				"element": "H" 
			},
			{
				"x": 0.5362814802,
				"y": 3.7226700989,
				"z": 1.3482765867,
				"element": "H" 
			},
			{
				"x": 1.2683907283,
				"y": -3.7144796645,
				"z": -3.2402055175,
				"element": "H" 
			},
			{
				"x": -1.4571515371,
				"y": -0.8542268169,
				"z": 0.3822303754,
				"element": "H" 
			},
			{
				"x": -1.9277953401,
				"y": -3.7036688456,
				"z": -0.280392157,
				"element": "H" 
			},
			{
				"x": -3.3724247229,
				"y": -4.9587339211,
				"z": 1.0763444359,
				"element": "H" 
			},
			{
				"x": -5.2209236177,
				"y": -5.047886269,
				"z": 2.7201510621,
				"element": "H" 
			},
			{
				"x": -6.0677410504,
				"y": -2.9505277297,
				"z": 3.7656109178,
				"element": "H" 
			},
			{
				"x": -5.055251171,
				"y": -0.7701753672,
				"z": 3.1255508129,
				"element": "H" 
			},
			{
				"x": -3.2402974754,
				"y": -0.6683445968,
				"z": 1.4707375582,
				"element": "H" 
			},
			{
				"x": 2.5808564233,
				"y": -0.8524888306,
				"z": -2.8927605529,
				"element": "H" 
			},
			{
				"x": 4.5334027158,
				"y": 1.8835376462,
				"z": -2.8936609741,
				"element": "H" 
			},
			{
				"x": 5.365779601,
				"y": 4.1905095034,
				"z": -2.4415728195,
				"element": "H" 
			},
			{
				"x": 4.0175729622,
				"y": 5.7073507922,
				"z": -0.9929893587,
				"element": "H" 
			},
			{
				"x": 1.9024236004,
				"y": 4.9545906057,
				"z": -0.0218397981,
				"element": "H" 
			}
		],
		 "valence_orbital": [ 
			{
				"type": "occ",
				"energy": -0.25662,
				"method": "rhf"
			},
			{
				"type": "occ",
				"energy": -0.24976,
				"method": "rhf"
			},
			{
				"type": "occ",
				"energy": -0.22537,
				"method": "rhf"
			},
			{
				"type": "occ",
				"energy": -0.21326,
				"method": "rhf"
			},
			{
				"type": "occ",
				"energy": -0.19932,
				"method": "rhf"
			},
			{
				"type": "unocc",
				"energy": -0.06509,
				"method": "rhf"
			},
			{
				"type": "unocc",
				"energy": -0.04203,
				"method": "rhf"
			},
			{
				"type": "unocc",
				"energy": -0.00953,
				"method": "rhf"
			},
			{
				"type": "unocc",
				"energy": -0.00786,
				"method": "rhf"
			},
			{
				"type": "unocc",
				"energy": 0.01647,
				"method": "rhf"
			}
		],
		"cosmo_sigma_profile": { 
			"-0.025": 0.0,
			"-0.024": 0.0,
			"-0.023": 0.0,
			"-0.022": 0.0,
			"-0.021": 0.0,
			"-0.02": 0.0,
			"-0.019": 0.0,
			"-0.018": 0.0,
			"-0.017": 0.140026426019,
			"-0.016": 1.20525366554,
			"-0.015": 1.59138812222,
			"-0.014": 0.817402206138,
			"-0.013": 0.709798180509,
			"-0.012": 0.578080001647,
			"-0.011": 0.798360195293,
			"-0.01": 1.66935201587,
			"-0.009": 1.7546357763,
			"-0.008": 1.9153274245,
			"-0.007": 5.91697978476,
			"-0.006": 20.7805559009,
			"-0.005": 26.6031235065,
			"-0.004": 27.541111003,
			"-0.003": 23.8619943921,
			"-0.002": 24.4786617681,
			"-0.001": 24.9149161536,
			"0.0": 37.1393570389,
			"0.001": 34.9100454672,
			"0.002": 31.016319988,
			"0.003": 27.8832662539,
			"0.004": 26.1997096052,
			"0.005": 17.3728863034,
			"0.006": 6.17458708107,
			"0.007": 3.58652368612,
			"0.008": 5.81729095132,
			"0.009": 3.99013536468,
			"0.01": 1.59127336337,
			"0.011": 2.42380756343,
			"0.012": 2.9656759976,
			"0.013": 2.628507182,
			"0.014": 2.41408359258,
			"0.015": 1.05115563126,
			"0.016": 0.0,
			"0.017": 0.0,
			"0.018": 0.0,
			"0.019": 0.0,
			"0.02": 0.0,
			"0.021": 0.0,
			"0.022": 0.0,
			"0.023": 0.0,
			"0.024": 0.0,
			"0.025": 0.0
		}
	}
}
