{
	 "smiles": "NC1=CC=C(CN2C=NC3=C2C=CC=C3)C=C1", 
	 "Tm": 451.15, 
	 "num_atms": 30, 
	 "gaussian": { 
		 "optdone": 1, 
		 "sigma_profile": "yes", 
		 "theory": "DFT", 
		 "functional": "B3LYP", 
		 "basiset": "6-31G**", 
		 "properties": { 
			 "R2extent": 5040.0147, 
			 "electric_dipole_moment_norm": 4.3326973423, 
			 "electric_quadrupole_moment_norm": 18.6622641531, 
			 "total_energy": -705.591300313, 
			 "HOMO_LUMO_gap": 0.19729, 
			 "cosmo_polarized_energy": -16.43, 
			 "cosmo_cavitation_energy": 33.93, 
			 "cosmo_dispersion_energy": -24.27, 
			 "cosmo_repulsion_energy": 1.86, 
			 "cosmo_total_nonelectrostatic_energy": 11.53, 
			 "SMD_solvation_energy": 3.67 
		},
		"coords": [
			{
				"x": 1.454896774,
				"y": 1.84439275,
				"z": 5.0926193478,
				"element": "N" 
			},
			{
				"x": 1.1686933462,
				"y": 1.6363177763,
				"z": 3.7443186505,
				"element": "C" 
			},
			{
				"x": 0.1218752954,
				"y": 0.7788578442,
				"z": 3.355886365,
				"element": "C" 
			},
			{
				"x": -0.2005534161,
				"y": 0.6149449919,
				"z": 2.0143983451,
				"element": "C" 
			},
			{
				"x": 0.5066927635,
				"y": 1.2914734444,
				"z": 1.0101841383,
				"element": "C" 
			},
			{
				"x": 0.147370783,
				"y": 1.1297761569,
				"z": -0.4539016622,
				"element": "C" 
			},
			{
				"x": 0.129599358,
				"y": -0.2564130124,
				"z": -0.9201525391,
				"element": "N" 
			},
			{
				"x": 1.2292077145,
				"y": -1.0461842822,
				"z": -1.176575806,
				"element": "C" 
			},
			{
				"x": 0.9429996351,
				"y": -2.2694976172,
				"z": -1.5442566503,
				"element": "N" 
			},
			{
				"x": -0.4442807823,
				"y": -2.3184056274,
				"z": -1.5282650763,
				"element": "C" 
			},
			{
				"x": -0.9774423333,
				"y": -1.0649904429,
				"z": -1.134813146,
				"element": "C" 
			},
			{
				"x": -2.353506538,
				"y": -0.8374586284,
				"z": -1.0339744006,
				"element": "C" 
			},
			{
				"x": -3.1920504859,
				"y": -1.9057736274,
				"z": -1.3428745645,
				"element": "C" 
			},
			{
				"x": -2.6776398112,
				"y": -3.1577060157,
				"z": -1.7375006343,
				"element": "C" 
			},
			{
				"x": -1.3077033157,
				"y": -3.3781048629,
				"z": -1.8348223188,
				"element": "C" 
			},
			{
				"x": 1.5481821087,
				"y": 2.1393187646,
				"z": 1.3993957978,
				"element": "C" 
			},
			{
				"x": 1.8782309902,
				"y": 2.3162481382,
				"z": 2.7412203694,
				"element": "C" 
			},
			{
				"x": 1.1749964137,
				"y": 1.0993291264,
				"z": 5.7152429229,
				"element": "H" 
			},
			{
				"x": 2.3886172855,
				"y": 2.1752494335,
				"z": 5.2920976958,
				"element": "H" 
			},
			{
				"x": -0.4408641336,
				"y": 0.2437021515,
				"z": 4.1168638403,
				"element": "H" 
			},
			{
				"x": -1.007905534,
				"y": -0.0603617643,
				"z": 1.7433801952,
				"element": "H" 
			},
			{
				"x": 0.8556397216,
				"y": 1.6915826216,
				"z": -1.0721109593,
				"element": "H" 
			},
			{
				"x": -0.8440816667,
				"y": 1.5435600504,
				"z": -0.6663261854,
				"element": "H" 
			},
			{
				"x": 2.2305937289,
				"y": -0.6467211741,
				"z": -1.0713110874,
				"element": "H" 
			},
			{
				"x": -2.7602797115,
				"y": 0.1226349076,
				"z": -0.7302300773,
				"element": "H" 
			},
			{
				"x": -4.2677026575,
				"y": -1.7703058571,
				"z": -1.2772842155,
				"element": "H" 
			},
			{
				"x": -3.3686130923,
				"y": -3.9630936996,
				"z": -1.9686152668,
				"element": "H" 
			},
			{
				"x": -0.9036268673,
				"y": -4.338664335,
				"z": -2.138112585,
				"element": "H" 
			},
			{
				"x": 2.117827023,
				"y": 2.6735147529,
				"z": 0.6420134598,
				"element": "H" 
			},
			{
				"x": 2.691927404,
				"y": 2.9827780362,
				"z": 3.016306047,
				"element": "H" 
			}
		],
		 "valence_orbital": [ 
			{
				"type": "occ",
				"energy": -0.26151,
				"method": "rhf"
			},
			{
				"type": "occ",
				"energy": -0.25403,
				"method": "rhf"
			},
			{
				"type": "occ",
				"energy": -0.22063,
				"method": "rhf"
			},
			{
				"type": "occ",
				"energy": -0.21627,
				"method": "rhf"
			},
			{
				"type": "occ",
				"energy": -0.20606,
				"method": "rhf"
			},
			{
				"type": "unocc",
				"energy": -0.00877,
				"method": "rhf"
			},
			{
				"type": "unocc",
				"energy": -0.00581,
				"method": "rhf"
			},
			{
				"type": "unocc",
				"energy": 0.00526,
				"method": "rhf"
			},
			{
				"type": "unocc",
				"energy": 0.02931,
				"method": "rhf"
			},
			{
				"type": "unocc",
				"energy": 0.05482,
				"method": "rhf"
			}
		],
		"cosmo_sigma_profile": { 
			"-0.025": 0.0,
			"-0.024": 0.0,
			"-0.023": 0.0,
			"-0.022": 0.0,
			"-0.021": 0.0,
			"-0.02": 0.0,
			"-0.019": 0.0,
			"-0.018": 0.0,
			"-0.017": 0.0,
			"-0.016": 0.0,
			"-0.015": 0.0,
			"-0.014": 0.0,
			"-0.013": 0.315199169135,
			"-0.012": 2.41044963649,
			"-0.011": 2.85738944575,
			"-0.01": 2.97285009968,
			"-0.009": 4.33993853584,
			"-0.008": 6.37283148213,
			"-0.007": 9.95068641486,
			"-0.006": 15.9057287036,
			"-0.005": 18.5696959812,
			"-0.004": 20.7515991729,
			"-0.003": 20.7927753886,
			"-0.002": 15.4829651226,
			"-0.001": 13.1644281098,
			"0.0": 12.5296896156,
			"0.001": 15.186253311,
			"0.002": 14.9171765089,
			"0.003": 15.2963720837,
			"0.004": 15.6811539161,
			"0.005": 19.0160144117,
			"0.006": 19.639255765,
			"0.007": 6.88030722894,
			"0.008": 2.6611753704,
			"0.009": 2.93207995944,
			"0.01": 1.31881582175,
			"0.011": 1.66539702346,
			"0.012": 2.05061647072,
			"0.013": 1.94955509628,
			"0.014": 1.97427105237,
			"0.015": 0.999268975555,
			"0.016": 0.69982489792,
			"0.017": 1.38946649332,
			"0.018": 0.374718513327,
			"0.019": 0.0,
			"0.02": 0.0,
			"0.021": 0.0,
			"0.022": 0.0,
			"0.023": 0.0,
			"0.024": 0.0,
			"0.025": 0.0
		}
	}
}
