{
	 "smiles": "ClC(=O)C1=CC=CC2=C1OCC2", 
	 "Tm": 331.15, 
	 "num_atms": 19, 
	 "gaussian": { 
		 "optdone": 1, 
		 "sigma_profile": "yes", 
		 "theory": "DFT", 
		 "functional": "B3LYP", 
		 "basiset": "6-31G**", 
		 "properties": { 
			 "R2extent": 2579.893, 
			 "electric_dipole_moment_norm": 6.12808706368, 
			 "electric_quadrupole_moment_norm": 5.42335111439, 
			 "total_energy": -957.815175392, 
			 "HOMO_LUMO_gap": 0.16599, 
			 "cosmo_polarized_energy": -10.5, 
			 "cosmo_cavitation_energy": 24.69, 
			 "cosmo_dispersion_energy": -18.78, 
			 "cosmo_repulsion_energy": 1.51, 
			 "cosmo_total_nonelectrostatic_energy": 7.42, 
			 "SMD_solvation_energy": 4.86 
		},
		"coords": [
			{
				"x": 2.1468779823,
				"y": -1.2301550147,
				"z": 2.7652057333,
				"element": "Cl" 
			},
			{
				"x": 1.0612445147,
				"y": -1.178455904,
				"z": 1.2611340317,
				"element": "C" 
			},
			{
				"x": 0.4366447431,
				"y": -2.1568074467,
				"z": 0.990572988,
				"element": "O" 
			},
			{
				"x": 1.0827811626,
				"y": 0.102293845,
				"z": 0.5377432402,
				"element": "C" 
			},
			{
				"x": 1.8699410974,
				"y": 1.2122762335,
				"z": 0.9161887326,
				"element": "C" 
			},
			{
				"x": 1.8495131421,
				"y": 2.3986128829,
				"z": 0.1968656319,
				"element": "C" 
			},
			{
				"x": 1.0384488175,
				"y": 2.5235937038,
				"z": -0.9443631507,
				"element": "C" 
			},
			{
				"x": 0.2541817458,
				"y": 1.4530729246,
				"z": -1.3370763326,
				"element": "C" 
			},
			{
				"x": 0.2729255654,
				"y": 0.2557548347,
				"z": -0.6062816408,
				"element": "C" 
			},
			{
				"x": -0.5417793477,
				"y": -0.6920412724,
				"z": -1.1137794495,
				"element": "O" 
			},
			{
				"x": -1.3221105338,
				"y": -0.097770644,
				"z": -2.1891920438,
				"element": "C" 
			},
			{
				"x": -0.6696884305,
				"y": 1.2651026462,
				"z": -2.5194053399,
				"element": "C" 
			},
			{
				"x": 2.4983044597,
				"y": 1.1218916604,
				"z": 1.7930518261,
				"element": "H" 
			},
			{
				"x": 2.4654144946,
				"y": 3.2321330249,
				"z": 0.5173718052,
				"element": "H" 
			},
			{
				"x": 1.0297984198,
				"y": 3.451219279,
				"z": -1.5103796194,
				"element": "H" 
			},
			{
				"x": -1.3169701779,
				"y": -0.8048843318,
				"z": -3.0206147604,
				"element": "H" 
			},
			{
				"x": -2.3482434275,
				"y": 0.0135295524,
				"z": -1.8237022317,
				"element": "H" 
			},
			{
				"x": -1.4146986157,
				"y": 2.0608940129,
				"z": -2.6138211125,
				"element": "H" 
			},
			{
				"x": -0.1073856119,
				"y": 1.2288400132,
				"z": -3.4601183077,
				"element": "H" 
			}
		],
		 "valence_orbital": [ 
			{
				"type": "occ",
				"energy": -0.30694,
				"method": "rhf"
			},
			{
				"type": "occ",
				"energy": -0.30592,
				"method": "rhf"
			},
			{
				"type": "occ",
				"energy": -0.27815,
				"method": "rhf"
			},
			{
				"type": "occ",
				"energy": -0.27264,
				"method": "rhf"
			},
			{
				"type": "occ",
				"energy": -0.23391,
				"method": "rhf"
			},
			{
				"type": "unocc",
				"energy": -0.06792,
				"method": "rhf"
			},
			{
				"type": "unocc",
				"energy": -0.00886,
				"method": "rhf"
			},
			{
				"type": "unocc",
				"energy": 0.02527,
				"method": "rhf"
			},
			{
				"type": "unocc",
				"energy": 0.02955,
				"method": "rhf"
			},
			{
				"type": "unocc",
				"energy": 0.07879,
				"method": "rhf"
			}
		],
		"cosmo_sigma_profile": { 
			"-0.025": 0.0,
			"-0.024": 0.0,
			"-0.023": 0.0,
			"-0.022": 0.0,
			"-0.021": 0.0,
			"-0.02": 0.0,
			"-0.019": 0.0,
			"-0.018": 0.0,
			"-0.017": 0.0,
			"-0.016": 0.0,
			"-0.015": 0.0,
			"-0.014": 0.0,
			"-0.013": 0.0,
			"-0.012": 0.0,
			"-0.011": 0.0,
			"-0.01": 0.0,
			"-0.009": 0.0,
			"-0.008": 0.197827234385,
			"-0.007": 4.04616696426,
			"-0.006": 16.4273537074,
			"-0.005": 20.4720824316,
			"-0.004": 17.6916749442,
			"-0.003": 14.0947816473,
			"-0.002": 14.0615873639,
			"-0.001": 12.381184692,
			"0.0": 13.7255227668,
			"0.001": 13.495378496,
			"0.002": 14.8979806057,
			"0.003": 13.721709316,
			"0.004": 10.6236657201,
			"0.005": 10.2850040391,
			"0.006": 5.11472476449,
			"0.007": 3.34778249924,
			"0.008": 3.58532824512,
			"0.009": 5.27549746778,
			"0.01": 2.75567188402,
			"0.011": 1.46410409045,
			"0.012": 1.15394842673,
			"0.013": 0.992158448966,
			"0.014": 0.394783907643,
			"0.015": 0.0103943577148,
			"0.016": 0.0,
			"0.017": 0.0,
			"0.018": 0.0,
			"0.019": 0.0,
			"0.02": 0.0,
			"0.021": 0.0,
			"0.022": 0.0,
			"0.023": 0.0,
			"0.024": 0.0,
			"0.025": 0.0
		}
	}
}
