{
	 "smiles": "CCC(CC)COC(=O)C=C", 
	 "Tm": 203.15, 
	 "num_atms": 27, 
	 "gaussian": { 
		 "optdone": 1, 
		 "sigma_profile": "yes", 
		 "theory": "DFT", 
		 "functional": "B3LYP", 
		 "basiset": "6-31G**", 
		 "properties": { 
			 "R2extent": 2824.6058, 
			 "electric_dipole_moment_norm": 2.37524180664, 
			 "electric_quadrupole_moment_norm": 13.8720758155, 
			 "total_energy": -503.051099469, 
			 "HOMO_LUMO_gap": 0.22453, 
			 "cosmo_polarized_energy": -6.65, 
			 "cosmo_cavitation_energy": 29.69, 
			 "cosmo_dispersion_energy": -20.07, 
			 "cosmo_repulsion_energy": 1.65, 
			 "cosmo_total_nonelectrostatic_energy": 11.27, 
			 "SMD_solvation_energy": 6.85 
		},
		"coords": [
			{
				"x": -0.8226062651,
				"y": 0.7900924324,
				"z": -1.9947167067,
				"element": "C" 
			},
			{
				"x": -0.9486267387,
				"y": -0.2493184859,
				"z": -0.8741759106,
				"element": "C" 
			},
			{
				"x": -1.6887410529,
				"y": 0.2426701594,
				"z": 0.3878190685,
				"element": "C" 
			},
			{
				"x": -1.9117559167,
				"y": -0.8824375109,
				"z": 1.4223473615,
				"element": "C" 
			},
			{
				"x": -2.844699866,
				"y": -2.0073986013,
				"z": 0.9596785732,
				"element": "C" 
			},
			{
				"x": -1.0065208397,
				"y": 1.4477750381,
				"z": 1.0351375869,
				"element": "C" 
			},
			{
				"x": 0.3242170049,
				"y": 1.0593397995,
				"z": 1.4479484501,
				"element": "O" 
			},
			{
				"x": 1.0645944426,
				"y": 2.0284453153,
				"z": 2.0314432718,
				"element": "C" 
			},
			{
				"x": 0.6665350215,
				"y": 3.1636986346,
				"z": 2.2094076727,
				"element": "O" 
			},
			{
				"x": 2.4172970022,
				"y": 1.5690285413,
				"z": 2.4356803002,
				"element": "C" 
			},
			{
				"x": 2.8856955481,
				"y": 0.330871519,
				"z": 2.263056291,
				"element": "C" 
			},
			{
				"x": -1.803286226,
				"y": 1.1850975572,
				"z": -2.2851301433,
				"element": "H" 
			},
			{
				"x": -0.1953834518,
				"y": 1.6383113454,
				"z": -1.7027690912,
				"element": "H" 
			},
			{
				"x": -0.3696953322,
				"y": 0.3449603139,
				"z": -2.8865139922,
				"element": "H" 
			},
			{
				"x": -1.4770923088,
				"y": -1.1241704836,
				"z": -1.2686401605,
				"element": "H" 
			},
			{
				"x": 0.0498197892,
				"y": -0.5981491656,
				"z": -0.5832082851,
				"element": "H" 
			},
			{
				"x": -2.6795232653,
				"y": 0.6106946127,
				"z": 0.0756529599,
				"element": "H" 
			},
			{
				"x": -2.3290127134,
				"y": -0.4338692041,
				"z": 2.3337137731,
				"element": "H" 
			},
			{
				"x": -0.9395772758,
				"y": -1.3006447549,
				"z": 1.7108771035,
				"element": "H" 
			},
			{
				"x": -3.8210230335,
				"y": -1.6128923157,
				"z": 0.6543345959,
				"element": "H" 
			},
			{
				"x": -2.4336191492,
				"y": -2.566147234,
				"z": 0.1132533616,
				"element": "H" 
			},
			{
				"x": -3.0170453434,
				"y": -2.7246497992,
				"z": 1.7687259618,
				"element": "H" 
			},
			{
				"x": -1.560426984,
				"y": 1.7906246368,
				"z": 1.9156266344,
				"element": "H" 
			},
			{
				"x": -0.9267897612,
				"y": 2.2967885685,
				"z": 0.3505682034,
				"element": "H" 
			},
			{
				"x": 3.0143555759,
				"y": 2.3480318623,
				"z": 2.9000913747,
				"element": "H" 
			},
			{
				"x": 3.88698505,
				"y": 0.0590070454,
				"z": 2.5830737841,
				"element": "H" 
			},
			{
				"x": 2.2823260891,
				"y": -0.4419598265,
				"z": 1.7990179614,
				"element": "H" 
			}
		],
		 "valence_orbital": [ 
			{
				"type": "occ",
				"energy": -0.31755,
				"method": "rhf"
			},
			{
				"type": "occ",
				"energy": -0.31257,
				"method": "rhf"
			},
			{
				"type": "occ",
				"energy": -0.29417,
				"method": "rhf"
			},
			{
				"type": "occ",
				"energy": -0.28318,
				"method": "rhf"
			},
			{
				"type": "occ",
				"energy": -0.26885,
				"method": "rhf"
			},
			{
				"type": "unocc",
				"energy": -0.04432,
				"method": "rhf"
			},
			{
				"type": "unocc",
				"energy": 0.0791,
				"method": "rhf"
			},
			{
				"type": "unocc",
				"energy": 0.08605,
				"method": "rhf"
			},
			{
				"type": "unocc",
				"energy": 0.09931,
				"method": "rhf"
			},
			{
				"type": "unocc",
				"energy": 0.10557,
				"method": "rhf"
			}
		],
		"cosmo_sigma_profile": { 
			"-0.025": 0.0,
			"-0.024": 0.0,
			"-0.023": 0.0,
			"-0.022": 0.0,
			"-0.021": 0.0,
			"-0.02": 0.0,
			"-0.019": 0.0,
			"-0.018": 0.0,
			"-0.017": 0.0,
			"-0.016": 0.0,
			"-0.015": 0.0,
			"-0.014": 0.0,
			"-0.013": 0.0,
			"-0.012": 0.0,
			"-0.011": 0.0,
			"-0.01": 0.0,
			"-0.009": 0.0,
			"-0.008": 0.114091819093,
			"-0.007": 2.61706215429,
			"-0.006": 4.87877628392,
			"-0.005": 6.40858590881,
			"-0.004": 12.4311986382,
			"-0.003": 24.8934970797,
			"-0.002": 32.3779568079,
			"-0.001": 30.5383082085,
			"0.0": 34.7440209577,
			"0.001": 31.5129712514,
			"0.002": 16.6299079325,
			"0.003": 9.82624356835,
			"0.004": 5.18431482913,
			"0.005": 2.28848720497,
			"0.006": 1.28091832279,
			"0.007": 0.984301202965,
			"0.008": 1.63675306736,
			"0.009": 1.73560900602,
			"0.01": 1.32217211971,
			"0.011": 2.67644710952,
			"0.012": 4.97294783157,
			"0.013": 2.23441847749,
			"0.014": 0.0405937281381,
			"0.015": 0.0,
			"0.016": 0.0,
			"0.017": 0.0,
			"0.018": 0.0,
			"0.019": 0.0,
			"0.02": 0.0,
			"0.021": 0.0,
			"0.022": 0.0,
			"0.023": 0.0,
			"0.024": 0.0,
			"0.025": 0.0
		}
	}
}
