{
	 "smiles": "CC1=CC=C2C=C3C=CC=CC3=CC2=C1", 
	 "Tm": 482.15, 
	 "num_atms": 27, 
	 "gaussian": { 
		 "optdone": 1, 
		 "sigma_profile": "yes", 
		 "theory": "DFT", 
		 "functional": "B3LYP", 
		 "basiset": "6-31G**", 
		 "properties": { 
			 "R2extent": 3876.0098, 
			 "electric_dipole_moment_norm": 0.525361723006, 
			 "electric_quadrupole_moment_norm": 9.74932676855, 
			 "total_energy": -578.855190229, 
			 "HOMO_LUMO_gap": 0.1324, 
			 "cosmo_polarized_energy": -5.78, 
			 "cosmo_cavitation_energy": 30.05, 
			 "cosmo_dispersion_energy": -22.34, 
			 "cosmo_repulsion_energy": 1.69, 
			 "cosmo_total_nonelectrostatic_energy": 9.4, 
			 "SMD_solvation_energy": 4.52 
		},
		"coords": [
			{
				"x": -1.3091977876,
				"y": 2.8447925487,
				"z": 3.6036180428,
				"element": "C" 
			},
			{
				"x": -0.8142712891,
				"y": 1.9538533981,
				"z": 2.4915067304,
				"element": "C" 
			},
			{
				"x": 0.5911134665,
				"y": 1.891720307,
				"z": 2.2126386217,
				"element": "C" 
			},
			{
				"x": 1.0857700061,
				"y": 1.0983660603,
				"z": 1.2143789177,
				"element": "C" 
			},
			{
				"x": 0.2156375119,
				"y": 0.2983028192,
				"z": 0.4087233143,
				"element": "C" 
			},
			{
				"x": 0.6878547558,
				"y": -0.5242864284,
				"z": -0.6203652058,
				"element": "C" 
			},
			{
				"x": -0.180014756,
				"y": -1.3014195103,
				"z": -1.3996402322,
				"element": "C" 
			},
			{
				"x": 0.288136814,
				"y": -2.1460719964,
				"z": -2.4539061834,
				"element": "C" 
			},
			{
				"x": -0.5855359658,
				"y": -2.8943609847,
				"z": -3.1986916756,
				"element": "C" 
			},
			{
				"x": -1.9858154836,
				"y": -2.8440313025,
				"z": -2.9343419694,
				"element": "C" 
			},
			{
				"x": -2.4752274561,
				"y": -2.0471278855,
				"z": -1.932660849,
				"element": "C" 
			},
			{
				"x": -1.5989429579,
				"y": -1.2502350105,
				"z": -1.1315425085,
				"element": "C" 
			},
			{
				"x": -2.0695233946,
				"y": -0.4257044337,
				"z": -0.1004071766,
				"element": "C" 
			},
			{
				"x": -1.2019506509,
				"y": 0.3504750666,
				"z": 0.6777805601,
				"element": "C" 
			},
			{
				"x": -1.6706299737,
				"y": 1.1955698345,
				"z": 1.732567347,
				"element": "C" 
			},
			{
				"x": -0.8685742401,
				"y": 2.5598665019,
				"z": 4.5667604841,
				"element": "H" 
			},
			{
				"x": -2.3967376558,
				"y": 2.7951323045,
				"z": 3.7037783049,
				"element": "H" 
			},
			{
				"x": -1.0344652023,
				"y": 3.8916620766,
				"z": 3.4259683722,
				"element": "H" 
			},
			{
				"x": 1.2701028354,
				"y": 2.4921269764,
				"z": 2.8134354024,
				"element": "H" 
			},
			{
				"x": 2.1543486792,
				"y": 1.0638274329,
				"z": 1.0171716632,
				"element": "H" 
			},
			{
				"x": 1.7564820671,
				"y": -0.5616905907,
				"z": -0.8209645502,
				"element": "H" 
			},
			{
				"x": 1.3561708605,
				"y": -2.1826499982,
				"z": -2.6534143877,
				"element": "H" 
			},
			{
				"x": -0.2155269455,
				"y": -3.5316930905,
				"z": -3.9966497916,
				"element": "H" 
			},
			{
				"x": -2.6639656929,
				"y": -3.4438151787,
				"z": -3.5345839985,
				"element": "H" 
			},
			{
				"x": -3.5425185102,
				"y": -2.0076587169,
				"z": -1.7298635296,
				"element": "H" 
			},
			{
				"x": -3.1380841842,
				"y": -0.3881668559,
				"z": 0.1003220782,
				"element": "H" 
			},
			{
				"x": -2.7405348503,
				"y": 1.2276166561,
				"z": 1.9270822193,
				"element": "H" 
			}
		],
		 "valence_orbital": [ 
			{
				"type": "occ",
				"energy": -0.29462,
				"method": "rhf"
			},
			{
				"type": "occ",
				"energy": -0.29172,
				"method": "rhf"
			},
			{
				"type": "occ",
				"energy": -0.25139,
				"method": "rhf"
			},
			{
				"type": "occ",
				"energy": -0.23224,
				"method": "rhf"
			},
			{
				"type": "occ",
				"energy": -0.18988,
				"method": "rhf"
			},
			{
				"type": "unocc",
				"energy": -0.05748,
				"method": "rhf"
			},
			{
				"type": "unocc",
				"energy": -0.00974,
				"method": "rhf"
			},
			{
				"type": "unocc",
				"energy": 0.01077,
				"method": "rhf"
			},
			{
				"type": "unocc",
				"energy": 0.04688,
				"method": "rhf"
			},
			{
				"type": "unocc",
				"energy": 0.06555,
				"method": "rhf"
			}
		],
		"cosmo_sigma_profile": { 
			"-0.025": 0.0,
			"-0.024": 0.0,
			"-0.023": 0.0,
			"-0.022": 0.0,
			"-0.021": 0.0,
			"-0.02": 0.0,
			"-0.019": 0.0,
			"-0.018": 0.0,
			"-0.017": 0.0,
			"-0.016": 0.0,
			"-0.015": 0.0,
			"-0.014": 0.0,
			"-0.013": 0.0,
			"-0.012": 0.0,
			"-0.011": 0.0,
			"-0.01": 0.0,
			"-0.009": 0.0,
			"-0.008": 0.0,
			"-0.007": 0.0,
			"-0.006": 9.32131496904,
			"-0.005": 22.3641003761,
			"-0.004": 23.711562628,
			"-0.003": 22.6694932371,
			"-0.002": 17.9578893716,
			"-0.001": 18.862263483,
			"0.0": 15.6481173747,
			"0.001": 14.0269359134,
			"0.002": 14.5319145508,
			"0.003": 15.6257030437,
			"0.004": 38.3167116789,
			"0.005": 23.4036256272,
			"0.006": 3.90686907062,
			"0.007": 0.0,
			"0.008": 0.0,
			"0.009": 0.0,
			"0.01": 0.0,
			"0.011": 0.0,
			"0.012": 0.0,
			"0.013": 0.0,
			"0.014": 0.0,
			"0.015": 0.0,
			"0.016": 0.0,
			"0.017": 0.0,
			"0.018": 0.0,
			"0.019": 0.0,
			"0.02": 0.0,
			"0.021": 0.0,
			"0.022": 0.0,
			"0.023": 0.0,
			"0.024": 0.0,
			"0.025": 0.0
		}
	}
}
