{
	 "smiles": "CC(=O)C1=CC2=C(NC(=O)C2)C=C1", 
	 "Tm": 491.15, 
	 "num_atms": 22, 
	 "gaussian": { 
		 "optdone": 1, 
		 "sigma_profile": "yes", 
		 "theory": "DFT", 
		 "functional": "B3LYP", 
		 "basiset": "6-31G**", 
		 "properties": { 
			 "R2extent": 3067.2386, 
			 "electric_dipole_moment_norm": 3.70535759273, 
			 "electric_quadrupole_moment_norm": 12.9787025026, 
			 "total_energy": -591.715056542, 
			 "HOMO_LUMO_gap": 0.17608, 
			 "cosmo_polarized_energy": -16.13, 
			 "cosmo_cavitation_energy": 26.35, 
			 "cosmo_dispersion_energy": -19.52, 
			 "cosmo_repulsion_energy": 1.54, 
			 "cosmo_total_nonelectrostatic_energy": 8.37, 
			 "SMD_solvation_energy": 5.59 
		},
		"coords": [
			{
				"x": -0.6688237929,
				"y": 1.3313431234,
				"z": 3.5688706031,
				"element": "C" 
			},
			{
				"x": -0.7366145665,
				"y": 1.9004608962,
				"z": 2.1600089621,
				"element": "C" 
			},
			{
				"x": -0.995627852,
				"y": 3.0832581732,
				"z": 1.9839086811,
				"element": "O" 
			},
			{
				"x": -0.4828835726,
				"y": 0.9950214946,
				"z": 0.9991917019,
				"element": "C" 
			},
			{
				"x": -0.5524427113,
				"y": 1.5511496992,
				"z": -0.2972209031,
				"element": "C" 
			},
			{
				"x": -0.3252042392,
				"y": 0.7519095035,
				"z": -1.3982917659,
				"element": "C" 
			},
			{
				"x": -0.024965323,
				"y": -0.6156648143,
				"z": -1.2197874767,
				"element": "C" 
			},
			{
				"x": 0.1622254972,
				"y": -1.2098897498,
				"z": -2.4657888856,
				"element": "N" 
			},
			{
				"x": 0.0049612261,
				"y": -0.3116362567,
				"z": -3.5198702527,
				"element": "C" 
			},
			{
				"x": 0.1169337647,
				"y": -0.5841701138,
				"z": -4.6961838684,
				"element": "O" 
			},
			{
				"x": -0.3278805045,
				"y": 1.0456704945,
				"z": -2.8776523725,
				"element": "C" 
			},
			{
				"x": 0.0505583281,
				"y": -1.1919309414,
				"z": 0.0446532529,
				"element": "C" 
			},
			{
				"x": -0.182448585,
				"y": -0.3675988295,
				"z": 1.1487657033,
				"element": "C" 
			},
			{
				"x": -0.8797804018,
				"y": 2.1331583647,
				"z": 4.276832818,
				"element": "H" 
			},
			{
				"x": -1.3991104298,
				"y": 0.5260870078,
				"z": 3.7054170294,
				"element": "H" 
			},
			{
				"x": 0.3220375805,
				"y": 0.9137736953,
				"z": 3.7791761803,
				"element": "H" 
			},
			{
				"x": -0.7863158815,
				"y": 2.6070970961,
				"z": -0.3881959794,
				"element": "H" 
			},
			{
				"x": 0.3877740856,
				"y": -2.1808063547,
				"z": -2.6267801556,
				"element": "H" 
			},
			{
				"x": 0.422316189,
				"y": 1.7837558506,
				"z": -3.1824559839,
				"element": "H" 
			},
			{
				"x": -1.29403913,
				"y": 1.3975968903,
				"z": -3.2559978034,
				"element": "H" 
			},
			{
				"x": 0.2820603255,
				"y": -2.2445663443,
				"z": 0.1738044495,
				"element": "H" 
			},
			{
				"x": -0.1267300067,
				"y": -0.8039188848,
				"z": 2.1405960655,
				"element": "H" 
			}
		],
		 "valence_orbital": [ 
			{
				"type": "occ",
				"energy": -0.31572,
				"method": "rhf"
			},
			{
				"type": "occ",
				"energy": -0.26692,
				"method": "rhf"
			},
			{
				"type": "occ",
				"energy": -0.26623,
				"method": "rhf"
			},
			{
				"type": "occ",
				"energy": -0.24694,
				"method": "rhf"
			},
			{
				"type": "occ",
				"energy": -0.23023,
				"method": "rhf"
			},
			{
				"type": "unocc",
				"energy": -0.05415,
				"method": "rhf"
			},
			{
				"type": "unocc",
				"energy": -0.02156,
				"method": "rhf"
			},
			{
				"type": "unocc",
				"energy": 0.00699,
				"method": "rhf"
			},
			{
				"type": "unocc",
				"energy": 0.05243,
				"method": "rhf"
			},
			{
				"type": "unocc",
				"energy": 0.07852,
				"method": "rhf"
			}
		],
		"cosmo_sigma_profile": { 
			"-0.025": 0.0,
			"-0.024": 0.0,
			"-0.023": 0.0,
			"-0.022": 0.0,
			"-0.021": 0.0,
			"-0.02": 0.0,
			"-0.019": 0.0,
			"-0.018": 0.0,
			"-0.017": 0.038953828835,
			"-0.016": 0.965684875582,
			"-0.015": 1.35783041698,
			"-0.014": 1.24686962681,
			"-0.013": 1.12831274848,
			"-0.012": 0.808079771236,
			"-0.011": 1.06153633143,
			"-0.01": 1.73049777086,
			"-0.009": 1.06826581266,
			"-0.008": 2.42232768436,
			"-0.007": 8.5518927563,
			"-0.006": 14.646146498,
			"-0.005": 17.4484440899,
			"-0.004": 15.7014717171,
			"-0.003": 15.4644582857,
			"-0.002": 13.5017885587,
			"-0.001": 14.459496547,
			"0.0": 14.3168288485,
			"0.001": 10.0313940918,
			"0.002": 10.4900416081,
			"0.003": 13.6571496152,
			"0.004": 10.0114395084,
			"0.005": 2.13385588485,
			"0.006": 3.33245147345,
			"0.007": 2.82924008826,
			"0.008": 2.85350030949,
			"0.009": 3.24956056459,
			"0.01": 3.80911074059,
			"0.011": 3.69875062629,
			"0.012": 9.70309641245,
			"0.013": 7.12211181261,
			"0.014": 1.29695418337,
			"0.015": 0.0,
			"0.016": 0.0,
			"0.017": 0.0,
			"0.018": 0.0,
			"0.019": 0.0,
			"0.02": 0.0,
			"0.021": 0.0,
			"0.022": 0.0,
			"0.023": 0.0,
			"0.024": 0.0,
			"0.025": 0.0
		}
	}
}
