{
	 "smiles": "CCOC(C)OCC", 
	 "Tm": 173.15, 
	 "num_atms": 22, 
	 "gaussian": { 
		 "optdone": 1, 
		 "sigma_profile": "yes", 
		 "theory": "DFT", 
		 "functional": "B3LYP", 
		 "basiset": "6-31G**", 
		 "properties": { 
			 "R2extent": 1372.7388, 
			 "electric_dipole_moment_norm": 0.184562699373, 
			 "electric_quadrupole_moment_norm": 5.17030996363, 
			 "total_energy": -387.520125143, 
			 "HOMO_LUMO_gap": 0.34907, 
			 "cosmo_polarized_energy": -4.81, 
			 "cosmo_cavitation_energy": 23.9, 
			 "cosmo_dispersion_energy": -17.1, 
			 "cosmo_repulsion_energy": 1.47, 
			 "cosmo_total_nonelectrostatic_energy": 8.26, 
			 "SMD_solvation_energy": 4.55 
		},
		"coords": [
			{
				"x": -2.4665675263,
				"y": -1.2583036695,
				"z": 0.6388996922,
				"element": "C" 
			},
			{
				"x": -1.0733927515,
				"y": -0.8598787908,
				"z": 1.1178148537,
				"element": "C" 
			},
			{
				"x": -0.1100026877,
				"y": -0.9035242486,
				"z": 0.0598910218,
				"element": "O" 
			},
			{
				"x": 0.0086921451,
				"y": 0.2944206927,
				"z": -0.6780296236,
				"element": "C" 
			},
			{
				"x": 0.7944368458,
				"y": -0.0402793267,
				"z": -1.939719605,
				"element": "C" 
			},
			{
				"x": 0.5660563446,
				"y": 1.3448750145,
				"z": 0.0911042992,
				"element": "O" 
			},
			{
				"x": 1.9016285599,
				"y": 1.1460239037,
				"z": 0.5593580613,
				"element": "C" 
			},
			{
				"x": 2.1776763449,
				"y": 2.1914616443,
				"z": 1.628283519,
				"element": "C" 
			},
			{
				"x": -3.1707082248,
				"y": -1.2686051941,
				"z": 1.4782240454,
				"element": "H" 
			},
			{
				"x": -2.8508847819,
				"y": -0.5570321849,
				"z": -0.1090199202,
				"element": "H" 
			},
			{
				"x": -2.4470918879,
				"y": -2.2565447792,
				"z": 0.1915413839,
				"element": "H" 
			},
			{
				"x": -0.7175255803,
				"y": -1.5670746375,
				"z": 1.8745583655,
				"element": "H" 
			},
			{
				"x": -1.0793286329,
				"y": 0.1378226926,
				"z": 1.5736077473,
				"element": "H" 
			},
			{
				"x": -0.9843579863,
				"y": 0.6837997463,
				"z": -0.9439484353,
				"element": "H" 
			},
			{
				"x": 0.9912493459,
				"y": 0.8695196689,
				"z": -2.5132189269,
				"element": "H" 
			},
			{
				"x": 1.744441754,
				"y": -0.5208317973,
				"z": -1.6917710413,
				"element": "H" 
			},
			{
				"x": 0.219031639,
				"y": -0.7336212831,
				"z": -2.5584542162,
				"element": "H" 
			},
			{
				"x": 2.0102641757,
				"y": 0.1327301893,
				"z": 0.9660152392,
				"element": "H" 
			},
			{
				"x": 2.6171827984,
				"y": 1.253901567,
				"z": -0.2691691119,
				"element": "H" 
			},
			{
				"x": 3.2037418806,
				"y": 2.0975016669,
				"z": 1.9985767978,
				"element": "H" 
			},
			{
				"x": 1.4914797112,
				"y": 2.0723473702,
				"z": 2.4720167413,
				"element": "H" 
			},
			{
				"x": 2.0471785147,
				"y": 3.1994917554,
				"z": 1.2233391128,
				"element": "H" 
			}
		],
		 "valence_orbital": [ 
			{
				"type": "occ",
				"energy": -0.35079,
				"method": "rhf"
			},
			{
				"type": "occ",
				"energy": -0.3317,
				"method": "rhf"
			},
			{
				"type": "occ",
				"energy": -0.28681,
				"method": "rhf"
			},
			{
				"type": "occ",
				"energy": -0.26372,
				"method": "rhf"
			},
			{
				"type": "occ",
				"energy": -0.25672,
				"method": "rhf"
			},
			{
				"type": "unocc",
				"energy": 0.09235,
				"method": "rhf"
			},
			{
				"type": "unocc",
				"energy": 0.10707,
				"method": "rhf"
			},
			{
				"type": "unocc",
				"energy": 0.1195,
				"method": "rhf"
			},
			{
				"type": "unocc",
				"energy": 0.13483,
				"method": "rhf"
			},
			{
				"type": "unocc",
				"energy": 0.13871,
				"method": "rhf"
			}
		],
		"cosmo_sigma_profile": { 
			"-0.025": 0.0,
			"-0.024": 0.0,
			"-0.023": 0.0,
			"-0.022": 0.0,
			"-0.021": 0.0,
			"-0.02": 0.0,
			"-0.019": 0.0,
			"-0.018": 0.0,
			"-0.017": 0.0,
			"-0.016": 0.0,
			"-0.015": 0.0,
			"-0.014": 0.0,
			"-0.013": 0.0,
			"-0.012": 0.0,
			"-0.011": 0.0,
			"-0.01": 0.0,
			"-0.009": 0.0,
			"-0.008": 0.0,
			"-0.007": 0.0,
			"-0.006": 0.0,
			"-0.005": 2.10193749683,
			"-0.004": 13.1011602827,
			"-0.003": 28.0412442192,
			"-0.002": 33.9576358697,
			"-0.001": 26.8665862641,
			"0.0": 25.5128770841,
			"0.001": 19.1869876057,
			"0.002": 7.64327211558,
			"0.003": 3.75011312262,
			"0.004": 3.16559389517,
			"0.005": 3.67468624465,
			"0.006": 2.64011920751,
			"0.007": 2.66277323459,
			"0.008": 2.80765223919,
			"0.009": 1.21086632164,
			"0.01": 1.91190564202,
			"0.011": 1.94308948037,
			"0.012": 2.07782363957,
			"0.013": 2.21882018358,
			"0.014": 0.246596368167,
			"0.015": 0.0,
			"0.016": 0.0,
			"0.017": 0.0,
			"0.018": 0.0,
			"0.019": 0.0,
			"0.02": 0.0,
			"0.021": 0.0,
			"0.022": 0.0,
			"0.023": 0.0,
			"0.024": 0.0,
			"0.025": 0.0
		}
	}
}
