{
	 "smiles": "CC1CCCC=CC2CC(O)CC2C(O)C=CC(=O)O1", 
	 "Tm": 476.15, 
	 "num_atms": 44, 
	 "gaussian": { 
		 "optdone": 1, 
		 "sigma_profile": "yes", 
		 "theory": "DFT", 
		 "functional": "B3LYP", 
		 "basiset": "6-31G**", 
		 "properties": { 
			 "R2extent": 5996.3811, 
			 "electric_dipole_moment_norm": 5.73646292065, 
			 "electric_quadrupole_moment_norm": 20.856623032, 
			 "total_energy": -925.033741104, 
			 "HOMO_LUMO_gap": 0.16861, 
			 "cosmo_polarized_energy": -12.5, 
			 "cosmo_cavitation_energy": 39.6, 
			 "cosmo_dispersion_energy": -28.25, 
			 "cosmo_repulsion_energy": 2.13, 
			 "cosmo_total_nonelectrostatic_energy": 13.48, 
			 "SMD_solvation_energy": 5.97 
		},
		"coords": [
			{
				"x": -1.8713992209,
				"y": 0.7698288339,
				"z": -3.45794609,
				"element": "C" 
			},
			{
				"x": -1.4027642707,
				"y": 0.39653588,
				"z": -2.0584110618,
				"element": "C" 
			},
			{
				"x": -0.8640508718,
				"y": -1.0415197395,
				"z": -1.9170494308,
				"element": "C" 
			},
			{
				"x": 0.4401911497,
				"y": -1.3748252945,
				"z": -2.6736780273,
				"element": "C" 
			},
			{
				"x": 1.7554428051,
				"y": -1.0458843825,
				"z": -1.9174747149,
				"element": "C" 
			},
			{
				"x": 2.2061478039,
				"y": -2.0817513855,
				"z": -0.9131469123,
				"element": "C" 
			},
			{
				"x": 2.1473299487,
				"y": -2.0371280669,
				"z": 0.4256770674,
				"element": "C" 
			},
			{
				"x": 1.4889551577,
				"y": -0.9926128876,
				"z": 1.2989065404,
				"element": "C" 
			},
			{
				"x": 0.747986454,
				"y": -1.6635245674,
				"z": 2.5011281111,
				"element": "C" 
			},
			{
				"x": 1.4961783263,
				"y": -1.280364046,
				"z": 3.8140389009,
				"element": "C" 
			},
			{
				"x": 0.7397263116,
				"y": -0.4357113166,
				"z": 4.6598983025,
				"element": "O" 
			},
			{
				"x": 2.8116440565,
				"y": -0.634260548,
				"z": 3.3223500696,
				"element": "C" 
			},
			{
				"x": 2.4945940548,
				"y": 0.0138961584,
				"z": 1.9577959155,
				"element": "C" 
			},
			{
				"x": 1.9153744548,
				"y": 1.4640944375,
				"z": 2.0916421589,
				"element": "C" 
			},
			{
				"x": 0.6319448475,
				"y": 1.5249513335,
				"z": 2.696747109,
				"element": "O" 
			},
			{
				"x": 2.0166962395,
				"y": 2.2120485333,
				"z": 0.7754778304,
				"element": "C" 
			},
			{
				"x": 1.1728558086,
				"y": 2.3127888769,
				"z": -0.2675810146,
				"element": "C" 
			},
			{
				"x": -0.1232404022,
				"y": 1.6147759267,
				"z": -0.4249561797,
				"element": "C" 
			},
			{
				"x": -0.8712126836,
				"y": 1.2405605952,
				"z": 0.4738077515,
				"element": "O" 
			},
			{
				"x": -0.3572016761,
				"y": 1.3674801212,
				"z": -1.7215844435,
				"element": "O" 
			},
			{
				"x": -2.681236407,
				"y": 0.1026903415,
				"z": -3.7679740602,
				"element": "H" 
			},
			{
				"x": -2.2470278928,
				"y": 1.7965538533,
				"z": -3.473076912,
				"element": "H" 
			},
			{
				"x": -1.0623422016,
				"y": 0.6926996046,
				"z": -4.1894485424,
				"element": "H" 
			},
			{
				"x": -2.216846854,
				"y": 0.5344934405,
				"z": -1.3420324507,
				"element": "H" 
			},
			{
				"x": -0.7442992279,
				"y": -1.2734283652,
				"z": -0.8535334754,
				"element": "H" 
			},
			{
				"x": -1.6709907401,
				"y": -1.6943649047,
				"z": -2.2734682489,
				"element": "H" 
			},
			{
				"x": 0.4490797223,
				"y": -0.8534589992,
				"z": -3.6381363085,
				"element": "H" 
			},
			{
				"x": 0.4381191063,
				"y": -2.4444273578,
				"z": -2.9156463349,
				"element": "H" 
			},
			{
				"x": 1.6814272731,
				"y": -0.0616386685,
				"z": -1.4541458416,
				"element": "H" 
			},
			{
				"x": 2.5532241673,
				"y": -0.958793332,
				"z": -2.6673963853,
				"element": "H" 
			},
			{
				"x": 2.6718107002,
				"y": -2.9641502241,
				"z": -1.3549506083,
				"element": "H" 
			},
			{
				"x": 2.5881710747,
				"y": -2.8768174721,
				"z": 0.9657490668,
				"element": "H" 
			},
			{
				"x": 0.7735614422,
				"y": -0.4466865231,
				"z": 0.6890882776,
				"element": "H" 
			},
			{
				"x": -0.2861175978,
				"y": -1.3169668097,
				"z": 2.5784840701,
				"element": "H" 
			},
			{
				"x": 0.7071332193,
				"y": -2.7499127696,
				"z": 2.3683052478,
				"element": "H" 
			},
			{
				"x": 1.7084433789,
				"y": -2.168930159,
				"z": 4.4178441776,
				"element": "H" 
			},
			{
				"x": 0.5405042731,
				"y": 0.3651382116,
				"z": 4.1395464405,
				"element": "H" 
			},
			{
				"x": 3.2108284914,
				"y": 0.0627562501,
				"z": 4.0664335315,
				"element": "H" 
			},
			{
				"x": 3.5665948461,
				"y": -1.4152399708,
				"z": 3.1658058415,
				"element": "H" 
			},
			{
				"x": 3.4045862957,
				"y": 0.094802719,
				"z": 1.3511953952,
				"element": "H" 
			},
			{
				"x": 2.5815381942,
				"y": 1.9920945406,
				"z": 2.7864399634,
				"element": "H" 
			},
			{
				"x": -0.054797634,
				"y": 1.3989985373,
				"z": 2.0081223868,
				"element": "H" 
			},
			{
				"x": 2.9770795808,
				"y": 2.7090908489,
				"z": 0.6407163114,
				"element": "H" 
			},
			{
				"x": 1.4999584962,
				"y": 2.8483187464,
				"z": -1.1539634245,
				"element": "H" 
			}
		],
		 "valence_orbital": [ 
			{
				"type": "occ",
				"energy": -0.29199,
				"method": "rhf"
			},
			{
				"type": "occ",
				"energy": -0.27743,
				"method": "rhf"
			},
			{
				"type": "occ",
				"energy": -0.26469,
				"method": "rhf"
			},
			{
				"type": "occ",
				"energy": -0.23831,
				"method": "rhf"
			},
			{
				"type": "occ",
				"energy": -0.22907,
				"method": "rhf"
			},
			{
				"type": "unocc",
				"energy": -0.06046,
				"method": "rhf"
			},
			{
				"type": "unocc",
				"energy": 0.01918,
				"method": "rhf"
			},
			{
				"type": "unocc",
				"energy": 0.04118,
				"method": "rhf"
			},
			{
				"type": "unocc",
				"energy": 0.07333,
				"method": "rhf"
			},
			{
				"type": "unocc",
				"energy": 0.0799,
				"method": "rhf"
			}
		],
		"cosmo_sigma_profile": { 
			"-0.025": 0.0,
			"-0.024": 0.0,
			"-0.023": 0.0,
			"-0.022": 0.0,
			"-0.021": 0.0,
			"-0.02": 0.0,
			"-0.019": 0.0,
			"-0.018": 0.0,
			"-0.017": 0.0,
			"-0.016": 0.000395678296103,
			"-0.015": 0.00577616532395,
			"-0.014": 0.00358992034792,
			"-0.013": 7.07710320241e-05,
			"-0.012": 0.0,
			"-0.011": 0.0,
			"-0.01": 0.0,
			"-0.009": 0.0,
			"-0.008": 0.779508852379,
			"-0.007": 6.10475157921,
			"-0.006": 6.22118763539,
			"-0.005": 11.9435402211,
			"-0.004": 22.8133756856,
			"-0.003": 37.5584410733,
			"-0.002": 44.2313540263,
			"-0.001": 39.7302733802,
			"0.0": 36.2269908853,
			"0.001": 27.4431224623,
			"0.002": 15.1311213894,
			"0.003": 10.2181447419,
			"0.004": 9.57985584064,
			"0.005": 6.18951375568,
			"0.006": 6.72178513418,
			"0.007": 5.4141319404,
			"0.008": 3.59635789284,
			"0.009": 3.74297246391,
			"0.01": 2.71313925416,
			"0.011": 1.65120417835,
			"0.012": 2.03854037117,
			"0.013": 2.30262651668,
			"0.014": 1.18278294831,
			"0.015": 1.93313049644,
			"0.016": 2.28629639063,
			"0.017": 0.0213521992919,
			"0.018": 0.0,
			"0.019": 0.0,
			"0.02": 0.0,
			"0.021": 0.0,
			"0.022": 0.0,
			"0.023": 0.0,
			"0.024": 0.0,
			"0.025": 0.0
		}
	}
}
