{
	 "smiles": "CC1=C(C)C2=C(N1)C(=CC=C2)[N+]([O-])=O", 
	 "Tm": 435.15, 
	 "num_atms": 24, 
	 "gaussian": { 
		 "optdone": 1, 
		 "sigma_profile": "yes", 
		 "theory": "DFT", 
		 "functional": "B3LYP", 
		 "basiset": "6-31G**", 
		 "properties": { 
			 "R2extent": 3057.713, 
			 "electric_dipole_moment_norm": 4.65533872774, 
			 "electric_quadrupole_moment_norm": 10.1072669145, 
			 "total_energy": -646.969252351, 
			 "HOMO_LUMO_gap": 0.12987, 
			 "cosmo_polarized_energy": -9.13, 
			 "cosmo_cavitation_energy": 27.98, 
			 "cosmo_dispersion_energy": -20.56, 
			 "cosmo_repulsion_energy": 1.6, 
			 "cosmo_total_nonelectrostatic_energy": 9.02, 
			 "SMD_solvation_energy": 6.49 
		},
		"coords": [
			{
				"x": 0.2041609821,
				"y": 1.8088016851,
				"z": -2.2515344357,
				"element": "C" 
			},
			{
				"x": 0.624870087,
				"y": 0.9067909105,
				"z": -1.1316446048,
				"element": "C" 
			},
			{
				"x": 1.8813058337,
				"y": 0.5437952849,
				"z": -0.7012916256,
				"element": "C" 
			},
			{
				"x": 3.1960293248,
				"y": 0.9816256187,
				"z": -1.2731526442,
				"element": "C" 
			},
			{
				"x": 1.6938045448,
				"y": -0.3473190472,
				"z": 0.4161679516,
				"element": "C" 
			},
			{
				"x": 0.2858820767,
				"y": -0.4811158407,
				"z": 0.6097175639,
				"element": "C" 
			},
			{
				"x": -0.3294934033,
				"y": 0.2837041317,
				"z": -0.3348915976,
				"element": "N" 
			},
			{
				"x": -0.2162462556,
				"y": -1.2957659242,
				"z": 1.6374012253,
				"element": "C" 
			},
			{
				"x": 0.6722250835,
				"y": -1.9761468187,
				"z": 2.4712767296,
				"element": "C" 
			},
			{
				"x": 2.0520770484,
				"y": -1.8451154139,
				"z": 2.2816699584,
				"element": "C" 
			},
			{
				"x": 2.5674773343,
				"y": -1.0388184,
				"z": 1.2641666854,
				"element": "C" 
			},
			{
				"x": -1.6438721458,
				"y": -1.4348098687,
				"z": 1.8378673927,
				"element": "N" 
			},
			{
				"x": -2.0502649459,
				"y": -2.1563007058,
				"z": 2.7476720035,
				"element": "O" 
			},
			{
				"x": -2.3928868456,
				"y": -0.8077916623,
				"z": 1.0682469899,
				"element": "O" 
			},
			{
				"x": 0.5898644733,
				"y": 2.8249514729,
				"z": -2.1157553054,
				"element": "H" 
			},
			{
				"x": 0.5690717504,
				"y": 1.446069231,
				"z": -3.2185051295,
				"element": "H" 
			},
			{
				"x": -0.8856482502,
				"y": 1.8756375458,
				"z": -2.3145436582,
				"element": "H" 
			},
			{
				"x": 3.7873080225,
				"y": 0.1293968452,
				"z": -1.6303027549,
				"element": "H" 
			},
			{
				"x": 3.0571906079,
				"y": 1.6602539876,
				"z": -2.1193473877,
				"element": "H" 
			},
			{
				"x": 3.8076431388,
				"y": 1.506685965,
				"z": -0.5290422877,
				"element": "H" 
			},
			{
				"x": -1.3340059596,
				"y": 0.3525617963,
				"z": -0.4023162464,
				"element": "H" 
			},
			{
				"x": 0.2649256731,
				"y": -2.5990682225,
				"z": 3.2576359308,
				"element": "H" 
			},
			{
				"x": 2.7279046994,
				"y": -2.3816500711,
				"z": 2.9396920652,
				"element": "H" 
			},
			{
				"x": 3.6423771254,
				"y": -0.9501724996,
				"z": 1.1332131814,
				"element": "H" 
			}
		],
		 "valence_orbital": [ 
			{
				"type": "occ",
				"energy": -0.30146,
				"method": "rhf"
			},
			{
				"type": "occ",
				"energy": -0.28818,
				"method": "rhf"
			},
			{
				"type": "occ",
				"energy": -0.28534,
				"method": "rhf"
			},
			{
				"type": "occ",
				"energy": -0.23704,
				"method": "rhf"
			},
			{
				"type": "occ",
				"energy": -0.21289,
				"method": "rhf"
			},
			{
				"type": "unocc",
				"energy": -0.08302,
				"method": "rhf"
			},
			{
				"type": "unocc",
				"energy": -0.00169,
				"method": "rhf"
			},
			{
				"type": "unocc",
				"energy": 0.01022,
				"method": "rhf"
			},
			{
				"type": "unocc",
				"energy": 0.06119,
				"method": "rhf"
			},
			{
				"type": "unocc",
				"energy": 0.08053,
				"method": "rhf"
			}
		],
		"cosmo_sigma_profile": { 
			"-0.025": 0.0,
			"-0.024": 0.0,
			"-0.023": 0.0,
			"-0.022": 0.0,
			"-0.021": 0.0,
			"-0.02": 0.0,
			"-0.019": 0.0,
			"-0.018": 0.0,
			"-0.017": 0.0,
			"-0.016": 0.0,
			"-0.015": 0.0,
			"-0.014": 0.0,
			"-0.013": 0.46476029682,
			"-0.012": 0.625777071567,
			"-0.011": 1.34539651038,
			"-0.01": 1.28539111564,
			"-0.009": 1.27266580817,
			"-0.008": 0.868427652193,
			"-0.007": 2.54580025203,
			"-0.006": 6.71991806517,
			"-0.005": 12.3362471625,
			"-0.004": 18.3706894383,
			"-0.003": 22.5127731582,
			"-0.002": 21.1639370118,
			"-0.001": 22.2717303576,
			"0.0": 20.299778489,
			"0.001": 15.9706209851,
			"0.002": 14.9128417279,
			"0.003": 16.1060843957,
			"0.004": 14.1045799886,
			"0.005": 4.77955079663,
			"0.006": 2.88731281187,
			"0.007": 4.28560063989,
			"0.008": 7.02574420639,
			"0.009": 4.88597892173,
			"0.01": 4.06186148327,
			"0.011": 1.80552065138,
			"0.012": 0.039132505176,
			"0.013": 0.0,
			"0.014": 0.0,
			"0.015": 0.0,
			"0.016": 0.0,
			"0.017": 0.0,
			"0.018": 0.0,
			"0.019": 0.0,
			"0.02": 0.0,
			"0.021": 0.0,
			"0.022": 0.0,
			"0.023": 0.0,
			"0.024": 0.0,
			"0.025": 0.0
		}
	}
}
