{
	 "smiles": "CN(C)S(=O)(=O)C1=CC=C(NC(=O)CCl)C=C1", 
	 "Tm": 389.15, 
	 "num_atms": 30, 
	 "gaussian": { 
		 "optdone": 1, 
		 "sigma_profile": "yes", 
		 "theory": "DFT", 
		 "functional": "B3LYP", 
		 "basiset": "6-31G**", 
		 "properties": { 
			 "R2extent": 8220.8955, 
			 "electric_dipole_moment_norm": 4.99694489063, 
			 "electric_quadrupole_moment_norm": 21.9826027965, 
			 "total_energy": -1582.39825454, 
			 "HOMO_LUMO_gap": 0.19289, 
			 "cosmo_polarized_energy": -19.28, 
			 "cosmo_cavitation_energy": 36.8, 
			 "cosmo_dispersion_energy": -26.88, 
			 "cosmo_repulsion_energy": 2.04, 
			 "cosmo_total_nonelectrostatic_energy": 11.96, 
			 "SMD_solvation_energy": 5.32 
		},
		"coords": [
			{
				"x": -3.6835338861,
				"y": -3.5898266293,
				"z": 2.5446709753,
				"element": "C" 
			},
			{
				"x": -2.4520246444,
				"y": -2.7903875577,
				"z": 2.4560038651,
				"element": "N" 
			},
			{
				"x": -1.3923333474,
				"y": -3.2417254589,
				"z": 3.3656600656,
				"element": "C" 
			},
			{
				"x": -2.7161792538,
				"y": -1.1048884546,
				"z": 2.4993909968,
				"element": "S" 
			},
			{
				"x": -2.6253039859,
				"y": -0.5870221017,
				"z": 3.8728972297,
				"element": "O" 
			},
			{
				"x": -3.9176744749,
				"y": -0.8656979721,
				"z": 1.6926220185,
				"element": "O" 
			},
			{
				"x": -1.2883965197,
				"y": -0.5038650959,
				"z": 1.6015036282,
				"element": "C" 
			},
			{
				"x": -1.1941984531,
				"y": -0.7379358661,
				"z": 0.2264010289,
				"element": "C" 
			},
			{
				"x": -0.1071425862,
				"y": -0.2355241454,
				"z": -0.4733134385,
				"element": "C" 
			},
			{
				"x": 0.8883759782,
				"y": 0.5063147279,
				"z": 0.1894479526,
				"element": "C" 
			},
			{
				"x": 1.9570082142,
				"y": 0.9816579424,
				"z": -0.5943216979,
				"element": "N" 
			},
			{
				"x": 3.0439227261,
				"y": 1.7042694608,
				"z": -0.1953591884,
				"element": "C" 
			},
			{
				"x": 3.2877186135,
				"y": 2.0731935375,
				"z": 0.943671647,
				"element": "O" 
			},
			{
				"x": 4.0563512354,
				"y": 2.0953031525,
				"z": -1.2784612218,
				"element": "C" 
			},
			{
				"x": 3.7238424498,
				"y": 1.5260191614,
				"z": -2.9695889617,
				"element": "Cl" 
			},
			{
				"x": 0.7820358638,
				"y": 0.7446980986,
				"z": 1.5681084058,
				"element": "C" 
			},
			{
				"x": -0.313055505,
				"y": 0.23744461,
				"z": 2.266679213,
				"element": "C" 
			},
			{
				"x": -4.4257147907,
				"y": -3.1893687786,
				"z": 1.8552109994,
				"element": "H" 
			},
			{
				"x": -4.1059229178,
				"y": -3.6091279353,
				"z": 3.5596443057,
				"element": "H" 
			},
			{
				"x": -3.4356154911,
				"y": -4.6132150957,
				"z": 2.2482627909,
				"element": "H" 
			},
			{
				"x": -1.680143368,
				"y": -3.1686305823,
				"z": 4.4228171097,
				"element": "H" 
			},
			{
				"x": -0.4862543083,
				"y": -2.6531219233,
				"z": 3.2046897094,
				"element": "H" 
			},
			{
				"x": -1.1648833696,
				"y": -4.2841138858,
				"z": 3.1253986047,
				"element": "H" 
			},
			{
				"x": -1.9665739548,
				"y": -1.301229116,
				"z": -0.2852398456,
				"element": "H" 
			},
			{
				"x": -0.0261861101,
				"y": -0.412480215,
				"z": -1.5428369301,
				"element": "H" 
			},
			{
				"x": 1.9166634691,
				"y": 0.7600807666,
				"z": -1.5814252406,
				"element": "H" 
			},
			{
				"x": 4.1146424409,
				"y": 3.183609059,
				"z": -1.3109357376,
				"element": "H" 
			},
			{
				"x": 5.029967195,
				"y": 1.6988015702,
				"z": -0.9900027802,
				"element": "H" 
			},
			{
				"x": 1.5451853099,
				"y": 1.3200178949,
				"z": 2.072228275,
				"element": "H" 
			},
			{
				"x": -0.4196765289,
				"y": 0.4230508319,
				"z": 3.3298762211,
				"element": "H" 
			}
		],
		 "valence_orbital": [ 
			{
				"type": "occ",
				"energy": -0.29629,
				"method": "rhf"
			},
			{
				"type": "occ",
				"energy": -0.2796,
				"method": "rhf"
			},
			{
				"type": "occ",
				"energy": -0.2758,
				"method": "rhf"
			},
			{
				"type": "occ",
				"energy": -0.2583,
				"method": "rhf"
			},
			{
				"type": "occ",
				"energy": -0.24247,
				"method": "rhf"
			},
			{
				"type": "unocc",
				"energy": -0.04958,
				"method": "rhf"
			},
			{
				"type": "unocc",
				"energy": -0.0249,
				"method": "rhf"
			},
			{
				"type": "unocc",
				"energy": -0.00219,
				"method": "rhf"
			},
			{
				"type": "unocc",
				"energy": 0.01091,
				"method": "rhf"
			},
			{
				"type": "unocc",
				"energy": 0.06035,
				"method": "rhf"
			}
		],
		"cosmo_sigma_profile": { 
			"-0.025": 0.0,
			"-0.024": 0.0,
			"-0.023": 0.0,
			"-0.022": 0.0,
			"-0.021": 0.0,
			"-0.02": 0.0,
			"-0.019": 0.0,
			"-0.018": 0.0,
			"-0.017": 0.0,
			"-0.016": 0.0,
			"-0.015": 0.00878748468146,
			"-0.014": 0.725184078404,
			"-0.013": 1.09921822771,
			"-0.012": 1.0330134545,
			"-0.011": 1.13302177315,
			"-0.01": 2.4993483518,
			"-0.009": 5.70156516586,
			"-0.008": 6.5821115202,
			"-0.007": 9.83601667383,
			"-0.006": 15.7456032323,
			"-0.005": 17.8734426597,
			"-0.004": 22.5587641403,
			"-0.003": 23.4296137314,
			"-0.002": 26.6632367069,
			"-0.001": 16.5787478063,
			"0.0": 17.5684782231,
			"0.001": 18.3278102616,
			"0.002": 23.8385609771,
			"0.003": 14.287712812,
			"0.004": 10.3802481252,
			"0.005": 12.2613095923,
			"0.006": 5.06222055821,
			"0.007": 4.27437020844,
			"0.008": 5.38860886787,
			"0.009": 5.65678383033,
			"0.01": 7.67083132706,
			"0.011": 10.8787368101,
			"0.012": 7.32865304294,
			"0.013": 0.667994617562,
			"0.014": 0.0,
			"0.015": 0.0,
			"0.016": 0.0,
			"0.017": 0.0,
			"0.018": 0.0,
			"0.019": 0.0,
			"0.02": 0.0,
			"0.021": 0.0,
			"0.022": 0.0,
			"0.023": 0.0,
			"0.024": 0.0,
			"0.025": 0.0
		}
	}
}
