{
	 "smiles": "OCP(CO)C1=CC=CC=C1", 
	 "Tm": 330.15, 
	 "num_atms": 22, 
	 "gaussian": { 
		 "optdone": 1, 
		 "sigma_profile": "yes", 
		 "theory": "DFT", 
		 "functional": "B3LYP", 
		 "basiset": "6-31G**", 
		 "properties": { 
			 "R2extent": 2254.4371, 
			 "electric_dipole_moment_norm": 3.15594510725, 
			 "electric_quadrupole_moment_norm": 16.9989108781, 
			 "total_energy": -803.243736871, 
			 "HOMO_LUMO_gap": 0.20663, 
			 "cosmo_polarized_energy": -12.09, 
			 "cosmo_cavitation_energy": 26.15, 
			 "cosmo_dispersion_energy": -19.8, 
			 "cosmo_repulsion_energy": 1.76, 
			 "cosmo_total_nonelectrostatic_energy": 8.11, 
			 "SMD_solvation_energy": 5.08 
		},
		"coords": [
			{
				"x": 3.0055552008,
				"y": 0.8657541937,
				"z": -0.094338451,
				"element": "O" 
			},
			{
				"x": 2.1875756306,
				"y": 2.013603297,
				"z": 0.1295867496,
				"element": "C" 
			},
			{
				"x": 0.6842592041,
				"y": 1.6708483351,
				"z": 1.1956373777,
				"element": "P" 
			},
			{
				"x": 1.4427514043,
				"y": 0.4655832599,
				"z": 2.44433283,
				"element": "C" 
			},
			{
				"x": 0.4322371573,
				"y": -0.1450381927,
				"z": 3.2284368099,
				"element": "O" 
			},
			{
				"x": -0.2996694796,
				"y": 0.4630258656,
				"z": 0.1911152061,
				"element": "C" 
			},
			{
				"x": -1.6936236063,
				"y": 0.4795493891,
				"z": 0.3758330844,
				"element": "C" 
			},
			{
				"x": -2.5210890946,
				"y": -0.4101633349,
				"z": -0.313305704,
				"element": "C" 
			},
			{
				"x": -1.9674095831,
				"y": -1.3213095685,
				"z": -1.2130938754,
				"element": "C" 
			},
			{
				"x": -0.5847836088,
				"y": -1.3441910779,
				"z": -1.4137577707,
				"element": "C" 
			},
			{
				"x": 0.2455124607,
				"y": -0.4677109183,
				"z": -0.7138275796,
				"element": "C" 
			},
			{
				"x": 3.7534110517,
				"y": 1.1318456328,
				"z": -0.6458790729,
				"element": "H" 
			},
			{
				"x": 2.7513310865,
				"y": 2.8028395083,
				"z": 0.651032328,
				"element": "H" 
			},
			{
				"x": 1.819619955,
				"y": 2.446153846,
				"z": -0.8130842314,
				"element": "H" 
			},
			{
				"x": 2.0786239501,
				"y": -0.2666149662,
				"z": 1.9308567834,
				"element": "H" 
			},
			{
				"x": 2.0715328079,
				"y": 1.0400508242,
				"z": 3.1317650829,
				"element": "H" 
			},
			{
				"x": -0.1129349674,
				"y": -0.6767346209,
				"z": 2.6319377572,
				"element": "H" 
			},
			{
				"x": -2.131499236,
				"y": 1.203199229,
				"z": 1.0585912148,
				"element": "H" 
			},
			{
				"x": -3.5954776427,
				"y": -0.3834577135,
				"z": -0.1540624577,
				"element": "H" 
			},
			{
				"x": -2.6087873879,
				"y": -2.0093559931,
				"z": -1.7568472877,
				"element": "H" 
			},
			{
				"x": -0.1501792717,
				"y": -2.0525019873,
				"z": -2.1141832083,
				"element": "H" 
			},
			{
				"x": 1.3193439691,
				"y": -0.4959750075,
				"z": -0.8645455855,
				"element": "H" 
			}
		],
		 "valence_orbital": [ 
			{
				"type": "occ",
				"energy": -0.28426,
				"method": "rhf"
			},
			{
				"type": "occ",
				"energy": -0.26084,
				"method": "rhf"
			},
			{
				"type": "occ",
				"energy": -0.25499,
				"method": "rhf"
			},
			{
				"type": "occ",
				"energy": -0.25145,
				"method": "rhf"
			},
			{
				"type": "occ",
				"energy": -0.22477,
				"method": "rhf"
			},
			{
				"type": "unocc",
				"energy": -0.01814,
				"method": "rhf"
			},
			{
				"type": "unocc",
				"energy": -0.00421,
				"method": "rhf"
			},
			{
				"type": "unocc",
				"energy": 0.04705,
				"method": "rhf"
			},
			{
				"type": "unocc",
				"energy": 0.05627,
				"method": "rhf"
			},
			{
				"type": "unocc",
				"energy": 0.06976,
				"method": "rhf"
			}
		],
		"cosmo_sigma_profile": { 
			"-0.025": 0.0,
			"-0.024": 0.0,
			"-0.023": 0.0,
			"-0.022": 0.0,
			"-0.021": 0.0,
			"-0.02": 0.0,
			"-0.019": 0.0,
			"-0.018": 0.0,
			"-0.017": 0.0,
			"-0.016": 0.782594691523,
			"-0.015": 1.23772259678,
			"-0.014": 1.01794852166,
			"-0.013": 0.823058867238,
			"-0.012": 2.1109771006,
			"-0.011": 1.32550556666,
			"-0.01": 1.63026813439,
			"-0.009": 1.26981030788,
			"-0.008": 1.63348611382,
			"-0.007": 2.19130673544,
			"-0.006": 7.88181956604,
			"-0.005": 19.7850965713,
			"-0.004": 18.3771246934,
			"-0.003": 17.8587644174,
			"-0.002": 14.581472032,
			"-0.001": 13.6072648629,
			"0.0": 11.4058912991,
			"0.001": 11.0233772843,
			"0.002": 12.699220249,
			"0.003": 12.4102519035,
			"0.004": 11.5397305751,
			"0.005": 11.9239992953,
			"0.006": 6.36882118989,
			"0.007": 3.64357491303,
			"0.008": 3.87583488917,
			"0.009": 3.08038354225,
			"0.01": 2.91694679096,
			"0.011": 3.04711585457,
			"0.012": 1.37057970233,
			"0.013": 3.14142176712,
			"0.014": 2.78266037145,
			"0.015": 0.374887524849,
			"0.016": 0.0,
			"0.017": 0.0,
			"0.018": 0.0,
			"0.019": 0.0,
			"0.02": 0.0,
			"0.021": 0.0,
			"0.022": 0.0,
			"0.023": 0.0,
			"0.024": 0.0,
			"0.025": 0.0
		}
	}
}
