{
	 "smiles": "CC(O)CC1=C(O)C2=CC=C3C(C)=C(C)C(=O)CC3(C)C2=C(O)C1=O", 
	 "Tm": 460.15, 
	 "num_atms": 47, 
	 "gaussian": { 
		 "optdone": 1, 
		 "sigma_profile": "yes", 
		 "theory": "DFT", 
		 "functional": "B3LYP", 
		 "basiset": "6-31G**", 
		 "properties": { 
			 "R2extent": 10612.7272, 
			 "electric_dipole_moment_norm": 6.91312434721, 
			 "electric_quadrupole_moment_norm": 23.7367825865, 
			 "total_energy": -1151.48652255, 
			 "HOMO_LUMO_gap": 0.09474, 
			 "cosmo_polarized_energy": -24.96, 
			 "cosmo_cavitation_energy": 46.76, 
			 "cosmo_dispersion_energy": -32.93, 
			 "cosmo_repulsion_energy": 2.47, 
			 "cosmo_total_nonelectrostatic_energy": 16.3, 
			 "SMD_solvation_energy": 9.17 
		},
		"coords": [
			{
				"x": -5.2654621005,
				"y": 0.9907404004,
				"z": 2.870734806,
				"element": "C" 
			},
			{
				"x": -3.9676775049,
				"y": 1.0883563532,
				"z": 2.0663034384,
				"element": "C" 
			},
			{
				"x": -4.1712572509,
				"y": 1.756002953,
				"z": 0.8285267907,
				"element": "O" 
			},
			{
				"x": -3.4048820367,
				"y": -0.3048461775,
				"z": 1.7240660709,
				"element": "C" 
			},
			{
				"x": -2.1273927672,
				"y": -0.2812980864,
				"z": 0.9208671355,
				"element": "C" 
			},
			{
				"x": -0.9045364555,
				"y": 0.0366783266,
				"z": 1.4437172908,
				"element": "C" 
			},
			{
				"x": -0.7229877726,
				"y": 0.3320654381,
				"z": 2.7622397282,
				"element": "O" 
			},
			{
				"x": 0.3102711728,
				"y": 0.0919021921,
				"z": 0.6396773498,
				"element": "C" 
			},
			{
				"x": 1.5014389744,
				"y": 0.4397152958,
				"z": 1.2231825539,
				"element": "C" 
			},
			{
				"x": 2.7043287508,
				"y": 0.5842043953,
				"z": 0.4650947061,
				"element": "C" 
			},
			{
				"x": 2.7576588421,
				"y": 0.3475330252,
				"z": -0.8776215941,
				"element": "C" 
			},
			{
				"x": 3.9864410179,
				"y": 0.6022817705,
				"z": -1.6415481307,
				"element": "C" 
			},
			{
				"x": 5.2741731236,
				"y": 0.7166171226,
				"z": -0.8520442786,
				"element": "C" 
			},
			{
				"x": 3.9541208001,
				"y": 0.7490938359,
				"z": -3.0021861873,
				"element": "C" 
			},
			{
				"x": 5.1438061799,
				"y": 0.9907522805,
				"z": -3.8930990627,
				"element": "C" 
			},
			{
				"x": 2.6566650115,
				"y": 0.7026427835,
				"z": -3.7292229939,
				"element": "C" 
			},
			{
				"x": 2.620838327,
				"y": 0.8150085086,
				"z": -4.9489723602,
				"element": "O" 
			},
			{
				"x": 1.379005624,
				"y": 0.5807784681,
				"z": -2.9236303934,
				"element": "C" 
			},
			{
				"x": 1.5487610336,
				"y": -0.227334787,
				"z": -1.6135595525,
				"element": "C" 
			},
			{
				"x": 1.8583539659,
				"y": -1.7216738895,
				"z": -1.9457855836,
				"element": "C" 
			},
			{
				"x": 0.2570776821,
				"y": -0.2016841133,
				"z": -0.7831842319,
				"element": "C" 
			},
			{
				"x": -0.9533863967,
				"y": -0.5556889114,
				"z": -1.3004995954,
				"element": "C" 
			},
			{
				"x": -1.1647415634,
				"y": -0.9195162841,
				"z": -2.5844752805,
				"element": "O" 
			},
			{
				"x": -2.1918048843,
				"y": -0.6141860513,
				"z": -0.4883843265,
				"element": "C" 
			},
			{
				"x": -3.227462197,
				"y": -0.9772328245,
				"z": -1.0778242944,
				"element": "O" 
			},
			{
				"x": -5.6590488018,
				"y": 1.9887616631,
				"z": 3.0964535427,
				"element": "H" 
			},
			{
				"x": -5.1102599417,
				"y": 0.4743047185,
				"z": 3.8245466666,
				"element": "H" 
			},
			{
				"x": -6.023181411,
				"y": 0.4468521208,
				"z": 2.2982399481,
				"element": "H" 
			},
			{
				"x": -3.2202057511,
				"y": 1.6392779022,
				"z": 2.6674074539,
				"element": "H" 
			},
			{
				"x": -4.5137862042,
				"y": 2.6392951794,
				"z": 1.0158820992,
				"element": "H" 
			},
			{
				"x": -3.2773422283,
				"y": -0.8691687968,
				"z": 2.6607029792,
				"element": "H" 
			},
			{
				"x": -4.1551077173,
				"y": -0.8381429057,
				"z": 1.1329606742,
				"element": "H" 
			},
			{
				"x": -1.5646201688,
				"y": 0.2344060944,
				"z": 3.2258491857,
				"element": "H" 
			},
			{
				"x": 1.5254592839,
				"y": 0.651362969,
				"z": 2.2858055061,
				"element": "H" 
			},
			{
				"x": 3.5810096554,
				"y": 0.9448406944,
				"z": 0.9915746954,
				"element": "H" 
			},
			{
				"x": 6.1545081913,
				"y": 0.6365505008,
				"z": -1.4873638266,
				"element": "H" 
			},
			{
				"x": 5.3371973913,
				"y": -0.0691179021,
				"z": -0.0936484887,
				"element": "H" 
			},
			{
				"x": 5.3338743643,
				"y": 1.6787539566,
				"z": -0.3281871047,
				"element": "H" 
			},
			{
				"x": 5.3518631404,
				"y": 0.1001915236,
				"z": -4.4988506735,
				"element": "H" 
			},
			{
				"x": 6.0499411139,
				"y": 1.2557530292,
				"z": -3.3495609068,
				"element": "H" 
			},
			{
				"x": 4.9143888544,
				"y": 1.7865877744,
				"z": -4.606586143,
				"element": "H" 
			},
			{
				"x": 0.6090481734,
				"y": 0.1497762713,
				"z": -3.5624210119,
				"element": "H" 
			},
			{
				"x": 1.0564786745,
				"y": 1.600927105,
				"z": -2.6716399969,
				"element": "H" 
			},
			{
				"x": 1.0204772978,
				"y": -2.1549007281,
				"z": -2.4960495235,
				"element": "H" 
			},
			{
				"x": 2.0031319256,
				"y": -2.2909784447,
				"z": -1.0232595894,
				"element": "H" 
			},
			{
				"x": 2.7633683971,
				"y": -1.8157061514,
				"z": -2.5519246741,
				"element": "H" 
			},
			{
				"x": -2.132143815,
				"y": -1.1116385982,
				"z": -2.6007028167,
				"element": "H" 
			}
		],
		 "valence_orbital": [ 
			{
				"type": "occ",
				"energy": -0.25797,
				"method": "rhf"
			},
			{
				"type": "occ",
				"energy": -0.2552,
				"method": "rhf"
			},
			{
				"type": "occ",
				"energy": -0.23753,
				"method": "rhf"
			},
			{
				"type": "occ",
				"energy": -0.22531,
				"method": "rhf"
			},
			{
				"type": "occ",
				"energy": -0.19485,
				"method": "rhf"
			},
			{
				"type": "unocc",
				"energy": -0.10011,
				"method": "rhf"
			},
			{
				"type": "unocc",
				"energy": -0.04468,
				"method": "rhf"
			},
			{
				"type": "unocc",
				"energy": 0.00832,
				"method": "rhf"
			},
			{
				"type": "unocc",
				"energy": 0.01795,
				"method": "rhf"
			},
			{
				"type": "unocc",
				"energy": 0.04555,
				"method": "rhf"
			}
		],
		"cosmo_sigma_profile": { 
			"-0.025": 0.0,
			"-0.024": 0.0,
			"-0.023": 0.0,
			"-0.022": 0.0,
			"-0.021": 0.0,
			"-0.02": 0.0,
			"-0.019": 0.0,
			"-0.018": 0.0452284492377,
			"-0.017": 0.475056449499,
			"-0.016": 0.787046017211,
			"-0.015": 2.23003118391,
			"-0.014": 1.66748880787,
			"-0.013": 1.52429151185,
			"-0.012": 2.25438849523,
			"-0.011": 2.37592876077,
			"-0.01": 2.34755011495,
			"-0.009": 2.17258532693,
			"-0.008": 2.2042920211,
			"-0.007": 6.62019053759,
			"-0.006": 13.6697632088,
			"-0.005": 16.8176404777,
			"-0.004": 23.4841694904,
			"-0.003": 31.1877045345,
			"-0.002": 34.7413234538,
			"-0.001": 41.4454562355,
			"0.0": 45.8086323204,
			"0.001": 34.3766981709,
			"0.002": 20.1455540009,
			"0.003": 10.4631793251,
			"0.004": 8.55841425334,
			"0.005": 7.57780833745,
			"0.006": 6.24802165726,
			"0.007": 8.07118109902,
			"0.008": 5.23925034999,
			"0.009": 4.12554358813,
			"0.01": 4.55646214953,
			"0.011": 6.46844997786,
			"0.012": 8.96322934777,
			"0.013": 7.91248814257,
			"0.014": 2.98899665718,
			"0.015": 0.102885341875,
			"0.016": 0.0,
			"0.017": 0.0,
			"0.018": 0.0,
			"0.019": 0.0,
			"0.02": 0.0,
			"0.021": 0.0,
			"0.022": 0.0,
			"0.023": 0.0,
			"0.024": 0.0,
			"0.025": 0.0
		}
	}
}
