{
	 "smiles": "FC(F)(F)C(C(=O)NC1=CC=CC=C1)C(F)(F)F", 
	 "Tm": 439.15, 
	 "num_atms": 25, 
	 "gaussian": { 
		 "optdone": 1, 
		 "sigma_profile": "yes", 
		 "theory": "DFT", 
		 "functional": "B3LYP", 
		 "basiset": "6-31G**", 
		 "properties": { 
			 "R2extent": 4816.2158, 
			 "electric_dipole_moment_norm": 1.8764309553, 
			 "electric_quadrupole_moment_norm": 8.14162651317, 
			 "total_energy": -1114.32688348, 
			 "HOMO_LUMO_gap": 0.20156, 
			 "cosmo_polarized_energy": -9.28, 
			 "cosmo_cavitation_energy": 31.91, 
			 "cosmo_dispersion_energy": -21.79, 
			 "cosmo_repulsion_energy": 1.56, 
			 "cosmo_total_nonelectrostatic_energy": 11.68, 
			 "SMD_solvation_energy": 7.95 
		},
		"coords": [
			{
				"x": -1.6501987411,
				"y": 2.4115644648,
				"z": -0.5034277157,
				"element": "F" 
			},
			{
				"x": -0.3419995342,
				"y": 2.5179702189,
				"z": -0.2131074673,
				"element": "C" 
			},
			{
				"x": 0.3529386442,
				"y": 2.1237983652,
				"z": -1.307554015,
				"element": "F" 
			},
			{
				"x": -0.0648661425,
				"y": 3.8158274068,
				"z": -0.0082179948,
				"element": "F" 
			},
			{
				"x": -0.0107697755,
				"y": 1.6697667401,
				"z": 1.0155966592,
				"element": "C" 
			},
			{
				"x": -0.542012143,
				"y": 0.2148438964,
				"z": 0.8966422546,
				"element": "C" 
			},
			{
				"x": -1.4004923746,
				"y": -0.173535101,
				"z": 1.6710956676,
				"element": "O" 
			},
			{
				"x": 0.0279183477,
				"y": -0.5164093114,
				"z": -0.1048120812,
				"element": "N" 
			},
			{
				"x": -0.2326866295,
				"y": -1.8583738097,
				"z": -0.4737131395,
				"element": "C" 
			},
			{
				"x": 0.5015693924,
				"y": -2.3712905174,
				"z": -1.5538437357,
				"element": "C" 
			},
			{
				"x": 0.3030417289,
				"y": -3.6820455061,
				"z": -1.9774698646,
				"element": "C" 
			},
			{
				"x": -0.6286571534,
				"y": -4.4962409117,
				"z": -1.3302526531,
				"element": "C" 
			},
			{
				"x": -1.3561019537,
				"y": -3.9814410181,
				"z": -0.2568007573,
				"element": "C" 
			},
			{
				"x": -1.1700857005,
				"y": -2.6697027282,
				"z": 0.1814206423,
				"element": "C" 
			},
			{
				"x": 1.4697314702,
				"y": 1.7252293412,
				"z": 1.3949146765,
				"element": "C" 
			},
			{
				"x": 2.2696253679,
				"y": 1.2837538268,
				"z": 0.3941556465,
				"element": "F" 
			},
			{
				"x": 1.8573445662,
				"y": 2.9750949498,
				"z": 1.6962068525,
				"element": "F" 
			},
			{
				"x": 1.6965400351,
				"y": 0.9480303054,
				"z": 2.4679992259,
				"element": "F" 
			},
			{
				"x": -0.5649589359,
				"y": 2.0997706129,
				"z": 1.8519049163,
				"element": "H" 
			},
			{
				"x": 0.7287520812,
				"y": -0.0459371278,
				"z": -0.660800301,
				"element": "H" 
			},
			{
				"x": 1.228296745,
				"y": -1.7405149966,
				"z": -2.0608713717,
				"element": "H" 
			},
			{
				"x": 0.8786024932,
				"y": -4.0652355756,
				"z": -2.8148553113,
				"element": "H" 
			},
			{
				"x": -0.7846788119,
				"y": -5.5188665694,
				"z": -1.6595261652,
				"element": "H" 
			},
			{
				"x": -2.0834908284,
				"y": -4.6056473196,
				"z": 0.2541341659,
				"element": "H" 
			},
			{
				"x": -1.7337621478,
				"y": -2.2716096356,
				"z": 1.0127818662,
				"element": "H" 
			}
		],
		 "valence_orbital": [ 
			{
				"type": "occ",
				"energy": -0.35367,
				"method": "rhf"
			},
			{
				"type": "occ",
				"energy": -0.3205,
				"method": "rhf"
			},
			{
				"type": "occ",
				"energy": -0.27862,
				"method": "rhf"
			},
			{
				"type": "occ",
				"energy": -0.25882,
				"method": "rhf"
			},
			{
				"type": "occ",
				"energy": -0.23302,
				"method": "rhf"
			},
			{
				"type": "unocc",
				"energy": -0.03146,
				"method": "rhf"
			},
			{
				"type": "unocc",
				"energy": -0.00908,
				"method": "rhf"
			},
			{
				"type": "unocc",
				"energy": 0.02514,
				"method": "rhf"
			},
			{
				"type": "unocc",
				"energy": 0.06892,
				"method": "rhf"
			},
			{
				"type": "unocc",
				"energy": 0.08076,
				"method": "rhf"
			}
		],
		"cosmo_sigma_profile": { 
			"-0.025": 0.0,
			"-0.024": 0.0,
			"-0.023": 0.0,
			"-0.022": 0.0,
			"-0.021": 0.0,
			"-0.02": 0.0,
			"-0.019": 0.0,
			"-0.018": 0.0,
			"-0.017": 0.0,
			"-0.016": 0.0,
			"-0.015": 0.0182348946966,
			"-0.014": 0.564273482689,
			"-0.013": 0.539937014841,
			"-0.012": 1.89900330758,
			"-0.011": 3.1512165175,
			"-0.01": 3.09519751431,
			"-0.009": 2.49025344453,
			"-0.008": 2.346267339,
			"-0.007": 3.24064675923,
			"-0.006": 8.42258673561,
			"-0.005": 11.3352856236,
			"-0.004": 11.8532121167,
			"-0.003": 14.0821531944,
			"-0.002": 14.7628277417,
			"-0.001": 16.6310495047,
			"0.0": 20.5018027051,
			"0.001": 43.9579325722,
			"0.002": 49.7204946504,
			"0.003": 10.8414114452,
			"0.004": 11.5660367861,
			"0.005": 11.1510604331,
			"0.006": 2.81776754924,
			"0.007": 0.935404197927,
			"0.008": 1.58327388144,
			"0.009": 2.08960915887,
			"0.01": 2.0308091752,
			"0.011": 2.67975454268,
			"0.012": 1.86826071297,
			"0.013": 0.108827420536,
			"0.014": 0.0,
			"0.015": 0.0,
			"0.016": 0.0,
			"0.017": 0.0,
			"0.018": 0.0,
			"0.019": 0.0,
			"0.02": 0.0,
			"0.021": 0.0,
			"0.022": 0.0,
			"0.023": 0.0,
			"0.024": 0.0,
			"0.025": 0.0
		}
	}
}
