{
	 "smiles": "COC1=CC2=C(C=C1)N(C)C=C2C=O", 
	 "Tm": 408.15, 
	 "num_atms": 25, 
	 "gaussian": { 
		 "optdone": 1, 
		 "sigma_profile": "yes", 
		 "theory": "DFT", 
		 "functional": "B3LYP", 
		 "basiset": "6-31G**", 
		 "properties": { 
			 "R2extent": 3331.7334, 
			 "electric_dipole_moment_norm": 6.50344577436, 
			 "electric_quadrupole_moment_norm": 19.0223229885, 
			 "total_energy": -630.983302912, 
			 "HOMO_LUMO_gap": 0.16652, 
			 "cosmo_polarized_energy": -16.75, 
			 "cosmo_cavitation_energy": 29.05, 
			 "cosmo_dispersion_energy": -21.11, 
			 "cosmo_repulsion_energy": 1.63, 
			 "cosmo_total_nonelectrostatic_energy": 9.57, 
			 "SMD_solvation_energy": 6.8 
		},
		"coords": [
			{
				"x": -0.4031235393,
				"y": 2.828907964,
				"z": 2.3080369166,
				"element": "C" 
			},
			{
				"x": -0.916364745,
				"y": 2.1263635477,
				"z": 1.1913267073,
				"element": "O" 
			},
			{
				"x": -0.1191079626,
				"y": 1.198089263,
				"z": 0.5763053662,
				"element": "C" 
			},
			{
				"x": -0.6932596889,
				"y": 0.5449422354,
				"z": -0.5173176927,
				"element": "C" 
			},
			{
				"x": 0.0637580646,
				"y": -0.4149450606,
				"z": -1.1923537832,
				"element": "C" 
			},
			{
				"x": 1.383669106,
				"y": -0.7056386631,
				"z": -0.7617234797,
				"element": "C" 
			},
			{
				"x": 1.9602521227,
				"y": -0.057083144,
				"z": 0.3279248805,
				"element": "C" 
			},
			{
				"x": 1.1963267637,
				"y": 0.8998898104,
				"z": 0.9955784369,
				"element": "C" 
			},
			{
				"x": 1.9040738548,
				"y": -1.6909917931,
				"z": -1.6040059621,
				"element": "N" 
			},
			{
				"x": 3.2316369113,
				"y": -2.2625577875,
				"z": -1.4954159504,
				"element": "C" 
			},
			{
				"x": 0.9562424263,
				"y": -2.0142767906,
				"z": -2.5315821909,
				"element": "C" 
			},
			{
				"x": -0.1940052211,
				"y": -1.2673047261,
				"z": -2.3330944892,
				"element": "C" 
			},
			{
				"x": -1.3966645469,
				"y": -1.3561059723,
				"z": -3.1364297256,
				"element": "C" 
			},
			{
				"x": -2.4109952312,
				"y": -0.6953344507,
				"z": -2.9589472143,
				"element": "O" 
			},
			{
				"x": -1.1977606543,
				"y": 3.5039119631,
				"z": 2.6306072447,
				"element": "H" 
			},
			{
				"x": 0.4847557161,
				"y": 3.4207324346,
				"z": 2.0472772337,
				"element": "H" 
			},
			{
				"x": -0.1498097922,
				"y": 2.1532507442,
				"z": 3.1362224137,
				"element": "H" 
			},
			{
				"x": -1.7027242581,
				"y": 0.7816369223,
				"z": -0.8298844812,
				"element": "H" 
			},
			{
				"x": 2.9702804498,
				"y": -0.2779330717,
				"z": 0.6593219348,
				"element": "H" 
			},
			{
				"x": 1.6298264811,
				"y": 1.4133745679,
				"z": 1.8448975413,
				"element": "H" 
			},
			{
				"x": 3.3672337217,
				"y": -3.006852626,
				"z": -2.281703074,
				"element": "H" 
			},
			{
				"x": 3.3667362735,
				"y": -2.7499744626,
				"z": -0.5237236913,
				"element": "H" 
			},
			{
				"x": 3.9985358593,
				"y": -1.4885872473,
				"z": -1.608763003,
				"element": "H" 
			},
			{
				"x": 1.1600585747,
				"y": -2.7643481027,
				"z": -3.284681444,
				"element": "H" 
			},
			{
				"x": -1.3435706859,
				"y": -2.0974655545,
				"z": -3.967272494,
				"element": "H" 
			}
		],
		 "valence_orbital": [ 
			{
				"type": "occ",
				"energy": -0.30045,
				"method": "rhf"
			},
			{
				"type": "occ",
				"energy": -0.27081,
				"method": "rhf"
			},
			{
				"type": "occ",
				"energy": -0.23249,
				"method": "rhf"
			},
			{
				"type": "occ",
				"energy": -0.21813,
				"method": "rhf"
			},
			{
				"type": "occ",
				"energy": -0.20012,
				"method": "rhf"
			},
			{
				"type": "unocc",
				"energy": -0.0336,
				"method": "rhf"
			},
			{
				"type": "unocc",
				"energy": -0.00371,
				"method": "rhf"
			},
			{
				"type": "unocc",
				"energy": 0.03132,
				"method": "rhf"
			},
			{
				"type": "unocc",
				"energy": 0.07643,
				"method": "rhf"
			},
			{
				"type": "unocc",
				"energy": 0.09886,
				"method": "rhf"
			}
		],
		"cosmo_sigma_profile": { 
			"-0.025": 0.0,
			"-0.024": 0.0,
			"-0.023": 0.0,
			"-0.022": 0.0,
			"-0.021": 0.0,
			"-0.02": 0.0,
			"-0.019": 0.0,
			"-0.018": 0.0,
			"-0.017": 0.0,
			"-0.016": 0.0,
			"-0.015": 0.0,
			"-0.014": 0.0,
			"-0.013": 0.0,
			"-0.012": 0.0,
			"-0.011": 0.0,
			"-0.01": 1.23774132182,
			"-0.009": 3.521780783,
			"-0.008": 3.34114474225,
			"-0.007": 5.47490165671,
			"-0.006": 16.1968135167,
			"-0.005": 24.9787212587,
			"-0.004": 22.06323602,
			"-0.003": 23.2106426015,
			"-0.002": 13.2122484703,
			"-0.001": 10.4645499388,
			"0.0": 8.77082562628,
			"0.001": 10.7037952045,
			"0.002": 11.3135812804,
			"0.003": 11.4728200658,
			"0.004": 15.232097306,
			"0.005": 18.4676297118,
			"0.006": 6.08538915099,
			"0.007": 4.26799332653,
			"0.008": 2.86800423838,
			"0.009": 3.09143881355,
			"0.01": 3.64635868817,
			"0.011": 3.23881055729,
			"0.012": 3.46013575404,
			"0.013": 3.33808270117,
			"0.014": 1.74486686019,
			"0.015": 0.289838783238,
			"0.016": 0.0,
			"0.017": 0.0,
			"0.018": 0.0,
			"0.019": 0.0,
			"0.02": 0.0,
			"0.021": 0.0,
			"0.022": 0.0,
			"0.023": 0.0,
			"0.024": 0.0,
			"0.025": 0.0
		}
	}
}
