{
	 "smiles": "CC1=C(N2[C@H](SC1)[C@H](NC(=O)[C@H](N)C1=CC=CC=C1)C2=O)C(O)=O", 
	 "Tm": 599.95, 
	 "num_atms": 41, 
	 "gaussian": { 
		 "optdone": 1, 
		 "sigma_profile": "yes", 
		 "theory": "DFT", 
		 "functional": "B3LYP", 
		 "basiset": "6-31G**", 
		 "properties": { 
			 "R2extent": 8880.406, 
			 "electric_dipole_moment_norm": 8.96270953507, 
			 "electric_quadrupole_moment_norm": 26.4828327305, 
			 "total_energy": -1483.27219807, 
			 "HOMO_LUMO_gap": 0.18931, 
			 "cosmo_polarized_energy": -28.74, 
			 "cosmo_cavitation_energy": 44.85, 
			 "cosmo_dispersion_energy": -30.59, 
			 "cosmo_repulsion_energy": 2.33, 
			 "cosmo_total_nonelectrostatic_energy": 16.59, 
			 "SMD_solvation_energy": 7.32 
		},
		"coords": [
			{
				"x": 2.8089577679,
				"y": 1.606942992,
				"z": -1.5996731884,
				"element": "C" 
			},
			{
				"x": 2.4729811206,
				"y": 1.0160652018,
				"z": -0.255017817,
				"element": "C" 
			},
			{
				"x": 1.5057218468,
				"y": 1.5082032955,
				"z": 0.5552708602,
				"element": "C" 
			},
			{
				"x": 1.2279137103,
				"y": 0.9012160714,
				"z": 1.7854894846,
				"element": "N" 
			},
			{
				"x": 1.760566876,
				"y": -0.3856018573,
				"z": 2.2642419893,
				"element": "C" 
			},
			{
				"x": 2.1796677907,
				"y": -1.53512935,
				"z": 0.9221328394,
				"element": "S" 
			},
			{
				"x": 3.2308053038,
				"y": -0.2472844508,
				"z": 0.0979699492,
				"element": "C" 
			},
			{
				"x": 0.465165882,
				"y": -0.548065542,
				"z": 3.1260624299,
				"element": "C" 
			},
			{
				"x": -0.5147350964,
				"y": -1.5229191031,
				"z": 2.7164972115,
				"element": "N" 
			},
			{
				"x": -1.3338305476,
				"y": -1.4042560443,
				"z": 1.6398812478,
				"element": "C" 
			},
			{
				"x": -1.333252046,
				"y": -0.4681721712,
				"z": 0.8427192539,
				"element": "O" 
			},
			{
				"x": -2.3097626073,
				"y": -2.5875568785,
				"z": 1.4535809753,
				"element": "C" 
			},
			{
				"x": -2.4907141205,
				"y": -3.3055988423,
				"z": 2.7229824633,
				"element": "N" 
			},
			{
				"x": -1.7739577046,
				"y": -3.5076498294,
				"z": 0.3623381276,
				"element": "C" 
			},
			{
				"x": -2.0782641752,
				"y": -3.2370984648,
				"z": -0.977355794,
				"element": "C" 
			},
			{
				"x": -1.5825775111,
				"y": -4.0529417037,
				"z": -1.9936634369,
				"element": "C" 
			},
			{
				"x": -0.7772640305,
				"y": -5.1506051908,
				"z": -1.6823894641,
				"element": "C" 
			},
			{
				"x": -0.4654610233,
				"y": -5.4225179541,
				"z": -0.349797523,
				"element": "C" 
			},
			{
				"x": -0.9557741251,
				"y": -4.602654246,
				"z": 0.66836614,
				"element": "C" 
			},
			{
				"x": 0.1359617191,
				"y": 0.9027547462,
				"z": 2.6578072093,
				"element": "C" 
			},
			{
				"x": -0.6875884753,
				"y": 1.7278275297,
				"z": 2.9521257699,
				"element": "O" 
			},
			{
				"x": 0.5390477636,
				"y": 2.5822404799,
				"z": 0.0978139521,
				"element": "C" 
			},
			{
				"x": -0.7445688068,
				"y": 2.2047339367,
				"z": 0.0419025167,
				"element": "O" 
			},
			{
				"x": 0.893738412,
				"y": 3.6832361743,
				"z": -0.257538142,
				"element": "O" 
			},
			{
				"x": 2.5580990003,
				"y": 0.9037889793,
				"z": -2.4051982595,
				"element": "H" 
			},
			{
				"x": 2.2950145184,
				"y": 2.5506955013,
				"z": -1.7756276314,
				"element": "H" 
			},
			{
				"x": 3.8885657773,
				"y": 1.7938139948,
				"z": -1.6688419616,
				"element": "H" 
			},
			{
				"x": 2.6508744781,
				"y": -0.231969147,
				"z": 2.8836232848,
				"element": "H" 
			},
			{
				"x": 4.0997392929,
				"y": -0.0503748981,
				"z": 0.7373049337,
				"element": "H" 
			},
			{
				"x": 3.6046393068,
				"y": -0.7194390731,
				"z": -0.8143490346,
				"element": "H" 
			},
			{
				"x": 0.6510584837,
				"y": -0.6619288999,
				"z": 4.1964877712,
				"element": "H" 
			},
			{
				"x": -0.6816671614,
				"y": -2.3512054327,
				"z": 3.2798832536,
				"element": "H" 
			},
			{
				"x": -3.2315527765,
				"y": -2.1212944077,
				"z": 1.0800605031,
				"element": "H" 
			},
			{
				"x": -2.9101204321,
				"y": -4.2148379833,
				"z": 2.5493265305,
				"element": "H" 
			},
			{
				"x": -3.1263892035,
				"y": -2.7916482484,
				"z": 3.3280791077,
				"element": "H" 
			},
			{
				"x": -2.6990260462,
				"y": -2.3799738172,
				"z": -1.2214470296,
				"element": "H" 
			},
			{
				"x": -1.8291329977,
				"y": -3.8331984413,
				"z": -3.0283482162,
				"element": "H" 
			},
			{
				"x": -0.3953762061,
				"y": -5.7892334192,
				"z": -2.4735789548,
				"element": "H" 
			},
			{
				"x": 0.1642607022,
				"y": -6.2715086773,
				"z": -0.0994992226,
				"element": "H" 
			},
			{
				"x": -0.7026478289,
				"y": -4.8144066338,
				"z": 1.7025545539,
				"element": "H" 
			},
			{
				"x": -0.8893168301,
				"y": 1.2791518042,
				"z": 0.3314233171,
				"element": "H" 
			}
		],
		 "valence_orbital": [ 
			{
				"type": "occ",
				"energy": -0.2599,
				"method": "rhf"
			},
			{
				"type": "occ",
				"energy": -0.25869,
				"method": "rhf"
			},
			{
				"type": "occ",
				"energy": -0.25204,
				"method": "rhf"
			},
			{
				"type": "occ",
				"energy": -0.23812,
				"method": "rhf"
			},
			{
				"type": "occ",
				"energy": -0.21805,
				"method": "rhf"
			},
			{
				"type": "unocc",
				"energy": -0.02874,
				"method": "rhf"
			},
			{
				"type": "unocc",
				"energy": -0.02372,
				"method": "rhf"
			},
			{
				"type": "unocc",
				"energy": -0.01212,
				"method": "rhf"
			},
			{
				"type": "unocc",
				"energy": 0.00809,
				"method": "rhf"
			},
			{
				"type": "unocc",
				"energy": 0.01173,
				"method": "rhf"
			}
		],
		"cosmo_sigma_profile": { 
			"-0.025": 0.0,
			"-0.024": 0.0,
			"-0.023": 0.0,
			"-0.022": 0.0,
			"-0.021": 0.0,
			"-0.02": 0.0,
			"-0.019": 0.0,
			"-0.018": 0.0,
			"-0.017": 0.0,
			"-0.016": 0.0,
			"-0.015": 0.0,
			"-0.014": 0.0885666419677,
			"-0.013": 0.762767215568,
			"-0.012": 1.23315713214,
			"-0.011": 3.7097574698,
			"-0.01": 5.23655326462,
			"-0.009": 9.41380820829,
			"-0.008": 11.5594767178,
			"-0.007": 12.1123664753,
			"-0.006": 17.2266643151,
			"-0.005": 26.6623999886,
			"-0.004": 27.6548310623,
			"-0.003": 25.0545047897,
			"-0.002": 22.3889438555,
			"-0.001": 21.2308811933,
			"0.0": 18.5904038124,
			"0.001": 15.8328346182,
			"0.002": 16.5295576353,
			"0.003": 16.5486121935,
			"0.004": 16.967814021,
			"0.005": 18.1953802644,
			"0.006": 15.8317022709,
			"0.007": 8.31687636589,
			"0.008": 10.3027521148,
			"0.009": 8.94825634195,
			"0.01": 9.06288175516,
			"0.011": 11.0613535561,
			"0.012": 6.11383680657,
			"0.013": 0.924258142734,
			"0.014": 0.0,
			"0.015": 0.0,
			"0.016": 0.0,
			"0.017": 0.0,
			"0.018": 0.0,
			"0.019": 0.0,
			"0.02": 0.0,
			"0.021": 0.0,
			"0.022": 0.0,
			"0.023": 0.0,
			"0.024": 0.0,
			"0.025": 0.0
		}
	}
}
