{
	 "smiles": "COC1=CC2=C(C=C1OC)C(N(CC2)C(C)=O)C1=CC=C(Cl)C=C1", 
	 "Tm": 404.15, 
	 "num_atms": 44, 
	 "gaussian": { 
		 "optdone": 1, 
		 "sigma_profile": "yes", 
		 "theory": "DFT", 
		 "functional": "B3LYP", 
		 "basiset": "6-31G**", 
		 "properties": { 
			 "R2extent": 10144.983, 
			 "electric_dipole_moment_norm": 2.74617677872, 
			 "electric_quadrupole_moment_norm": 24.1967953773, 
			 "total_energy": -1476.68705652, 
			 "HOMO_LUMO_gap": 0.19833, 
			 "cosmo_polarized_energy": -15.52, 
			 "cosmo_cavitation_energy": 47.52, 
			 "cosmo_dispersion_energy": -32.57, 
			 "cosmo_repulsion_energy": 2.51, 
			 "cosmo_total_nonelectrostatic_energy": 17.46, 
			 "SMD_solvation_energy": 9.23 
		},
		"coords": [
			{
				"x": -2.1719764871,
				"y": -4.6106520908,
				"z": 3.1744632166,
				"element": "C" 
			},
			{
				"x": -0.8489394641,
				"y": -4.6281936899,
				"z": 2.6326030986,
				"element": "O" 
			},
			{
				"x": -0.4511988474,
				"y": -3.4962211417,
				"z": 1.9666781032,
				"element": "C" 
			},
			{
				"x": 0.6077064575,
				"y": -2.7585313692,
				"z": 2.4764308737,
				"element": "C" 
			},
			{
				"x": 1.1159885693,
				"y": -1.6282707182,
				"z": 1.8164515687,
				"element": "C" 
			},
			{
				"x": 0.5224776566,
				"y": -1.2314002522,
				"z": 0.6139442709,
				"element": "C" 
			},
			{
				"x": -0.5511010016,
				"y": -1.9719885843,
				"z": 0.089425276,
				"element": "C" 
			},
			{
				"x": -1.0398603415,
				"y": -3.1019875481,
				"z": 0.7404545497,
				"element": "C" 
			},
			{
				"x": -2.0552465601,
				"y": -3.8888210131,
				"z": 0.2777428928,
				"element": "O" 
			},
			{
				"x": -2.648540514,
				"y": -3.5528645545,
				"z": -0.9677100005,
				"element": "C" 
			},
			{
				"x": 1.0077303123,
				"y": -0.0212422725,
				"z": -0.1748956344,
				"element": "C" 
			},
			{
				"x": 2.3043389196,
				"y": 0.456800406,
				"z": 0.3385705874,
				"element": "N" 
			},
			{
				"x": 2.4095676279,
				"y": 0.5280387827,
				"z": 1.7912354324,
				"element": "C" 
			},
			{
				"x": 2.2981214462,
				"y": -0.8756817312,
				"z": 2.3919485168,
				"element": "C" 
			},
			{
				"x": 3.2838895507,
				"y": 0.796397188,
				"z": -0.5625691024,
				"element": "C" 
			},
			{
				"x": 4.6290094407,
				"y": 1.2490807931,
				"z": -0.0100140178,
				"element": "C" 
			},
			{
				"x": 3.0933162671,
				"y": 0.7421905621,
				"z": -1.7770036825,
				"element": "O" 
			},
			{
				"x": -0.0022305656,
				"y": 1.131089986,
				"z": -0.2430573053,
				"element": "C" 
			},
			{
				"x": 0.0793329073,
				"y": 2.0372777916,
				"z": -1.3118453432,
				"element": "C" 
			},
			{
				"x": -0.7864421933,
				"y": 3.1256382734,
				"z": -1.3990985209,
				"element": "C" 
			},
			{
				"x": -1.7455831431,
				"y": 3.312583178,
				"z": -0.4030938059,
				"element": "C" 
			},
			{
				"x": -2.8464053349,
				"y": 4.6822658984,
				"z": -0.5064516744,
				"element": "Cl" 
			},
			{
				"x": -1.8490654461,
				"y": 2.4296573464,
				"z": 0.6688727553,
				"element": "C" 
			},
			{
				"x": -0.9764641077,
				"y": 1.3413636094,
				"z": 0.7397208629,
				"element": "C" 
			},
			{
				"x": -2.2943033636,
				"y": -5.5579331295,
				"z": 3.7036810076,
				"element": "H" 
			},
			{
				"x": -2.9285526169,
				"y": -4.5298247554,
				"z": 2.3891011914,
				"element": "H" 
			},
			{
				"x": -2.291941202,
				"y": -3.7830790818,
				"z": 3.8861392216,
				"element": "H" 
			},
			{
				"x": 1.0454651513,
				"y": -3.0926904194,
				"z": 3.4130776597,
				"element": "H" 
			},
			{
				"x": -0.9937379114,
				"y": -1.6504428415,
				"z": -0.846750691,
				"element": "H" 
			},
			{
				"x": -3.4109353967,
				"y": -4.31127704,
				"z": -1.1512537501,
				"element": "H" 
			},
			{
				"x": -3.1220720953,
				"y": -2.5631796537,
				"z": -0.9379025181,
				"element": "H" 
			},
			{
				"x": -1.9134289706,
				"y": -3.5745248969,
				"z": -1.7819300744,
				"element": "H" 
			},
			{
				"x": 1.2139386983,
				"y": -0.3329338538,
				"z": -1.2019135902,
				"element": "H" 
			},
			{
				"x": 3.3480526661,
				"y": 1.0021579661,
				"z": 2.0756755072,
				"element": "H" 
			},
			{
				"x": 1.598620643,
				"y": 1.1649721054,
				"z": 2.1700583153,
				"element": "H" 
			},
			{
				"x": 3.2255559999,
				"y": -1.4279800476,
				"z": 2.1850455416,
				"element": "H" 
			},
			{
				"x": 2.2122632244,
				"y": -0.8069831,
				"z": 3.4832250391,
				"element": "H" 
			},
			{
				"x": 4.5404285139,
				"y": 2.193265583,
				"z": 0.5379520023,
				"element": "H" 
			},
			{
				"x": 5.0724728249,
				"y": 0.5088523755,
				"z": 0.663284215,
				"element": "H" 
			},
			{
				"x": 5.2916283927,
				"y": 1.3995717225,
				"z": -0.8616245844,
				"element": "H" 
			},
			{
				"x": 0.8402595871,
				"y": 1.88788353,
				"z": -2.0720474544,
				"element": "H" 
			},
			{
				"x": -0.7220245532,
				"y": 3.8203203336,
				"z": -2.229497692,
				"element": "H" 
			},
			{
				"x": -2.6024100824,
				"y": 2.5869048458,
				"z": 1.4330989902,
				"element": "H" 
			},
			{
				"x": -1.0708046584,
				"y": 0.6416915082,
				"z": 1.564278746,
				"element": "H" 
			}
		],
		 "valence_orbital": [ 
			{
				"type": "occ",
				"energy": -0.25474,
				"method": "rhf"
			},
			{
				"type": "occ",
				"energy": -0.24731,
				"method": "rhf"
			},
			{
				"type": "occ",
				"energy": -0.23614,
				"method": "rhf"
			},
			{
				"type": "occ",
				"energy": -0.23338,
				"method": "rhf"
			},
			{
				"type": "occ",
				"energy": -0.21449,
				"method": "rhf"
			},
			{
				"type": "unocc",
				"energy": -0.01616,
				"method": "rhf"
			},
			{
				"type": "unocc",
				"energy": -0.01367,
				"method": "rhf"
			},
			{
				"type": "unocc",
				"energy": -0.00426,
				"method": "rhf"
			},
			{
				"type": "unocc",
				"energy": 0.00814,
				"method": "rhf"
			},
			{
				"type": "unocc",
				"energy": 0.02629,
				"method": "rhf"
			}
		],
		"cosmo_sigma_profile": { 
			"-0.025": 0.0,
			"-0.024": 0.0,
			"-0.023": 0.0,
			"-0.022": 0.0,
			"-0.021": 0.0,
			"-0.02": 0.0,
			"-0.019": 0.0,
			"-0.018": 0.0,
			"-0.017": 0.0,
			"-0.016": 0.0,
			"-0.015": 0.0,
			"-0.014": 0.0,
			"-0.013": 0.0,
			"-0.012": 0.0,
			"-0.011": 0.0,
			"-0.01": 0.0,
			"-0.009": 0.0,
			"-0.008": 0.0908618644576,
			"-0.007": 4.08262718691,
			"-0.006": 19.0123656077,
			"-0.005": 31.3321516592,
			"-0.004": 39.1693979357,
			"-0.003": 41.3323077974,
			"-0.002": 34.7856008751,
			"-0.001": 28.5571576629,
			"0.0": 23.2826926806,
			"0.001": 24.6426376484,
			"0.002": 28.0656749713,
			"0.003": 26.8987022142,
			"0.004": 28.9825865915,
			"0.005": 17.2665614633,
			"0.006": 3.46557341016,
			"0.007": 3.64612831048,
			"0.008": 3.58050629539,
			"0.009": 3.29315580323,
			"0.01": 3.44793881869,
			"0.011": 3.9764173774,
			"0.012": 3.21893574701,
			"0.013": 1.76479726988,
			"0.014": 3.65630759488,
			"0.015": 1.29455483708,
			"0.016": 0.0,
			"0.017": 0.0,
			"0.018": 0.0,
			"0.019": 0.0,
			"0.02": 0.0,
			"0.021": 0.0,
			"0.022": 0.0,
			"0.023": 0.0,
			"0.024": 0.0,
			"0.025": 0.0
		}
	}
}
