{
	 "smiles": "CC(C)CC(C)Br", 
	 "Tm": 179.15, 
	 "num_atms": 20, 
	 "gaussian": { 
		 "optdone": 1, 
		 "sigma_profile": "yes", 
		 "theory": "DFT", 
		 "functional": "B3LYP", 
		 "basiset": "6-31G**", 
		 "properties": { 
			 "R2extent": 3658.4642, 
			 "electric_dipole_moment_norm": 2.17529612237, 
			 "electric_quadrupole_moment_norm": 8.75725751534, 
			 "total_energy": -2807.90531684, 
			 "HOMO_LUMO_gap": 0.26803, 
			 "cosmo_polarized_energy": -3.82, 
			 "cosmo_cavitation_energy": 23.44, 
			 "cosmo_dispersion_energy": -17.08, 
			 "cosmo_repulsion_energy": 1.44, 
			 "cosmo_total_nonelectrostatic_energy": 7.8, 
			 "SMD_solvation_energy": 2.96 
		},
		"coords": [
			{
				"x": -0.3851553389,
				"y": -2.0011534287,
				"z": -2.4501649323,
				"element": "C" 
			},
			{
				"x": -0.3016375679,
				"y": -2.3171718272,
				"z": -0.9494613074,
				"element": "C" 
			},
			{
				"x": 1.1404762814,
				"y": -2.6570868805,
				"z": -0.5439166332,
				"element": "C" 
			},
			{
				"x": -0.8320546379,
				"y": -1.1676518327,
				"z": -0.0721655001,
				"element": "C" 
			},
			{
				"x": -2.2779503174,
				"y": -0.7284327933,
				"z": -0.285866363,
				"element": "C" 
			},
			{
				"x": -2.6857597527,
				"y": 0.4499373627,
				"z": 0.586932288,
				"element": "C" 
			},
			{
				"x": -3.5331085611,
				"y": -2.2567492763,
				"z": 0.0902738967,
				"element": "Br" 
			},
			{
				"x": 0.0353623712,
				"y": -2.8213164589,
				"z": -3.0415077457,
				"element": "H" 
			},
			{
				"x": -1.4173452598,
				"y": -1.8582185156,
				"z": -2.7851648145,
				"element": "H" 
			},
			{
				"x": 0.1804435818,
				"y": -1.0932269574,
				"z": -2.6957084948,
				"element": "H" 
			},
			{
				"x": -0.9268106335,
				"y": -3.1970063219,
				"z": -0.7521305479,
				"element": "H" 
			},
			{
				"x": 1.8129608455,
				"y": -1.8088565171,
				"z": -0.7232057648,
				"element": "H" 
			},
			{
				"x": 1.2074441223,
				"y": -2.9165510682,
				"z": 0.5183134982,
				"element": "H" 
			},
			{
				"x": 1.5205022243,
				"y": -3.5071790231,
				"z": -1.1201258645,
				"element": "H" 
			},
			{
				"x": -0.2118404978,
				"y": -0.2744912755,
				"z": -0.2515247736,
				"element": "H" 
			},
			{
				"x": -0.7004359075,
				"y": -1.4259925724,
				"z": 0.985952094,
				"element": "H" 
			},
			{
				"x": -2.4764976525,
				"y": -0.5135205978,
				"z": -1.3364090422,
				"element": "H" 
			},
			{
				"x": -2.0540313849,
				"y": 1.3144530899,
				"z": 0.3469246783,
				"element": "H" 
			},
			{
				"x": -3.7282274937,
				"y": 0.7293735456,
				"z": 0.4192286109,
				"element": "H" 
			},
			{
				"x": -2.5576344207,
				"y": 0.2170413484,
				"z": 1.6479267181,
				"element": "H" 
			}
		],
		 "valence_orbital": [ 
			{
				"type": "occ",
				"energy": -0.32792,
				"method": "rhf"
			},
			{
				"type": "occ",
				"energy": -0.32555,
				"method": "rhf"
			},
			{
				"type": "occ",
				"energy": -0.32079,
				"method": "rhf"
			},
			{
				"type": "occ",
				"energy": -0.266,
				"method": "rhf"
			},
			{
				"type": "occ",
				"energy": -0.26468,
				"method": "rhf"
			},
			{
				"type": "unocc",
				"energy": 0.00335,
				"method": "rhf"
			},
			{
				"type": "unocc",
				"energy": 0.08073,
				"method": "rhf"
			},
			{
				"type": "unocc",
				"energy": 0.10608,
				"method": "rhf"
			},
			{
				"type": "unocc",
				"energy": 0.11519,
				"method": "rhf"
			},
			{
				"type": "unocc",
				"energy": 0.13203,
				"method": "rhf"
			}
		],
		"cosmo_sigma_profile": { 
			"-0.025": 0.0,
			"-0.024": 0.0,
			"-0.023": 0.0,
			"-0.022": 0.0,
			"-0.021": 0.0,
			"-0.02": 0.0,
			"-0.019": 0.0,
			"-0.018": 0.0,
			"-0.017": 0.0,
			"-0.016": 0.0,
			"-0.015": 0.0,
			"-0.014": 0.0,
			"-0.013": 0.0,
			"-0.012": 0.0,
			"-0.011": 0.0,
			"-0.01": 0.0,
			"-0.009": 0.0,
			"-0.008": 0.0,
			"-0.007": 0.00226658889137,
			"-0.006": 1.6040750534,
			"-0.005": 4.36101081094,
			"-0.004": 12.3983327195,
			"-0.003": 18.8552696195,
			"-0.002": 27.5207014129,
			"-0.001": 25.4911805577,
			"0.0": 26.3555037068,
			"0.001": 21.8600418698,
			"0.002": 13.205525875,
			"0.003": 5.48199999271,
			"0.004": 4.88767445971,
			"0.005": 6.82599536239,
			"0.006": 7.31808459802,
			"0.007": 7.72811799112,
			"0.008": 0.254470069495,
			"0.009": 0.0,
			"0.01": 0.0,
			"0.011": 0.0,
			"0.012": 0.0,
			"0.013": 0.0,
			"0.014": 0.0,
			"0.015": 0.0,
			"0.016": 0.0,
			"0.017": 0.0,
			"0.018": 0.0,
			"0.019": 0.0,
			"0.02": 0.0,
			"0.021": 0.0,
			"0.022": 0.0,
			"0.023": 0.0,
			"0.024": 0.0,
			"0.025": 0.0
		}
	}
}
