{
	 "smiles": "NC1=C(C=C(Cl)C=C1)C(=O)NC1=NC=C(Cl)C=C1", 
	 "Tm": 451.15, 
	 "num_atms": 27, 
	 "gaussian": { 
		 "optdone": 1, 
		 "sigma_profile": "yes", 
		 "theory": "DFT", 
		 "functional": "B3LYP", 
		 "basiset": "6-31G**", 
		 "properties": { 
			 "R2extent": 8958.4481, 
			 "electric_dipole_moment_norm": 4.23650150006, 
			 "electric_quadrupole_moment_norm": 19.7217529857, 
			 "total_energy": -1622.59185877, 
			 "HOMO_LUMO_gap": 0.1696, 
			 "cosmo_polarized_energy": -14.64, 
			 "cosmo_cavitation_energy": 35.68, 
			 "cosmo_dispersion_energy": -26.55, 
			 "cosmo_repulsion_energy": 2.03, 
			 "cosmo_total_nonelectrostatic_energy": 11.16, 
			 "SMD_solvation_energy": 4.79 
		},
		"coords": [
			{
				"x": -1.0327062444,
				"y": 2.0764981224,
				"z": -0.3926734539,
				"element": "N" 
			},
			{
				"x": -0.4308432617,
				"y": 2.1988976081,
				"z": 0.8753987637,
				"element": "C" 
			},
			{
				"x": 0.0831982064,
				"y": 1.0779065716,
				"z": 1.5709439651,
				"element": "C" 
			},
			{
				"x": 0.6545050685,
				"y": 1.2594514612,
				"z": 2.8391749152,
				"element": "C" 
			},
			{
				"x": 0.7737906404,
				"y": 2.5271218677,
				"z": 3.3898443717,
				"element": "C" 
			},
			{
				"x": 1.5141408999,
				"y": 2.7304742626,
				"z": 4.9703503084,
				"element": "Cl" 
			},
			{
				"x": 0.3128247478,
				"y": 3.6450699389,
				"z": 2.6936258614,
				"element": "C" 
			},
			{
				"x": -0.2930765703,
				"y": 3.470396022,
				"z": 1.4551216753,
				"element": "C" 
			},
			{
				"x": 0.0999368729,
				"y": -0.3439279491,
				"z": 1.0721919146,
				"element": "C" 
			},
			{
				"x": 0.1899096393,
				"y": -1.2870303361,
				"z": 1.8523473787,
				"element": "O" 
			},
			{
				"x": 0.0627690107,
				"y": -0.4993912729,
				"z": -0.2976223564,
				"element": "N" 
			},
			{
				"x": 0.1217814772,
				"y": -1.6867630685,
				"z": -1.0401131714,
				"element": "C" 
			},
			{
				"x": 0.0998075386,
				"y": -1.4712954429,
				"z": -2.3639043124,
				"element": "N" 
			},
			{
				"x": 0.1465224191,
				"y": -2.5228485327,
				"z": -3.1823584704,
				"element": "C" 
			},
			{
				"x": 0.213733566,
				"y": -3.8340460738,
				"z": -2.7131662233,
				"element": "C" 
			},
			{
				"x": 0.2706970577,
				"y": -5.170630964,
				"z": -3.8453771606,
				"element": "Cl" 
			},
			{
				"x": 0.2353374812,
				"y": -4.059259422,
				"z": -1.3372430749,
				"element": "C" 
			},
			{
				"x": 0.1894953048,
				"y": -2.9708889482,
				"z": -0.4733331918,
				"element": "C" 
			},
			{
				"x": -1.7319582639,
				"y": 1.3447740032,
				"z": -0.4559885033,
				"element": "H" 
			},
			{
				"x": -1.4120978136,
				"y": 2.9500580743,
				"z": -0.7368228266,
				"element": "H" 
			},
			{
				"x": 1.0093534727,
				"y": 0.3823123129,
				"z": 3.3668747733,
				"element": "H" 
			},
			{
				"x": 0.4095845927,
				"y": 4.6360380657,
				"z": 3.1233115329,
				"element": "H" 
			},
			{
				"x": -0.6827774568,
				"y": 4.3367042882,
				"z": 0.9264134311,
				"element": "H" 
			},
			{
				"x": 0.0556584024,
				"y": 0.3370349684,
				"z": -0.8760104712,
				"element": "H" 
			},
			{
				"x": 0.1296284,
				"y": -2.3186665263,
				"z": -4.2500593112,
				"element": "H" 
			},
			{
				"x": 0.2889908965,
				"y": -5.0699994323,
				"z": -0.9470750507,
				"element": "H" 
			},
			{
				"x": 0.2077939161,
				"y": -3.0881895986,
				"z": 0.6004486866,
				"element": "H" 
			}
		],
		 "valence_orbital": [ 
			{
				"type": "occ",
				"energy": -0.27943,
				"method": "rhf"
			},
			{
				"type": "occ",
				"energy": -0.27682,
				"method": "rhf"
			},
			{
				"type": "occ",
				"energy": -0.26521,
				"method": "rhf"
			},
			{
				"type": "occ",
				"energy": -0.23728,
				"method": "rhf"
			},
			{
				"type": "occ",
				"energy": -0.22798,
				"method": "rhf"
			},
			{
				"type": "unocc",
				"energy": -0.05838,
				"method": "rhf"
			},
			{
				"type": "unocc",
				"energy": -0.03433,
				"method": "rhf"
			},
			{
				"type": "unocc",
				"energy": -0.01545,
				"method": "rhf"
			},
			{
				"type": "unocc",
				"energy": -0.0117,
				"method": "rhf"
			},
			{
				"type": "unocc",
				"energy": 0.02637,
				"method": "rhf"
			}
		],
		"cosmo_sigma_profile": { 
			"-0.025": 0.0,
			"-0.024": 0.0,
			"-0.023": 0.0,
			"-0.022": 0.0,
			"-0.021": 0.0,
			"-0.02": 0.0,
			"-0.019": 0.0,
			"-0.018": 0.0,
			"-0.017": 0.0,
			"-0.016": 0.0,
			"-0.015": 0.0,
			"-0.014": 0.41047492367,
			"-0.013": 2.71436510146,
			"-0.012": 3.4427257667,
			"-0.011": 3.67212401798,
			"-0.01": 2.95970366521,
			"-0.009": 3.72039131801,
			"-0.008": 6.5515802216,
			"-0.007": 9.55172260876,
			"-0.006": 10.9033982403,
			"-0.005": 10.6145807978,
			"-0.004": 10.340024119,
			"-0.003": 11.0320037214,
			"-0.002": 16.3490536137,
			"-0.001": 21.238294405,
			"0.0": 29.2062410667,
			"0.001": 31.4505002023,
			"0.002": 29.4521664669,
			"0.003": 28.1023652082,
			"0.004": 23.561173813,
			"0.005": 14.0165268006,
			"0.006": 3.05172130544,
			"0.007": 3.32474663632,
			"0.008": 3.57183474484,
			"0.009": 2.6421778689,
			"0.01": 2.79422988952,
			"0.011": 2.20344428253,
			"0.012": 3.34661122583,
			"0.013": 1.50773494572,
			"0.014": 0.0442390806728,
			"0.015": 0.0,
			"0.016": 0.0,
			"0.017": 0.0,
			"0.018": 0.0,
			"0.019": 0.0,
			"0.02": 0.0,
			"0.021": 0.0,
			"0.022": 0.0,
			"0.023": 0.0,
			"0.024": 0.0,
			"0.025": 0.0
		}
	}
}
