{
	 "smiles": "CC1=NC(=CS1)C1=CC=C(Br)S1", 
	 "Tm": 351.65, 
	 "num_atms": 18, 
	 "gaussian": { 
		 "optdone": 1, 
		 "sigma_profile": "yes", 
		 "theory": "DFT", 
		 "functional": "B3LYP", 
		 "basiset": "6-31G**", 
		 "properties": { 
			 "R2extent": 6449.4576, 
			 "electric_dipole_moment_norm": 2.24483092014, 
			 "electric_quadrupole_moment_norm": 8.1606916153, 
			 "total_energy": -3730.9790177, 
			 "HOMO_LUMO_gap": 0.16007, 
			 "cosmo_polarized_energy": -6.18, 
			 "cosmo_cavitation_energy": 28.23, 
			 "cosmo_dispersion_energy": -22.3, 
			 "cosmo_repulsion_energy": 1.69, 
			 "cosmo_total_nonelectrostatic_energy": 7.62, 
			 "SMD_solvation_energy": 2.02 
		},
		"coords": [
			{
				"x": -0.2798237428,
				"y": -4.2864023317,
				"z": 1.5511274963,
				"element": "C" 
			},
			{
				"x": -0.9792015106,
				"y": -2.9621468077,
				"z": 1.5080717051,
				"element": "C" 
			},
			{
				"x": -0.4484029019,
				"y": -1.8685962043,
				"z": 1.0523279223,
				"element": "N" 
			},
			{
				"x": -1.3219271188,
				"y": -0.7936843896,
				"z": 1.1333362464,
				"element": "C" 
			},
			{
				"x": -2.551013517,
				"y": -1.0896070101,
				"z": 1.6681895459,
				"element": "C" 
			},
			{
				"x": -2.6349275407,
				"y": -2.7661323335,
				"z": 2.0899610797,
				"element": "S" 
			},
			{
				"x": -0.8553385054,
				"y": 0.5017981095,
				"z": 0.6549632416,
				"element": "C" 
			},
			{
				"x": 0.3784482978,
				"y": 0.7900299632,
				"z": 0.1209035101,
				"element": "C" 
			},
			{
				"x": 0.5361152721,
				"y": 2.1544982526,
				"z": -0.2567082199,
				"element": "C" 
			},
			{
				"x": -0.5870492691,
				"y": 2.8906128206,
				"z": -0.0031693991,
				"element": "C" 
			},
			{
				"x": -0.843378102,
				"y": 4.7277072605,
				"z": -0.3344708349,
				"element": "Br" 
			},
			{
				"x": -1.8629819877,
				"y": 1.9364909254,
				"z": 0.7020778157,
				"element": "S" 
			},
			{
				"x": -0.1986119368,
				"y": -4.6638608647,
				"z": 2.5758483063,
				"element": "H" 
			},
			{
				"x": 0.7240129658,
				"y": -4.1612985587,
				"z": 1.1415693127,
				"element": "H" 
			},
			{
				"x": -0.810989,
				"y": -5.0397997032,
				"z": 0.96004265,
				"element": "H" 
			},
			{
				"x": -3.3914972761,
				"y": -0.4306996474,
				"z": 1.8335492002,
				"element": "H" 
			},
			{
				"x": 1.1424831232,
				"y": 0.0312098065,
				"z": 0.0085314449,
				"element": "H" 
			},
			{
				"x": 1.4344827502,
				"y": 2.5717807126,
				"z": -0.6939510235,
				"element": "H" 
			}
		],
		 "valence_orbital": [ 
			{
				"type": "occ",
				"energy": -0.29012,
				"method": "rhf"
			},
			{
				"type": "occ",
				"energy": -0.2803,
				"method": "rhf"
			},
			{
				"type": "occ",
				"energy": -0.26713,
				"method": "rhf"
			},
			{
				"type": "occ",
				"energy": -0.2596,
				"method": "rhf"
			},
			{
				"type": "occ",
				"energy": -0.20866,
				"method": "rhf"
			},
			{
				"type": "unocc",
				"energy": -0.04859,
				"method": "rhf"
			},
			{
				"type": "unocc",
				"energy": -0.01425,
				"method": "rhf"
			},
			{
				"type": "unocc",
				"energy": -0.00368,
				"method": "rhf"
			},
			{
				"type": "unocc",
				"energy": 0.01087,
				"method": "rhf"
			},
			{
				"type": "unocc",
				"energy": 0.01974,
				"method": "rhf"
			}
		],
		"cosmo_sigma_profile": { 
			"-0.025": 0.0,
			"-0.024": 0.0,
			"-0.023": 0.0,
			"-0.022": 0.0,
			"-0.021": 0.0,
			"-0.02": 0.0,
			"-0.019": 0.0,
			"-0.018": 0.0,
			"-0.017": 0.0,
			"-0.016": 0.0,
			"-0.015": 0.0,
			"-0.014": 0.0,
			"-0.013": 0.0,
			"-0.012": 0.0,
			"-0.011": 0.0,
			"-0.01": 0.353019498314,
			"-0.009": 1.88499550607,
			"-0.008": 2.66366406732,
			"-0.007": 4.36418363798,
			"-0.006": 10.7127607447,
			"-0.005": 14.4909628022,
			"-0.004": 12.6439513345,
			"-0.003": 13.9939022262,
			"-0.002": 17.0556719523,
			"-0.001": 16.966581499,
			"0.0": 19.0672325542,
			"0.001": 24.7786221015,
			"0.002": 33.1031703744,
			"0.003": 34.8997128428,
			"0.004": 16.605784752,
			"0.005": 2.42669183551,
			"0.006": 2.36585707101,
			"0.007": 1.81041703087,
			"0.008": 1.04433682171,
			"0.009": 1.09667449375,
			"0.01": 0.775986603558,
			"0.011": 1.43047639979,
			"0.012": 0.448082962414,
			"0.013": 0.0,
			"0.014": 0.0,
			"0.015": 0.0,
			"0.016": 0.0,
			"0.017": 0.0,
			"0.018": 0.0,
			"0.019": 0.0,
			"0.02": 0.0,
			"0.021": 0.0,
			"0.022": 0.0,
			"0.023": 0.0,
			"0.024": 0.0,
			"0.025": 0.0
		}
	}
}
