{
	 "smiles": "C(CC12CC3CC(CC(C3)C1)C2)N1CCNCC1", 
	 "Tm": 350.15, 
	 "num_atms": 46, 
	 "gaussian": { 
		 "optdone": 1, 
		 "sigma_profile": "yes", 
		 "theory": "DFT", 
		 "functional": "B3LYP", 
		 "basiset": "6-31G**", 
		 "properties": { 
			 "R2extent": 6338.9671, 
			 "electric_dipole_moment_norm": 1.58269799393, 
			 "electric_quadrupole_moment_norm": 11.8015007215, 
			 "total_energy": -736.085731551, 
			 "HOMO_LUMO_gap": 0.2551, 
			 "cosmo_polarized_energy": -5.67, 
			 "cosmo_cavitation_energy": 39.99, 
			 "cosmo_dispersion_energy": -29.29, 
			 "cosmo_repulsion_energy": 2.23, 
			 "cosmo_total_nonelectrostatic_energy": 12.93, 
			 "SMD_solvation_energy": -0.1 
		},
		"coords": [
			{
				"x": 1.8473773336,
				"y": 0.1131966482,
				"z": 0.2599629129,
				"element": "C" 
			},
			{
				"x": 0.4838367971,
				"y": 0.1885531221,
				"z": -0.4648329763,
				"element": "C" 
			},
			{
				"x": -0.746238881,
				"y": 0.5690670519,
				"z": 0.3918649129,
				"element": "C" 
			},
			{
				"x": -0.5858921354,
				"y": 1.9614100119,
				"z": 1.0554988029,
				"element": "C" 
			},
			{
				"x": -1.8518934096,
				"y": 2.3379424785,
				"z": 1.8547428793,
				"element": "C" 
			},
			{
				"x": -2.0936214994,
				"y": 1.2832408585,
				"z": 2.9544647812,
				"element": "C" 
			},
			{
				"x": -2.2878361268,
				"y": -0.1031935573,
				"z": 2.3061234277,
				"element": "C" 
			},
			{
				"x": -3.5049894427,
				"y": -0.0599243318,
				"z": 1.3602265725,
				"element": "C" 
			},
			{
				"x": -3.2620797817,
				"y": 0.9937473528,
				"z": 0.260792723,
				"element": "C" 
			},
			{
				"x": -3.0691781344,
				"y": 2.3797497418,
				"z": 0.9090900605,
				"element": "C" 
			},
			{
				"x": -1.9928876231,
				"y": 0.6209636813,
				"z": -0.5304620896,
				"element": "C" 
			},
			{
				"x": -1.0211782892,
				"y": -0.4744593255,
				"z": 1.5053865924,
				"element": "C" 
			},
			{
				"x": 2.9903434712,
				"y": -0.2934132427,
				"z": -0.5515013445,
				"element": "N" 
			},
			{
				"x": 3.4134979781,
				"y": 0.6373427778,
				"z": -1.6088935245,
				"element": "C" 
			},
			{
				"x": 3.2303082803,
				"y": 0.0668241449,
				"z": -3.0187766891,
				"element": "C" 
			},
			{
				"x": 4.0338897812,
				"y": -1.1578955712,
				"z": -3.1680975256,
				"element": "N" 
			},
			{
				"x": 4.1675441288,
				"y": -1.930846246,
				"z": -1.9201273668,
				"element": "C" 
			},
			{
				"x": 3.0113464386,
				"y": -1.7010102797,
				"z": -0.9425127994,
				"element": "C" 
			},
			{
				"x": 2.0847408787,
				"y": 1.0889185042,
				"z": 0.7005857478,
				"element": "H" 
			},
			{
				"x": 1.7834269244,
				"y": -0.5923876701,
				"z": 1.0977712688,
				"element": "H" 
			},
			{
				"x": 0.5635916416,
				"y": 0.9161161026,
				"z": -1.2851121449,
				"element": "H" 
			},
			{
				"x": 0.2783067238,
				"y": -0.7813641373,
				"z": -0.9377105188,
				"element": "H" 
			},
			{
				"x": 0.281091145,
				"y": 1.9652521936,
				"z": 1.7278706242,
				"element": "H" 
			},
			{
				"x": -0.3900011125,
				"y": 2.7174605721,
				"z": 0.2820524805,
				"element": "H" 
			},
			{
				"x": -1.7088445979,
				"y": 3.3239243218,
				"z": 2.3154152759,
				"element": "H" 
			},
			{
				"x": -2.9792321633,
				"y": 1.5508532739,
				"z": 3.5458080633,
				"element": "H" 
			},
			{
				"x": -1.2426454617,
				"y": 1.2596518467,
				"z": 3.64817385,
				"element": "H" 
			},
			{
				"x": -2.4548929571,
				"y": -0.8551836661,
				"z": 3.0880666448,
				"element": "H" 
			},
			{
				"x": -4.4142552157,
				"y": 0.1845967197,
				"z": 1.92521901,
				"element": "H" 
			},
			{
				"x": -3.6668007719,
				"y": -1.0473034982,
				"z": 0.9076546464,
				"element": "H" 
			},
			{
				"x": -4.1218896794,
				"y": 1.0212049962,
				"z": -0.4211066634,
				"element": "H" 
			},
			{
				"x": -3.9709609995,
				"y": 2.6663759308,
				"z": 1.4662132338,
				"element": "H" 
			},
			{
				"x": -2.9184597166,
				"y": 3.1417595699,
				"z": 0.1328561815,
				"element": "H" 
			},
			{
				"x": -2.1274652791,
				"y": -0.3548809278,
				"z": -1.0175280453,
				"element": "H" 
			},
			{
				"x": -1.8231333288,
				"y": 1.3522709307,
				"z": -1.3329090853,
				"element": "H" 
			},
			{
				"x": -0.165527092,
				"y": -0.5362533013,
				"z": 2.1894225328,
				"element": "H" 
			},
			{
				"x": -1.1387293135,
				"y": -1.47003949,
				"z": 1.0549445003,
				"element": "H" 
			},
			{
				"x": 4.4741149358,
				"y": 0.9001934098,
				"z": -1.4775018921,
				"element": "H" 
			},
			{
				"x": 2.8475255995,
				"y": 1.5706942204,
				"z": -1.5218345268,
				"element": "H" 
			},
			{
				"x": 3.5559941702,
				"y": 0.8080199093,
				"z": -3.7610241487,
				"element": "H" 
			},
			{
				"x": 2.1536336404,
				"y": -0.1048053809,
				"z": -3.1883087607,
				"element": "H" 
			},
			{
				"x": 3.6231809453,
				"y": -1.7425178178,
				"z": -3.8881900552,
				"element": "H" 
			},
			{
				"x": 5.103342996,
				"y": -1.6528638639,
				"z": -1.416476506,
				"element": "H" 
			},
			{
				"x": 4.2461761467,
				"y": -2.9940745635,
				"z": -2.1682789704,
				"element": "H" 
			},
			{
				"x": 2.0726105319,
				"y": -2.0416014858,
				"z": -1.4214603404,
				"element": "H" 
			},
			{
				"x": 3.1452525243,
				"y": -2.3196120151,
				"z": -0.0433617519,
				"element": "H" 
			}
		],
		 "valence_orbital": [ 
			{
				"type": "occ",
				"energy": -0.27796,
				"method": "rhf"
			},
			{
				"type": "occ",
				"energy": -0.27416,
				"method": "rhf"
			},
			{
				"type": "occ",
				"energy": -0.27381,
				"method": "rhf"
			},
			{
				"type": "occ",
				"energy": -0.20755,
				"method": "rhf"
			},
			{
				"type": "occ",
				"energy": -0.18768,
				"method": "rhf"
			},
			{
				"type": "unocc",
				"energy": 0.06742,
				"method": "rhf"
			},
			{
				"type": "unocc",
				"energy": 0.07562,
				"method": "rhf"
			},
			{
				"type": "unocc",
				"energy": 0.10523,
				"method": "rhf"
			},
			{
				"type": "unocc",
				"energy": 0.10912,
				"method": "rhf"
			},
			{
				"type": "unocc",
				"energy": 0.11227,
				"method": "rhf"
			}
		],
		"cosmo_sigma_profile": { 
			"-0.025": 0.0,
			"-0.024": 0.0,
			"-0.023": 0.0,
			"-0.022": 0.0,
			"-0.021": 0.0,
			"-0.02": 0.0,
			"-0.019": 0.0,
			"-0.018": 0.0,
			"-0.017": 0.0,
			"-0.016": 0.0,
			"-0.015": 0.0,
			"-0.014": 0.0,
			"-0.013": 0.0,
			"-0.012": 0.0,
			"-0.011": 0.0,
			"-0.01": 0.43149663767,
			"-0.009": 1.37127266366,
			"-0.008": 1.38101697054,
			"-0.007": 1.41993076451,
			"-0.006": 1.16642688781,
			"-0.005": 2.06139800921,
			"-0.004": 4.81991038333,
			"-0.003": 12.0333624218,
			"-0.002": 42.2515392535,
			"-0.001": 85.5175842269,
			"0.0": 63.7329579109,
			"0.001": 44.8078140324,
			"0.002": 20.334855131,
			"0.003": 3.67030281296,
			"0.004": 1.94487263959,
			"0.005": 1.90839600023,
			"0.006": 2.0039281817,
			"0.007": 1.97240036932,
			"0.008": 1.30072406626,
			"0.009": 1.18436024666,
			"0.01": 1.63217241266,
			"0.011": 0.872980222588,
			"0.012": 0.858700331379,
			"0.013": 1.55646675211,
			"0.014": 1.0555949224,
			"0.015": 0.724005226834,
			"0.016": 0.696099088185,
			"0.017": 0.709807874803,
			"0.018": 0.414141868823,
			"0.019": 0.380448420238,
			"0.02": 0.0,
			"0.021": 0.0,
			"0.022": 0.0,
			"0.023": 0.0,
			"0.024": 0.0,
			"0.025": 0.0
		}
	}
}
