{
	 "smiles": "ClC1=C(C=CC=N1)C(=O)NCC#C", 
	 "Tm": 381.15, 
	 "num_atms": 20, 
	 "gaussian": { 
		 "optdone": 1, 
		 "sigma_profile": "yes", 
		 "theory": "DFT", 
		 "functional": "B3LYP", 
		 "basiset": "6-31G**", 
		 "properties": { 
			 "R2extent": 3174.7351, 
			 "electric_dipole_moment_norm": 3.52184449969, 
			 "electric_quadrupole_moment_norm": 17.2485951871, 
			 "total_energy": -992.01571535, 
			 "HOMO_LUMO_gap": 0.20307, 
			 "cosmo_polarized_energy": -14.69, 
			 "cosmo_cavitation_energy": 27.81, 
			 "cosmo_dispersion_energy": -19.17, 
			 "cosmo_repulsion_energy": 1.53, 
			 "cosmo_total_nonelectrostatic_energy": 10.17, 
			 "SMD_solvation_energy": 4.8 
		},
		"coords": [
			{
				"x": -1.4499190861,
				"y": -1.1908619788,
				"z": -1.482831602,
				"element": "Cl" 
			},
			{
				"x": -0.6693622992,
				"y": -2.1279975449,
				"z": -0.205273662,
				"element": "C" 
			},
			{
				"x": 0.6663944528,
				"y": -1.8643031106,
				"z": 0.1432022781,
				"element": "C" 
			},
			{
				"x": 1.2316157197,
				"y": -2.7162329061,
				"z": 1.100034644,
				"element": "C" 
			},
			{
				"x": 0.4607138169,
				"y": -3.7137932806,
				"z": 1.6891136766,
				"element": "C" 
			},
			{
				"x": -0.863677306,
				"y": -3.8483463446,
				"z": 1.2768193591,
				"element": "C" 
			},
			{
				"x": -1.4158371546,
				"y": -3.0749903754,
				"z": 0.3337396872,
				"element": "N" 
			},
			{
				"x": 1.5833619407,
				"y": -0.8589867919,
				"z": -0.5153188529,
				"element": "C" 
			},
			{
				"x": 2.614880787,
				"y": -1.2451519029,
				"z": -1.051096751,
				"element": "O" 
			},
			{
				"x": 1.2482881849,
				"y": 0.4647699018,
				"z": -0.4701773916,
				"element": "N" 
			},
			{
				"x": 0.2265968822,
				"y": 1.1166428506,
				"z": 0.3441943318,
				"element": "C" 
			},
			{
				"x": 0.8012791934,
				"y": 2.0747801789,
				"z": 1.2948209397,
				"element": "C" 
			},
			{
				"x": 1.2775363746,
				"y": 2.8795279008,
				"z": 2.0580728362,
				"element": "C" 
			},
			{
				"x": 2.2762945018,
				"y": -2.5834859049,
				"z": 1.3626184486,
				"element": "H" 
			},
			{
				"x": 0.8762009441,
				"y": -4.3759896333,
				"z": 2.4409775971,
				"element": "H" 
			},
			{
				"x": -1.5113176631,
				"y": -4.6092403789,
				"z": 1.7062729483,
				"element": "H" 
			},
			{
				"x": 1.9368488532,
				"y": 1.0625952904,
				"z": -0.9106808371,
				"element": "H" 
			},
			{
				"x": -0.5012585248,
				"y": 1.6255414681,
				"z": -0.3005788614,
				"element": "H" 
			},
			{
				"x": -0.3279146038,
				"y": 0.3455973424,
				"z": 0.8851904363,
				"element": "H" 
			},
			{
				"x": 1.6993749862,
				"y": 3.5829252198,
				"z": 2.7385007749,
				"element": "H" 
			}
		],
		 "valence_orbital": [ 
			{
				"type": "occ",
				"energy": -0.28744,
				"method": "rhf"
			},
			{
				"type": "occ",
				"energy": -0.28377,
				"method": "rhf"
			},
			{
				"type": "occ",
				"energy": -0.27269,
				"method": "rhf"
			},
			{
				"type": "occ",
				"energy": -0.26389,
				"method": "rhf"
			},
			{
				"type": "occ",
				"energy": -0.25406,
				"method": "rhf"
			},
			{
				"type": "unocc",
				"energy": -0.05099,
				"method": "rhf"
			},
			{
				"type": "unocc",
				"energy": -0.03954,
				"method": "rhf"
			},
			{
				"type": "unocc",
				"energy": 0.01133,
				"method": "rhf"
			},
			{
				"type": "unocc",
				"energy": 0.027,
				"method": "rhf"
			},
			{
				"type": "unocc",
				"energy": 0.03977,
				"method": "rhf"
			}
		],
		"cosmo_sigma_profile": { 
			"-0.025": 0.0,
			"-0.024": 0.0,
			"-0.023": 0.0,
			"-0.022": 0.0,
			"-0.021": 0.0,
			"-0.02": 0.0,
			"-0.019": 0.0,
			"-0.018": 0.0,
			"-0.017": 0.0,
			"-0.016": 0.0,
			"-0.015": 0.106191968306,
			"-0.014": 1.0366961333,
			"-0.013": 0.924285643305,
			"-0.012": 1.9062182163,
			"-0.011": 2.48541651925,
			"-0.01": 1.35478145802,
			"-0.009": 2.27767614544,
			"-0.008": 9.99577491732,
			"-0.007": 13.7320552988,
			"-0.006": 13.1230543201,
			"-0.005": 12.5353315102,
			"-0.004": 8.69056341484,
			"-0.003": 9.24657178451,
			"-0.002": 13.8145602473,
			"-0.001": 15.3769136213,
			"0.0": 18.2942059629,
			"0.001": 15.889800623,
			"0.002": 10.7967726123,
			"0.003": 13.7865653099,
			"0.004": 12.486577905,
			"0.005": 10.4036376757,
			"0.006": 11.1207018002,
			"0.007": 4.717429666,
			"0.008": 2.715801113,
			"0.009": 2.06662909385,
			"0.01": 2.47573870299,
			"0.011": 3.0620345401,
			"0.012": 4.33528237463,
			"0.013": 6.21450812289,
			"0.014": 1.51813340222,
			"0.015": 0.0,
			"0.016": 0.0,
			"0.017": 0.0,
			"0.018": 0.0,
			"0.019": 0.0,
			"0.02": 0.0,
			"0.021": 0.0,
			"0.022": 0.0,
			"0.023": 0.0,
			"0.024": 0.0,
			"0.025": 0.0
		}
	}
}
