{
	 "smiles": "COC(=O)C1=C2C(=O)NC(S)=NC2=NC(C)=C1", 
	 "Tm": 533.15, 
	 "num_atms": 26, 
	 "gaussian": { 
		 "optdone": 1, 
		 "sigma_profile": "yes", 
		 "theory": "DFT", 
		 "functional": "B3LYP", 
		 "basiset": "6-31G**", 
		 "properties": { 
			 "R2extent": 5806.9316, 
			 "electric_dipole_moment_norm": 1.89730075107, 
			 "electric_quadrupole_moment_norm": 14.5920571973, 
			 "total_energy": -1174.62991175, 
			 "HOMO_LUMO_gap": 0.1793, 
			 "cosmo_polarized_energy": -19.71, 
			 "cosmo_cavitation_energy": 33.3, 
			 "cosmo_dispersion_energy": -24.54, 
			 "cosmo_repulsion_energy": 1.87, 
			 "cosmo_total_nonelectrostatic_energy": 10.63, 
			 "SMD_solvation_energy": 4.23 
		},
		"coords": [
			{
				"x": -3.870660381,
				"y": -3.7973405458,
				"z": -1.6562222159,
				"element": "C" 
			},
			{
				"x": -2.6845230962,
				"y": -3.2633920768,
				"z": -1.041181119,
				"element": "O" 
			},
			{
				"x": -2.0763814079,
				"y": -2.2859080252,
				"z": -1.7299585536,
				"element": "C" 
			},
			{
				"x": -2.3573458862,
				"y": -1.946006547,
				"z": -2.8570624154,
				"element": "O" 
			},
			{
				"x": -0.9171491274,
				"y": -1.7168736319,
				"z": -0.9525003997,
				"element": "C" 
			},
			{
				"x": -1.0912867998,
				"y": -0.9013173672,
				"z": 0.1835571816,
				"element": "C" 
			},
			{
				"x": -2.4188975133,
				"y": -0.4869943516,
				"z": 0.6450382291,
				"element": "C" 
			},
			{
				"x": -3.4946972793,
				"y": -0.7394623131,
				"z": 0.1234167963,
				"element": "O" 
			},
			{
				"x": -2.3655100793,
				"y": 0.3006854026,
				"z": 1.8079696731,
				"element": "N" 
			},
			{
				"x": -1.192389363,
				"y": 0.6797160137,
				"z": 2.4126011666,
				"element": "C" 
			},
			{
				"x": -1.3977162919,
				"y": 1.681844168,
				"z": 3.8705551732,
				"element": "S" 
			},
			{
				"x": -0.0160013845,
				"y": 0.3594362923,
				"z": 1.9918651225,
				"element": "N" 
			},
			{
				"x": 0.0644710678,
				"y": -0.4306113049,
				"z": 0.8553946537,
				"element": "C" 
			},
			{
				"x": 1.3134971206,
				"y": -0.7179999228,
				"z": 0.4413374484,
				"element": "N" 
			},
			{
				"x": 1.4656860726,
				"y": -1.4669319506,
				"z": -0.6493347064,
				"element": "C" 
			},
			{
				"x": 2.8774930357,
				"y": -1.7565092814,
				"z": -1.0908403591,
				"element": "C" 
			},
			{
				"x": 0.3722218888,
				"y": -1.984658119,
				"z": -1.3779056411,
				"element": "C" 
			},
			{
				"x": -4.6378762303,
				"y": -3.0213193997,
				"z": -1.708672884,
				"element": "H" 
			},
			{
				"x": -4.194148358,
				"y": -4.6123686345,
				"z": -1.009399325,
				"element": "H" 
			},
			{
				"x": -3.6540148056,
				"y": -4.1634129511,
				"z": -2.662298933,
				"element": "H" 
			},
			{
				"x": -3.2646256341,
				"y": 0.6139807085,
				"z": 2.1554260116,
				"element": "H" 
			},
			{
				"x": -0.0722590604,
				"y": 1.8078746699,
				"z": 4.0635922354,
				"element": "H" 
			},
			{
				"x": 3.0745197989,
				"y": -2.8346170919,
				"z": -1.0897782298,
				"element": "H" 
			},
			{
				"x": 3.5819946687,
				"y": -1.2662758811,
				"z": -0.418253227,
				"element": "H" 
			},
			{
				"x": 3.0485450846,
				"y": -1.3982228935,
				"z": -2.1122245445,
				"element": "H" 
			},
			{
				"x": 0.5424539608,
				"y": -2.592814966,
				"z": -2.2603211381,
				"element": "H" 
			}
		],
		 "valence_orbital": [ 
			{
				"type": "occ",
				"energy": -0.28942,
				"method": "rhf"
			},
			{
				"type": "occ",
				"energy": -0.2839,
				"method": "rhf"
			},
			{
				"type": "occ",
				"energy": -0.27355,
				"method": "rhf"
			},
			{
				"type": "occ",
				"energy": -0.26106,
				"method": "rhf"
			},
			{
				"type": "occ",
				"energy": -0.24273,
				"method": "rhf"
			},
			{
				"type": "unocc",
				"energy": -0.06343,
				"method": "rhf"
			},
			{
				"type": "unocc",
				"energy": -0.05297,
				"method": "rhf"
			},
			{
				"type": "unocc",
				"energy": -0.01628,
				"method": "rhf"
			},
			{
				"type": "unocc",
				"energy": 0.00126,
				"method": "rhf"
			},
			{
				"type": "unocc",
				"energy": 0.02113,
				"method": "rhf"
			}
		],
		"cosmo_sigma_profile": { 
			"-0.025": 0.0,
			"-0.024": 0.0,
			"-0.023": 0.0,
			"-0.022": 0.0,
			"-0.021": 0.0,
			"-0.02": 0.0,
			"-0.019": 0.0,
			"-0.018": 0.32316623429,
			"-0.017": 1.16526642473,
			"-0.016": 1.26920871421,
			"-0.015": 0.804583930661,
			"-0.014": 0.559332606674,
			"-0.013": 1.74848705013,
			"-0.012": 2.5997166245,
			"-0.011": 2.45591392643,
			"-0.01": 1.87690570899,
			"-0.009": 2.00511320736,
			"-0.008": 3.73303844583,
			"-0.007": 6.23711670927,
			"-0.006": 13.1818277124,
			"-0.005": 19.7858326177,
			"-0.004": 22.9056768974,
			"-0.003": 22.4697454137,
			"-0.002": 20.4184631195,
			"-0.001": 22.952791758,
			"0.0": 17.8302551484,
			"0.001": 12.9362645783,
			"0.002": 10.4656609846,
			"0.003": 10.8041020777,
			"0.004": 8.76549591784,
			"0.005": 8.6286900155,
			"0.006": 7.26142398302,
			"0.007": 7.46368502276,
			"0.008": 6.06803593072,
			"0.009": 5.80652408041,
			"0.01": 6.62463111857,
			"0.011": 8.12129696504,
			"0.012": 5.61761926473,
			"0.013": 1.40154377916,
			"0.014": 1.40730006651,
			"0.015": 1.76516971095,
			"0.016": 1.40703722195,
			"0.017": 0.173508973286,
			"0.018": 0.0,
			"0.019": 0.0,
			"0.02": 0.0,
			"0.021": 0.0,
			"0.022": 0.0,
			"0.023": 0.0,
			"0.024": 0.0,
			"0.025": 0.0
		}
	}
}
