{
	 "smiles": "CC(C)OC1=C(N=CC=C1)C(O)=O", 
	 "Tm": 473.15, 
	 "num_atms": 24, 
	 "gaussian": { 
		 "optdone": 1, 
		 "sigma_profile": "yes", 
		 "theory": "DFT", 
		 "functional": "B3LYP", 
		 "basiset": "6-31G**", 
		 "properties": { 
			 "R2extent": 2364.1151, 
			 "electric_dipole_moment_norm": 3.9215739965, 
			 "electric_quadrupole_moment_norm": 14.3447451201, 
			 "total_energy": -630.003899997, 
			 "HOMO_LUMO_gap": 0.20558, 
			 "cosmo_polarized_energy": -15.82, 
			 "cosmo_cavitation_energy": 27.59, 
			 "cosmo_dispersion_energy": -19.48, 
			 "cosmo_repulsion_energy": 1.55, 
			 "cosmo_total_nonelectrostatic_energy": 9.66, 
			 "SMD_solvation_energy": 4.79 
		},
		"coords": [
			{
				"x": -1.8211269116,
				"y": -1.8708879201,
				"z": 0.5102967692,
				"element": "C" 
			},
			{
				"x": -1.9170739256,
				"y": -0.4121065071,
				"z": 0.9510788684,
				"element": "C" 
			},
			{
				"x": -1.635535269,
				"y": -0.2271071091,
				"z": 2.4417371995,
				"element": "C" 
			},
			{
				"x": -1.1044432365,
				"y": 0.4663787663,
				"z": 0.1192930863,
				"element": "O" 
			},
			{
				"x": 0.2498390616,
				"y": 0.2929265991,
				"z": 0.0603851068,
				"element": "C" 
			},
			{
				"x": 0.8692831297,
				"y": -0.3973539233,
				"z": -1.003558431,
				"element": "C" 
			},
			{
				"x": 2.1991212527,
				"y": -0.5449120966,
				"z": -1.0938733431,
				"element": "N" 
			},
			{
				"x": 2.9711256328,
				"y": 0.0067297805,
				"z": -0.1586964515,
				"element": "C" 
			},
			{
				"x": 2.4602472295,
				"y": 0.7364435936,
				"z": 0.9173578983,
				"element": "C" 
			},
			{
				"x": 1.0817040418,
				"y": 0.8774337127,
				"z": 1.0250657044,
				"element": "C" 
			},
			{
				"x": 0.1139846329,
				"y": -1.0480924071,
				"z": -2.134904738,
				"element": "C" 
			},
			{
				"x": -0.9239584471,
				"y": -0.3032678623,
				"z": -2.5805070207,
				"element": "O" 
			},
			{
				"x": 0.4130934779,
				"y": -2.1133793233,
				"z": -2.6247058893,
				"element": "O" 
			},
			{
				"x": -2.5206192074,
				"y": -2.479617038,
				"z": 1.0922253988,
				"element": "H" 
			},
			{
				"x": -0.8163573103,
				"y": -2.2757101932,
				"z": 0.6685370146,
				"element": "H" 
			},
			{
				"x": -2.0760286866,
				"y": -1.9751446608,
				"z": -0.5466788,
				"element": "H" 
			},
			{
				"x": -2.9247751932,
				"y": -0.0427362472,
				"z": 0.7370283565,
				"element": "H" 
			},
			{
				"x": -0.6449770653,
				"y": -0.6022992189,
				"z": 2.7170852344,
				"element": "H" 
			},
			{
				"x": -2.3752021228,
				"y": -0.7836359639,
				"z": 3.0264859303,
				"element": "H" 
			},
			{
				"x": -1.704103331,
				"y": 0.8276954411,
				"z": 2.7232145253,
				"element": "H" 
			},
			{
				"x": 4.0437770371,
				"y": -0.1325619111,
				"z": -0.276839526,
				"element": "H" 
			},
			{
				"x": 3.1269290423,
				"y": 1.1840309386,
				"z": 1.6481809235,
				"element": "H" 
			},
			{
				"x": 0.6327285687,
				"y": 1.4461510744,
				"z": 1.8317816205,
				"element": "H" 
			},
			{
				"x": -1.3059324003,
				"y": -0.8083775241,
				"z": -3.3186894373,
				"element": "H" 
			}
		],
		 "valence_orbital": [ 
			{
				"type": "occ",
				"energy": -0.29236,
				"method": "rhf"
			},
			{
				"type": "occ",
				"energy": -0.28816,
				"method": "rhf"
			},
			{
				"type": "occ",
				"energy": -0.27364,
				"method": "rhf"
			},
			{
				"type": "occ",
				"energy": -0.25422,
				"method": "rhf"
			},
			{
				"type": "occ",
				"energy": -0.25289,
				"method": "rhf"
			},
			{
				"type": "unocc",
				"energy": -0.04731,
				"method": "rhf"
			},
			{
				"type": "unocc",
				"energy": -0.02386,
				"method": "rhf"
			},
			{
				"type": "unocc",
				"energy": 0.03813,
				"method": "rhf"
			},
			{
				"type": "unocc",
				"energy": 0.07545,
				"method": "rhf"
			},
			{
				"type": "unocc",
				"energy": 0.0886,
				"method": "rhf"
			}
		],
		"cosmo_sigma_profile": { 
			"-0.025": 0.0,
			"-0.024": 0.0,
			"-0.023": 0.0,
			"-0.022": 0.0,
			"-0.021": 0.0,
			"-0.02": 0.0,
			"-0.019": 0.071764611331,
			"-0.018": 0.765467795388,
			"-0.017": 0.985455737626,
			"-0.016": 1.1557993009,
			"-0.015": 0.145375453646,
			"-0.014": 0.802546468832,
			"-0.013": 0.893798652466,
			"-0.012": 0.964189562149,
			"-0.011": 0.404360076905,
			"-0.01": 0.416126374364,
			"-0.009": 0.590180604171,
			"-0.008": 2.15646781184,
			"-0.007": 7.17789736545,
			"-0.006": 8.37306701177,
			"-0.005": 12.5150654445,
			"-0.004": 21.208675481,
			"-0.003": 20.158900609,
			"-0.002": 19.1567753155,
			"-0.001": 19.7369712757,
			"0.0": 22.307601611,
			"0.001": 17.603023306,
			"0.002": 8.51960698699,
			"0.003": 4.3628882904,
			"0.004": 4.4231192973,
			"0.005": 3.69783843903,
			"0.006": 4.15380379571,
			"0.007": 3.36730271858,
			"0.008": 3.63357736918,
			"0.009": 4.22755424879,
			"0.01": 4.81964508171,
			"0.011": 6.74104758569,
			"0.012": 6.01186555241,
			"0.013": 2.19607018757,
			"0.014": 1.66580982657,
			"0.015": 1.5948922676,
			"0.016": 0.919264716091,
			"0.017": 0.0169840459015,
			"0.018": 0.0,
			"0.019": 0.0,
			"0.02": 0.0,
			"0.021": 0.0,
			"0.022": 0.0,
			"0.023": 0.0,
			"0.024": 0.0,
			"0.025": 0.0
		}
	}
}
