{
	 "smiles": "COC1=C(OC(F)F)C=C(C=C1)C(O)=O", 
	 "Tm": 453.15, 
	 "num_atms": 23, 
	 "gaussian": { 
		 "optdone": 1, 
		 "sigma_profile": "yes", 
		 "theory": "DFT", 
		 "functional": "B3LYP", 
		 "basiset": "6-31G**", 
		 "properties": { 
			 "R2extent": 4075.4312, 
			 "electric_dipole_moment_norm": 4.32982918254, 
			 "electric_quadrupole_moment_norm": 11.9753299403, 
			 "total_energy": -848.334209683, 
			 "HOMO_LUMO_gap": 0.19198, 
			 "cosmo_polarized_energy": -16.39, 
			 "cosmo_cavitation_energy": 28.92, 
			 "cosmo_dispersion_energy": -20.43, 
			 "cosmo_repulsion_energy": 1.56, 
			 "cosmo_total_nonelectrostatic_energy": 10.05, 
			 "SMD_solvation_energy": 8.1 
		},
		"coords": [
			{
				"x": -0.0734926357,
				"y": -0.7425478218,
				"z": 4.0823895756,
				"element": "C" 
			},
			{
				"x": -0.4914346342,
				"y": 0.261531193,
				"z": 3.1491029844,
				"element": "O" 
			},
			{
				"x": -0.2578562168,
				"y": 0.1416413583,
				"z": 1.81995276,
				"element": "C" 
			},
			{
				"x": -0.2170732325,
				"y": -1.0610344737,
				"z": 1.0844559541,
				"element": "C" 
			},
			{
				"x": -0.4483456385,
				"y": -2.2550308572,
				"z": 1.760169127,
				"element": "O" 
			},
			{
				"x": 0.3797026218,
				"y": -3.3168164749,
				"z": 1.4831970129,
				"element": "C" 
			},
			{
				"x": 0.3179907459,
				"y": -4.1444529599,
				"z": 2.5414621772,
				"element": "F" 
			},
			{
				"x": -0.0751952652,
				"y": -4.0083717327,
				"z": 0.3970980159,
				"element": "F" 
			},
			{
				"x": -0.0151473617,
				"y": -1.0411109883,
				"z": -0.2953691434,
				"element": "C" 
			},
			{
				"x": 0.1604481124,
				"y": 0.1690499484,
				"z": -0.9764266499,
				"element": "C" 
			},
			{
				"x": 0.1283284821,
				"y": 1.3663004584,
				"z": -0.2480143338,
				"element": "C" 
			},
			{
				"x": -0.0895543305,
				"y": 1.3481560149,
				"z": 1.1205697251,
				"element": "C" 
			},
			{
				"x": 0.4082025368,
				"y": 0.2474956996,
				"z": -2.4497146093,
				"element": "C" 
			},
			{
				"x": 0.0471985908,
				"y": -0.8325617721,
				"z": -3.195649441,
				"element": "O" 
			},
			{
				"x": 0.9071688327,
				"y": 1.2094378045,
				"z": -2.9854670958,
				"element": "O" 
			},
			{
				"x": -0.7290944327,
				"y": -1.614194771,
				"z": 4.066186332,
				"element": "H" 
			},
			{
				"x": -0.1206717824,
				"y": -0.2577695378,
				"z": 5.0590076227,
				"element": "H" 
			},
			{
				"x": 0.9573160189,
				"y": -1.0585765906,
				"z": 3.8875407213,
				"element": "H" 
			},
			{
				"x": 1.4152792567,
				"y": -3.0128094475,
				"z": 1.2907311598,
				"element": "H" 
			},
			{
				"x": 0.009055658,
				"y": -1.9936461713,
				"z": -0.8141000241,
				"element": "H" 
			},
			{
				"x": 0.2808835791,
				"y": 2.3004467386,
				"z": -0.7767109845,
				"element": "H" 
			},
			{
				"x": -0.1219137676,
				"y": 2.2657206156,
				"z": 1.6982682305,
				"element": "H" 
			},
			{
				"x": -0.5029951375,
				"y": -1.4339562325,
				"z": -2.6753791165,
				"element": "H" 
			}
		],
		 "valence_orbital": [ 
			{
				"type": "occ",
				"energy": -0.32696,
				"method": "rhf"
			},
			{
				"type": "occ",
				"energy": -0.31538,
				"method": "rhf"
			},
			{
				"type": "occ",
				"energy": -0.27719,
				"method": "rhf"
			},
			{
				"type": "occ",
				"energy": -0.27166,
				"method": "rhf"
			},
			{
				"type": "occ",
				"energy": -0.24454,
				"method": "rhf"
			},
			{
				"type": "unocc",
				"energy": -0.05256,
				"method": "rhf"
			},
			{
				"type": "unocc",
				"energy": -0.02766,
				"method": "rhf"
			},
			{
				"type": "unocc",
				"energy": 0.04464,
				"method": "rhf"
			},
			{
				"type": "unocc",
				"energy": 0.05219,
				"method": "rhf"
			},
			{
				"type": "unocc",
				"energy": 0.07849,
				"method": "rhf"
			}
		],
		"cosmo_sigma_profile": { 
			"-0.025": 0.0,
			"-0.024": 0.0,
			"-0.023": 0.0,
			"-0.022": 0.0,
			"-0.021": 0.0,
			"-0.02": 0.0132613269545,
			"-0.019": 0.546789073764,
			"-0.018": 0.684921577226,
			"-0.017": 1.33288748159,
			"-0.016": 0.617290906931,
			"-0.015": 0.472634978876,
			"-0.014": 0.936403299064,
			"-0.013": 1.56080614759,
			"-0.012": 1.18634742467,
			"-0.011": 1.90224730206,
			"-0.01": 3.16858068697,
			"-0.009": 3.63787189836,
			"-0.008": 4.5412927495,
			"-0.007": 6.78965865156,
			"-0.006": 10.7575555431,
			"-0.005": 11.1034106512,
			"-0.004": 14.3542066155,
			"-0.003": 14.367749875,
			"-0.002": 11.8337833405,
			"-0.001": 10.1956612262,
			"0.0": 14.837332752,
			"0.001": 19.5345570221,
			"0.002": 18.546969043,
			"0.003": 26.2511746321,
			"0.004": 14.2871018751,
			"0.005": 3.45377252212,
			"0.006": 4.33131848206,
			"0.007": 4.4668895593,
			"0.008": 4.21214530374,
			"0.009": 4.64092299605,
			"0.01": 4.81928532418,
			"0.011": 5.41403924015,
			"0.012": 4.86698711896,
			"0.013": 1.61842133989,
			"0.014": 0.0851159156353,
			"0.015": 0.0,
			"0.016": 0.0,
			"0.017": 0.0,
			"0.018": 0.0,
			"0.019": 0.0,
			"0.02": 0.0,
			"0.021": 0.0,
			"0.022": 0.0,
			"0.023": 0.0,
			"0.024": 0.0,
			"0.025": 0.0
		}
	}
}
