{
	 "smiles": "OC(=O)CCCN1C=C(Br)C=N1", 
	 "Tm": 368.15, 
	 "num_atms": 21, 
	 "gaussian": { 
		 "optdone": 1, 
		 "sigma_profile": "yes", 
		 "theory": "DFT", 
		 "functional": "B3LYP", 
		 "basiset": "6-31G**", 
		 "properties": { 
			 "R2extent": 6330.6582, 
			 "electric_dipole_moment_norm": 3.56834949241, 
			 "electric_quadrupole_moment_norm": 18.819383416, 
			 "total_energy": -3103.50658977, 
			 "HOMO_LUMO_gap": 0.24045, 
			 "cosmo_polarized_energy": -19.42, 
			 "cosmo_cavitation_energy": 28.24, 
			 "cosmo_dispersion_energy": -20.44, 
			 "cosmo_repulsion_energy": 1.68, 
			 "cosmo_total_nonelectrostatic_energy": 9.48, 
			 "SMD_solvation_energy": 4.5 
		},
		"coords": [
			{
				"x": 3.5946518957,
				"y": -1.1275344716,
				"z": 1.4188708559,
				"element": "O" 
			},
			{
				"x": 2.6370555804,
				"y": -0.1807999991,
				"z": 1.6111844553,
				"element": "C" 
			},
			{
				"x": 2.7008185536,
				"y": 0.5590424126,
				"z": 2.5602065421,
				"element": "O" 
			},
			{
				"x": 1.5162688067,
				"y": -0.1673863965,
				"z": 0.5776083987,
				"element": "C" 
			},
			{
				"x": 0.6029387498,
				"y": 1.0496967301,
				"z": 0.7291095815,
				"element": "C" 
			},
			{
				"x": -0.6317853094,
				"y": 1.0031136201,
				"z": -0.1728509776,
				"element": "C" 
			},
			{
				"x": -0.2936999355,
				"y": 0.9100063937,
				"z": -1.5925279247,
				"element": "N" 
			},
			{
				"x": -0.7501292709,
				"y": 0.0066485221,
				"z": -2.4997389136,
				"element": "C" 
			},
			{
				"x": -0.1671450105,
				"y": 0.349591199,
				"z": -3.7055939968,
				"element": "C" 
			},
			{
				"x": -0.394897662,
				"y": -0.5257986315,
				"z": -5.3582285593,
				"element": "Br" 
			},
			{
				"x": 0.6280060583,
				"y": 1.4792500775,
				"z": -3.4296939131,
				"element": "C" 
			},
			{
				"x": 0.5441938586,
				"y": 1.8156200876,
				"z": -2.1423002408,
				"element": "N" 
			},
			{
				"x": 3.4181382377,
				"y": -1.6245317471,
				"z": 0.6074037548,
				"element": "H" 
			},
			{
				"x": 1.9515666017,
				"y": -0.1942651402,
				"z": -0.4293777396,
				"element": "H" 
			},
			{
				"x": 0.9480574691,
				"y": -1.1024014081,
				"z": 0.6944598858,
				"element": "H" 
			},
			{
				"x": 1.1705487137,
				"y": 1.957733597,
				"z": 0.5099923323,
				"element": "H" 
			},
			{
				"x": 0.2712802786,
				"y": 1.1290951758,
				"z": 1.7688242189,
				"element": "H" 
			},
			{
				"x": -1.2387879253,
				"y": 1.9011450123,
				"z": -0.0163141738,
				"element": "H" 
			},
			{
				"x": -1.2560561461,
				"y": 0.1338889932,
				"z": 0.0571872119,
				"element": "H" 
			},
			{
				"x": -1.4354882117,
				"y": -0.7857205198,
				"z": -2.2403520116,
				"element": "H" 
			},
			{
				"x": 1.2459646677,
				"y": 2.0480064929,
				"z": -4.1098687863,
				"element": "H" 
			}
		],
		 "valence_orbital": [ 
			{
				"type": "occ",
				"energy": -0.31275,
				"method": "rhf"
			},
			{
				"type": "occ",
				"energy": -0.28624,
				"method": "rhf"
			},
			{
				"type": "occ",
				"energy": -0.27719,
				"method": "rhf"
			},
			{
				"type": "occ",
				"energy": -0.26872,
				"method": "rhf"
			},
			{
				"type": "occ",
				"energy": -0.24057,
				"method": "rhf"
			},
			{
				"type": "unocc",
				"energy": -0.00012,
				"method": "rhf"
			},
			{
				"type": "unocc",
				"energy": 0.00541,
				"method": "rhf"
			},
			{
				"type": "unocc",
				"energy": 0.0112,
				"method": "rhf"
			},
			{
				"type": "unocc",
				"energy": 0.05015,
				"method": "rhf"
			},
			{
				"type": "unocc",
				"energy": 0.05085,
				"method": "rhf"
			}
		],
		"cosmo_sigma_profile": { 
			"-0.025": 0.0,
			"-0.024": 0.0,
			"-0.023": 0.0,
			"-0.022": 0.0,
			"-0.021": 0.0,
			"-0.02": 0.0,
			"-0.019": 0.519554609093,
			"-0.018": 1.0277375747,
			"-0.017": 1.04644979391,
			"-0.016": 1.20229849814,
			"-0.015": 1.1985854843,
			"-0.014": 1.2181511129,
			"-0.013": 1.06140290957,
			"-0.012": 0.678544905905,
			"-0.011": 1.3179451412,
			"-0.01": 3.11887650369,
			"-0.009": 4.40916471205,
			"-0.008": 5.12139619385,
			"-0.007": 11.49284737,
			"-0.006": 11.1532245901,
			"-0.005": 11.9226972322,
			"-0.004": 16.1916966657,
			"-0.003": 13.7967009092,
			"-0.002": 10.8679266066,
			"-0.001": 11.6821398121,
			"0.0": 9.64349905358,
			"0.001": 9.91688335345,
			"0.002": 13.9609746855,
			"0.003": 17.6280564792,
			"0.004": 18.2520892892,
			"0.005": 10.0551738855,
			"0.006": 3.60280617166,
			"0.007": 4.59192839882,
			"0.008": 3.72177331474,
			"0.009": 4.58788411675,
			"0.01": 5.35796727152,
			"0.011": 6.62130570393,
			"0.012": 6.37818846467,
			"0.013": 3.05117291852,
			"0.014": 0.850299356958,
			"0.015": 0.0,
			"0.016": 0.0,
			"0.017": 0.0,
			"0.018": 0.0,
			"0.019": 0.0,
			"0.02": 0.0,
			"0.021": 0.0,
			"0.022": 0.0,
			"0.023": 0.0,
			"0.024": 0.0,
			"0.025": 0.0
		}
	}
}
