{
	 "smiles": "OC(=O)C1=C(C=CS1)S(=O)(=O)NC1=C2NN=CC2=CC=C1", 
	 "Tm": 510.15, 
	 "num_atms": 30, 
	 "gaussian": { 
		 "optdone": 1, 
		 "sigma_profile": "yes", 
		 "theory": "DFT", 
		 "functional": "B3LYP", 
		 "basiset": "6-31G**", 
		 "properties": { 
			 "R2extent": 7367.7924, 
			 "electric_dipole_moment_norm": 6.28539900802, 
			 "electric_quadrupole_moment_norm": 23.9367123317, 
			 "total_energy": -1724.13145203, 
			 "HOMO_LUMO_gap": 0.11428, 
			 "cosmo_polarized_energy": -24.3, 
			 "cosmo_cavitation_energy": 37.51, 
			 "cosmo_dispersion_energy": -27.99, 
			 "cosmo_repulsion_energy": 2.0, 
			 "cosmo_total_nonelectrostatic_energy": 11.53, 
			 "SMD_solvation_energy": 5.51 
		},
		"coords": [
			{
				"x": 0.298876116,
				"y": 0.6458909349,
				"z": 4.0001521675,
				"element": "O" 
			},
			{
				"x": -0.1409595999,
				"y": 0.6345424614,
				"z": 2.7204186038,
				"element": "C" 
			},
			{
				"x": 0.5452792842,
				"y": 1.0149389305,
				"z": 1.7956015024,
				"element": "O" 
			},
			{
				"x": -1.5137864154,
				"y": 0.1089908003,
				"z": 2.6293830684,
				"element": "C" 
			},
			{
				"x": -2.3570391308,
				"y": -0.0192562933,
				"z": 1.5357009195,
				"element": "C" 
			},
			{
				"x": -3.6261268581,
				"y": -0.5692539007,
				"z": 1.8658456061,
				"element": "C" 
			},
			{
				"x": -3.7338339635,
				"y": -0.8619036317,
				"z": 3.2003992431,
				"element": "C" 
			},
			{
				"x": -2.3053043927,
				"y": -0.4653680185,
				"z": 4.0718595402,
				"element": "S" 
			},
			{
				"x": -2.0782495922,
				"y": 0.4949491274,
				"z": -0.1728495858,
				"element": "S" 
			},
			{
				"x": -1.5188495463,
				"y": 1.8400298619,
				"z": -0.2311842737,
				"element": "O" 
			},
			{
				"x": -3.3342015349,
				"y": 0.1810171624,
				"z": -0.8671207822,
				"element": "O" 
			},
			{
				"x": -0.8458138654,
				"y": -0.605813737,
				"z": -0.6357214448,
				"element": "N" 
			},
			{
				"x": -0.1710251957,
				"y": -0.3218312163,
				"z": -1.8758727609,
				"element": "C" 
			},
			{
				"x": 0.9318458998,
				"y": 0.5541804743,
				"z": -1.9070685362,
				"element": "C" 
			},
			{
				"x": 1.5357285172,
				"y": 1.2970932839,
				"z": -0.9422670613,
				"element": "N" 
			},
			{
				"x": 2.5934638944,
				"y": 1.9980414458,
				"z": -1.4200444671,
				"element": "N" 
			},
			{
				"x": 2.6842765296,
				"y": 1.6991257843,
				"z": -2.7051808785,
				"element": "C" 
			},
			{
				"x": 1.6622325012,
				"y": 0.7836135757,
				"z": -3.1032980543,
				"element": "C" 
			},
			{
				"x": 1.2921856435,
				"y": 0.1258805705,
				"z": -4.2904420226,
				"element": "C" 
			},
			{
				"x": 0.2053065604,
				"y": -0.7331964222,
				"z": -4.2584822808,
				"element": "C" 
			},
			{
				"x": -0.5232711508,
				"y": -0.9449931301,
				"z": -3.0664898469,
				"element": "C" 
			},
			{
				"x": 1.2037251791,
				"y": 0.99906251,
				"z": 3.9811254846,
				"element": "H" 
			},
			{
				"x": -4.4051373069,
				"y": -0.7221856327,
				"z": 1.1311725802,
				"element": "H" 
			},
			{
				"x": -4.5837457571,
				"y": -1.287056235,
				"z": 3.717113144,
				"element": "H" 
			},
			{
				"x": -1.2740415962,
				"y": -1.5303496528,
				"z": -0.6615147361,
				"element": "H" 
			},
			{
				"x": 1.2372653693,
				"y": 1.4015036958,
				"z": 0.0196588799,
				"element": "H" 
			},
			{
				"x": 3.4661138496,
				"y": 2.1403762441,
				"z": -3.3087080607,
				"element": "H" 
			},
			{
				"x": 1.8475640741,
				"y": 0.2845823847,
				"z": -5.2100143174,
				"element": "H" 
			},
			{
				"x": -0.1042640518,
				"y": -1.2528165654,
				"z": -5.1598168172,
				"element": "H" 
			},
			{
				"x": -1.3790134606,
				"y": -1.6149948123,
				"z": -3.0752548132,
				"element": "H" 
			}
		],
		 "valence_orbital": [ 
			{
				"type": "occ",
				"energy": -0.2804,
				"method": "rhf"
			},
			{
				"type": "occ",
				"energy": -0.27852,
				"method": "rhf"
			},
			{
				"type": "occ",
				"energy": -0.26678,
				"method": "rhf"
			},
			{
				"type": "occ",
				"energy": -0.23548,
				"method": "rhf"
			},
			{
				"type": "occ",
				"energy": -0.2097,
				"method": "rhf"
			},
			{
				"type": "unocc",
				"energy": -0.09542,
				"method": "rhf"
			},
			{
				"type": "unocc",
				"energy": -0.02977,
				"method": "rhf"
			},
			{
				"type": "unocc",
				"energy": -0.00844,
				"method": "rhf"
			},
			{
				"type": "unocc",
				"energy": -0.00289,
				"method": "rhf"
			},
			{
				"type": "unocc",
				"energy": 0.02191,
				"method": "rhf"
			}
		],
		"cosmo_sigma_profile": { 
			"-0.025": 0.0,
			"-0.024": 0.0,
			"-0.023": 0.0,
			"-0.022": 0.0,
			"-0.021": 0.0,
			"-0.02": 0.287718505645,
			"-0.019": 0.836433534263,
			"-0.018": 1.12388822978,
			"-0.017": 0.73821607595,
			"-0.016": 1.40982238491,
			"-0.015": 1.83848207625,
			"-0.014": 2.12381659505,
			"-0.013": 2.03205538575,
			"-0.012": 1.57129523842,
			"-0.011": 2.86736789037,
			"-0.01": 4.47948511259,
			"-0.009": 4.51162799557,
			"-0.008": 6.17878748202,
			"-0.007": 8.79858486765,
			"-0.006": 13.0378284193,
			"-0.005": 12.91318489,
			"-0.004": 15.7402974397,
			"-0.003": 16.2471954889,
			"-0.002": 18.7503861928,
			"-0.001": 19.6446602295,
			"0.0": 21.6529362872,
			"0.001": 22.0005844141,
			"0.002": 20.4369171414,
			"0.003": 23.0691881762,
			"0.004": 18.0520452264,
			"0.005": 14.254917281,
			"0.006": 9.80186127,
			"0.007": 6.36439543185,
			"0.008": 7.04332368207,
			"0.009": 7.14637037527,
			"0.01": 9.6330144257,
			"0.011": 5.35313111775,
			"0.012": 1.1284818482,
			"0.013": 1.28892737006,
			"0.014": 1.1157543958,
			"0.015": 0.845341444608,
			"0.016": 0.318296139982,
			"0.017": 0.0,
			"0.018": 0.0,
			"0.019": 0.0,
			"0.02": 0.0,
			"0.021": 0.0,
			"0.022": 0.0,
			"0.023": 0.0,
			"0.024": 0.0,
			"0.025": 0.0
		}
	}
}
