{
	 "smiles": "CC1=CC=C(C=C1N)C(O)=O", 
	 "Tm": 439.15, 
	 "num_atms": 20, 
	 "gaussian": { 
		 "optdone": 1, 
		 "sigma_profile": "yes", 
		 "theory": "DFT", 
		 "functional": "B3LYP", 
		 "basiset": "6-31G**", 
		 "properties": { 
			 "R2extent": 2045.7031, 
			 "electric_dipole_moment_norm": 3.67674440504, 
			 "electric_quadrupole_moment_norm": 8.57746067668, 
			 "total_energy": -515.505224158, 
			 "HOMO_LUMO_gap": 0.17021, 
			 "cosmo_polarized_energy": -13.51, 
			 "cosmo_cavitation_energy": 23.99, 
			 "cosmo_dispersion_energy": -17.84, 
			 "cosmo_repulsion_energy": 1.43, 
			 "cosmo_total_nonelectrostatic_energy": 7.58, 
			 "SMD_solvation_energy": 5.3 
		},
		"coords": [
			{
				"x": -0.9378233819,
				"y": 0.292062044,
				"z": 2.8675730766,
				"element": "C" 
			},
			{
				"x": -0.5811931259,
				"y": 0.189307232,
				"z": 1.4067782935,
				"element": "C" 
			},
			{
				"x": -1.1681650663,
				"y": -0.7762803507,
				"z": 0.5830850015,
				"element": "C" 
			},
			{
				"x": -0.8371711444,
				"y": -0.8952569052,
				"z": -0.7633748677,
				"element": "C" 
			},
			{
				"x": 0.1104194706,
				"y": -0.0226899591,
				"z": -1.310327143,
				"element": "C" 
			},
			{
				"x": 0.7074541703,
				"y": 0.9563493771,
				"z": -0.5090887514,
				"element": "C" 
			},
			{
				"x": 0.3724158952,
				"y": 1.072709299,
				"z": 0.8459370505,
				"element": "C" 
			},
			{
				"x": 1.0198552829,
				"y": 2.0122285162,
				"z": 1.6542551834,
				"element": "N" 
			},
			{
				"x": 0.4472952035,
				"y": -0.1680983322,
				"z": -2.7489301371,
				"element": "C" 
			},
			{
				"x": 1.3740443988,
				"y": 0.7300054662,
				"z": -3.1779995125,
				"element": "O" 
			},
			{
				"x": -0.0349532194,
				"y": -0.9934549062,
				"z": -3.5005944239,
				"element": "O" 
			},
			{
				"x": -1.6362843747,
				"y": -0.4958216378,
				"z": 3.1592149218,
				"element": "H" 
			},
			{
				"x": -0.0465455131,
				"y": 0.2094564588,
				"z": 3.5018868985,
				"element": "H" 
			},
			{
				"x": -1.4141188057,
				"y": 1.2536056806,
				"z": 3.10783928,
				"element": "H" 
			},
			{
				"x": -1.9012029283,
				"y": -1.4521169427,
				"z": 1.0163194745,
				"element": "H" 
			},
			{
				"x": -1.2930260036,
				"y": -1.6466901831,
				"z": -1.3974811319,
				"element": "H" 
			},
			{
				"x": 1.4396678811,
				"y": 1.6295634092,
				"z": -0.943090117,
				"element": "H" 
			},
			{
				"x": 0.4788698294,
				"y": 2.3675682752,
				"z": 2.4302581673,
				"element": "H" 
			},
			{
				"x": 1.4797995447,
				"y": 2.7568818997,
				"z": 1.1484714963,
				"element": "H" 
			},
			{
				"x": 1.5071618869,
				"y": 0.5323715591,
				"z": -4.1193327593,
				"element": "H" 
			}
		],
		 "valence_orbital": [ 
			{
				"type": "occ",
				"energy": -0.31753,
				"method": "rhf"
			},
			{
				"type": "occ",
				"energy": -0.30486,
				"method": "rhf"
			},
			{
				"type": "occ",
				"energy": -0.26842,
				"method": "rhf"
			},
			{
				"type": "occ",
				"energy": -0.24831,
				"method": "rhf"
			},
			{
				"type": "occ",
				"energy": -0.20778,
				"method": "rhf"
			},
			{
				"type": "unocc",
				"energy": -0.03757,
				"method": "rhf"
			},
			{
				"type": "unocc",
				"energy": 0.01019,
				"method": "rhf"
			},
			{
				"type": "unocc",
				"energy": 0.06669,
				"method": "rhf"
			},
			{
				"type": "unocc",
				"energy": 0.07331,
				"method": "rhf"
			},
			{
				"type": "unocc",
				"energy": 0.08439,
				"method": "rhf"
			}
		],
		"cosmo_sigma_profile": { 
			"-0.025": 0.0,
			"-0.024": 0.0,
			"-0.023": 0.0,
			"-0.022": 0.0,
			"-0.021": 0.0,
			"-0.02": 0.0,
			"-0.019": 0.00116944038859,
			"-0.018": 0.583460967149,
			"-0.017": 0.813445821651,
			"-0.016": 0.829438443659,
			"-0.015": 0.828744129399,
			"-0.014": 0.855148906561,
			"-0.013": 1.10713005622,
			"-0.012": 2.60252909442,
			"-0.011": 3.42202757479,
			"-0.01": 3.39126632694,
			"-0.009": 3.91468161898,
			"-0.008": 3.77884836733,
			"-0.007": 3.52280059433,
			"-0.006": 4.81556246357,
			"-0.005": 8.86314543781,
			"-0.004": 11.4326295132,
			"-0.003": 11.0020833693,
			"-0.002": 11.6510837323,
			"-0.001": 14.1776793301,
			"0.0": 13.1690173001,
			"0.001": 10.2038698991,
			"0.002": 10.5453519259,
			"0.003": 13.5038315358,
			"0.004": 12.7635630513,
			"0.005": 12.7787214764,
			"0.006": 6.40387002203,
			"0.007": 3.73911245659,
			"0.008": 3.40620572813,
			"0.009": 1.7707321281,
			"0.01": 2.84454207,
			"0.011": 3.21963488388,
			"0.012": 6.13972885968,
			"0.013": 1.20940851597,
			"0.014": 0.452811307149,
			"0.015": 0.11247929481,
			"0.016": 0.0,
			"0.017": 0.0,
			"0.018": 0.0,
			"0.019": 0.0,
			"0.02": 0.0,
			"0.021": 0.0,
			"0.022": 0.0,
			"0.023": 0.0,
			"0.024": 0.0,
			"0.025": 0.0
		}
	}
}
