{
	 "smiles": "BrC(C(=O)C1=CC=CC2=C1C=CC=C2)C1=CC=CC=C1", 
	 "Tm": 337.15, 
	 "num_atms": 33, 
	 "gaussian": { 
		 "optdone": 1, 
		 "sigma_profile": "yes", 
		 "theory": "DFT", 
		 "functional": "B3LYP", 
		 "basiset": "6-31G**", 
		 "properties": { 
			 "R2extent": 7216.0112, 
			 "electric_dipole_moment_norm": 4.02819640782, 
			 "electric_quadrupole_moment_norm": 13.885604563, 
			 "total_energy": -3340.38360601, 
			 "HOMO_LUMO_gap": 0.15083, 
			 "cosmo_polarized_energy": -11.16, 
			 "cosmo_cavitation_energy": 38.87, 
			 "cosmo_dispersion_energy": -27.34, 
			 "cosmo_repulsion_energy": 2.08, 
			 "cosmo_total_nonelectrostatic_energy": 13.62, 
			 "SMD_solvation_energy": 5.46 
		},
		"coords": [
			{
				"x": -2.3814975001,
				"y": 2.234644607,
				"z": -0.7065422479,
				"element": "Br" 
			},
			{
				"x": -1.2884126893,
				"y": 0.7021315116,
				"z": 0.006425362,
				"element": "C" 
			},
			{
				"x": -0.3080604533,
				"y": 1.2690337668,
				"z": 1.053890314,
				"element": "C" 
			},
			{
				"x": -0.7188464033,
				"y": 1.8025663335,
				"z": 2.0680516365,
				"element": "O" 
			},
			{
				"x": 1.1530347817,
				"y": 0.97480303,
				"z": 0.870535161,
				"element": "C" 
			},
			{
				"x": 1.8018934088,
				"y": 0.4969544563,
				"z": 1.9991897559,
				"element": "C" 
			},
			{
				"x": 3.1484723003,
				"y": 0.0814549628,
				"z": 1.9515703883,
				"element": "C" 
			},
			{
				"x": 3.8491632344,
				"y": 0.1646380566,
				"z": 0.7703380302,
				"element": "C" 
			},
			{
				"x": 3.2462325732,
				"y": 0.6968100679,
				"z": -0.4003207286,
				"element": "C" 
			},
			{
				"x": 1.8760441685,
				"y": 1.1274507338,
				"z": -0.3610818534,
				"element": "C" 
			},
			{
				"x": 1.3350374577,
				"y": 1.7373256547,
				"z": -1.5279593175,
				"element": "C" 
			},
			{
				"x": 2.084217038,
				"y": 1.8594938255,
				"z": -2.6785549717,
				"element": "C" 
			},
			{
				"x": 3.4180417746,
				"y": 1.392578153,
				"z": -2.7267694513,
				"element": "C" 
			},
			{
				"x": 3.9859811099,
				"y": 0.8325493131,
				"z": -1.6060250355,
				"element": "C" 
			},
			{
				"x": -2.1700517192,
				"y": -0.3885556822,
				"z": 0.5537424294,
				"element": "C" 
			},
			{
				"x": -2.2020803044,
				"y": -1.6238722349,
				"z": -0.1074187236,
				"element": "C" 
			},
			{
				"x": -2.9882899711,
				"y": -2.6693636493,
				"z": 0.3787623985,
				"element": "C" 
			},
			{
				"x": -3.7529633064,
				"y": -2.4874575906,
				"z": 1.5309594968,
				"element": "C" 
			},
			{
				"x": -3.7270693758,
				"y": -1.2568254204,
				"z": 2.1941126534,
				"element": "C" 
			},
			{
				"x": -2.9423118467,
				"y": -0.2119925447,
				"z": 1.7124913883,
				"element": "C" 
			},
			{
				"x": -0.7565881662,
				"y": 0.3419865151,
				"z": -0.8701301841,
				"element": "H" 
			},
			{
				"x": 1.2406526481,
				"y": 0.4220561992,
				"z": 2.9246499986,
				"element": "H" 
			},
			{
				"x": 3.6212658283,
				"y": -0.3118238793,
				"z": 2.8462390649,
				"element": "H" 
			},
			{
				"x": 4.8836845236,
				"y": -0.1648600087,
				"z": 0.7182999724,
				"element": "H" 
			},
			{
				"x": 0.3304924987,
				"y": 2.1462979915,
				"z": -1.5097247072,
				"element": "H" 
			},
			{
				"x": 1.6478075811,
				"y": 2.3323769787,
				"z": -3.5534346994,
				"element": "H" 
			},
			{
				"x": 3.9944905095,
				"y": 1.4942937957,
				"z": -3.6413798823,
				"element": "H" 
			},
			{
				"x": 5.0188984642,
				"y": 0.4945510785,
				"z": -1.621049292,
				"element": "H" 
			},
			{
				"x": -1.6105774632,
				"y": -1.7672174716,
				"z": -1.0081043331,
				"element": "H" 
			},
			{
				"x": -3.0032671898,
				"y": -3.6213061036,
				"z": -0.1438904757,
				"element": "H" 
			},
			{
				"x": -4.368130384,
				"y": -3.2982277477,
				"z": 1.9105933509,
				"element": "H" 
			},
			{
				"x": -4.322621439,
				"y": -1.1105591335,
				"z": 3.090594068,
				"element": "H" 
			},
			{
				"x": -2.9153416887,
				"y": 0.7421644352,
				"z": 2.2256404345,
				"element": "H" 
			}
		],
		 "valence_orbital": [ 
			{
				"type": "occ",
				"energy": -0.25968,
				"method": "rhf"
			},
			{
				"type": "occ",
				"energy": -0.25584,
				"method": "rhf"
			},
			{
				"type": "occ",
				"energy": -0.25299,
				"method": "rhf"
			},
			{
				"type": "occ",
				"energy": -0.24583,
				"method": "rhf"
			},
			{
				"type": "occ",
				"energy": -0.22825,
				"method": "rhf"
			},
			{
				"type": "unocc",
				"energy": -0.07742,
				"method": "rhf"
			},
			{
				"type": "unocc",
				"energy": -0.04395,
				"method": "rhf"
			},
			{
				"type": "unocc",
				"energy": -0.02134,
				"method": "rhf"
			},
			{
				"type": "unocc",
				"energy": -0.00922,
				"method": "rhf"
			},
			{
				"type": "unocc",
				"energy": -0.00555,
				"method": "rhf"
			}
		],
		"cosmo_sigma_profile": { 
			"-0.025": 0.0,
			"-0.024": 0.0,
			"-0.023": 0.0,
			"-0.022": 0.0,
			"-0.021": 0.0,
			"-0.02": 0.0,
			"-0.019": 0.0,
			"-0.018": 0.0,
			"-0.017": 0.0,
			"-0.016": 0.0,
			"-0.015": 0.0,
			"-0.014": 0.0,
			"-0.013": 0.0,
			"-0.012": 0.0,
			"-0.011": 0.0,
			"-0.01": 0.0,
			"-0.009": 0.500977187315,
			"-0.008": 2.08749750691,
			"-0.007": 7.52570633463,
			"-0.006": 22.1783888622,
			"-0.005": 25.4403279491,
			"-0.004": 24.5226835264,
			"-0.003": 21.5367047602,
			"-0.002": 21.4838563572,
			"-0.001": 18.5187195867,
			"0.0": 17.8648172543,
			"0.001": 22.0002141117,
			"0.002": 28.5346367869,
			"0.003": 34.8459613866,
			"0.004": 31.1498906148,
			"0.005": 19.806077748,
			"0.006": 3.81918181756,
			"0.007": 3.21733934856,
			"0.008": 2.14099724379,
			"0.009": 2.23152758973,
			"0.01": 2.99179468262,
			"0.011": 2.7813130187,
			"0.012": 0.558919425924,
			"0.013": 0.0,
			"0.014": 0.0,
			"0.015": 0.0,
			"0.016": 0.0,
			"0.017": 0.0,
			"0.018": 0.0,
			"0.019": 0.0,
			"0.02": 0.0,
			"0.021": 0.0,
			"0.022": 0.0,
			"0.023": 0.0,
			"0.024": 0.0,
			"0.025": 0.0
		}
	}
}
