{
	 "smiles": "CC1=NOC2=C1C(=CC(=N2)C1=CC(Cl)=CC=C1)C(O)=O", 
	 "Tm": 513.15, 
	 "num_atms": 29, 
	 "gaussian": { 
		 "optdone": 1, 
		 "sigma_profile": "yes", 
		 "theory": "DFT", 
		 "functional": "B3LYP", 
		 "basiset": "6-31G**", 
		 "properties": { 
			 "R2extent": 7695.5811, 
			 "electric_dipole_moment_norm": 2.41893310366, 
			 "electric_quadrupole_moment_norm": 32.1644579943, 
			 "total_energy": -1334.26377012, 
			 "HOMO_LUMO_gap": 0.14767, 
			 "cosmo_polarized_energy": -14.67, 
			 "cosmo_cavitation_energy": 36.31, 
			 "cosmo_dispersion_energy": -26.79, 
			 "cosmo_repulsion_energy": 2.02, 
			 "cosmo_total_nonelectrostatic_energy": 11.53, 
			 "SMD_solvation_energy": 5.77 
		},
		"coords": [
			{
				"x": -3.1519566429,
				"y": 2.3471343261,
				"z": 3.1024758396,
				"element": "C" 
			},
			{
				"x": -2.0093889376,
				"y": 2.4298477905,
				"z": 2.1385019303,
				"element": "C" 
			},
			{
				"x": -1.4568722714,
				"y": 3.6062500723,
				"z": 1.9582371114,
				"element": "N" 
			},
			{
				"x": -0.4160721336,
				"y": 3.4727813751,
				"z": 1.0262344814,
				"element": "O" 
			},
			{
				"x": -0.3596889009,
				"y": 2.1782114953,
				"z": 0.6503210915,
				"element": "C" 
			},
			{
				"x": -1.3519141294,
				"y": 1.4341695706,
				"z": 1.3199508678,
				"element": "C" 
			},
			{
				"x": -1.3813975559,
				"y": 0.0564593719,
				"z": 1.0085717693,
				"element": "C" 
			},
			{
				"x": -0.4495712868,
				"y": -0.4108790916,
				"z": 0.0843393759,
				"element": "C" 
			},
			{
				"x": 0.4872696027,
				"y": 0.4541503311,
				"z": -0.5264171411,
				"element": "C" 
			},
			{
				"x": 0.5311301939,
				"y": 1.7640750635,
				"z": -0.2294008701,
				"element": "N" 
			},
			{
				"x": 1.4844342755,
				"y": -0.0346784191,
				"z": -1.5137222049,
				"element": "C" 
			},
			{
				"x": 1.3530776537,
				"y": -1.2887640102,
				"z": -2.1321787473,
				"element": "C" 
			},
			{
				"x": 2.3119255803,
				"y": -1.7095480606,
				"z": -3.0494301704,
				"element": "C" 
			},
			{
				"x": 2.1263201396,
				"y": -3.2795059493,
				"z": -3.8193133244,
				"element": "Cl" 
			},
			{
				"x": 3.4092614398,
				"y": -0.9137945908,
				"z": -3.3750712179,
				"element": "C" 
			},
			{
				"x": 3.5328040618,
				"y": 0.3349309693,
				"z": -2.7628692088,
				"element": "C" 
			},
			{
				"x": 2.5835573397,
				"y": 0.7752363039,
				"z": -1.8452659842,
				"element": "C" 
			},
			{
				"x": -2.3064455286,
				"y": -0.9743412775,
				"z": 1.5740915257,
				"element": "C" 
			},
			{
				"x": -3.1911072463,
				"y": -0.4791263858,
				"z": 2.4647739454,
				"element": "O" 
			},
			{
				"x": -2.278633438,
				"y": -2.1488686059,
				"z": 1.2715982005,
				"element": "O" 
			},
			{
				"x": -2.9263705527,
				"y": 1.6599923188,
				"z": 3.9212606212,
				"element": "H" 
			},
			{
				"x": -4.0557394103,
				"y": 1.9805030832,
				"z": 2.6102485988,
				"element": "H" 
			},
			{
				"x": -3.3396816984,
				"y": 3.343262087,
				"z": 3.5077648287,
				"element": "H" 
			},
			{
				"x": -0.4587729752,
				"y": -1.4702270411,
				"z": -0.1351030206,
				"element": "H" 
			},
			{
				"x": 0.5069506668,
				"y": -1.9334085623,
				"z": -1.9280304694,
				"element": "H" 
			},
			{
				"x": 4.143501548,
				"y": -1.2640723971,
				"z": -4.0917992375,
				"element": "H" 
			},
			{
				"x": 4.3811420865,
				"y": 0.9671380797,
				"z": -3.0070536562,
				"element": "H" 
			},
			{
				"x": 2.6754975538,
				"y": 1.7459535895,
				"z": -1.3730743086,
				"element": "H" 
			},
			{
				"x": -3.730459434,
				"y": -1.2332814364,
				"z": 2.7574593738,
				"element": "H" 
			}
		],
		 "valence_orbital": [ 
			{
				"type": "occ",
				"energy": -0.29496,
				"method": "rhf"
			},
			{
				"type": "occ",
				"energy": -0.29061,
				"method": "rhf"
			},
			{
				"type": "occ",
				"energy": -0.27723,
				"method": "rhf"
			},
			{
				"type": "occ",
				"energy": -0.25864,
				"method": "rhf"
			},
			{
				"type": "occ",
				"energy": -0.24512,
				"method": "rhf"
			},
			{
				"type": "unocc",
				"energy": -0.09745,
				"method": "rhf"
			},
			{
				"type": "unocc",
				"energy": -0.05278,
				"method": "rhf"
			},
			{
				"type": "unocc",
				"energy": -0.01907,
				"method": "rhf"
			},
			{
				"type": "unocc",
				"energy": -0.00237,
				"method": "rhf"
			},
			{
				"type": "unocc",
				"energy": 0.0193,
				"method": "rhf"
			}
		],
		"cosmo_sigma_profile": { 
			"-0.025": 0.0,
			"-0.024": 0.0,
			"-0.023": 0.0,
			"-0.022": 0.0,
			"-0.021": 0.0,
			"-0.02": 0.0,
			"-0.019": 0.640308535712,
			"-0.018": 0.843944366083,
			"-0.017": 0.968036434389,
			"-0.016": 0.805936948313,
			"-0.015": 0.799124917995,
			"-0.014": 0.872425160133,
			"-0.013": 0.835515637579,
			"-0.012": 0.530402353682,
			"-0.011": 0.727133478587,
			"-0.01": 1.32564537185,
			"-0.009": 1.92481540751,
			"-0.008": 3.2030877618,
			"-0.007": 7.28495588393,
			"-0.006": 8.03322696751,
			"-0.005": 13.7727799245,
			"-0.004": 18.759730225,
			"-0.003": 24.9457625338,
			"-0.002": 28.4864134565,
			"-0.001": 28.301862264,
			"0.0": 21.4785922006,
			"0.001": 23.1346605349,
			"0.002": 24.1393641563,
			"0.003": 21.0873532524,
			"0.004": 14.3816843947,
			"0.005": 9.82282951833,
			"0.006": 6.22827264344,
			"0.007": 8.61550018004,
			"0.008": 5.70121615623,
			"0.009": 4.99916350206,
			"0.01": 5.08134025641,
			"0.011": 4.94947743029,
			"0.012": 1.48059388166,
			"0.013": 0.76615555146,
			"0.014": 0.131196929211,
			"0.015": 0.0,
			"0.016": 0.0,
			"0.017": 0.0,
			"0.018": 0.0,
			"0.019": 0.0,
			"0.02": 0.0,
			"0.021": 0.0,
			"0.022": 0.0,
			"0.023": 0.0,
			"0.024": 0.0,
			"0.025": 0.0
		}
	}
}
