{
	 "smiles": "OC(=O)C1=CC(=C(O)C=C1)C1=CC=CC=C1", 
	 "Tm": 416.15, 
	 "num_atms": 26, 
	 "gaussian": { 
		 "optdone": 1, 
		 "sigma_profile": "yes", 
		 "theory": "DFT", 
		 "functional": "B3LYP", 
		 "basiset": "6-31G**", 
		 "properties": { 
			 "R2extent": 4211.6771, 
			 "electric_dipole_moment_norm": 1.96777201932, 
			 "electric_quadrupole_moment_norm": 15.9942360258, 
			 "total_energy": -727.104256292, 
			 "HOMO_LUMO_gap": 0.18284, 
			 "cosmo_polarized_energy": -15.34, 
			 "cosmo_cavitation_energy": 30.81, 
			 "cosmo_dispersion_energy": -22.52, 
			 "cosmo_repulsion_energy": 1.75, 
			 "cosmo_total_nonelectrostatic_energy": 10.04, 
			 "SMD_solvation_energy": 6.64 
		},
		"coords": [
			{
				"x": -1.1281853506,
				"y": 3.4522897143,
				"z": 1.3619962976,
				"element": "O" 
			},
			{
				"x": -0.974102077,
				"y": 2.5560300006,
				"z": 2.3719339913,
				"element": "C" 
			},
			{
				"x": -1.2746297102,
				"y": 2.8269952819,
				"z": 3.5195616795,
				"element": "O" 
			},
			{
				"x": -0.4158425506,
				"y": 1.2601821417,
				"z": 1.9234046403,
				"element": "C" 
			},
			{
				"x": -0.0935971699,
				"y": 1.0015160514,
				"z": 0.5846758105,
				"element": "C" 
			},
			{
				"x": 0.4283936461,
				"y": -0.2278691597,
				"z": 0.1670363935,
				"element": "C" 
			},
			{
				"x": 0.6224104997,
				"y": -1.2198344064,
				"z": 1.1567923152,
				"element": "C" 
			},
			{
				"x": 1.1434644846,
				"y": -2.4183663913,
				"z": 0.7728814583,
				"element": "O" 
			},
			{
				"x": 0.3021714115,
				"y": -0.9688767146,
				"z": 2.4979580884,
				"element": "C" 
			},
			{
				"x": -0.2129790054,
				"y": 0.260369189,
				"z": 2.8824212368,
				"element": "C" 
			},
			{
				"x": 0.7740032951,
				"y": -0.4430012759,
				"z": -1.2644021235,
				"element": "C" 
			},
			{
				"x": 0.4307065697,
				"y": -1.624357222,
				"z": -1.9435832939,
				"element": "C" 
			},
			{
				"x": 0.7260923743,
				"y": -1.778698331,
				"z": -3.2970487005,
				"element": "C" 
			},
			{
				"x": 1.3732459085,
				"y": -0.7606493982,
				"z": -4.000318936,
				"element": "C" 
			},
			{
				"x": 1.7243958986,
				"y": 0.4158942196,
				"z": -3.3371414759,
				"element": "C" 
			},
			{
				"x": 1.4278591435,
				"y": 0.5719321167,
				"z": -1.9835735746,
				"element": "C" 
			},
			{
				"x": -1.497578271,
				"y": 4.2490232689,
				"z": 1.776345099,
				"element": "H" 
			},
			{
				"x": -0.2699328543,
				"y": 1.7720108454,
				"z": -0.1568862567,
				"element": "H" 
			},
			{
				"x": 1.2535360387,
				"y": -2.9789863472,
				"z": 1.5523393521,
				"element": "H" 
			},
			{
				"x": 0.4670240713,
				"y": -1.7481059731,
				"z": 3.2394983143,
				"element": "H" 
			},
			{
				"x": -0.466044051,
				"y": 0.464530858,
				"z": 3.9170005492,
				"element": "H" 
			},
			{
				"x": -0.0730744996,
				"y": -2.420914578,
				"z": -1.4083082923,
				"element": "H" 
			},
			{
				"x": 0.4460336807,
				"y": -2.6973781678,
				"z": -3.8049679017,
				"element": "H" 
			},
			{
				"x": 1.6044934394,
				"y": -0.8850209827,
				"z": -5.0543400146,
				"element": "H" 
			},
			{
				"x": 2.2359765,
				"y": 1.2119427689,
				"z": -3.8708168907,
				"element": "H" 
			},
			{
				"x": 1.721658578,
				"y": 1.4831424914,
				"z": -1.4705577656,
				"element": "H" 
			}
		],
		 "valence_orbital": [ 
			{
				"type": "occ",
				"energy": -0.27719,
				"method": "rhf"
			},
			{
				"type": "occ",
				"energy": -0.27143,
				"method": "rhf"
			},
			{
				"type": "occ",
				"energy": -0.24793,
				"method": "rhf"
			},
			{
				"type": "occ",
				"energy": -0.24637,
				"method": "rhf"
			},
			{
				"type": "occ",
				"energy": -0.22275,
				"method": "rhf"
			},
			{
				"type": "unocc",
				"energy": -0.03991,
				"method": "rhf"
			},
			{
				"type": "unocc",
				"energy": -0.02729,
				"method": "rhf"
			},
			{
				"type": "unocc",
				"energy": 0.00124,
				"method": "rhf"
			},
			{
				"type": "unocc",
				"energy": 0.01551,
				"method": "rhf"
			},
			{
				"type": "unocc",
				"energy": 0.05945,
				"method": "rhf"
			}
		],
		"cosmo_sigma_profile": { 
			"-0.025": 0.0,
			"-0.024": 0.0,
			"-0.023": 0.0,
			"-0.022": 0.0,
			"-0.021": 0.0,
			"-0.02": 0.0,
			"-0.019": 0.0975745016549,
			"-0.018": 1.8333365127,
			"-0.017": 1.96518203359,
			"-0.016": 1.8857542298,
			"-0.015": 1.67118566598,
			"-0.014": 2.40854804318,
			"-0.013": 1.15832809467,
			"-0.012": 1.56072627885,
			"-0.011": 1.60534263704,
			"-0.01": 2.35414921276,
			"-0.009": 1.27753840209,
			"-0.008": 1.64775365208,
			"-0.007": 2.82619367249,
			"-0.006": 8.35831640658,
			"-0.005": 15.4786186925,
			"-0.004": 15.4554001585,
			"-0.003": 14.0932367062,
			"-0.002": 13.5165623602,
			"-0.001": 16.4249838744,
			"0.0": 14.1375968259,
			"0.001": 19.098954124,
			"0.002": 21.5245498236,
			"0.003": 23.6019445179,
			"0.004": 14.7780814254,
			"0.005": 13.2608611418,
			"0.006": 11.2650736033,
			"0.007": 4.7651442865,
			"0.008": 3.67271758227,
			"0.009": 3.28513616716,
			"0.01": 2.83843256913,
			"0.011": 2.96079358002,
			"0.012": 5.26035752801,
			"0.013": 0.642022274825,
			"0.014": 0.0,
			"0.015": 0.0,
			"0.016": 0.0,
			"0.017": 0.0,
			"0.018": 0.0,
			"0.019": 0.0,
			"0.02": 0.0,
			"0.021": 0.0,
			"0.022": 0.0,
			"0.023": 0.0,
			"0.024": 0.0,
			"0.025": 0.0
		}
	}
}
