{
	 "smiles": "C=C1CCCCC1", 
	 "Tm": 166.15, 
	 "num_atms": 19, 
	 "gaussian": { 
		 "optdone": 1, 
		 "sigma_profile": "yes", 
		 "theory": "DFT", 
		 "functional": "B3LYP", 
		 "basiset": "6-31G**", 
		 "properties": { 
			 "R2extent": 1429.955, 
			 "electric_dipole_moment_norm": 0.658094324546, 
			 "electric_quadrupole_moment_norm": 1.98799489939, 
			 "total_energy": -273.966279322, 
			 "HOMO_LUMO_gap": 0.2599, 
			 "cosmo_polarized_energy": -1.53, 
			 "cosmo_cavitation_energy": 19.95, 
			 "cosmo_dispersion_energy": -14.99, 
			 "cosmo_repulsion_energy": 1.26, 
			 "cosmo_total_nonelectrostatic_energy": 6.22, 
			 "SMD_solvation_energy": 3.27 
		},
		"coords": [
			{
				"x": -0.3659200695,
				"y": -0.826966494,
				"z": -2.9443110414,
				"element": "C" 
			},
			{
				"x": -0.9476499619,
				"y": -0.2014364918,
				"z": -1.9178066658,
				"element": "C" 
			},
			{
				"x": -1.713806396,
				"y": 1.1014153595,
				"z": -2.0794671098,
				"element": "C" 
			},
			{
				"x": -2.8314886213,
				"y": 1.224053522,
				"z": -1.0309454862,
				"element": "C" 
			},
			{
				"x": -2.2656506041,
				"y": 1.2183356126,
				"z": 0.4109115534,
				"element": "C" 
			},
			{
				"x": -0.952026248,
				"y": 0.4065037538,
				"z": 0.5310684295,
				"element": "C" 
			},
			{
				"x": -0.8954290582,
				"y": -0.7361628477,
				"z": -0.495874065,
				"element": "C" 
			},
			{
				"x": 0.2048940771,
				"y": -1.7418982842,
				"z": -2.8065547592,
				"element": "H" 
			},
			{
				"x": -0.4389241029,
				"y": -0.447210961,
				"z": -3.9603660901,
				"element": "H" 
			},
			{
				"x": -1.0195535764,
				"y": 1.9464106509,
				"z": -1.9541260837,
				"element": "H" 
			},
			{
				"x": -2.1140494111,
				"y": 1.1840894673,
				"z": -3.0957680532,
				"element": "H" 
			},
			{
				"x": -3.5248713247,
				"y": 0.3839728203,
				"z": -1.1616783787,
				"element": "H" 
			},
			{
				"x": -3.4175728972,
				"y": 2.1333365785,
				"z": -1.203479412,
				"element": "H" 
			},
			{
				"x": -3.0213397699,
				"y": 0.8075915338,
				"z": 1.0907557408,
				"element": "H" 
			},
			{
				"x": -2.0830722216,
				"y": 2.2467891105,
				"z": 0.7439342142,
				"element": "H" 
			},
			{
				"x": -0.8433596111,
				"y": 0.0113883764,
				"z": 1.5470091781,
				"element": "H" 
			},
			{
				"x": -0.0908834059,
				"y": 1.0658026554,
				"z": 0.3656539257,
				"element": "H" 
			},
			{
				"x": -1.7556515587,
				"y": -1.4023602937,
				"z": -0.3288342265,
				"element": "H" 
			},
			{
				"x": -0.0008452387,
				"y": -1.3520540686,
				"z": -0.3534216702,
				"element": "H" 
			}
		],
		 "valence_orbital": [ 
			{
				"type": "occ",
				"energy": -0.34098,
				"method": "rhf"
			},
			{
				"type": "occ",
				"energy": -0.32048,
				"method": "rhf"
			},
			{
				"type": "occ",
				"energy": -0.30779,
				"method": "rhf"
			},
			{
				"type": "occ",
				"energy": -0.29723,
				"method": "rhf"
			},
			{
				"type": "occ",
				"energy": -0.23227,
				"method": "rhf"
			},
			{
				"type": "unocc",
				"energy": 0.02763,
				"method": "rhf"
			},
			{
				"type": "unocc",
				"energy": 0.08195,
				"method": "rhf"
			},
			{
				"type": "unocc",
				"energy": 0.11892,
				"method": "rhf"
			},
			{
				"type": "unocc",
				"energy": 0.13681,
				"method": "rhf"
			},
			{
				"type": "unocc",
				"energy": 0.14214,
				"method": "rhf"
			}
		],
		"cosmo_sigma_profile": { 
			"-0.025": 0.0,
			"-0.024": 0.0,
			"-0.023": 0.0,
			"-0.022": 0.0,
			"-0.021": 0.0,
			"-0.02": 0.0,
			"-0.019": 0.0,
			"-0.018": 0.0,
			"-0.017": 0.0,
			"-0.016": 0.0,
			"-0.015": 0.0,
			"-0.014": 0.0,
			"-0.013": 0.0,
			"-0.012": 0.0,
			"-0.011": 0.0,
			"-0.01": 0.0,
			"-0.009": 0.0,
			"-0.008": 0.0,
			"-0.007": 0.0,
			"-0.006": 0.0,
			"-0.005": 0.0,
			"-0.004": 1.49020504227,
			"-0.003": 12.6528938387,
			"-0.002": 29.2299423549,
			"-0.001": 30.7304273911,
			"0.0": 30.959486629,
			"0.001": 21.8851494667,
			"0.002": 8.83812659129,
			"0.003": 4.57661812438,
			"0.004": 3.33339388566,
			"0.005": 3.02579843686,
			"0.006": 3.05602255654,
			"0.007": 2.50424245633,
			"0.008": 1.7569121118,
			"0.009": 0.148463001399,
			"0.01": 0.0,
			"0.011": 0.0,
			"0.012": 0.0,
			"0.013": 0.0,
			"0.014": 0.0,
			"0.015": 0.0,
			"0.016": 0.0,
			"0.017": 0.0,
			"0.018": 0.0,
			"0.019": 0.0,
			"0.02": 0.0,
			"0.021": 0.0,
			"0.022": 0.0,
			"0.023": 0.0,
			"0.024": 0.0,
			"0.025": 0.0
		}
	}
}
