{
	 "smiles": "[O-][N+](=O)C1=CC=CO1", 
	 "Tm": 303.65, 
	 "num_atms": 11, 
	 "gaussian": { 
		 "optdone": 1, 
		 "sigma_profile": "yes", 
		 "theory": "DFT", 
		 "functional": "B3LYP", 
		 "basiset": "6-31G**", 
		 "properties": { 
			 "R2extent": 1017.0707, 
			 "electric_dipole_moment_norm": 5.07454446527, 
			 "electric_quadrupole_moment_norm": 5.05979310941, 
			 "total_energy": -434.512800501, 
			 "HOMO_LUMO_gap": 0.17763, 
			 "cosmo_polarized_energy": -9.96, 
			 "cosmo_cavitation_energy": 16.61, 
			 "cosmo_dispersion_energy": -12.36, 
			 "cosmo_repulsion_energy": 1.03, 
			 "cosmo_total_nonelectrostatic_energy": 5.28, 
			 "SMD_solvation_energy": 6.7 
		},
		"coords": [
			{
				"x": -0.1422112943,
				"y": 2.1561630378,
				"z": 1.2727936379,
				"element": "O" 
			},
			{
				"x": -0.7250537541,
				"y": 1.1066425622,
				"z": 1.53706492,
				"element": "N" 
			},
			{
				"x": -1.7181482537,
				"y": 0.9849955176,
				"z": 2.2605563016,
				"element": "O" 
			},
			{
				"x": -0.2242825482,
				"y": -0.1034534587,
				"z": 0.9637978795,
				"element": "C" 
			},
			{
				"x": -0.6653046714,
				"y": -1.3910923086,
				"z": 1.0829832605,
				"element": "C" 
			},
			{
				"x": 0.2285964402,
				"y": -2.1648027601,
				"z": 0.2869739395,
				"element": "C" 
			},
			{
				"x": 1.1294446411,
				"y": -1.2823336004,
				"z": -0.2429547869,
				"element": "C" 
			},
			{
				"x": 0.8637887013,
				"y": -0.0151217716,
				"z": 0.1636446469,
				"element": "O" 
			},
			{
				"x": -1.5128330488,
				"y": -1.7195085986,
				"z": 1.6636984534,
				"element": "H" 
			},
			{
				"x": 0.2064507758,
				"y": -3.2329609217,
				"z": 0.1285466358,
				"element": "H" 
			},
			{
				"x": 1.979853012,
				"y": -1.3930276979,
				"z": -0.8978048881,
				"element": "H" 
			}
		],
		 "valence_orbital": [ 
			{
				"type": "occ",
				"energy": -0.31983,
				"method": "rhf"
			},
			{
				"type": "occ",
				"energy": -0.3109,
				"method": "rhf"
			},
			{
				"type": "occ",
				"energy": -0.30773,
				"method": "rhf"
			},
			{
				"type": "occ",
				"energy": -0.2944,
				"method": "rhf"
			},
			{
				"type": "occ",
				"energy": -0.26963,
				"method": "rhf"
			},
			{
				"type": "unocc",
				"energy": -0.092,
				"method": "rhf"
			},
			{
				"type": "unocc",
				"energy": 0.00266,
				"method": "rhf"
			},
			{
				"type": "unocc",
				"energy": 0.05413,
				"method": "rhf"
			},
			{
				"type": "unocc",
				"energy": 0.09227,
				"method": "rhf"
			},
			{
				"type": "unocc",
				"energy": 0.11139,
				"method": "rhf"
			}
		],
		"cosmo_sigma_profile": { 
			"-0.025": 0.0,
			"-0.024": 0.0,
			"-0.023": 0.0,
			"-0.022": 0.0,
			"-0.021": 0.0,
			"-0.02": 0.0,
			"-0.019": 0.0,
			"-0.018": 0.0,
			"-0.017": 0.0,
			"-0.016": 0.0,
			"-0.015": 0.0,
			"-0.014": 0.0,
			"-0.013": 0.0,
			"-0.012": 0.0433775629178,
			"-0.011": 1.82605492479,
			"-0.01": 2.83537913862,
			"-0.009": 4.66478798124,
			"-0.008": 4.7048772916,
			"-0.007": 6.47837943079,
			"-0.006": 6.80627225071,
			"-0.005": 6.05508683757,
			"-0.004": 6.93338457956,
			"-0.003": 7.5299525599,
			"-0.002": 9.41643167124,
			"-0.001": 11.2902121465,
			"0.0": 9.56423391017,
			"0.001": 7.67029416921,
			"0.002": 4.9725036892,
			"0.003": 3.28704889074,
			"0.004": 2.95958011545,
			"0.005": 3.65402310753,
			"0.006": 3.92560639787,
			"0.007": 7.65775010183,
			"0.008": 11.7932426475,
			"0.009": 6.57920895117,
			"0.01": 3.49062980007,
			"0.011": 0.179172687865,
			"0.012": 0.0,
			"0.013": 0.0,
			"0.014": 0.0,
			"0.015": 0.0,
			"0.016": 0.0,
			"0.017": 0.0,
			"0.018": 0.0,
			"0.019": 0.0,
			"0.02": 0.0,
			"0.021": 0.0,
			"0.022": 0.0,
			"0.023": 0.0,
			"0.024": 0.0,
			"0.025": 0.0
		}
	}
}
