{
	 "smiles": "OC(=O)C1=CC=C(C=C1)C1CCCOC1", 
	 "Tm": 440.15, 
	 "num_atms": 29, 
	 "gaussian": { 
		 "optdone": 1, 
		 "sigma_profile": "yes", 
		 "theory": "DFT", 
		 "functional": "B3LYP", 
		 "basiset": "6-31G**", 
		 "properties": { 
			 "R2extent": 4925.8683, 
			 "electric_dipole_moment_norm": 1.3266730494, 
			 "electric_quadrupole_moment_norm": 15.7227287027, 
			 "total_energy": -691.395154666, 
			 "HOMO_LUMO_gap": 0.19365, 
			 "cosmo_polarized_energy": -11.69, 
			 "cosmo_cavitation_energy": 31.27, 
			 "cosmo_dispersion_energy": -23.04, 
			 "cosmo_repulsion_energy": 1.8, 
			 "cosmo_total_nonelectrostatic_energy": 10.03, 
			 "SMD_solvation_energy": 6.0 
		},
		"coords": [
			{
				"x": 5.0696198911,
				"y": -1.1296451174,
				"z": 0.4756325059,
				"element": "O" 
			},
			{
				"x": 4.0712849946,
				"y": -1.9454552028,
				"z": 0.9022700194,
				"element": "C" 
			},
			{
				"x": 4.296172375,
				"y": -2.9545111157,
				"z": 1.5424290151,
				"element": "O" 
			},
			{
				"x": 2.7212418997,
				"y": -1.4714386112,
				"z": 0.5064670863,
				"element": "C" 
			},
			{
				"x": 2.5223293425,
				"y": -0.2991370808,
				"z": -0.2343646503,
				"element": "C" 
			},
			{
				"x": 1.2315959577,
				"y": 0.0935382637,
				"z": -0.5791911223,
				"element": "C" 
			},
			{
				"x": 0.111805196,
				"y": -0.6628455583,
				"z": -0.2009232285,
				"element": "C" 
			},
			{
				"x": 0.3277007161,
				"y": -1.8350169749,
				"z": 0.5443106322,
				"element": "C" 
			},
			{
				"x": 1.6124552391,
				"y": -2.2365524944,
				"z": 0.8926899839,
				"element": "C" 
			},
			{
				"x": -1.2821870807,
				"y": -0.1813954934,
				"z": -0.5543337933,
				"element": "C" 
			},
			{
				"x": -2.2658946383,
				"y": -1.2854287454,
				"z": -1.0546103856,
				"element": "C" 
			},
			{
				"x": -3.3161366431,
				"y": -1.6454818102,
				"z": 0.0062938668,
				"element": "C" 
			},
			{
				"x": -4.0929318634,
				"y": -0.3914397198,
				"z": 0.4457539976,
				"element": "C" 
			},
			{
				"x": -3.2986811743,
				"y": 0.7968506346,
				"z": 0.4072867469,
				"element": "O" 
			},
			{
				"x": -1.9249989611,
				"y": 0.5553081685,
				"z": 0.6507969683,
				"element": "C" 
			},
			{
				"x": 5.8926175786,
				"y": -1.5375569391,
				"z": 0.7909126264,
				"element": "H" 
			},
			{
				"x": 3.3764727714,
				"y": 0.294873467,
				"z": -0.539406986,
				"element": "H" 
			},
			{
				"x": 1.0867786332,
				"y": 1.0017999918,
				"z": -1.1587950165,
				"element": "H" 
			},
			{
				"x": -0.5170770724,
				"y": -2.4443456649,
				"z": 0.8515847458,
				"element": "H" 
			},
			{
				"x": 1.7813740399,
				"y": -3.1426176544,
				"z": 1.465019643,
				"element": "H" 
			},
			{
				"x": -1.1796248031,
				"y": 0.5608245672,
				"z": -1.3533439043,
				"element": "H" 
			},
			{
				"x": -2.7827724771,
				"y": -0.9140887747,
				"z": -1.946369105,
				"element": "H" 
			},
			{
				"x": -1.7136814476,
				"y": -2.1779825636,
				"z": -1.3649239728,
				"element": "H" 
			},
			{
				"x": -2.8294462279,
				"y": -2.1091040363,
				"z": 0.8723075091,
				"element": "H" 
			},
			{
				"x": -4.0191193417,
				"y": -2.3900951684,
				"z": -0.3830018143,
				"element": "H" 
			},
			{
				"x": -4.9326320575,
				"y": -0.2041678717,
				"z": -0.232909816,
				"element": "H" 
			},
			{
				"x": -4.5064965596,
				"y": -0.5320891092,
				"z": 1.4571053212,
				"element": "H" 
			},
			{
				"x": -1.7770384751,
				"y": -0.0230939844,
				"z": 1.5769022737,
				"element": "H" 
			},
			{
				"x": -1.4546298119,
				"y": 1.5314945981,
				"z": 0.7986108534,
				"element": "H" 
			}
		],
		 "valence_orbital": [ 
			{
				"type": "occ",
				"energy": -0.29767,
				"method": "rhf"
			},
			{
				"type": "occ",
				"energy": -0.27493,
				"method": "rhf"
			},
			{
				"type": "occ",
				"energy": -0.26135,
				"method": "rhf"
			},
			{
				"type": "occ",
				"energy": -0.2596,
				"method": "rhf"
			},
			{
				"type": "occ",
				"energy": -0.24111,
				"method": "rhf"
			},
			{
				"type": "unocc",
				"energy": -0.04746,
				"method": "rhf"
			},
			{
				"type": "unocc",
				"energy": -0.01066,
				"method": "rhf"
			},
			{
				"type": "unocc",
				"energy": 0.05499,
				"method": "rhf"
			},
			{
				"type": "unocc",
				"energy": 0.07188,
				"method": "rhf"
			},
			{
				"type": "unocc",
				"energy": 0.08153,
				"method": "rhf"
			}
		],
		"cosmo_sigma_profile": { 
			"-0.025": 0.0,
			"-0.024": 0.0,
			"-0.023": 0.0,
			"-0.022": 0.0,
			"-0.021": 0.0,
			"-0.02": 0.0,
			"-0.019": 0.00713575514198,
			"-0.018": 0.91863862763,
			"-0.017": 0.396662658181,
			"-0.016": 1.09846307188,
			"-0.015": 0.792724299155,
			"-0.014": 0.916842731258,
			"-0.013": 0.274814965282,
			"-0.012": 0.683936123257,
			"-0.011": 1.00825286231,
			"-0.01": 0.632225260142,
			"-0.009": 0.276760323781,
			"-0.008": 0.652582981757,
			"-0.007": 0.936931069979,
			"-0.006": 6.82021039755,
			"-0.005": 12.1653286869,
			"-0.004": 20.6078020869,
			"-0.003": 29.9209365796,
			"-0.002": 30.1924736364,
			"-0.001": 25.5655487384,
			"0.0": 19.4140775402,
			"0.001": 15.1097498265,
			"0.002": 13.464376639,
			"0.003": 13.4178404244,
			"0.004": 14.0310666988,
			"0.005": 5.10501403325,
			"0.006": 3.79716616889,
			"0.007": 4.6170682467,
			"0.008": 4.21648683576,
			"0.009": 2.31164287027,
			"0.01": 2.5805424836,
			"0.011": 4.780572923,
			"0.012": 6.06212589643,
			"0.013": 1.95834508277,
			"0.014": 1.24655191339,
			"0.015": 0.00336364839493,
			"0.016": 0.0,
			"0.017": 0.0,
			"0.018": 0.0,
			"0.019": 0.0,
			"0.02": 0.0,
			"0.021": 0.0,
			"0.022": 0.0,
			"0.023": 0.0,
			"0.024": 0.0,
			"0.025": 0.0
		}
	}
}
