{
	 "smiles": "CC(C)(C(O)C1=CC(O)=CC=C1)C(O)=O", 
	 "Tm": 437.15, 
	 "num_atms": 29, 
	 "gaussian": { 
		 "optdone": 1, 
		 "sigma_profile": "yes", 
		 "theory": "DFT", 
		 "functional": "B3LYP", 
		 "basiset": "6-31G**", 
		 "properties": { 
			 "R2extent": 3844.8132, 
			 "electric_dipole_moment_norm": 2.05162596494, 
			 "electric_quadrupole_moment_norm": 15.248104917, 
			 "total_energy": -728.51172336, 
			 "HOMO_LUMO_gap": 0.21358, 
			 "cosmo_polarized_energy": -18.96, 
			 "cosmo_cavitation_energy": 31.45, 
			 "cosmo_dispersion_energy": -21.88, 
			 "cosmo_repulsion_energy": 1.72, 
			 "cosmo_total_nonelectrostatic_energy": 11.29, 
			 "SMD_solvation_energy": 6.82 
		},
		"coords": [
			{
				"x": -1.124039507,
				"y": 2.61429887,
				"z": -2.3174526287,
				"element": "C" 
			},
			{
				"x": 0.1998932355,
				"y": 1.8318896153,
				"z": -2.3094192897,
				"element": "C" 
			},
			{
				"x": 1.3112396245,
				"y": 2.6746020178,
				"z": -2.9735769779,
				"element": "C" 
			},
			{
				"x": 0.61229448,
				"y": 1.5246306199,
				"z": -0.8258340901,
				"element": "C" 
			},
			{
				"x": 1.9604054727,
				"y": 1.0741272639,
				"z": -0.8270841951,
				"element": "O" 
			},
			{
				"x": -0.2972074315,
				"y": 0.5466005724,
				"z": -0.0931155967,
				"element": "C" 
			},
			{
				"x": -1.3438351314,
				"y": 1.0197263445,
				"z": 0.7076375007,
				"element": "C" 
			},
			{
				"x": -2.1759903421,
				"y": 0.1273557093,
				"z": 1.3904563392,
				"element": "C" 
			},
			{
				"x": -3.208589023,
				"y": 0.5445787134,
				"z": 2.1816806673,
				"element": "O" 
			},
			{
				"x": -1.957848475,
				"y": -1.2512319152,
				"z": 1.2903746551,
				"element": "C" 
			},
			{
				"x": -0.9084843473,
				"y": -1.7185601281,
				"z": 0.5042695394,
				"element": "C" 
			},
			{
				"x": -0.0766260634,
				"y": -0.8335150245,
				"z": -0.1855663298,
				"element": "C" 
			},
			{
				"x": -0.0115073428,
				"y": 0.5387401367,
				"z": -3.105782823,
				"element": "C" 
			},
			{
				"x": 1.1383195614,
				"y": -0.1336014816,
				"z": -3.3550304786,
				"element": "O" 
			},
			{
				"x": -1.0818894412,
				"y": 0.1354796026,
				"z": -3.5089089222,
				"element": "O" 
			},
			{
				"x": -1.9383884735,
				"y": 2.0346576826,
				"z": -1.8798636856,
				"element": "H" 
			},
			{
				"x": -1.0111243673,
				"y": 3.5505452856,
				"z": -1.7605762716,
				"element": "H" 
			},
			{
				"x": -1.4113912931,
				"y": 2.8605001395,
				"z": -3.3426292363,
				"element": "H" 
			},
			{
				"x": 1.4500944016,
				"y": 3.6074397982,
				"z": -2.4165846545,
				"element": "H" 
			},
			{
				"x": 1.029034562,
				"y": 2.9348703112,
				"z": -3.9990480098,
				"element": "H" 
			},
			{
				"x": 2.2587821596,
				"y": 2.138221371,
				"z": -2.9915960608,
				"element": "H" 
			},
			{
				"x": 0.5462887282,
				"y": 2.4995339555,
				"z": -0.3128203208,
				"element": "H" 
			},
			{
				"x": 2.1589188168,
				"y": 0.7556707013,
				"z": 0.0630714031,
				"element": "H" 
			},
			{
				"x": -1.5077602553,
				"y": 2.0917458056,
				"z": 0.8058877947,
				"element": "H" 
			},
			{
				"x": -3.2648075691,
				"y": 1.5083067697,
				"z": 2.1486408864,
				"element": "H" 
			},
			{
				"x": -2.6098153217,
				"y": -1.9276338542,
				"z": 1.8328198381,
				"element": "H" 
			},
			{
				"x": -0.7362161857,
				"y": -2.7885049474,
				"z": 0.4285784594,
				"element": "H" 
			},
			{
				"x": 0.7421544961,
				"y": -1.202148604,
				"z": -0.7936752358,
				"element": "H" 
			},
			{
				"x": 0.871495032,
				"y": -0.9156253309,
				"z": -3.8677522764,
				"element": "H" 
			}
		],
		 "valence_orbital": [ 
			{
				"type": "occ",
				"energy": -0.30924,
				"method": "rhf"
			},
			{
				"type": "occ",
				"energy": -0.27891,
				"method": "rhf"
			},
			{
				"type": "occ",
				"energy": -0.26491,
				"method": "rhf"
			},
			{
				"type": "occ",
				"energy": -0.24885,
				"method": "rhf"
			},
			{
				"type": "occ",
				"energy": -0.22367,
				"method": "rhf"
			},
			{
				"type": "unocc",
				"energy": -0.01009,
				"method": "rhf"
			},
			{
				"type": "unocc",
				"energy": 0.00207,
				"method": "rhf"
			},
			{
				"type": "unocc",
				"energy": 0.0198,
				"method": "rhf"
			},
			{
				"type": "unocc",
				"energy": 0.06725,
				"method": "rhf"
			},
			{
				"type": "unocc",
				"energy": 0.07727,
				"method": "rhf"
			}
		],
		"cosmo_sigma_profile": { 
			"-0.025": 0.0,
			"-0.024": 0.0,
			"-0.023": 0.0,
			"-0.022": 0.0,
			"-0.021": 0.0,
			"-0.02": 0.0,
			"-0.019": 0.0,
			"-0.018": 0.593203500321,
			"-0.017": 2.14911195799,
			"-0.016": 1.77408301242,
			"-0.015": 2.99337641723,
			"-0.014": 2.27902421544,
			"-0.013": 2.88730985269,
			"-0.012": 2.24052921724,
			"-0.011": 1.4014034622,
			"-0.01": 2.92568120245,
			"-0.009": 2.94023732622,
			"-0.008": 2.57954416175,
			"-0.007": 2.06505477551,
			"-0.006": 7.7267318253,
			"-0.005": 12.3156343823,
			"-0.004": 18.9675776197,
			"-0.003": 19.3376168913,
			"-0.002": 15.6539871443,
			"-0.001": 18.1021562965,
			"0.0": 17.5488785816,
			"0.001": 15.546405234,
			"0.002": 10.4026995095,
			"0.003": 11.8764208606,
			"0.004": 12.395782964,
			"0.005": 12.0025865836,
			"0.006": 8.394200131,
			"0.007": 6.78409972239,
			"0.008": 4.67425778976,
			"0.009": 5.26872957978,
			"0.01": 5.54732852732,
			"0.011": 7.32746273213,
			"0.012": 6.62752568101,
			"0.013": 1.54612240431,
			"0.014": 0.58612595864,
			"0.015": 0.480886946415,
			"0.016": 0.0,
			"0.017": 0.0,
			"0.018": 0.0,
			"0.019": 0.0,
			"0.02": 0.0,
			"0.021": 0.0,
			"0.022": 0.0,
			"0.023": 0.0,
			"0.024": 0.0,
			"0.025": 0.0
		}
	}
}
