{
	 "smiles": "COC1=CC=CC(Br)=C1O", 
	 "Tm": 337.15, 
	 "num_atms": 17, 
	 "gaussian": { 
		 "optdone": 1, 
		 "sigma_profile": "yes", 
		 "theory": "DFT", 
		 "functional": "B3LYP", 
		 "basiset": "6-31G**", 
		 "properties": { 
			 "R2extent": 2954.3091, 
			 "electric_dipole_moment_norm": 4.47031137506, 
			 "electric_quadrupole_moment_norm": 14.6862818092, 
			 "total_energy": -2992.79675077, 
			 "HOMO_LUMO_gap": 0.21224, 
			 "cosmo_polarized_energy": -8.78, 
			 "cosmo_cavitation_energy": 23.04, 
			 "cosmo_dispersion_energy": -17.83, 
			 "cosmo_repulsion_energy": 1.45, 
			 "cosmo_total_nonelectrostatic_energy": 6.66, 
			 "SMD_solvation_energy": 3.99 
		},
		"coords": [
			{
				"x": -3.024359721,
				"y": 3.5260802525,
				"z": 1.9222601361,
				"element": "C" 
			},
			{
				"x": -1.68031347,
				"y": 3.1122677912,
				"z": 1.7231664825,
				"element": "O" 
			},
			{
				"x": -1.454222591,
				"y": 1.837089261,
				"z": 1.2644050409,
				"element": "C" 
			},
			{
				"x": -2.4268024522,
				"y": 0.8879554133,
				"z": 0.968040286,
				"element": "C" 
			},
			{
				"x": -2.0339777674,
				"y": -0.3750626173,
				"z": 0.5070919359,
				"element": "C" 
			},
			{
				"x": -0.6875278241,
				"y": -0.6816023979,
				"z": 0.3458247431,
				"element": "C" 
			},
			{
				"x": 0.2817697628,
				"y": 0.2799895374,
				"z": 0.6466915388,
				"element": "C" 
			},
			{
				"x": 2.1281532958,
				"y": -0.134550977,
				"z": 0.4274201957,
				"element": "Br" 
			},
			{
				"x": -0.0809948399,
				"y": 1.5442383309,
				"z": 1.1069277524,
				"element": "C" 
			},
			{
				"x": 0.8510913662,
				"y": 2.4832091819,
				"z": 1.4013553057,
				"element": "O" 
			},
			{
				"x": -2.9755196758,
				"y": 4.5542361315,
				"z": 2.283048391,
				"element": "H" 
			},
			{
				"x": -3.5933217002,
				"y": 3.4958959393,
				"z": 0.9848899799,
				"element": "H" 
			},
			{
				"x": -3.5266977635,
				"y": 2.9011158381,
				"z": 2.6708377139,
				"element": "H" 
			},
			{
				"x": -3.4784561092,
				"y": 1.1183444817,
				"z": 1.090834088,
				"element": "H" 
			},
			{
				"x": -2.788547621,
				"y": -1.119437674,
				"z": 0.2743735668,
				"element": "H" 
			},
			{
				"x": -0.3758388682,
				"y": -1.6563945752,
				"z": -0.0102716667,
				"element": "H" 
			},
			{
				"x": 0.3701659787,
				"y": 3.2716260826,
				"z": 1.6985045102,
				"element": "H" 
			}
		],
		 "valence_orbital": [ 
			{
				"type": "occ",
				"energy": -0.33945,
				"method": "rhf"
			},
			{
				"type": "occ",
				"energy": -0.29633,
				"method": "rhf"
			},
			{
				"type": "occ",
				"energy": -0.27513,
				"method": "rhf"
			},
			{
				"type": "occ",
				"energy": -0.23187,
				"method": "rhf"
			},
			{
				"type": "occ",
				"energy": -0.21442,
				"method": "rhf"
			},
			{
				"type": "unocc",
				"energy": -0.00218,
				"method": "rhf"
			},
			{
				"type": "unocc",
				"energy": 0.00727,
				"method": "rhf"
			},
			{
				"type": "unocc",
				"energy": 0.01492,
				"method": "rhf"
			},
			{
				"type": "unocc",
				"energy": 0.07996,
				"method": "rhf"
			},
			{
				"type": "unocc",
				"energy": 0.08843,
				"method": "rhf"
			}
		],
		"cosmo_sigma_profile": { 
			"-0.025": 0.0,
			"-0.024": 0.0,
			"-0.023": 0.0,
			"-0.022": 0.0,
			"-0.021": 0.0,
			"-0.02": 0.0,
			"-0.019": 0.0,
			"-0.018": 0.0,
			"-0.017": 0.0,
			"-0.016": 0.0,
			"-0.015": 0.242846334157,
			"-0.014": 0.60839459974,
			"-0.013": 0.226405667768,
			"-0.012": 0.874430561235,
			"-0.011": 0.70774942161,
			"-0.01": 0.531012814356,
			"-0.009": 0.349300531815,
			"-0.008": 0.950301996149,
			"-0.007": 3.65648583118,
			"-0.006": 12.4667516227,
			"-0.005": 16.6608414577,
			"-0.004": 15.4994034272,
			"-0.003": 12.9470565616,
			"-0.002": 9.18785010972,
			"-0.001": 8.95801965552,
			"0.0": 9.56257448235,
			"0.001": 12.591306089,
			"0.002": 16.6332960327,
			"0.003": 17.4797603152,
			"0.004": 18.3652414224,
			"0.005": 15.3129034942,
			"0.006": 2.7366517698,
			"0.007": 2.05932240244,
			"0.008": 1.98541430923,
			"0.009": 2.14267896601,
			"0.01": 2.19782319594,
			"0.011": 2.00556503206,
			"0.012": 0.185008974299,
			"0.013": 0.0,
			"0.014": 0.0,
			"0.015": 0.0,
			"0.016": 0.0,
			"0.017": 0.0,
			"0.018": 0.0,
			"0.019": 0.0,
			"0.02": 0.0,
			"0.021": 0.0,
			"0.022": 0.0,
			"0.023": 0.0,
			"0.024": 0.0,
			"0.025": 0.0
		}
	}
}
