{
	 "smiles": "CC1(C)CC(=O)C2=C(C1)NC1=CC=C3C=CC=CC3=C1C2C1=CC=C(F)C=C1", 
	 "Tm": 477.15, 
	 "num_atms": 50, 
	 "gaussian": { 
		 "optdone": 1, 
		 "sigma_profile": "yes", 
		 "theory": "DFT", 
		 "functional": "B3LYP", 
		 "basiset": "6-31G**", 
		 "properties": { 
			 "R2extent": 11281.9608, 
			 "electric_dipole_moment_norm": 5.85667181512, 
			 "electric_quadrupole_moment_norm": 15.1837357449, 
			 "total_energy": -1195.7706616, 
			 "HOMO_LUMO_gap": 0.15007, 
			 "cosmo_polarized_energy": -18.35, 
			 "cosmo_cavitation_energy": 50.52, 
			 "cosmo_dispersion_energy": -34.27, 
			 "cosmo_repulsion_energy": 2.53, 
			 "cosmo_total_nonelectrostatic_energy": 18.78, 
			 "SMD_solvation_energy": 8.3 
		},
		"coords": [
			{
				"x": 1.1112325993,
				"y": -4.5992046004,
				"z": -0.5567369495,
				"element": "C" 
			},
			{
				"x": 0.9214548134,
				"y": -3.2471608525,
				"z": 0.1509924233,
				"element": "C" 
			},
			{
				"x": 1.0201107803,
				"y": -3.4575088765,
				"z": 1.6752062498,
				"element": "C" 
			},
			{
				"x": 1.9978758521,
				"y": -2.2481480907,
				"z": -0.3227654421,
				"element": "C" 
			},
			{
				"x": 1.7811108183,
				"y": -0.8072392865,
				"z": 0.1353840228,
				"element": "C" 
			},
			{
				"x": 2.7480681545,
				"y": -0.0708603159,
				"z": 0.33469924,
				"element": "O" 
			},
			{
				"x": 0.4052705421,
				"y": -0.3433648118,
				"z": 0.2968145091,
				"element": "C" 
			},
			{
				"x": -0.6301916151,
				"y": -1.2262154474,
				"z": 0.2011991303,
				"element": "C" 
			},
			{
				"x": -0.461577122,
				"y": -2.6640244269,
				"z": -0.2230763471,
				"element": "C" 
			},
			{
				"x": -1.9084955294,
				"y": -0.8211938179,
				"z": 0.4952368574,
				"element": "N" 
			},
			{
				"x": -2.166057122,
				"y": 0.3787948452,
				"z": 1.176467327,
				"element": "C" 
			},
			{
				"x": -3.4464627236,
				"y": 0.5561173898,
				"z": 1.7650657307,
				"element": "C" 
			},
			{
				"x": -3.7194332358,
				"y": 1.6872861082,
				"z": 2.4876656736,
				"element": "C" 
			},
			{
				"x": -2.7330617862,
				"y": 2.6959503314,
				"z": 2.6585794545,
				"element": "C" 
			},
			{
				"x": -2.9996439738,
				"y": 3.8674076898,
				"z": 3.4133040024,
				"element": "C" 
			},
			{
				"x": -2.0427858764,
				"y": 4.8455316968,
				"z": 3.5655111067,
				"element": "C" 
			},
			{
				"x": -0.7769983411,
				"y": 4.6872818346,
				"z": 2.95582841,
				"element": "C" 
			},
			{
				"x": -0.4870480326,
				"y": 3.5621346516,
				"z": 2.2145491853,
				"element": "C" 
			},
			{
				"x": -1.4456637907,
				"y": 2.5234529915,
				"z": 2.0466283707,
				"element": "C" 
			},
			{
				"x": -1.1698548051,
				"y": 1.3379264998,
				"z": 1.2925672228,
				"element": "C" 
			},
			{
				"x": 0.1667250031,
				"y": 1.1328710615,
				"z": 0.5903016862,
				"element": "C" 
			},
			{
				"x": 0.2961629484,
				"y": 1.9711513841,
				"z": -0.6947198959,
				"element": "C" 
			},
			{
				"x": 1.5470966895,
				"y": 2.480482819,
				"z": -1.0745518949,
				"element": "C" 
			},
			{
				"x": 1.6989410674,
				"y": 3.217775027,
				"z": -2.249071428,
				"element": "C" 
			},
			{
				"x": 0.5836085258,
				"y": 3.4421566364,
				"z": -3.046955337,
				"element": "C" 
			},
			{
				"x": 0.7210823377,
				"y": 4.1581062076,
				"z": -4.1859648124,
				"element": "F" 
			},
			{
				"x": -0.6705776107,
				"y": 2.9518213454,
				"z": -2.7049491135,
				"element": "C" 
			},
			{
				"x": -0.8044264613,
				"y": 2.2171573442,
				"z": -1.5261751026,
				"element": "C" 
			},
			{
				"x": 2.0896681601,
				"y": -5.0285697975,
				"z": -0.3163416261,
				"element": "H" 
			},
			{
				"x": 1.0506514859,
				"y": -4.4931518459,
				"z": -1.6456889453,
				"element": "H" 
			},
			{
				"x": 0.3462763105,
				"y": -5.3198846192,
				"z": -0.2446534537,
				"element": "H" 
			},
			{
				"x": 2.0030953968,
				"y": -3.8586620503,
				"z": 1.9432603503,
				"element": "H" 
			},
			{
				"x": 0.8800162629,
				"y": -2.5228611785,
				"z": 2.2258520449,
				"element": "H" 
			},
			{
				"x": 0.2635388427,
				"y": -4.1715255409,
				"z": 2.0204020136,
				"element": "H" 
			},
			{
				"x": 2.9976711932,
				"y": -2.5527075075,
				"z": 0.0021264112,
				"element": "H" 
			},
			{
				"x": 2.0156823574,
				"y": -2.2299513867,
				"z": -1.422885031,
				"element": "H" 
			},
			{
				"x": -1.2563343073,
				"y": -3.2794650713,
				"z": 0.2206313823,
				"element": "H" 
			},
			{
				"x": -0.5957637357,
				"y": -2.7237076256,
				"z": -1.3130067527,
				"element": "H" 
			},
			{
				"x": -2.6345411549,
				"y": -1.5220241347,
				"z": 0.5081103521,
				"element": "H" 
			},
			{
				"x": -4.1999247844,
				"y": -0.2189410725,
				"z": 1.6445416663,
				"element": "H" 
			},
			{
				"x": -4.6964845916,
				"y": 1.8226381303,
				"z": 2.9434110773,
				"element": "H" 
			},
			{
				"x": -3.9794936275,
				"y": 3.9780374088,
				"z": 3.871292793,
				"element": "H" 
			},
			{
				"x": -2.257646072,
				"y": 5.7381297183,
				"z": 4.145515155,
				"element": "H" 
			},
			{
				"x": -0.0260508499,
				"y": 5.4640679439,
				"z": 3.0681815256,
				"element": "H" 
			},
			{
				"x": 0.4831771955,
				"y": 3.4753523748,
				"z": 1.7399796716,
				"element": "H" 
			},
			{
				"x": 0.9776458889,
				"y": 1.4498065364,
				"z": 1.2548046533,
				"element": "H" 
			},
			{
				"x": 2.4113573798,
				"y": 2.2704028431,
				"z": -0.4532614558,
				"element": "H" 
			},
			{
				"x": 2.6625322933,
				"y": 3.6159000824,
				"z": -2.54920163,
				"element": "H" 
			},
			{
				"x": -1.5190087346,
				"y": 3.1514300665,
				"z": -3.3510386556,
				"element": "H" 
			},
			{
				"x": -1.7849270154,
				"y": 1.8437013887,
				"z": -1.2471658259,
				"element": "H" 
			}
		],
		 "valence_orbital": [ 
			{
				"type": "occ",
				"energy": -0.2461,
				"method": "rhf"
			},
			{
				"type": "occ",
				"energy": -0.23374,
				"method": "rhf"
			},
			{
				"type": "occ",
				"energy": -0.22431,
				"method": "rhf"
			},
			{
				"type": "occ",
				"energy": -0.22005,
				"method": "rhf"
			},
			{
				"type": "occ",
				"energy": -0.19693,
				"method": "rhf"
			},
			{
				"type": "unocc",
				"energy": -0.04686,
				"method": "rhf"
			},
			{
				"type": "unocc",
				"energy": -0.02926,
				"method": "rhf"
			},
			{
				"type": "unocc",
				"energy": -0.00204,
				"method": "rhf"
			},
			{
				"type": "unocc",
				"energy": 0.00362,
				"method": "rhf"
			},
			{
				"type": "unocc",
				"energy": 0.01296,
				"method": "rhf"
			}
		],
		"cosmo_sigma_profile": { 
			"-0.025": 0.0,
			"-0.024": 0.0,
			"-0.023": 0.0,
			"-0.022": 0.0,
			"-0.021": 0.0,
			"-0.02": 0.0,
			"-0.019": 0.0,
			"-0.018": 0.0,
			"-0.017": 0.0,
			"-0.016": 0.0,
			"-0.015": 0.871494855419,
			"-0.014": 1.44954906592,
			"-0.013": 2.10090382318,
			"-0.012": 1.62761161842,
			"-0.011": 0.978735957875,
			"-0.01": 1.81860139317,
			"-0.009": 1.62779543481,
			"-0.008": 1.57820988037,
			"-0.007": 4.56561853432,
			"-0.006": 12.9153373179,
			"-0.005": 22.6158980641,
			"-0.004": 31.420919614,
			"-0.003": 38.8401617483,
			"-0.002": 33.3684640042,
			"-0.001": 32.2763521281,
			"0.0": 31.5718953947,
			"0.001": 34.7956011053,
			"0.002": 27.8505222989,
			"0.003": 25.9186277036,
			"0.004": 38.7365463404,
			"0.005": 31.9244972587,
			"0.006": 5.21636177495,
			"0.007": 1.67497826733,
			"0.008": 2.22747321623,
			"0.009": 1.40148713075,
			"0.01": 1.36012424157,
			"0.011": 1.46118439026,
			"0.012": 1.5434846857,
			"0.013": 2.74266716196,
			"0.014": 2.34978510599,
			"0.015": 1.53850845059,
			"0.016": 0.130738254084,
			"0.017": 0.0,
			"0.018": 0.0,
			"0.019": 0.0,
			"0.02": 0.0,
			"0.021": 0.0,
			"0.022": 0.0,
			"0.023": 0.0,
			"0.024": 0.0,
			"0.025": 0.0
		}
	}
}
