{
	 "smiles": "CCCCS(=O)(=O)NC1=CC(N)=C(F)C=C1", 
	 "Tm": 345.15, 
	 "num_atms": 31, 
	 "gaussian": { 
		 "optdone": 1, 
		 "sigma_profile": "yes", 
		 "theory": "DFT", 
		 "functional": "B3LYP", 
		 "basiset": "6-31G**", 
		 "properties": { 
			 "R2extent": 5295.1476, 
			 "electric_dipole_moment_norm": 3.46951758174, 
			 "electric_quadrupole_moment_norm": 22.1569335182, 
			 "total_energy": -1148.0270267, 
			 "HOMO_LUMO_gap": 0.20043, 
			 "cosmo_polarized_energy": -18.38, 
			 "cosmo_cavitation_energy": 35.85, 
			 "cosmo_dispersion_energy": -25.33, 
			 "cosmo_repulsion_energy": 1.97, 
			 "cosmo_total_nonelectrostatic_energy": 12.49, 
			 "SMD_solvation_energy": 5.36 
		},
		"coords": [
			{
				"x": 2.4398682723,
				"y": 2.8128910256,
				"z": -0.2630069235,
				"element": "C" 
			},
			{
				"x": 2.1230885324,
				"y": 2.9367174476,
				"z": 1.2318445595,
				"element": "C" 
			},
			{
				"x": 1.537396715,
				"y": 1.6645056938,
				"z": 1.8689657797,
				"element": "C" 
			},
			{
				"x": 0.1576127232,
				"y": 1.3004634412,
				"z": 1.310513118,
				"element": "C" 
			},
			{
				"x": -0.5246304085,
				"y": -0.161434015,
				"z": 2.1464192958,
				"element": "S" 
			},
			{
				"x": -0.9093194458,
				"y": 0.2072316127,
				"z": 3.5108734372,
				"element": "O" 
			},
			{
				"x": 0.3798107373,
				"y": -1.283164662,
				"z": 1.8840118392,
				"element": "O" 
			},
			{
				"x": -1.9985415092,
				"y": -0.4760728207,
				"z": 1.3711017788,
				"element": "N" 
			},
			{
				"x": -2.1390976468,
				"y": -0.6687451207,
				"z": -0.0314808599,
				"element": "C" 
			},
			{
				"x": -1.2923520501,
				"y": -1.552397345,
				"z": -0.7136143831,
				"element": "C" 
			},
			{
				"x": -1.4469990733,
				"y": -1.7622517177,
				"z": -2.0906574608,
				"element": "C" 
			},
			{
				"x": -0.592226122,
				"y": -2.5719924921,
				"z": -2.8242311498,
				"element": "N" 
			},
			{
				"x": -2.4947569488,
				"y": -1.0894269532,
				"z": -2.7399648293,
				"element": "C" 
			},
			{
				"x": -2.6603546821,
				"y": -1.3275773689,
				"z": -4.0689618522,
				"element": "F" 
			},
			{
				"x": -3.348682728,
				"y": -0.2308646364,
				"z": -2.0755523032,
				"element": "C" 
			},
			{
				"x": -3.1649318363,
				"y": 0.001526877,
				"z": -0.7103579806,
				"element": "C" 
			},
			{
				"x": 1.5399524124,
				"y": 2.6446922266,
				"z": -0.8641848354,
				"element": "H" 
			},
			{
				"x": 3.1259481298,
				"y": 1.9798314628,
				"z": -0.4531676075,
				"element": "H" 
			},
			{
				"x": 2.913406393,
				"y": 3.7257490098,
				"z": -0.6378224961,
				"element": "H" 
			},
			{
				"x": 1.4350024996,
				"y": 3.7766849526,
				"z": 1.3970656534,
				"element": "H" 
			},
			{
				"x": 3.042679498,
				"y": 3.1885873257,
				"z": 1.7737215154,
				"element": "H" 
			},
			{
				"x": 1.4487041145,
				"y": 1.806733795,
				"z": 2.9514948031,
				"element": "H" 
			},
			{
				"x": 2.2167397592,
				"y": 0.8194627784,
				"z": 1.7116281232,
				"element": "H" 
			},
			{
				"x": 0.1880047409,
				"y": 1.0514659957,
				"z": 0.2464831638,
				"element": "H" 
			},
			{
				"x": -0.569046806,
				"y": 2.1039719341,
				"z": 1.4672856899,
				"element": "H" 
			},
			{
				"x": -2.7398261383,
				"y": 0.0528299918,
				"z": 1.8175650232,
				"element": "H" 
			},
			{
				"x": -0.5171718911,
				"y": -2.0785063234,
				"z": -0.1682172426,
				"element": "H" 
			},
			{
				"x": -0.9655334971,
				"y": -2.891458251,
				"z": -3.7067117848,
				"element": "H" 
			},
			{
				"x": -0.1143605127,
				"y": -3.2927637436,
				"z": -2.3029455621,
				"element": "H" 
			},
			{
				"x": -4.1432378877,
				"y": 0.2572528948,
				"z": -2.629636558,
				"element": "H" 
			},
			{
				"x": -3.8181453439,
				"y": 0.6887569845,
				"z": -0.1812599515,
				"element": "H" 
			}
		],
		 "valence_orbital": [ 
			{
				"type": "occ",
				"energy": -0.30369,
				"method": "rhf"
			},
			{
				"type": "occ",
				"energy": -0.29935,
				"method": "rhf"
			},
			{
				"type": "occ",
				"energy": -0.29669,
				"method": "rhf"
			},
			{
				"type": "occ",
				"energy": -0.23604,
				"method": "rhf"
			},
			{
				"type": "occ",
				"energy": -0.20936,
				"method": "rhf"
			},
			{
				"type": "unocc",
				"energy": -0.00893,
				"method": "rhf"
			},
			{
				"type": "unocc",
				"energy": 0.00303,
				"method": "rhf"
			},
			{
				"type": "unocc",
				"energy": 0.05889,
				"method": "rhf"
			},
			{
				"type": "unocc",
				"energy": 0.06567,
				"method": "rhf"
			},
			{
				"type": "unocc",
				"energy": 0.07416,
				"method": "rhf"
			}
		],
		"cosmo_sigma_profile": { 
			"-0.025": 0.0,
			"-0.024": 0.0,
			"-0.023": 0.0,
			"-0.022": 0.0,
			"-0.021": 0.0,
			"-0.02": 0.0,
			"-0.019": 0.0,
			"-0.018": 0.0,
			"-0.017": 0.0,
			"-0.016": 0.0616499766307,
			"-0.015": 0.850226301816,
			"-0.014": 1.41595188555,
			"-0.013": 1.99273273388,
			"-0.012": 3.6208280902,
			"-0.011": 3.74838347734,
			"-0.01": 3.78084198122,
			"-0.009": 4.56198262022,
			"-0.008": 4.9835151069,
			"-0.007": 8.183779532,
			"-0.006": 8.95586520785,
			"-0.005": 11.3968841505,
			"-0.004": 14.3158869064,
			"-0.003": 22.979513345,
			"-0.002": 25.1389274125,
			"-0.001": 22.4857029895,
			"0.0": 20.0462957301,
			"0.001": 19.1429100281,
			"0.002": 15.0599082072,
			"0.003": 15.1136725036,
			"0.004": 19.9920149765,
			"0.005": 13.9510824759,
			"0.006": 4.37640987712,
			"0.007": 4.15198225138,
			"0.008": 5.14209995305,
			"0.009": 4.61843475768,
			"0.01": 6.42082610031,
			"0.011": 10.3934988698,
			"0.012": 4.58042179234,
			"0.013": 0.599942051213,
			"0.014": 0.155245079119,
			"0.015": 0.0,
			"0.016": 0.0,
			"0.017": 0.0,
			"0.018": 0.0,
			"0.019": 0.0,
			"0.02": 0.0,
			"0.021": 0.0,
			"0.022": 0.0,
			"0.023": 0.0,
			"0.024": 0.0,
			"0.025": 0.0
		}
	}
}
