{
	 "smiles": "OC(=O)CCSCC1=NC2=C(C3=C(CCC3)S2)C(=O)N1", 
	 "Tm": 501.15, 
	 "num_atms": 34, 
	 "gaussian": { 
		 "optdone": 1, 
		 "sigma_profile": "yes", 
		 "theory": "DFT", 
		 "functional": "B3LYP", 
		 "basiset": "6-31G**", 
		 "properties": { 
			 "R2extent": 11417.5928, 
			 "electric_dipole_moment_norm": 4.59121754767, 
			 "electric_quadrupole_moment_norm": 40.5077771214, 
			 "total_energy": -1635.40216341, 
			 "HOMO_LUMO_gap": 0.1592, 
			 "cosmo_polarized_energy": -24.14, 
			 "cosmo_cavitation_energy": 41.0, 
			 "cosmo_dispersion_energy": -30.67, 
			 "cosmo_repulsion_energy": 2.3, 
			 "cosmo_total_nonelectrostatic_energy": 12.63, 
			 "SMD_solvation_energy": 5.36 
		},
		"coords": [
			{
				"x": 4.3968466918,
				"y": -4.4026480129,
				"z": -0.7152634477,
				"element": "O" 
			},
			{
				"x": 4.9022871619,
				"y": -4.9385418371,
				"z": 0.416422241,
				"element": "C" 
			},
			{
				"x": 5.6676729011,
				"y": -5.8701768089,
				"z": 0.3713492411,
				"element": "O" 
			},
			{
				"x": 4.4761414258,
				"y": -4.3027506475,
				"z": 1.744968917,
				"element": "C" 
			},
			{
				"x": 2.9853748404,
				"y": -3.9555618315,
				"z": 1.8857222362,
				"element": "C" 
			},
			{
				"x": 2.579084789,
				"y": -2.4080509146,
				"z": 0.9638426806,
				"element": "S" 
			},
			{
				"x": 0.7603079804,
				"y": -2.6426233359,
				"z": 0.7292866202,
				"element": "C" 
			},
			{
				"x": 0.1104062069,
				"y": -1.3971317349,
				"z": 0.1896734286,
				"element": "C" 
			},
			{
				"x": -0.5905863087,
				"y": -1.4737968619,
				"z": -0.9064038801,
				"element": "N" 
			},
			{
				"x": -1.1830051438,
				"y": -0.310377216,
				"z": -1.2962326528,
				"element": "C" 
			},
			{
				"x": -1.0963230938,
				"y": 0.9249965151,
				"z": -0.6492378091,
				"element": "C" 
			},
			{
				"x": -1.8198954135,
				"y": 1.9449853304,
				"z": -1.3340545792,
				"element": "C" 
			},
			{
				"x": -2.4343217262,
				"y": 1.4852634593,
				"z": -2.4629902269,
				"element": "C" 
			},
			{
				"x": -3.2504406638,
				"y": 2.5316071691,
				"z": -3.1686111825,
				"element": "C" 
			},
			{
				"x": -2.7515631675,
				"y": 3.8330013334,
				"z": -2.462989174,
				"element": "C" 
			},
			{
				"x": -2.1230086692,
				"y": 3.4021680372,
				"z": -1.1020109579,
				"element": "C" 
			},
			{
				"x": -2.1676703839,
				"y": -0.2147135623,
				"z": -2.7482685136,
				"element": "S" 
			},
			{
				"x": -0.3072272506,
				"y": 1.0181926302,
				"z": 0.563543674,
				"element": "C" 
			},
			{
				"x": -0.1048936843,
				"y": 2.0020306841,
				"z": 1.2606145402,
				"element": "O" 
			},
			{
				"x": 0.2603797856,
				"y": -0.2362292183,
				"z": 0.9048541156,
				"element": "N" 
			},
			{
				"x": 3.8170242516,
				"y": -3.6399295499,
				"z": -0.5188941891,
				"element": "H" 
			},
			{
				"x": 4.7522427322,
				"y": -5.0213359729,
				"z": 2.5198771579,
				"element": "H" 
			},
			{
				"x": 5.0899252378,
				"y": -3.4078610982,
				"z": 1.9145642448,
				"element": "H" 
			},
			{
				"x": 2.7334678099,
				"y": -3.809514578,
				"z": 2.9390789833,
				"element": "H" 
			},
			{
				"x": 2.3620414809,
				"y": -4.7644043547,
				"z": 1.4923783782,
				"element": "H" 
			},
			{
				"x": 0.3336808171,
				"y": -2.9014114393,
				"z": 1.7050816278,
				"element": "H" 
			},
			{
				"x": 0.5677991787,
				"y": -3.4508449798,
				"z": 0.023447015,
				"element": "H" 
			},
			{
				"x": -3.0908976752,
				"y": 2.5603215081,
				"z": -4.2518453382,
				"element": "H" 
			},
			{
				"x": -4.3249345076,
				"y": 2.3664346075,
				"z": -3.0089806654,
				"element": "H" 
			},
			{
				"x": -3.5532708398,
				"y": 4.5659495118,
				"z": -2.3402698131,
				"element": "H" 
			},
			{
				"x": -1.9785108594,
				"y": 4.2964916321,
				"z": -3.0838409032,
				"element": "H" 
			},
			{
				"x": -1.236720041,
				"y": 3.9877755291,
				"z": -0.841798888,
				"element": "H" 
			},
			{
				"x": -2.8292225555,
				"y": 3.5203895306,
				"z": -0.2698558358,
				"element": "H" 
			},
			{
				"x": 0.8545086928,
				"y": -0.2246035234,
				"z": 1.7269429552,
				"element": "H" 
			}
		],
		 "valence_orbital": [ 
			{
				"type": "occ",
				"energy": -0.26977,
				"method": "rhf"
			},
			{
				"type": "occ",
				"energy": -0.26853,
				"method": "rhf"
			},
			{
				"type": "occ",
				"energy": -0.26825,
				"method": "rhf"
			},
			{
				"type": "occ",
				"energy": -0.26118,
				"method": "rhf"
			},
			{
				"type": "occ",
				"energy": -0.21834,
				"method": "rhf"
			},
			{
				"type": "unocc",
				"energy": -0.05914,
				"method": "rhf"
			},
			{
				"type": "unocc",
				"energy": -0.01596,
				"method": "rhf"
			},
			{
				"type": "unocc",
				"energy": -0.01048,
				"method": "rhf"
			},
			{
				"type": "unocc",
				"energy": 0.0108,
				"method": "rhf"
			},
			{
				"type": "unocc",
				"energy": 0.01599,
				"method": "rhf"
			}
		],
		"cosmo_sigma_profile": { 
			"-0.025": 0.0,
			"-0.024": 0.0,
			"-0.023": 0.0,
			"-0.022": 0.0,
			"-0.021": 0.0,
			"-0.02": 0.0,
			"-0.019": 0.0,
			"-0.018": 0.0,
			"-0.017": 0.0,
			"-0.016": 0.0,
			"-0.015": 0.317986792694,
			"-0.014": 0.728218374398,
			"-0.013": 0.768531981081,
			"-0.012": 1.00448092953,
			"-0.011": 0.972780599565,
			"-0.01": 2.05068758135,
			"-0.009": 3.53676710126,
			"-0.008": 10.5846008592,
			"-0.007": 16.0275201084,
			"-0.006": 17.8404662409,
			"-0.005": 15.3790499931,
			"-0.004": 26.0709355599,
			"-0.003": 30.0007442347,
			"-0.002": 27.96734289,
			"-0.001": 22.7033362187,
			"0.0": 22.418816125,
			"0.001": 21.7962392847,
			"0.002": 20.4468963673,
			"0.003": 15.9945320893,
			"0.004": 10.1611147366,
			"0.005": 5.52512301471,
			"0.006": 6.07458977723,
			"0.007": 5.89158130408,
			"0.008": 4.91882526675,
			"0.009": 5.00383398372,
			"0.01": 5.84750621631,
			"0.011": 8.34462562638,
			"0.012": 10.5965919517,
			"0.013": 9.06665242108,
			"0.014": 0.966232084243,
			"0.015": 0.0,
			"0.016": 0.0,
			"0.017": 0.0,
			"0.018": 0.0,
			"0.019": 0.0,
			"0.02": 0.0,
			"0.021": 0.0,
			"0.022": 0.0,
			"0.023": 0.0,
			"0.024": 0.0,
			"0.025": 0.0
		}
	}
}
