{
	 "smiles": "CS(=O)(=O)N1CC(OC2=C1C=CC=C2)C(O)=O", 
	 "Tm": 441.15, 
	 "num_atms": 28, 
	 "gaussian": { 
		 "optdone": 1, 
		 "sigma_profile": "yes", 
		 "theory": "DFT", 
		 "functional": "B3LYP", 
		 "basiset": "6-31G**", 
		 "properties": { 
			 "R2extent": 3885.6841, 
			 "electric_dipole_moment_norm": 4.52840248874, 
			 "electric_quadrupole_moment_norm": 13.7535597298, 
			 "total_energy": -1216.67908167, 
			 "HOMO_LUMO_gap": 0.20872, 
			 "cosmo_polarized_energy": -22.84, 
			 "cosmo_cavitation_energy": 32.45, 
			 "cosmo_dispersion_energy": -23.38, 
			 "cosmo_repulsion_energy": 1.74, 
			 "cosmo_total_nonelectrostatic_energy": 10.81, 
			 "SMD_solvation_energy": 6.03 
		},
		"coords": [
			{
				"x": 1.2867542659,
				"y": -1.345369726,
				"z": -2.8991225468,
				"element": "C" 
			},
			{
				"x": 0.4597065756,
				"y": -1.8018816983,
				"z": -1.3641861404,
				"element": "S" 
			},
			{
				"x": 1.3562530319,
				"y": -2.7226509364,
				"z": -0.6543049488,
				"element": "O" 
			},
			{
				"x": -0.9179063677,
				"y": -2.1632290944,
				"z": -1.6817256155,
				"element": "O" 
			},
			{
				"x": 0.468596847,
				"y": -0.3084777252,
				"z": -0.5091825811,
				"element": "N" 
			},
			{
				"x": 1.4937317545,
				"y": -0.127857281,
				"z": 0.5224255892,
				"element": "C" 
			},
			{
				"x": 0.8897817055,
				"y": -0.2909060054,
				"z": 1.9284738716,
				"element": "C" 
			},
			{
				"x": -0.1963678325,
				"y": 0.5963186327,
				"z": 2.1171906956,
				"element": "O" 
			},
			{
				"x": -1.0295628659,
				"y": 0.8248980687,
				"z": 1.0495648589,
				"element": "C" 
			},
			{
				"x": -0.7505672396,
				"y": 0.3953629977,
				"z": -0.2602760482,
				"element": "C" 
			},
			{
				"x": -1.6399769504,
				"y": 0.7361818124,
				"z": -1.2873977932,
				"element": "C" 
			},
			{
				"x": -2.7929733177,
				"y": 1.4655913914,
				"z": -1.0183248093,
				"element": "C" 
			},
			{
				"x": -3.0579600307,
				"y": 1.8939953371,
				"z": 0.2859172714,
				"element": "C" 
			},
			{
				"x": -2.1747345063,
				"y": 1.5807895149,
				"z": 1.3126352914,
				"element": "C" 
			},
			{
				"x": 0.4604389106,
				"y": -1.7354886188,
				"z": 2.1873074686,
				"element": "C" 
			},
			{
				"x": 1.5365414202,
				"y": -2.4895644273,
				"z": 2.4984646777,
				"element": "O" 
			},
			{
				"x": -0.668760384,
				"y": -2.1521622623,
				"z": 2.1124325878,
				"element": "O" 
			},
			{
				"x": 2.2828087465,
				"y": -0.968192873,
				"z": -2.6649415735,
				"element": "H" 
			},
			{
				"x": 0.6932917856,
				"y": -0.5863649217,
				"z": -3.4091970571,
				"element": "H" 
			},
			{
				"x": 1.3553624201,
				"y": -2.2507840854,
				"z": -3.5052305993,
				"element": "H" 
			},
			{
				"x": 2.2979214685,
				"y": -0.8486201459,
				"z": 0.3796337746,
				"element": "H" 
			},
			{
				"x": 1.8972855939,
				"y": 0.8867814434,
				"z": 0.4334606498,
				"element": "H" 
			},
			{
				"x": 1.6419822634,
				"y": -0.0194220296,
				"z": 2.6758425325,
				"element": "H" 
			},
			{
				"x": -1.4305664357,
				"y": 0.4082552694,
				"z": -2.2989000833,
				"element": "H" 
			},
			{
				"x": -3.4766672893,
				"y": 1.706174165,
				"z": -1.8260143569,
				"element": "H" 
			},
			{
				"x": -3.9511482025,
				"y": 2.4716973691,
				"z": 0.5028590968,
				"element": "H" 
			},
			{
				"x": -2.3512382824,
				"y": 1.8980249172,
				"z": 2.334973464,
				"element": "H" 
			},
			{
				"x": 1.2311729157,
				"y": -3.4117990883,
				"z": 2.5309223235,
				"element": "H" 
			}
		],
		 "valence_orbital": [ 
			{
				"type": "occ",
				"energy": -0.30915,
				"method": "rhf"
			},
			{
				"type": "occ",
				"energy": -0.29906,
				"method": "rhf"
			},
			{
				"type": "occ",
				"energy": -0.28008,
				"method": "rhf"
			},
			{
				"type": "occ",
				"energy": -0.2353,
				"method": "rhf"
			},
			{
				"type": "occ",
				"energy": -0.21737,
				"method": "rhf"
			},
			{
				"type": "unocc",
				"energy": -0.00865,
				"method": "rhf"
			},
			{
				"type": "unocc",
				"energy": -0.00135,
				"method": "rhf"
			},
			{
				"type": "unocc",
				"energy": 0.01089,
				"method": "rhf"
			},
			{
				"type": "unocc",
				"energy": 0.04924,
				"method": "rhf"
			},
			{
				"type": "unocc",
				"energy": 0.06254,
				"method": "rhf"
			}
		],
		"cosmo_sigma_profile": { 
			"-0.025": 0.0,
			"-0.024": 0.0,
			"-0.023": 0.0,
			"-0.022": 0.0,
			"-0.021": 0.0,
			"-0.02": 0.0526367342754,
			"-0.019": 0.566827605889,
			"-0.018": 0.974741368065,
			"-0.017": 0.783862392771,
			"-0.016": 0.403410517982,
			"-0.015": 0.470003722453,
			"-0.014": 0.454098380502,
			"-0.013": 1.12758465847,
			"-0.012": 0.621784972279,
			"-0.011": 0.72218510791,
			"-0.01": 1.06385110049,
			"-0.009": 7.57011856437,
			"-0.008": 13.1545256578,
			"-0.007": 15.1214004208,
			"-0.006": 17.5606612812,
			"-0.005": 16.9714025197,
			"-0.004": 17.9728992099,
			"-0.003": 12.9718804621,
			"-0.002": 10.7170461986,
			"-0.001": 8.8068198545,
			"0.0": 9.12786093598,
			"0.001": 8.99925622539,
			"0.002": 10.5862650852,
			"0.003": 12.946803582,
			"0.004": 12.6154570211,
			"0.005": 15.4085505405,
			"0.006": 9.43541771662,
			"0.007": 9.7801967844,
			"0.008": 9.23840266537,
			"0.009": 8.59637239009,
			"0.01": 11.9401920439,
			"0.011": 10.4920610849,
			"0.012": 0.418119675457,
			"0.013": 0.0,
			"0.014": 0.0,
			"0.015": 0.0,
			"0.016": 0.0,
			"0.017": 0.0,
			"0.018": 0.0,
			"0.019": 0.0,
			"0.02": 0.0,
			"0.021": 0.0,
			"0.022": 0.0,
			"0.023": 0.0,
			"0.024": 0.0,
			"0.025": 0.0
		}
	}
}
