{
	 "smiles": "COC1=C(C=CC=C1)C(C)N(C)C(=O)CCl", 
	 "Tm": 340.15, 
	 "num_atms": 32, 
	 "gaussian": { 
		 "optdone": 1, 
		 "sigma_profile": "yes", 
		 "theory": "DFT", 
		 "functional": "B3LYP", 
		 "basiset": "6-31G**", 
		 "properties": { 
			 "R2extent": 4347.7986, 
			 "electric_dipole_moment_norm": 3.76235334465, 
			 "electric_quadrupole_moment_norm": 19.9059880893, 
			 "total_energy": -1132.30835918, 
			 "HOMO_LUMO_gap": 0.2081, 
			 "cosmo_polarized_energy": -13.62, 
			 "cosmo_cavitation_energy": 35.12, 
			 "cosmo_dispersion_energy": -23.94, 
			 "cosmo_repulsion_energy": 1.84, 
			 "cosmo_total_nonelectrostatic_energy": 13.02, 
			 "SMD_solvation_energy": 7.41 
		},
		"coords": [
			{
				"x": -2.6176601728,
				"y": -1.7685883258,
				"z": -1.567083936,
				"element": "C" 
			},
			{
				"x": -1.4713045616,
				"y": -1.2130453251,
				"z": -0.9401749897,
				"element": "O" 
			},
			{
				"x": -0.8795118684,
				"y": -1.8886306038,
				"z": 0.0822381974,
				"element": "C" 
			},
			{
				"x": 0.2393105893,
				"y": -1.2473226857,
				"z": 0.6648846952,
				"element": "C" 
			},
			{
				"x": 0.8860825744,
				"y": -1.8909386142,
				"z": 1.7206053876,
				"element": "C" 
			},
			{
				"x": 0.4564037644,
				"y": -3.1323443071,
				"z": 2.2004142324,
				"element": "C" 
			},
			{
				"x": -0.6443684894,
				"y": -3.7471905424,
				"z": 1.6130825678,
				"element": "C" 
			},
			{
				"x": -1.3166343072,
				"y": -3.1303890328,
				"z": 0.5548191316,
				"element": "C" 
			},
			{
				"x": 0.6752041334,
				"y": 0.1150785226,
				"z": 0.1267162241,
				"element": "C" 
			},
			{
				"x": 1.6670420838,
				"y": 0.8569789881,
				"z": 1.0349995327,
				"element": "C" 
			},
			{
				"x": 1.2206797893,
				"y": -0.0012719209,
				"z": -1.2480619085,
				"element": "N" 
			},
			{
				"x": 2.0819483408,
				"y": -1.1393834196,
				"z": -1.5626534196,
				"element": "C" 
			},
			{
				"x": 0.8935727918,
				"y": 0.8276989304,
				"z": -2.2861580187,
				"element": "C" 
			},
			{
				"x": 1.2596387303,
				"y": 0.6223903588,
				"z": -3.4394479476,
				"element": "O" 
			},
			{
				"x": 0.1239228339,
				"y": 2.1195536338,
				"z": -1.9823731713,
				"element": "C" 
			},
			{
				"x": -1.674614894,
				"y": 1.9367831711,
				"z": -2.1657604395,
				"element": "Cl" 
			},
			{
				"x": -2.9116316968,
				"y": -1.0495927911,
				"z": -2.3318242207,
				"element": "H" 
			},
			{
				"x": -3.4409603726,
				"y": -1.902307149,
				"z": -0.8540308919,
				"element": "H" 
			},
			{
				"x": -2.3893540995,
				"y": -2.7318539323,
				"z": -2.0400756445,
				"element": "H" 
			},
			{
				"x": 1.7432684446,
				"y": -1.4179037824,
				"z": 2.1878647284,
				"element": "H" 
			},
			{
				"x": 0.9799629299,
				"y": -3.6070074564,
				"z": 3.0242236325,
				"element": "H" 
			},
			{
				"x": -0.9919713302,
				"y": -4.7111632247,
				"z": 1.973502732,
				"element": "H" 
			},
			{
				"x": -2.174307811,
				"y": -3.6178965388,
				"z": 0.1071460809,
				"element": "H" 
			},
			{
				"x": -0.2375427183,
				"y": 0.7099586907,
				"z": 0.0474115043,
				"element": "H" 
			},
			{
				"x": 1.8629054711,
				"y": 1.8559868327,
				"z": 0.6353282002,
				"element": "H" 
			},
			{
				"x": 2.6285842302,
				"y": 0.3384214357,
				"z": 1.0974029097,
				"element": "H" 
			},
			{
				"x": 1.2685271833,
				"y": 0.965887767,
				"z": 2.0481344911,
				"element": "H" 
			},
			{
				"x": 2.6937051952,
				"y": -1.3888865735,
				"z": -0.693042452,
				"element": "H" 
			},
			{
				"x": 1.4975196436,
				"y": -2.0234469418,
				"z": -1.8416196329,
				"element": "H" 
			},
			{
				"x": 2.7208366975,
				"y": -0.8698706555,
				"z": -2.4028176389,
				"element": "H" 
			},
			{
				"x": 0.2958949597,
				"y": 2.5269161543,
				"z": -0.9870084984,
				"element": "H" 
			},
			{
				"x": 0.4312519352,
				"y": 2.8399793378,
				"z": -2.7377414379,
				"element": "H" 
			}
		],
		 "valence_orbital": [ 
			{
				"type": "occ",
				"energy": -0.29486,
				"method": "rhf"
			},
			{
				"type": "occ",
				"energy": -0.2595,
				"method": "rhf"
			},
			{
				"type": "occ",
				"energy": -0.24459,
				"method": "rhf"
			},
			{
				"type": "occ",
				"energy": -0.23461,
				"method": "rhf"
			},
			{
				"type": "occ",
				"energy": -0.22363,
				"method": "rhf"
			},
			{
				"type": "unocc",
				"energy": -0.01553,
				"method": "rhf"
			},
			{
				"type": "unocc",
				"energy": -0.00765,
				"method": "rhf"
			},
			{
				"type": "unocc",
				"energy": 0.00473,
				"method": "rhf"
			},
			{
				"type": "unocc",
				"energy": 0.05704,
				"method": "rhf"
			},
			{
				"type": "unocc",
				"energy": 0.0814,
				"method": "rhf"
			}
		],
		"cosmo_sigma_profile": { 
			"-0.025": 0.0,
			"-0.024": 0.0,
			"-0.023": 0.0,
			"-0.022": 0.0,
			"-0.021": 0.0,
			"-0.02": 0.0,
			"-0.019": 0.0,
			"-0.018": 0.0,
			"-0.017": 0.0,
			"-0.016": 0.0,
			"-0.015": 0.0,
			"-0.014": 0.0,
			"-0.013": 0.0,
			"-0.012": 0.0,
			"-0.011": 0.0,
			"-0.01": 0.0,
			"-0.009": 0.249721543762,
			"-0.008": 3.92311620475,
			"-0.007": 5.18169865252,
			"-0.006": 11.191967522,
			"-0.005": 27.2570574598,
			"-0.004": 28.28587632,
			"-0.003": 27.7788398272,
			"-0.002": 24.8786117951,
			"-0.001": 22.7198831769,
			"0.0": 18.7187503955,
			"0.001": 15.3579827341,
			"0.002": 13.507389448,
			"0.003": 12.7569316806,
			"0.004": 13.9326020463,
			"0.005": 17.8226321716,
			"0.006": 15.5372303417,
			"0.007": 3.30295092503,
			"0.008": 2.36110484257,
			"0.009": 0.921793569238,
			"0.01": 1.43768008977,
			"0.011": 1.5036238975,
			"0.012": 2.18579697141,
			"0.013": 4.10911623365,
			"0.014": 3.85762186124,
			"0.015": 0.383444851659,
			"0.016": 0.0,
			"0.017": 0.0,
			"0.018": 0.0,
			"0.019": 0.0,
			"0.02": 0.0,
			"0.021": 0.0,
			"0.022": 0.0,
			"0.023": 0.0,
			"0.024": 0.0,
			"0.025": 0.0
		}
	}
}
