{
	 "smiles": "OC(=O)C1=CC=C(C(C=O)C=O)C(=C1)[N+]([O-])=O", 
	 "Tm": 475.15, 
	 "num_atms": 24, 
	 "gaussian": { 
		 "optdone": 1, 
		 "sigma_profile": "yes", 
		 "theory": "DFT", 
		 "functional": "B3LYP", 
		 "basiset": "6-31G**", 
		 "properties": { 
			 "R2extent": 4525.1398, 
			 "electric_dipole_moment_norm": 2.43338520173, 
			 "electric_quadrupole_moment_norm": 21.4199862425, 
			 "total_energy": -891.25286801, 
			 "HOMO_LUMO_gap": 0.16047, 
			 "cosmo_polarized_energy": -18.25, 
			 "cosmo_cavitation_energy": 30.88, 
			 "cosmo_dispersion_energy": -21.58, 
			 "cosmo_repulsion_energy": 1.68, 
			 "cosmo_total_nonelectrostatic_energy": 10.98, 
			 "SMD_solvation_energy": 10.59 
		},
		"coords": [
			{
				"x": -1.8404540892,
				"y": -4.0687329353,
				"z": 0.1650583416,
				"element": "O" 
			},
			{
				"x": -2.0992846102,
				"y": -2.9466173672,
				"z": 0.8749644401,
				"element": "C" 
			},
			{
				"x": -2.8047153437,
				"y": -2.9390976538,
				"z": 1.8618627241,
				"element": "O" 
			},
			{
				"x": -1.4271316843,
				"y": -1.7418283855,
				"z": 0.3099352377,
				"element": "C" 
			},
			{
				"x": -0.6323007931,
				"y": -1.7858962495,
				"z": -0.8415023596,
				"element": "C" 
			},
			{
				"x": -0.0261827933,
				"y": -0.6277446295,
				"z": -1.3189181695,
				"element": "C" 
			},
			{
				"x": -0.1931464104,
				"y": 0.6120732854,
				"z": -0.6814464419,
				"element": "C" 
			},
			{
				"x": 0.5095428447,
				"y": 1.828831062,
				"z": -1.2522954322,
				"element": "C" 
			},
			{
				"x": 1.965505741,
				"y": 1.6215273834,
				"z": -1.6719102161,
				"element": "C" 
			},
			{
				"x": 2.6063704554,
				"y": 0.6077804181,
				"z": -1.5278724518,
				"element": "O" 
			},
			{
				"x": -0.2990098599,
				"y": 2.3801196594,
				"z": -2.4392052778,
				"element": "C" 
			},
			{
				"x": 0.1229453017,
				"y": 2.4081496253,
				"z": -3.5719615483,
				"element": "O" 
			},
			{
				"x": -1.0232734214,
				"y": 0.6275894427,
				"z": 0.4585439956,
				"element": "C" 
			},
			{
				"x": -1.6144403082,
				"y": -0.5256145648,
				"z": 0.9654967559,
				"element": "C" 
			},
			{
				"x": -1.3324360904,
				"y": 1.8740352879,
				"z": 1.1829130358,
				"element": "N" 
			},
			{
				"x": -1.5867253632,
				"y": 1.7886792523,
				"z": 2.3790701135,
				"element": "O" 
			},
			{
				"x": -1.3451095557,
				"y": 2.9301605506,
				"z": 0.5400893864,
				"element": "O" 
			},
			{
				"x": -2.3173327698,
				"y": -4.7883177677,
				"z": 0.610858405,
				"element": "H" 
			},
			{
				"x": -0.4873065561,
				"y": -2.7268586471,
				"z": -1.3592811298,
				"element": "H" 
			},
			{
				"x": 0.6073154309,
				"y": -0.6837049526,
				"z": -2.1946892954,
				"element": "H" 
			},
			{
				"x": 0.5133129545,
				"y": 2.6380754657,
				"z": -0.5114212813,
				"element": "H" 
			},
			{
				"x": 2.4170937616,
				"y": 2.5324396701,
				"z": -2.1140747945,
				"element": "H" 
			},
			{
				"x": -1.3095349107,
				"y": 2.7429477305,
				"z": -2.1705842048,
				"element": "H" 
			},
			{
				"x": -2.2276019304,
				"y": -0.4778956805,
				"z": 1.8566701672,
				"element": "H" 
			}
		],
		 "valence_orbital": [ 
			{
				"type": "occ",
				"energy": -0.30488,
				"method": "rhf"
			},
			{
				"type": "occ",
				"energy": -0.29921,
				"method": "rhf"
			},
			{
				"type": "occ",
				"energy": -0.29452,
				"method": "rhf"
			},
			{
				"type": "occ",
				"energy": -0.28198,
				"method": "rhf"
			},
			{
				"type": "occ",
				"energy": -0.26881,
				"method": "rhf"
			},
			{
				"type": "unocc",
				"energy": -0.10834,
				"method": "rhf"
			},
			{
				"type": "unocc",
				"energy": -0.07919,
				"method": "rhf"
			},
			{
				"type": "unocc",
				"energy": -0.05153,
				"method": "rhf"
			},
			{
				"type": "unocc",
				"energy": -0.04257,
				"method": "rhf"
			},
			{
				"type": "unocc",
				"energy": -0.02749,
				"method": "rhf"
			}
		],
		"cosmo_sigma_profile": { 
			"-0.025": 0.0,
			"-0.024": 0.0,
			"-0.023": 0.0,
			"-0.022": 0.0,
			"-0.021": 0.0,
			"-0.02": 0.0,
			"-0.019": 0.539183117507,
			"-0.018": 0.87481527351,
			"-0.017": 1.14272270719,
			"-0.016": 0.60759770818,
			"-0.015": 0.648899569881,
			"-0.014": 0.84911379655,
			"-0.013": 0.21837796921,
			"-0.012": 1.55389667634,
			"-0.011": 3.10896760766,
			"-0.01": 3.91998233654,
			"-0.009": 3.17336416353,
			"-0.008": 9.72167501991,
			"-0.007": 13.2179739703,
			"-0.006": 11.2438760365,
			"-0.005": 12.4926193743,
			"-0.004": 13.709989425,
			"-0.003": 13.2236848912,
			"-0.002": 19.123267543,
			"-0.001": 18.4959586778,
			"0.0": 13.236249471,
			"0.001": 10.9895971535,
			"0.002": 8.29142034618,
			"0.003": 8.24668445515,
			"0.004": 8.34290360462,
			"0.005": 7.58698544648,
			"0.006": 12.176331667,
			"0.007": 12.2788651787,
			"0.008": 10.0779440181,
			"0.009": 10.5894074006,
			"0.01": 10.2383763203,
			"0.011": 7.13381194292,
			"0.012": 0.971992769302,
			"0.013": 0.0,
			"0.014": 0.0,
			"0.015": 0.0,
			"0.016": 0.0,
			"0.017": 0.0,
			"0.018": 0.0,
			"0.019": 0.0,
			"0.02": 0.0,
			"0.021": 0.0,
			"0.022": 0.0,
			"0.023": 0.0,
			"0.024": 0.0,
			"0.025": 0.0
		}
	}
}
