{
	 "smiles": "CS(=O)(=O)C1=CC=C(C=C1)C(N)=NO", 
	 "Tm": 470.15, 
	 "num_atms": 24, 
	 "gaussian": { 
		 "optdone": 1, 
		 "sigma_profile": "yes", 
		 "theory": "DFT", 
		 "functional": "B3LYP", 
		 "basiset": "6-31G**", 
		 "properties": { 
			 "R2extent": 4070.9904, 
			 "electric_dipole_moment_norm": 4.48078581278, 
			 "electric_quadrupole_moment_norm": 23.6091011508, 
			 "total_energy": -1044.11939581, 
			 "HOMO_LUMO_gap": 0.16438, 
			 "cosmo_polarized_energy": -20.83, 
			 "cosmo_cavitation_energy": 29.91, 
			 "cosmo_dispersion_energy": -22.21, 
			 "cosmo_repulsion_energy": 1.73, 
			 "cosmo_total_nonelectrostatic_energy": 9.42, 
			 "SMD_solvation_energy": 5.01 
		},
		"coords": [
			{
				"x": -3.6083483307,
				"y": -0.5309883151,
				"z": -1.1700683586,
				"element": "C" 
			},
			{
				"x": -2.1761252969,
				"y": -1.6067516261,
				"z": -1.4241454325,
				"element": "S" 
			},
			{
				"x": -2.4838700629,
				"y": -2.9048920224,
				"z": -0.8041641596,
				"element": "O" 
			},
			{
				"x": -1.7965331144,
				"y": -1.5096199986,
				"z": -2.8423159281,
				"element": "O" 
			},
			{
				"x": -0.880974019,
				"y": -0.8203755907,
				"z": -0.4506062452,
				"element": "C" 
			},
			{
				"x": -0.7228262393,
				"y": -1.1717403579,
				"z": 0.8916663383,
				"element": "C" 
			},
			{
				"x": 0.2701894008,
				"y": -0.5544445072,
				"z": 1.6470957945,
				"element": "C" 
			},
			{
				"x": 1.1159555273,
				"y": 0.4040059874,
				"z": 1.0618941199,
				"element": "C" 
			},
			{
				"x": 0.9502316653,
				"y": 0.7272934363,
				"z": -0.29610727,
				"element": "C" 
			},
			{
				"x": -0.0483485874,
				"y": 0.1214687756,
				"z": -1.0552606692,
				"element": "C" 
			},
			{
				"x": 2.2200364506,
				"y": 1.0434934199,
				"z": 1.8262269693,
				"element": "C" 
			},
			{
				"x": 3.3534910207,
				"y": 1.3820824022,
				"z": 1.077274069,
				"element": "N" 
			},
			{
				"x": 2.2477905126,
				"y": 1.3764519108,
				"z": 3.0732328878,
				"element": "N" 
			},
			{
				"x": 1.0103563668,
				"y": 1.1915881917,
				"z": 3.7286446194,
				"element": "O" 
			},
			{
				"x": -3.8578837699,
				"y": -0.5093771401,
				"z": -0.1084044028,
				"element": "H" 
			},
			{
				"x": -4.4259737366,
				"y": -0.971690443,
				"z": -1.7443603554,
				"element": "H" 
			},
			{
				"x": -3.3778674415,
				"y": 0.468283591,
				"z": -1.5418171933,
				"element": "H" 
			},
			{
				"x": -1.3589596716,
				"y": -1.9350177351,
				"z": 1.3272175624,
				"element": "H" 
			},
			{
				"x": 0.3972105882,
				"y": -0.8116206533,
				"z": 2.6902813171,
				"element": "H" 
			},
			{
				"x": 1.6056087785,
				"y": 1.464302008,
				"z": -0.7472324679,
				"element": "H" 
			},
			{
				"x": -0.1729065513,
				"y": 0.3567173837,
				"z": -2.1069622146,
				"element": "H" 
			},
			{
				"x": 3.6976135475,
				"y": 0.6326818294,
				"z": 0.4874012987,
				"element": "H" 
			},
			{
				"x": 4.0855537608,
				"y": 1.7696607336,
				"z": 1.6622091161,
				"element": "H" 
			},
			{
				"x": 1.2134792023,
				"y": 1.51788872,
				"z": 4.6145006047,
				"element": "H" 
			}
		],
		 "valence_orbital": [ 
			{
				"type": "occ",
				"energy": -0.28876,
				"method": "rhf"
			},
			{
				"type": "occ",
				"energy": -0.28034,
				"method": "rhf"
			},
			{
				"type": "occ",
				"energy": -0.27646,
				"method": "rhf"
			},
			{
				"type": "occ",
				"energy": -0.27219,
				"method": "rhf"
			},
			{
				"type": "occ",
				"energy": -0.22317,
				"method": "rhf"
			},
			{
				"type": "unocc",
				"energy": -0.05879,
				"method": "rhf"
			},
			{
				"type": "unocc",
				"energy": -0.02378,
				"method": "rhf"
			},
			{
				"type": "unocc",
				"energy": 0.03019,
				"method": "rhf"
			},
			{
				"type": "unocc",
				"energy": 0.06471,
				"method": "rhf"
			},
			{
				"type": "unocc",
				"energy": 0.0682,
				"method": "rhf"
			}
		],
		"cosmo_sigma_profile": { 
			"-0.025": 0.0,
			"-0.024": 0.0,
			"-0.023": 0.0,
			"-0.022": 0.0,
			"-0.021": 0.0,
			"-0.02": 0.0,
			"-0.019": 0.0,
			"-0.018": 0.0,
			"-0.017": 0.597180430529,
			"-0.016": 0.864931078022,
			"-0.015": 0.742438347965,
			"-0.014": 1.45734180986,
			"-0.013": 1.59567003406,
			"-0.012": 2.62430172911,
			"-0.011": 2.57728417911,
			"-0.01": 3.18100969423,
			"-0.009": 5.32003941607,
			"-0.008": 10.4172742894,
			"-0.007": 12.7136893089,
			"-0.006": 13.9719206783,
			"-0.005": 14.5907883083,
			"-0.004": 13.8200324843,
			"-0.003": 12.2437034982,
			"-0.002": 11.0114832451,
			"-0.001": 10.7914170786,
			"0.0": 10.1130544346,
			"0.001": 14.0162768971,
			"0.002": 16.175169194,
			"0.003": 8.29749764362,
			"0.004": 6.80339233671,
			"0.005": 7.69346879138,
			"0.006": 6.99936420391,
			"0.007": 6.45525462661,
			"0.008": 6.01717906784,
			"0.009": 6.44437770755,
			"0.01": 7.31178799857,
			"0.011": 11.3963145438,
			"0.012": 9.69325830277,
			"0.013": 1.62190880356,
			"0.014": 0.124720420777,
			"0.015": 0.0,
			"0.016": 0.0,
			"0.017": 0.0,
			"0.018": 0.0,
			"0.019": 0.0,
			"0.02": 0.0,
			"0.021": 0.0,
			"0.022": 0.0,
			"0.023": 0.0,
			"0.024": 0.0,
			"0.025": 0.0
		}
	}
}
