{
	 "smiles": "FC(F)(F)C(F)(Br)C(F)(F)Br", 
	 "Tm": 178.15, 
	 "num_atms": 11, 
	 "gaussian": { 
		 "optdone": 1, 
		 "sigma_profile": "yes", 
		 "theory": "DFT", 
		 "functional": "B3LYP", 
		 "basiset": "6-31G**", 
		 "properties": { 
			 "R2extent": 4110.7254, 
			 "electric_dipole_moment_norm": 0.621193609111, 
			 "electric_quadrupole_moment_norm": 1.97470784168, 
			 "total_energy": -5856.13237088, 
			 "HOMO_LUMO_gap": 0.25654, 
			 "cosmo_polarized_energy": -1.39, 
			 "cosmo_cavitation_energy": 22.06, 
			 "cosmo_dispersion_energy": -16.06, 
			 "cosmo_repulsion_energy": 1.18, 
			 "cosmo_total_nonelectrostatic_energy": 7.18, 
			 "SMD_solvation_energy": 3.87 
		},
		"coords": [
			{
				"x": 0.9435052906,
				"y": -1.0067203377,
				"z": 0.5861176428,
				"element": "F" 
			},
			{
				"x": 0.3553931093,
				"y": -0.5017008811,
				"z": -0.5038650731,
				"element": "C" 
			},
			{
				"x": 1.2240503794,
				"y": -0.5710688733,
				"z": -1.5232331377,
				"element": "F" 
			},
			{
				"x": 0.0604416524,
				"y": 0.7818701931,
				"z": -0.2786404713,
				"element": "F" 
			},
			{
				"x": -0.9083491271,
				"y": -1.3443339607,
				"z": -0.829441477,
				"element": "C" 
			},
			{
				"x": -0.4903326188,
				"y": -2.6393172845,
				"z": -0.8844905718,
				"element": "F" 
			},
			{
				"x": -2.2118791155,
				"y": -1.1558170569,
				"z": 0.610491074,
				"element": "Br" 
			},
			{
				"x": -1.5727537948,
				"y": -1.0739799914,
				"z": -2.2133327808,
				"element": "C" 
			},
			{
				"x": -2.6078281193,
				"y": -1.9142058641,
				"z": -2.3517716034,
				"element": "F" 
			},
			{
				"x": -0.6761475474,
				"y": -1.3588404022,
				"z": -3.1718127472,
				"element": "F" 
			},
			{
				"x": -2.2060001087,
				"y": 0.7590144589,
				"z": -2.4654208544,
				"element": "Br" 
			}
		],
		 "valence_orbital": [ 
			{
				"type": "occ",
				"energy": -0.37569,
				"method": "rhf"
			},
			{
				"type": "occ",
				"energy": -0.33191,
				"method": "rhf"
			},
			{
				"type": "occ",
				"energy": -0.32251,
				"method": "rhf"
			},
			{
				"type": "occ",
				"energy": -0.31354,
				"method": "rhf"
			},
			{
				"type": "occ",
				"energy": -0.30763,
				"method": "rhf"
			},
			{
				"type": "unocc",
				"energy": -0.05109,
				"method": "rhf"
			},
			{
				"type": "unocc",
				"energy": -0.03908,
				"method": "rhf"
			},
			{
				"type": "unocc",
				"energy": 0.04302,
				"method": "rhf"
			},
			{
				"type": "unocc",
				"energy": 0.09543,
				"method": "rhf"
			},
			{
				"type": "unocc",
				"energy": 0.11338,
				"method": "rhf"
			}
		],
		"cosmo_sigma_profile": { 
			"-0.025": 0.0,
			"-0.024": 0.0,
			"-0.023": 0.0,
			"-0.022": 0.0,
			"-0.021": 0.0,
			"-0.02": 0.0,
			"-0.019": 0.0,
			"-0.018": 0.0,
			"-0.017": 0.0,
			"-0.016": 0.0,
			"-0.015": 0.0,
			"-0.014": 0.0,
			"-0.013": 0.0,
			"-0.012": 0.0,
			"-0.011": 0.0,
			"-0.01": 0.0,
			"-0.009": 0.0,
			"-0.008": 0.341096799057,
			"-0.007": 2.12950971784,
			"-0.006": 3.04926423143,
			"-0.005": 3.20709338219,
			"-0.004": 4.97218389382,
			"-0.003": 6.32406989724,
			"-0.002": 10.4039435072,
			"-0.001": 17.3665223596,
			"0.0": 34.7042880681,
			"0.001": 72.7872161776,
			"0.002": 27.4681171052,
			"0.003": 0.888655930756,
			"0.004": 0.0,
			"0.005": 0.0,
			"0.006": 0.0,
			"0.007": 0.0,
			"0.008": 0.0,
			"0.009": 0.0,
			"0.01": 0.0,
			"0.011": 0.0,
			"0.012": 0.0,
			"0.013": 0.0,
			"0.014": 0.0,
			"0.015": 0.0,
			"0.016": 0.0,
			"0.017": 0.0,
			"0.018": 0.0,
			"0.019": 0.0,
			"0.02": 0.0,
			"0.021": 0.0,
			"0.022": 0.0,
			"0.023": 0.0,
			"0.024": 0.0,
			"0.025": 0.0
		}
	}
}
