{
	 "smiles": "C=CCSC1=NC(=O)NC2=C1CCCC2", 
	 "Tm": 481.15, 
	 "num_atms": 29, 
	 "gaussian": { 
		 "optdone": 1, 
		 "sigma_profile": "yes", 
		 "theory": "DFT", 
		 "functional": "B3LYP", 
		 "basiset": "6-31G**", 
		 "properties": { 
			 "R2extent": 4120.3066, 
			 "electric_dipole_moment_norm": 5.32082554591, 
			 "electric_quadrupole_moment_norm": 18.7641385827, 
			 "total_energy": -1010.53036432, 
			 "HOMO_LUMO_gap": 0.17885, 
			 "cosmo_polarized_energy": -17.4, 
			 "cosmo_cavitation_energy": 32.69, 
			 "cosmo_dispersion_energy": -24.05, 
			 "cosmo_repulsion_energy": 1.85, 
			 "cosmo_total_nonelectrostatic_energy": 10.49, 
			 "SMD_solvation_energy": 5.47 
		},
		"coords": [
			{
				"x": 2.7829848169,
				"y": 0.3088569666,
				"z": 3.6899908443,
				"element": "C" 
			},
			{
				"x": 1.7646373019,
				"y": 1.1656503851,
				"z": 3.5995593848,
				"element": "C" 
			},
			{
				"x": 0.3279241177,
				"y": 0.7454603287,
				"z": 3.5092046772,
				"element": "C" 
			},
			{
				"x": -0.4240892536,
				"y": 1.0897552184,
				"z": 1.8530656282,
				"element": "S" 
			},
			{
				"x": 0.0800395625,
				"y": -0.3526070181,
				"z": 0.9326960224,
				"element": "C" 
			},
			{
				"x": 0.701626158,
				"y": -1.3092660278,
				"z": 1.5715190209,
				"element": "N" 
			},
			{
				"x": 1.1007456888,
				"y": -2.4509751037,
				"z": 0.9048442612,
				"element": "C" 
			},
			{
				"x": 1.7031091303,
				"y": -3.384015066,
				"z": 1.4103922354,
				"element": "O" 
			},
			{
				"x": 0.7563290699,
				"y": -2.5003138377,
				"z": -0.4652592506,
				"element": "N" 
			},
			{
				"x": 0.1039657044,
				"y": -1.5104088963,
				"z": -1.1406596643,
				"element": "C" 
			},
			{
				"x": -0.2570373835,
				"y": -0.3694647523,
				"z": -0.4702368505,
				"element": "C" 
			},
			{
				"x": -0.9747501574,
				"y": 0.7695405076,
				"z": -1.1622070514,
				"element": "C" 
			},
			{
				"x": -0.8977954519,
				"y": 0.6671957435,
				"z": -2.6932702671,
				"element": "C" 
			},
			{
				"x": -1.1997539395,
				"y": -0.7588542174,
				"z": -3.1669879086,
				"element": "C" 
			},
			{
				"x": -0.1608717297,
				"y": -1.7402252133,
				"z": -2.607961287,
				"element": "C" 
			},
			{
				"x": 2.6228613148,
				"y": -0.7650951465,
				"z": 3.6745780619,
				"element": "H" 
			},
			{
				"x": 3.8086807689,
				"y": 0.6591373983,
				"z": 3.7637291904,
				"element": "H" 
			},
			{
				"x": 1.9528337953,
				"y": 2.2385823593,
				"z": 3.5840667145,
				"element": "H" 
			},
			{
				"x": 0.2070004334,
				"y": -0.3225969534,
				"z": 3.6928541525,
				"element": "H" 
			},
			{
				"x": -0.3060813069,
				"y": 1.3108584888,
				"z": 4.1993931207,
				"element": "H" 
			},
			{
				"x": 1.0356953119,
				"y": -3.3485032388,
				"z": -0.9419222435,
				"element": "H" 
			},
			{
				"x": -0.5502449406,
				"y": 1.7256071914,
				"z": -0.834550675,
				"element": "H" 
			},
			{
				"x": -2.0282425462,
				"y": 0.7873591433,
				"z": -0.8469980517,
				"element": "H" 
			},
			{
				"x": -1.5968116395,
				"y": 1.3783617694,
				"z": -3.1457050975,
				"element": "H" 
			},
			{
				"x": 0.107301599,
				"y": 0.9539114176,
				"z": -3.0298630188,
				"element": "H" 
			},
			{
				"x": -1.2057851385,
				"y": -0.815636279,
				"z": -4.2604520377,
				"element": "H" 
			},
			{
				"x": -2.2008128389,
				"y": -1.0536120546,
				"z": -2.8274036545,
				"element": "H" 
			},
			{
				"x": -0.4833064155,
				"y": -2.778500311,
				"z": -2.7579269771,
				"element": "H" 
			},
			{
				"x": 0.7891479678,
				"y": -1.6323028022,
				"z": -3.1510892788,
				"element": "H" 
			}
		],
		 "valence_orbital": [ 
			{
				"type": "occ",
				"energy": -0.26856,
				"method": "rhf"
			},
			{
				"type": "occ",
				"energy": -0.25168,
				"method": "rhf"
			},
			{
				"type": "occ",
				"energy": -0.24745,
				"method": "rhf"
			},
			{
				"type": "occ",
				"energy": -0.23715,
				"method": "rhf"
			},
			{
				"type": "occ",
				"energy": -0.22326,
				"method": "rhf"
			},
			{
				"type": "unocc",
				"energy": -0.04441,
				"method": "rhf"
			},
			{
				"type": "unocc",
				"energy": 0.00921,
				"method": "rhf"
			},
			{
				"type": "unocc",
				"energy": 0.01488,
				"method": "rhf"
			},
			{
				"type": "unocc",
				"energy": 0.04673,
				"method": "rhf"
			},
			{
				"type": "unocc",
				"energy": 0.07113,
				"method": "rhf"
			}
		],
		"cosmo_sigma_profile": { 
			"-0.025": 0.0,
			"-0.024": 0.0,
			"-0.023": 0.0,
			"-0.022": 0.0,
			"-0.021": 0.0,
			"-0.02": 0.0,
			"-0.019": 0.0,
			"-0.018": 0.0,
			"-0.017": 0.0,
			"-0.016": 0.298241122133,
			"-0.015": 0.897714312802,
			"-0.014": 1.35946600651,
			"-0.013": 1.08003999864,
			"-0.012": 1.1998205611,
			"-0.011": 1.12345646634,
			"-0.01": 1.07332312209,
			"-0.009": 1.22386567358,
			"-0.008": 1.41408337329,
			"-0.007": 3.58688419641,
			"-0.006": 7.34809188178,
			"-0.005": 12.6919184691,
			"-0.004": 19.4072697564,
			"-0.003": 32.3336565392,
			"-0.002": 34.2062629086,
			"-0.001": 29.9652897084,
			"0.0": 23.5120021198,
			"0.001": 12.9716916085,
			"0.002": 9.5402717323,
			"0.003": 8.61340165174,
			"0.004": 9.7982053866,
			"0.005": 8.03970093704,
			"0.006": 8.72136821716,
			"0.007": 6.0422253148,
			"0.008": 2.73155342903,
			"0.009": 1.53750703243,
			"0.01": 1.30511624327,
			"0.011": 1.80054696577,
			"0.012": 2.45773563497,
			"0.013": 2.9014849413,
			"0.014": 6.81272386995,
			"0.015": 2.74372010407,
			"0.016": 0.665247127861,
			"0.017": 0.0,
			"0.018": 0.0,
			"0.019": 0.0,
			"0.02": 0.0,
			"0.021": 0.0,
			"0.022": 0.0,
			"0.023": 0.0,
			"0.024": 0.0,
			"0.025": 0.0
		}
	}
}
