{
	 "smiles": "CC(C)C1=CC=CC=C1C", 
	 "Tm": 201.35, 
	 "num_atms": 24, 
	 "gaussian": { 
		 "optdone": 1, 
		 "sigma_profile": "yes", 
		 "theory": "DFT", 
		 "functional": "B3LYP", 
		 "basiset": "6-31G**", 
		 "properties": { 
			 "R2extent": 1769.3883, 
			 "electric_dipole_moment_norm": 0.527199895675, 
			 "electric_quadrupole_moment_norm": 4.34106165126, 
			 "total_energy": -389.520282714, 
			 "HOMO_LUMO_gap": 0.23505, 
			 "cosmo_polarized_energy": -3.26, 
			 "cosmo_cavitation_energy": 25.57, 
			 "cosmo_dispersion_energy": -18.25, 
			 "cosmo_repulsion_energy": 1.48, 
			 "cosmo_total_nonelectrostatic_energy": 8.81, 
			 "SMD_solvation_energy": 4.53 
		},
		"coords": [
			{
				"x": -2.991060689,
				"y": 0.3514858341,
				"z": -1.4867531319,
				"element": "C" 
			},
			{
				"x": -1.9378399871,
				"y": 1.1358954239,
				"z": -0.6799529548,
				"element": "C" 
			},
			{
				"x": -2.4798020872,
				"y": 1.5182740155,
				"z": 0.7113102226,
				"element": "C" 
			},
			{
				"x": -0.6165656695,
				"y": 0.3756762147,
				"z": -0.5837153887,
				"element": "C" 
			},
			{
				"x": -0.5845021243,
				"y": -0.8653084305,
				"z": 0.0690956854,
				"element": "C" 
			},
			{
				"x": 0.5912949489,
				"y": -1.6043700251,
				"z": 0.1881102255,
				"element": "C" 
			},
			{
				"x": 1.7736204394,
				"y": -1.1032781654,
				"z": -0.3542538686,
				"element": "C" 
			},
			{
				"x": 1.7578185975,
				"y": 0.1285266989,
				"z": -1.0060556589,
				"element": "C" 
			},
			{
				"x": 0.5821133255,
				"y": 0.8820972087,
				"z": -1.132832941,
				"element": "C" 
			},
			{
				"x": 0.640855562,
				"y": 2.2126060894,
				"z": -1.8546326203,
				"element": "C" 
			},
			{
				"x": -2.6243401963,
				"y": 0.1109550836,
				"z": -2.4896953998,
				"element": "H" 
			},
			{
				"x": -3.2509828957,
				"y": -0.5916537962,
				"z": -0.9941062969,
				"element": "H" 
			},
			{
				"x": -3.9119201711,
				"y": 0.9360713938,
				"z": -1.5914365481,
				"element": "H" 
			},
			{
				"x": -1.7545958937,
				"y": 2.070597682,
				"z": -1.2187567837,
				"element": "H" 
			},
			{
				"x": -1.7489162239,
				"y": 2.1082629463,
				"z": 1.2734001448,
				"element": "H" 
			},
			{
				"x": -3.3975253227,
				"y": 2.1098998109,
				"z": 0.619444359,
				"element": "H" 
			},
			{
				"x": -2.716131575,
				"y": 0.6295683176,
				"z": 1.3064081749,
				"element": "H" 
			},
			{
				"x": -1.50175419,
				"y": -1.2637396746,
				"z": 0.4950524589,
				"element": "H" 
			},
			{
				"x": 0.582036602,
				"y": -2.5625645923,
				"z": 0.700124099,
				"element": "H" 
			},
			{
				"x": 2.7003312715,
				"y": -1.6641614858,
				"z": -0.2719407427,
				"element": "H" 
			},
			{
				"x": 2.679212102,
				"y": 0.521028024,
				"z": -1.4298333707,
				"element": "H" 
			},
			{
				"x": 0.3406413033,
				"y": 3.0461931727,
				"z": -1.2092167063,
				"element": "H" 
			},
			{
				"x": 1.6579311767,
				"y": 2.416568273,
				"z": -2.2004074719,
				"element": "H" 
			},
			{
				"x": -0.0147183033,
				"y": 2.2352699809,
				"z": -2.732855486,
				"element": "H" 
			}
		],
		 "valence_orbital": [ 
			{
				"type": "occ",
				"energy": -0.33171,
				"method": "rhf"
			},
			{
				"type": "occ",
				"energy": -0.31555,
				"method": "rhf"
			},
			{
				"type": "occ",
				"energy": -0.31245,
				"method": "rhf"
			},
			{
				"type": "occ",
				"energy": -0.23685,
				"method": "rhf"
			},
			{
				"type": "occ",
				"energy": -0.22968,
				"method": "rhf"
			},
			{
				"type": "unocc",
				"energy": 0.00537,
				"method": "rhf"
			},
			{
				"type": "unocc",
				"energy": 0.00916,
				"method": "rhf"
			},
			{
				"type": "unocc",
				"energy": 0.08801,
				"method": "rhf"
			},
			{
				"type": "unocc",
				"energy": 0.10445,
				"method": "rhf"
			},
			{
				"type": "unocc",
				"energy": 0.11177,
				"method": "rhf"
			}
		],
		"cosmo_sigma_profile": { 
			"-0.025": 0.0,
			"-0.024": 0.0,
			"-0.023": 0.0,
			"-0.022": 0.0,
			"-0.021": 0.0,
			"-0.02": 0.0,
			"-0.019": 0.0,
			"-0.018": 0.0,
			"-0.017": 0.0,
			"-0.016": 0.0,
			"-0.015": 0.0,
			"-0.014": 0.0,
			"-0.013": 0.0,
			"-0.012": 0.0,
			"-0.011": 0.0,
			"-0.01": 0.0,
			"-0.009": 0.0,
			"-0.008": 0.0,
			"-0.007": 0.0,
			"-0.006": 0.218380786071,
			"-0.005": 5.94690328254,
			"-0.004": 14.0014408712,
			"-0.003": 23.6869548033,
			"-0.002": 28.3747803009,
			"-0.001": 25.8289320255,
			"0.0": 25.0717077432,
			"0.001": 25.2338382562,
			"0.002": 14.7734066548,
			"0.003": 8.01521673015,
			"0.004": 7.54540220581,
			"0.005": 6.86107518807,
			"0.006": 7.31054417193,
			"0.007": 6.44849672229,
			"0.008": 0.926017087052,
			"0.009": 0.0,
			"0.01": 0.0,
			"0.011": 0.0,
			"0.012": 0.0,
			"0.013": 0.0,
			"0.014": 0.0,
			"0.015": 0.0,
			"0.016": 0.0,
			"0.017": 0.0,
			"0.018": 0.0,
			"0.019": 0.0,
			"0.02": 0.0,
			"0.021": 0.0,
			"0.022": 0.0,
			"0.023": 0.0,
			"0.024": 0.0,
			"0.025": 0.0
		}
	}
}
