{
	 "smiles": "SC1=C(Cl)C=C(Cl)C(Cl)=C1", 
	 "Tm": 391.15, 
	 "num_atms": 13, 
	 "gaussian": { 
		 "optdone": 1, 
		 "sigma_profile": "yes", 
		 "theory": "DFT", 
		 "functional": "B3LYP", 
		 "basiset": "6-31G**", 
		 "properties": { 
			 "R2extent": 3008.0455, 
			 "electric_dipole_moment_norm": 1.36280771204, 
			 "electric_quadrupole_moment_norm": 2.37219800818, 
			 "total_energy": -2009.20030235, 
			 "HOMO_LUMO_gap": 0.19679, 
			 "cosmo_polarized_energy": -4.59, 
			 "cosmo_cavitation_energy": 24.29, 
			 "cosmo_dispersion_energy": -19.01, 
			 "cosmo_repulsion_energy": 1.49, 
			 "cosmo_total_nonelectrostatic_energy": 6.77, 
			 "SMD_solvation_energy": 2.79 
		},
		"coords": [
			{
				"x": 0.6485528067,
				"y": 2.9888918916,
				"z": -1.4256265461,
				"element": "S" 
			},
			{
				"x": 0.2820690599,
				"y": 1.3471451323,
				"z": -0.8526995648,
				"element": "C" 
			},
			{
				"x": 0.7944018581,
				"y": 0.750385098,
				"z": 0.312320109,
				"element": "C" 
			},
			{
				"x": 1.9017813142,
				"y": 1.6068574189,
				"z": 1.3706385951,
				"element": "Cl" 
			},
			{
				"x": 0.4395831558,
				"y": -0.5484437566,
				"z": 0.6699032848,
				"element": "C" 
			},
			{
				"x": -0.4349998546,
				"y": -1.2876528506,
				"z": -0.123168833,
				"element": "C" 
			},
			{
				"x": -0.8484498468,
				"y": -2.9088254723,
				"z": 0.3671019181,
				"element": "Cl" 
			},
			{
				"x": -0.9566716598,
				"y": -0.7096799251,
				"z": -1.2892904064,
				"element": "C" 
			},
			{
				"x": -2.0556324935,
				"y": -1.5806221334,
				"z": -2.3254459857,
				"element": "Cl" 
			},
			{
				"x": -0.596472256,
				"y": 0.5885209791,
				"z": -1.6385997315,
				"element": "C" 
			},
			{
				"x": 1.4819327561,
				"y": 3.3228995038,
				"z": -0.4236753598,
				"element": "H" 
			},
			{
				"x": 0.8461941114,
				"y": -0.9890222583,
				"z": 1.57205777,
				"element": "H" 
			},
			{
				"x": -1.0111889515,
				"y": 1.0168463726,
				"z": -2.5446152496,
				"element": "H" 
			}
		],
		 "valence_orbital": [ 
			{
				"type": "occ",
				"energy": -0.33561,
				"method": "rhf"
			},
			{
				"type": "occ",
				"energy": -0.32024,
				"method": "rhf"
			},
			{
				"type": "occ",
				"energy": -0.30246,
				"method": "rhf"
			},
			{
				"type": "occ",
				"energy": -0.26669,
				"method": "rhf"
			},
			{
				"type": "occ",
				"energy": -0.23842,
				"method": "rhf"
			},
			{
				"type": "unocc",
				"energy": -0.04163,
				"method": "rhf"
			},
			{
				"type": "unocc",
				"energy": -0.03803,
				"method": "rhf"
			},
			{
				"type": "unocc",
				"energy": -0.02461,
				"method": "rhf"
			},
			{
				"type": "unocc",
				"energy": 0.01066,
				"method": "rhf"
			},
			{
				"type": "unocc",
				"energy": 0.02423,
				"method": "rhf"
			}
		],
		"cosmo_sigma_profile": { 
			"-0.025": 0.0,
			"-0.024": 0.0,
			"-0.023": 0.0,
			"-0.022": 0.0,
			"-0.021": 0.0,
			"-0.02": 0.0,
			"-0.019": 0.0,
			"-0.018": 0.0,
			"-0.017": 0.0,
			"-0.016": 0.0,
			"-0.015": 0.0,
			"-0.014": 0.0,
			"-0.013": 0.0,
			"-0.012": 0.0,
			"-0.011": 0.510800374809,
			"-0.01": 1.4063775027,
			"-0.009": 3.63991125775,
			"-0.008": 3.74485656364,
			"-0.007": 4.34818026739,
			"-0.006": 5.15968008164,
			"-0.005": 5.09896930273,
			"-0.004": 6.54407287474,
			"-0.003": 10.4853066663,
			"-0.002": 13.2528866976,
			"-0.001": 21.2339210932,
			"0.0": 33.1054999674,
			"0.001": 23.0573179257,
			"0.002": 19.2640642849,
			"0.003": 26.4464174724,
			"0.004": 17.4514035175,
			"0.005": 5.07274188014,
			"0.006": 2.82963660795,
			"0.007": 2.11611800853,
			"0.008": 0.372217745032,
			"0.009": 0.0,
			"0.01": 0.0,
			"0.011": 0.0,
			"0.012": 0.0,
			"0.013": 0.0,
			"0.014": 0.0,
			"0.015": 0.0,
			"0.016": 0.0,
			"0.017": 0.0,
			"0.018": 0.0,
			"0.019": 0.0,
			"0.02": 0.0,
			"0.021": 0.0,
			"0.022": 0.0,
			"0.023": 0.0,
			"0.024": 0.0,
			"0.025": 0.0
		}
	}
}
