{
	 "smiles": "OC(=O)CCP(O)(O)=O", 
	 "Tm": 439.15, 
	 "num_atms": 16, 
	 "gaussian": { 
		 "optdone": 1, 
		 "sigma_profile": "yes", 
		 "theory": "DFT", 
		 "functional": "B3LYP", 
		 "basiset": "6-31G**", 
		 "properties": { 
			 "R2extent": 2265.8185, 
			 "electric_dipole_moment_norm": 2.64477969971, 
			 "electric_quadrupole_moment_norm": 9.89035050289, 
			 "total_energy": -836.10172082, 
			 "HOMO_LUMO_gap": 0.28636, 
			 "cosmo_polarized_energy": -20.81, 
			 "cosmo_cavitation_energy": 22.38, 
			 "cosmo_dispersion_energy": -16.77, 
			 "cosmo_repulsion_energy": 1.4, 
			 "cosmo_total_nonelectrostatic_energy": 7.02, 
			 "SMD_solvation_energy": 7.42 
		},
		"coords": [
			{
				"x": -1.0254153691,
				"y": -1.2290840579,
				"z": 2.3295909336,
				"element": "O" 
			},
			{
				"x": -0.3916377377,
				"y": -0.3464718606,
				"z": 1.5222093902,
				"element": "C" 
			},
			{
				"x": 0.5665191492,
				"y": 0.3012916748,
				"z": 1.8809675373,
				"element": "O" 
			},
			{
				"x": -1.0378888518,
				"y": -0.2930657713,
				"z": 0.1538594145,
				"element": "C" 
			},
			{
				"x": -0.3280173009,
				"y": 0.7018555912,
				"z": -0.7687002965,
				"element": "C" 
			},
			{
				"x": -1.0425573338,
				"y": 0.82385848,
				"z": -2.425438372,
				"element": "P" 
			},
			{
				"x": -1.0332846016,
				"y": -0.7299481067,
				"z": -2.9150591177,
				"element": "O" 
			},
			{
				"x": -2.6045517507,
				"y": 1.1519474817,
				"z": -2.0989187374,
				"element": "O" 
			},
			{
				"x": -0.4236036661,
				"y": 1.7620335251,
				"z": -3.3969336636,
				"element": "O" 
			},
			{
				"x": -0.5559051687,
				"y": -1.2052102852,
				"z": 3.1804007725,
				"element": "H" 
			},
			{
				"x": -2.0934912133,
				"y": -0.0311323121,
				"z": 0.2841574067,
				"element": "H" 
			},
			{
				"x": -1.0283609283,
				"y": -1.3036400075,
				"z": -0.2686252747,
				"element": "H" 
			},
			{
				"x": -0.3432841904,
				"y": 1.707085035,
				"z": -0.3375505147,
				"element": "H" 
			},
			{
				"x": 0.7245562883,
				"y": 0.4308145235,
				"z": -0.8921773993,
				"element": "H" 
			},
			{
				"x": -0.8620274958,
				"y": -0.7730587564,
				"z": -3.8670025926,
				"element": "H" 
			},
			{
				"x": -2.9637498293,
				"y": 1.7444248462,
				"z": -2.775179486,
				"element": "H" 
			}
		],
		 "valence_orbital": [ 
			{
				"type": "occ",
				"energy": -0.34105,
				"method": "rhf"
			},
			{
				"type": "occ",
				"energy": -0.32605,
				"method": "rhf"
			},
			{
				"type": "occ",
				"energy": -0.29361,
				"method": "rhf"
			},
			{
				"type": "occ",
				"energy": -0.29212,
				"method": "rhf"
			},
			{
				"type": "occ",
				"energy": -0.28318,
				"method": "rhf"
			},
			{
				"type": "unocc",
				"energy": 0.00318,
				"method": "rhf"
			},
			{
				"type": "unocc",
				"energy": 0.03925,
				"method": "rhf"
			},
			{
				"type": "unocc",
				"energy": 0.06885,
				"method": "rhf"
			},
			{
				"type": "unocc",
				"energy": 0.07488,
				"method": "rhf"
			},
			{
				"type": "unocc",
				"energy": 0.09701,
				"method": "rhf"
			}
		],
		"cosmo_sigma_profile": { 
			"-0.025": 0.0,
			"-0.024": 0.0,
			"-0.023": 0.0,
			"-0.022": 0.0,
			"-0.021": 0.0,
			"-0.02": 0.0,
			"-0.019": 0.92634472347,
			"-0.018": 2.61623963614,
			"-0.017": 3.11097379559,
			"-0.016": 2.00929284366,
			"-0.015": 2.00519271906,
			"-0.014": 2.15427556837,
			"-0.013": 2.41169542242,
			"-0.012": 1.34256088089,
			"-0.011": 2.85809100039,
			"-0.01": 2.83536112324,
			"-0.009": 2.41109844744,
			"-0.008": 2.04678158997,
			"-0.007": 7.96922638908,
			"-0.006": 10.9842292532,
			"-0.005": 9.19343639507,
			"-0.004": 8.89922325002,
			"-0.003": 8.95788373115,
			"-0.002": 6.75351952275,
			"-0.001": 8.52009570314,
			"0.0": 5.7122037427,
			"0.001": 5.35350290728,
			"0.002": 6.8238365593,
			"0.003": 4.787479763,
			"0.004": 5.485668662,
			"0.005": 5.05266092074,
			"0.006": 4.72959010998,
			"0.007": 6.49859475661,
			"0.008": 6.56585183601,
			"0.009": 7.14202321171,
			"0.01": 5.71452964457,
			"0.011": 4.62662678806,
			"0.012": 4.46716665079,
			"0.013": 1.41771524256,
			"0.014": 4.48716018499,
			"0.015": 5.97309515901,
			"0.016": 0.0900289676057,
			"0.017": 0.0,
			"0.018": 0.0,
			"0.019": 0.0,
			"0.02": 0.0,
			"0.021": 0.0,
			"0.022": 0.0,
			"0.023": 0.0,
			"0.024": 0.0,
			"0.025": 0.0
		}
	}
}
