{
	 "smiles": "CCC1=NN=C(S)N1C", 
	 "Tm": 412.15, 
	 "num_atms": 18, 
	 "gaussian": { 
		 "optdone": 1, 
		 "sigma_profile": "yes", 
		 "theory": "DFT", 
		 "functional": "B3LYP", 
		 "basiset": "6-31G**", 
		 "properties": { 
			 "R2extent": 1626.7393, 
			 "electric_dipole_moment_norm": 4.84357276192, 
			 "electric_quadrupole_moment_norm": 9.22395202936, 
			 "total_energy": -758.37760129, 
			 "HOMO_LUMO_gap": 0.23077, 
			 "cosmo_polarized_energy": -15.72, 
			 "cosmo_cavitation_energy": 23.0, 
			 "cosmo_dispersion_energy": -17.26, 
			 "cosmo_repulsion_energy": 1.37, 
			 "cosmo_total_nonelectrostatic_energy": 7.11, 
			 "SMD_solvation_energy": 1.57 
		},
		"coords": [
			{
				"x": -0.737352616,
				"y": 0.036503341,
				"z": 2.9450652999,
				"element": "C" 
			},
			{
				"x": 0.6912435779,
				"y": -0.0616921285,
				"z": 2.379005078,
				"element": "C" 
			},
			{
				"x": 0.7428482332,
				"y": -0.3127468545,
				"z": 0.905003265,
				"element": "C" 
			},
			{
				"x": 1.0113754396,
				"y": -1.4700604249,
				"z": 0.3478115759,
				"element": "N" 
			},
			{
				"x": 0.9317830217,
				"y": -1.3177254535,
				"z": -1.0254218725,
				"element": "N" 
			},
			{
				"x": 0.619519945,
				"y": -0.0641354074,
				"z": -1.2470677564,
				"element": "C" 
			},
			{
				"x": 0.3924552491,
				"y": 0.6958545447,
				"z": -2.8282512929,
				"element": "S" 
			},
			{
				"x": 0.4863142483,
				"y": 0.6328486065,
				"z": -0.072340672,
				"element": "N" 
			},
			{
				"x": 0.1546195712,
				"y": 2.0405575457,
				"z": 0.0795450437,
				"element": "C" 
			},
			{
				"x": -1.2930290985,
				"y": 0.8741209652,
				"z": 2.5104533173,
				"element": "H" 
			},
			{
				"x": -1.2956586391,
				"y": -0.8801566763,
				"z": 2.7356311049,
				"element": "H" 
			},
			{
				"x": -0.7105749055,
				"y": 0.1813768841,
				"z": 4.0294358344,
				"element": "H" 
			},
			{
				"x": 1.2582466953,
				"y": 0.8441068004,
				"z": 2.6311627524,
				"element": "H" 
			},
			{
				"x": 1.2161991086,
				"y": -0.8997510236,
				"z": 2.8451977862,
				"element": "H" 
			},
			{
				"x": 0.7517905076,
				"y": -0.4203390173,
				"z": -3.4894007625,
				"element": "H" 
			},
			{
				"x": -0.9098504069,
				"y": 2.2196438871,
				"z": -0.1034354084,
				"element": "H" 
			},
			{
				"x": 0.396995527,
				"y": 2.3600907551,
				"z": 1.0934423037,
				"element": "H" 
			},
			{
				"x": 0.7418745415,
				"y": 2.640203656,
				"z": -0.6213355968,
				"element": "H" 
			}
		],
		 "valence_orbital": [ 
			{
				"type": "occ",
				"energy": -0.3061,
				"method": "rhf"
			},
			{
				"type": "occ",
				"energy": -0.29964,
				"method": "rhf"
			},
			{
				"type": "occ",
				"energy": -0.28558,
				"method": "rhf"
			},
			{
				"type": "occ",
				"energy": -0.24954,
				"method": "rhf"
			},
			{
				"type": "occ",
				"energy": -0.22517,
				"method": "rhf"
			},
			{
				"type": "unocc",
				"energy": 0.0056,
				"method": "rhf"
			},
			{
				"type": "unocc",
				"energy": 0.01961,
				"method": "rhf"
			},
			{
				"type": "unocc",
				"energy": 0.04743,
				"method": "rhf"
			},
			{
				"type": "unocc",
				"energy": 0.05989,
				"method": "rhf"
			},
			{
				"type": "unocc",
				"energy": 0.07918,
				"method": "rhf"
			}
		],
		"cosmo_sigma_profile": { 
			"-0.025": 0.0,
			"-0.024": 0.0,
			"-0.023": 0.0,
			"-0.022": 0.0,
			"-0.021": 0.0,
			"-0.02": 0.0,
			"-0.019": 0.0,
			"-0.018": 0.0,
			"-0.017": 0.0,
			"-0.016": 0.0,
			"-0.015": 0.0,
			"-0.014": 0.0,
			"-0.013": 0.0283014694639,
			"-0.012": 1.16368642289,
			"-0.011": 1.58297070669,
			"-0.01": 0.825141416549,
			"-0.009": 1.35154276166,
			"-0.008": 3.60623396212,
			"-0.007": 6.85974491821,
			"-0.006": 10.7170615475,
			"-0.005": 14.3463018733,
			"-0.004": 20.5593712663,
			"-0.003": 15.3440636469,
			"-0.002": 15.5868641816,
			"-0.001": 15.0675866212,
			"0.0": 14.0242726414,
			"0.001": 9.65679196673,
			"0.002": 7.80138108853,
			"0.003": 4.93787775829,
			"0.004": 5.07919085202,
			"0.005": 4.7733444682,
			"0.006": 4.13819581816,
			"0.007": 3.4345948499,
			"0.008": 1.29946226047,
			"0.009": 1.8468920772,
			"0.01": 2.00299317535,
			"0.011": 2.57452312964,
			"0.012": 2.0950311986,
			"0.013": 2.21212319555,
			"0.014": 4.15999572706,
			"0.015": 2.98590694352,
			"0.016": 2.277333476,
			"0.017": 1.81464987929,
			"0.018": 0.157206592673,
			"0.019": 0.0,
			"0.02": 0.0,
			"0.021": 0.0,
			"0.022": 0.0,
			"0.023": 0.0,
			"0.024": 0.0,
			"0.025": 0.0
		}
	}
}
