{
	 "smiles": "OC1=CC2=C(C=C1)C=NC=N2", 
	 "Tm": 490.15, 
	 "num_atms": 17, 
	 "gaussian": { 
		 "optdone": 1, 
		 "sigma_profile": "yes", 
		 "theory": "DFT", 
		 "functional": "B3LYP", 
		 "basiset": "6-31G**", 
		 "properties": { 
			 "R2extent": 1771.2845, 
			 "electric_dipole_moment_norm": 4.51217368238, 
			 "electric_quadrupole_moment_norm": 8.44921900533, 
			 "total_energy": -493.189933468, 
			 "HOMO_LUMO_gap": 0.17449, 
			 "cosmo_polarized_energy": -13.85, 
			 "cosmo_cavitation_energy": 21.46, 
			 "cosmo_dispersion_energy": -16.37, 
			 "cosmo_repulsion_energy": 1.28, 
			 "cosmo_total_nonelectrostatic_energy": 6.37, 
			 "SMD_solvation_energy": 1.06 
		},
		"coords": [
			{
				"x": 3.5655841343,
				"y": -1.6004900851,
				"z": -0.0969624536,
				"element": "O" 
			},
			{
				"x": 2.3323831526,
				"y": -1.0489828443,
				"z": -0.2562615808,
				"element": "C" 
			},
			{
				"x": 1.2542337823,
				"y": -1.6849408323,
				"z": 0.330670544,
				"element": "C" 
			},
			{
				"x": -0.0402025632,
				"y": -1.1395541817,
				"z": 0.1852900708,
				"element": "C" 
			},
			{
				"x": -0.2220534469,
				"y": 0.0626988819,
				"z": -0.5661289916,
				"element": "C" 
			},
			{
				"x": 0.9016953794,
				"y": 0.6923577073,
				"z": -1.1563904209,
				"element": "C" 
			},
			{
				"x": 2.1545753333,
				"y": 0.1488639124,
				"z": -1.0055429207,
				"element": "C" 
			},
			{
				"x": -1.5497815456,
				"y": 0.5412269074,
				"z": -0.6625987127,
				"element": "C" 
			},
			{
				"x": -2.5776316399,
				"y": -0.0659188118,
				"z": -0.102432168,
				"element": "N" 
			},
			{
				"x": -2.2852102402,
				"y": -1.2036141695,
				"z": 0.5889789686,
				"element": "C" 
			},
			{
				"x": -1.1090460716,
				"y": -1.7655686154,
				"z": 0.7642410668,
				"element": "N" 
			},
			{
				"x": 4.2244881779,
				"y": -1.061337262,
				"z": -0.5533638343,
				"element": "H" 
			},
			{
				"x": 1.3900500648,
				"y": -2.5963737908,
				"z": 0.9007185857,
				"element": "H" 
			},
			{
				"x": 0.7635962603,
				"y": 1.6065310831,
				"z": -1.7278589069,
				"element": "H" 
			},
			{
				"x": 3.0211080957,
				"y": 0.6279339876,
				"z": -1.4565025151,
				"element": "H" 
			},
			{
				"x": -1.7554140553,
				"y": 1.4551782396,
				"z": -1.2229367508,
				"element": "H" 
			},
			{
				"x": -3.1379748179,
				"y": -1.6999101266,
				"z": 1.0492800197,
				"element": "H" 
			}
		],
		 "valence_orbital": [ 
			{
				"type": "occ",
				"energy": -0.32452,
				"method": "rhf"
			},
			{
				"type": "occ",
				"energy": -0.29402,
				"method": "rhf"
			},
			{
				"type": "occ",
				"energy": -0.25735,
				"method": "rhf"
			},
			{
				"type": "occ",
				"energy": -0.24631,
				"method": "rhf"
			},
			{
				"type": "occ",
				"energy": -0.23711,
				"method": "rhf"
			},
			{
				"type": "unocc",
				"energy": -0.06262,
				"method": "rhf"
			},
			{
				"type": "unocc",
				"energy": -0.025,
				"method": "rhf"
			},
			{
				"type": "unocc",
				"energy": 0.01239,
				"method": "rhf"
			},
			{
				"type": "unocc",
				"energy": 0.05546,
				"method": "rhf"
			},
			{
				"type": "unocc",
				"energy": 0.08295,
				"method": "rhf"
			}
		],
		"cosmo_sigma_profile": { 
			"-0.025": 0.0,
			"-0.024": 0.0,
			"-0.023": 0.0,
			"-0.022": 0.0,
			"-0.021": 0.0,
			"-0.02": 0.0,
			"-0.019": 0.32208881469,
			"-0.018": 1.09478740555,
			"-0.017": 1.43668372749,
			"-0.016": 1.19845783086,
			"-0.015": 0.861560895539,
			"-0.014": 0.757704953292,
			"-0.013": 0.385987647251,
			"-0.012": 1.45334589078,
			"-0.011": 1.53858380717,
			"-0.01": 0.973682953859,
			"-0.009": 1.37070615405,
			"-0.008": 4.43922526802,
			"-0.007": 9.37030858123,
			"-0.006": 9.37051028286,
			"-0.005": 7.49901679785,
			"-0.004": 6.57247957541,
			"-0.003": 6.13086713042,
			"-0.002": 8.40893402519,
			"-0.001": 10.8237942871,
			"0.0": 14.6625632226,
			"0.001": 15.2488172917,
			"0.002": 16.7098616703,
			"0.003": 13.4125852586,
			"0.004": 5.70885551272,
			"0.005": 3.3177129492,
			"0.006": 3.98207332146,
			"0.007": 4.02476870805,
			"0.008": 4.4685768053,
			"0.009": 3.82444728466,
			"0.01": 3.00794961915,
			"0.011": 2.48642672799,
			"0.012": 1.90675052211,
			"0.013": 1.40609414737,
			"0.014": 2.22047278531,
			"0.015": 1.59394207086,
			"0.016": 0.876603803473,
			"0.017": 0.024034459446,
			"0.018": 0.0,
			"0.019": 0.0,
			"0.02": 0.0,
			"0.021": 0.0,
			"0.022": 0.0,
			"0.023": 0.0,
			"0.024": 0.0,
			"0.025": 0.0
		}
	}
}
