{
	 "smiles": "CCCN1C(=O)C(=O)C2=C1C=CC(Br)=C2", 
	 "Tm": 403.15, 
	 "num_atms": 25, 
	 "gaussian": { 
		 "optdone": 1, 
		 "sigma_profile": "yes", 
		 "theory": "DFT", 
		 "functional": "B3LYP", 
		 "basiset": "6-31G**", 
		 "properties": { 
			 "R2extent": 7612.6174, 
			 "electric_dipole_moment_norm": 5.42680290134, 
			 "electric_quadrupole_moment_norm": 18.3564530825, 
			 "total_energy": -3201.81125251, 
			 "HOMO_LUMO_gap": 0.12926, 
			 "cosmo_polarized_energy": -13.14, 
			 "cosmo_cavitation_energy": 32.07, 
			 "cosmo_dispersion_energy": -23.01, 
			 "cosmo_repulsion_energy": 1.81, 
			 "cosmo_total_nonelectrostatic_energy": 10.86, 
			 "SMD_solvation_energy": 5.37 
		},
		"coords": [
			{
				"x": -2.046143236,
				"y": -2.8843690134,
				"z": 0.2519702757,
				"element": "C" 
			},
			{
				"x": -1.5899856735,
				"y": -1.5098185256,
				"z": -0.2462206468,
				"element": "C" 
			},
			{
				"x": -0.637680553,
				"y": -1.6232412216,
				"z": -1.4452814119,
				"element": "C" 
			},
			{
				"x": -0.1769578464,
				"y": -0.3339554497,
				"z": -1.9468054605,
				"element": "N" 
			},
			{
				"x": -0.7373562765,
				"y": 0.2906358329,
				"z": -3.0547580418,
				"element": "C" 
			},
			{
				"x": -1.6379768367,
				"y": -0.1363636317,
				"z": -3.744114608,
				"element": "O" 
			},
			{
				"x": 0.0365164234,
				"y": 1.6417134586,
				"z": -3.2204768759,
				"element": "C" 
			},
			{
				"x": -0.1751106924,
				"y": 2.4586413741,
				"z": -4.088677467,
				"element": "O" 
			},
			{
				"x": 1.0150123816,
				"y": 1.6476482048,
				"z": -2.1199007757,
				"element": "C" 
			},
			{
				"x": 0.8450173249,
				"y": 0.4525970785,
				"z": -1.3910663295,
				"element": "C" 
			},
			{
				"x": 1.6477739007,
				"y": 0.1818814109,
				"z": -0.2869680133,
				"element": "C" 
			},
			{
				"x": 2.6187592187,
				"y": 1.1268881078,
				"z": 0.0688569322,
				"element": "C" 
			},
			{
				"x": 2.7797044767,
				"y": 2.3096080808,
				"z": -0.6592345719,
				"element": "C" 
			},
			{
				"x": 4.1189023327,
				"y": 3.5614869366,
				"z": -0.1244136964,
				"element": "Br" 
			},
			{
				"x": 1.9772503974,
				"y": 2.5862352154,
				"z": -1.7669013081,
				"element": "C" 
			},
			{
				"x": -2.7305070058,
				"y": -2.7866584825,
				"z": 1.0996219525,
				"element": "H" 
			},
			{
				"x": -1.1965063847,
				"y": -3.4942540829,
				"z": 0.5798342683,
				"element": "H" 
			},
			{
				"x": -2.5689133399,
				"y": -3.4384307177,
				"z": -0.5352588403,
				"element": "H" 
			},
			{
				"x": -1.0964752232,
				"y": -0.9610807173,
				"z": 0.5653366022,
				"element": "H" 
			},
			{
				"x": -2.4566960287,
				"y": -0.9106267476,
				"z": -0.5476505405,
				"element": "H" 
			},
			{
				"x": -1.1459228393,
				"y": -2.1079221791,
				"z": -2.2836358863,
				"element": "H" 
			},
			{
				"x": 0.2385945114,
				"y": -2.2315582856,
				"z": -1.1900266022,
				"element": "H" 
			},
			{
				"x": 1.5383387457,
				"y": -0.7279270659,
				"z": 0.2926199201,
				"element": "H" 
			},
			{
				"x": 3.2568881501,
				"y": 0.9394243802,
				"z": 0.9252271143,
				"element": "H" 
			},
			{
				"x": 2.0928740727,
				"y": 3.4989460401,
				"z": -2.3407759895,
				"element": "H" 
			}
		],
		 "valence_orbital": [ 
			{
				"type": "occ",
				"energy": -0.29888,
				"method": "rhf"
			},
			{
				"type": "occ",
				"energy": -0.29437,
				"method": "rhf"
			},
			{
				"type": "occ",
				"energy": -0.28808,
				"method": "rhf"
			},
			{
				"type": "occ",
				"energy": -0.25193,
				"method": "rhf"
			},
			{
				"type": "occ",
				"energy": -0.23333,
				"method": "rhf"
			},
			{
				"type": "unocc",
				"energy": -0.10407,
				"method": "rhf"
			},
			{
				"type": "unocc",
				"energy": -0.03245,
				"method": "rhf"
			},
			{
				"type": "unocc",
				"energy": -0.00528,
				"method": "rhf"
			},
			{
				"type": "unocc",
				"energy": -0.00382,
				"method": "rhf"
			},
			{
				"type": "unocc",
				"energy": 0.06543,
				"method": "rhf"
			}
		],
		"cosmo_sigma_profile": { 
			"-0.025": 0.0,
			"-0.024": 0.0,
			"-0.023": 0.0,
			"-0.022": 0.0,
			"-0.021": 0.0,
			"-0.02": 0.0,
			"-0.019": 0.0,
			"-0.018": 0.0,
			"-0.017": 0.0,
			"-0.016": 0.0,
			"-0.015": 0.0,
			"-0.014": 0.0,
			"-0.013": 0.0,
			"-0.012": 0.0,
			"-0.011": 0.0,
			"-0.01": 0.0,
			"-0.009": 0.565754273494,
			"-0.008": 6.41394928094,
			"-0.007": 10.3498409827,
			"-0.006": 9.13451641391,
			"-0.005": 10.6968619583,
			"-0.004": 17.6974164833,
			"-0.003": 25.9965084464,
			"-0.002": 27.3729629954,
			"-0.001": 25.6164365714,
			"0.0": 26.7710827127,
			"0.001": 26.2375751288,
			"0.002": 11.8543685303,
			"0.003": 9.60689871829,
			"0.004": 12.3265446959,
			"0.005": 5.59561386208,
			"0.006": 3.05984602054,
			"0.007": 2.55315713532,
			"0.008": 4.06113315237,
			"0.009": 4.75502953512,
			"0.01": 8.20618188242,
			"0.011": 7.50221057809,
			"0.012": 2.50466426675,
			"0.013": 0.202573060565,
			"0.014": 0.0,
			"0.015": 0.0,
			"0.016": 0.0,
			"0.017": 0.0,
			"0.018": 0.0,
			"0.019": 0.0,
			"0.02": 0.0,
			"0.021": 0.0,
			"0.022": 0.0,
			"0.023": 0.0,
			"0.024": 0.0,
			"0.025": 0.0
		}
	}
}
