{
	 "smiles": "OC(=O)C1=CC2=C(N1)C=CC=C2OC(F)F", 
	 "Tm": 489.15, 
	 "num_atms": 23, 
	 "gaussian": { 
		 "optdone": 1, 
		 "sigma_profile": "yes", 
		 "theory": "DFT", 
		 "functional": "B3LYP", 
		 "basiset": "6-31G**", 
		 "properties": { 
			 "R2extent": 4273.6794, 
			 "electric_dipole_moment_norm": 3.12254147931, 
			 "electric_quadrupole_moment_norm": 16.6635993042, 
			 "total_energy": -865.395392979, 
			 "HOMO_LUMO_gap": 0.16826, 
			 "cosmo_polarized_energy": -16.49, 
			 "cosmo_cavitation_energy": 28.99, 
			 "cosmo_dispersion_energy": -21.03, 
			 "cosmo_repulsion_energy": 1.6, 
			 "cosmo_total_nonelectrostatic_energy": 9.57, 
			 "SMD_solvation_energy": 6.97 
		},
		"coords": [
			{
				"x": -0.1935046966,
				"y": 0.752165706,
				"z": -3.3111749617,
				"element": "O" 
			},
			{
				"x": -0.8688591829,
				"y": -0.170175264,
				"z": -2.5862456802,
				"element": "C" 
			},
			{
				"x": -1.8058119728,
				"y": -0.7737417996,
				"z": -3.0657138277,
				"element": "O" 
			},
			{
				"x": -0.4168257361,
				"y": -0.4014287185,
				"z": -1.2029491519,
				"element": "C" 
			},
			{
				"x": 0.585211422,
				"y": 0.1456780208,
				"z": -0.4261164086,
				"element": "C" 
			},
			{
				"x": 0.5225025518,
				"y": -0.5044167225,
				"z": 0.8421120877,
				"element": "C" 
			},
			{
				"x": -0.5453435924,
				"y": -1.4492618692,
				"z": 0.7833013711,
				"element": "C" 
			},
			{
				"x": -1.0919587533,
				"y": -1.3578762491,
				"z": -0.4701746426,
				"element": "N" 
			},
			{
				"x": -0.8839465629,
				"y": -2.2676369602,
				"z": 1.8708737981,
				"element": "C" 
			},
			{
				"x": -0.1366293312,
				"y": -2.1270482403,
				"z": 3.0304696425,
				"element": "C" 
			},
			{
				"x": 0.9228059704,
				"y": -1.1970176084,
				"z": 3.1239499363,
				"element": "C" 
			},
			{
				"x": 1.2448319427,
				"y": -0.3964674706,
				"z": 2.0450615422,
				"element": "C" 
			},
			{
				"x": 2.2307660274,
				"y": 0.590279142,
				"z": 2.1805187934,
				"element": "O" 
			},
			{
				"x": 3.5021339166,
				"y": 0.2788137233,
				"z": 1.7846800211,
				"element": "C" 
			},
			{
				"x": 3.5628093231,
				"y": 0.0388345171,
				"z": 0.4419466627,
				"element": "F" 
			},
			{
				"x": 3.9586319908,
				"y": -0.8431138994,
				"z": 2.3970048481,
				"element": "F" 
			},
			{
				"x": 0.5309524356,
				"y": 1.1284233797,
				"z": -2.791572398,
				"element": "H" 
			},
			{
				"x": 1.3011677049,
				"y": 0.9044200024,
				"z": -0.7073103443,
				"element": "H" 
			},
			{
				"x": -1.8638580493,
				"y": -1.880187318,
				"z": -0.8582946428,
				"element": "H" 
			},
			{
				"x": -1.6999681909,
				"y": -2.9803469268,
				"z": 1.8083479393,
				"element": "H" 
			},
			{
				"x": -0.3692117882,
				"y": -2.7432804334,
				"z": 3.8932483804,
				"element": "H" 
			},
			{
				"x": 1.488304354,
				"y": -1.0943663727,
				"z": 4.0429865164,
				"element": "H" 
			},
			{
				"x": 4.1466002173,
				"y": 1.1261513612,
				"z": 2.0302505184,
				"element": "H" 
			}
		],
		 "valence_orbital": [ 
			{
				"type": "occ",
				"energy": -0.32106,
				"method": "rhf"
			},
			{
				"type": "occ",
				"energy": -0.29661,
				"method": "rhf"
			},
			{
				"type": "occ",
				"energy": -0.28503,
				"method": "rhf"
			},
			{
				"type": "occ",
				"energy": -0.24311,
				"method": "rhf"
			},
			{
				"type": "occ",
				"energy": -0.22689,
				"method": "rhf"
			},
			{
				"type": "unocc",
				"energy": -0.05863,
				"method": "rhf"
			},
			{
				"type": "unocc",
				"energy": 0.00343,
				"method": "rhf"
			},
			{
				"type": "unocc",
				"energy": 0.01419,
				"method": "rhf"
			},
			{
				"type": "unocc",
				"energy": 0.05043,
				"method": "rhf"
			},
			{
				"type": "unocc",
				"energy": 0.08871,
				"method": "rhf"
			}
		],
		"cosmo_sigma_profile": { 
			"-0.025": 0.0,
			"-0.024": 0.0,
			"-0.023": 0.0,
			"-0.022": 0.0,
			"-0.021": 0.0,
			"-0.02": 0.0,
			"-0.019": 0.415176390215,
			"-0.018": 0.755554012481,
			"-0.017": 1.35630827344,
			"-0.016": 1.36905788333,
			"-0.015": 1.98474759512,
			"-0.014": 1.88525134564,
			"-0.013": 1.69118318624,
			"-0.012": 2.1155519908,
			"-0.011": 2.9229842698,
			"-0.01": 4.70181189578,
			"-0.009": 3.84778171424,
			"-0.008": 4.61840351242,
			"-0.007": 6.70649192863,
			"-0.006": 8.63667799536,
			"-0.005": 9.01920267798,
			"-0.004": 9.77928413544,
			"-0.003": 10.6470583536,
			"-0.002": 10.3436585081,
			"-0.001": 11.3379369867,
			"0.0": 10.2752307716,
			"0.001": 14.3535300358,
			"0.002": 21.0327358528,
			"0.003": 26.2561475262,
			"0.004": 29.5730291815,
			"0.005": 7.81111216967,
			"0.006": 3.03739347478,
			"0.007": 4.03730756559,
			"0.008": 4.17813230878,
			"0.009": 3.7065947951,
			"0.01": 5.04966530865,
			"0.011": 4.64096476063,
			"0.012": 3.27098467704,
			"0.013": 1.37093491643,
			"0.014": 0.0299778821305,
			"0.015": 0.0,
			"0.016": 0.0,
			"0.017": 0.0,
			"0.018": 0.0,
			"0.019": 0.0,
			"0.02": 0.0,
			"0.021": 0.0,
			"0.022": 0.0,
			"0.023": 0.0,
			"0.024": 0.0,
			"0.025": 0.0
		}
	}
}
