{
	 "smiles": "CC1=C(C)C2=C(S1)N=CN=C2N1CCC(CC1)C(O)=O", 
	 "Tm": 518.15, 
	 "num_atms": 37, 
	 "gaussian": { 
		 "optdone": 1, 
		 "sigma_profile": "yes", 
		 "theory": "DFT", 
		 "functional": "B3LYP", 
		 "basiset": "6-31G**", 
		 "properties": { 
			 "R2extent": 6406.637, 
			 "electric_dipole_moment_norm": 4.46176922196, 
			 "electric_quadrupole_moment_norm": 12.9944444264, 
			 "total_energy": -1256.64562422, 
			 "HOMO_LUMO_gap": 0.17454, 
			 "cosmo_polarized_energy": -15.06, 
			 "cosmo_cavitation_energy": 38.75, 
			 "cosmo_dispersion_energy": -28.09, 
			 "cosmo_repulsion_energy": 2.07, 
			 "cosmo_total_nonelectrostatic_energy": 12.73, 
			 "SMD_solvation_energy": 3.68 
		},
		"coords": [
			{
				"x": -2.203541386,
				"y": -1.3362953738,
				"z": -2.8730987119,
				"element": "C" 
			},
			{
				"x": -0.9478253639,
				"y": -0.627439248,
				"z": -2.4596481787,
				"element": "C" 
			},
			{
				"x": -0.6151979089,
				"y": -0.1333253188,
				"z": -1.2263657596,
				"element": "C" 
			},
			{
				"x": -1.5680838636,
				"y": -0.1317021273,
				"z": -0.0545354845,
				"element": "C" 
			},
			{
				"x": 0.6943560794,
				"y": 0.4979793285,
				"z": -1.2325962323,
				"element": "C" 
			},
			{
				"x": 1.2664631113,
				"y": 0.5364255835,
				"z": -2.5259169145,
				"element": "C" 
			},
			{
				"x": 0.2754374156,
				"y": -0.3148021,
				"z": -3.6900877298,
				"element": "S" 
			},
			{
				"x": 2.3883998798,
				"y": 1.1716104148,
				"z": -2.8732602444,
				"element": "N" 
			},
			{
				"x": 2.9578495686,
				"y": 1.8289783892,
				"z": -1.8660151054,
				"element": "C" 
			},
			{
				"x": 2.585324135,
				"y": 1.8168371359,
				"z": -0.5797670926,
				"element": "N" 
			},
			{
				"x": 1.4968280536,
				"y": 1.1175667271,
				"z": -0.2325967263,
				"element": "C" 
			},
			{
				"x": 1.2083294429,
				"y": 1.0153882782,
				"z": 1.1357799891,
				"element": "N" 
			},
			{
				"x": 1.8508104141,
				"y": 2.0015839909,
				"z": 2.0176239862,
				"element": "C" 
			},
			{
				"x": 1.0150879383,
				"y": 2.1549027142,
				"z": 3.3011575956,
				"element": "C" 
			},
			{
				"x": 0.4528690145,
				"y": 0.7985517656,
				"z": 3.7902614821,
				"element": "C" 
			},
			{
				"x": 1.2887196568,
				"y": -0.3602139062,
				"z": 3.2163113113,
				"element": "C" 
			},
			{
				"x": 1.2879234719,
				"y": -0.3658537323,
				"z": 1.6768923206,
				"element": "C" 
			},
			{
				"x": -1.0363527621,
				"y": 0.6598386053,
				"z": 3.4943834104,
				"element": "C" 
			},
			{
				"x": -1.4673938944,
				"y": -0.6188408951,
				"z": 3.6535579576,
				"element": "O" 
			},
			{
				"x": -1.797123374,
				"y": 1.5547683019,
				"z": 3.1968188363,
				"element": "O" 
			},
			{
				"x": -1.9816673306,
				"y": -2.3198417616,
				"z": -3.3032203459,
				"element": "H" 
			},
			{
				"x": -2.8634145092,
				"y": -1.4924739839,
				"z": -2.017386698,
				"element": "H" 
			},
			{
				"x": -2.7585201718,
				"y": -0.7693320827,
				"z": -3.6299652756,
				"element": "H" 
			},
			{
				"x": -1.3369660199,
				"y": 0.6886002096,
				"z": 0.626533523,
				"element": "H" 
			},
			{
				"x": -2.5988393685,
				"y": 0.0020945233,
				"z": -0.3939152743,
				"element": "H" 
			},
			{
				"x": -1.5378292435,
				"y": -1.0651917926,
				"z": 0.5209557574,
				"element": "H" 
			},
			{
				"x": 3.8402280425,
				"y": 2.4189091336,
				"z": -2.1058299869,
				"element": "H" 
			},
			{
				"x": 1.9124433386,
				"y": 2.9505006554,
				"z": 1.4855621523,
				"element": "H" 
			},
			{
				"x": 2.8881468431,
				"y": 1.7139006127,
				"z": 2.2472883509,
				"element": "H" 
			},
			{
				"x": 1.644517799,
				"y": 2.6009653238,
				"z": 4.0785339499,
				"element": "H" 
			},
			{
				"x": 0.1792683758,
				"y": 2.8354651766,
				"z": 3.1233765618,
				"element": "H" 
			},
			{
				"x": 0.5119358925,
				"y": 0.7458441566,
				"z": 4.8860962786,
				"element": "H" 
			},
			{
				"x": 2.3122716118,
				"y": -0.2429568419,
				"z": 3.5872327283,
				"element": "H" 
			},
			{
				"x": 0.9271135801,
				"y": -1.3246404053,
				"z": 3.5798751238,
				"element": "H" 
			},
			{
				"x": 0.4409474188,
				"y": -0.9453173443,
				"z": 1.307775484,
				"element": "H" 
			},
			{
				"x": 2.2031607626,
				"y": -0.8633582617,
				"z": 1.3204514371,
				"element": "H" 
			},
			{
				"x": -2.4258766504,
				"y": -0.5966258517,
				"z": 3.4934375244,
				"element": "H" 
			}
		],
		 "valence_orbital": [ 
			{
				"type": "occ",
				"energy": -0.28024,
				"method": "rhf"
			},
			{
				"type": "occ",
				"energy": -0.25406,
				"method": "rhf"
			},
			{
				"type": "occ",
				"energy": -0.24954,
				"method": "rhf"
			},
			{
				"type": "occ",
				"energy": -0.24158,
				"method": "rhf"
			},
			{
				"type": "occ",
				"energy": -0.2076,
				"method": "rhf"
			},
			{
				"type": "unocc",
				"energy": -0.03306,
				"method": "rhf"
			},
			{
				"type": "unocc",
				"energy": -0.01789,
				"method": "rhf"
			},
			{
				"type": "unocc",
				"energy": 0.00098,
				"method": "rhf"
			},
			{
				"type": "unocc",
				"energy": 0.02443,
				"method": "rhf"
			},
			{
				"type": "unocc",
				"energy": 0.03575,
				"method": "rhf"
			}
		],
		"cosmo_sigma_profile": { 
			"-0.025": 0.0,
			"-0.024": 0.0,
			"-0.023": 0.0,
			"-0.022": 0.0,
			"-0.021": 0.0,
			"-0.02": 0.0,
			"-0.019": 0.0,
			"-0.018": 0.399328867687,
			"-0.017": 0.94680560245,
			"-0.016": 0.600324156653,
			"-0.015": 0.754855815643,
			"-0.014": 0.688703340884,
			"-0.013": 1.00760341943,
			"-0.012": 0.405087025244,
			"-0.011": 0.605860938437,
			"-0.01": 0.636226280597,
			"-0.009": 0.478724331084,
			"-0.008": 0.593607746092,
			"-0.007": 3.94444136273,
			"-0.006": 6.09076812588,
			"-0.005": 14.4187557035,
			"-0.004": 32.1199754097,
			"-0.003": 35.9691139312,
			"-0.002": 33.3600419371,
			"-0.001": 28.5496184446,
			"0.0": 25.7573139093,
			"0.001": 23.5250758445,
			"0.002": 19.012944639,
			"0.003": 17.0204005641,
			"0.004": 14.0039299102,
			"0.005": 8.61941504726,
			"0.006": 6.10581486452,
			"0.007": 6.22227585794,
			"0.008": 5.0198911972,
			"0.009": 4.08135646031,
			"0.01": 3.54614535899,
			"0.011": 4.61237974371,
			"0.012": 5.47137122163,
			"0.013": 1.49905811759,
			"0.014": 0.964471682982,
			"0.015": 0.574818420624,
			"0.016": 0.0372709172241,
			"0.017": 0.0,
			"0.018": 0.0,
			"0.019": 0.0,
			"0.02": 0.0,
			"0.021": 0.0,
			"0.022": 0.0,
			"0.023": 0.0,
			"0.024": 0.0,
			"0.025": 0.0
		}
	}
}
