{
	 "smiles": "OC(=O)CC1=C(Cl)C=C(O)C=C1", 
	 "Tm": 445.15, 
	 "num_atms": 19, 
	 "gaussian": { 
		 "optdone": 1, 
		 "sigma_profile": "yes", 
		 "theory": "DFT", 
		 "functional": "B3LYP", 
		 "basiset": "6-31G**", 
		 "properties": { 
			 "R2extent": 3642.3134, 
			 "electric_dipole_moment_norm": 3.09383716604, 
			 "electric_quadrupole_moment_norm": 16.7825404942, 
			 "total_energy": -994.945999397, 
			 "HOMO_LUMO_gap": 0.21396, 
			 "cosmo_polarized_energy": -16.14, 
			 "cosmo_cavitation_energy": 25.75, 
			 "cosmo_dispersion_energy": -18.62, 
			 "cosmo_repulsion_energy": 1.5, 
			 "cosmo_total_nonelectrostatic_energy": 8.64, 
			 "SMD_solvation_energy": 5.64 
		},
		"coords": [
			{
				"x": 2.3830187513,
				"y": -1.4964390415,
				"z": -0.2024162735,
				"element": "O" 
			},
			{
				"x": 1.5278792279,
				"y": -0.4624215611,
				"z": -0.3995307206,
				"element": "C" 
			},
			{
				"x": 1.8616477953,
				"y": 0.6940827099,
				"z": -0.2936104715,
				"element": "O" 
			},
			{
				"x": 0.1334766952,
				"y": -0.9790032019,
				"z": -0.7285718839,
				"element": "C" 
			},
			{
				"x": -0.8261018277,
				"y": 0.0946395105,
				"z": -1.1693082684,
				"element": "C" 
			},
			{
				"x": -0.8304364851,
				"y": 0.6197349516,
				"z": -2.4711641691,
				"element": "C" 
			},
			{
				"x": 0.320915826,
				"y": 0.0190956199,
				"z": -3.6617018793,
				"element": "Cl" 
			},
			{
				"x": -1.7182792679,
				"y": 1.6091685598,
				"z": -2.8774903839,
				"element": "C" 
			},
			{
				"x": -2.6468058509,
				"y": 2.1108689724,
				"z": -1.9600822026,
				"element": "C" 
			},
			{
				"x": -3.496963963,
				"y": 3.0794218501,
				"z": -2.4053572001,
				"element": "O" 
			},
			{
				"x": -2.6732874631,
				"y": 1.6124779235,
				"z": -0.6544840577,
				"element": "C" 
			},
			{
				"x": -1.7706441772,
				"y": 0.6198083432,
				"z": -0.2809076438,
				"element": "C" 
			},
			{
				"x": 3.2409189204,
				"y": -1.0966656014,
				"z": 0.0184742461,
				"element": "H" 
			},
			{
				"x": -0.2414943263,
				"y": -1.4734274245,
				"z": 0.1753305169,
				"element": "H" 
			},
			{
				"x": 0.2401906614,
				"y": -1.7657159485,
				"z": -1.4817077435,
				"element": "H" 
			},
			{
				"x": -1.7004365025,
				"y": 1.9970112569,
				"z": -3.8886473638,
				"element": "H" 
			},
			{
				"x": -4.0757860552,
				"y": 3.3524681201,
				"z": -1.6818325694,
				"element": "H" 
			},
			{
				"x": -3.3932291176,
				"y": 1.9955484305,
				"z": 0.0647297652,
				"element": "H" 
			},
			{
				"x": -1.7977828411,
				"y": 0.2393465309,
				"z": 0.7365783029,
				"element": "H" 
			}
		],
		 "valence_orbital": [ 
			{
				"type": "occ",
				"energy": -0.31697,
				"method": "rhf"
			},
			{
				"type": "occ",
				"energy": -0.31269,
				"method": "rhf"
			},
			{
				"type": "occ",
				"energy": -0.27537,
				"method": "rhf"
			},
			{
				"type": "occ",
				"energy": -0.25198,
				"method": "rhf"
			},
			{
				"type": "occ",
				"energy": -0.22954,
				"method": "rhf"
			},
			{
				"type": "unocc",
				"energy": -0.01558,
				"method": "rhf"
			},
			{
				"type": "unocc",
				"energy": -0.00189,
				"method": "rhf"
			},
			{
				"type": "unocc",
				"energy": 0.01227,
				"method": "rhf"
			},
			{
				"type": "unocc",
				"energy": 0.03,
				"method": "rhf"
			},
			{
				"type": "unocc",
				"energy": 0.06332,
				"method": "rhf"
			}
		],
		"cosmo_sigma_profile": { 
			"-0.025": 0.0,
			"-0.024": 0.0,
			"-0.023": 0.0,
			"-0.022": 0.0,
			"-0.021": 0.0,
			"-0.02": 0.0,
			"-0.019": 0.0664956603723,
			"-0.018": 1.28102102308,
			"-0.017": 2.43103168409,
			"-0.016": 1.66550703118,
			"-0.015": 2.25338093087,
			"-0.014": 1.82060776875,
			"-0.013": 1.52756730207,
			"-0.012": 1.59272260113,
			"-0.011": 1.70863279681,
			"-0.01": 1.68288031358,
			"-0.009": 1.60813665954,
			"-0.008": 4.43151158506,
			"-0.007": 8.25463975534,
			"-0.006": 9.85362754334,
			"-0.005": 9.69670220071,
			"-0.004": 8.60807564166,
			"-0.003": 8.74298927974,
			"-0.002": 8.8925193816,
			"-0.001": 10.6820628875,
			"0.0": 10.7129820701,
			"0.001": 12.745631293,
			"0.002": 16.7454406983,
			"0.003": 19.132667238,
			"0.004": 17.492016934,
			"0.005": 9.44514296527,
			"0.006": 4.81909182543,
			"0.007": 4.71394528137,
			"0.008": 4.70928847325,
			"0.009": 4.8131574884,
			"0.01": 4.69869315884,
			"0.011": 5.86157330231,
			"0.012": 3.93831441931,
			"0.013": 0.311101985917,
			"0.014": 0.0,
			"0.015": 0.0,
			"0.016": 0.0,
			"0.017": 0.0,
			"0.018": 0.0,
			"0.019": 0.0,
			"0.02": 0.0,
			"0.021": 0.0,
			"0.022": 0.0,
			"0.023": 0.0,
			"0.024": 0.0,
			"0.025": 0.0
		}
	}
}
