{
	 "smiles": "CC(C)(C)C1=CC=C(C=C1)C(=O)CCCCl", 
	 "Tm": 321.15, 
	 "num_atms": 35, 
	 "gaussian": { 
		 "optdone": 1, 
		 "sigma_profile": "yes", 
		 "theory": "DFT", 
		 "functional": "B3LYP", 
		 "basiset": "6-31G**", 
		 "properties": { 
			 "R2extent": 7916.3034, 
			 "electric_dipole_moment_norm": 5.78477368961, 
			 "electric_quadrupole_moment_norm": 17.1649013697, 
			 "total_energy": -1080.38680102, 
			 "HOMO_LUMO_gap": 0.19384, 
			 "cosmo_polarized_energy": -10.57, 
			 "cosmo_cavitation_energy": 38.27, 
			 "cosmo_dispersion_energy": -27.16, 
			 "cosmo_repulsion_energy": 2.12, 
			 "cosmo_total_nonelectrostatic_energy": 13.24, 
			 "SMD_solvation_energy": 6.37 
		},
		"coords": [
			{
				"x": 4.0373723812,
				"y": -2.6233805821,
				"z": 1.748294475,
				"element": "C" 
			},
			{
				"x": 3.0759274077,
				"y": -1.573755482,
				"z": 2.3373543555,
				"element": "C" 
			},
			{
				"x": 3.916275686,
				"y": -0.3712572902,
				"z": 2.8309152635,
				"element": "C" 
			},
			{
				"x": 2.3393090261,
				"y": -2.2131775332,
				"z": 3.5391376201,
				"element": "C" 
			},
			{
				"x": 2.0417211062,
				"y": -1.0840488642,
				"z": 1.3088411804,
				"element": "C" 
			},
			{
				"x": 1.998869448,
				"y": -1.555104103,
				"z": -0.0133075013,
				"element": "C" 
			},
			{
				"x": 1.0484302943,
				"y": -1.0906652166,
				"z": -0.9180138385,
				"element": "C" 
			},
			{
				"x": 0.0986972088,
				"y": -0.1333226951,
				"z": -0.537219651,
				"element": "C" 
			},
			{
				"x": 0.1317970776,
				"y": 0.3453886867,
				"z": 0.7822520409,
				"element": "C" 
			},
			{
				"x": 1.0844559154,
				"y": -0.1230285001,
				"z": 1.6809433796,
				"element": "C" 
			},
			{
				"x": -0.8971573259,
				"y": 0.324737251,
				"z": -1.5547022332,
				"element": "C" 
			},
			{
				"x": -0.8835528997,
				"y": -0.1301095123,
				"z": -2.6910806937,
				"element": "O" 
			},
			{
				"x": -1.939593955,
				"y": 1.3650576952,
				"z": -1.1460755555,
				"element": "C" 
			},
			{
				"x": -2.9170895787,
				"y": 1.746596798,
				"z": -2.2666839783,
				"element": "C" 
			},
			{
				"x": -2.2524672392,
				"y": 2.5679717751,
				"z": -3.3653630946,
				"element": "C" 
			},
			{
				"x": -3.4667724533,
				"y": 3.1080092031,
				"z": -4.6096969796,
				"element": "Cl" 
			},
			{
				"x": 4.7506333148,
				"y": -2.9394134562,
				"z": 2.5161284243,
				"element": "H" 
			},
			{
				"x": 4.6142567937,
				"y": -2.2231703104,
				"z": 0.9081778632,
				"element": "H" 
			},
			{
				"x": 3.5061049009,
				"y": -3.5170791133,
				"z": 1.4050503092,
				"element": "H" 
			},
			{
				"x": 3.2952145496,
				"y": 0.3947466911,
				"z": 3.3044847962,
				"element": "H" 
			},
			{
				"x": 4.6551693454,
				"y": -0.7033660243,
				"z": 3.5685704738,
				"element": "H" 
			},
			{
				"x": 4.453271793,
				"y": 0.0992381453,
				"z": 2.0008417437,
				"element": "H" 
			},
			{
				"x": 1.6707606052,
				"y": -1.5026627117,
				"z": 4.0340883696,
				"element": "H" 
			},
			{
				"x": 3.0628277823,
				"y": -2.5633416907,
				"z": 4.2836546522,
				"element": "H" 
			},
			{
				"x": 1.7387428929,
				"y": -3.0711272428,
				"z": 3.219806659,
				"element": "H" 
			},
			{
				"x": 2.7141846115,
				"y": -2.2959519444,
				"z": -0.3506832733,
				"element": "H" 
			},
			{
				"x": 1.0230327901,
				"y": -1.4612668515,
				"z": -1.937470483,
				"element": "H" 
			},
			{
				"x": -0.5857569803,
				"y": 1.0868986161,
				"z": 1.1187740488,
				"element": "H" 
			},
			{
				"x": 1.0798628621,
				"y": 0.2695687113,
				"z": 2.6931998064,
				"element": "H" 
			},
			{
				"x": -2.5011549106,
				"y": 0.9635575352,
				"z": -0.2922374678,
				"element": "H" 
			},
			{
				"x": -1.4208380137,
				"y": 2.2537442416,
				"z": -0.7603954363,
				"element": "H" 
			},
			{
				"x": -3.3414979197,
				"y": 0.8396852436,
				"z": -2.7063820948,
				"element": "H" 
			},
			{
				"x": -3.7422202897,
				"y": 2.3235764482,
				"z": -1.836735416,
				"element": "H" 
			},
			{
				"x": -1.5029155168,
				"y": 1.9849852289,
				"z": -3.8974705629,
				"element": "H" 
			},
			{
				"x": -1.7999007101,
				"y": 3.4813668539,
				"z": -2.9723972016,
				"element": "H" 
			}
		],
		 "valence_orbital": [ 
			{
				"type": "occ",
				"energy": -0.28521,
				"method": "rhf"
			},
			{
				"type": "occ",
				"energy": -0.28401,
				"method": "rhf"
			},
			{
				"type": "occ",
				"energy": -0.26276,
				"method": "rhf"
			},
			{
				"type": "occ",
				"energy": -0.25423,
				"method": "rhf"
			},
			{
				"type": "occ",
				"energy": -0.25337,
				"method": "rhf"
			},
			{
				"type": "unocc",
				"energy": -0.05953,
				"method": "rhf"
			},
			{
				"type": "unocc",
				"energy": -0.01277,
				"method": "rhf"
			},
			{
				"type": "unocc",
				"energy": 0.03077,
				"method": "rhf"
			},
			{
				"type": "unocc",
				"energy": 0.03621,
				"method": "rhf"
			},
			{
				"type": "unocc",
				"energy": 0.07225,
				"method": "rhf"
			}
		],
		"cosmo_sigma_profile": { 
			"-0.025": 0.0,
			"-0.024": 0.0,
			"-0.023": 0.0,
			"-0.022": 0.0,
			"-0.021": 0.0,
			"-0.02": 0.0,
			"-0.019": 0.0,
			"-0.018": 0.0,
			"-0.017": 0.0,
			"-0.016": 0.0,
			"-0.015": 0.0,
			"-0.014": 0.0,
			"-0.013": 0.0,
			"-0.012": 0.0,
			"-0.011": 0.0,
			"-0.01": 0.0,
			"-0.009": 0.0,
			"-0.008": 0.0,
			"-0.007": 2.44259166504,
			"-0.006": 15.1213486006,
			"-0.005": 18.1595716776,
			"-0.004": 21.3912245721,
			"-0.003": 35.3818885017,
			"-0.002": 32.3445182004,
			"-0.001": 26.2660454593,
			"0.0": 26.74366857,
			"0.001": 30.7749082257,
			"0.002": 19.1331033579,
			"0.003": 14.266166894,
			"0.004": 17.7080939878,
			"0.005": 11.4514030585,
			"0.006": 9.38845814572,
			"0.007": 10.8564802425,
			"0.008": 1.52749681761,
			"0.009": 1.74413174045,
			"0.01": 1.82813308172,
			"0.011": 2.33288314984,
			"0.012": 2.76344440993,
			"0.013": 0.209597387525,
			"0.014": 0.0,
			"0.015": 0.0,
			"0.016": 0.0,
			"0.017": 0.0,
			"0.018": 0.0,
			"0.019": 0.0,
			"0.02": 0.0,
			"0.021": 0.0,
			"0.022": 0.0,
			"0.023": 0.0,
			"0.024": 0.0,
			"0.025": 0.0
		}
	}
}
