{
	 "smiles": "N1C=NN=C1C1=CC=NC=C1", 
	 "Tm": 499.15, 
	 "num_atms": 17, 
	 "gaussian": { 
		 "optdone": 1, 
		 "sigma_profile": "yes", 
		 "theory": "DFT", 
		 "functional": "B3LYP", 
		 "basiset": "6-31G**", 
		 "properties": { 
			 "R2extent": 1883.5017, 
			 "electric_dipole_moment_norm": 4.88209132852, 
			 "electric_quadrupole_moment_norm": 15.3736892566, 
			 "total_energy": -489.337371369, 
			 "HOMO_LUMO_gap": 0.19278, 
			 "cosmo_polarized_energy": -21.41, 
			 "cosmo_cavitation_energy": 21.85, 
			 "cosmo_dispersion_energy": -16.51, 
			 "cosmo_repulsion_energy": 1.29, 
			 "cosmo_total_nonelectrostatic_energy": 6.63, 
			 "SMD_solvation_energy": 0.88 
		},
		"coords": [
			{
				"x": -0.9474415367,
				"y": 0.7435902494,
				"z": -1.3640097037,
				"element": "N" 
			},
			{
				"x": -1.3417591454,
				"y": -0.0090151668,
				"z": -2.4332282706,
				"element": "C" 
			},
			{
				"x": -0.7238251028,
				"y": -1.1670365028,
				"z": -2.4310367364,
				"element": "N" 
			},
			{
				"x": 0.1016731812,
				"y": -1.1852751894,
				"z": -1.3330149683,
				"element": "N" 
			},
			{
				"x": -0.0348324761,
				"y": -0.0374822729,
				"z": -0.6952492762,
				"element": "C" 
			},
			{
				"x": 0.6733149351,
				"y": 0.3404408406,
				"z": 0.5280643794,
				"element": "C" 
			},
			{
				"x": 1.581389833,
				"y": -0.5594287577,
				"z": 1.1054715892,
				"element": "C" 
			},
			{
				"x": 2.2468904964,
				"y": -0.1850337514,
				"z": 2.2688445792,
				"element": "C" 
			},
			{
				"x": 2.0780447158,
				"y": 0.9940808101,
				"z": 2.8858807367,
				"element": "N" 
			},
			{
				"x": 1.2104340971,
				"y": 1.8462424873,
				"z": 2.3287983956,
				"element": "C" 
			},
			{
				"x": 0.4904992737,
				"y": 1.5749102247,
				"z": 1.165992716,
				"element": "C" 
			},
			{
				"x": -1.2625022985,
				"y": 1.6709785459,
				"z": -1.1241387422,
				"element": "H" 
			},
			{
				"x": -2.0630074792,
				"y": 0.3236178767,
				"z": -3.1655803061,
				"element": "H" 
			},
			{
				"x": 1.7508355861,
				"y": -1.5246456053,
				"z": 0.6423826018,
				"element": "H" 
			},
			{
				"x": 2.9552155756,
				"y": -0.8693759738,
				"z": 2.7318212613,
				"element": "H" 
			},
			{
				"x": 1.0797173582,
				"y": 2.8005068042,
				"z": 2.8361833437,
				"element": "H" 
			},
			{
				"x": -0.1948470136,
				"y": 2.3250253812,
				"z": 0.7811184005,
				"element": "H" 
			}
		],
		 "valence_orbital": [ 
			{
				"type": "occ",
				"energy": -0.31705,
				"method": "rhf"
			},
			{
				"type": "occ",
				"energy": -0.27311,
				"method": "rhf"
			},
			{
				"type": "occ",
				"energy": -0.26664,
				"method": "rhf"
			},
			{
				"type": "occ",
				"energy": -0.25948,
				"method": "rhf"
			},
			{
				"type": "occ",
				"energy": -0.25186,
				"method": "rhf"
			},
			{
				"type": "unocc",
				"energy": -0.05908,
				"method": "rhf"
			},
			{
				"type": "unocc",
				"energy": -0.02095,
				"method": "rhf"
			},
			{
				"type": "unocc",
				"energy": 0.02071,
				"method": "rhf"
			},
			{
				"type": "unocc",
				"energy": 0.04107,
				"method": "rhf"
			},
			{
				"type": "unocc",
				"energy": 0.05447,
				"method": "rhf"
			}
		],
		"cosmo_sigma_profile": { 
			"-0.025": 0.0,
			"-0.024": 0.0,
			"-0.023": 0.0,
			"-0.022": 0.0,
			"-0.021": 0.0,
			"-0.02": 0.0,
			"-0.019": 0.0405299574438,
			"-0.018": 1.20567710547,
			"-0.017": 2.23117235079,
			"-0.016": 1.65050668135,
			"-0.015": 1.57378565643,
			"-0.014": 1.09672713676,
			"-0.013": 1.68272878272,
			"-0.012": 1.30270423735,
			"-0.011": 2.96732702378,
			"-0.01": 3.95124523145,
			"-0.009": 2.45124830092,
			"-0.008": 3.80868093229,
			"-0.007": 5.92301276845,
			"-0.006": 10.1958771384,
			"-0.005": 8.19943245248,
			"-0.004": 6.81290268966,
			"-0.003": 7.84511214449,
			"-0.002": 8.67191024183,
			"-0.001": 11.4564536913,
			"0.0": 12.428308298,
			"0.001": 16.7138301399,
			"0.002": 13.5212330692,
			"0.003": 4.91019323297,
			"0.004": 5.59018723959,
			"0.005": 3.10648609351,
			"0.006": 2.81993384583,
			"0.007": 4.32154677361,
			"0.008": 3.21169739135,
			"0.009": 2.9506960307,
			"0.01": 3.25638446179,
			"0.011": 3.35228688534,
			"0.012": 2.88875191151,
			"0.013": 4.93413377616,
			"0.014": 3.79037702737,
			"0.015": 3.42033076949,
			"0.016": 1.84509973318,
			"0.017": 0.601058329322,
			"0.018": 0.0,
			"0.019": 0.0,
			"0.02": 0.0,
			"0.021": 0.0,
			"0.022": 0.0,
			"0.023": 0.0,
			"0.024": 0.0,
			"0.025": 0.0
		}
	}
}
