{
	 "smiles": "COC1=CC(=CC=C1)C(=O)C1=CNC2=C1C=CC=N2", 
	 "Tm": 413.15, 
	 "num_atms": 31, 
	 "gaussian": { 
		 "optdone": 1, 
		 "sigma_profile": "yes", 
		 "theory": "DFT", 
		 "functional": "B3LYP", 
		 "basiset": "6-31G**", 
		 "properties": { 
			 "R2extent": 7296.399, 
			 "electric_dipole_moment_norm": 4.51939858056, 
			 "electric_quadrupole_moment_norm": 16.6037808068, 
			 "total_energy": -838.776392884, 
			 "HOMO_LUMO_gap": 0.17262, 
			 "cosmo_polarized_energy": -17.68, 
			 "cosmo_cavitation_energy": 35.59, 
			 "cosmo_dispersion_energy": -26.22, 
			 "cosmo_repulsion_energy": 1.98, 
			 "cosmo_total_nonelectrostatic_energy": 11.34, 
			 "SMD_solvation_energy": 5.35 
		},
		"coords": [
			{
				"x": 6.033520575,
				"y": -0.6562944748,
				"z": 0.9438841891,
				"element": "C" 
			},
			{
				"x": 4.6864539699,
				"y": -0.4604124837,
				"z": 1.342772613,
				"element": "O" 
			},
			{
				"x": 3.699549018,
				"y": -0.6976720679,
				"z": 0.4316622571,
				"element": "C" 
			},
			{
				"x": 2.3936965591,
				"y": -0.4623665065,
				"z": 0.8768558593,
				"element": "C" 
			},
			{
				"x": 1.3036494608,
				"y": -0.6940499924,
				"z": 0.0361713917,
				"element": "C" 
			},
			{
				"x": 1.5234319982,
				"y": -1.1323561201,
				"z": -1.2820057444,
				"element": "C" 
			},
			{
				"x": 2.8255123724,
				"y": -1.3462889041,
				"z": -1.7259109243,
				"element": "C" 
			},
			{
				"x": 3.9186800332,
				"y": -1.1444124552,
				"z": -0.8789143832,
				"element": "C" 
			},
			{
				"x": -0.0656801862,
				"y": -0.3896796429,
				"z": 0.5817458687,
				"element": "C" 
			},
			{
				"x": -0.20900011,
				"y": 0.524742127,
				"z": 1.3932485283,
				"element": "O" 
			},
			{
				"x": -1.2205222004,
				"y": -1.197326637,
				"z": 0.1673055901,
				"element": "C" 
			},
			{
				"x": -1.2352633686,
				"y": -2.4295586653,
				"z": -0.468818486,
				"element": "C" 
			},
			{
				"x": -2.5227923994,
				"y": -2.8727215893,
				"z": -0.6031928176,
				"element": "N" 
			},
			{
				"x": -3.3893131223,
				"y": -1.9420926783,
				"z": -0.0520958593,
				"element": "C" 
			},
			{
				"x": -2.602231894,
				"y": -0.8780605934,
				"z": 0.4540404349,
				"element": "C" 
			},
			{
				"x": -3.288885146,
				"y": 0.1737796041,
				"z": 1.072714263,
				"element": "C" 
			},
			{
				"x": -4.6775226676,
				"y": 0.0801619187,
				"z": 1.125737498,
				"element": "C" 
			},
			{
				"x": -5.3359288453,
				"y": -1.035592868,
				"z": 0.5766329196,
				"element": "C" 
			},
			{
				"x": -4.7130516437,
				"y": -2.0609170745,
				"z": -0.017306234,
				"element": "N" 
			},
			{
				"x": 6.3085049797,
				"y": -0.0012720589,
				"z": 0.1070072943,
				"element": "H" 
			},
			{
				"x": 6.6441356081,
				"y": -0.4033043833,
				"z": 1.8118840017,
				"element": "H" 
			},
			{
				"x": 6.2259346857,
				"y": -1.6994165174,
				"z": 0.6605746338,
				"element": "H" 
			},
			{
				"x": 2.230411182,
				"y": -0.0932748217,
				"z": 1.883081643,
				"element": "H" 
			},
			{
				"x": 0.688631936,
				"y": -1.2594488896,
				"z": -1.9618895391,
				"element": "H" 
			},
			{
				"x": 3.0019090301,
				"y": -1.6683477783,
				"z": -2.748392593,
				"element": "H" 
			},
			{
				"x": 4.9214764633,
				"y": -1.3259329836,
				"z": -1.2470473553,
				"element": "H" 
			},
			{
				"x": -0.4065314535,
				"y": -3.0313921133,
				"z": -0.8100289958,
				"element": "H" 
			},
			{
				"x": -2.8174201207,
				"y": -3.7446830914,
				"z": -1.0156171183,
				"element": "H" 
			},
			{
				"x": -2.7462748289,
				"y": 1.0112353616,
				"z": 1.4951011686,
				"element": "H" 
			},
			{
				"x": -5.2651315094,
				"y": 0.8633205342,
				"z": 1.5939639054,
				"element": "H" 
			},
			{
				"x": -6.4209483754,
				"y": -1.1015641547,
				"z": 0.6230359907,
				"element": "H" 
			}
		],
		 "valence_orbital": [ 
			{
				"type": "occ",
				"energy": -0.2562,
				"method": "rhf"
			},
			{
				"type": "occ",
				"energy": -0.24136,
				"method": "rhf"
			},
			{
				"type": "occ",
				"energy": -0.23792,
				"method": "rhf"
			},
			{
				"type": "occ",
				"energy": -0.22692,
				"method": "rhf"
			},
			{
				"type": "occ",
				"energy": -0.22503,
				"method": "rhf"
			},
			{
				"type": "unocc",
				"energy": -0.05241,
				"method": "rhf"
			},
			{
				"type": "unocc",
				"energy": -0.02789,
				"method": "rhf"
			},
			{
				"type": "unocc",
				"energy": 0.00029,
				"method": "rhf"
			},
			{
				"type": "unocc",
				"energy": 0.01602,
				"method": "rhf"
			},
			{
				"type": "unocc",
				"energy": 0.01673,
				"method": "rhf"
			}
		],
		"cosmo_sigma_profile": { 
			"-0.025": 0.0,
			"-0.024": 0.0,
			"-0.023": 0.0,
			"-0.022": 0.0,
			"-0.021": 0.0,
			"-0.02": 0.0,
			"-0.019": 0.0,
			"-0.018": 0.0,
			"-0.017": 0.704716629807,
			"-0.016": 1.65253329501,
			"-0.015": 1.19814491702,
			"-0.014": 1.1864217991,
			"-0.013": 0.96374663973,
			"-0.012": 0.849312862472,
			"-0.011": 1.69245133946,
			"-0.01": 1.93806661226,
			"-0.009": 2.21602583393,
			"-0.008": 1.37935713041,
			"-0.007": 4.99363377468,
			"-0.006": 17.0214433602,
			"-0.005": 23.0089611102,
			"-0.004": 22.690700767,
			"-0.003": 19.2622824983,
			"-0.002": 15.4995300901,
			"-0.001": 16.4414564588,
			"0.0": 17.6028662668,
			"0.001": 21.3509483396,
			"0.002": 23.1950504998,
			"0.003": 25.4568902461,
			"0.004": 20.4024639259,
			"0.005": 9.69564616751,
			"0.006": 4.63903434175,
			"0.007": 5.36889435231,
			"0.008": 4.01469936713,
			"0.009": 4.72026544495,
			"0.01": 4.30197153961,
			"0.011": 3.2253136987,
			"0.012": 3.85315665889,
			"0.013": 3.15703543126,
			"0.014": 1.08995838968,
			"0.015": 0.679368688267,
			"0.016": 0.334614214265,
			"0.017": 0.0,
			"0.018": 0.0,
			"0.019": 0.0,
			"0.02": 0.0,
			"0.021": 0.0,
			"0.022": 0.0,
			"0.023": 0.0,
			"0.024": 0.0,
			"0.025": 0.0
		}
	}
}
