{
	 "smiles": "ClCC1=CC(=O)N2C=CC=CC2=N1", 
	 "Tm": 447.15, 
	 "num_atms": 20, 
	 "gaussian": { 
		 "optdone": 1, 
		 "sigma_profile": "yes", 
		 "theory": "DFT", 
		 "functional": "B3LYP", 
		 "basiset": "6-31G**", 
		 "properties": { 
			 "R2extent": 3868.778, 
			 "electric_dipole_moment_norm": 4.19815850344, 
			 "electric_quadrupole_moment_norm": 18.7374755842, 
			 "total_energy": -992.103613506, 
			 "HOMO_LUMO_gap": 0.15633, 
			 "cosmo_polarized_energy": -13.04, 
			 "cosmo_cavitation_energy": 26.31, 
			 "cosmo_dispersion_energy": -19.64, 
			 "cosmo_repulsion_energy": 1.54, 
			 "cosmo_total_nonelectrostatic_energy": 8.21, 
			 "SMD_solvation_energy": 3.74 
		},
		"coords": [
			{
				"x": 1.8588383166,
				"y": -0.1313144984,
				"z": 4.7680339643,
				"element": "Cl" 
			},
			{
				"x": 2.3016582377,
				"y": 0.3492125265,
				"z": 3.0651596833,
				"element": "C" 
			},
			{
				"x": 1.0780205051,
				"y": 0.478411157,
				"z": 2.1979924829,
				"element": "C" 
			},
			{
				"x": 0.4911930328,
				"y": 1.7102170687,
				"z": 1.995867328,
				"element": "C" 
			},
			{
				"x": -0.6716326397,
				"y": 1.8527614768,
				"z": 1.182350127,
				"element": "C" 
			},
			{
				"x": -1.2962322732,
				"y": 2.8684405181,
				"z": 0.9103471002,
				"element": "O" 
			},
			{
				"x": -1.1265703157,
				"y": 0.5727509479,
				"z": 0.6278601837,
				"element": "N" 
			},
			{
				"x": -2.2492563043,
				"y": 0.6066366371,
				"z": -0.1681069602,
				"element": "C" 
			},
			{
				"x": -2.747675809,
				"y": -0.5290853695,
				"z": -0.731413566,
				"element": "C" 
			},
			{
				"x": -2.0926139848,
				"y": -1.7685673782,
				"z": -0.4903353301,
				"element": "C" 
			},
			{
				"x": -0.97681996,
				"y": -1.8061861499,
				"z": 0.2995470404,
				"element": "C" 
			},
			{
				"x": -0.4509273287,
				"y": -0.6192634789,
				"z": 0.8943200369,
				"element": "C" 
			},
			{
				"x": 0.6318288606,
				"y": -0.6772692335,
				"z": 1.6568525949,
				"element": "N" 
			},
			{
				"x": 2.9495917141,
				"y": -0.440463817,
				"z": 2.6869194174,
				"element": "H" 
			},
			{
				"x": 2.8466590784,
				"y": 1.2892022028,
				"z": 3.1446854614,
				"element": "H" 
			},
			{
				"x": 0.8820620732,
				"y": 2.6121347218,
				"z": 2.4507061419,
				"element": "H" 
			},
			{
				"x": -2.6652769176,
				"y": 1.5990367834,
				"z": -0.2844351847,
				"element": "H" 
			},
			{
				"x": -3.6333928056,
				"y": -0.4735261557,
				"z": -1.3530548488,
				"element": "H" 
			},
			{
				"x": -2.4801941538,
				"y": -2.6809293663,
				"z": -0.9327282859,
				"element": "H" 
			},
			{
				"x": -0.4420593261,
				"y": -2.7228985928,
				"z": 0.5164326134,
				"element": "H" 
			}
		],
		 "valence_orbital": [ 
			{
				"type": "occ",
				"energy": -0.29495,
				"method": "rhf"
			},
			{
				"type": "occ",
				"energy": -0.28474,
				"method": "rhf"
			},
			{
				"type": "occ",
				"energy": -0.2816,
				"method": "rhf"
			},
			{
				"type": "occ",
				"energy": -0.27097,
				"method": "rhf"
			},
			{
				"type": "occ",
				"energy": -0.22467,
				"method": "rhf"
			},
			{
				"type": "unocc",
				"energy": -0.06834,
				"method": "rhf"
			},
			{
				"type": "unocc",
				"energy": -0.06119,
				"method": "rhf"
			},
			{
				"type": "unocc",
				"energy": -0.00093,
				"method": "rhf"
			},
			{
				"type": "unocc",
				"energy": 0.03684,
				"method": "rhf"
			},
			{
				"type": "unocc",
				"energy": 0.07797,
				"method": "rhf"
			}
		],
		"cosmo_sigma_profile": { 
			"-0.025": 0.0,
			"-0.024": 0.0,
			"-0.023": 0.0,
			"-0.022": 0.0,
			"-0.021": 0.0,
			"-0.02": 0.0,
			"-0.019": 0.0,
			"-0.018": 0.0,
			"-0.017": 0.0,
			"-0.016": 0.0,
			"-0.015": 0.0,
			"-0.014": 0.0,
			"-0.013": 0.0,
			"-0.012": 0.0,
			"-0.011": 0.0,
			"-0.01": 0.0,
			"-0.009": 1.46187897724,
			"-0.008": 12.1282064134,
			"-0.007": 14.1027179217,
			"-0.006": 11.7688065975,
			"-0.005": 12.1361472587,
			"-0.004": 14.0636346044,
			"-0.003": 13.4763237914,
			"-0.002": 12.0241138415,
			"-0.001": 15.2100916381,
			"0.0": 17.4295158392,
			"0.001": 17.6562958122,
			"0.002": 10.4868910364,
			"0.003": 7.15146621073,
			"0.004": 7.37083332566,
			"0.005": 8.71592583994,
			"0.006": 12.9042539093,
			"0.007": 6.22117709654,
			"0.008": 2.50072784355,
			"0.009": 1.71660110353,
			"0.01": 2.692145312,
			"0.011": 2.76431751873,
			"0.012": 4.33222120532,
			"0.013": 4.46698948565,
			"0.014": 1.28068677725,
			"0.015": 0.0148128040251,
			"0.016": 0.0,
			"0.017": 0.0,
			"0.018": 0.0,
			"0.019": 0.0,
			"0.02": 0.0,
			"0.021": 0.0,
			"0.022": 0.0,
			"0.023": 0.0,
			"0.024": 0.0,
			"0.025": 0.0
		}
	}
}
