{
	 "smiles": "CNC(=NC)C1=CC(=C(O)C(=C1)C(C)(C)C)C(C)(C)C", 
	 "Tm": 479.15, 
	 "num_atms": 48, 
	 "gaussian": { 
		 "optdone": 1, 
		 "sigma_profile": "yes", 
		 "theory": "DFT", 
		 "functional": "B3LYP", 
		 "basiset": "6-31G**", 
		 "properties": { 
			 "R2extent": 6420.224, 
			 "electric_dipole_moment_norm": 3.19124909244, 
			 "electric_quadrupole_moment_norm": 12.4439746207, 
			 "total_energy": -849.417537201, 
			 "HOMO_LUMO_gap": 0.19902, 
			 "cosmo_polarized_energy": -10.02, 
			 "cosmo_cavitation_energy": 45.58, 
			 "cosmo_dispersion_energy": -30.1, 
			 "cosmo_repulsion_energy": 2.36, 
			 "cosmo_total_nonelectrostatic_energy": 17.84, 
			 "SMD_solvation_energy": 4.99 
		},
		"coords": [
			{
				"x": 3.4078968923,
				"y": -1.980220764,
				"z": 2.1353206549,
				"element": "C" 
			},
			{
				"x": 2.3514943424,
				"y": -1.6711011666,
				"z": 3.094848545,
				"element": "N" 
			},
			{
				"x": 0.999145465,
				"y": -1.7329674674,
				"z": 2.7384499657,
				"element": "C" 
			},
			{
				"x": 0.2004583983,
				"y": -2.293954477,
				"z": 3.5724388761,
				"element": "N" 
			},
			{
				"x": -1.2394230676,
				"y": -2.2103921159,
				"z": 3.4327956722,
				"element": "C" 
			},
			{
				"x": 0.6446792584,
				"y": -1.0532804446,
				"z": 1.4515057484,
				"element": "C" 
			},
			{
				"x": 1.0501458109,
				"y": 0.262439916,
				"z": 1.2168753879,
				"element": "C" 
			},
			{
				"x": 0.7246345559,
				"y": 0.9444051792,
				"z": 0.0393793284,
				"element": "C" 
			},
			{
				"x": -0.0315561493,
				"y": 0.2357856254,
				"z": -0.9281934336,
				"element": "C" 
			},
			{
				"x": -0.3982552427,
				"y": 0.8175788055,
				"z": -2.1183174696,
				"element": "O" 
			},
			{
				"x": -0.4527830559,
				"y": -1.1031782192,
				"z": -0.7380205241,
				"element": "C" 
			},
			{
				"x": -0.0981883891,
				"y": -1.712980325,
				"z": 0.4686150772,
				"element": "C" 
			},
			{
				"x": -1.2689975866,
				"y": -1.8648609595,
				"z": -1.808620834,
				"element": "C" 
			},
			{
				"x": -0.4629821237,
				"y": -1.9706748471,
				"z": -3.1273349233,
				"element": "C" 
			},
			{
				"x": -2.6192989974,
				"y": -1.1497831796,
				"z": -2.0645896485,
				"element": "C" 
			},
			{
				"x": -1.595976125,
				"y": -3.3047509141,
				"z": -1.3597445583,
				"element": "C" 
			},
			{
				"x": 1.1791906344,
				"y": 2.4105732214,
				"z": -0.1755808919,
				"element": "C" 
			},
			{
				"x": -0.0480363743,
				"y": 3.3519110275,
				"z": -0.3203240745,
				"element": "C" 
			},
			{
				"x": 1.9860423214,
				"y": 2.9444618262,
				"z": 1.0274848647,
				"element": "C" 
			},
			{
				"x": 2.1198905559,
				"y": 2.5225839598,
				"z": -1.4067090021,
				"element": "C" 
			},
			{
				"x": 3.4237563451,
				"y": -3.0364178279,
				"z": 1.8238864969,
				"element": "H" 
			},
			{
				"x": 4.3760016655,
				"y": -1.7413107569,
				"z": 2.5850122405,
				"element": "H" 
			},
			{
				"x": 3.2920837573,
				"y": -1.3660954006,
				"z": 1.2405157299,
				"element": "H" 
			},
			{
				"x": 2.4693054463,
				"y": -2.1392953523,
				"z": 3.988023233,
				"element": "H" 
			},
			{
				"x": -1.5998794249,
				"y": -1.5293528671,
				"z": 2.6497406869,
				"element": "H" 
			},
			{
				"x": -1.6532414373,
				"y": -3.2075579422,
				"z": 3.2301921334,
				"element": "H" 
			},
			{
				"x": -1.6696322647,
				"y": -1.8881144987,
				"z": 4.3896536909,
				"element": "H" 
			},
			{
				"x": 1.6305137701,
				"y": 0.7518883413,
				"z": 1.988009254,
				"element": "H" 
			},
			{
				"x": -0.0760095612,
				"y": 1.7231778846,
				"z": -2.1502896981,
				"element": "H" 
			},
			{
				"x": -0.3929254117,
				"y": -2.7369029564,
				"z": 0.6581215039,
				"element": "H" 
			},
			{
				"x": -1.0409270831,
				"y": -2.5293072203,
				"z": -3.8726056558,
				"element": "H" 
			},
			{
				"x": -0.2295884376,
				"y": -0.9896356144,
				"z": -3.5412344164,
				"element": "H" 
			},
			{
				"x": 0.4771693802,
				"y": -2.5083380394,
				"z": -2.9618953724,
				"element": "H" 
			},
			{
				"x": -2.4777931503,
				"y": -0.1333413613,
				"z": -2.4320657798,
				"element": "H" 
			},
			{
				"x": -3.1997568646,
				"y": -1.706735334,
				"z": -2.8091780033,
				"element": "H" 
			},
			{
				"x": -3.2115938314,
				"y": -1.1047929333,
				"z": -1.1440779843,
				"element": "H" 
			},
			{
				"x": -2.1729271147,
				"y": -3.8016718107,
				"z": -2.14613782,
				"element": "H" 
			},
			{
				"x": -2.2001696645,
				"y": -3.3265958543,
				"z": -0.4468258367,
				"element": "H" 
			},
			{
				"x": -0.6930487489,
				"y": -3.900625489,
				"z": -1.1900161632,
				"element": "H" 
			},
			{
				"x": -0.7218354589,
				"y": 3.0986306661,
				"z": -1.1448826314,
				"element": "H" 
			},
			{
				"x": -0.6514538862,
				"y": 3.3237722973,
				"z": 0.5920224834,
				"element": "H" 
			},
			{
				"x": 0.2837443443,
				"y": 4.3839784463,
				"z": -0.4771026275,
				"element": "H" 
			},
			{
				"x": 1.3975926203,
				"y": 2.9398267956,
				"z": 1.9496981004,
				"element": "H" 
			},
			{
				"x": 2.28409896,
				"y": 3.9793243299,
				"z": 0.8309797911,
				"element": "H" 
			},
			{
				"x": 2.8983373398,
				"y": 2.3652454741,
				"z": 1.1983588807,
				"element": "H" 
			},
			{
				"x": 1.6807917523,
				"y": 2.1786636261,
				"z": -2.3483917136,
				"element": "H" 
			},
			{
				"x": 2.4287139569,
				"y": 3.5633008691,
				"z": -1.552709486,
				"element": "H" 
			},
			{
				"x": 3.0198918787,
				"y": 1.9208878474,
				"z": -1.2469797971,
				"element": "H" 
			}
		],
		 "valence_orbital": [ 
			{
				"type": "occ",
				"energy": -0.30004,
				"method": "rhf"
			},
			{
				"type": "occ",
				"energy": -0.24157,
				"method": "rhf"
			},
			{
				"type": "occ",
				"energy": -0.22615,
				"method": "rhf"
			},
			{
				"type": "occ",
				"energy": -0.21877,
				"method": "rhf"
			},
			{
				"type": "occ",
				"energy": -0.20596,
				"method": "rhf"
			},
			{
				"type": "unocc",
				"energy": -0.00694,
				"method": "rhf"
			},
			{
				"type": "unocc",
				"energy": 9e-05,
				"method": "rhf"
			},
			{
				"type": "unocc",
				"energy": 0.05343,
				"method": "rhf"
			},
			{
				"type": "unocc",
				"energy": 0.05888,
				"method": "rhf"
			},
			{
				"type": "unocc",
				"energy": 0.09465,
				"method": "rhf"
			}
		],
		"cosmo_sigma_profile": { 
			"-0.025": 0.0,
			"-0.024": 0.0,
			"-0.023": 0.0,
			"-0.022": 0.0,
			"-0.021": 0.0,
			"-0.02": 0.0,
			"-0.019": 0.0,
			"-0.018": 0.0,
			"-0.017": 0.0,
			"-0.016": 0.0,
			"-0.015": 0.0487148158554,
			"-0.014": 0.740195791179,
			"-0.013": 0.470769136527,
			"-0.012": 0.697314756361,
			"-0.011": 0.815184557717,
			"-0.01": 2.01371507338,
			"-0.009": 1.27502747969,
			"-0.008": 2.11040154876,
			"-0.007": 1.59684995716,
			"-0.006": 1.91363640307,
			"-0.005": 3.72068205522,
			"-0.004": 12.8991710816,
			"-0.003": 39.2382886223,
			"-0.002": 52.1904652393,
			"-0.001": 50.3401577961,
			"0.0": 52.0436998808,
			"0.001": 43.7693524246,
			"0.002": 28.1586830228,
			"0.003": 16.0911044766,
			"0.004": 13.7889497229,
			"0.005": 9.664806943,
			"0.006": 4.81764013957,
			"0.007": 2.78498878136,
			"0.008": 1.66886505725,
			"0.009": 2.17132361108,
			"0.01": 1.60340886616,
			"0.011": 1.04914820322,
			"0.012": 1.68672575404,
			"0.013": 1.1291782702,
			"0.014": 1.03887322231,
			"0.015": 0.941818717312,
			"0.016": 0.382521613348,
			"0.017": 0.794002818948,
			"0.018": 0.213286998321,
			"0.019": 0.0,
			"0.02": 0.0,
			"0.021": 0.0,
			"0.022": 0.0,
			"0.023": 0.0,
			"0.024": 0.0,
			"0.025": 0.0
		}
	}
}
