{
	 "smiles": "COC1=CC(=CC=C1O)C1NN2C(S1)=NN=C2C1=CC=CC(=C1)[N+]([O-])=O", 
	 "Tm": 438.15, 
	 "num_atms": 39, 
	 "gaussian": { 
		 "optdone": 1, 
		 "sigma_profile": "yes", 
		 "theory": "DFT", 
		 "functional": "B3LYP", 
		 "basiset": "6-31G**", 
		 "properties": { 
			 "R2extent": 15305.2205, 
			 "electric_dipole_moment_norm": 11.0316024883, 
			 "electric_quadrupole_moment_norm": 42.5865173486, 
			 "total_energy": -1590.18742483, 
			 "HOMO_LUMO_gap": 0.14087, 
			 "cosmo_polarized_energy": -31.02, 
			 "cosmo_cavitation_energy": 46.72, 
			 "cosmo_dispersion_energy": -33.9, 
			 "cosmo_repulsion_energy": 2.49, 
			 "cosmo_total_nonelectrostatic_energy": 15.31, 
			 "SMD_solvation_energy": 8.14 
		},
		"coords": [
			{
				"x": -5.3853772849,
				"y": 2.3883674968,
				"z": -0.695885065,
				"element": "C" 
			},
			{
				"x": -5.7380020404,
				"y": 1.028711702,
				"z": -0.9029588488,
				"element": "O" 
			},
			{
				"x": -4.9376593109,
				"y": 0.0703478557,
				"z": -0.3697947816,
				"element": "C" 
			},
			{
				"x": -3.7771890931,
				"y": 0.3051834785,
				"z": 0.3645702583,
				"element": "C" 
			},
			{
				"x": -3.0156729046,
				"y": -0.7596876389,
				"z": 0.8790197233,
				"element": "C" 
			},
			{
				"x": -3.4333125886,
				"y": -2.0715694472,
				"z": 0.652255633,
				"element": "C" 
			},
			{
				"x": -4.5938034804,
				"y": -2.3157940825,
				"z": -0.0861061688,
				"element": "C" 
			},
			{
				"x": -5.349936966,
				"y": -1.2655838049,
				"z": -0.6001366863,
				"element": "C" 
			},
			{
				"x": -6.4889493475,
				"y": -1.4408948623,
				"z": -1.3196825055,
				"element": "O" 
			},
			{
				"x": -1.7450964999,
				"y": -0.4505849797,
				"z": 1.6168921676,
				"element": "C" 
			},
			{
				"x": -0.5462261617,
				"y": -0.7721327686,
				"z": 0.8262367316,
				"element": "N" 
			},
			{
				"x": 0.4962394858,
				"y": -0.8976049418,
				"z": 1.7666888985,
				"element": "N" 
			},
			{
				"x": 0.1727516954,
				"y": -1.2453963625,
				"z": 3.0535590599,
				"element": "C" 
			},
			{
				"x": -1.5647561553,
				"y": -1.390333503,
				"z": 3.2797484579,
				"element": "S" 
			},
			{
				"x": 1.2482473889,
				"y": -1.3634957754,
				"z": 3.7898022885,
				"element": "N" 
			},
			{
				"x": 2.3190116532,
				"y": -1.0991751327,
				"z": 2.9520076181,
				"element": "N" 
			},
			{
				"x": 1.8712597013,
				"y": -0.8079976576,
				"z": 1.7423941014,
				"element": "C" 
			},
			{
				"x": 2.7143989006,
				"y": -0.4497167846,
				"z": 0.6001858052,
				"element": "C" 
			},
			{
				"x": 2.185077454,
				"y": 0.0004381777,
				"z": -0.6211633881,
				"element": "C" 
			},
			{
				"x": 3.0321884338,
				"y": 0.3395270282,
				"z": -1.6778084463,
				"element": "C" 
			},
			{
				"x": 4.4136139297,
				"y": 0.2379661752,
				"z": -1.5402816945,
				"element": "C" 
			},
			{
				"x": 4.9212340743,
				"y": -0.208322098,
				"z": -0.3195596523,
				"element": "C" 
			},
			{
				"x": 4.1067034618,
				"y": -0.5531810624,
				"z": 0.7497721557,
				"element": "C" 
			},
			{
				"x": 6.3842375108,
				"y": -0.3207350315,
				"z": -0.1610575265,
				"element": "N" 
			},
			{
				"x": 7.084077066,
				"y": -0.0058685622,
				"z": -1.1234820665,
				"element": "O" 
			},
			{
				"x": 6.8133586532,
				"y": -0.7212610544,
				"z": 0.9182578098,
				"element": "O" 
			},
			{
				"x": -6.1560452921,
				"y": 2.9759736005,
				"z": -1.1958556288,
				"element": "H" 
			},
			{
				"x": -4.4081541478,
				"y": 2.6239735345,
				"z": -1.1367553279,
				"element": "H" 
			},
			{
				"x": -5.3710456589,
				"y": 2.6436539297,
				"z": 0.3714545309,
				"element": "H" 
			},
			{
				"x": -3.4487197224,
				"y": 1.3224906241,
				"z": 0.5428987939,
				"element": "H" 
			},
			{
				"x": -2.8768820052,
				"y": -2.9055526252,
				"z": 1.0683161212,
				"element": "H" 
			},
			{
				"x": -4.9229062677,
				"y": -3.3385159046,
				"z": -0.2559295681,
				"element": "H" 
			},
			{
				"x": -6.6686155115,
				"y": -2.38697761,
				"z": -1.3996124737,
				"element": "H" 
			},
			{
				"x": -1.6892713815,
				"y": 0.6062829884,
				"z": 1.885151857,
				"element": "H" 
			},
			{
				"x": -0.6790957964,
				"y": -1.687566334,
				"z": 0.3874416812,
				"element": "H" 
			},
			{
				"x": 1.1107297419,
				"y": 0.092473392,
				"z": -0.7380634746,
				"element": "H" 
			},
			{
				"x": 2.6090849008,
				"y": 0.6873774221,
				"z": -2.6148666138,
				"element": "H" 
			},
			{
				"x": 5.0951642294,
				"y": 0.4920619418,
				"z": -2.34184224,
				"element": "H" 
			},
			{
				"x": 4.5353393361,
				"y": -0.8932813235,
				"z": 1.6836884644,
				"element": "H" 
			}
		],
		 "valence_orbital": [ 
			{
				"type": "occ",
				"energy": -0.2753,
				"method": "rhf"
			},
			{
				"type": "occ",
				"energy": -0.26689,
				"method": "rhf"
			},
			{
				"type": "occ",
				"energy": -0.26091,
				"method": "rhf"
			},
			{
				"type": "occ",
				"energy": -0.23216,
				"method": "rhf"
			},
			{
				"type": "occ",
				"energy": -0.22836,
				"method": "rhf"
			},
			{
				"type": "unocc",
				"energy": -0.08749,
				"method": "rhf"
			},
			{
				"type": "unocc",
				"energy": -0.05383,
				"method": "rhf"
			},
			{
				"type": "unocc",
				"energy": -0.03786,
				"method": "rhf"
			},
			{
				"type": "unocc",
				"energy": -0.02356,
				"method": "rhf"
			},
			{
				"type": "unocc",
				"energy": -0.00673,
				"method": "rhf"
			}
		],
		"cosmo_sigma_profile": { 
			"-0.025": 0.0,
			"-0.024": 0.0,
			"-0.023": 0.0,
			"-0.022": 0.0,
			"-0.021": 0.0,
			"-0.02": 0.0,
			"-0.019": 0.024378107011,
			"-0.018": 0.972703602858,
			"-0.017": 0.94500770097,
			"-0.016": 0.992758254542,
			"-0.015": 1.97338498649,
			"-0.014": 2.26950104586,
			"-0.013": 2.49068481272,
			"-0.012": 2.0113341855,
			"-0.011": 2.61035023048,
			"-0.01": 2.83170209674,
			"-0.009": 4.54138610184,
			"-0.008": 8.90863202033,
			"-0.007": 11.8612977837,
			"-0.006": 21.6763467249,
			"-0.005": 22.8298345964,
			"-0.004": 21.3152923234,
			"-0.003": 23.2812114634,
			"-0.002": 25.3284014623,
			"-0.001": 25.5826175354,
			"0.0": 27.5885639995,
			"0.001": 27.1081604902,
			"0.002": 24.3318954715,
			"0.003": 19.8619089309,
			"0.004": 16.9744621078,
			"0.005": 11.0108010623,
			"0.006": 8.67335462409,
			"0.007": 13.4449817,
			"0.008": 11.1035898201,
			"0.009": 7.0719209331,
			"0.01": 6.93846583592,
			"0.011": 4.30650581113,
			"0.012": 4.11277252986,
			"0.013": 6.0559935275,
			"0.014": 3.54749617939,
			"0.015": 1.85614442928,
			"0.016": 0.748362194306,
			"0.017": 0.0237936511809,
			"0.018": 0.0,
			"0.019": 0.0,
			"0.02": 0.0,
			"0.021": 0.0,
			"0.022": 0.0,
			"0.023": 0.0,
			"0.024": 0.0,
			"0.025": 0.0
		}
	}
}
