{
	 "smiles": "CN(C)C1=CC=C(C=C2C(=O)OC(C)(C)OC2=O)C=C1", 
	 "Tm": 435.15, 
	 "num_atms": 37, 
	 "gaussian": { 
		 "optdone": 1, 
		 "sigma_profile": "yes", 
		 "theory": "DFT", 
		 "functional": "B3LYP", 
		 "basiset": "6-31G**", 
		 "properties": { 
			 "R2extent": 8424.2578, 
			 "electric_dipole_moment_norm": 6.84153488115, 
			 "electric_quadrupole_moment_norm": 36.9552551848, 
			 "total_energy": -937.501657064, 
			 "HOMO_LUMO_gap": 0.12953, 
			 "cosmo_polarized_energy": -18.31, 
			 "cosmo_cavitation_energy": 39.76, 
			 "cosmo_dispersion_energy": -28.76, 
			 "cosmo_repulsion_energy": 2.18, 
			 "cosmo_total_nonelectrostatic_energy": 13.18, 
			 "SMD_solvation_energy": 8.53 
		},
		"coords": [
			{
				"x": 4.8483902709,
				"y": 3.5912037243,
				"z": 0.5711916903,
				"element": "C" 
			},
			{
				"x": 4.8232329207,
				"y": 2.1447984629,
				"z": 0.7393297074,
				"element": "N" 
			},
			{
				"x": 6.0542713146,
				"y": 1.4420028114,
				"z": 1.0707823132,
				"element": "C" 
			},
			{
				"x": 3.6429060068,
				"y": 1.4549402462,
				"z": 0.6247436743,
				"element": "C" 
			},
			{
				"x": 2.4225220417,
				"y": 2.1202964473,
				"z": 0.3302215727,
				"element": "C" 
			},
			{
				"x": 1.2313731956,
				"y": 1.4315438118,
				"z": 0.2112537479,
				"element": "C" 
			},
			{
				"x": 1.1709374558,
				"y": 0.0244069079,
				"z": 0.3748718907,
				"element": "C" 
			},
			{
				"x": 0.0146841983,
				"y": -0.8243237384,
				"z": 0.2650170481,
				"element": "C" 
			},
			{
				"x": -1.3145220147,
				"y": -0.6945501771,
				"z": -0.0714038116,
				"element": "C" 
			},
			{
				"x": -2.0837719635,
				"y": -1.9713138447,
				"z": -0.029571072,
				"element": "C" 
			},
			{
				"x": -1.6826349961,
				"y": -3.0100685099,
				"z": 0.4491980548,
				"element": "O" 
			},
			{
				"x": -3.3514819167,
				"y": -1.9378937697,
				"z": -0.5403222646,
				"element": "O" 
			},
			{
				"x": -3.7187443516,
				"y": -0.8693574414,
				"z": -1.4168319222,
				"element": "C" 
			},
			{
				"x": -3.1003350425,
				"y": -1.0835031179,
				"z": -2.7991247142,
				"element": "C" 
			},
			{
				"x": -5.2377910129,
				"y": -0.8432474106,
				"z": -1.4383046932,
				"element": "C" 
			},
			{
				"x": -3.3083524861,
				"y": 0.394133322,
				"z": -0.8833231976,
				"element": "O" 
			},
			{
				"x": -2.0431077588,
				"y": 0.548502101,
				"z": -0.3817535337,
				"element": "C" 
			},
			{
				"x": -1.660515992,
				"y": 1.6846717294,
				"z": -0.187262007,
				"element": "O" 
			},
			{
				"x": 2.3936355463,
				"y": -0.6292747859,
				"z": 0.6785087213,
				"element": "C" 
			},
			{
				"x": 3.5903837157,
				"y": 0.0468490104,
				"z": 0.8004944146,
				"element": "C" 
			},
			{
				"x": 5.8726804109,
				"y": 3.9466474756,
				"z": 0.6840025735,
				"element": "H" 
			},
			{
				"x": 4.2275180576,
				"y": 4.1005299182,
				"z": 1.3195843159,
				"element": "H" 
			},
			{
				"x": 4.495096096,
				"y": 3.8883063352,
				"z": -0.4240330448,
				"element": "H" 
			},
			{
				"x": 6.8757299607,
				"y": 2.1573523277,
				"z": 1.1112160222,
				"element": "H" 
			},
			{
				"x": 6.3032939923,
				"y": 0.6842006099,
				"z": 0.3170911799,
				"element": "H" 
			},
			{
				"x": 5.9899344505,
				"y": 0.943759757,
				"z": 2.0469777901,
				"element": "H" 
			},
			{
				"x": 2.4085884494,
				"y": 3.1954632857,
				"z": 0.2017118441,
				"element": "H" 
			},
			{
				"x": 0.3179288809,
				"y": 1.97189291,
				"z": 0.0049465599,
				"element": "H" 
			},
			{
				"x": 0.247077853,
				"y": -1.8659656804,
				"z": 0.4848354566,
				"element": "H" 
			},
			{
				"x": -2.0086483803,
				"y": -1.0934710031,
				"z": -2.74141,
				"element": "H" 
			},
			{
				"x": -3.4056248792,
				"y": -0.277406961,
				"z": -3.4708781462,
				"element": "H" 
			},
			{
				"x": -3.4350408651,
				"y": -2.0388528124,
				"z": -3.2107789847,
				"element": "H" 
			},
			{
				"x": -5.5875922815,
				"y": -0.0290697797,
				"z": -2.0770953348,
				"element": "H" 
			},
			{
				"x": -5.6128554368,
				"y": -0.6881475948,
				"z": -0.4246373163,
				"element": "H" 
			},
			{
				"x": -5.6213447307,
				"y": -1.7923261792,
				"z": -1.8196961159,
				"element": "H" 
			},
			{
				"x": 2.3893037483,
				"y": -1.7074039619,
				"z": 0.8172836529,
				"element": "H" 
			},
			{
				"x": 4.4876755426,
				"y": -0.5124244257,
				"z": 1.0332639289,
				"element": "H" 
			}
		],
		 "valence_orbital": [ 
			{
				"type": "occ",
				"energy": -0.27613,
				"method": "rhf"
			},
			{
				"type": "occ",
				"energy": -0.26582,
				"method": "rhf"
			},
			{
				"type": "occ",
				"energy": -0.26006,
				"method": "rhf"
			},
			{
				"type": "occ",
				"energy": -0.25603,
				"method": "rhf"
			},
			{
				"type": "occ",
				"energy": -0.20425,
				"method": "rhf"
			},
			{
				"type": "unocc",
				"energy": -0.07472,
				"method": "rhf"
			},
			{
				"type": "unocc",
				"energy": -0.00537,
				"method": "rhf"
			},
			{
				"type": "unocc",
				"energy": 0.01252,
				"method": "rhf"
			},
			{
				"type": "unocc",
				"energy": 0.02907,
				"method": "rhf"
			},
			{
				"type": "unocc",
				"energy": 0.07203,
				"method": "rhf"
			}
		],
		"cosmo_sigma_profile": { 
			"-0.025": 0.0,
			"-0.024": 0.0,
			"-0.023": 0.0,
			"-0.022": 0.0,
			"-0.021": 0.0,
			"-0.02": 0.0,
			"-0.019": 0.0,
			"-0.018": 0.0,
			"-0.017": 0.0,
			"-0.016": 0.0,
			"-0.015": 0.0,
			"-0.014": 0.0,
			"-0.013": 0.0,
			"-0.012": 0.0,
			"-0.011": 0.0,
			"-0.01": 0.0,
			"-0.009": 0.0,
			"-0.008": 1.80157369828,
			"-0.007": 5.54305687517,
			"-0.006": 15.1040221695,
			"-0.005": 34.8442139502,
			"-0.004": 31.761746757,
			"-0.003": 32.6409082674,
			"-0.002": 34.3988834122,
			"-0.001": 25.0435617434,
			"0.0": 17.1939195186,
			"0.001": 15.6085797495,
			"0.002": 16.8905037269,
			"0.003": 15.6093511521,
			"0.004": 17.2508614225,
			"0.005": 7.74470678468,
			"0.006": 4.75241683426,
			"0.007": 4.35227031508,
			"0.008": 4.37483760462,
			"0.009": 5.39509635576,
			"0.01": 6.44170978804,
			"0.011": 6.99349808435,
			"0.012": 7.65739838115,
			"0.013": 3.74483650432,
			"0.014": 0.333518538994,
			"0.015": 0.0,
			"0.016": 0.0,
			"0.017": 0.0,
			"0.018": 0.0,
			"0.019": 0.0,
			"0.02": 0.0,
			"0.021": 0.0,
			"0.022": 0.0,
			"0.023": 0.0,
			"0.024": 0.0,
			"0.025": 0.0
		}
	}
}
