{
	 "smiles": "CC1(C)NC2=CC=CC3=C(C=CC(N1)=C23)N=NC1=C2C=CC=CC2=C(C=C1)N=NC1=CC=CC=C1", 
	 "Tm": 395.15, 
	 "num_atms": 59, 
	 "gaussian": { 
		 "optdone": 1, 
		 "sigma_profile": "yes", 
		 "theory": "DFT", 
		 "functional": "B3LYP", 
		 "basiset": "6-31G**", 
		 "properties": { 
			 "R2extent": 30690.32, 
			 "electric_dipole_moment_norm": 6.98863397954, 
			 "electric_quadrupole_moment_norm": 47.7185238798, 
			 "total_energy": -1448.02033069, 
			 "HOMO_LUMO_gap": 0.08461, 
			 "cosmo_polarized_energy": -21.4, 
			 "cosmo_cavitation_energy": 62.78, 
			 "cosmo_dispersion_energy": -44.48, 
			 "cosmo_repulsion_energy": 3.21, 
			 "cosmo_total_nonelectrostatic_energy": 21.51, 
			 "SMD_solvation_energy": 6.41 
		},
		"coords": [
			{
				"x": -4.919416552,
				"y": -2.0987736305,
				"z": 5.4159698704,
				"element": "C" 
			},
			{
				"x": -3.5795995066,
				"y": -2.4448896018,
				"z": 6.1047493328,
				"element": "C" 
			},
			{
				"x": -3.7934278872,
				"y": -2.7795422465,
				"z": 7.583808509,
				"element": "C" 
			},
			{
				"x": -2.9147933625,
				"y": -3.5834125356,
				"z": 5.4624439206,
				"element": "N" 
			},
			{
				"x": -2.3256230038,
				"y": -3.4046964617,
				"z": 4.2107190962,
				"element": "C" 
			},
			{
				"x": -2.1511554399,
				"y": -4.4472755918,
				"z": 3.3128257291,
				"element": "C" 
			},
			{
				"x": -1.4807893705,
				"y": -4.2159032585,
				"z": 2.0957851367,
				"element": "C" 
			},
			{
				"x": -0.9863673355,
				"y": -2.9703566729,
				"z": 1.7617725478,
				"element": "C" 
			},
			{
				"x": -1.1396087604,
				"y": -1.8835234676,
				"z": 2.6569546444,
				"element": "C" 
			},
			{
				"x": -0.6290191135,
				"y": -0.5641502272,
				"z": 2.3895095188,
				"element": "C" 
			},
			{
				"x": -0.7986890564,
				"y": 0.4440646473,
				"z": 3.3437786437,
				"element": "C" 
			},
			{
				"x": -1.466871064,
				"y": 0.2173081496,
				"z": 4.544300608,
				"element": "C" 
			},
			{
				"x": -1.9942005049,
				"y": -1.0467953253,
				"z": 4.8264594196,
				"element": "C" 
			},
			{
				"x": -2.6368701399,
				"y": -1.3217774822,
				"z": 6.0148704935,
				"element": "N" 
			},
			{
				"x": -1.8288221588,
				"y": -2.1067752829,
				"z": 3.8867989695,
				"element": "C" 
			},
			{
				"x": 0.0371476962,
				"y": -0.3864628843,
				"z": 1.1789556678,
				"element": "N" 
			},
			{
				"x": 0.3815576115,
				"y": 0.8064633169,
				"z": 0.8996841706,
				"element": "N" 
			},
			{
				"x": 1.1184207092,
				"y": 0.9464984294,
				"z": -0.2868356177,
				"element": "C" 
			},
			{
				"x": 1.2878931031,
				"y": 2.2831947032,
				"z": -0.7830484215,
				"element": "C" 
			},
			{
				"x": 0.7147112856,
				"y": 3.4048903336,
				"z": -0.1257820981,
				"element": "C" 
			},
			{
				"x": 0.884000271,
				"y": 4.6762639334,
				"z": -0.624975816,
				"element": "C" 
			},
			{
				"x": 1.6325643932,
				"y": 4.884846229,
				"z": -1.8073394097,
				"element": "C" 
			},
			{
				"x": 2.2016001222,
				"y": 3.8201816206,
				"z": -2.4686037512,
				"element": "C" 
			},
			{
				"x": 2.0479267738,
				"y": 2.4946532877,
				"z": -1.980537148,
				"element": "C" 
			},
			{
				"x": 2.6309565666,
				"y": 1.364133417,
				"z": -2.6447875464,
				"element": "C" 
			},
			{
				"x": 2.4500347041,
				"y": 0.0829196713,
				"z": -2.1242552198,
				"element": "C" 
			},
			{
				"x": 1.7073526563,
				"y": -0.1232427974,
				"z": -0.9633974659,
				"element": "C" 
			},
			{
				"x": 3.3621535796,
				"y": 1.632877644,
				"z": -3.8169127614,
				"element": "N" 
			},
			{
				"x": 3.9372724704,
				"y": 0.6319167095,
				"z": -4.3350951631,
				"element": "N" 
			},
			{
				"x": 4.6506318169,
				"y": 0.9010479258,
				"z": -5.5259905259,
				"element": "C" 
			},
			{
				"x": 4.7052598763,
				"y": 2.1499374358,
				"z": -6.1717878578,
				"element": "C" 
			},
			{
				"x": 5.44122156,
				"y": 2.2883612244,
				"z": -7.3425999067,
				"element": "C" 
			},
			{
				"x": 6.1284419681,
				"y": 1.1938852948,
				"z": -7.8838463322,
				"element": "C" 
			},
			{
				"x": 6.074583575,
				"y": -0.0472248419,
				"z": -7.2464090505,
				"element": "C" 
			},
			{
				"x": 5.3371434046,
				"y": -0.1933639352,
				"z": -6.073177932,
				"element": "C" 
			},
			{
				"x": -4.7582164451,
				"y": -1.8653379998,
				"z": 4.3602398252,
				"element": "H" 
			},
			{
				"x": -5.6159134996,
				"y": -2.9418465341,
				"z": 5.48054344,
				"element": "H" 
			},
			{
				"x": -5.3924113352,
				"y": -1.2335300508,
				"z": 5.8931198435,
				"element": "H" 
			},
			{
				"x": -4.251459592,
				"y": -1.9348649573,
				"z": 8.1090865505,
				"element": "H" 
			},
			{
				"x": -2.8378384763,
				"y": -3.0196311668,
				"z": 8.054250817,
				"element": "H" 
			},
			{
				"x": -4.46836462,
				"y": -3.6350481023,
				"z": 7.6890872794,
				"element": "H" 
			},
			{
				"x": -3.4305850258,
				"y": -4.4487893356,
				"z": 5.5594204116,
				"element": "H" 
			},
			{
				"x": -2.5261773029,
				"y": -5.4389841384,
				"z": 3.5523416671,
				"element": "H" 
			},
			{
				"x": -1.3555838194,
				"y": -5.0440391244,
				"z": 1.403461134,
				"element": "H" 
			},
			{
				"x": -0.4734177121,
				"y": -2.8040451651,
				"z": 0.8234833826,
				"element": "H" 
			},
			{
				"x": -0.3907880334,
				"y": 1.4239011853,
				"z": 3.1229126475,
				"element": "H" 
			},
			{
				"x": -1.5819149153,
				"y": 1.0216299627,
				"z": 5.2665119057,
				"element": "H" 
			},
			{
				"x": -2.8906675175,
				"y": -0.5170164004,
				"z": 6.5722937262,
				"element": "H" 
			},
			{
				"x": 0.1436263843,
				"y": 3.2305510107,
				"z": 0.7777471261,
				"element": "H" 
			},
			{
				"x": 0.4414931338,
				"y": 5.5245348279,
				"z": -0.1102046349,
				"element": "H" 
			},
			{
				"x": 1.7593261073,
				"y": 5.8922125034,
				"z": -2.1941736838,
				"element": "H" 
			},
			{
				"x": 2.7773134057,
				"y": 3.9694332663,
				"z": -3.3734943573,
				"element": "H" 
			},
			{
				"x": 2.9065196798,
				"y": -0.7503855508,
				"z": -2.6461310845,
				"element": "H" 
			},
			{
				"x": 1.5786497983,
				"y": -1.1203129489,
				"z": -0.5589102534,
				"element": "H" 
			},
			{
				"x": 4.1660454936,
				"y": 2.9856933315,
				"z": -5.7416712125,
				"element": "H" 
			},
			{
				"x": 5.482390385,
				"y": 3.2524218316,
				"z": -7.8420842115,
				"element": "H" 
			},
			{
				"x": 6.7006918347,
				"y": 1.3116109819,
				"z": -8.7996246461,
				"element": "H" 
			},
			{
				"x": 6.6048474547,
				"y": -0.8985004308,
				"z": -7.6632171232,
				"element": "H" 
			},
			{
				"x": 5.2753137297,
				"y": -1.1454347261,
				"z": -5.5555928035,
				"element": "H" 
			}
		],
		 "valence_orbital": [ 
			{
				"type": "occ",
				"energy": -0.22261,
				"method": "rhf"
			},
			{
				"type": "occ",
				"energy": -0.21702,
				"method": "rhf"
			},
			{
				"type": "occ",
				"energy": -0.2114,
				"method": "rhf"
			},
			{
				"type": "occ",
				"energy": -0.20156,
				"method": "rhf"
			},
			{
				"type": "occ",
				"energy": -0.17608,
				"method": "rhf"
			},
			{
				"type": "unocc",
				"energy": -0.09147,
				"method": "rhf"
			},
			{
				"type": "unocc",
				"energy": -0.05389,
				"method": "rhf"
			},
			{
				"type": "unocc",
				"energy": -0.01751,
				"method": "rhf"
			},
			{
				"type": "unocc",
				"energy": -0.00988,
				"method": "rhf"
			},
			{
				"type": "unocc",
				"energy": -0.0027,
				"method": "rhf"
			}
		],
		"cosmo_sigma_profile": { 
			"-0.025": 0.0,
			"-0.024": 0.0,
			"-0.023": 0.0,
			"-0.022": 0.0,
			"-0.021": 0.0,
			"-0.02": 0.0,
			"-0.019": 0.0,
			"-0.018": 0.0,
			"-0.017": 0.0,
			"-0.016": 0.0,
			"-0.015": 0.00816995694737,
			"-0.014": 0.874092791335,
			"-0.013": 2.46290502268,
			"-0.012": 2.84733547357,
			"-0.011": 3.80412379098,
			"-0.01": 2.89099777762,
			"-0.009": 3.40044344192,
			"-0.008": 3.15801206139,
			"-0.007": 6.24613873061,
			"-0.006": 16.9972255183,
			"-0.005": 30.8800857782,
			"-0.004": 38.531753702,
			"-0.003": 34.5204409801,
			"-0.002": 31.8031800421,
			"-0.001": 32.4023976929,
			"0.0": 31.6142437359,
			"0.001": 31.1957913898,
			"0.002": 56.6624039661,
			"0.003": 65.1830383251,
			"0.004": 53.7950965424,
			"0.005": 31.6652851042,
			"0.006": 11.8378731246,
			"0.007": 5.28601132465,
			"0.008": 2.78997904701,
			"0.009": 1.10146447733,
			"0.01": 0.546057100624,
			"0.011": 0.367254418289,
			"0.012": 0.0134960881779,
			"0.013": 0.0,
			"0.014": 0.0,
			"0.015": 0.0,
			"0.016": 0.0,
			"0.017": 0.0,
			"0.018": 0.0,
			"0.019": 0.0,
			"0.02": 0.0,
			"0.021": 0.0,
			"0.022": 0.0,
			"0.023": 0.0,
			"0.024": 0.0,
			"0.025": 0.0
		}
	}
}
