{
	 "smiles": "CC(C)(C)OC(=O)N1CCC(CC1)C(N)=O", 
	 "Tm": 437.15, 
	 "num_atms": 36, 
	 "gaussian": { 
		 "optdone": 1, 
		 "sigma_profile": "yes", 
		 "theory": "DFT", 
		 "functional": "B3LYP", 
		 "basiset": "6-31G**", 
		 "properties": { 
			 "R2extent": 5551.1212, 
			 "electric_dipole_moment_norm": 4.27877305895, 
			 "electric_quadrupole_moment_norm": 29.5855929067, 
			 "total_energy": -766.463913268, 
			 "HOMO_LUMO_gap": 0.26036, 
			 "cosmo_polarized_energy": -18.34, 
			 "cosmo_cavitation_energy": 36.76, 
			 "cosmo_dispersion_energy": -25.71, 
			 "cosmo_repulsion_energy": 2.05, 
			 "cosmo_total_nonelectrostatic_energy": 13.1, 
			 "SMD_solvation_energy": 7.17 
		},
		"coords": [
			{
				"x": 2.5035881838,
				"y": 1.6241805662,
				"z": 3.2120065067,
				"element": "C" 
			},
			{
				"x": 1.717643621,
				"y": 0.3112615888,
				"z": 3.1246642457,
				"element": "C" 
			},
			{
				"x": 0.5795515686,
				"y": 0.2929910615,
				"z": 4.1491077686,
				"element": "C" 
			},
			{
				"x": 2.6175796303,
				"y": -0.9177097555,
				"z": 3.2934295095,
				"element": "C" 
			},
			{
				"x": 0.9949229142,
				"y": 0.2388961875,
				"z": 1.8460238747,
				"element": "O" 
			},
			{
				"x": 1.6671287113,
				"y": 0.2200161797,
				"z": 0.6676802372,
				"element": "C" 
			},
			{
				"x": 2.8838118943,
				"y": 0.2829999129,
				"z": 0.5492048843,
				"element": "O" 
			},
			{
				"x": 0.8045297095,
				"y": 0.1119822134,
				"z": -0.3943051913,
				"element": "N" 
			},
			{
				"x": 1.3437470094,
				"y": 0.1466541219,
				"z": -1.7505734424,
				"element": "C" 
			},
			{
				"x": 0.7827693803,
				"y": -1.0042934226,
				"z": -2.5922033068,
				"element": "C" 
			},
			{
				"x": -0.7607201025,
				"y": -1.0184735102,
				"z": -2.5706483086,
				"element": "C" 
			},
			{
				"x": -1.2581428591,
				"y": -1.0343440243,
				"z": -1.1122483772,
				"element": "C" 
			},
			{
				"x": -0.6527736633,
				"y": 0.1125269097,
				"z": -0.2933240227,
				"element": "C" 
			},
			{
				"x": -1.2786061287,
				"y": -2.2508259275,
				"z": -3.3147232188,
				"element": "C" 
			},
			{
				"x": -1.9709151254,
				"y": -2.002406466,
				"z": -4.4666877123,
				"element": "N" 
			},
			{
				"x": -1.0781756645,
				"y": -3.3868442998,
				"z": -2.9061472563,
				"element": "O" 
			},
			{
				"x": 3.3008454925,
				"y": 1.6506805955,
				"z": 2.4693097137,
				"element": "H" 
			},
			{
				"x": 1.8366505634,
				"y": 2.476902381,
				"z": 3.0486603262,
				"element": "H" 
			},
			{
				"x": 2.943155546,
				"y": 1.7236051946,
				"z": 4.2099560946,
				"element": "H" 
			},
			{
				"x": -0.0890937851,
				"y": 1.1459360393,
				"z": 3.9994521443,
				"element": "H" 
			},
			{
				"x": 0.9859781749,
				"y": 0.345867516,
				"z": 5.1635029436,
				"element": "H" 
			},
			{
				"x": -0.0070761524,
				"y": -0.6260637003,
				"z": 4.0590757995,
				"element": "H" 
			},
			{
				"x": 3.4182431804,
				"y": -0.9190159155,
				"z": 2.553883688,
				"element": "H" 
			},
			{
				"x": 2.0308538664,
				"y": -1.8353787009,
				"z": 3.1837675974,
				"element": "H" 
			},
			{
				"x": 3.0589603982,
				"y": -0.9148054938,
				"z": 4.2955251458,
				"element": "H" 
			},
			{
				"x": 1.0857455736,
				"y": 1.1102636245,
				"z": -2.2200818223,
				"element": "H" 
			},
			{
				"x": 2.4295650565,
				"y": 0.0921872146,
				"z": -1.6762430819,
				"element": "H" 
			},
			{
				"x": 1.1420379569,
				"y": -1.9616764774,
				"z": -2.2002685445,
				"element": "H" 
			},
			{
				"x": 1.1486930892,
				"y": -0.9123382007,
				"z": -3.6219235666,
				"element": "H" 
			},
			{
				"x": -1.1270106202,
				"y": -0.1033038159,
				"z": -3.059933354,
				"element": "H" 
			},
			{
				"x": -2.3518758907,
				"y": -0.9595488532,
				"z": -1.0822310025,
				"element": "H" 
			},
			{
				"x": -0.9838526023,
				"y": -1.9966063996,
				"z": -0.6680801651,
				"element": "H" 
			},
			{
				"x": -0.9327717757,
				"y": 0.0262484606,
				"z": 0.7543881078,
				"element": "H" 
			},
			{
				"x": -1.040382682,
				"y": 1.0762066461,
				"z": -0.6636211138,
				"element": "H" 
			},
			{
				"x": -2.3049623358,
				"y": -2.7904716347,
				"z": -5.0011117365,
				"element": "H" 
			},
			{
				"x": -2.1228421328,
				"y": -1.0721998158,
				"z": -4.819383364,
				"element": "H" 
			}
		],
		 "valence_orbital": [ 
			{
				"type": "occ",
				"energy": -0.28203,
				"method": "rhf"
			},
			{
				"type": "occ",
				"energy": -0.26834,
				"method": "rhf"
			},
			{
				"type": "occ",
				"energy": -0.2545,
				"method": "rhf"
			},
			{
				"type": "occ",
				"energy": -0.24751,
				"method": "rhf"
			},
			{
				"type": "occ",
				"energy": -0.23177,
				"method": "rhf"
			},
			{
				"type": "unocc",
				"energy": 0.02859,
				"method": "rhf"
			},
			{
				"type": "unocc",
				"energy": 0.0536,
				"method": "rhf"
			},
			{
				"type": "unocc",
				"energy": 0.06916,
				"method": "rhf"
			},
			{
				"type": "unocc",
				"energy": 0.08644,
				"method": "rhf"
			},
			{
				"type": "unocc",
				"energy": 0.10558,
				"method": "rhf"
			}
		],
		"cosmo_sigma_profile": { 
			"-0.025": 0.0,
			"-0.024": 0.0,
			"-0.023": 0.0,
			"-0.022": 0.0,
			"-0.021": 0.0,
			"-0.02": 0.0,
			"-0.019": 0.0,
			"-0.018": 0.0,
			"-0.017": 0.0,
			"-0.016": 0.0,
			"-0.015": 0.121296194234,
			"-0.014": 1.48492788681,
			"-0.013": 2.64562865106,
			"-0.012": 2.33352189457,
			"-0.011": 2.20119978782,
			"-0.01": 2.47652932062,
			"-0.009": 2.50522367812,
			"-0.008": 2.23335537062,
			"-0.007": 2.20228848672,
			"-0.006": 1.8000219874,
			"-0.005": 4.84846675133,
			"-0.004": 28.0646672485,
			"-0.003": 38.2577759406,
			"-0.002": 32.2127961743,
			"-0.001": 27.8677592748,
			"0.0": 32.8862497333,
			"0.001": 28.0944044955,
			"0.002": 11.4796155152,
			"0.003": 8.2848543197,
			"0.004": 8.28868558543,
			"0.005": 6.83409955679,
			"0.006": 4.91070961051,
			"0.007": 2.87569922542,
			"0.008": 3.94336471969,
			"0.009": 3.13413388112,
			"0.01": 2.41449127733,
			"0.011": 2.47001914354,
			"0.012": 3.4110751488,
			"0.013": 4.76921858535,
			"0.014": 7.27413790299,
			"0.015": 2.4279358647,
			"0.016": 0.0210990891345,
			"0.017": 0.0,
			"0.018": 0.0,
			"0.019": 0.0,
			"0.02": 0.0,
			"0.021": 0.0,
			"0.022": 0.0,
			"0.023": 0.0,
			"0.024": 0.0,
			"0.025": 0.0
		}
	}
}
