{
	 "smiles": "CC(=O)N1C(=O)[C@@](O)([C@@H]2[C@@H](Cl)OC3=CC=CC=C23)C2=CC=CC=C12", 
	 "Tm": 406.0, 
	 "num_atms": 38, 
	 "gaussian": { 
		 "optdone": 1, 
		 "sigma_profile": "yes", 
		 "theory": "DFT", 
		 "functional": "B3LYP", 
		 "basiset": "6-31G**", 
		 "properties": { 
			 "R2extent": 7400.4481, 
			 "electric_dipole_moment_norm": 2.9218700108, 
			 "electric_quadrupole_moment_norm": 13.4208017238, 
			 "total_energy": -1510.20268961, 
			 "HOMO_LUMO_gap": 0.17322, 
			 "cosmo_polarized_energy": -17.61, 
			 "cosmo_cavitation_energy": 42.87, 
			 "cosmo_dispersion_energy": -28.83, 
			 "cosmo_repulsion_energy": 2.18, 
			 "cosmo_total_nonelectrostatic_energy": 16.22, 
			 "SMD_solvation_energy": 8.02 
		},
		"coords": [
			{
				"x": 2.8019049522,
				"y": -0.9527394863,
				"z": 2.2989820052,
				"element": "C" 
			},
			{
				"x": 2.3478918796,
				"y": -1.6818210848,
				"z": 1.057507951,
				"element": "C" 
			},
			{
				"x": 2.9847506093,
				"y": -2.5961814646,
				"z": 0.5686860833,
				"element": "O" 
			},
			{
				"x": 1.14291007,
				"y": -1.25383833,
				"z": 0.4418352988,
				"element": "N" 
			},
			{
				"x": 0.2531846717,
				"y": -0.2684115161,
				"z": 0.9422228101,
				"element": "C" 
			},
			{
				"x": 0.3216485152,
				"y": 0.2751637381,
				"z": 2.0198898098,
				"element": "O" 
			},
			{
				"x": -0.8507913169,
				"y": -0.0341234853,
				"z": -0.1258971668,
				"element": "C" 
			},
			{
				"x": -2.148863431,
				"y": -0.0399655543,
				"z": 0.4391024585,
				"element": "O" 
			},
			{
				"x": -0.7314204666,
				"y": 1.3835086531,
				"z": -0.7791191357,
				"element": "C" 
			},
			{
				"x": 0.6470218288,
				"y": 1.6532387651,
				"z": -1.4334655178,
				"element": "C" 
			},
			{
				"x": 0.4243269568,
				"y": 2.5148576303,
				"z": -3.0530402624,
				"element": "Cl" 
			},
			{
				"x": 1.3733529208,
				"y": 2.4712339887,
				"z": -0.557505006,
				"element": "O" 
			},
			{
				"x": 0.4608927592,
				"y": 3.1116732822,
				"z": 0.2668593604,
				"element": "C" 
			},
			{
				"x": 0.7600686773,
				"y": 4.1915962649,
				"z": 1.0810070311,
				"element": "C" 
			},
			{
				"x": -0.2875933514,
				"y": 4.6989385828,
				"z": 1.8590108357,
				"element": "C" 
			},
			{
				"x": -1.5680518262,
				"y": 4.1383265306,
				"z": 1.8066899401,
				"element": "C" 
			},
			{
				"x": -1.8371751952,
				"y": 3.0452403328,
				"z": 0.9743565594,
				"element": "C" 
			},
			{
				"x": -0.8039504899,
				"y": 2.5333680015,
				"z": 0.198214016,
				"element": "C" 
			},
			{
				"x": -0.5800526734,
				"y": -1.1488673964,
				"z": -1.1042471733,
				"element": "C" 
			},
			{
				"x": -1.3174663788,
				"y": -1.532127496,
				"z": -2.2176486954,
				"element": "C" 
			},
			{
				"x": -0.8548516373,
				"y": -2.5954082843,
				"z": -2.9989939046,
				"element": "C" 
			},
			{
				"x": 0.3325329988,
				"y": -3.2468137034,
				"z": -2.6574766981,
				"element": "C" 
			},
			{
				"x": 1.0826683796,
				"y": -2.8746468529,
				"z": -1.5350663097,
				"element": "C" 
			},
			{
				"x": 0.6031845981,
				"y": -1.8183014744,
				"z": -0.7615523781,
				"element": "C" 
			},
			{
				"x": 3.7781214205,
				"y": -1.3587157238,
				"z": 2.5643290289,
				"element": "H" 
			},
			{
				"x": 2.0952627919,
				"y": -1.0931957402,
				"z": 3.1199668684,
				"element": "H" 
			},
			{
				"x": 2.8674859742,
				"y": 0.1248831607,
				"z": 2.1304094481,
				"element": "H" 
			},
			{
				"x": -2.2980040779,
				"y": -0.8949681816,
				"z": 0.8653819887,
				"element": "H" 
			},
			{
				"x": -1.5270971999,
				"y": 1.4141084617,
				"z": -1.5266602276,
				"element": "H" 
			},
			{
				"x": 1.2424460583,
				"y": 0.777229899,
				"z": -1.6781532215,
				"element": "H" 
			},
			{
				"x": 1.7560762469,
				"y": 4.6192132684,
				"z": 1.1040475693,
				"element": "H" 
			},
			{
				"x": -0.0998866521,
				"y": 5.5480520679,
				"z": 2.5095909364,
				"element": "H" 
			},
			{
				"x": -2.361475036,
				"y": 4.5544654057,
				"z": 2.4196852034,
				"element": "H" 
			},
			{
				"x": -2.8233256101,
				"y": 2.595487436,
				"z": 0.9426706026,
				"element": "H" 
			},
			{
				"x": -2.2400436611,
				"y": -1.0155763782,
				"z": -2.4657993704,
				"element": "H" 
			},
			{
				"x": -1.4169086627,
				"y": -2.9124594014,
				"z": -3.8717906801,
				"element": "H" 
			},
			{
				"x": 0.6888959667,
				"y": -4.0683331922,
				"z": -3.2718825296,
				"element": "H" 
			},
			{
				"x": 1.9956293905,
				"y": -3.3852907232,
				"z": -1.2690475281,
				"element": "H" 
			}
		],
		 "valence_orbital": [ 
			{
				"type": "occ",
				"energy": -0.27292,
				"method": "rhf"
			},
			{
				"type": "occ",
				"energy": -0.26816,
				"method": "rhf"
			},
			{
				"type": "occ",
				"energy": -0.25098,
				"method": "rhf"
			},
			{
				"type": "occ",
				"energy": -0.24438,
				"method": "rhf"
			},
			{
				"type": "occ",
				"energy": -0.2285,
				"method": "rhf"
			},
			{
				"type": "unocc",
				"energy": -0.05528,
				"method": "rhf"
			},
			{
				"type": "unocc",
				"energy": -0.03153,
				"method": "rhf"
			},
			{
				"type": "unocc",
				"energy": -0.02188,
				"method": "rhf"
			},
			{
				"type": "unocc",
				"energy": -0.00976,
				"method": "rhf"
			},
			{
				"type": "unocc",
				"energy": 0.00061,
				"method": "rhf"
			}
		],
		"cosmo_sigma_profile": { 
			"-0.025": 0.0,
			"-0.024": 0.0,
			"-0.023": 0.0,
			"-0.022": 0.0,
			"-0.021": 0.0,
			"-0.02": 0.0,
			"-0.019": 0.0,
			"-0.018": 0.425666554995,
			"-0.017": 1.08376148599,
			"-0.016": 1.35864263473,
			"-0.015": 1.04003174473,
			"-0.014": 0.585060317957,
			"-0.013": 0.90170612202,
			"-0.012": 1.07039709332,
			"-0.011": 1.02067001467,
			"-0.01": 0.71542970771,
			"-0.009": 1.62057531253,
			"-0.008": 3.28494379236,
			"-0.007": 9.97425641039,
			"-0.006": 22.6539588669,
			"-0.005": 25.6744801069,
			"-0.004": 26.9146066053,
			"-0.003": 21.9931603201,
			"-0.002": 22.3868426312,
			"-0.001": 20.8279664553,
			"0.0": 18.9682413335,
			"0.001": 19.3149279725,
			"0.002": 25.261068412,
			"0.003": 25.4815121864,
			"0.004": 25.0489272363,
			"0.005": 19.1888234921,
			"0.006": 14.3160471264,
			"0.007": 7.2115356535,
			"0.008": 6.58398602286,
			"0.009": 6.46051860201,
			"0.01": 7.01981518133,
			"0.011": 4.53529842334,
			"0.012": 1.52174285963,
			"0.013": 0.22963409989,
			"0.014": 0.0,
			"0.015": 0.0,
			"0.016": 0.0,
			"0.017": 0.0,
			"0.018": 0.0,
			"0.019": 0.0,
			"0.02": 0.0,
			"0.021": 0.0,
			"0.022": 0.0,
			"0.023": 0.0,
			"0.024": 0.0,
			"0.025": 0.0
		}
	}
}
