{
	 "smiles": "O=C(N=C=S)C1=CC=CC=C1", 
	 "Tm": 403.15, 
	 "num_atms": 16, 
	 "gaussian": { 
		 "optdone": 1, 
		 "sigma_profile": "yes", 
		 "theory": "DFT", 
		 "functional": "B3LYP", 
		 "basiset": "6-31G**", 
		 "properties": { 
			 "R2extent": 3620.9032, 
			 "electric_dipole_moment_norm": 3.6034742319, 
			 "electric_quadrupole_moment_norm": 6.61271652197, 
			 "total_energy": -836.02467768, 
			 "HOMO_LUMO_gap": 0.18475, 
			 "cosmo_polarized_energy": -5.71, 
			 "cosmo_cavitation_energy": 24.18, 
			 "cosmo_dispersion_energy": -17.98, 
			 "cosmo_repulsion_energy": 1.41, 
			 "cosmo_total_nonelectrostatic_energy": 7.61, 
			 "SMD_solvation_energy": 5.33 
		},
		"coords": [
			{
				"x": 3.0197453528,
				"y": -1.0017975086,
				"z": -0.1542778696,
				"element": "O" 
			},
			{
				"x": 2.2637618385,
				"y": -0.0869988226,
				"z": -0.4041340905,
				"element": "C" 
			},
			{
				"x": 2.749440081,
				"y": 1.14807617,
				"z": -0.925319453,
				"element": "N" 
			},
			{
				"x": 3.8130363615,
				"y": 1.6355105331,
				"z": -1.2378281159,
				"element": "C" 
			},
			{
				"x": 5.1294612726,
				"y": 2.3766845067,
				"z": -1.6763007107,
				"element": "S" 
			},
			{
				"x": 0.7954372617,
				"y": -0.123716929,
				"z": -0.2110900625,
				"element": "C" 
			},
			{
				"x": 0.2288728159,
				"y": -1.3025968383,
				"z": 0.2988233257,
				"element": "C" 
			},
			{
				"x": -1.1456062042,
				"y": -1.3835175104,
				"z": 0.4969713482,
				"element": "C" 
			},
			{
				"x": -1.9617049869,
				"y": -0.2903041664,
				"z": 0.1879934702,
				"element": "C" 
			},
			{
				"x": -1.401557913,
				"y": 0.8845068087,
				"z": -0.3196292111,
				"element": "C" 
			},
			{
				"x": -0.0251797088,
				"y": 0.9705309136,
				"z": -0.5199322334,
				"element": "C" 
			},
			{
				"x": 0.8829960152,
				"y": -2.1362602271,
				"z": 0.530567042,
				"element": "H" 
			},
			{
				"x": -1.5836487861,
				"y": -2.2953610715,
				"z": 0.8913392608,
				"element": "H" 
			},
			{
				"x": -3.0348696551,
				"y": -0.3548817838,
				"z": 0.3432401859,
				"element": "H" 
			},
			{
				"x": -2.0367962,
				"y": 1.7318808505,
				"z": -0.5588075187,
				"element": "H" 
			},
			{
				"x": 0.4194124549,
				"y": 1.878345075,
				"z": -0.9136153675,
				"element": "H" 
			}
		],
		 "valence_orbital": [ 
			{
				"type": "occ",
				"energy": -0.30647,
				"method": "rhf"
			},
			{
				"type": "occ",
				"energy": -0.27831,
				"method": "rhf"
			},
			{
				"type": "occ",
				"energy": -0.27056,
				"method": "rhf"
			},
			{
				"type": "occ",
				"energy": -0.27014,
				"method": "rhf"
			},
			{
				"type": "occ",
				"energy": -0.26885,
				"method": "rhf"
			},
			{
				"type": "unocc",
				"energy": -0.0841,
				"method": "rhf"
			},
			{
				"type": "unocc",
				"energy": -0.04435,
				"method": "rhf"
			},
			{
				"type": "unocc",
				"energy": -0.02162,
				"method": "rhf"
			},
			{
				"type": "unocc",
				"energy": -0.01169,
				"method": "rhf"
			},
			{
				"type": "unocc",
				"energy": 0.06613,
				"method": "rhf"
			}
		],
		"cosmo_sigma_profile": { 
			"-0.025": 0.0,
			"-0.024": 0.0,
			"-0.023": 0.0,
			"-0.022": 0.0,
			"-0.021": 0.0,
			"-0.02": 0.0,
			"-0.019": 0.0,
			"-0.018": 0.0,
			"-0.017": 0.0,
			"-0.016": 0.0,
			"-0.015": 0.0,
			"-0.014": 0.0,
			"-0.013": 0.0,
			"-0.012": 0.0,
			"-0.011": 0.0,
			"-0.01": 0.0,
			"-0.009": 0.0,
			"-0.008": 0.0258605927429,
			"-0.007": 4.41432709666,
			"-0.006": 9.8044356828,
			"-0.005": 11.7859196267,
			"-0.004": 11.5964849813,
			"-0.003": 13.8061440727,
			"-0.002": 17.1297561497,
			"-0.001": 21.0845004512,
			"0.0": 22.1866834383,
			"0.001": 19.226641218,
			"0.002": 22.5063363566,
			"0.003": 25.4213779273,
			"0.004": 5.08876441885,
			"0.005": 1.58533125978,
			"0.006": 1.48999075947,
			"0.007": 1.64998951702,
			"0.008": 1.81002562561,
			"0.009": 2.52369923727,
			"0.01": 4.32396702232,
			"0.011": 1.98192862659,
			"0.012": 0.0286519440343,
			"0.013": 0.0,
			"0.014": 0.0,
			"0.015": 0.0,
			"0.016": 0.0,
			"0.017": 0.0,
			"0.018": 0.0,
			"0.019": 0.0,
			"0.02": 0.0,
			"0.021": 0.0,
			"0.022": 0.0,
			"0.023": 0.0,
			"0.024": 0.0,
			"0.025": 0.0
		}
	}
}
