{
	 "smiles": "NNC1=C(Cl)N=CC=N1", 
	 "Tm": 427.15, 
	 "num_atms": 14, 
	 "gaussian": { 
		 "optdone": 1, 
		 "sigma_profile": "yes", 
		 "theory": "DFT", 
		 "functional": "B3LYP", 
		 "basiset": "6-31G**", 
		 "properties": { 
			 "R2extent": 1378.4026, 
			 "electric_dipole_moment_norm": 2.11960326005, 
			 "electric_quadrupole_moment_norm": 5.17172643805, 
			 "total_energy": -834.596082924, 
			 "HOMO_LUMO_gap": 0.17862, 
			 "cosmo_polarized_energy": -8.95, 
			 "cosmo_cavitation_energy": 20.16, 
			 "cosmo_dispersion_energy": -15.52, 
			 "cosmo_repulsion_energy": 1.29, 
			 "cosmo_total_nonelectrostatic_energy": 5.93, 
			 "SMD_solvation_energy": 1.4 
		},
		"coords": [
			{
				"x": -1.974924236,
				"y": -1.8811690511,
				"z": 1.0832568008,
				"element": "N" 
			},
			{
				"x": -1.6220223564,
				"y": -0.5679438975,
				"z": 0.726039399,
				"element": "N" 
			},
			{
				"x": -0.4216217216,
				"y": -0.267104998,
				"z": 0.147939827,
				"element": "C" 
			},
			{
				"x": 0.0100454069,
				"y": 1.0769278256,
				"z": -0.0563640643,
				"element": "C" 
			},
			{
				"x": -1.0257359886,
				"y": 2.4004014919,
				"z": 0.494479971,
				"element": "Cl" 
			},
			{
				"x": 1.1405108931,
				"y": 1.3808106911,
				"z": -0.628184319,
				"element": "N" 
			},
			{
				"x": 1.9244296425,
				"y": 0.3620776863,
				"z": -1.0377303661,
				"element": "C" 
			},
			{
				"x": 1.5276281995,
				"y": -0.9518786201,
				"z": -0.8399924842,
				"element": "C" 
			},
			{
				"x": 0.366458093,
				"y": -1.2723772526,
				"z": -0.2492858731,
				"element": "N" 
			},
			{
				"x": -2.1743138658,
				"y": -2.3924596703,
				"z": 0.2244184367,
				"element": "H" 
			},
			{
				"x": -1.1533797837,
				"y": -2.3348146681,
				"z": 1.4849679354,
				"element": "H" 
			},
			{
				"x": -2.122184425,
				"y": 0.1586849099,
				"z": 1.2146489824,
				"element": "H" 
			},
			{
				"x": 2.8637937974,
				"y": 0.6191865002,
				"z": -1.5168086848,
				"element": "H" 
			},
			{
				"x": 2.1551163448,
				"y": -1.7809409472,
				"z": -1.1590855608,
				"element": "H" 
			}
		],
		 "valence_orbital": [ 
			{
				"type": "occ",
				"energy": -0.3126,
				"method": "rhf"
			},
			{
				"type": "occ",
				"energy": -0.30151,
				"method": "rhf"
			},
			{
				"type": "occ",
				"energy": -0.2804,
				"method": "rhf"
			},
			{
				"type": "occ",
				"energy": -0.26733,
				"method": "rhf"
			},
			{
				"type": "occ",
				"energy": -0.22884,
				"method": "rhf"
			},
			{
				"type": "unocc",
				"energy": -0.05022,
				"method": "rhf"
			},
			{
				"type": "unocc",
				"energy": -0.01573,
				"method": "rhf"
			},
			{
				"type": "unocc",
				"energy": 0.02728,
				"method": "rhf"
			},
			{
				"type": "unocc",
				"energy": 0.08321,
				"method": "rhf"
			},
			{
				"type": "unocc",
				"energy": 0.10419,
				"method": "rhf"
			}
		],
		"cosmo_sigma_profile": { 
			"-0.025": 0.0,
			"-0.024": 0.0,
			"-0.023": 0.0,
			"-0.022": 0.0,
			"-0.021": 0.0,
			"-0.02": 0.0,
			"-0.019": 0.0,
			"-0.018": 0.0,
			"-0.017": 0.0,
			"-0.016": 0.0,
			"-0.015": 0.0,
			"-0.014": 0.0,
			"-0.013": 0.374180456482,
			"-0.012": 0.892344817892,
			"-0.011": 2.37718339957,
			"-0.01": 3.66077083106,
			"-0.009": 2.86638988217,
			"-0.008": 4.35507193806,
			"-0.007": 7.36173887009,
			"-0.006": 6.54962845712,
			"-0.005": 8.24529271397,
			"-0.004": 6.54618456172,
			"-0.003": 8.81862454277,
			"-0.002": 10.9736034038,
			"-0.001": 11.3858270992,
			"0.0": 13.16077109,
			"0.001": 15.6182190082,
			"0.002": 10.3022149154,
			"0.003": 10.3336191711,
			"0.004": 10.3496463326,
			"0.005": 6.12948815209,
			"0.006": 4.18918880721,
			"0.007": 4.31967559472,
			"0.008": 2.60779886218,
			"0.009": 2.0341127096,
			"0.01": 2.34272909514,
			"0.011": 1.99377036119,
			"0.012": 2.29257174142,
			"0.013": 1.49109472858,
			"0.014": 0.752668100102,
			"0.015": 0.577691350014,
			"0.016": 0.539280290918,
			"0.017": 0.0655281037631,
			"0.018": 0.0,
			"0.019": 0.0,
			"0.02": 0.0,
			"0.021": 0.0,
			"0.022": 0.0,
			"0.023": 0.0,
			"0.024": 0.0,
			"0.025": 0.0
		}
	}
}
