{
	 "smiles": "NC(=O)C1CC(=NN1C1=CC=C(F)C=C1)C(O)=O", 
	 "Tm": 493.15, 
	 "num_atms": 28, 
	 "gaussian": { 
		 "optdone": 1, 
		 "sigma_profile": "yes", 
		 "theory": "DFT", 
		 "functional": "B3LYP", 
		 "basiset": "6-31G**", 
		 "properties": { 
			 "R2extent": 5526.0328, 
			 "electric_dipole_moment_norm": 3.68036618287, 
			 "electric_quadrupole_moment_norm": 18.2951321996, 
			 "total_energy": -914.949623739, 
			 "HOMO_LUMO_gap": 0.14681, 
			 "cosmo_polarized_energy": -21.54, 
			 "cosmo_cavitation_energy": 33.65, 
			 "cosmo_dispersion_energy": -23.6, 
			 "cosmo_repulsion_energy": 1.82, 
			 "cosmo_total_nonelectrostatic_energy": 11.86, 
			 "SMD_solvation_energy": 7.54 
		},
		"coords": [
			{
				"x": 0.2905209335,
				"y": -2.8370212658,
				"z": -1.040772942,
				"element": "N" 
			},
			{
				"x": 1.0624781946,
				"y": -2.700694528,
				"z": 0.0729744499,
				"element": "C" 
			},
			{
				"x": 1.6715595555,
				"y": -3.6164673044,
				"z": 0.6029620726,
				"element": "O" 
			},
			{
				"x": 1.2028588329,
				"y": -1.261869972,
				"z": 0.5980432394,
				"element": "C" 
			},
			{
				"x": 2.2575341295,
				"y": -0.4426624944,
				"z": -0.1995058572,
				"element": "C" 
			},
			{
				"x": 1.4740014167,
				"y": 0.8009642523,
				"z": -0.5276793229,
				"element": "C" 
			},
			{
				"x": 0.2387826297,
				"y": 0.756873743,
				"z": -0.1523856988,
				"element": "N" 
			},
			{
				"x": -0.0243599043,
				"y": -0.4427942516,
				"z": 0.4339217393,
				"element": "N" 
			},
			{
				"x": -1.1797869541,
				"y": -0.5986487911,
				"z": 1.2306178608,
				"element": "C" 
			},
			{
				"x": -1.3176760165,
				"y": -1.7288896876,
				"z": 2.0524945695,
				"element": "C" 
			},
			{
				"x": -2.4702022959,
				"y": -1.9020389273,
				"z": 2.819689057,
				"element": "C" 
			},
			{
				"x": -3.4767341465,
				"y": -0.9486425635,
				"z": 2.7606510461,
				"element": "C" 
			},
			{
				"x": -4.5918561692,
				"y": -1.1155816166,
				"z": 3.5018897648,
				"element": "F" 
			},
			{
				"x": -3.3601890771,
				"y": 0.1780096376,
				"z": 1.9525636749,
				"element": "C" 
			},
			{
				"x": -2.2123061818,
				"y": 0.3535149104,
				"z": 1.1867130043,
				"element": "C" 
			},
			{
				"x": 2.0134730993,
				"y": 1.9807919066,
				"z": -1.2413397228,
				"element": "C" 
			},
			{
				"x": 1.1352062876,
				"y": 2.9868745005,
				"z": -1.4475388055,
				"element": "O" 
			},
			{
				"x": 3.165070237,
				"y": 2.0400909696,
				"z": -1.6107677539,
				"element": "O" 
			},
			{
				"x": -0.3371751768,
				"y": -2.1001751363,
				"z": -1.3240892297,
				"element": "H" 
			},
			{
				"x": 0.1339262901,
				"y": -3.7707073487,
				"z": -1.3902902292,
				"element": "H" 
			},
			{
				"x": 1.4677958885,
				"y": -1.3430416946,
				"z": 1.6572469693,
				"element": "H" 
			},
			{
				"x": 3.1566694383,
				"y": -0.2252603496,
				"z": 0.3812723896,
				"element": "H" 
			},
			{
				"x": 2.5800030397,
				"y": -0.9557043379,
				"z": -1.1117656191,
				"element": "H" 
			},
			{
				"x": -0.5384088683,
				"y": -2.4804105513,
				"z": 2.1058192366,
				"element": "H" 
			},
			{
				"x": -2.5868894901,
				"y": -2.7691817293,
				"z": 3.4602576608,
				"element": "H" 
			},
			{
				"x": -4.1629821376,
				"y": 0.9069853624,
				"z": 1.9306267882,
				"element": "H" 
			},
			{
				"x": -2.105981078,
				"y": 1.2278572384,
				"z": 0.5575353485,
				"element": "H" 
			},
			{
				"x": 0.2777675233,
				"y": 2.7269300294,
				"z": -1.0694436905,
				"element": "H" 
			}
		],
		 "valence_orbital": [ 
			{
				"type": "occ",
				"energy": -0.28982,
				"method": "rhf"
			},
			{
				"type": "occ",
				"energy": -0.28257,
				"method": "rhf"
			},
			{
				"type": "occ",
				"energy": -0.27612,
				"method": "rhf"
			},
			{
				"type": "occ",
				"energy": -0.27075,
				"method": "rhf"
			},
			{
				"type": "occ",
				"energy": -0.21994,
				"method": "rhf"
			},
			{
				"type": "unocc",
				"energy": -0.07313,
				"method": "rhf"
			},
			{
				"type": "unocc",
				"energy": -0.02735,
				"method": "rhf"
			},
			{
				"type": "unocc",
				"energy": -0.00133,
				"method": "rhf"
			},
			{
				"type": "unocc",
				"energy": 0.00173,
				"method": "rhf"
			},
			{
				"type": "unocc",
				"energy": 0.05732,
				"method": "rhf"
			}
		],
		"cosmo_sigma_profile": { 
			"-0.025": 0.0,
			"-0.024": 0.0,
			"-0.023": 0.0,
			"-0.022": 0.0,
			"-0.021": 0.0,
			"-0.02": 0.0,
			"-0.019": 0.0,
			"-0.018": 0.0,
			"-0.017": 0.0,
			"-0.016": 0.115298182645,
			"-0.015": 0.725566600136,
			"-0.014": 2.54601192937,
			"-0.013": 2.48039068043,
			"-0.012": 2.47706953383,
			"-0.011": 3.19402810433,
			"-0.01": 3.31056987056,
			"-0.009": 2.71222574408,
			"-0.008": 5.01513386857,
			"-0.007": 16.3304234547,
			"-0.006": 17.4945254497,
			"-0.005": 15.2053174593,
			"-0.004": 18.1341688348,
			"-0.003": 14.5450681841,
			"-0.002": 11.4508516401,
			"-0.001": 11.9096799258,
			"0.0": 14.570550634,
			"0.001": 18.7687325984,
			"0.002": 17.3556935812,
			"0.003": 19.3801396509,
			"0.004": 17.6318591329,
			"0.005": 8.51069204235,
			"0.006": 3.00114640223,
			"0.007": 3.7794242489,
			"0.008": 3.39712576814,
			"0.009": 4.76873741575,
			"0.01": 6.75686346886,
			"0.011": 6.58120230419,
			"0.012": 7.17435025415,
			"0.013": 6.66466192505,
			"0.014": 2.60287242018,
			"0.015": 0.0108503633161,
			"0.016": 0.0,
			"0.017": 0.0,
			"0.018": 0.0,
			"0.019": 0.0,
			"0.02": 0.0,
			"0.021": 0.0,
			"0.022": 0.0,
			"0.023": 0.0,
			"0.024": 0.0,
			"0.025": 0.0
		}
	}
}
