{
	 "smiles": "CCN(CC)S(=O)(=O)C1=C(C)C=CC(N)=C1", 
	 "Tm": 441.15, 
	 "num_atms": 34, 
	 "gaussian": { 
		 "optdone": 1, 
		 "sigma_profile": "yes", 
		 "theory": "DFT", 
		 "functional": "B3LYP", 
		 "basiset": "6-31G**", 
		 "properties": { 
			 "R2extent": 4839.6803, 
			 "electric_dipole_moment_norm": 5.35574546445, 
			 "electric_quadrupole_moment_norm": 23.124989504, 
			 "total_energy": -1088.10088977, 
			 "HOMO_LUMO_gap": 0.18257, 
			 "cosmo_polarized_energy": -16.2, 
			 "cosmo_cavitation_energy": 36.17, 
			 "cosmo_dispersion_energy": -25.52, 
			 "cosmo_repulsion_energy": 1.94, 
			 "cosmo_total_nonelectrostatic_energy": 12.59, 
			 "SMD_solvation_energy": 5.59 
		},
		"coords": [
			{
				"x": -1.3399498523,
				"y": 3.6657158557,
				"z": 1.7736733331,
				"element": "C" 
			},
			{
				"x": -1.233661499,
				"y": 2.3790109342,
				"z": 2.5923942419,
				"element": "C" 
			},
			{
				"x": -1.1535811336,
				"y": 1.1835553755,
				"z": 1.7265977958,
				"element": "N" 
			},
			{
				"x": -2.3190540769,
				"y": 0.8860592231,
				"z": 0.8678757547,
				"element": "C" 
			},
			{
				"x": -3.6632464959,
				"y": 0.7210856984,
				"z": 1.5852651082,
				"element": "C" 
			},
			{
				"x": -0.3986891177,
				"y": -0.1777588883,
				"z": 2.4072477019,
				"element": "S" 
			},
			{
				"x": -1.3969213377,
				"y": -1.1557031441,
				"z": 2.8722718083,
				"element": "O" 
			},
			{
				"x": 0.6042471057,
				"y": 0.3279056425,
				"z": 3.3534076733,
				"element": "O" 
			},
			{
				"x": 0.4309151063,
				"y": -0.9062086026,
				"z": 0.9780453846,
				"element": "C" 
			},
			{
				"x": 1.4856387033,
				"y": -0.2468965727,
				"z": 0.3156841249,
				"element": "C" 
			},
			{
				"x": 1.9968813435,
				"y": 1.1233005947,
				"z": 0.6866517255,
				"element": "C" 
			},
			{
				"x": 2.0626068356,
				"y": -0.9487518628,
				"z": -0.7510152601,
				"element": "C" 
			},
			{
				"x": 1.6399782987,
				"y": -2.2173698958,
				"z": -1.1374362694,
				"element": "C" 
			},
			{
				"x": 0.5960927692,
				"y": -2.8607133011,
				"z": -0.4556572863,
				"element": "C" 
			},
			{
				"x": 0.2048192049,
				"y": -4.1568145076,
				"z": -0.7857884845,
				"element": "N" 
			},
			{
				"x": -0.0051697459,
				"y": -2.1802118118,
				"z": 0.6145382079,
				"element": "C" 
			},
			{
				"x": -0.5048360553,
				"y": 3.7548858332,
				"z": 1.0722736001,
				"element": "H" 
			},
			{
				"x": -1.3143746033,
				"y": 4.5271869044,
				"z": 2.4485782043,
				"element": "H" 
			},
			{
				"x": -2.2728880776,
				"y": 3.7242221527,
				"z": 1.2045550743,
				"element": "H" 
			},
			{
				"x": -0.3230852002,
				"y": 2.3953856596,
				"z": 3.1920373819,
				"element": "H" 
			},
			{
				"x": -2.0791870585,
				"y": 2.3076921274,
				"z": 3.2908456211,
				"element": "H" 
			},
			{
				"x": -2.3797262983,
				"y": 1.692883133,
				"z": 0.1294235063,
				"element": "H" 
			},
			{
				"x": -2.0826825154,
				"y": -0.0200977948,
				"z": 0.302595222,
				"element": "H" 
			},
			{
				"x": -3.9692563073,
				"y": 1.6404746109,
				"z": 2.0941936244,
				"element": "H" 
			},
			{
				"x": -4.4403974255,
				"y": 0.4792382962,
				"z": 0.85224658,
				"element": "H" 
			},
			{
				"x": -3.6127169496,
				"y": -0.0850368755,
				"z": 2.3199774385,
				"element": "H" 
			},
			{
				"x": 2.3286209074,
				"y": 1.1564630107,
				"z": 1.7275761284,
				"element": "H" 
			},
			{
				"x": 1.2132028304,
				"y": 1.8801014921,
				"z": 0.5775759176,
				"element": "H" 
			},
			{
				"x": 2.834812991,
				"y": 1.4006913768,
				"z": 0.0417474601,
				"element": "H" 
			},
			{
				"x": 2.8776127447,
				"y": -0.4807219016,
				"z": -1.2970995648,
				"element": "H" 
			},
			{
				"x": 2.1296445965,
				"y": -2.7190131002,
				"z": -1.968488493,
				"element": "H" 
			},
			{
				"x": -0.7221270057,
				"y": -4.4226386051,
				"z": -0.484599876,
				"element": "H" 
			},
			{
				"x": 0.3969896361,
				"y": -4.4427204865,
				"z": -1.7354774042,
				"element": "H" 
			},
			{
				"x": -0.8073123173,
				"y": -2.6399005707,
				"z": 1.1821840191,
				"element": "H" 
			}
		],
		 "valence_orbital": [ 
			{
				"type": "occ",
				"energy": -0.29396,
				"method": "rhf"
			},
			{
				"type": "occ",
				"energy": -0.28981,
				"method": "rhf"
			},
			{
				"type": "occ",
				"energy": -0.2642,
				"method": "rhf"
			},
			{
				"type": "occ",
				"energy": -0.2389,
				"method": "rhf"
			},
			{
				"type": "occ",
				"energy": -0.20869,
				"method": "rhf"
			},
			{
				"type": "unocc",
				"energy": -0.02612,
				"method": "rhf"
			},
			{
				"type": "unocc",
				"energy": 0.00456,
				"method": "rhf"
			},
			{
				"type": "unocc",
				"energy": 0.06992,
				"method": "rhf"
			},
			{
				"type": "unocc",
				"energy": 0.07344,
				"method": "rhf"
			},
			{
				"type": "unocc",
				"energy": 0.07429,
				"method": "rhf"
			}
		],
		"cosmo_sigma_profile": { 
			"-0.025": 0.0,
			"-0.024": 0.0,
			"-0.023": 0.0,
			"-0.022": 0.0,
			"-0.021": 0.0,
			"-0.02": 0.0,
			"-0.019": 0.0,
			"-0.018": 0.0,
			"-0.017": 0.0,
			"-0.016": 0.0,
			"-0.015": 0.0,
			"-0.014": 0.0,
			"-0.013": 1.11958406148,
			"-0.012": 2.78601986327,
			"-0.011": 3.47305936557,
			"-0.01": 3.57341599601,
			"-0.009": 2.60314058584,
			"-0.008": 2.81733746611,
			"-0.007": 3.63719901712,
			"-0.006": 5.81395839498,
			"-0.005": 9.85896599046,
			"-0.004": 21.8874767244,
			"-0.003": 30.5345670907,
			"-0.002": 28.996283164,
			"-0.001": 27.7293254692,
			"0.0": 29.1035279599,
			"0.001": 22.6192795366,
			"0.002": 14.1003477958,
			"0.003": 13.4558116355,
			"0.004": 14.8326703075,
			"0.005": 8.88750061682,
			"0.006": 4.36798839773,
			"0.007": 3.86271720195,
			"0.008": 3.43478616776,
			"0.009": 4.08461686398,
			"0.01": 6.1662727157,
			"0.011": 6.74950503645,
			"0.012": 5.87812069436,
			"0.013": 0.958999982623,
			"0.014": 0.42051395088,
			"0.015": 0.0246045432855,
			"0.016": 0.0,
			"0.017": 0.0,
			"0.018": 0.0,
			"0.019": 0.0,
			"0.02": 0.0,
			"0.021": 0.0,
			"0.022": 0.0,
			"0.023": 0.0,
			"0.024": 0.0,
			"0.025": 0.0
		}
	}
}
