{
	 "smiles": "CC1=C(CO)N2C=CSC2=N1", 
	 "Tm": 454.15, 
	 "num_atms": 19, 
	 "gaussian": { 
		 "optdone": 1, 
		 "sigma_profile": "yes", 
		 "theory": "DFT", 
		 "functional": "B3LYP", 
		 "basiset": "6-31G**", 
		 "properties": { 
			 "R2extent": 3177.2726, 
			 "electric_dipole_moment_norm": 4.32659251375, 
			 "electric_quadrupole_moment_norm": 14.4532013782, 
			 "total_energy": -854.447137991, 
			 "HOMO_LUMO_gap": 0.20063, 
			 "cosmo_polarized_energy": -13.11, 
			 "cosmo_cavitation_energy": 24.29, 
			 "cosmo_dispersion_energy": -18.7, 
			 "cosmo_repulsion_energy": 1.46, 
			 "cosmo_total_nonelectrostatic_energy": 7.05, 
			 "SMD_solvation_energy": 2.8 
		},
		"coords": [
			{
				"x": -2.1548096052,
				"y": 0.9127021404,
				"z": 2.5223348443,
				"element": "C" 
			},
			{
				"x": -0.7184939472,
				"y": 1.0572508213,
				"z": 2.1259785148,
				"element": "C" 
			},
			{
				"x": -0.0935488699,
				"y": 0.5973901398,
				"z": 0.9788978576,
				"element": "C" 
			},
			{
				"x": -0.5814892343,
				"y": -0.1017878465,
				"z": -0.2382676644,
				"element": "C" 
			},
			{
				"x": 0.2681069767,
				"y": -1.2222079596,
				"z": -0.5088272509,
				"element": "O" 
			},
			{
				"x": 1.2289392562,
				"y": 1.0145877517,
				"z": 1.1078605929,
				"element": "N" 
			},
			{
				"x": 2.4314330372,
				"y": 0.896698112,
				"z": 0.4224624776,
				"element": "C" 
			},
			{
				"x": 3.4485739886,
				"y": 1.5023820082,
				"z": 1.07420266,
				"element": "C" 
			},
			{
				"x": 2.9458613252,
				"y": 2.2360557571,
				"z": 2.6009604254,
				"element": "S" 
			},
			{
				"x": 1.3058682312,
				"y": 1.6845781022,
				"z": 2.3093670762,
				"element": "C" 
			},
			{
				"x": 0.1636445353,
				"y": 1.7383492777,
				"z": 2.9505687149,
				"element": "N" 
			},
			{
				"x": -2.228152987,
				"y": 0.5327783491,
				"z": 3.5461090802,
				"element": "H" 
			},
			{
				"x": -2.6715094036,
				"y": 1.8790971799,
				"z": 2.4984634324,
				"element": "H" 
			},
			{
				"x": -2.6911241175,
				"y": 0.2258331612,
				"z": 1.8618267769,
				"element": "H" 
			},
			{
				"x": -0.5828263209,
				"y": 0.5842641455,
				"z": -1.1031640074,
				"element": "H" 
			},
			{
				"x": -1.62294501,
				"y": -0.4101261672,
				"z": -0.0701251301,
				"element": "H" 
			},
			{
				"x": -0.0054243937,
				"y": -1.6004094451,
				"z": -1.3546625962,
				"element": "H" 
			},
			{
				"x": 2.4666292492,
				"y": 0.3415030936,
				"z": -0.502846373,
				"element": "H" 
			},
			{
				"x": 4.4803672899,
				"y": 1.5576613785,
				"z": 0.761560569,
				"element": "H" 
			}
		],
		 "valence_orbital": [ 
			{
				"type": "occ",
				"energy": -0.31073,
				"method": "rhf"
			},
			{
				"type": "occ",
				"energy": -0.28263,
				"method": "rhf"
			},
			{
				"type": "occ",
				"energy": -0.2682,
				"method": "rhf"
			},
			{
				"type": "occ",
				"energy": -0.22225,
				"method": "rhf"
			},
			{
				"type": "occ",
				"energy": -0.20728,
				"method": "rhf"
			},
			{
				"type": "unocc",
				"energy": -0.00665,
				"method": "rhf"
			},
			{
				"type": "unocc",
				"energy": 0.01695,
				"method": "rhf"
			},
			{
				"type": "unocc",
				"energy": 0.0398,
				"method": "rhf"
			},
			{
				"type": "unocc",
				"energy": 0.0584,
				"method": "rhf"
			},
			{
				"type": "unocc",
				"energy": 0.08191,
				"method": "rhf"
			}
		],
		"cosmo_sigma_profile": { 
			"-0.025": 0.0,
			"-0.024": 0.0,
			"-0.023": 0.0,
			"-0.022": 0.0,
			"-0.021": 0.0,
			"-0.02": 0.0,
			"-0.019": 0.0,
			"-0.018": 0.0,
			"-0.017": 0.0293663775869,
			"-0.016": 0.894024587269,
			"-0.015": 1.0952536891,
			"-0.014": 0.650609005004,
			"-0.013": 1.26318298403,
			"-0.012": 1.05863897156,
			"-0.011": 0.725287012382,
			"-0.01": 1.57895328675,
			"-0.009": 3.3297083565,
			"-0.008": 4.15038360304,
			"-0.007": 4.69430142148,
			"-0.006": 6.83174156228,
			"-0.005": 11.4207869205,
			"-0.004": 13.9609814425,
			"-0.003": 13.4995501373,
			"-0.002": 11.7811242964,
			"-0.001": 13.2629670913,
			"0.0": 19.3984391687,
			"0.001": 16.0485951061,
			"0.002": 14.4572783115,
			"0.003": 13.99714319,
			"0.004": 10.1314305903,
			"0.005": 6.46123433633,
			"0.006": 3.39310132105,
			"0.007": 2.91947079657,
			"0.008": 3.27337712124,
			"0.009": 1.86789502028,
			"0.01": 2.86957062809,
			"0.011": 1.81789069799,
			"0.012": 1.78204619399,
			"0.013": 2.20063445789,
			"0.014": 1.85521514636,
			"0.015": 1.17209378238,
			"0.016": 0.889572625756,
			"0.017": 0.739106017773,
			"0.018": 0.350505157739,
			"0.019": 0.0,
			"0.02": 0.0,
			"0.021": 0.0,
			"0.022": 0.0,
			"0.023": 0.0,
			"0.024": 0.0,
			"0.025": 0.0
		}
	}
}
