{
	 "smiles": "COC1=CC(CC=C)=CC=C1O", 
	 "Tm": 263.65, 
	 "num_atms": 24, 
	 "gaussian": { 
		 "optdone": 1, 
		 "sigma_profile": "yes", 
		 "theory": "DFT", 
		 "functional": "B3LYP", 
		 "basiset": "6-31G**", 
		 "properties": { 
			 "R2extent": 3572.9293, 
			 "electric_dipole_moment_norm": 2.7097537914, 
			 "electric_quadrupole_moment_norm": 11.3667963503, 
			 "total_energy": -538.707913534, 
			 "HOMO_LUMO_gap": 0.2103, 
			 "cosmo_polarized_energy": -7.99, 
			 "cosmo_cavitation_energy": 27.55, 
			 "cosmo_dispersion_energy": -19.58, 
			 "cosmo_repulsion_energy": 1.58, 
			 "cosmo_total_nonelectrostatic_energy": 9.55, 
			 "SMD_solvation_energy": 6.28 
		},
		"coords": [
			{
				"x": 2.1427825162,
				"y": 1.6129481082,
				"z": -0.0597043671,
				"element": "C" 
			},
			{
				"x": 1.9013509686,
				"y": 1.6532054066,
				"z": -1.4570071509,
				"element": "O" 
			},
			{
				"x": 0.8126848353,
				"y": 0.9695296936,
				"z": -1.9488469685,
				"element": "C" 
			},
			{
				"x": -0.0875962517,
				"y": 0.2180652702,
				"z": -1.2014029308,
				"element": "C" 
			},
			{
				"x": -1.1609233713,
				"y": -0.4399725261,
				"z": -1.8292719931,
				"element": "C" 
			},
			{
				"x": -2.1442766565,
				"y": -1.2448444247,
				"z": -1.0072749646,
				"element": "C" 
			},
			{
				"x": -3.272675559,
				"y": -0.4610954262,
				"z": -0.3687741946,
				"element": "C" 
			},
			{
				"x": -3.5025192263,
				"y": 0.845775825,
				"z": -0.4919577956,
				"element": "C" 
			},
			{
				"x": -1.3019006578,
				"y": -0.3186422493,
				"z": -3.212863979,
				"element": "C" 
			},
			{
				"x": -0.3991552912,
				"y": 0.4354940888,
				"z": -3.9697106429,
				"element": "C" 
			},
			{
				"x": 0.6609096695,
				"y": 1.082370276,
				"z": -3.3463729356,
				"element": "C" 
			},
			{
				"x": 1.5486226953,
				"y": 1.8159020488,
				"z": -4.0751459876,
				"element": "O" 
			},
			{
				"x": 3.0358666589,
				"y": 2.2153666418,
				"z": 0.1137864159,
				"element": "H" 
			},
			{
				"x": 2.3246574304,
				"y": 0.5873632963,
				"z": 0.2855132666,
				"element": "H" 
			},
			{
				"x": 1.3028153569,
				"y": 2.0381498526,
				"z": 0.5038174888,
				"element": "H" 
			},
			{
				"x": 0.0295991141,
				"y": 0.1332012084,
				"z": -0.1262155909,
				"element": "H" 
			},
			{
				"x": -1.6092993495,
				"y": -1.7836281728,
				"z": -0.2113415774,
				"element": "H" 
			},
			{
				"x": -2.5859768704,
				"y": -2.0321924599,
				"z": -1.6344141557,
				"element": "H" 
			},
			{
				"x": -3.9483415287,
				"y": -1.0609470545,
				"z": 0.2426470361,
				"element": "H" 
			},
			{
				"x": -2.8618239736,
				"y": 1.485760219,
				"z": -1.0911225622,
				"element": "H" 
			},
			{
				"x": -4.3460852617,
				"y": 1.3166914579,
				"z": 0.0039954308,
				"element": "H" 
			},
			{
				"x": -2.1256394306,
				"y": -0.8200068634,
				"z": -3.7135876604,
				"element": "H" 
			},
			{
				"x": -0.5033589545,
				"y": 0.527609582,
				"z": -5.0458708549,
				"element": "H" 
			},
			{
				"x": 2.1978831376,
				"y": 2.1735962018,
				"z": -3.4503733265,
				"element": "H" 
			}
		],
		 "valence_orbital": [ 
			{
				"type": "occ",
				"energy": -0.32634,
				"method": "rhf"
			},
			{
				"type": "occ",
				"energy": -0.30948,
				"method": "rhf"
			},
			{
				"type": "occ",
				"energy": -0.25103,
				"method": "rhf"
			},
			{
				"type": "occ",
				"energy": -0.23215,
				"method": "rhf"
			},
			{
				"type": "occ",
				"energy": -0.20064,
				"method": "rhf"
			},
			{
				"type": "unocc",
				"energy": 0.00966,
				"method": "rhf"
			},
			{
				"type": "unocc",
				"energy": 0.01888,
				"method": "rhf"
			},
			{
				"type": "unocc",
				"energy": 0.02961,
				"method": "rhf"
			},
			{
				"type": "unocc",
				"energy": 0.07933,
				"method": "rhf"
			},
			{
				"type": "unocc",
				"energy": 0.09461,
				"method": "rhf"
			}
		],
		"cosmo_sigma_profile": { 
			"-0.025": 0.0,
			"-0.024": 0.0,
			"-0.023": 0.0,
			"-0.022": 0.0,
			"-0.021": 0.0,
			"-0.02": 0.0,
			"-0.019": 0.0,
			"-0.018": 0.0,
			"-0.017": 0.0,
			"-0.016": 0.0,
			"-0.015": 0.0,
			"-0.014": 0.362064800661,
			"-0.013": 0.828835980778,
			"-0.012": 0.386319891968,
			"-0.011": 0.389954103587,
			"-0.01": 0.217915776005,
			"-0.009": 0.706778089674,
			"-0.008": 1.03459171877,
			"-0.007": 0.904434159849,
			"-0.006": 6.37062055698,
			"-0.005": 17.6057321733,
			"-0.004": 23.9699723198,
			"-0.003": 24.3498401996,
			"-0.002": 18.3445903906,
			"-0.001": 14.1531214635,
			"0.0": 14.7990218679,
			"0.001": 11.5362005972,
			"0.002": 14.2892034178,
			"0.003": 14.7150872519,
			"0.004": 17.6088192157,
			"0.005": 13.0061856247,
			"0.006": 9.33291800989,
			"0.007": 4.4691171814,
			"0.008": 2.1821769458,
			"0.009": 1.12751696463,
			"0.01": 1.97364428771,
			"0.011": 1.87937297007,
			"0.012": 1.47792897275,
			"0.013": 0.00544115154232,
			"0.014": 0.0,
			"0.015": 0.0,
			"0.016": 0.0,
			"0.017": 0.0,
			"0.018": 0.0,
			"0.019": 0.0,
			"0.02": 0.0,
			"0.021": 0.0,
			"0.022": 0.0,
			"0.023": 0.0,
			"0.024": 0.0,
			"0.025": 0.0
		}
	}
}
