{
	 "smiles": "COC1=C2OC(C(O)=O)=C(C)C2=CC(C)=C1", 
	 "Tm": 513.15, 
	 "num_atms": 28, 
	 "gaussian": { 
		 "optdone": 1, 
		 "sigma_profile": "yes", 
		 "theory": "DFT", 
		 "functional": "B3LYP", 
		 "basiset": "6-31G**", 
		 "properties": { 
			 "R2extent": 4234.8314, 
			 "electric_dipole_moment_norm": 4.44123209256, 
			 "electric_quadrupole_moment_norm": 17.6104468819, 
			 "total_energy": -765.395142058, 
			 "HOMO_LUMO_gap": 0.1586, 
			 "cosmo_polarized_energy": -15.45, 
			 "cosmo_cavitation_energy": 32.09, 
			 "cosmo_dispersion_energy": -23.07, 
			 "cosmo_repulsion_energy": 1.79, 
			 "cosmo_total_nonelectrostatic_energy": 10.8, 
			 "SMD_solvation_energy": 7.69 
		},
		"coords": [
			{
				"x": 3.5719889152,
				"y": 1.5333262304,
				"z": 1.1561400908,
				"element": "C" 
			},
			{
				"x": 2.847383293,
				"y": 0.5317581449,
				"z": 1.8756794973,
				"element": "O" 
			},
			{
				"x": 1.6809198274,
				"y": 0.0488072621,
				"z": 1.3783573579,
				"element": "C" 
			},
			{
				"x": 1.0290548627,
				"y": 0.4423157782,
				"z": 0.1968790259,
				"element": "C" 
			},
			{
				"x": 1.4331808798,
				"y": 1.3918105731,
				"z": -0.7000702978,
				"element": "O" 
			},
			{
				"x": 0.4744276116,
				"y": 1.4303948505,
				"z": -1.6844615485,
				"element": "C" 
			},
			{
				"x": 0.7729198531,
				"y": 2.3766805106,
				"z": -2.7820745291,
				"element": "C" 
			},
			{
				"x": -0.2912801133,
				"y": 2.7364125879,
				"z": -3.5555110078,
				"element": "O" 
			},
			{
				"x": 1.8753587554,
				"y": 2.8091783779,
				"z": -3.0116399507,
				"element": "O" 
			},
			{
				"x": -0.5277731868,
				"y": 0.5202550469,
				"z": -1.455704872,
				"element": "C" 
			},
			{
				"x": -1.7292661044,
				"y": 0.1927524439,
				"z": -2.2930669744,
				"element": "C" 
			},
			{
				"x": -0.1835047794,
				"y": -0.1358966211,
				"z": -0.2161570646,
				"element": "C" 
			},
			{
				"x": -0.7933295484,
				"y": -1.1448121469,
				"z": 0.5470071873,
				"element": "C" 
			},
			{
				"x": -0.1685951692,
				"y": -1.553295517,
				"z": 1.7224675214,
				"element": "C" 
			},
			{
				"x": -0.773705742,
				"y": -2.6321884592,
				"z": 2.5915084733,
				"element": "C" 
			},
			{
				"x": 1.0477121533,
				"y": -0.9549744229,
				"z": 2.1147775649,
				"element": "C" 
			},
			{
				"x": 4.4671628152,
				"y": 1.7229356655,
				"z": 1.7501297899,
				"element": "H" 
			},
			{
				"x": 3.8581259551,
				"y": 1.1857645007,
				"z": 0.159312624,
				"element": "H" 
			},
			{
				"x": 2.9932736623,
				"y": 2.4565115669,
				"z": 1.0591048149,
				"element": "H" 
			},
			{
				"x": -1.1185172014,
				"y": 2.4779337758,
				"z": -3.126523148,
				"element": "H" 
			},
			{
				"x": -1.8942387655,
				"y": -0.8891231478,
				"z": -2.3066716052,
				"element": "H" 
			},
			{
				"x": -1.6119719544,
				"y": 0.5125789059,
				"z": -3.331845293,
				"element": "H" 
			},
			{
				"x": -2.6430292923,
				"y": 0.6470399856,
				"z": -1.8890052791,
				"element": "H" 
			},
			{
				"x": -1.7310432733,
				"y": -1.5932399545,
				"z": 0.2335309985,
				"element": "H" 
			},
			{
				"x": -0.9922218574,
				"y": -2.2573821671,
				"z": 3.5979933022,
				"element": "H" 
			},
			{
				"x": -1.7070721221,
				"y": -3.0096152035,
				"z": 2.165342944,
				"element": "H" 
			},
			{
				"x": -0.0901805023,
				"y": -3.4811424527,
				"z": 2.7062317585,
				"element": "H" 
			},
			{
				"x": 1.5385210281,
				"y": -1.2742861142,
				"z": 3.0294686193,
				"element": "H" 
			}
		],
		 "valence_orbital": [ 
			{
				"type": "occ",
				"energy": -0.31893,
				"method": "rhf"
			},
			{
				"type": "occ",
				"energy": -0.27944,
				"method": "rhf"
			},
			{
				"type": "occ",
				"energy": -0.27597,
				"method": "rhf"
			},
			{
				"type": "occ",
				"energy": -0.23775,
				"method": "rhf"
			},
			{
				"type": "occ",
				"energy": -0.21352,
				"method": "rhf"
			},
			{
				"type": "unocc",
				"energy": -0.05492,
				"method": "rhf"
			},
			{
				"type": "unocc",
				"energy": 0.0072,
				"method": "rhf"
			},
			{
				"type": "unocc",
				"energy": 0.01775,
				"method": "rhf"
			},
			{
				"type": "unocc",
				"energy": 0.05551,
				"method": "rhf"
			},
			{
				"type": "unocc",
				"energy": 0.08113,
				"method": "rhf"
			}
		],
		"cosmo_sigma_profile": { 
			"-0.025": 0.0,
			"-0.024": 0.0,
			"-0.023": 0.0,
			"-0.022": 0.0,
			"-0.021": 0.0,
			"-0.02": 0.0,
			"-0.019": 0.0,
			"-0.018": 0.0821411361732,
			"-0.017": 0.770239433029,
			"-0.016": 0.950559425459,
			"-0.015": 1.27757570536,
			"-0.014": 0.716167571886,
			"-0.013": 0.682481643591,
			"-0.012": 0.963568756995,
			"-0.011": 1.02593457208,
			"-0.01": 0.898505791829,
			"-0.009": 1.00337284987,
			"-0.008": 1.10055795401,
			"-0.007": 1.68324296239,
			"-0.006": 9.76749666277,
			"-0.005": 19.9644854474,
			"-0.004": 24.3261239645,
			"-0.003": 27.0912709975,
			"-0.002": 21.7600116523,
			"-0.001": 19.0470721053,
			"0.0": 21.8500227327,
			"0.001": 15.4174066215,
			"0.002": 12.4989969344,
			"0.003": 12.7190070691,
			"0.004": 12.6744168355,
			"0.005": 9.24480087983,
			"0.006": 4.34826267275,
			"0.007": 3.73048162759,
			"0.008": 5.02413141431,
			"0.009": 4.99432996577,
			"0.01": 6.89371801589,
			"0.011": 6.10364992035,
			"0.012": 5.44622842938,
			"0.013": 1.07235760843,
			"0.014": 0.0,
			"0.015": 0.0,
			"0.016": 0.0,
			"0.017": 0.0,
			"0.018": 0.0,
			"0.019": 0.0,
			"0.02": 0.0,
			"0.021": 0.0,
			"0.022": 0.0,
			"0.023": 0.0,
			"0.024": 0.0,
			"0.025": 0.0
		}
	}
}
