{
	 "smiles": "CC(=O)NCCC1=CC=CC=C1NC(C)=O", 
	 "Tm": 417.15, 
	 "num_atms": 32, 
	 "gaussian": { 
		 "optdone": 1, 
		 "sigma_profile": "yes", 
		 "theory": "DFT", 
		 "functional": "B3LYP", 
		 "basiset": "6-31G**", 
		 "properties": { 
			 "R2extent": 4032.8583, 
			 "electric_dipole_moment_norm": 6.87582104261, 
			 "electric_quadrupole_moment_norm": 24.0908670199, 
			 "total_energy": -726.916131955, 
			 "HOMO_LUMO_gap": 0.21418, 
			 "cosmo_polarized_energy": -19.83, 
			 "cosmo_cavitation_energy": 34.74, 
			 "cosmo_dispersion_energy": -23.35, 
			 "cosmo_repulsion_energy": 1.86, 
			 "cosmo_total_nonelectrostatic_energy": 13.25, 
			 "SMD_solvation_energy": 7.08 
		},
		"coords": [
			{
				"x": -0.9631708574,
				"y": -1.1993851408,
				"z": 4.5461456577,
				"element": "C" 
			},
			{
				"x": -0.0349195506,
				"y": -1.4021237471,
				"z": 3.3613721928,
				"element": "C" 
			},
			{
				"x": 0.8959633208,
				"y": -0.6284115373,
				"z": 3.14049578,
				"element": "O" 
			},
			{
				"x": -0.2975327498,
				"y": -2.4880009327,
				"z": 2.5779010577,
				"element": "N" 
			},
			{
				"x": 0.4885488071,
				"y": -2.7993415981,
				"z": 1.3939844947,
				"element": "C" 
			},
			{
				"x": -0.174672956,
				"y": -2.4107612343,
				"z": 0.0517958604,
				"element": "C" 
			},
			{
				"x": -0.7942567334,
				"y": -1.0290347096,
				"z": -0.039433197,
				"element": "C" 
			},
			{
				"x": -2.1745740521,
				"y": -0.9086845679,
				"z": -0.2515244783,
				"element": "C" 
			},
			{
				"x": -2.7886495118,
				"y": 0.3333588779,
				"z": -0.413182812,
				"element": "C" 
			},
			{
				"x": -2.0201878469,
				"y": 1.4953891765,
				"z": -0.3554647262,
				"element": "C" 
			},
			{
				"x": -0.6491368662,
				"y": 1.400302615,
				"z": -0.1228642563,
				"element": "C" 
			},
			{
				"x": -0.0285649701,
				"y": 0.154270979,
				"z": 0.0300970407,
				"element": "C" 
			},
			{
				"x": 1.3681381503,
				"y": 0.0866648224,
				"z": 0.3070000949,
				"element": "N" 
			},
			{
				"x": 2.4091528869,
				"y": 0.4791674509,
				"z": -0.5070661479,
				"element": "C" 
			},
			{
				"x": 2.0628305458,
				"y": 0.8522081517,
				"z": -1.941847544,
				"element": "C" 
			},
			{
				"x": 3.5596243173,
				"y": 0.5033602838,
				"z": -0.0920015276,
				"element": "O" 
			},
			{
				"x": -1.6827454893,
				"y": -2.0104828168,
				"z": 4.6876659904,
				"element": "H" 
			},
			{
				"x": -0.3573477819,
				"y": -1.0951951049,
				"z": 5.4495522138,
				"element": "H" 
			},
			{
				"x": -1.5080214456,
				"y": -0.261082911,
				"z": 4.4082586129,
				"element": "H" 
			},
			{
				"x": -1.1067456386,
				"y": -3.051804526,
				"z": 2.7893116942,
				"element": "H" 
			},
			{
				"x": 1.4406041121,
				"y": -2.2836928718,
				"z": 1.5128862413,
				"element": "H" 
			},
			{
				"x": 0.6983240567,
				"y": -3.8751211384,
				"z": 1.3815046015,
				"element": "H" 
			},
			{
				"x": -0.9544176323,
				"y": -3.1448889473,
				"z": -0.1830336758,
				"element": "H" 
			},
			{
				"x": 0.5963911896,
				"y": -2.5220667883,
				"z": -0.7214981446,
				"element": "H" 
			},
			{
				"x": -2.7764290661,
				"y": -1.8126019611,
				"z": -0.3095655908,
				"element": "H" 
			},
			{
				"x": -3.8596477697,
				"y": 0.3906823737,
				"z": -0.584793269,
				"element": "H" 
			},
			{
				"x": -2.4843039835,
				"y": 2.4700057093,
				"z": -0.4747590681,
				"element": "H" 
			},
			{
				"x": -0.040829512,
				"y": 2.2956807752,
				"z": -0.0389279646,
				"element": "H" 
			},
			{
				"x": 1.6154761661,
				"y": -0.1149124599,
				"z": 1.2765231076,
				"element": "H" 
			},
			{
				"x": 1.7202253308,
				"y": 1.8910520296,
				"z": -1.9934608951,
				"element": "H" 
			},
			{
				"x": 1.2727778788,
				"y": 0.2246425357,
				"z": -2.3627040816,
				"element": "H" 
			},
			{
				"x": 2.9720976511,
				"y": 0.7625072127,
				"z": -2.5368672617,
				"element": "H" 
			}
		],
		 "valence_orbital": [ 
			{
				"type": "occ",
				"energy": -0.26158,
				"method": "rhf"
			},
			{
				"type": "occ",
				"energy": -0.25862,
				"method": "rhf"
			},
			{
				"type": "occ",
				"energy": -0.25048,
				"method": "rhf"
			},
			{
				"type": "occ",
				"energy": -0.2319,
				"method": "rhf"
			},
			{
				"type": "occ",
				"energy": -0.22707,
				"method": "rhf"
			},
			{
				"type": "unocc",
				"energy": -0.01289,
				"method": "rhf"
			},
			{
				"type": "unocc",
				"energy": -0.00776,
				"method": "rhf"
			},
			{
				"type": "unocc",
				"energy": 0.02053,
				"method": "rhf"
			},
			{
				"type": "unocc",
				"energy": 0.04548,
				"method": "rhf"
			},
			{
				"type": "unocc",
				"energy": 0.06251,
				"method": "rhf"
			}
		],
		"cosmo_sigma_profile": { 
			"-0.025": 0.0,
			"-0.024": 0.0,
			"-0.023": 0.0,
			"-0.022": 0.0,
			"-0.021": 0.0,
			"-0.02": 0.0,
			"-0.019": 0.0,
			"-0.018": 0.0,
			"-0.017": 0.0,
			"-0.016": 0.0,
			"-0.015": 0.0492205956246,
			"-0.014": 1.20529623892,
			"-0.013": 1.2884712241,
			"-0.012": 1.49771835186,
			"-0.011": 1.43791564523,
			"-0.01": 1.29234035395,
			"-0.009": 1.45995292251,
			"-0.008": 1.48422404295,
			"-0.007": 2.10709586761,
			"-0.006": 11.0115529717,
			"-0.005": 25.5660999395,
			"-0.004": 26.8270285368,
			"-0.003": 28.2168720005,
			"-0.002": 27.2128795928,
			"-0.001": 27.83219104,
			"0.0": 18.2735793093,
			"0.001": 13.2614843092,
			"0.002": 11.4841098863,
			"0.003": 12.2058443053,
			"0.004": 11.2368923018,
			"0.005": 12.4798879744,
			"0.006": 4.08960773666,
			"0.007": 2.13057507437,
			"0.008": 3.22280425806,
			"0.009": 2.35058730509,
			"0.01": 2.28844394143,
			"0.011": 2.90856940324,
			"0.012": 3.04102284838,
			"0.013": 4.55806047136,
			"0.014": 7.68132317233,
			"0.015": 3.86114810369,
			"0.016": 0.152451996085,
			"0.017": 0.0,
			"0.018": 0.0,
			"0.019": 0.0,
			"0.02": 0.0,
			"0.021": 0.0,
			"0.022": 0.0,
			"0.023": 0.0,
			"0.024": 0.0,
			"0.025": 0.0
		}
	}
}
