{
	 "smiles": "NC(=S)C1=C(Br)C=CC=C1", 
	 "Tm": 357.15, 
	 "num_atms": 16, 
	 "gaussian": { 
		 "optdone": 1, 
		 "sigma_profile": "yes", 
		 "theory": "DFT", 
		 "functional": "B3LYP", 
		 "basiset": "6-31G**", 
		 "properties": { 
			 "R2extent": 2510.4866, 
			 "electric_dipole_moment_norm": 4.0028618125, 
			 "electric_quadrupole_moment_norm": 11.0962624122, 
			 "total_energy": -3294.70716043, 
			 "HOMO_LUMO_gap": 0.15006, 
			 "cosmo_polarized_energy": -12.99, 
			 "cosmo_cavitation_energy": 23.9, 
			 "cosmo_dispersion_energy": -18.43, 
			 "cosmo_repulsion_energy": 1.45, 
			 "cosmo_total_nonelectrostatic_energy": 6.92, 
			 "SMD_solvation_energy": 2.14 
		},
		"coords": [
			{
				"x": 1.333131272,
				"y": -1.47718512,
				"z": -0.0795683979,
				"element": "N" 
			},
			{
				"x": 1.0939401871,
				"y": -0.1550555917,
				"z": -0.1607292932,
				"element": "C" 
			},
			{
				"x": 2.237873478,
				"y": 0.9177651261,
				"z": -0.7276727288,
				"element": "S" 
			},
			{
				"x": -0.241914721,
				"y": 0.305685801,
				"z": 0.340001075,
				"element": "C" 
			},
			{
				"x": -1.4832418371,
				"y": -0.2610460807,
				"z": -0.0021401351,
				"element": "C" 
			},
			{
				"x": -1.6515531684,
				"y": -1.717774508,
				"z": -1.2475967163,
				"element": "Br" 
			},
			{
				"x": -2.6808051273,
				"y": 0.240541373,
				"z": 0.5102756168,
				"element": "C" 
			},
			{
				"x": -2.6624626175,
				"y": 1.3166714113,
				"z": 1.3939442512,
				"element": "C" 
			},
			{
				"x": -1.445574312,
				"y": 1.9004926415,
				"z": 1.7490453007,
				"element": "C" 
			},
			{
				"x": -0.2603871273,
				"y": 1.4051870756,
				"z": 1.2184514673,
				"element": "C" 
			},
			{
				"x": 2.1926316707,
				"y": -1.8302170595,
				"z": -0.4757420021,
				"element": "H" 
			},
			{
				"x": 0.6066749745,
				"y": -2.13493935,
				"z": 0.163476195,
				"element": "H" 
			},
			{
				"x": -3.6187023288,
				"y": -0.2109897875,
				"z": 0.2085568198,
				"element": "H" 
			},
			{
				"x": -3.5974082012,
				"y": 1.6980243455,
				"z": 1.7930852916,
				"element": "H" 
			},
			{
				"x": -1.4188047217,
				"y": 2.7437275769,
				"z": 2.4318978266,
				"element": "H" 
			},
			{
				"x": 0.6900025799,
				"y": 1.8630121465,
				"z": 1.4687154295,
				"element": "H" 
			}
		],
		 "valence_orbital": [ 
			{
				"type": "occ",
				"energy": -0.30127,
				"method": "rhf"
			},
			{
				"type": "occ",
				"energy": -0.27563,
				"method": "rhf"
			},
			{
				"type": "occ",
				"energy": -0.25699,
				"method": "rhf"
			},
			{
				"type": "occ",
				"energy": -0.23276,
				"method": "rhf"
			},
			{
				"type": "occ",
				"energy": -0.21031,
				"method": "rhf"
			},
			{
				"type": "unocc",
				"energy": -0.06025,
				"method": "rhf"
			},
			{
				"type": "unocc",
				"energy": -0.02465,
				"method": "rhf"
			},
			{
				"type": "unocc",
				"energy": -0.0103,
				"method": "rhf"
			},
			{
				"type": "unocc",
				"energy": 0.00154,
				"method": "rhf"
			},
			{
				"type": "unocc",
				"energy": 0.07906,
				"method": "rhf"
			}
		],
		"cosmo_sigma_profile": { 
			"-0.025": 0.0,
			"-0.024": 0.0,
			"-0.023": 0.0,
			"-0.022": 0.0,
			"-0.021": 0.0,
			"-0.02": 0.0,
			"-0.019": 0.0,
			"-0.018": 0.0,
			"-0.017": 0.0,
			"-0.016": 0.0549846293901,
			"-0.015": 1.03348673378,
			"-0.014": 2.49095098274,
			"-0.013": 2.03902443216,
			"-0.012": 2.11860736815,
			"-0.011": 2.42725933236,
			"-0.01": 2.18229703125,
			"-0.009": 1.3646421224,
			"-0.008": 1.83568481878,
			"-0.007": 6.93919792371,
			"-0.006": 10.1933747891,
			"-0.005": 10.8272103213,
			"-0.004": 9.14180156948,
			"-0.003": 9.25611456699,
			"-0.002": 8.86828525767,
			"-0.001": 11.9158652031,
			"0.0": 13.7860088336,
			"0.001": 16.1092732447,
			"0.002": 19.1485207048,
			"0.003": 20.5057877617,
			"0.004": 11.6663779067,
			"0.005": 3.31271986083,
			"0.006": 4.60315100592,
			"0.007": 5.37061528072,
			"0.008": 6.46220867506,
			"0.009": 5.58412415062,
			"0.01": 4.27991753642,
			"0.011": 2.88595312907,
			"0.012": 1.14260172243,
			"0.013": 0.0,
			"0.014": 0.0,
			"0.015": 0.0,
			"0.016": 0.0,
			"0.017": 0.0,
			"0.018": 0.0,
			"0.019": 0.0,
			"0.02": 0.0,
			"0.021": 0.0,
			"0.022": 0.0,
			"0.023": 0.0,
			"0.024": 0.0,
			"0.025": 0.0
		}
	}
}
