{
	 "smiles": "OC(=O)C1=C(F)C(=CC=C1)C(F)(F)F", 
	 "Tm": 400.15, 
	 "num_atms": 18, 
	 "gaussian": { 
		 "optdone": 1, 
		 "sigma_profile": "yes", 
		 "theory": "DFT", 
		 "functional": "B3LYP", 
		 "basiset": "6-31G**", 
		 "properties": { 
			 "R2extent": 2854.9162, 
			 "electric_dipole_moment_norm": 1.6804754119, 
			 "electric_quadrupole_moment_norm": 14.1994887581, 
			 "total_energy": -857.082069549, 
			 "HOMO_LUMO_gap": 0.2059, 
			 "cosmo_polarized_energy": -9.25, 
			 "cosmo_cavitation_energy": 24.94, 
			 "cosmo_dispersion_energy": -17.91, 
			 "cosmo_repulsion_energy": 1.33, 
			 "cosmo_total_nonelectrostatic_energy": 8.36, 
			 "SMD_solvation_energy": 7.12 
		},
		"coords": [
			{
				"x": -0.884531833,
				"y": 0.9336992058,
				"z": -3.1104700341,
				"element": "O" 
			},
			{
				"x": -1.3843607285,
				"y": 1.4512295017,
				"z": -1.9707329239,
				"element": "C" 
			},
			{
				"x": -2.1210475165,
				"y": 2.4179837905,
				"z": -1.9615106533,
				"element": "O" 
			},
			{
				"x": -0.9583841102,
				"y": 0.7395376626,
				"z": -0.7297769316,
				"element": "C" 
			},
			{
				"x": -0.1146348828,
				"y": -0.3765004238,
				"z": -0.6834921996,
				"element": "C" 
			},
			{
				"x": 0.3902334336,
				"y": -0.9047100318,
				"z": -1.8040953031,
				"element": "F" 
			},
			{
				"x": 0.2324056964,
				"y": -0.9814312546,
				"z": 0.5295207365,
				"element": "C" 
			},
			{
				"x": -0.2736771434,
				"y": -0.4602233597,
				"z": 1.7195339964,
				"element": "C" 
			},
			{
				"x": -1.1170557347,
				"y": 0.6523864831,
				"z": 1.6992310683,
				"element": "C" 
			},
			{
				"x": -1.4519339057,
				"y": 1.2407544799,
				"z": 0.4866938388,
				"element": "C" 
			},
			{
				"x": 1.1450459421,
				"y": -2.1820410417,
				"z": 0.524987686,
				"element": "C" 
			},
			{
				"x": 0.6204677222,
				"y": -3.2045910842,
				"z": -0.1804699716,
				"element": "F" 
			},
			{
				"x": 1.3681522094,
				"y": -2.6310399836,
				"z": 1.7800717388,
				"element": "F" 
			},
			{
				"x": 2.3452952462,
				"y": -1.8939495815,
				"z": -0.0181933161,
				"element": "F" 
			},
			{
				"x": -1.2394441485,
				"y": 1.4874918944,
				"z": -3.8264589182,
				"element": "H" 
			},
			{
				"x": -0.0018499903,
				"y": -0.9322161369,
				"z": 2.6565697079,
				"element": "H" 
			},
			{
				"x": -1.508270627,
				"y": 1.0541572314,
				"z": 2.6277028705,
				"element": "H" 
			},
			{
				"x": -2.1046096291,
				"y": 2.1054626484,
				"z": 0.4378886084,
				"element": "H" 
			}
		],
		 "valence_orbital": [ 
			{
				"type": "occ",
				"energy": -0.36509,
				"method": "rhf"
			},
			{
				"type": "occ",
				"energy": -0.33061,
				"method": "rhf"
			},
			{
				"type": "occ",
				"energy": -0.29232,
				"method": "rhf"
			},
			{
				"type": "occ",
				"energy": -0.28844,
				"method": "rhf"
			},
			{
				"type": "occ",
				"energy": -0.27378,
				"method": "rhf"
			},
			{
				"type": "unocc",
				"energy": -0.06788,
				"method": "rhf"
			},
			{
				"type": "unocc",
				"energy": -0.0362,
				"method": "rhf"
			},
			{
				"type": "unocc",
				"energy": 0.03389,
				"method": "rhf"
			},
			{
				"type": "unocc",
				"energy": 0.07015,
				"method": "rhf"
			},
			{
				"type": "unocc",
				"energy": 0.08181,
				"method": "rhf"
			}
		],
		"cosmo_sigma_profile": { 
			"-0.025": 0.0,
			"-0.024": 0.0,
			"-0.023": 0.0,
			"-0.022": 0.0,
			"-0.021": 0.0,
			"-0.02": 0.0,
			"-0.019": 0.159747575857,
			"-0.018": 1.03095490434,
			"-0.017": 0.718030809447,
			"-0.016": 1.12924464246,
			"-0.015": 0.777115472094,
			"-0.014": 0.894755178415,
			"-0.013": 0.511745698428,
			"-0.012": 0.198162217501,
			"-0.011": 1.15901899917,
			"-0.01": 0.598273790511,
			"-0.009": 0.671024121976,
			"-0.008": 3.56873973393,
			"-0.007": 6.03526415808,
			"-0.006": 6.88676683112,
			"-0.005": 5.70283299721,
			"-0.004": 9.0315801996,
			"-0.003": 12.5222191066,
			"-0.002": 14.6047959247,
			"-0.001": 16.9117873486,
			"0.0": 15.7267960704,
			"0.001": 16.9374139966,
			"0.002": 31.0252996999,
			"0.003": 26.7768359668,
			"0.004": 3.96212939648,
			"0.005": 3.44568690468,
			"0.006": 3.26217915913,
			"0.007": 2.32201346414,
			"0.008": 3.68622947521,
			"0.009": 2.58563031805,
			"0.01": 2.19155845009,
			"0.011": 4.69775807023,
			"0.012": 1.34192110318,
			"0.013": 0.0,
			"0.014": 0.0,
			"0.015": 0.0,
			"0.016": 0.0,
			"0.017": 0.0,
			"0.018": 0.0,
			"0.019": 0.0,
			"0.02": 0.0,
			"0.021": 0.0,
			"0.022": 0.0,
			"0.023": 0.0,
			"0.024": 0.0,
			"0.025": 0.0
		}
	}
}
