{
	 "smiles": "CCS(N)(=O)=O", 
	 "Tm": 333.15, 
	 "num_atms": 13, 
	 "gaussian": { 
		 "optdone": 1, 
		 "sigma_profile": "yes", 
		 "theory": "DFT", 
		 "functional": "B3LYP", 
		 "basiset": "6-31G**", 
		 "properties": { 
			 "R2extent": 709.5046, 
			 "electric_dipole_moment_norm": 3.47281139569, 
			 "electric_quadrupole_moment_norm": 9.81520758925, 
			 "total_energy": -683.760851, 
			 "HOMO_LUMO_gap": 0.34308, 
			 "cosmo_polarized_energy": -13.97, 
			 "cosmo_cavitation_energy": 17.48, 
			 "cosmo_dispersion_energy": -13.78, 
			 "cosmo_repulsion_energy": 1.15, 
			 "cosmo_total_nonelectrostatic_energy": 4.85, 
			 "SMD_solvation_energy": 2.86 
		},
		"coords": [
			{
				"x": 1.9330945877,
				"y": -0.6741042891,
				"z": 0.7272467188,
				"element": "C" 
			},
			{
				"x": 1.0018566565,
				"y": 0.5312197489,
				"z": 0.784473054,
				"element": "C" 
			},
			{
				"x": -0.1548638197,
				"y": 0.6120019528,
				"z": -0.604990489,
				"element": "S" 
			},
			{
				"x": -1.0926662733,
				"y": -0.788749913,
				"z": -0.3806214128,
				"element": "N" 
			},
			{
				"x": 0.6010112378,
				"y": 0.431044961,
				"z": -1.8492284772,
				"element": "O" 
			},
			{
				"x": -1.0238124917,
				"y": 1.7734971513,
				"z": -0.3896609686,
				"element": "O" 
			},
			{
				"x": 2.5125505473,
				"y": -0.6727597262,
				"z": -0.1988191457,
				"element": "H" 
			},
			{
				"x": 1.3670850361,
				"y": -1.6071564357,
				"z": 0.7881065117,
				"element": "H" 
			},
			{
				"x": 2.6280275264,
				"y": -0.6386809024,
				"z": 1.571448001,
				"element": "H" 
			},
			{
				"x": 0.3835039662,
				"y": 0.5474103796,
				"z": 1.6856700112,
				"element": "H" 
			},
			{
				"x": 1.5468615011,
				"y": 1.478428825,
				"z": 0.7256476295,
				"element": "H" 
			},
			{
				"x": -2.0552815082,
				"y": -0.5165691886,
				"z": -0.1975273861,
				"element": "H" 
			},
			{
				"x": -1.0322669661,
				"y": -1.3610825637,
				"z": -1.2188440468,
				"element": "H" 
			}
		],
		 "valence_orbital": [ 
			{
				"type": "occ",
				"energy": -0.35384,
				"method": "rhf"
			},
			{
				"type": "occ",
				"energy": -0.3162,
				"method": "rhf"
			},
			{
				"type": "occ",
				"energy": -0.31277,
				"method": "rhf"
			},
			{
				"type": "occ",
				"energy": -0.30098,
				"method": "rhf"
			},
			{
				"type": "occ",
				"energy": -0.29096,
				"method": "rhf"
			},
			{
				"type": "unocc",
				"energy": 0.05212,
				"method": "rhf"
			},
			{
				"type": "unocc",
				"energy": 0.07968,
				"method": "rhf"
			},
			{
				"type": "unocc",
				"energy": 0.08191,
				"method": "rhf"
			},
			{
				"type": "unocc",
				"energy": 0.09803,
				"method": "rhf"
			},
			{
				"type": "unocc",
				"energy": 0.10583,
				"method": "rhf"
			}
		],
		"cosmo_sigma_profile": { 
			"-0.025": 0.0,
			"-0.024": 0.0,
			"-0.023": 0.0,
			"-0.022": 0.0,
			"-0.021": 0.0,
			"-0.02": 0.0,
			"-0.019": 0.0,
			"-0.018": 0.0,
			"-0.017": 0.0,
			"-0.016": 0.0,
			"-0.015": 0.445392497256,
			"-0.014": 2.77297265992,
			"-0.013": 1.73601751426,
			"-0.012": 2.54113748321,
			"-0.011": 2.30710764372,
			"-0.01": 2.37356727621,
			"-0.009": 1.90076923631,
			"-0.008": 4.63871530675,
			"-0.007": 5.55463943605,
			"-0.006": 5.2268019407,
			"-0.005": 8.42620619525,
			"-0.004": 11.0785096498,
			"-0.003": 9.02925712195,
			"-0.002": 9.81623625424,
			"-0.001": 9.9075731708,
			"0.0": 6.88190684997,
			"0.001": 3.47531446306,
			"0.002": 2.72165774009,
			"0.003": 3.02306880032,
			"0.004": 3.00885659786,
			"0.005": 2.4457673137,
			"0.006": 3.07377442403,
			"0.007": 2.75977980533,
			"0.008": 3.02021333684,
			"0.009": 3.67983887249,
			"0.01": 5.313368311,
			"0.011": 11.1234396913,
			"0.012": 8.15606472322,
			"0.013": 0.320780459325,
			"0.014": 0.0,
			"0.015": 0.0,
			"0.016": 0.0,
			"0.017": 0.0,
			"0.018": 0.0,
			"0.019": 0.0,
			"0.02": 0.0,
			"0.021": 0.0,
			"0.022": 0.0,
			"0.023": 0.0,
			"0.024": 0.0,
			"0.025": 0.0
		}
	}
}
