{
	 "smiles": "CCOC1=NC2=C(C=CC=C2)C(=O)N1CCO", 
	 "Tm": 354.65, 
	 "num_atms": 31, 
	 "gaussian": { 
		 "optdone": 1, 
		 "sigma_profile": "yes", 
		 "theory": "DFT", 
		 "functional": "B3LYP", 
		 "basiset": "6-31G**", 
		 "properties": { 
			 "R2extent": 5022.6167, 
			 "electric_dipole_moment_norm": 3.31175865667, 
			 "electric_quadrupole_moment_norm": 11.1478523219, 
			 "total_energy": -800.915401617, 
			 "HOMO_LUMO_gap": 0.18237, 
			 "cosmo_polarized_energy": -13.75, 
			 "cosmo_cavitation_energy": 34.66, 
			 "cosmo_dispersion_energy": -24.74, 
			 "cosmo_repulsion_energy": 1.95, 
			 "cosmo_total_nonelectrostatic_energy": 11.87, 
			 "SMD_solvation_energy": 5.63 
		},
		"coords": [
			{
				"x": -2.0548082264,
				"y": -2.3401419027,
				"z": 3.6833419361,
				"element": "C" 
			},
			{
				"x": -0.906584634,
				"y": -2.1826339831,
				"z": 2.7051816424,
				"element": "C" 
			},
			{
				"x": -1.451338266,
				"y": -1.5893207104,
				"z": 1.5035149511,
				"element": "O" 
			},
			{
				"x": -0.5956917011,
				"y": -1.3654115305,
				"z": 0.494713378,
				"element": "C" 
			},
			{
				"x": 0.6609996708,
				"y": -1.6485577151,
				"z": 0.6012592103,
				"element": "N" 
			},
			{
				"x": 1.4701633864,
				"y": -1.3748379741,
				"z": -0.488612997,
				"element": "C" 
			},
			{
				"x": 0.9634951423,
				"y": -0.7933562385,
				"z": -1.6718806045,
				"element": "C" 
			},
			{
				"x": 1.8142663467,
				"y": -0.5216216712,
				"z": -2.7560531129,
				"element": "C" 
			},
			{
				"x": 3.1631066058,
				"y": -0.8283532854,
				"z": -2.6714134648,
				"element": "C" 
			},
			{
				"x": 3.6736413541,
				"y": -1.4083399019,
				"z": -1.4953876191,
				"element": "C" 
			},
			{
				"x": 2.8443532341,
				"y": -1.6784288583,
				"z": -0.4176232703,
				"element": "C" 
			},
			{
				"x": -0.4621793037,
				"y": -0.4682203541,
				"z": -1.7612386295,
				"element": "C" 
			},
			{
				"x": -1.0102137571,
				"y": 0.0570321747,
				"z": -2.7229810548,
				"element": "O" 
			},
			{
				"x": -1.2141523376,
				"y": -0.8166615339,
				"z": -0.6133141939,
				"element": "N" 
			},
			{
				"x": -2.6609368288,
				"y": -0.5517773871,
				"z": -0.6438503209,
				"element": "C" 
			},
			{
				"x": -2.9955080212,
				"y": 0.8496289568,
				"z": -0.1351009364,
				"element": "C" 
			},
			{
				"x": -4.4113649781,
				"y": 0.9546372986,
				"z": -0.1649526718,
				"element": "O" 
			},
			{
				"x": -2.5036502123,
				"y": -1.3716342097,
				"z": 3.9214874205,
				"element": "H" 
			},
			{
				"x": -1.6865721917,
				"y": -2.7867195002,
				"z": 4.6120445507,
				"element": "H" 
			},
			{
				"x": -2.833244246,
				"y": -2.9902316511,
				"z": 3.2739732974,
				"element": "H" 
			},
			{
				"x": -0.1170563538,
				"y": -1.5316202889,
				"z": 3.0919201677,
				"element": "H" 
			},
			{
				"x": -0.4461034612,
				"y": -3.140762332,
				"z": 2.4469533475,
				"element": "H" 
			},
			{
				"x": 1.3835842692,
				"y": -0.0728114895,
				"z": -3.6450627458,
				"element": "H" 
			},
			{
				"x": 3.8246114995,
				"y": -0.622343905,
				"z": -3.5071739405,
				"element": "H" 
			},
			{
				"x": 4.7315539506,
				"y": -1.6474739348,
				"z": -1.4300384384,
				"element": "H" 
			},
			{
				"x": 3.2251097903,
				"y": -2.1239885586,
				"z": 0.4955331929,
				"element": "H" 
			},
			{
				"x": -2.9796396651,
				"y": -0.643060295,
				"z": -1.6820052651,
				"element": "H" 
			},
			{
				"x": -3.1703513577,
				"y": -1.2975276632,
				"z": -0.0352845466,
				"element": "H" 
			},
			{
				"x": -2.5990748184,
				"y": 0.9754923957,
				"z": 0.8844797829,
				"element": "H" 
			},
			{
				"x": -2.5127019496,
				"y": 1.5902847877,
				"z": -0.7878567591,
				"element": "H" 
			},
			{
				"x": -4.6500129397,
				"y": 1.8733612607,
				"z": 0.0055276942,
				"element": "H" 
			}
		],
		 "valence_orbital": [ 
			{
				"type": "occ",
				"energy": -0.27741,
				"method": "rhf"
			},
			{
				"type": "occ",
				"energy": -0.2709,
				"method": "rhf"
			},
			{
				"type": "occ",
				"energy": -0.26101,
				"method": "rhf"
			},
			{
				"type": "occ",
				"energy": -0.25488,
				"method": "rhf"
			},
			{
				"type": "occ",
				"energy": -0.21955,
				"method": "rhf"
			},
			{
				"type": "unocc",
				"energy": -0.03718,
				"method": "rhf"
			},
			{
				"type": "unocc",
				"energy": -0.0176,
				"method": "rhf"
			},
			{
				"type": "unocc",
				"energy": 0.03832,
				"method": "rhf"
			},
			{
				"type": "unocc",
				"energy": 0.07077,
				"method": "rhf"
			},
			{
				"type": "unocc",
				"energy": 0.0807,
				"method": "rhf"
			}
		],
		"cosmo_sigma_profile": { 
			"-0.025": 0.0,
			"-0.024": 0.0,
			"-0.023": 0.0,
			"-0.022": 0.0,
			"-0.021": 0.0,
			"-0.02": 0.0,
			"-0.019": 0.0,
			"-0.018": 0.0,
			"-0.017": 0.0,
			"-0.016": 1.02200617561,
			"-0.015": 0.786026077431,
			"-0.014": 1.35399584505,
			"-0.013": 0.491019291566,
			"-0.012": 1.19099422444,
			"-0.011": 1.02022876028,
			"-0.01": 0.511355391744,
			"-0.009": 0.629561625361,
			"-0.008": 1.03497526957,
			"-0.007": 2.0198532075,
			"-0.006": 7.47826563803,
			"-0.005": 16.5202460944,
			"-0.004": 33.5610386106,
			"-0.003": 30.2024295292,
			"-0.002": 27.9617626498,
			"-0.001": 20.1481588254,
			"0.0": 19.2340585534,
			"0.001": 14.7544140941,
			"0.002": 17.5816857265,
			"0.003": 18.8782279686,
			"0.004": 16.9451751749,
			"0.005": 6.04850468125,
			"0.006": 4.46980997329,
			"0.007": 4.58577873303,
			"0.008": 3.95795005241,
			"0.009": 3.25117415765,
			"0.01": 3.75541131393,
			"0.011": 4.18877145596,
			"0.012": 4.7783146563,
			"0.013": 5.17845055126,
			"0.014": 0.84212918162,
			"0.015": 0.0,
			"0.016": 0.0,
			"0.017": 0.0,
			"0.018": 0.0,
			"0.019": 0.0,
			"0.02": 0.0,
			"0.021": 0.0,
			"0.022": 0.0,
			"0.023": 0.0,
			"0.024": 0.0,
			"0.025": 0.0
		}
	}
}
