{
	 "smiles": "C(CN1CCCCC1)C(C1=CC=CC=C1)C1=CC=CC=C1", 
	 "Tm": 314.15, 
	 "num_atms": 46, 
	 "gaussian": { 
		 "optdone": 1, 
		 "sigma_profile": "yes", 
		 "theory": "DFT", 
		 "functional": "B3LYP", 
		 "basiset": "6-31G**", 
		 "properties": { 
			 "R2extent": 7533.5978, 
			 "electric_dipole_moment_norm": 0.853235635683, 
			 "electric_quadrupole_moment_norm": 3.639920892, 
			 "total_energy": -831.950003782, 
			 "HOMO_LUMO_gap": 0.20224, 
			 "cosmo_polarized_energy": -6.44, 
			 "cosmo_cavitation_energy": 45.52, 
			 "cosmo_dispersion_energy": -30.36, 
			 "cosmo_repulsion_energy": 2.35, 
			 "cosmo_total_nonelectrostatic_energy": 17.52, 
			 "SMD_solvation_energy": 6.21 
		},
		"coords": [
			{
				"x": -1.6191626398,
				"y": -1.2618436473,
				"z": -0.1127370294,
				"element": "C" 
			},
			{
				"x": -2.635101118,
				"y": -0.5615559722,
				"z": 0.8010906785,
				"element": "C" 
			},
			{
				"x": -2.552525376,
				"y": 0.8981282588,
				"z": 0.7797720803,
				"element": "N" 
			},
			{
				"x": -3.2080630866,
				"y": 1.4819595321,
				"z": 1.9599361409,
				"element": "C" 
			},
			{
				"x": -3.3754052499,
				"y": 3.0127143873,
				"z": 1.8235976934,
				"element": "C" 
			},
			{
				"x": -2.3462202897,
				"y": 3.588560307,
				"z": 0.8452404755,
				"element": "C" 
			},
			{
				"x": -2.5497807121,
				"y": 2.9703295847,
				"z": -0.554121378,
				"element": "C" 
			},
			{
				"x": -3.0552114208,
				"y": 1.5135093374,
				"z": -0.4496712096,
				"element": "C" 
			},
			{
				"x": -0.1478298498,
				"y": -0.9031879206,
				"z": 0.2017206191,
				"element": "C" 
			},
			{
				"x": 0.8408319439,
				"y": -1.3842207907,
				"z": -0.8596402956,
				"element": "C" 
			},
			{
				"x": 2.08050903,
				"y": -0.734939901,
				"z": -0.9732193719,
				"element": "C" 
			},
			{
				"x": 3.0263496803,
				"y": -1.1404024509,
				"z": -1.9122659285,
				"element": "C" 
			},
			{
				"x": 2.7524734295,
				"y": -2.2131271499,
				"z": -2.7650599946,
				"element": "C" 
			},
			{
				"x": 1.5265407911,
				"y": -2.8686870387,
				"z": -2.6655193238,
				"element": "C" 
			},
			{
				"x": 0.5800097029,
				"y": -2.456941268,
				"z": -1.7222927072,
				"element": "C" 
			},
			{
				"x": 0.2572788641,
				"y": -1.371417149,
				"z": 1.6006030615,
				"element": "C" 
			},
			{
				"x": 0.5088607305,
				"y": -2.7242165345,
				"z": 1.8726945336,
				"element": "C" 
			},
			{
				"x": 0.8515989049,
				"y": -3.1443698156,
				"z": 3.1575828519,
				"element": "C" 
			},
			{
				"x": 0.953685616,
				"y": -2.2172709042,
				"z": 4.1978392044,
				"element": "C" 
			},
			{
				"x": 0.709336599,
				"y": -0.8682390742,
				"z": 3.9404972954,
				"element": "C" 
			},
			{
				"x": 0.3640467555,
				"y": -0.4516662162,
				"z": 2.6524209838,
				"element": "C" 
			},
			{
				"x": -1.7780221657,
				"y": -2.3424246504,
				"z": -0.0095621507,
				"element": "H" 
			},
			{
				"x": -1.8229048433,
				"y": -1.0217744453,
				"z": -1.1630367419,
				"element": "H" 
			},
			{
				"x": -3.6536318075,
				"y": -0.9139588572,
				"z": 0.5430676937,
				"element": "H" 
			},
			{
				"x": -2.4521005524,
				"y": -0.8808871774,
				"z": 1.8329981691,
				"element": "H" 
			},
			{
				"x": -4.2004395571,
				"y": 1.0221452384,
				"z": 2.1353738143,
				"element": "H" 
			},
			{
				"x": -2.5898659834,
				"y": 1.2405446276,
				"z": 2.8336015781,
				"element": "H" 
			},
			{
				"x": -4.3830654794,
				"y": 3.2472721209,
				"z": 1.4580823274,
				"element": "H" 
			},
			{
				"x": -3.2909008653,
				"y": 3.4807851643,
				"z": 2.8102846414,
				"element": "H" 
			},
			{
				"x": -1.3381042687,
				"y": 3.3577351544,
				"z": 1.2067909858,
				"element": "H" 
			},
			{
				"x": -2.4242536286,
				"y": 4.6804248273,
				"z": 0.7979217075,
				"element": "H" 
			},
			{
				"x": -1.606861994,
				"y": 3.0003024895,
				"z": -1.1109379504,
				"element": "H" 
			},
			{
				"x": -3.2752272504,
				"y": 3.5585892858,
				"z": -1.1291849876,
				"element": "H" 
			},
			{
				"x": -2.7063288929,
				"y": 0.9368607091,
				"z": -1.3102494052,
				"element": "H" 
			},
			{
				"x": -4.1627843999,
				"y": 1.4823369717,
				"z": -0.4865680177,
				"element": "H" 
			},
			{
				"x": -0.1012111969,
				"y": 0.1913224485,
				"z": 0.2124663964,
				"element": "H" 
			},
			{
				"x": 2.3030057212,
				"y": 0.0979998239,
				"z": -0.310435652,
				"element": "H" 
			},
			{
				"x": 3.9766497413,
				"y": -0.6179743315,
				"z": -1.981405673,
				"element": "H" 
			},
			{
				"x": 3.4867493068,
				"y": -2.530985687,
				"z": -3.4997665462,
				"element": "H" 
			},
			{
				"x": 1.2996329607,
				"y": -3.702685135,
				"z": -3.3242307355,
				"element": "H" 
			},
			{
				"x": -0.3704203498,
				"y": -2.9787119001,
				"z": -1.6698674305,
				"element": "H" 
			},
			{
				"x": 0.4525653129,
				"y": -3.4515939323,
				"z": 1.0672394766,
				"element": "H" 
			},
			{
				"x": 1.0459580362,
				"y": -4.1967739798,
				"z": 3.3462005389,
				"element": "H" 
			},
			{
				"x": 1.2248846991,
				"y": -2.5443042314,
				"z": 5.1976526634,
				"element": "H" 
			},
			{
				"x": 0.789072663,
				"y": -0.1371278532,
				"z": 4.7405669593,
				"element": "H" 
			},
			{
				"x": 0.1683824896,
				"y": 0.5994677447,
				"z": 2.4566299589,
				"element": "H" 
			}
		],
		 "valence_orbital": [ 
			{
				"type": "occ",
				"energy": -0.24491,
				"method": "rhf"
			},
			{
				"type": "occ",
				"energy": -0.24373,
				"method": "rhf"
			},
			{
				"type": "occ",
				"energy": -0.24158,
				"method": "rhf"
			},
			{
				"type": "occ",
				"energy": -0.22783,
				"method": "rhf"
			},
			{
				"type": "occ",
				"energy": -0.20453,
				"method": "rhf"
			},
			{
				"type": "unocc",
				"energy": -0.00229,
				"method": "rhf"
			},
			{
				"type": "unocc",
				"energy": 0.00185,
				"method": "rhf"
			},
			{
				"type": "unocc",
				"energy": 0.00541,
				"method": "rhf"
			},
			{
				"type": "unocc",
				"energy": 0.01612,
				"method": "rhf"
			},
			{
				"type": "unocc",
				"energy": 0.07316,
				"method": "rhf"
			}
		],
		"cosmo_sigma_profile": { 
			"-0.025": 0.0,
			"-0.024": 0.0,
			"-0.023": 0.0,
			"-0.022": 0.0,
			"-0.021": 0.0,
			"-0.02": 0.0,
			"-0.019": 0.0,
			"-0.018": 0.0,
			"-0.017": 0.0,
			"-0.016": 0.0,
			"-0.015": 0.0,
			"-0.014": 0.0,
			"-0.013": 0.0,
			"-0.012": 0.0,
			"-0.011": 0.0,
			"-0.01": 0.0,
			"-0.009": 0.0,
			"-0.008": 0.0,
			"-0.007": 0.0,
			"-0.006": 2.33867028265,
			"-0.005": 15.488631313,
			"-0.004": 24.2272164373,
			"-0.003": 33.3043328197,
			"-0.002": 41.7185035489,
			"-0.001": 57.3823628402,
			"0.0": 55.1244009735,
			"0.001": 34.0070973406,
			"0.002": 19.2549768849,
			"0.003": 14.5688180771,
			"0.004": 16.0395292163,
			"0.005": 17.4417985194,
			"0.006": 18.1815928709,
			"0.007": 6.14499443245,
			"0.008": 0.842053229054,
			"0.009": 0.395735576005,
			"0.01": 0.0,
			"0.011": 0.0,
			"0.012": 0.0,
			"0.013": 0.0,
			"0.014": 0.0,
			"0.015": 0.0,
			"0.016": 0.0,
			"0.017": 0.0,
			"0.018": 0.0,
			"0.019": 0.0,
			"0.02": 0.0,
			"0.021": 0.0,
			"0.022": 0.0,
			"0.023": 0.0,
			"0.024": 0.0,
			"0.025": 0.0
		}
	}
}
