{
	 "smiles": "OC(=O)CCCC1=NC(=NO1)C1=CC=CC=C1", 
	 "Tm": 379.15, 
	 "num_atms": 29, 
	 "gaussian": { 
		 "optdone": 1, 
		 "sigma_profile": "yes", 
		 "theory": "DFT", 
		 "functional": "B3LYP", 
		 "basiset": "6-31G**", 
		 "properties": { 
			 "R2extent": 7109.0916, 
			 "electric_dipole_moment_norm": 3.36838547378, 
			 "electric_quadrupole_moment_norm": 40.0723715666, 
			 "total_energy": -799.667393683, 
			 "HOMO_LUMO_gap": 0.19739, 
			 "cosmo_polarized_energy": -20.52, 
			 "cosmo_cavitation_energy": 34.44, 
			 "cosmo_dispersion_energy": -25.03, 
			 "cosmo_repulsion_energy": 1.95, 
			 "cosmo_total_nonelectrostatic_energy": 11.37, 
			 "SMD_solvation_energy": 4.98 
		},
		"coords": [
			{
				"x": 5.5645173206,
				"y": -2.185741545,
				"z": 0.4566937207,
				"element": "O" 
			},
			{
				"x": 4.3011037012,
				"y": -1.7175700899,
				"z": 0.6383815541,
				"element": "C" 
			},
			{
				"x": 3.3555767227,
				"y": -2.4075726164,
				"z": 0.3491770258,
				"element": "O" 
			},
			{
				"x": 4.2050884638,
				"y": -0.3129777818,
				"z": 1.2259526154,
				"element": "C" 
			},
			{
				"x": 2.7698885603,
				"y": 0.205073247,
				"z": 1.3524734777,
				"element": "C" 
			},
			{
				"x": 2.1004892283,
				"y": 0.4644182555,
				"z": -0.0125837279,
				"element": "C" 
			},
			{
				"x": 0.7492615176,
				"y": 1.0828574648,
				"z": 0.1195022181,
				"element": "C" 
			},
			{
				"x": -0.399819432,
				"y": 0.6276019541,
				"z": -0.2809199264,
				"element": "N" 
			},
			{
				"x": -1.2760582807,
				"y": 1.6227307575,
				"z": 0.115767148,
				"element": "C" 
			},
			{
				"x": -0.7004746643,
				"y": 2.6343666579,
				"z": 0.7285369255,
				"element": "N" 
			},
			{
				"x": 0.6582879176,
				"y": 2.2790461108,
				"z": 0.7341101769,
				"element": "O" 
			},
			{
				"x": -2.7236306191,
				"y": 1.5535695827,
				"z": -0.125978699,
				"element": "C" 
			},
			{
				"x": -3.2638314553,
				"y": 0.4373093794,
				"z": -0.7800491709,
				"element": "C" 
			},
			{
				"x": -4.6362536288,
				"y": 0.3622424573,
				"z": -1.013590078,
				"element": "C" 
			},
			{
				"x": -5.476916016,
				"y": 1.3964743969,
				"z": -0.5979259439,
				"element": "C" 
			},
			{
				"x": -4.9406507975,
				"y": 2.5107533336,
				"z": 0.0545609794,
				"element": "C" 
			},
			{
				"x": -3.5713086807,
				"y": 2.5923684034,
				"z": 0.2911154739,
				"element": "C" 
			},
			{
				"x": 6.213598092,
				"y": -1.5251156196,
				"z": 0.737923095,
				"element": "H" 
			},
			{
				"x": 4.6821118677,
				"y": -0.333501941,
				"z": 2.2154274663,
				"element": "H" 
			},
			{
				"x": 4.8110996053,
				"y": 0.3677604872,
				"z": 0.6109184955,
				"element": "H" 
			},
			{
				"x": 2.1743790219,
				"y": -0.5241793322,
				"z": 1.9103002957,
				"element": "H" 
			},
			{
				"x": 2.7812414902,
				"y": 1.1324973254,
				"z": 1.9336607972,
				"element": "H" 
			},
			{
				"x": 2.7313947615,
				"y": 1.1369568966,
				"z": -0.6091129631,
				"element": "H" 
			},
			{
				"x": 1.985916252,
				"y": -0.4714430934,
				"z": -0.5609565531,
				"element": "H" 
			},
			{
				"x": -2.5996039692,
				"y": -0.3591910983,
				"z": -1.0972436449,
				"element": "H" 
			},
			{
				"x": -5.049060426,
				"y": -0.5050682135,
				"z": -1.5204932513,
				"element": "H" 
			},
			{
				"x": -6.5459762596,
				"y": 1.3360492619,
				"z": -0.7808270203,
				"element": "H" 
			},
			{
				"x": -5.5919671704,
				"y": 3.3170066748,
				"z": 0.3791541598,
				"element": "H" 
			},
			{
				"x": -3.1480031233,
				"y": 3.4539786844,
				"z": 0.7968253535,
				"element": "H" 
			}
		],
		 "valence_orbital": [ 
			{
				"type": "occ",
				"energy": -0.29194,
				"method": "rhf"
			},
			{
				"type": "occ",
				"energy": -0.29145,
				"method": "rhf"
			},
			{
				"type": "occ",
				"energy": -0.28194,
				"method": "rhf"
			},
			{
				"type": "occ",
				"energy": -0.25311,
				"method": "rhf"
			},
			{
				"type": "occ",
				"energy": -0.23978,
				"method": "rhf"
			},
			{
				"type": "unocc",
				"energy": -0.04239,
				"method": "rhf"
			},
			{
				"type": "unocc",
				"energy": -0.00687,
				"method": "rhf"
			},
			{
				"type": "unocc",
				"energy": -0.00121,
				"method": "rhf"
			},
			{
				"type": "unocc",
				"energy": 0.00277,
				"method": "rhf"
			},
			{
				"type": "unocc",
				"energy": 0.0447,
				"method": "rhf"
			}
		],
		"cosmo_sigma_profile": { 
			"-0.025": 0.0,
			"-0.024": 0.0,
			"-0.023": 0.0,
			"-0.022": 0.0,
			"-0.021": 0.0,
			"-0.02": 0.0,
			"-0.019": 0.534771422222,
			"-0.018": 1.49503152331,
			"-0.017": 0.631399710113,
			"-0.016": 1.18743878666,
			"-0.015": 1.50292427142,
			"-0.014": 1.07449221232,
			"-0.013": 0.953585966497,
			"-0.012": 1.04081935486,
			"-0.011": 1.55320498408,
			"-0.01": 1.19330426738,
			"-0.009": 1.21099909972,
			"-0.008": 2.66368408183,
			"-0.007": 9.22057234985,
			"-0.006": 16.0278589866,
			"-0.005": 18.7886971276,
			"-0.004": 26.3397636988,
			"-0.003": 19.3621184942,
			"-0.002": 16.301086286,
			"-0.001": 14.6734169236,
			"0.0": 15.2131461891,
			"0.001": 15.4337224963,
			"0.002": 16.7147770541,
			"0.003": 15.5701746951,
			"0.004": 18.7282359076,
			"0.005": 9.45167049581,
			"0.006": 6.86854500252,
			"0.007": 6.82815667685,
			"0.008": 6.2932433157,
			"0.009": 5.11083956016,
			"0.01": 6.81951241233,
			"0.011": 7.50762744493,
			"0.012": 6.39111746673,
			"0.013": 1.66439418596,
			"0.014": 0.0300827036301,
			"0.015": 0.0,
			"0.016": 0.0,
			"0.017": 0.0,
			"0.018": 0.0,
			"0.019": 0.0,
			"0.02": 0.0,
			"0.021": 0.0,
			"0.022": 0.0,
			"0.023": 0.0,
			"0.024": 0.0,
			"0.025": 0.0
		}
	}
}
