{
	 "smiles": "COC1=CC=C(C=C1)C1=NC=C(S1)C(O)=O", 
	 "Tm": 513.15, 
	 "num_atms": 25, 
	 "gaussian": { 
		 "optdone": 1, 
		 "sigma_profile": "yes", 
		 "theory": "DFT", 
		 "functional": "B3LYP", 
		 "basiset": "6-31G**", 
		 "properties": { 
			 "R2extent": 6840.6026, 
			 "electric_dipole_moment_norm": 7.48281100857, 
			 "electric_quadrupole_moment_norm": 20.2787677034, 
			 "total_energy": -1103.19629232, 
			 "HOMO_LUMO_gap": 0.14502, 
			 "cosmo_polarized_energy": -16.93, 
			 "cosmo_cavitation_energy": 31.82, 
			 "cosmo_dispersion_energy": -24.08, 
			 "cosmo_repulsion_energy": 1.8, 
			 "cosmo_total_nonelectrostatic_energy": 9.54, 
			 "SMD_solvation_energy": 5.94 
		},
		"coords": [
			{
				"x": 2.275281203,
				"y": -3.4423988757,
				"z": 2.3210039385,
				"element": "C" 
			},
			{
				"x": 1.3293647224,
				"y": -3.6260501491,
				"z": 1.2756758239,
				"element": "O" 
			},
			{
				"x": 0.6210991606,
				"y": -2.5518439029,
				"z": 0.8433958889,
				"element": "C" 
			},
			{
				"x": 0.7505171818,
				"y": -1.2525993053,
				"z": 1.3548509962,
				"element": "C" 
			},
			{
				"x": -0.0317728621,
				"y": -0.2262447569,
				"z": 0.8311264304,
				"element": "C" 
			},
			{
				"x": -0.9505256887,
				"y": -0.4625061213,
				"z": -0.2008467264,
				"element": "C" 
			},
			{
				"x": -1.0688608527,
				"y": -1.7757230023,
				"z": -0.7047477671,
				"element": "C" 
			},
			{
				"x": -0.2970067242,
				"y": -2.802267263,
				"z": -0.1920232142,
				"element": "C" 
			},
			{
				"x": -1.7850679689,
				"y": 0.5918028374,
				"z": -0.7712520755,
				"element": "C" 
			},
			{
				"x": -2.6545376772,
				"y": 0.4055331378,
				"z": -1.7372767426,
				"element": "N" 
			},
			{
				"x": -3.2951921904,
				"y": 1.5560957652,
				"z": -2.0764514002,
				"element": "C" 
			},
			{
				"x": -2.9449249925,
				"y": 2.6887872257,
				"z": -1.3812525973,
				"element": "C" 
			},
			{
				"x": -1.7133342186,
				"y": 2.2717250545,
				"z": -0.2100380405,
				"element": "S" 
			},
			{
				"x": -3.5338571191,
				"y": 4.0249436067,
				"z": -1.6122736829,
				"element": "C" 
			},
			{
				"x": -3.088087252,
				"y": 5.0556348461,
				"z": -0.8456279515,
				"element": "O" 
			},
			{
				"x": -4.3848715612,
				"y": 4.2174094227,
				"z": -2.449932874,
				"element": "O" 
			},
			{
				"x": 2.7169625311,
				"y": -4.4231943406,
				"z": 2.500629969,
				"element": "H" 
			},
			{
				"x": 1.7944045137,
				"y": -3.0880403482,
				"z": 3.2411469272,
				"element": "H" 
			},
			{
				"x": 3.0643776752,
				"y": -2.7378697933,
				"z": 2.0304231196,
				"element": "H" 
			},
			{
				"x": 1.4499576893,
				"y": -1.0328343221,
				"z": 2.1520439514,
				"element": "H" 
			},
			{
				"x": 0.0840258439,
				"y": 0.7732895174,
				"z": 1.2416476246,
				"element": "H" 
			},
			{
				"x": -1.7779477772,
				"y": -1.9638969832,
				"z": -1.5029169909,
				"element": "H" 
			},
			{
				"x": -0.3814410758,
				"y": -3.8144084269,
				"z": -0.5733025877,
				"element": "H" 
			},
			{
				"x": -4.0428583929,
				"y": 1.5568358511,
				"z": -2.8605195376,
				"element": "H" 
			},
			{
				"x": -2.4105041675,
				"y": 4.7688203263,
				"z": -0.2169824815,
				"element": "H" 
			}
		],
		 "valence_orbital": [ 
			{
				"type": "occ",
				"energy": -0.28859,
				"method": "rhf"
			},
			{
				"type": "occ",
				"energy": -0.27669,
				"method": "rhf"
			},
			{
				"type": "occ",
				"energy": -0.27667,
				"method": "rhf"
			},
			{
				"type": "occ",
				"energy": -0.27052,
				"method": "rhf"
			},
			{
				"type": "occ",
				"energy": -0.22306,
				"method": "rhf"
			},
			{
				"type": "unocc",
				"energy": -0.07804,
				"method": "rhf"
			},
			{
				"type": "unocc",
				"energy": -0.01988,
				"method": "rhf"
			},
			{
				"type": "unocc",
				"energy": -0.01429,
				"method": "rhf"
			},
			{
				"type": "unocc",
				"energy": -0.01366,
				"method": "rhf"
			},
			{
				"type": "unocc",
				"energy": 0.04332,
				"method": "rhf"
			}
		],
		"cosmo_sigma_profile": { 
			"-0.025": 0.0,
			"-0.024": 0.0,
			"-0.023": 0.0,
			"-0.022": 0.0,
			"-0.021": 0.0,
			"-0.02": 0.0,
			"-0.019": 0.125029176515,
			"-0.018": 0.605190030667,
			"-0.017": 0.84057580195,
			"-0.016": 1.02718932341,
			"-0.015": 1.17494926147,
			"-0.014": 0.806822774004,
			"-0.013": 0.913907235294,
			"-0.012": 1.02115251485,
			"-0.011": 1.25788207567,
			"-0.01": 0.944839327496,
			"-0.009": 0.987928131799,
			"-0.008": 3.39117071287,
			"-0.007": 8.18530493573,
			"-0.006": 16.0056483282,
			"-0.005": 16.8487482887,
			"-0.004": 18.9744574384,
			"-0.003": 16.5393141489,
			"-0.002": 13.1403313351,
			"-0.001": 17.7872583955,
			"0.0": 20.9275543768,
			"0.001": 19.0596258303,
			"0.002": 20.8415349273,
			"0.003": 19.0749503678,
			"0.004": 12.102599488,
			"0.005": 5.53369227097,
			"0.006": 4.44220103336,
			"0.007": 4.70344840487,
			"0.008": 5.49038936498,
			"0.009": 6.581398505,
			"0.01": 6.35979917391,
			"0.011": 6.48085090024,
			"0.012": 4.44827713223,
			"0.013": 1.03912888879,
			"0.014": 0.0,
			"0.015": 0.0,
			"0.016": 0.0,
			"0.017": 0.0,
			"0.018": 0.0,
			"0.019": 0.0,
			"0.02": 0.0,
			"0.021": 0.0,
			"0.022": 0.0,
			"0.023": 0.0,
			"0.024": 0.0,
			"0.025": 0.0
		}
	}
}
