{
	 "smiles": "BrC1=C(Br)C(Br)=C(C=C1)C1=C(Br)C(Br)=C(Br)C(Br)=C1Br", 
	 "Tm": 498.15, 
	 "num_atms": 22, 
	 "gaussian": { 
		 "optdone": 1, 
		 "sigma_profile": "yes", 
		 "theory": "DFT", 
		 "functional": "B3LYP", 
		 "basiset": "6-31G**", 
		 "properties": { 
			 "R2extent": 22233.7152, 
			 "electric_dipole_moment_norm": 1.71273539112, 
			 "electric_quadrupole_moment_norm": 6.20263625405, 
			 "total_energy": -21029.6718542, 
			 "HOMO_LUMO_gap": 0.18072, 
			 "cosmo_polarized_energy": -6.4, 
			 "cosmo_cavitation_energy": 44.06, 
			 "cosmo_dispersion_energy": -32.75, 
			 "cosmo_repulsion_energy": 2.52, 
			 "cosmo_total_nonelectrostatic_energy": 13.83, 
			 "SMD_solvation_energy": -0.51 
		},
		"coords": [
			{
				"x": 1.3411341104,
				"y": -4.9711827367,
				"z": -3.7124141453,
				"element": "Br" 
			},
			{
				"x": 1.0380472817,
				"y": -3.6452313542,
				"z": -2.3853141666,
				"element": "C" 
			},
			{
				"x": 1.9664108751,
				"y": -2.6256767737,
				"z": -2.1252683208,
				"element": "C" 
			},
			{
				"x": 3.5842964952,
				"y": -2.530889268,
				"z": -3.1039569045,
				"element": "Br" 
			},
			{
				"x": 1.6729757586,
				"y": -1.6793495687,
				"z": -1.1272330411,
				"element": "C" 
			},
			{
				"x": 2.8925059591,
				"y": -0.2772628484,
				"z": -0.731794307,
				"element": "Br" 
			},
			{
				"x": 0.4748682759,
				"y": -1.7469621076,
				"z": -0.3999416877,
				"element": "C" 
			},
			{
				"x": -0.4284841815,
				"y": -2.7754136304,
				"z": -0.6842134144,
				"element": "C" 
			},
			{
				"x": -0.1538982544,
				"y": -3.7172687353,
				"z": -1.6660541391,
				"element": "C" 
			},
			{
				"x": 0.1287730809,
				"y": -0.759616166,
				"z": 0.6682485992,
				"element": "C" 
			},
			{
				"x": -0.5976947121,
				"y": 0.4027079822,
				"z": 0.3650332037,
				"element": "C" 
			},
			{
				"x": -1.0792381436,
				"y": 0.716290724,
				"z": -1.4453319157,
				"element": "Br" 
			},
			{
				"x": -0.9603526257,
				"y": 1.31726902,
				"z": 1.3646441381,
				"element": "C" 
			},
			{
				"x": -1.9385305174,
				"y": 2.8758061479,
				"z": 0.9201203134,
				"element": "Br" 
			},
			{
				"x": -0.5932010139,
				"y": 1.0661296009,
				"z": 2.6975080768,
				"element": "C" 
			},
			{
				"x": -1.0752467308,
				"y": 2.291903608,
				"z": 4.0583147316,
				"element": "Br" 
			},
			{
				"x": 0.1287848834,
				"y": -0.0947128677,
				"z": 3.022491063,
				"element": "C" 
			},
			{
				"x": 0.6221862265,
				"y": -0.4425601931,
				"z": 4.8166420084,
				"element": "Br" 
			},
			{
				"x": 0.480491239,
				"y": -0.9955531987,
				"z": 2.0066550936,
				"element": "C" 
			},
			{
				"x": 1.4563855669,
				"y": -2.5728008207,
				"z": 2.4159917862,
				"element": "Br" 
			},
			{
				"x": -1.3569772476,
				"y": -2.8341301063,
				"z": -0.1260938038,
				"element": "H" 
			},
			{
				"x": -0.8583363258,
				"y": -4.5115967073,
				"z": -1.881033168,
				"element": "H" 
			}
		],
		 "valence_orbital": [ 
			{
				"type": "occ",
				"energy": -0.27223,
				"method": "rhf"
			},
			{
				"type": "occ",
				"energy": -0.26129,
				"method": "rhf"
			},
			{
				"type": "occ",
				"energy": -0.25954,
				"method": "rhf"
			},
			{
				"type": "occ",
				"energy": -0.25558,
				"method": "rhf"
			},
			{
				"type": "occ",
				"energy": -0.25348,
				"method": "rhf"
			},
			{
				"type": "unocc",
				"energy": -0.07276,
				"method": "rhf"
			},
			{
				"type": "unocc",
				"energy": -0.05766,
				"method": "rhf"
			},
			{
				"type": "unocc",
				"energy": -0.05626,
				"method": "rhf"
			},
			{
				"type": "unocc",
				"energy": -0.047,
				"method": "rhf"
			},
			{
				"type": "unocc",
				"energy": -0.04603,
				"method": "rhf"
			}
		],
		"cosmo_sigma_profile": { 
			"-0.025": 0.0,
			"-0.024": 0.0,
			"-0.023": 0.0,
			"-0.022": 0.0,
			"-0.021": 0.0,
			"-0.02": 0.0,
			"-0.019": 0.0,
			"-0.018": 0.0,
			"-0.017": 0.0,
			"-0.016": 0.0,
			"-0.015": 0.0,
			"-0.014": 0.0,
			"-0.013": 0.0,
			"-0.012": 0.0,
			"-0.011": 0.0,
			"-0.01": 0.0,
			"-0.009": 1.09451090344,
			"-0.008": 4.54693959589,
			"-0.007": 5.49431876552,
			"-0.006": 11.7247141498,
			"-0.005": 14.1707790818,
			"-0.004": 17.3007972734,
			"-0.003": 20.0943346538,
			"-0.002": 34.9763279021,
			"-0.001": 36.7970560994,
			"0.0": 40.1841915777,
			"0.001": 44.0287130049,
			"0.002": 54.1361991037,
			"0.003": 64.290500083,
			"0.004": 28.9706131424,
			"0.005": 2.36555269417,
			"0.006": 0.0,
			"0.007": 0.0,
			"0.008": 0.0,
			"0.009": 0.0,
			"0.01": 0.0,
			"0.011": 0.0,
			"0.012": 0.0,
			"0.013": 0.0,
			"0.014": 0.0,
			"0.015": 0.0,
			"0.016": 0.0,
			"0.017": 0.0,
			"0.018": 0.0,
			"0.019": 0.0,
			"0.02": 0.0,
			"0.021": 0.0,
			"0.022": 0.0,
			"0.023": 0.0,
			"0.024": 0.0,
			"0.025": 0.0
		}
	}
}
