{
	 "smiles": "CCOC1=NN(C(=O)C1)C1=CC=C(C=C1)[N+]([O-])=O", 
	 "Tm": 415.15, 
	 "num_atms": 29, 
	 "gaussian": { 
		 "optdone": 1, 
		 "sigma_profile": "yes", 
		 "theory": "DFT", 
		 "functional": "B3LYP", 
		 "basiset": "6-31G**", 
		 "properties": { 
			 "R2extent": 6334.2099, 
			 "electric_dipole_moment_norm": 8.46300788727, 
			 "electric_quadrupole_moment_norm": 14.8253461464, 
			 "total_energy": -890.833681239, 
			 "HOMO_LUMO_gap": 0.1482, 
			 "cosmo_polarized_energy": -14.55, 
			 "cosmo_cavitation_energy": 34.33, 
			 "cosmo_dispersion_energy": -24.92, 
			 "cosmo_repulsion_energy": 1.93, 
			 "cosmo_total_nonelectrostatic_energy": 11.34, 
			 "SMD_solvation_energy": 8.96 
		},
		"coords": [
			{
				"x": -1.4796636026,
				"y": 3.0797543181,
				"z": -2.8298343958,
				"element": "C" 
			},
			{
				"x": -2.6415949345,
				"y": 2.8519362821,
				"z": -1.8758248776,
				"element": "C" 
			},
			{
				"x": -3.1917332292,
				"y": 1.5121297238,
				"z": -2.0073105959,
				"element": "O" 
			},
			{
				"x": -2.5768713406,
				"y": 0.5268512171,
				"z": -1.360426153,
				"element": "C" 
			},
			{
				"x": -1.5299577464,
				"y": 0.6627774424,
				"z": -0.6228160858,
				"element": "N" 
			},
			{
				"x": -1.2196228723,
				"y": -0.6188953918,
				"z": -0.1098979706,
				"element": "N" 
			},
			{
				"x": -2.1059507304,
				"y": -1.6071612372,
				"z": -0.5479866033,
				"element": "C" 
			},
			{
				"x": -2.0863818067,
				"y": -2.7914603386,
				"z": -0.2748851552,
				"element": "O" 
			},
			{
				"x": -3.1008977652,
				"y": -0.8700935226,
				"z": -1.4438007791,
				"element": "C" 
			},
			{
				"x": -0.1069950812,
				"y": -0.7480791483,
				"z": 0.7382602355,
				"element": "C" 
			},
			{
				"x": 0.2546088476,
				"y": -2.0007264948,
				"z": 1.2737242131,
				"element": "C" 
			},
			{
				"x": 1.3595162263,
				"y": -2.0970898815,
				"z": 2.1090909844,
				"element": "C" 
			},
			{
				"x": 2.1005849826,
				"y": -0.9550179191,
				"z": 2.4106466516,
				"element": "C" 
			},
			{
				"x": 1.7543331108,
				"y": 0.2907008263,
				"z": 1.8886145927,
				"element": "C" 
			},
			{
				"x": 0.651760837,
				"y": 0.3953339442,
				"z": 1.0531187667,
				"element": "C" 
			},
			{
				"x": 3.2635944072,
				"y": -1.0643157956,
				"z": 3.291285549,
				"element": "N" 
			},
			{
				"x": 3.8963857171,
				"y": -0.0350501786,
				"z": 3.5367576251,
				"element": "O" 
			},
			{
				"x": 3.5440414336,
				"y": -2.1785517317,
				"z": 3.7369814622,
				"element": "O" 
			},
			{
				"x": -1.7841577106,
				"y": 2.8934124672,
				"z": -3.8636247215,
				"element": "H" 
			},
			{
				"x": -1.1441201643,
				"y": 4.11917049,
				"z": -2.7537370443,
				"element": "H" 
			},
			{
				"x": -0.6368252562,
				"y": 2.4298616747,
				"z": -2.5842286947,
				"element": "H" 
			},
			{
				"x": -3.4857598967,
				"y": 3.5033850235,
				"z": -2.11091998,
				"element": "H" 
			},
			{
				"x": -2.3459680343,
				"y": 3.007284886,
				"z": -0.834586759,
				"element": "H" 
			},
			{
				"x": -4.122311193,
				"y": -0.9666680963,
				"z": -1.0626822662,
				"element": "H" 
			},
			{
				"x": -3.0870686036,
				"y": -1.2723606158,
				"z": -2.4616506311,
				"element": "H" 
			},
			{
				"x": -0.3291821975,
				"y": -2.8768177878,
				"z": 1.0313587312,
				"element": "H" 
			},
			{
				"x": 1.6561997638,
				"y": -3.0487442456,
				"z": 2.5318146296,
				"element": "H" 
			},
			{
				"x": 2.3506706527,
				"y": 1.1578790978,
				"z": 2.1429794884,
				"element": "H" 
			},
			{
				"x": 0.3650661867,
				"y": 1.351554992,
				"z": 0.6378797835,
				"element": "H" 
			}
		],
		 "valence_orbital": [ 
			{
				"type": "occ",
				"energy": -0.29017,
				"method": "rhf"
			},
			{
				"type": "occ",
				"energy": -0.27938,
				"method": "rhf"
			},
			{
				"type": "occ",
				"energy": -0.27788,
				"method": "rhf"
			},
			{
				"type": "occ",
				"energy": -0.27187,
				"method": "rhf"
			},
			{
				"type": "occ",
				"energy": -0.22841,
				"method": "rhf"
			},
			{
				"type": "unocc",
				"energy": -0.08021,
				"method": "rhf"
			},
			{
				"type": "unocc",
				"energy": -0.03658,
				"method": "rhf"
			},
			{
				"type": "unocc",
				"energy": -0.01915,
				"method": "rhf"
			},
			{
				"type": "unocc",
				"energy": -0.00215,
				"method": "rhf"
			},
			{
				"type": "unocc",
				"energy": 0.04859,
				"method": "rhf"
			}
		],
		"cosmo_sigma_profile": { 
			"-0.025": 0.0,
			"-0.024": 0.0,
			"-0.023": 0.0,
			"-0.022": 0.0,
			"-0.021": 0.0,
			"-0.02": 0.0,
			"-0.019": 0.0,
			"-0.018": 0.0,
			"-0.017": 0.0,
			"-0.016": 0.0,
			"-0.015": 0.0,
			"-0.014": 0.0,
			"-0.013": 0.0,
			"-0.012": 0.0,
			"-0.011": 0.0,
			"-0.01": 1.69045428566,
			"-0.009": 6.34106639114,
			"-0.008": 5.37134885445,
			"-0.007": 8.13537474044,
			"-0.006": 12.391988553,
			"-0.005": 16.1953830184,
			"-0.004": 22.1290341334,
			"-0.003": 18.9173211816,
			"-0.002": 21.3543535925,
			"-0.001": 24.371595519,
			"0.0": 24.6810029387,
			"0.001": 24.6372286263,
			"0.002": 19.0185134978,
			"0.003": 8.30682743231,
			"0.004": 8.19898012955,
			"0.005": 6.11995323018,
			"0.006": 6.80690993116,
			"0.007": 7.97235406516,
			"0.008": 12.3723563286,
			"0.009": 7.22688105553,
			"0.01": 6.29296148397,
			"0.011": 4.0198831969,
			"0.012": 1.91442900913,
			"0.013": 0.221426026405,
			"0.014": 0.0,
			"0.015": 0.0,
			"0.016": 0.0,
			"0.017": 0.0,
			"0.018": 0.0,
			"0.019": 0.0,
			"0.02": 0.0,
			"0.021": 0.0,
			"0.022": 0.0,
			"0.023": 0.0,
			"0.024": 0.0,
			"0.025": 0.0
		}
	}
}
