{
	 "smiles": "OC(=O)C1C2CC(=O)C1CC2Cl", 
	 "Tm": 431.15, 
	 "num_atms": 21, 
	 "gaussian": { 
		 "optdone": 1, 
		 "sigma_profile": "yes", 
		 "theory": "DFT", 
		 "functional": "B3LYP", 
		 "basiset": "6-31G**", 
		 "properties": { 
			 "R2extent": 2478.4999, 
			 "electric_dipole_moment_norm": 3.42570596082, 
			 "electric_quadrupole_moment_norm": 19.6273041812, 
			 "total_energy": -996.136850819, 
			 "HOMO_LUMO_gap": 0.21897, 
			 "cosmo_polarized_energy": -19.6, 
			 "cosmo_cavitation_energy": 25.2, 
			 "cosmo_dispersion_energy": -18.55, 
			 "cosmo_repulsion_energy": 1.49, 
			 "cosmo_total_nonelectrostatic_energy": 8.14, 
			 "SMD_solvation_energy": 5.13 
		},
		"coords": [
			{
				"x": -2.5225286048,
				"y": -2.3391190099,
				"z": -0.5874874228,
				"element": "O" 
			},
			{
				"x": -1.7954548835,
				"y": -1.2165017415,
				"z": -0.8234149641,
				"element": "C" 
			},
			{
				"x": -1.9614470544,
				"y": -0.5923412972,
				"z": -1.8425725107,
				"element": "O" 
			},
			{
				"x": -0.7931193537,
				"y": -0.8581858877,
				"z": 0.2658574228,
				"element": "C" 
			},
			{
				"x": 0.0152696881,
				"y": 0.4428800807,
				"z": 0.0314664412,
				"element": "C" 
			},
			{
				"x": -1.0713347103,
				"y": 1.5380138852,
				"z": 0.1582865691,
				"element": "C" 
			},
			{
				"x": -1.9889297081,
				"y": 0.9736946604,
				"z": 1.2527835647,
				"element": "C" 
			},
			{
				"x": -2.9559466839,
				"y": 1.5015423678,
				"z": 1.7493116193,
				"element": "O" 
			},
			{
				"x": -1.3904475145,
				"y": -0.3906470575,
				"z": 1.6255528637,
				"element": "C" 
			},
			{
				"x": -0.0900521358,
				"y": -0.0541496872,
				"z": 2.4153211351,
				"element": "C" 
			},
			{
				"x": 0.8651220415,
				"y": 0.5025779844,
				"z": 1.3163575022,
				"element": "C" 
			},
			{
				"x": 2.3839482846,
				"y": -0.5055501281,
				"z": 1.1673681734,
				"element": "Cl" 
			},
			{
				"x": -2.2768612796,
				"y": -2.7305800969,
				"z": 0.2629304534,
				"element": "H" 
			},
			{
				"x": -0.1250682178,
				"y": -1.7175953313,
				"z": 0.4066637044,
				"element": "H" 
			},
			{
				"x": 0.590889206,
				"y": 0.4846987136,
				"z": -0.892032158,
				"element": "H" 
			},
			{
				"x": -1.6333104776,
				"y": 1.627595063,
				"z": -0.7756144586,
				"element": "H" 
			},
			{
				"x": -0.6930691614,
				"y": 2.5291288021,
				"z": 0.427477652,
				"element": "H" 
			},
			{
				"x": -2.0852903218,
				"y": -1.0443320639,
				"z": 2.1549187801,
				"element": "H" 
			},
			{
				"x": 0.3237595832,
				"y": -0.9567192361,
				"z": 2.8700054026,
				"element": "H" 
			},
			{
				"x": -0.2656112379,
				"y": 0.6711839597,
				"z": 3.2147661444,
				"element": "H" 
			},
			{
				"x": 1.226682542,
				"y": 1.5082060205,
				"z": 1.5293540857,
				"element": "H" 
			}
		],
		 "valence_orbital": [ 
			{
				"type": "occ",
				"energy": -0.32926,
				"method": "rhf"
			},
			{
				"type": "occ",
				"energy": -0.3098,
				"method": "rhf"
			},
			{
				"type": "occ",
				"energy": -0.30716,
				"method": "rhf"
			},
			{
				"type": "occ",
				"energy": -0.28518,
				"method": "rhf"
			},
			{
				"type": "occ",
				"energy": -0.25514,
				"method": "rhf"
			},
			{
				"type": "unocc",
				"energy": -0.03617,
				"method": "rhf"
			},
			{
				"type": "unocc",
				"energy": -0.00782,
				"method": "rhf"
			},
			{
				"type": "unocc",
				"energy": 0.00145,
				"method": "rhf"
			},
			{
				"type": "unocc",
				"energy": 0.03977,
				"method": "rhf"
			},
			{
				"type": "unocc",
				"energy": 0.07339,
				"method": "rhf"
			}
		],
		"cosmo_sigma_profile": { 
			"-0.025": 0.0,
			"-0.024": 0.0,
			"-0.023": 0.0,
			"-0.022": 0.0,
			"-0.021": 0.0,
			"-0.02": 0.0226235490482,
			"-0.019": 0.741148816948,
			"-0.018": 1.23369169484,
			"-0.017": 0.931524046686,
			"-0.016": 1.35376472185,
			"-0.015": 1.10872906128,
			"-0.014": 0.891772703369,
			"-0.013": 0.898309668125,
			"-0.012": 1.88734162863,
			"-0.011": 1.38594432982,
			"-0.01": 1.68240739654,
			"-0.009": 1.73912171845,
			"-0.008": 6.57827428614,
			"-0.007": 10.0673203494,
			"-0.006": 13.1055705026,
			"-0.005": 13.899591155,
			"-0.004": 14.3666852063,
			"-0.003": 12.9822502739,
			"-0.002": 13.477813465,
			"-0.001": 6.1743266004,
			"0.0": 5.99083005771,
			"0.001": 7.87397584297,
			"0.002": 6.65421970992,
			"0.003": 7.0190513858,
			"0.004": 7.22001988153,
			"0.005": 10.4676246971,
			"0.006": 9.966351655,
			"0.007": 5.16335157939,
			"0.008": 5.47177306086,
			"0.009": 5.40017379808,
			"0.01": 7.37114192011,
			"0.011": 9.82806483115,
			"0.012": 6.17848095791,
			"0.013": 1.13282567406,
			"0.014": 0.0,
			"0.015": 0.0,
			"0.016": 0.0,
			"0.017": 0.0,
			"0.018": 0.0,
			"0.019": 0.0,
			"0.02": 0.0,
			"0.021": 0.0,
			"0.022": 0.0,
			"0.023": 0.0,
			"0.024": 0.0,
			"0.025": 0.0
		}
	}
}
