{
	 "smiles": "FC1=CC=C(CN2C(S)=NN=C2C2=CC(=CC=C2)S(=O)(=O)N2CCOCC2)C=C1", 
	 "Tm": 505.15, 
	 "num_atms": 48, 
	 "gaussian": { 
		 "optdone": 1, 
		 "sigma_profile": "yes", 
		 "theory": "DFT", 
		 "functional": "B3LYP", 
		 "basiset": "6-31G**", 
		 "properties": { 
			 "R2extent": 13048.1063, 
			 "electric_dipole_moment_norm": 5.27785123322, 
			 "electric_quadrupole_moment_norm": 18.1745690326, 
			 "total_energy": -2076.2488872, 
			 "HOMO_LUMO_gap": 0.17844, 
			 "cosmo_polarized_energy": -27.25, 
			 "cosmo_cavitation_energy": 54.59, 
			 "cosmo_dispersion_energy": -35.05, 
			 "cosmo_repulsion_energy": 2.52, 
			 "cosmo_total_nonelectrostatic_energy": 22.06, 
			 "SMD_solvation_energy": 5.43 
		},
		"coords": [
			{
				"x": -4.5158161282,
				"y": 0.0150837211,
				"z": -3.1269644879,
				"element": "F" 
			},
			{
				"x": -3.5806158909,
				"y": 0.5531432566,
				"z": -2.3207615622,
				"element": "C" 
			},
			{
				"x": -3.793233822,
				"y": 0.5633493498,
				"z": -0.948468046,
				"element": "C" 
			},
			{
				"x": -2.8187846432,
				"y": 1.1241191378,
				"z": -0.120795493,
				"element": "C" 
			},
			{
				"x": -1.6474038373,
				"y": 1.6678624228,
				"z": -0.659403103,
				"element": "C" 
			},
			{
				"x": -0.5381193996,
				"y": 2.2398756119,
				"z": 0.209515662,
				"element": "C" 
			},
			{
				"x": -0.9507572723,
				"y": 2.6385164047,
				"z": 1.5535183304,
				"element": "N" 
			},
			{
				"x": -1.5475106496,
				"y": 3.8279338811,
				"z": 1.8966255929,
				"element": "C" 
			},
			{
				"x": -2.1139443971,
				"y": 4.9919015885,
				"z": 0.6956021267,
				"element": "S" 
			},
			{
				"x": -1.6195740009,
				"y": 3.9681933229,
				"z": 3.2008159839,
				"element": "N" 
			},
			{
				"x": -1.049197734,
				"y": 2.8466096931,
				"z": 3.7548357868,
				"element": "N" 
			},
			{
				"x": -0.6568885885,
				"y": 2.054511606,
				"z": 2.7785156092,
				"element": "C" 
			},
			{
				"x": 0.0051022456,
				"y": 0.761313546,
				"z": 2.9968724402,
				"element": "C" 
			},
			{
				"x": -0.1640626223,
				"y": -0.3350988018,
				"z": 2.1420438162,
				"element": "C" 
			},
			{
				"x": 0.4945010755,
				"y": -1.5334187131,
				"z": 2.425311928,
				"element": "C" 
			},
			{
				"x": 1.2937653733,
				"y": -1.6844221885,
				"z": 3.5556903612,
				"element": "C" 
			},
			{
				"x": 1.4365982928,
				"y": -0.596126799,
				"z": 4.422665878,
				"element": "C" 
			},
			{
				"x": 0.8066981721,
				"y": 0.6122891122,
				"z": 4.1465112455,
				"element": "C" 
			},
			{
				"x": 0.2281783203,
				"y": -2.940155614,
				"z": 1.3398441621,
				"element": "S" 
			},
			{
				"x": -1.2100685932,
				"y": -3.0941821868,
				"z": 1.1009503771,
				"element": "O" 
			},
			{
				"x": 1.0259461563,
				"y": -4.0573911655,
				"z": 1.8638689312,
				"element": "O" 
			},
			{
				"x": 0.8798013358,
				"y": -2.3474057648,
				"z": -0.1204307783,
				"element": "N" 
			},
			{
				"x": 0.2608789833,
				"y": -2.898452975,
				"z": -1.345206641,
				"element": "C" 
			},
			{
				"x": 0.7684364435,
				"y": -2.078810335,
				"z": -2.5293118654,
				"element": "C" 
			},
			{
				"x": 2.1875101863,
				"y": -2.1020496529,
				"z": -2.6100228847,
				"element": "O" 
			},
			{
				"x": 2.7783978968,
				"y": -1.5811117973,
				"z": -1.4311615632,
				"element": "C" 
			},
			{
				"x": 2.3529398836,
				"y": -2.3697901424,
				"z": -0.1917440401,
				"element": "C" 
			},
			{
				"x": -1.4688287795,
				"y": 1.6502532744,
				"z": -2.050084675,
				"element": "C" 
			},
			{
				"x": -2.4297994817,
				"y": 1.0909911028,
				"z": -2.8896525822,
				"element": "C" 
			},
			{
				"x": -4.7053383699,
				"y": 0.1405875143,
				"z": -0.5423143874,
				"element": "H" 
			},
			{
				"x": -2.985364878,
				"y": 1.1447790363,
				"z": 0.9515122294,
				"element": "H" 
			},
			{
				"x": -0.1023699714,
				"y": 3.1188954316,
				"z": -0.2778356321,
				"element": "H" 
			},
			{
				"x": 0.2698027383,
				"y": 1.5115814125,
				"z": 0.3266138238,
				"element": "H" 
			},
			{
				"x": -2.2446862087,
				"y": 5.9705833317,
				"z": 1.6111344734,
				"element": "H" 
			},
			{
				"x": -0.8202697327,
				"y": -0.2847061354,
				"z": 1.2808937592,
				"element": "H" 
			},
			{
				"x": 1.7777954781,
				"y": -2.6354816284,
				"z": 3.7474443903,
				"element": "H" 
			},
			{
				"x": 2.048356843,
				"y": -0.6939756124,
				"z": 5.3140349948,
				"element": "H" 
			},
			{
				"x": 0.914608253,
				"y": 1.4606405575,
				"z": 4.8132581314,
				"element": "H" 
			},
			{
				"x": -0.8237667853,
				"y": -2.8198577861,
				"z": -1.2564577768,
				"element": "H" 
			},
			{
				"x": 0.5293580134,
				"y": -3.9557734655,
				"z": -1.4871157949,
				"element": "H" 
			},
			{
				"x": 0.4050570227,
				"y": -1.0423208003,
				"z": -2.4394926587,
				"element": "H" 
			},
			{
				"x": 0.3955485524,
				"y": -2.5021604623,
				"z": -3.4660974697,
				"element": "H" 
			},
			{
				"x": 2.5040243023,
				"y": -0.5209920263,
				"z": -1.3003425899,
				"element": "H" 
			},
			{
				"x": 3.8616914644,
				"y": -1.6481666468,
				"z": -1.5657299571,
				"element": "H" 
			},
			{
				"x": 2.7658487621,
				"y": -1.8988111702,
				"z": 0.7057891843,
				"element": "H" 
			},
			{
				"x": 2.7319025717,
				"y": -3.3994139152,
				"z": -0.2477409043,
				"element": "H" 
			},
			{
				"x": -0.5719412611,
				"y": 2.0837794927,
				"z": -2.4858230455,
				"element": "H" 
			},
			{
				"x": -2.3063053191,
				"y": 1.0765819765,
				"z": -3.9670112795,
				"element": "H" 
			}
		],
		 "valence_orbital": [ 
			{
				"type": "occ",
				"energy": -0.27498,
				"method": "rhf"
			},
			{
				"type": "occ",
				"energy": -0.26543,
				"method": "rhf"
			},
			{
				"type": "occ",
				"energy": -0.25868,
				"method": "rhf"
			},
			{
				"type": "occ",
				"energy": -0.25566,
				"method": "rhf"
			},
			{
				"type": "occ",
				"energy": -0.23368,
				"method": "rhf"
			},
			{
				"type": "unocc",
				"energy": -0.05524,
				"method": "rhf"
			},
			{
				"type": "unocc",
				"energy": -0.04627,
				"method": "rhf"
			},
			{
				"type": "unocc",
				"energy": -0.03285,
				"method": "rhf"
			},
			{
				"type": "unocc",
				"energy": -0.02223,
				"method": "rhf"
			},
			{
				"type": "unocc",
				"energy": 0.00061,
				"method": "rhf"
			}
		],
		"cosmo_sigma_profile": { 
			"-0.025": 0.0,
			"-0.024": 0.0,
			"-0.023": 0.0,
			"-0.022": 0.0,
			"-0.021": 0.0,
			"-0.02": 0.0,
			"-0.019": 0.0,
			"-0.018": 0.0,
			"-0.017": 0.0,
			"-0.016": 0.0,
			"-0.015": 0.0,
			"-0.014": 0.0,
			"-0.013": 0.225859123119,
			"-0.012": 1.5381429146,
			"-0.011": 1.37841385954,
			"-0.01": 1.72075628171,
			"-0.009": 1.60973743607,
			"-0.008": 5.96291671963,
			"-0.007": 20.1274377619,
			"-0.006": 30.2838618326,
			"-0.005": 37.638704065,
			"-0.004": 35.4130301006,
			"-0.003": 29.0305651166,
			"-0.002": 30.1190484541,
			"-0.001": 28.382895879,
			"0.0": 31.1566061915,
			"0.001": 35.1981266569,
			"0.002": 29.5365135223,
			"0.003": 21.8956735166,
			"0.004": 21.4408786362,
			"0.005": 10.0175567059,
			"0.006": 8.13298167738,
			"0.007": 5.6887244455,
			"0.008": 5.88485068503,
			"0.009": 7.15680680425,
			"0.01": 10.6193262113,
			"0.011": 11.6846039447,
			"0.012": 6.15279207926,
			"0.013": 4.35135858253,
			"0.014": 2.58043562267,
			"0.015": 2.05422706373,
			"0.016": 0.965485269521,
			"0.017": 0.0,
			"0.018": 0.0,
			"0.019": 0.0,
			"0.02": 0.0,
			"0.021": 0.0,
			"0.022": 0.0,
			"0.023": 0.0,
			"0.024": 0.0,
			"0.025": 0.0
		}
	}
}
