{
	 "smiles": "CN(C)CC(O)C1=CC(O)=C(O)C=C1", 
	 "Tm": 422.15, 
	 "num_atms": 29, 
	 "gaussian": { 
		 "optdone": 1, 
		 "sigma_profile": "yes", 
		 "theory": "DFT", 
		 "functional": "B3LYP", 
		 "basiset": "6-31G**", 
		 "properties": { 
			 "R2extent": 4508.763, 
			 "electric_dipole_moment_norm": 3.7803931568, 
			 "electric_quadrupole_moment_norm": 23.4770306155, 
			 "total_energy": -670.506265268, 
			 "HOMO_LUMO_gap": 0.21139, 
			 "cosmo_polarized_energy": -14.97, 
			 "cosmo_cavitation_energy": 31.47, 
			 "cosmo_dispersion_energy": -22.72, 
			 "cosmo_repulsion_energy": 1.8, 
			 "cosmo_total_nonelectrostatic_energy": 10.55, 
			 "SMD_solvation_energy": 5.55 
		},
		"coords": [
			{
				"x": 1.5487084458,
				"y": 1.7790238597,
				"z": 2.86172675,
				"element": "C" 
			},
			{
				"x": 0.6247677725,
				"y": 2.1493677964,
				"z": 1.7915129699,
				"element": "N" 
			},
			{
				"x": 1.1196274578,
				"y": 3.3028203167,
				"z": 1.0449261197,
				"element": "C" 
			},
			{
				"x": 0.2850279297,
				"y": 1.0183246931,
				"z": 0.9204375134,
				"element": "C" 
			},
			{
				"x": -0.7668520727,
				"y": 0.1087640496,
				"z": 1.5988457543,
				"element": "C" 
			},
			{
				"x": -1.8065680527,
				"y": 0.9244144881,
				"z": 2.1044073901,
				"element": "O" 
			},
			{
				"x": -1.3129510139,
				"y": -0.9078380582,
				"z": 0.6156268156,
				"element": "C" 
			},
			{
				"x": -2.4649697847,
				"y": -0.6204307366,
				"z": -0.1272603796,
				"element": "C" 
			},
			{
				"x": -2.9405341463,
				"y": -1.5264182203,
				"z": -1.0697545106,
				"element": "C" 
			},
			{
				"x": -4.0671155512,
				"y": -1.2431146441,
				"z": -1.784215463,
				"element": "O" 
			},
			{
				"x": -2.2552037475,
				"y": -2.7361480241,
				"z": -1.2803519116,
				"element": "C" 
			},
			{
				"x": -2.8091564537,
				"y": -3.5626689298,
				"z": -2.2350791865,
				"element": "O" 
			},
			{
				"x": -1.1128810595,
				"y": -3.0297029177,
				"z": -0.544839635,
				"element": "C" 
			},
			{
				"x": -0.6446211696,
				"y": -2.1170849398,
				"z": 0.4056942895,
				"element": "C" 
			},
			{
				"x": 2.5368425897,
				"y": 1.4627789281,
				"z": 2.4798298101,
				"element": "H" 
			},
			{
				"x": 1.1356560338,
				"y": 0.959555634,
				"z": 3.4554822259,
				"element": "H" 
			},
			{
				"x": 1.6986461516,
				"y": 2.6326977585,
				"z": 3.5298121255,
				"element": "H" 
			},
			{
				"x": 0.3834805049,
				"y": 3.6025049916,
				"z": 0.2936081313,
				"element": "H" 
			},
			{
				"x": 1.2709298533,
				"y": 4.1446773529,
				"z": 1.7283771297,
				"element": "H" 
			},
			{
				"x": 2.0780688765,
				"y": 3.1070871099,
				"z": 0.5303613624,
				"element": "H" 
			},
			{
				"x": -0.1675915047,
				"y": 1.4199728328,
				"z": 0.0080440418,
				"element": "H" 
			},
			{
				"x": 1.1691069184,
				"y": 0.4287461571,
				"z": 0.6201717788,
				"element": "H" 
			},
			{
				"x": -0.2806015809,
				"y": -0.4436339532,
				"z": 2.4221979065,
				"element": "H" 
			},
			{
				"x": -1.3598505389,
				"y": 1.7623354166,
				"z": 2.326259972,
				"element": "H" 
			},
			{
				"x": -3.0064830587,
				"y": 0.3020263067,
				"z": 0.046411519,
				"element": "H" 
			},
			{
				"x": -4.2373646134,
				"y": -1.9978123681,
				"z": -2.3672614672,
				"element": "H" 
			},
			{
				"x": -2.3029612056,
				"y": -4.3820870432,
				"z": -2.2895136564,
				"element": "H" 
			},
			{
				"x": -0.5934903575,
				"y": -3.972353304,
				"z": -0.7056947203,
				"element": "H" 
			},
			{
				"x": 0.2410333777,
				"y": -2.3589045527,
				"z": 0.9872373247,
				"element": "H" 
			}
		],
		 "valence_orbital": [ 
			{
				"type": "occ",
				"energy": -0.30951,
				"method": "rhf"
			},
			{
				"type": "occ",
				"energy": -0.25713,
				"method": "rhf"
			},
			{
				"type": "occ",
				"energy": -0.23441,
				"method": "rhf"
			},
			{
				"type": "occ",
				"energy": -0.22391,
				"method": "rhf"
			},
			{
				"type": "occ",
				"energy": -0.20025,
				"method": "rhf"
			},
			{
				"type": "unocc",
				"energy": 0.01114,
				"method": "rhf"
			},
			{
				"type": "unocc",
				"energy": 0.02154,
				"method": "rhf"
			},
			{
				"type": "unocc",
				"energy": 0.05768,
				"method": "rhf"
			},
			{
				"type": "unocc",
				"energy": 0.07775,
				"method": "rhf"
			},
			{
				"type": "unocc",
				"energy": 0.0994,
				"method": "rhf"
			}
		],
		"cosmo_sigma_profile": { 
			"-0.025": 0.0,
			"-0.024": 0.0,
			"-0.023": 0.0,
			"-0.022": 0.0,
			"-0.021": 0.0,
			"-0.02": 0.0,
			"-0.019": 0.0466194312618,
			"-0.018": 0.703249498114,
			"-0.017": 1.17097180414,
			"-0.016": 1.17398938046,
			"-0.015": 0.858324682501,
			"-0.014": 1.52335312388,
			"-0.013": 1.54212256218,
			"-0.012": 0.941930188201,
			"-0.011": 1.46565863031,
			"-0.01": 2.39174259262,
			"-0.009": 1.69019892314,
			"-0.008": 1.66640190768,
			"-0.007": 2.92466358965,
			"-0.006": 3.18429458594,
			"-0.005": 8.17288383557,
			"-0.004": 21.1785632604,
			"-0.003": 20.5933666244,
			"-0.002": 29.3848276206,
			"-0.001": 28.5130249792,
			"0.0": 21.2706424403,
			"0.001": 11.0378104472,
			"0.002": 10.5648748404,
			"0.003": 10.8598661312,
			"0.004": 13.6726742468,
			"0.005": 12.9245941835,
			"0.006": 12.621645454,
			"0.007": 4.61390236613,
			"0.008": 4.03003288721,
			"0.009": 2.89182102601,
			"0.01": 3.302694236,
			"0.011": 2.79988934231,
			"0.012": 2.79312799163,
			"0.013": 1.36408459012,
			"0.014": 1.17611088309,
			"0.015": 0.993497705254,
			"0.016": 0.0391520106569,
			"0.017": 0.0,
			"0.018": 0.0,
			"0.019": 0.0,
			"0.02": 0.0,
			"0.021": 0.0,
			"0.022": 0.0,
			"0.023": 0.0,
			"0.024": 0.0,
			"0.025": 0.0
		}
	}
}
