{
	 "smiles": "OC(=O)C1C2CCC(C2)C1C(=O)C1=CC=CC=C1", 
	 "Tm": 455.15, 
	 "num_atms": 34, 
	 "gaussian": { 
		 "optdone": 1, 
		 "sigma_profile": "yes", 
		 "theory": "DFT", 
		 "functional": "B3LYP", 
		 "basiset": "6-31G**", 
		 "properties": { 
			 "R2extent": 4989.6594, 
			 "electric_dipole_moment_norm": 2.79403917653, 
			 "electric_quadrupole_moment_norm": 14.3573821224, 
			 "total_energy": -806.920336813, 
			 "HOMO_LUMO_gap": 0.19022, 
			 "cosmo_polarized_energy": -14.82, 
			 "cosmo_cavitation_energy": 34.78, 
			 "cosmo_dispersion_energy": -25.04, 
			 "cosmo_repulsion_energy": 1.91, 
			 "cosmo_total_nonelectrostatic_energy": 11.66, 
			 "SMD_solvation_energy": 6.35 
		},
		"coords": [
			{
				"x": 0.0049474525,
				"y": -2.8064856407,
				"z": -3.1421332771,
				"element": "O" 
			},
			{
				"x": -0.1392016082,
				"y": -2.7555364334,
				"z": -1.7966065489,
				"element": "C" 
			},
			{
				"x": 0.2844600286,
				"y": -3.625242592,
				"z": -1.0663462407,
				"element": "O" 
			},
			{
				"x": -0.9854634946,
				"y": -1.5919642225,
				"z": -1.3153130979,
				"element": "C" 
			},
			{
				"x": -1.5368577144,
				"y": -0.5529874054,
				"z": -2.3192915236,
				"element": "C" 
			},
			{
				"x": -0.389512904,
				"y": 0.2676215222,
				"z": -2.9633629249,
				"element": "C" 
			},
			{
				"x": 0.0618981851,
				"y": 1.222736032,
				"z": -1.8137413666,
				"element": "C" 
			},
			{
				"x": -0.7891446506,
				"y": 0.7451068132,
				"z": -0.6160404456,
				"element": "C" 
			},
			{
				"x": -2.1351157089,
				"y": 0.4646791341,
				"z": -1.3219524865,
				"element": "C" 
			},
			{
				"x": -0.3555750483,
				"y": -0.7033037468,
				"z": -0.1749613943,
				"element": "C" 
			},
			{
				"x": 1.1532328663,
				"y": -0.8267535669,
				"z": -0.0112739315,
				"element": "C" 
			},
			{
				"x": 1.856593937,
				"y": -1.1303293265,
				"z": -0.9673332582,
				"element": "O" 
			},
			{
				"x": 1.7831085784,
				"y": -0.5093806832,
				"z": 1.3119924798,
				"element": "C" 
			},
			{
				"x": 3.1724470645,
				"y": -0.6853411176,
				"z": 1.4290037789,
				"element": "C" 
			},
			{
				"x": 3.8241609769,
				"y": -0.4027570036,
				"z": 2.6247260878,
				"element": "C" 
			},
			{
				"x": 3.097594407,
				"y": 0.0686010918,
				"z": 3.7226970233,
				"element": "C" 
			},
			{
				"x": 1.7182160282,
				"y": 0.2536766285,
				"z": 3.6174330857,
				"element": "C" 
			},
			{
				"x": 1.062979559,
				"y": -0.0364977639,
				"z": 2.4205648609,
				"element": "C" 
			},
			{
				"x": 0.5304406033,
				"y": -3.6057118228,
				"z": -3.3169067572,
				"element": "H" 
			},
			{
				"x": -1.8472635799,
				"y": -2.0987247051,
				"z": -0.8620351175,
				"element": "H" 
			},
			{
				"x": -2.2312550936,
				"y": -0.9877600943,
				"z": -3.0417184184,
				"element": "H" 
			},
			{
				"x": 0.4208105949,
				"y": -0.3728785538,
				"z": -3.3116389532,
				"element": "H" 
			},
			{
				"x": -0.7654591895,
				"y": 0.829369088,
				"z": -3.8246254658,
				"element": "H" 
			},
			{
				"x": 1.1369669627,
				"y": 1.1815557635,
				"z": -1.6323727626,
				"element": "H" 
			},
			{
				"x": -0.1925290257,
				"y": 2.2641650852,
				"z": -2.0388060972,
				"element": "H" 
			},
			{
				"x": -0.8154292066,
				"y": 1.4481096224,
				"z": 0.2207652212,
				"element": "H" 
			},
			{
				"x": -2.5454764563,
				"y": 1.3574230173,
				"z": -1.8055406195,
				"element": "H" 
			},
			{
				"x": -2.9002828261,
				"y": 0.0365887933,
				"z": -0.6648085151,
				"element": "H" 
			},
			{
				"x": -0.8413797841,
				"y": -0.9439824268,
				"z": 0.773448223,
				"element": "H" 
			},
			{
				"x": 3.7148867839,
				"y": -1.0487739192,
				"z": 0.5629573175,
				"element": "H" 
			},
			{
				"x": 4.8975175884,
				"y": -0.548315285,
				"z": 2.704761566,
				"element": "H" 
			},
			{
				"x": 3.6055069661,
				"y": 0.2903496373,
				"z": 4.6570467624,
				"element": "H" 
			},
			{
				"x": 1.1513227617,
				"y": 0.6218094627,
				"z": 4.467479435,
				"element": "H" 
			},
			{
				"x": -0.0091450536,
				"y": 0.115534618,
				"z": 2.358233361,
				"element": "H" 
			}
		],
		 "valence_orbital": [ 
			{
				"type": "occ",
				"energy": -0.29503,
				"method": "rhf"
			},
			{
				"type": "occ",
				"energy": -0.26116,
				"method": "rhf"
			},
			{
				"type": "occ",
				"energy": -0.25933,
				"method": "rhf"
			},
			{
				"type": "occ",
				"energy": -0.25756,
				"method": "rhf"
			},
			{
				"type": "occ",
				"energy": -0.24824,
				"method": "rhf"
			},
			{
				"type": "unocc",
				"energy": -0.05802,
				"method": "rhf"
			},
			{
				"type": "unocc",
				"energy": -0.00985,
				"method": "rhf"
			},
			{
				"type": "unocc",
				"energy": 0.0206,
				"method": "rhf"
			},
			{
				"type": "unocc",
				"energy": 0.04093,
				"method": "rhf"
			},
			{
				"type": "unocc",
				"energy": 0.0704,
				"method": "rhf"
			}
		],
		"cosmo_sigma_profile": { 
			"-0.025": 0.0,
			"-0.024": 0.0,
			"-0.023": 0.0,
			"-0.022": 0.0,
			"-0.021": 0.0,
			"-0.02": 0.0,
			"-0.019": 0.0,
			"-0.018": 0.292709141696,
			"-0.017": 1.09935833499,
			"-0.016": 0.833438333955,
			"-0.015": 0.649468164935,
			"-0.014": 0.644948325513,
			"-0.013": 0.801961326234,
			"-0.012": 0.865376208007,
			"-0.011": 0.175985355131,
			"-0.01": 0.759196523583,
			"-0.009": 0.575802659868,
			"-0.008": 1.0042006965,
			"-0.007": 4.64943323055,
			"-0.006": 14.6391968414,
			"-0.005": 18.2767356975,
			"-0.004": 19.4235100017,
			"-0.003": 23.2797199292,
			"-0.002": 26.819214007,
			"-0.001": 24.9788334402,
			"0.0": 22.4597157385,
			"0.001": 21.9869638837,
			"0.002": 15.3019414364,
			"0.003": 15.434421449,
			"0.004": 15.8170423454,
			"0.005": 6.63001824002,
			"0.006": 4.32369467964,
			"0.007": 4.65522455601,
			"0.008": 5.04495604326,
			"0.009": 3.64613383964,
			"0.01": 4.44406270673,
			"0.011": 4.85985467251,
			"0.012": 6.3876355777,
			"0.013": 2.79258847222,
			"0.014": 0.0198274234311,
			"0.015": 0.0,
			"0.016": 0.0,
			"0.017": 0.0,
			"0.018": 0.0,
			"0.019": 0.0,
			"0.02": 0.0,
			"0.021": 0.0,
			"0.022": 0.0,
			"0.023": 0.0,
			"0.024": 0.0,
			"0.025": 0.0
		}
	}
}
