{
	 "smiles": "[O-][N+](=O)C1=CC=C(NC(=O)C(C(F)(F)F)(C(F)(F)F)C(F)(F)F)C(=C1)[N+]([O-])=O", 
	 "Tm": 437.15, 
	 "num_atms": 32, 
	 "gaussian": { 
		 "optdone": 1, 
		 "sigma_profile": "yes", 
		 "theory": "DFT", 
		 "functional": "B3LYP", 
		 "basiset": "6-31G**", 
		 "properties": { 
			 "R2extent": 11336.5018, 
			 "electric_dipole_moment_norm": 1.96446655355, 
			 "electric_quadrupole_moment_norm": 18.5346383223, 
			 "total_energy": -1860.32172165, 
			 "HOMO_LUMO_gap": 0.15769, 
			 "cosmo_polarized_energy": -12.43, 
			 "cosmo_cavitation_energy": 40.79, 
			 "cosmo_dispersion_energy": -28.07, 
			 "cosmo_repulsion_energy": 1.89, 
			 "cosmo_total_nonelectrostatic_energy": 14.61, 
			 "SMD_solvation_energy": 14.21 
		},
		"coords": [
			{
				"x": 4.8655666147,
				"y": -3.325791187,
				"z": -2.9567601954,
				"element": "O" 
			},
			{
				"x": 4.827571127,
				"y": -2.2320971333,
				"z": -2.3975930047,
				"element": "N" 
			},
			{
				"x": 5.7778868699,
				"y": -1.4613073374,
				"z": -2.2767093957,
				"element": "O" 
			},
			{
				"x": 3.5422590306,
				"y": -1.8068578763,
				"z": -1.8251554656,
				"element": "C" 
			},
			{
				"x": 3.4469403039,
				"y": -0.5742365356,
				"z": -1.1797554003,
				"element": "C" 
			},
			{
				"x": 2.2355913235,
				"y": -0.1728475981,
				"z": -0.6399135271,
				"element": "C" 
			},
			{
				"x": 1.0865107357,
				"y": -0.9892226364,
				"z": -0.7288207429,
				"element": "C" 
			},
			{
				"x": -0.1423939465,
				"y": -0.6078097692,
				"z": -0.193874387,
				"element": "N" 
			},
			{
				"x": -0.4335239176,
				"y": 0.5600557603,
				"z": 0.4741024267,
				"element": "C" 
			},
			{
				"x": 0.3573191433,
				"y": 1.452346154,
				"z": 0.700828018,
				"element": "O" 
			},
			{
				"x": -1.9287255468,
				"y": 0.6878431772,
				"z": 0.9582980782,
				"element": "C" 
			},
			{
				"x": -2.2640196916,
				"y": -0.4592360533,
				"z": 1.9588737104,
				"element": "C" 
			},
			{
				"x": -3.4779816112,
				"y": -0.3152433397,
				"z": 2.4991483242,
				"element": "F" 
			},
			{
				"x": -2.2325852866,
				"y": -1.663247293,
				"z": 1.3529852451,
				"element": "F" 
			},
			{
				"x": -1.3549262654,
				"y": -0.482702091,
				"z": 2.9458331162,
				"element": "F" 
			},
			{
				"x": -2.0793338728,
				"y": 2.068108761,
				"z": 1.6929381026,
				"element": "C" 
			},
			{
				"x": -1.7979446904,
				"y": 3.0821763391,
				"z": 0.8683176739,
				"element": "F" 
			},
			{
				"x": -1.2723495614,
				"y": 2.1329607393,
				"z": 2.7570980822,
				"element": "F" 
			},
			{
				"x": -3.3388604569,
				"y": 2.2393736451,
				"z": 2.1292282738,
				"element": "F" 
			},
			{
				"x": -2.891772321,
				"y": 0.6567806544,
				"z": -0.2667834252,
				"element": "C" 
			},
			{
				"x": -2.8552171742,
				"y": -0.5381753491,
				"z": -0.8900696973,
				"element": "F" 
			},
			{
				"x": -2.5215697406,
				"y": 1.5868964462,
				"z": -1.160531608,
				"element": "F" 
			},
			{
				"x": -4.160505697,
				"y": 0.884209223,
				"z": 0.0868745712,
				"element": "F" 
			},
			{
				"x": 1.2271566676,
				"y": -2.2416706422,
				"z": -1.3969009237,
				"element": "C" 
			},
			{
				"x": 2.4465895318,
				"y": -2.6427323779,
				"z": -1.9387769361,
				"element": "C" 
			},
			{
				"x": 0.120900017,
				"y": -3.1953250628,
				"z": -1.5665893471,
				"element": "N" 
			},
			{
				"x": 0.3484317633,
				"y": -4.2429668127,
				"z": -2.1558851558,
				"element": "O" 
			},
			{
				"x": -0.9952933924,
				"y": -2.9018413338,
				"z": -1.107669492,
				"element": "O" 
			},
			{
				"x": 4.3234838214,
				"y": 0.0577957395,
				"z": -1.1073087018,
				"element": "H" 
			},
			{
				"x": 2.1526666963,
				"y": 0.7790469276,
				"z": -0.1390456912,
				"element": "H" 
			},
			{
				"x": -0.8741657101,
				"y": -1.3049651422,
				"z": -0.3399964543,
				"element": "H" 
			},
			{
				"x": 2.5275952367,
				"y": -3.5970179957,
				"z": -2.4403860711,
				"element": "H" 
			}
		],
		 "valence_orbital": [ 
			{
				"type": "occ",
				"energy": -0.32642,
				"method": "rhf"
			},
			{
				"type": "occ",
				"energy": -0.31835,
				"method": "rhf"
			},
			{
				"type": "occ",
				"energy": -0.31467,
				"method": "rhf"
			},
			{
				"type": "occ",
				"energy": -0.3118,
				"method": "rhf"
			},
			{
				"type": "occ",
				"energy": -0.28671,
				"method": "rhf"
			},
			{
				"type": "unocc",
				"energy": -0.12902,
				"method": "rhf"
			},
			{
				"type": "unocc",
				"energy": -0.1125,
				"method": "rhf"
			},
			{
				"type": "unocc",
				"energy": -0.05702,
				"method": "rhf"
			},
			{
				"type": "unocc",
				"energy": -0.03779,
				"method": "rhf"
			},
			{
				"type": "unocc",
				"energy": -0.0041,
				"method": "rhf"
			}
		],
		"cosmo_sigma_profile": { 
			"-0.025": 0.0,
			"-0.024": 0.0,
			"-0.023": 0.0,
			"-0.022": 0.0,
			"-0.021": 0.0,
			"-0.02": 0.0,
			"-0.019": 0.0,
			"-0.018": 0.0,
			"-0.017": 0.0,
			"-0.016": 0.0,
			"-0.015": 0.0,
			"-0.014": 0.0,
			"-0.013": 0.0,
			"-0.012": 0.0,
			"-0.011": 0.0,
			"-0.01": 0.913957107204,
			"-0.009": 4.79774521067,
			"-0.008": 5.61975575797,
			"-0.007": 6.53473594463,
			"-0.006": 13.3696355311,
			"-0.005": 16.3254956827,
			"-0.004": 22.2886860957,
			"-0.003": 22.3243984806,
			"-0.002": 21.7987373362,
			"-0.001": 24.8735615251,
			"0.0": 36.2908325974,
			"0.001": 64.3293195251,
			"0.002": 19.5478815047,
			"0.003": 8.14266700473,
			"0.004": 9.71880998966,
			"0.005": 8.4250096036,
			"0.006": 12.9723268949,
			"0.007": 15.4287627066,
			"0.008": 10.8978680351,
			"0.009": 4.99680353908,
			"0.01": 0.641889459131,
			"0.011": 0.0,
			"0.012": 0.0,
			"0.013": 0.0,
			"0.014": 0.0,
			"0.015": 0.0,
			"0.016": 0.0,
			"0.017": 0.0,
			"0.018": 0.0,
			"0.019": 0.0,
			"0.02": 0.0,
			"0.021": 0.0,
			"0.022": 0.0,
			"0.023": 0.0,
			"0.024": 0.0,
			"0.025": 0.0
		}
	}
}
