{
	 "smiles": "COC1=C(CN2CCOCC2)C=C(C=C1)C(C)=O", 
	 "Tm": 332.15, 
	 "num_atms": 37, 
	 "gaussian": { 
		 "optdone": 1, 
		 "sigma_profile": "yes", 
		 "theory": "DFT", 
		 "functional": "B3LYP", 
		 "basiset": "6-31G**", 
		 "properties": { 
			 "R2extent": 5456.4729, 
			 "electric_dipole_moment_norm": 5.2716782233, 
			 "electric_quadrupole_moment_norm": 11.1811497799, 
			 "total_energy": -825.323519731, 
			 "HOMO_LUMO_gap": 0.14923, 
			 "cosmo_polarized_energy": -14.09, 
			 "cosmo_cavitation_energy": 38.12, 
			 "cosmo_dispersion_energy": -26.56, 
			 "cosmo_repulsion_energy": 2.06, 
			 "cosmo_total_nonelectrostatic_energy": 13.62, 
			 "SMD_solvation_energy": 5.3 
		},
		"coords": [
			{
				"x": 3.9326253807,
				"y": -1.100956567,
				"z": 0.4110987812,
				"element": "C" 
			},
			{
				"x": 2.9524747525,
				"y": -0.281983596,
				"z": -0.2127271408,
				"element": "O" 
			},
			{
				"x": 1.640366791,
				"y": -0.653271714,
				"z": -0.1452415299,
				"element": "C" 
			},
			{
				"x": 0.7236429757,
				"y": 0.1679236594,
				"z": -0.8461197193,
				"element": "C" 
			},
			{
				"x": 1.1755040115,
				"y": 1.415008563,
				"z": -1.6074612607,
				"element": "C" 
			},
			{
				"x": 1.146789653,
				"y": 2.6889943444,
				"z": -0.8904167143,
				"element": "N" 
			},
			{
				"x": -0.1802252828,
				"y": 3.1378200083,
				"z": -0.4752251419,
				"element": "C" 
			},
			{
				"x": -0.0485403362,
				"y": 4.404035406,
				"z": 0.3640078874,
				"element": "C" 
			},
			{
				"x": 0.6663577058,
				"y": 4.1821843433,
				"z": 1.58047645,
				"element": "O" 
			},
			{
				"x": 1.5953558088,
				"y": 3.1015616046,
				"z": 1.5234986207,
				"element": "C" 
			},
			{
				"x": 2.1876685578,
				"y": 2.9202645743,
				"z": 0.1262305629,
				"element": "C" 
			},
			{
				"x": -0.616382208,
				"y": -0.2030473701,
				"z": -0.8297838332,
				"element": "C" 
			},
			{
				"x": -1.0854292058,
				"y": -1.3282195618,
				"z": -0.1279067287,
				"element": "C" 
			},
			{
				"x": -0.1565056911,
				"y": -2.1101468942,
				"z": 0.5659865026,
				"element": "C" 
			},
			{
				"x": 1.1989685456,
				"y": -1.783736203,
				"z": 0.5541372615,
				"element": "C" 
			},
			{
				"x": -2.5462498905,
				"y": -1.6345964248,
				"z": -0.1708561729,
				"element": "C" 
			},
			{
				"x": -3.0637595077,
				"y": -2.8500213553,
				"z": 0.5834815098,
				"element": "C" 
			},
			{
				"x": -3.3178187661,
				"y": -0.924014531,
				"z": -0.8005773832,
				"element": "O" 
			},
			{
				"x": 4.8936218219,
				"y": -0.629806126,
				"z": 0.2007993942,
				"element": "H" 
			},
			{
				"x": 3.78452086,
				"y": -1.1518008807,
				"z": 1.4967904365,
				"element": "H" 
			},
			{
				"x": 3.9285301176,
				"y": -2.1167551776,
				"z": -0.0022861466,
				"element": "H" 
			},
			{
				"x": 0.5209113374,
				"y": 1.5233076218,
				"z": -2.4817532705,
				"element": "H" 
			},
			{
				"x": 2.1908249936,
				"y": 1.2638726676,
				"z": -1.9834814016,
				"element": "H" 
			},
			{
				"x": -0.7870187419,
				"y": 3.3498486538,
				"z": -1.3668730604,
				"element": "H" 
			},
			{
				"x": -0.7334804636,
				"y": 2.3845834137,
				"z": 0.1135388389,
				"element": "H" 
			},
			{
				"x": -1.0399226692,
				"y": 4.777932009,
				"z": 0.6413144883,
				"element": "H" 
			},
			{
				"x": 0.453129168,
				"y": 5.1827153888,
				"z": -0.2313581725,
				"element": "H" 
			},
			{
				"x": 1.1100179632,
				"y": 2.1661860289,
				"z": 1.8446238153,
				"element": "H" 
			},
			{
				"x": 2.3862504226,
				"y": 3.3302931046,
				"z": 2.247123919,
				"element": "H" 
			},
			{
				"x": 2.7607919856,
				"y": 3.8246468896,
				"z": -0.1290066954,
				"element": "H" 
			},
			{
				"x": 2.8903605792,
				"y": 2.0835258043,
				"z": 0.1383254697,
				"element": "H" 
			},
			{
				"x": -1.3458505995,
				"y": 0.3784708194,
				"z": -1.3856042053,
				"element": "H" 
			},
			{
				"x": -0.4755381147,
				"y": -2.9882645797,
				"z": 1.1182020364,
				"element": "H" 
			},
			{
				"x": 1.9006097472,
				"y": -2.4135145072,
				"z": 1.0874050912,
				"element": "H" 
			},
			{
				"x": -4.1431274805,
				"y": -2.9127850415,
				"z": 0.442788534,
				"element": "H" 
			},
			{
				"x": -2.8412076127,
				"y": -2.7745935578,
				"z": 1.6536315737,
				"element": "H" 
			},
			{
				"x": -2.5962666084,
				"y": -3.7704608172,
				"z": 0.216417404,
				"element": "H" 
			}
		],
		 "valence_orbital": [ 
			{
				"type": "occ",
				"energy": -0.25801,
				"method": "rhf"
			},
			{
				"type": "occ",
				"energy": -0.24315,
				"method": "rhf"
			},
			{
				"type": "occ",
				"energy": -0.23768,
				"method": "rhf"
			},
			{
				"type": "occ",
				"energy": -0.23328,
				"method": "rhf"
			},
			{
				"type": "occ",
				"energy": -0.19652,
				"method": "rhf"
			},
			{
				"type": "unocc",
				"energy": -0.04729,
				"method": "rhf"
			},
			{
				"type": "unocc",
				"energy": -0.01297,
				"method": "rhf"
			},
			{
				"type": "unocc",
				"energy": 0.04519,
				"method": "rhf"
			},
			{
				"type": "unocc",
				"energy": 0.08259,
				"method": "rhf"
			},
			{
				"type": "unocc",
				"energy": 0.08507,
				"method": "rhf"
			}
		],
		"cosmo_sigma_profile": { 
			"-0.025": 0.0,
			"-0.024": 0.0,
			"-0.023": 0.0,
			"-0.022": 0.0,
			"-0.021": 0.0,
			"-0.02": 0.0,
			"-0.019": 0.0,
			"-0.018": 0.0,
			"-0.017": 0.0,
			"-0.016": 0.0,
			"-0.015": 0.0,
			"-0.014": 0.0,
			"-0.013": 0.0,
			"-0.012": 0.0,
			"-0.011": 0.0,
			"-0.01": 0.0,
			"-0.009": 0.0,
			"-0.008": 0.0,
			"-0.007": 2.2980796633,
			"-0.006": 15.3022952393,
			"-0.005": 21.7275794351,
			"-0.004": 30.2392539715,
			"-0.003": 34.9112663594,
			"-0.002": 34.9791574506,
			"-0.001": 34.9491832693,
			"0.0": 22.7541221484,
			"0.001": 16.2774031812,
			"0.002": 14.5320902139,
			"0.003": 13.5317791851,
			"0.004": 14.5595503844,
			"0.005": 6.32468852319,
			"0.006": 4.81306579716,
			"0.007": 3.18821199104,
			"0.008": 4.18260868279,
			"0.009": 3.35938676275,
			"0.01": 2.90100819306,
			"0.011": 4.66647668139,
			"0.012": 5.61435217451,
			"0.013": 5.18602944005,
			"0.014": 2.48983040723,
			"0.015": 0.312112431458,
			"0.016": 0.0,
			"0.017": 0.0,
			"0.018": 0.0,
			"0.019": 0.0,
			"0.02": 0.0,
			"0.021": 0.0,
			"0.022": 0.0,
			"0.023": 0.0,
			"0.024": 0.0,
			"0.025": 0.0
		}
	}
}
