{
	 "smiles": "O=C1OC=CO1", 
	 "Tm": 293.65, 
	 "num_atms": 8, 
	 "gaussian": { 
		 "optdone": 1, 
		 "sigma_profile": "yes", 
		 "theory": "DFT", 
		 "functional": "B3LYP", 
		 "basiset": "6-31G**", 
		 "properties": { 
			 "R2extent": 1003.3167, 
			 "electric_dipole_moment_norm": 4.59662600719, 
			 "electric_quadrupole_moment_norm": 11.194072833, 
			 "total_energy": -341.164972462, 
			 "HOMO_LUMO_gap": 0.25437, 
			 "cosmo_polarized_energy": -9.36, 
			 "cosmo_cavitation_energy": 12.89, 
			 "cosmo_dispersion_energy": -9.92, 
			 "cosmo_repulsion_energy": 0.86, 
			 "cosmo_total_nonelectrostatic_energy": 3.83, 
			 "SMD_solvation_energy": 5.59 
		},
		"coords": [
			{
				"x": -2.889514779,
				"y": -0.2320023679,
				"z": 1.8893846721,
				"element": "O" 
			},
			{
				"x": -1.8091432033,
				"y": -0.6130179849,
				"z": 1.5540568758,
				"element": "C" 
			},
			{
				"x": -0.6043134856,
				"y": -0.1514109962,
				"z": 2.0270139291,
				"element": "O" 
			},
			{
				"x": 0.3929825097,
				"y": -0.8597995012,
				"z": 1.3809474822,
				"element": "C" 
			},
			{
				"x": -0.1728925482,
				"y": -1.7262378576,
				"z": 0.5423037469,
				"element": "C" 
			},
			{
				"x": -1.5473274044,
				"y": -1.5953201522,
				"z": 0.6294325439,
				"element": "O" 
			},
			{
				"x": 1.4131704517,
				"y": -0.6240976956,
				"z": 1.6330305035,
				"element": "H" 
			},
			{
				"x": 0.2139384592,
				"y": -2.4603134444,
				"z": -0.1442697535,
				"element": "H" 
			}
		],
		 "valence_orbital": [ 
			{
				"type": "occ",
				"energy": -0.40547,
				"method": "rhf"
			},
			{
				"type": "occ",
				"energy": -0.39863,
				"method": "rhf"
			},
			{
				"type": "occ",
				"energy": -0.37493,
				"method": "rhf"
			},
			{
				"type": "occ",
				"energy": -0.30855,
				"method": "rhf"
			},
			{
				"type": "occ",
				"energy": -0.25491,
				"method": "rhf"
			},
			{
				"type": "unocc",
				"energy": -0.00054,
				"method": "rhf"
			},
			{
				"type": "unocc",
				"energy": 0.0253,
				"method": "rhf"
			},
			{
				"type": "unocc",
				"energy": 0.08416,
				"method": "rhf"
			},
			{
				"type": "unocc",
				"energy": 0.10328,
				"method": "rhf"
			},
			{
				"type": "unocc",
				"energy": 0.11655,
				"method": "rhf"
			}
		],
		"cosmo_sigma_profile": { 
			"-0.025": 0.0,
			"-0.024": 0.0,
			"-0.023": 0.0,
			"-0.022": 0.0,
			"-0.021": 0.0,
			"-0.02": 0.0,
			"-0.019": 0.0,
			"-0.018": 0.0,
			"-0.017": 0.0,
			"-0.016": 0.0,
			"-0.015": 0.0,
			"-0.014": 0.0,
			"-0.013": 0.0,
			"-0.012": 1.45540968907,
			"-0.011": 4.10739147613,
			"-0.01": 3.53491881409,
			"-0.009": 3.47085826714,
			"-0.008": 2.95187160163,
			"-0.007": 5.02606227005,
			"-0.006": 2.99050712037,
			"-0.005": 4.30539580159,
			"-0.004": 4.81787609374,
			"-0.003": 5.89724550911,
			"-0.002": 5.42819212735,
			"-0.001": 8.00145637431,
			"0.0": 6.13430405525,
			"0.001": 5.61434032806,
			"0.002": 3.13403540659,
			"0.003": 3.14639870457,
			"0.004": 4.1409165268,
			"0.005": 4.91290409782,
			"0.006": 6.14674350975,
			"0.007": 4.34093940315,
			"0.008": 1.39054984792,
			"0.009": 3.11248115973,
			"0.01": 5.30868533563,
			"0.011": 5.17473539065,
			"0.012": 0.2321646505,
			"0.013": 0.0,
			"0.014": 0.0,
			"0.015": 0.0,
			"0.016": 0.0,
			"0.017": 0.0,
			"0.018": 0.0,
			"0.019": 0.0,
			"0.02": 0.0,
			"0.021": 0.0,
			"0.022": 0.0,
			"0.023": 0.0,
			"0.024": 0.0,
			"0.025": 0.0
		}
	}
}
