{
	 "smiles": "C=C1CCC1", 
	 "Tm": 138.15, 
	 "num_atms": 13, 
	 "gaussian": { 
		 "optdone": 1, 
		 "sigma_profile": "yes", 
		 "theory": "DFT", 
		 "functional": "B3LYP", 
		 "basiset": "6-31G**", 
		 "properties": { 
			 "R2extent": 557.304, 
			 "electric_dipole_moment_norm": 0.533203244551, 
			 "electric_quadrupole_moment_norm": 0.994243903678, 
			 "total_energy": -195.30295821, 
			 "HOMO_LUMO_gap": 0.25884, 
			 "cosmo_polarized_energy": -1.53, 
			 "cosmo_cavitation_energy": 15.58, 
			 "cosmo_dispersion_energy": -11.63, 
			 "cosmo_repulsion_energy": 1.04, 
			 "cosmo_total_nonelectrostatic_energy": 4.99, 
			 "SMD_solvation_energy": 3.06 
		},
		"coords": [
			{
				"x": -1.7037710856,
				"y": -0.7655830059,
				"z": -0.1346567997,
				"element": "C" 
			},
			{
				"x": -0.7575911834,
				"y": 0.0889917774,
				"z": -0.5095518686,
				"element": "C" 
			},
			{
				"x": -0.6643246475,
				"y": 1.6093234594,
				"z": -0.5546232507,
				"element": "C" 
			},
			{
				"x": 0.5112020825,
				"y": 1.4553902626,
				"z": -1.5681103413,
				"element": "C" 
			},
			{
				"x": 0.5831327838,
				"y": -0.0627661621,
				"z": -1.2177653628,
				"element": "C" 
			},
			{
				"x": -2.6371263375,
				"y": -0.4241241423,
				"z": 0.3056397023,
				"element": "H" 
			},
			{
				"x": -1.5816350021,
				"y": -1.8389352712,
				"z": -0.2555131474,
				"element": "H" 
			},
			{
				"x": -0.3387930735,
				"y": 2.0396789112,
				"z": 0.4006707918,
				"element": "H" 
			},
			{
				"x": -1.5528601532,
				"y": 2.1549846676,
				"z": -0.8882977012,
				"element": "H" 
			},
			{
				"x": 0.1913042831,
				"y": 1.6258152208,
				"z": -2.5995795495,
				"element": "H" 
			},
			{
				"x": 1.4085626312,
				"y": 2.0484169854,
				"z": -1.3753782075,
				"element": "H" 
			},
			{
				"x": 1.4017019622,
				"y": -0.2932815502,
				"z": -0.5245349868,
				"element": "H" 
			},
			{
				"x": 0.6315977398,
				"y": -0.7730111528,
				"z": -2.0494992786,
				"element": "H" 
			}
		],
		 "valence_orbital": [ 
			{
				"type": "occ",
				"energy": -0.34983,
				"method": "rhf"
			},
			{
				"type": "occ",
				"energy": -0.33383,
				"method": "rhf"
			},
			{
				"type": "occ",
				"energy": -0.32266,
				"method": "rhf"
			},
			{
				"type": "occ",
				"energy": -0.30386,
				"method": "rhf"
			},
			{
				"type": "occ",
				"energy": -0.23863,
				"method": "rhf"
			},
			{
				"type": "unocc",
				"energy": 0.02021,
				"method": "rhf"
			},
			{
				"type": "unocc",
				"energy": 0.10438,
				"method": "rhf"
			},
			{
				"type": "unocc",
				"energy": 0.12686,
				"method": "rhf"
			},
			{
				"type": "unocc",
				"energy": 0.13888,
				"method": "rhf"
			},
			{
				"type": "unocc",
				"energy": 0.14404,
				"method": "rhf"
			}
		],
		"cosmo_sigma_profile": { 
			"-0.025": 0.0,
			"-0.024": 0.0,
			"-0.023": 0.0,
			"-0.022": 0.0,
			"-0.021": 0.0,
			"-0.02": 0.0,
			"-0.019": 0.0,
			"-0.018": 0.0,
			"-0.017": 0.0,
			"-0.016": 0.0,
			"-0.015": 0.0,
			"-0.014": 0.0,
			"-0.013": 0.0,
			"-0.012": 0.0,
			"-0.011": 0.0,
			"-0.01": 0.0,
			"-0.009": 0.0,
			"-0.008": 0.0,
			"-0.007": 0.0,
			"-0.006": 0.0,
			"-0.005": 0.443685467867,
			"-0.004": 7.18674610942,
			"-0.003": 13.7202933048,
			"-0.002": 17.6225635274,
			"-0.001": 19.8299252329,
			"0.0": 19.1831729666,
			"0.001": 16.6732392145,
			"0.002": 9.41630128774,
			"0.003": 4.05654411378,
			"0.004": 3.50248744888,
			"0.005": 3.67223123357,
			"0.006": 2.62924439757,
			"0.007": 2.64071916538,
			"0.008": 1.55703384879,
			"0.009": 0.132494714868,
			"0.01": 0.0,
			"0.011": 0.0,
			"0.012": 0.0,
			"0.013": 0.0,
			"0.014": 0.0,
			"0.015": 0.0,
			"0.016": 0.0,
			"0.017": 0.0,
			"0.018": 0.0,
			"0.019": 0.0,
			"0.02": 0.0,
			"0.021": 0.0,
			"0.022": 0.0,
			"0.023": 0.0,
			"0.024": 0.0,
			"0.025": 0.0
		}
	}
}
