{
	 "smiles": "C1CC(CCN1)C1=CC2=C(N1)C=CC=C2", 
	 "Tm": 466.15, 
	 "num_atms": 31, 
	 "gaussian": { 
		 "optdone": 1, 
		 "sigma_profile": "yes", 
		 "theory": "DFT", 
		 "functional": "B3LYP", 
		 "basiset": "6-31G**", 
		 "properties": { 
			 "R2extent": 4346.7554, 
			 "electric_dipole_moment_norm": 3.20642360583, 
			 "electric_quadrupole_moment_norm": 3.92682543921, 
			 "total_energy": -614.528279579, 
			 "HOMO_LUMO_gap": 0.19297, 
			 "cosmo_polarized_energy": -11.61, 
			 "cosmo_cavitation_energy": 32.04, 
			 "cosmo_dispersion_energy": -23.71, 
			 "cosmo_repulsion_energy": 1.84, 
			 "cosmo_total_nonelectrostatic_energy": 10.17, 
			 "SMD_solvation_energy": 1.96 
		},
		"coords": [
			{
				"x": 2.9975375338,
				"y": -0.8533609393,
				"z": 0.1076071326,
				"element": "C" 
			},
			{
				"x": 2.0234466361,
				"y": 0.2747206994,
				"z": -0.2555704471,
				"element": "C" 
			},
			{
				"x": 0.9806552717,
				"y": 0.4880221202,
				"z": 0.8941591702,
				"element": "C" 
			},
			{
				"x": 1.576797346,
				"y": 0.0323755577,
				"z": 2.2480832061,
				"element": "C" 
			},
			{
				"x": 3.0830698228,
				"y": 0.2912014093,
				"z": 2.298558303,
				"element": "C" 
			},
			{
				"x": 3.7709499345,
				"y": -0.5817694786,
				"z": 1.3321995735,
				"element": "N" 
			},
			{
				"x": -0.3377310484,
				"y": -0.1740705939,
				"z": 0.5985918118,
				"element": "C" 
			},
			{
				"x": -0.9276902041,
				"y": -1.3157943933,
				"z": 1.0879669549,
				"element": "C" 
			},
			{
				"x": -2.1848665292,
				"y": -1.487035972,
				"z": 0.412478644,
				"element": "C" 
			},
			{
				"x": -2.3156883585,
				"y": -0.4001569624,
				"z": -0.4957049816,
				"element": "C" 
			},
			{
				"x": -1.1800607018,
				"y": 0.3742516148,
				"z": -0.3629086533,
				"element": "N" 
			},
			{
				"x": -3.4332687111,
				"y": -0.2440026863,
				"z": -1.3210548376,
				"element": "C" 
			},
			{
				"x": -4.4369029237,
				"y": -1.2035187351,
				"z": -1.2306744786,
				"element": "C" 
			},
			{
				"x": -4.328673933,
				"y": -2.2906729155,
				"z": -0.3400065851,
				"element": "C" 
			},
			{
				"x": -3.2157480458,
				"y": -2.4399704675,
				"z": 0.4793069623,
				"element": "C" 
			},
			{
				"x": 2.4257654699,
				"y": -1.7830310586,
				"z": 0.2347831345,
				"element": "H" 
			},
			{
				"x": 3.6999122264,
				"y": -1.03792528,
				"z": -0.7117457458,
				"element": "H" 
			},
			{
				"x": 1.5114070555,
				"y": 0.0513146342,
				"z": -1.1979003703,
				"element": "H" 
			},
			{
				"x": 2.5909398577,
				"y": 1.2006714141,
				"z": -0.4123392371,
				"element": "H" 
			},
			{
				"x": 0.7923542121,
				"y": 1.5698858785,
				"z": 0.9638972185,
				"element": "H" 
			},
			{
				"x": 1.070577024,
				"y": 0.5430380306,
				"z": 3.0729699644,
				"element": "H" 
			},
			{
				"x": 1.414688161,
				"y": -1.0408119084,
				"z": 2.3926104893,
				"element": "H" 
			},
			{
				"x": 3.4677957616,
				"y": 0.0816242034,
				"z": 3.3044391081,
				"element": "H" 
			},
			{
				"x": 3.2616210428,
				"y": 1.3665222658,
				"z": 2.1127588935,
				"element": "H" 
			},
			{
				"x": 4.6663618719,
				"y": -0.173090979,
				"z": 1.0865881612,
				"element": "H" 
			},
			{
				"x": -0.5197727224,
				"y": -1.9655775887,
				"z": 1.8481828168,
				"element": "H" 
			},
			{
				"x": -1.0007256879,
				"y": 1.2329630753,
				"z": -0.8579761456,
				"element": "H" 
			},
			{
				"x": -3.516990773,
				"y": 0.5935648835,
				"z": -2.0083849466,
				"element": "H" 
			},
			{
				"x": -5.3187417108,
				"y": -1.1129502418,
				"z": -1.8583140247,
				"element": "H" 
			},
			{
				"x": -5.1306969971,
				"y": -3.0219092047,
				"z": -0.2957515502,
				"element": "H" 
			},
			{
				"x": -3.1423208813,
				"y": -3.2815063816,
				"z": 1.162950459,
				"element": "H" 
			}
		],
		 "valence_orbital": [ 
			{
				"type": "occ",
				"energy": -0.31094,
				"method": "rhf"
			},
			{
				"type": "occ",
				"energy": -0.26732,
				"method": "rhf"
			},
			{
				"type": "occ",
				"energy": -0.21158,
				"method": "rhf"
			},
			{
				"type": "occ",
				"energy": -0.20887,
				"method": "rhf"
			},
			{
				"type": "occ",
				"energy": -0.19463,
				"method": "rhf"
			},
			{
				"type": "unocc",
				"energy": -0.00166,
				"method": "rhf"
			},
			{
				"type": "unocc",
				"energy": 0.03501,
				"method": "rhf"
			},
			{
				"type": "unocc",
				"energy": 0.06643,
				"method": "rhf"
			},
			{
				"type": "unocc",
				"energy": 0.07877,
				"method": "rhf"
			},
			{
				"type": "unocc",
				"energy": 0.08622,
				"method": "rhf"
			}
		],
		"cosmo_sigma_profile": { 
			"-0.025": 0.0,
			"-0.024": 0.0,
			"-0.023": 0.0,
			"-0.022": 0.0,
			"-0.021": 0.0,
			"-0.02": 0.0,
			"-0.019": 0.0,
			"-0.018": 0.0,
			"-0.017": 0.0,
			"-0.016": 0.0,
			"-0.015": 0.508770559268,
			"-0.014": 1.1678529302,
			"-0.013": 1.48969597104,
			"-0.012": 0.758492550859,
			"-0.011": 1.27202834377,
			"-0.01": 1.58295464162,
			"-0.009": 2.81313062521,
			"-0.008": 3.0457078103,
			"-0.007": 3.00016832752,
			"-0.006": 3.72398858721,
			"-0.005": 10.4960284328,
			"-0.004": 17.6354663596,
			"-0.003": 23.4616301267,
			"-0.002": 34.9624778975,
			"-0.001": 27.8371185221,
			"0.0": 23.0955346128,
			"0.001": 14.6021059933,
			"0.002": 9.60358270873,
			"0.003": 10.1351330439,
			"0.004": 8.91406858457,
			"0.005": 13.1207363818,
			"0.006": 12.84344866,
			"0.007": 13.7258598206,
			"0.008": 5.11403879665,
			"0.009": 0.668707485278,
			"0.01": 0.893636219078,
			"0.011": 0.450366953322,
			"0.012": 0.394039194936,
			"0.013": 0.822662388402,
			"0.014": 0.894030664893,
			"0.015": 0.264822666406,
			"0.016": 0.452399149643,
			"0.017": 0.645613454199,
			"0.018": 0.44365191158,
			"0.019": 0.421240874163,
			"0.02": 0.0,
			"0.021": 0.0,
			"0.022": 0.0,
			"0.023": 0.0,
			"0.024": 0.0,
			"0.025": 0.0
		}
	}
}
