{
	 "smiles": "OC(=O)C1CCN(CC1)C1=CN=CC2=NN=NN12", 
	 "Tm": 433.15, 
	 "num_atms": 30, 
	 "gaussian": { 
		 "optdone": 1, 
		 "sigma_profile": "yes", 
		 "theory": "DFT", 
		 "functional": "B3LYP", 
		 "basiset": "6-31G**", 
		 "properties": { 
			 "R2extent": 4446.9158, 
			 "electric_dipole_moment_norm": 5.7553242741, 
			 "electric_quadrupole_moment_norm": 14.9606537578, 
			 "total_energy": -867.18941015, 
			 "HOMO_LUMO_gap": 0.16472, 
			 "cosmo_polarized_energy": -19.69, 
			 "cosmo_cavitation_energy": 32.76, 
			 "cosmo_dispersion_energy": -23.64, 
			 "cosmo_repulsion_energy": 1.79, 
			 "cosmo_total_nonelectrostatic_energy": 10.91, 
			 "SMD_solvation_energy": 2.76 
		},
		"coords": [
			{
				"x": 1.1120275392,
				"y": 2.2493696297,
				"z": 1.6514360558,
				"element": "O" 
			},
			{
				"x": 1.3073455279,
				"y": 1.9840139584,
				"z": 0.3400625186,
				"element": "C" 
			},
			{
				"x": 0.7344415582,
				"y": 2.5954806839,
				"z": -0.5377356969,
				"element": "O" 
			},
			{
				"x": 2.3524488497,
				"y": 0.8966066653,
				"z": 0.1246912336,
				"element": "C" 
			},
			{
				"x": 2.1069115759,
				"y": -0.3752794383,
				"z": 0.9876389757,
				"element": "C" 
			},
			{
				"x": 1.4102634576,
				"y": -1.4726494117,
				"z": 0.1669322171,
				"element": "C" 
			},
			{
				"x": 0.4769261778,
				"y": -0.8545164578,
				"z": -0.7909114123,
				"element": "N" 
			},
			{
				"x": 1.1409270956,
				"y": -0.1164833319,
				"z": -1.8756521737,
				"element": "C" 
			},
			{
				"x": 2.4467459718,
				"y": 0.5249581817,
				"z": -1.3623982088,
				"element": "C" 
			},
			{
				"x": -0.8002456386,
				"y": -1.2934004943,
				"z": -0.9991998551,
				"element": "C" 
			},
			{
				"x": -1.4734685663,
				"y": -1.2887304493,
				"z": -2.2214405507,
				"element": "C" 
			},
			{
				"x": -2.7654234052,
				"y": -1.6633649357,
				"z": -2.3934171514,
				"element": "N" 
			},
			{
				"x": -3.4678352748,
				"y": -2.0790946679,
				"z": -1.361937194,
				"element": "C" 
			},
			{
				"x": -2.8864925872,
				"y": -2.121010199,
				"z": -0.0729040915,
				"element": "C" 
			},
			{
				"x": -3.347561344,
				"y": -2.4416119268,
				"z": 1.1411904318,
				"element": "N" 
			},
			{
				"x": -2.3331273464,
				"y": -2.2292837253,
				"z": 1.9880620434,
				"element": "N" 
			},
			{
				"x": -1.2565909387,
				"y": -1.7935019949,
				"z": 1.3938678456,
				"element": "N" 
			},
			{
				"x": -1.576029281,
				"y": -1.7239874646,
				"z": 0.0669544076,
				"element": "N" 
			},
			{
				"x": 0.4480406391,
				"y": 2.9580963673,
				"z": 1.6921313402,
				"element": "H" 
			},
			{
				"x": 3.2982496789,
				"y": 1.3524661809,
				"z": 0.4446138473,
				"element": "H" 
			},
			{
				"x": 3.0610388098,
				"y": -0.7629572468,
				"z": 1.3592613156,
				"element": "H" 
			},
			{
				"x": 1.4970867296,
				"y": -0.1247729686,
				"z": 1.8579085799,
				"element": "H" 
			},
			{
				"x": 0.8711049088,
				"y": -2.1488305951,
				"z": 0.8249090563,
				"element": "H" 
			},
			{
				"x": 2.1422549567,
				"y": -2.0658520903,
				"z": -0.4003013466,
				"element": "H" 
			},
			{
				"x": 1.3611553061,
				"y": -0.7776848927,
				"z": -2.7285669659,
				"element": "H" 
			},
			{
				"x": 0.4586318088,
				"y": 0.6664674245,
				"z": -2.2129955903,
				"element": "H" 
			},
			{
				"x": 3.2878670157,
				"y": -0.1644081117,
				"z": -1.4912655594,
				"element": "H" 
			},
			{
				"x": 2.6579910051,
				"y": 1.4088024819,
				"z": -1.9688719409,
				"element": "H" 
			},
			{
				"x": -0.9474209202,
				"y": -0.9732347611,
				"z": -3.1134928735,
				"element": "H" 
			},
			{
				"x": -4.4989633101,
				"y": -2.3857064099,
				"z": -1.5053692574,
				"element": "H" 
			}
		],
		 "valence_orbital": [ 
			{
				"type": "occ",
				"energy": -0.29289,
				"method": "rhf"
			},
			{
				"type": "occ",
				"energy": -0.28426,
				"method": "rhf"
			},
			{
				"type": "occ",
				"energy": -0.28337,
				"method": "rhf"
			},
			{
				"type": "occ",
				"energy": -0.2761,
				"method": "rhf"
			},
			{
				"type": "occ",
				"energy": -0.22264,
				"method": "rhf"
			},
			{
				"type": "unocc",
				"energy": -0.05792,
				"method": "rhf"
			},
			{
				"type": "unocc",
				"energy": -0.03546,
				"method": "rhf"
			},
			{
				"type": "unocc",
				"energy": -0.00407,
				"method": "rhf"
			},
			{
				"type": "unocc",
				"energy": 0.02495,
				"method": "rhf"
			},
			{
				"type": "unocc",
				"energy": 0.06519,
				"method": "rhf"
			}
		],
		"cosmo_sigma_profile": { 
			"-0.025": 0.0,
			"-0.024": 0.0,
			"-0.023": 0.0,
			"-0.022": 0.0,
			"-0.021": 0.0,
			"-0.02": 0.0,
			"-0.019": 0.0426488192523,
			"-0.018": 0.635560138287,
			"-0.017": 1.1644659373,
			"-0.016": 0.837307369333,
			"-0.015": 1.00367660902,
			"-0.014": 0.373415206564,
			"-0.013": 0.0267170362447,
			"-0.012": 0.483944100917,
			"-0.011": 1.7662926999,
			"-0.01": 0.615271259818,
			"-0.009": 0.901682461232,
			"-0.008": 3.46513300092,
			"-0.007": 7.75443196826,
			"-0.006": 14.7005855415,
			"-0.005": 26.5786638264,
			"-0.004": 29.1100677452,
			"-0.003": 23.7936693458,
			"-0.002": 18.3771468033,
			"-0.001": 16.9990206602,
			"0.0": 12.7643748162,
			"0.001": 9.68534218924,
			"0.002": 9.24601457164,
			"0.003": 8.64613134065,
			"0.004": 7.7346748901,
			"0.005": 7.30316096273,
			"0.006": 7.38573497793,
			"0.007": 7.69620914215,
			"0.008": 8.47670503337,
			"0.009": 6.70363866344,
			"0.01": 6.78026388456,
			"0.011": 6.19901617479,
			"0.012": 6.78497723553,
			"0.013": 3.40030819363,
			"0.014": 1.91353758417,
			"0.015": 0.814611405483,
			"0.016": 0.0,
			"0.017": 0.0,
			"0.018": 0.0,
			"0.019": 0.0,
			"0.02": 0.0,
			"0.021": 0.0,
			"0.022": 0.0,
			"0.023": 0.0,
			"0.024": 0.0,
			"0.025": 0.0
		}
	}
}
