{
	 "smiles": "OC(=O)C=CC1=CC2=C(OCCCO2)C(Cl)=C1", 
	 "Tm": 452.15, 
	 "num_atms": 28, 
	 "gaussian": { 
		 "optdone": 1, 
		 "sigma_profile": "yes", 
		 "theory": "DFT", 
		 "functional": "B3LYP", 
		 "basiset": "6-31G**", 
		 "properties": { 
			 "R2extent": 6492.2963, 
			 "electric_dipole_moment_norm": 5.46132013436, 
			 "electric_quadrupole_moment_norm": 8.41009850953, 
			 "total_energy": -1224.97239654, 
			 "HOMO_LUMO_gap": 0.15523, 
			 "cosmo_polarized_energy": -14.34, 
			 "cosmo_cavitation_energy": 34.07, 
			 "cosmo_dispersion_energy": -25.17, 
			 "cosmo_repulsion_energy": 1.96, 
			 "cosmo_total_nonelectrostatic_energy": 10.87, 
			 "SMD_solvation_energy": 7.0 
		},
		"coords": [
			{
				"x": 2.4073772543,
				"y": -4.5612280181,
				"z": -1.0274784565,
				"element": "O" 
			},
			{
				"x": 1.9370348692,
				"y": -4.608017334,
				"z": 0.2497515506,
				"element": "C" 
			},
			{
				"x": 2.0138440246,
				"y": -5.6165442811,
				"z": 0.9262974531,
				"element": "O" 
			},
			{
				"x": 1.3422162116,
				"y": -3.3453834872,
				"z": 0.7142944925,
				"element": "C" 
			},
			{
				"x": 1.2597166846,
				"y": -2.2336125314,
				"z": -0.0418054735,
				"element": "C" 
			},
			{
				"x": 0.6846636843,
				"y": -0.9438556461,
				"z": 0.3387516143,
				"element": "C" 
			},
			{
				"x": 0.7129084658,
				"y": 0.1053001764,
				"z": -0.5920382514,
				"element": "C" 
			},
			{
				"x": 0.1860525546,
				"y": 1.360660628,
				"z": -0.2972613771,
				"element": "C" 
			},
			{
				"x": -0.4200881604,
				"y": 1.5965943975,
				"z": 0.9566033618,
				"element": "C" 
			},
			{
				"x": -0.984671436,
				"y": 2.7812779957,
				"z": 1.3205579222,
				"element": "O" 
			},
			{
				"x": -1.6813607976,
				"y": 3.5142435717,
				"z": 0.2961526695,
				"element": "C" 
			},
			{
				"x": -0.7333016866,
				"y": 4.4127043194,
				"z": -0.4971040371,
				"element": "C" 
			},
			{
				"x": 0.5497036997,
				"y": 3.657853767,
				"z": -0.8499278538,
				"element": "C" 
			},
			{
				"x": 0.2704156247,
				"y": 2.3155092564,
				"z": -1.2809231773,
				"element": "O" 
			},
			{
				"x": -0.4191739183,
				"y": 0.545829627,
				"z": 1.8945724058,
				"element": "C" 
			},
			{
				"x": -1.1448446172,
				"y": 0.8196522541,
				"z": 3.4645360775,
				"element": "Cl" 
			},
			{
				"x": 0.1208806006,
				"y": -0.6981061315,
				"z": 1.603749004,
				"element": "C" 
			},
			{
				"x": 2.7663985235,
				"y": -5.4461856273,
				"z": -1.20164877,
				"element": "H" 
			},
			{
				"x": 0.9721593687,
				"y": -3.3929580261,
				"z": 1.732802742,
				"element": "H" 
			},
			{
				"x": 1.6600016222,
				"y": -2.2838945966,
				"z": -1.0517683557,
				"element": "H" 
			},
			{
				"x": 1.1645057211,
				"y": -0.032879452,
				"z": -1.5692410977,
				"element": "H" 
			},
			{
				"x": -2.193582719,
				"y": 2.8084789753,
				"z": -0.3661595632,
				"element": "H" 
			},
			{
				"x": -2.4376632099,
				"y": 4.1001423741,
				"z": 0.8240096969,
				"element": "H" 
			},
			{
				"x": -0.4693822812,
				"y": 5.3063204306,
				"z": 0.0800577572,
				"element": "H" 
			},
			{
				"x": -1.2501111261,
				"y": 4.7482266489,
				"z": -1.4037540501,
				"element": "H" 
			},
			{
				"x": 1.0725162312,
				"y": 4.1331296613,
				"z": -1.6840669989,
				"element": "H" 
			},
			{
				"x": 1.2310572035,
				"y": 3.6292717352,
				"z": 0.0076662096,
				"element": "H" 
			},
			{
				"x": 0.0850276081,
				"y": -1.4717306871,
				"z": 2.3609745053,
				"element": "H" 
			}
		],
		 "valence_orbital": [ 
			{
				"type": "occ",
				"energy": -0.30778,
				"method": "rhf"
			},
			{
				"type": "occ",
				"energy": -0.27953,
				"method": "rhf"
			},
			{
				"type": "occ",
				"energy": -0.26885,
				"method": "rhf"
			},
			{
				"type": "occ",
				"energy": -0.24371,
				"method": "rhf"
			},
			{
				"type": "occ",
				"energy": -0.22292,
				"method": "rhf"
			},
			{
				"type": "unocc",
				"energy": -0.06769,
				"method": "rhf"
			},
			{
				"type": "unocc",
				"energy": -0.01565,
				"method": "rhf"
			},
			{
				"type": "unocc",
				"energy": 0.01877,
				"method": "rhf"
			},
			{
				"type": "unocc",
				"energy": 0.0247,
				"method": "rhf"
			},
			{
				"type": "unocc",
				"energy": 0.07039,
				"method": "rhf"
			}
		],
		"cosmo_sigma_profile": { 
			"-0.025": 0.0,
			"-0.024": 0.0,
			"-0.023": 0.0,
			"-0.022": 0.0,
			"-0.021": 0.0,
			"-0.02": 0.0,
			"-0.019": 0.0,
			"-0.018": 0.478070455177,
			"-0.017": 1.12903265225,
			"-0.016": 0.468383954973,
			"-0.015": 0.800430027903,
			"-0.014": 0.957663023833,
			"-0.013": 0.408644953868,
			"-0.012": 0.385765019706,
			"-0.011": 1.06425702237,
			"-0.01": 0.728754235417,
			"-0.009": 2.09704851033,
			"-0.008": 4.75913228899,
			"-0.007": 5.67539705666,
			"-0.006": 12.2011674563,
			"-0.005": 22.5202162315,
			"-0.004": 23.1010303846,
			"-0.003": 17.849667397,
			"-0.002": 15.5504450471,
			"-0.001": 17.2437953834,
			"0.0": 18.8097827186,
			"0.001": 22.9226930827,
			"0.002": 28.4266375886,
			"0.003": 15.8431454268,
			"0.004": 13.5914240277,
			"0.005": 10.158699791,
			"0.006": 5.01287316411,
			"0.007": 5.89487698277,
			"0.008": 5.4609674156,
			"0.009": 4.48957690634,
			"0.01": 3.60730687009,
			"0.011": 3.8116750289,
			"0.012": 5.17727453847,
			"0.013": 2.58930550298,
			"0.014": 0.143656574998,
			"0.015": 0.0,
			"0.016": 0.0,
			"0.017": 0.0,
			"0.018": 0.0,
			"0.019": 0.0,
			"0.02": 0.0,
			"0.021": 0.0,
			"0.022": 0.0,
			"0.023": 0.0,
			"0.024": 0.0,
			"0.025": 0.0
		}
	}
}
