{
	 "smiles": "CC(N1C=C(Cl)C=N1)C(O)=O", 
	 "Tm": 330.65, 
	 "num_atms": 18, 
	 "gaussian": { 
		 "optdone": 1, 
		 "sigma_profile": "yes", 
		 "theory": "DFT", 
		 "functional": "B3LYP", 
		 "basiset": "6-31G**", 
		 "properties": { 
			 "R2extent": 2608.5882, 
			 "electric_dipole_moment_norm": 3.57441183134, 
			 "electric_quadrupole_moment_norm": 19.954811935, 
			 "total_energy": -952.985637938, 
			 "HOMO_LUMO_gap": 0.23101, 
			 "cosmo_polarized_energy": -12.32, 
			 "cosmo_cavitation_energy": 23.9, 
			 "cosmo_dispersion_energy": -17.87, 
			 "cosmo_repulsion_energy": 1.44, 
			 "cosmo_total_nonelectrostatic_energy": 7.47, 
			 "SMD_solvation_energy": 4.95 
		},
		"coords": [
			{
				"x": 0.0456781429,
				"y": -0.7924634981,
				"z": -2.7845105522,
				"element": "C" 
			},
			{
				"x": 0.7424864581,
				"y": -1.057382627,
				"z": -1.4559499227,
				"element": "C" 
			},
			{
				"x": -0.0141457026,
				"y": -0.5126008766,
				"z": -0.3146043965,
				"element": "N" 
			},
			{
				"x": -1.1733832457,
				"y": 0.193069303,
				"z": -0.302293454,
				"element": "C" 
			},
			{
				"x": -1.4262573258,
				"y": 0.4973418078,
				"z": 1.0251754093,
				"element": "C" 
			},
			{
				"x": -2.7741657459,
				"y": 1.3895318754,
				"z": 1.6427236122,
				"element": "Cl" 
			},
			{
				"x": -0.3668267701,
				"y": -0.0662961745,
				"z": 1.7563134298,
				"element": "C" 
			},
			{
				"x": 0.4908649068,
				"y": -0.670032839,
				"z": 0.9327113803,
				"element": "N" 
			},
			{
				"x": 1.0613675368,
				"y": -2.5733047995,
				"z": -1.2821466105,
				"element": "C" 
			},
			{
				"x": 1.3647512291,
				"y": -2.9811010336,
				"z": -0.0498855669,
				"element": "O" 
			},
			{
				"x": 1.1005020021,
				"y": -3.3070839215,
				"z": -2.2415463601,
				"element": "O" 
			},
			{
				"x": -0.9405263262,
				"y": -1.2634182042,
				"z": -2.8175112091,
				"element": "H" 
			},
			{
				"x": -0.0546926168,
				"y": 0.2798625926,
				"z": -2.9719003072,
				"element": "H" 
			},
			{
				"x": 0.6447505918,
				"y": -1.237579233,
				"z": -3.5783370008,
				"element": "H" 
			},
			{
				"x": 1.7158433626,
				"y": -0.5485390643,
				"z": -1.4478595784,
				"element": "H" 
			},
			{
				"x": -1.7260036533,
				"y": 0.4339777209,
				"z": -1.1951246702,
				"element": "H" 
			},
			{
				"x": -0.1984254049,
				"y": -0.0573986735,
				"z": 2.8235047841,
				"element": "H" 
			},
			{
				"x": 1.236882561,
				"y": -2.2374823552,
				"z": 0.592241013,
				"element": "H" 
			}
		],
		 "valence_orbital": [ 
			{
				"type": "occ",
				"energy": -0.31782,
				"method": "rhf"
			},
			{
				"type": "occ",
				"energy": -0.31306,
				"method": "rhf"
			},
			{
				"type": "occ",
				"energy": -0.29678,
				"method": "rhf"
			},
			{
				"type": "occ",
				"energy": -0.27616,
				"method": "rhf"
			},
			{
				"type": "occ",
				"energy": -0.25482,
				"method": "rhf"
			},
			{
				"type": "unocc",
				"energy": -0.02381,
				"method": "rhf"
			},
			{
				"type": "unocc",
				"energy": 0.00352,
				"method": "rhf"
			},
			{
				"type": "unocc",
				"energy": 0.02492,
				"method": "rhf"
			},
			{
				"type": "unocc",
				"energy": 0.035,
				"method": "rhf"
			},
			{
				"type": "unocc",
				"energy": 0.08473,
				"method": "rhf"
			}
		],
		"cosmo_sigma_profile": { 
			"-0.025": 0.0,
			"-0.024": 0.0,
			"-0.023": 0.0,
			"-0.022": 0.0,
			"-0.021": 0.0,
			"-0.02": 0.0,
			"-0.019": 0.0,
			"-0.018": 0.0,
			"-0.017": 0.0,
			"-0.016": 0.0,
			"-0.015": 0.0,
			"-0.014": 0.0,
			"-0.013": 0.0,
			"-0.012": 0.0,
			"-0.011": 0.140975148604,
			"-0.01": 2.07481679141,
			"-0.009": 6.29682874861,
			"-0.008": 6.72569848926,
			"-0.007": 8.49190653359,
			"-0.006": 11.7307943027,
			"-0.005": 10.9262135836,
			"-0.004": 11.7499380117,
			"-0.003": 10.7257346627,
			"-0.002": 12.7906007469,
			"-0.001": 13.4094970104,
			"0.0": 11.5562647066,
			"0.001": 13.499214922,
			"0.002": 14.2135153038,
			"0.003": 11.1644699177,
			"0.004": 13.365539904,
			"0.005": 5.35755102867,
			"0.006": 2.37881823653,
			"0.007": 3.75646436757,
			"0.008": 3.15406348378,
			"0.009": 3.69338571745,
			"0.01": 5.29503424042,
			"0.011": 5.21582137472,
			"0.012": 4.28139948584,
			"0.013": 1.22559633409,
			"0.014": 0.0180962954827,
			"0.015": 0.0,
			"0.016": 0.0,
			"0.017": 0.0,
			"0.018": 0.0,
			"0.019": 0.0,
			"0.02": 0.0,
			"0.021": 0.0,
			"0.022": 0.0,
			"0.023": 0.0,
			"0.024": 0.0,
			"0.025": 0.0
		}
	}
}
