{
	 "smiles": "NNC(=O)CSC1=CC=CC=C1[N+]([O-])=O", 
	 "Tm": 439.15, 
	 "num_atms": 24, 
	 "gaussian": { 
		 "optdone": 1, 
		 "sigma_profile": "yes", 
		 "theory": "DFT", 
		 "functional": "B3LYP", 
		 "basiset": "6-31G**", 
		 "properties": { 
			 "R2extent": 4302.5531, 
			 "electric_dipole_moment_norm": 6.60967347151, 
			 "electric_quadrupole_moment_norm": 16.2806687986, 
			 "total_energy": -1098.24919037, 
			 "HOMO_LUMO_gap": 0.1394, 
			 "cosmo_polarized_energy": -19.12, 
			 "cosmo_cavitation_energy": 30.23, 
			 "cosmo_dispersion_energy": -21.64, 
			 "cosmo_repulsion_energy": 1.68, 
			 "cosmo_total_nonelectrostatic_energy": 10.27, 
			 "SMD_solvation_energy": 8.07 
		},
		"coords": [
			{
				"x": 0.8942725817,
				"y": -1.3273118297,
				"z": 0.7543989823,
				"element": "N" 
			},
			{
				"x": 0.5120383566,
				"y": -2.4743529837,
				"z": 1.464131601,
				"element": "N" 
			},
			{
				"x": -0.7285993788,
				"y": -2.5937215138,
				"z": 2.0352447995,
				"element": "C" 
			},
			{
				"x": -1.1076569975,
				"y": -3.6474827641,
				"z": 2.5251816482,
				"element": "O" 
			},
			{
				"x": -1.607106952,
				"y": -1.3493070349,
				"z": 2.0172196431,
				"element": "C" 
			},
			{
				"x": -2.598709118,
				"y": -1.2970581308,
				"z": 0.4472899627,
				"element": "S" 
			},
			{
				"x": -2.0092630278,
				"y": 0.1974748413,
				"z": -0.3379194914,
				"element": "C" 
			},
			{
				"x": -2.1760416015,
				"y": 1.440753916,
				"z": 0.2935431936,
				"element": "C" 
			},
			{
				"x": -1.8444359075,
				"y": 2.6332873823,
				"z": -0.3445829986,
				"element": "C" 
			},
			{
				"x": -1.3861370104,
				"y": 2.6217391395,
				"z": -1.6645360294,
				"element": "C" 
			},
			{
				"x": -1.2427043891,
				"y": 1.408724065,
				"z": -2.3286450948,
				"element": "C" 
			},
			{
				"x": -1.5188845362,
				"y": 0.2178537947,
				"z": -1.6535178098,
				"element": "C" 
			},
			{
				"x": -1.2393113109,
				"y": -1.0143021035,
				"z": -2.4171099263,
				"element": "N" 
			},
			{
				"x": -1.696257817,
				"y": -1.07727268,
				"z": -3.554029651,
				"element": "O" 
			},
			{
				"x": -0.5239554084,
				"y": -1.874351875,
				"z": -1.901095746,
				"element": "O" 
			},
			{
				"x": 1.860258511,
				"y": -1.1036299109,
				"z": 0.9710195926,
				"element": "H" 
			},
			{
				"x": 0.7731535909,
				"y": -1.472940374,
				"z": -0.246644525,
				"element": "H" 
			},
			{
				"x": 0.9879722225,
				"y": -3.3592874288,
				"z": 1.3123734634,
				"element": "H" 
			},
			{
				"x": -1.0255307086,
				"y": -0.431161667,
				"z": 2.0821482672,
				"element": "H" 
			},
			{
				"x": -2.3132162136,
				"y": -1.4331695702,
				"z": 2.8432366469,
				"element": "H" 
			},
			{
				"x": -2.5934932867,
				"y": 1.4617095182,
				"z": 1.2949572504,
				"element": "H" 
			},
			{
				"x": -1.9753194579,
				"y": 3.5754349155,
				"z": 0.1789723135,
				"element": "H" 
			},
			{
				"x": -1.1525918153,
				"y": 3.549467116,
				"z": -2.1765720728,
				"element": "H" 
			},
			{
				"x": -0.9020803256,
				"y": 1.3632051776,
				"z": -3.3567640194,
				"element": "H" 
			}
		],
		 "valence_orbital": [ 
			{
				"type": "occ",
				"energy": -0.28317,
				"method": "rhf"
			},
			{
				"type": "occ",
				"energy": -0.27883,
				"method": "rhf"
			},
			{
				"type": "occ",
				"energy": -0.25833,
				"method": "rhf"
			},
			{
				"type": "occ",
				"energy": -0.2521,
				"method": "rhf"
			},
			{
				"type": "occ",
				"energy": -0.23037,
				"method": "rhf"
			},
			{
				"type": "unocc",
				"energy": -0.09097,
				"method": "rhf"
			},
			{
				"type": "unocc",
				"energy": -0.0467,
				"method": "rhf"
			},
			{
				"type": "unocc",
				"energy": -0.02901,
				"method": "rhf"
			},
			{
				"type": "unocc",
				"energy": 0.00939,
				"method": "rhf"
			},
			{
				"type": "unocc",
				"energy": 0.03007,
				"method": "rhf"
			}
		],
		"cosmo_sigma_profile": { 
			"-0.025": 0.0,
			"-0.024": 0.0,
			"-0.023": 0.0,
			"-0.022": 0.0,
			"-0.021": 0.0,
			"-0.02": 0.0,
			"-0.019": 0.0,
			"-0.018": 0.0,
			"-0.017": 0.0,
			"-0.016": 0.0,
			"-0.015": 0.0,
			"-0.014": 0.377730790642,
			"-0.013": 1.58360971721,
			"-0.012": 2.44817187571,
			"-0.011": 2.37517019704,
			"-0.01": 3.07993208917,
			"-0.009": 3.53695252118,
			"-0.008": 8.22516703619,
			"-0.007": 15.5749572372,
			"-0.006": 16.2156390501,
			"-0.005": 14.8563751934,
			"-0.004": 13.6119968045,
			"-0.003": 12.5849659676,
			"-0.002": 9.76739532826,
			"-0.001": 10.796909903,
			"0.0": 13.0374112639,
			"0.001": 16.8282782504,
			"0.002": 17.5532634734,
			"0.003": 12.1755099178,
			"0.004": 9.73829266846,
			"0.005": 8.23079278887,
			"0.006": 9.21428804192,
			"0.007": 11.8849974506,
			"0.008": 8.74104780377,
			"0.009": 5.0917719222,
			"0.01": 1.89872254761,
			"0.011": 1.0741275618,
			"0.012": 1.96234587761,
			"0.013": 5.23993498508,
			"0.014": 4.31952954025,
			"0.015": 0.433755724123,
			"0.016": 0.0,
			"0.017": 0.0,
			"0.018": 0.0,
			"0.019": 0.0,
			"0.02": 0.0,
			"0.021": 0.0,
			"0.022": 0.0,
			"0.023": 0.0,
			"0.024": 0.0,
			"0.025": 0.0
		}
	}
}
