{
	 "smiles": "CCC(C)(C)OC(N)=O", 
	 "Tm": 359.15, 
	 "num_atms": 22, 
	 "gaussian": { 
		 "optdone": 1, 
		 "sigma_profile": "yes", 
		 "theory": "DFT", 
		 "functional": "B3LYP", 
		 "basiset": "6-31G**", 
		 "properties": { 
			 "R2extent": 1635.7305, 
			 "electric_dipole_moment_norm": 2.30006110571, 
			 "electric_quadrupole_moment_norm": 14.6102489055, 
			 "total_energy": -441.714573181, 
			 "HOMO_LUMO_gap": 0.32053, 
			 "cosmo_polarized_energy": -9.64, 
			 "cosmo_cavitation_energy": 23.77, 
			 "cosmo_dispersion_energy": -17.09, 
			 "cosmo_repulsion_energy": 1.43, 
			 "cosmo_total_nonelectrostatic_energy": 8.12, 
			 "SMD_solvation_energy": 5.37 
		},
		"coords": [
			{
				"x": 0.8547380348,
				"y": 1.6076040967,
				"z": -0.3907205483,
				"element": "C" 
			},
			{
				"x": 0.9692571189,
				"y": 0.7382272378,
				"z": 0.8662013565,
				"element": "C" 
			},
			{
				"x": 0.0762586947,
				"y": -0.5205586985,
				"z": 0.8907025473,
				"element": "C" 
			},
			{
				"x": 0.2102999608,
				"y": -1.2650430985,
				"z": 2.224531722,
				"element": "C" 
			},
			{
				"x": 0.3796004107,
				"y": -1.4661855498,
				"z": -0.2755380085,
				"element": "C" 
			},
			{
				"x": -1.3311108048,
				"y": -0.1650007086,
				"z": 0.654256918,
				"element": "O" 
			},
			{
				"x": -1.9976075188,
				"y": 0.6492644584,
				"z": 1.5103479212,
				"element": "C" 
			},
			{
				"x": -3.2826255299,
				"y": 0.8051455387,
				"z": 1.0752081352,
				"element": "N" 
			},
			{
				"x": -1.5506505738,
				"y": 1.1745874434,
				"z": 2.5154992808,
				"element": "O" 
			},
			{
				"x": 1.1895665307,
				"y": 1.0841094251,
				"z": -1.2919212161,
				"element": "H" 
			},
			{
				"x": 1.4717229286,
				"y": 2.505547253,
				"z": -0.2858278183,
				"element": "H" 
			},
			{
				"x": -0.1768893185,
				"y": 1.9321486225,
				"z": -0.556859757,
				"element": "H" 
			},
			{
				"x": 2.0057659395,
				"y": 0.3965619238,
				"z": 0.9846056144,
				"element": "H" 
			},
			{
				"x": 0.7289652211,
				"y": 1.3376089266,
				"z": 1.7472489466,
				"element": "H" 
			},
			{
				"x": -0.4673866936,
				"y": -2.1244350488,
				"z": 2.2483130695,
				"element": "H" 
			},
			{
				"x": 1.2337712139,
				"y": -1.6375036214,
				"z": 2.3372291118,
				"element": "H" 
			},
			{
				"x": -0.0218583621,
				"y": -0.6092412663,
				"z": 3.0639197962,
				"element": "H" 
			},
			{
				"x": -0.2536671214,
				"y": -2.3562542581,
				"z": -0.2178735307,
				"element": "H" 
			},
			{
				"x": 0.1966541652,
				"y": -0.9822501921,
				"z": -1.2378904208,
				"element": "H" 
			},
			{
				"x": 1.4261077543,
				"y": -1.7838839807,
				"z": -0.2391567481,
				"element": "H" 
			},
			{
				"x": -3.6047677289,
				"y": 0.3603901233,
				"z": 0.2327978787,
				"element": "H" 
			},
			{
				"x": -3.8935443214,
				"y": 1.3994613735,
				"z": 1.6079257496,
				"element": "H" 
			}
		],
		 "valence_orbital": [ 
			{
				"type": "occ",
				"energy": -0.33027,
				"method": "rhf"
			},
			{
				"type": "occ",
				"energy": -0.32046,
				"method": "rhf"
			},
			{
				"type": "occ",
				"energy": -0.28194,
				"method": "rhf"
			},
			{
				"type": "occ",
				"energy": -0.26527,
				"method": "rhf"
			},
			{
				"type": "occ",
				"energy": -0.25792,
				"method": "rhf"
			},
			{
				"type": "unocc",
				"energy": 0.06261,
				"method": "rhf"
			},
			{
				"type": "unocc",
				"energy": 0.07811,
				"method": "rhf"
			},
			{
				"type": "unocc",
				"energy": 0.09558,
				"method": "rhf"
			},
			{
				"type": "unocc",
				"energy": 0.11163,
				"method": "rhf"
			},
			{
				"type": "unocc",
				"energy": 0.12866,
				"method": "rhf"
			}
		],
		"cosmo_sigma_profile": { 
			"-0.025": 0.0,
			"-0.024": 0.0,
			"-0.023": 0.0,
			"-0.022": 0.0,
			"-0.021": 0.0,
			"-0.02": 0.0,
			"-0.019": 0.0,
			"-0.018": 0.0,
			"-0.017": 0.0,
			"-0.016": 0.0,
			"-0.015": 0.00737645370724,
			"-0.014": 1.69916800467,
			"-0.013": 2.20278288259,
			"-0.012": 2.45100016684,
			"-0.011": 1.26600847011,
			"-0.01": 2.22054083498,
			"-0.009": 2.1278119288,
			"-0.008": 1.49701201355,
			"-0.007": 1.91709598778,
			"-0.006": 1.22509566809,
			"-0.005": 0.95495213617,
			"-0.004": 7.79140512119,
			"-0.003": 19.0318483853,
			"-0.002": 18.834463442,
			"-0.001": 21.0766140098,
			"0.0": 26.5178242281,
			"0.001": 25.2243276181,
			"0.002": 9.89757486166,
			"0.003": 7.12786821457,
			"0.004": 5.05112614446,
			"0.005": 4.67758163508,
			"0.006": 3.54399901208,
			"0.007": 2.84963153805,
			"0.008": 2.41848223519,
			"0.009": 1.65942190463,
			"0.01": 1.04965623833,
			"0.011": 1.61570522604,
			"0.012": 1.66565051505,
			"0.013": 2.90151697097,
			"0.014": 3.19490884657,
			"0.015": 0.272718725366,
			"0.016": 0.0,
			"0.017": 0.0,
			"0.018": 0.0,
			"0.019": 0.0,
			"0.02": 0.0,
			"0.021": 0.0,
			"0.022": 0.0,
			"0.023": 0.0,
			"0.024": 0.0,
			"0.025": 0.0
		}
	}
}
