{
	 "smiles": "CC1=CC(=CC=C1)C(O)=O", 
	 "Tm": 383.15, 
	 "num_atms": 18, 
	 "gaussian": { 
		 "optdone": 1, 
		 "sigma_profile": "yes", 
		 "theory": "DFT", 
		 "functional": "B3LYP", 
		 "basiset": "6-31G**", 
		 "properties": { 
			 "R2extent": 2229.8975, 
			 "electric_dipole_moment_norm": 1.90701205292, 
			 "electric_quadrupole_moment_norm": 8.3620800032, 
			 "total_energy": -460.147366494, 
			 "HOMO_LUMO_gap": 0.20367, 
			 "cosmo_polarized_energy": -8.64, 
			 "cosmo_cavitation_energy": 22.26, 
			 "cosmo_dispersion_energy": -16.47, 
			 "cosmo_repulsion_energy": 1.34, 
			 "cosmo_total_nonelectrostatic_energy": 7.13, 
			 "SMD_solvation_energy": 5.19 
		},
		"coords": [
			{
				"x": 1.4243743922,
				"y": -2.7098599574,
				"z": -1.4344815563,
				"element": "C" 
			},
			{
				"x": 0.2864632212,
				"y": -1.7195356866,
				"z": -1.3492036397,
				"element": "C" 
			},
			{
				"x": -0.550852842,
				"y": -1.6739881608,
				"z": -0.2333199686,
				"element": "C" 
			},
			{
				"x": -1.6127247497,
				"y": -0.761373769,
				"z": -0.1616067925,
				"element": "C" 
			},
			{
				"x": -1.848579219,
				"y": 0.1254803805,
				"z": -1.2189630041,
				"element": "C" 
			},
			{
				"x": -1.0168529587,
				"y": 0.088859322,
				"z": -2.3375314204,
				"element": "C" 
			},
			{
				"x": 0.0372434697,
				"y": -0.8223117657,
				"z": -2.4002481405,
				"element": "C" 
			},
			{
				"x": -2.4567281081,
				"y": -0.7767664368,
				"z": 1.0619760032,
				"element": "C" 
			},
			{
				"x": -3.4555775657,
				"y": 0.1426328645,
				"z": 1.0330435284,
				"element": "O" 
			},
			{
				"x": -2.2983909369,
				"y": -1.5215846548,
				"z": 2.0098290737,
				"element": "O" 
			},
			{
				"x": 1.2415103647,
				"y": -3.4583957967,
				"z": -2.2145779912,
				"element": "H" 
			},
			{
				"x": 1.560548212,
				"y": -3.2419982078,
				"z": -0.4894691358,
				"element": "H" 
			},
			{
				"x": 2.36881367,
				"y": -2.2123990554,
				"z": -1.6808735348,
				"element": "H" 
			},
			{
				"x": -0.3953998407,
				"y": -2.3463118393,
				"z": 0.6047119571,
				"element": "H" 
			},
			{
				"x": -2.6696007348,
				"y": 0.8305211073,
				"z": -1.1600106992,
				"element": "H" 
			},
			{
				"x": -1.1893435204,
				"y": 0.7736250146,
				"z": -3.1627525617,
				"element": "H" 
			},
			{
				"x": 0.6794922363,
				"y": -0.8391272962,
				"z": -3.2778729271,
				"element": "H" 
			},
			{
				"x": -3.93079509,
				"y": 0.0376339376,
				"z": 1.8734508093,
				"element": "H" 
			}
		],
		 "valence_orbital": [ 
			{
				"type": "occ",
				"energy": -0.34517,
				"method": "rhf"
			},
			{
				"type": "occ",
				"energy": -0.31594,
				"method": "rhf"
			},
			{
				"type": "occ",
				"energy": -0.2739,
				"method": "rhf"
			},
			{
				"type": "occ",
				"energy": -0.25808,
				"method": "rhf"
			},
			{
				"type": "occ",
				"energy": -0.24979,
				"method": "rhf"
			},
			{
				"type": "unocc",
				"energy": -0.04612,
				"method": "rhf"
			},
			{
				"type": "unocc",
				"energy": -0.00453,
				"method": "rhf"
			},
			{
				"type": "unocc",
				"energy": 0.0565,
				"method": "rhf"
			},
			{
				"type": "unocc",
				"energy": 0.0797,
				"method": "rhf"
			},
			{
				"type": "unocc",
				"energy": 0.10056,
				"method": "rhf"
			}
		],
		"cosmo_sigma_profile": { 
			"-0.025": 0.0,
			"-0.024": 0.0,
			"-0.023": 0.0,
			"-0.022": 0.0,
			"-0.021": 0.0,
			"-0.02": 0.0,
			"-0.019": 0.0,
			"-0.018": 0.779453357123,
			"-0.017": 0.873167546694,
			"-0.016": 0.621232907664,
			"-0.015": 1.24948578835,
			"-0.014": 0.654301402172,
			"-0.013": 0.0,
			"-0.012": 0.450920509662,
			"-0.011": 1.18759797731,
			"-0.01": 0.877858970753,
			"-0.009": 0.68132100214,
			"-0.008": 0.428783866064,
			"-0.007": 1.21078637263,
			"-0.006": 5.58129182299,
			"-0.005": 10.6494890573,
			"-0.004": 15.1470303258,
			"-0.003": 12.5105531157,
			"-0.002": 15.921148105,
			"-0.001": 14.1885867898,
			"0.0": 16.414217258,
			"0.001": 14.2898065217,
			"0.002": 12.6078363526,
			"0.003": 12.5731233102,
			"0.004": 13.3630267531,
			"0.005": 5.06266241459,
			"0.006": 2.33296390948,
			"0.007": 3.16245802397,
			"0.008": 2.25402200935,
			"0.009": 1.90150031563,
			"0.01": 1.9293599523,
			"0.011": 3.14782667627,
			"0.012": 4.68975586547,
			"0.013": 0.379967487127,
			"0.014": 0.0,
			"0.015": 0.0,
			"0.016": 0.0,
			"0.017": 0.0,
			"0.018": 0.0,
			"0.019": 0.0,
			"0.02": 0.0,
			"0.021": 0.0,
			"0.022": 0.0,
			"0.023": 0.0,
			"0.024": 0.0,
			"0.025": 0.0
		}
	}
}
