{
	 "smiles": "OC(=O)CC1=CSC2=NC=CN12", 
	 "Tm": 533.15, 
	 "num_atms": 18, 
	 "gaussian": { 
		 "optdone": 1, 
		 "sigma_profile": "yes", 
		 "theory": "DFT", 
		 "functional": "B3LYP", 
		 "basiset": "6-31G**", 
		 "properties": { 
			 "R2extent": 2793.2301, 
			 "electric_dipole_moment_norm": 5.33504699323, 
			 "electric_quadrupole_moment_norm": 13.7303872837, 
			 "total_energy": -928.482060666, 
			 "HOMO_LUMO_gap": 0.19965, 
			 "cosmo_polarized_energy": -17.35, 
			 "cosmo_cavitation_energy": 24.62, 
			 "cosmo_dispersion_energy": -18.5, 
			 "cosmo_repulsion_energy": 1.42, 
			 "cosmo_total_nonelectrostatic_energy": 7.54, 
			 "SMD_solvation_energy": 3.82 
		},
		"coords": [
			{
				"x": -1.973610859,
				"y": 2.8065974586,
				"z": -2.0790440703,
				"element": "O" 
			},
			{
				"x": -0.8145892452,
				"y": 2.2972455725,
				"z": -1.6016890031,
				"element": "C" 
			},
			{
				"x": 0.1377960135,
				"y": 2.978972305,
				"z": -1.3044910678,
				"element": "O" 
			},
			{
				"x": -0.913504812,
				"y": 0.7827239703,
				"z": -1.4756402021,
				"element": "C" 
			},
			{
				"x": 0.3884673406,
				"y": 0.0897166632,
				"z": -1.2285185992,
				"element": "C" 
			},
			{
				"x": 1.005292385,
				"y": -0.7951310823,
				"z": -2.0488255488,
				"element": "C" 
			},
			{
				"x": 2.4772532715,
				"y": -1.4828566891,
				"z": -1.370489045,
				"element": "S" 
			},
			{
				"x": 2.2298766002,
				"y": -0.529053455,
				"z": 0.0806188466,
				"element": "C" 
			},
			{
				"x": 2.8568913391,
				"y": -0.374263831,
				"z": 1.2203333483,
				"element": "N" 
			},
			{
				"x": 2.0817558096,
				"y": 0.5515356945,
				"z": 1.8929365835,
				"element": "C" 
			},
			{
				"x": 0.9901575165,
				"y": 0.9520719572,
				"z": 1.1568063802,
				"element": "C" 
			},
			{
				"x": 1.0864009134,
				"y": 0.2408629773,
				"z": -0.0298092256,
				"element": "N" 
			},
			{
				"x": -1.8563675312,
				"y": 3.7712267567,
				"z": -2.1135500071,
				"element": "H" 
			},
			{
				"x": -1.3788284842,
				"y": 0.3894098041,
				"z": -2.3833654944,
				"element": "H" 
			},
			{
				"x": -1.62199056,
				"y": 0.5752679445,
				"z": -0.660628797,
				"element": "H" 
			},
			{
				"x": 0.6686790934,
				"y": -1.100671298,
				"z": -3.0286212797,
				"element": "H" 
			},
			{
				"x": 2.3588882288,
				"y": 0.8886254517,
				"z": 2.8823961404,
				"element": "H" 
			},
			{
				"x": 0.2131329799,
				"y": 1.6752197998,
				"z": 1.3396810411,
				"element": "H" 
			}
		],
		 "valence_orbital": [ 
			{
				"type": "occ",
				"energy": -0.31381,
				"method": "rhf"
			},
			{
				"type": "occ",
				"energy": -0.29641,
				"method": "rhf"
			},
			{
				"type": "occ",
				"energy": -0.27173,
				"method": "rhf"
			},
			{
				"type": "occ",
				"energy": -0.23123,
				"method": "rhf"
			},
			{
				"type": "occ",
				"energy": -0.21311,
				"method": "rhf"
			},
			{
				"type": "unocc",
				"energy": -0.01346,
				"method": "rhf"
			},
			{
				"type": "unocc",
				"energy": -0.00971,
				"method": "rhf"
			},
			{
				"type": "unocc",
				"energy": 0.01259,
				"method": "rhf"
			},
			{
				"type": "unocc",
				"energy": 0.04643,
				"method": "rhf"
			},
			{
				"type": "unocc",
				"energy": 0.06263,
				"method": "rhf"
			}
		],
		"cosmo_sigma_profile": { 
			"-0.025": 0.0,
			"-0.024": 0.0,
			"-0.023": 0.0,
			"-0.022": 0.0,
			"-0.021": 0.0,
			"-0.02": 0.0,
			"-0.019": 0.216139632979,
			"-0.018": 1.08327596951,
			"-0.017": 0.654540895175,
			"-0.016": 0.975507561759,
			"-0.015": 0.92348602681,
			"-0.014": 0.61312491572,
			"-0.013": 0.675111170006,
			"-0.012": 0.60560382185,
			"-0.011": 0.928589186924,
			"-0.01": 2.31813650764,
			"-0.009": 8.34728540427,
			"-0.008": 9.769957173,
			"-0.007": 9.05618420828,
			"-0.006": 8.60843124334,
			"-0.005": 8.14909994507,
			"-0.004": 9.84409408893,
			"-0.003": 8.66778158138,
			"-0.002": 8.88110461003,
			"-0.001": 10.5497615978,
			"0.0": 11.645658822,
			"0.001": 14.6516773807,
			"0.002": 14.2196691724,
			"0.003": 11.6942552795,
			"0.004": 10.7368297646,
			"0.005": 8.84650896226,
			"0.006": 5.81578954056,
			"0.007": 4.24081886491,
			"0.008": 5.09872958745,
			"0.009": 5.0298705662,
			"0.01": 3.7980591374,
			"0.011": 5.77932711566,
			"0.012": 1.8011213946,
			"0.013": 1.49358790458,
			"0.014": 1.05829748701,
			"0.015": 0.979663329563,
			"0.016": 1.04930748613,
			"0.017": 0.969691284656,
			"0.018": 0.0461066723187,
			"0.019": 0.0,
			"0.02": 0.0,
			"0.021": 0.0,
			"0.022": 0.0,
			"0.023": 0.0,
			"0.024": 0.0,
			"0.025": 0.0
		}
	}
}
