{
	 "smiles": "ON=CC1=C(OCC2=CN3C=CC=CC3=N2)C=CC=C1", 
	 "Tm": 471.15, 
	 "num_atms": 33, 
	 "gaussian": { 
		 "optdone": 1, 
		 "sigma_profile": "yes", 
		 "theory": "DFT", 
		 "functional": "B3LYP", 
		 "basiset": "6-31G**", 
		 "properties": { 
			 "R2extent": 8223.6511, 
			 "electric_dipole_moment_norm": 2.10608914104, 
			 "electric_quadrupole_moment_norm": 20.5350476023, 
			 "total_energy": -894.05669733, 
			 "HOMO_LUMO_gap": 0.1716, 
			 "cosmo_polarized_energy": -15.81, 
			 "cosmo_cavitation_energy": 38.57, 
			 "cosmo_dispersion_energy": -27.82, 
			 "cosmo_repulsion_energy": 2.11, 
			 "cosmo_total_nonelectrostatic_energy": 12.85, 
			 "SMD_solvation_energy": 5.72 
		},
		"coords": [
			{
				"x": 0.5662171293,
				"y": 4.4795412674,
				"z": 0.7821191759,
				"element": "O" 
			},
			{
				"x": 0.0848650819,
				"y": 4.100869464,
				"z": -0.4804367622,
				"element": "N" 
			},
			{
				"x": -0.1266317698,
				"y": 2.83616101,
				"z": -0.5226963234,
				"element": "C" 
			},
			{
				"x": -0.6264642178,
				"y": 2.1926607393,
				"z": -1.7403758586,
				"element": "C" 
			},
			{
				"x": -0.8972589492,
				"y": 0.8028974274,
				"z": -1.7392970585,
				"element": "C" 
			},
			{
				"x": -0.6750783816,
				"y": 0.146692838,
				"z": -0.561988994,
				"element": "O" 
			},
			{
				"x": -0.9238884164,
				"y": -1.2534091585,
				"z": -0.4977681755,
				"element": "C" 
			},
			{
				"x": -0.633599466,
				"y": -1.7233971863,
				"z": 0.8932259323,
				"element": "C" 
			},
			{
				"x": -0.3301380718,
				"y": -0.9592277354,
				"z": 2.0024163231,
				"element": "C" 
			},
			{
				"x": -0.1669102715,
				"y": -1.8652066247,
				"z": 3.030826914,
				"element": "N" 
			},
			{
				"x": 0.1453594284,
				"y": -1.6860491886,
				"z": 4.3562514089,
				"element": "C" 
			},
			{
				"x": 0.247081406,
				"y": -2.7773362105,
				"z": 5.1729286685,
				"element": "C" 
			},
			{
				"x": 0.0325246709,
				"y": -4.0864828544,
				"z": 4.6549369242,
				"element": "C" 
			},
			{
				"x": -0.278984078,
				"y": -4.2665082281,
				"z": 3.3286255709,
				"element": "C" 
			},
			{
				"x": -0.3864067775,
				"y": -3.1425889565,
				"z": 2.4771760545,
				"element": "C" 
			},
			{
				"x": -0.6691173718,
				"y": -3.0566306286,
				"z": 1.179327151,
				"element": "N" 
			},
			{
				"x": -1.3654525778,
				"y": 0.1761387454,
				"z": -2.900173916,
				"element": "C" 
			},
			{
				"x": -1.5714907551,
				"y": 0.9241943409,
				"z": -4.0602396735,
				"element": "C" 
			},
			{
				"x": -1.3135550338,
				"y": 2.295703047,
				"z": -4.0757962696,
				"element": "C" 
			},
			{
				"x": -0.8442601583,
				"y": 2.9164663306,
				"z": -2.9224981724,
				"element": "C" 
			},
			{
				"x": 0.6802311371,
				"y": 5.433896844,
				"z": 0.6817835661,
				"element": "H" 
			},
			{
				"x": 0.0672430732,
				"y": 2.2163465674,
				"z": 0.3513734821,
				"element": "H" 
			},
			{
				"x": -1.970753432,
				"y": -1.4688158892,
				"z": -0.7561927504,
				"element": "H" 
			},
			{
				"x": -0.2895412792,
				"y": -1.7952702033,
				"z": -1.2128342938,
				"element": "H" 
			},
			{
				"x": -0.2200884349,
				"y": 0.1029216363,
				"z": 2.1443752929,
				"element": "H" 
			},
			{
				"x": 0.2959178969,
				"y": -0.6644228211,
				"z": 4.6837830559,
				"element": "H" 
			},
			{
				"x": 0.4932566976,
				"y": -2.6301965755,
				"z": 6.2181894577,
				"element": "H" 
			},
			{
				"x": 0.1171292214,
				"y": -4.9424389274,
				"z": 5.3163019011,
				"element": "H" 
			},
			{
				"x": -0.4486312448,
				"y": -5.246944551,
				"z": 2.8989318554,
				"element": "H" 
			},
			{
				"x": -1.5703087062,
				"y": -0.8872143762,
				"z": -2.9083383532,
				"element": "H" 
			},
			{
				"x": -1.9352581731,
				"y": 0.4251461635,
				"z": -4.9537993821,
				"element": "H" 
			},
			{
				"x": -1.4742789558,
				"y": 2.8747743516,
				"z": -4.97970999,
				"element": "H" 
			},
			{
				"x": -0.6329292203,
				"y": 3.9804293424,
				"z": -2.9125267613,
				"element": "H" 
			}
		],
		 "valence_orbital": [ 
			{
				"type": "occ",
				"energy": -0.27254,
				"method": "rhf"
			},
			{
				"type": "occ",
				"energy": -0.24082,
				"method": "rhf"
			},
			{
				"type": "occ",
				"energy": -0.23648,
				"method": "rhf"
			},
			{
				"type": "occ",
				"energy": -0.21313,
				"method": "rhf"
			},
			{
				"type": "occ",
				"energy": -0.21021,
				"method": "rhf"
			},
			{
				"type": "unocc",
				"energy": -0.03861,
				"method": "rhf"
			},
			{
				"type": "unocc",
				"energy": -0.03393,
				"method": "rhf"
			},
			{
				"type": "unocc",
				"energy": 0.0034,
				"method": "rhf"
			},
			{
				"type": "unocc",
				"energy": 0.01091,
				"method": "rhf"
			},
			{
				"type": "unocc",
				"energy": 0.05256,
				"method": "rhf"
			}
		],
		"cosmo_sigma_profile": { 
			"-0.025": 0.0,
			"-0.024": 0.0,
			"-0.023": 0.0,
			"-0.022": 0.0,
			"-0.021": 0.0,
			"-0.02": 0.0,
			"-0.019": 0.0,
			"-0.018": 0.10352094963,
			"-0.017": 0.866627990594,
			"-0.016": 1.1148064497,
			"-0.015": 0.748982561958,
			"-0.014": 0.701654689106,
			"-0.013": 0.742098485518,
			"-0.012": 0.814964426744,
			"-0.011": 0.2305583955,
			"-0.01": 1.47643340567,
			"-0.009": 4.36099288264,
			"-0.008": 5.13769034157,
			"-0.007": 11.7370969429,
			"-0.006": 20.3852242594,
			"-0.005": 20.3286291505,
			"-0.004": 20.5029812772,
			"-0.003": 16.7052580319,
			"-0.002": 15.9998807313,
			"-0.001": 14.6855981688,
			"0.0": 20.1936706776,
			"0.001": 23.1313747131,
			"0.002": 26.2843336926,
			"0.003": 28.5660297227,
			"0.004": 25.6115035525,
			"0.005": 15.1287509034,
			"0.006": 7.92750666306,
			"0.007": 4.23956502789,
			"0.008": 4.06202453934,
			"0.009": 4.27769647426,
			"0.01": 4.51919762149,
			"0.011": 3.11522250484,
			"0.012": 0.827811240723,
			"0.013": 0.855459631355,
			"0.014": 0.987465083627,
			"0.015": 1.12376458653,
			"0.016": 0.789952556919,
			"0.017": 0.763326336627,
			"0.018": 0.373295213885,
			"0.019": 0.0,
			"0.02": 0.0,
			"0.021": 0.0,
			"0.022": 0.0,
			"0.023": 0.0,
			"0.024": 0.0,
			"0.025": 0.0
		}
	}
}
