{
	 "smiles": "OC1=CC(=O)C(O)=CC1=O", 
	 "Tm": 493.15, 
	 "num_atms": 14, 
	 "gaussian": { 
		 "optdone": 1, 
		 "sigma_profile": "yes", 
		 "theory": "DFT", 
		 "functional": "B3LYP", 
		 "basiset": "6-31G**", 
		 "properties": { 
			 "R2extent": 1593.9825, 
			 "electric_dipole_moment_norm": 0.00022360679775, 
			 "electric_quadrupole_moment_norm": 6.13402178672, 
			 "total_energy": -531.921825656, 
			 "HOMO_LUMO_gap": 0.13312, 
			 "cosmo_polarized_energy": -8.93, 
			 "cosmo_cavitation_energy": 19.08, 
			 "cosmo_dispersion_energy": -14.67, 
			 "cosmo_repulsion_energy": 1.18, 
			 "cosmo_total_nonelectrostatic_energy": 5.59, 
			 "SMD_solvation_energy": 5.57 
		},
		"coords": [
			{
				"x": -2.5720367874,
				"y": 0.657798842,
				"z": 1.0129338056,
				"element": "O" 
			},
			{
				"x": -1.3819868234,
				"y": 0.9246343953,
				"z": 0.4971139422,
				"element": "C" 
			},
			{
				"x": -0.855761342,
				"y": 2.171117889,
				"z": 0.3872024792,
				"element": "C" 
			},
			{
				"x": 0.4536828609,
				"y": 2.3070955683,
				"z": -0.1969119847,
				"element": "C" 
			},
			{
				"x": 1.0632631437,
				"y": 3.3673527836,
				"z": -0.3642085743,
				"element": "O" 
			},
			{
				"x": 1.1874809325,
				"y": 1.0545673525,
				"z": -0.6632970269,
				"element": "C" 
			},
			{
				"x": 2.3775531137,
				"y": 1.3213956782,
				"z": -1.1790699193,
				"element": "O" 
			},
			{
				"x": 0.661251537,
				"y": -0.1919152441,
				"z": -0.5533929867,
				"element": "C" 
			},
			{
				"x": -0.6482042323,
				"y": -0.3278899893,
				"z": 0.0306960695,
				"element": "C" 
			},
			{
				"x": -1.2578017947,
				"y": -1.3881427867,
				"z": 0.1979553836,
				"element": "O" 
			},
			{
				"x": -2.6512041331,
				"y": -0.3244252667,
				"z": 0.9463696588,
				"element": "H" 
			},
			{
				"x": -1.3814655128,
				"y": 3.0578673519,
				"z": 0.7202937925,
				"element": "H" 
			},
			{
				"x": 2.4567659665,
				"y": 2.3036094887,
				"z": -1.1124160418,
				"element": "H" 
			},
			{
				"x": 1.1869630714,
				"y": -1.0786660626,
				"z": -0.8864685976,
				"element": "H" 
			}
		],
		 "valence_orbital": [ 
			{
				"type": "occ",
				"energy": -0.38136,
				"method": "rhf"
			},
			{
				"type": "occ",
				"energy": -0.30336,
				"method": "rhf"
			},
			{
				"type": "occ",
				"energy": -0.29233,
				"method": "rhf"
			},
			{
				"type": "occ",
				"energy": -0.28611,
				"method": "rhf"
			},
			{
				"type": "occ",
				"energy": -0.25929,
				"method": "rhf"
			},
			{
				"type": "unocc",
				"energy": -0.12617,
				"method": "rhf"
			},
			{
				"type": "unocc",
				"energy": -0.00577,
				"method": "rhf"
			},
			{
				"type": "unocc",
				"energy": 0.00788,
				"method": "rhf"
			},
			{
				"type": "unocc",
				"energy": 0.08291,
				"method": "rhf"
			},
			{
				"type": "unocc",
				"energy": 0.10419,
				"method": "rhf"
			}
		],
		"cosmo_sigma_profile": { 
			"-0.025": 0.0,
			"-0.024": 0.0,
			"-0.023": 0.0,
			"-0.022": 0.0,
			"-0.021": 0.0,
			"-0.02": 0.0,
			"-0.019": 0.0,
			"-0.018": 0.0,
			"-0.017": 0.0,
			"-0.016": 0.0,
			"-0.015": 0.0358670656857,
			"-0.014": 1.44571265518,
			"-0.013": 0.679003871018,
			"-0.012": 0.958235064654,
			"-0.011": 1.35706795945,
			"-0.01": 1.95574523623,
			"-0.009": 1.60113250055,
			"-0.008": 4.91235450571,
			"-0.007": 7.07273538322,
			"-0.006": 11.3266306057,
			"-0.005": 8.90090643528,
			"-0.004": 7.64598707087,
			"-0.003": 8.73090797435,
			"-0.002": 8.37531595101,
			"-0.001": 10.7778725236,
			"0.0": 12.6569401066,
			"0.001": 10.1194807761,
			"0.002": 5.02324260128,
			"0.003": 5.37492496377,
			"0.004": 5.04847701322,
			"0.005": 5.86290495074,
			"0.006": 5.14503901492,
			"0.007": 5.47784805884,
			"0.008": 6.66683049143,
			"0.009": 7.12745562037,
			"0.01": 4.56722378927,
			"0.011": 3.52795913948,
			"0.012": 1.2818509036,
			"0.013": 0.0,
			"0.014": 0.0,
			"0.015": 0.0,
			"0.016": 0.0,
			"0.017": 0.0,
			"0.018": 0.0,
			"0.019": 0.0,
			"0.02": 0.0,
			"0.021": 0.0,
			"0.022": 0.0,
			"0.023": 0.0,
			"0.024": 0.0,
			"0.025": 0.0
		}
	}
}
