{
	 "smiles": "NC(=S)CC(N)=S", 
	 "Tm": 476.15, 
	 "num_atms": 13, 
	 "gaussian": { 
		 "optdone": 1, 
		 "sigma_profile": "yes", 
		 "theory": "DFT", 
		 "functional": "B3LYP", 
		 "basiset": "6-31G**", 
		 "properties": { 
			 "R2extent": 1953.7444, 
			 "electric_dipole_moment_norm": 0.546073813692, 
			 "electric_quadrupole_moment_norm": 17.4191380573, 
			 "total_energy": -1023.83045158, 
			 "HOMO_LUMO_gap": 0.15816, 
			 "cosmo_polarized_energy": -17.99, 
			 "cosmo_cavitation_energy": 20.46, 
			 "cosmo_dispersion_energy": -15.72, 
			 "cosmo_repulsion_energy": 1.25, 
			 "cosmo_total_nonelectrostatic_energy": 6.0, 
			 "SMD_solvation_energy": 1.68 
		},
		"coords": [
			{
				"x": -2.4062703877,
				"y": -0.3687730326,
				"z": -1.9925267957,
				"element": "N" 
			},
			{
				"x": -2.1309680204,
				"y": 0.5876353827,
				"z": -1.0926359826,
				"element": "C" 
			},
			{
				"x": -3.0172008186,
				"y": 1.9863957403,
				"z": -0.9177726549,
				"element": "S" 
			},
			{
				"x": -0.886728832,
				"y": 0.2990373073,
				"z": -0.255563887,
				"element": "C" 
			},
			{
				"x": 0.3664367431,
				"y": 0.5667016304,
				"z": -1.0861681097,
				"element": "C" 
			},
			{
				"x": 0.6483441607,
				"y": 1.8708612309,
				"z": -1.2276404028,
				"element": "N" 
			},
			{
				"x": 1.2535308519,
				"y": -0.6595794674,
				"z": -1.780362033,
				"element": "S" 
			},
			{
				"x": -3.1606193463,
				"y": -0.224884248,
				"z": -2.6486375998,
				"element": "H" 
			},
			{
				"x": -1.7530827651,
				"y": -1.1255419232,
				"z": -2.1563675085,
				"element": "H" 
			},
			{
				"x": -0.8735591202,
				"y": -0.7446896764,
				"z": 0.0628494698,
				"element": "H" 
			},
			{
				"x": -0.9063723589,
				"y": 0.9425394297,
				"z": 0.6255879642,
				"element": "H" 
			},
			{
				"x": -0.0046488895,
				"y": 2.5768008361,
				"z": -0.9091935024,
				"element": "H" 
			},
			{
				"x": 1.409238783,
				"y": 2.1472967904,
				"z": -1.8316689575,
				"element": "H" 
			}
		],
		 "valence_orbital": [ 
			{
				"type": "occ",
				"energy": -0.35976,
				"method": "rhf"
			},
			{
				"type": "occ",
				"energy": -0.25487,
				"method": "rhf"
			},
			{
				"type": "occ",
				"energy": -0.24281,
				"method": "rhf"
			},
			{
				"type": "occ",
				"energy": -0.22743,
				"method": "rhf"
			},
			{
				"type": "occ",
				"energy": -0.21888,
				"method": "rhf"
			},
			{
				"type": "unocc",
				"energy": -0.06072,
				"method": "rhf"
			},
			{
				"type": "unocc",
				"energy": -0.03129,
				"method": "rhf"
			},
			{
				"type": "unocc",
				"energy": 0.05021,
				"method": "rhf"
			},
			{
				"type": "unocc",
				"energy": 0.0719,
				"method": "rhf"
			},
			{
				"type": "unocc",
				"energy": 0.07959,
				"method": "rhf"
			}
		],
		"cosmo_sigma_profile": { 
			"-0.025": 0.0,
			"-0.024": 0.0,
			"-0.023": 0.0,
			"-0.022": 0.0,
			"-0.021": 0.0,
			"-0.02": 0.0,
			"-0.019": 0.0,
			"-0.018": 0.0,
			"-0.017": 0.0,
			"-0.016": 0.265683635258,
			"-0.015": 2.74543978486,
			"-0.014": 3.24423853128,
			"-0.013": 4.92414087001,
			"-0.012": 4.50900958765,
			"-0.011": 4.28014215639,
			"-0.01": 3.24447304715,
			"-0.009": 3.89501583965,
			"-0.008": 4.50120795657,
			"-0.007": 7.17645722735,
			"-0.006": 6.04186186167,
			"-0.005": 5.99184761198,
			"-0.004": 7.33923481448,
			"-0.003": 5.58101430349,
			"-0.002": 5.58746035303,
			"-0.001": 7.08652442024,
			"0.0": 6.05237651291,
			"0.001": 5.09749918644,
			"0.002": 5.6781615183,
			"0.003": 8.24106875433,
			"0.004": 7.26457759659,
			"0.005": 7.08185142289,
			"0.006": 7.62260585199,
			"0.007": 10.4334745671,
			"0.008": 11.0836623578,
			"0.009": 8.31500904505,
			"0.01": 6.94739045881,
			"0.011": 5.50139724098,
			"0.012": 1.51504267878,
			"0.013": 0.0,
			"0.014": 0.0,
			"0.015": 0.0,
			"0.016": 0.0,
			"0.017": 0.0,
			"0.018": 0.0,
			"0.019": 0.0,
			"0.02": 0.0,
			"0.021": 0.0,
			"0.022": 0.0,
			"0.023": 0.0,
			"0.024": 0.0,
			"0.025": 0.0
		}
	}
}
