{
	 "smiles": "COC1=C(C=C(Br)C=C1Cl)S(N)(=O)=O", 
	 "Tm": 488.15, 
	 "num_atms": 21, 
	 "gaussian": { 
		 "optdone": 1, 
		 "sigma_profile": "yes", 
		 "theory": "DFT", 
		 "functional": "B3LYP", 
		 "basiset": "6-31G**", 
		 "properties": { 
			 "R2extent": 5570.9819, 
			 "electric_dipole_moment_norm": 2.8514258065, 
			 "electric_quadrupole_moment_norm": 12.9878080903, 
			 "total_energy": -3981.07454299, 
			 "HOMO_LUMO_gap": 0.20054, 
			 "cosmo_polarized_energy": -15.54, 
			 "cosmo_cavitation_energy": 30.48, 
			 "cosmo_dispersion_energy": -23.2, 
			 "cosmo_repulsion_energy": 1.8, 
			 "cosmo_total_nonelectrostatic_energy": 9.08, 
			 "SMD_solvation_energy": 4.39 
		},
		"coords": [
			{
				"x": -0.8588685758,
				"y": -1.9973129996,
				"z": -2.5986783542,
				"element": "C" 
			},
			{
				"x": -0.3911318891,
				"y": -2.2301753628,
				"z": -1.2525759193,
				"element": "O" 
			},
			{
				"x": 0.542986134,
				"y": -1.3709890661,
				"z": -0.7717786804,
				"element": "C" 
			},
			{
				"x": 0.1729470143,
				"y": -0.3590620102,
				"z": 0.1336060073,
				"element": "C" 
			},
			{
				"x": 1.1129665888,
				"y": 0.4927799497,
				"z": 0.7108230507,
				"element": "C" 
			},
			{
				"x": 2.4544384891,
				"y": 0.3379064177,
				"z": 0.3697704929,
				"element": "C" 
			},
			{
				"x": 3.7564078201,
				"y": 1.499542014,
				"z": 1.1379351228,
				"element": "Br" 
			},
			{
				"x": 2.864421336,
				"y": -0.6541035484,
				"z": -0.5160890658,
				"element": "C" 
			},
			{
				"x": 1.9087643052,
				"y": -1.5019172573,
				"z": -1.0757628355,
				"element": "C" 
			},
			{
				"x": 2.4383176059,
				"y": -2.7779004703,
				"z": -2.1460886679,
				"element": "Cl" 
			},
			{
				"x": -1.5792679102,
				"y": -0.2330964927,
				"z": 0.5454133688,
				"element": "S" 
			},
			{
				"x": -1.6152713642,
				"y": 1.140652713,
				"z": 1.5333913685,
				"element": "N" 
			},
			{
				"x": -2.3056531311,
				"y": 0.1008311594,
				"z": -0.684274741,
				"element": "O" 
			},
			{
				"x": -1.9513086774,
				"y": -1.3729232819,
				"z": 1.3818411504,
				"element": "O" 
			},
			{
				"x": -1.5354129095,
				"y": -2.8241758451,
				"z": -2.8155270713,
				"element": "H" 
			},
			{
				"x": -0.0280668218,
				"y": -2.0074040364,
				"z": -3.3098988369,
				"element": "H" 
			},
			{
				"x": -1.4031467819,
				"y": -1.0512422568,
				"z": -2.6440641188,
				"element": "H" 
			},
			{
				"x": 0.7926780456,
				"y": 1.2596297779,
				"z": 1.4028427373,
				"element": "H" 
			},
			{
				"x": 3.9104816385,
				"y": -0.7790894373,
				"z": -0.7665024666,
				"element": "H" 
			},
			{
				"x": -2.1689276406,
				"y": 1.8641772582,
				"z": 1.082725552,
				"element": "H" 
			},
			{
				"x": -1.995653276,
				"y": 0.8849727747,
				"z": 2.4406919069,
				"element": "H" 
			}
		],
		 "valence_orbital": [ 
			{
				"type": "occ",
				"energy": -0.30626,
				"method": "rhf"
			},
			{
				"type": "occ",
				"energy": -0.30079,
				"method": "rhf"
			},
			{
				"type": "occ",
				"energy": -0.29304,
				"method": "rhf"
			},
			{
				"type": "occ",
				"energy": -0.27579,
				"method": "rhf"
			},
			{
				"type": "occ",
				"energy": -0.25284,
				"method": "rhf"
			},
			{
				"type": "unocc",
				"energy": -0.0523,
				"method": "rhf"
			},
			{
				"type": "unocc",
				"energy": -0.03752,
				"method": "rhf"
			},
			{
				"type": "unocc",
				"energy": -0.02225,
				"method": "rhf"
			},
			{
				"type": "unocc",
				"energy": 0.0216,
				"method": "rhf"
			},
			{
				"type": "unocc",
				"energy": 0.05028,
				"method": "rhf"
			}
		],
		"cosmo_sigma_profile": { 
			"-0.025": 0.0,
			"-0.024": 0.0,
			"-0.023": 0.0,
			"-0.022": 0.0,
			"-0.021": 0.0,
			"-0.02": 0.0,
			"-0.019": 0.0,
			"-0.018": 0.0,
			"-0.017": 0.0,
			"-0.016": 0.147254249875,
			"-0.015": 1.78073354901,
			"-0.014": 2.84995176952,
			"-0.013": 2.07139057843,
			"-0.012": 2.53795571386,
			"-0.011": 2.52019276618,
			"-0.01": 1.89220895437,
			"-0.009": 2.83606362066,
			"-0.008": 2.79446205182,
			"-0.007": 4.41816038906,
			"-0.006": 6.82542503173,
			"-0.005": 11.5773566311,
			"-0.004": 16.2323591758,
			"-0.003": 18.9544366848,
			"-0.002": 16.9193144993,
			"-0.001": 24.0600334082,
			"0.0": 22.8701706175,
			"0.001": 16.1101338031,
			"0.002": 15.2691290894,
			"0.003": 19.5769818904,
			"0.004": 15.0386173321,
			"0.005": 4.26339322219,
			"0.006": 4.03918190916,
			"0.007": 4.60829185285,
			"0.008": 4.82565635904,
			"0.009": 5.92260302444,
			"0.01": 9.874018812,
			"0.011": 7.70534183846,
			"0.012": 0.881279703774,
			"0.013": 0.0,
			"0.014": 0.0,
			"0.015": 0.0,
			"0.016": 0.0,
			"0.017": 0.0,
			"0.018": 0.0,
			"0.019": 0.0,
			"0.02": 0.0,
			"0.021": 0.0,
			"0.022": 0.0,
			"0.023": 0.0,
			"0.024": 0.0,
			"0.025": 0.0
		}
	}
}
