{
	 "smiles": "NC1=C(N)C=C2OCCOC2=C1", 
	 "Tm": 398.15, 
	 "num_atms": 22, 
	 "gaussian": { 
		 "optdone": 1, 
		 "sigma_profile": "yes", 
		 "theory": "DFT", 
		 "functional": "B3LYP", 
		 "basiset": "6-31G**", 
		 "properties": { 
			 "R2extent": 2276.3636, 
			 "electric_dipole_moment_norm": 0.00430116263352, 
			 "electric_quadrupole_moment_norm": 11.3843073263, 
			 "total_energy": -570.809718919, 
			 "HOMO_LUMO_gap": 0.1891, 
			 "cosmo_polarized_energy": -13.23, 
			 "cosmo_cavitation_energy": 24.72, 
			 "cosmo_dispersion_energy": -19.22, 
			 "cosmo_repulsion_energy": 1.53, 
			 "cosmo_total_nonelectrostatic_energy": 7.04, 
			 "SMD_solvation_energy": 4.37 
		},
		"coords": [
			{
				"x": -3.2048411328,
				"y": -0.6616610329,
				"z": -0.7534113245,
				"element": "N" 
			},
			{
				"x": -1.8190373289,
				"y": -0.7246512361,
				"z": -0.4850250589,
				"element": "C" 
			},
			{
				"x": -1.0114762885,
				"y": -1.477165763,
				"z": -1.3704295445,
				"element": "C" 
			},
			{
				"x": -1.6573319106,
				"y": -2.1745445669,
				"z": -2.4159054375,
				"element": "N" 
			},
			{
				"x": 0.3621029056,
				"y": -1.5525828403,
				"z": -1.14598025,
				"element": "C" 
			},
			{
				"x": 0.9530761588,
				"y": -0.8757201884,
				"z": -0.076135024,
				"element": "C" 
			},
			{
				"x": 2.3187035395,
				"y": -0.9882971101,
				"z": 0.0937320969,
				"element": "O" 
			},
			{
				"x": 2.7617335034,
				"y": -0.5615564909,
				"z": 1.3787440017,
				"element": "C" 
			},
			{
				"x": 2.1097780429,
				"y": 0.7635116783,
				"z": 1.747704866,
				"element": "C" 
			},
			{
				"x": 0.6957224199,
				"y": 0.6111743504,
				"z": 1.831139875,
				"element": "O" 
			},
			{
				"x": 0.1608663078,
				"y": -0.0945673444,
				"z": 0.7717376121,
				"element": "C" 
			},
			{
				"x": -1.2197409303,
				"y": -0.0332480587,
				"z": 0.5664585335,
				"element": "C" 
			},
			{
				"x": -3.7306626559,
				"y": -0.2361766701,
				"z": 0.0005939024,
				"element": "H" 
			},
			{
				"x": -3.5860473471,
				"y": -1.580291907,
				"z": -0.963362063,
				"element": "H" 
			},
			{
				"x": -2.336501975,
				"y": -1.5869974855,
				"z": -2.8921333984,
				"element": "H" 
			},
			{
				"x": -1.0066061137,
				"y": -2.5613549143,
				"z": -3.0889474776,
				"element": "H" 
			},
			{
				"x": 1.0022110319,
				"y": -2.1347742109,
				"z": -1.8028566233,
				"element": "H" 
			},
			{
				"x": 3.8492675172,
				"y": -0.4647260261,
				"z": 1.3182147394,
				"element": "H" 
			},
			{
				"x": 2.5118649713,
				"y": -1.3189486484,
				"z": 2.1355861088,
				"element": "H" 
			},
			{
				"x": 2.3644667481,
				"y": 1.5223903018,
				"z": 0.9939666872,
				"element": "H" 
			},
			{
				"x": 2.4452137542,
				"y": 1.1104823076,
				"z": 2.7289641304,
				"element": "H" 
			},
			{
				"x": -1.8156612177,
				"y": 0.5627058558,
				"z": 1.2519436481,
				"element": "H" 
			}
		],
		 "valence_orbital": [ 
			{
				"type": "occ",
				"energy": -0.30048,
				"method": "rhf"
			},
			{
				"type": "occ",
				"energy": -0.28843,
				"method": "rhf"
			},
			{
				"type": "occ",
				"energy": -0.25099,
				"method": "rhf"
			},
			{
				"type": "occ",
				"energy": -0.20599,
				"method": "rhf"
			},
			{
				"type": "occ",
				"energy": -0.16932,
				"method": "rhf"
			},
			{
				"type": "unocc",
				"energy": 0.01978,
				"method": "rhf"
			},
			{
				"type": "unocc",
				"energy": 0.04252,
				"method": "rhf"
			},
			{
				"type": "unocc",
				"energy": 0.08108,
				"method": "rhf"
			},
			{
				"type": "unocc",
				"energy": 0.09545,
				"method": "rhf"
			},
			{
				"type": "unocc",
				"energy": 0.11076,
				"method": "rhf"
			}
		],
		"cosmo_sigma_profile": { 
			"-0.025": 0.0,
			"-0.024": 0.0,
			"-0.023": 0.0,
			"-0.022": 0.0,
			"-0.021": 0.0,
			"-0.02": 0.0,
			"-0.019": 0.0,
			"-0.018": 0.0,
			"-0.017": 0.0,
			"-0.016": 0.0,
			"-0.015": 0.0,
			"-0.014": 0.0,
			"-0.013": 0.0,
			"-0.012": 0.903955531778,
			"-0.011": 3.63150924689,
			"-0.01": 4.89620342597,
			"-0.009": 4.84692797976,
			"-0.008": 6.35720169487,
			"-0.007": 7.01685683331,
			"-0.006": 13.7719430622,
			"-0.005": 17.2712095345,
			"-0.004": 13.5649832351,
			"-0.003": 11.5245112575,
			"-0.002": 8.48035741182,
			"-0.001": 7.05909519274,
			"0.0": 5.80631977279,
			"0.001": 8.07445863348,
			"0.002": 6.40177370108,
			"0.003": 7.80987636151,
			"0.004": 9.39911625515,
			"0.005": 12.8615035971,
			"0.006": 15.5472074844,
			"0.007": 6.22779310445,
			"0.008": 5.16039998458,
			"0.009": 4.9984790119,
			"0.01": 3.86675565752,
			"0.011": 4.02491607484,
			"0.012": 1.92812881199,
			"0.013": 0.913675256733,
			"0.014": 1.15073921015,
			"0.015": 1.06851736474,
			"0.016": 0.11196314515,
			"0.017": 0.0,
			"0.018": 0.0,
			"0.019": 0.0,
			"0.02": 0.0,
			"0.021": 0.0,
			"0.022": 0.0,
			"0.023": 0.0,
			"0.024": 0.0,
			"0.025": 0.0
		}
	}
}
