{
	 "smiles": "OC(=O)COCCN1CCN(CC1)C(C1=CC=CC=C1)C1=CC=C(Cl)C=C1", 
	 "Tm": 498.15, 
	 "num_atms": 52, 
	 "gaussian": { 
		 "optdone": 1, 
		 "sigma_profile": "yes", 
		 "theory": "DFT", 
		 "functional": "B3LYP", 
		 "basiset": "6-31G**", 
		 "properties": { 
			 "R2extent": 17637.8315, 
			 "electric_dipole_moment_norm": 5.42088636479, 
			 "electric_quadrupole_moment_norm": 39.0778731508, 
			 "total_energy": -1610.633074, 
			 "HOMO_LUMO_gap": 0.18678, 
			 "cosmo_polarized_energy": -18.84, 
			 "cosmo_cavitation_energy": 54.66, 
			 "cosmo_dispersion_energy": -37.42, 
			 "cosmo_repulsion_energy": 2.87, 
			 "cosmo_total_nonelectrostatic_energy": 20.11, 
			 "SMD_solvation_energy": 6.48 
		},
		"coords": [
			{
				"x": 4.9652484964,
				"y": -5.1481320785,
				"z": -1.7476502851,
				"element": "O" 
			},
			{
				"x": 4.6459020385,
				"y": -5.1385118026,
				"z": -3.0563787047,
				"element": "C" 
			},
			{
				"x": 4.6238497051,
				"y": -6.13133521,
				"z": -3.7394884085,
				"element": "O" 
			},
			{
				"x": 4.3580873885,
				"y": -3.7338606646,
				"z": -3.6056967643,
				"element": "C" 
			},
			{
				"x": 4.161778091,
				"y": -2.7836776312,
				"z": -2.5683141856,
				"element": "O" 
			},
			{
				"x": 2.8023999915,
				"y": -2.6836628781,
				"z": -2.1244112236,
				"element": "C" 
			},
			{
				"x": 2.7494766294,
				"y": -1.6453842086,
				"z": -1.0062998284,
				"element": "C" 
			},
			{
				"x": 1.3850327535,
				"y": -1.4548691383,
				"z": -0.5337154763,
				"element": "N" 
			},
			{
				"x": 0.5501004024,
				"y": -0.5857512695,
				"z": -1.3891987835,
				"element": "C" 
			},
			{
				"x": 0.2924209091,
				"y": 0.7898498892,
				"z": -0.757633311,
				"element": "C" 
			},
			{
				"x": -0.3329569006,
				"y": 0.6919382877,
				"z": 0.5732866119,
				"element": "N" 
			},
			{
				"x": -0.0769742704,
				"y": -0.5877691251,
				"z": 1.238255918,
				"element": "C" 
			},
			{
				"x": 1.3211709514,
				"y": -1.0836165994,
				"z": 0.8857875448,
				"element": "C" 
			},
			{
				"x": -1.7118475455,
				"y": 1.1886651711,
				"z": 0.7263055785,
				"element": "C" 
			},
			{
				"x": -1.7793304459,
				"y": 2.7169499017,
				"z": 0.6141354429,
				"element": "C" 
			},
			{
				"x": -0.6342161886,
				"y": 3.4966244712,
				"z": 0.8249786711,
				"element": "C" 
			},
			{
				"x": -0.7030072002,
				"y": 4.8905265921,
				"z": 0.801779356,
				"element": "C" 
			},
			{
				"x": -1.9216275956,
				"y": 5.5323673479,
				"z": 0.5779650713,
				"element": "C" 
			},
			{
				"x": -3.0721576456,
				"y": 4.7665035712,
				"z": 0.3840005871,
				"element": "C" 
			},
			{
				"x": -3.0011387722,
				"y": 3.3728187239,
				"z": 0.4021788806,
				"element": "C" 
			},
			{
				"x": -2.7354484052,
				"y": 0.4413843999,
				"z": -0.1385266403,
				"element": "C" 
			},
			{
				"x": -2.9802095175,
				"y": 0.7727329107,
				"z": -1.4814070727,
				"element": "C" 
			},
			{
				"x": -3.8450466386,
				"y": 0.0162435427,
				"z": -2.2712099413,
				"element": "C" 
			},
			{
				"x": -4.4874267803,
				"y": -1.0891137592,
				"z": -1.7131322713,
				"element": "C" 
			},
			{
				"x": -5.5819518255,
				"y": -2.0458641188,
				"z": -2.7018548502,
				"element": "Cl" 
			},
			{
				"x": -4.2839355091,
				"y": -1.4346704889,
				"z": -0.3794097492,
				"element": "C" 
			},
			{
				"x": -3.412751577,
				"y": -0.6652304702,
				"z": 0.3935268195,
				"element": "C" 
			},
			{
				"x": 4.9253689306,
				"y": -4.2181340012,
				"z": -1.4516948385,
				"element": "H" 
			},
			{
				"x": 5.2318953214,
				"y": -3.4126907092,
				"z": -4.1833686748,
				"element": "H" 
			},
			{
				"x": 3.5033447833,
				"y": -3.7905576799,
				"z": -4.289114918,
				"element": "H" 
			},
			{
				"x": 2.1649207727,
				"y": -2.3871516215,
				"z": -2.969220999,
				"element": "H" 
			},
			{
				"x": 2.4355444136,
				"y": -3.6501227977,
				"z": -1.7513933392,
				"element": "H" 
			},
			{
				"x": 3.3580180745,
				"y": -2.0114458443,
				"z": -0.1715438571,
				"element": "H" 
			},
			{
				"x": 3.2278684795,
				"y": -0.7125503294,
				"z": -1.3573996024,
				"element": "H" 
			},
			{
				"x": 1.0455518938,
				"y": -0.4465365011,
				"z": -2.3567831746,
				"element": "H" 
			},
			{
				"x": -0.4099430308,
				"y": -1.0759252616,
				"z": -1.5932790649,
				"element": "H" 
			},
			{
				"x": -0.3361341818,
				"y": 1.3852283343,
				"z": -1.4234407171,
				"element": "H" 
			},
			{
				"x": 1.2468576545,
				"y": 1.3304892525,
				"z": -0.6757471992,
				"element": "H" 
			},
			{
				"x": -0.1547686666,
				"y": -0.4463589645,
				"z": 2.3238906734,
				"element": "H" 
			},
			{
				"x": -0.7999936941,
				"y": -1.3743733147,
				"z": 0.9588811232,
				"element": "H" 
			},
			{
				"x": 2.048409932,
				"y": -0.2936203285,
				"z": 1.1504082556,
				"element": "H" 
			},
			{
				"x": 1.5635792605,
				"y": -1.9626909102,
				"z": 1.4951394446,
				"element": "H" 
			},
			{
				"x": -1.9694116449,
				"y": 0.951171806,
				"z": 1.7687907978,
				"element": "H" 
			},
			{
				"x": 0.3079373217,
				"y": 2.9960204498,
				"z": 1.0186021557,
				"element": "H" 
			},
			{
				"x": 0.198761617,
				"y": 5.4750662928,
				"z": 0.9628255401,
				"element": "H" 
			},
			{
				"x": -1.9756166535,
				"y": 6.6171258786,
				"z": 0.5588080182,
				"element": "H" 
			},
			{
				"x": -4.0293834457,
				"y": 5.252621567,
				"z": 0.2170003844,
				"element": "H" 
			},
			{
				"x": -3.9059069912,
				"y": 2.7921406745,
				"z": 0.2519140735,
				"element": "H" 
			},
			{
				"x": -2.5144553166,
				"y": 1.6521320579,
				"z": -1.9147433942,
				"element": "H" 
			},
			{
				"x": -4.0280665305,
				"y": 0.2855148642,
				"z": -3.3057740795,
				"element": "H" 
			},
			{
				"x": -4.8016194892,
				"y": -2.2860302997,
				"z": 0.0486443169,
				"element": "H" 
			},
			{
				"x": -3.2680993493,
				"y": -0.9292779807,
				"z": 1.4379260893,
				"element": "H" 
			}
		],
		 "valence_orbital": [ 
			{
				"type": "occ",
				"energy": -0.2545,
				"method": "rhf"
			},
			{
				"type": "occ",
				"energy": -0.25103,
				"method": "rhf"
			},
			{
				"type": "occ",
				"energy": -0.24333,
				"method": "rhf"
			},
			{
				"type": "occ",
				"energy": -0.22067,
				"method": "rhf"
			},
			{
				"type": "occ",
				"energy": -0.21017,
				"method": "rhf"
			},
			{
				"type": "unocc",
				"energy": -0.02339,
				"method": "rhf"
			},
			{
				"type": "unocc",
				"energy": -0.02033,
				"method": "rhf"
			},
			{
				"type": "unocc",
				"energy": -0.00699,
				"method": "rhf"
			},
			{
				"type": "unocc",
				"energy": -0.00152,
				"method": "rhf"
			},
			{
				"type": "unocc",
				"energy": 0.01052,
				"method": "rhf"
			}
		],
		"cosmo_sigma_profile": { 
			"-0.025": 0.0,
			"-0.024": 0.0,
			"-0.023": 0.0,
			"-0.022": 0.0,
			"-0.021": 0.0,
			"-0.02": 0.0,
			"-0.019": 0.0,
			"-0.018": 0.0,
			"-0.017": 0.0,
			"-0.016": 0.0,
			"-0.015": 0.0,
			"-0.014": 0.0591221153835,
			"-0.013": 0.577834844283,
			"-0.012": 0.960128558615,
			"-0.011": 0.522327912573,
			"-0.01": 1.25724573467,
			"-0.009": 1.76437239159,
			"-0.008": 5.22447862693,
			"-0.007": 11.0397962313,
			"-0.006": 19.2630777726,
			"-0.005": 31.4171325455,
			"-0.004": 34.1007454262,
			"-0.003": 38.9754857366,
			"-0.002": 40.1123327058,
			"-0.001": 38.3642758778,
			"0.0": 31.309627486,
			"0.001": 25.9947852731,
			"0.002": 28.74652533,
			"0.003": 27.2146939273,
			"0.004": 24.442745967,
			"0.005": 20.7208081523,
			"0.006": 12.6257569533,
			"0.007": 6.81136056862,
			"0.008": 4.78585377363,
			"0.009": 5.08865226828,
			"0.01": 6.62349336946,
			"0.011": 5.76888164483,
			"0.012": 6.18967216344,
			"0.013": 2.41153808945,
			"0.014": 0.292912921146,
			"0.015": 0.0662798822334,
			"0.016": 0.0,
			"0.017": 0.0,
			"0.018": 0.0,
			"0.019": 0.0,
			"0.02": 0.0,
			"0.021": 0.0,
			"0.022": 0.0,
			"0.023": 0.0,
			"0.024": 0.0,
			"0.025": 0.0
		}
	}
}
