{
	 "smiles": "CCCNC(CC(=O)NCCC)C(N)=O", 
	 "Tm": 387.15, 
	 "num_atms": 36, 
	 "gaussian": { 
		 "optdone": 1, 
		 "sigma_profile": "yes", 
		 "theory": "DFT", 
		 "functional": "B3LYP", 
		 "basiset": "6-31G**", 
		 "properties": { 
			 "R2extent": 4620.4449, 
			 "electric_dipole_moment_norm": 5.66358293486, 
			 "electric_quadrupole_moment_norm": 23.2790658004, 
			 "total_energy": -708.46841798, 
			 "HOMO_LUMO_gap": 0.23821, 
			 "cosmo_polarized_energy": -21.79, 
			 "cosmo_cavitation_energy": 37.63, 
			 "cosmo_dispersion_energy": -25.15, 
			 "cosmo_repulsion_energy": 2.08, 
			 "cosmo_total_nonelectrostatic_energy": 14.56, 
			 "SMD_solvation_energy": 6.55 
		},
		"coords": [
			{
				"x": 1.3985121329,
				"y": 2.2179879262,
				"z": 2.4245263397,
				"element": "C" 
			},
			{
				"x": 1.7155500101,
				"y": 0.8694016473,
				"z": 1.7656877995,
				"element": "C" 
			},
			{
				"x": 0.4862759989,
				"y": 0.0003365996,
				"z": 1.4762260956,
				"element": "C" 
			},
			{
				"x": -0.3742511577,
				"y": 0.6316400478,
				"z": 0.4580499374,
				"element": "N" 
			},
			{
				"x": -1.5889950836,
				"y": -0.0953709609,
				"z": 0.0262965329,
				"element": "C" 
			},
			{
				"x": -1.2786269344,
				"y": -1.4069347077,
				"z": -0.7160524555,
				"element": "C" 
			},
			{
				"x": -0.5100384188,
				"y": -1.3154037824,
				"z": -2.0414036243,
				"element": "C" 
			},
			{
				"x": -0.6788823189,
				"y": -2.1661000932,
				"z": -2.9106442109,
				"element": "O" 
			},
			{
				"x": 0.360475426,
				"y": -0.2737206771,
				"z": -2.1557996908,
				"element": "N" 
			},
			{
				"x": 1.1920759026,
				"y": -0.0760061547,
				"z": -3.333492512,
				"element": "C" 
			},
			{
				"x": 0.7824837191,
				"y": 1.1388344697,
				"z": -4.1816542722,
				"element": "C" 
			},
			{
				"x": -0.6216543485,
				"y": 1.02630798,
				"z": -4.7811416084,
				"element": "C" 
			},
			{
				"x": -2.5283560984,
				"y": -0.3896263207,
				"z": 1.2119921594,
				"element": "C" 
			},
			{
				"x": -3.6321299802,
				"y": 0.4162799087,
				"z": 1.3003498017,
				"element": "N" 
			},
			{
				"x": -2.2689300941,
				"y": -1.2384487414,
				"z": 2.0549500666,
				"element": "O" 
			},
			{
				"x": 2.3177168492,
				"y": 2.7528678194,
				"z": 2.6830068757,
				"element": "H" 
			},
			{
				"x": 0.8249989062,
				"y": 2.8775792725,
				"z": 1.7627871892,
				"element": "H" 
			},
			{
				"x": 0.8219372796,
				"y": 2.0826357583,
				"z": 3.3468587457,
				"element": "H" 
			},
			{
				"x": 2.3767197154,
				"y": 0.2958802263,
				"z": 2.4265225427,
				"element": "H" 
			},
			{
				"x": 2.2696370829,
				"y": 1.0327844644,
				"z": 0.8328652245,
				"element": "H" 
			},
			{
				"x": 0.8191569748,
				"y": -0.9645652462,
				"z": 1.081696604,
				"element": "H" 
			},
			{
				"x": -0.0541612518,
				"y": -0.2119607699,
				"z": 2.4092493432,
				"element": "H" 
			},
			{
				"x": -0.6552180747,
				"y": 1.5521929509,
				"z": 0.7856273941,
				"element": "H" 
			},
			{
				"x": -2.0959083489,
				"y": 0.5806854935,
				"z": -0.6753263634,
				"element": "H" 
			},
			{
				"x": -0.7488593862,
				"y": -2.0913411845,
				"z": -0.0448483475,
				"element": "H" 
			},
			{
				"x": -2.2197791775,
				"y": -1.9077931092,
				"z": -0.9584433809,
				"element": "H" 
			},
			{
				"x": 0.4214775155,
				"y": 0.3618735442,
				"z": -1.3597527581,
				"element": "H" 
			},
			{
				"x": 1.1167670874,
				"y": -0.9927541835,
				"z": -3.9242828645,
				"element": "H" 
			},
			{
				"x": 2.2372575408,
				"y": 0.0348244283,
				"z": -3.0163166712,
				"element": "H" 
			},
			{
				"x": 0.8550150496,
				"y": 2.0488433812,
				"z": -3.5697846556,
				"element": "H" 
			},
			{
				"x": 1.5228841968,
				"y": 1.2523128048,
				"z": -4.9845301291,
				"element": "H" 
			},
			{
				"x": -1.3782576336,
				"y": 0.9362758878,
				"z": -3.9954113928,
				"element": "H" 
			},
			{
				"x": -0.7084502651,
				"y": 0.1415217054,
				"z": -5.4200907981,
				"element": "H" 
			},
			{
				"x": -0.8660773276,
				"y": 1.9072294805,
				"z": -5.3839028155,
				"element": "H" 
			},
			{
				"x": -3.9379675372,
				"y": 0.9844267762,
				"z": 0.5264836528,
				"element": "H" 
			},
			{
				"x": -4.2984979509,
				"y": 0.2114033588,
				"z": 2.031402246,
				"element": "H" 
			}
		],
		 "valence_orbital": [ 
			{
				"type": "occ",
				"energy": -0.28008,
				"method": "rhf"
			},
			{
				"type": "occ",
				"energy": -0.27906,
				"method": "rhf"
			},
			{
				"type": "occ",
				"energy": -0.23511,
				"method": "rhf"
			},
			{
				"type": "occ",
				"energy": -0.23198,
				"method": "rhf"
			},
			{
				"type": "occ",
				"energy": -0.22726,
				"method": "rhf"
			},
			{
				"type": "unocc",
				"energy": 0.01095,
				"method": "rhf"
			},
			{
				"type": "unocc",
				"energy": 0.04734,
				"method": "rhf"
			},
			{
				"type": "unocc",
				"energy": 0.05334,
				"method": "rhf"
			},
			{
				"type": "unocc",
				"energy": 0.07697,
				"method": "rhf"
			},
			{
				"type": "unocc",
				"energy": 0.09534,
				"method": "rhf"
			}
		],
		"cosmo_sigma_profile": { 
			"-0.025": 0.0,
			"-0.024": 0.0,
			"-0.023": 0.0,
			"-0.022": 0.0,
			"-0.021": 0.0,
			"-0.02": 0.0,
			"-0.019": 0.0,
			"-0.018": 0.0,
			"-0.017": 0.0,
			"-0.016": 0.0,
			"-0.015": 0.241280374324,
			"-0.014": 1.90323330348,
			"-0.013": 2.67190796457,
			"-0.012": 2.90882899797,
			"-0.011": 2.74652370627,
			"-0.01": 3.8536105857,
			"-0.009": 4.26868628958,
			"-0.008": 4.16871729465,
			"-0.007": 3.72351193436,
			"-0.006": 6.08324366118,
			"-0.005": 10.0306043741,
			"-0.004": 12.4062320638,
			"-0.003": 23.9227244405,
			"-0.002": 36.7071911638,
			"-0.001": 39.1275669605,
			"0.0": 35.7720275705,
			"0.001": 29.4031343811,
			"0.002": 12.825576718,
			"0.003": 7.37852724201,
			"0.004": 4.65085726778,
			"0.005": 4.82304397716,
			"0.006": 4.65749228819,
			"0.007": 3.29423435685,
			"0.008": 3.07772350788,
			"0.009": 2.67077545124,
			"0.01": 2.74511227802,
			"0.011": 3.59294071668,
			"0.012": 2.6222862334,
			"0.013": 4.69040513992,
			"0.014": 8.11208699255,
			"0.015": 5.26134590046,
			"0.016": 0.852657070342,
			"0.017": 0.0,
			"0.018": 0.0,
			"0.019": 0.0,
			"0.02": 0.0,
			"0.021": 0.0,
			"0.022": 0.0,
			"0.023": 0.0,
			"0.024": 0.0,
			"0.025": 0.0
		}
	}
}
