{
	 "smiles": "CC(C)NCCCC1(C(N)=O)C2=CC=CC=C2C2=C1C=CC=C2", 
	 "Tm": 367.65, 
	 "num_atms": 47, 
	 "gaussian": { 
		 "optdone": 1, 
		 "sigma_profile": "yes", 
		 "theory": "DFT", 
		 "functional": "B3LYP", 
		 "basiset": "6-31G**", 
		 "properties": { 
			 "R2extent": 7754.7221, 
			 "electric_dipole_moment_norm": 2.69002791993, 
			 "electric_quadrupole_moment_norm": 13.3128669996, 
			 "total_energy": -961.35303755, 
			 "HOMO_LUMO_gap": 0.18227, 
			 "cosmo_polarized_energy": -13.67, 
			 "cosmo_cavitation_energy": 46.3, 
			 "cosmo_dispersion_energy": -31.1, 
			 "cosmo_repulsion_energy": 2.35, 
			 "cosmo_total_nonelectrostatic_energy": 17.55, 
			 "SMD_solvation_energy": 7.72 
		},
		"coords": [
			{
				"x": 1.1891887398,
				"y": 1.0584553951,
				"z": -5.1464090945,
				"element": "C" 
			},
			{
				"x": 0.8064828341,
				"y": 0.1267648783,
				"z": -3.9820079837,
				"element": "C" 
			},
			{
				"x": 1.2120331092,
				"y": -1.3209386843,
				"z": -4.2778249371,
				"element": "C" 
			},
			{
				"x": 1.3782173083,
				"y": 0.5101557158,
				"z": -2.6803968638,
				"element": "N" 
			},
			{
				"x": 1.0067800979,
				"y": 1.8221117557,
				"z": -2.1346107998,
				"element": "C" 
			},
			{
				"x": -0.4745796253,
				"y": 1.9484783069,
				"z": -1.7506907638,
				"element": "C" 
			},
			{
				"x": -1.0579674918,
				"y": 0.8966770479,
				"z": -0.7876802267,
				"element": "C" 
			},
			{
				"x": -0.5113336854,
				"y": 0.789248283,
				"z": 0.6941437772,
				"element": "C" 
			},
			{
				"x": 0.3776914691,
				"y": 2.0076127966,
				"z": 1.074421482,
				"element": "C" 
			},
			{
				"x": 1.5968356082,
				"y": 1.733678918,
				"z": 1.6154612867,
				"element": "N" 
			},
			{
				"x": -0.019446273,
				"y": 3.1568515274,
				"z": 0.9208348093,
				"element": "O" 
			},
			{
				"x": -1.6474885249,
				"y": 0.7942807876,
				"z": 1.7308472698,
				"element": "C" 
			},
			{
				"x": -2.6017748672,
				"y": 1.7794783462,
				"z": 1.9612232476,
				"element": "C" 
			},
			{
				"x": -3.54808879,
				"y": 1.5778147483,
				"z": 2.9722704306,
				"element": "C" 
			},
			{
				"x": -3.5303943454,
				"y": 0.4116324305,
				"z": 3.7458600959,
				"element": "C" 
			},
			{
				"x": -2.5642459946,
				"y": -0.5721467827,
				"z": 3.5250724573,
				"element": "C" 
			},
			{
				"x": -1.6209894461,
				"y": -0.3744948679,
				"z": 2.5140998681,
				"element": "C" 
			},
			{
				"x": -0.5160914708,
				"y": -1.2213532158,
				"z": 2.0512205947,
				"element": "C" 
			},
			{
				"x": 0.1290781527,
				"y": -0.573719108,
				"z": 0.9759455046,
				"element": "C" 
			},
			{
				"x": 1.1782448612,
				"y": -1.2025537314,
				"z": 0.3068260742,
				"element": "C" 
			},
			{
				"x": 1.603331368,
				"y": -2.464154364,
				"z": 0.7449570682,
				"element": "C" 
			},
			{
				"x": 0.9807221628,
				"y": -3.0920413122,
				"z": 1.8284245082,
				"element": "C" 
			},
			{
				"x": -0.0900303355,
				"y": -2.4787541921,
				"z": 2.4834821273,
				"element": "C" 
			},
			{
				"x": 2.2748880324,
				"y": 1.0518276598,
				"z": -5.3061301593,
				"element": "H" 
			},
			{
				"x": 0.7135500992,
				"y": 0.7350274856,
				"z": -6.0787486591,
				"element": "H" 
			},
			{
				"x": 0.882777025,
				"y": 2.0925357094,
				"z": -4.9618589296,
				"element": "H" 
			},
			{
				"x": -0.2846888805,
				"y": 0.1526450357,
				"z": -3.8684523557,
				"element": "H" 
			},
			{
				"x": 2.300567301,
				"y": -1.4031548801,
				"z": -4.3939305017,
				"element": "H" 
			},
			{
				"x": 0.7546183858,
				"y": -1.6776507335,
				"z": -5.2061553235,
				"element": "H" 
			},
			{
				"x": 0.9085981953,
				"y": -1.9802424211,
				"z": -3.4600954918,
				"element": "H" 
			},
			{
				"x": 2.3929972648,
				"y": 0.4655064226,
				"z": -2.7541397771,
				"element": "H" 
			},
			{
				"x": 1.2417738537,
				"y": 2.6581205763,
				"z": -2.8167902276,
				"element": "H" 
			},
			{
				"x": 1.6290599457,
				"y": 1.9759789987,
				"z": -1.2466704009,
				"element": "H" 
			},
			{
				"x": -0.6170732719,
				"y": 2.9474934652,
				"z": -1.3324262513,
				"element": "H" 
			},
			{
				"x": -1.0853378049,
				"y": 1.9053794362,
				"z": -2.662202003,
				"element": "H" 
			},
			{
				"x": -2.13281044,
				"y": 1.0889766553,
				"z": -0.7228508556,
				"element": "H" 
			},
			{
				"x": -0.949009002,
				"y": -0.0933944635,
				"z": -1.2378891432,
				"element": "H" 
			},
			{
				"x": 2.1381647608,
				"y": 2.5126741552,
				"z": 1.9588254411,
				"element": "H" 
			},
			{
				"x": 1.9001885075,
				"y": 0.790079045,
				"z": 1.7951379563,
				"element": "H" 
			},
			{
				"x": -2.5927496271,
				"y": 2.6952414663,
				"z": 1.3795311993,
				"element": "H" 
			},
			{
				"x": -4.3014367384,
				"y": 2.3372609688,
				"z": 3.1613726932,
				"element": "H" 
			},
			{
				"x": -4.2727466966,
				"y": 0.2717861306,
				"z": 4.526603937,
				"element": "H" 
			},
			{
				"x": -2.5507699668,
				"y": -1.4745075449,
				"z": 4.1303800585,
				"element": "H" 
			},
			{
				"x": 1.6213734613,
				"y": -0.7409201083,
				"z": -0.5716821689,
				"element": "H" 
			},
			{
				"x": 2.4185414072,
				"y": -2.9640338166,
				"z": 0.2291856941,
				"element": "H" 
			},
			{
				"x": 1.3222011985,
				"y": -4.070664674,
				"z": 2.1540942975,
				"element": "H" 
			},
			{
				"x": -0.5859518716,
				"y": -2.9788492475,
				"z": 3.3109210392,
				"element": "H" 
			}
		],
		 "valence_orbital": [ 
			{
				"type": "occ",
				"energy": -0.25722,
				"method": "rhf"
			},
			{
				"type": "occ",
				"energy": -0.24273,
				"method": "rhf"
			},
			{
				"type": "occ",
				"energy": -0.23154,
				"method": "rhf"
			},
			{
				"type": "occ",
				"energy": -0.21777,
				"method": "rhf"
			},
			{
				"type": "occ",
				"energy": -0.21229,
				"method": "rhf"
			},
			{
				"type": "unocc",
				"energy": -0.03002,
				"method": "rhf"
			},
			{
				"type": "unocc",
				"energy": -0.01218,
				"method": "rhf"
			},
			{
				"type": "unocc",
				"energy": 0.00665,
				"method": "rhf"
			},
			{
				"type": "unocc",
				"energy": 0.04025,
				"method": "rhf"
			},
			{
				"type": "unocc",
				"energy": 0.04515,
				"method": "rhf"
			}
		],
		"cosmo_sigma_profile": { 
			"-0.025": 0.0,
			"-0.024": 0.0,
			"-0.023": 0.0,
			"-0.022": 0.0,
			"-0.021": 0.0,
			"-0.02": 0.0,
			"-0.019": 0.0,
			"-0.018": 0.0,
			"-0.017": 0.0,
			"-0.016": 0.0,
			"-0.015": 0.0,
			"-0.014": 0.590179575257,
			"-0.013": 1.34518865093,
			"-0.012": 1.71820394664,
			"-0.011": 1.66549501135,
			"-0.01": 2.06498680424,
			"-0.009": 2.70261890917,
			"-0.008": 2.51917892005,
			"-0.007": 2.59060954853,
			"-0.006": 10.9114903431,
			"-0.005": 16.6961436735,
			"-0.004": 18.4158480416,
			"-0.003": 29.5229498549,
			"-0.002": 38.2319854309,
			"-0.001": 43.2069081744,
			"0.0": 39.7160814868,
			"0.001": 37.3898754258,
			"0.002": 27.7309153362,
			"0.003": 20.1883212613,
			"0.004": 19.0691577896,
			"0.005": 18.3313543108,
			"0.006": 11.2791269603,
			"0.007": 2.72297955964,
			"0.008": 2.40220289314,
			"0.009": 2.17092442188,
			"0.01": 1.51541444817,
			"0.011": 1.69278636274,
			"0.012": 1.64322235042,
			"0.013": 2.20184396321,
			"0.014": 2.93452131617,
			"0.015": 0.589433423198,
			"0.016": 0.0,
			"0.017": 0.0,
			"0.018": 0.0,
			"0.019": 0.0,
			"0.02": 0.0,
			"0.021": 0.0,
			"0.022": 0.0,
			"0.023": 0.0,
			"0.024": 0.0,
			"0.025": 0.0
		}
	}
}
