{
	 "smiles": "CCC1=C(C)C2=CC=CC=C2N1", 
	 "Tm": 336.65, 
	 "num_atms": 25, 
	 "gaussian": { 
		 "optdone": 1, 
		 "sigma_profile": "yes", 
		 "theory": "DFT", 
		 "functional": "B3LYP", 
		 "basiset": "6-31G**", 
		 "properties": { 
			 "R2extent": 2648.3359, 
			 "electric_dipole_moment_norm": 2.38090676214, 
			 "electric_quadrupole_moment_norm": 6.18705538443, 
			 "total_energy": -481.780397627, 
			 "HOMO_LUMO_gap": 0.1892, 
			 "cosmo_polarized_energy": -7.96, 
			 "cosmo_cavitation_energy": 27.56, 
			 "cosmo_dispersion_energy": -20.0, 
			 "cosmo_repulsion_energy": 1.6, 
			 "cosmo_total_nonelectrostatic_energy": 9.16, 
			 "SMD_solvation_energy": 4.33 
		},
		"coords": [
			{
				"x": -2.4714158151,
				"y": 0.5102769085,
				"z": 1.5897953329,
				"element": "C" 
			},
			{
				"x": -1.3674087531,
				"y": -0.4248437585,
				"z": 2.1205469266,
				"element": "C" 
			},
			{
				"x": -0.2929522881,
				"y": -0.7222474664,
				"z": 1.1183873366,
				"element": "C" 
			},
			{
				"x": -0.020726339,
				"y": -1.8635893232,
				"z": 0.3954542655,
				"element": "C" 
			},
			{
				"x": -0.7474639115,
				"y": -3.1745041954,
				"z": 0.437959441,
				"element": "C" 
			},
			{
				"x": 1.1191197563,
				"y": -1.5680341171,
				"z": -0.4386243968,
				"element": "C" 
			},
			{
				"x": 1.8557786395,
				"y": -2.3105984858,
				"z": -1.376893955,
				"element": "C" 
			},
			{
				"x": 2.9326051716,
				"y": -1.7104743476,
				"z": -2.0203481795,
				"element": "C" 
			},
			{
				"x": 3.2917213529,
				"y": -0.3758379012,
				"z": -1.7450082386,
				"element": "C" 
			},
			{
				"x": 2.5810372461,
				"y": 0.3855145953,
				"z": -0.8218491612,
				"element": "C" 
			},
			{
				"x": 1.498733796,
				"y": -0.2229798107,
				"z": -0.1794313575,
				"element": "C" 
			},
			{
				"x": 0.6217041162,
				"y": 0.2663673761,
				"z": 0.765129149,
				"element": "N" 
			},
			{
				"x": -3.225417542,
				"y": 0.7000872309,
				"z": 2.3606642774,
				"element": "H" 
			},
			{
				"x": -2.0619233358,
				"y": 1.4766953877,
				"z": 1.2771545561,
				"element": "H" 
			},
			{
				"x": -2.9705574462,
				"y": 0.0681786913,
				"z": 0.7224227888,
				"element": "H" 
			},
			{
				"x": -1.8157889521,
				"y": -1.3686603663,
				"z": 2.4449330076,
				"element": "H" 
			},
			{
				"x": -0.9173045944,
				"y": 0.0203804964,
				"z": 3.0193252659,
				"element": "H" 
			},
			{
				"x": -1.5462718806,
				"y": -3.1754268608,
				"z": 1.1850300061,
				"element": "H" 
			},
			{
				"x": -1.2057734046,
				"y": -3.4149299163,
				"z": -0.5297740463,
				"element": "H" 
			},
			{
				"x": -0.0690058706,
				"y": -4.0012943732,
				"z": 0.6825159611,
				"element": "H" 
			},
			{
				"x": 1.5876709807,
				"y": -3.3404867832,
				"z": -1.5971548034,
				"element": "H" 
			},
			{
				"x": 3.508408124,
				"y": -2.2760691066,
				"z": -2.7473431917,
				"element": "H" 
			},
			{
				"x": 4.1379100378,
				"y": 0.0673111286,
				"z": -2.2621844476,
				"element": "H" 
			},
			{
				"x": 2.8585305479,
				"y": 1.4147515195,
				"z": -0.6104059816,
				"element": "H" 
			},
			{
				"x": 0.6570903639,
				"y": 1.1868134779,
				"z": 1.1717994445,
				"element": "H" 
			}
		],
		 "valence_orbital": [ 
			{
				"type": "occ",
				"energy": -0.32063,
				"method": "rhf"
			},
			{
				"type": "occ",
				"energy": -0.31681,
				"method": "rhf"
			},
			{
				"type": "occ",
				"energy": -0.25881,
				"method": "rhf"
			},
			{
				"type": "occ",
				"energy": -0.20812,
				"method": "rhf"
			},
			{
				"type": "occ",
				"energy": -0.18867,
				"method": "rhf"
			},
			{
				"type": "unocc",
				"energy": 0.00053,
				"method": "rhf"
			},
			{
				"type": "unocc",
				"energy": 0.03651,
				"method": "rhf"
			},
			{
				"type": "unocc",
				"energy": 0.07022,
				"method": "rhf"
			},
			{
				"type": "unocc",
				"energy": 0.08143,
				"method": "rhf"
			},
			{
				"type": "unocc",
				"energy": 0.099,
				"method": "rhf"
			}
		],
		"cosmo_sigma_profile": { 
			"-0.025": 0.0,
			"-0.024": 0.0,
			"-0.023": 0.0,
			"-0.022": 0.0,
			"-0.021": 0.0,
			"-0.02": 0.0,
			"-0.019": 0.0,
			"-0.018": 0.0,
			"-0.017": 0.0,
			"-0.016": 0.0,
			"-0.015": 0.398974105575,
			"-0.014": 1.0393239832,
			"-0.013": 1.34174521182,
			"-0.012": 1.01445305339,
			"-0.011": 1.04955397383,
			"-0.01": 1.27761921556,
			"-0.009": 1.4507382337,
			"-0.008": 1.74031897098,
			"-0.007": 1.66123822567,
			"-0.006": 2.84111766655,
			"-0.005": 6.95190426456,
			"-0.004": 14.7038102825,
			"-0.003": 20.6974002099,
			"-0.002": 23.0349110123,
			"-0.001": 26.0787572504,
			"0.0": 23.549418178,
			"0.001": 20.4120544176,
			"0.002": 10.2618542256,
			"0.003": 8.11348031107,
			"0.004": 9.21574828628,
			"0.005": 11.1218814683,
			"0.006": 13.3064066615,
			"0.007": 11.1094754852,
			"0.008": 5.04911463399,
			"0.009": 0.108842386599,
			"0.01": 0.0,
			"0.011": 0.0,
			"0.012": 0.0,
			"0.013": 0.0,
			"0.014": 0.0,
			"0.015": 0.0,
			"0.016": 0.0,
			"0.017": 0.0,
			"0.018": 0.0,
			"0.019": 0.0,
			"0.02": 0.0,
			"0.021": 0.0,
			"0.022": 0.0,
			"0.023": 0.0,
			"0.024": 0.0,
			"0.025": 0.0
		}
	}
}
