{
	 "smiles": "CC12CCC3C(CC=C4CC(O)CCC34C)C1CCC2O", 
	 "Tm": 453.15, 
	 "num_atms": 51, 
	 "gaussian": { 
		 "optdone": 1, 
		 "sigma_profile": "yes", 
		 "theory": "DFT", 
		 "functional": "B3LYP", 
		 "basiset": "6-31G**", 
		 "properties": { 
			 "R2extent": 7209.9967, 
			 "electric_dipole_moment_norm": 1.49747418342, 
			 "electric_quadrupole_moment_norm": 19.5871610776, 
			 "total_energy": -892.543320017, 
			 "HOMO_LUMO_gap": 0.25746, 
			 "cosmo_polarized_energy": -11.74, 
			 "cosmo_cavitation_energy": 43.84, 
			 "cosmo_dispersion_energy": -30.85, 
			 "cosmo_repulsion_energy": 2.29, 
			 "cosmo_total_nonelectrostatic_energy": 15.29, 
			 "SMD_solvation_energy": 5.76 
		},
		"coords": [
			{
				"x": 0.2317017736,
				"y": -2.935338106,
				"z": 2.5075278326,
				"element": "C" 
			},
			{
				"x": 0.2242239578,
				"y": -2.5331318646,
				"z": 1.0242424625,
				"element": "C" 
			},
			{
				"x": -1.1406995912,
				"y": -1.8935956885,
				"z": 0.6736458326,
				"element": "C" 
			},
			{
				"x": -1.1178521754,
				"y": -1.072629084,
				"z": -0.6249925855,
				"element": "C" 
			},
			{
				"x": -0.0834117871,
				"y": 0.09229794,
				"z": -0.6075904668,
				"element": "C" 
			},
			{
				"x": 0.9380718238,
				"y": -0.0831080491,
				"z": 0.5423120594,
				"element": "C" 
			},
			{
				"x": 2.1023419395,
				"y": 0.9041893896,
				"z": 0.3818906679,
				"element": "C" 
			},
			{
				"x": 1.6429364298,
				"y": 2.2724367809,
				"z": -0.0417588806,
				"element": "C" 
			},
			{
				"x": 0.4092168355,
				"y": 2.5648514521,
				"z": -0.4725628303,
				"element": "C" 
			},
			{
				"x": 0.0558782993,
				"y": 3.9350670141,
				"z": -0.9994242759,
				"element": "C" 
			},
			{
				"x": -0.2032822761,
				"y": 3.8911953431,
				"z": -2.5247406876,
				"element": "C" 
			},
			{
				"x": -1.2370509436,
				"y": 4.8457904486,
				"z": -2.7791740828,
				"element": "O" 
			},
			{
				"x": -0.6095530995,
				"y": 2.4714288376,
				"z": -2.9672524603,
				"element": "C" 
			},
			{
				"x": -1.4948702168,
				"y": 1.8030916792,
				"z": -1.9105477688,
				"element": "C" 
			},
			{
				"x": -0.713675282,
				"y": 1.5236673082,
				"z": -0.5797264095,
				"element": "C" 
			},
			{
				"x": -1.694309603,
				"y": 1.7016264961,
				"z": 0.6054172587,
				"element": "C" 
			},
			{
				"x": 1.4090974075,
				"y": -1.5391959309,
				"z": 0.7200370183,
				"element": "C" 
			},
			{
				"x": 2.1970220976,
				"y": -2.1680390975,
				"z": -0.4562441677,
				"element": "C" 
			},
			{
				"x": 1.995995117,
				"y": -3.674571976,
				"z": -0.259477951,
				"element": "C" 
			},
			{
				"x": 0.5169407354,
				"y": -3.7780117639,
				"z": 0.1082376288,
				"element": "C" 
			},
			{
				"x": 0.2568565867,
				"y": -5.0451055115,
				"z": 0.6987460056,
				"element": "O" 
			},
			{
				"x": 0.1750313395,
				"y": -2.0413247829,
				"z": 3.139350639,
				"element": "H" 
			},
			{
				"x": 1.1400466156,
				"y": -3.4841548648,
				"z": 2.7722369004,
				"element": "H" 
			},
			{
				"x": -0.6212327817,
				"y": -3.5742353557,
				"z": 2.7611674483,
				"element": "H" 
			},
			{
				"x": -1.4658182458,
				"y": -1.25277478,
				"z": 1.5027409697,
				"element": "H" 
			},
			{
				"x": -1.9017910917,
				"y": -2.6837430541,
				"z": 0.5958475937,
				"element": "H" 
			},
			{
				"x": -2.1263050697,
				"y": -0.6961748474,
				"z": -0.8258228109,
				"element": "H" 
			},
			{
				"x": -0.8900112323,
				"y": -1.7421166327,
				"z": -1.4631502208,
				"element": "H" 
			},
			{
				"x": 0.4840414278,
				"y": 0.0454047429,
				"z": -1.5476253094,
				"element": "H" 
			},
			{
				"x": 0.4284743228,
				"y": 0.184340512,
				"z": 1.4779825468,
				"element": "H" 
			},
			{
				"x": 2.8189139667,
				"y": 0.5280918509,
				"z": -0.3650437158,
				"element": "H" 
			},
			{
				"x": 2.6707906154,
				"y": 0.9671186098,
				"z": 1.320888094,
				"element": "H" 
			},
			{
				"x": 2.3921247,
				"y": 3.0645425732,
				"z": -0.0249333931,
				"element": "H" 
			},
			{
				"x": -0.8734978124,
				"y": 4.2974765267,
				"z": -0.5427041821,
				"element": "H" 
			},
			{
				"x": 0.8335356645,
				"y": 4.666105762,
				"z": -0.7602596082,
				"element": "H" 
			},
			{
				"x": 0.7137178027,
				"y": 4.1830079244,
				"z": -3.0603927131,
				"element": "H" 
			},
			{
				"x": -1.3698253471,
				"y": 4.8899167799,
				"z": -3.7351676825,
				"element": "H" 
			},
			{
				"x": -1.1249267412,
				"y": 2.5269644953,
				"z": -3.935086425,
				"element": "H" 
			},
			{
				"x": 0.2965377602,
				"y": 1.874440041,
				"z": -3.1313679086,
				"element": "H" 
			},
			{
				"x": -1.9245767686,
				"y": 0.8730888583,
				"z": -2.2965341926,
				"element": "H" 
			},
			{
				"x": -2.3410291375,
				"y": 2.470599042,
				"z": -1.709526843,
				"element": "H" 
			},
			{
				"x": -1.2218538123,
				"y": 1.488962356,
				"z": 1.5682394609,
				"element": "H" 
			},
			{
				"x": -2.5674672581,
				"y": 1.048752669,
				"z": 0.4997834845,
				"element": "H" 
			},
			{
				"x": -2.065497136,
				"y": 2.730515389,
				"z": 0.6447365325,
				"element": "H" 
			},
			{
				"x": 2.0788576406,
				"y": -1.5519308139,
				"z": 1.5911923412,
				"element": "H" 
			},
			{
				"x": 3.2517200877,
				"y": -1.8768032188,
				"z": -0.4614656123,
				"element": "H" 
			},
			{
				"x": 1.7766475689,
				"y": -1.8607138434,
				"z": -1.4223427103,
				"element": "H" 
			},
			{
				"x": 2.5939149536,
				"y": -4.0389382218,
				"z": 0.5853620981,
				"element": "H" 
			},
			{
				"x": 2.2563922287,
				"y": -4.2787903213,
				"z": -1.1337181396,
				"element": "H" 
			},
			{
				"x": -0.0761609847,
				"y": -3.6795745222,
				"z": -0.8157732402,
				"element": "H" 
			},
			{
				"x": -0.6965313043,
				"y": -5.126368491,
				"z": 0.8299223985,
				"element": "H" 
			}
		],
		 "valence_orbital": [ 
			{
				"type": "occ",
				"energy": -0.28023,
				"method": "rhf"
			},
			{
				"type": "occ",
				"energy": -0.27508,
				"method": "rhf"
			},
			{
				"type": "occ",
				"energy": -0.25896,
				"method": "rhf"
			},
			{
				"type": "occ",
				"energy": -0.25041,
				"method": "rhf"
			},
			{
				"type": "occ",
				"energy": -0.22618,
				"method": "rhf"
			},
			{
				"type": "unocc",
				"energy": 0.03128,
				"method": "rhf"
			},
			{
				"type": "unocc",
				"energy": 0.06279,
				"method": "rhf"
			},
			{
				"type": "unocc",
				"energy": 0.07381,
				"method": "rhf"
			},
			{
				"type": "unocc",
				"energy": 0.07915,
				"method": "rhf"
			},
			{
				"type": "unocc",
				"energy": 0.08511,
				"method": "rhf"
			}
		],
		"cosmo_sigma_profile": { 
			"-0.025": 0.0,
			"-0.024": 0.0,
			"-0.023": 0.0,
			"-0.022": 0.0,
			"-0.021": 0.0,
			"-0.02": 0.0,
			"-0.019": 0.0,
			"-0.018": 0.0,
			"-0.017": 0.0,
			"-0.016": 0.00641976437163,
			"-0.015": 0.696541544905,
			"-0.014": 1.61960998054,
			"-0.013": 1.93359052604,
			"-0.012": 1.64737356016,
			"-0.011": 1.73779392608,
			"-0.01": 2.01659182066,
			"-0.009": 2.0041755282,
			"-0.008": 2.45156945186,
			"-0.007": 2.29512860451,
			"-0.006": 2.49302783481,
			"-0.005": 3.21980884218,
			"-0.004": 4.37453913127,
			"-0.003": 24.4278458369,
			"-0.002": 56.4459304755,
			"-0.001": 58.4582337137,
			"0.0": 53.8665150079,
			"0.001": 43.1950446668,
			"0.002": 21.3074625396,
			"0.003": 8.41435759213,
			"0.004": 6.5713994704,
			"0.005": 6.40480472618,
			"0.006": 4.21637914344,
			"0.007": 3.62072562649,
			"0.008": 1.98585389226,
			"0.009": 2.55627936646,
			"0.01": 3.34620805568,
			"0.011": 2.74980543834,
			"0.012": 2.27333692514,
			"0.013": 2.43936323104,
			"0.014": 4.12644389662,
			"0.015": 1.62252686088,
			"0.016": 0.0,
			"0.017": 0.0,
			"0.018": 0.0,
			"0.019": 0.0,
			"0.02": 0.0,
			"0.021": 0.0,
			"0.022": 0.0,
			"0.023": 0.0,
			"0.024": 0.0,
			"0.025": 0.0
		}
	}
}
