{
	 "smiles": "OC1=C(C=O)C2=CC=CC=C2C=C1", 
	 "Tm": 354.15, 
	 "num_atms": 21, 
	 "gaussian": { 
		 "optdone": 1, 
		 "sigma_profile": "yes", 
		 "theory": "DFT", 
		 "functional": "B3LYP", 
		 "basiset": "6-31G**", 
		 "properties": { 
			 "R2extent": 4066.9755, 
			 "electric_dipole_moment_norm": 3.34108747267, 
			 "electric_quadrupole_moment_norm": 13.3241543818, 
			 "total_energy": -574.451565929, 
			 "HOMO_LUMO_gap": 0.14753, 
			 "cosmo_polarized_energy": -7.9, 
			 "cosmo_cavitation_energy": 24.59, 
			 "cosmo_dispersion_energy": -18.78, 
			 "cosmo_repulsion_energy": 1.43, 
			 "cosmo_total_nonelectrostatic_energy": 7.24, 
			 "SMD_solvation_energy": 5.17 
		},
		"coords": [
			{
				"x": 2.7799739338,
				"y": -2.5024205,
				"z": 2.8066134126,
				"element": "O" 
			},
			{
				"x": 2.482687318,
				"y": -1.3988744821,
				"z": 2.124266952,
				"element": "C" 
			},
			{
				"x": 2.5203291534,
				"y": -1.3533705236,
				"z": 0.7120956049,
				"element": "C" 
			},
			{
				"x": 2.8982109379,
				"y": -2.5630188787,
				"z": 0.0136841342,
				"element": "C" 
			},
			{
				"x": 3.1896846751,
				"y": -3.632029985,
				"z": 0.5768692044,
				"element": "O" 
			},
			{
				"x": 2.186273246,
				"y": -0.1231340689,
				"z": 0.0272797405,
				"element": "C" 
			},
			{
				"x": 2.1947570659,
				"y": 0.0225995252,
				"z": -1.3840058584,
				"element": "C" 
			},
			{
				"x": 1.8658834742,
				"y": 1.2241196135,
				"z": -1.981935343,
				"element": "C" 
			},
			{
				"x": 1.5102983619,
				"y": 2.3471400315,
				"z": -1.2070855327,
				"element": "C" 
			},
			{
				"x": 1.4919760652,
				"y": 2.239872589,
				"z": 0.166896635,
				"element": "C" 
			},
			{
				"x": 1.824383494,
				"y": 1.0209981735,
				"z": 0.8073729068,
				"element": "C" 
			},
			{
				"x": 1.8040815883,
				"y": 0.9146163775,
				"z": 2.230661073,
				"element": "C" 
			},
			{
				"x": 2.1201355444,
				"y": -0.2487420523,
				"z": 2.8762618769,
				"element": "C" 
			},
			{
				"x": 3.0083438244,
				"y": -3.2011275623,
				"z": 2.1273953979,
				"element": "H" 
			},
			{
				"x": 2.9300007597,
				"y": -2.535195386,
				"z": -1.0871311921,
				"element": "H" 
			},
			{
				"x": 2.4618209168,
				"y": -0.8142797883,
				"z": -2.018962103,
				"element": "H" 
			},
			{
				"x": 1.8823050164,
				"y": 1.3020091717,
				"z": -3.0652842847,
				"element": "H" 
			},
			{
				"x": 1.2543556934,
				"y": 3.2845303122,
				"z": -1.6910095061,
				"element": "H" 
			},
			{
				"x": 1.2208646216,
				"y": 3.0930117654,
				"z": 0.783632265,
				"element": "H" 
			},
			{
				"x": 1.5269561476,
				"y": 1.7935307093,
				"z": 2.8075305839,
				"element": "H" 
			},
			{
				"x": 2.105578162,
				"y": -0.3323350417,
				"z": 3.9574540328,
				"element": "H" 
			}
		],
		 "valence_orbital": [ 
			{
				"type": "occ",
				"energy": -0.31726,
				"method": "rhf"
			},
			{
				"type": "occ",
				"energy": -0.29268,
				"method": "rhf"
			},
			{
				"type": "occ",
				"energy": -0.26572,
				"method": "rhf"
			},
			{
				"type": "occ",
				"energy": -0.24363,
				"method": "rhf"
			},
			{
				"type": "occ",
				"energy": -0.2231,
				"method": "rhf"
			},
			{
				"type": "unocc",
				"energy": -0.07557,
				"method": "rhf"
			},
			{
				"type": "unocc",
				"energy": -0.02388,
				"method": "rhf"
			},
			{
				"type": "unocc",
				"energy": -0.01278,
				"method": "rhf"
			},
			{
				"type": "unocc",
				"energy": 0.04654,
				"method": "rhf"
			},
			{
				"type": "unocc",
				"energy": 0.08575,
				"method": "rhf"
			}
		],
		"cosmo_sigma_profile": { 
			"-0.025": 0.0,
			"-0.024": 0.0,
			"-0.023": 0.0,
			"-0.022": 0.0,
			"-0.021": 0.0,
			"-0.02": 0.0,
			"-0.019": 0.0,
			"-0.018": 0.0,
			"-0.017": 0.0,
			"-0.016": 0.0,
			"-0.015": 0.0,
			"-0.014": 0.0,
			"-0.013": 0.0,
			"-0.012": 0.0,
			"-0.011": 0.0,
			"-0.01": 0.310755067122,
			"-0.009": 1.71993418573,
			"-0.008": 3.13265101165,
			"-0.007": 7.72583220917,
			"-0.006": 12.7773083627,
			"-0.005": 13.5016966768,
			"-0.004": 14.2090994893,
			"-0.003": 11.5698317928,
			"-0.002": 14.303720865,
			"-0.001": 12.3938900589,
			"0.0": 12.8692851013,
			"0.001": 18.2629205055,
			"0.002": 18.5480272239,
			"0.003": 16.4227053974,
			"0.004": 13.3442881208,
			"0.005": 7.91308678117,
			"0.006": 2.66183409699,
			"0.007": 2.11334857661,
			"0.008": 3.22493643048,
			"0.009": 3.27924802262,
			"0.01": 3.28132650522,
			"0.011": 2.70674236295,
			"0.012": 1.63174757037,
			"0.013": 0.450876204554,
			"0.014": 0.0,
			"0.015": 0.0,
			"0.016": 0.0,
			"0.017": 0.0,
			"0.018": 0.0,
			"0.019": 0.0,
			"0.02": 0.0,
			"0.021": 0.0,
			"0.022": 0.0,
			"0.023": 0.0,
			"0.024": 0.0,
			"0.025": 0.0
		}
	}
}
