{
	 "smiles": "CC(C)C1=C(C)C=C(C)C(C)=C1", 
	 "Tm": 294.15, 
	 "num_atms": 30, 
	 "gaussian": { 
		 "optdone": 1, 
		 "sigma_profile": "yes", 
		 "theory": "DFT", 
		 "functional": "B3LYP", 
		 "basiset": "6-31G**", 
		 "properties": { 
			 "R2extent": 2578.0277, 
			 "electric_dipole_moment_norm": 0.0939630246427, 
			 "electric_quadrupole_moment_norm": 4.27640440908, 
			 "total_energy": -468.15934131, 
			 "HOMO_LUMO_gap": 0.22563, 
			 "cosmo_polarized_energy": -3.35, 
			 "cosmo_cavitation_energy": 30.85, 
			 "cosmo_dispersion_energy": -21.59, 
			 "cosmo_repulsion_energy": 1.73, 
			 "cosmo_total_nonelectrostatic_energy": 10.99, 
			 "SMD_solvation_energy": 5.41 
		},
		"coords": [
			{
				"x": 2.5030544254,
				"y": 1.0846011221,
				"z": 0.0787516264,
				"element": "C" 
			},
			{
				"x": 1.7035032981,
				"y": 0.1621580718,
				"z": -0.8621802688,
				"element": "C" 
			},
			{
				"x": 2.5030736446,
				"y": -1.1125424284,
				"z": -1.1958202418,
				"element": "C" 
			},
			{
				"x": 0.3230321008,
				"y": -0.1653321955,
				"z": -0.297817201,
				"element": "C" 
			},
			{
				"x": -0.8665077723,
				"y": 0.2127951351,
				"z": -0.950298801,
				"element": "C" 
			},
			{
				"x": -0.8708724812,
				"y": 0.9727834314,
				"z": -2.2603577394,
				"element": "C" 
			},
			{
				"x": -2.0905377115,
				"y": -0.1298019691,
				"z": -0.3600790908,
				"element": "C" 
			},
			{
				"x": -2.1886900438,
				"y": -0.8286136288,
				"z": 0.8450065918,
				"element": "C" 
			},
			{
				"x": -3.5413724234,
				"y": -1.1656617672,
				"z": 1.4257008163,
				"element": "C" 
			},
			{
				"x": -0.999503102,
				"y": -1.2073899134,
				"z": 1.4988367973,
				"element": "C" 
			},
			{
				"x": -1.0346901794,
				"y": -1.9647702769,
				"z": 2.8051555525,
				"element": "C" 
			},
			{
				"x": 0.2209610572,
				"y": -0.8665610927,
				"z": 0.9115415656,
				"element": "C" 
			},
			{
				"x": 1.955084414,
				"y": 2.0089706904,
				"z": 0.2874261311,
				"element": "H" 
			},
			{
				"x": 3.4667906337,
				"y": 1.3529579531,
				"z": -0.3685831944,
				"element": "H" 
			},
			{
				"x": 2.7068048908,
				"y": 0.5967691169,
				"z": 1.0381169902,
				"element": "H" 
			},
			{
				"x": 1.5652604601,
				"y": 0.707064793,
				"z": -1.8013810261,
				"element": "H" 
			},
			{
				"x": 2.7067952023,
				"y": -1.7031207047,
				"z": -0.2960541002,
				"element": "H" 
			},
			{
				"x": 1.9550714549,
				"y": -1.7525981679,
				"z": -1.894605164,
				"element": "H" 
			},
			{
				"x": 3.4668042914,
				"y": -0.8574743114,
				"z": -1.6508724598,
				"element": "H" 
			},
			{
				"x": -0.367355066,
				"y": 0.4190941694,
				"z": -3.0615076537,
				"element": "H" 
			},
			{
				"x": -0.3675553107,
				"y": 1.9432029839,
				"z": -2.1772216898,
				"element": "H" 
			},
			{
				"x": -1.8957947291,
				"y": 1.1639482458,
				"z": -2.5900657834,
				"element": "H" 
			},
			{
				"x": -3.0090703968,
				"y": 0.1630132521,
				"z": -0.8653495345,
				"element": "H" 
			},
			{
				"x": -3.6771135098,
				"y": -0.7268239462,
				"z": 2.4220848776,
				"element": "H" 
			},
			{
				"x": -3.6766964968,
				"y": -2.2484491422,
				"z": 1.5399484192,
				"element": "H" 
			},
			{
				"x": -4.3481372432,
				"y": -0.7957164378,
				"z": 0.7871847695,
				"element": "H" 
			},
			{
				"x": -0.024556225,
				"y": -2.1742554048,
				"z": 3.1674178678,
				"element": "H" 
			},
			{
				"x": -1.5591000202,
				"y": -1.4021707927,
				"z": 3.5876223044,
				"element": "H" 
			},
			{
				"x": -1.5582626809,
				"y": -2.9237963306,
				"z": 2.7054786414,
				"element": "H" 
			},
			{
				"x": 1.133779519,
				"y": -1.163380455,
				"z": 1.4238209975,
				"element": "H" 
			}
		],
		 "valence_orbital": [ 
			{
				"type": "occ",
				"energy": -0.31772,
				"method": "rhf"
			},
			{
				"type": "occ",
				"energy": -0.3107,
				"method": "rhf"
			},
			{
				"type": "occ",
				"energy": -0.3068,
				"method": "rhf"
			},
			{
				"type": "occ",
				"energy": -0.22892,
				"method": "rhf"
			},
			{
				"type": "occ",
				"energy": -0.21596,
				"method": "rhf"
			},
			{
				"type": "unocc",
				"energy": 0.00967,
				"method": "rhf"
			},
			{
				"type": "unocc",
				"energy": 0.0152,
				"method": "rhf"
			},
			{
				"type": "unocc",
				"energy": 0.09128,
				"method": "rhf"
			},
			{
				"type": "unocc",
				"energy": 0.09865,
				"method": "rhf"
			},
			{
				"type": "unocc",
				"energy": 0.10875,
				"method": "rhf"
			}
		],
		"cosmo_sigma_profile": { 
			"-0.025": 0.0,
			"-0.024": 0.0,
			"-0.023": 0.0,
			"-0.022": 0.0,
			"-0.021": 0.0,
			"-0.02": 0.0,
			"-0.019": 0.0,
			"-0.018": 0.0,
			"-0.017": 0.0,
			"-0.016": 0.0,
			"-0.015": 0.0,
			"-0.014": 0.0,
			"-0.013": 0.0,
			"-0.012": 0.0,
			"-0.011": 0.0,
			"-0.01": 0.0,
			"-0.009": 0.0,
			"-0.008": 0.0,
			"-0.007": 0.0,
			"-0.006": 0.0,
			"-0.005": 0.247138966038,
			"-0.004": 14.3437428217,
			"-0.003": 30.9273855207,
			"-0.002": 34.6712101218,
			"-0.001": 33.5813887121,
			"0.0": 37.5040105946,
			"0.001": 35.3292527697,
			"0.002": 17.476205968,
			"0.003": 8.28897215074,
			"0.004": 6.97193154122,
			"0.005": 5.83015273903,
			"0.006": 6.41846831371,
			"0.007": 5.90211916187,
			"0.008": 2.51883146566,
			"0.009": 0.0,
			"0.01": 0.0,
			"0.011": 0.0,
			"0.012": 0.0,
			"0.013": 0.0,
			"0.014": 0.0,
			"0.015": 0.0,
			"0.016": 0.0,
			"0.017": 0.0,
			"0.018": 0.0,
			"0.019": 0.0,
			"0.02": 0.0,
			"0.021": 0.0,
			"0.022": 0.0,
			"0.023": 0.0,
			"0.024": 0.0,
			"0.025": 0.0
		}
	}
}
