{
	 "smiles": "CCN(CC)C(=O)C1=C(C)NC(=O)NC1C1=CC=CC=C1", 
	 "Tm": 454.15, 
	 "num_atms": 42, 
	 "gaussian": { 
		 "optdone": 1, 
		 "sigma_profile": "yes", 
		 "theory": "DFT", 
		 "functional": "B3LYP", 
		 "basiset": "6-31G**", 
		 "properties": { 
			 "R2extent": 6693.6102, 
			 "electric_dipole_moment_norm": 3.31026602707, 
			 "electric_quadrupole_moment_norm": 28.9910067478, 
			 "total_energy": -937.099601257, 
			 "HOMO_LUMO_gap": 0.19606, 
			 "cosmo_polarized_energy": -20.4, 
			 "cosmo_cavitation_energy": 43.7, 
			 "cosmo_dispersion_energy": -28.37, 
			 "cosmo_repulsion_energy": 2.22, 
			 "cosmo_total_nonelectrostatic_energy": 17.54, 
			 "SMD_solvation_energy": 7.59 
		},
		"coords": [
			{
				"x": 3.0738709787,
				"y": -2.8450315763,
				"z": 0.1573746062,
				"element": "C" 
			},
			{
				"x": 2.5469457656,
				"y": -2.2670580824,
				"z": -1.1578284025,
				"element": "C" 
			},
			{
				"x": 2.0448556205,
				"y": -0.8897424562,
				"z": -1.0239172859,
				"element": "N" 
			},
			{
				"x": 2.7593934882,
				"y": 0.1624328458,
				"z": -1.750670812,
				"element": "C" 
			},
			{
				"x": 4.1538538047,
				"y": 0.4636145607,
				"z": -1.1932645213,
				"element": "C" 
			},
			{
				"x": 0.7705739961,
				"y": -0.7457459366,
				"z": -0.5212311269,
				"element": "C" 
			},
			{
				"x": 0.0923623603,
				"y": -1.7347296042,
				"z": -0.2268871496,
				"element": "O" 
			},
			{
				"x": 0.2496629617,
				"y": 0.6458112804,
				"z": -0.3012150586,
				"element": "C" 
			},
			{
				"x": -0.9518326295,
				"y": 1.0256309242,
				"z": -0.7923441876,
				"element": "C" 
			},
			{
				"x": -1.8467612269,
				"y": 0.2063517493,
				"z": -1.680183615,
				"element": "C" 
			},
			{
				"x": -1.4456740536,
				"y": 2.296757242,
				"z": -0.5019228492,
				"element": "N" 
			},
			{
				"x": -0.6925670908,
				"y": 3.3290382665,
				"z": 0.0510716578,
				"element": "C" 
			},
			{
				"x": -1.1287609127,
				"y": 4.4666187475,
				"z": 0.1526587178,
				"element": "O" 
			},
			{
				"x": 0.581518467,
				"y": 2.9535819517,
				"z": 0.4028127603,
				"element": "N" 
			},
			{
				"x": 0.981331395,
				"y": 1.5590155746,
				"z": 0.667366939,
				"element": "C" 
			},
			{
				"x": 0.7999902058,
				"y": 1.1766777832,
				"z": 2.145633499,
				"element": "C" 
			},
			{
				"x": -0.2295945028,
				"y": 0.3405080078,
				"z": 2.5901188502,
				"element": "C" 
			},
			{
				"x": -0.3738013608,
				"y": 0.0612393395,
				"z": 3.9513351637,
				"element": "C" 
			},
			{
				"x": 0.5067543088,
				"y": 0.6117298072,
				"z": 4.8827074633,
				"element": "C" 
			},
			{
				"x": 1.5457513845,
				"y": 1.4376312414,
				"z": 4.4466858599,
				"element": "C" 
			},
			{
				"x": 1.6911043012,
				"y": 1.7109704183,
				"z": 3.087624815,
				"element": "C" 
			},
			{
				"x": 3.9024962849,
				"y": -2.2492199816,
				"z": 0.55271331,
				"element": "H" 
			},
			{
				"x": 3.430297865,
				"y": -3.8692645886,
				"z": 0.0034729787,
				"element": "H" 
			},
			{
				"x": 2.2750100164,
				"y": -2.8696986769,
				"z": 0.9018893774,
				"element": "H" 
			},
			{
				"x": 3.3376575319,
				"y": -2.2544276722,
				"z": -1.9144601806,
				"element": "H" 
			},
			{
				"x": 1.7314363785,
				"y": -2.8934222758,
				"z": -1.5313359354,
				"element": "H" 
			},
			{
				"x": 2.8499021095,
				"y": -0.1408084845,
				"z": -2.8042149013,
				"element": "H" 
			},
			{
				"x": 2.1405897125,
				"y": 1.0618595036,
				"z": -1.7435769143,
				"element": "H" 
			},
			{
				"x": 4.1062176055,
				"y": 0.7860276388,
				"z": -0.1485103684,
				"element": "H" 
			},
			{
				"x": 4.8036941793,
				"y": -0.4157747581,
				"z": -1.2407429086,
				"element": "H" 
			},
			{
				"x": 4.6278018912,
				"y": 1.2588239805,
				"z": -1.7779989408,
				"element": "H" 
			},
			{
				"x": -2.8531237606,
				"y": 0.1546530119,
				"z": -1.2475916867,
				"element": "H" 
			},
			{
				"x": -1.4771060308,
				"y": -0.8113107397,
				"z": -1.7844487343,
				"element": "H" 
			},
			{
				"x": -1.9384412585,
				"y": 0.6714797538,
				"z": -2.6693891944,
				"element": "H" 
			},
			{
				"x": -2.3325740733,
				"y": 2.592445218,
				"z": -0.8823750496,
				"element": "H" 
			},
			{
				"x": 1.0553889705,
				"y": 3.6728824758,
				"z": 0.9326732383,
				"element": "H" 
			},
			{
				"x": 2.0572442418,
				"y": 1.5138159302,
				"z": 0.4678630321,
				"element": "H" 
			},
			{
				"x": -0.8975984899,
				"y": -0.1172506644,
				"z": 1.8684019405,
				"element": "H" 
			},
			{
				"x": -1.1749325362,
				"y": -0.5938729143,
				"z": 4.2817737888,
				"element": "H" 
			},
			{
				"x": 0.391995826,
				"y": 0.3920312377,
				"z": 5.9402992645,
				"element": "H" 
			},
			{
				"x": 2.2447426688,
				"y": 1.8607455942,
				"z": 5.1627018179,
				"element": "H" 
			},
			{
				"x": 2.5109236062,
				"y": 2.3456843269,
				"z": 2.7543307429,
				"element": "H" 
			}
		],
		 "valence_orbital": [ 
			{
				"type": "occ",
				"energy": -0.25076,
				"method": "rhf"
			},
			{
				"type": "occ",
				"energy": -0.24955,
				"method": "rhf"
			},
			{
				"type": "occ",
				"energy": -0.24174,
				"method": "rhf"
			},
			{
				"type": "occ",
				"energy": -0.23855,
				"method": "rhf"
			},
			{
				"type": "occ",
				"energy": -0.21374,
				"method": "rhf"
			},
			{
				"type": "unocc",
				"energy": -0.01768,
				"method": "rhf"
			},
			{
				"type": "unocc",
				"energy": -0.00186,
				"method": "rhf"
			},
			{
				"type": "unocc",
				"energy": 0.00152,
				"method": "rhf"
			},
			{
				"type": "unocc",
				"energy": 0.03505,
				"method": "rhf"
			},
			{
				"type": "unocc",
				"energy": 0.06672,
				"method": "rhf"
			}
		],
		"cosmo_sigma_profile": { 
			"-0.025": 0.0,
			"-0.024": 0.0,
			"-0.023": 0.0,
			"-0.022": 0.0,
			"-0.021": 0.0,
			"-0.02": 0.0,
			"-0.019": 0.0,
			"-0.018": 0.0,
			"-0.017": 0.0,
			"-0.016": 0.0,
			"-0.015": 0.265847125796,
			"-0.014": 0.98534822987,
			"-0.013": 1.71344543141,
			"-0.012": 2.20084318767,
			"-0.011": 2.72289718938,
			"-0.01": 2.1450754243,
			"-0.009": 2.28252268093,
			"-0.008": 2.93854886254,
			"-0.007": 3.48202353035,
			"-0.006": 9.68344993215,
			"-0.005": 21.224552574,
			"-0.004": 27.3953392419,
			"-0.003": 35.4825077977,
			"-0.002": 37.2490147,
			"-0.001": 35.8590846631,
			"0.0": 30.131634545,
			"0.001": 26.721840304,
			"0.002": 16.2570920848,
			"0.003": 12.3983917942,
			"0.004": 12.6992388465,
			"0.005": 15.0685683861,
			"0.006": 10.6669100692,
			"0.007": 3.71610739561,
			"0.008": 2.78047185135,
			"0.009": 3.6423433509,
			"0.01": 2.24069629565,
			"0.011": 2.50002764229,
			"0.012": 3.33028092231,
			"0.013": 5.42264344385,
			"0.014": 9.34930537815,
			"0.015": 1.28890159116,
			"0.016": 0.0,
			"0.017": 0.0,
			"0.018": 0.0,
			"0.019": 0.0,
			"0.02": 0.0,
			"0.021": 0.0,
			"0.022": 0.0,
			"0.023": 0.0,
			"0.024": 0.0,
			"0.025": 0.0
		}
	}
}
