{
	 "smiles": "SC1=NN=C(O1)C1=C(Br)C=CC=C1", 
	 "Tm": 474.15, 
	 "num_atms": 18, 
	 "gaussian": { 
		 "optdone": 1, 
		 "sigma_profile": "yes", 
		 "theory": "DFT", 
		 "functional": "B3LYP", 
		 "basiset": "6-31G**", 
		 "properties": { 
			 "R2extent": 4781.1271, 
			 "electric_dipole_moment_norm": 3.67826882378, 
			 "electric_quadrupole_moment_norm": 22.2975759721, 
			 "total_energy": -3462.13593014, 
			 "HOMO_LUMO_gap": 0.17766, 
			 "cosmo_polarized_energy": -11.24, 
			 "cosmo_cavitation_energy": 27.36, 
			 "cosmo_dispersion_energy": -20.98, 
			 "cosmo_repulsion_energy": 1.6, 
			 "cosmo_total_nonelectrostatic_energy": 7.98, 
			 "SMD_solvation_energy": 1.71 
		},
		"coords": [
			{
				"x": -3.5413458463,
				"y": 4.3178339828,
				"z": -0.3174903277,
				"element": "S" 
			},
			{
				"x": -3.1340517254,
				"y": 2.6242966674,
				"z": -0.1033129143,
				"element": "C" 
			},
			{
				"x": -3.9628538868,
				"y": 1.629987191,
				"z": -0.034537124,
				"element": "N" 
			},
			{
				"x": -3.174626417,
				"y": 0.4943587,
				"z": 0.1198812273,
				"element": "N" 
			},
			{
				"x": -1.9332255856,
				"y": 0.8858547197,
				"z": 0.1364099563,
				"element": "C" 
			},
			{
				"x": -1.8316607535,
				"y": 2.2468071421,
				"z": -0.0021571284,
				"element": "O" 
			},
			{
				"x": -0.760882231,
				"y": 0.0325739616,
				"z": 0.333646538,
				"element": "C" 
			},
			{
				"x": 0.57229156,
				"y": 0.3506103128,
				"z": 0.0135695678,
				"element": "C" 
			},
			{
				"x": 1.0929600379,
				"y": 2.0025130925,
				"z": -0.7971863311,
				"element": "Br" 
			},
			{
				"x": 1.6003755389,
				"y": -0.5635752851,
				"z": 0.2527003355,
				"element": "C" 
			},
			{
				"x": 1.3197619127,
				"y": -1.8109171418,
				"z": 0.803833717,
				"element": "C" 
			},
			{
				"x": 0.0021650321,
				"y": -2.1519134655,
				"z": 1.1165512751,
				"element": "C" 
			},
			{
				"x": -1.0181290604,
				"y": -1.2398437922,
				"z": 0.8863130646,
				"element": "C" 
			},
			{
				"x": -2.2643186056,
				"y": 4.7407636938,
				"z": -0.2528888766,
				"element": "H" 
			},
			{
				"x": 2.6171998784,
				"y": -0.2905827426,
				"z": -0.0039653232,
				"element": "H" 
			},
			{
				"x": 2.1298245185,
				"y": -2.5108857918,
				"z": 0.9842470494,
				"element": "H" 
			},
			{
				"x": -0.2288772452,
				"y": -3.1219581945,
				"z": 1.5447808974,
				"element": "H" 
			},
			{
				"x": -2.0463071217,
				"y": -1.4844230501,
				"z": 1.128204397,
				"element": "H" 
			}
		],
		 "valence_orbital": [ 
			{
				"type": "occ",
				"energy": -0.29381,
				"method": "rhf"
			},
			{
				"type": "occ",
				"energy": -0.28748,
				"method": "rhf"
			},
			{
				"type": "occ",
				"energy": -0.28492,
				"method": "rhf"
			},
			{
				"type": "occ",
				"energy": -0.25923,
				"method": "rhf"
			},
			{
				"type": "occ",
				"energy": -0.23869,
				"method": "rhf"
			},
			{
				"type": "unocc",
				"energy": -0.06103,
				"method": "rhf"
			},
			{
				"type": "unocc",
				"energy": -0.02697,
				"method": "rhf"
			},
			{
				"type": "unocc",
				"energy": -0.00995,
				"method": "rhf"
			},
			{
				"type": "unocc",
				"energy": -0.00196,
				"method": "rhf"
			},
			{
				"type": "unocc",
				"energy": 0.00564,
				"method": "rhf"
			}
		],
		"cosmo_sigma_profile": { 
			"-0.025": 0.0,
			"-0.024": 0.0,
			"-0.023": 0.0,
			"-0.022": 0.0,
			"-0.021": 0.0,
			"-0.02": 0.0,
			"-0.019": 0.0,
			"-0.018": 0.0,
			"-0.017": 0.0,
			"-0.016": 0.0,
			"-0.015": 0.0,
			"-0.014": 0.379316412637,
			"-0.013": 1.66495002885,
			"-0.012": 1.82101942281,
			"-0.011": 0.997304858145,
			"-0.01": 1.89537301538,
			"-0.009": 0.783138822459,
			"-0.008": 2.67279372637,
			"-0.007": 8.65637656937,
			"-0.006": 9.94990065676,
			"-0.005": 13.0080270424,
			"-0.004": 12.4562930919,
			"-0.003": 14.068468342,
			"-0.002": 13.9263693734,
			"-0.001": 16.1537494289,
			"0.0": 18.9700317703,
			"0.001": 25.3571032467,
			"0.002": 23.7725126956,
			"0.003": 18.9131706585,
			"0.004": 14.2772166549,
			"0.005": 6.29462667246,
			"0.006": 2.78135740285,
			"0.007": 2.48797080519,
			"0.008": 1.44041688353,
			"0.009": 2.12496028248,
			"0.01": 2.74518595271,
			"0.011": 3.19260146707,
			"0.012": 2.94746963495,
			"0.013": 2.13995551372,
			"0.014": 1.2222702433,
			"0.015": 0.119623676317,
			"0.016": 0.0,
			"0.017": 0.0,
			"0.018": 0.0,
			"0.019": 0.0,
			"0.02": 0.0,
			"0.021": 0.0,
			"0.022": 0.0,
			"0.023": 0.0,
			"0.024": 0.0,
			"0.025": 0.0
		}
	}
}
