{
	 "smiles": "CCCOC(=O)C1=CC=C(OC(=O)C2=CC=C(C=C2)C(=O)OC2=CC=C(C=C2)C(=O)OCCC)C=C1", 
	 "Tm": 440.15, 
	 "num_atms": 62, 
	 "gaussian": { 
		 "optdone": 1, 
		 "sigma_profile": "yes", 
		 "theory": "DFT", 
		 "functional": "B3LYP", 
		 "basiset": "6-31G**", 
		 "properties": { 
			 "R2extent": 56600.5747, 
			 "electric_dipole_moment_norm": 2.13902326542, 
			 "electric_quadrupole_moment_norm": 48.8150689201, 
			 "total_energy": -1684.51277543, 
			 "HOMO_LUMO_gap": 0.16416, 
			 "cosmo_polarized_energy": -18.88, 
			 "cosmo_cavitation_energy": 69.73, 
			 "cosmo_dispersion_energy": -48.87, 
			 "cosmo_repulsion_energy": 3.64, 
			 "cosmo_total_nonelectrostatic_energy": 24.5, 
			 "SMD_solvation_energy": 15.34 
		},
		"coords": [
			{
				"x": -6.2700457789,
				"y": -8.6108695262,
				"z": -7.7011261426,
				"element": "C" 
			},
			{
				"x": -5.6627570216,
				"y": -7.6708729373,
				"z": -6.6541756346,
				"element": "C" 
			},
			{
				"x": -4.7650379067,
				"y": -6.6174107379,
				"z": -7.2955013049,
				"element": "C" 
			},
			{
				"x": -4.2641413699,
				"y": -5.6772683926,
				"z": -6.3177744806,
				"element": "O" 
			},
			{
				"x": -3.1327866563,
				"y": -6.02954236,
				"z": -5.6641301118,
				"element": "C" 
			},
			{
				"x": -2.535354527,
				"y": -7.0708011705,
				"z": -5.862315189,
				"element": "O" 
			},
			{
				"x": -2.7037652587,
				"y": -4.995009278,
				"z": -4.6814203383,
				"element": "C" 
			},
			{
				"x": -1.5370677656,
				"y": -5.2346546678,
				"z": -3.9432833004,
				"element": "C" 
			},
			{
				"x": -1.0786825642,
				"y": -4.3117853152,
				"z": -3.008192047,
				"element": "C" 
			},
			{
				"x": -1.8055625256,
				"y": -3.1337240583,
				"z": -2.8198924427,
				"element": "C" 
			},
			{
				"x": -1.4797290977,
				"y": -2.1806415289,
				"z": -1.8583197473,
				"element": "O" 
			},
			{
				"x": -0.1859392317,
				"y": -1.793480701,
				"z": -1.6342577534,
				"element": "C" 
			},
			{
				"x": 0.768765572,
				"y": -2.2200857311,
				"z": -2.2428393174,
				"element": "O" 
			},
			{
				"x": -0.1090465508,
				"y": -0.7726584832,
				"z": -0.5495018128,
				"element": "C" 
			},
			{
				"x": -1.23909006,
				"y": -0.3209880118,
				"z": 0.1482009113,
				"element": "C" 
			},
			{
				"x": -1.0974298799,
				"y": 0.6314696209,
				"z": 1.1510118713,
				"element": "C" 
			},
			{
				"x": 0.1695354035,
				"y": 1.1435079466,
				"z": 1.4649118686,
				"element": "C" 
			},
			{
				"x": 1.299523957,
				"y": 0.6921927934,
				"z": 0.7668923853,
				"element": "C" 
			},
			{
				"x": 1.1582205164,
				"y": -0.2623467817,
				"z": -0.2339974127,
				"element": "C" 
			},
			{
				"x": 0.2466801041,
				"y": 2.1624803623,
				"z": 2.5513491887,
				"element": "C" 
			},
			{
				"x": -0.7029012585,
				"y": 2.5597976245,
				"z": 3.1871316531,
				"element": "O" 
			},
			{
				"x": 1.5322720591,
				"y": 2.5971022817,
				"z": 2.7317903795,
				"element": "O" 
			},
			{
				"x": 1.8575871627,
				"y": 3.5440930965,
				"z": 3.6996166271,
				"element": "C" 
			},
			{
				"x": 1.3412067638,
				"y": 3.5208565916,
				"z": 4.9974478115,
				"element": "C" 
			},
			{
				"x": 1.7931540692,
				"y": 4.468035769,
				"z": 5.9110856378,
				"element": "C" 
			},
			{
				"x": 2.7478465265,
				"y": 5.4259213466,
				"z": 5.5444335583,
				"element": "C" 
			},
			{
				"x": 3.2579900011,
				"y": 5.4273653779,
				"z": 4.2389146735,
				"element": "C" 
			},
			{
				"x": 2.8132774603,
				"y": 4.4861921993,
				"z": 3.3160997776,
				"element": "C" 
			},
			{
				"x": 3.18421076,
				"y": 6.4065706562,
				"z": 6.5781530296,
				"element": "C" 
			},
			{
				"x": 2.7796125307,
				"y": 6.4172628255,
				"z": 7.7251687764,
				"element": "O" 
			},
			{
				"x": 4.0878420855,
				"y": 7.2923257337,
				"z": 6.1023778902,
				"element": "O" 
			},
			{
				"x": 4.5673381704,
				"y": 8.2745482833,
				"z": 7.0494078227,
				"element": "C" 
			},
			{
				"x": 5.4893887158,
				"y": 9.2305332538,
				"z": 6.3079654199,
				"element": "C" 
			},
			{
				"x": 4.7819657758,
				"y": 10.0539099355,
				"z": 5.2269792148,
				"element": "C" 
			},
			{
				"x": -2.9728369498,
				"y": -2.8784341914,
				"z": -3.5413754651,
				"element": "C" 
			},
			{
				"x": -3.4216361356,
				"y": -3.8092580487,
				"z": -4.472517892,
				"element": "C" 
			},
			{
				"x": -6.9118083682,
				"y": -9.3597499163,
				"z": -7.2278815439,
				"element": "H" 
			},
			{
				"x": -5.4912816827,
				"y": -9.1450979464,
				"z": -8.2563731252,
				"element": "H" 
			},
			{
				"x": -6.8807127451,
				"y": -8.0621959327,
				"z": -8.4273357741,
				"element": "H" 
			},
			{
				"x": -6.456987401,
				"y": -7.1651346615,
				"z": -6.0921427591,
				"element": "H" 
			},
			{
				"x": -5.0692505601,
				"y": -8.2435121278,
				"z": -5.9338753345,
				"element": "H" 
			},
			{
				"x": -3.9177969063,
				"y": -7.0842837958,
				"z": -7.8046972317,
				"element": "H" 
			},
			{
				"x": -5.3228684052,
				"y": -6.002691143,
				"z": -8.0075973016,
				"element": "H" 
			},
			{
				"x": -0.9967526876,
				"y": -6.1590547905,
				"z": -4.1157723153,
				"element": "H" 
			},
			{
				"x": -0.1733636119,
				"y": -4.495409767,
				"z": -2.4460445976,
				"element": "H" 
			},
			{
				"x": -2.2168561944,
				"y": -0.7175240704,
				"z": -0.097265095,
				"element": "H" 
			},
			{
				"x": -1.9566746211,
				"y": 0.993773135,
				"z": 1.7045015919,
				"element": "H" 
			},
			{
				"x": 2.2772311497,
				"y": 1.0890745507,
				"z": 1.0120498263,
				"element": "H" 
			},
			{
				"x": 2.0178632202,
				"y": -0.6269647924,
				"z": -0.7853463452,
				"element": "H" 
			},
			{
				"x": 0.5979757663,
				"y": 2.7881725135,
				"z": 5.2806414988,
				"element": "H" 
			},
			{
				"x": 1.4133810315,
				"y": 4.479365996,
				"z": 6.9269042116,
				"element": "H" 
			},
			{
				"x": 4.0003689561,
				"y": 6.1628344861,
				"z": 3.9525921181,
				"element": "H" 
			},
			{
				"x": 3.1959045897,
				"y": 4.4667096342,
				"z": 2.3012195208,
				"element": "H" 
			},
			{
				"x": 3.7067229797,
				"y": 8.7922241024,
				"z": 7.4861765414,
				"element": "H" 
			},
			{
				"x": 5.0867343932,
				"y": 7.753896831,
				"z": 7.8605656767,
				"element": "H" 
			},
			{
				"x": 5.9372075415,
				"y": 9.8975601713,
				"z": 7.0554430767,
				"element": "H" 
			},
			{
				"x": 6.3145893966,
				"y": 8.6570248697,
				"z": 5.8684844727,
				"element": "H" 
			},
			{
				"x": 3.9845592156,
				"y": 10.6692212269,
				"z": 5.6588276447,
				"element": "H" 
			},
			{
				"x": 4.3298287679,
				"y": 9.4041081331,
				"z": 4.4723490547,
				"element": "H" 
			},
			{
				"x": 5.4837127693,
				"y": 10.7237325062,
				"z": 4.7206673448,
				"element": "H" 
			},
			{
				"x": -3.513072299,
				"y": -1.9551179252,
				"z": -3.3614087304,
				"element": "H" 
			},
			{
				"x": -4.3259613897,
				"y": -3.622095064,
				"z": -5.0392005303,
				"element": "H" 
			}
		],
		 "valence_orbital": [ 
			{
				"type": "occ",
				"energy": -0.27299,
				"method": "rhf"
			},
			{
				"type": "occ",
				"energy": -0.26579,
				"method": "rhf"
			},
			{
				"type": "occ",
				"energy": -0.26558,
				"method": "rhf"
			},
			{
				"type": "occ",
				"energy": -0.25363,
				"method": "rhf"
			},
			{
				"type": "occ",
				"energy": -0.25223,
				"method": "rhf"
			},
			{
				"type": "unocc",
				"energy": -0.08807,
				"method": "rhf"
			},
			{
				"type": "unocc",
				"energy": -0.04915,
				"method": "rhf"
			},
			{
				"type": "unocc",
				"energy": -0.04396,
				"method": "rhf"
			},
			{
				"type": "unocc",
				"energy": -0.02534,
				"method": "rhf"
			},
			{
				"type": "unocc",
				"energy": -0.01522,
				"method": "rhf"
			}
		],
		"cosmo_sigma_profile": { 
			"-0.025": 0.0,
			"-0.024": 0.0,
			"-0.023": 0.0,
			"-0.022": 0.0,
			"-0.021": 0.0,
			"-0.02": 0.0,
			"-0.019": 0.0,
			"-0.018": 0.0,
			"-0.017": 0.0,
			"-0.016": 0.0,
			"-0.015": 0.0,
			"-0.014": 0.0,
			"-0.013": 0.0,
			"-0.012": 0.0,
			"-0.011": 0.0,
			"-0.01": 0.0,
			"-0.009": 0.0,
			"-0.008": 0.880947104555,
			"-0.007": 10.2860575628,
			"-0.006": 22.7342182541,
			"-0.005": 28.9017595959,
			"-0.004": 37.782804687,
			"-0.003": 54.1476738448,
			"-0.002": 57.1359723362,
			"-0.001": 58.6947348005,
			"0.0": 63.9085854274,
			"0.001": 69.1141394084,
			"0.002": 49.3130276371,
			"0.003": 26.8009598431,
			"0.004": 10.7837384509,
			"0.005": 10.3727940338,
			"0.006": 6.88473688093,
			"0.007": 6.01134989635,
			"0.008": 7.14212027945,
			"0.009": 7.29105156915,
			"0.01": 10.1234550068,
			"0.011": 9.14652049098,
			"0.012": 8.19532402558,
			"0.013": 0.40161014325,
			"0.014": 0.0,
			"0.015": 0.0,
			"0.016": 0.0,
			"0.017": 0.0,
			"0.018": 0.0,
			"0.019": 0.0,
			"0.02": 0.0,
			"0.021": 0.0,
			"0.022": 0.0,
			"0.023": 0.0,
			"0.024": 0.0,
			"0.025": 0.0
		}
	}
}
