{
	 "smiles": "O=C1N(C2CCCC(=O)C2)C(=O)C2=C1C=CC=C2", 
	 "Tm": 421.15, 
	 "num_atms": 31, 
	 "gaussian": { 
		 "optdone": 1, 
		 "sigma_profile": "yes", 
		 "theory": "DFT", 
		 "functional": "B3LYP", 
		 "basiset": "6-31G**", 
		 "properties": { 
			 "R2extent": 5464.0939, 
			 "electric_dipole_moment_norm": 3.65307318432, 
			 "electric_quadrupole_moment_norm": 27.9413469353, 
			 "total_energy": -821.782851558, 
			 "HOMO_LUMO_gap": 0.14604, 
			 "cosmo_polarized_energy": -15.71, 
			 "cosmo_cavitation_energy": 33.88, 
			 "cosmo_dispersion_energy": -24.25, 
			 "cosmo_repulsion_energy": 1.85, 
			 "cosmo_total_nonelectrostatic_energy": 11.48, 
			 "SMD_solvation_energy": 6.77 
		},
		"coords": [
			{
				"x": 0.319228332,
				"y": 1.9303799,
				"z": -0.1110364281,
				"element": "O" 
			},
			{
				"x": 1.2137749921,
				"y": 1.1189966399,
				"z": 0.0431673634,
				"element": "C" 
			},
			{
				"x": 1.2452155484,
				"y": -0.1704955108,
				"z": -0.5086917418,
				"element": "N" 
			},
			{
				"x": 0.212872666,
				"y": -0.742929757,
				"z": -1.3804717066,
				"element": "C" 
			},
			{
				"x": -1.15024525,
				"y": -0.8670319878,
				"z": -0.6377485936,
				"element": "C" 
			},
			{
				"x": -2.34776552,
				"y": -0.5169691458,
				"z": -1.5326467358,
				"element": "C" 
			},
			{
				"x": -2.2155624675,
				"y": 0.9161156819,
				"z": -2.0660628364,
				"element": "C" 
			},
			{
				"x": -0.8989322707,
				"y": 1.1551287475,
				"z": -2.7973367823,
				"element": "C" 
			},
			{
				"x": -0.6912262029,
				"y": 2.1554626373,
				"z": -3.4536865619,
				"element": "O" 
			},
			{
				"x": 0.1162291576,
				"y": 0.0184030192,
				"z": -2.7274791131,
				"element": "C" 
			},
			{
				"x": 2.4146129458,
				"y": -0.8685672064,
				"z": -0.145749766,
				"element": "C" 
			},
			{
				"x": 2.6919130075,
				"y": -2.0001553314,
				"z": -0.4906456882,
				"element": "O" 
			},
			{
				"x": 3.1913197427,
				"y": 0.0651079821,
				"z": 0.7214472652,
				"element": "C" 
			},
			{
				"x": 2.4731643875,
				"y": 1.2572516873,
				"z": 0.8323473539,
				"element": "C" 
			},
			{
				"x": 2.9486718881,
				"y": 2.3249329199,
				"z": 1.579471676,
				"element": "C" 
			},
			{
				"x": 4.1834677573,
				"y": 2.1613931075,
				"z": 2.2218691647,
				"element": "C" 
			},
			{
				"x": 4.9040237229,
				"y": 0.9650779428,
				"z": 2.110941636,
				"element": "C" 
			},
			{
				"x": 4.4141861946,
				"y": -0.1074060514,
				"z": 1.3533145593,
				"element": "C" 
			},
			{
				"x": 0.5985041269,
				"y": -1.7419309119,
				"z": -1.5973608932,
				"element": "H" 
			},
			{
				"x": -1.1535080535,
				"y": -0.181400507,
				"z": 0.2143140535,
				"element": "H" 
			},
			{
				"x": -1.2497298286,
				"y": -1.8790970434,
				"z": -0.2322112888,
				"element": "H" 
			},
			{
				"x": -3.2754955795,
				"y": -0.6222242396,
				"z": -0.959964201,
				"element": "H" 
			},
			{
				"x": -2.422680038,
				"y": -1.2271215268,
				"z": -2.3670710822,
				"element": "H" 
			},
			{
				"x": -3.0335588296,
				"y": 1.1890974834,
				"z": -2.7415673056,
				"element": "H" 
			},
			{
				"x": -2.2400913971,
				"y": 1.6311761835,
				"z": -1.2343955078,
				"element": "H" 
			},
			{
				"x": -0.2055714561,
				"y": -0.7061127065,
				"z": -3.4896559776,
				"element": "H" 
			},
			{
				"x": 1.0926444227,
				"y": 0.3911321054,
				"z": -3.0450992546,
				"element": "H" 
			},
			{
				"x": 2.3823041727,
				"y": 3.2473116413,
				"z": 1.6570432931,
				"element": "H" 
			},
			{
				"x": 4.5906177453,
				"y": 2.9744010338,
				"z": 2.8154874543,
				"element": "H" 
			},
			{
				"x": 5.8582040337,
				"y": 0.8697363219,
				"z": 2.6204452486,
				"element": "H" 
			},
			{
				"x": 4.9640120499,
				"y": -1.0382631089,
				"z": 1.2595323966,
				"element": "H" 
			}
		],
		 "valence_orbital": [ 
			{
				"type": "occ",
				"energy": -0.28774,
				"method": "rhf"
			},
			{
				"type": "occ",
				"energy": -0.28071,
				"method": "rhf"
			},
			{
				"type": "occ",
				"energy": -0.2725,
				"method": "rhf"
			},
			{
				"type": "occ",
				"energy": -0.26865,
				"method": "rhf"
			},
			{
				"type": "occ",
				"energy": -0.23162,
				"method": "rhf"
			},
			{
				"type": "unocc",
				"energy": -0.08558,
				"method": "rhf"
			},
			{
				"type": "unocc",
				"energy": -0.04394,
				"method": "rhf"
			},
			{
				"type": "unocc",
				"energy": -0.00493,
				"method": "rhf"
			},
			{
				"type": "unocc",
				"energy": 0.02464,
				"method": "rhf"
			},
			{
				"type": "unocc",
				"energy": 0.0693,
				"method": "rhf"
			}
		],
		"cosmo_sigma_profile": { 
			"-0.025": 0.0,
			"-0.024": 0.0,
			"-0.023": 0.0,
			"-0.022": 0.0,
			"-0.021": 0.0,
			"-0.02": 0.0,
			"-0.019": 0.0,
			"-0.018": 0.0,
			"-0.017": 0.0,
			"-0.016": 0.0,
			"-0.015": 0.0,
			"-0.014": 0.0,
			"-0.013": 0.0,
			"-0.012": 0.0,
			"-0.011": 0.0,
			"-0.01": 0.0,
			"-0.009": 0.0,
			"-0.008": 1.86239456777,
			"-0.007": 12.0987147943,
			"-0.006": 16.6288335215,
			"-0.005": 21.6845813795,
			"-0.004": 24.7759515845,
			"-0.003": 28.0958125819,
			"-0.002": 26.0169790305,
			"-0.001": 25.1502715217,
			"0.0": 18.3034430588,
			"0.001": 14.281451106,
			"0.002": 17.6843094987,
			"0.003": 7.2899386003,
			"0.004": 3.56312235652,
			"0.005": 4.79435172523,
			"0.006": 4.15018443079,
			"0.007": 4.33421565703,
			"0.008": 5.82454762587,
			"0.009": 4.46167791535,
			"0.01": 6.92014892094,
			"0.011": 10.0399862678,
			"0.012": 6.70419562311,
			"0.013": 3.42654848526,
			"0.014": 0.858518084427,
			"0.015": 0.0,
			"0.016": 0.0,
			"0.017": 0.0,
			"0.018": 0.0,
			"0.019": 0.0,
			"0.02": 0.0,
			"0.021": 0.0,
			"0.022": 0.0,
			"0.023": 0.0,
			"0.024": 0.0,
			"0.025": 0.0
		}
	}
}
