{
	 "smiles": "CCOCC1=C(OC)C=CC(=C1)C(O)=O", 
	 "Tm": 417.15, 
	 "num_atms": 29, 
	 "gaussian": { 
		 "optdone": 1, 
		 "sigma_profile": "yes", 
		 "theory": "DFT", 
		 "functional": "B3LYP", 
		 "basiset": "6-31G**", 
		 "properties": { 
			 "R2extent": 4198.2593, 
			 "electric_dipole_moment_norm": 4.32257687728, 
			 "electric_quadrupole_moment_norm": 6.61980352805, 
			 "total_energy": -728.504009847, 
			 "HOMO_LUMO_gap": 0.19328, 
			 "cosmo_polarized_energy": -13.08, 
			 "cosmo_cavitation_energy": 32.73, 
			 "cosmo_dispersion_energy": -23.38, 
			 "cosmo_repulsion_energy": 1.87, 
			 "cosmo_total_nonelectrostatic_energy": 11.23, 
			 "SMD_solvation_energy": 7.64 
		},
		"coords": [
			{
				"x": 3.6840091043,
				"y": 2.695339668,
				"z": 0.3659322821,
				"element": "C" 
			},
			{
				"x": 3.2460831237,
				"y": 1.2376563211,
				"z": 0.4846651904,
				"element": "C" 
			},
			{
				"x": 2.8160229877,
				"y": 0.6976924216,
				"z": -0.7662224686,
				"element": "O" 
			},
			{
				"x": 1.4631896898,
				"y": 0.9621804621,
				"z": -1.0859830683,
				"element": "C" 
			},
			{
				"x": 0.496922493,
				"y": -0.0399387951,
				"z": -0.4740466305,
				"element": "C" 
			},
			{
				"x": -0.8903912701,
				"y": 0.2259571901,
				"z": -0.4893768136,
				"element": "C" 
			},
			{
				"x": -1.2471123479,
				"y": 1.4096217105,
				"z": -1.0647730222,
				"element": "O" 
			},
			{
				"x": -2.6232168548,
				"y": 1.7610741245,
				"z": -1.1098590756,
				"element": "C" 
			},
			{
				"x": -1.8004430808,
				"y": -0.6888106687,
				"z": 0.0544976308,
				"element": "C" 
			},
			{
				"x": -1.3347230897,
				"y": -1.87834374,
				"z": 0.6120116809,
				"element": "C" 
			},
			{
				"x": 0.0345422761,
				"y": -2.160925349,
				"z": 0.6283503907,
				"element": "C" 
			},
			{
				"x": 0.9360349667,
				"y": -1.2342458513,
				"z": 0.0781857788,
				"element": "C" 
			},
			{
				"x": 0.5800322022,
				"y": -3.4091423442,
				"z": 1.2078511824,
				"element": "C" 
			},
			{
				"x": -0.3824612175,
				"y": -4.2366662298,
				"z": 1.698933477,
				"element": "O" 
			},
			{
				"x": 1.7594974735,
				"y": -3.7026236827,
				"z": 1.2604328944,
				"element": "O" 
			},
			{
				"x": 2.8556691029,
				"y": 3.3429950029,
				"z": 0.0605957884,
				"element": "H" 
			},
			{
				"x": 4.0559180894,
				"y": 3.0614372734,
				"z": 1.3292665223,
				"element": "H" 
			},
			{
				"x": 4.4836092246,
				"y": 2.7930551701,
				"z": -0.3741827226,
				"element": "H" 
			},
			{
				"x": 4.0901164032,
				"y": 0.6157520282,
				"z": 0.800586048,
				"element": "H" 
			},
			{
				"x": 2.4575418749,
				"y": 1.1266498617,
				"z": 1.2428562965,
				"element": "H" 
			},
			{
				"x": 1.3899836534,
				"y": 0.921649065,
				"z": -2.1798883556,
				"element": "H" 
			},
			{
				"x": 1.1676896111,
				"y": 1.9799042006,
				"z": -0.7965046352,
				"element": "H" 
			},
			{
				"x": -3.0513517104,
				"y": 1.8415449424,
				"z": -0.1030892681,
				"element": "H" 
			},
			{
				"x": -2.6682126959,
				"y": 2.7346942229,
				"z": -1.5996870831,
				"element": "H" 
			},
			{
				"x": -3.2042909327,
				"y": 1.0355510332,
				"z": -1.6921856329,
				"element": "H" 
			},
			{
				"x": -2.8642171352,
				"y": -0.4842324865,
				"z": 0.0467502016,
				"element": "H" 
			},
			{
				"x": -2.0369413399,
				"y": -2.5880570057,
				"z": 1.0341596393,
				"element": "H" 
			},
			{
				"x": 1.9964524293,
				"y": -1.4582801533,
				"z": 0.0862897122,
				"element": "H" 
			},
			{
				"x": 0.0947469692,
				"y": -5.0077883921,
				"z": 2.0458340606,
				"element": "H" 
			}
		],
		 "valence_orbital": [ 
			{
				"type": "occ",
				"energy": -0.30494,
				"method": "rhf"
			},
			{
				"type": "occ",
				"energy": -0.26709,
				"method": "rhf"
			},
			{
				"type": "occ",
				"energy": -0.25301,
				"method": "rhf"
			},
			{
				"type": "occ",
				"energy": -0.25216,
				"method": "rhf"
			},
			{
				"type": "occ",
				"energy": -0.2283,
				"method": "rhf"
			},
			{
				"type": "unocc",
				"energy": -0.03502,
				"method": "rhf"
			},
			{
				"type": "unocc",
				"energy": -0.00467,
				"method": "rhf"
			},
			{
				"type": "unocc",
				"energy": 0.06691,
				"method": "rhf"
			},
			{
				"type": "unocc",
				"energy": 0.08355,
				"method": "rhf"
			},
			{
				"type": "unocc",
				"energy": 0.08948,
				"method": "rhf"
			}
		],
		"cosmo_sigma_profile": { 
			"-0.025": 0.0,
			"-0.024": 0.0,
			"-0.023": 0.0,
			"-0.022": 0.0,
			"-0.021": 0.0,
			"-0.02": 0.0,
			"-0.019": 0.0,
			"-0.018": 0.359675377347,
			"-0.017": 0.973015639657,
			"-0.016": 0.859696911688,
			"-0.015": 0.852137898933,
			"-0.014": 0.528597107683,
			"-0.013": 0.473569158349,
			"-0.012": 1.09354732462,
			"-0.011": 0.576979372354,
			"-0.01": 0.824034625264,
			"-0.009": 0.718694491946,
			"-0.008": 1.02636289705,
			"-0.007": 3.56354508973,
			"-0.006": 11.3808073036,
			"-0.005": 15.8361912036,
			"-0.004": 19.9774822197,
			"-0.003": 24.447917387,
			"-0.002": 24.0995233746,
			"-0.001": 20.5047766115,
			"0.0": 20.2426444929,
			"0.001": 20.6344982705,
			"0.002": 17.4497022113,
			"0.003": 16.9920897115,
			"0.004": 14.328933384,
			"0.005": 7.12833118669,
			"0.006": 5.8757051186,
			"0.007": 5.72724417696,
			"0.008": 3.97775212778,
			"0.009": 2.2923080759,
			"0.01": 2.7035810311,
			"0.011": 3.65589718823,
			"0.012": 6.09394207488,
			"0.013": 2.56288657342,
			"0.014": 0.439034810662,
			"0.015": 0.0,
			"0.016": 0.0,
			"0.017": 0.0,
			"0.018": 0.0,
			"0.019": 0.0,
			"0.02": 0.0,
			"0.021": 0.0,
			"0.022": 0.0,
			"0.023": 0.0,
			"0.024": 0.0,
			"0.025": 0.0
		}
	}
}
