{
	 "smiles": "CC(C)(C)C1=NN=C(N)S1", 
	 "Tm": 456.15, 
	 "num_atms": 21, 
	 "gaussian": { 
		 "optdone": 1, 
		 "sigma_profile": "yes", 
		 "theory": "DFT", 
		 "functional": "B3LYP", 
		 "basiset": "6-31G**", 
		 "properties": { 
			 "R2extent": 2797.4867, 
			 "electric_dipole_moment_norm": 3.00169641703, 
			 "electric_quadrupole_moment_norm": 18.0222924915, 
			 "total_energy": -797.695823788, 
			 "HOMO_LUMO_gap": 0.21471, 
			 "cosmo_polarized_energy": -13.31, 
			 "cosmo_cavitation_energy": 25.12, 
			 "cosmo_dispersion_energy": -18.66, 
			 "cosmo_repulsion_energy": 1.47, 
			 "cosmo_total_nonelectrostatic_energy": 7.94, 
			 "SMD_solvation_energy": 2.52 
		},
		"coords": [
			{
				"x": 1.0336177279,
				"y": 0.2065381872,
				"z": 0.1235504344,
				"element": "C" 
			},
			{
				"x": -0.3680286479,
				"y": -0.3158502656,
				"z": 0.4927050976,
				"element": "C" 
			},
			{
				"x": -1.0826608732,
				"y": 0.7167793309,
				"z": 1.3949601472,
				"element": "C" 
			},
			{
				"x": -0.2360951024,
				"y": -1.6579976919,
				"z": 1.2487275631,
				"element": "C" 
			},
			{
				"x": -1.1694083391,
				"y": -0.5214527915,
				"z": -0.7796824864,
				"element": "C" 
			},
			{
				"x": -0.7451795108,
				"y": -0.270051968,
				"z": -1.9764665776,
				"element": "N" 
			},
			{
				"x": -1.6547584014,
				"y": -0.5098868432,
				"z": -2.9743141408,
				"element": "N" 
			},
			{
				"x": -2.7876161086,
				"y": -0.9681949089,
				"z": -2.5170252703,
				"element": "C" 
			},
			{
				"x": -3.8267225576,
				"y": -1.3612916492,
				"z": -3.329087473,
				"element": "N" 
			},
			{
				"x": -2.8428541498,
				"y": -1.1457240604,
				"z": -0.7671816339,
				"element": "S" 
			},
			{
				"x": 1.5631487141,
				"y": -0.501928607,
				"z": -0.5179461922,
				"element": "H" 
			},
			{
				"x": 0.9729932274,
				"y": 1.1555841294,
				"z": -0.4142656847,
				"element": "H" 
			},
			{
				"x": 1.6177269919,
				"y": 0.3569978125,
				"z": 1.0376135978,
				"element": "H" 
			},
			{
				"x": -0.499109996,
				"y": 0.8830077889,
				"z": 2.3067523435,
				"element": "H" 
			},
			{
				"x": -2.0789125687,
				"y": 0.3736135873,
				"z": 1.692946773,
				"element": "H" 
			},
			{
				"x": -1.1940318236,
				"y": 1.6765069836,
				"z": 0.8810120613,
				"element": "H" 
			},
			{
				"x": -1.2129358402,
				"y": -2.0533575289,
				"z": 1.5465633885,
				"element": "H" 
			},
			{
				"x": 0.359134607,
				"y": -1.5177945323,
				"z": 2.1573197434,
				"element": "H" 
			},
			{
				"x": 0.2593334065,
				"y": -2.4112397083,
				"z": 0.6284937889,
				"element": "H" 
			},
			{
				"x": -4.7606909925,
				"y": -1.2076257502,
				"z": -2.9763096664,
				"element": "H" 
			},
			{
				"x": -3.6998497629,
				"y": -1.0587315144,
				"z": -4.2871658135,
				"element": "H" 
			}
		],
		 "valence_orbital": [ 
			{
				"type": "occ",
				"energy": -0.32819,
				"method": "rhf"
			},
			{
				"type": "occ",
				"energy": -0.2894,
				"method": "rhf"
			},
			{
				"type": "occ",
				"energy": -0.28062,
				"method": "rhf"
			},
			{
				"type": "occ",
				"energy": -0.25219,
				"method": "rhf"
			},
			{
				"type": "occ",
				"energy": -0.22798,
				"method": "rhf"
			},
			{
				"type": "unocc",
				"energy": -0.01327,
				"method": "rhf"
			},
			{
				"type": "unocc",
				"energy": 0.00319,
				"method": "rhf"
			},
			{
				"type": "unocc",
				"energy": 0.04979,
				"method": "rhf"
			},
			{
				"type": "unocc",
				"energy": 0.06486,
				"method": "rhf"
			},
			{
				"type": "unocc",
				"energy": 0.0918,
				"method": "rhf"
			}
		],
		"cosmo_sigma_profile": { 
			"-0.025": 0.0,
			"-0.024": 0.0,
			"-0.023": 0.0,
			"-0.022": 0.0,
			"-0.021": 0.0,
			"-0.02": 0.0,
			"-0.019": 0.0,
			"-0.018": 0.0,
			"-0.017": 0.0,
			"-0.016": 0.0,
			"-0.015": 0.62925520998,
			"-0.014": 2.33074905274,
			"-0.013": 2.80941403836,
			"-0.012": 2.63239233909,
			"-0.011": 3.33530247991,
			"-0.01": 1.66560321528,
			"-0.009": 1.71169412627,
			"-0.008": 1.79529644287,
			"-0.007": 2.01958159278,
			"-0.006": 1.76133905234,
			"-0.005": 2.63930254073,
			"-0.004": 9.84995338969,
			"-0.003": 21.6657226159,
			"-0.002": 19.8839563713,
			"-0.001": 19.6645767075,
			"0.0": 27.4658897915,
			"0.001": 24.5730107713,
			"0.002": 9.65229931232,
			"0.003": 6.47293688701,
			"0.004": 4.43283215756,
			"0.005": 3.35802676547,
			"0.006": 3.27274229377,
			"0.007": 2.5319464709,
			"0.008": 2.85955641085,
			"0.009": 2.58502113401,
			"0.01": 2.82208679329,
			"0.011": 2.92455249822,
			"0.012": 3.22673188847,
			"0.013": 3.54514918725,
			"0.014": 2.32169604784,
			"0.015": 1.66128588772,
			"0.016": 0.516393981711,
			"0.017": 0.0,
			"0.018": 0.0,
			"0.019": 0.0,
			"0.02": 0.0,
			"0.021": 0.0,
			"0.022": 0.0,
			"0.023": 0.0,
			"0.024": 0.0,
			"0.025": 0.0
		}
	}
}
