{
	 "smiles": "O=C(CCCCC(=O)NCCCC(=O)ON1C(=O)CCC1=O)NCCCC(=O)ON1C(=O)CCC1=O", 
	 "Tm": 418.15, 
	 "num_atms": 66, 
	 "gaussian": { 
		 "optdone": 1, 
		 "sigma_profile": "yes", 
		 "theory": "DFT", 
		 "functional": "B3LYP", 
		 "basiset": "6-31G**", 
		 "properties": { 
			 "R2extent": 31576.978, 
			 "electric_dipole_moment_norm": 4.77431167185, 
			 "electric_quadrupole_moment_norm": 28.9598855013, 
			 "total_energy": -1827.67349325, 
			 "HOMO_LUMO_gap": 0.1895, 
			 "cosmo_polarized_energy": -46.05, 
			 "cosmo_cavitation_energy": 71.41, 
			 "cosmo_dispersion_energy": -44.99, 
			 "cosmo_repulsion_energy": 3.5, 
			 "cosmo_total_nonelectrostatic_energy": 29.92, 
			 "SMD_solvation_energy": 15.92 
		},
		"coords": [
			{
				"x": -1.7894795415,
				"y": 2.8248957275,
				"z": 0.6474020404,
				"element": "O" 
			},
			{
				"x": -1.2097491593,
				"y": 1.8007413179,
				"z": 0.98715108,
				"element": "C" 
			},
			{
				"x": -0.3616783677,
				"y": 1.0108825695,
				"z": -0.0149400772,
				"element": "C" 
			},
			{
				"x": -0.0425364524,
				"y": -0.454387999,
				"z": 0.305573901,
				"element": "C" 
			},
			{
				"x": 0.7177392635,
				"y": -1.1503307915,
				"z": -0.8315335941,
				"element": "C" 
			},
			{
				"x": 1.1070512911,
				"y": -2.6123510314,
				"z": -0.5177392553,
				"element": "C" 
			},
			{
				"x": 2.0945616352,
				"y": -2.7150603049,
				"z": 0.6369088452,
				"element": "C" 
			},
			{
				"x": 1.7147280804,
				"y": -2.6895489842,
				"z": 1.8059943464,
				"element": "O" 
			},
			{
				"x": 3.4367522067,
				"y": -2.8210995268,
				"z": 0.3597972148,
				"element": "N" 
			},
			{
				"x": 4.1528002675,
				"y": -2.7356348687,
				"z": -0.901814641,
				"element": "C" 
			},
			{
				"x": 4.9830179671,
				"y": -1.4444501645,
				"z": -1.0138114194,
				"element": "C" 
			},
			{
				"x": 5.8449646909,
				"y": -1.3851507767,
				"z": -2.2897355485,
				"element": "C" 
			},
			{
				"x": 5.0642798633,
				"y": -1.4994481236,
				"z": -3.5766237302,
				"element": "C" 
			},
			{
				"x": 5.2631581632,
				"y": -2.232367284,
				"z": -4.5031965624,
				"element": "O" 
			},
			{
				"x": 4.0032984867,
				"y": -0.5781303592,
				"z": -3.5567700658,
				"element": "O" 
			},
			{
				"x": 3.2096735288,
				"y": -0.6605441064,
				"z": -4.677352423,
				"element": "N" 
			},
			{
				"x": 2.1870517756,
				"y": -1.6028990193,
				"z": -4.7665755684,
				"element": "C" 
			},
			{
				"x": 1.882176398,
				"y": -2.384490319,
				"z": -3.893410499,
				"element": "O" 
			},
			{
				"x": 1.5764769883,
				"y": -1.4193340542,
				"z": -6.1496486085,
				"element": "C" 
			},
			{
				"x": 2.4296629382,
				"y": -0.3373163023,
				"z": -6.8476005999,
				"element": "C" 
			},
			{
				"x": 3.5038903189,
				"y": 0.0640826384,
				"z": -5.8428405682,
				"element": "C" 
			},
			{
				"x": 4.4228527621,
				"y": 0.8343471688,
				"z": -5.9647477312,
				"element": "O" 
			},
			{
				"x": -1.2551644499,
				"y": 1.3039258507,
				"z": 2.2640413651,
				"element": "N" 
			},
			{
				"x": -1.9517567578,
				"y": 1.9722846673,
				"z": 3.3540597982,
				"element": "C" 
			},
			{
				"x": -2.8557339168,
				"y": 1.0162956804,
				"z": 4.1477232694,
				"element": "C" 
			},
			{
				"x": -3.9964976524,
				"y": 0.3624163204,
				"z": 3.3321231132,
				"element": "C" 
			},
			{
				"x": -5.0424255333,
				"y": 1.3721684301,
				"z": 2.935641192,
				"element": "C" 
			},
			{
				"x": -5.9925709787,
				"y": 1.7431504955,
				"z": 3.5670949654,
				"element": "O" 
			},
			{
				"x": -4.7103598343,
				"y": 1.8925614646,
				"z": 1.6798270527,
				"element": "O" 
			},
			{
				"x": -5.492235184,
				"y": 2.9620998542,
				"z": 1.3134602022,
				"element": "N" 
			},
			{
				"x": -5.2682660147,
				"y": 4.2358770963,
				"z": 1.8404367526,
				"element": "C" 
			},
			{
				"x": -4.4250367157,
				"y": 4.5135758694,
				"z": 2.6599756013,
				"element": "O" 
			},
			{
				"x": -6.2999395964,
				"y": 5.1403279646,
				"z": 1.1766012453,
				"element": "C" 
			},
			{
				"x": -7.1615456519,
				"y": 4.216686769,
				"z": 0.2889764762,
				"element": "C" 
			},
			{
				"x": -6.5898627033,
				"y": 2.8121725303,
				"z": 0.4621762424,
				"element": "C" 
			},
			{
				"x": -6.9682629441,
				"y": 1.7707452685,
				"z": -0.0167391635,
				"element": "O" 
			},
			{
				"x": -0.8941472388,
				"y": 1.0911248374,
				"z": -0.9685595155,
				"element": "H" 
			},
			{
				"x": 0.5710093248,
				"y": 1.5767155487,
				"z": -0.1476954107,
				"element": "H" 
			},
			{
				"x": 0.5563307533,
				"y": -0.5352196101,
				"z": 1.2204753207,
				"element": "H" 
			},
			{
				"x": -0.9725773623,
				"y": -1.0050565326,
				"z": 0.4985534566,
				"element": "H" 
			},
			{
				"x": 0.1013185523,
				"y": -1.1526533672,
				"z": -1.7383757469,
				"element": "H" 
			},
			{
				"x": 1.6192608207,
				"y": -0.5753203563,
				"z": -1.0829092866,
				"element": "H" 
			},
			{
				"x": 0.2173219444,
				"y": -3.160780229,
				"z": -0.1932658902,
				"element": "H" 
			},
			{
				"x": 1.4745713268,
				"y": -3.0867013729,
				"z": -1.4297675059,
				"element": "H" 
			},
			{
				"x": 3.9929353089,
				"y": -2.8618920559,
				"z": 1.2058416824,
				"element": "H" 
			},
			{
				"x": 4.81434195,
				"y": -3.6074465945,
				"z": -1.0041529828,
				"element": "H" 
			},
			{
				"x": 3.434611442,
				"y": -2.7852693436,
				"z": -1.7225227951,
				"element": "H" 
			},
			{
				"x": 5.6553497882,
				"y": -1.3662678728,
				"z": -0.1510319054,
				"element": "H" 
			},
			{
				"x": 4.3142401833,
				"y": -0.5796582293,
				"z": -0.9736842945,
				"element": "H" 
			},
			{
				"x": 6.3874586051,
				"y": -0.4326660316,
				"z": -2.3191169834,
				"element": "H" 
			},
			{
				"x": 6.5858363375,
				"y": -2.1886030937,
				"z": -2.3115333315,
				"element": "H" 
			},
			{
				"x": 0.5262764279,
				"y": -1.1359037672,
				"z": -6.0368223895,
				"element": "H" 
			},
			{
				"x": 1.598137319,
				"y": -2.3832781467,
				"z": -6.6647329078,
				"element": "H" 
			},
			{
				"x": 1.8566180065,
				"y": 0.5521114886,
				"z": -7.1238100117,
				"element": "H" 
			},
			{
				"x": 2.9244102455,
				"y": -0.698413036,
				"z": -7.7528697137,
				"element": "H" 
			},
			{
				"x": -0.6856350005,
				"y": 0.50074435,
				"z": 2.4867743763,
				"element": "H" 
			},
			{
				"x": -2.5218277589,
				"y": 2.7920954435,
				"z": 2.9125034223,
				"element": "H" 
			},
			{
				"x": -1.225955681,
				"y": 2.4177285295,
				"z": 4.048607441,
				"element": "H" 
			},
			{
				"x": -3.2840692621,
				"y": 1.5632337103,
				"z": 4.9952050551,
				"element": "H" 
			},
			{
				"x": -2.2505910401,
				"y": 0.206153651,
				"z": 4.5747123531,
				"element": "H" 
			},
			{
				"x": -3.5871911956,
				"y": -0.1152736712,
				"z": 2.4382174901,
				"element": "H" 
			},
			{
				"x": -4.4980654431,
				"y": -0.3924959058,
				"z": 3.9425968599,
				"element": "H" 
			},
			{
				"x": -6.8727855991,
				"y": 5.6452682795,
				"z": 1.9586952097,
				"element": "H" 
			},
			{
				"x": -5.7716814958,
				"y": 5.9121337172,
				"z": 0.6098787878,
				"element": "H" 
			},
			{
				"x": -8.2143381908,
				"y": 4.1977798173,
				"z": 0.582915371,
				"element": "H" 
			},
			{
				"x": -7.1253982393,
				"y": 4.4804161758,
				"z": -0.7716108029,
				"element": "H" 
			}
		],
		 "valence_orbital": [ 
			{
				"type": "occ",
				"energy": -0.25868,
				"method": "rhf"
			},
			{
				"type": "occ",
				"energy": -0.24983,
				"method": "rhf"
			},
			{
				"type": "occ",
				"energy": -0.24177,
				"method": "rhf"
			},
			{
				"type": "occ",
				"energy": -0.24051,
				"method": "rhf"
			},
			{
				"type": "occ",
				"energy": -0.23014,
				"method": "rhf"
			},
			{
				"type": "unocc",
				"energy": -0.04064,
				"method": "rhf"
			},
			{
				"type": "unocc",
				"energy": -0.02597,
				"method": "rhf"
			},
			{
				"type": "unocc",
				"energy": -0.01866,
				"method": "rhf"
			},
			{
				"type": "unocc",
				"energy": -0.00505,
				"method": "rhf"
			},
			{
				"type": "unocc",
				"energy": 0.00473,
				"method": "rhf"
			}
		],
		"cosmo_sigma_profile": { 
			"-0.025": 0.0,
			"-0.024": 0.0,
			"-0.023": 0.0,
			"-0.022": 0.0,
			"-0.021": 0.0,
			"-0.02": 0.0,
			"-0.019": 0.0,
			"-0.018": 0.0,
			"-0.017": 0.0,
			"-0.016": 0.0,
			"-0.015": 0.0,
			"-0.014": 0.0,
			"-0.013": 0.680934087177,
			"-0.012": 2.1467940195,
			"-0.011": 2.30269982964,
			"-0.01": 2.95436669832,
			"-0.009": 3.58167634196,
			"-0.008": 27.4020679879,
			"-0.007": 37.6713052333,
			"-0.006": 29.1160594699,
			"-0.005": 41.3165158009,
			"-0.004": 56.2944256857,
			"-0.003": 52.881195252,
			"-0.002": 37.1721325027,
			"-0.001": 30.0680173613,
			"0.0": 23.6236948026,
			"0.001": 18.5567109853,
			"0.002": 19.992070007,
			"0.003": 17.6259367257,
			"0.004": 17.2622208913,
			"0.005": 15.6202249316,
			"0.006": 13.5955785755,
			"0.007": 12.0478830764,
			"0.008": 14.2997978334,
			"0.009": 19.727842632,
			"0.01": 21.2685375786,
			"0.011": 19.2997954948,
			"0.012": 7.61699748507,
			"0.013": 3.97508186692,
			"0.014": 7.24371644982,
			"0.015": 5.50044021774,
			"0.016": 0.586082387709,
			"0.017": 0.0,
			"0.018": 0.0,
			"0.019": 0.0,
			"0.02": 0.0,
			"0.021": 0.0,
			"0.022": 0.0,
			"0.023": 0.0,
			"0.024": 0.0,
			"0.025": 0.0
		}
	}
}
