{
	 "smiles": "OC(=O)C1=C(Br)C=CO1", 
	 "Tm": 429.15, 
	 "num_atms": 12, 
	 "gaussian": { 
		 "optdone": 1, 
		 "sigma_profile": "yes", 
		 "theory": "DFT", 
		 "functional": "B3LYP", 
		 "basiset": "6-31G**", 
		 "properties": { 
			 "R2extent": 2321.7907, 
			 "electric_dipole_moment_norm": 5.29222915698, 
			 "electric_quadrupole_moment_norm": 15.0293107626, 
			 "total_energy": -2989.38489526, 
			 "HOMO_LUMO_gap": 0.20344, 
			 "cosmo_polarized_energy": -12.94, 
			 "cosmo_cavitation_energy": 19.39, 
			 "cosmo_dispersion_energy": -15.06, 
			 "cosmo_repulsion_energy": 1.23, 
			 "cosmo_total_nonelectrostatic_energy": 5.57, 
			 "SMD_solvation_energy": 4.69 
		},
		"coords": [
			{
				"x": -2.5771568696,
				"y": 1.7006862384,
				"z": -1.7726509481,
				"element": "O" 
			},
			{
				"x": -2.0156308842,
				"y": 0.474740433,
				"z": -1.8619853868,
				"element": "C" 
			},
			{
				"x": -2.5112681128,
				"y": -0.3954013141,
				"z": -2.5357812446,
				"element": "O" 
			},
			{
				"x": -0.7652199142,
				"y": 0.2618360529,
				"z": -1.0929119375,
				"element": "C" 
			},
			{
				"x": 0.0380298904,
				"y": 1.0060600613,
				"z": -0.2591246582,
				"element": "C" 
			},
			{
				"x": -0.2119973433,
				"y": 2.802194839,
				"z": 0.2634960968,
				"element": "Br" 
			},
			{
				"x": 1.1204586101,
				"y": 0.1817457173,
				"z": 0.1600080062,
				"element": "C" 
			},
			{
				"x": 0.9028492023,
				"y": -1.018078588,
				"z": -0.4508766999,
				"element": "C" 
			},
			{
				"x": -0.2195045898,
				"y": -0.9856803293,
				"z": -1.2025538078,
				"element": "O" 
			},
			{
				"x": -2.0666475926,
				"y": 2.2941184472,
				"z": -1.1963022219,
				"element": "H" 
			},
			{
				"x": 1.9319712215,
				"y": 0.4535686224,
				"z": 0.8173699385,
				"element": "H" 
			},
			{
				"x": 1.4406163822,
				"y": -1.9537901801,
				"z": -0.4455871366,
				"element": "H" 
			}
		],
		 "valence_orbital": [ 
			{
				"type": "occ",
				"energy": -0.32791,
				"method": "rhf"
			},
			{
				"type": "occ",
				"energy": -0.31763,
				"method": "rhf"
			},
			{
				"type": "occ",
				"energy": -0.29589,
				"method": "rhf"
			},
			{
				"type": "occ",
				"energy": -0.28009,
				"method": "rhf"
			},
			{
				"type": "occ",
				"energy": -0.26134,
				"method": "rhf"
			},
			{
				"type": "unocc",
				"energy": -0.0579,
				"method": "rhf"
			},
			{
				"type": "unocc",
				"energy": -0.02262,
				"method": "rhf"
			},
			{
				"type": "unocc",
				"energy": 0.01735,
				"method": "rhf"
			},
			{
				"type": "unocc",
				"energy": 0.08412,
				"method": "rhf"
			},
			{
				"type": "unocc",
				"energy": 0.09036,
				"method": "rhf"
			}
		],
		"cosmo_sigma_profile": { 
			"-0.025": 0.0,
			"-0.024": 0.0,
			"-0.023": 0.0,
			"-0.022": 0.0,
			"-0.021": 0.0,
			"-0.02": 0.0,
			"-0.019": 0.0,
			"-0.018": 0.0,
			"-0.017": 0.0,
			"-0.016": 0.0,
			"-0.015": 0.0,
			"-0.014": 0.0,
			"-0.013": 0.0,
			"-0.012": 0.080578616331,
			"-0.011": 2.548126379,
			"-0.01": 4.7162461406,
			"-0.009": 5.56173702895,
			"-0.008": 4.97000852504,
			"-0.007": 5.74562499703,
			"-0.006": 6.42000180361,
			"-0.005": 7.55276334592,
			"-0.004": 9.11565636746,
			"-0.003": 7.97678529538,
			"-0.002": 10.7309880791,
			"-0.001": 15.5130311828,
			"0.0": 14.1130234233,
			"0.001": 13.3510072846,
			"0.002": 10.8659832291,
			"0.003": 3.59906247131,
			"0.004": 2.37460693756,
			"0.005": 3.32106821234,
			"0.006": 3.21383398684,
			"0.007": 2.36745513721,
			"0.008": 3.6411300567,
			"0.009": 4.27869279658,
			"0.01": 5.2579760049,
			"0.011": 6.23204047086,
			"0.012": 5.33003603277,
			"0.013": 1.32695881067,
			"0.014": 0.0,
			"0.015": 0.0,
			"0.016": 0.0,
			"0.017": 0.0,
			"0.018": 0.0,
			"0.019": 0.0,
			"0.02": 0.0,
			"0.021": 0.0,
			"0.022": 0.0,
			"0.023": 0.0,
			"0.024": 0.0,
			"0.025": 0.0
		}
	}
}
