{
	 "smiles": "O=C1NCCCN2CCCC12", 
	 "Tm": 394.15, 
	 "num_atms": 25, 
	 "gaussian": { 
		 "optdone": 1, 
		 "sigma_profile": "yes", 
		 "theory": "DFT", 
		 "functional": "B3LYP", 
		 "basiset": "6-31G**", 
		 "properties": { 
			 "R2extent": 2027.5229, 
			 "electric_dipole_moment_norm": 3.01011360749, 
			 "electric_quadrupole_moment_norm": 12.9013073376, 
			 "total_energy": -498.01899377, 
			 "HOMO_LUMO_gap": 0.22639, 
			 "cosmo_polarized_energy": -10.45, 
			 "cosmo_cavitation_energy": 24.72, 
			 "cosmo_dispersion_energy": -19.04, 
			 "cosmo_repulsion_energy": 1.53, 
			 "cosmo_total_nonelectrostatic_energy": 7.21, 
			 "SMD_solvation_energy": 0.96 
		},
		"coords": [
			{
				"x": -0.3753291924,
				"y": 0.9130477841,
				"z": -2.7754267032,
				"element": "O" 
			},
			{
				"x": -0.223830613,
				"y": 0.3036744544,
				"z": -1.7232859764,
				"element": "C" 
			},
			{
				"x": 1.0190457416,
				"y": 0.0814510569,
				"z": -1.1904572556,
				"element": "N" 
			},
			{
				"x": 1.2503730959,
				"y": -0.4444951361,
				"z": 0.151012908,
				"element": "C" 
			},
			{
				"x": 0.7555967467,
				"y": 0.4876459299,
				"z": 1.2773256844,
				"element": "C" 
			},
			{
				"x": -0.52992496,
				"y": 1.2463963475,
				"z": 0.9194095724,
				"element": "C" 
			},
			{
				"x": -1.604087048,
				"y": 0.3940278689,
				"z": 0.4186655206,
				"element": "N" 
			},
			{
				"x": -2.8992000401,
				"y": 1.0868711544,
				"z": 0.3582107633,
				"element": "C" 
			},
			{
				"x": -3.743721097,
				"y": 0.1983214191,
				"z": -0.551582519,
				"element": "C" 
			},
			{
				"x": -2.7341706766,
				"y": -0.1862944,
				"z": -1.6435449767,
				"element": "C" 
			},
			{
				"x": -1.3902989547,
				"y": -0.2885233319,
				"z": -0.8990636057,
				"element": "C" 
			},
			{
				"x": 1.7707309944,
				"y": 0.5522236093,
				"z": -1.6765770759,
				"element": "H" 
			},
			{
				"x": 2.3218820289,
				"y": -0.637126431,
				"z": 0.2524044338,
				"element": "H" 
			},
			{
				"x": 0.7546473576,
				"y": -1.4167585235,
				"z": 0.2385073628,
				"element": "H" 
			},
			{
				"x": 0.5973639404,
				"y": -0.1145673431,
				"z": 2.179247799,
				"element": "H" 
			},
			{
				"x": 1.5258242899,
				"y": 1.2320273388,
				"z": 1.5145978459,
				"element": "H" 
			},
			{
				"x": -0.9009209245,
				"y": 1.7395181244,
				"z": 1.825032989,
				"element": "H" 
			},
			{
				"x": -0.2847950885,
				"y": 2.060455186,
				"z": 0.2103051356,
				"element": "H" 
			},
			{
				"x": -3.3111024627,
				"y": 1.1974737724,
				"z": 1.3685147417,
				"element": "H" 
			},
			{
				"x": -2.8111574388,
				"y": 2.1002878522,
				"z": -0.0780994382,
				"element": "H" 
			},
			{
				"x": -4.6249675076,
				"y": 0.7115842451,
				"z": -0.9466672725,
				"element": "H" 
			},
			{
				"x": -4.082480583,
				"y": -0.6857986494,
				"z": 0.000047236,
				"element": "H" 
			},
			{
				"x": -2.9868335577,
				"y": -1.1153033505,
				"z": -2.1619438333,
				"element": "H" 
			},
			{
				"x": -2.6522330459,
				"y": 0.6015511711,
				"z": -2.39769111,
				"element": "H" 
			},
			{
				"x": -1.144511005,
				"y": -1.341890149,
				"z": -0.7046422259,
				"element": "H" 
			}
		],
		 "valence_orbital": [ 
			{
				"type": "occ",
				"energy": -0.32875,
				"method": "rhf"
			},
			{
				"type": "occ",
				"energy": -0.31898,
				"method": "rhf"
			},
			{
				"type": "occ",
				"energy": -0.255,
				"method": "rhf"
			},
			{
				"type": "occ",
				"energy": -0.24724,
				"method": "rhf"
			},
			{
				"type": "occ",
				"energy": -0.20166,
				"method": "rhf"
			},
			{
				"type": "unocc",
				"energy": 0.02473,
				"method": "rhf"
			},
			{
				"type": "unocc",
				"energy": 0.0739,
				"method": "rhf"
			},
			{
				"type": "unocc",
				"energy": 0.08703,
				"method": "rhf"
			},
			{
				"type": "unocc",
				"energy": 0.10612,
				"method": "rhf"
			},
			{
				"type": "unocc",
				"energy": 0.11842,
				"method": "rhf"
			}
		],
		"cosmo_sigma_profile": { 
			"-0.025": 0.0,
			"-0.024": 0.0,
			"-0.023": 0.0,
			"-0.022": 0.0,
			"-0.021": 0.0,
			"-0.02": 0.0,
			"-0.019": 0.0,
			"-0.018": 0.0,
			"-0.017": 0.0,
			"-0.016": 0.0,
			"-0.015": 0.0,
			"-0.014": 0.101377622066,
			"-0.013": 1.28567334892,
			"-0.012": 0.801525439509,
			"-0.011": 1.06405537697,
			"-0.01": 1.29410087803,
			"-0.009": 0.988975720904,
			"-0.008": 0.957161673514,
			"-0.007": 1.29143352435,
			"-0.006": 3.65897167164,
			"-0.005": 6.37043802166,
			"-0.004": 11.2903085116,
			"-0.003": 24.2185376712,
			"-0.002": 30.2758169434,
			"-0.001": 34.6541361943,
			"0.0": 22.0685179893,
			"0.001": 10.8664691458,
			"0.002": 4.3934151618,
			"0.003": 2.90575213051,
			"0.004": 3.61968715212,
			"0.005": 2.74643586622,
			"0.006": 2.04519583412,
			"0.007": 2.84566599647,
			"0.008": 2.437846225,
			"0.009": 1.43499169821,
			"0.01": 1.9180413098,
			"0.011": 2.74941618355,
			"0.012": 1.93032843318,
			"0.013": 3.47597899042,
			"0.014": 6.09447654584,
			"0.015": 1.14009740522,
			"0.016": 0.187966772384,
			"0.017": 0.0,
			"0.018": 0.0,
			"0.019": 0.0,
			"0.02": 0.0,
			"0.021": 0.0,
			"0.022": 0.0,
			"0.023": 0.0,
			"0.024": 0.0,
			"0.025": 0.0
		}
	}
}
