{
	 "smiles": "CCCC1=C(C)C(=S)SS1", 
	 "Tm": 322.15, 
	 "num_atms": 20, 
	 "gaussian": { 
		 "optdone": 1, 
		 "sigma_profile": "yes", 
		 "theory": "DFT", 
		 "functional": "B3LYP", 
		 "basiset": "6-31G**", 
		 "properties": { 
			 "R2extent": 2889.2732, 
			 "electric_dipole_moment_norm": 5.06302736907, 
			 "electric_quadrupole_moment_norm": 9.87630295809, 
			 "total_energy": -1467.33986974, 
			 "HOMO_LUMO_gap": 0.13646, 
			 "cosmo_polarized_energy": -8.99, 
			 "cosmo_cavitation_energy": 27.14, 
			 "cosmo_dispersion_energy": -20.81, 
			 "cosmo_repulsion_energy": 1.55, 
			 "cosmo_total_nonelectrostatic_energy": 7.88, 
			 "SMD_solvation_energy": 2.27 
		},
		"coords": [
			{
				"x": 0.0149936272,
				"y": -0.1731649243,
				"z": -3.2315212781,
				"element": "C" 
			},
			{
				"x": -0.2647098091,
				"y": 0.9859417638,
				"z": -2.2713883645,
				"element": "C" 
			},
			{
				"x": 0.508770623,
				"y": 0.9073758107,
				"z": -0.9338806827,
				"element": "C" 
			},
			{
				"x": 0.1317282679,
				"y": -0.2679610166,
				"z": -0.0613757478,
				"element": "C" 
			},
			{
				"x": -0.9989230988,
				"y": -0.387926473,
				"z": 0.7019552685,
				"element": "C" 
			},
			{
				"x": -2.0542687837,
				"y": 0.6804567231,
				"z": 0.815400992,
				"element": "C" 
			},
			{
				"x": -1.1875675758,
				"y": -1.6143948895,
				"z": 1.4486567701,
				"element": "C" 
			},
			{
				"x": -2.4547331605,
				"y": -2.030113813,
				"z": 2.4376987938,
				"element": "S" 
			},
			{
				"x": 0.1256839766,
				"y": -2.7774126006,
				"z": 1.2422392742,
				"element": "S" 
			},
			{
				"x": 1.2750247556,
				"y": -1.5969913254,
				"z": -0.0635219512,
				"element": "S" 
			},
			{
				"x": -0.5286176724,
				"y": -0.0345901784,
				"z": -4.1712030456,
				"element": "H" 
			},
			{
				"x": 1.0819787452,
				"y": -0.2424927523,
				"z": -3.4721174153,
				"element": "H" 
			},
			{
				"x": -0.293583906,
				"y": -1.1336166703,
				"z": -2.8079025872,
				"element": "H" 
			},
			{
				"x": 0.0088441271,
				"y": 1.9340560412,
				"z": -2.7504313891,
				"element": "H" 
			},
			{
				"x": -1.3390573577,
				"y": 1.0433599946,
				"z": -2.063163708,
				"element": "H" 
			},
			{
				"x": 1.5845126745,
				"y": 0.8750258254,
				"z": -1.1442780771,
				"element": "H" 
			},
			{
				"x": 0.337348431,
				"y": 1.8267167569,
				"z": -0.3623464142,
				"element": "H" 
			},
			{
				"x": -2.2696726035,
				"y": 0.8817319365,
				"z": 1.8689438991,
				"element": "H" 
			},
			{
				"x": -1.7521274416,
				"y": 1.6106963156,
				"z": 0.3312043001,
				"element": "H" 
			},
			{
				"x": -2.9936238189,
				"y": 0.3422034756,
				"z": 0.3649313629,
				"element": "H" 
			}
		],
		 "valence_orbital": [ 
			{
				"type": "occ",
				"energy": -0.3495,
				"method": "rhf"
			},
			{
				"type": "occ",
				"energy": -0.31083,
				"method": "rhf"
			},
			{
				"type": "occ",
				"energy": -0.27639,
				"method": "rhf"
			},
			{
				"type": "occ",
				"energy": -0.21966,
				"method": "rhf"
			},
			{
				"type": "occ",
				"energy": -0.21769,
				"method": "rhf"
			},
			{
				"type": "unocc",
				"energy": -0.08123,
				"method": "rhf"
			},
			{
				"type": "unocc",
				"energy": -0.06261,
				"method": "rhf"
			},
			{
				"type": "unocc",
				"energy": -0.00027,
				"method": "rhf"
			},
			{
				"type": "unocc",
				"energy": 0.02368,
				"method": "rhf"
			},
			{
				"type": "unocc",
				"energy": 0.07096,
				"method": "rhf"
			}
		],
		"cosmo_sigma_profile": { 
			"-0.025": 0.0,
			"-0.024": 0.0,
			"-0.023": 0.0,
			"-0.022": 0.0,
			"-0.021": 0.0,
			"-0.02": 0.0,
			"-0.019": 0.0,
			"-0.018": 0.0,
			"-0.017": 0.0,
			"-0.016": 0.0,
			"-0.015": 0.0,
			"-0.014": 0.0,
			"-0.013": 0.0,
			"-0.012": 0.0,
			"-0.011": 0.0,
			"-0.01": 0.0,
			"-0.009": 0.17348341646,
			"-0.008": 0.944593224992,
			"-0.007": 2.58258843374,
			"-0.006": 7.68806337404,
			"-0.005": 8.17323511825,
			"-0.004": 13.8578683825,
			"-0.003": 27.3144410558,
			"-0.002": 25.478117318,
			"-0.001": 28.4301292352,
			"0.0": 26.6630574686,
			"0.001": 18.47291348,
			"0.002": 13.7361810071,
			"0.003": 10.4813595978,
			"0.004": 6.15142282776,
			"0.005": 4.69930025953,
			"0.006": 4.61725566092,
			"0.007": 7.46363879553,
			"0.008": 7.41694609454,
			"0.009": 4.63539258907,
			"0.01": 2.09196675219,
			"0.011": 0.248812093972,
			"0.012": 0.0,
			"0.013": 0.0,
			"0.014": 0.0,
			"0.015": 0.0,
			"0.016": 0.0,
			"0.017": 0.0,
			"0.018": 0.0,
			"0.019": 0.0,
			"0.02": 0.0,
			"0.021": 0.0,
			"0.022": 0.0,
			"0.023": 0.0,
			"0.024": 0.0,
			"0.025": 0.0
		}
	}
}
