{
	 "smiles": "CS(=O)(=O)N1CCC(CC1)NC(=O)N1CCC(CC1)C(O)=O", 
	 "Tm": 471.15, 
	 "num_atms": 45, 
	 "gaussian": { 
		 "optdone": 1, 
		 "sigma_profile": "yes", 
		 "theory": "DFT", 
		 "functional": "B3LYP", 
		 "basiset": "6-31G**", 
		 "properties": { 
			 "R2extent": 11022.7249, 
			 "electric_dipole_moment_norm": 2.01215014599, 
			 "electric_quadrupole_moment_norm": 38.8411270874, 
			 "total_energy": -1447.77078046, 
			 "HOMO_LUMO_gap": 0.23664, 
			 "cosmo_polarized_energy": -34.18, 
			 "cosmo_cavitation_energy": 46.15, 
			 "cosmo_dispersion_energy": -31.99, 
			 "cosmo_repulsion_energy": 2.39, 
			 "cosmo_total_nonelectrostatic_energy": 16.56, 
			 "SMD_solvation_energy": 6.94 
		},
		"coords": [
			{
				"x": -1.2735643769,
				"y": -4.2081346543,
				"z": 0.7083777663,
				"element": "C" 
			},
			{
				"x": -1.3453070225,
				"y": -4.5392754105,
				"z": -1.0615774925,
				"element": "S" 
			},
			{
				"x": -0.6128159059,
				"y": -5.7885552721,
				"z": -1.305048295,
				"element": "O" 
			},
			{
				"x": -2.7395209676,
				"y": -4.3969975277,
				"z": -1.4921399309,
				"element": "O" 
			},
			{
				"x": -0.4899549347,
				"y": -3.1996568957,
				"z": -1.6893945213,
				"element": "N" 
			},
			{
				"x": -0.98786297,
				"y": -2.6869607331,
				"z": -2.9880486376,
				"element": "C" 
			},
			{
				"x": -0.5570427313,
				"y": -1.2136474162,
				"z": -3.1307145102,
				"element": "C" 
			},
			{
				"x": 0.7945135817,
				"y": -0.9295779689,
				"z": -2.4348126365,
				"element": "C" 
			},
			{
				"x": 1.654927599,
				"y": -2.2050843943,
				"z": -2.4458783385,
				"element": "C" 
			},
			{
				"x": 0.9908263577,
				"y": -3.3539498253,
				"z": -1.6598473035,
				"element": "C" 
			},
			{
				"x": 0.5567728272,
				"y": -0.4204231516,
				"z": -1.0798042365,
				"element": "N" 
			},
			{
				"x": 1.5900163425,
				"y": 0.2149201473,
				"z": -0.4090556352,
				"element": "C" 
			},
			{
				"x": 2.6650136851,
				"y": 0.4683259534,
				"z": -0.9541826784,
				"element": "O" 
			},
			{
				"x": 1.3128831533,
				"y": 0.5668969244,
				"z": 0.900657184,
				"element": "N" 
			},
			{
				"x": 2.3536469651,
				"y": 1.2194264129,
				"z": 1.6942271575,
				"element": "C" 
			},
			{
				"x": 1.9862883653,
				"y": 2.674934653,
				"z": 2.028236152,
				"element": "C" 
			},
			{
				"x": 0.4760501652,
				"y": 2.836783818,
				"z": 2.3314224597,
				"element": "C" 
			},
			{
				"x": -0.1590902361,
				"y": 1.4672425233,
				"z": 2.6689898288,
				"element": "C" 
			},
			{
				"x": -0.0280775716,
				"y": 0.5034749967,
				"z": 1.4786512152,
				"element": "C" 
			},
			{
				"x": 0.2260786457,
				"y": 3.8107892743,
				"z": 3.486040049,
				"element": "C" 
			},
			{
				"x": -1.0107869611,
				"y": 4.3783353394,
				"z": 3.5147914353,
				"element": "O" 
			},
			{
				"x": 1.0162498149,
				"y": 4.0518657288,
				"z": 4.3638594162,
				"element": "O" 
			},
			{
				"x": -1.7640983515,
				"y": -5.0508857483,
				"z": 1.1986409203,
				"element": "H" 
			},
			{
				"x": -0.2330255835,
				"y": -4.1486044342,
				"z": 1.029985574,
				"element": "H" 
			},
			{
				"x": -1.8081590215,
				"y": -3.280902933,
				"z": 0.9135212823,
				"element": "H" 
			},
			{
				"x": -2.0726646534,
				"y": -2.7857276892,
				"z": -3.0037021195,
				"element": "H" 
			},
			{
				"x": -0.5894818443,
				"y": -3.2927459579,
				"z": -3.8146934521,
				"element": "H" 
			},
			{
				"x": -1.3187504186,
				"y": -0.5499412146,
				"z": -2.7096767581,
				"element": "H" 
			},
			{
				"x": -0.4804867013,
				"y": -0.9769556546,
				"z": -4.1973887835,
				"element": "H" 
			},
			{
				"x": 1.3347565419,
				"y": -0.1400804813,
				"z": -2.96033939,
				"element": "H" 
			},
			{
				"x": 2.6387083566,
				"y": -1.987546142,
				"z": -2.0236687463,
				"element": "H" 
			},
			{
				"x": 1.8103642301,
				"y": -2.5067544586,
				"z": -3.488288373,
				"element": "H" 
			},
			{
				"x": 1.3097646613,
				"y": -3.325145954,
				"z": -0.6126405483,
				"element": "H" 
			},
			{
				"x": 1.289584386,
				"y": -4.3264027647,
				"z": -2.0684539743,
				"element": "H" 
			},
			{
				"x": -0.1070966352,
				"y": -0.9599810187,
				"z": -0.5409595782,
				"element": "H" 
			},
			{
				"x": 2.5124460809,
				"y": 0.6462051093,
				"z": 2.6170894331,
				"element": "H" 
			},
			{
				"x": 3.2728039761,
				"y": 1.174126875,
				"z": 1.1116702698,
				"element": "H" 
			},
			{
				"x": 2.556981588,
				"y": 3.0055888383,
				"z": 2.9009619381,
				"element": "H" 
			},
			{
				"x": 2.2574019561,
				"y": 3.3243942933,
				"z": 1.1903577344,
				"element": "H" 
			},
			{
				"x": -0.0345553309,
				"y": 3.2249903163,
				"z": 1.4380298876,
				"element": "H" 
			},
			{
				"x": -1.2199700437,
				"y": 1.5711469968,
				"z": 2.9217418558,
				"element": "H" 
			},
			{
				"x": 0.3332819514,
				"y": 1.0572244008,
				"z": 3.5571497107,
				"element": "H" 
			},
			{
				"x": -0.2811686189,
				"y": -0.5163531012,
				"z": 1.8147425885,
				"element": "H" 
			},
			{
				"x": -0.7589675074,
				"y": 0.7811798907,
				"z": 0.7086439764,
				"element": "H" 
			},
			{
				"x": -1.5126128435,
				"y": 4.1281383101,
				"z": 2.7263281043,
				"element": "H" 
			}
		],
		 "valence_orbital": [ 
			{
				"type": "occ",
				"energy": -0.27956,
				"method": "rhf"
			},
			{
				"type": "occ",
				"energy": -0.27293,
				"method": "rhf"
			},
			{
				"type": "occ",
				"energy": -0.25933,
				"method": "rhf"
			},
			{
				"type": "occ",
				"energy": -0.249,
				"method": "rhf"
			},
			{
				"type": "occ",
				"energy": -0.23852,
				"method": "rhf"
			},
			{
				"type": "unocc",
				"energy": -0.00188,
				"method": "rhf"
			},
			{
				"type": "unocc",
				"energy": 0.03299,
				"method": "rhf"
			},
			{
				"type": "unocc",
				"energy": 0.03962,
				"method": "rhf"
			},
			{
				"type": "unocc",
				"energy": 0.04833,
				"method": "rhf"
			},
			{
				"type": "unocc",
				"energy": 0.05842,
				"method": "rhf"
			}
		],
		"cosmo_sigma_profile": { 
			"-0.025": 0.0,
			"-0.024": 0.0,
			"-0.023": 0.0,
			"-0.022": 0.0,
			"-0.021": 0.0,
			"-0.02": 0.0,
			"-0.019": 0.257149532752,
			"-0.018": 1.05162671904,
			"-0.017": 0.932678759016,
			"-0.016": 1.42876339737,
			"-0.015": 1.00433707325,
			"-0.014": 1.19487729141,
			"-0.013": 1.13154445458,
			"-0.012": 0.96796976724,
			"-0.011": 1.16582641398,
			"-0.01": 1.18728320376,
			"-0.009": 4.57201888604,
			"-0.008": 8.64123629542,
			"-0.007": 9.91817533182,
			"-0.006": 12.7147311608,
			"-0.005": 25.9383724626,
			"-0.004": 50.8634736406,
			"-0.003": 43.0243348134,
			"-0.002": 30.8723415331,
			"-0.001": 22.8509988088,
			"0.0": 14.7757569786,
			"0.001": 10.3541229218,
			"0.002": 9.64342963481,
			"0.003": 9.41543019277,
			"0.004": 7.72134029711,
			"0.005": 6.92276627824,
			"0.006": 6.85201741162,
			"0.007": 6.79512995706,
			"0.008": 7.28757053461,
			"0.009": 8.40990045196,
			"0.01": 10.6863138098,
			"0.011": 17.5805555763,
			"0.012": 13.243445698,
			"0.013": 3.16094658354,
			"0.014": 2.86138094475,
			"0.015": 3.96247378889,
			"0.016": 0.0250523900935,
			"0.017": 0.0,
			"0.018": 0.0,
			"0.019": 0.0,
			"0.02": 0.0,
			"0.021": 0.0,
			"0.022": 0.0,
			"0.023": 0.0,
			"0.024": 0.0,
			"0.025": 0.0
		}
	}
}
