{
	 "smiles": "ON1N=NC2=C1C=CC=C2", 
	 "Tm": 431.15, 
	 "num_atms": 15, 
	 "gaussian": { 
		 "optdone": 1, 
		 "sigma_profile": "yes", 
		 "theory": "DFT", 
		 "functional": "B3LYP", 
		 "basiset": "6-31G**", 
		 "properties": { 
			 "R2extent": 1629.1281, 
			 "electric_dipole_moment_norm": 2.59034938377, 
			 "electric_quadrupole_moment_norm": 11.5400257959, 
			 "total_energy": -471.023720395, 
			 "HOMO_LUMO_gap": 0.18551, 
			 "cosmo_polarized_energy": -10.89, 
			 "cosmo_cavitation_energy": 19.73, 
			 "cosmo_dispersion_energy": -15.06, 
			 "cosmo_repulsion_energy": 1.21, 
			 "cosmo_total_nonelectrostatic_energy": 5.88, 
			 "SMD_solvation_energy": 2.82 
		},
		"coords": [
			{
				"x": -0.4620301938,
				"y": -1.2663437174,
				"z": 2.1595302699,
				"element": "O" 
			},
			{
				"x": 0.2838142262,
				"y": -0.1527029169,
				"z": 1.8581485111,
				"element": "N" 
			},
			{
				"x": 0.7978326129,
				"y": 0.6131647131,
				"z": 2.8324970082,
				"element": "N" 
			},
			{
				"x": 1.4545609491,
				"y": 1.5943852194,
				"z": 2.2755376001,
				"element": "N" 
			},
			{
				"x": 1.3567857058,
				"y": 1.4501391568,
				"z": 0.9114579627,
				"element": "C" 
			},
			{
				"x": 0.586431464,
				"y": 0.3006303788,
				"z": 0.6161850291,
				"element": "C" 
			},
			{
				"x": 0.3029905283,
				"y": -0.1207157261,
				"z": -0.6926434733,
				"element": "C" 
			},
			{
				"x": 0.8290374429,
				"y": 0.6658622602,
				"z": -1.7029465574,
				"element": "C" 
			},
			{
				"x": 1.6054864674,
				"y": 1.8245166016,
				"z": -1.4315557164,
				"element": "C" 
			},
			{
				"x": 1.8785791388,
				"y": 2.2304123279,
				"z": -0.1376956634,
				"element": "C" 
			},
			{
				"x": -0.461178955,
				"y": -1.2664344005,
				"z": 3.1336386772,
				"element": "H" 
			},
			{
				"x": -0.2898657256,
				"y": -1.0053995192,
				"z": -0.8940323858,
				"element": "H" 
			},
			{
				"x": 0.6439914162,
				"y": 0.3910435317,
				"z": -2.7370343093,
				"element": "H" 
			},
			{
				"x": 1.9907753245,
				"y": 2.4007568025,
				"z": -2.2670113296,
				"element": "H" 
			},
			{
				"x": 2.4704895985,
				"y": 3.1136852879,
				"z": 0.0771243771,
				"element": "H" 
			}
		],
		 "valence_orbital": [ 
			{
				"type": "occ",
				"energy": -0.3433,
				"method": "rhf"
			},
			{
				"type": "occ",
				"energy": -0.2998,
				"method": "rhf"
			},
			{
				"type": "occ",
				"energy": -0.2781,
				"method": "rhf"
			},
			{
				"type": "occ",
				"energy": -0.25792,
				"method": "rhf"
			},
			{
				"type": "occ",
				"energy": -0.23303,
				"method": "rhf"
			},
			{
				"type": "unocc",
				"energy": -0.04752,
				"method": "rhf"
			},
			{
				"type": "unocc",
				"energy": 0.00831,
				"method": "rhf"
			},
			{
				"type": "unocc",
				"energy": 0.03336,
				"method": "rhf"
			},
			{
				"type": "unocc",
				"energy": 0.04725,
				"method": "rhf"
			},
			{
				"type": "unocc",
				"energy": 0.09388,
				"method": "rhf"
			}
		],
		"cosmo_sigma_profile": { 
			"-0.025": 0.0,
			"-0.024": 0.0,
			"-0.023": 0.0,
			"-0.022": 0.0,
			"-0.021": 0.0,
			"-0.02": 0.350418350089,
			"-0.019": 0.767002982997,
			"-0.018": 0.938469558323,
			"-0.017": 0.775779853786,
			"-0.016": 0.730322582427,
			"-0.015": 1.12268689133,
			"-0.014": 0.61073386451,
			"-0.013": 0.566199616098,
			"-0.012": 0.70915609353,
			"-0.011": 0.49860136481,
			"-0.01": 0.907102868155,
			"-0.009": 0.935866216385,
			"-0.008": 1.69105548281,
			"-0.007": 5.64608926582,
			"-0.006": 8.21070636396,
			"-0.005": 9.96776723745,
			"-0.004": 9.40668072854,
			"-0.003": 7.57075529706,
			"-0.002": 11.5739560073,
			"-0.001": 11.1411633525,
			"0.0": 9.18410351491,
			"0.001": 10.4391276237,
			"0.002": 13.9783299383,
			"0.003": 12.0205323564,
			"0.004": 9.91233764245,
			"0.005": 3.52559544596,
			"0.006": 3.95645950927,
			"0.007": 4.72721237401,
			"0.008": 2.65066037396,
			"0.009": 3.77718979073,
			"0.01": 3.07451966593,
			"0.011": 2.79992275168,
			"0.012": 1.24561204707,
			"0.013": 1.44314212123,
			"0.014": 0.96095493979,
			"0.015": 0.9518275564,
			"0.016": 0.230518393324,
			"0.017": 0.0,
			"0.018": 0.0,
			"0.019": 0.0,
			"0.02": 0.0,
			"0.021": 0.0,
			"0.022": 0.0,
			"0.023": 0.0,
			"0.024": 0.0,
			"0.025": 0.0
		}
	}
}
