{
	 "smiles": "N#CC1=CC(=CC=C1)N1C=CN=C1", 
	 "Tm": 435.15, 
	 "num_atms": 20, 
	 "gaussian": { 
		 "optdone": 1, 
		 "sigma_profile": "yes", 
		 "theory": "DFT", 
		 "functional": "B3LYP", 
		 "basiset": "6-31G**", 
		 "properties": { 
			 "R2extent": 3065.7318, 
			 "electric_dipole_moment_norm": 4.97329751674, 
			 "electric_quadrupole_moment_norm": 13.0255710804, 
			 "total_energy": -549.504287396, 
			 "HOMO_LUMO_gap": 0.17519, 
			 "cosmo_polarized_energy": -15.6, 
			 "cosmo_cavitation_energy": 25.7, 
			 "cosmo_dispersion_energy": -18.46, 
			 "cosmo_repulsion_energy": 1.41, 
			 "cosmo_total_nonelectrostatic_energy": 8.65, 
			 "SMD_solvation_energy": 5.01 
		},
		"coords": [
			{
				"x": -1.1030119379,
				"y": 3.1961717433,
				"z": -1.3811649443,
				"element": "N" 
			},
			{
				"x": -0.9922048561,
				"y": 2.0425408411,
				"z": -1.285115356,
				"element": "C" 
			},
			{
				"x": -0.8585156069,
				"y": 0.6181195448,
				"z": -1.1689691563,
				"element": "C" 
			},
			{
				"x": 0.278447693,
				"y": 0.0861765428,
				"z": -0.5448883758,
				"element": "C" 
			},
			{
				"x": 0.4266311435,
				"y": -1.3003240322,
				"z": -0.422135975,
				"element": "C" 
			},
			{
				"x": -0.5766002652,
				"y": -2.1388641103,
				"z": -0.9317255148,
				"element": "C" 
			},
			{
				"x": -1.7030454795,
				"y": -1.5998207645,
				"z": -1.550471126,
				"element": "C" 
			},
			{
				"x": -1.8598030788,
				"y": -0.2233122645,
				"z": -1.6774713419,
				"element": "C" 
			},
			{
				"x": 1.5724338752,
				"y": -1.8467269391,
				"z": 0.2071740347,
				"element": "N" 
			},
			{
				"x": 1.8635216092,
				"y": -3.1943192784,
				"z": 0.4032470985,
				"element": "C" 
			},
			{
				"x": 3.0676212093,
				"y": -3.2281172267,
				"z": 1.0485473364,
				"element": "C" 
			},
			{
				"x": 3.5441387846,
				"y": -1.9515203448,
				"z": 1.2652976241,
				"element": "N" 
			},
			{
				"x": 2.6378562862,
				"y": -1.1558095451,
				"z": 0.7565547286,
				"element": "C" 
			},
			{
				"x": 1.0277357792,
				"y": 0.768519907,
				"z": -0.1661800502,
				"element": "H" 
			},
			{
				"x": -0.4864503375,
				"y": -3.2146996313,
				"z": -0.8495702594,
				"element": "H" 
			},
			{
				"x": -2.4658691806,
				"y": -2.2680849495,
				"z": -1.9369892296,
				"element": "H" 
			},
			{
				"x": -2.7337732323,
				"y": 0.2013962439,
				"z": -2.1577471841,
				"element": "H" 
			},
			{
				"x": 1.2105573831,
				"y": -3.9856509669,
				"z": 0.0773964649,
				"element": "H" 
			},
			{
				"x": 3.620628322,
				"y": -4.0994306564,
				"z": 1.3704834526,
				"element": "H" 
			},
			{
				"x": 2.6948018895,
				"y": -0.0782441133,
				"z": 0.7549277734,
				"element": "H" 
			}
		],
		 "valence_orbital": [ 
			{
				"type": "occ",
				"energy": -0.32298,
				"method": "rhf"
			},
			{
				"type": "occ",
				"energy": -0.28413,
				"method": "rhf"
			},
			{
				"type": "occ",
				"energy": -0.27944,
				"method": "rhf"
			},
			{
				"type": "occ",
				"energy": -0.25967,
				"method": "rhf"
			},
			{
				"type": "occ",
				"energy": -0.24135,
				"method": "rhf"
			},
			{
				"type": "unocc",
				"energy": -0.06616,
				"method": "rhf"
			},
			{
				"type": "unocc",
				"energy": -0.04807,
				"method": "rhf"
			},
			{
				"type": "unocc",
				"energy": 0.01903,
				"method": "rhf"
			},
			{
				"type": "unocc",
				"energy": 0.02667,
				"method": "rhf"
			},
			{
				"type": "unocc",
				"energy": 0.05742,
				"method": "rhf"
			}
		],
		"cosmo_sigma_profile": { 
			"-0.025": 0.0,
			"-0.024": 0.0,
			"-0.023": 0.0,
			"-0.022": 0.0,
			"-0.021": 0.0,
			"-0.02": 0.0,
			"-0.019": 0.0,
			"-0.018": 0.0,
			"-0.017": 0.0,
			"-0.016": 0.0,
			"-0.015": 0.0,
			"-0.014": 0.0,
			"-0.013": 0.127069928996,
			"-0.012": 1.53262803171,
			"-0.011": 3.26300496191,
			"-0.01": 3.67527399637,
			"-0.009": 4.42601769696,
			"-0.008": 6.8862338149,
			"-0.007": 11.942809117,
			"-0.006": 11.5211792214,
			"-0.005": 9.10533830401,
			"-0.004": 10.1245811373,
			"-0.003": 11.0000306436,
			"-0.002": 13.7489739892,
			"-0.001": 16.8542390558,
			"0.0": 15.5807914344,
			"0.001": 17.9960575213,
			"0.002": 12.9790819013,
			"0.003": 6.82021358709,
			"0.004": 7.16165929233,
			"0.005": 7.1128155862,
			"0.006": 4.48987592442,
			"0.007": 4.4337492598,
			"0.008": 5.43928608471,
			"0.009": 4.86689538734,
			"0.01": 4.11132418037,
			"0.011": 3.93090232064,
			"0.012": 3.57492850366,
			"0.013": 2.33793456947,
			"0.014": 0.868911504552,
			"0.015": 1.41000544473,
			"0.016": 0.972611454617,
			"0.017": 0.891870083051,
			"0.018": 0.188448103821,
			"0.019": 0.0,
			"0.02": 0.0,
			"0.021": 0.0,
			"0.022": 0.0,
			"0.023": 0.0,
			"0.024": 0.0,
			"0.025": 0.0
		}
	}
}
