{
	 "smiles": "COC1=CC(=CC=C1C1=NC2=NC=CC=C2N1)S(C)=O", 
	 "Tm": 477.15, 
	 "num_atms": 33, 
	 "gaussian": { 
		 "optdone": 1, 
		 "sigma_profile": "yes", 
		 "theory": "DFT", 
		 "functional": "B3LYP", 
		 "basiset": "6-31G**", 
		 "properties": { 
			 "R2extent": 8463.715, 
			 "electric_dipole_moment_norm": 9.21402153731, 
			 "electric_quadrupole_moment_norm": 11.2496615198, 
			 "total_energy": -1254.16744733, 
			 "HOMO_LUMO_gap": 0.15513, 
			 "cosmo_polarized_energy": -27.59, 
			 "cosmo_cavitation_energy": 38.7, 
			 "cosmo_dispersion_energy": -28.7, 
			 "cosmo_repulsion_energy": 2.12, 
			 "cosmo_total_nonelectrostatic_energy": 12.12, 
			 "SMD_solvation_energy": 3.4 
		},
		"coords": [
			{
				"x": 2.1528982248,
				"y": 1.4386936366,
				"z": 1.9890899338,
				"element": "C" 
			},
			{
				"x": 1.6418422228,
				"y": 0.5345076607,
				"z": 1.0156432047,
				"element": "O" 
			},
			{
				"x": 0.3359686966,
				"y": 0.6625998597,
				"z": 0.6111539755,
				"element": "C" 
			},
			{
				"x": -0.5099478098,
				"y": 1.6589624868,
				"z": 1.1056119741,
				"element": "C" 
			},
			{
				"x": -1.8249149521,
				"y": 1.7331701318,
				"z": 0.6436506484,
				"element": "C" 
			},
			{
				"x": -2.3271047744,
				"y": 0.8181065536,
				"z": -0.2745361846,
				"element": "C" 
			},
			{
				"x": -1.4783422753,
				"y": -0.1705853573,
				"z": -0.7616944416,
				"element": "C" 
			},
			{
				"x": -0.1422065895,
				"y": -0.2720119539,
				"z": -0.3417545897,
				"element": "C" 
			},
			{
				"x": 0.6670958663,
				"y": -1.3523208098,
				"z": -0.918864314,
				"element": "C" 
			},
			{
				"x": 0.2034771661,
				"y": -2.2082099728,
				"z": -1.8122688362,
				"element": "N" 
			},
			{
				"x": 1.2585977157,
				"y": -3.0466585357,
				"z": -2.0938724246,
				"element": "C" 
			},
			{
				"x": 1.240952734,
				"y": -4.0730844365,
				"z": -2.9538538994,
				"element": "N" 
			},
			{
				"x": 2.3890148163,
				"y": -4.7441134436,
				"z": -3.0592774932,
				"element": "C" 
			},
			{
				"x": 3.5684167032,
				"y": -4.4451705354,
				"z": -2.3463448426,
				"element": "C" 
			},
			{
				"x": 3.5945872876,
				"y": -3.3788999087,
				"z": -1.4502578921,
				"element": "C" 
			},
			{
				"x": 2.4013002276,
				"y": -2.6716418931,
				"z": -1.3326907439,
				"element": "C" 
			},
			{
				"x": 1.9903461949,
				"y": -1.5872321666,
				"z": -0.5939683191,
				"element": "N" 
			},
			{
				"x": -2.9572478651,
				"y": 2.9968961828,
				"z": 1.3170522253,
				"element": "S" 
			},
			{
				"x": -2.327659743,
				"y": 4.3901186292,
				"z": 0.2942951774,
				"element": "C" 
			},
			{
				"x": -4.3426779081,
				"y": 2.6721319781,
				"z": 0.8097164647,
				"element": "O" 
			},
			{
				"x": 1.5997012419,
				"y": 1.3643351079,
				"z": 2.9324674785,
				"element": "H" 
			},
			{
				"x": 3.1901305756,
				"y": 1.1457144739,
				"z": 2.1560254818,
				"element": "H" 
			},
			{
				"x": 2.1238682957,
				"y": 2.4731869122,
				"z": 1.6272621268,
				"element": "H" 
			},
			{
				"x": -0.1567079898,
				"y": 2.3664454754,
				"z": 1.8472728543,
				"element": "H" 
			},
			{
				"x": -3.3656253728,
				"y": 0.8897371863,
				"z": -0.5814408258,
				"element": "H" 
			},
			{
				"x": -1.8260136013,
				"y": -0.9002923149,
				"z": -1.4846697658,
				"element": "H" 
			},
			{
				"x": 2.3892735623,
				"y": -5.58150053,
				"z": -3.7549832742,
				"element": "H" 
			},
			{
				"x": 4.453602731,
				"y": -5.053188301,
				"z": -2.502657677,
				"element": "H" 
			},
			{
				"x": 4.4873046269,
				"y": -3.1239059235,
				"z": -0.8866662015,
				"element": "H" 
			},
			{
				"x": 2.5081771536,
				"y": -1.0329210973,
				"z": 0.0706033218,
				"element": "H" 
			},
			{
				"x": -1.2730650359,
				"y": 4.5675821284,
				"z": 0.5186871587,
				"element": "H" 
			},
			{
				"x": -2.4655827394,
				"y": 4.1418464786,
				"z": -0.7601782718,
				"element": "H" 
			},
			{
				"x": -2.9219593866,
				"y": 5.2686022979,
				"z": 0.5549479718,
				"element": "H" 
			}
		],
		 "valence_orbital": [ 
			{
				"type": "occ",
				"energy": -0.25331,
				"method": "rhf"
			},
			{
				"type": "occ",
				"energy": -0.24627,
				"method": "rhf"
			},
			{
				"type": "occ",
				"energy": -0.244,
				"method": "rhf"
			},
			{
				"type": "occ",
				"energy": -0.23452,
				"method": "rhf"
			},
			{
				"type": "occ",
				"energy": -0.21608,
				"method": "rhf"
			},
			{
				"type": "unocc",
				"energy": -0.06095,
				"method": "rhf"
			},
			{
				"type": "unocc",
				"energy": -0.01477,
				"method": "rhf"
			},
			{
				"type": "unocc",
				"energy": -0.00721,
				"method": "rhf"
			},
			{
				"type": "unocc",
				"energy": 0.01806,
				"method": "rhf"
			},
			{
				"type": "unocc",
				"energy": 0.03406,
				"method": "rhf"
			}
		],
		"cosmo_sigma_profile": { 
			"-0.025": 0.0,
			"-0.024": 0.0,
			"-0.023": 0.0,
			"-0.022": 0.0,
			"-0.021": 0.0,
			"-0.02": 0.0,
			"-0.019": 0.0,
			"-0.018": 0.0,
			"-0.017": 0.0,
			"-0.016": 0.0,
			"-0.015": 0.0126524055808,
			"-0.014": 0.596053903616,
			"-0.013": 0.734497686945,
			"-0.012": 0.803215175353,
			"-0.011": 0.961738282726,
			"-0.01": 1.11560958813,
			"-0.009": 3.4897512594,
			"-0.008": 7.00249407651,
			"-0.007": 14.0750919911,
			"-0.006": 23.2317669723,
			"-0.005": 24.1713356783,
			"-0.004": 25.3818411099,
			"-0.003": 20.1282062889,
			"-0.002": 19.7384568166,
			"-0.001": 18.3502591919,
			"0.0": 22.2409632295,
			"0.001": 24.6949960171,
			"0.002": 26.4756998015,
			"0.003": 19.9821712014,
			"0.004": 7.9299024785,
			"0.005": 4.39589967872,
			"0.006": 4.61042001622,
			"0.007": 3.82587294636,
			"0.008": 3.86670708511,
			"0.009": 2.51872850947,
			"0.01": 3.57022893546,
			"0.011": 3.50169861245,
			"0.012": 3.39097521055,
			"0.013": 5.207240862,
			"0.014": 7.02520288366,
			"0.015": 5.95216759351,
			"0.016": 2.02982638932,
			"0.017": 0.655153545302,
			"0.018": 0.0304023155314,
			"0.019": 0.0,
			"0.02": 0.0,
			"0.021": 0.0,
			"0.022": 0.0,
			"0.023": 0.0,
			"0.024": 0.0,
			"0.025": 0.0
		}
	}
}
