{
	 "smiles": "CC1=C(Cl)C=C(N)C(Cl)=C1", 
	 "Tm": 360.15, 
	 "num_atms": 17, 
	 "gaussian": { 
		 "optdone": 1, 
		 "sigma_profile": "yes", 
		 "theory": "DFT", 
		 "functional": "B3LYP", 
		 "basiset": "6-31G**", 
		 "properties": { 
			 "R2extent": 2380.0737, 
			 "electric_dipole_moment_norm": 1.47221982394, 
			 "electric_quadrupole_moment_norm": 13.3123827852, 
			 "total_energy": -1246.11318693, 
			 "HOMO_LUMO_gap": 0.19589, 
			 "cosmo_polarized_energy": -7.31, 
			 "cosmo_cavitation_energy": 24.01, 
			 "cosmo_dispersion_energy": -18.18, 
			 "cosmo_repulsion_energy": 1.47, 
			 "cosmo_total_nonelectrostatic_energy": 7.31, 
			 "SMD_solvation_energy": 3.53 
		},
		"coords": [
			{
				"x": -3.2288038717,
				"y": -1.2023231009,
				"z": 0.5603088655,
				"element": "C" 
			},
			{
				"x": -1.8403103534,
				"y": -0.75173566,
				"z": 0.1857908209,
				"element": "C" 
			},
			{
				"x": -0.7364964502,
				"y": -0.8947020843,
				"z": 1.0397161064,
				"element": "C" 
			},
			{
				"x": -0.9546934289,
				"y": -1.6336762813,
				"z": 2.625174921,
				"element": "Cl" 
			},
			{
				"x": 0.54328088,
				"y": -0.4782841083,
				"z": 0.6941375537,
				"element": "C" 
			},
			{
				"x": 0.7943685214,
				"y": 0.1185817579,
				"z": -0.5537503713,
				"element": "C" 
			},
			{
				"x": 2.0567148602,
				"y": 0.5866819314,
				"z": -0.8793256383,
				"element": "N" 
			},
			{
				"x": -0.3066954945,
				"y": 0.2619158529,
				"z": -1.4176513548,
				"element": "C" 
			},
			{
				"x": -0.0618418958,
				"y": 0.9869804476,
				"z": -3.0063199415,
				"element": "Cl" 
			},
			{
				"x": -1.5812148089,
				"y": -0.1595930985,
				"z": -1.0554333734,
				"element": "C" 
			},
			{
				"x": -3.588425173,
				"y": -0.689571184,
				"z": 1.4590598035,
				"element": "H" 
			},
			{
				"x": -3.9315446507,
				"y": -0.9979468497,
				"z": -0.2513597948,
				"element": "H" 
			},
			{
				"x": -3.2586568599,
				"y": -2.2761870456,
				"z": 0.7745654995,
				"element": "H" 
			},
			{
				"x": 1.3585922981,
				"y": -0.6074270642,
				"z": 1.3982828128,
				"element": "H" 
			},
			{
				"x": 2.2332469762,
				"y": 0.7244400459,
				"z": -1.8643834972,
				"element": "H" 
			},
			{
				"x": 2.825355028,
				"y": 0.1553010651,
				"z": -0.3873815786,
				"element": "H" 
			},
			{
				"x": -2.3945755769,
				"y": -0.0261546241,
				"z": -1.7612308335,
				"element": "H" 
			}
		],
		 "valence_orbital": [ 
			{
				"type": "occ",
				"energy": -0.32043,
				"method": "rhf"
			},
			{
				"type": "occ",
				"energy": -0.31227,
				"method": "rhf"
			},
			{
				"type": "occ",
				"energy": -0.30072,
				"method": "rhf"
			},
			{
				"type": "occ",
				"energy": -0.24548,
				"method": "rhf"
			},
			{
				"type": "occ",
				"energy": -0.21185,
				"method": "rhf"
			},
			{
				"type": "unocc",
				"energy": -0.01596,
				"method": "rhf"
			},
			{
				"type": "unocc",
				"energy": 0.0018,
				"method": "rhf"
			},
			{
				"type": "unocc",
				"energy": 0.02082,
				"method": "rhf"
			},
			{
				"type": "unocc",
				"energy": 0.03967,
				"method": "rhf"
			},
			{
				"type": "unocc",
				"energy": 0.07917,
				"method": "rhf"
			}
		],
		"cosmo_sigma_profile": { 
			"-0.025": 0.0,
			"-0.024": 0.0,
			"-0.023": 0.0,
			"-0.022": 0.0,
			"-0.021": 0.0,
			"-0.02": 0.0,
			"-0.019": 0.0,
			"-0.018": 0.0,
			"-0.017": 0.0,
			"-0.016": 0.0,
			"-0.015": 0.0,
			"-0.014": 0.341348848456,
			"-0.013": 1.59540312392,
			"-0.012": 1.71747010293,
			"-0.011": 2.89686169375,
			"-0.01": 2.45400401668,
			"-0.009": 2.66976662386,
			"-0.008": 2.89027655303,
			"-0.007": 4.04607046311,
			"-0.006": 5.93115760457,
			"-0.005": 5.12148144834,
			"-0.004": 8.85797444143,
			"-0.003": 8.92649844781,
			"-0.002": 11.8535655428,
			"-0.001": 16.1707997091,
			"0.0": 17.6086663927,
			"0.001": 15.4819258484,
			"0.002": 19.2202291992,
			"0.003": 25.7204633742,
			"0.004": 24.3574179543,
			"0.005": 11.9920750638,
			"0.006": 0.988563117889,
			"0.007": 1.06488341059,
			"0.008": 0.456999600901,
			"0.009": 0.858051473449,
			"0.01": 0.748955301658,
			"0.011": 0.346697927308,
			"0.012": 0.762681283238,
			"0.013": 0.291360681454,
			"0.014": 0.0,
			"0.015": 0.0,
			"0.016": 0.0,
			"0.017": 0.0,
			"0.018": 0.0,
			"0.019": 0.0,
			"0.02": 0.0,
			"0.021": 0.0,
			"0.022": 0.0,
			"0.023": 0.0,
			"0.024": 0.0,
			"0.025": 0.0
		}
	}
}
