{
	 "smiles": "O=C1CCCCCC1=O", 
	 "Tm": 233.15, 
	 "num_atms": 19, 
	 "gaussian": { 
		 "optdone": 1, 
		 "sigma_profile": "yes", 
		 "theory": "DFT", 
		 "functional": "B3LYP", 
		 "basiset": "6-31G**", 
		 "properties": { 
			 "R2extent": 1197.745, 
			 "electric_dipole_moment_norm": 4.43141599604, 
			 "electric_quadrupole_moment_norm": 9.63186563133, 
			 "total_energy": -423.200656203, 
			 "HOMO_LUMO_gap": 0.18576, 
			 "cosmo_polarized_energy": -10.36, 
			 "cosmo_cavitation_energy": 21.31, 
			 "cosmo_dispersion_energy": -15.69, 
			 "cosmo_repulsion_energy": 1.3, 
			 "cosmo_total_nonelectrostatic_energy": 6.92, 
			 "SMD_solvation_energy": 4.32 
		},
		"coords": [
			{
				"x": 0.156376537,
				"y": 0.7926370694,
				"z": 2.5691998946,
				"element": "O" 
			},
			{
				"x": -0.2797802981,
				"y": 0.6059751387,
				"z": 1.4500864753,
				"element": "C" 
			},
			{
				"x": -0.2769174087,
				"y": 1.6646044022,
				"z": 0.3627018406,
				"element": "C" 
			},
			{
				"x": 0.2000300852,
				"y": 1.1997073787,
				"z": -1.0320916421,
				"element": "C" 
			},
			{
				"x": -0.6628525838,
				"y": 0.091158922,
				"z": -1.6712129039,
				"element": "C" 
			},
			{
				"x": -0.292515895,
				"y": -1.3614372476,
				"z": -1.3024409712,
				"element": "C" 
			},
			{
				"x": 0.0120365171,
				"y": -1.6251356109,
				"z": 0.1978547255,
				"element": "C" 
			},
			{
				"x": -0.8641090322,
				"y": -0.7779020613,
				"z": 1.1003099296,
				"element": "C" 
			},
			{
				"x": -1.9468287403,
				"y": -1.1227557457,
				"z": 1.5282588079,
				"element": "O" 
			},
			{
				"x": 0.3246304516,
				"y": 2.5008706093,
				"z": 0.7315797288,
				"element": "H" 
			},
			{
				"x": -1.3137108342,
				"y": 2.0227654255,
				"z": 0.2725371339,
				"element": "H" 
			},
			{
				"x": 1.2511902587,
				"y": 0.8867881579,
				"z": -0.9843487381,
				"element": "H" 
			},
			{
				"x": 0.1794942674,
				"y": 2.081380447,
				"z": -1.681521989,
				"element": "H" 
			},
			{
				"x": -0.6079509073,
				"y": 0.1778262491,
				"z": -2.762069753,
				"element": "H" 
			},
			{
				"x": -1.7146661773,
				"y": 0.2737868737,
				"z": -1.4125119151,
				"element": "H" 
			},
			{
				"x": -1.1193067008,
				"y": -2.0109232999,
				"z": -1.6076985931,
				"element": "H" 
			},
			{
				"x": 0.5829278643,
				"y": -1.6751032234,
				"z": -1.8821722623,
				"element": "H" 
			},
			{
				"x": 1.0623116553,
				"y": -1.3932849123,
				"z": 0.4120728885,
				"element": "H" 
			},
			{
				"x": -0.1586590591,
				"y": -2.6789585723,
				"z": 0.4357673431,
				"element": "H" 
			}
		],
		 "valence_orbital": [ 
			{
				"type": "occ",
				"energy": -0.34827,
				"method": "rhf"
			},
			{
				"type": "occ",
				"energy": -0.34101,
				"method": "rhf"
			},
			{
				"type": "occ",
				"energy": -0.33749,
				"method": "rhf"
			},
			{
				"type": "occ",
				"energy": -0.29538,
				"method": "rhf"
			},
			{
				"type": "occ",
				"energy": -0.22878,
				"method": "rhf"
			},
			{
				"type": "unocc",
				"energy": -0.04302,
				"method": "rhf"
			},
			{
				"type": "unocc",
				"energy": -0.01842,
				"method": "rhf"
			},
			{
				"type": "unocc",
				"energy": 0.07595,
				"method": "rhf"
			},
			{
				"type": "unocc",
				"energy": 0.09997,
				"method": "rhf"
			},
			{
				"type": "unocc",
				"energy": 0.10995,
				"method": "rhf"
			}
		],
		"cosmo_sigma_profile": { 
			"-0.025": 0.0,
			"-0.024": 0.0,
			"-0.023": 0.0,
			"-0.022": 0.0,
			"-0.021": 0.0,
			"-0.02": 0.0,
			"-0.019": 0.0,
			"-0.018": 0.0,
			"-0.017": 0.0,
			"-0.016": 0.0,
			"-0.015": 0.0,
			"-0.014": 0.0,
			"-0.013": 0.0,
			"-0.012": 0.0,
			"-0.011": 0.0,
			"-0.01": 0.0,
			"-0.009": 0.0,
			"-0.008": 0.415281263132,
			"-0.007": 3.73248632746,
			"-0.006": 7.4875942388,
			"-0.005": 11.2546204091,
			"-0.004": 20.5821426606,
			"-0.003": 27.7662100803,
			"-0.002": 24.338052046,
			"-0.001": 15.4714735435,
			"0.0": 8.07884941348,
			"0.001": 2.3273412531,
			"0.002": 3.0011067445,
			"0.003": 1.85675699295,
			"0.004": 2.92716901348,
			"0.005": 3.1116431284,
			"0.006": 2.44379504298,
			"0.007": 4.32541172042,
			"0.008": 3.0690902439,
			"0.009": 5.14437235216,
			"0.01": 6.99142503058,
			"0.011": 8.65854509274,
			"0.012": 3.10480933967,
			"0.013": 0.0109791617942,
			"0.014": 0.0,
			"0.015": 0.0,
			"0.016": 0.0,
			"0.017": 0.0,
			"0.018": 0.0,
			"0.019": 0.0,
			"0.02": 0.0,
			"0.021": 0.0,
			"0.022": 0.0,
			"0.023": 0.0,
			"0.024": 0.0,
			"0.025": 0.0
		}
	}
}
