{
	 "smiles": "COC(=O)NC1=C(O)C=CC=C1", 
	 "Tm": 394.15, 
	 "num_atms": 21, 
	 "gaussian": { 
		 "optdone": 1, 
		 "sigma_profile": "yes", 
		 "theory": "DFT", 
		 "functional": "B3LYP", 
		 "basiset": "6-31G**", 
		 "properties": { 
			 "R2extent": 4111.955, 
			 "electric_dipole_moment_norm": 2.49238571052, 
			 "electric_quadrupole_moment_norm": 19.860009896, 
			 "total_energy": -590.712217444, 
			 "HOMO_LUMO_gap": 0.20288, 
			 "cosmo_polarized_energy": -12.75, 
			 "cosmo_cavitation_energy": 25.29, 
			 "cosmo_dispersion_energy": -18.92, 
			 "cosmo_repulsion_energy": 1.51, 
			 "cosmo_total_nonelectrostatic_energy": 7.88, 
			 "SMD_solvation_energy": 6.45 
		},
		"coords": [
			{
				"x": 1.0322009099,
				"y": -2.1302622941,
				"z": 0.5843781679,
				"element": "C" 
			},
			{
				"x": 0.1162140281,
				"y": -1.1030360716,
				"z": 0.9938161761,
				"element": "O" 
			},
			{
				"x": -0.2927248848,
				"y": -1.200906692,
				"z": 2.2809308242,
				"element": "C" 
			},
			{
				"x": 0.0703694855,
				"y": -2.0754562079,
				"z": 3.0465875721,
				"element": "O" 
			},
			{
				"x": -1.1676234672,
				"y": -0.2091524241,
				"z": 2.6515228894,
				"element": "N" 
			},
			{
				"x": -1.7297929881,
				"y": 0.8886221668,
				"z": 1.9746620824,
				"element": "C" 
			},
			{
				"x": -2.6081180534,
				"y": 1.6863244633,
				"z": 2.742975228,
				"element": "C" 
			},
			{
				"x": -2.7981723012,
				"y": 1.2883093901,
				"z": 4.0451240775,
				"element": "O" 
			},
			{
				"x": -3.2295653962,
				"y": 2.8009331346,
				"z": 2.1911874371,
				"element": "C" 
			},
			{
				"x": -2.9910200318,
				"y": 3.1486276464,
				"z": 0.8589810514,
				"element": "C" 
			},
			{
				"x": -2.1278521266,
				"y": 2.3699115585,
				"z": 0.0934759783,
				"element": "C" 
			},
			{
				"x": -1.4999250862,
				"y": 1.2480668993,
				"z": 0.6422580936,
				"element": "C" 
			},
			{
				"x": 1.9401914975,
				"y": -2.102536463,
				"z": 1.1912906586,
				"element": "H" 
			},
			{
				"x": 1.2625438066,
				"y": -1.9144590404,
				"z": -0.4590720038,
				"element": "H" 
			},
			{
				"x": 0.5735990087,
				"y": -3.1172523749,
				"z": 0.6797474906,
				"element": "H" 
			},
			{
				"x": -1.4574019898,
				"y": -0.3039243895,
				"z": 3.6154334914,
				"element": "H" 
			},
			{
				"x": -3.4099950376,
				"y": 1.8937159394,
				"z": 4.4812427372,
				"element": "H" 
			},
			{
				"x": -3.9008553589,
				"y": 3.3963041773,
				"z": 2.806826575,
				"element": "H" 
			},
			{
				"x": -3.4785592772,
				"y": 4.0196799184,
				"z": 0.4328291768,
				"element": "H" 
			},
			{
				"x": -1.9333562803,
				"y": 2.6283311849,
				"z": -0.9428790077,
				"element": "H" 
			},
			{
				"x": -0.831456457,
				"y": 0.6488594783,
				"z": 0.0416813039,
				"element": "H" 
			}
		],
		 "valence_orbital": [ 
			{
				"type": "occ",
				"energy": -0.31104,
				"method": "rhf"
			},
			{
				"type": "occ",
				"energy": -0.29602,
				"method": "rhf"
			},
			{
				"type": "occ",
				"energy": -0.2732,
				"method": "rhf"
			},
			{
				"type": "occ",
				"energy": -0.23832,
				"method": "rhf"
			},
			{
				"type": "occ",
				"energy": -0.20692,
				"method": "rhf"
			},
			{
				"type": "unocc",
				"energy": -0.00404,
				"method": "rhf"
			},
			{
				"type": "unocc",
				"energy": 0.01075,
				"method": "rhf"
			},
			{
				"type": "unocc",
				"energy": 0.05853,
				"method": "rhf"
			},
			{
				"type": "unocc",
				"energy": 0.06724,
				"method": "rhf"
			},
			{
				"type": "unocc",
				"energy": 0.09287,
				"method": "rhf"
			}
		],
		"cosmo_sigma_profile": { 
			"-0.025": 0.0,
			"-0.024": 0.0,
			"-0.023": 0.0,
			"-0.022": 0.0,
			"-0.021": 0.0,
			"-0.02": 0.0,
			"-0.019": 0.0102136501197,
			"-0.018": 0.924612999819,
			"-0.017": 1.02345269383,
			"-0.016": 1.00242197033,
			"-0.015": 1.48370666894,
			"-0.014": 0.939864514566,
			"-0.013": 0.544612089353,
			"-0.012": 0.556123670373,
			"-0.011": 1.27414310873,
			"-0.01": 2.19694541205,
			"-0.009": 1.87214918275,
			"-0.008": 1.03693904764,
			"-0.007": 2.76659501241,
			"-0.006": 8.09857483418,
			"-0.005": 14.1623662775,
			"-0.004": 15.8566562544,
			"-0.003": 16.2557111886,
			"-0.002": 12.93524043,
			"-0.001": 12.1725016301,
			"0.0": 11.4769328136,
			"0.001": 12.8530325414,
			"0.002": 14.6200034856,
			"0.003": 14.8096953461,
			"0.004": 13.1312348551,
			"0.005": 11.334839139,
			"0.006": 10.1287518564,
			"0.007": 3.00443764094,
			"0.008": 1.54420149458,
			"0.009": 1.6022179391,
			"0.01": 1.28822801155,
			"0.011": 1.40662178499,
			"0.012": 3.36314912025,
			"0.013": 5.49290855938,
			"0.014": 0.300290310375,
			"0.015": 0.0,
			"0.016": 0.0,
			"0.017": 0.0,
			"0.018": 0.0,
			"0.019": 0.0,
			"0.02": 0.0,
			"0.021": 0.0,
			"0.022": 0.0,
			"0.023": 0.0,
			"0.024": 0.0,
			"0.025": 0.0
		}
	}
}
