{
	 "smiles": "NC1=C(S)C=CC(=C1)S(N)(=O)=O", 
	 "Tm": 494.15, 
	 "num_atms": 20, 
	 "gaussian": { 
		 "optdone": 1, 
		 "sigma_profile": "yes", 
		 "theory": "DFT", 
		 "functional": "B3LYP", 
		 "basiset": "6-31G**", 
		 "properties": { 
			 "R2extent": 3868.5902, 
			 "electric_dipole_moment_norm": 3.86158140922, 
			 "electric_quadrupole_moment_norm": 20.1168749342, 
			 "total_energy": -1289.71834168, 
			 "HOMO_LUMO_gap": 0.18303, 
			 "cosmo_polarized_energy": -18.9, 
			 "cosmo_cavitation_energy": 27.1, 
			 "cosmo_dispersion_energy": -21.15, 
			 "cosmo_repulsion_energy": 1.61, 
			 "cosmo_total_nonelectrostatic_energy": 7.55, 
			 "SMD_solvation_energy": 3.78 
		},
		"coords": [
			{
				"x": 1.5575465072,
				"y": -0.9726832796,
				"z": 0.5430356491,
				"element": "N" 
			},
			{
				"x": 0.3079136135,
				"y": -0.9062495949,
				"z": -0.0512817296,
				"element": "C" 
			},
			{
				"x": -0.4831724856,
				"y": -2.0693463838,
				"z": -0.2161409571,
				"element": "C" 
			},
			{
				"x": 0.0514585792,
				"y": -3.6412480589,
				"z": 0.4649793142,
				"element": "S" 
			},
			{
				"x": -1.7199035618,
				"y": -1.9975422076,
				"z": -0.8638567768,
				"element": "C" 
			},
			{
				"x": -2.2065931812,
				"y": -0.790429034,
				"z": -1.3595381831,
				"element": "C" 
			},
			{
				"x": -1.4164280992,
				"y": 0.3481645592,
				"z": -1.1971226069,
				"element": "C" 
			},
			{
				"x": -0.179395062,
				"y": 0.3082683546,
				"z": -0.5655660077,
				"element": "C" 
			},
			{
				"x": -2.0089754703,
				"y": 1.9227870966,
				"z": -1.8190352507,
				"element": "S" 
			},
			{
				"x": -2.9806439221,
				"y": 2.5029279663,
				"z": -0.5540985293,
				"element": "N" 
			},
			{
				"x": -2.8981754868,
				"y": 1.6508925409,
				"z": -2.9520980709,
				"element": "O" 
			},
			{
				"x": -0.859292252,
				"y": 2.8276692642,
				"z": -1.9230865521,
				"element": "O" 
			},
			{
				"x": 1.9373377249,
				"y": -0.091212399,
				"z": 0.8583785058,
				"element": "H" 
			},
			{
				"x": 1.6697094311,
				"y": -1.722453056,
				"z": 1.2148007056,
				"element": "H" 
			},
			{
				"x": 1.21094012,
				"y": -3.7431584412,
				"z": -0.2231406097,
				"element": "H" 
			},
			{
				"x": -2.2972781306,
				"y": -2.9077781343,
				"z": -0.9886797934,
				"element": "H" 
			},
			{
				"x": -3.1536027543,
				"y": -0.7369338868,
				"z": -1.882776976,
				"element": "H" 
			},
			{
				"x": 0.4107303776,
				"y": 1.2150690755,
				"z": -0.4808752899,
				"element": "H" 
			},
			{
				"x": -2.6043381099,
				"y": 3.3887683944,
				"z": -0.226525935,
				"element": "H" 
			},
			{
				"x": -3.9345378376,
				"y": 2.6094872245,
				"z": -0.8894709063,
				"element": "H" 
			}
		],
		 "valence_orbital": [ 
			{
				"type": "occ",
				"energy": -0.30515,
				"method": "rhf"
			},
			{
				"type": "occ",
				"energy": -0.29914,
				"method": "rhf"
			},
			{
				"type": "occ",
				"energy": -0.28045,
				"method": "rhf"
			},
			{
				"type": "occ",
				"energy": -0.25304,
				"method": "rhf"
			},
			{
				"type": "occ",
				"energy": -0.22245,
				"method": "rhf"
			},
			{
				"type": "unocc",
				"energy": -0.03942,
				"method": "rhf"
			},
			{
				"type": "unocc",
				"energy": -0.00936,
				"method": "rhf"
			},
			{
				"type": "unocc",
				"energy": 0.02231,
				"method": "rhf"
			},
			{
				"type": "unocc",
				"energy": 0.04964,
				"method": "rhf"
			},
			{
				"type": "unocc",
				"energy": 0.06276,
				"method": "rhf"
			}
		],
		"cosmo_sigma_profile": { 
			"-0.025": 0.0,
			"-0.024": 0.0,
			"-0.023": 0.0,
			"-0.022": 0.0,
			"-0.021": 0.0,
			"-0.02": 0.0,
			"-0.019": 0.0,
			"-0.018": 0.0,
			"-0.017": 0.0,
			"-0.016": 0.0,
			"-0.015": 0.829514828519,
			"-0.014": 2.56214187337,
			"-0.013": 4.25484411815,
			"-0.012": 4.24742992611,
			"-0.011": 4.88679530579,
			"-0.01": 5.56449394104,
			"-0.009": 6.36609760654,
			"-0.008": 5.61877969082,
			"-0.007": 7.76714497833,
			"-0.006": 8.99412279759,
			"-0.005": 9.30404262087,
			"-0.004": 9.33516042009,
			"-0.003": 7.41454642177,
			"-0.002": 9.32591695108,
			"-0.001": 9.87786607898,
			"0.0": 9.59959037885,
			"0.001": 13.2045188658,
			"0.002": 15.0261163732,
			"0.003": 17.8001806788,
			"0.004": 11.6001426115,
			"0.005": 7.489428644,
			"0.006": 6.35548631888,
			"0.007": 6.30756936867,
			"0.008": 6.5654346119,
			"0.009": 4.24596359709,
			"0.01": 8.48997125477,
			"0.011": 10.1501674755,
			"0.012": 4.41429452051,
			"0.013": 0.26770419958,
			"0.014": 0.0,
			"0.015": 0.0,
			"0.016": 0.0,
			"0.017": 0.0,
			"0.018": 0.0,
			"0.019": 0.0,
			"0.02": 0.0,
			"0.021": 0.0,
			"0.022": 0.0,
			"0.023": 0.0,
			"0.024": 0.0,
			"0.025": 0.0
		}
	}
}
