{
	 "smiles": "CC(=N/C1=CC=CC=C1)C1=C(O)C2=CC=CC=C2N(C2=CC=CC=C2)C1=O", 
	 "Tm": 457.15, 
	 "num_atms": 45, 
	 "gaussian": { 
		 "optdone": 1, 
		 "sigma_profile": "yes", 
		 "theory": "DFT", 
		 "functional": "B3LYP", 
		 "basiset": "6-31G**", 
		 "properties": { 
			 "R2extent": 12741.6267, 
			 "electric_dipole_moment_norm": 1.44013609774, 
			 "electric_quadrupole_moment_norm": 18.4361109367, 
			 "total_energy": -1147.28128924, 
			 "HOMO_LUMO_gap": 0.15138, 
			 "cosmo_polarized_energy": -12.9, 
			 "cosmo_cavitation_energy": 48.3, 
			 "cosmo_dispersion_energy": -33.98, 
			 "cosmo_repulsion_energy": 2.52, 
			 "cosmo_total_nonelectrostatic_energy": 16.84, 
			 "SMD_solvation_energy": 8.36 
		},
		"coords": [
			{
				"x": 0.9586902683,
				"y": 1.7268166287,
				"z": -0.2145175115,
				"element": "C" 
			},
			{
				"x": 1.2272641582,
				"y": 0.246609096,
				"z": -0.1133063939,
				"element": "C" 
			},
			{
				"x": 2.4392427779,
				"y": -0.2507162136,
				"z": -0.1366922953,
				"element": "N" 
			},
			{
				"x": 3.6397363336,
				"y": 0.4911138868,
				"z": -0.132453821,
				"element": "C" 
			},
			{
				"x": 3.9587907524,
				"y": 1.392978801,
				"z": 0.895788614,
				"element": "C" 
			},
			{
				"x": 5.1951985338,
				"y": 2.0383779435,
				"z": 0.9050631967,
				"element": "C" 
			},
			{
				"x": 6.1291737827,
				"y": 1.7932868007,
				"z": -0.1031005187,
				"element": "C" 
			},
			{
				"x": 5.8207616617,
				"y": 0.8863792427,
				"z": -1.1200719204,
				"element": "C" 
			},
			{
				"x": 4.5908864099,
				"y": 0.2315963806,
				"z": -1.1318444755,
				"element": "C" 
			},
			{
				"x": 0.131129697,
				"y": -0.7244191525,
				"z": -0.0410014674,
				"element": "C" 
			},
			{
				"x": 0.4230850682,
				"y": -2.1005027898,
				"z": -0.0521602961,
				"element": "C" 
			},
			{
				"x": 1.6516597482,
				"y": -2.5554379333,
				"z": -0.1119125401,
				"element": "O" 
			},
			{
				"x": -0.6370586315,
				"y": -3.0871967446,
				"z": -0.0064904147,
				"element": "C" 
			},
			{
				"x": -0.3446076415,
				"y": -4.463889238,
				"z": -0.0305970523,
				"element": "C" 
			},
			{
				"x": -1.3603030231,
				"y": -5.4039557455,
				"z": 0.0091621441,
				"element": "C" 
			},
			{
				"x": -2.6929450021,
				"y": -4.9692247145,
				"z": 0.074431286,
				"element": "C" 
			},
			{
				"x": -3.0071858138,
				"y": -3.6176966401,
				"z": 0.1004595187,
				"element": "C" 
			},
			{
				"x": -1.9802426203,
				"y": -2.6532705963,
				"z": 0.0608767923,
				"element": "C" 
			},
			{
				"x": -2.2536303862,
				"y": -1.2881172987,
				"z": 0.0889103034,
				"element": "N" 
			},
			{
				"x": -3.6199080297,
				"y": -0.8280967421,
				"z": 0.1757262562,
				"element": "C" 
			},
			{
				"x": -4.3464331803,
				"y": -0.5903948213,
				"z": -0.9919867103,
				"element": "C" 
			},
			{
				"x": -5.6710742913,
				"y": -0.1603553402,
				"z": -0.9065517013,
				"element": "C" 
			},
			{
				"x": -6.266395645,
				"y": 0.0313538636,
				"z": 0.3419019524,
				"element": "C" 
			},
			{
				"x": -5.5342425169,
				"y": -0.2061041869,
				"z": 1.5070608241,
				"element": "C" 
			},
			{
				"x": -4.2094357276,
				"y": -0.6361405835,
				"z": 1.426189752,
				"element": "C" 
			},
			{
				"x": -1.2599060591,
				"y": -0.2773294971,
				"z": 0.0542142475,
				"element": "C" 
			},
			{
				"x": -1.6244119668,
				"y": 0.8958777861,
				"z": 0.1106313819,
				"element": "O" 
			},
			{
				"x": 0.2117756831,
				"y": 1.9170551815,
				"z": -0.9862789706,
				"element": "H" 
			},
			{
				"x": 0.5167736271,
				"y": 2.1071772763,
				"z": 0.7100368402,
				"element": "H" 
			},
			{
				"x": 1.8787494848,
				"y": 2.2686588158,
				"z": -0.4327180199,
				"element": "H" 
			},
			{
				"x": 3.2423193211,
				"y": 1.5679521205,
				"z": 1.6923066052,
				"element": "H" 
			},
			{
				"x": 5.4292977112,
				"y": 2.7319288572,
				"z": 1.7078264142,
				"element": "H" 
			},
			{
				"x": 7.0908361935,
				"y": 2.2973739033,
				"z": -0.0923413453,
				"element": "H" 
			},
			{
				"x": 6.5427921005,
				"y": 0.6831051022,
				"z": -1.9058623619,
				"element": "H" 
			},
			{
				"x": 4.3480868518,
				"y": -0.479841804,
				"z": -1.9154153424,
				"element": "H" 
			},
			{
				"x": 2.257889639,
				"y": -1.670880176,
				"z": -0.1336263181,
				"element": "H" 
			},
			{
				"x": 0.6967315987,
				"y": -4.7605195809,
				"z": -0.0814163229,
				"element": "H" 
			},
			{
				"x": -1.1291787643,
				"y": -6.4640742498,
				"z": -0.0099241695,
				"element": "H" 
			},
			{
				"x": -3.498826545,
				"y": -5.6970793535,
				"z": 0.105772049,
				"element": "H" 
			},
			{
				"x": -4.0406079256,
				"y": -3.29984543,
				"z": 0.1517110599,
				"element": "H" 
			},
			{
				"x": -3.8696395286,
				"y": -0.7384925604,
				"z": -1.9557234152,
				"element": "H" 
			},
			{
				"x": -6.2359152164,
				"y": 0.0269717783,
				"z": -1.8149594471,
				"element": "H" 
			},
			{
				"x": -7.2972419204,
				"y": 0.3670443297,
				"z": 0.4066914894,
				"element": "H" 
			},
			{
				"x": -5.9924719285,
				"y": -0.0541708246,
				"z": 2.4798328589,
				"element": "H" 
			},
			{
				"x": -3.6271090389,
				"y": -0.8190055773,
				"z": 2.3236592455,
				"element": "H" 
			}
		],
		 "valence_orbital": [ 
			{
				"type": "occ",
				"energy": -0.25221,
				"method": "rhf"
			},
			{
				"type": "occ",
				"energy": -0.24449,
				"method": "rhf"
			},
			{
				"type": "occ",
				"energy": -0.23795,
				"method": "rhf"
			},
			{
				"type": "occ",
				"energy": -0.22329,
				"method": "rhf"
			},
			{
				"type": "occ",
				"energy": -0.21258,
				"method": "rhf"
			},
			{
				"type": "unocc",
				"energy": -0.0612,
				"method": "rhf"
			},
			{
				"type": "unocc",
				"energy": -0.01744,
				"method": "rhf"
			},
			{
				"type": "unocc",
				"energy": -0.01091,
				"method": "rhf"
			},
			{
				"type": "unocc",
				"energy": -0.00803,
				"method": "rhf"
			},
			{
				"type": "unocc",
				"energy": -0.00281,
				"method": "rhf"
			}
		],
		"cosmo_sigma_profile": { 
			"-0.025": 0.0,
			"-0.024": 0.0,
			"-0.023": 0.0,
			"-0.022": 0.0,
			"-0.021": 0.0,
			"-0.02": 0.0,
			"-0.019": 0.0,
			"-0.018": 0.0,
			"-0.017": 0.0,
			"-0.016": 0.0,
			"-0.015": 0.0,
			"-0.014": 0.0,
			"-0.013": 0.0,
			"-0.012": 0.0,
			"-0.011": 0.0,
			"-0.01": 0.0,
			"-0.009": 0.0,
			"-0.008": 0.0,
			"-0.007": 3.17652050729,
			"-0.006": 22.1563339266,
			"-0.005": 30.0391777395,
			"-0.004": 35.4465567547,
			"-0.003": 31.1764687502,
			"-0.002": 32.1429421427,
			"-0.001": 33.5987755814,
			"0.0": 39.3038006482,
			"0.001": 29.6910598222,
			"0.002": 28.6237004291,
			"0.003": 28.3180876929,
			"0.004": 26.7865059357,
			"0.005": 17.7134382837,
			"0.006": 7.53084320743,
			"0.007": 3.89922670976,
			"0.008": 3.35038352659,
			"0.009": 4.10206718063,
			"0.01": 1.94152175112,
			"0.011": 1.82783648314,
			"0.012": 2.11841467961,
			"0.013": 2.59825531584,
			"0.014": 2.37651658665,
			"0.015": 0.257349257934,
			"0.016": 0.0,
			"0.017": 0.0,
			"0.018": 0.0,
			"0.019": 0.0,
			"0.02": 0.0,
			"0.021": 0.0,
			"0.022": 0.0,
			"0.023": 0.0,
			"0.024": 0.0,
			"0.025": 0.0
		}
	}
}
