{
	 "smiles": "CC(=O)C1=CC=C(C=C1)N1C=NC2=C1C=CC=C2", 
	 "Tm": 409.15, 
	 "num_atms": 30, 
	 "gaussian": { 
		 "optdone": 1, 
		 "sigma_profile": "yes", 
		 "theory": "DFT", 
		 "functional": "B3LYP", 
		 "basiset": "6-31G**", 
		 "properties": { 
			 "R2extent": 6101.2476, 
			 "electric_dipole_moment_norm": 3.10368499368, 
			 "electric_quadrupole_moment_norm": 18.8949449298, 
			 "total_energy": -763.567833466, 
			 "HOMO_LUMO_gap": 0.15804, 
			 "cosmo_polarized_energy": -14.6, 
			 "cosmo_cavitation_energy": 34.37, 
			 "cosmo_dispersion_energy": -24.93, 
			 "cosmo_repulsion_energy": 1.87, 
			 "cosmo_total_nonelectrostatic_energy": 11.31, 
			 "SMD_solvation_energy": 4.73 
		},
		"coords": [
			{
				"x": -5.2541925203,
				"y": -2.7184033179,
				"z": 0.123200129,
				"element": "C" 
			},
			{
				"x": -4.8099227296,
				"y": -1.3519025183,
				"z": -0.3695567905,
				"element": "C" 
			},
			{
				"x": -5.6299980403,
				"y": -0.5258531351,
				"z": -0.7408268372,
				"element": "O" 
			},
			{
				"x": -3.3454670119,
				"y": -1.0315706658,
				"z": -0.3938439946,
				"element": "C" 
			},
			{
				"x": -2.9518321748,
				"y": 0.2391047521,
				"z": -0.8425542815,
				"element": "C" 
			},
			{
				"x": -1.6119957844,
				"y": 0.600245597,
				"z": -0.8776511438,
				"element": "C" 
			},
			{
				"x": -0.6294364674,
				"y": -0.3192410796,
				"z": -0.4782085542,
				"element": "C" 
			},
			{
				"x": -1.0073366991,
				"y": -1.5943340709,
				"z": -0.0371837213,
				"element": "C" 
			},
			{
				"x": -2.3553749334,
				"y": -1.9390490951,
				"z": 0.0104981114,
				"element": "C" 
			},
			{
				"x": 0.7368630029,
				"y": 0.0413023812,
				"z": -0.544717748,
				"element": "N" 
			},
			{
				"x": 1.3417209055,
				"y": 0.7367657927,
				"z": -1.5855073159,
				"element": "C" 
			},
			{
				"x": 2.6222346291,
				"y": 0.9224331777,
				"z": -1.432306597,
				"element": "N" 
			},
			{
				"x": 2.9220565812,
				"y": 0.3288531275,
				"z": -0.2111241337,
				"element": "C" 
			},
			{
				"x": 1.7599571416,
				"y": -0.2368103903,
				"z": 0.3661010185,
				"element": "C" 
			},
			{
				"x": 1.7787145819,
				"y": -0.8604252834,
				"z": 1.6165385163,
				"element": "C" 
			},
			{
				"x": 3.0086344426,
				"y": -0.9268889032,
				"z": 2.2673309366,
				"element": "C" 
			},
			{
				"x": 4.1772610215,
				"y": -0.3849624342,
				"z": 1.6969858107,
				"element": "C" 
			},
			{
				"x": 4.1479508176,
				"y": 0.2505214869,
				"z": 0.4601289151,
				"element": "C" 
			},
			{
				"x": -4.8244404251,
				"y": -3.5171451883,
				"z": -0.4916042807,
				"element": "H" 
			},
			{
				"x": -4.9298558068,
				"y": -2.8899830587,
				"z": 1.1555633114,
				"element": "H" 
			},
			{
				"x": -6.3419840569,
				"y": -2.770014587,
				"z": 0.0727257126,
				"element": "H" 
			},
			{
				"x": -3.725618547,
				"y": 0.9365123361,
				"z": -1.1451014268,
				"element": "H" 
			},
			{
				"x": -1.3194256095,
				"y": 1.5973624025,
				"z": -1.1903694854,
				"element": "H" 
			},
			{
				"x": -0.246536224,
				"y": -2.3146971739,
				"z": 0.2412044107,
				"element": "H" 
			},
			{
				"x": -2.6277941717,
				"y": -2.9320862682,
				"z": 0.3524916733,
				"element": "H" 
			},
			{
				"x": 0.7616586201,
				"y": 1.0471828398,
				"z": -2.4448476005,
				"element": "H" 
			},
			{
				"x": 0.8816228542,
				"y": -1.2652440198,
				"z": 2.0717085462,
				"element": "H" 
			},
			{
				"x": 3.0651172965,
				"y": -1.4057182167,
				"z": 3.2403777229,
				"element": "H" 
			},
			{
				"x": 5.114773558,
				"y": -0.460914336,
				"z": 2.2395529824,
				"element": "H" 
			},
			{
				"x": 5.0386457495,
				"y": 0.6838598489,
				"z": 0.017196114,
				"element": "H" 
			}
		],
		 "valence_orbital": [ 
			{
				"type": "occ",
				"energy": -0.27783,
				"method": "rhf"
			},
			{
				"type": "occ",
				"energy": -0.26804,
				"method": "rhf"
			},
			{
				"type": "occ",
				"energy": -0.25625,
				"method": "rhf"
			},
			{
				"type": "occ",
				"energy": -0.23332,
				"method": "rhf"
			},
			{
				"type": "occ",
				"energy": -0.22633,
				"method": "rhf"
			},
			{
				"type": "unocc",
				"energy": -0.06829,
				"method": "rhf"
			},
			{
				"type": "unocc",
				"energy": -0.02776,
				"method": "rhf"
			},
			{
				"type": "unocc",
				"energy": -0.02163,
				"method": "rhf"
			},
			{
				"type": "unocc",
				"energy": 0.00838,
				"method": "rhf"
			},
			{
				"type": "unocc",
				"energy": 0.02946,
				"method": "rhf"
			}
		],
		"cosmo_sigma_profile": { 
			"-0.025": 0.0,
			"-0.024": 0.0,
			"-0.023": 0.0,
			"-0.022": 0.0,
			"-0.021": 0.0,
			"-0.02": 0.0,
			"-0.019": 0.0,
			"-0.018": 0.0,
			"-0.017": 0.0,
			"-0.016": 0.0,
			"-0.015": 0.0,
			"-0.014": 0.0,
			"-0.013": 0.0,
			"-0.012": 0.0,
			"-0.011": 0.0,
			"-0.01": 0.926466702672,
			"-0.009": 1.95186637931,
			"-0.008": 3.87553903504,
			"-0.007": 9.41051426603,
			"-0.006": 21.2772997703,
			"-0.005": 22.7223903832,
			"-0.004": 21.5491690759,
			"-0.003": 19.2723839658,
			"-0.002": 18.2739386288,
			"-0.001": 23.4229298629,
			"0.0": 17.7141801797,
			"0.001": 17.2077398355,
			"0.002": 21.6896231734,
			"0.003": 17.3391117976,
			"0.004": 12.9976776792,
			"0.005": 12.5809085801,
			"0.006": 6.0542389486,
			"0.007": 3.44958160041,
			"0.008": 3.33085889218,
			"0.009": 2.19282822622,
			"0.01": 3.79198912311,
			"0.011": 4.00608212159,
			"0.012": 4.89260276828,
			"0.013": 2.47118451557,
			"0.014": 1.42955033557,
			"0.015": 0.822352009322,
			"0.016": 0.964251589983,
			"0.017": 0.680181210772,
			"0.018": 0.0,
			"0.019": 0.0,
			"0.02": 0.0,
			"0.021": 0.0,
			"0.022": 0.0,
			"0.023": 0.0,
			"0.024": 0.0,
			"0.025": 0.0
		}
	}
}
