{
	 "smiles": "NS(=O)(=O)C1=CC=C(C=C1)C(O)=O", 
	 "Tm": 540.15, 
	 "num_atms": 20, 
	 "gaussian": { 
		 "optdone": 1, 
		 "sigma_profile": "yes", 
		 "theory": "DFT", 
		 "functional": "B3LYP", 
		 "basiset": "6-31G**", 
		 "properties": { 
			 "R2extent": 3494.2834, 
			 "electric_dipole_moment_norm": 4.79370688612, 
			 "electric_quadrupole_moment_norm": 26.0216721159, 
			 "total_energy": -1024.73378835, 
			 "HOMO_LUMO_gap": 0.20204, 
			 "cosmo_polarized_energy": -23.74, 
			 "cosmo_cavitation_energy": 26.53, 
			 "cosmo_dispersion_energy": -20.15, 
			 "cosmo_repulsion_energy": 1.55, 
			 "cosmo_total_nonelectrostatic_energy": 7.94, 
			 "SMD_solvation_energy": 5.4 
		},
		"coords": [
			{
				"x": -2.1917532474,
				"y": -2.0546102021,
				"z": 2.0474391512,
				"element": "N" 
			},
			{
				"x": -0.9875141319,
				"y": -2.4738769268,
				"z": 0.9345600114,
				"element": "S" 
			},
			{
				"x": -1.6050472107,
				"y": -3.3521337827,
				"z": -0.0624381066,
				"element": "O" 
			},
			{
				"x": 0.1988177586,
				"y": -2.8586035468,
				"z": 1.7024256763,
				"element": "O" 
			},
			{
				"x": -0.6228656294,
				"y": -0.9117567281,
				"z": 0.1240228262,
				"element": "C" 
			},
			{
				"x": -1.2929168577,
				"y": -0.5874274246,
				"z": -1.0549638923,
				"element": "C" 
			},
			{
				"x": -1.0145378055,
				"y": 0.6290535759,
				"z": -1.6758086183,
				"element": "C" 
			},
			{
				"x": -0.0715695067,
				"y": 1.5079235232,
				"z": -1.1244622896,
				"element": "C" 
			},
			{
				"x": 0.6171795935,
				"y": 1.1441498806,
				"z": 0.0410141695,
				"element": "C" 
			},
			{
				"x": 0.3410206165,
				"y": -0.0634294783,
				"z": 0.6738850481,
				"element": "C" 
			},
			{
				"x": 0.2826920359,
				"y": 2.8261400512,
				"z": -1.7539215852,
				"element": "C" 
			},
			{
				"x": -0.6327384392,
				"y": 3.3679757069,
				"z": -2.5983748415,
				"element": "O" 
			},
			{
				"x": 1.323311703,
				"y": 3.3989078536,
				"z": -1.5369254081,
				"element": "O" 
			},
			{
				"x": -3.0419847975,
				"y": -2.5713395604,
				"z": 1.8385046796,
				"element": "H" 
			},
			{
				"x": -1.862904866,
				"y": -2.2418064075,
				"z": 2.9910845351,
				"element": "H" 
			},
			{
				"x": -1.999642851,
				"y": -1.2879251377,
				"z": -1.4853496103,
				"element": "H" 
			},
			{
				"x": -1.5087847718,
				"y": 0.8593849965,
				"z": -2.616177441,
				"element": "H" 
			},
			{
				"x": 1.3692515868,
				"y": 1.8215547248,
				"z": 0.4301735081,
				"element": "H" 
			},
			{
				"x": 0.8751346815,
				"y": -0.3595675786,
				"z": 1.5698937735,
				"element": "H" 
			},
			{
				"x": -1.470847861,
				"y": 2.8884864609,
				"z": -2.543881586,
				"element": "H" 
			}
		],
		 "valence_orbital": [ 
			{
				"type": "occ",
				"energy": -0.31891,
				"method": "rhf"
			},
			{
				"type": "occ",
				"energy": -0.31532,
				"method": "rhf"
			},
			{
				"type": "occ",
				"energy": -0.29114,
				"method": "rhf"
			},
			{
				"type": "occ",
				"energy": -0.28906,
				"method": "rhf"
			},
			{
				"type": "occ",
				"energy": -0.27931,
				"method": "rhf"
			},
			{
				"type": "unocc",
				"energy": -0.07727,
				"method": "rhf"
			},
			{
				"type": "unocc",
				"energy": -0.04128,
				"method": "rhf"
			},
			{
				"type": "unocc",
				"energy": 0.01826,
				"method": "rhf"
			},
			{
				"type": "unocc",
				"energy": 0.03857,
				"method": "rhf"
			},
			{
				"type": "unocc",
				"energy": 0.05499,
				"method": "rhf"
			}
		],
		"cosmo_sigma_profile": { 
			"-0.025": 0.0,
			"-0.024": 0.0,
			"-0.023": 0.0,
			"-0.022": 0.0,
			"-0.021": 0.0,
			"-0.02": 0.0070185314159,
			"-0.019": 0.680110616699,
			"-0.018": 1.31733437645,
			"-0.017": 0.556353636231,
			"-0.016": 1.38153563887,
			"-0.015": 2.55652609453,
			"-0.014": 3.04985159941,
			"-0.013": 3.45958557433,
			"-0.012": 4.85997635988,
			"-0.011": 3.48634873851,
			"-0.01": 1.90443322946,
			"-0.009": 4.05573275581,
			"-0.008": 6.41593039912,
			"-0.007": 9.11682163756,
			"-0.006": 8.966146947,
			"-0.005": 9.49012109944,
			"-0.004": 9.40360377255,
			"-0.003": 7.9708062163,
			"-0.002": 9.85750067879,
			"-0.001": 9.33408886937,
			"0.0": 13.9669538306,
			"0.001": 18.5511841306,
			"0.002": 6.38595151667,
			"0.003": 6.52604059694,
			"0.004": 4.7284844062,
			"0.005": 4.85328990759,
			"0.006": 5.12019117422,
			"0.007": 6.62892484468,
			"0.008": 6.53092914241,
			"0.009": 8.75183444529,
			"0.01": 13.7570862099,
			"0.011": 14.0312834794,
			"0.012": 4.16857226002,
			"0.013": 0.512547481785,
			"0.014": 0.0,
			"0.015": 0.0,
			"0.016": 0.0,
			"0.017": 0.0,
			"0.018": 0.0,
			"0.019": 0.0,
			"0.02": 0.0,
			"0.021": 0.0,
			"0.022": 0.0,
			"0.023": 0.0,
			"0.024": 0.0,
			"0.025": 0.0
		}
	}
}
