{
	 "smiles": "NC1=CC=C(C=C1)C(=O)NC1=NC=CS1", 
	 "Tm": 530.15, 
	 "num_atms": 24, 
	 "gaussian": { 
		 "optdone": 1, 
		 "sigma_profile": "yes", 
		 "theory": "DFT", 
		 "functional": "B3LYP", 
		 "basiset": "6-31G**", 
		 "properties": { 
			 "R2extent": 5066.5456, 
			 "electric_dipole_moment_norm": 4.35606396877, 
			 "electric_quadrupole_moment_norm": 16.6638641644, 
			 "total_energy": -1024.15468466, 
			 "HOMO_LUMO_gap": 0.16765, 
			 "cosmo_polarized_energy": -18.39, 
			 "cosmo_cavitation_energy": 30.57, 
			 "cosmo_dispersion_energy": -22.61, 
			 "cosmo_repulsion_energy": 1.73, 
			 "cosmo_total_nonelectrostatic_energy": 9.69, 
			 "SMD_solvation_energy": 4.68 
		},
		"coords": [
			{
				"x": -2.638858627,
				"y": 1.1640813637,
				"z": 2.1520467238,
				"element": "N" 
			},
			{
				"x": -1.4006919762,
				"y": 1.2295338861,
				"z": 1.5330854716,
				"element": "C" 
			},
			{
				"x": -0.9319501003,
				"y": 0.1571191741,
				"z": 0.7487711736,
				"element": "C" 
			},
			{
				"x": 0.3216115804,
				"y": 0.2087934253,
				"z": 0.1579805725,
				"element": "C" 
			},
			{
				"x": 1.1575728081,
				"y": 1.3222017633,
				"z": 0.3375161211,
				"element": "C" 
			},
			{
				"x": 0.6996252973,
				"y": 2.3770799463,
				"z": 1.1440080578,
				"element": "C" 
			},
			{
				"x": -0.5591995025,
				"y": 2.3435583396,
				"z": 1.7222271807,
				"element": "C" 
			},
			{
				"x": 2.5402088176,
				"y": 1.4138502582,
				"z": -0.1800827962,
				"element": "C" 
			},
			{
				"x": 3.3994167879,
				"y": 2.1111977291,
				"z": 0.3427743634,
				"element": "O" 
			},
			{
				"x": 2.9424626062,
				"y": 0.5994551645,
				"z": -1.2660766888,
				"element": "N" 
			},
			{
				"x": 2.2391579571,
				"y": 0.2715962342,
				"z": -2.4175160177,
				"element": "C" 
			},
			{
				"x": 1.1082388521,
				"y": 0.7807477564,
				"z": -2.8049649709,
				"element": "N" 
			},
			{
				"x": 0.6992665628,
				"y": 0.2107211682,
				"z": -3.9910792241,
				"element": "C" 
			},
			{
				"x": 1.5223185331,
				"y": -0.7273562761,
				"z": -4.5354202323,
				"element": "C" 
			},
			{
				"x": 2.89972296,
				"y": -0.9725581469,
				"z": -3.4961547385,
				"element": "S" 
			},
			{
				"x": -3.3103890253,
				"y": 0.5254530804,
				"z": 1.7515626122,
				"element": "H" 
			},
			{
				"x": -3.045555396,
				"y": 2.0423516976,
				"z": 2.4392118846,
				"element": "H" 
			},
			{
				"x": -1.5601032505,
				"y": -0.7194495785,
				"z": 0.6122176872,
				"element": "H" 
			},
			{
				"x": 0.657376118,
				"y": -0.6349665155,
				"z": -0.4338275095,
				"element": "H" 
			},
			{
				"x": 1.3557032194,
				"y": 3.2258800551,
				"z": 1.3046505975,
				"element": "H" 
			},
			{
				"x": -0.9004802524,
				"y": 3.1748019749,
				"z": 2.3340438855,
				"element": "H" 
			},
			{
				"x": 3.9504623442,
				"y": 0.6398529653,
				"z": -1.3669549952,
				"element": "H" 
			},
			{
				"x": -0.2292189777,
				"y": 0.5472087043,
				"z": -4.4376008657,
				"element": "H" 
			},
			{
				"x": 1.4195026637,
				"y": -1.2656541696,
				"z": -5.4662182925,
				"element": "H" 
			}
		],
		 "valence_orbital": [ 
			{
				"type": "occ",
				"energy": -0.27968,
				"method": "rhf"
			},
			{
				"type": "occ",
				"energy": -0.25903,
				"method": "rhf"
			},
			{
				"type": "occ",
				"energy": -0.25004,
				"method": "rhf"
			},
			{
				"type": "occ",
				"energy": -0.2232,
				"method": "rhf"
			},
			{
				"type": "occ",
				"energy": -0.20802,
				"method": "rhf"
			},
			{
				"type": "unocc",
				"energy": -0.04037,
				"method": "rhf"
			},
			{
				"type": "unocc",
				"energy": -0.00879,
				"method": "rhf"
			},
			{
				"type": "unocc",
				"energy": 0.00105,
				"method": "rhf"
			},
			{
				"type": "unocc",
				"energy": 0.00768,
				"method": "rhf"
			},
			{
				"type": "unocc",
				"energy": 0.04902,
				"method": "rhf"
			}
		],
		"cosmo_sigma_profile": { 
			"-0.025": 0.0,
			"-0.024": 0.0,
			"-0.023": 0.0,
			"-0.022": 0.0,
			"-0.021": 0.0,
			"-0.02": 0.0,
			"-0.019": 0.0,
			"-0.018": 0.0,
			"-0.017": 0.0,
			"-0.016": 0.175353263676,
			"-0.015": 0.73474076215,
			"-0.014": 1.16823643265,
			"-0.013": 3.2323113588,
			"-0.012": 4.39081355743,
			"-0.011": 3.66355969376,
			"-0.01": 4.28299177181,
			"-0.009": 5.63235649427,
			"-0.008": 5.93602524092,
			"-0.007": 7.71855111228,
			"-0.006": 10.3339802844,
			"-0.005": 13.0113127858,
			"-0.004": 12.7288304016,
			"-0.003": 10.8601343208,
			"-0.002": 12.9910329518,
			"-0.001": 11.7616039069,
			"0.0": 16.5796752911,
			"0.001": 17.0493718606,
			"0.002": 17.1239633472,
			"0.003": 19.8789648441,
			"0.004": 17.4064359504,
			"0.005": 13.3851302433,
			"0.006": 6.12327333227,
			"0.007": 3.69244727477,
			"0.008": 3.47380699845,
			"0.009": 4.13373732351,
			"0.01": 3.92600804327,
			"0.011": 3.75047518141,
			"0.012": 5.9003696932,
			"0.013": 5.16303868272,
			"0.014": 0.808314772415,
			"0.015": 0.0233659931685,
			"0.016": 0.0,
			"0.017": 0.0,
			"0.018": 0.0,
			"0.019": 0.0,
			"0.02": 0.0,
			"0.021": 0.0,
			"0.022": 0.0,
			"0.023": 0.0,
			"0.024": 0.0,
			"0.025": 0.0
		}
	}
}
