{
	 "smiles": "CNC(=O)CC#N", 
	 "Tm": 356.15, 
	 "num_atms": 13, 
	 "gaussian": { 
		 "optdone": 1, 
		 "sigma_profile": "yes", 
		 "theory": "DFT", 
		 "functional": "B3LYP", 
		 "basiset": "6-31G**", 
		 "properties": { 
			 "R2extent": 1124.5445, 
			 "electric_dipole_moment_norm": 1.15468338951, 
			 "electric_quadrupole_moment_norm": 15.9147004804, 
			 "total_energy": -340.763536623, 
			 "HOMO_LUMO_gap": 0.2795, 
			 "cosmo_polarized_energy": -12.89, 
			 "cosmo_cavitation_energy": 17.96, 
			 "cosmo_dispersion_energy": -12.79, 
			 "cosmo_repulsion_energy": 1.11, 
			 "cosmo_total_nonelectrostatic_energy": 6.28, 
			 "SMD_solvation_energy": 5.14 
		},
		"coords": [
			{
				"x": 1.0739197431,
				"y": 0.0630727416,
				"z": -0.6638237337,
				"element": "C" 
			},
			{
				"x": 0.1237826571,
				"y": 0.012203117,
				"z": 0.4353124633,
				"element": "N" 
			},
			{
				"x": -1.1879798852,
				"y": 0.3128409725,
				"z": 0.2687924877,
				"element": "C" 
			},
			{
				"x": -1.7039577416,
				"y": 0.6489246592,
				"z": -0.7861520456,
				"element": "O" 
			},
			{
				"x": -2.0804902961,
				"y": 0.2145019575,
				"z": 1.5313563964,
				"element": "C" 
			},
			{
				"x": -1.4092486758,
				"y": -0.1922230884,
				"z": 2.7627677311,
				"element": "C" 
			},
			{
				"x": -0.819309924,
				"y": -0.5194960268,
				"z": 3.7083624621,
				"element": "N" 
			},
			{
				"x": 1.868658143,
				"y": 0.7887677559,
				"z": -0.4615185628,
				"element": "H" 
			},
			{
				"x": 0.5288999635,
				"y": 0.3682870767,
				"z": -1.5572655887,
				"element": "H" 
			},
			{
				"x": 1.5266085968,
				"y": -0.9190248147,
				"z": -0.8361071151,
				"element": "H" 
			},
			{
				"x": 0.4510695054,
				"y": -0.2553810039,
				"z": 1.3528825999,
				"element": "H" 
			},
			{
				"x": -2.8870606715,
				"y": -0.4886535872,
				"z": 1.2997224842,
				"element": "H" 
			},
			{
				"x": -2.5476914147,
				"y": 1.1947802406,
				"z": 1.6707704212,
				"element": "H" 
			}
		],
		 "valence_orbital": [ 
			{
				"type": "occ",
				"energy": -0.37583,
				"method": "rhf"
			},
			{
				"type": "occ",
				"energy": -0.35129,
				"method": "rhf"
			},
			{
				"type": "occ",
				"energy": -0.33978,
				"method": "rhf"
			},
			{
				"type": "occ",
				"energy": -0.26877,
				"method": "rhf"
			},
			{
				"type": "occ",
				"energy": -0.26841,
				"method": "rhf"
			},
			{
				"type": "unocc",
				"energy": 0.01109,
				"method": "rhf"
			},
			{
				"type": "unocc",
				"energy": 0.01334,
				"method": "rhf"
			},
			{
				"type": "unocc",
				"energy": 0.02629,
				"method": "rhf"
			},
			{
				"type": "unocc",
				"energy": 0.07791,
				"method": "rhf"
			},
			{
				"type": "unocc",
				"energy": 0.10003,
				"method": "rhf"
			}
		],
		"cosmo_sigma_profile": { 
			"-0.025": 0.0,
			"-0.024": 0.0,
			"-0.023": 0.0,
			"-0.022": 0.0,
			"-0.021": 0.0,
			"-0.02": 0.0,
			"-0.019": 0.0,
			"-0.018": 0.0,
			"-0.017": 0.0,
			"-0.016": 0.0,
			"-0.015": 0.0,
			"-0.014": 0.141301082372,
			"-0.013": 0.647503971155,
			"-0.012": 0.807934580764,
			"-0.011": 0.893565132488,
			"-0.01": 4.65387402655,
			"-0.009": 6.22369225678,
			"-0.008": 5.29891478477,
			"-0.007": 5.8627476184,
			"-0.006": 9.19653706905,
			"-0.005": 10.9283176123,
			"-0.004": 9.79849105126,
			"-0.003": 9.21595321381,
			"-0.002": 11.8710926326,
			"-0.001": 6.18793637441,
			"0.0": 5.67462172609,
			"0.001": 5.5230218402,
			"0.002": 2.52488683395,
			"0.003": 4.6795993672,
			"0.004": 3.10323669264,
			"0.005": 3.89725558672,
			"0.006": 3.02192191491,
			"0.007": 4.35149182872,
			"0.008": 4.25632356408,
			"0.009": 3.73986846443,
			"0.01": 4.16674833324,
			"0.011": 4.13875669337,
			"0.012": 4.67206463132,
			"0.013": 6.40336278918,
			"0.014": 1.52921537028,
			"0.015": 0.0,
			"0.016": 0.0,
			"0.017": 0.0,
			"0.018": 0.0,
			"0.019": 0.0,
			"0.02": 0.0,
			"0.021": 0.0,
			"0.022": 0.0,
			"0.023": 0.0,
			"0.024": 0.0,
			"0.025": 0.0
		}
	}
}
