{
	 "smiles": "CCOC(=O)C1=C(C)OC(NC(=O)NC2=CC=C(Cl)C=C2)=C1C(=O)OCC", 
	 "Tm": 443.15, 
	 "num_atms": 46, 
	 "gaussian": { 
		 "optdone": 1, 
		 "sigma_profile": "yes", 
		 "theory": "DFT", 
		 "functional": "B3LYP", 
		 "basiset": "6-31G**", 
		 "properties": { 
			 "R2extent": 11775.2533, 
			 "electric_dipole_moment_norm": 2.44364293014, 
			 "electric_quadrupole_moment_norm": 22.9064091937, 
			 "total_energy": -1718.44303072, 
			 "HOMO_LUMO_gap": 0.17841, 
			 "cosmo_polarized_energy": -22.65, 
			 "cosmo_cavitation_energy": 53.42, 
			 "cosmo_dispersion_energy": -34.28, 
			 "cosmo_repulsion_energy": 2.71, 
			 "cosmo_total_nonelectrostatic_energy": 21.85, 
			 "SMD_solvation_energy": 12.09 
		},
		"coords": [
			{
				"x": -0.4096249348,
				"y": -4.0884438953,
				"z": 4.0294546587,
				"element": "C" 
			},
			{
				"x": 0.4986224202,
				"y": -2.9390883173,
				"z": 4.4390707818,
				"element": "C" 
			},
			{
				"x": 0.3859115021,
				"y": -1.8273539374,
				"z": 3.5149409378,
				"element": "O" 
			},
			{
				"x": 1.1547265639,
				"y": -1.9031143785,
				"z": 2.3989301104,
				"element": "C" 
			},
			{
				"x": 1.902496395,
				"y": -2.823648928,
				"z": 2.1517762011,
				"element": "O" 
			},
			{
				"x": 0.9947191713,
				"y": -0.7045907649,
				"z": 1.5406503683,
				"element": "C" 
			},
			{
				"x": 0.8820075569,
				"y": 0.5893382402,
				"z": 1.9594851207,
				"element": "C" 
			},
			{
				"x": 0.7537166374,
				"y": 1.2720644937,
				"z": 3.2720773757,
				"element": "C" 
			},
			{
				"x": 0.9473103731,
				"y": 1.4297253977,
				"z": 0.8621399153,
				"element": "O" 
			},
			{
				"x": 1.0745453113,
				"y": 0.6614924475,
				"z": -0.2410590289,
				"element": "C" 
			},
			{
				"x": 1.1514586473,
				"y": 1.2763099127,
				"z": -1.470232713,
				"element": "N" 
			},
			{
				"x": 1.0154451048,
				"y": 2.6198553661,
				"z": -1.8398420186,
				"element": "C" 
			},
			{
				"x": 1.6537325515,
				"y": 3.0600668613,
				"z": -2.7833510442,
				"element": "O" 
			},
			{
				"x": 0.1527476758,
				"y": 3.4182361288,
				"z": -1.1109591053,
				"element": "N" 
			},
			{
				"x": -1.0503220903,
				"y": 3.1016862719,
				"z": -0.4366984307,
				"element": "C" 
			},
			{
				"x": -1.5106354485,
				"y": 3.9936898296,
				"z": 0.5415598515,
				"element": "C" 
			},
			{
				"x": -2.711604007,
				"y": 3.7625363441,
				"z": 1.2075779208,
				"element": "C" 
			},
			{
				"x": -3.4508031159,
				"y": 2.6184664488,
				"z": 0.9078833783,
				"element": "C" 
			},
			{
				"x": -4.9585982799,
				"y": 2.3109781801,
				"z": 1.7557084182,
				"element": "Cl" 
			},
			{
				"x": -3.006926541,
				"y": 1.7200476363,
				"z": -0.0610726757,
				"element": "C" 
			},
			{
				"x": -1.8166052622,
				"y": 1.9687314646,
				"z": -0.7421159885,
				"element": "C" 
			},
			{
				"x": 1.1188645028,
				"y": -0.6730318682,
				"z": 0.0938892882,
				"element": "C" 
			},
			{
				"x": 1.1230884207,
				"y": -1.8081490274,
				"z": -0.8339741753,
				"element": "C" 
			},
			{
				"x": 0.7598461929,
				"y": -2.9361549672,
				"z": -0.5802827056,
				"element": "O" 
			},
			{
				"x": 1.5783625607,
				"y": -1.4252249798,
				"z": -2.0701839248,
				"element": "O" 
			},
			{
				"x": 1.5786323547,
				"y": -2.4482723838,
				"z": -3.097079836,
				"element": "C" 
			},
			{
				"x": 0.223124671,
				"y": -2.5540985712,
				"z": -3.7793125735,
				"element": "C" 
			},
			{
				"x": -0.3586167198,
				"y": -4.8858978056,
				"z": 4.7784641996,
				"element": "H" 
			},
			{
				"x": -1.4485595805,
				"y": -3.7547907386,
				"z": 3.9521221375,
				"element": "H" 
			},
			{
				"x": -0.0962231562,
				"y": -4.4985574867,
				"z": 3.066712064,
				"element": "H" 
			},
			{
				"x": 0.2052328825,
				"y": -2.5187413478,
				"z": 5.4041453976,
				"element": "H" 
			},
			{
				"x": 1.5428362434,
				"y": -3.2576991226,
				"z": 4.4822681449,
				"element": "H" 
			},
			{
				"x": 1.6117869762,
				"y": 1.9266138968,
				"z": 3.4640972919,
				"element": "H" 
			},
			{
				"x": -0.1483762763,
				"y": 1.894072249,
				"z": 3.2927907052,
				"element": "H" 
			},
			{
				"x": 0.6830786039,
				"y": 0.5291819189,
				"z": 4.0653333114,
				"element": "H" 
			},
			{
				"x": 1.6213831822,
				"y": 0.7151538578,
				"z": -2.1713329246,
				"element": "H" 
			},
			{
				"x": 0.2707203853,
				"y": 4.388001014,
				"z": -1.3740786579,
				"element": "H" 
			},
			{
				"x": -0.9186874486,
				"y": 4.8709989507,
				"z": 0.7860624633,
				"element": "H" 
			},
			{
				"x": -3.0657039311,
				"y": 4.4588931987,
				"z": 1.9595968826,
				"element": "H" 
			},
			{
				"x": -3.5949888841,
				"y": 0.8398446,
				"z": -0.2958422243,
				"element": "H" 
			},
			{
				"x": -1.4912606443,
				"y": 1.2824529096,
				"z": -1.5152604547,
				"element": "H" 
			},
			{
				"x": 2.3573664967,
				"y": -2.1315901566,
				"z": -3.7949743683,
				"element": "H" 
			},
			{
				"x": 1.8652602732,
				"y": -3.3970134433,
				"z": -2.6389075899,
				"element": "H" 
			},
			{
				"x": -0.538083736,
				"y": -2.886077623,
				"z": -3.0692044897,
				"element": "H" 
			},
			{
				"x": 0.2740249941,
				"y": -3.2846993691,
				"z": -4.5934754486,
				"element": "H" 
			},
			{
				"x": -0.0798285946,
				"y": -1.5916985066,
				"z": -4.2031965469,
				"element": "H" 
			}
		],
		 "valence_orbital": [ 
			{
				"type": "occ",
				"energy": -0.27713,
				"method": "rhf"
			},
			{
				"type": "occ",
				"energy": -0.27552,
				"method": "rhf"
			},
			{
				"type": "occ",
				"energy": -0.26537,
				"method": "rhf"
			},
			{
				"type": "occ",
				"energy": -0.23327,
				"method": "rhf"
			},
			{
				"type": "occ",
				"energy": -0.21772,
				"method": "rhf"
			},
			{
				"type": "unocc",
				"energy": -0.03931,
				"method": "rhf"
			},
			{
				"type": "unocc",
				"energy": -0.02706,
				"method": "rhf"
			},
			{
				"type": "unocc",
				"energy": -0.02407,
				"method": "rhf"
			},
			{
				"type": "unocc",
				"energy": -0.01265,
				"method": "rhf"
			},
			{
				"type": "unocc",
				"energy": 0.02294,
				"method": "rhf"
			}
		],
		"cosmo_sigma_profile": { 
			"-0.025": 0.0,
			"-0.024": 0.0,
			"-0.023": 0.0,
			"-0.022": 0.0,
			"-0.021": 0.0,
			"-0.02": 0.0,
			"-0.019": 0.0,
			"-0.018": 0.0,
			"-0.017": 0.0,
			"-0.016": 0.0556871085534,
			"-0.015": 0.864518214305,
			"-0.014": 1.05087004898,
			"-0.013": 0.948554229398,
			"-0.012": 0.901216133071,
			"-0.011": 1.16152508405,
			"-0.01": 2.18062476504,
			"-0.009": 1.73037935852,
			"-0.008": 3.73423481266,
			"-0.007": 8.72339177061,
			"-0.006": 15.606772816,
			"-0.005": 22.5768762698,
			"-0.004": 35.390546883,
			"-0.003": 44.3775172884,
			"-0.002": 43.9905467513,
			"-0.001": 43.0917797816,
			"0.0": 38.0820637486,
			"0.001": 31.5578998731,
			"0.002": 26.9271471078,
			"0.003": 22.0809469631,
			"0.004": 17.7189962652,
			"0.005": 13.7037071938,
			"0.006": 5.50815906319,
			"0.007": 4.95961712787,
			"0.008": 3.93697388906,
			"0.009": 4.10608421588,
			"0.01": 4.17253660791,
			"0.011": 7.02028961496,
			"0.012": 12.0835822775,
			"0.013": 7.62673788379,
			"0.014": 0.997629248004,
			"0.015": 0.0,
			"0.016": 0.0,
			"0.017": 0.0,
			"0.018": 0.0,
			"0.019": 0.0,
			"0.02": 0.0,
			"0.021": 0.0,
			"0.022": 0.0,
			"0.023": 0.0,
			"0.024": 0.0,
			"0.025": 0.0
		}
	}
}
