{
	 "smiles": "CCCCN1N=CC(C(O)=O)=C1C", 
	 "Tm": 351.15, 
	 "num_atms": 27, 
	 "gaussian": { 
		 "optdone": 1, 
		 "sigma_profile": "yes", 
		 "theory": "DFT", 
		 "functional": "B3LYP", 
		 "basiset": "6-31G**", 
		 "properties": { 
			 "R2extent": 2955.8471, 
			 "electric_dipole_moment_norm": 6.64921455512, 
			 "electric_quadrupole_moment_norm": 15.2289381212, 
			 "total_energy": -611.349572332, 
			 "HOMO_LUMO_gap": 0.23104, 
			 "cosmo_polarized_energy": -18.17, 
			 "cosmo_cavitation_energy": 29.57, 
			 "cosmo_dispersion_energy": -20.68, 
			 "cosmo_repulsion_energy": 1.65, 
			 "cosmo_total_nonelectrostatic_energy": 10.54, 
			 "SMD_solvation_energy": 5.42 
		},
		"coords": [
			{
				"x": 0.4975014771,
				"y": 1.4596324138,
				"z": 2.1673886078,
				"element": "C" 
			},
			{
				"x": -0.9209778723,
				"y": 1.230469902,
				"z": 2.7036361679,
				"element": "C" 
			},
			{
				"x": -1.9505235714,
				"y": 0.7331682406,
				"z": 1.6731672004,
				"element": "C" 
			},
			{
				"x": -1.856600962,
				"y": -0.7460865085,
				"z": 1.2626416063,
				"element": "C" 
			},
			{
				"x": -0.6908733435,
				"y": -1.1130603725,
				"z": 0.460569845,
				"element": "N" 
			},
			{
				"x": 0.3235643027,
				"y": -1.8001912034,
				"z": 1.0558232886,
				"element": "N" 
			},
			{
				"x": 1.2045234065,
				"y": -2.0110774727,
				"z": 0.0902800642,
				"element": "C" 
			},
			{
				"x": 0.7833499164,
				"y": -1.4505350972,
				"z": -1.1402354174,
				"element": "C" 
			},
			{
				"x": 1.5452148936,
				"y": -1.5605544778,
				"z": -2.3981590291,
				"element": "C" 
			},
			{
				"x": 1.2457876277,
				"y": -0.6591246367,
				"z": -3.3854546622,
				"element": "O" 
			},
			{
				"x": 2.4022361401,
				"y": -2.3912033839,
				"z": -2.5895132509,
				"element": "O" 
			},
			{
				"x": -0.465474954,
				"y": -0.8828946613,
				"z": -0.861777215,
				"element": "C" 
			},
			{
				"x": -1.4625733521,
				"y": -0.2025065951,
				"z": -1.7507592394,
				"element": "C" 
			},
			{
				"x": 0.9718865932,
				"y": 0.5253243421,
				"z": 1.859486984,
				"element": "H" 
			},
			{
				"x": 0.4881903603,
				"y": 2.1402688999,
				"z": 1.3075161059,
				"element": "H" 
			},
			{
				"x": 1.1287939455,
				"y": 1.9144291226,
				"z": 2.9377480466,
				"element": "H" 
			},
			{
				"x": -1.2987521153,
				"y": 2.174532212,
				"z": 3.1161687749,
				"element": "H" 
			},
			{
				"x": -0.8876793383,
				"y": 0.5256731007,
				"z": 3.5449739919,
				"element": "H" 
			},
			{
				"x": -1.9176453848,
				"y": 1.3683754804,
				"z": 0.7780654176,
				"element": "H" 
			},
			{
				"x": -2.9566166685,
				"y": 0.8603741613,
				"z": 2.0936868429,
				"element": "H" 
			},
			{
				"x": -1.8071825648,
				"y": -1.3858340644,
				"z": 2.1464228846,
				"element": "H" 
			},
			{
				"x": -2.755164846,
				"y": -1.0269337112,
				"z": 0.7019057186,
				"element": "H" 
			},
			{
				"x": 2.1210155101,
				"y": -2.5511224727,
				"z": 0.2821760093,
				"element": "H" 
			},
			{
				"x": 0.7200330108,
				"y": 0.0647515528,
				"z": -3.0201788502,
				"element": "H" 
			},
			{
				"x": -1.4068588824,
				"y": 0.8912598362,
				"z": -1.6817621569,
				"element": "H" 
			},
			{
				"x": -2.4872475144,
				"y": -0.4875795118,
				"z": -1.4942952745,
				"element": "H" 
			},
			{
				"x": -1.2986258141,
				"y": -0.4891550952,
				"z": -2.7921224611,
				"element": "H" 
			}
		],
		 "valence_orbital": [ 
			{
				"type": "occ",
				"energy": -0.31055,
				"method": "rhf"
			},
			{
				"type": "occ",
				"energy": -0.29751,
				"method": "rhf"
			},
			{
				"type": "occ",
				"energy": -0.27013,
				"method": "rhf"
			},
			{
				"type": "occ",
				"energy": -0.26092,
				"method": "rhf"
			},
			{
				"type": "occ",
				"energy": -0.25288,
				"method": "rhf"
			},
			{
				"type": "unocc",
				"energy": -0.02184,
				"method": "rhf"
			},
			{
				"type": "unocc",
				"energy": 0.01209,
				"method": "rhf"
			},
			{
				"type": "unocc",
				"energy": 0.04553,
				"method": "rhf"
			},
			{
				"type": "unocc",
				"energy": 0.08354,
				"method": "rhf"
			},
			{
				"type": "unocc",
				"energy": 0.09131,
				"method": "rhf"
			}
		],
		"cosmo_sigma_profile": { 
			"-0.025": 0.0,
			"-0.024": 0.0,
			"-0.023": 0.0,
			"-0.022": 0.0,
			"-0.021": 0.0,
			"-0.02": 0.0,
			"-0.019": 0.0,
			"-0.018": 0.0,
			"-0.017": 0.582513051458,
			"-0.016": 0.868892087701,
			"-0.015": 0.814363565845,
			"-0.014": 0.999881052244,
			"-0.013": 1.20015362427,
			"-0.012": 0.791141604625,
			"-0.011": 1.03883860306,
			"-0.01": 1.00845136043,
			"-0.009": 1.0550367198,
			"-0.008": 3.15898524836,
			"-0.007": 6.61247916743,
			"-0.006": 10.1679923037,
			"-0.005": 13.596166818,
			"-0.004": 17.8378722659,
			"-0.003": 20.8553698294,
			"-0.002": 23.5518592953,
			"-0.001": 20.1202201659,
			"0.0": 18.7148346246,
			"0.001": 18.9281499794,
			"0.002": 14.5046099133,
			"0.003": 6.84363902001,
			"0.004": 5.51488248115,
			"0.005": 4.36606450438,
			"0.006": 3.56511619482,
			"0.007": 4.21150727053,
			"0.008": 3.75674534084,
			"0.009": 3.38414211511,
			"0.01": 5.49669910725,
			"0.011": 5.95272532965,
			"0.012": 6.90611980229,
			"0.013": 4.30755594221,
			"0.014": 1.03250100935,
			"0.015": 0.610785701731,
			"0.016": 0.0,
			"0.017": 0.0,
			"0.018": 0.0,
			"0.019": 0.0,
			"0.02": 0.0,
			"0.021": 0.0,
			"0.022": 0.0,
			"0.023": 0.0,
			"0.024": 0.0,
			"0.025": 0.0
		}
	}
}
