{
	 "smiles": "CC1=CN(N=C1)C1=C(F)C=C(N)C=C1", 
	 "Tm": 331.15, 
	 "num_atms": 24, 
	 "gaussian": { 
		 "optdone": 1, 
		 "sigma_profile": "yes", 
		 "theory": "DFT", 
		 "functional": "B3LYP", 
		 "basiset": "6-31G**", 
		 "properties": { 
			 "R2extent": 3749.2433, 
			 "electric_dipole_moment_norm": 3.70596795048, 
			 "electric_quadrupole_moment_norm": 20.9454540605, 
			 "total_energy": -651.158309285, 
			 "HOMO_LUMO_gap": 0.19534, 
			 "cosmo_polarized_energy": -14.42, 
			 "cosmo_cavitation_energy": 28.92, 
			 "cosmo_dispersion_energy": -20.92, 
			 "cosmo_repulsion_energy": 1.64, 
			 "cosmo_total_nonelectrostatic_energy": 9.63, 
			 "SMD_solvation_energy": 5.22 
		},
		"coords": [
			{
				"x": 0.6989607081,
				"y": 2.5408890241,
				"z": 3.0407485352,
				"element": "C" 
			},
			{
				"x": -0.0906987468,
				"y": 1.9041499818,
				"z": 1.9355465511,
				"element": "C" 
			},
			{
				"x": 0.3698427745,
				"y": 1.0884120028,
				"z": 0.9212047775,
				"element": "C" 
			},
			{
				"x": -0.7063136523,
				"y": 0.7551360926,
				"z": 0.1434942574,
				"element": "N" 
			},
			{
				"x": -1.855841845,
				"y": 1.3123079377,
				"z": 0.6034338875,
				"element": "N" 
			},
			{
				"x": -1.4827168834,
				"y": 2.0033171049,
				"z": 1.6760630215,
				"element": "C" 
			},
			{
				"x": -0.708715206,
				"y": -0.0987793394,
				"z": -0.9871339661,
				"element": "C" 
			},
			{
				"x": -1.2890650059,
				"y": 0.2988161548,
				"z": -2.1974997881,
				"element": "C" 
			},
			{
				"x": -1.8447315647,
				"y": 1.5156942814,
				"z": -2.2992692114,
				"element": "F" 
			},
			{
				"x": -1.2989814535,
				"y": -0.5242566361,
				"z": -3.3127973289,
				"element": "C" 
			},
			{
				"x": -0.6964313559,
				"y": -1.7924985457,
				"z": -3.2561999255,
				"element": "C" 
			},
			{
				"x": -0.6467269413,
				"y": -2.601527479,
				"z": -4.3875561049,
				"element": "N" 
			},
			{
				"x": -0.0975924257,
				"y": -2.19916746,
				"z": -2.0501101179,
				"element": "C" 
			},
			{
				"x": -0.1185239552,
				"y": -1.3654173011,
				"z": -0.9375668575,
				"element": "C" 
			},
			{
				"x": 1.7591814698,
				"y": 2.2811169407,
				"z": 2.9695335599,
				"element": "H" 
			},
			{
				"x": 0.6251973972,
				"y": 3.6341552523,
				"z": 3.0130577013,
				"element": "H" 
			},
			{
				"x": 0.3465694795,
				"y": 2.2190734259,
				"z": 4.027697969,
				"element": "H" 
			},
			{
				"x": 1.364500218,
				"y": 0.7433878934,
				"z": 0.6785361536,
				"element": "H" 
			},
			{
				"x": -2.2266667135,
				"y": 2.5554376893,
				"z": 2.2370078691,
				"element": "H" 
			},
			{
				"x": -1.761891842,
				"y": -0.1584111164,
				"z": -4.2236150883,
				"element": "H" 
			},
			{
				"x": -1.3581633966,
				"y": -2.4264542222,
				"z": -5.0830453792,
				"element": "H" 
			},
			{
				"x": -0.5170611904,
				"y": -3.5878265001,
				"z": -4.2115537886,
				"element": "H" 
			},
			{
				"x": 0.3716888412,
				"y": -3.1765678912,
				"z": -1.9842638986,
				"element": "H" 
			},
			{
				"x": 0.3177812899,
				"y": -1.6989872905,
				"z": -0.001312828,
				"element": "H" 
			}
		],
		 "valence_orbital": [ 
			{
				"type": "occ",
				"energy": -0.27257,
				"method": "rhf"
			},
			{
				"type": "occ",
				"energy": -0.25033,
				"method": "rhf"
			},
			{
				"type": "occ",
				"energy": -0.24858,
				"method": "rhf"
			},
			{
				"type": "occ",
				"energy": -0.23064,
				"method": "rhf"
			},
			{
				"type": "occ",
				"energy": -0.20306,
				"method": "rhf"
			},
			{
				"type": "unocc",
				"energy": -0.00772,
				"method": "rhf"
			},
			{
				"type": "unocc",
				"energy": 0.00116,
				"method": "rhf"
			},
			{
				"type": "unocc",
				"energy": 0.0385,
				"method": "rhf"
			},
			{
				"type": "unocc",
				"energy": 0.07202,
				"method": "rhf"
			},
			{
				"type": "unocc",
				"energy": 0.07545,
				"method": "rhf"
			}
		],
		"cosmo_sigma_profile": { 
			"-0.025": 0.0,
			"-0.024": 0.0,
			"-0.023": 0.0,
			"-0.022": 0.0,
			"-0.021": 0.0,
			"-0.02": 0.0,
			"-0.019": 0.0,
			"-0.018": 0.0,
			"-0.017": 0.0,
			"-0.016": 0.0,
			"-0.015": 0.0,
			"-0.014": 0.0,
			"-0.013": 1.68860610608,
			"-0.012": 3.01156035782,
			"-0.011": 2.77847075714,
			"-0.01": 3.34863110092,
			"-0.009": 3.84843189866,
			"-0.008": 5.12902998582,
			"-0.007": 7.39842897497,
			"-0.006": 9.90253868719,
			"-0.005": 10.9719501559,
			"-0.004": 13.9485552119,
			"-0.003": 12.6061794105,
			"-0.002": 15.7772108669,
			"-0.001": 13.8720160774,
			"0.0": 17.4297272218,
			"0.001": 15.3653428896,
			"0.002": 14.2687702844,
			"0.003": 16.2194840787,
			"0.004": 22.4704382158,
			"0.005": 14.7942343779,
			"0.006": 4.69547253886,
			"0.007": 3.78656436613,
			"0.008": 3.1202342079,
			"0.009": 3.09189806286,
			"0.01": 2.36381705508,
			"0.011": 2.44872364752,
			"0.012": 1.47795069051,
			"0.013": 2.16813959193,
			"0.014": 1.47739315781,
			"0.015": 0.799805803726,
			"0.016": 0.455973138273,
			"0.017": 0.0,
			"0.018": 0.0,
			"0.019": 0.0,
			"0.02": 0.0,
			"0.021": 0.0,
			"0.022": 0.0,
			"0.023": 0.0,
			"0.024": 0.0,
			"0.025": 0.0
		}
	}
}
