{
	 "smiles": "NCC(O)COC1=CC=CC=C1", 
	 "Tm": 419.15, 
	 "num_atms": 25, 
	 "gaussian": { 
		 "optdone": 1, 
		 "sigma_profile": "yes", 
		 "theory": "DFT", 
		 "functional": "B3LYP", 
		 "basiset": "6-31G**", 
		 "properties": { 
			 "R2extent": 3117.9287, 
			 "electric_dipole_moment_norm": 2.59696075442, 
			 "electric_quadrupole_moment_norm": 12.555396973, 
			 "total_energy": -555.974474715, 
			 "HOMO_LUMO_gap": 0.2186, 
			 "cosmo_polarized_energy": -10.61, 
			 "cosmo_cavitation_energy": 27.88, 
			 "cosmo_dispersion_energy": -20.45, 
			 "cosmo_repulsion_energy": 1.67, 
			 "cosmo_total_nonelectrostatic_energy": 9.09, 
			 "SMD_solvation_energy": 4.17 
		},
		"coords": [
			{
				"x": -2.2578410742,
				"y": -1.6202382422,
				"z": -1.5501553791,
				"element": "N" 
			},
			{
				"x": -2.1543608932,
				"y": -1.8563047772,
				"z": -0.0989306931,
				"element": "C" 
			},
			{
				"x": -2.5384617745,
				"y": -0.5624986101,
				"z": 0.6399200415,
				"element": "C" 
			},
			{
				"x": -3.7521831899,
				"y": -0.0570675165,
				"z": 0.1181406562,
				"element": "O" 
			},
			{
				"x": -1.4683959324,
				"y": 0.5307028221,
				"z": 0.5337750873,
				"element": "C" 
			},
			{
				"x": -0.2644504157,
				"y": 0.0390936002,
				"z": 1.1167194274,
				"element": "O" 
			},
			{
				"x": 0.8349640417,
				"y": 0.8507541246,
				"z": 1.1484509975,
				"element": "C" 
			},
			{
				"x": 0.8704922971,
				"y": 2.1560625334,
				"z": 0.6435039069,
				"element": "C" 
			},
			{
				"x": 2.0560890277,
				"y": 2.8935368201,
				"z": 0.7286115675,
				"element": "C" 
			},
			{
				"x": 3.1998589023,
				"y": 2.3485831458,
				"z": 1.3076824217,
				"element": "C" 
			},
			{
				"x": 3.1543714268,
				"y": 1.0434848917,
				"z": 1.81060411,
				"element": "C" 
			},
			{
				"x": 1.9837187269,
				"y": 0.2971291355,
				"z": 1.7337575935,
				"element": "C" 
			},
			{
				"x": -1.384386335,
				"y": -1.2585757431,
				"z": -1.9224319859,
				"element": "H" 
			},
			{
				"x": -2.4507245025,
				"y": -2.4845715969,
				"z": -2.0451048825,
				"element": "H" 
			},
			{
				"x": -1.1661843768,
				"y": -2.2011268007,
				"z": 0.2314304493,
				"element": "H" 
			},
			{
				"x": -2.8879065098,
				"y": -2.623384721,
				"z": 0.167989989,
				"element": "H" 
			},
			{
				"x": -2.6901980469,
				"y": -0.7909906099,
				"z": 1.70179199,
				"element": "H" 
			},
			{
				"x": -3.7029992977,
				"y": -0.282824399,
				"z": -0.830264032,
				"element": "H" 
			},
			{
				"x": -1.3078151472,
				"y": 0.7998086623,
				"z": -0.5209186403,
				"element": "H" 
			},
			{
				"x": -1.8219771511,
				"y": 1.4270713628,
				"z": 1.0583453414,
				"element": "H" 
			},
			{
				"x": -0.0072731473,
				"y": 2.6021874787,
				"z": 0.1913006821,
				"element": "H" 
			},
			{
				"x": 2.0752018467,
				"y": 3.9061914879,
				"z": 0.3351854326,
				"element": "H" 
			},
			{
				"x": 4.114820153,
				"y": 2.929524401,
				"z": 1.3692289706,
				"element": "H" 
			},
			{
				"x": 4.0372957882,
				"y": 0.6042713574,
				"z": 2.2666686743,
				"element": "H" 
			},
			{
				"x": 1.9304455837,
				"y": -0.7157188071,
				"z": 2.1200982738,
				"element": "H" 
			}
		],
		 "valence_orbital": [ 
			{
				"type": "occ",
				"energy": -0.31055,
				"method": "rhf"
			},
			{
				"type": "occ",
				"energy": -0.2695,
				"method": "rhf"
			},
			{
				"type": "occ",
				"energy": -0.25157,
				"method": "rhf"
			},
			{
				"type": "occ",
				"energy": -0.24774,
				"method": "rhf"
			},
			{
				"type": "occ",
				"energy": -0.21696,
				"method": "rhf"
			},
			{
				"type": "unocc",
				"energy": 0.00164,
				"method": "rhf"
			},
			{
				"type": "unocc",
				"energy": 0.01579,
				"method": "rhf"
			},
			{
				"type": "unocc",
				"energy": 0.06295,
				"method": "rhf"
			},
			{
				"type": "unocc",
				"energy": 0.09352,
				"method": "rhf"
			},
			{
				"type": "unocc",
				"energy": 0.10957,
				"method": "rhf"
			}
		],
		"cosmo_sigma_profile": { 
			"-0.025": 0.0,
			"-0.024": 0.0,
			"-0.023": 0.0,
			"-0.022": 0.0,
			"-0.021": 0.0,
			"-0.02": 0.0,
			"-0.019": 0.0,
			"-0.018": 0.0,
			"-0.017": 0.0,
			"-0.016": 0.0,
			"-0.015": 0.0,
			"-0.014": 0.0,
			"-0.013": 0.0,
			"-0.012": 0.0,
			"-0.011": 0.810506472729,
			"-0.01": 3.02737976473,
			"-0.009": 2.30000883503,
			"-0.008": 3.54505892692,
			"-0.007": 3.86270634346,
			"-0.006": 8.10098249081,
			"-0.005": 17.8352643664,
			"-0.004": 22.0117710387,
			"-0.003": 21.3362303189,
			"-0.002": 18.4008448423,
			"-0.001": 15.838791628,
			"0.0": 11.079658835,
			"0.001": 9.76970669958,
			"0.002": 11.1416583379,
			"0.003": 10.8153029423,
			"0.004": 13.697895659,
			"0.005": 13.721182657,
			"0.006": 12.7658816514,
			"0.007": 3.51859539501,
			"0.008": 3.1585883112,
			"0.009": 2.81327608484,
			"0.01": 1.06760212191,
			"0.011": 1.34179527798,
			"0.012": 1.86902700223,
			"0.013": 1.19427438424,
			"0.014": 1.75470020559,
			"0.015": 1.97078154276,
			"0.016": 0.00837946904894,
			"0.017": 0.0,
			"0.018": 0.0,
			"0.019": 0.0,
			"0.02": 0.0,
			"0.021": 0.0,
			"0.022": 0.0,
			"0.023": 0.0,
			"0.024": 0.0,
			"0.025": 0.0
		}
	}
}
