{
	 "smiles": "NC1CCCC(C1)C(N)=O", 
	 "Tm": 406.15, 
	 "num_atms": 24, 
	 "gaussian": { 
		 "optdone": 1, 
		 "sigma_profile": "yes", 
		 "theory": "DFT", 
		 "functional": "B3LYP", 
		 "basiset": "6-31G**", 
		 "properties": { 
			 "R2extent": 1778.8525, 
			 "electric_dipole_moment_norm": 2.73837999372, 
			 "electric_quadrupole_moment_norm": 12.60838727, 
			 "total_energy": -459.937977439, 
			 "HOMO_LUMO_gap": 0.24062, 
			 "cosmo_polarized_energy": -13.41, 
			 "cosmo_cavitation_energy": 24.02, 
			 "cosmo_dispersion_energy": -18.12, 
			 "cosmo_repulsion_energy": 1.48, 
			 "cosmo_total_nonelectrostatic_energy": 7.38, 
			 "SMD_solvation_energy": 2.74 
		},
		"coords": [
			{
				"x": -0.4067507595,
				"y": 0.9242518155,
				"z": 1.0886414721,
				"element": "N" 
			},
			{
				"x": 0.7654151177,
				"y": 0.6879486802,
				"z": 0.2356903294,
				"element": "C" 
			},
			{
				"x": 1.1517189369,
				"y": -0.7960924,
				"z": 0.0289110016,
				"element": "C" 
			},
			{
				"x": 0.1474142591,
				"y": -1.5426278745,
				"z": -0.8599935404,
				"element": "C" 
			},
			{
				"x": -0.0166686887,
				"y": -0.8505371488,
				"z": -2.2224099097,
				"element": "C" 
			},
			{
				"x": -0.372014948,
				"y": 0.6493478617,
				"z": -2.1150463701,
				"element": "C" 
			},
			{
				"x": 0.5848946927,
				"y": 1.3798758463,
				"z": -1.1307934654,
				"element": "C" 
			},
			{
				"x": -1.8465768248,
				"y": 0.8712774406,
				"z": -1.7585026145,
				"element": "C" 
			},
			{
				"x": -2.4148569179,
				"y": 1.9750953982,
				"z": -2.32950595,
				"element": "N" 
			},
			{
				"x": -2.4982142429,
				"y": 0.1272809472,
				"z": -1.0295741463,
				"element": "O" 
			},
			{
				"x": -0.2399555952,
				"y": 0.5265164784,
				"z": 2.0102058709,
				"element": "H" 
			},
			{
				"x": -1.2266767069,
				"y": 0.4546598327,
				"z": 0.7089230675,
				"element": "H" 
			},
			{
				"x": 1.6089071132,
				"y": 1.1876316161,
				"z": 0.7314810965,
				"element": "H" 
			},
			{
				"x": 2.1502883754,
				"y": -0.8425477151,
				"z": -0.4312909359,
				"element": "H" 
			},
			{
				"x": 1.2378412298,
				"y": -1.287904119,
				"z": 1.0064548542,
				"element": "H" 
			},
			{
				"x": -0.8275771774,
				"y": -1.5917703573,
				"z": -0.3671812039,
				"element": "H" 
			},
			{
				"x": 0.4799297443,
				"y": -2.576115106,
				"z": -1.0148054453,
				"element": "H" 
			},
			{
				"x": 0.9295855785,
				"y": -0.9243116441,
				"z": -2.776300396,
				"element": "H" 
			},
			{
				"x": -0.7735975976,
				"y": -1.3682448236,
				"z": -2.821709752,
				"element": "H" 
			},
			{
				"x": -0.219766608,
				"y": 1.1033823613,
				"z": -3.1037779656,
				"element": "H" 
			},
			{
				"x": 0.2504396654,
				"y": 2.4099239718,
				"z": -0.9655599052,
				"element": "H" 
			},
			{
				"x": 1.5669223244,
				"y": 1.43117942,
				"z": -1.6181268179,
				"element": "H" 
			},
			{
				"x": -1.8704221042,
				"y": 2.6530235309,
				"z": -2.837798184,
				"element": "H" 
			},
			{
				"x": -3.3421788663,
				"y": 2.2325559873,
				"z": -2.0251310898,
				"element": "H" 
			}
		],
		 "valence_orbital": [ 
			{
				"type": "occ",
				"energy": -0.30232,
				"method": "rhf"
			},
			{
				"type": "occ",
				"energy": -0.29406,
				"method": "rhf"
			},
			{
				"type": "occ",
				"energy": -0.26954,
				"method": "rhf"
			},
			{
				"type": "occ",
				"energy": -0.24511,
				"method": "rhf"
			},
			{
				"type": "occ",
				"energy": -0.21678,
				"method": "rhf"
			},
			{
				"type": "unocc",
				"energy": 0.02384,
				"method": "rhf"
			},
			{
				"type": "unocc",
				"energy": 0.06347,
				"method": "rhf"
			},
			{
				"type": "unocc",
				"energy": 0.08645,
				"method": "rhf"
			},
			{
				"type": "unocc",
				"energy": 0.11365,
				"method": "rhf"
			},
			{
				"type": "unocc",
				"energy": 0.1331,
				"method": "rhf"
			}
		],
		"cosmo_sigma_profile": { 
			"-0.025": 0.0,
			"-0.024": 0.0,
			"-0.023": 0.0,
			"-0.022": 0.0,
			"-0.021": 0.0,
			"-0.02": 0.0,
			"-0.019": 0.0,
			"-0.018": 0.0,
			"-0.017": 0.0,
			"-0.016": 0.0,
			"-0.015": 0.0,
			"-0.014": 1.33313635853,
			"-0.013": 2.45790434357,
			"-0.012": 2.42234136839,
			"-0.011": 1.85093924832,
			"-0.01": 3.10615385373,
			"-0.009": 2.81756976842,
			"-0.008": 3.87503409856,
			"-0.007": 2.87464036516,
			"-0.006": 3.36588693587,
			"-0.005": 4.52873156025,
			"-0.004": 5.71080116108,
			"-0.003": 13.8431787134,
			"-0.002": 27.7831003243,
			"-0.001": 21.9265804612,
			"0.0": 22.0183717,
			"0.001": 16.2239872021,
			"0.002": 7.85870284362,
			"0.003": 4.43802468613,
			"0.004": 4.1663717451,
			"0.005": 3.55238177593,
			"0.006": 3.69744183486,
			"0.007": 3.33041297901,
			"0.008": 1.92406425463,
			"0.009": 1.74050474851,
			"0.01": 2.44194545062,
			"0.011": 2.38153627175,
			"0.012": 2.43333181219,
			"0.013": 2.88502842768,
			"0.014": 3.55186781038,
			"0.015": 1.09695417419,
			"0.016": 0.50746484911,
			"0.017": 0.796963403711,
			"0.018": 0.762302144162,
			"0.019": 0.319816414394,
			"0.02": 0.415056421925,
			"0.021": 0.0577273092278,
			"0.022": 0.0,
			"0.023": 0.0,
			"0.024": 0.0,
			"0.025": 0.0
		}
	}
}
