{
	 "smiles": "OC1=C(C=C(F)C=C1)C(=O)CCCCl", 
	 "Tm": 340.15, 
	 "num_atms": 24, 
	 "gaussian": { 
		 "optdone": 1, 
		 "sigma_profile": "yes", 
		 "theory": "DFT", 
		 "functional": "B3LYP", 
		 "basiset": "6-31G**", 
		 "properties": { 
			 "R2extent": 5246.7745, 
			 "electric_dipole_moment_norm": 6.2453765603, 
			 "electric_quadrupole_moment_norm": 20.0348970319, 
			 "total_energy": -1097.56607288, 
			 "HOMO_LUMO_gap": 0.1743, 
			 "cosmo_polarized_energy": -15.49, 
			 "cosmo_cavitation_energy": 30.2, 
			 "cosmo_dispersion_energy": -21.69, 
			 "cosmo_repulsion_energy": 1.7, 
			 "cosmo_total_nonelectrostatic_energy": 10.21, 
			 "SMD_solvation_energy": 5.96 
		},
		"coords": [
			{
				"x": -1.8441918287,
				"y": -1.2155722911,
				"z": -1.5902549163,
				"element": "O" 
			},
			{
				"x": -1.2346178515,
				"y": -0.0611224335,
				"z": -1.1776415908,
				"element": "C" 
			},
			{
				"x": -0.0469577545,
				"y": -0.129529935,
				"z": -0.4172838615,
				"element": "C" 
			},
			{
				"x": 0.52684454,
				"y": 1.0769684718,
				"z": 0.0215242526,
				"element": "C" 
			},
			{
				"x": -0.0461473335,
				"y": 2.2922635247,
				"z": -0.3000260878,
				"element": "C" 
			},
			{
				"x": 0.5303253167,
				"y": 3.4360201755,
				"z": 0.1260003963,
				"element": "F" 
			},
			{
				"x": -1.210794416,
				"y": 2.3661233506,
				"z": -1.0586543769,
				"element": "C" 
			},
			{
				"x": -1.7999599214,
				"y": 1.1827282565,
				"z": -1.489962583,
				"element": "C" 
			},
			{
				"x": 0.6919896538,
				"y": -1.3824803976,
				"z": -0.0155552101,
				"element": "C" 
			},
			{
				"x": 1.6094722636,
				"y": -1.2952797775,
				"z": 0.7884081587,
				"element": "O" 
			},
			{
				"x": 0.3339159864,
				"y": -2.7471749601,
				"z": -0.5854846121,
				"element": "C" 
			},
			{
				"x": -0.6913017944,
				"y": -3.4666909039,
				"z": 0.3117789636,
				"element": "C" 
			},
			{
				"x": -1.1264420643,
				"y": -4.8262183572,
				"z": -0.217633931,
				"element": "C" 
			},
			{
				"x": 0.2384995785,
				"y": -6.0311443673,
				"z": -0.2886957427,
				"element": "Cl" 
			},
			{
				"x": -2.6319150695,
				"y": -0.9883909051,
				"z": -2.1013448173,
				"element": "H" 
			},
			{
				"x": 1.4316245287,
				"y": 1.0279615482,
				"z": 0.6161440981,
				"element": "H" 
			},
			{
				"x": -1.6415332267,
				"y": 3.3318981651,
				"z": -1.299357466,
				"element": "H" 
			},
			{
				"x": -2.7162009036,
				"y": 1.2207515478,
				"z": -2.0754101709,
				"element": "H" 
			},
			{
				"x": 1.2618417781,
				"y": -3.3240358336,
				"z": -0.6022135787,
				"element": "H" 
			},
			{
				"x": -0.0580640766,
				"y": -2.6650746126,
				"z": -1.6013986987,
				"element": "H" 
			},
			{
				"x": -1.6025731678,
				"y": -2.8604927733,
				"z": 0.38989858,
				"element": "H" 
			},
			{
				"x": -0.2801381737,
				"y": -3.5748458577,
				"z": 1.3209129166,
				"element": "H" 
			},
			{
				"x": -1.8842510057,
				"y": -5.2755472951,
				"z": 0.4261085729,
				"element": "H" 
			},
			{
				"x": -1.5179250579,
				"y": -4.7555143396,
				"z": -1.2344582951,
				"element": "H" 
			}
		],
		 "valence_orbital": [ 
			{
				"type": "occ",
				"energy": -0.29342,
				"method": "rhf"
			},
			{
				"type": "occ",
				"energy": -0.29125,
				"method": "rhf"
			},
			{
				"type": "occ",
				"energy": -0.27367,
				"method": "rhf"
			},
			{
				"type": "occ",
				"energy": -0.25106,
				"method": "rhf"
			},
			{
				"type": "occ",
				"energy": -0.23817,
				"method": "rhf"
			},
			{
				"type": "unocc",
				"energy": -0.06387,
				"method": "rhf"
			},
			{
				"type": "unocc",
				"energy": -0.00641,
				"method": "rhf"
			},
			{
				"type": "unocc",
				"energy": 0.02766,
				"method": "rhf"
			},
			{
				"type": "unocc",
				"energy": 0.03162,
				"method": "rhf"
			},
			{
				"type": "unocc",
				"energy": 0.04375,
				"method": "rhf"
			}
		],
		"cosmo_sigma_profile": { 
			"-0.025": 0.0,
			"-0.024": 0.0,
			"-0.023": 0.0,
			"-0.022": 0.0,
			"-0.021": 0.0,
			"-0.02": 0.0,
			"-0.019": 0.350791669747,
			"-0.018": 1.01387289925,
			"-0.017": 1.0684593646,
			"-0.016": 1.23450977947,
			"-0.015": 1.17779700789,
			"-0.014": 0.95773814013,
			"-0.013": 1.00678394922,
			"-0.012": 0.553944244319,
			"-0.011": 1.28643635225,
			"-0.01": 1.7860922687,
			"-0.009": 0.76725041311,
			"-0.008": 3.30935045061,
			"-0.007": 6.59561775151,
			"-0.006": 9.51457864311,
			"-0.005": 10.8027454923,
			"-0.004": 15.6101424581,
			"-0.003": 16.83700283,
			"-0.002": 14.5532344739,
			"-0.001": 14.4943682316,
			"0.0": 17.8909349539,
			"0.001": 22.5757688153,
			"0.002": 23.5757250486,
			"0.003": 16.8369787704,
			"0.004": 17.1626761729,
			"0.005": 12.0475608773,
			"0.006": 8.44958877484,
			"0.007": 7.59017602997,
			"0.008": 1.7320111985,
			"0.009": 1.3365355565,
			"0.01": 2.33554787358,
			"0.011": 2.34749867422,
			"0.012": 3.68597532625,
			"0.013": 1.3975609021,
			"0.014": 0.174365175976,
			"0.015": 0.0,
			"0.016": 0.0,
			"0.017": 0.0,
			"0.018": 0.0,
			"0.019": 0.0,
			"0.02": 0.0,
			"0.021": 0.0,
			"0.022": 0.0,
			"0.023": 0.0,
			"0.024": 0.0,
			"0.025": 0.0
		}
	}
}
