{
	 "smiles": "O=CC1=CNN=C1C1=CC2=C(OCCO2)C=C1", 
	 "Tm": 484.15, 
	 "num_atms": 27, 
	 "gaussian": { 
		 "optdone": 1, 
		 "sigma_profile": "yes", 
		 "theory": "DFT", 
		 "functional": "B3LYP", 
		 "basiset": "6-31G**", 
		 "properties": { 
			 "R2extent": 5103.1227, 
			 "electric_dipole_moment_norm": 3.86770855417, 
			 "electric_quadrupole_moment_norm": 33.5765849869, 
			 "total_energy": -798.43141695, 
			 "HOMO_LUMO_gap": 0.15381, 
			 "cosmo_polarized_energy": -19.28, 
			 "cosmo_cavitation_energy": 31.03, 
			 "cosmo_dispersion_energy": -23.62, 
			 "cosmo_repulsion_energy": 1.8, 
			 "cosmo_total_nonelectrostatic_energy": 9.21, 
			 "SMD_solvation_energy": 5.95 
		},
		"coords": [
			{
				"x": 3.0679650774,
				"y": 2.0111152521,
				"z": -0.7674801777,
				"element": "O" 
			},
			{
				"x": 2.3818489626,
				"y": 1.9435246935,
				"z": -1.7744181386,
				"element": "C" 
			},
			{
				"x": 1.1649993048,
				"y": 1.1705128414,
				"z": -2.005248701,
				"element": "C" 
			},
			{
				"x": 0.5365607618,
				"y": 1.2479179824,
				"z": -3.247168389,
				"element": "C" 
			},
			{
				"x": -0.5401525881,
				"y": 0.4517172393,
				"z": -3.1880374664,
				"element": "N" 
			},
			{
				"x": -0.6850949633,
				"y": -0.1608709292,
				"z": -1.990762239,
				"element": "N" 
			},
			{
				"x": 0.3403688003,
				"y": 0.2545088316,
				"z": -1.2406696461,
				"element": "C" 
			},
			{
				"x": 0.4460354748,
				"y": -0.2577989392,
				"z": 0.1392003197,
				"element": "C" 
			},
			{
				"x": -0.5245476969,
				"y": -1.1705310658,
				"z": 0.5905658056,
				"element": "C" 
			},
			{
				"x": -0.4773966459,
				"y": -1.6819574744,
				"z": 1.8802728052,
				"element": "C" 
			},
			{
				"x": 0.5463189797,
				"y": -1.281473243,
				"z": 2.7593201674,
				"element": "C" 
			},
			{
				"x": 0.622980571,
				"y": -1.7485296884,
				"z": 4.0472548465,
				"element": "O" 
			},
			{
				"x": -0.5699081878,
				"y": -2.383789109,
				"z": 4.5076420581,
				"element": "C" 
			},
			{
				"x": -1.1155593863,
				"y": -3.3155420205,
				"z": 3.4374983793,
				"element": "C" 
			},
			{
				"x": -1.4520927178,
				"y": -2.5750222909,
				"z": 2.2665171566,
				"element": "O" 
			},
			{
				"x": 1.5188216691,
				"y": -0.3890181536,
				"z": 2.3116129713,
				"element": "C" 
			},
			{
				"x": 1.4773442261,
				"y": 0.1191144911,
				"z": 1.0160776595,
				"element": "C" 
			},
			{
				"x": 2.6771750117,
				"y": 2.5322042229,
				"z": -2.6723019963,
				"element": "H" 
			},
			{
				"x": 0.7983631294,
				"y": 1.8118237193,
				"z": -4.1313972173,
				"element": "H" 
			},
			{
				"x": -1.2207706061,
				"y": 0.2712369163,
				"z": -3.9101300127,
				"element": "H" 
			},
			{
				"x": -1.3241087,
				"y": -1.4927939774,
				"z": -0.0656372541,
				"element": "H" 
			},
			{
				"x": -0.2994878826,
				"y": -2.9320354009,
				"z": 5.4138859593,
				"element": "H" 
			},
			{
				"x": -1.3231965148,
				"y": -1.6248480613,
				"z": 4.7600295826,
				"element": "H" 
			},
			{
				"x": -2.0337768678,
				"y": -3.8064187735,
				"z": 3.7705399039,
				"element": "H" 
			},
			{
				"x": -0.3674087858,
				"y": -4.0836411731,
				"z": 3.1958487075,
				"element": "H" 
			},
			{
				"x": 2.3038876794,
				"y": -0.0955450832,
				"z": 3.0011736418,
				"element": "H" 
			},
			{
				"x": 2.2388318952,
				"y": 0.8142391935,
				"z": 0.6854112738,
				"element": "H" 
			}
		],
		 "valence_orbital": [ 
			{
				"type": "occ",
				"energy": -0.27308,
				"method": "rhf"
			},
			{
				"type": "occ",
				"energy": -0.26564,
				"method": "rhf"
			},
			{
				"type": "occ",
				"energy": -0.24978,
				"method": "rhf"
			},
			{
				"type": "occ",
				"energy": -0.22195,
				"method": "rhf"
			},
			{
				"type": "occ",
				"energy": -0.19944,
				"method": "rhf"
			},
			{
				"type": "unocc",
				"energy": -0.04563,
				"method": "rhf"
			},
			{
				"type": "unocc",
				"energy": -0.01601,
				"method": "rhf"
			},
			{
				"type": "unocc",
				"energy": 0.01738,
				"method": "rhf"
			},
			{
				"type": "unocc",
				"energy": 0.04151,
				"method": "rhf"
			},
			{
				"type": "unocc",
				"energy": 0.06515,
				"method": "rhf"
			}
		],
		"cosmo_sigma_profile": { 
			"-0.025": 0.0,
			"-0.024": 0.0,
			"-0.023": 0.0,
			"-0.022": 0.0,
			"-0.021": 0.0,
			"-0.02": 0.0,
			"-0.019": 0.0,
			"-0.018": 0.617227261142,
			"-0.017": 2.01831726145,
			"-0.016": 1.70537411052,
			"-0.015": 1.14403419524,
			"-0.014": 0.959430145657,
			"-0.013": 0.832987313869,
			"-0.012": 1.17241217469,
			"-0.011": 2.37628057248,
			"-0.01": 3.99095129584,
			"-0.009": 3.48248668119,
			"-0.008": 3.07260831691,
			"-0.007": 9.41964306488,
			"-0.006": 15.79576133,
			"-0.005": 15.7368235281,
			"-0.004": 14.5605902596,
			"-0.003": 12.0244665081,
			"-0.002": 9.93926108855,
			"-0.001": 11.1359246807,
			"0.0": 12.1715629192,
			"0.001": 16.1641515954,
			"0.002": 16.2115280126,
			"0.003": 18.6143019861,
			"0.004": 21.3970961722,
			"0.005": 14.4916203141,
			"0.006": 6.25135443139,
			"0.007": 7.2062685859,
			"0.008": 6.00057873008,
			"0.009": 4.91793334587,
			"0.01": 6.83768087761,
			"0.011": 4.49208507528,
			"0.012": 2.90489296283,
			"0.013": 1.33036125274,
			"0.014": 0.0206347478739,
			"0.015": 0.0,
			"0.016": 0.0,
			"0.017": 0.0,
			"0.018": 0.0,
			"0.019": 0.0,
			"0.02": 0.0,
			"0.021": 0.0,
			"0.022": 0.0,
			"0.023": 0.0,
			"0.024": 0.0,
			"0.025": 0.0
		}
	}
}
