{
	 "smiles": "CC(C)(C)OC(=O)N1CSCC1C(O)=O", 
	 "Tm": 407.15, 
	 "num_atms": 30, 
	 "gaussian": { 
		 "optdone": 1, 
		 "sigma_profile": "yes", 
		 "theory": "DFT", 
		 "functional": "B3LYP", 
		 "basiset": "6-31G**", 
		 "properties": { 
			 "R2extent": 5689.6277, 
			 "electric_dipole_moment_norm": 3.89694515614, 
			 "electric_quadrupole_moment_norm": 18.3394515204, 
			 "total_energy": -1105.87011752, 
			 "HOMO_LUMO_gap": 0.24406, 
			 "cosmo_polarized_energy": -15.89, 
			 "cosmo_cavitation_energy": 33.72, 
			 "cosmo_dispersion_energy": -23.31, 
			 "cosmo_repulsion_energy": 1.79, 
			 "cosmo_total_nonelectrostatic_energy": 12.2, 
			 "SMD_solvation_energy": 7.5 
		},
		"coords": [
			{
				"x": 1.0975389122,
				"y": -1.1020144262,
				"z": -1.7532310374,
				"element": "C" 
			},
			{
				"x": 0.2076178487,
				"y": -1.1508283371,
				"z": -0.5082730312,
				"element": "C" 
			},
			{
				"x": -0.6679278855,
				"y": -2.4059173283,
				"z": -0.4620625345,
				"element": "C" 
			},
			{
				"x": 1.0400818369,
				"y": -1.0120126578,
				"z": 0.7674760921,
				"element": "C" 
			},
			{
				"x": -0.6480264924,
				"y": 0.0587311481,
				"z": -0.4611738137,
				"element": "O" 
			},
			{
				"x": -1.5391574972,
				"y": 0.3193767652,
				"z": -1.4352017353,
				"element": "C" 
			},
			{
				"x": -1.775011564,
				"y": -0.358393099,
				"z": -2.4196116364,
				"element": "O" 
			},
			{
				"x": -2.1684388055,
				"y": 1.5396199938,
				"z": -1.2047825395,
				"element": "N" 
			},
			{
				"x": -3.3149460549,
				"y": 1.8472654184,
				"z": -2.0818633364,
				"element": "C" 
			},
			{
				"x": -4.088298178,
				"y": 3.3425099004,
				"z": -1.3714209758,
				"element": "S" 
			},
			{
				"x": -3.6059524414,
				"y": 2.7712377939,
				"z": 0.304678786,
				"element": "C" 
			},
			{
				"x": -2.2015110508,
				"y": 2.179525486,
				"z": 0.1248560551,
				"element": "C" 
			},
			{
				"x": -1.1223618458,
				"y": 3.2708730274,
				"z": 0.3015236655,
				"element": "C" 
			},
			{
				"x": -0.283743029,
				"y": 3.4421078057,
				"z": -0.7305271484,
				"element": "O" 
			},
			{
				"x": -1.044491066,
				"y": 3.9123005795,
				"z": 1.3213026283,
				"element": "O" 
			},
			{
				"x": 0.5043502781,
				"y": -1.1756348404,
				"z": -2.6652152349,
				"element": "H" 
			},
			{
				"x": 1.6735302585,
				"y": -0.1715441465,
				"z": -1.7739570494,
				"element": "H" 
			},
			{
				"x": 1.805224966,
				"y": -1.9365487403,
				"z": -1.7266329644,
				"element": "H" 
			},
			{
				"x": -1.2775589512,
				"y": -2.4950401679,
				"z": -1.3615919035,
				"element": "H" 
			},
			{
				"x": -1.3242957424,
				"y": -2.3813769125,
				"z": 0.4135553979,
				"element": "H" 
			},
			{
				"x": -0.0294576286,
				"y": -3.2912469006,
				"z": -0.3804801002,
				"element": "H" 
			},
			{
				"x": 1.619117749,
				"y": -0.0844554275,
				"z": 0.7535482909,
				"element": "H" 
			},
			{
				"x": 0.3971272504,
				"y": -1.0050033952,
				"z": 1.6523934193,
				"element": "H" 
			},
			{
				"x": 1.7340674166,
				"y": -1.8532358597,
				"z": 0.8520848359,
				"element": "H" 
			},
			{
				"x": -2.9854838721,
				"y": 2.0566797682,
				"z": -3.1008236194,
				"element": "H" 
			},
			{
				"x": -4.0116871615,
				"y": 1.0034978874,
				"z": -2.1079196483,
				"element": "H" 
			},
			{
				"x": -4.3092937884,
				"y": 2.0145311744,
				"z": 0.6626219373,
				"element": "H" 
			},
			{
				"x": -3.5895790705,
				"y": 3.6121766334,
				"z": 0.997883311,
				"element": "H" 
			},
			{
				"x": -2.0025262121,
				"y": 1.4338402148,
				"z": 0.8984424162,
				"element": "H" 
			},
			{
				"x": -0.5804081792,
				"y": 2.8457786428,
				"z": -1.4418985266,
				"element": "H" 
			}
		],
		 "valence_orbital": [ 
			{
				"type": "occ",
				"energy": -0.31025,
				"method": "rhf"
			},
			{
				"type": "occ",
				"energy": -0.29903,
				"method": "rhf"
			},
			{
				"type": "occ",
				"energy": -0.28791,
				"method": "rhf"
			},
			{
				"type": "occ",
				"energy": -0.25916,
				"method": "rhf"
			},
			{
				"type": "occ",
				"energy": -0.24603,
				"method": "rhf"
			},
			{
				"type": "unocc",
				"energy": -0.00197,
				"method": "rhf"
			},
			{
				"type": "unocc",
				"energy": 0.00979,
				"method": "rhf"
			},
			{
				"type": "unocc",
				"energy": 0.0219,
				"method": "rhf"
			},
			{
				"type": "unocc",
				"energy": 0.05877,
				"method": "rhf"
			},
			{
				"type": "unocc",
				"energy": 0.0712,
				"method": "rhf"
			}
		],
		"cosmo_sigma_profile": { 
			"-0.025": 0.0,
			"-0.024": 0.0,
			"-0.023": 0.0,
			"-0.022": 0.0,
			"-0.021": 0.0,
			"-0.02": 0.0,
			"-0.019": 0.0,
			"-0.018": 0.0,
			"-0.017": 0.0,
			"-0.016": 0.0399031352082,
			"-0.015": 0.419162693778,
			"-0.014": 0.736080392648,
			"-0.013": 0.963483546756,
			"-0.012": 0.674819993915,
			"-0.011": 0.849150681523,
			"-0.01": 1.15488306504,
			"-0.009": 0.876073169412,
			"-0.008": 5.1707916952,
			"-0.007": 12.6434303552,
			"-0.006": 11.0762601628,
			"-0.005": 11.8833280189,
			"-0.004": 23.6413020507,
			"-0.003": 24.2987558313,
			"-0.002": 20.9647352859,
			"-0.001": 23.4114169903,
			"0.0": 29.6863156074,
			"0.001": 19.5909356532,
			"0.002": 9.46504057503,
			"0.003": 7.52967151,
			"0.004": 7.95787968228,
			"0.005": 6.21127930369,
			"0.006": 6.18490622293,
			"0.007": 6.02081291709,
			"0.008": 6.66632650443,
			"0.009": 6.77203336304,
			"0.01": 5.69210086049,
			"0.011": 6.10463782401,
			"0.012": 7.52543803991,
			"0.013": 1.92682939092,
			"0.014": 0.0,
			"0.015": 0.0,
			"0.016": 0.0,
			"0.017": 0.0,
			"0.018": 0.0,
			"0.019": 0.0,
			"0.02": 0.0,
			"0.021": 0.0,
			"0.022": 0.0,
			"0.023": 0.0,
			"0.024": 0.0,
			"0.025": 0.0
		}
	}
}
