{
	 "smiles": "CC1CCC2=C(C1)SC(N)=C2C(N)=O", 
	 "Tm": 462.15, 
	 "num_atms": 28, 
	 "gaussian": { 
		 "optdone": 1, 
		 "sigma_profile": "yes", 
		 "theory": "DFT", 
		 "functional": "B3LYP", 
		 "basiset": "6-31G**", 
		 "properties": { 
			 "R2extent": 3517.2891, 
			 "electric_dipole_moment_norm": 2.88037636777, 
			 "electric_quadrupole_moment_norm": 14.8572598705, 
			 "total_energy": -972.449342151, 
			 "HOMO_LUMO_gap": 0.1796, 
			 "cosmo_polarized_energy": -12.64, 
			 "cosmo_cavitation_energy": 30.15, 
			 "cosmo_dispersion_energy": -23.12, 
			 "cosmo_repulsion_energy": 1.78, 
			 "cosmo_total_nonelectrostatic_energy": 8.8, 
			 "SMD_solvation_energy": 4.42 
		},
		"coords": [
			{
				"x": -1.5178124792,
				"y": -1.613022998,
				"z": -1.7884454446,
				"element": "C" 
			},
			{
				"x": -0.836671267,
				"y": -0.3788705568,
				"z": -2.3993647128,
				"element": "C" 
			},
			{
				"x": -1.5194426875,
				"y": 0.9389667521,
				"z": -1.9865459084,
				"element": "C" 
			},
			{
				"x": -1.4496615701,
				"y": 1.201290797,
				"z": -0.4710708919,
				"element": "C" 
			},
			{
				"x": -0.0684362234,
				"y": 0.9411576381,
				"z": 0.0921575554,
				"element": "C" 
			},
			{
				"x": 0.847512462,
				"y": 0.2573579976,
				"z": -0.6498416315,
				"element": "C" 
			},
			{
				"x": 0.6628930909,
				"y": -0.3052193997,
				"z": -2.0321257748,
				"element": "C" 
			},
			{
				"x": 2.3945822836,
				"y": 0.1260183618,
				"z": 0.1871656864,
				"element": "S" 
			},
			{
				"x": 1.7732079736,
				"y": 1.0026599449,
				"z": 1.5694285454,
				"element": "C" 
			},
			{
				"x": 2.5771936794,
				"y": 1.3080236607,
				"z": 2.6215277454,
				"element": "N" 
			},
			{
				"x": 0.4358956769,
				"y": 1.3649591503,
				"z": 1.3928425027,
				"element": "C" 
			},
			{
				"x": -0.2634697471,
				"y": 2.0295633937,
				"z": 2.5021869148,
				"element": "C" 
			},
			{
				"x": -1.6161790754,
				"y": 2.2657935259,
				"z": 2.3905485566,
				"element": "N" 
			},
			{
				"x": 0.3227521526,
				"y": 2.4003153106,
				"z": 3.5341933755,
				"element": "O" 
			},
			{
				"x": -2.589062817,
				"y": -1.6270549012,
				"z": -2.0187489261,
				"element": "H" 
			},
			{
				"x": -1.4047693858,
				"y": -1.6399169748,
				"z": -0.6999107096,
				"element": "H" 
			},
			{
				"x": -1.0802002486,
				"y": -2.5350955093,
				"z": -2.185635953,
				"element": "H" 
			},
			{
				"x": -0.9066617628,
				"y": -0.4648476952,
				"z": -3.4915229196,
				"element": "H" 
			},
			{
				"x": -1.0287621133,
				"y": 1.7685871855,
				"z": -2.5109374013,
				"element": "H" 
			},
			{
				"x": -2.5676477992,
				"y": 0.9384469948,
				"z": -2.3082336058,
				"element": "H" 
			},
			{
				"x": -2.1894425555,
				"y": 0.5616323566,
				"z": 0.0375678534,
				"element": "H" 
			},
			{
				"x": -1.7480471548,
				"y": 2.23692283,
				"z": -0.2727404526,
				"element": "H" 
			},
			{
				"x": 1.1150637477,
				"y": -1.3030732576,
				"z": -2.1067844572,
				"element": "H" 
			},
			{
				"x": 1.1890814648,
				"y": 0.3213325259,
				"z": -2.7672567886,
				"element": "H" 
			},
			{
				"x": 2.0669011172,
				"y": 1.7454936237,
				"z": 3.3895310458,
				"element": "H" 
			},
			{
				"x": 3.3728845073,
				"y": 0.7219147448,
				"z": 2.8203105111,
				"element": "H" 
			},
			{
				"x": -2.1854221764,
				"y": 1.7165874526,
				"z": 1.7680832649,
				"element": "H" 
			},
			{
				"x": -2.048479093,
				"y": 2.5768770461,
				"z": 3.2488220204,
				"element": "H" 
			}
		],
		 "valence_orbital": [ 
			{
				"type": "occ",
				"energy": -0.29358,
				"method": "rhf"
			},
			{
				"type": "occ",
				"energy": -0.26262,
				"method": "rhf"
			},
			{
				"type": "occ",
				"energy": -0.24663,
				"method": "rhf"
			},
			{
				"type": "occ",
				"energy": -0.24036,
				"method": "rhf"
			},
			{
				"type": "occ",
				"energy": -0.18527,
				"method": "rhf"
			},
			{
				"type": "unocc",
				"energy": -0.00567,
				"method": "rhf"
			},
			{
				"type": "unocc",
				"energy": 0.01795,
				"method": "rhf"
			},
			{
				"type": "unocc",
				"energy": 0.02333,
				"method": "rhf"
			},
			{
				"type": "unocc",
				"energy": 0.07334,
				"method": "rhf"
			},
			{
				"type": "unocc",
				"energy": 0.08545,
				"method": "rhf"
			}
		],
		"cosmo_sigma_profile": { 
			"-0.025": 0.0,
			"-0.024": 0.0,
			"-0.023": 0.0,
			"-0.022": 0.0,
			"-0.021": 0.0,
			"-0.02": 0.0,
			"-0.019": 0.0,
			"-0.018": 0.0,
			"-0.017": 0.0,
			"-0.016": 0.0,
			"-0.015": 0.0492865293315,
			"-0.014": 1.0839695767,
			"-0.013": 1.89197047038,
			"-0.012": 2.9528331779,
			"-0.011": 3.29838459008,
			"-0.01": 3.36563355036,
			"-0.009": 4.23667120013,
			"-0.008": 4.12312229882,
			"-0.007": 4.00660558052,
			"-0.006": 3.62685333447,
			"-0.005": 4.15647271568,
			"-0.004": 6.52705665548,
			"-0.003": 19.3245521654,
			"-0.002": 29.708225661,
			"-0.001": 28.8781324003,
			"0.0": 21.6589453854,
			"0.001": 18.118267055,
			"0.002": 14.9214403391,
			"0.003": 12.0802557073,
			"0.004": 13.1508238891,
			"0.005": 13.789103036,
			"0.006": 6.79424422425,
			"0.007": 3.68405225584,
			"0.008": 2.91544717341,
			"0.009": 2.1446192814,
			"0.01": 2.49858990142,
			"0.011": 2.04113590847,
			"0.012": 1.30944683104,
			"0.013": 2.2499082206,
			"0.014": 2.34022466667,
			"0.015": 1.07566914554,
			"0.016": 0.0,
			"0.017": 0.0,
			"0.018": 0.0,
			"0.019": 0.0,
			"0.02": 0.0,
			"0.021": 0.0,
			"0.022": 0.0,
			"0.023": 0.0,
			"0.024": 0.0,
			"0.025": 0.0
		}
	}
}
