{
	 "smiles": "NC1(CCCC1)C1=NNN=N1", 
	 "Tm": 503.15, 
	 "num_atms": 22, 
	 "gaussian": { 
		 "optdone": 1, 
		 "sigma_profile": "yes", 
		 "theory": "DFT", 
		 "functional": "B3LYP", 
		 "basiset": "6-31G**", 
		 "properties": { 
			 "R2extent": 2116.9967, 
			 "electric_dipole_moment_norm": 2.13818900942, 
			 "electric_quadrupole_moment_norm": 14.5011782876, 
			 "total_energy": -508.972313381, 
			 "HOMO_LUMO_gap": 0.20897, 
			 "cosmo_polarized_energy": -14.29, 
			 "cosmo_cavitation_energy": 24.05, 
			 "cosmo_dispersion_energy": -18.15, 
			 "cosmo_repulsion_energy": 1.47, 
			 "cosmo_total_nonelectrostatic_energy": 7.37, 
			 "SMD_solvation_energy": 0.65 
		},
		"coords": [
			{
				"x": -0.8389695316,
				"y": 1.552433659,
				"z": 0.4600714663,
				"element": "N" 
			},
			{
				"x": -0.8043032292,
				"y": 0.0955411536,
				"z": 0.2749491061,
				"element": "C" 
			},
			{
				"x": -1.2895556193,
				"y": -0.6008189411,
				"z": 1.5730182686,
				"element": "C" 
			},
			{
				"x": -0.0341210222,
				"y": -0.7338853029,
				"z": 2.4771098956,
				"element": "C" 
			},
			{
				"x": 1.1940107792,
				"y": -0.4882951096,
				"z": 1.5518793427,
				"element": "C" 
			},
			{
				"x": 0.6284361593,
				"y": -0.5013616572,
				"z": 0.1203408172,
				"element": "C" 
			},
			{
				"x": -1.6572118899,
				"y": -0.2461022598,
				"z": -0.9170971025,
				"element": "C" 
			},
			{
				"x": -2.0501771322,
				"y": 0.6313093657,
				"z": -1.8384737605,
				"element": "N" 
			},
			{
				"x": -2.7081070004,
				"y": -0.1602556876,
				"z": -2.6816569221,
				"element": "N" 
			},
			{
				"x": -2.739597203,
				"y": -1.4417703751,
				"z": -2.3339784185,
				"element": "N" 
			},
			{
				"x": -2.0686212907,
				"y": -1.5121123485,
				"z": -1.2132516789,
				"element": "N" 
			},
			{
				"x": -0.5152196983,
				"y": 2.019839616,
				"z": -0.3836012006,
				"element": "H" 
			},
			{
				"x": -0.2066248509,
				"y": 1.8172471672,
				"z": 1.2104689724,
				"element": "H" 
			},
			{
				"x": -2.0979841125,
				"y": -0.0256134489,
				"z": 2.0313552382,
				"element": "H" 
			},
			{
				"x": -1.6816388701,
				"y": -1.5881417972,
				"z": 1.3163190451,
				"element": "H" 
			},
			{
				"x": -0.0536376227,
				"y": -0.013378858,
				"z": 3.3009360982,
				"element": "H" 
			},
			{
				"x": 0.0055463223,
				"y": -1.726263973,
				"z": 2.9358054371,
				"element": "H" 
			},
			{
				"x": 1.6497942155,
				"y": 0.4845244703,
				"z": 1.7702484429,
				"element": "H" 
			},
			{
				"x": 1.98109351,
				"y": -1.2352792281,
				"z": 1.6888752218,
				"element": "H" 
			},
			{
				"x": 0.5498191162,
				"y": -1.5306037732,
				"z": -0.2485644284,
				"element": "H" 
			},
			{
				"x": 1.2318228096,
				"y": 0.0646987287,
				"z": -0.5978237731,
				"element": "H" 
			},
			{
				"x": -3.1676538388,
				"y": 0.1854885995,
				"z": -3.5129300679,
				"element": "H" 
			}
		],
		 "valence_orbital": [ 
			{
				"type": "occ",
				"energy": -0.31844,
				"method": "rhf"
			},
			{
				"type": "occ",
				"energy": -0.31504,
				"method": "rhf"
			},
			{
				"type": "occ",
				"energy": -0.28852,
				"method": "rhf"
			},
			{
				"type": "occ",
				"energy": -0.28291,
				"method": "rhf"
			},
			{
				"type": "occ",
				"energy": -0.23449,
				"method": "rhf"
			},
			{
				"type": "unocc",
				"energy": -0.02552,
				"method": "rhf"
			},
			{
				"type": "unocc",
				"energy": 0.03158,
				"method": "rhf"
			},
			{
				"type": "unocc",
				"energy": 0.06502,
				"method": "rhf"
			},
			{
				"type": "unocc",
				"energy": 0.0692,
				"method": "rhf"
			},
			{
				"type": "unocc",
				"energy": 0.09956,
				"method": "rhf"
			}
		],
		"cosmo_sigma_profile": { 
			"-0.025": 0.0,
			"-0.024": 0.0,
			"-0.023": 0.0,
			"-0.022": 0.0,
			"-0.021": 0.0,
			"-0.02": 0.0672846221514,
			"-0.019": 1.78491005835,
			"-0.018": 1.605761241,
			"-0.017": 1.36974907752,
			"-0.016": 0.896870221986,
			"-0.015": 0.919417443209,
			"-0.014": 1.13351145832,
			"-0.013": 0.339868256993,
			"-0.012": 0.681352704417,
			"-0.011": 0.788434091056,
			"-0.01": 0.864306654866,
			"-0.009": 3.2154313274,
			"-0.008": 3.30438226515,
			"-0.007": 3.9731480106,
			"-0.006": 3.40058581158,
			"-0.005": 4.04224284885,
			"-0.004": 6.65462037176,
			"-0.003": 15.1577815408,
			"-0.002": 23.211040484,
			"-0.001": 22.9757049869,
			"0.0": 19.9066806972,
			"0.001": 17.9320341363,
			"0.002": 5.86311883281,
			"0.003": 5.24903934769,
			"0.004": 4.07551556688,
			"0.005": 3.78029182879,
			"0.006": 4.03470097813,
			"0.007": 4.32427878574,
			"0.008": 4.2253186096,
			"0.009": 4.54222852263,
			"0.01": 4.34752565798,
			"0.011": 5.17085820244,
			"0.012": 2.66408894399,
			"0.013": 1.6354467711,
			"0.014": 0.978760473614,
			"0.015": 0.775708731894,
			"0.016": 0.882609078726,
			"0.017": 0.366199492291,
			"0.018": 0.520640231874,
			"0.019": 0.351721666494,
			"0.02": 0.0284598899623,
			"0.021": 0.0,
			"0.022": 0.0,
			"0.023": 0.0,
			"0.024": 0.0,
			"0.025": 0.0
		}
	}
}
