{
	 "smiles": "CC1=NN(C(C)=C1C(=O)C(O)=O)C1=CC=CC=C1", 
	 "Tm": 480.15, 
	 "num_atms": 30, 
	 "gaussian": { 
		 "optdone": 1, 
		 "sigma_profile": "yes", 
		 "theory": "DFT", 
		 "functional": "B3LYP", 
		 "basiset": "6-31G**", 
		 "properties": { 
			 "R2extent": 5708.2541, 
			 "electric_dipole_moment_norm": 2.58295252957, 
			 "electric_quadrupole_moment_norm": 20.0596588294, 
			 "total_energy": -837.786462032, 
			 "HOMO_LUMO_gap": 0.17628, 
			 "cosmo_polarized_energy": -15.47, 
			 "cosmo_cavitation_energy": 34.71, 
			 "cosmo_dispersion_energy": -24.65, 
			 "cosmo_repulsion_energy": 1.9, 
			 "cosmo_total_nonelectrostatic_energy": 11.96, 
			 "SMD_solvation_energy": 6.84 
		},
		"coords": [
			{
				"x": 0.9460094696,
				"y": 0.891475302,
				"z": 2.9910932412,
				"element": "C" 
			},
			{
				"x": 0.3627019314,
				"y": 0.2464551193,
				"z": 1.7707834455,
				"element": "C" 
			},
			{
				"x": 0.9471069119,
				"y": 0.4485569305,
				"z": 0.6023382724,
				"element": "N" 
			},
			{
				"x": 0.1890094635,
				"y": -0.2340304632,
				"z": -0.3194145871,
				"element": "N" 
			},
			{
				"x": -0.8677232589,
				"y": -0.8723615817,
				"z": 0.24610504,
				"element": "C" 
			},
			{
				"x": -1.824092627,
				"y": -1.7507669585,
				"z": -0.4927453639,
				"element": "C" 
			},
			{
				"x": -0.7992881514,
				"y": -0.5827400025,
				"z": 1.618788726,
				"element": "C" 
			},
			{
				"x": -1.7785181217,
				"y": -1.0461453614,
				"z": 2.5884063532,
				"element": "C" 
			},
			{
				"x": -2.821779843,
				"y": -1.624211254,
				"z": 2.299882822,
				"element": "O" 
			},
			{
				"x": -1.4674286066,
				"y": -0.9042042735,
				"z": 4.0872533681,
				"element": "C" 
			},
			{
				"x": -2.4817746811,
				"y": -0.3340263811,
				"z": 4.75930267,
				"element": "O" 
			},
			{
				"x": -0.4638893497,
				"y": -1.3347900541,
				"z": 4.6123064671,
				"element": "O" 
			},
			{
				"x": 0.6121106136,
				"y": -0.2125930301,
				"z": -1.6808089974,
				"element": "C" 
			},
			{
				"x": 1.9762221659,
				"y": -0.3450006544,
				"z": -1.961935977,
				"element": "C" 
			},
			{
				"x": 2.4099738583,
				"y": -0.3123128713,
				"z": -3.285176473,
				"element": "C" 
			},
			{
				"x": 1.4923728163,
				"y": -0.1538967284,
				"z": -4.3270660698,
				"element": "C" 
			},
			{
				"x": 0.1348931072,
				"y": -0.011541079,
				"z": -4.0380015564,
				"element": "C" 
			},
			{
				"x": -0.3103358954,
				"y": -0.0295042458,
				"z": -2.7154807291,
				"element": "C" 
			},
			{
				"x": 1.7790049081,
				"y": 1.52947805,
				"z": 2.6896590975,
				"element": "H" 
			},
			{
				"x": 1.3008342219,
				"y": 0.1422086594,
				"z": 3.7027545492,
				"element": "H" 
			},
			{
				"x": 0.2060908107,
				"y": 1.5101146796,
				"z": 3.5106402407,
				"element": "H" 
			},
			{
				"x": -2.7249743023,
				"y": -1.1996143659,
				"z": -0.7867291296,
				"element": "H" 
			},
			{
				"x": -1.3673893115,
				"y": -2.166881961,
				"z": -1.393425266,
				"element": "H" 
			},
			{
				"x": -2.1581362772,
				"y": -2.5541624893,
				"z": 0.1640635851,
				"element": "H" 
			},
			{
				"x": -2.2413248393,
				"y": -0.3671706673,
				"z": 5.7017449462,
				"element": "H" 
			},
			{
				"x": 2.6740455047,
				"y": -0.4615263056,
				"z": -1.1412151406,
				"element": "H" 
			},
			{
				"x": 3.4687705872,
				"y": -0.4157017645,
				"z": -3.5027494533,
				"element": "H" 
			},
			{
				"x": 1.8350419302,
				"y": -0.1335697567,
				"z": -5.3571338063,
				"element": "H" 
			},
			{
				"x": -0.5828033649,
				"y": 0.1303643681,
				"z": -4.8403484833,
				"element": "H" 
			},
			{
				"x": -1.3597296705,
				"y": 0.1215991405,
				"z": -2.4894917914,
				"element": "H" 
			}
		],
		 "valence_orbital": [ 
			{
				"type": "occ",
				"energy": -0.28693,
				"method": "rhf"
			},
			{
				"type": "occ",
				"energy": -0.26629,
				"method": "rhf"
			},
			{
				"type": "occ",
				"energy": -0.25366,
				"method": "rhf"
			},
			{
				"type": "occ",
				"energy": -0.24609,
				"method": "rhf"
			},
			{
				"type": "occ",
				"energy": -0.2392,
				"method": "rhf"
			},
			{
				"type": "unocc",
				"energy": -0.06292,
				"method": "rhf"
			},
			{
				"type": "unocc",
				"energy": -0.0243,
				"method": "rhf"
			},
			{
				"type": "unocc",
				"energy": -0.0169,
				"method": "rhf"
			},
			{
				"type": "unocc",
				"energy": 0.01191,
				"method": "rhf"
			},
			{
				"type": "unocc",
				"energy": 0.02582,
				"method": "rhf"
			}
		],
		"cosmo_sigma_profile": { 
			"-0.025": 0.0,
			"-0.024": 0.0,
			"-0.023": 0.0,
			"-0.022": 0.0,
			"-0.021": 0.0,
			"-0.02": 0.0565083636011,
			"-0.019": 0.690723513307,
			"-0.018": 1.21446600345,
			"-0.017": 0.620145336464,
			"-0.016": 0.839232808119,
			"-0.015": 0.86147471504,
			"-0.014": 0.625888936282,
			"-0.013": 0.66272008682,
			"-0.012": 1.05757141364,
			"-0.011": 0.557150256026,
			"-0.01": 0.537770588074,
			"-0.009": 0.870937007958,
			"-0.008": 1.36661625346,
			"-0.007": 6.63564159075,
			"-0.006": 16.2696324939,
			"-0.005": 17.7909469237,
			"-0.004": 20.4824200397,
			"-0.003": 21.4072991545,
			"-0.002": 25.8502758312,
			"-0.001": 23.6747894859,
			"0.0": 19.0625719668,
			"0.001": 16.9034245455,
			"0.002": 15.3900875318,
			"0.003": 16.0364443903,
			"0.004": 17.1338914734,
			"0.005": 8.16094042356,
			"0.006": 5.52826305417,
			"0.007": 5.44200747874,
			"0.008": 6.69791074103,
			"0.009": 6.44290135579,
			"0.01": 7.72044002378,
			"0.011": 7.03605070624,
			"0.012": 2.26369607745,
			"0.013": 0.690624664197,
			"0.014": 0.595612009384,
			"0.015": 0.0,
			"0.016": 0.0,
			"0.017": 0.0,
			"0.018": 0.0,
			"0.019": 0.0,
			"0.02": 0.0,
			"0.021": 0.0,
			"0.022": 0.0,
			"0.023": 0.0,
			"0.024": 0.0,
			"0.025": 0.0
		}
	}
}
