{
	 "smiles": "COC1=C(C)C=C(C(C)=O)C(C)=C1", 
	 "Tm": 348.15, 
	 "num_atms": 27, 
	 "gaussian": { 
		 "optdone": 1, 
		 "sigma_profile": "yes", 
		 "theory": "DFT", 
		 "functional": "B3LYP", 
		 "basiset": "6-31G**", 
		 "properties": { 
			 "R2extent": 3064.3807, 
			 "electric_dipole_moment_norm": 3.40394592495, 
			 "electric_quadrupole_moment_norm": 15.8359309524, 
			 "total_energy": -578.062865808, 
			 "HOMO_LUMO_gap": 0.18118, 
			 "cosmo_polarized_energy": -9.13, 
			 "cosmo_cavitation_energy": 29.62, 
			 "cosmo_dispersion_energy": -21.39, 
			 "cosmo_repulsion_energy": 1.69, 
			 "cosmo_total_nonelectrostatic_energy": 9.92, 
			 "SMD_solvation_energy": 6.53 
		},
		"coords": [
			{
				"x": 0.0015788703,
				"y": -3.3879417816,
				"z": -2.6377719728,
				"element": "C" 
			},
			{
				"x": 0.2001646004,
				"y": -2.8941395196,
				"z": -1.3205620677,
				"element": "O" 
			},
			{
				"x": -0.030843689,
				"y": -1.5752367135,
				"z": -1.0710182968,
				"element": "C" 
			},
			{
				"x": 0.1895715898,
				"y": -1.1657093326,
				"z": 0.2601741258,
				"element": "C" 
			},
			{
				"x": 0.648831849,
				"y": -2.1586454008,
				"z": 1.2963344217,
				"element": "C" 
			},
			{
				"x": -0.0345951462,
				"y": 0.1713244616,
				"z": 0.5564195182,
				"element": "C" 
			},
			{
				"x": -0.4645101462,
				"y": 1.1204983247,
				"z": -0.3946657073,
				"element": "C" 
			},
			{
				"x": -0.678433695,
				"y": 2.5359055589,
				"z": 0.0201531297,
				"element": "C" 
			},
			{
				"x": -0.424252471,
				"y": 2.9267872945,
				"z": 1.473885876,
				"element": "C" 
			},
			{
				"x": -1.0521017771,
				"y": 3.3997422214,
				"z": -0.7656417844,
				"element": "O" 
			},
			{
				"x": -0.6809046699,
				"y": 0.6899380305,
				"z": -1.7277949365,
				"element": "C" 
			},
			{
				"x": -1.1403707665,
				"y": 1.60073944,
				"z": -2.8412386787,
				"element": "C" 
			},
			{
				"x": -0.4568865853,
				"y": -0.657909121,
				"z": -2.0353268494,
				"element": "C" 
			},
			{
				"x": 0.243900287,
				"y": -4.4509337078,
				"z": -2.5988219172,
				"element": "H" 
			},
			{
				"x": 0.6634009401,
				"y": -2.8919423462,
				"z": -3.3584027655,
				"element": "H" 
			},
			{
				"x": -1.0393205724,
				"y": -3.2655733957,
				"z": -2.9616441459,
				"element": "H" 
			},
			{
				"x": 0.7691285382,
				"y": -1.6770835317,
				"z": 2.2703564505,
				"element": "H" 
			},
			{
				"x": -0.0664305467,
				"y": -2.9814374684,
				"z": 1.4046384545,
				"element": "H" 
			},
			{
				"x": 1.6054218449,
				"y": -2.6134604589,
				"z": 1.0162824696,
				"element": "H" 
			},
			{
				"x": 0.1343044136,
				"y": 0.4888715778,
				"z": 1.5799729566,
				"element": "H" 
			},
			{
				"x": 0.6137027734,
				"y": 2.7347677881,
				"z": 1.7663497483,
				"element": "H" 
			},
			{
				"x": -1.0683397543,
				"y": 2.3657033868,
				"z": 2.1595413607,
				"element": "H" 
			},
			{
				"x": -0.6342669101,
				"y": 3.9918375774,
				"z": 1.5754450571,
				"element": "H" 
			},
			{
				"x": -0.4451531819,
				"y": 2.4301763526,
				"z": -2.9942215631,
				"element": "H" 
			},
			{
				"x": -1.2337191427,
				"y": 1.0375998136,
				"z": -3.774893977,
				"element": "H" 
			},
			{
				"x": -2.1019421148,
				"y": 2.0655347693,
				"z": -2.6086809167,
				"element": "H" 
			},
			{
				"x": -0.6233345377,
				"y": -0.9835138194,
				"z": -3.0556679895,
				"element": "H" 
			}
		],
		 "valence_orbital": [ 
			{
				"type": "occ",
				"energy": -0.32594,
				"method": "rhf"
			},
			{
				"type": "occ",
				"energy": -0.31335,
				"method": "rhf"
			},
			{
				"type": "occ",
				"energy": -0.24498,
				"method": "rhf"
			},
			{
				"type": "occ",
				"energy": -0.23247,
				"method": "rhf"
			},
			{
				"type": "occ",
				"energy": -0.22066,
				"method": "rhf"
			},
			{
				"type": "unocc",
				"energy": -0.03948,
				"method": "rhf"
			},
			{
				"type": "unocc",
				"energy": 0.00118,
				"method": "rhf"
			},
			{
				"type": "unocc",
				"energy": 0.05216,
				"method": "rhf"
			},
			{
				"type": "unocc",
				"energy": 0.09299,
				"method": "rhf"
			},
			{
				"type": "unocc",
				"energy": 0.10145,
				"method": "rhf"
			}
		],
		"cosmo_sigma_profile": { 
			"-0.025": 0.0,
			"-0.024": 0.0,
			"-0.023": 0.0,
			"-0.022": 0.0,
			"-0.021": 0.0,
			"-0.02": 0.0,
			"-0.019": 0.0,
			"-0.018": 0.0,
			"-0.017": 0.0,
			"-0.016": 0.0,
			"-0.015": 0.0,
			"-0.014": 0.0,
			"-0.013": 0.0,
			"-0.012": 0.0,
			"-0.011": 0.0,
			"-0.01": 0.0,
			"-0.009": 0.0,
			"-0.008": 0.0,
			"-0.007": 0.420972273517,
			"-0.006": 9.77182753773,
			"-0.005": 21.304905279,
			"-0.004": 21.8013191258,
			"-0.003": 24.0153163492,
			"-0.002": 19.0313250711,
			"-0.001": 22.2046733072,
			"0.0": 24.2561492064,
			"0.001": 20.6540092436,
			"0.002": 14.2278891501,
			"0.003": 12.099880414,
			"0.004": 13.9261397324,
			"0.005": 7.38536637293,
			"0.006": 3.46142646921,
			"0.007": 3.76472862954,
			"0.008": 3.46193581221,
			"0.009": 1.81403234776,
			"0.01": 1.25631246128,
			"0.011": 2.07469644513,
			"0.012": 2.35062567599,
			"0.013": 2.70559773229,
			"0.014": 1.25090366123,
			"0.015": 0.0966981854065,
			"0.016": 0.0,
			"0.017": 0.0,
			"0.018": 0.0,
			"0.019": 0.0,
			"0.02": 0.0,
			"0.021": 0.0,
			"0.022": 0.0,
			"0.023": 0.0,
			"0.024": 0.0,
			"0.025": 0.0
		}
	}
}
