{
	 "smiles": "OC(=O)CNC(=O)C1=C(O)C=CC=N1", 
	 "Tm": 508.15, 
	 "num_atms": 22, 
	 "gaussian": { 
		 "optdone": 1, 
		 "sigma_profile": "yes", 
		 "theory": "DFT", 
		 "functional": "B3LYP", 
		 "basiset": "6-31G**", 
		 "properties": { 
			 "R2extent": 4162.8088, 
			 "electric_dipole_moment_norm": 4.28158086809, 
			 "electric_quadrupole_moment_norm": 15.5003747519, 
			 "total_energy": -720.103889871, 
			 "HOMO_LUMO_gap": 0.17906, 
			 "cosmo_polarized_energy": -13.82, 
			 "cosmo_cavitation_energy": 27.05, 
			 "cosmo_dispersion_energy": -20.34, 
			 "cosmo_repulsion_energy": 1.61, 
			 "cosmo_total_nonelectrostatic_energy": 8.31, 
			 "SMD_solvation_energy": 5.73 
		},
		"coords": [
			{
				"x": 0.5720198909,
				"y": -4.1138456226,
				"z": 3.1148532677,
				"element": "O" 
			},
			{
				"x": -0.4095745655,
				"y": -3.6009873683,
				"z": 2.3494890326,
				"element": "C" 
			},
			{
				"x": -1.350616868,
				"y": -4.2464835643,
				"z": 1.9412637611,
				"element": "O" 
			},
			{
				"x": -0.1754761776,
				"y": -2.1273357655,
				"z": 2.0751026184,
				"element": "C" 
			},
			{
				"x": -1.2651652407,
				"y": -1.6480686962,
				"z": 1.2511423436,
				"element": "N" 
			},
			{
				"x": -1.5337223722,
				"y": -0.4265056297,
				"z": 0.7315537732,
				"element": "C" 
			},
			{
				"x": -2.5674668796,
				"y": -0.283985189,
				"z": 0.039018386,
				"element": "O" 
			},
			{
				"x": -0.6359862917,
				"y": 0.73904502,
				"z": 0.9634750454,
				"element": "C" 
			},
			{
				"x": -0.9928699272,
				"y": 1.9860077458,
				"z": 0.380617687,
				"element": "C" 
			},
			{
				"x": -2.0875832582,
				"y": 2.1605406052,
				"z": -0.3601245774,
				"element": "O" 
			},
			{
				"x": -0.1369624561,
				"y": 3.0792910878,
				"z": 0.6070335183,
				"element": "C" 
			},
			{
				"x": 0.9994880242,
				"y": 2.8986138667,
				"z": 1.3759764537,
				"element": "C" 
			},
			{
				"x": 1.2691216117,
				"y": 1.6294432789,
				"z": 1.9101471129,
				"element": "C" 
			},
			{
				"x": 0.4731992904,
				"y": 0.5846343209,
				"z": 1.7075967985,
				"element": "N" 
			},
			{
				"x": 0.3598269745,
				"y": -5.0528664952,
				"z": 3.2499591298,
				"element": "H" 
			},
			{
				"x": 0.8005358868,
				"y": -2.0074369206,
				"z": 1.5947885308,
				"element": "H" 
			},
			{
				"x": -0.1036084054,
				"y": -1.5967130693,
				"z": 3.0295463171,
				"element": "H" 
			},
			{
				"x": -1.9582778732,
				"y": -2.3523626358,
				"z": 1.016132975,
				"element": "H" 
			},
			{
				"x": -2.5340130695,
				"y": 1.2620958874,
				"z": -0.3839500386,
				"element": "H" 
			},
			{
				"x": -0.3946589042,
				"y": 4.0381392901,
				"z": 0.1693885748,
				"element": "H" 
			},
			{
				"x": 1.6774550116,
				"y": 3.7251309972,
				"z": 1.5666980695,
				"element": "H" 
			},
			{
				"x": 2.154735599,
				"y": 1.4585488564,
				"z": 2.5179912206,
				"element": "H" 
			}
		],
		 "valence_orbital": [ 
			{
				"type": "occ",
				"energy": -0.28882,
				"method": "rhf"
			},
			{
				"type": "occ",
				"energy": -0.28505,
				"method": "rhf"
			},
			{
				"type": "occ",
				"energy": -0.26572,
				"method": "rhf"
			},
			{
				"type": "occ",
				"energy": -0.25643,
				"method": "rhf"
			},
			{
				"type": "occ",
				"energy": -0.23473,
				"method": "rhf"
			},
			{
				"type": "unocc",
				"energy": -0.05567,
				"method": "rhf"
			},
			{
				"type": "unocc",
				"energy": -0.01523,
				"method": "rhf"
			},
			{
				"type": "unocc",
				"energy": -0.00594,
				"method": "rhf"
			},
			{
				"type": "unocc",
				"energy": 0.04944,
				"method": "rhf"
			},
			{
				"type": "unocc",
				"energy": 0.06053,
				"method": "rhf"
			}
		],
		"cosmo_sigma_profile": { 
			"-0.025": 0.0,
			"-0.024": 0.0,
			"-0.023": 0.0,
			"-0.022": 0.0,
			"-0.021": 0.0,
			"-0.02": 0.102656120064,
			"-0.019": 0.646311670755,
			"-0.018": 1.05442040856,
			"-0.017": 0.812010680483,
			"-0.016": 0.915687481101,
			"-0.015": 0.699997938792,
			"-0.014": 0.49136206558,
			"-0.013": 0.259061791665,
			"-0.012": 0.858032751924,
			"-0.011": 0.849311555719,
			"-0.01": 0.691556082152,
			"-0.009": 1.24843837189,
			"-0.008": 4.63066878607,
			"-0.007": 10.5357105188,
			"-0.006": 11.6996105013,
			"-0.005": 11.7833706728,
			"-0.004": 10.477352397,
			"-0.003": 12.6307412172,
			"-0.002": 17.5685726491,
			"-0.001": 15.0223401957,
			"0.0": 16.8296649519,
			"0.001": 17.1652421394,
			"0.002": 16.2853961486,
			"0.003": 9.20214091806,
			"0.004": 7.78571646994,
			"0.005": 7.66444706627,
			"0.006": 6.71756878315,
			"0.007": 4.8082802188,
			"0.008": 4.53325642674,
			"0.009": 6.19905400176,
			"0.01": 6.76123659336,
			"0.011": 5.11458690875,
			"0.012": 2.62317236881,
			"0.013": 1.46521299274,
			"0.014": 0.0320315159934,
			"0.015": 0.0,
			"0.016": 0.0,
			"0.017": 0.0,
			"0.018": 0.0,
			"0.019": 0.0,
			"0.02": 0.0,
			"0.021": 0.0,
			"0.022": 0.0,
			"0.023": 0.0,
			"0.024": 0.0,
			"0.025": 0.0
		}
	}
}
