{
	 "smiles": "O=C1NC=NC2=C1OC1=C2C=CC=C1", 
	 "Tm": 574.15, 
	 "num_atms": 20, 
	 "gaussian": { 
		 "optdone": 1, 
		 "sigma_profile": "yes", 
		 "theory": "DFT", 
		 "functional": "B3LYP", 
		 "basiset": "6-31G**", 
		 "properties": { 
			 "R2extent": 3633.7096, 
			 "electric_dipole_moment_norm": 2.67191086116, 
			 "electric_quadrupole_moment_norm": 23.1796049563, 
			 "total_energy": -644.637623775, 
			 "HOMO_LUMO_gap": 0.17247, 
			 "cosmo_polarized_energy": -15.25, 
			 "cosmo_cavitation_energy": 25.1, 
			 "cosmo_dispersion_energy": -19.11, 
			 "cosmo_repulsion_energy": 1.47, 
			 "cosmo_total_nonelectrostatic_energy": 7.46, 
			 "SMD_solvation_energy": 3.94 
		},
		"coords": [
			{
				"x": -2.0339813463,
				"y": -4.2226320748,
				"z": 0.1955749789,
				"element": "O" 
			},
			{
				"x": -1.3933491346,
				"y": -3.345044699,
				"z": -0.3589792142,
				"element": "C" 
			},
			{
				"x": -1.5868816906,
				"y": -3.0367676136,
				"z": -1.7359777075,
				"element": "N" 
			},
			{
				"x": -0.9201754905,
				"y": -2.0739938301,
				"z": -2.4464796422,
				"element": "C" 
			},
			{
				"x": -0.0037940772,
				"y": -1.2952452804,
				"z": -1.956173162,
				"element": "N" 
			},
			{
				"x": 0.2596871955,
				"y": -1.5128607437,
				"z": -0.6261133449,
				"element": "C" 
			},
			{
				"x": -0.373629912,
				"y": -2.4658570178,
				"z": 0.1523734272,
				"element": "C" 
			},
			{
				"x": 0.0772590764,
				"y": -2.4719297809,
				"z": 1.4414728307,
				"element": "O" 
			},
			{
				"x": 1.0355688297,
				"y": -1.488221783,
				"z": 1.4977145078,
				"element": "C" 
			},
			{
				"x": 1.1989717851,
				"y": -0.8537666816,
				"z": 0.2506357,
				"element": "C" 
			},
			{
				"x": 2.1369933393,
				"y": 0.1791728668,
				"z": 0.1170693845,
				"element": "C" 
			},
			{
				"x": 2.8772461452,
				"y": 0.5389624898,
				"z": 1.2377068777,
				"element": "C" 
			},
			{
				"x": 2.6938160492,
				"y": -0.1126066309,
				"z": 2.4742494234,
				"element": "C" 
			},
			{
				"x": 1.7668425674,
				"y": -1.1416045532,
				"z": 2.6284335462,
				"element": "C" 
			},
			{
				"x": -2.2903488844,
				"y": -3.603769428,
				"z": -2.1953722659,
				"element": "H" 
			},
			{
				"x": -1.2036464616,
				"y": -1.9829166248,
				"z": -3.4923092348,
				"element": "H" 
			},
			{
				"x": 2.2738084028,
				"y": 0.6770152489,
				"z": -0.8372125633,
				"element": "H" 
			},
			{
				"x": 3.6110831367,
				"y": 1.3356455516,
				"z": 1.1639587795,
				"element": "H" 
			},
			{
				"x": 3.2894230025,
				"y": 0.1944098186,
				"z": 3.3286457603,
				"element": "H" 
			},
			{
				"x": 1.6165074676,
				"y": -1.6503892338,
				"z": 3.5739819186,
				"element": "H" 
			}
		],
		 "valence_orbital": [ 
			{
				"type": "occ",
				"energy": -0.29048,
				"method": "rhf"
			},
			{
				"type": "occ",
				"energy": -0.27025,
				"method": "rhf"
			},
			{
				"type": "occ",
				"energy": -0.26942,
				"method": "rhf"
			},
			{
				"type": "occ",
				"energy": -0.24995,
				"method": "rhf"
			},
			{
				"type": "occ",
				"energy": -0.22786,
				"method": "rhf"
			},
			{
				"type": "unocc",
				"energy": -0.05539,
				"method": "rhf"
			},
			{
				"type": "unocc",
				"energy": -0.02111,
				"method": "rhf"
			},
			{
				"type": "unocc",
				"energy": -0.00157,
				"method": "rhf"
			},
			{
				"type": "unocc",
				"energy": 0.02539,
				"method": "rhf"
			},
			{
				"type": "unocc",
				"energy": 0.06634,
				"method": "rhf"
			}
		],
		"cosmo_sigma_profile": { 
			"-0.025": 0.0,
			"-0.024": 0.0,
			"-0.023": 0.0,
			"-0.022": 0.0,
			"-0.021": 0.0,
			"-0.02": 0.0,
			"-0.019": 0.0,
			"-0.018": 0.0,
			"-0.017": 1.22267006983,
			"-0.016": 1.90515861136,
			"-0.015": 1.09830028271,
			"-0.014": 1.32547737784,
			"-0.013": 1.03724950864,
			"-0.012": 1.14031426673,
			"-0.011": 2.00008094732,
			"-0.01": 3.23903280616,
			"-0.009": 2.11036638373,
			"-0.008": 2.51997302609,
			"-0.007": 5.94486816874,
			"-0.006": 9.64126977396,
			"-0.005": 10.4575690625,
			"-0.004": 12.2290904297,
			"-0.003": 12.7186373651,
			"-0.002": 16.4101374046,
			"-0.001": 12.519495272,
			"0.0": 13.4140991633,
			"0.001": 14.528468342,
			"0.002": 14.4832526119,
			"0.003": 13.6621106205,
			"0.004": 12.2263363763,
			"0.005": 3.49846578252,
			"0.006": 3.94308844489,
			"0.007": 4.97803295967,
			"0.008": 3.88301258728,
			"0.009": 2.09759231387,
			"0.01": 2.78733320374,
			"0.011": 2.83101035612,
			"0.012": 5.2216321033,
			"0.013": 6.35248872106,
			"0.014": 1.58310960765,
			"0.015": 0.201549234898,
			"0.016": 0.0,
			"0.017": 0.0,
			"0.018": 0.0,
			"0.019": 0.0,
			"0.02": 0.0,
			"0.021": 0.0,
			"0.022": 0.0,
			"0.023": 0.0,
			"0.024": 0.0,
			"0.025": 0.0
		}
	}
}
