{
	 "smiles": "FC1=C2NC(=O)C(=O)C2=C(Br)C=C1", 
	 "Tm": 548.15, 
	 "num_atms": 16, 
	 "gaussian": { 
		 "optdone": 1, 
		 "sigma_profile": "yes", 
		 "theory": "DFT", 
		 "functional": "B3LYP", 
		 "basiset": "6-31G**", 
		 "properties": { 
			 "R2extent": 4802.3646, 
			 "electric_dipole_moment_norm": 5.38622070194, 
			 "electric_quadrupole_moment_norm": 24.5098624303, 
			 "total_energy": -3183.08655632, 
			 "HOMO_LUMO_gap": 0.13895, 
			 "cosmo_polarized_energy": -14.81, 
			 "cosmo_cavitation_energy": 24.59, 
			 "cosmo_dispersion_energy": -18.35, 
			 "cosmo_repulsion_energy": 1.42, 
			 "cosmo_total_nonelectrostatic_energy": 7.65, 
			 "SMD_solvation_energy": 4.91 
		},
		"coords": [
			{
				"x": 0.2321217729,
				"y": -0.5306832854,
				"z": -3.1219501145,
				"element": "F" 
			},
			{
				"x": 0.2911315703,
				"y": -0.7266223311,
				"z": -1.7881758615,
				"element": "C" 
			},
			{
				"x": -0.0798460248,
				"y": -1.9543017599,
				"z": -1.2649499611,
				"element": "C" 
			},
			{
				"x": -0.530798547,
				"y": -3.0811362933,
				"z": -1.9516746731,
				"element": "N" 
			},
			{
				"x": -0.808324033,
				"y": -4.1295747736,
				"z": -1.0860655865,
				"element": "C" 
			},
			{
				"x": -1.2127859374,
				"y": -5.2306442997,
				"z": -1.3746071348,
				"element": "O" 
			},
			{
				"x": -0.4817667191,
				"y": -3.5725602316,
				"z": 0.3460811587,
				"element": "C" 
			},
			{
				"x": -0.6052329222,
				"y": -4.2129090489,
				"z": 1.3634719956,
				"element": "O" 
			},
			{
				"x": -0.0262486464,
				"y": -2.1817691519,
				"z": 0.1260012959,
				"element": "C" 
			},
			{
				"x": 0.4026314642,
				"y": -1.1649017152,
				"z": 0.9791133143,
				"element": "C" 
			},
			{
				"x": 0.487465678,
				"y": -1.4346123193,
				"z": 2.8526850817,
				"element": "Br" 
			},
			{
				"x": 0.7761272287,
				"y": 0.072687416,
				"z": 0.4466904171,
				"element": "C" 
			},
			{
				"x": 0.7184438088,
				"y": 0.285323045,
				"z": -0.9337773356,
				"element": "C" 
			},
			{
				"x": -0.6426949934,
				"y": -3.1312542276,
				"z": -2.9536463644,
				"element": "H" 
			},
			{
				"x": 1.1098508157,
				"y": 0.8653134773,
				"z": 1.1051513251,
				"element": "H" 
			},
			{
				"x": 1.0055254847,
				"y": 1.2411454991,
				"z": -1.359447557,
				"element": "H" 
			}
		],
		 "valence_orbital": [ 
			{
				"type": "occ",
				"energy": -0.32011,
				"method": "rhf"
			},
			{
				"type": "occ",
				"energy": -0.29965,
				"method": "rhf"
			},
			{
				"type": "occ",
				"energy": -0.27373,
				"method": "rhf"
			},
			{
				"type": "occ",
				"energy": -0.25691,
				"method": "rhf"
			},
			{
				"type": "occ",
				"energy": -0.24907,
				"method": "rhf"
			},
			{
				"type": "unocc",
				"energy": -0.11012,
				"method": "rhf"
			},
			{
				"type": "unocc",
				"energy": -0.03278,
				"method": "rhf"
			},
			{
				"type": "unocc",
				"energy": -0.01062,
				"method": "rhf"
			},
			{
				"type": "unocc",
				"energy": -0.00716,
				"method": "rhf"
			},
			{
				"type": "unocc",
				"energy": 0.06215,
				"method": "rhf"
			}
		],
		"cosmo_sigma_profile": { 
			"-0.025": 0.0,
			"-0.024": 0.0,
			"-0.023": 0.0,
			"-0.022": 0.0,
			"-0.021": 0.0,
			"-0.02": 0.0,
			"-0.019": 0.0,
			"-0.018": 0.000681013365365,
			"-0.017": 1.00326838811,
			"-0.016": 0.68866641203,
			"-0.015": 1.03414145508,
			"-0.014": 0.981730194791,
			"-0.013": 1.06756332066,
			"-0.012": 0.523363875137,
			"-0.011": 1.37278665693,
			"-0.01": 1.22328653993,
			"-0.009": 3.96578168626,
			"-0.008": 7.16254553489,
			"-0.007": 6.82337782887,
			"-0.006": 7.12149041224,
			"-0.005": 7.84971729419,
			"-0.004": 9.71510554647,
			"-0.003": 12.80255146,
			"-0.002": 18.2711603829,
			"-0.001": 17.1843332913,
			"0.0": 15.3163374574,
			"0.001": 13.0278301177,
			"0.002": 11.285274423,
			"0.003": 17.9256067074,
			"0.004": 8.24554347924,
			"0.005": 2.67640810429,
			"0.006": 3.2114094753,
			"0.007": 3.8433578823,
			"0.008": 4.43355469771,
			"0.009": 6.90604745021,
			"0.01": 9.10430701444,
			"0.011": 6.42021171247,
			"0.012": 1.3349035044,
			"0.013": 0.0,
			"0.014": 0.0,
			"0.015": 0.0,
			"0.016": 0.0,
			"0.017": 0.0,
			"0.018": 0.0,
			"0.019": 0.0,
			"0.02": 0.0,
			"0.021": 0.0,
			"0.022": 0.0,
			"0.023": 0.0,
			"0.024": 0.0,
			"0.025": 0.0
		}
	}
}
