{
	 "smiles": "CC1CC2=CC=CC=C2CC1C", 
	 "Tm": 268.15, 
	 "num_atms": 28, 
	 "gaussian": { 
		 "optdone": 1, 
		 "sigma_profile": "yes", 
		 "theory": "DFT", 
		 "functional": "B3LYP", 
		 "basiset": "6-31G**", 
		 "properties": { 
			 "R2extent": 2235.9444, 
			 "electric_dipole_moment_norm": 0.596110535052, 
			 "electric_quadrupole_moment_norm": 3.56111425961, 
			 "total_energy": -466.945898892, 
			 "HOMO_LUMO_gap": 0.23266, 
			 "cosmo_polarized_energy": -3.06, 
			 "cosmo_cavitation_energy": 27.92, 
			 "cosmo_dispersion_energy": -20.37, 
			 "cosmo_repulsion_energy": 1.61, 
			 "cosmo_total_nonelectrostatic_energy": 9.15, 
			 "SMD_solvation_energy": 4.2 
		},
		"coords": [
			{
				"x": 2.2012239318,
				"y": -0.8804705683,
				"z": 0.1903270614,
				"element": "C" 
			},
			{
				"x": 1.3514351844,
				"y": -0.2199789273,
				"z": -0.9072145061,
				"element": "C" 
			},
			{
				"x": 1.1293410151,
				"y": 1.2779559029,
				"z": -0.6229074427,
				"element": "C" 
			},
			{
				"x": 0.0566309587,
				"y": 1.5589263266,
				"z": 0.4155356844,
				"element": "C" 
			},
			{
				"x": -0.001105498,
				"y": 2.8210707094,
				"z": 1.0261231805,
				"element": "C" 
			},
			{
				"x": -0.9979829193,
				"y": 3.1393978705,
				"z": 1.9438649951,
				"element": "C" 
			},
			{
				"x": -1.9655422539,
				"y": 2.1845576641,
				"z": 2.2678488625,
				"element": "C" 
			},
			{
				"x": -1.9154876684,
				"y": 0.9280954482,
				"z": 1.671049898,
				"element": "C" 
			},
			{
				"x": -0.9127177849,
				"y": 0.5951011604,
				"z": 0.7476136984,
				"element": "C" 
			},
			{
				"x": -0.8657428568,
				"y": -0.8079314108,
				"z": 0.1667395444,
				"element": "C" 
			},
			{
				"x": -0.0085509615,
				"y": -0.9321153042,
				"z": -1.1076475446,
				"element": "C" 
			},
			{
				"x": -0.7619059861,
				"y": -0.4162510409,
				"z": -2.344283534,
				"element": "C" 
			},
			{
				"x": 1.7623826423,
				"y": -0.7440081489,
				"z": 1.1841691097,
				"element": "H" 
			},
			{
				"x": 3.2055089978,
				"y": -0.4437644978,
				"z": 0.2161062423,
				"element": "H" 
			},
			{
				"x": 2.3102026,
				"y": -1.9567948465,
				"z": 0.015086589,
				"element": "H" 
			},
			{
				"x": 1.9100057595,
				"y": -0.3020003329,
				"z": -1.8499190748,
				"element": "H" 
			},
			{
				"x": 2.0735754811,
				"y": 1.7403441013,
				"z": -0.3086458017,
				"element": "H" 
			},
			{
				"x": 0.8513275314,
				"y": 1.7861087356,
				"z": -1.5566972815,
				"element": "H" 
			},
			{
				"x": 0.7522153,
				"y": 3.5633632767,
				"z": 0.7701588745,
				"element": "H" 
			},
			{
				"x": -1.0215294349,
				"y": 4.1234218502,
				"z": 2.4037627645,
				"element": "H" 
			},
			{
				"x": -2.7520344669,
				"y": 2.4189676018,
				"z": 2.9797794811,
				"element": "H" 
			},
			{
				"x": -2.6661699494,
				"y": 0.1818429106,
				"z": 1.9232184328,
				"element": "H" 
			},
			{
				"x": -1.886761892,
				"y": -1.1544221288,
				"z": -0.0372294625,
				"element": "H" 
			},
			{
				"x": -0.4734352372,
				"y": -1.4893414881,
				"z": 0.9343606184,
				"element": "H" 
			},
			{
				"x": 0.1973762592,
				"y": -1.9993104453,
				"z": -1.269186854,
				"element": "H" 
			},
			{
				"x": -1.6501814384,
				"y": -1.0273563815,
				"z": -2.5378818458,
				"element": "H" 
			},
			{
				"x": -1.1006709774,
				"y": 0.6168415824,
				"z": -2.2144495917,
				"element": "H" 
			},
			{
				"x": -0.1301063361,
				"y": -0.4536496192,
				"z": -3.2389820976,
				"element": "H" 
			}
		],
		 "valence_orbital": [ 
			{
				"type": "occ",
				"energy": -0.31482,
				"method": "rhf"
			},
			{
				"type": "occ",
				"energy": -0.29727,
				"method": "rhf"
			},
			{
				"type": "occ",
				"energy": -0.29699,
				"method": "rhf"
			},
			{
				"type": "occ",
				"energy": -0.235,
				"method": "rhf"
			},
			{
				"type": "occ",
				"energy": -0.22852,
				"method": "rhf"
			},
			{
				"type": "unocc",
				"energy": 0.00414,
				"method": "rhf"
			},
			{
				"type": "unocc",
				"energy": 0.01091,
				"method": "rhf"
			},
			{
				"type": "unocc",
				"energy": 0.08108,
				"method": "rhf"
			},
			{
				"type": "unocc",
				"energy": 0.1081,
				"method": "rhf"
			},
			{
				"type": "unocc",
				"energy": 0.11758,
				"method": "rhf"
			}
		],
		"cosmo_sigma_profile": { 
			"-0.025": 0.0,
			"-0.024": 0.0,
			"-0.023": 0.0,
			"-0.022": 0.0,
			"-0.021": 0.0,
			"-0.02": 0.0,
			"-0.019": 0.0,
			"-0.018": 0.0,
			"-0.017": 0.0,
			"-0.016": 0.0,
			"-0.015": 0.0,
			"-0.014": 0.0,
			"-0.013": 0.0,
			"-0.012": 0.0,
			"-0.011": 0.0,
			"-0.01": 0.0,
			"-0.009": 0.0,
			"-0.008": 0.0,
			"-0.007": 0.0,
			"-0.006": 0.190764145113,
			"-0.005": 4.72697041486,
			"-0.004": 8.64659482887,
			"-0.003": 20.165985951,
			"-0.002": 37.2585544303,
			"-0.001": 37.1625204444,
			"0.0": 34.298729475,
			"0.001": 25.078892407,
			"0.002": 15.4970728844,
			"0.003": 6.43320900517,
			"0.004": 6.84802646285,
			"0.005": 6.84825685749,
			"0.006": 6.81067601127,
			"0.007": 6.20559417789,
			"0.008": 1.20996110331,
			"0.009": 0.0,
			"0.01": 0.0,
			"0.011": 0.0,
			"0.012": 0.0,
			"0.013": 0.0,
			"0.014": 0.0,
			"0.015": 0.0,
			"0.016": 0.0,
			"0.017": 0.0,
			"0.018": 0.0,
			"0.019": 0.0,
			"0.02": 0.0,
			"0.021": 0.0,
			"0.022": 0.0,
			"0.023": 0.0,
			"0.024": 0.0,
			"0.025": 0.0
		}
	}
}
