{
	 "smiles": "ClC(=O)C1=CC=C(C=C1)C1=CC=CC=C1", 
	 "Tm": 386.15, 
	 "num_atms": 24, 
	 "gaussian": { 
		 "optdone": 1, 
		 "sigma_profile": "yes", 
		 "theory": "DFT", 
		 "functional": "B3LYP", 
		 "basiset": "6-31G**", 
		 "properties": { 
			 "R2extent": 6140.7412, 
			 "electric_dipole_moment_norm": 5.10512658805, 
			 "electric_quadrupole_moment_norm": 20.2424569969, 
			 "total_energy": -1036.2418346, 
			 "HOMO_LUMO_gap": 0.16387, 
			 "cosmo_polarized_energy": -7.55, 
			 "cosmo_cavitation_energy": 30.5, 
			 "cosmo_dispersion_energy": -22.46, 
			 "cosmo_repulsion_energy": 1.73, 
			 "cosmo_total_nonelectrostatic_energy": 9.78, 
			 "SMD_solvation_energy": 5.57 
		},
		"coords": [
			{
				"x": -0.5235305575,
				"y": 2.29277201,
				"z": 5.3543580463,
				"element": "Cl" 
			},
			{
				"x": 0.7770531851,
				"y": 2.60791353,
				"z": 4.0960783289,
				"element": "C" 
			},
			{
				"x": 1.5406651471,
				"y": 3.5081111479,
				"z": 4.2795599161,
				"element": "O" 
			},
			{
				"x": 0.7630586166,
				"y": 1.6937031441,
				"z": 2.9342453708,
				"element": "C" 
			},
			{
				"x": -0.1552506931,
				"y": 0.648540912,
				"z": 2.7609306555,
				"element": "C" 
			},
			{
				"x": -0.0866292915,
				"y": -0.1591725372,
				"z": 1.6317626758,
				"element": "C" 
			},
			{
				"x": 0.8924873621,
				"y": 0.0483239358,
				"z": 0.6433098905,
				"element": "C" 
			},
			{
				"x": 1.8083993864,
				"y": 1.1016461944,
				"z": 0.8289576451,
				"element": "C" 
			},
			{
				"x": 1.7480579971,
				"y": 1.9115372966,
				"z": 1.953672147,
				"element": "C" 
			},
			{
				"x": 0.9585812739,
				"y": -0.8171941708,
				"z": -0.5590459517,
				"element": "C" 
			},
			{
				"x": 2.196449291,
				"y": -1.1841017058,
				"z": -1.1149912098,
				"element": "C" 
			},
			{
				"x": 2.2584684817,
				"y": -1.9995364272,
				"z": -2.2435893896,
				"element": "C" 
			},
			{
				"x": 1.0846342812,
				"y": -2.4616391479,
				"z": -2.8420545358,
				"element": "C" 
			},
			{
				"x": -0.1520779278,
				"y": -2.1033479829,
				"z": -2.3018872442,
				"element": "C" 
			},
			{
				"x": -0.2148259568,
				"y": -1.2910977583,
				"z": -1.1710476523,
				"element": "C" 
			},
			{
				"x": -0.9122595279,
				"y": 0.4653146473,
				"z": 3.5136750501,
				"element": "H" 
			},
			{
				"x": -0.7864160606,
				"y": -0.9817490446,
				"z": 1.525318395,
				"element": "H" 
			},
			{
				"x": 2.5565174515,
				"y": 1.3003277692,
				"z": 0.0681881166,
				"element": "H" 
			},
			{
				"x": 2.4498663612,
				"y": 2.7272353515,
				"z": 2.0882691479,
				"element": "H" 
			},
			{
				"x": 3.1156967236,
				"y": -0.8516689923,
				"z": -0.642067319,
				"element": "H" 
			},
			{
				"x": 3.2251346755,
				"y": -2.2803565235,
				"z": -2.6515056143,
				"element": "H" 
			},
			{
				"x": 1.1332317284,
				"y": -3.0957314458,
				"z": -3.7223665293,
				"element": "H" 
			},
			{
				"x": -1.0706039784,
				"y": -2.4505219051,
				"z": -2.7660902482,
				"element": "H" 
			},
			{
				"x": -1.1820079688,
				"y": -0.9969082976,
				"z": -0.7745796913,
				"element": "H" 
			}
		],
		 "valence_orbital": [ 
			{
				"type": "occ",
				"energy": -0.29418,
				"method": "rhf"
			},
			{
				"type": "occ",
				"energy": -0.29007,
				"method": "rhf"
			},
			{
				"type": "occ",
				"energy": -0.27432,
				"method": "rhf"
			},
			{
				"type": "occ",
				"energy": -0.26433,
				"method": "rhf"
			},
			{
				"type": "occ",
				"energy": -0.24453,
				"method": "rhf"
			},
			{
				"type": "unocc",
				"energy": -0.08066,
				"method": "rhf"
			},
			{
				"type": "unocc",
				"energy": -0.02393,
				"method": "rhf"
			},
			{
				"type": "unocc",
				"energy": -0.01647,
				"method": "rhf"
			},
			{
				"type": "unocc",
				"energy": -0.01495,
				"method": "rhf"
			},
			{
				"type": "unocc",
				"energy": 0.02164,
				"method": "rhf"
			}
		],
		"cosmo_sigma_profile": { 
			"-0.025": 0.0,
			"-0.024": 0.0,
			"-0.023": 0.0,
			"-0.022": 0.0,
			"-0.021": 0.0,
			"-0.02": 0.0,
			"-0.019": 0.0,
			"-0.018": 0.0,
			"-0.017": 0.0,
			"-0.016": 0.0,
			"-0.015": 0.0,
			"-0.014": 0.0,
			"-0.013": 0.0,
			"-0.012": 0.0,
			"-0.011": 0.0,
			"-0.01": 0.0,
			"-0.009": 0.0,
			"-0.008": 0.0391953612634,
			"-0.007": 4.82317084339,
			"-0.006": 17.3476713234,
			"-0.005": 17.9092498093,
			"-0.004": 18.890246651,
			"-0.003": 16.41458632,
			"-0.002": 15.219430323,
			"-0.001": 21.1863460555,
			"0.0": 17.3967711891,
			"0.001": 23.6995505539,
			"0.002": 26.9574995895,
			"0.003": 18.9352739317,
			"0.004": 17.7684132649,
			"0.005": 16.7499267111,
			"0.006": 3.78756476774,
			"0.007": 3.05399175307,
			"0.008": 3.65521003523,
			"0.009": 3.72440209881,
			"0.01": 0.625366357162,
			"0.011": 0.0,
			"0.012": 0.0,
			"0.013": 0.0,
			"0.014": 0.0,
			"0.015": 0.0,
			"0.016": 0.0,
			"0.017": 0.0,
			"0.018": 0.0,
			"0.019": 0.0,
			"0.02": 0.0,
			"0.021": 0.0,
			"0.022": 0.0,
			"0.023": 0.0,
			"0.024": 0.0,
			"0.025": 0.0
		}
	}
}
