{
	 "smiles": "CC1=CN=C(Cl)C(Br)=C1", 
	 "Tm": 340.15, 
	 "num_atms": 14, 
	 "gaussian": { 
		 "optdone": 1, 
		 "sigma_profile": "yes", 
		 "theory": "DFT", 
		 "functional": "B3LYP", 
		 "basiset": "6-31G**", 
		 "properties": { 
			 "R2extent": 4457.6764, 
			 "electric_dipole_moment_norm": 3.93313423366, 
			 "electric_quadrupole_moment_norm": 12.2034712599, 
			 "total_energy": -3317.99719813, 
			 "HOMO_LUMO_gap": 0.20714, 
			 "cosmo_polarized_energy": -6.69, 
			 "cosmo_cavitation_energy": 22.22, 
			 "cosmo_dispersion_energy": -17.09, 
			 "cosmo_repulsion_energy": 1.4, 
			 "cosmo_total_nonelectrostatic_energy": 6.53, 
			 "SMD_solvation_energy": 1.26 
		},
		"coords": [
			{
				"x": 0.7753495756,
				"y": -1.9126674969,
				"z": 0.0561316873,
				"element": "C" 
			},
			{
				"x": -0.6151769902,
				"y": -1.3358838894,
				"z": -0.0213314876,
				"element": "C" 
			},
			{
				"x": -1.54535375,
				"y": -1.7764689856,
				"z": -0.9660793454,
				"element": "C" 
			},
			{
				"x": -2.78824414,
				"y": -1.2931603446,
				"z": -1.0701241537,
				"element": "N" 
			},
			{
				"x": -3.177177388,
				"y": -0.3440356501,
				"z": -0.2406392088,
				"element": "C" 
			},
			{
				"x": -4.8173587044,
				"y": 0.2405657471,
				"z": -0.4356225252,
				"element": "Cl" 
			},
			{
				"x": -2.3337774258,
				"y": 0.1818548163,
				"z": 0.7525543494,
				"element": "C" 
			},
			{
				"x": -2.8840885091,
				"y": 1.5482755931,
				"z": 1.9510531003,
				"element": "Br" 
			},
			{
				"x": -1.0431624001,
				"y": -0.3283599547,
				"z": 0.8516479718,
				"element": "C" 
			},
			{
				"x": 0.9243512297,
				"y": -2.6837574165,
				"z": -0.7041471603,
				"element": "H" 
			},
			{
				"x": 0.9640765987,
				"y": -2.3659510092,
				"z": 1.0354520536,
				"element": "H" 
			},
			{
				"x": 1.5359868371,
				"y": -1.1392111561,
				"z": -0.0966198195,
				"element": "H" 
			},
			{
				"x": -1.280273135,
				"y": -2.5573527469,
				"z": -1.676333564,
				"element": "H" 
			},
			{
				"x": -0.3752517986,
				"y": 0.0638524934,
				"z": 1.611958102,
				"element": "H" 
			}
		],
		 "valence_orbital": [ 
			{
				"type": "occ",
				"energy": -0.32409,
				"method": "rhf"
			},
			{
				"type": "occ",
				"energy": -0.29667,
				"method": "rhf"
			},
			{
				"type": "occ",
				"energy": -0.28304,
				"method": "rhf"
			},
			{
				"type": "occ",
				"energy": -0.27621,
				"method": "rhf"
			},
			{
				"type": "occ",
				"energy": -0.25329,
				"method": "rhf"
			},
			{
				"type": "unocc",
				"energy": -0.04615,
				"method": "rhf"
			},
			{
				"type": "unocc",
				"energy": -0.03077,
				"method": "rhf"
			},
			{
				"type": "unocc",
				"energy": -0.01121,
				"method": "rhf"
			},
			{
				"type": "unocc",
				"energy": 0.0478,
				"method": "rhf"
			},
			{
				"type": "unocc",
				"energy": 0.09554,
				"method": "rhf"
			}
		],
		"cosmo_sigma_profile": { 
			"-0.025": 0.0,
			"-0.024": 0.0,
			"-0.023": 0.0,
			"-0.022": 0.0,
			"-0.021": 0.0,
			"-0.02": 0.0,
			"-0.019": 0.0,
			"-0.018": 0.0,
			"-0.017": 0.0,
			"-0.016": 0.0,
			"-0.015": 0.0,
			"-0.014": 0.0,
			"-0.013": 0.0,
			"-0.012": 0.0,
			"-0.011": 0.0,
			"-0.01": 0.0,
			"-0.009": 0.31629473967,
			"-0.008": 2.13213023715,
			"-0.007": 4.47916265259,
			"-0.006": 6.23832336935,
			"-0.005": 12.079819773,
			"-0.004": 11.1546300285,
			"-0.003": 11.981739517,
			"-0.002": 14.8413953634,
			"-0.001": 25.3909253166,
			"0.0": 21.1154699048,
			"0.001": 11.7115929244,
			"0.002": 11.965877236,
			"0.003": 14.9157700833,
			"0.004": 16.8962616005,
			"0.005": 6.87415363729,
			"0.006": 2.89675812807,
			"0.007": 1.96304115803,
			"0.008": 1.25327671743,
			"0.009": 1.00351398195,
			"0.01": 1.39740486276,
			"0.011": 1.08494583246,
			"0.012": 0.583507944788,
			"0.013": 0.971465689555,
			"0.014": 0.42403207227,
			"0.015": 0.0,
			"0.016": 0.0,
			"0.017": 0.0,
			"0.018": 0.0,
			"0.019": 0.0,
			"0.02": 0.0,
			"0.021": 0.0,
			"0.022": 0.0,
			"0.023": 0.0,
			"0.024": 0.0,
			"0.025": 0.0
		}
	}
}
