{
	 "smiles": "CCCN(CC)CC1COC2(CCC(CC2)C(C)(C)C)O1", 
	 "Tm": 298.15, 
	 "num_atms": 56, 
	 "gaussian": { 
		 "optdone": 1, 
		 "sigma_profile": "yes", 
		 "theory": "DFT", 
		 "functional": "B3LYP", 
		 "basiset": "6-31G**", 
		 "properties": { 
			 "R2extent": 11054.6832, 
			 "electric_dipole_moment_norm": 1.40979987942, 
			 "electric_quadrupole_moment_norm": 5.16711045363, 
			 "total_energy": -912.216321904, 
			 "HOMO_LUMO_gap": 0.28672, 
			 "cosmo_polarized_energy": -6.87, 
			 "cosmo_cavitation_energy": 51.34, 
			 "cosmo_dispersion_energy": -34.83, 
			 "cosmo_repulsion_energy": 2.69, 
			 "cosmo_total_nonelectrostatic_energy": 19.2, 
			 "SMD_solvation_energy": 6.29 
		},
		"coords": [
			{
				"x": 5.3282439148,
				"y": -3.1986062265,
				"z": -0.9269640904,
				"element": "C" 
			},
			{
				"x": 4.1606332163,
				"y": -2.8959755618,
				"z": -1.8717693755,
				"element": "C" 
			},
			{
				"x": 2.8008743407,
				"y": -3.234312964,
				"z": -1.2487550023,
				"element": "C" 
			},
			{
				"x": 1.6668768455,
				"y": -2.935936318,
				"z": -2.1315724612,
				"element": "N" 
			},
			{
				"x": 1.4592406326,
				"y": -3.9717448188,
				"z": -3.1517541333,
				"element": "C" 
			},
			{
				"x": 0.7639291396,
				"y": -3.4411854696,
				"z": -4.4062555146,
				"element": "C" 
			},
			{
				"x": 0.4402110128,
				"y": -2.6010195675,
				"z": -1.4029679311,
				"element": "C" 
			},
			{
				"x": 0.2848592129,
				"y": -1.0962765624,
				"z": -1.1785234262,
				"element": "C" 
			},
			{
				"x": 1.1546118896,
				"y": -0.4360856764,
				"z": -0.1089779174,
				"element": "C" 
			},
			{
				"x": 0.3830431771,
				"y": 0.6984580616,
				"z": 0.2615682231,
				"element": "O" 
			},
			{
				"x": -1.0025489427,
				"y": 0.3389663695,
				"z": 0.1280208682,
				"element": "C" 
			},
			{
				"x": -1.7192547834,
				"y": 1.4932077586,
				"z": -0.5677086848,
				"element": "C" 
			},
			{
				"x": -1.6161966772,
				"y": 2.8041611042,
				"z": 0.2464945644,
				"element": "C" 
			},
			{
				"x": -1.5751089703,
				"y": 2.5707222132,
				"z": 1.7835739324,
				"element": "C" 
			},
			{
				"x": -2.3445861371,
				"y": 1.2744605166,
				"z": 2.1109960108,
				"element": "C" 
			},
			{
				"x": -1.6471050548,
				"y": 0.0412816415,
				"z": 1.4966724129,
				"element": "C" 
			},
			{
				"x": -2.0064033597,
				"y": 3.8190164012,
				"z": 2.6238654102,
				"element": "C" 
			},
			{
				"x": -3.5196668525,
				"y": 4.0983372351,
				"z": 2.5189785456,
				"element": "C" 
			},
			{
				"x": -1.6464625306,
				"y": 3.59403048,
				"z": 4.1085777707,
				"element": "C" 
			},
			{
				"x": -1.230603878,
				"y": 5.0631525704,
				"z": 2.1397957619,
				"element": "C" 
			},
			{
				"x": -1.0268001611,
				"y": -0.8545181376,
				"z": -0.6598696251,
				"element": "O" 
			},
			{
				"x": 5.2465478628,
				"y": -2.6268988938,
				"z": 0.0048070592,
				"element": "H" 
			},
			{
				"x": 5.3605541987,
				"y": -4.260976476,
				"z": -0.659354263,
				"element": "H" 
			},
			{
				"x": 6.2877312953,
				"y": -2.9439666151,
				"z": -1.3876905517,
				"element": "H" 
			},
			{
				"x": 4.2958667013,
				"y": -3.4548707158,
				"z": -2.8059333831,
				"element": "H" 
			},
			{
				"x": 4.1582773174,
				"y": -1.8350940985,
				"z": -2.149143554,
				"element": "H" 
			},
			{
				"x": 2.6890315027,
				"y": -2.6408578549,
				"z": -0.3352645278,
				"element": "H" 
			},
			{
				"x": 2.7921696355,
				"y": -4.2929941941,
				"z": -0.9222483311,
				"element": "H" 
			},
			{
				"x": 0.897006372,
				"y": -4.8330469122,
				"z": -2.7426713455,
				"element": "H" 
			},
			{
				"x": 2.441299292,
				"y": -4.359529266,
				"z": -3.4391004014,
				"element": "H" 
			},
			{
				"x": -0.2364667277,
				"y": -3.0530898049,
				"z": -4.1887527546,
				"element": "H" 
			},
			{
				"x": 1.3485470257,
				"y": -2.6302230793,
				"z": -4.8505975154,
				"element": "H" 
			},
			{
				"x": 0.652170578,
				"y": -4.239595892,
				"z": -5.1477307896,
				"element": "H" 
			},
			{
				"x": 0.3660963007,
				"y": -3.1266667771,
				"z": -0.4354491448,
				"element": "H" 
			},
			{
				"x": -0.4271328196,
				"y": -2.9187042208,
				"z": -1.9888064912,
				"element": "H" 
			},
			{
				"x": 0.4236750408,
				"y": -0.5813971892,
				"z": -2.1408077007,
				"element": "H" 
			},
			{
				"x": 1.3035022811,
				"y": -1.1136504034,
				"z": 0.7478061691,
				"element": "H" 
			},
			{
				"x": 2.1271614167,
				"y": -0.0918361329,
				"z": -0.4692373035,
				"element": "H" 
			},
			{
				"x": -1.3021092816,
				"y": 1.6232501358,
				"z": -1.5710315148,
				"element": "H" 
			},
			{
				"x": -2.7669565194,
				"y": 1.196001597,
				"z": -0.6915722139,
				"element": "H" 
			},
			{
				"x": -0.7157447039,
				"y": 3.3441631608,
				"z": -0.0579967103,
				"element": "H" 
			},
			{
				"x": -2.4678019839,
				"y": 3.4405007475,
				"z": -0.020636107,
				"element": "H" 
			},
			{
				"x": -0.5236401233,
				"y": 2.3839856154,
				"z": 2.04301385,
				"element": "H" 
			},
			{
				"x": -3.3672416827,
				"y": 1.3485330025,
				"z": 1.7196076763,
				"element": "H" 
			},
			{
				"x": -2.4432383102,
				"y": 1.127366231,
				"z": 3.1906874125,
				"element": "H" 
			},
			{
				"x": -2.3649267218,
				"y": -0.7740219768,
				"z": 1.3612342158,
				"element": "H" 
			},
			{
				"x": -0.858751739,
				"y": -0.3274470077,
				"z": 2.1625154057,
				"element": "H" 
			},
			{
				"x": -4.1140346642,
				"y": 3.2737762724,
				"z": 2.9256953827,
				"element": "H" 
			},
			{
				"x": -3.7797722399,
				"y": 5.000010347,
				"z": 3.0849974801,
				"element": "H" 
			},
			{
				"x": -3.8375612466,
				"y": 4.2616667597,
				"z": 1.4837141714,
				"element": "H" 
			},
			{
				"x": -1.8848312096,
				"y": 4.4850991226,
				"z": 4.7003254196,
				"element": "H" 
			},
			{
				"x": -0.5758687057,
				"y": 3.3918699984,
				"z": 4.2286027953,
				"element": "H" 
			},
			{
				"x": -2.1971360979,
				"y": 2.7565913861,
				"z": 4.5479226996,
				"element": "H" 
			},
			{
				"x": -1.4967461726,
				"y": 5.3428588116,
				"z": 1.1161919808,
				"element": "H" 
			},
			{
				"x": -1.4482584571,
				"y": 5.9237750068,
				"z": 2.7824107162,
				"element": "H" 
			},
			{
				"x": -0.1483034483,
				"y": 4.8907862669,
				"z": 2.1701668311,
				"element": "H" 
			}
		],
		 "valence_orbital": [ 
			{
				"type": "occ",
				"energy": -0.29305,
				"method": "rhf"
			},
			{
				"type": "occ",
				"energy": -0.28914,
				"method": "rhf"
			},
			{
				"type": "occ",
				"energy": -0.25962,
				"method": "rhf"
			},
			{
				"type": "occ",
				"energy": -0.23883,
				"method": "rhf"
			},
			{
				"type": "occ",
				"energy": -0.21067,
				"method": "rhf"
			},
			{
				"type": "unocc",
				"energy": 0.07605,
				"method": "rhf"
			},
			{
				"type": "unocc",
				"energy": 0.07962,
				"method": "rhf"
			},
			{
				"type": "unocc",
				"energy": 0.09479,
				"method": "rhf"
			},
			{
				"type": "unocc",
				"energy": 0.09805,
				"method": "rhf"
			},
			{
				"type": "unocc",
				"energy": 0.10053,
				"method": "rhf"
			}
		],
		"cosmo_sigma_profile": { 
			"-0.025": 0.0,
			"-0.024": 0.0,
			"-0.023": 0.0,
			"-0.022": 0.0,
			"-0.021": 0.0,
			"-0.02": 0.0,
			"-0.019": 0.0,
			"-0.018": 0.0,
			"-0.017": 0.0,
			"-0.016": 0.0,
			"-0.015": 0.0,
			"-0.014": 0.0,
			"-0.013": 0.0,
			"-0.012": 0.0,
			"-0.011": 0.0,
			"-0.01": 0.0,
			"-0.009": 0.0,
			"-0.008": 0.0,
			"-0.007": 0.0,
			"-0.006": 0.256398046332,
			"-0.005": 3.9990345072,
			"-0.004": 12.9306802508,
			"-0.003": 34.9647074875,
			"-0.002": 66.7622649263,
			"-0.001": 79.3100181095,
			"0.0": 66.714793684,
			"0.001": 55.5040933736,
			"0.002": 31.7240138704,
			"0.003": 7.88762214043,
			"0.004": 4.35046070521,
			"0.005": 4.6630704618,
			"0.006": 3.83200110289,
			"0.007": 3.34487264903,
			"0.008": 4.28663626341,
			"0.009": 3.90747892361,
			"0.01": 2.52729003695,
			"0.011": 2.91724132625,
			"0.012": 2.21134856272,
			"0.013": 0.658663978352,
			"0.014": 0.0656602997391,
			"0.015": 0.0,
			"0.016": 0.0,
			"0.017": 0.0,
			"0.018": 0.0,
			"0.019": 0.0,
			"0.02": 0.0,
			"0.021": 0.0,
			"0.022": 0.0,
			"0.023": 0.0,
			"0.024": 0.0,
			"0.025": 0.0
		}
	}
}
