{
	 "smiles": "CC(=O)C1=CC=C(NC(=O)NC2CC2)C=C1", 
	 "Tm": 435.15, 
	 "num_atms": 30, 
	 "gaussian": { 
		 "optdone": 1, 
		 "sigma_profile": "yes", 
		 "theory": "DFT", 
		 "functional": "B3LYP", 
		 "basiset": "6-31G**", 
		 "properties": { 
			 "R2extent": 5496.5481, 
			 "electric_dipole_moment_norm": 3.15368048318, 
			 "electric_quadrupole_moment_norm": 21.8996743798, 
			 "total_energy": -725.661593451, 
			 "HOMO_LUMO_gap": 0.17234, 
			 "cosmo_polarized_energy": -18.71, 
			 "cosmo_cavitation_energy": 34.31, 
			 "cosmo_dispersion_energy": -24.47, 
			 "cosmo_repulsion_energy": 1.93, 
			 "cosmo_total_nonelectrostatic_energy": 11.77, 
			 "SMD_solvation_energy": 6.5 
		},
		"coords": [
			{
				"x": -1.4115359898,
				"y": -2.2747755063,
				"z": -4.1182826895,
				"element": "C" 
			},
			{
				"x": -0.2156903773,
				"y": -2.7082757877,
				"z": -3.2851341251,
				"element": "C" 
			},
			{
				"x": 0.5631998413,
				"y": -3.5503763067,
				"z": -3.7098550807,
				"element": "O" 
			},
			{
				"x": -0.0097491268,
				"y": -2.0884946546,
				"z": -1.9417770435,
				"element": "C" 
			},
			{
				"x": 1.0993894946,
				"y": -2.4955335373,
				"z": -1.1794437123,
				"element": "C" 
			},
			{
				"x": 1.3499810507,
				"y": -1.9475397858,
				"z": 0.0670596248,
				"element": "C" 
			},
			{
				"x": 0.490246096,
				"y": -0.9699672821,
				"z": 0.6088598109,
				"element": "C" 
			},
			{
				"x": 0.7702707478,
				"y": -0.4726135855,
				"z": 1.8852269329,
				"element": "N" 
			},
			{
				"x": 0.5182703953,
				"y": 0.7671150787,
				"z": 2.496892212,
				"element": "C" 
			},
			{
				"x": 0.7164231304,
				"y": 0.9003576794,
				"z": 3.6957210146,
				"element": "O" 
			},
			{
				"x": 0.0904802317,
				"y": 1.7772543892,
				"z": 1.675002818,
				"element": "N" 
			},
			{
				"x": -0.2167993252,
				"y": 3.0820396788,
				"z": 2.1895043659,
				"element": "C" 
			},
			{
				"x": 0.8938267668,
				"y": 3.9716845177,
				"z": 2.6807353805,
				"element": "C" 
			},
			{
				"x": 0.2064157265,
				"y": 4.2764162344,
				"z": 1.3727581768,
				"element": "C" 
			},
			{
				"x": -0.6390998872,
				"y": -0.5802916012,
				"z": -0.1353451092,
				"element": "C" 
			},
			{
				"x": -0.8708506086,
				"y": -1.1271726187,
				"z": -1.3949368607,
				"element": "C" 
			},
			{
				"x": -2.3517072287,
				"y": -2.4790731504,
				"z": -3.5938422073,
				"element": "H" 
			},
			{
				"x": -1.3972355367,
				"y": -2.8248562355,
				"z": -5.0594902611,
				"element": "H" 
			},
			{
				"x": -1.3799217237,
				"y": -1.1994481049,
				"z": -4.3258363517,
				"element": "H" 
			},
			{
				"x": 1.7615863789,
				"y": -3.2438313644,
				"z": -1.6021620842,
				"element": "H" 
			},
			{
				"x": 2.2224750892,
				"y": -2.2582801789,
				"z": 0.6357470605,
				"element": "H" 
			},
			{
				"x": 1.3019593739,
				"y": -1.0692446346,
				"z": 2.5040476498,
				"element": "H" 
			},
			{
				"x": 0.0490248547,
				"y": 1.6270539326,
				"z": 0.6788064332,
				"element": "H" 
			},
			{
				"x": -1.1667751059,
				"y": 3.1488645328,
				"z": 2.7162130298,
				"element": "H" 
			},
			{
				"x": 0.6898092691,
				"y": 4.6018024352,
				"z": 3.5401815455,
				"element": "H" 
			},
			{
				"x": 1.8989738091,
				"y": 3.5666629604,
				"z": 2.6445085978,
				"element": "H" 
			},
			{
				"x": 0.7617023768,
				"y": 4.0893435645,
				"z": 0.4576735073,
				"element": "H" 
			},
			{
				"x": -0.4745089149,
				"y": 5.1198185134,
				"z": 1.317177549,
				"element": "H" 
			},
			{
				"x": -1.3576057524,
				"y": 0.1112141567,
				"z": 0.2897200759,
				"element": "H" 
			},
			{
				"x": -1.7529550556,
				"y": -0.8087533389,
				"z": -1.9414302599,
				"element": "H" 
			}
		],
		 "valence_orbital": [ 
			{
				"type": "occ",
				"energy": -0.27089,
				"method": "rhf"
			},
			{
				"type": "occ",
				"energy": -0.26336,
				"method": "rhf"
			},
			{
				"type": "occ",
				"energy": -0.25396,
				"method": "rhf"
			},
			{
				"type": "occ",
				"energy": -0.24811,
				"method": "rhf"
			},
			{
				"type": "occ",
				"energy": -0.22899,
				"method": "rhf"
			},
			{
				"type": "unocc",
				"energy": -0.05665,
				"method": "rhf"
			},
			{
				"type": "unocc",
				"energy": -0.02162,
				"method": "rhf"
			},
			{
				"type": "unocc",
				"energy": 0.02586,
				"method": "rhf"
			},
			{
				"type": "unocc",
				"energy": 0.06465,
				"method": "rhf"
			},
			{
				"type": "unocc",
				"energy": 0.0835,
				"method": "rhf"
			}
		],
		"cosmo_sigma_profile": { 
			"-0.025": 0.0,
			"-0.024": 0.0,
			"-0.023": 0.0,
			"-0.022": 0.0,
			"-0.021": 0.0,
			"-0.02": 0.0,
			"-0.019": 0.0,
			"-0.018": 0.0,
			"-0.017": 0.0,
			"-0.016": 0.0,
			"-0.015": 0.0315861100391,
			"-0.014": 1.00988575263,
			"-0.013": 1.27551785769,
			"-0.012": 1.30699474976,
			"-0.011": 2.08052764775,
			"-0.01": 2.35137222956,
			"-0.009": 2.54638400902,
			"-0.008": 3.19290482592,
			"-0.007": 5.97490503674,
			"-0.006": 14.4892623085,
			"-0.005": 23.1896259323,
			"-0.004": 23.5412896824,
			"-0.003": 20.2613540022,
			"-0.002": 20.1477550973,
			"-0.001": 21.9210416752,
			"0.0": 21.0192868464,
			"0.001": 18.307186687,
			"0.002": 16.4679405499,
			"0.003": 17.0582154461,
			"0.004": 11.6957086287,
			"0.005": 4.37809483787,
			"0.006": 3.86908518745,
			"0.007": 2.94051004262,
			"0.008": 2.44431947056,
			"0.009": 3.18621682872,
			"0.01": 3.54805456172,
			"0.011": 4.63673962791,
			"0.012": 5.41917131088,
			"0.013": 5.92895168768,
			"0.014": 6.54056616809,
			"0.015": 1.32339962547,
			"0.016": 0.0,
			"0.017": 0.0,
			"0.018": 0.0,
			"0.019": 0.0,
			"0.02": 0.0,
			"0.021": 0.0,
			"0.022": 0.0,
			"0.023": 0.0,
			"0.024": 0.0,
			"0.025": 0.0
		}
	}
}
