{
	 "smiles": "OC(=O)C1CC2=C(CN1)C=CC=C2", 
	 "Tm": 573.15, 
	 "num_atms": 24, 
	 "gaussian": { 
		 "optdone": 1, 
		 "sigma_profile": "yes", 
		 "theory": "DFT", 
		 "functional": "B3LYP", 
		 "basiset": "6-31G**", 
		 "properties": { 
			 "R2extent": 2953.1013, 
			 "electric_dipole_moment_norm": 1.62270509027, 
			 "electric_quadrupole_moment_norm": 10.7538054427, 
			 "total_energy": -592.904433118, 
			 "HOMO_LUMO_gap": 0.21884, 
			 "cosmo_polarized_energy": -11.15, 
			 "cosmo_cavitation_energy": 26.67, 
			 "cosmo_dispersion_energy": -19.52, 
			 "cosmo_repulsion_energy": 1.54, 
			 "cosmo_total_nonelectrostatic_energy": 8.7, 
			 "SMD_solvation_energy": 2.62 
		},
		"coords": [
			{
				"x": -4.269872394,
				"y": 1.3448135399,
				"z": -0.3946690834,
				"element": "O" 
			},
			{
				"x": -3.3788560274,
				"y": 0.7364676156,
				"z": -1.2094320847,
				"element": "C" 
			},
			{
				"x": -2.9153643588,
				"y": 1.2769159256,
				"z": -2.1908463657,
				"element": "O" 
			},
			{
				"x": -3.0690961314,
				"y": -0.6885721412,
				"z": -0.7566688345,
				"element": "C" 
			},
			{
				"x": -2.428262295,
				"y": -0.6813684888,
				"z": 0.665253072,
				"element": "C" 
			},
			{
				"x": -0.9701335053,
				"y": -0.3077016851,
				"z": 0.599377407,
				"element": "C" 
			},
			{
				"x": -0.2104630962,
				"y": -0.9599516765,
				"z": -0.3879562843,
				"element": "C" 
			},
			{
				"x": -0.9745681771,
				"y": -1.9183869339,
				"z": -1.2746795622,
				"element": "C" 
			},
			{
				"x": -2.2446253542,
				"y": -1.3555746764,
				"z": -1.7688109206,
				"element": "N" 
			},
			{
				"x": 1.1490138388,
				"y": -0.6731406467,
				"z": -0.5184568047,
				"element": "C" 
			},
			{
				"x": 1.7575458282,
				"y": 0.2504942185,
				"z": 0.3356389164,
				"element": "C" 
			},
			{
				"x": 1.0024604382,
				"y": 0.9001568053,
				"z": 1.3136288588,
				"element": "C" 
			},
			{
				"x": -0.3618101547,
				"y": 0.6254925809,
				"z": 1.4405667057,
				"element": "C" 
			},
			{
				"x": -4.4107585321,
				"y": 2.2342645568,
				"z": -0.7601192977,
				"element": "H" 
			},
			{
				"x": -4.0468056803,
				"y": -1.1861406482,
				"z": -0.6676892743,
				"element": "H" 
			},
			{
				"x": -2.5321857209,
				"y": -1.6970266277,
				"z": 1.0699598015,
				"element": "H" 
			},
			{
				"x": -2.9953758298,
				"y": -0.0191782913,
				"z": 1.3238467179,
				"element": "H" 
			},
			{
				"x": -1.1959020747,
				"y": -2.8440737975,
				"z": -0.7235845813,
				"element": "H" 
			},
			{
				"x": -0.3801700864,
				"y": -2.2149528597,
				"z": -2.1440529426,
				"element": "H" 
			},
			{
				"x": -2.0349111938,
				"y": -0.6621639408,
				"z": -2.4836796127,
				"element": "H" 
			},
			{
				"x": 1.7340315919,
				"y": -1.1709032599,
				"z": -1.2885335034,
				"element": "H" 
			},
			{
				"x": 2.8169691946,
				"y": 0.4678905347,
				"z": 0.2326704611,
				"element": "H" 
			},
			{
				"x": 1.4727343049,
				"y": 1.6237789994,
				"z": 1.9733647687,
				"element": "H" 
			},
			{
				"x": -0.9527945845,
				"y": 1.1353608972,
				"z": 2.1978724428,
				"element": "H" 
			}
		],
		 "valence_orbital": [ 
			{
				"type": "occ",
				"energy": -0.32557,
				"method": "rhf"
			},
			{
				"type": "occ",
				"energy": -0.28487,
				"method": "rhf"
			},
			{
				"type": "occ",
				"energy": -0.24636,
				"method": "rhf"
			},
			{
				"type": "occ",
				"energy": -0.23888,
				"method": "rhf"
			},
			{
				"type": "occ",
				"energy": -0.21982,
				"method": "rhf"
			},
			{
				"type": "unocc",
				"energy": -0.00098,
				"method": "rhf"
			},
			{
				"type": "unocc",
				"energy": 0.00153,
				"method": "rhf"
			},
			{
				"type": "unocc",
				"energy": 0.00223,
				"method": "rhf"
			},
			{
				"type": "unocc",
				"energy": 0.06946,
				"method": "rhf"
			},
			{
				"type": "unocc",
				"energy": 0.09713,
				"method": "rhf"
			}
		],
		"cosmo_sigma_profile": { 
			"-0.025": 0.0,
			"-0.024": 0.0,
			"-0.023": 0.0,
			"-0.022": 0.0,
			"-0.021": 0.0,
			"-0.02": 0.0,
			"-0.019": 0.269068378807,
			"-0.018": 0.978101786431,
			"-0.017": 0.81196794365,
			"-0.016": 1.09884629219,
			"-0.015": 0.620424063705,
			"-0.014": 0.22656723263,
			"-0.013": 0.124997748019,
			"-0.012": 1.15003190912,
			"-0.011": 1.10593965027,
			"-0.01": 0.763624350632,
			"-0.009": 0.566418485018,
			"-0.008": 0.868179678127,
			"-0.007": 2.20713393486,
			"-0.006": 4.00915417623,
			"-0.005": 20.9281398173,
			"-0.004": 22.8399205513,
			"-0.003": 19.7685412069,
			"-0.002": 16.9244615039,
			"-0.001": 16.2875163851,
			"0.0": 11.0536529415,
			"0.001": 11.6394789974,
			"0.002": 10.0940585413,
			"0.003": 10.8353066535,
			"0.004": 11.3584550803,
			"0.005": 10.3491277319,
			"0.006": 10.1055450271,
			"0.007": 4.59756046769,
			"0.008": 3.87591101971,
			"0.009": 2.76666703692,
			"0.01": 3.50052111629,
			"0.011": 4.5243388101,
			"0.012": 1.30630363769,
			"0.013": 0.328196597416,
			"0.014": 0.889970027562,
			"0.015": 0.608275137832,
			"0.016": 0.519784904509,
			"0.017": 0.444353754976,
			"0.018": 0.190051130125,
			"0.019": 0.0,
			"0.02": 0.0,
			"0.021": 0.0,
			"0.022": 0.0,
			"0.023": 0.0,
			"0.024": 0.0,
			"0.025": 0.0
		}
	}
}
