{
	 "smiles": "CN(C)CCC=C1C2=CC=CC=C2COC2=CC=C(CC(O)=O)C=C12", 
	 "Tm": 521.15, 
	 "num_atms": 48, 
	 "gaussian": { 
		 "optdone": 1, 
		 "sigma_profile": "yes", 
		 "theory": "DFT", 
		 "functional": "B3LYP", 
		 "basiset": "6-31G**", 
		 "properties": { 
			 "R2extent": 11827.6895, 
			 "electric_dipole_moment_norm": 0.550812572478, 
			 "electric_quadrupole_moment_norm": 15.291709992, 
			 "total_energy": -1094.50747078, 
			 "HOMO_LUMO_gap": 0.17664, 
			 "cosmo_polarized_energy": -15.43, 
			 "cosmo_cavitation_energy": 50.3, 
			 "cosmo_dispersion_energy": -34.08, 
			 "cosmo_repulsion_energy": 2.63, 
			 "cosmo_total_nonelectrostatic_energy": 18.86, 
			 "SMD_solvation_energy": 6.87 
		},
		"coords": [
			{
				"x": -2.3442502631,
				"y": -1.9385947986,
				"z": -4.0502148854,
				"element": "C" 
			},
			{
				"x": -0.9396410468,
				"y": -2.1077144108,
				"z": -3.6985713096,
				"element": "N" 
			},
			{
				"x": -0.5608209541,
				"y": -3.5138780429,
				"z": -3.7556204106,
				"element": "C" 
			},
			{
				"x": -0.6058746769,
				"y": -1.5211126736,
				"z": -2.4006865452,
				"element": "C" 
			},
			{
				"x": -0.6501276782,
				"y": 0.0184368602,
				"z": -2.3998334943,
				"element": "C" 
			},
			{
				"x": -0.0830842652,
				"y": 0.5806001932,
				"z": -1.1260763056,
				"element": "C" 
			},
			{
				"x": -0.6638093774,
				"y": 1.4447451843,
				"z": -0.2671670175,
				"element": "C" 
			},
			{
				"x": -2.0230409536,
				"y": 2.0215706821,
				"z": -0.4875305802,
				"element": "C" 
			},
			{
				"x": -2.3369622767,
				"y": 2.7760905174,
				"z": -1.6253500325,
				"element": "C" 
			},
			{
				"x": -3.6162480072,
				"y": 3.3098649227,
				"z": -1.7951554111,
				"element": "C" 
			},
			{
				"x": -4.5960921526,
				"y": 3.1027546271,
				"z": -0.823972316,
				"element": "C" 
			},
			{
				"x": -4.2877944633,
				"y": 2.3643116058,
				"z": 0.3201297139,
				"element": "C" 
			},
			{
				"x": -3.0121586619,
				"y": 1.8242323299,
				"z": 0.4941673713,
				"element": "C" 
			},
			{
				"x": -2.6402331451,
				"y": 1.0386140784,
				"z": 1.7222003311,
				"element": "C" 
			},
			{
				"x": -1.7804512062,
				"y": 1.7750410323,
				"z": 2.6026210264,
				"element": "O" 
			},
			{
				"x": -0.4880141054,
				"y": 2.0445727154,
				"z": 2.2408365877,
				"element": "C" 
			},
			{
				"x": 0.3034218711,
				"y": 2.4994673037,
				"z": 3.3042480244,
				"element": "C" 
			},
			{
				"x": 1.6446372871,
				"y": 2.8080571213,
				"z": 3.1226424389,
				"element": "C" 
			},
			{
				"x": 2.2353411478,
				"y": 2.6772106016,
				"z": 1.8609123933,
				"element": "C" 
			},
			{
				"x": 3.6893781032,
				"y": 3.0316973094,
				"z": 1.6477564203,
				"element": "C" 
			},
			{
				"x": 4.5540852607,
				"y": 1.8794670363,
				"z": 1.1582638473,
				"element": "C" 
			},
			{
				"x": 5.8397240744,
				"y": 2.0293431859,
				"z": 1.5628560955,
				"element": "O" 
			},
			{
				"x": 4.1974314946,
				"y": 0.9546536211,
				"z": 0.4632667102,
				"element": "O" 
			},
			{
				"x": 1.4362872372,
				"y": 2.2395703747,
				"z": 0.8051047926,
				"element": "C" 
			},
			{
				"x": 0.0783084396,
				"y": 1.9009469687,
				"z": 0.950752032,
				"element": "C" 
			},
			{
				"x": -2.5273179282,
				"y": -2.3701906117,
				"z": -5.0394606085,
				"element": "H" 
			},
			{
				"x": -3.0336622066,
				"y": -2.4269982775,
				"z": -3.3330266915,
				"element": "H" 
			},
			{
				"x": -2.6053612501,
				"y": -0.8784775928,
				"z": -4.0996789182,
				"element": "H" 
			},
			{
				"x": 0.510426312,
				"y": -3.6196850814,
				"z": -3.5565763491,
				"element": "H" 
			},
			{
				"x": -1.1069287415,
				"y": -4.1475827108,
				"z": -3.0292005292,
				"element": "H" 
			},
			{
				"x": -0.7589838421,
				"y": -3.908617722,
				"z": -4.757621964,
				"element": "H" 
			},
			{
				"x": -1.2595314368,
				"y": -1.9075109132,
				"z": -1.5922098039,
				"element": "H" 
			},
			{
				"x": 0.4142302645,
				"y": -1.8369541429,
				"z": -2.1507243759,
				"element": "H" 
			},
			{
				"x": -0.0554521731,
				"y": 0.3610355075,
				"z": -3.258922172,
				"element": "H" 
			},
			{
				"x": -1.6705447207,
				"y": 0.3767138337,
				"z": -2.5545788833,
				"element": "H" 
			},
			{
				"x": 0.9052404775,
				"y": 0.2071360775,
				"z": -0.8572455419,
				"element": "H" 
			},
			{
				"x": -1.5698058889,
				"y": 2.9527638166,
				"z": -2.3732435674,
				"element": "H" 
			},
			{
				"x": -3.8434777178,
				"y": 3.8919141682,
				"z": -2.683825821,
				"element": "H" 
			},
			{
				"x": -5.59141434,
				"y": 3.5179013219,
				"z": -0.9524849531,
				"element": "H" 
			},
			{
				"x": -5.0444270589,
				"y": 2.2031637943,
				"z": 1.0841722236,
				"element": "H" 
			},
			{
				"x": -3.5217566489,
				"y": 0.8148396524,
				"z": 2.3274248494,
				"element": "H" 
			},
			{
				"x": -2.1559916937,
				"y": 0.0915015073,
				"z": 1.450353392,
				"element": "H" 
			},
			{
				"x": -0.1670107827,
				"y": 2.5876345727,
				"z": 4.2780207961,
				"element": "H" 
			},
			{
				"x": 2.233949057,
				"y": 3.1541036191,
				"z": 3.9681195201,
				"element": "H" 
			},
			{
				"x": 4.1348116937,
				"y": 3.4362963051,
				"z": 2.5601472494,
				"element": "H" 
			},
			{
				"x": 3.7916465936,
				"y": 3.8188205742,
				"z": 0.8862704354,
				"element": "H" 
			},
			{
				"x": 6.3314506571,
				"y": 1.2855661282,
				"z": 1.1749118527,
				"element": "H" 
			},
			{
				"x": 1.8710996926,
				"y": 2.1635778281,
				"z": -0.1849996163,
				"element": "H" 
			}
		],
		 "valence_orbital": [ 
			{
				"type": "occ",
				"energy": -0.25097,
				"method": "rhf"
			},
			{
				"type": "occ",
				"energy": -0.24151,
				"method": "rhf"
			},
			{
				"type": "occ",
				"energy": -0.22639,
				"method": "rhf"
			},
			{
				"type": "occ",
				"energy": -0.20821,
				"method": "rhf"
			},
			{
				"type": "occ",
				"energy": -0.20395,
				"method": "rhf"
			},
			{
				"type": "unocc",
				"energy": -0.02731,
				"method": "rhf"
			},
			{
				"type": "unocc",
				"energy": -0.00705,
				"method": "rhf"
			},
			{
				"type": "unocc",
				"energy": 0.00311,
				"method": "rhf"
			},
			{
				"type": "unocc",
				"energy": 0.00525,
				"method": "rhf"
			},
			{
				"type": "unocc",
				"energy": 0.01599,
				"method": "rhf"
			}
		],
		"cosmo_sigma_profile": { 
			"-0.025": 0.0,
			"-0.024": 0.0,
			"-0.023": 0.0,
			"-0.022": 0.0,
			"-0.021": 0.0,
			"-0.02": 0.0,
			"-0.019": 0.00793426690947,
			"-0.018": 0.609354690749,
			"-0.017": 1.03773643276,
			"-0.016": 0.75160049873,
			"-0.015": 0.873918634374,
			"-0.014": 0.332211804097,
			"-0.013": 0.904139356024,
			"-0.012": 1.35651652409,
			"-0.011": 0.441004413623,
			"-0.01": 0.506459142208,
			"-0.009": 0.488764285295,
			"-0.008": 0.962260689791,
			"-0.007": 4.99687611224,
			"-0.006": 16.36503698,
			"-0.005": 20.0974421881,
			"-0.004": 32.7208830426,
			"-0.003": 37.0267315458,
			"-0.002": 36.2493797853,
			"-0.001": 44.4211441498,
			"0.0": 42.4534036668,
			"0.001": 25.2998779747,
			"0.002": 21.0686663653,
			"0.003": 21.9955407217,
			"0.004": 21.1114038833,
			"0.005": 23.2350056555,
			"0.006": 9.56148277572,
			"0.007": 4.70865011492,
			"0.008": 6.15801941522,
			"0.009": 6.13537275557,
			"0.01": 4.29752631079,
			"0.011": 4.71794760463,
			"0.012": 3.45522665483,
			"0.013": 0.507330630293,
			"0.014": 0.859822390533,
			"0.015": 0.466547165895,
			"0.016": 0.315628897839,
			"0.017": 0.0763779459477,
			"0.018": 0.0,
			"0.019": 0.0,
			"0.02": 0.0,
			"0.021": 0.0,
			"0.022": 0.0,
			"0.023": 0.0,
			"0.024": 0.0,
			"0.025": 0.0
		}
	}
}
