{
	 "smiles": "ClCCN1N=C2C=CC=CN2C1=O", 
	 "Tm": 413.15, 
	 "num_atms": 21, 
	 "gaussian": { 
		 "optdone": 1, 
		 "sigma_profile": "yes", 
		 "theory": "DFT", 
		 "functional": "B3LYP", 
		 "basiset": "6-31G**", 
		 "properties": { 
			 "R2extent": 4530.1058, 
			 "electric_dipole_moment_norm": 4.82183526575, 
			 "electric_quadrupole_moment_norm": 11.5743448787, 
			 "total_energy": -1009.3388006, 
			 "HOMO_LUMO_gap": 0.14809, 
			 "cosmo_polarized_energy": -12.24, 
			 "cosmo_cavitation_energy": 27.4, 
			 "cosmo_dispersion_energy": -20.22, 
			 "cosmo_repulsion_energy": 1.6, 
			 "cosmo_total_nonelectrostatic_energy": 8.78, 
			 "SMD_solvation_energy": 4.38 
		},
		"coords": [
			{
				"x": -1.1474055725,
				"y": -4.8347775363,
				"z": 0.8362114729,
				"element": "Cl" 
			},
			{
				"x": -1.4897973677,
				"y": -3.2976811871,
				"z": -0.0570703027,
				"element": "C" 
			},
			{
				"x": -0.2224075994,
				"y": -2.4464001282,
				"z": -0.1506866173,
				"element": "C" 
			},
			{
				"x": -0.4995563116,
				"y": -1.1893733319,
				"z": -0.8135455867,
				"element": "N" 
			},
			{
				"x": -1.2259071839,
				"y": -0.1984521712,
				"z": -0.1693664306,
				"element": "N" 
			},
			{
				"x": -1.2984028694,
				"y": 0.7665930337,
				"z": -1.0565163186,
				"element": "C" 
			},
			{
				"x": -1.9130186959,
				"y": 2.0534984272,
				"z": -0.9864145095,
				"element": "C" 
			},
			{
				"x": -1.8346125613,
				"y": 2.8756547465,
				"z": -2.0743206764,
				"element": "C" 
			},
			{
				"x": -1.1512342989,
				"y": 2.4727874825,
				"z": -3.2754965388,
				"element": "C" 
			},
			{
				"x": -0.5661934,
				"y": 1.2480622819,
				"z": -3.3415446842,
				"element": "C" 
			},
			{
				"x": -0.647257713,
				"y": 0.423379955,
				"z": -2.2446772914,
				"element": "N" 
			},
			{
				"x": -0.1176936473,
				"y": -0.8779697878,
				"z": -2.09992402,
				"element": "C" 
			},
			{
				"x": 0.5122915497,
				"y": -1.5245982144,
				"z": -2.9228859536,
				"element": "O" 
			},
			{
				"x": -1.8541333634,
				"y": -3.5741327036,
				"z": -1.0473601987,
				"element": "H" 
			},
			{
				"x": -2.2718815211,
				"y": -2.7706658053,
				"z": 0.4898575498,
				"element": "H" 
			},
			{
				"x": 0.5433187475,
				"y": -2.9552826656,
				"z": -0.7398072482,
				"element": "H" 
			},
			{
				"x": 0.1701778021,
				"y": -2.2411246424,
				"z": 0.8486976392,
				"element": "H" 
			},
			{
				"x": -2.4214196593,
				"y": 2.3367601311,
				"z": -0.0725412975,
				"element": "H" 
			},
			{
				"x": -2.2958926397,
				"y": 3.8574869301,
				"z": -2.0392039086,
				"element": "H" 
			},
			{
				"x": -1.0999049985,
				"y": 3.1396759506,
				"z": -4.1274845589,
				"element": "H" 
			},
			{
				"x": -0.0280686963,
				"y": 0.8407592351,
				"z": -4.1889205202,
				"element": "H" 
			}
		],
		 "valence_orbital": [ 
			{
				"type": "occ",
				"energy": -0.30414,
				"method": "rhf"
			},
			{
				"type": "occ",
				"energy": -0.29808,
				"method": "rhf"
			},
			{
				"type": "occ",
				"energy": -0.27923,
				"method": "rhf"
			},
			{
				"type": "occ",
				"energy": -0.27468,
				"method": "rhf"
			},
			{
				"type": "occ",
				"energy": -0.20717,
				"method": "rhf"
			},
			{
				"type": "unocc",
				"energy": -0.05908,
				"method": "rhf"
			},
			{
				"type": "unocc",
				"energy": -0.00308,
				"method": "rhf"
			},
			{
				"type": "unocc",
				"energy": 0.02126,
				"method": "rhf"
			},
			{
				"type": "unocc",
				"energy": 0.0545,
				"method": "rhf"
			},
			{
				"type": "unocc",
				"energy": 0.08072,
				"method": "rhf"
			}
		],
		"cosmo_sigma_profile": { 
			"-0.025": 0.0,
			"-0.024": 0.0,
			"-0.023": 0.0,
			"-0.022": 0.0,
			"-0.021": 0.0,
			"-0.02": 0.0,
			"-0.019": 0.0,
			"-0.018": 0.0,
			"-0.017": 0.0,
			"-0.016": 0.0,
			"-0.015": 0.0,
			"-0.014": 0.0,
			"-0.013": 0.0,
			"-0.012": 0.0,
			"-0.011": 0.0,
			"-0.01": 0.222543492706,
			"-0.009": 1.10392054632,
			"-0.008": 5.75198210798,
			"-0.007": 13.0536730111,
			"-0.006": 16.6111903306,
			"-0.005": 16.0532850384,
			"-0.004": 15.2065869438,
			"-0.003": 17.8356062318,
			"-0.002": 14.1725421333,
			"-0.001": 13.7850942017,
			"0.0": 14.3678757866,
			"0.001": 16.2560276716,
			"0.002": 14.7242580838,
			"0.003": 10.361036374,
			"0.004": 7.51605216564,
			"0.005": 8.98511216886,
			"0.006": 11.736226589,
			"0.007": 3.25832754182,
			"0.008": 1.60349093005,
			"0.009": 2.04401049134,
			"0.01": 2.45306754606,
			"0.011": 2.35765968287,
			"0.012": 3.12669564361,
			"0.013": 7.52859170145,
			"0.014": 1.52511771595,
			"0.015": 0.0288742645335,
			"0.016": 0.0,
			"0.017": 0.0,
			"0.018": 0.0,
			"0.019": 0.0,
			"0.02": 0.0,
			"0.021": 0.0,
			"0.022": 0.0,
			"0.023": 0.0,
			"0.024": 0.0,
			"0.025": 0.0
		}
	}
}
