{
	 "smiles": "CC(CC1=CC(C)=CC(=O)N1O)CC(C)(C)C", 
	 "Tm": 381.15, 
	 "num_atms": 40, 
	 "gaussian": { 
		 "optdone": 1, 
		 "sigma_profile": "yes", 
		 "theory": "DFT", 
		 "functional": "B3LYP", 
		 "basiset": "6-31G**", 
		 "properties": { 
			 "R2extent": 5618.5687, 
			 "electric_dipole_moment_norm": 4.10573870211, 
			 "electric_quadrupole_moment_norm": 17.0790536125, 
			 "total_energy": -752.535942568, 
			 "HOMO_LUMO_gap": 0.1794, 
			 "cosmo_polarized_energy": -9.49, 
			 "cosmo_cavitation_energy": 39.48, 
			 "cosmo_dispersion_energy": -26.94, 
			 "cosmo_repulsion_energy": 2.08, 
			 "cosmo_total_nonelectrostatic_energy": 14.62, 
			 "SMD_solvation_energy": 7.96 
		},
		"coords": [
			{
				"x": 1.7778960487,
				"y": 0.7586695215,
				"z": 0.6991511223,
				"element": "C" 
			},
			{
				"x": 0.2437269361,
				"y": 0.8490710244,
				"z": 0.7361606634,
				"element": "C" 
			},
			{
				"x": -0.3568263462,
				"y": 1.108014295,
				"z": -0.6802935776,
				"element": "C" 
			},
			{
				"x": -0.0633389535,
				"y": 0.0636724123,
				"z": -1.7294837458,
				"element": "C" 
			},
			{
				"x": -0.8319492701,
				"y": -1.063704751,
				"z": -1.9505590434,
				"element": "C" 
			},
			{
				"x": -0.4868930032,
				"y": -2.001954659,
				"z": -2.9565070286,
				"element": "C" 
			},
			{
				"x": -1.3499122976,
				"y": -3.2238809395,
				"z": -3.1539479967,
				"element": "C" 
			},
			{
				"x": 0.6276377499,
				"y": -1.7844101428,
				"z": -3.7416785173,
				"element": "C" 
			},
			{
				"x": 1.4426253154,
				"y": -0.6278595806,
				"z": -3.5716035228,
				"element": "C" 
			},
			{
				"x": 2.4577810657,
				"y": -0.2621149777,
				"z": -4.1964023271,
				"element": "O" 
			},
			{
				"x": 1.0170166295,
				"y": 0.2293885144,
				"z": -2.5344229466,
				"element": "N" 
			},
			{
				"x": 1.8153021575,
				"y": 1.3494891091,
				"z": -2.4167225968,
				"element": "O" 
			},
			{
				"x": -0.4013095956,
				"y": -0.3778214352,
				"z": 1.4342482647,
				"element": "C" 
			},
			{
				"x": -0.7584318907,
				"y": -0.244736297,
				"z": 2.9430420427,
				"element": "C" 
			},
			{
				"x": -1.2699303088,
				"y": -1.6182535223,
				"z": 3.4237400825,
				"element": "C" 
			},
			{
				"x": 0.4591987671,
				"y": 0.15463899,
				"z": 3.7982313755,
				"element": "C" 
			},
			{
				"x": -1.881981089,
				"y": 0.7933385371,
				"z": 3.1398550844,
				"element": "C" 
			},
			{
				"x": 2.2198686818,
				"y": 1.6431892877,
				"z": 0.2331652016,
				"element": "H" 
			},
			{
				"x": 2.189362239,
				"y": 0.6596383675,
				"z": 1.7066805147,
				"element": "H" 
			},
			{
				"x": 2.1060798854,
				"y": -0.1138754926,
				"z": 0.1238338079,
				"element": "H" 
			},
			{
				"x": -0.0219572867,
				"y": 1.7491487579,
				"z": 1.3058540638,
				"element": "H" 
			},
			{
				"x": 0.0024917122,
				"y": 2.0740714624,
				"z": -1.0447353964,
				"element": "H" 
			},
			{
				"x": -1.4453098752,
				"y": 1.1784824457,
				"z": -0.5844470207,
				"element": "H" 
			},
			{
				"x": -1.7138153695,
				"y": -1.2161811927,
				"z": -1.3399797682,
				"element": "H" 
			},
			{
				"x": -2.3849118882,
				"y": -2.9394782822,
				"z": -3.3750315455,
				"element": "H" 
			},
			{
				"x": -0.9846615699,
				"y": -3.8455239265,
				"z": -3.9745710853,
				"element": "H" 
			},
			{
				"x": -1.372402824,
				"y": -3.8367097782,
				"z": -2.2455581396,
				"element": "H" 
			},
			{
				"x": 0.9199909357,
				"y": -2.4747482147,
				"z": -4.5245134868,
				"element": "H" 
			},
			{
				"x": 2.4573088273,
				"y": 1.1337518796,
				"z": -3.1552849039,
				"element": "H" 
			},
			{
				"x": 0.2578389276,
				"y": -1.2466604317,
				"z": 1.3065424696,
				"element": "H" 
			},
			{
				"x": -1.3346386803,
				"y": -0.6410638469,
				"z": 0.9204432103,
				"element": "H" 
			},
			{
				"x": -1.5702468062,
				"y": -1.5792465893,
				"z": 4.4769002177,
				"element": "H" 
			},
			{
				"x": -0.4944750073,
				"y": -2.3864650877,
				"z": 3.3257760976,
				"element": "H" 
			},
			{
				"x": -2.1395043375,
				"y": -1.9447934207,
				"z": 2.8415651223,
				"element": "H" 
			},
			{
				"x": 0.1889466834,
				"y": 0.1769092457,
				"z": 4.8601650066,
				"element": "H" 
			},
			{
				"x": 0.8348665932,
				"y": 1.1492352126,
				"z": 3.5374033952,
				"element": "H" 
			},
			{
				"x": 1.2817542685,
				"y": -0.5597352651,
				"z": 3.6808943542,
				"element": "H" 
			},
			{
				"x": -1.5770407413,
				"y": 1.7964485547,
				"z": 2.8233211114,
				"element": "H" 
			},
			{
				"x": -2.1677972048,
				"y": 0.8589186915,
				"z": 4.1956440476,
				"element": "H" 
			},
			{
				"x": -2.7774590787,
				"y": 0.5195415236,
				"z": 2.569725393,
				"element": "H" 
			}
		],
		 "valence_orbital": [ 
			{
				"type": "occ",
				"energy": -0.3104,
				"method": "rhf"
			},
			{
				"type": "occ",
				"energy": -0.30412,
				"method": "rhf"
			},
			{
				"type": "occ",
				"energy": -0.26832,
				"method": "rhf"
			},
			{
				"type": "occ",
				"energy": -0.25961,
				"method": "rhf"
			},
			{
				"type": "occ",
				"energy": -0.21097,
				"method": "rhf"
			},
			{
				"type": "unocc",
				"energy": -0.03157,
				"method": "rhf"
			},
			{
				"type": "unocc",
				"energy": 0.00664,
				"method": "rhf"
			},
			{
				"type": "unocc",
				"energy": 0.06515,
				"method": "rhf"
			},
			{
				"type": "unocc",
				"energy": 0.07529,
				"method": "rhf"
			},
			{
				"type": "unocc",
				"energy": 0.10221,
				"method": "rhf"
			}
		],
		"cosmo_sigma_profile": { 
			"-0.025": 0.0,
			"-0.024": 0.0,
			"-0.023": 0.0,
			"-0.022": 0.0,
			"-0.021": 0.0,
			"-0.02": 0.0,
			"-0.019": 0.0,
			"-0.018": 0.0,
			"-0.017": 0.0,
			"-0.016": 0.0,
			"-0.015": 0.0,
			"-0.014": 0.0,
			"-0.013": 0.0,
			"-0.012": 0.0270295947818,
			"-0.011": 0.37013233658,
			"-0.01": 0.469224706775,
			"-0.009": 0.58204324359,
			"-0.008": 0.470957632232,
			"-0.007": 0.973918367343,
			"-0.006": 5.3499470884,
			"-0.005": 11.284911095,
			"-0.004": 14.5734986815,
			"-0.003": 23.0665444653,
			"-0.002": 48.9289876348,
			"-0.001": 54.5275795907,
			"0.0": 36.3523715181,
			"0.001": 35.2014150119,
			"0.002": 31.5844749903,
			"0.003": 12.6685641855,
			"0.004": 5.2195040948,
			"0.005": 3.03067302059,
			"0.006": 3.71817369515,
			"0.007": 2.27225660436,
			"0.008": 2.14560945846,
			"0.009": 1.48823605318,
			"0.01": 0.905204344025,
			"0.011": 1.98786634907,
			"0.012": 1.97128670365,
			"0.013": 2.33974714443,
			"0.014": 3.03921598385,
			"0.015": 1.64082659509,
			"0.016": 0.0578926114871,
			"0.017": 0.0,
			"0.018": 0.0,
			"0.019": 0.0,
			"0.02": 0.0,
			"0.021": 0.0,
			"0.022": 0.0,
			"0.023": 0.0,
			"0.024": 0.0,
			"0.025": 0.0
		}
	}
}
