{
	 "smiles": "COC(=O)C(CC(O)=O)CC1=C2C=CC=CC2=CC=C1", 
	 "Tm": 386.15, 
	 "num_atms": 36, 
	 "gaussian": { 
		 "optdone": 1, 
		 "sigma_profile": "yes", 
		 "theory": "DFT", 
		 "functional": "B3LYP", 
		 "basiset": "6-31G**", 
		 "properties": { 
			 "R2extent": 6542.8314, 
			 "electric_dipole_moment_norm": 2.66826779391, 
			 "electric_quadrupole_moment_norm": 15.0404195763, 
			 "total_energy": -920.280555526, 
			 "HOMO_LUMO_gap": 0.17285, 
			 "cosmo_polarized_energy": -16.35, 
			 "cosmo_cavitation_energy": 39.56, 
			 "cosmo_dispersion_energy": -26.67, 
			 "cosmo_repulsion_energy": 2.04, 
			 "cosmo_total_nonelectrostatic_energy": 14.93, 
			 "SMD_solvation_energy": 8.58 
		},
		"coords": [
			{
				"x": 1.3850485019,
				"y": 1.1292742927,
				"z": 3.6817150413,
				"element": "C" 
			},
			{
				"x": 0.6081243001,
				"y": 0.1314866522,
				"z": 2.9960230882,
				"element": "O" 
			},
			{
				"x": -0.6628866563,
				"y": 0.4980669779,
				"z": 2.6902087751,
				"element": "C" 
			},
			{
				"x": -1.1352050298,
				"y": 1.5693774312,
				"z": 2.9960173739,
				"element": "O" 
			},
			{
				"x": -1.3964743862,
				"y": -0.6079213119,
				"z": 1.9457012444,
				"element": "C" 
			},
			{
				"x": -1.4415121241,
				"y": -1.8848459162,
				"z": 2.8041551811,
				"element": "C" 
			},
			{
				"x": -2.4692996608,
				"y": -2.8855843728,
				"z": 2.316746113,
				"element": "C" 
			},
			{
				"x": -2.3902593326,
				"y": -4.0449782985,
				"z": 3.0105078901,
				"element": "O" 
			},
			{
				"x": -3.2852367256,
				"y": -2.7070342348,
				"z": 1.4377555062,
				"element": "O" 
			},
			{
				"x": -0.7796097476,
				"y": -0.8840098938,
				"z": 0.5455262671,
				"element": "C" 
			},
			{
				"x": -0.9483223296,
				"y": 0.2595415874,
				"z": -0.437699512,
				"element": "C" 
			},
			{
				"x": 0.0915792119,
				"y": 1.206756243,
				"z": -0.7191801741,
				"element": "C" 
			},
			{
				"x": 1.3857602586,
				"y": 1.1507654695,
				"z": -0.1258000528,
				"element": "C" 
			},
			{
				"x": 2.3568828705,
				"y": 2.0784658404,
				"z": -0.4333273836,
				"element": "C" 
			},
			{
				"x": 2.0926258821,
				"y": 3.1192277311,
				"z": -1.3545642142,
				"element": "C" 
			},
			{
				"x": 0.8557419821,
				"y": 3.2057780673,
				"z": -1.9493768675,
				"element": "C" 
			},
			{
				"x": -0.1698065658,
				"y": 2.2660024757,
				"z": -1.6561229289,
				"element": "C" 
			},
			{
				"x": -1.4438426857,
				"y": 2.3573192572,
				"z": -2.2749151043,
				"element": "C" 
			},
			{
				"x": -2.4247102612,
				"y": 1.4370612746,
				"z": -1.9901199639,
				"element": "C" 
			},
			{
				"x": -2.1688740875,
				"y": 0.391252904,
				"z": -1.0760496475,
				"element": "C" 
			},
			{
				"x": 1.5478433874,
				"y": 1.9928111949,
				"z": 3.0318967102,
				"element": "H" 
			},
			{
				"x": 0.8744372621,
				"y": 1.4579386707,
				"z": 4.5896046695,
				"element": "H" 
			},
			{
				"x": 2.3332602636,
				"y": 0.6494264018,
				"z": 3.9247234598,
				"element": "H" 
			},
			{
				"x": -2.4168434277,
				"y": -0.243746871,
				"z": 1.8075872099,
				"element": "H" 
			},
			{
				"x": -1.7015805273,
				"y": -1.6490256865,
				"z": 3.8440251629,
				"element": "H" 
			},
			{
				"x": -0.4631363368,
				"y": -2.3745538572,
				"z": 2.848063204,
				"element": "H" 
			},
			{
				"x": -3.0887035604,
				"y": -4.6215771665,
				"z": 2.6570024669,
				"element": "H" 
			},
			{
				"x": -1.2986050724,
				"y": -1.7571570282,
				"z": 0.1410647341,
				"element": "H" 
			},
			{
				"x": 0.2690570531,
				"y": -1.1669364099,
				"z": 0.6671920086,
				"element": "H" 
			},
			{
				"x": 1.6115980179,
				"y": 0.3696757175,
				"z": 0.5905976085,
				"element": "H" 
			},
			{
				"x": 3.3361196756,
				"y": 2.0087970751,
				"z": 0.0322818395,
				"element": "H" 
			},
			{
				"x": 2.8665240473,
				"y": 3.8441949639,
				"z": -1.5896390566,
				"element": "H" 
			},
			{
				"x": 0.6407628099,
				"y": 4.0003825894,
				"z": -2.6595373246,
				"element": "H" 
			},
			{
				"x": -1.627248276,
				"y": 3.1652501532,
				"z": -2.9785286716,
				"element": "H" 
			},
			{
				"x": -3.3980104708,
				"y": 1.5051211525,
				"z": -2.4673831206,
				"element": "H" 
			},
			{
				"x": -2.9517982599,
				"y": -0.3331030758,
				"z": -0.8638515322,
				"element": "H" 
			}
		],
		 "valence_orbital": [ 
			{
				"type": "occ",
				"energy": -0.28678,
				"method": "rhf"
			},
			{
				"type": "occ",
				"energy": -0.27619,
				"method": "rhf"
			},
			{
				"type": "occ",
				"energy": -0.26641,
				"method": "rhf"
			},
			{
				"type": "occ",
				"energy": -0.23847,
				"method": "rhf"
			},
			{
				"type": "occ",
				"energy": -0.20804,
				"method": "rhf"
			},
			{
				"type": "unocc",
				"energy": -0.03519,
				"method": "rhf"
			},
			{
				"type": "unocc",
				"energy": -0.00615,
				"method": "rhf"
			},
			{
				"type": "unocc",
				"energy": -0.00091,
				"method": "rhf"
			},
			{
				"type": "unocc",
				"energy": 0.01149,
				"method": "rhf"
			},
			{
				"type": "unocc",
				"energy": 0.03344,
				"method": "rhf"
			}
		],
		"cosmo_sigma_profile": { 
			"-0.025": 0.0,
			"-0.024": 0.0,
			"-0.023": 0.0,
			"-0.022": 0.0,
			"-0.021": 0.0,
			"-0.02": 0.0,
			"-0.019": 0.00656749736298,
			"-0.018": 0.731173126192,
			"-0.017": 1.14059762414,
			"-0.016": 0.626375335692,
			"-0.015": 0.674843896412,
			"-0.014": 1.00712540637,
			"-0.013": 0.821984554384,
			"-0.012": 0.735016805651,
			"-0.011": 0.573362091145,
			"-0.01": 0.760622015116,
			"-0.009": 0.477353796646,
			"-0.008": 2.07671166028,
			"-0.007": 5.46065875087,
			"-0.006": 15.4769932576,
			"-0.005": 26.4764318282,
			"-0.004": 28.5470048179,
			"-0.003": 29.9875713099,
			"-0.002": 23.4138684243,
			"-0.001": 23.1988238028,
			"0.0": 15.9088946203,
			"0.001": 17.3828976336,
			"0.002": 15.02051549,
			"0.003": 16.5534581244,
			"0.004": 25.7156650421,
			"0.005": 22.138645231,
			"0.006": 8.58675470421,
			"0.007": 3.56751381454,
			"0.008": 4.34190666462,
			"0.009": 4.32792599867,
			"0.01": 4.50273665833,
			"0.011": 6.94308346347,
			"0.012": 5.6041519939,
			"0.013": 0.743216789881,
			"0.014": 0.0,
			"0.015": 0.0,
			"0.016": 0.0,
			"0.017": 0.0,
			"0.018": 0.0,
			"0.019": 0.0,
			"0.02": 0.0,
			"0.021": 0.0,
			"0.022": 0.0,
			"0.023": 0.0,
			"0.024": 0.0,
			"0.025": 0.0
		}
	}
}
