{
	 "smiles": "[O-][N+](=O)C1=CC2=C(NC(=S)N2)C=C1", 
	 "Tm": 548.15, 
	 "num_atms": 18, 
	 "gaussian": { 
		 "optdone": 1, 
		 "sigma_profile": "yes", 
		 "theory": "DFT", 
		 "functional": "B3LYP", 
		 "basiset": "6-31G**", 
		 "properties": { 
			 "R2extent": 4472.7598, 
			 "electric_dipole_moment_norm": 2.34452427797, 
			 "electric_quadrupole_moment_norm": 28.9526772432, 
			 "total_energy": -982.575670545, 
			 "HOMO_LUMO_gap": 0.12854, 
			 "cosmo_polarized_energy": -21.34, 
			 "cosmo_cavitation_energy": 25.43, 
			 "cosmo_dispersion_energy": -19.58, 
			 "cosmo_repulsion_energy": 1.49, 
			 "cosmo_total_nonelectrostatic_energy": 7.34, 
			 "SMD_solvation_energy": 5.19 
		},
		"coords": [
			{
				"x": -1.9721865982,
				"y": 0.4543227329,
				"z": -1.4985345903,
				"element": "O" 
			},
			{
				"x": -1.0996954763,
				"y": -0.0811893453,
				"z": -2.1839745202,
				"element": "N" 
			},
			{
				"x": -1.2837675366,
				"y": -0.5578381693,
				"z": -3.3039801807,
				"element": "O" 
			},
			{
				"x": 0.2540855454,
				"y": -0.1540088311,
				"z": -1.6226777319,
				"element": "C" 
			},
			{
				"x": 0.4682632037,
				"y": 0.3863614434,
				"z": -0.3500208056,
				"element": "C" 
			},
			{
				"x": 1.7609225172,
				"y": 0.2946342545,
				"z": 0.138536402,
				"element": "C" 
			},
			{
				"x": 2.7954469033,
				"y": -0.3111521105,
				"z": -0.6124075696,
				"element": "C" 
			},
			{
				"x": 3.9330386449,
				"y": -0.2290199815,
				"z": 0.1666904089,
				"element": "N" 
			},
			{
				"x": 3.6835862901,
				"y": 0.3964353837,
				"z": 1.3758166751,
				"element": "C" 
			},
			{
				"x": 4.7630859732,
				"y": 0.6998181683,
				"z": 2.598316403,
				"element": "S" 
			},
			{
				"x": 2.3413564406,
				"y": 0.7066455344,
				"z": 1.3297485579,
				"element": "N" 
			},
			{
				"x": 2.5592306958,
				"y": -0.842969942,
				"z": -1.8784899328,
				"element": "C" 
			},
			{
				"x": 1.2620644134,
				"y": -0.7570986242,
				"z": -2.3820138673,
				"element": "C" 
			},
			{
				"x": -0.3482675423,
				"y": 0.8420902251,
				"z": 0.1945708099,
				"element": "H" 
			},
			{
				"x": 4.8555080607,
				"y": -0.5650294245,
				"z": -0.065136669,
				"element": "H" 
			},
			{
				"x": 1.8856966732,
				"y": 1.1770406425,
				"z": 2.0967531169,
				"element": "H" 
			},
			{
				"x": 3.3514279214,
				"y": -1.3075782282,
				"z": -2.4551359344,
				"element": "H" 
			},
			{
				"x": 1.0116038705,
				"y": -1.1504637282,
				"z": -3.3585605719,
				"element": "H" 
			}
		],
		 "valence_orbital": [ 
			{
				"type": "occ",
				"energy": -0.30203,
				"method": "rhf"
			},
			{
				"type": "occ",
				"energy": -0.29625,
				"method": "rhf"
			},
			{
				"type": "occ",
				"energy": -0.2796,
				"method": "rhf"
			},
			{
				"type": "occ",
				"energy": -0.23149,
				"method": "rhf"
			},
			{
				"type": "occ",
				"energy": -0.22411,
				"method": "rhf"
			},
			{
				"type": "unocc",
				"energy": -0.09557,
				"method": "rhf"
			},
			{
				"type": "unocc",
				"energy": -0.05012,
				"method": "rhf"
			},
			{
				"type": "unocc",
				"energy": -0.00497,
				"method": "rhf"
			},
			{
				"type": "unocc",
				"energy": 0.00283,
				"method": "rhf"
			},
			{
				"type": "unocc",
				"energy": 0.04869,
				"method": "rhf"
			}
		],
		"cosmo_sigma_profile": { 
			"-0.025": 0.0,
			"-0.024": 0.0,
			"-0.023": 0.0,
			"-0.022": 0.0,
			"-0.021": 0.0,
			"-0.02": 0.0,
			"-0.019": 0.0,
			"-0.018": 0.617414969752,
			"-0.017": 3.04739905969,
			"-0.016": 2.75600053731,
			"-0.015": 2.06738157117,
			"-0.014": 2.18978963821,
			"-0.013": 1.99193365793,
			"-0.012": 2.54900885023,
			"-0.011": 2.11402976059,
			"-0.01": 2.70860918484,
			"-0.009": 3.8400955801,
			"-0.008": 5.50935483847,
			"-0.007": 5.90931264584,
			"-0.006": 6.91456442756,
			"-0.005": 7.37211518266,
			"-0.004": 8.37797621317,
			"-0.003": 9.98266449289,
			"-0.002": 14.1420279972,
			"-0.001": 19.3036583635,
			"0.0": 15.9553289022,
			"0.001": 9.39596582891,
			"0.002": 6.1763094998,
			"0.003": 5.06781307015,
			"0.004": 6.00658419528,
			"0.005": 6.36239813865,
			"0.006": 6.07725886088,
			"0.007": 11.2031839817,
			"0.008": 12.0149545774,
			"0.009": 11.3635224058,
			"0.01": 10.5727748411,
			"0.011": 5.41058643031,
			"0.012": 0.791391519623,
			"0.013": 0.0,
			"0.014": 0.0,
			"0.015": 0.0,
			"0.016": 0.0,
			"0.017": 0.0,
			"0.018": 0.0,
			"0.019": 0.0,
			"0.02": 0.0,
			"0.021": 0.0,
			"0.022": 0.0,
			"0.023": 0.0,
			"0.024": 0.0,
			"0.025": 0.0
		}
	}
}
