{
	 "smiles": "CC(=O)C1=CC=CN=C1", 
	 "Tm": 285.95, 
	 "num_atms": 16, 
	 "gaussian": { 
		 "optdone": 1, 
		 "sigma_profile": "yes", 
		 "theory": "DFT", 
		 "functional": "B3LYP", 
		 "basiset": "6-31G**", 
		 "properties": { 
			 "R2extent": 1297.203, 
			 "electric_dipole_moment_norm": 0.821355398107, 
			 "electric_quadrupole_moment_norm": 15.546796316, 
			 "total_energy": -400.933493913, 
			 "HOMO_LUMO_gap": 0.1864, 
			 "cosmo_polarized_energy": -8.97, 
			 "cosmo_cavitation_energy": 20.23, 
			 "cosmo_dispersion_energy": -14.94, 
			 "cosmo_repulsion_energy": 1.21, 
			 "cosmo_total_nonelectrostatic_energy": 6.51, 
			 "SMD_solvation_energy": 2.9 
		},
		"coords": [
			{
				"x": 0.738344543,
				"y": 0.2216361626,
				"z": -2.4237834669,
				"element": "C" 
			},
			{
				"x": 1.2763426333,
				"y": -0.2114530467,
				"z": -1.0724484557,
				"element": "C" 
			},
			{
				"x": 2.4784362387,
				"y": -0.2696390055,
				"z": -0.8641450124,
				"element": "O" 
			},
			{
				"x": 0.305582372,
				"y": -0.5697068058,
				"z": 0.0133425784,
				"element": "C" 
			},
			{
				"x": 0.8037969006,
				"y": -0.9694097339,
				"z": 1.2615361778,
				"element": "C" 
			},
			{
				"x": -0.0921394138,
				"y": -1.3020247238,
				"z": 2.2692743087,
				"element": "C" 
			},
			{
				"x": -1.4611305174,
				"y": -1.2235910953,
				"z": 1.9944654686,
				"element": "C" 
			},
			{
				"x": -1.9621375981,
				"y": -0.8451745158,
				"z": 0.8122195748,
				"element": "N" 
			},
			{
				"x": -1.0865085952,
				"y": -0.5279364929,
				"z": -0.1485252134,
				"element": "C" 
			},
			{
				"x": 0.1214187137,
				"y": -0.5656478388,
				"z": -2.8710163871,
				"element": "H" 
			},
			{
				"x": 1.5799123598,
				"y": 0.4405584752,
				"z": -3.0814037881,
				"element": "H" 
			},
			{
				"x": 0.1090035137,
				"y": 1.1133730416,
				"z": -2.3279904558,
				"element": "H" 
			},
			{
				"x": 1.878935738,
				"y": -1.0075005983,
				"z": 1.4047285734,
				"element": "H" 
			},
			{
				"x": 0.2521642986,
				"y": -1.6163075668,
				"z": 3.2495282612,
				"element": "H" 
			},
			{
				"x": -2.1903033625,
				"y": -1.4772700705,
				"z": 2.7620692448,
				"element": "H" 
			},
			{
				"x": -1.5242178245,
				"y": -0.2246061854,
				"z": -1.0972514081,
				"element": "H" 
			}
		],
		 "valence_orbital": [ 
			{
				"type": "occ",
				"energy": -0.36649,
				"method": "rhf"
			},
			{
				"type": "occ",
				"energy": -0.29483,
				"method": "rhf"
			},
			{
				"type": "occ",
				"energy": -0.27424,
				"method": "rhf"
			},
			{
				"type": "occ",
				"energy": -0.27098,
				"method": "rhf"
			},
			{
				"type": "occ",
				"energy": -0.25282,
				"method": "rhf"
			},
			{
				"type": "unocc",
				"energy": -0.06642,
				"method": "rhf"
			},
			{
				"type": "unocc",
				"energy": -0.03131,
				"method": "rhf"
			},
			{
				"type": "unocc",
				"energy": 0.02677,
				"method": "rhf"
			},
			{
				"type": "unocc",
				"energy": 0.09234,
				"method": "rhf"
			},
			{
				"type": "unocc",
				"energy": 0.10841,
				"method": "rhf"
			}
		],
		"cosmo_sigma_profile": { 
			"-0.025": 0.0,
			"-0.024": 0.0,
			"-0.023": 0.0,
			"-0.022": 0.0,
			"-0.021": 0.0,
			"-0.02": 0.0,
			"-0.019": 0.0,
			"-0.018": 0.0,
			"-0.017": 0.0,
			"-0.016": 0.0,
			"-0.015": 0.0,
			"-0.014": 0.0,
			"-0.013": 0.0,
			"-0.012": 0.0,
			"-0.011": 0.0,
			"-0.01": 0.0,
			"-0.009": 0.0,
			"-0.008": 0.487423277475,
			"-0.007": 10.3627930372,
			"-0.006": 15.506648647,
			"-0.005": 11.9917559658,
			"-0.004": 11.7667746788,
			"-0.003": 10.7826523137,
			"-0.002": 11.5765276531,
			"-0.001": 13.8096387416,
			"0.0": 14.2603597627,
			"0.001": 15.4543061444,
			"0.002": 7.87679380744,
			"0.003": 4.62788597917,
			"0.004": 3.71130186935,
			"0.005": 2.73380394914,
			"0.006": 2.9402063236,
			"0.007": 2.94025311488,
			"0.008": 2.20248695145,
			"0.009": 3.46835622887,
			"0.01": 2.80629840358,
			"0.011": 4.35717091835,
			"0.012": 4.04066452565,
			"0.013": 1.93973987199,
			"0.014": 0.769422331001,
			"0.015": 0.950891225889,
			"0.016": 0.609464341478,
			"0.017": 0.0214995984834,
			"0.018": 0.0,
			"0.019": 0.0,
			"0.02": 0.0,
			"0.021": 0.0,
			"0.022": 0.0,
			"0.023": 0.0,
			"0.024": 0.0,
			"0.025": 0.0
		}
	}
}
