{
	 "smiles": "CCN(CC)CCNC(=O)C1=CC=C(N)C=C1", 
	 "Tm": 440.15, 
	 "num_atms": 38, 
	 "gaussian": { 
		 "optdone": 1, 
		 "sigma_profile": "yes", 
		 "theory": "DFT", 
		 "functional": "B3LYP", 
		 "basiset": "6-31G**", 
		 "properties": { 
			 "R2extent": 6275.1465, 
			 "electric_dipole_moment_norm": 4.91368116996, 
			 "electric_quadrupole_moment_norm": 25.867778654, 
			 "total_energy": -747.541055876, 
			 "HOMO_LUMO_gap": 0.19118, 
			 "cosmo_polarized_energy": -16.92, 
			 "cosmo_cavitation_energy": 39.85, 
			 "cosmo_dispersion_energy": -27.39, 
			 "cosmo_repulsion_energy": 2.16, 
			 "cosmo_total_nonelectrostatic_energy": 14.63, 
			 "SMD_solvation_energy": 5.84 
		},
		"coords": [
			{
				"x": -2.1509947539,
				"y": -0.7123156287,
				"z": -4.1197722161,
				"element": "C" 
			},
			{
				"x": -1.7381250474,
				"y": -1.8924498147,
				"z": -3.2382086203,
				"element": "C" 
			},
			{
				"x": -0.8726222498,
				"y": -1.5187547016,
				"z": -2.1157968903,
				"element": "N" 
			},
			{
				"x": -0.8624110314,
				"y": -2.5206396205,
				"z": -1.0403065861,
				"element": "C" 
			},
			{
				"x": -0.2876380632,
				"y": -3.9051322986,
				"z": -1.3851797061,
				"element": "C" 
			},
			{
				"x": 0.4683247831,
				"y": -1.0507907348,
				"z": -2.5056030431,
				"element": "C" 
			},
			{
				"x": 0.5991405051,
				"y": 0.4807425634,
				"z": -2.435810694,
				"element": "C" 
			},
			{
				"x": 0.1885328652,
				"y": 0.9882867167,
				"z": -1.138657663,
				"element": "N" 
			},
			{
				"x": 1.099728723,
				"y": 1.4237228355,
				"z": -0.2077976104,
				"element": "C" 
			},
			{
				"x": 2.3005080312,
				"y": 1.525795958,
				"z": -0.4610022309,
				"element": "O" 
			},
			{
				"x": 0.5504802999,
				"y": 1.7823742024,
				"z": 1.1384317665,
				"element": "C" 
			},
			{
				"x": 1.4621445113,
				"y": 1.9231962519,
				"z": 2.1953993232,
				"element": "C" 
			},
			{
				"x": 1.0373004249,
				"y": 2.2475960362,
				"z": 3.4754253496,
				"element": "C" 
			},
			{
				"x": -0.3287975523,
				"y": 2.4588586821,
				"z": 3.743619103,
				"element": "C" 
			},
			{
				"x": -0.7544516895,
				"y": 2.8380326308,
				"z": 5.011615786,
				"element": "N" 
			},
			{
				"x": -1.245408559,
				"y": 2.338405991,
				"z": 2.6830159557,
				"element": "C" 
			},
			{
				"x": -0.8084642885,
				"y": 2.0070180943,
				"z": 1.4055117096,
				"element": "C" 
			},
			{
				"x": -1.2983050419,
				"y": -0.2786804144,
				"z": -4.6509173744,
				"element": "H" 
			},
			{
				"x": -2.617134288,
				"y": 0.0763195739,
				"z": -3.5208378891,
				"element": "H" 
			},
			{
				"x": -2.8704936656,
				"y": -1.0440497281,
				"z": -4.875888265,
				"element": "H" 
			},
			{
				"x": -1.274537489,
				"y": -2.667051953,
				"z": -3.8775900023,
				"element": "H" 
			},
			{
				"x": -2.6426790019,
				"y": -2.3434030517,
				"z": -2.8125119006,
				"element": "H" 
			},
			{
				"x": -1.8959941162,
				"y": -2.6380538083,
				"z": -0.6900149311,
				"element": "H" 
			},
			{
				"x": -0.3002292124,
				"y": -2.0948738045,
				"z": -0.2011980959,
				"element": "H" 
			},
			{
				"x": -0.3083892942,
				"y": -4.5528036639,
				"z": -0.5020009519,
				"element": "H" 
			},
			{
				"x": 0.752219433,
				"y": -3.837538878,
				"z": -1.7219741299,
				"element": "H" 
			},
			{
				"x": -0.8647476468,
				"y": -4.4001234141,
				"z": -2.1725375097,
				"element": "H" 
			},
			{
				"x": 1.2102779229,
				"y": -1.4774355036,
				"z": -1.8221315499,
				"element": "H" 
			},
			{
				"x": 0.7394265836,
				"y": -1.3950660098,
				"z": -3.5164752154,
				"element": "H" 
			},
			{
				"x": -0.0087694078,
				"y": 0.9529459102,
				"z": -3.2154166598,
				"element": "H" 
			},
			{
				"x": 1.6396895487,
				"y": 0.7773841662,
				"z": -2.5847199789,
				"element": "H" 
			},
			{
				"x": -0.7116552848,
				"y": 0.6539267252,
				"z": -0.8241274045,
				"element": "H" 
			},
			{
				"x": 2.514646495,
				"y": 1.7697970852,
				"z": 1.9817205614,
				"element": "H" 
			},
			{
				"x": 1.761360575,
				"y": 2.3479166953,
				"z": 4.2805418196,
				"element": "H" 
			},
			{
				"x": -1.7237677274,
				"y": 2.6543629672,
				"z": 5.2276090403,
				"element": "H" 
			},
			{
				"x": -0.13380781,
				"y": 2.6052988561,
				"z": 5.7736356074,
				"element": "H" 
			},
			{
				"x": -2.3014636483,
				"y": 2.5224226045,
				"z": 2.8648477794,
				"element": "H" 
			},
			{
				"x": -1.5426938325,
				"y": 1.9563584822,
				"z": 0.6064033169,
				"element": "H" 
			}
		],
		 "valence_orbital": [ 
			{
				"type": "occ",
				"energy": -0.24915,
				"method": "rhf"
			},
			{
				"type": "occ",
				"energy": -0.23961,
				"method": "rhf"
			},
			{
				"type": "occ",
				"energy": -0.23177,
				"method": "rhf"
			},
			{
				"type": "occ",
				"energy": -0.20904,
				"method": "rhf"
			},
			{
				"type": "occ",
				"energy": -0.20373,
				"method": "rhf"
			},
			{
				"type": "unocc",
				"energy": -0.01255,
				"method": "rhf"
			},
			{
				"type": "unocc",
				"energy": 0.00237,
				"method": "rhf"
			},
			{
				"type": "unocc",
				"energy": 0.07197,
				"method": "rhf"
			},
			{
				"type": "unocc",
				"energy": 0.07876,
				"method": "rhf"
			},
			{
				"type": "unocc",
				"energy": 0.08824,
				"method": "rhf"
			}
		],
		"cosmo_sigma_profile": { 
			"-0.025": 0.0,
			"-0.024": 0.0,
			"-0.023": 0.0,
			"-0.022": 0.0,
			"-0.021": 0.0,
			"-0.02": 0.0,
			"-0.019": 0.0,
			"-0.018": 0.0,
			"-0.017": 0.0,
			"-0.016": 0.0,
			"-0.015": 0.0,
			"-0.014": 0.0,
			"-0.013": 1.06570740828,
			"-0.012": 3.12399898251,
			"-0.011": 2.92464337706,
			"-0.01": 3.5475861846,
			"-0.009": 4.61679324196,
			"-0.008": 3.79443191653,
			"-0.007": 4.62436342947,
			"-0.006": 6.00459839869,
			"-0.005": 7.19636514495,
			"-0.004": 13.0727627814,
			"-0.003": 33.398824282,
			"-0.002": 39.3875145106,
			"-0.001": 41.6100505784,
			"0.0": 31.7447485526,
			"0.001": 24.0211998117,
			"0.002": 16.5509102288,
			"0.003": 10.7686082804,
			"0.004": 10.7098212963,
			"0.005": 16.7678073223,
			"0.006": 10.9116094537,
			"0.007": 3.68457554552,
			"0.008": 2.93583678043,
			"0.009": 2.2807931268,
			"0.01": 2.27302711251,
			"0.011": 2.19693994383,
			"0.012": 2.45537093047,
			"0.013": 2.37631206981,
			"0.014": 4.7499128329,
			"0.015": 2.52399964466,
			"0.016": 0.0,
			"0.017": 0.0,
			"0.018": 0.0,
			"0.019": 0.0,
			"0.02": 0.0,
			"0.021": 0.0,
			"0.022": 0.0,
			"0.023": 0.0,
			"0.024": 0.0,
			"0.025": 0.0
		}
	}
}
