{
	 "smiles": "CC1=CC(=C(C)O1)C1(C)NC(=O)NC1=O", 
	 "Tm": 418.15, 
	 "num_atms": 27, 
	 "gaussian": { 
		 "optdone": 1, 
		 "sigma_profile": "yes", 
		 "theory": "DFT", 
		 "functional": "B3LYP", 
		 "basiset": "6-31G**", 
		 "properties": { 
			 "R2extent": 3807.3942, 
			 "electric_dipole_moment_norm": 2.49191474373, 
			 "electric_quadrupole_moment_norm": 9.63165494554, 
			 "total_energy": -723.503714514, 
			 "HOMO_LUMO_gap": 0.19947, 
			 "cosmo_polarized_energy": -16.31, 
			 "cosmo_cavitation_energy": 30.88, 
			 "cosmo_dispersion_energy": -21.7, 
			 "cosmo_repulsion_energy": 1.73, 
			 "cosmo_total_nonelectrostatic_energy": 10.92, 
			 "SMD_solvation_energy": 7.87 
		},
		"coords": [
			{
				"x": 2.4108815048,
				"y": 1.3358410836,
				"z": -2.1186314423,
				"element": "C" 
			},
			{
				"x": 1.5741491293,
				"y": 0.6298969483,
				"z": -1.1104685572,
				"element": "C" 
			},
			{
				"x": 0.3774354107,
				"y": -0.0116489058,
				"z": -1.1642599224,
				"element": "C" 
			},
			{
				"x": 0.1089376892,
				"y": -0.512567299,
				"z": 0.1617847466,
				"element": "C" 
			},
			{
				"x": 1.1757454023,
				"y": -0.1378170511,
				"z": 0.9369611097,
				"element": "C" 
			},
			{
				"x": 1.5770463375,
				"y": -0.2807585014,
				"z": 2.3676339967,
				"element": "C" 
			},
			{
				"x": 2.0677573915,
				"y": 0.5639302546,
				"z": 0.1653655115,
				"element": "O" 
			},
			{
				"x": -1.153916896,
				"y": -1.2617375662,
				"z": 0.5356106344,
				"element": "C" 
			},
			{
				"x": -2.408556754,
				"y": -0.392661752,
				"z": 0.3026511765,
				"element": "C" 
			},
			{
				"x": -1.1343328278,
				"y": -1.8236429574,
				"z": 1.888260407,
				"element": "N" 
			},
			{
				"x": -1.3538653621,
				"y": -3.1810189288,
				"z": 1.9258299113,
				"element": "C" 
			},
			{
				"x": -1.5087326661,
				"y": -3.8931016139,
				"z": 2.8954748218,
				"element": "O" 
			},
			{
				"x": -1.3603889409,
				"y": -3.5977531771,
				"z": 0.5798212585,
				"element": "N" 
			},
			{
				"x": -1.2803105698,
				"y": -2.5554776008,
				"z": -0.3173461008,
				"element": "C" 
			},
			{
				"x": -1.3252056087,
				"y": -2.6251265822,
				"z": -1.5268117093,
				"element": "O" 
			},
			{
				"x": 1.9123932936,
				"y": 1.3189029553,
				"z": -3.0904520245,
				"element": "H" 
			},
			{
				"x": 3.3928611798,
				"y": 0.8612180831,
				"z": -2.2287748036,
				"element": "H" 
			},
			{
				"x": 2.5820454718,
				"y": 2.381780106,
				"z": -1.8383851508,
				"element": "H" 
			},
			{
				"x": -0.2354498729,
				"y": -0.1615098916,
				"z": -2.0403660326,
				"element": "H" 
			},
			{
				"x": 2.6618698341,
				"y": -0.4068232917,
				"z": 2.4338327134,
				"element": "H" 
			},
			{
				"x": 1.1003030805,
				"y": -1.1480198541,
				"z": 2.8237186704,
				"element": "H" 
			},
			{
				"x": 1.317670362,
				"y": 0.6079301372,
				"z": 2.9581592798,
				"element": "H" 
			},
			{
				"x": -3.3163171738,
				"y": -0.9466840764,
				"z": 0.5616366239,
				"element": "H" 
			},
			{
				"x": -2.4682260284,
				"y": -0.0944146059,
				"z": -0.7459768344,
				"element": "H" 
			},
			{
				"x": -2.3550331156,
				"y": 0.5115313505,
				"z": 0.9165081732,
				"element": "H" 
			},
			{
				"x": -1.3582439998,
				"y": -1.2787073227,
				"z": 2.7074909139,
				"element": "H" 
			},
			{
				"x": -1.4737162712,
				"y": -4.5663599404,
				"z": 0.3168326292,
				"element": "H" 
			}
		],
		 "valence_orbital": [ 
			{
				"type": "occ",
				"energy": -0.28961,
				"method": "rhf"
			},
			{
				"type": "occ",
				"energy": -0.27554,
				"method": "rhf"
			},
			{
				"type": "occ",
				"energy": -0.2684,
				"method": "rhf"
			},
			{
				"type": "occ",
				"energy": -0.2601,
				"method": "rhf"
			},
			{
				"type": "occ",
				"energy": -0.21117,
				"method": "rhf"
			},
			{
				"type": "unocc",
				"energy": -0.0117,
				"method": "rhf"
			},
			{
				"type": "unocc",
				"energy": 0.01739,
				"method": "rhf"
			},
			{
				"type": "unocc",
				"energy": 0.05329,
				"method": "rhf"
			},
			{
				"type": "unocc",
				"energy": 0.06852,
				"method": "rhf"
			},
			{
				"type": "unocc",
				"energy": 0.07396,
				"method": "rhf"
			}
		],
		"cosmo_sigma_profile": { 
			"-0.025": 0.0,
			"-0.024": 0.0,
			"-0.023": 0.0,
			"-0.022": 0.0,
			"-0.021": 0.0,
			"-0.02": 0.0,
			"-0.019": 0.0,
			"-0.018": 0.0,
			"-0.017": 0.528234003359,
			"-0.016": 1.20153442081,
			"-0.015": 1.6530728146,
			"-0.014": 2.22352887626,
			"-0.013": 1.88244605509,
			"-0.012": 1.39392622909,
			"-0.011": 1.87545033025,
			"-0.01": 2.10141029583,
			"-0.009": 2.38554265366,
			"-0.008": 2.14941893145,
			"-0.007": 2.91641982631,
			"-0.006": 5.595744893,
			"-0.005": 14.3844471815,
			"-0.004": 20.8565435461,
			"-0.003": 23.6294979725,
			"-0.002": 23.3638548671,
			"-0.001": 26.240973151,
			"0.0": 19.9777703601,
			"0.001": 10.3723229132,
			"0.002": 9.70640082379,
			"0.003": 9.3948203898,
			"0.004": 9.49450095905,
			"0.005": 7.51613529117,
			"0.006": 6.30815478656,
			"0.007": 4.5264252695,
			"0.008": 3.68590248237,
			"0.009": 4.17144137529,
			"0.01": 3.66189627333,
			"0.011": 5.62692261536,
			"0.012": 8.07095507897,
			"0.013": 6.48648692543,
			"0.014": 0.508656048113,
			"0.015": 0.0,
			"0.016": 0.0,
			"0.017": 0.0,
			"0.018": 0.0,
			"0.019": 0.0,
			"0.02": 0.0,
			"0.021": 0.0,
			"0.022": 0.0,
			"0.023": 0.0,
			"0.024": 0.0,
			"0.025": 0.0
		}
	}
}
