{
	 "smiles": "CS(=O)(=O)NC1=CC(O)=C(C=C1)C(O)=O", 
	 "Tm": 501.15, 
	 "num_atms": 24, 
	 "gaussian": { 
		 "optdone": 1, 
		 "sigma_profile": "yes", 
		 "theory": "DFT", 
		 "functional": "B3LYP", 
		 "basiset": "6-31G**", 
		 "properties": { 
			 "R2extent": 5059.7382, 
			 "electric_dipole_moment_norm": 6.87756310767, 
			 "electric_quadrupole_moment_norm": 45.5054597313, 
			 "total_energy": -1139.2777761, 
			 "HOMO_LUMO_gap": 0.19527, 
			 "cosmo_polarized_energy": -30.58, 
			 "cosmo_cavitation_energy": 29.95, 
			 "cosmo_dispersion_energy": -22.68, 
			 "cosmo_repulsion_energy": 1.72, 
			 "cosmo_total_nonelectrostatic_energy": 8.99, 
			 "SMD_solvation_energy": 6.27 
		},
		"coords": [
			{
				"x": -2.0754354067,
				"y": -0.4273477926,
				"z": -2.3386473654,
				"element": "C" 
			},
			{
				"x": -0.6729419448,
				"y": -1.4615811761,
				"z": -1.874919406,
				"element": "S" 
			},
			{
				"x": -1.1298597237,
				"y": -2.8393116264,
				"z": -1.7089188036,
				"element": "O" 
			},
			{
				"x": 0.4388639646,
				"y": -1.1118268348,
				"z": -2.7542209858,
				"element": "O" 
			},
			{
				"x": -0.2971140088,
				"y": -0.9767703237,
				"z": -0.294745572,
				"element": "N" 
			},
			{
				"x": 0.0748232095,
				"y": 0.3086858632,
				"z": 0.1349308374,
				"element": "C" 
			},
			{
				"x": -0.1901443168,
				"y": 0.6611074809,
				"z": 1.4661566666,
				"element": "C" 
			},
			{
				"x": 0.1807115371,
				"y": 1.9143404793,
				"z": 1.9490322068,
				"element": "C" 
			},
			{
				"x": -0.0717232396,
				"y": 2.2592846948,
				"z": 3.2551067635,
				"element": "O" 
			},
			{
				"x": 0.8003516301,
				"y": 2.8642913691,
				"z": 1.1159723999,
				"element": "C" 
			},
			{
				"x": 1.0470509318,
				"y": 2.4828953128,
				"z": -0.2105617557,
				"element": "C" 
			},
			{
				"x": 0.7107743537,
				"y": 1.2330189341,
				"z": -0.7112638032,
				"element": "C" 
			},
			{
				"x": 1.2326108496,
				"y": 4.2478936627,
				"z": 1.5172396129,
				"element": "C" 
			},
			{
				"x": 1.0406422267,
				"y": 4.6282338489,
				"z": 2.7966103286,
				"element": "O" 
			},
			{
				"x": 1.7408987064,
				"y": 5.0092012306,
				"z": 0.7228331586,
				"element": "O" 
			},
			{
				"x": -2.9219678149,
				"y": -0.670770397,
				"z": -1.6958896292,
				"element": "H" 
			},
			{
				"x": -2.3054768553,
				"y": -0.6586872095,
				"z": -3.3801252711,
				"element": "H" 
			},
			{
				"x": -1.7904801276,
				"y": 0.6211783849,
				"z": -2.2391988927,
				"element": "H" 
			},
			{
				"x": -0.713611361,
				"y": -1.6022503744,
				"z": 0.384265331,
				"element": "H" 
			},
			{
				"x": -0.689828226,
				"y": -0.0443772448,
				"z": 2.1271398639,
				"element": "H" 
			},
			{
				"x": -0.4393914638,
				"y": 1.513173415,
				"z": 3.7452292785,
				"element": "H" 
			},
			{
				"x": 1.5380865147,
				"y": 3.2139493069,
				"z": -0.8436991115,
				"element": "H" 
			},
			{
				"x": 0.9618671982,
				"y": 0.958702807,
				"z": -1.7279660963,
				"element": "H" 
			},
			{
				"x": 0.6244933665,
				"y": 3.9126661893,
				"z": 3.3074402448,
				"element": "H" 
			}
		],
		 "valence_orbital": [ 
			{
				"type": "occ",
				"energy": -0.31959,
				"method": "rhf"
			},
			{
				"type": "occ",
				"energy": -0.30044,
				"method": "rhf"
			},
			{
				"type": "occ",
				"energy": -0.26767,
				"method": "rhf"
			},
			{
				"type": "occ",
				"energy": -0.26646,
				"method": "rhf"
			},
			{
				"type": "occ",
				"energy": -0.24555,
				"method": "rhf"
			},
			{
				"type": "unocc",
				"energy": -0.05028,
				"method": "rhf"
			},
			{
				"type": "unocc",
				"energy": -0.02233,
				"method": "rhf"
			},
			{
				"type": "unocc",
				"energy": 0.02755,
				"method": "rhf"
			},
			{
				"type": "unocc",
				"energy": 0.0361,
				"method": "rhf"
			},
			{
				"type": "unocc",
				"energy": 0.04507,
				"method": "rhf"
			}
		],
		"cosmo_sigma_profile": { 
			"-0.025": 0.0,
			"-0.024": 0.0,
			"-0.023": 0.0,
			"-0.022": 0.0,
			"-0.021": 0.0,
			"-0.02": 0.506730756857,
			"-0.019": 1.33383197709,
			"-0.018": 1.1876596943,
			"-0.017": 1.36465981808,
			"-0.016": 2.30729530416,
			"-0.015": 1.82043217708,
			"-0.014": 1.9828015288,
			"-0.013": 2.74808272943,
			"-0.012": 2.32193149329,
			"-0.011": 2.24645297123,
			"-0.01": 3.87678265358,
			"-0.009": 7.50928783658,
			"-0.008": 7.01856153627,
			"-0.007": 7.36385936867,
			"-0.006": 9.93905978136,
			"-0.005": 13.9760769363,
			"-0.004": 14.9192804658,
			"-0.003": 10.975433127,
			"-0.002": 10.0481093527,
			"-0.001": 8.96933644586,
			"0.0": 11.135453914,
			"0.001": 13.8286066436,
			"0.002": 18.0123523887,
			"0.003": 12.3668486804,
			"0.004": 7.01840642494,
			"0.005": 5.36430549872,
			"0.006": 5.24809805206,
			"0.007": 4.57319764392,
			"0.008": 6.09967959325,
			"0.009": 6.75703371171,
			"0.01": 12.3444585061,
			"0.011": 12.9156118272,
			"0.012": 6.65385729711,
			"0.013": 3.53960584608,
			"0.014": 0.966262342825,
			"0.015": 0.0,
			"0.016": 0.0,
			"0.017": 0.0,
			"0.018": 0.0,
			"0.019": 0.0,
			"0.02": 0.0,
			"0.021": 0.0,
			"0.022": 0.0,
			"0.023": 0.0,
			"0.024": 0.0,
			"0.025": 0.0
		}
	}
}
