{
	 "smiles": "NC(=O)CCC(N)=O", 
	 "Tm": 535.15, 
	 "num_atms": 16, 
	 "gaussian": { 
		 "optdone": 1, 
		 "sigma_profile": "yes", 
		 "theory": "DFT", 
		 "functional": "B3LYP", 
		 "basiset": "6-31G**", 
		 "properties": { 
			 "R2extent": 1178.6565, 
			 "electric_dipole_moment_norm": 5.05153038692, 
			 "electric_quadrupole_moment_norm": 15.3218231386, 
			 "total_energy": -417.240117502, 
			 "HOMO_LUMO_gap": 0.24102, 
			 "cosmo_polarized_energy": -17.93, 
			 "cosmo_cavitation_energy": 19.74, 
			 "cosmo_dispersion_energy": -14.7, 
			 "cosmo_repulsion_energy": 1.27, 
			 "cosmo_total_nonelectrostatic_energy": 6.3, 
			 "SMD_solvation_energy": 4.76 
		},
		"coords": [
			{
				"x": 2.8862562518,
				"y": 0.1311859187,
				"z": 0.2616527944,
				"element": "N" 
			},
			{
				"x": 1.6268293392,
				"y": -0.3620074078,
				"z": 0.4196602108,
				"element": "C" 
			},
			{
				"x": 0.9779153087,
				"y": -0.1479920136,
				"z": 1.4411632142,
				"element": "O" 
			},
			{
				"x": 1.1150726819,
				"y": -1.2036005046,
				"z": -0.7504069464,
				"element": "C" 
			},
			{
				"x": -0.3020580407,
				"y": -1.7620545303,
				"z": -0.5445486932,
				"element": "C" 
			},
			{
				"x": -1.4001091876,
				"y": -0.7203758126,
				"z": -0.7889348482,
				"element": "C" 
			},
			{
				"x": -1.6867122907,
				"y": 0.0690111852,
				"z": 0.286045689,
				"element": "N" 
			},
			{
				"x": -1.9688504569,
				"y": -0.6260288871,
				"z": -1.8695726993,
				"element": "O" 
			},
			{
				"x": 3.4348795568,
				"y": -0.0385327007,
				"z": -0.5655687666,
				"element": "H" 
			},
			{
				"x": 3.2780149606,
				"y": 0.6903556463,
				"z": 1.0041567942,
				"element": "H" 
			},
			{
				"x": 1.8197867815,
				"y": -2.0331857129,
				"z": -0.892882417,
				"element": "H" 
			},
			{
				"x": 1.1588893105,
				"y": -0.606526425,
				"z": -1.6702694471,
				"element": "H" 
			},
			{
				"x": -0.476045571,
				"y": -2.5604709533,
				"z": -1.2685845191,
				"element": "H" 
			},
			{
				"x": -0.3820314666,
				"y": -2.1779089263,
				"z": 0.464243812,
				"element": "H" 
			},
			{
				"x": -2.3053418329,
				"y": 0.8505306083,
				"z": 0.1250971866,
				"element": "H" 
			},
			{
				"x": -1.0181953446,
				"y": 0.1113005156,
				"z": 1.0474486356,
				"element": "H" 
			}
		],
		 "valence_orbital": [ 
			{
				"type": "occ",
				"energy": -0.35124,
				"method": "rhf"
			},
			{
				"type": "occ",
				"energy": -0.28597,
				"method": "rhf"
			},
			{
				"type": "occ",
				"energy": -0.26999,
				"method": "rhf"
			},
			{
				"type": "occ",
				"energy": -0.2506,
				"method": "rhf"
			},
			{
				"type": "occ",
				"energy": -0.23105,
				"method": "rhf"
			},
			{
				"type": "unocc",
				"energy": 0.00997,
				"method": "rhf"
			},
			{
				"type": "unocc",
				"energy": 0.03741,
				"method": "rhf"
			},
			{
				"type": "unocc",
				"energy": 0.06554,
				"method": "rhf"
			},
			{
				"type": "unocc",
				"energy": 0.09797,
				"method": "rhf"
			},
			{
				"type": "unocc",
				"energy": 0.11695,
				"method": "rhf"
			}
		],
		"cosmo_sigma_profile": { 
			"-0.025": 0.0,
			"-0.024": 0.0,
			"-0.023": 0.0,
			"-0.022": 0.0,
			"-0.021": 0.0,
			"-0.02": 0.0,
			"-0.019": 0.0,
			"-0.018": 0.0,
			"-0.017": 0.0,
			"-0.016": 0.0,
			"-0.015": 0.405454335843,
			"-0.014": 2.4234306425,
			"-0.013": 3.0436271512,
			"-0.012": 3.65349976949,
			"-0.011": 4.07025700985,
			"-0.01": 3.37936625075,
			"-0.009": 2.81053184524,
			"-0.008": 3.4642546075,
			"-0.007": 4.9096998945,
			"-0.006": 7.5133253749,
			"-0.005": 8.32035506311,
			"-0.004": 11.5176473222,
			"-0.003": 10.4134186385,
			"-0.002": 10.2958110628,
			"-0.001": 8.93831347825,
			"0.0": 6.3795892273,
			"0.001": 5.15991079511,
			"0.002": 6.73600564301,
			"0.003": 5.35323521226,
			"0.004": 5.14603163324,
			"0.005": 3.45173492104,
			"0.006": 3.49341123815,
			"0.007": 3.40860329922,
			"0.008": 2.77924819706,
			"0.009": 2.78159694221,
			"0.01": 2.57411866502,
			"0.011": 2.80599959657,
			"0.012": 3.44111608761,
			"0.013": 4.716202803,
			"0.014": 7.1048697586,
			"0.015": 3.37214571965,
			"0.016": 0.362047854401,
			"0.017": 0.0,
			"0.018": 0.0,
			"0.019": 0.0,
			"0.02": 0.0,
			"0.021": 0.0,
			"0.022": 0.0,
			"0.023": 0.0,
			"0.024": 0.0,
			"0.025": 0.0
		}
	}
}
