{
	 "smiles": "OC(=O)C1=NN(C=C1)C1=C(F)C=CC=C1", 
	 "Tm": 396.15, 
	 "num_atms": 22, 
	 "gaussian": { 
		 "optdone": 1, 
		 "sigma_profile": "yes", 
		 "theory": "DFT", 
		 "functional": "B3LYP", 
		 "basiset": "6-31G**", 
		 "properties": { 
			 "R2extent": 4299.9069, 
			 "electric_dipole_moment_norm": 6.64681640637, 
			 "electric_quadrupole_moment_norm": 19.9463028805, 
			 "total_energy": -745.055792401, 
			 "HOMO_LUMO_gap": 0.188, 
			 "cosmo_polarized_energy": -12.37, 
			 "cosmo_cavitation_energy": 27.67, 
			 "cosmo_dispersion_energy": -20.48, 
			 "cosmo_repulsion_energy": 1.55, 
			 "cosmo_total_nonelectrostatic_energy": 8.74, 
			 "SMD_solvation_energy": 6.32 
		},
		"coords": [
			{
				"x": -0.8136745025,
				"y": 3.6061326196,
				"z": -2.5878831824,
				"element": "O" 
			},
			{
				"x": -1.6259742326,
				"y": 2.6658388908,
				"z": -3.1195452426,
				"element": "C" 
			},
			{
				"x": -2.4670420023,
				"y": 2.9322612027,
				"z": -3.9457915269,
				"element": "O" 
			},
			{
				"x": -1.3958521487,
				"y": 1.2892976435,
				"z": -2.6077995298,
				"element": "C" 
			},
			{
				"x": -0.4493672634,
				"y": 1.0650813584,
				"z": -1.6962401466,
				"element": "N" 
			},
			{
				"x": -0.497602414,
				"y": -0.2632637144,
				"z": -1.4483093195,
				"element": "N" 
			},
			{
				"x": -1.4740851279,
				"y": -0.8749202107,
				"z": -2.2037851264,
				"element": "C" 
			},
			{
				"x": -2.0717568202,
				"y": 0.1019104683,
				"z": -2.9629880714,
				"element": "C" 
			},
			{
				"x": 0.404652932,
				"y": -0.8234963959,
				"z": -0.5031675503,
				"element": "C" 
			},
			{
				"x": 0.420773545,
				"y": -2.1884562974,
				"z": -0.186953843,
				"element": "C" 
			},
			{
				"x": -0.4437638498,
				"y": -3.0429415885,
				"z": -0.7850612545,
				"element": "F" 
			},
			{
				"x": 1.3095429997,
				"y": -2.7175275879,
				"z": 0.738905434,
				"element": "C" 
			},
			{
				"x": 2.2177355913,
				"y": -1.8784472688,
				"z": 1.3802471641,
				"element": "C" 
			},
			{
				"x": 2.2206304744,
				"y": -0.5145257838,
				"z": 1.081658302,
				"element": "C" 
			},
			{
				"x": 1.3258765214,
				"y": 0.0065398088,
				"z": 0.1520988652,
				"element": "C" 
			},
			{
				"x": -0.2209954982,
				"y": 3.1689787455,
				"z": -1.9517622548,
				"element": "H" 
			},
			{
				"x": -1.653931435,
				"y": -1.9324547762,
				"z": -2.1355011253,
				"element": "H" 
			},
			{
				"x": -2.8765397065,
				"y": -0.0050874498,
				"z": -3.6727960084,
				"element": "H" 
			},
			{
				"x": 1.2687106953,
				"y": -3.7830086485,
				"z": 0.9370991355,
				"element": "H" 
			},
			{
				"x": 2.9139303097,
				"y": -2.2883565508,
				"z": 2.1044864299,
				"element": "H" 
			},
			{
				"x": 2.9221509807,
				"y": 0.1516852056,
				"z": 1.5730902345,
				"element": "H" 
			},
			{
				"x": 1.3205809516,
				"y": 1.0618603295,
				"z": -0.0858013831,
				"element": "H" 
			}
		],
		 "valence_orbital": [ 
			{
				"type": "occ",
				"energy": -0.30573,
				"method": "rhf"
			},
			{
				"type": "occ",
				"energy": -0.27786,
				"method": "rhf"
			},
			{
				"type": "occ",
				"energy": -0.27169,
				"method": "rhf"
			},
			{
				"type": "occ",
				"energy": -0.27075,
				"method": "rhf"
			},
			{
				"type": "occ",
				"energy": -0.24713,
				"method": "rhf"
			},
			{
				"type": "unocc",
				"energy": -0.05913,
				"method": "rhf"
			},
			{
				"type": "unocc",
				"energy": -0.02409,
				"method": "rhf"
			},
			{
				"type": "unocc",
				"energy": -0.0132,
				"method": "rhf"
			},
			{
				"type": "unocc",
				"energy": 0.02367,
				"method": "rhf"
			},
			{
				"type": "unocc",
				"energy": 0.05906,
				"method": "rhf"
			}
		],
		"cosmo_sigma_profile": { 
			"-0.025": 0.0,
			"-0.024": 0.0,
			"-0.023": 0.0,
			"-0.022": 0.0,
			"-0.021": 0.0,
			"-0.02": 0.0,
			"-0.019": 0.0,
			"-0.018": 0.0,
			"-0.017": 0.0,
			"-0.016": 0.0,
			"-0.015": 0.181098434907,
			"-0.014": 0.442035039735,
			"-0.013": 0.555858140448,
			"-0.012": 0.993503067395,
			"-0.011": 0.60036832887,
			"-0.01": 0.590654087951,
			"-0.009": 1.25015069424,
			"-0.008": 4.50017895764,
			"-0.007": 9.03240471294,
			"-0.006": 11.142187679,
			"-0.005": 13.7708636298,
			"-0.004": 14.6547472749,
			"-0.003": 15.7282802548,
			"-0.002": 12.1779084962,
			"-0.001": 17.7273517755,
			"0.0": 21.0091282282,
			"0.001": 22.1869022499,
			"0.002": 20.1665443202,
			"0.003": 19.1089557373,
			"0.004": 6.67338731649,
			"0.005": 3.80644772576,
			"0.006": 2.12533614726,
			"0.007": 2.19261717251,
			"0.008": 3.06325800358,
			"0.009": 3.50589294247,
			"0.01": 5.73611475719,
			"0.011": 4.84625388102,
			"0.012": 4.84929055588,
			"0.013": 1.20486491114,
			"0.014": 0.015814488808,
			"0.015": 0.0,
			"0.016": 0.0,
			"0.017": 0.0,
			"0.018": 0.0,
			"0.019": 0.0,
			"0.02": 0.0,
			"0.021": 0.0,
			"0.022": 0.0,
			"0.023": 0.0,
			"0.024": 0.0,
			"0.025": 0.0
		}
	}
}
