{
	 "smiles": "ClC1=CC(Cl)=NC(Cl)=N1", 
	 "Tm": 295.95, 
	 "num_atms": 10, 
	 "gaussian": { 
		 "optdone": 1, 
		 "sigma_profile": "yes", 
		 "theory": "DFT", 
		 "functional": "B3LYP", 
		 "basiset": "6-31G**", 
		 "properties": { 
			 "R2extent": 3374.0323, 
			 "electric_dipole_moment_norm": 2.24445906178, 
			 "electric_quadrupole_moment_norm": 6.58923396762, 
			 "total_energy": -1643.09634155, 
			 "HOMO_LUMO_gap": 0.21853, 
			 "cosmo_polarized_energy": -6.01, 
			 "cosmo_cavitation_energy": 20.86, 
			 "cosmo_dispersion_energy": -16.2, 
			 "cosmo_repulsion_energy": 1.36, 
			 "cosmo_total_nonelectrostatic_energy": 6.02, 
			 "SMD_solvation_energy": -0.02 
		},
		"coords": [
			{
				"x": 1.3581609023,
				"y": 4.4201314775,
				"z": 1.2495843546,
				"element": "Cl" 
			},
			{
				"x": 1.2421929891,
				"y": 2.702313531,
				"z": 0.9800452083,
				"element": "C" 
			},
			{
				"x": 0.0882200644,
				"y": 2.0266908646,
				"z": 1.3757441656,
				"element": "C" 
			},
			{
				"x": 0.1041525182,
				"y": 0.6574352014,
				"z": 1.1119526447,
				"element": "C" 
			},
			{
				"x": -1.2750807311,
				"y": -0.3113694726,
				"z": 1.5547971012,
				"element": "Cl" 
			},
			{
				"x": 1.1203263691,
				"y": 0.0302521429,
				"z": 0.5344801933,
				"element": "N" 
			},
			{
				"x": 2.1524722063,
				"y": 0.8027997621,
				"z": 0.212019668,
				"element": "C" 
			},
			{
				"x": 3.4999358563,
				"y": 0.003898304,
				"z": -0.5476106615,
				"element": "Cl" 
			},
			{
				"x": 2.2790257266,
				"y": 2.1122754719,
				"z": 0.4001634606,
				"element": "N" 
			},
			{
				"x": -0.7483059012,
				"y": 2.5226727173,
				"z": 1.8473238651,
				"element": "H" 
			}
		],
		 "valence_orbital": [ 
			{
				"type": "occ",
				"energy": -0.33778,
				"method": "rhf"
			},
			{
				"type": "occ",
				"energy": -0.33571,
				"method": "rhf"
			},
			{
				"type": "occ",
				"energy": -0.32164,
				"method": "rhf"
			},
			{
				"type": "occ",
				"energy": -0.30145,
				"method": "rhf"
			},
			{
				"type": "occ",
				"energy": -0.29505,
				"method": "rhf"
			},
			{
				"type": "unocc",
				"energy": -0.07652,
				"method": "rhf"
			},
			{
				"type": "unocc",
				"energy": -0.06838,
				"method": "rhf"
			},
			{
				"type": "unocc",
				"energy": -0.01736,
				"method": "rhf"
			},
			{
				"type": "unocc",
				"energy": 0.03017,
				"method": "rhf"
			},
			{
				"type": "unocc",
				"energy": 0.03055,
				"method": "rhf"
			}
		],
		"cosmo_sigma_profile": { 
			"-0.025": 0.0,
			"-0.024": 0.0,
			"-0.023": 0.0,
			"-0.022": 0.0,
			"-0.021": 0.0,
			"-0.02": 0.0,
			"-0.019": 0.0,
			"-0.018": 0.0,
			"-0.017": 0.0,
			"-0.016": 0.0,
			"-0.015": 0.0,
			"-0.014": 0.0,
			"-0.013": 0.0,
			"-0.012": 0.0,
			"-0.011": 0.912168313802,
			"-0.01": 1.92869387103,
			"-0.009": 1.6725981228,
			"-0.008": 2.19056456582,
			"-0.007": 3.90263942578,
			"-0.006": 3.70260603748,
			"-0.005": 7.27924760263,
			"-0.004": 16.3907600383,
			"-0.003": 13.9703832293,
			"-0.002": 11.3288037224,
			"-0.001": 12.5362317631,
			"0.0": 12.3131928905,
			"0.001": 17.1156659465,
			"0.002": 26.2110561816,
			"0.003": 20.0049092167,
			"0.004": 7.3418460672,
			"0.005": 4.5736361712,
			"0.006": 3.43410220833,
			"0.007": 2.49657424042,
			"0.008": 2.38238503131,
			"0.009": 1.62934181735,
			"0.01": 1.97307952492,
			"0.011": 1.1981429557,
			"0.012": 0.0441377448627,
			"0.013": 0.0,
			"0.014": 0.0,
			"0.015": 0.0,
			"0.016": 0.0,
			"0.017": 0.0,
			"0.018": 0.0,
			"0.019": 0.0,
			"0.02": 0.0,
			"0.021": 0.0,
			"0.022": 0.0,
			"0.023": 0.0,
			"0.024": 0.0,
			"0.025": 0.0
		}
	}
}
