{
	 "smiles": "CC1=C2N=C(CC#N)NC(=O)C2=CC=C1", 
	 "Tm": 507.15, 
	 "num_atms": 24, 
	 "gaussian": { 
		 "optdone": 1, 
		 "sigma_profile": "yes", 
		 "theory": "DFT", 
		 "functional": "B3LYP", 
		 "basiset": "6-31G**", 
		 "properties": { 
			 "R2extent": 3639.9995, 
			 "electric_dipole_moment_norm": 4.46126653205, 
			 "electric_quadrupole_moment_norm": 17.3765797014, 
			 "total_energy": -664.093421496, 
			 "HOMO_LUMO_gap": 0.18694, 
			 "cosmo_polarized_energy": -16.31, 
			 "cosmo_cavitation_energy": 29.39, 
			 "cosmo_dispersion_energy": -20.95, 
			 "cosmo_repulsion_energy": 1.63, 
			 "cosmo_total_nonelectrostatic_energy": 10.08, 
			 "SMD_solvation_energy": 5.75 
		},
		"coords": [
			{
				"x": 0.9982886368,
				"y": -2.4977116001,
				"z": 1.590529727,
				"element": "C" 
			},
			{
				"x": -0.013313796,
				"y": -1.7145865542,
				"z": 0.7938841042,
				"element": "C" 
			},
			{
				"x": 0.1644497609,
				"y": -0.323697261,
				"z": 0.5822227699,
				"element": "C" 
			},
			{
				"x": 1.2913805547,
				"y": 0.2864706069,
				"z": 1.1281872969,
				"element": "N" 
			},
			{
				"x": 1.443400886,
				"y": 1.5521486481,
				"z": 0.9281714311,
				"element": "C" 
			},
			{
				"x": 2.7095213533,
				"y": 2.2100970607,
				"z": 1.461262066,
				"element": "C" 
			},
			{
				"x": 2.5727589919,
				"y": 3.6397423994,
				"z": 1.7443490696,
				"element": "C" 
			},
			{
				"x": 2.4403170328,
				"y": 4.7769130418,
				"z": 1.9343461516,
				"element": "N" 
			},
			{
				"x": 0.5671915809,
				"y": 2.3320327818,
				"z": 0.2192656923,
				"element": "N" 
			},
			{
				"x": -0.6099356667,
				"y": 1.8409003992,
				"z": -0.3769789148,
				"element": "C" 
			},
			{
				"x": -1.3526121732,
				"y": 2.5927040617,
				"z": -0.9886804031,
				"element": "O" 
			},
			{
				"x": -0.7942436643,
				"y": 0.4000998121,
				"z": -0.166444574,
				"element": "C" 
			},
			{
				"x": -1.9206627853,
				"y": -0.240688633,
				"z": -0.7034017762,
				"element": "C" 
			},
			{
				"x": -2.0904061985,
				"y": -1.5994287613,
				"z": -0.4961051999,
				"element": "C" 
			},
			{
				"x": -1.1407174102,
				"y": -2.320892485,
				"z": 0.2466910307,
				"element": "C" 
			},
			{
				"x": 1.9933289999,
				"y": -2.4348279977,
				"z": 1.1385709475,
				"element": "H" 
			},
			{
				"x": 0.7123692525,
				"y": -3.55077645,
				"z": 1.6547473504,
				"element": "H" 
			},
			{
				"x": 1.0944046279,
				"y": -2.1015860815,
				"z": 2.6065085539,
				"element": "H" 
			},
			{
				"x": 3.5163426527,
				"y": 2.0786964506,
				"z": 0.7282540402,
				"element": "H" 
			},
			{
				"x": 3.0085795394,
				"y": 1.6719301456,
				"z": 2.3643534747,
				"element": "H" 
			},
			{
				"x": 0.7154189468,
				"y": 3.332159774,
				"z": 0.1309868979,
				"element": "H" 
			},
			{
				"x": -2.6320250372,
				"y": 0.3508367799,
				"z": -1.2695556904,
				"element": "H" 
			},
			{
				"x": -2.9559704819,
				"y": -2.1117373602,
				"z": -0.9049413171,
				"element": "H" 
			},
			{
				"x": -1.2875656033,
				"y": -3.3867987778,
				"z": 0.4015772717,
				"element": "H" 
			}
		],
		 "valence_orbital": [ 
			{
				"type": "occ",
				"energy": -0.30442,
				"method": "rhf"
			},
			{
				"type": "occ",
				"energy": -0.28985,
				"method": "rhf"
			},
			{
				"type": "occ",
				"energy": -0.2712,
				"method": "rhf"
			},
			{
				"type": "occ",
				"energy": -0.26029,
				"method": "rhf"
			},
			{
				"type": "occ",
				"energy": -0.236,
				"method": "rhf"
			},
			{
				"type": "unocc",
				"energy": -0.04906,
				"method": "rhf"
			},
			{
				"type": "unocc",
				"energy": -0.04608,
				"method": "rhf"
			},
			{
				"type": "unocc",
				"energy": 0.00633,
				"method": "rhf"
			},
			{
				"type": "unocc",
				"energy": 0.01131,
				"method": "rhf"
			},
			{
				"type": "unocc",
				"energy": 0.02504,
				"method": "rhf"
			}
		],
		"cosmo_sigma_profile": { 
			"-0.025": 0.0,
			"-0.024": 0.0,
			"-0.023": 0.0,
			"-0.022": 0.0,
			"-0.021": 0.0,
			"-0.02": 0.0,
			"-0.019": 0.0,
			"-0.018": 0.0,
			"-0.017": 0.0,
			"-0.016": 0.0,
			"-0.015": 0.438629239158,
			"-0.014": 0.668037112589,
			"-0.013": 0.88231648483,
			"-0.012": 0.753181098844,
			"-0.011": 3.78196914061,
			"-0.01": 7.04382853468,
			"-0.009": 5.06398362635,
			"-0.008": 5.24831413825,
			"-0.007": 6.39754866359,
			"-0.006": 9.68559906753,
			"-0.005": 12.6575599848,
			"-0.004": 17.4484480773,
			"-0.003": 14.3679925547,
			"-0.002": 15.4145599555,
			"-0.001": 14.0400571558,
			"0.0": 17.0729459776,
			"0.001": 16.5222400031,
			"0.002": 15.7000300302,
			"0.003": 15.0065729106,
			"0.004": 10.7178132038,
			"0.005": 5.78964213726,
			"0.006": 5.15664997541,
			"0.007": 5.38060388105,
			"0.008": 5.16595061583,
			"0.009": 4.83333832817,
			"0.01": 4.81863957841,
			"0.011": 5.38349746441,
			"0.012": 6.84949306689,
			"0.013": 3.9209241028,
			"0.014": 0.0585385368387,
			"0.015": 0.0,
			"0.016": 0.0,
			"0.017": 0.0,
			"0.018": 0.0,
			"0.019": 0.0,
			"0.02": 0.0,
			"0.021": 0.0,
			"0.022": 0.0,
			"0.023": 0.0,
			"0.024": 0.0,
			"0.025": 0.0
		}
	}
}
