{
	 "smiles": "FC1=C(C=C(C=C1)C1=CC=C(O1)C=O)C(F)(F)F", 
	 "Tm": 363.15, 
	 "num_atms": 24, 
	 "gaussian": { 
		 "optdone": 1, 
		 "sigma_profile": "yes", 
		 "theory": "DFT", 
		 "functional": "B3LYP", 
		 "basiset": "6-31G**", 
		 "properties": { 
			 "R2extent": 5810.3083, 
			 "electric_dipole_moment_norm": 6.17391634297, 
			 "electric_quadrupole_moment_norm": 11.1188191423, 
			 "total_energy": -1010.67262144, 
			 "HOMO_LUMO_gap": 0.15276, 
			 "cosmo_polarized_energy": -12.52, 
			 "cosmo_cavitation_energy": 32.11, 
			 "cosmo_dispersion_energy": -22.32, 
			 "cosmo_repulsion_energy": 1.62, 
			 "cosmo_total_nonelectrostatic_energy": 11.41, 
			 "SMD_solvation_energy": 8.58 
		},
		"coords": [
			{
				"x": 0.8505049999,
				"y": -0.0024759128,
				"z": 3.6721341045,
				"element": "F" 
			},
			{
				"x": 0.7657642404,
				"y": -0.1843013261,
				"z": 2.3446541464,
				"element": "C" 
			},
			{
				"x": 0.8033759883,
				"y": 0.92615764,
				"z": 1.4975565993,
				"element": "C" 
			},
			{
				"x": 0.7146095436,
				"y": 0.7250371389,
				"z": 0.1227488625,
				"element": "C" 
			},
			{
				"x": 0.5892425159,
				"y": -0.569850525,
				"z": -0.409096603,
				"element": "C" 
			},
			{
				"x": 0.5546495324,
				"y": -1.6645988135,
				"z": 0.4721958581,
				"element": "C" 
			},
			{
				"x": 0.6425336397,
				"y": -1.4755891109,
				"z": 1.8469770191,
				"element": "C" 
			},
			{
				"x": 0.4969361745,
				"y": -0.7708190691,
				"z": -1.8494638369,
				"element": "C" 
			},
			{
				"x": 0.37069745,
				"y": -1.8951705156,
				"z": -2.6405189295,
				"element": "C" 
			},
			{
				"x": 0.3326609519,
				"y": -1.4395404569,
				"z": -3.9812651992,
				"element": "C" 
			},
			{
				"x": 0.4372683147,
				"y": -0.0681396806,
				"z": -3.9356693879,
				"element": "C" 
			},
			{
				"x": 0.5374963937,
				"y": 0.3383574436,
				"z": -2.6331026515,
				"element": "O" 
			},
			{
				"x": 0.4547225019,
				"y": 0.9294292365,
				"z": -4.9936592425,
				"element": "C" 
			},
			{
				"x": 0.5534092544,
				"y": 2.1313698302,
				"z": -4.8230386264,
				"element": "O" 
			},
			{
				"x": 0.9380492159,
				"y": 2.3098259263,
				"z": 2.0812874661,
				"element": "C" 
			},
			{
				"x": 0.9571448289,
				"y": 3.2529504501,
				"z": 1.1171358453,
				"element": "F" 
			},
			{
				"x": 2.076267653,
				"y": 2.4359882182,
				"z": 2.7945811624,
				"element": "F" 
			},
			{
				"x": -0.0869030229,
				"y": 2.5977806031,
				"z": 2.9100308572,
				"element": "F" 
			},
			{
				"x": 0.7428887616,
				"y": 1.5795016257,
				"z": -0.5417754851,
				"element": "H" 
			},
			{
				"x": 0.4583756704,
				"y": -2.673094512,
				"z": 0.0835377472,
				"element": "H" 
			},
			{
				"x": 0.6173376179,
				"y": -2.309323279,
				"z": 2.5395572905,
				"element": "H" 
			},
			{
				"x": 0.3127026243,
				"y": -2.918712381,
				"z": -2.3011003689,
				"element": "H" 
			},
			{
				"x": 0.2399211266,
				"y": -2.0396984262,
				"z": -4.8757067818,
				"element": "H" 
			},
			{
				"x": 0.3669440231,
				"y": 0.483015896,
				"z": -6.0077998456,
				"element": "H" 
			}
		],
		 "valence_orbital": [ 
			{
				"type": "occ",
				"energy": -0.31049,
				"method": "rhf"
			},
			{
				"type": "occ",
				"energy": -0.29755,
				"method": "rhf"
			},
			{
				"type": "occ",
				"energy": -0.29011,
				"method": "rhf"
			},
			{
				"type": "occ",
				"energy": -0.25994,
				"method": "rhf"
			},
			{
				"type": "occ",
				"energy": -0.23271,
				"method": "rhf"
			},
			{
				"type": "unocc",
				"energy": -0.07995,
				"method": "rhf"
			},
			{
				"type": "unocc",
				"energy": -0.04521,
				"method": "rhf"
			},
			{
				"type": "unocc",
				"energy": -0.02781,
				"method": "rhf"
			},
			{
				"type": "unocc",
				"energy": 0.0435,
				"method": "rhf"
			},
			{
				"type": "unocc",
				"energy": 0.06603,
				"method": "rhf"
			}
		],
		"cosmo_sigma_profile": { 
			"-0.025": 0.0,
			"-0.024": 0.0,
			"-0.023": 0.0,
			"-0.022": 0.0,
			"-0.021": 0.0,
			"-0.02": 0.0,
			"-0.019": 0.0,
			"-0.018": 0.0,
			"-0.017": 0.0,
			"-0.016": 0.0,
			"-0.015": 0.0,
			"-0.014": 0.0,
			"-0.013": 0.0,
			"-0.012": 0.0,
			"-0.011": 0.0,
			"-0.01": 0.866110381375,
			"-0.009": 4.94745670051,
			"-0.008": 9.28422548389,
			"-0.007": 10.7290969488,
			"-0.006": 8.9983754091,
			"-0.005": 9.85345317704,
			"-0.004": 10.9997702375,
			"-0.003": 11.4472476025,
			"-0.002": 14.3289811203,
			"-0.001": 28.8367319339,
			"0.0": 28.544791048,
			"0.001": 25.187134815,
			"0.002": 34.4671412669,
			"0.003": 33.440259021,
			"0.004": 4.48149151627,
			"0.005": 1.75240770617,
			"0.006": 1.75301891165,
			"0.007": 1.83790822397,
			"0.008": 2.42989006976,
			"0.009": 2.3215691629,
			"0.01": 2.30205523509,
			"0.011": 4.41670730996,
			"0.012": 4.72955869176,
			"0.013": 1.91408519056,
			"0.014": 0.0888050289324,
			"0.015": 0.0,
			"0.016": 0.0,
			"0.017": 0.0,
			"0.018": 0.0,
			"0.019": 0.0,
			"0.02": 0.0,
			"0.021": 0.0,
			"0.022": 0.0,
			"0.023": 0.0,
			"0.024": 0.0,
			"0.025": 0.0
		}
	}
}
