{
	 "smiles": "ClC1=C(C=O)C=CC=N1", 
	 "Tm": 325.15, 
	 "num_atms": 13, 
	 "gaussian": { 
		 "optdone": 1, 
		 "sigma_profile": "yes", 
		 "theory": "DFT", 
		 "functional": "B3LYP", 
		 "basiset": "6-31G**", 
		 "properties": { 
			 "R2extent": 2130.9199, 
			 "electric_dipole_moment_norm": 2.53525763582, 
			 "electric_quadrupole_moment_norm": 8.42223065583, 
			 "total_energy": -821.197566753, 
			 "HOMO_LUMO_gap": 0.18156, 
			 "cosmo_polarized_energy": -8.07, 
			 "cosmo_cavitation_energy": 19.67, 
			 "cosmo_dispersion_energy": -14.77, 
			 "cosmo_repulsion_energy": 1.2, 
			 "cosmo_total_nonelectrostatic_energy": 6.1, 
			 "SMD_solvation_energy": 3.01 
		},
		"coords": [
			{
				"x": 2.9051602863,
				"y": 1.5365237523,
				"z": -2.1863981447,
				"element": "Cl" 
			},
			{
				"x": 1.4822554165,
				"y": 0.889092126,
				"z": -1.3682334946,
				"element": "C" 
			},
			{
				"x": 1.2213327533,
				"y": 1.2294347812,
				"z": -0.0287244121,
				"element": "C" 
			},
			{
				"x": 2.0719503953,
				"y": 2.1257692856,
				"z": 0.8012551754,
				"element": "C" 
			},
			{
				"x": 1.8055949239,
				"y": 2.3919002353,
				"z": 1.9580943308,
				"element": "O" 
			},
			{
				"x": 0.0703646891,
				"y": 0.6716609878,
				"z": 0.5450871876,
				"element": "C" 
			},
			{
				"x": -0.7410867591,
				"y": -0.1679844909,
				"z": -0.2071189032,
				"element": "C" 
			},
			{
				"x": -0.3689460061,
				"y": -0.4257165987,
				"z": -1.5277473316,
				"element": "C" 
			},
			{
				"x": 0.7251327376,
				"y": 0.0937448333,
				"z": -2.1009263365,
				"element": "N" 
			},
			{
				"x": 2.9675682345,
				"y": 2.5412991448,
				"z": 0.3065595776,
				"element": "H" 
			},
			{
				"x": -0.1496709327,
				"y": 0.9215720918,
				"z": 1.578614657,
				"element": "H" 
			},
			{
				"x": -1.6376515924,
				"y": -0.6141655406,
				"z": 0.2095361336,
				"element": "H" 
			},
			{
				"x": -0.9694041463,
				"y": -1.0761306078,
				"z": -2.1597984394,
				"element": "H" 
			}
		],
		 "valence_orbital": [ 
			{
				"type": "occ",
				"energy": -0.3314,
				"method": "rhf"
			},
			{
				"type": "occ",
				"energy": -0.31069,
				"method": "rhf"
			},
			{
				"type": "occ",
				"energy": -0.2937,
				"method": "rhf"
			},
			{
				"type": "occ",
				"energy": -0.27731,
				"method": "rhf"
			},
			{
				"type": "occ",
				"energy": -0.26896,
				"method": "rhf"
			},
			{
				"type": "unocc",
				"energy": -0.0874,
				"method": "rhf"
			},
			{
				"type": "unocc",
				"energy": -0.0463,
				"method": "rhf"
			},
			{
				"type": "unocc",
				"energy": 0.01259,
				"method": "rhf"
			},
			{
				"type": "unocc",
				"energy": 0.02097,
				"method": "rhf"
			},
			{
				"type": "unocc",
				"energy": 0.09398,
				"method": "rhf"
			}
		],
		"cosmo_sigma_profile": { 
			"-0.025": 0.0,
			"-0.024": 0.0,
			"-0.023": 0.0,
			"-0.022": 0.0,
			"-0.021": 0.0,
			"-0.02": 0.0,
			"-0.019": 0.0,
			"-0.018": 0.0,
			"-0.017": 0.0,
			"-0.016": 0.0,
			"-0.015": 0.0,
			"-0.014": 0.0,
			"-0.013": 0.0,
			"-0.012": 0.0,
			"-0.011": 0.0,
			"-0.01": 0.0,
			"-0.009": 0.356839816044,
			"-0.008": 5.70139928452,
			"-0.007": 8.70412349768,
			"-0.006": 9.07552905002,
			"-0.005": 9.98147854035,
			"-0.004": 8.09557431067,
			"-0.003": 11.1974094155,
			"-0.002": 16.3790282176,
			"-0.001": 15.8383695208,
			"0.0": 14.0745898748,
			"0.001": 9.61546204018,
			"0.002": 7.04936860264,
			"0.003": 9.12771506463,
			"0.004": 7.36385887566,
			"0.005": 3.91897143959,
			"0.006": 3.42337268975,
			"0.007": 3.33798064313,
			"0.008": 3.27896415524,
			"0.009": 3.14090859556,
			"0.01": 4.90849921626,
			"0.011": 3.82785935171,
			"0.012": 1.83790010271,
			"0.013": 0.922040610485,
			"0.014": 0.303971755458,
			"0.015": 0.0,
			"0.016": 0.0,
			"0.017": 0.0,
			"0.018": 0.0,
			"0.019": 0.0,
			"0.02": 0.0,
			"0.021": 0.0,
			"0.022": 0.0,
			"0.023": 0.0,
			"0.024": 0.0,
			"0.025": 0.0
		}
	}
}
