{
	 "smiles": "CC1=CC(C(=O)CC(C)(C)C(O)=O)=C(C)C=C1", 
	 "Tm": 391.15, 
	 "num_atms": 35, 
	 "gaussian": { 
		 "optdone": 1, 
		 "sigma_profile": "yes", 
		 "theory": "DFT", 
		 "functional": "B3LYP", 
		 "basiset": "6-31G**", 
		 "properties": { 
			 "R2extent": 5838.0133, 
			 "electric_dipole_moment_norm": 2.81282648061, 
			 "electric_quadrupole_moment_norm": 9.89451870128, 
			 "total_energy": -770.045531437, 
			 "HOMO_LUMO_gap": 0.18989, 
			 "cosmo_polarized_energy": -14.24, 
			 "cosmo_cavitation_energy": 37.07, 
			 "cosmo_dispersion_energy": -25.55, 
			 "cosmo_repulsion_energy": 1.98, 
			 "cosmo_total_nonelectrostatic_energy": 13.5, 
			 "SMD_solvation_energy": 7.72 
		},
		"coords": [
			{
				"x": 2.0350241864,
				"y": -3.3008445329,
				"z": -0.6858535018,
				"element": "C" 
			},
			{
				"x": 1.6981111432,
				"y": -1.8285674011,
				"z": -0.6664232447,
				"element": "C" 
			},
			{
				"x": 0.3832477187,
				"y": -1.3864040822,
				"z": -0.5353660011,
				"element": "C" 
			},
			{
				"x": 0.0397163645,
				"y": -0.0231466061,
				"z": -0.4766948276,
				"element": "C" 
			},
			{
				"x": -1.4361881289,
				"y": 0.2343143442,
				"z": -0.3041115006,
				"element": "C" 
			},
			{
				"x": -2.2416052606,
				"y": -0.6158716592,
				"z": -0.6622789582,
				"element": "O" 
			},
			{
				"x": -1.9360115421,
				"y": 1.5059456286,
				"z": 0.3731669022,
				"element": "C" 
			},
			{
				"x": -3.4002055608,
				"y": 1.432683247,
				"z": 0.8616773612,
				"element": "C" 
			},
			{
				"x": -3.7810653298,
				"y": 2.811443381,
				"z": 1.4579977074,
				"element": "C" 
			},
			{
				"x": -3.600546915,
				"y": 0.3413485588,
				"z": 1.9269013099,
				"element": "C" 
			},
			{
				"x": -4.2939241481,
				"y": 1.24653428,
				"z": -0.3684594128,
				"element": "C" 
			},
			{
				"x": -5.3608354853,
				"y": 0.4469338422,
				"z": -0.1484158224,
				"element": "O" 
			},
			{
				"x": -4.1280194902,
				"y": 1.827398334,
				"z": -1.4213460759,
				"element": "O" 
			},
			{
				"x": 1.0565357379,
				"y": 0.9554480716,
				"z": -0.5908813327,
				"element": "C" 
			},
			{
				"x": 0.8235258018,
				"y": 2.451427242,
				"z": -0.623664486,
				"element": "C" 
			},
			{
				"x": 2.3750328738,
				"y": 0.5002599499,
				"z": -0.7396455321,
				"element": "C" 
			},
			{
				"x": 2.6977281769,
				"y": -0.8529760731,
				"z": -0.7669031901,
				"element": "C" 
			},
			{
				"x": 1.1474051019,
				"y": -3.9095222276,
				"z": -0.878081397,
				"element": "H" 
			},
			{
				"x": 2.4561594988,
				"y": -3.6253088609,
				"z": 0.2737999752,
				"element": "H" 
			},
			{
				"x": 2.7771692182,
				"y": -3.5308508011,
				"z": -1.4575103102,
				"element": "H" 
			},
			{
				"x": -0.4275988049,
				"y": -2.1052288876,
				"z": -0.4741125526,
				"element": "H" 
			},
			{
				"x": -1.8569392235,
				"y": 2.3242566872,
				"z": -0.350007168,
				"element": "H" 
			},
			{
				"x": -1.2801403649,
				"y": 1.7596152834,
				"z": 1.2138721595,
				"element": "H" 
			},
			{
				"x": -4.821544209,
				"y": 2.811330417,
				"z": 1.7980567824,
				"element": "H" 
			},
			{
				"x": -3.6612094847,
				"y": 3.607565201,
				"z": 0.7177071246,
				"element": "H" 
			},
			{
				"x": -3.1456426963,
				"y": 3.0379696344,
				"z": 2.320706028,
				"element": "H" 
			},
			{
				"x": -4.6254555256,
				"y": 0.352306475,
				"z": 2.3054142899,
				"element": "H" 
			},
			{
				"x": -2.925732505,
				"y": 0.5230432321,
				"z": 2.7711462503,
				"element": "H" 
			},
			{
				"x": -3.3993061342,
				"y": -0.6514872465,
				"z": 1.5233515219,
				"element": "H" 
			},
			{
				"x": -5.8566130689,
				"y": 0.4365879201,
				"z": -0.9844810073,
				"element": "H" 
			},
			{
				"x": 0.5032890112,
				"y": 2.8491701399,
				"z": 0.3448227283,
				"element": "H" 
			},
			{
				"x": 0.0651348528,
				"y": 2.7357114007,
				"z": -1.3595770958,
				"element": "H" 
			},
			{
				"x": 1.7491790901,
				"y": 2.9658728349,
				"z": -0.8940740799,
				"element": "H" 
			},
			{
				"x": 3.1693052753,
				"y": 1.2345339441,
				"z": -0.8472154267,
				"element": "H" 
			},
			{
				"x": 3.7372198263,
				"y": -1.1527916709,
				"z": -0.8787172175,
				"element": "H" 
			}
		],
		 "valence_orbital": [ 
			{
				"type": "occ",
				"energy": -0.30392,
				"method": "rhf"
			},
			{
				"type": "occ",
				"energy": -0.26119,
				"method": "rhf"
			},
			{
				"type": "occ",
				"energy": -0.25567,
				"method": "rhf"
			},
			{
				"type": "occ",
				"energy": -0.24574,
				"method": "rhf"
			},
			{
				"type": "occ",
				"energy": -0.24022,
				"method": "rhf"
			},
			{
				"type": "unocc",
				"energy": -0.05033,
				"method": "rhf"
			},
			{
				"type": "unocc",
				"energy": -0.00103,
				"method": "rhf"
			},
			{
				"type": "unocc",
				"energy": 0.02283,
				"method": "rhf"
			},
			{
				"type": "unocc",
				"energy": 0.03092,
				"method": "rhf"
			},
			{
				"type": "unocc",
				"energy": 0.07763,
				"method": "rhf"
			}
		],
		"cosmo_sigma_profile": { 
			"-0.025": 0.0,
			"-0.024": 0.0,
			"-0.023": 0.0,
			"-0.022": 0.0,
			"-0.021": 0.0,
			"-0.02": 0.0,
			"-0.019": 0.0,
			"-0.018": 0.362909624697,
			"-0.017": 1.26195435424,
			"-0.016": 0.552417549273,
			"-0.015": 0.914080442088,
			"-0.014": 0.688920595151,
			"-0.013": 0.676091284412,
			"-0.012": 0.654633585037,
			"-0.011": 0.414831759381,
			"-0.01": 0.864311623388,
			"-0.009": 0.782009086576,
			"-0.008": 0.583783912859,
			"-0.007": 1.39167352325,
			"-0.006": 7.56452924778,
			"-0.005": 16.5255963834,
			"-0.004": 28.8733821809,
			"-0.003": 29.611106977,
			"-0.002": 30.6548465974,
			"-0.001": 31.0771277443,
			"0.0": 32.7095297232,
			"0.001": 18.700196994,
			"0.002": 11.9323784965,
			"0.003": 12.1546984092,
			"0.004": 12.1705088293,
			"0.005": 11.3688174345,
			"0.006": 5.10431310564,
			"0.007": 4.72422226409,
			"0.008": 5.09127281033,
			"0.009": 6.32580123003,
			"0.01": 3.79556678737,
			"0.011": 4.64665773578,
			"0.012": 6.45054833256,
			"0.013": 1.72110530927,
			"0.014": 0.0,
			"0.015": 0.0,
			"0.016": 0.0,
			"0.017": 0.0,
			"0.018": 0.0,
			"0.019": 0.0,
			"0.02": 0.0,
			"0.021": 0.0,
			"0.022": 0.0,
			"0.023": 0.0,
			"0.024": 0.0,
			"0.025": 0.0
		}
	}
}
