{
	 "smiles": "CC(C)(C(N)=O)C1=CC=C(N)C=C1", 
	 "Tm": 396.15, 
	 "num_atms": 27, 
	 "gaussian": { 
		 "optdone": 1, 
		 "sigma_profile": "yes", 
		 "theory": "DFT", 
		 "functional": "B3LYP", 
		 "basiset": "6-31G**", 
		 "properties": { 
			 "R2extent": 2802.2008, 
			 "electric_dipole_moment_norm": 4.30153209566, 
			 "electric_quadrupole_moment_norm": 19.6848497642, 
			 "total_energy": -574.252667253, 
			 "HOMO_LUMO_gap": 0.20085, 
			 "cosmo_polarized_energy": -19.07, 
			 "cosmo_cavitation_energy": 29.18, 
			 "cosmo_dispersion_energy": -20.89, 
			 "cosmo_repulsion_energy": 1.66, 
			 "cosmo_total_nonelectrostatic_energy": 9.95, 
			 "SMD_solvation_energy": 5.74 
		},
		"coords": [
			{
				"x": -1.8909220495,
				"y": 1.0035901389,
				"z": -1.4839969149,
				"element": "C" 
			},
			{
				"x": -1.7369459704,
				"y": 0.3352542261,
				"z": -0.104356393,
				"element": "C" 
			},
			{
				"x": -2.6618047596,
				"y": -0.9040148262,
				"z": -0.056405098,
				"element": "C" 
			},
			{
				"x": -2.1072912789,
				"y": 1.4223303259,
				"z": 0.9438984987,
				"element": "C" 
			},
			{
				"x": -2.8984269592,
				"y": 1.0357576436,
				"z": 1.9942713432,
				"element": "N" 
			},
			{
				"x": -1.6842888972,
				"y": 2.5657253323,
				"z": 0.8563184083,
				"element": "O" 
			},
			{
				"x": -0.2875379223,
				"y": -0.0998881777,
				"z": 0.1872403911,
				"element": "C" 
			},
			{
				"x": 0.7453679793,
				"y": 0.0078157018,
				"z": -0.7516046464,
				"element": "C" 
			},
			{
				"x": 2.0404434745,
				"y": -0.4237278726,
				"z": -0.4694533096,
				"element": "C" 
			},
			{
				"x": 2.3586284468,
				"y": -0.9777246132,
				"z": 0.779100145,
				"element": "C" 
			},
			{
				"x": 3.6668956934,
				"y": -1.3581959432,
				"z": 1.0882629846,
				"element": "N" 
			},
			{
				"x": 1.3321796425,
				"y": -1.0796031648,
				"z": 1.7334704957,
				"element": "C" 
			},
			{
				"x": 0.0442998989,
				"y": -0.6484006675,
				"z": 1.4369468511,
				"element": "C" 
			},
			{
				"x": -2.935032158,
				"y": 1.2904632504,
				"z": -1.6456023157,
				"element": "H" 
			},
			{
				"x": -1.2839036873,
				"y": 1.9078816031,
				"z": -1.5449216588,
				"element": "H" 
			},
			{
				"x": -1.6067472963,
				"y": 0.3158502115,
				"z": -2.286111065,
				"element": "H" 
			},
			{
				"x": -2.5697674892,
				"y": -1.462116741,
				"z": 0.880947247,
				"element": "H" 
			},
			{
				"x": -3.7125593521,
				"y": -0.6264355251,
				"z": -0.2020951563,
				"element": "H" 
			},
			{
				"x": -2.38692295,
				"y": -1.5945609263,
				"z": -0.85918227,
				"element": "H" 
			},
			{
				"x": -3.3918557854,
				"y": 0.1596952304,
				"z": 2.0102482181,
				"element": "H" 
			},
			{
				"x": -3.1763735938,
				"y": 1.7587699851,
				"z": 2.6412614578,
				"element": "H" 
			},
			{
				"x": 0.552955053,
				"y": 0.4361195129,
				"z": -1.7287153859,
				"element": "H" 
			},
			{
				"x": 2.8170664311,
				"y": -0.3208868385,
				"z": -1.2238639372,
				"element": "H" 
			},
			{
				"x": 4.2467591961,
				"y": -1.582899145,
				"z": 0.2914955731,
				"element": "H" 
			},
			{
				"x": 3.7501903592,
				"y": -2.0506360427,
				"z": 1.8197892577,
				"element": "H" 
			},
			{
				"x": 1.5520263082,
				"y": -1.4905515079,
				"z": 2.7161520774,
				"element": "H" 
			},
			{
				"x": -0.7168323337,
				"y": -0.7286111703,
				"z": 2.208405202,
				"element": "H" 
			}
		],
		 "valence_orbital": [ 
			{
				"type": "occ",
				"energy": -0.29804,
				"method": "rhf"
			},
			{
				"type": "occ",
				"energy": -0.25949,
				"method": "rhf"
			},
			{
				"type": "occ",
				"energy": -0.241,
				"method": "rhf"
			},
			{
				"type": "occ",
				"energy": -0.23661,
				"method": "rhf"
			},
			{
				"type": "occ",
				"energy": -0.19465,
				"method": "rhf"
			},
			{
				"type": "unocc",
				"energy": 0.0062,
				"method": "rhf"
			},
			{
				"type": "unocc",
				"energy": 0.01647,
				"method": "rhf"
			},
			{
				"type": "unocc",
				"energy": 0.04588,
				"method": "rhf"
			},
			{
				"type": "unocc",
				"energy": 0.07291,
				"method": "rhf"
			},
			{
				"type": "unocc",
				"energy": 0.08361,
				"method": "rhf"
			}
		],
		"cosmo_sigma_profile": { 
			"-0.025": 0.0,
			"-0.024": 0.0,
			"-0.023": 0.0,
			"-0.022": 0.0,
			"-0.021": 0.0,
			"-0.02": 0.0,
			"-0.019": 0.0,
			"-0.018": 0.0,
			"-0.017": 0.0,
			"-0.016": 0.0,
			"-0.015": 0.0,
			"-0.014": 0.390230814961,
			"-0.013": 1.9814682987,
			"-0.012": 4.54610668664,
			"-0.011": 4.98483465204,
			"-0.01": 4.56595059436,
			"-0.009": 5.44907018634,
			"-0.008": 5.94111762859,
			"-0.007": 4.78036617588,
			"-0.006": 6.50069968932,
			"-0.005": 8.47216439645,
			"-0.004": 16.6704072368,
			"-0.003": 20.5765487358,
			"-0.002": 16.0967602497,
			"-0.001": 15.7178874683,
			"0.0": 16.5082167672,
			"0.001": 13.5304810844,
			"0.002": 9.51682249813,
			"0.003": 8.11977348024,
			"0.004": 8.80995512763,
			"0.005": 8.99563994202,
			"0.006": 10.0147034165,
			"0.007": 10.0187987245,
			"0.008": 4.37187352847,
			"0.009": 2.3462001942,
			"0.01": 2.00773181868,
			"0.011": 2.80009203444,
			"0.012": 2.71750788955,
			"0.013": 3.40692705336,
			"0.014": 6.41856269581,
			"0.015": 2.05962939802,
			"0.016": 0.0,
			"0.017": 0.0,
			"0.018": 0.0,
			"0.019": 0.0,
			"0.02": 0.0,
			"0.021": 0.0,
			"0.022": 0.0,
			"0.023": 0.0,
			"0.024": 0.0,
			"0.025": 0.0
		}
	}
}
