{
	 "smiles": "CC1=CC(I)=C(O)N=C1", 
	 "Tm": 464.65, 
	 "num_atms": 15, 
	 "gaussian": { 
		 "optdone": 1, 
		 "sigma_profile": "no", 
		 "theory": "DFT", 
		 "functional": "B3LYP", 
		 "basiset": "6-31G**", 
		 "properties": { 
			 "R2extent": 1426.0568, 
			 "electric_dipole_moment_norm": 2.35834731539, 
			 "electric_quadrupole_moment_norm": 5.21631703024, 
			 "total_energy": -373.621617362, 
			 "HOMO_LUMO_gap": 0.19379, 
			 "cosmo_polarized_energy": -95473.99, 
			 "cosmo_cavitation_energy": 22.24, 
			 "cosmo_dispersion_energy": -18.06, 
			 "cosmo_repulsion_energy": 1.45, 
			 "cosmo_total_nonelectrostatic_energy": 5.64, 
			 "SMD_solvation_energy": 2.24 
		},
		"coords": [
			{
				"x": 0.153067238,
				"y": 0.0480038927,
				"z": -2.503957177,
				"element": "C" 
			},
			{
				"x": -0.1302631055,
				"y": -0.2076376885,
				"z": -1.0444483218,
				"element": "C" 
			},
			{
				"x": -1.1529364138,
				"y": 0.472820094,
				"z": -0.3622514204,
				"element": "C" 
			},
			{
				"x": -1.3898471338,
				"y": 0.216813982,
				"z": 0.9812998707,
				"element": "C" 
			},
			{
				"x": -2.9224535642,
				"y": 1.2301572425,
				"z": 2.0202834287,
				"element": "I" 
			},
			{
				"x": -0.5808318419,
				"y": -0.7354804101,
				"z": 1.6286234486,
				"element": "C" 
			},
			{
				"x": -0.7771520643,
				"y": -1.0136740205,
				"z": 2.9327118298,
				"element": "O" 
			},
			{
				"x": 0.3896625928,
				"y": -1.3873910325,
				"z": 0.9978431306,
				"element": "N" 
			},
			{
				"x": 0.6047195728,
				"y": -1.1280951388,
				"z": -0.2990853007,
				"element": "C" 
			},
			{
				"x": 0.9809284608,
				"y": -0.5729356618,
				"z": -2.8573639703,
				"element": "H" 
			},
			{
				"x": 0.4222022537,
				"y": 1.0949826448,
				"z": -2.6835806536,
				"element": "H" 
			},
			{
				"x": -0.7198162767,
				"y": -0.1746632693,
				"z": -3.127891967,
				"element": "H" 
			},
			{
				"x": -1.7622017775,
				"y": 1.2028675219,
				"z": -0.886389136,
				"element": "H" 
			},
			{
				"x": -0.116881398,
				"y": -1.6869145115,
				"z": 3.1619596027,
				"element": "H" 
			},
			{
				"x": 1.4119034575,
				"y": -1.6907536449,
				"z": -0.7651533645,
				"element": "H" 
			}
		],
		 "valence_orbital": [ 
			{
				"type": "occ",
				"energy": -0.31585,
				"method": "rhf"
			},
			{
				"type": "occ",
				"energy": -0.28105,
				"method": "rhf"
			},
			{
				"type": "occ",
				"energy": -0.26346,
				"method": "rhf"
			},
			{
				"type": "occ",
				"energy": -0.26233,
				"method": "rhf"
			},
			{
				"type": "occ",
				"energy": -0.23116,
				"method": "rhf"
			},
			{
				"type": "unocc",
				"energy": -0.03737,
				"method": "rhf"
			},
			{
				"type": "unocc",
				"energy": -0.03552,
				"method": "rhf"
			},
			{
				"type": "unocc",
				"energy": -0.00539,
				"method": "rhf"
			},
			{
				"type": "unocc",
				"energy": 0.04424,
				"method": "rhf"
			},
			{
				"type": "unocc",
				"energy": 0.05168,
				"method": "rhf"
			}
		],
		"cosmo_sigma_profile": { 
			"0.0": 0.0,
			"0.0": 0.0,
			"0.0": 0.0,
			"0.0": 0.0,
			"0.0": 0.0,
			"0.0": 0.0,
			"0.0": 0.0,
			"0.0": 0.0,
			"0.0": 0.0,
			"0.0": 0.0,
			"0.0": 0.0,
			"0.0": 0.0,
			"0.0": 0.0,
			"0.0": 0.0,
			"0.0": 0.0,
			"0.0": 0.0,
			"0.0": 0.0,
			"0.0": 0.0,
			"0.0": 0.0,
			"0.0": 0.0,
			"0.0": 0.0,
			"0.0": 0.0,
			"0.0": 0.0,
			"0.0": 0.0,
			"0.0": 0.0,
			"0.0": 0.0,
			"0.0": 0.0,
			"0.0": 0.0,
			"0.0": 0.0,
			"0.0": 0.0,
			"0.0": 0.0,
			"0.0": 0.0,
			"0.0": 0.0,
			"0.0": 0.0,
			"0.0": 0.0,
			"0.0": 0.0,
			"0.0": 0.0,
			"0.0": 0.0,
			"0.0": 0.0,
			"0.0": 0.0,
			"0.0": 0.0,
			"0.0": 0.0,
			"0.0": 0.0,
			"0.0": 0.0,
			"0.0": 0.0,
			"0.0": 0.0,
			"0.0": 0.0,
			"0.0": 0.0,
			"0.0": 0.0,
			"0.0": 0.0,
			"0.0": 0.0
		}
	}
}
