{
	 "smiles": "ClC1CCCCC1Cl", 
	 "Tm": 271.65, 
	 "num_atms": 18, 
	 "gaussian": { 
		 "optdone": 1, 
		 "sigma_profile": "yes", 
		 "theory": "DFT", 
		 "functional": "B3LYP", 
		 "basiset": "6-31G**", 
		 "properties": { 
			 "R2extent": 1873.5984, 
			 "electric_dipole_moment_norm": 3.47504517956, 
			 "electric_quadrupole_moment_norm": 5.61569366241, 
			 "total_energy": -1155.06567526, 
			 "HOMO_LUMO_gap": 0.29488, 
			 "cosmo_polarized_energy": -6.77, 
			 "cosmo_cavitation_energy": 22.07, 
			 "cosmo_dispersion_energy": -16.93, 
			 "cosmo_repulsion_energy": 1.4, 
			 "cosmo_total_nonelectrostatic_energy": 6.54, 
			 "SMD_solvation_energy": 2.35 
		},
		"coords": [
			{
				"x": 1.2199820504,
				"y": 0.6179158822,
				"z": -1.7172313178,
				"element": "Cl" 
			},
			{
				"x": -0.0470600497,
				"y": 0.4583545991,
				"z": -0.3981987772,
				"element": "C" 
			},
			{
				"x": 0.1454265082,
				"y": -0.8501637697,
				"z": 0.4066330413,
				"element": "C" 
			},
			{
				"x": -0.7496836583,
				"y": -2.0142534846,
				"z": -0.0809732716,
				"element": "C" 
			},
			{
				"x": -1.006455583,
				"y": -1.9471683205,
				"z": -1.5934669245,
				"element": "C" 
			},
			{
				"x": -1.7173130144,
				"y": -0.62970141,
				"z": -2.0010364155,
				"element": "C" 
			},
			{
				"x": -1.4562998571,
				"y": 0.4878277478,
				"z": -0.9809454769,
				"element": "C" 
			},
			{
				"x": -1.8874686443,
				"y": 2.1169483128,
				"z": -1.6722566681,
				"element": "Cl" 
			},
			{
				"x": 0.1231282576,
				"y": 1.3320811974,
				"z": 0.2302590515,
				"element": "H" 
			},
			{
				"x": 1.201450453,
				"y": -1.1276979975,
				"z": 0.363984754,
				"element": "H" 
			},
			{
				"x": -0.0766672171,
				"y": -0.630280012,
				"z": 1.4578088191,
				"element": "H" 
			},
			{
				"x": -0.2816603914,
				"y": -2.9677996049,
				"z": 0.1839917136,
				"element": "H" 
			},
			{
				"x": -1.7103152894,
				"y": -1.9903384536,
				"z": 0.4498040105,
				"element": "H" 
			},
			{
				"x": -0.0491720032,
				"y": -2.0187739669,
				"z": -2.1195224592,
				"element": "H" 
			},
			{
				"x": -1.6074722805,
				"y": -2.8045491425,
				"z": -1.9133929507,
				"element": "H" 
			},
			{
				"x": -1.3657342183,
				"y": -0.303433452,
				"z": -2.9825405979,
				"element": "H" 
			},
			{
				"x": -2.7996738351,
				"y": -0.7725069115,
				"z": -2.0785212916,
				"element": "H" 
			},
			{
				"x": -2.1319112275,
				"y": 0.3816387864,
				"z": -0.126595239,
				"element": "H" 
			}
		],
		 "valence_orbital": [ 
			{
				"type": "occ",
				"energy": -0.32991,
				"method": "rhf"
			},
			{
				"type": "occ",
				"energy": -0.3017,
				"method": "rhf"
			},
			{
				"type": "occ",
				"energy": -0.29635,
				"method": "rhf"
			},
			{
				"type": "occ",
				"energy": -0.29025,
				"method": "rhf"
			},
			{
				"type": "occ",
				"energy": -0.2879,
				"method": "rhf"
			},
			{
				"type": "unocc",
				"energy": 0.00698,
				"method": "rhf"
			},
			{
				"type": "unocc",
				"energy": 0.02928,
				"method": "rhf"
			},
			{
				"type": "unocc",
				"energy": 0.06924,
				"method": "rhf"
			},
			{
				"type": "unocc",
				"energy": 0.1085,
				"method": "rhf"
			},
			{
				"type": "unocc",
				"energy": 0.11978,
				"method": "rhf"
			}
		],
		"cosmo_sigma_profile": { 
			"-0.025": 0.0,
			"-0.024": 0.0,
			"-0.023": 0.0,
			"-0.022": 0.0,
			"-0.021": 0.0,
			"-0.02": 0.0,
			"-0.019": 0.0,
			"-0.018": 0.0,
			"-0.017": 0.0,
			"-0.016": 0.0,
			"-0.015": 0.0,
			"-0.014": 0.0,
			"-0.013": 0.0,
			"-0.012": 0.0,
			"-0.011": 0.0,
			"-0.01": 0.0,
			"-0.009": 0.0,
			"-0.008": 2.26089878206,
			"-0.007": 7.17936940213,
			"-0.006": 5.08544995435,
			"-0.005": 7.09414186418,
			"-0.004": 11.9265771538,
			"-0.003": 17.4930924628,
			"-0.002": 20.2339177669,
			"-0.001": 19.8997581135,
			"0.0": 15.5086766554,
			"0.001": 9.49290414704,
			"0.002": 7.51604776685,
			"0.003": 8.04729118887,
			"0.004": 8.58811774258,
			"0.005": 11.2255968916,
			"0.006": 14.8365414794,
			"0.007": 6.91316447109,
			"0.008": 2.38420788881,
			"0.009": 0.015188379791,
			"0.01": 0.0,
			"0.011": 0.0,
			"0.012": 0.0,
			"0.013": 0.0,
			"0.014": 0.0,
			"0.015": 0.0,
			"0.016": 0.0,
			"0.017": 0.0,
			"0.018": 0.0,
			"0.019": 0.0,
			"0.02": 0.0,
			"0.021": 0.0,
			"0.022": 0.0,
			"0.023": 0.0,
			"0.024": 0.0,
			"0.025": 0.0
		}
	}
}
