{
	 "smiles": "CNC1(CO)CCC(CC1)C1=CC=CC=C1", 
	 "Tm": 401.15, 
	 "num_atms": 37, 
	 "gaussian": { 
		 "optdone": 1, 
		 "sigma_profile": "yes", 
		 "theory": "DFT", 
		 "functional": "B3LYP", 
		 "basiset": "6-31G**", 
		 "properties": { 
			 "R2extent": 4435.5934, 
			 "electric_dipole_moment_norm": 2.00198546698, 
			 "electric_quadrupole_moment_norm": 11.9697423143, 
			 "total_energy": -676.106776767, 
			 "HOMO_LUMO_gap": 0.22391, 
			 "cosmo_polarized_energy": -9.82, 
			 "cosmo_cavitation_energy": 35.07, 
			 "cosmo_dispersion_energy": -25.44, 
			 "cosmo_repulsion_energy": 1.97, 
			 "cosmo_total_nonelectrostatic_energy": 11.6, 
			 "SMD_solvation_energy": 4.1 
		},
		"coords": [
			{
				"x": -2.3847671799,
				"y": 3.502343414,
				"z": 0.071623908,
				"element": "C" 
			},
			{
				"x": -1.9823938613,
				"y": 2.9775253877,
				"z": 1.3737614349,
				"element": "N" 
			},
			{
				"x": -1.2146487406,
				"y": 1.7107455918,
				"z": 1.4160300058,
				"element": "C" 
			},
			{
				"x": -1.1739628296,
				"y": 1.3807151263,
				"z": 2.9228681664,
				"element": "C" 
			},
			{
				"x": -0.4352456511,
				"y": 0.1870825172,
				"z": 3.1583496516,
				"element": "O" 
			},
			{
				"x": 0.21692315,
				"y": 1.977312587,
				"z": 0.8771059928,
				"element": "C" 
			},
			{
				"x": 0.9507785396,
				"y": 0.6997988375,
				"z": 0.444976169,
				"element": "C" 
			},
			{
				"x": 0.2402373758,
				"y": -0.029145845,
				"z": -0.729729708,
				"element": "C" 
			},
			{
				"x": -1.2842521918,
				"y": 0.3074624286,
				"z": -0.7560826545,
				"element": "C" 
			},
			{
				"x": -1.8744233387,
				"y": 0.5246309815,
				"z": 0.6431926315,
				"element": "C" 
			},
			{
				"x": 0.4967302301,
				"y": -1.5308707629,
				"z": -0.7406798916,
				"element": "C" 
			},
			{
				"x": 0.8849443449,
				"y": -2.1630537802,
				"z": -1.9308505838,
				"element": "C" 
			},
			{
				"x": 1.0882275341,
				"y": -3.5428096073,
				"z": -1.9892424978,
				"element": "C" 
			},
			{
				"x": 0.9032564803,
				"y": -4.3250971589,
				"z": -0.8488776207,
				"element": "C" 
			},
			{
				"x": 0.5181378956,
				"y": -3.7120207999,
				"z": 0.3448580024,
				"element": "C" 
			},
			{
				"x": 0.3199638472,
				"y": -2.3314120265,
				"z": 0.4003668887,
				"element": "C" 
			},
			{
				"x": -2.9660210222,
				"y": 4.415918886,
				"z": 0.2331478484,
				"element": "H" 
			},
			{
				"x": -2.9971523205,
				"y": 2.8207519841,
				"z": -0.5424500381,
				"element": "H" 
			},
			{
				"x": -1.5076730373,
				"y": 3.7830912186,
				"z": -0.518780532,
				"element": "H" 
			},
			{
				"x": -2.8265805951,
				"y": 2.8512415639,
				"z": 1.9284813908,
				"element": "H" 
			},
			{
				"x": -0.7311179283,
				"y": 2.2379032141,
				"z": 3.4490146952,
				"element": "H" 
			},
			{
				"x": -2.2118643434,
				"y": 1.2644506896,
				"z": 3.2833723503,
				"element": "H" 
			},
			{
				"x": -0.4059301769,
				"y": 0.0348116471,
				"z": 4.1102038518,
				"element": "H" 
			},
			{
				"x": 0.1550054451,
				"y": 2.6600604918,
				"z": 0.0219312253,
				"element": "H" 
			},
			{
				"x": 0.7922425796,
				"y": 2.5081822089,
				"z": 1.6436670367,
				"element": "H" 
			},
			{
				"x": 1.9773690319,
				"y": 0.9442635113,
				"z": 0.1486633238,
				"element": "H" 
			},
			{
				"x": 1.0292144829,
				"y": 0.039325307,
				"z": 1.3095776865,
				"element": "H" 
			},
			{
				"x": 0.6555960611,
				"y": 0.3625178309,
				"z": -1.6666812203,
				"element": "H" 
			},
			{
				"x": -1.827644916,
				"y": -0.4892092302,
				"z": -1.2755830695,
				"element": "H" 
			},
			{
				"x": -1.4274433756,
				"y": 1.2147124021,
				"z": -1.3541808985,
				"element": "H" 
			},
			{
				"x": -2.9554821285,
				"y": 0.7022436959,
				"z": 0.5734199681,
				"element": "H" 
			},
			{
				"x": -1.7522977503,
				"y": -0.3931385541,
				"z": 1.2271700194,
				"element": "H" 
			},
			{
				"x": 1.0324937826,
				"y": -1.5622686237,
				"z": -2.8256650397,
				"element": "H" 
			},
			{
				"x": 1.3940468217,
				"y": -4.0043003476,
				"z": -2.9244585877,
				"element": "H" 
			},
			{
				"x": 1.0615719854,
				"y": -5.3992014318,
				"z": -0.8881558844,
				"element": "H" 
			},
			{
				"x": 0.3746745026,
				"y": -4.310588305,
				"z": 1.2407058556,
				"element": "H" 
			},
			{
				"x": 0.0331872967,
				"y": -1.8750750497,
				"z": 1.3433301233,
				"element": "H" 
			}
		],
		 "valence_orbital": [ 
			{
				"type": "occ",
				"energy": -0.28716,
				"method": "rhf"
			},
			{
				"type": "occ",
				"energy": -0.26876,
				"method": "rhf"
			},
			{
				"type": "occ",
				"energy": -0.237,
				"method": "rhf"
			},
			{
				"type": "occ",
				"energy": -0.22766,
				"method": "rhf"
			},
			{
				"type": "occ",
				"energy": -0.21388,
				"method": "rhf"
			},
			{
				"type": "unocc",
				"energy": 0.01003,
				"method": "rhf"
			},
			{
				"type": "unocc",
				"energy": 0.01211,
				"method": "rhf"
			},
			{
				"type": "unocc",
				"energy": 0.06548,
				"method": "rhf"
			},
			{
				"type": "unocc",
				"energy": 0.08387,
				"method": "rhf"
			},
			{
				"type": "unocc",
				"energy": 0.09553,
				"method": "rhf"
			}
		],
		"cosmo_sigma_profile": { 
			"-0.025": 0.0,
			"-0.024": 0.0,
			"-0.023": 0.0,
			"-0.022": 0.0,
			"-0.021": 0.0,
			"-0.02": 0.0,
			"-0.019": 0.0,
			"-0.018": 0.0,
			"-0.017": 0.0,
			"-0.016": 0.46323859356,
			"-0.015": 1.19698450191,
			"-0.014": 0.784379823266,
			"-0.013": 0.811103612574,
			"-0.012": 1.08572073662,
			"-0.011": 1.00003399883,
			"-0.01": 0.782856864065,
			"-0.009": 1.96966944554,
			"-0.008": 2.40608635041,
			"-0.007": 2.05992602306,
			"-0.006": 3.45029569435,
			"-0.005": 9.5155700917,
			"-0.004": 15.1150783434,
			"-0.003": 25.7894332037,
			"-0.002": 32.9659517818,
			"-0.001": 33.2446540941,
			"0.0": 31.9176856768,
			"0.001": 26.2899339684,
			"0.002": 16.8479789315,
			"0.003": 12.2916187472,
			"0.004": 10.9508885688,
			"0.005": 11.8592277851,
			"0.006": 11.5337871664,
			"0.007": 9.04584452071,
			"0.008": 1.81361911861,
			"0.009": 2.12731134831,
			"0.01": 1.26548344748,
			"0.011": 0.749966132966,
			"0.012": 0.355624499682,
			"0.013": 0.511637542969,
			"0.014": 0.552847312361,
			"0.015": 0.857746540293,
			"0.016": 0.297230708401,
			"0.017": 0.4415690703,
			"0.018": 0.242961135747,
			"0.019": 0.0,
			"0.02": 0.0,
			"0.021": 0.0,
			"0.022": 0.0,
			"0.023": 0.0,
			"0.024": 0.0,
			"0.025": 0.0
		}
	}
}
