{
	 "smiles": "FC(F)(F)CN1CCNC2=C1C=CC=C2", 
	 "Tm": 336.15, 
	 "num_atms": 26, 
	 "gaussian": { 
		 "optdone": 1, 
		 "sigma_profile": "yes", 
		 "theory": "DFT", 
		 "functional": "B3LYP", 
		 "basiset": "6-31G**", 
		 "properties": { 
			 "R2extent": 3327.0166, 
			 "electric_dipole_moment_norm": 3.17119209604, 
			 "electric_quadrupole_moment_norm": 8.05203397658, 
			 "total_energy": -796.719680497, 
			 "HOMO_LUMO_gap": 0.19079, 
			 "cosmo_polarized_energy": -9.46, 
			 "cosmo_cavitation_energy": 29.04, 
			 "cosmo_dispersion_energy": -21.12, 
			 "cosmo_repulsion_energy": 1.58, 
			 "cosmo_total_nonelectrostatic_energy": 9.49, 
			 "SMD_solvation_energy": 4.11 
		},
		"coords": [
			{
				"x": -1.5925609158,
				"y": 3.5867805612,
				"z": 1.77367688,
				"element": "F" 
			},
			{
				"x": -1.4989200233,
				"y": 2.3510016425,
				"z": 1.2316691502,
				"element": "C" 
			},
			{
				"x": -2.6622819211,
				"y": 2.0988113363,
				"z": 0.5891734382,
				"element": "F" 
			},
			{
				"x": -1.3983430819,
				"y": 1.4668226088,
				"z": 2.2434114751,
				"element": "F" 
			},
			{
				"x": -0.3116090498,
				"y": 2.2882493768,
				"z": 0.2721452379,
				"element": "C" 
			},
			{
				"x": -0.1459708389,
				"y": 1.0408204533,
				"z": -0.4168329827,
				"element": "N" 
			},
			{
				"x": -0.9870162959,
				"y": 0.7698944668,
				"z": -1.576103487,
				"element": "C" 
			},
			{
				"x": -0.1820949794,
				"y": 0.0007221962,
				"z": -2.6233958464,
				"element": "C" 
			},
			{
				"x": 0.3054589498,
				"y": -1.2187231096,
				"z": -2.0058357334,
				"element": "N" 
			},
			{
				"x": 0.93590951,
				"y": -1.1116775977,
				"z": -0.7576364753,
				"element": "C" 
			},
			{
				"x": 0.6709580248,
				"y": 0.0060956029,
				"z": 0.0803534103,
				"element": "C" 
			},
			{
				"x": 1.2576570365,
				"y": 0.0383866523,
				"z": 1.3533202183,
				"element": "C" 
			},
			{
				"x": 2.1170928,
				"y": -0.9746909285,
				"z": 1.7844875869,
				"element": "C" 
			},
			{
				"x": 2.3874933798,
				"y": -2.0589309468,
				"z": 0.9543699558,
				"element": "C" 
			},
			{
				"x": 1.7913288683,
				"y": -2.1208110078,
				"z": -0.3049659311,
				"element": "C" 
			},
			{
				"x": -0.4712931252,
				"y": 3.0938915434,
				"z": -0.4550868272,
				"element": "H" 
			},
			{
				"x": 0.5884961976,
				"y": 2.5381679927,
				"z": 0.8408381647,
				"element": "H" 
			},
			{
				"x": -1.3203033706,
				"y": 1.7250589279,
				"z": -1.9934119618,
				"element": "H" 
			},
			{
				"x": -1.8840585175,
				"y": 0.1949850342,
				"z": -1.3076202594,
				"element": "H" 
			},
			{
				"x": 0.6259873926,
				"y": 0.6505676796,
				"z": -2.9996265809,
				"element": "H" 
			},
			{
				"x": -0.8272206045,
				"y": -0.2606885019,
				"z": -3.469128896,
				"element": "H" 
			},
			{
				"x": 0.762273217,
				"y": -1.8615211221,
				"z": -2.6386884952,
				"element": "H" 
			},
			{
				"x": 1.0180429487,
				"y": 0.8447855428,
				"z": 2.0352251835,
				"element": "H" 
			},
			{
				"x": 2.5549205089,
				"y": -0.9142771205,
				"z": 2.7760975766,
				"element": "H" 
			},
			{
				"x": 3.0491683507,
				"y": -2.8559807772,
				"z": 1.2792338464,
				"element": "H" 
			},
			{
				"x": 1.9868855394,
				"y": -2.9666405057,
				"z": -0.9608686477,
				"element": "H" 
			}
		],
		 "valence_orbital": [ 
			{
				"type": "occ",
				"energy": -0.33634,
				"method": "rhf"
			},
			{
				"type": "occ",
				"energy": -0.28832,
				"method": "rhf"
			},
			{
				"type": "occ",
				"energy": -0.2825,
				"method": "rhf"
			},
			{
				"type": "occ",
				"energy": -0.21214,
				"method": "rhf"
			},
			{
				"type": "occ",
				"energy": -0.17584,
				"method": "rhf"
			},
			{
				"type": "unocc",
				"energy": 0.01495,
				"method": "rhf"
			},
			{
				"type": "unocc",
				"energy": 0.02619,
				"method": "rhf"
			},
			{
				"type": "unocc",
				"energy": 0.0724,
				"method": "rhf"
			},
			{
				"type": "unocc",
				"energy": 0.09713,
				"method": "rhf"
			},
			{
				"type": "unocc",
				"energy": 0.10396,
				"method": "rhf"
			}
		],
		"cosmo_sigma_profile": { 
			"-0.025": 0.0,
			"-0.024": 0.0,
			"-0.023": 0.0,
			"-0.022": 0.0,
			"-0.021": 0.0,
			"-0.02": 0.0,
			"-0.019": 0.0,
			"-0.018": 0.0,
			"-0.017": 0.0,
			"-0.016": 0.0,
			"-0.015": 0.0,
			"-0.014": 0.0,
			"-0.013": 0.10495113842,
			"-0.012": 1.1822380989,
			"-0.011": 1.24815114454,
			"-0.01": 1.42976187328,
			"-0.009": 1.94816888514,
			"-0.008": 5.28285519283,
			"-0.007": 6.76742876078,
			"-0.006": 7.75719439288,
			"-0.005": 12.5227478089,
			"-0.004": 16.4416425103,
			"-0.003": 20.1941919745,
			"-0.002": 18.5797755496,
			"-0.001": 11.7688638534,
			"0.0": 13.3478283609,
			"0.001": 11.901450141,
			"0.002": 18.3737869895,
			"0.003": 34.7432799769,
			"0.004": 11.9432605397,
			"0.005": 8.60355798861,
			"0.006": 7.59172948954,
			"0.007": 8.16462405941,
			"0.008": 6.36095864132,
			"0.009": 1.58915666084,
			"0.01": 0.612579182936,
			"0.011": 0.735218528349,
			"0.012": 0.32898499741,
			"0.013": 0.281893046046,
			"0.014": 0.0,
			"0.015": 0.0,
			"0.016": 0.0,
			"0.017": 0.0,
			"0.018": 0.0,
			"0.019": 0.0,
			"0.02": 0.0,
			"0.021": 0.0,
			"0.022": 0.0,
			"0.023": 0.0,
			"0.024": 0.0,
			"0.025": 0.0
		}
	}
}
