{
	 "smiles": "CC1=CC=C2C=CC=CC2=C1", 
	 "Tm": 306.85, 
	 "num_atms": 21, 
	 "gaussian": { 
		 "optdone": 1, 
		 "sigma_profile": "yes", 
		 "theory": "DFT", 
		 "functional": "B3LYP", 
		 "basiset": "6-31G**", 
		 "properties": { 
			 "R2extent": 1865.6155, 
			 "electric_dipole_moment_norm": 0.442018031306, 
			 "electric_quadrupole_moment_norm": 6.70718993469, 
			 "total_energy": -425.217297395, 
			 "HOMO_LUMO_gap": 0.17736, 
			 "cosmo_polarized_energy": -4.42, 
			 "cosmo_cavitation_energy": 24.05, 
			 "cosmo_dispersion_energy": -17.97, 
			 "cosmo_repulsion_energy": 1.41, 
			 "cosmo_total_nonelectrostatic_energy": 7.49, 
			 "SMD_solvation_energy": 3.88 
		},
		"coords": [
			{
				"x": -1.0054505311,
				"y": 2.0651630789,
				"z": 2.02542728,
				"element": "C" 
			},
			{
				"x": -0.2703821895,
				"y": 1.2039342981,
				"z": 1.0271959912,
				"element": "C" 
			},
			{
				"x": 1.1242689012,
				"y": 1.4011907775,
				"z": 0.8151227465,
				"element": "C" 
			},
			{
				"x": 1.8244591612,
				"y": 0.6353274376,
				"z": -0.0859273264,
				"element": "C" 
			},
			{
				"x": 1.1775770137,
				"y": -0.3826585661,
				"z": -0.838664416,
				"element": "C" 
			},
			{
				"x": 1.8674038031,
				"y": -1.1938145671,
				"z": -1.7783706854,
				"element": "C" 
			},
			{
				"x": 1.2043042393,
				"y": -2.1702384828,
				"z": -2.4884118509,
				"element": "C" 
			},
			{
				"x": -0.1824090011,
				"y": -2.3787056831,
				"z": -2.2888615865,
				"element": "C" 
			},
			{
				"x": -0.8787998212,
				"y": -1.6079119943,
				"z": -1.3843267576,
				"element": "C" 
			},
			{
				"x": -0.2244639429,
				"y": -0.5925560323,
				"z": -0.6360997931,
				"element": "C" 
			},
			{
				"x": -0.913702181,
				"y": 0.2202978857,
				"z": 0.3050010898,
				"element": "C" 
			},
			{
				"x": -2.0644241872,
				"y": 1.7989765649,
				"z": 2.081230844,
				"element": "H" 
			},
			{
				"x": -0.9393812096,
				"y": 3.1270203778,
				"z": 1.7596690383,
				"element": "H" 
			},
			{
				"x": -0.5793877909,
				"y": 1.9612485422,
				"z": 3.0305138434,
				"element": "H" 
			},
			{
				"x": 1.6382492054,
				"y": 2.1748068452,
				"z": 1.3807993542,
				"element": "H" 
			},
			{
				"x": 2.8888574704,
				"y": 0.8001905262,
				"z": -0.2346528544,
				"element": "H" 
			},
			{
				"x": 2.9318052713,
				"y": -1.03055841,
				"z": -1.9285463443,
				"element": "H" 
			},
			{
				"x": 1.7426492115,
				"y": -2.7844950054,
				"z": -3.2044878966,
				"element": "H" 
			},
			{
				"x": -0.6957833238,
				"y": -3.1514795505,
				"z": -2.8539855536,
				"element": "H" 
			},
			{
				"x": -1.943236138,
				"y": -1.7672160458,
				"z": -1.2304921497,
				"element": "H" 
			},
			{
				"x": -1.9787539606,
				"y": 0.0523780032,
				"z": 0.4510670269,
				"element": "H" 
			}
		],
		 "valence_orbital": [ 
			{
				"type": "occ",
				"energy": -0.32387,
				"method": "rhf"
			},
			{
				"type": "occ",
				"energy": -0.3142,
				"method": "rhf"
			},
			{
				"type": "occ",
				"energy": -0.2782,
				"method": "rhf"
			},
			{
				"type": "occ",
				"energy": -0.234,
				"method": "rhf"
			},
			{
				"type": "occ",
				"energy": -0.20971,
				"method": "rhf"
			},
			{
				"type": "unocc",
				"energy": -0.03235,
				"method": "rhf"
			},
			{
				"type": "unocc",
				"energy": -0.00478,
				"method": "rhf"
			},
			{
				"type": "unocc",
				"energy": 0.03782,
				"method": "rhf"
			},
			{
				"type": "unocc",
				"energy": 0.097,
				"method": "rhf"
			},
			{
				"type": "unocc",
				"energy": 0.10025,
				"method": "rhf"
			}
		],
		"cosmo_sigma_profile": { 
			"-0.025": 0.0,
			"-0.024": 0.0,
			"-0.023": 0.0,
			"-0.022": 0.0,
			"-0.021": 0.0,
			"-0.02": 0.0,
			"-0.019": 0.0,
			"-0.018": 0.0,
			"-0.017": 0.0,
			"-0.016": 0.0,
			"-0.015": 0.0,
			"-0.014": 0.0,
			"-0.013": 0.0,
			"-0.012": 0.0,
			"-0.011": 0.0,
			"-0.01": 0.0,
			"-0.009": 0.0,
			"-0.008": 0.0,
			"-0.007": 0.0,
			"-0.006": 4.18437263691,
			"-0.005": 17.0340383953,
			"-0.004": 19.893599313,
			"-0.003": 20.3057207399,
			"-0.002": 16.7425786741,
			"-0.001": 15.4389570928,
			"0.0": 16.7170366996,
			"0.001": 10.5581442721,
			"0.002": 10.8355088942,
			"0.003": 12.0187160763,
			"0.004": 17.6763105209,
			"0.005": 22.9726186851,
			"0.006": 7.4725934247,
			"0.007": 0.0,
			"0.008": 0.0,
			"0.009": 0.0,
			"0.01": 0.0,
			"0.011": 0.0,
			"0.012": 0.0,
			"0.013": 0.0,
			"0.014": 0.0,
			"0.015": 0.0,
			"0.016": 0.0,
			"0.017": 0.0,
			"0.018": 0.0,
			"0.019": 0.0,
			"0.02": 0.0,
			"0.021": 0.0,
			"0.022": 0.0,
			"0.023": 0.0,
			"0.024": 0.0,
			"0.025": 0.0
		}
	}
}
