{
	 "smiles": "NC(=O)C(=N/NC1=CC=C(O)C=C1)C1=NC2=C(S1)C=CC=C2", 
	 "Tm": 433.15, 
	 "num_atms": 34, 
	 "gaussian": { 
		 "optdone": 1, 
		 "sigma_profile": "yes", 
		 "theory": "DFT", 
		 "functional": "B3LYP", 
		 "basiset": "6-31G**", 
		 "properties": { 
			 "R2extent": 10468.8847, 
			 "electric_dipole_moment_norm": 1.66202307445, 
			 "electric_quadrupole_moment_norm": 24.3976981441, 
			 "total_energy": -1346.44595403, 
			 "HOMO_LUMO_gap": 0.12972, 
			 "cosmo_polarized_energy": -21.14, 
			 "cosmo_cavitation_energy": 40.52, 
			 "cosmo_dispersion_energy": -29.92, 
			 "cosmo_repulsion_energy": 2.24, 
			 "cosmo_total_nonelectrostatic_energy": 12.85, 
			 "SMD_solvation_energy": 5.63 
		},
		"coords": [
			{
				"x": -3.0251786565,
				"y": -0.4480998004,
				"z": -0.286328777,
				"element": "N" 
			},
			{
				"x": -2.1537623028,
				"y": -0.4606504617,
				"z": -1.333291071,
				"element": "C" 
			},
			{
				"x": -2.405003585,
				"y": -0.9768681461,
				"z": -2.4178990254,
				"element": "O" 
			},
			{
				"x": -0.8166406225,
				"y": 0.2094510774,
				"z": -1.1032535172,
				"element": "C" 
			},
			{
				"x": 0.2642232623,
				"y": 0.0162412487,
				"z": -1.8127066283,
				"element": "N" 
			},
			{
				"x": 0.4906169207,
				"y": -0.9441763632,
				"z": -2.6939139869,
				"element": "N" 
			},
			{
				"x": 0.0102998303,
				"y": -2.2822874914,
				"z": -2.7935803639,
				"element": "C" 
			},
			{
				"x": -0.4143540225,
				"y": -3.0238040281,
				"z": -1.6832735236,
				"element": "C" 
			},
			{
				"x": -0.7524068978,
				"y": -4.363121548,
				"z": -1.825178392,
				"element": "C" 
			},
			{
				"x": -0.6639701857,
				"y": -4.9851807578,
				"z": -3.0766363319,
				"element": "C" 
			},
			{
				"x": -1.0101323913,
				"y": -6.3046209529,
				"z": -3.1494011916,
				"element": "O" 
			},
			{
				"x": -0.2288608553,
				"y": -4.2510183692,
				"z": -4.183969939,
				"element": "C" 
			},
			{
				"x": 0.102587614,
				"y": -2.9054724102,
				"z": -4.0401786876,
				"element": "C" 
			},
			{
				"x": -0.6799382396,
				"y": 1.330458659,
				"z": -0.165378094,
				"element": "C" 
			},
			{
				"x": -1.5653239291,
				"y": 1.6904538439,
				"z": 0.7224476301,
				"element": "N" 
			},
			{
				"x": -1.142105228,
				"y": 2.7819005991,
				"z": 1.4610036221,
				"element": "C" 
			},
			{
				"x": 0.1404074062,
				"y": 3.2731280481,
				"z": 1.1170625914,
				"element": "C" 
			},
			{
				"x": 0.816133107,
				"y": 2.3022882372,
				"z": -0.1777868487,
				"element": "S" 
			},
			{
				"x": 0.6942159014,
				"y": 4.3712642649,
				"z": 1.7786700451,
				"element": "C" 
			},
			{
				"x": -0.04855719,
				"y": 4.9751969088,
				"z": 2.7914311528,
				"element": "C" 
			},
			{
				"x": -1.322244183,
				"y": 4.4943060825,
				"z": 3.1400409454,
				"element": "C" 
			},
			{
				"x": -1.8759778735,
				"y": 3.4017103513,
				"z": 2.4829182187,
				"element": "C" 
			},
			{
				"x": -3.9683462785,
				"y": -0.7330403905,
				"z": -0.5111658648,
				"element": "H" 
			},
			{
				"x": -2.8751479531,
				"y": 0.240046697,
				"z": 0.4487067774,
				"element": "H" 
			},
			{
				"x": 1.3897196207,
				"y": -0.8016881601,
				"z": -3.1347351241,
				"element": "H" 
			},
			{
				"x": -0.4753348384,
				"y": -2.5588072768,
				"z": -0.7057636934,
				"element": "H" 
			},
			{
				"x": -1.0857724499,
				"y": -4.9458453131,
				"z": -0.9731764506,
				"element": "H" 
			},
			{
				"x": -0.9315502471,
				"y": -6.6036961883,
				"z": -4.0644166712,
				"element": "H" 
			},
			{
				"x": -0.1571372448,
				"y": -4.7242026936,
				"z": -5.1607804187,
				"element": "H" 
			},
			{
				"x": 0.4248698641,
				"y": -2.332022113,
				"z": -4.904640916,
				"element": "H" 
			},
			{
				"x": 1.6774696349,
				"y": 4.7468892015,
				"z": 1.5135313669,
				"element": "H" 
			},
			{
				"x": 0.3650757633,
				"y": 5.8300306152,
				"z": 3.3181084418,
				"element": "H" 
			},
			{
				"x": -1.8801121437,
				"y": 4.9837635597,
				"z": 3.9326488215,
				"element": "H" 
			},
			{
				"x": -2.8590616068,
				"y": 3.0211730704,
				"z": 2.7406859037,
				"element": "H" 
			}
		],
		 "valence_orbital": [ 
			{
				"type": "occ",
				"energy": -0.25387,
				"method": "rhf"
			},
			{
				"type": "occ",
				"energy": -0.24382,
				"method": "rhf"
			},
			{
				"type": "occ",
				"energy": -0.23239,
				"method": "rhf"
			},
			{
				"type": "occ",
				"energy": -0.22993,
				"method": "rhf"
			},
			{
				"type": "occ",
				"energy": -0.1973,
				"method": "rhf"
			},
			{
				"type": "unocc",
				"energy": -0.06758,
				"method": "rhf"
			},
			{
				"type": "unocc",
				"energy": -0.01072,
				"method": "rhf"
			},
			{
				"type": "unocc",
				"energy": -0.00801,
				"method": "rhf"
			},
			{
				"type": "unocc",
				"energy": -0.0023,
				"method": "rhf"
			},
			{
				"type": "unocc",
				"energy": 0.01924,
				"method": "rhf"
			}
		],
		"cosmo_sigma_profile": { 
			"-0.025": 0.0,
			"-0.024": 0.0,
			"-0.023": 0.0,
			"-0.022": 0.0,
			"-0.021": 0.0,
			"-0.02": 0.0,
			"-0.019": 0.0,
			"-0.018": 0.523908788152,
			"-0.017": 1.23034088436,
			"-0.016": 1.52178473403,
			"-0.015": 2.20092138136,
			"-0.014": 2.35595231584,
			"-0.013": 3.02603125916,
			"-0.012": 3.18088393699,
			"-0.011": 2.41604545916,
			"-0.01": 4.26534810769,
			"-0.009": 3.09538804371,
			"-0.008": 4.50968118757,
			"-0.007": 8.62961012591,
			"-0.006": 17.7680047036,
			"-0.005": 18.4556565889,
			"-0.004": 18.1997595724,
			"-0.003": 15.3441358457,
			"-0.002": 13.8608078532,
			"-0.001": 16.1966273336,
			"0.0": 22.5228282448,
			"0.001": 21.637851443,
			"0.002": 26.4117194715,
			"0.003": 30.0218111109,
			"0.004": 30.8167407956,
			"0.005": 20.9850373708,
			"0.006": 7.18827901309,
			"0.007": 4.83517488755,
			"0.008": 4.03845768206,
			"0.009": 3.50574373679,
			"0.01": 3.46045905588,
			"0.011": 4.53400018853,
			"0.012": 3.03303567849,
			"0.013": 4.32474157961,
			"0.014": 2.53684665262,
			"0.015": 0.348759144268,
			"0.016": 0.0,
			"0.017": 0.0,
			"0.018": 0.0,
			"0.019": 0.0,
			"0.02": 0.0,
			"0.021": 0.0,
			"0.022": 0.0,
			"0.023": 0.0,
			"0.024": 0.0,
			"0.025": 0.0
		}
	}
}
