{
	 "smiles": "CC1(C)C2CCC1(C)C(=O)C2COC=O", 
	 "Tm": 347.15, 
	 "num_atms": 33, 
	 "gaussian": { 
		 "optdone": 1, 
		 "sigma_profile": "yes", 
		 "theory": "DFT", 
		 "functional": "B3LYP", 
		 "basiset": "6-31G**", 
		 "properties": { 
			 "R2extent": 3452.8628, 
			 "electric_dipole_moment_norm": 3.9940262568, 
			 "electric_quadrupole_moment_norm": 9.480746661, 
			 "total_energy": -693.797815763, 
			 "HOMO_LUMO_gap": 0.22051, 
			 "cosmo_polarized_energy": -11.02, 
			 "cosmo_cavitation_energy": 32.78, 
			 "cosmo_dispersion_energy": -22.77, 
			 "cosmo_repulsion_energy": 1.75, 
			 "cosmo_total_nonelectrostatic_energy": 11.76, 
			 "SMD_solvation_energy": 7.78 
		},
		"coords": [
			{
				"x": 0.5805961838,
				"y": 0.7721361646,
				"z": 1.8437053265,
				"element": "C" 
			},
			{
				"x": 1.0388690962,
				"y": 0.4534583088,
				"z": 0.4070197597,
				"element": "C" 
			},
			{
				"x": 2.33553737,
				"y": 1.2442372332,
				"z": 0.1617409643,
				"element": "C" 
			},
			{
				"x": -0.0475007926,
				"y": 0.6723592477,
				"z": -0.706007809,
				"element": "C" 
			},
			{
				"x": 0.6621996751,
				"y": 0.1234431913,
				"z": -1.9669419264,
				"element": "C" 
			},
			{
				"x": 1.4133811386,
				"y": -1.127655352,
				"z": -1.4135928288,
				"element": "C" 
			},
			{
				"x": 1.1563373194,
				"y": -1.0913146381,
				"z": 0.1310762443,
				"element": "C" 
			},
			{
				"x": 2.1091128454,
				"y": -1.930318966,
				"z": 0.9646059758,
				"element": "C" 
			},
			{
				"x": -0.3172454594,
				"y": -1.4864593675,
				"z": 0.2899710747,
				"element": "C" 
			},
			{
				"x": -0.7604517389,
				"y": -2.4768029586,
				"z": 0.8305542672,
				"element": "O" 
			},
			{
				"x": -1.1515011875,
				"y": -0.3633219378,
				"z": -0.3665124854,
				"element": "C" 
			},
			{
				"x": -2.3473160097,
				"y": 0.0827749855,
				"z": 0.4631617642,
				"element": "C" 
			},
			{
				"x": -3.2271170843,
				"y": 0.8203873104,
				"z": -0.4256527814,
				"element": "O" 
			},
			{
				"x": -4.2354587243,
				"y": 1.4825794387,
				"z": 0.1637079198,
				"element": "C" 
			},
			{
				"x": -4.4666881158,
				"y": 1.5180891047,
				"z": 1.3476923159,
				"element": "O" 
			},
			{
				"x": 1.4108331328,
				"y": 0.630885309,
				"z": 2.5434576979,
				"element": "H" 
			},
			{
				"x": -0.2358431018,
				"y": 0.1387092347,
				"z": 2.199275636,
				"element": "H" 
			},
			{
				"x": 0.2591123518,
				"y": 1.8161241321,
				"z": 1.9282689395,
				"element": "H" 
			},
			{
				"x": 3.0822937843,
				"y": 1.0005821787,
				"z": 0.92468419,
				"element": "H" 
			},
			{
				"x": 2.7906150131,
				"y": 1.0588355286,
				"z": -0.8126362099,
				"element": "H" 
			},
			{
				"x": 2.1369956031,
				"y": 2.3199838259,
				"z": 0.233711728,
				"element": "H" 
			},
			{
				"x": -0.417993565,
				"y": 1.6968688921,
				"z": -0.8039660649,
				"element": "H" 
			},
			{
				"x": -0.0538400429,
				"y": -0.1305838342,
				"z": -2.7540067886,
				"element": "H" 
			},
			{
				"x": 1.3552012521,
				"y": 0.8530875219,
				"z": -2.3931130468,
				"element": "H" 
			},
			{
				"x": 2.4896260564,
				"y": -1.0758396237,
				"z": -1.6042531522,
				"element": "H" 
			},
			{
				"x": 1.0618551266,
				"y": -2.0651964393,
				"z": -1.8562342058,
				"element": "H" 
			},
			{
				"x": 1.8863286995,
				"y": -1.8463711696,
				"z": 2.0325064737,
				"element": "H" 
			},
			{
				"x": 2.0167054821,
				"y": -2.9882026728,
				"z": 0.7002692799,
				"element": "H" 
			},
			{
				"x": 3.1486811002,
				"y": -1.6272236572,
				"z": 0.8033957516,
				"element": "H" 
			},
			{
				"x": -1.5752156094,
				"y": -0.7850276294,
				"z": -1.2879866783,
				"element": "H" 
			},
			{
				"x": -2.8819104318,
				"y": -0.7889102757,
				"z": 0.8531124628,
				"element": "H" 
			},
			{
				"x": -2.0848313232,
				"y": 0.7278119069,
				"z": 1.3022508475,
				"element": "H" 
			},
			{
				"x": -4.8247680439,
				"y": 1.9978750071,
				"z": -0.6112646418,
				"element": "H" 
			}
		],
		 "valence_orbital": [ 
			{
				"type": "occ",
				"energy": -0.32076,
				"method": "rhf"
			},
			{
				"type": "occ",
				"energy": -0.30397,
				"method": "rhf"
			},
			{
				"type": "occ",
				"energy": -0.30089,
				"method": "rhf"
			},
			{
				"type": "occ",
				"energy": -0.28246,
				"method": "rhf"
			},
			{
				"type": "occ",
				"energy": -0.24078,
				"method": "rhf"
			},
			{
				"type": "unocc",
				"energy": -0.02027,
				"method": "rhf"
			},
			{
				"type": "unocc",
				"energy": 0.0053,
				"method": "rhf"
			},
			{
				"type": "unocc",
				"energy": 0.06552,
				"method": "rhf"
			},
			{
				"type": "unocc",
				"energy": 0.09232,
				"method": "rhf"
			},
			{
				"type": "unocc",
				"energy": 0.09494,
				"method": "rhf"
			}
		],
		"cosmo_sigma_profile": { 
			"-0.025": 0.0,
			"-0.024": 0.0,
			"-0.023": 0.0,
			"-0.022": 0.0,
			"-0.021": 0.0,
			"-0.02": 0.0,
			"-0.019": 0.0,
			"-0.018": 0.0,
			"-0.017": 0.0,
			"-0.016": 0.0,
			"-0.015": 0.0,
			"-0.014": 0.0,
			"-0.013": 0.0,
			"-0.012": 0.0,
			"-0.011": 0.0,
			"-0.01": 0.0602415420392,
			"-0.009": 2.82797289634,
			"-0.008": 2.09651446536,
			"-0.007": 1.99395866455,
			"-0.006": 6.19331250096,
			"-0.005": 9.02263596059,
			"-0.004": 21.0473383703,
			"-0.003": 35.4566666127,
			"-0.002": 37.0336980907,
			"-0.001": 30.8574998824,
			"0.0": 29.7677680891,
			"0.001": 21.5152158317,
			"0.002": 7.45922574762,
			"0.003": 4.66871011548,
			"0.004": 3.63889667679,
			"0.005": 4.19319869765,
			"0.006": 4.20536621196,
			"0.007": 3.52840812923,
			"0.008": 4.2082410848,
			"0.009": 3.9827522467,
			"0.01": 4.49319627355,
			"0.011": 8.85688664327,
			"0.012": 6.49322684731,
			"0.013": 0.816009529854,
			"0.014": 0.0,
			"0.015": 0.0,
			"0.016": 0.0,
			"0.017": 0.0,
			"0.018": 0.0,
			"0.019": 0.0,
			"0.02": 0.0,
			"0.021": 0.0,
			"0.022": 0.0,
			"0.023": 0.0,
			"0.024": 0.0,
			"0.025": 0.0
		}
	}
}
