{
	 "smiles": "FC(F)(F)C(Cl)(Cl)C(F)(F)Cl", 
	 "Tm": 268.85, 
	 "num_atms": 11, 
	 "gaussian": { 
		 "optdone": 1, 
		 "sigma_profile": "yes", 
		 "theory": "DFT", 
		 "functional": "B3LYP", 
		 "basiset": "6-31G**", 
		 "properties": { 
			 "R2extent": 2137.2893, 
			 "electric_dipole_moment_norm": 0.268254282352, 
			 "electric_quadrupole_moment_norm": 0.742476565287, 
			 "total_energy": -1994.06714005, 
			 "HOMO_LUMO_gap": 0.28447, 
			 "cosmo_polarized_energy": -1.14, 
			 "cosmo_cavitation_energy": 22.08, 
			 "cosmo_dispersion_energy": -15.96, 
			 "cosmo_repulsion_energy": 1.19, 
			 "cosmo_total_nonelectrostatic_energy": 7.31, 
			 "SMD_solvation_energy": 4.7 
		},
		"coords": [
			{
				"x": 2.1535046193,
				"y": 1.368519106,
				"z": 0.2683579053,
				"element": "F" 
			},
			{
				"x": 1.576075395,
				"y": 0.1658709731,
				"z": 0.3675811205,
				"element": "C" 
			},
			{
				"x": 2.1497461022,
				"y": -0.4992925201,
				"z": 1.3745679216,
				"element": "F" 
			},
			{
				"x": 1.7989093433,
				"y": -0.5057380229,
				"z": -0.7677267231,
				"element": "F" 
			},
			{
				"x": 0.0360517201,
				"y": 0.3119475454,
				"z": 0.6301837776,
				"element": "C" 
			},
			{
				"x": -0.6558866525,
				"y": -1.3308626173,
				"z": 0.7493105301,
				"element": "Cl" 
			},
			{
				"x": -0.1744005539,
				"y": 1.2155828088,
				"z": 2.1569756414,
				"element": "Cl" 
			},
			{
				"x": -0.6668333717,
				"y": 1.0907242519,
				"z": -0.5381083932,
				"element": "C" 
			},
			{
				"x": -0.4631735561,
				"y": 0.4297995144,
				"z": -1.6878086864,
				"element": "F" 
			},
			{
				"x": -0.1094190924,
				"y": 2.3059890125,
				"z": -0.6499929229,
				"element": "F" 
			},
			{
				"x": -2.4250739535,
				"y": 1.2866599482,
				"z": -0.2931401709,
				"element": "Cl" 
			}
		],
		 "valence_orbital": [ 
			{
				"type": "occ",
				"energy": -0.36477,
				"method": "rhf"
			},
			{
				"type": "occ",
				"energy": -0.35143,
				"method": "rhf"
			},
			{
				"type": "occ",
				"energy": -0.33878,
				"method": "rhf"
			},
			{
				"type": "occ",
				"energy": -0.33868,
				"method": "rhf"
			},
			{
				"type": "occ",
				"energy": -0.33548,
				"method": "rhf"
			},
			{
				"type": "unocc",
				"energy": -0.05101,
				"method": "rhf"
			},
			{
				"type": "unocc",
				"energy": -0.02556,
				"method": "rhf"
			},
			{
				"type": "unocc",
				"energy": -0.00721,
				"method": "rhf"
			},
			{
				"type": "unocc",
				"energy": 0.09844,
				"method": "rhf"
			},
			{
				"type": "unocc",
				"energy": 0.1117,
				"method": "rhf"
			}
		],
		"cosmo_sigma_profile": { 
			"-0.025": 0.0,
			"-0.024": 0.0,
			"-0.023": 0.0,
			"-0.022": 0.0,
			"-0.021": 0.0,
			"-0.02": 0.0,
			"-0.019": 0.0,
			"-0.018": 0.0,
			"-0.017": 0.0,
			"-0.016": 0.0,
			"-0.015": 0.0,
			"-0.014": 0.0,
			"-0.013": 0.0,
			"-0.012": 0.0,
			"-0.011": 0.0,
			"-0.01": 0.0,
			"-0.009": 0.0,
			"-0.008": 0.0,
			"-0.007": 0.00153542464574,
			"-0.006": 1.11976982069,
			"-0.005": 4.3695582351,
			"-0.004": 5.98031879507,
			"-0.003": 7.96832124031,
			"-0.002": 10.6905425637,
			"-0.001": 17.8025638732,
			"0.0": 38.8073339263,
			"0.001": 76.5695620228,
			"0.002": 20.1255661289,
			"0.003": 0.362300749215,
			"0.004": 0.0,
			"0.005": 0.0,
			"0.006": 0.0,
			"0.007": 0.0,
			"0.008": 0.0,
			"0.009": 0.0,
			"0.01": 0.0,
			"0.011": 0.0,
			"0.012": 0.0,
			"0.013": 0.0,
			"0.014": 0.0,
			"0.015": 0.0,
			"0.016": 0.0,
			"0.017": 0.0,
			"0.018": 0.0,
			"0.019": 0.0,
			"0.02": 0.0,
			"0.021": 0.0,
			"0.022": 0.0,
			"0.023": 0.0,
			"0.024": 0.0,
			"0.025": 0.0
		}
	}
}
