{
	 "smiles": "CC(C)(C)OC(=O)CNC1=CC2=C(OCO2)C=C1", 
	 "Tm": 344.15, 
	 "num_atms": 35, 
	 "gaussian": { 
		 "optdone": 1, 
		 "sigma_profile": "yes", 
		 "theory": "DFT", 
		 "functional": "B3LYP", 
		 "basiset": "6-31G**", 
		 "properties": { 
			 "R2extent": 7361.2402, 
			 "electric_dipole_moment_norm": 2.24784370676, 
			 "electric_quadrupole_moment_norm": 9.66361871506, 
			 "total_energy": -861.269281759, 
			 "HOMO_LUMO_gap": 0.18363, 
			 "cosmo_polarized_energy": -13.22, 
			 "cosmo_cavitation_energy": 37.86, 
			 "cosmo_dispersion_energy": -26.62, 
			 "cosmo_repulsion_energy": 2.08, 
			 "cosmo_total_nonelectrostatic_energy": 13.32, 
			 "SMD_solvation_energy": 6.78 
		},
		"coords": [
			{
				"x": 1.9312738669,
				"y": 2.6229875387,
				"z": -0.3244242967,
				"element": "C" 
			},
			{
				"x": 0.7410393608,
				"y": 3.0267923242,
				"z": 0.5510679691,
				"element": "C" 
			},
			{
				"x": -0.344783396,
				"y": 3.7592218318,
				"z": -0.2432895348,
				"element": "C" 
			},
			{
				"x": 1.1995509218,
				"y": 3.8609671563,
				"z": 1.7489567665,
				"element": "C" 
			},
			{
				"x": 0.1656066676,
				"y": 1.8252682138,
				"z": 1.1955585117,
				"element": "O" 
			},
			{
				"x": -0.3726328211,
				"y": 0.8257218185,
				"z": 0.4775680792,
				"element": "C" 
			},
			{
				"x": -0.4369118914,
				"y": 0.757700567,
				"z": -0.7319106545,
				"element": "O" 
			},
			{
				"x": -0.9746567911,
				"y": -0.2365227879,
				"z": 1.4098310965,
				"element": "C" 
			},
			{
				"x": -1.0712187036,
				"y": -1.5509263238,
				"z": 0.8237369277,
				"element": "N" 
			},
			{
				"x": 0.0910890222,
				"y": -2.3070352849,
				"z": 0.5767991635,
				"element": "C" 
			},
			{
				"x": -0.0428779148,
				"y": -3.4586405858,
				"z": -0.2396387048,
				"element": "C" 
			},
			{
				"x": 1.0792835429,
				"y": -4.2295653129,
				"z": -0.4420058864,
				"element": "C" 
			},
			{
				"x": 2.3120318178,
				"y": -3.9224262724,
				"z": 0.1309349186,
				"element": "C" 
			},
			{
				"x": 3.236164368,
				"y": -4.8914564276,
				"z": -0.2133096534,
				"element": "O" 
			},
			{
				"x": 2.5873473915,
				"y": -5.6904988777,
				"z": -1.2025454321,
				"element": "C" 
			},
			{
				"x": 1.1853507841,
				"y": -5.3911595471,
				"z": -1.169178172,
				"element": "O" 
			},
			{
				"x": 2.4663176623,
				"y": -2.8126253944,
				"z": 0.9302383689,
				"element": "C" 
			},
			{
				"x": 1.3364664434,
				"y": -1.9970238381,
				"z": 1.1429886754,
				"element": "C" 
			},
			{
				"x": 1.6099866062,
				"y": 2.0150176959,
				"z": -1.1704347051,
				"element": "H" 
			},
			{
				"x": 2.6605726764,
				"y": 2.055822585,
				"z": 0.2622084936,
				"element": "H" 
			},
			{
				"x": 2.4267960836,
				"y": 3.5225393599,
				"z": -0.7039885879,
				"element": "H" 
			},
			{
				"x": -0.6841586161,
				"y": 3.1620635616,
				"z": -1.0901692659,
				"element": "H" 
			},
			{
				"x": -1.2013330929,
				"y": 3.9852748421,
				"z": 0.3997598341,
				"element": "H" 
			},
			{
				"x": 0.0547384587,
				"y": 4.706511627,
				"z": -0.6195453703,
				"element": "H" 
			},
			{
				"x": 0.3529537866,
				"y": 4.1064375524,
				"z": 2.3967013961,
				"element": "H" 
			},
			{
				"x": 1.6543652137,
				"y": 4.7944536458,
				"z": 1.404314419,
				"element": "H" 
			},
			{
				"x": 1.9387416967,
				"y": 3.3134529021,
				"z": 2.3407579776,
				"element": "H" 
			},
			{
				"x": -1.9850198017,
				"y": 0.1050112308,
				"z": 1.667586113,
				"element": "H" 
			},
			{
				"x": -0.4179166382,
				"y": -0.2692736554,
				"z": 2.3489440458,
				"element": "H" 
			},
			{
				"x": -1.7035430416,
				"y": -1.5632164338,
				"z": 0.0332471069,
				"element": "H" 
			},
			{
				"x": -0.9973881372,
				"y": -3.7264775006,
				"z": -0.6802305985,
				"element": "H" 
			},
			{
				"x": 2.7363149352,
				"y": -6.7498362947,
				"z": -0.9736310491,
				"element": "H" 
			},
			{
				"x": 2.9863557284,
				"y": -5.446373694,
				"z": -2.1991568377,
				"element": "H" 
			},
			{
				"x": 3.4234364592,
				"y": -2.5668360259,
				"z": 1.3766097867,
				"element": "H" 
			},
			{
				"x": 1.4559573518,
				"y": -1.1079501961,
				"z": 1.7503490993,
				"element": "H" 
			}
		],
		 "valence_orbital": [ 
			{
				"type": "occ",
				"energy": -0.29844,
				"method": "rhf"
			},
			{
				"type": "occ",
				"energy": -0.27358,
				"method": "rhf"
			},
			{
				"type": "occ",
				"energy": -0.26048,
				"method": "rhf"
			},
			{
				"type": "occ",
				"energy": -0.22561,
				"method": "rhf"
			},
			{
				"type": "occ",
				"energy": -0.18072,
				"method": "rhf"
			},
			{
				"type": "unocc",
				"energy": 0.00291,
				"method": "rhf"
			},
			{
				"type": "unocc",
				"energy": 0.01514,
				"method": "rhf"
			},
			{
				"type": "unocc",
				"energy": 0.03172,
				"method": "rhf"
			},
			{
				"type": "unocc",
				"energy": 0.07911,
				"method": "rhf"
			},
			{
				"type": "unocc",
				"energy": 0.09445,
				"method": "rhf"
			}
		],
		"cosmo_sigma_profile": { 
			"-0.025": 0.0,
			"-0.024": 0.0,
			"-0.023": 0.0,
			"-0.022": 0.0,
			"-0.021": 0.0,
			"-0.02": 0.0,
			"-0.019": 0.0,
			"-0.018": 0.0,
			"-0.017": 0.0,
			"-0.016": 0.0,
			"-0.015": 0.0,
			"-0.014": 0.0,
			"-0.013": 0.0453110454864,
			"-0.012": 0.950405743298,
			"-0.011": 1.43068901059,
			"-0.01": 0.961625876142,
			"-0.009": 1.48593232776,
			"-0.008": 5.03267598337,
			"-0.007": 11.3903763862,
			"-0.006": 14.9969973534,
			"-0.005": 13.899159275,
			"-0.004": 24.0993642464,
			"-0.003": 25.1037684,
			"-0.002": 23.7714534542,
			"-0.001": 24.1064073109,
			"0.0": 31.7943838816,
			"0.001": 21.5877205656,
			"0.002": 11.3051725537,
			"0.003": 13.8568485692,
			"0.004": 14.115445818,
			"0.005": 15.170868043,
			"0.006": 11.9530777849,
			"0.007": 7.07354044139,
			"0.008": 5.23397882649,
			"0.009": 6.29325386631,
			"0.01": 4.89885484012,
			"0.011": 3.48456172412,
			"0.012": 3.31834141596,
			"0.013": 0.662758760746,
			"0.014": 0.0,
			"0.015": 0.0,
			"0.016": 0.0,
			"0.017": 0.0,
			"0.018": 0.0,
			"0.019": 0.0,
			"0.02": 0.0,
			"0.021": 0.0,
			"0.022": 0.0,
			"0.023": 0.0,
			"0.024": 0.0,
			"0.025": 0.0
		}
	}
}
