{
	 "smiles": "CC1=NC(=CS1)C1=CC=C(C=C1)S(Cl)(=O)=O", 
	 "Tm": 385.15, 
	 "num_atms": 24, 
	 "gaussian": { 
		 "optdone": 1, 
		 "sigma_profile": "yes", 
		 "theory": "DFT", 
		 "functional": "B3LYP", 
		 "basiset": "6-31G**", 
		 "properties": { 
			 "R2extent": 7881.6172, 
			 "electric_dipole_moment_norm": 7.60993967387, 
			 "electric_quadrupole_moment_norm": 20.1210436109, 
			 "total_energy": -1847.58956379, 
			 "HOMO_LUMO_gap": 0.15338, 
			 "cosmo_polarized_energy": -11.96, 
			 "cosmo_cavitation_energy": 33.96, 
			 "cosmo_dispersion_energy": -25.86, 
			 "cosmo_repulsion_energy": 1.91, 
			 "cosmo_total_nonelectrostatic_energy": 10.02, 
			 "SMD_solvation_energy": 3.19 
		},
		"coords": [
			{
				"x": -1.7024925725,
				"y": -0.5344071432,
				"z": 4.6105746309,
				"element": "C" 
			},
			{
				"x": -0.7294648988,
				"y": -0.2432665737,
				"z": 3.509979527,
				"element": "C" 
			},
			{
				"x": -1.0489591132,
				"y": -0.1165739289,
				"z": 2.2586411571,
				"element": "N" 
			},
			{
				"x": 0.0494844421,
				"y": 0.1524038283,
				"z": 1.4575889114,
				"element": "C" 
			},
			{
				"x": 1.2413372929,
				"y": 0.2305187537,
				"z": 2.1355516405,
				"element": "C" 
			},
			{
				"x": 0.9971317183,
				"y": -0.0378941771,
				"z": 3.8239323131,
				"element": "S" 
			},
			{
				"x": -0.152416581,
				"y": 0.3221331221,
				"z": 0.0078269656,
				"element": "C" 
			},
			{
				"x": -1.4475991109,
				"y": 0.1996104706,
				"z": -0.5277789833,
				"element": "C" 
			},
			{
				"x": -1.6741255037,
				"y": 0.3511601683,
				"z": -1.8912298126,
				"element": "C" 
			},
			{
				"x": -0.5900929219,
				"y": 0.6326331992,
				"z": -2.723858563,
				"element": "C" 
			},
			{
				"x": 0.7084475853,
				"y": 0.7622533389,
				"z": -2.2259703887,
				"element": "C" 
			},
			{
				"x": 0.9169931079,
				"y": 0.6077263434,
				"z": -0.861346483,
				"element": "C" 
			},
			{
				"x": -0.8692892567,
				"y": 0.8452650921,
				"z": -4.4698515253,
				"element": "S" 
			},
			{
				"x": -0.615514639,
				"y": -1.1546884866,
				"z": -5.1910364093,
				"element": "Cl" 
			},
			{
				"x": 0.2236946188,
				"y": 1.6185185137,
				"z": -5.0473584083,
				"element": "O" 
			},
			{
				"x": -2.2688660581,
				"y": 1.1794161152,
				"z": -4.7036771604,
				"element": "O" 
			},
			{
				"x": -1.7129366357,
				"y": 0.2660267805,
				"z": 5.3576840076,
				"element": "H" 
			},
			{
				"x": -2.7000416678,
				"y": -0.6240469519,
				"z": 4.1771728337,
				"element": "H" 
			},
			{
				"x": -1.4561999922,
				"y": -1.4683709658,
				"z": 5.1262493287,
				"element": "H" 
			},
			{
				"x": 2.230986135,
				"y": 0.425137946,
				"z": 1.7494250239,
				"element": "H" 
			},
			{
				"x": -2.2698691758,
				"y": -0.0135439671,
				"z": 0.1446442222,
				"element": "H" 
			},
			{
				"x": -2.6725209062,
				"y": 0.2642718247,
				"z": -2.3049268774,
				"element": "H" 
			},
			{
				"x": 1.5300441944,
				"y": 0.9901967507,
				"z": -2.8954479194,
				"element": "H" 
			},
			{
				"x": 1.9242699387,
				"y": 0.7152199469,
				"z": -0.4730880311,
				"element": "H" 
			}
		],
		 "valence_orbital": [ 
			{
				"type": "occ",
				"energy": -0.30733,
				"method": "rhf"
			},
			{
				"type": "occ",
				"energy": -0.29691,
				"method": "rhf"
			},
			{
				"type": "occ",
				"energy": -0.29216,
				"method": "rhf"
			},
			{
				"type": "occ",
				"energy": -0.28312,
				"method": "rhf"
			},
			{
				"type": "occ",
				"energy": -0.24311,
				"method": "rhf"
			},
			{
				"type": "unocc",
				"energy": -0.08973,
				"method": "rhf"
			},
			{
				"type": "unocc",
				"energy": -0.05805,
				"method": "rhf"
			},
			{
				"type": "unocc",
				"energy": -0.03602,
				"method": "rhf"
			},
			{
				"type": "unocc",
				"energy": -0.0247,
				"method": "rhf"
			},
			{
				"type": "unocc",
				"energy": -0.00081,
				"method": "rhf"
			}
		],
		"cosmo_sigma_profile": { 
			"-0.025": 0.0,
			"-0.024": 0.0,
			"-0.023": 0.0,
			"-0.022": 0.0,
			"-0.021": 0.0,
			"-0.02": 0.0,
			"-0.019": 0.0,
			"-0.018": 0.0,
			"-0.017": 0.0,
			"-0.016": 0.0,
			"-0.015": 0.0,
			"-0.014": 0.0,
			"-0.013": 0.0,
			"-0.012": 0.0,
			"-0.011": 0.818758865682,
			"-0.01": 2.55021318301,
			"-0.009": 2.6730115564,
			"-0.008": 5.43576340071,
			"-0.007": 7.63190562447,
			"-0.006": 13.5263037232,
			"-0.005": 15.748231194,
			"-0.004": 15.3135303793,
			"-0.003": 15.2014979879,
			"-0.002": 18.3496400774,
			"-0.001": 22.1659497309,
			"0.0": 24.5528076086,
			"0.001": 36.0065185024,
			"0.002": 28.230085148,
			"0.003": 18.2233348358,
			"0.004": 15.3859075977,
			"0.005": 5.15667772565,
			"0.006": 5.1617648342,
			"0.007": 7.11766041819,
			"0.008": 10.5962485271,
			"0.009": 6.84086761433,
			"0.01": 1.55593953395,
			"0.011": 0.0506173038445,
			"0.012": 0.0,
			"0.013": 0.0,
			"0.014": 0.0,
			"0.015": 0.0,
			"0.016": 0.0,
			"0.017": 0.0,
			"0.018": 0.0,
			"0.019": 0.0,
			"0.02": 0.0,
			"0.021": 0.0,
			"0.022": 0.0,
			"0.023": 0.0,
			"0.024": 0.0,
			"0.025": 0.0
		}
	}
}
