{
	 "smiles": "CCOC(C)C(N)=S", 
	 "Tm": 328.15, 
	 "num_atms": 19, 
	 "gaussian": { 
		 "optdone": 1, 
		 "sigma_profile": "yes", 
		 "theory": "DFT", 
		 "functional": "B3LYP", 
		 "basiset": "6-31G**", 
		 "properties": { 
			 "R2extent": 1962.6369, 
			 "electric_dipole_moment_norm": 4.22401911691, 
			 "electric_quadrupole_moment_norm": 16.5666936384, 
			 "total_energy": -725.330743904, 
			 "HOMO_LUMO_gap": 0.17708, 
			 "cosmo_polarized_energy": -12.92, 
			 "cosmo_cavitation_energy": 23.29, 
			 "cosmo_dispersion_energy": -16.91, 
			 "cosmo_repulsion_energy": 1.39, 
			 "cosmo_total_nonelectrostatic_energy": 7.77, 
			 "SMD_solvation_energy": 3.28 
		},
		"coords": [
			{
				"x": 0.6676354174,
				"y": 1.4268330467,
				"z": -0.3311659686,
				"element": "C" 
			},
			{
				"x": 0.1870574421,
				"y": 0.247622389,
				"z": -1.1726587913,
				"element": "C" 
			},
			{
				"x": -1.1742647589,
				"y": -0.1270874018,
				"z": -0.9428885475,
				"element": "O" 
			},
			{
				"x": -1.4292069902,
				"y": -0.792845434,
				"z": 0.2973877037,
				"element": "C" 
			},
			{
				"x": -2.3444744776,
				"y": -1.9874222924,
				"z": 0.0086804049,
				"element": "C" 
			},
			{
				"x": -2.0837906952,
				"y": 0.1535465656,
				"z": 1.3145979381,
				"element": "C" 
			},
			{
				"x": -2.6563997647,
				"y": 1.2231080327,
				"z": 0.7498196172,
				"element": "N" 
			},
			{
				"x": -2.112322297,
				"y": -0.1830928915,
				"z": 2.9442445125,
				"element": "S" 
			},
			{
				"x": 1.7018769486,
				"y": 1.6721903615,
				"z": -0.5957106508,
				"element": "H" 
			},
			{
				"x": 0.6414201699,
				"y": 1.2002819531,
				"z": 0.7391327039,
				"element": "H" 
			},
			{
				"x": 0.0521699323,
				"y": 2.3141018956,
				"z": -0.5085822146,
				"element": "H" 
			},
			{
				"x": 0.2341336261,
				"y": 0.4959136367,
				"z": -2.2377744602,
				"element": "H" 
			},
			{
				"x": 0.8369356359,
				"y": -0.6249987592,
				"z": -1.009163019,
				"element": "H" 
			},
			{
				"x": -0.492159956,
				"y": -1.1482781578,
				"z": 0.7406088316,
				"element": "H" 
			},
			{
				"x": -1.8443095815,
				"y": -2.6696231825,
				"z": -0.6839783158,
				"element": "H" 
			},
			{
				"x": -3.2750869989,
				"y": -1.6448624634,
				"z": -0.4535016287,
				"element": "H" 
			},
			{
				"x": -2.5819646389,
				"y": -2.5171284426,
				"z": 0.9331151435,
				"element": "H" 
			},
			{
				"x": -2.5315883833,
				"y": 1.3702539102,
				"z": -0.2439178079,
				"element": "H" 
			},
			{
				"x": -3.1315606301,
				"y": 1.9020872342,
				"z": 1.325454549,
				"element": "H" 
			}
		],
		 "valence_orbital": [ 
			{
				"type": "occ",
				"energy": -0.3459,
				"method": "rhf"
			},
			{
				"type": "occ",
				"energy": -0.32439,
				"method": "rhf"
			},
			{
				"type": "occ",
				"energy": -0.27951,
				"method": "rhf"
			},
			{
				"type": "occ",
				"energy": -0.22727,
				"method": "rhf"
			},
			{
				"type": "occ",
				"energy": -0.20389,
				"method": "rhf"
			},
			{
				"type": "unocc",
				"energy": -0.02681,
				"method": "rhf"
			},
			{
				"type": "unocc",
				"energy": 0.06693,
				"method": "rhf"
			},
			{
				"type": "unocc",
				"energy": 0.09564,
				"method": "rhf"
			},
			{
				"type": "unocc",
				"energy": 0.09805,
				"method": "rhf"
			},
			{
				"type": "unocc",
				"energy": 0.11688,
				"method": "rhf"
			}
		],
		"cosmo_sigma_profile": { 
			"-0.025": 0.0,
			"-0.024": 0.0,
			"-0.023": 0.0,
			"-0.022": 0.0,
			"-0.021": 0.0,
			"-0.02": 0.0,
			"-0.019": 0.0,
			"-0.018": 0.0,
			"-0.017": 0.0,
			"-0.016": 0.00606693147052,
			"-0.015": 0.813092874234,
			"-0.014": 1.54417221438,
			"-0.013": 1.80810666683,
			"-0.012": 1.71515908934,
			"-0.011": 2.27589146791,
			"-0.01": 1.70821182077,
			"-0.009": 1.40419257108,
			"-0.008": 1.70654165393,
			"-0.007": 1.16074696512,
			"-0.006": 3.900587114,
			"-0.005": 7.93921050275,
			"-0.004": 17.4345311588,
			"-0.003": 21.9791527197,
			"-0.002": 18.0588095309,
			"-0.001": 17.3570603412,
			"0.0": 18.0068761703,
			"0.001": 9.85472865479,
			"0.002": 5.19835576634,
			"0.003": 4.68208014332,
			"0.004": 4.6213317945,
			"0.005": 4.42379840368,
			"0.006": 4.59906074255,
			"0.007": 4.20285474983,
			"0.008": 5.84756506502,
			"0.009": 7.95578165021,
			"0.01": 5.46718988475,
			"0.011": 4.7517299571,
			"0.012": 2.97915837034,
			"0.013": 0.935503716843,
			"0.014": 0.0,
			"0.015": 0.0,
			"0.016": 0.0,
			"0.017": 0.0,
			"0.018": 0.0,
			"0.019": 0.0,
			"0.02": 0.0,
			"0.021": 0.0,
			"0.022": 0.0,
			"0.023": 0.0,
			"0.024": 0.0,
			"0.025": 0.0
		}
	}
}
