{
	 "smiles": "COC1=C(CC#N)C=C(Br)C=N1", 
	 "Tm": 313.15, 
	 "num_atms": 19, 
	 "gaussian": { 
		 "optdone": 1, 
		 "sigma_profile": "yes", 
		 "theory": "DFT", 
		 "functional": "B3LYP", 
		 "basiset": "6-31G**", 
		 "properties": { 
			 "R2extent": 7606.4422, 
			 "electric_dipole_moment_norm": 3.35566134465, 
			 "electric_quadrupole_moment_norm": 19.5970331663, 
			 "total_energy": -3065.17402591, 
			 "HOMO_LUMO_gap": 0.1945, 
			 "cosmo_polarized_energy": -12.03, 
			 "cosmo_cavitation_energy": 27.08, 
			 "cosmo_dispersion_energy": -19.32, 
			 "cosmo_repulsion_energy": 1.57, 
			 "cosmo_total_nonelectrostatic_energy": 9.33, 
			 "SMD_solvation_energy": 4.87 
		},
		"coords": [
			{
				"x": -1.3497328548,
				"y": -0.1516583054,
				"z": 0.135286053,
				"element": "C" 
			},
			{
				"x": -0.4180725599,
				"y": 0.0244693154,
				"z": -0.9402848721,
				"element": "O" 
			},
			{
				"x": 0.3408089735,
				"y": -1.0349430613,
				"z": -1.2841714633,
				"element": "C" 
			},
			{
				"x": 1.2297611605,
				"y": -0.8426009776,
				"z": -2.3678926446,
				"element": "C" 
			},
			{
				"x": 1.2968402365,
				"y": 0.4941886293,
				"z": -3.0809476867,
				"element": "C" 
			},
			{
				"x": 0.1462006419,
				"y": 0.7290767025,
				"z": -3.9652199071,
				"element": "C" 
			},
			{
				"x": -0.7563004829,
				"y": 0.9087027918,
				"z": -4.6719088453,
				"element": "N" 
			},
			{
				"x": 2.0228913221,
				"y": -1.9201880918,
				"z": -2.7322437003,
				"element": "C" 
			},
			{
				"x": 1.9092471453,
				"y": -3.1225901077,
				"z": -2.0253475202,
				"element": "C" 
			},
			{
				"x": 2.9835980933,
				"y": -4.6243710914,
				"z": -2.4924971014,
				"element": "Br" 
			},
			{
				"x": 1.0034581455,
				"y": -3.2071336218,
				"z": -0.9769028184,
				"element": "C" 
			},
			{
				"x": 0.2313915215,
				"y": -2.1730166303,
				"z": -0.6122153048,
				"element": "N" 
			},
			{
				"x": -2.0673329907,
				"y": -0.9422350414,
				"z": -0.0984991269,
				"element": "H" 
			},
			{
				"x": -1.8579591085,
				"y": 0.8076736661,
				"z": 0.2336310524,
				"element": "H" 
			},
			{
				"x": -0.8312382903,
				"y": -0.4091989051,
				"z": 1.0626709302,
				"element": "H" 
			},
			{
				"x": 2.2097298205,
				"y": 0.553533523,
				"z": -3.6830105749,
				"element": "H" 
			},
			{
				"x": 1.3300967182,
				"y": 1.3088919407,
				"z": -2.3490968709,
				"element": "H" 
			},
			{
				"x": 2.7236620994,
				"y": -1.8344852914,
				"z": -3.5563846547,
				"element": "H" 
			},
			{
				"x": 0.8919504088,
				"y": -4.1273154434,
				"z": -0.410264944,
				"element": "H" 
			}
		],
		 "valence_orbital": [ 
			{
				"type": "occ",
				"energy": -0.31753,
				"method": "rhf"
			},
			{
				"type": "occ",
				"energy": -0.30413,
				"method": "rhf"
			},
			{
				"type": "occ",
				"energy": -0.29741,
				"method": "rhf"
			},
			{
				"type": "occ",
				"energy": -0.28407,
				"method": "rhf"
			},
			{
				"type": "occ",
				"energy": -0.24129,
				"method": "rhf"
			},
			{
				"type": "unocc",
				"energy": -0.04679,
				"method": "rhf"
			},
			{
				"type": "unocc",
				"energy": -0.02334,
				"method": "rhf"
			},
			{
				"type": "unocc",
				"energy": -0.00485,
				"method": "rhf"
			},
			{
				"type": "unocc",
				"energy": 0.03763,
				"method": "rhf"
			},
			{
				"type": "unocc",
				"energy": 0.03886,
				"method": "rhf"
			}
		],
		"cosmo_sigma_profile": { 
			"-0.025": 0.0,
			"-0.024": 0.0,
			"-0.023": 0.0,
			"-0.022": 0.0,
			"-0.021": 0.0,
			"-0.02": 0.0,
			"-0.019": 0.0,
			"-0.018": 0.0,
			"-0.017": 0.0,
			"-0.016": 0.0,
			"-0.015": 0.0,
			"-0.014": 0.0,
			"-0.013": 0.0,
			"-0.012": 0.0,
			"-0.011": 0.360687651023,
			"-0.01": 2.44931202597,
			"-0.009": 5.58379582568,
			"-0.008": 6.51720048312,
			"-0.007": 7.22856011176,
			"-0.006": 10.5560350269,
			"-0.005": 13.732676577,
			"-0.004": 13.6115904578,
			"-0.003": 15.5763794837,
			"-0.002": 13.2889450505,
			"-0.001": 17.8426169931,
			"0.0": 19.465420389,
			"0.001": 16.8368029917,
			"0.002": 9.78395814319,
			"0.003": 12.6275960956,
			"0.004": 16.6034114554,
			"0.005": 7.71197754644,
			"0.006": 6.31298242627,
			"0.007": 3.54307036626,
			"0.008": 4.43792999713,
			"0.009": 4.60566862237,
			"0.01": 3.67351220779,
			"0.011": 4.17351842574,
			"0.012": 2.64988209553,
			"0.013": 1.75514872717,
			"0.014": 0.16527419393,
			"0.015": 0.0,
			"0.016": 0.0,
			"0.017": 0.0,
			"0.018": 0.0,
			"0.019": 0.0,
			"0.02": 0.0,
			"0.021": 0.0,
			"0.022": 0.0,
			"0.023": 0.0,
			"0.024": 0.0,
			"0.025": 0.0
		}
	}
}
