{
	 "smiles": "CCN1C2=C(C=C(OC)C=C2)C2=C1C1=C(CC2)C=C(OC)C=C1", 
	 "Tm": 419.15, 
	 "num_atms": 44, 
	 "gaussian": { 
		 "optdone": 1, 
		 "sigma_profile": "yes", 
		 "theory": "DFT", 
		 "functional": "B3LYP", 
		 "basiset": "6-31G**", 
		 "properties": { 
			 "R2extent": 9643.7157, 
			 "electric_dipole_moment_norm": 2.4668582063, 
			 "electric_quadrupole_moment_norm": 12.5172154411, 
			 "total_energy": -979.986716274, 
			 "HOMO_LUMO_gap": 0.15181, 
			 "cosmo_polarized_energy": -11.92, 
			 "cosmo_cavitation_energy": 44.73, 
			 "cosmo_dispersion_energy": -32.04, 
			 "cosmo_repulsion_energy": 2.42, 
			 "cosmo_total_nonelectrostatic_energy": 15.11, 
			 "SMD_solvation_energy": 7.71 
		},
		"coords": [
			{
				"x": 2.4545929533,
				"y": 1.245521093,
				"z": 2.8223071971,
				"element": "C" 
			},
			{
				"x": 2.63675449,
				"y": -0.1087901098,
				"z": 2.1307641194,
				"element": "C" 
			},
			{
				"x": 1.4271502353,
				"y": -0.5966052583,
				"z": 1.4729445703,
				"element": "N" 
			},
			{
				"x": 0.5806731158,
				"y": -1.5347861522,
				"z": 2.0603154008,
				"element": "C" 
			},
			{
				"x": -0.6400937775,
				"y": -1.5611812631,
				"z": 1.3361895757,
				"element": "C" 
			},
			{
				"x": -1.6693038412,
				"y": -2.4505718341,
				"z": 1.7106947322,
				"element": "C" 
			},
			{
				"x": -1.46132843,
				"y": -3.2801495914,
				"z": 2.8063293749,
				"element": "C" 
			},
			{
				"x": -2.3734221621,
				"y": -4.1894040061,
				"z": 3.2815711603,
				"element": "O" 
			},
			{
				"x": -3.6151324233,
				"y": -4.2899911454,
				"z": 2.6117816227,
				"element": "C" 
			},
			{
				"x": -0.2452703848,
				"y": -3.2357846141,
				"z": 3.5288706283,
				"element": "C" 
			},
			{
				"x": 0.7766389453,
				"y": -2.3712188883,
				"z": 3.1675800598,
				"element": "C" 
			},
			{
				"x": -0.521645428,
				"y": -0.5812940854,
				"z": 0.3069950941,
				"element": "C" 
			},
			{
				"x": 0.7368299115,
				"y": -0.0115304348,
				"z": 0.405982699,
				"element": "C" 
			},
			{
				"x": 1.2027239404,
				"y": 0.9996957348,
				"z": -0.5482870433,
				"element": "C" 
			},
			{
				"x": 0.2020456665,
				"y": 1.6541920049,
				"z": -1.3111866676,
				"element": "C" 
			},
			{
				"x": -1.260017737,
				"y": 1.3370845387,
				"z": -1.0582950072,
				"element": "C" 
			},
			{
				"x": -1.4864725139,
				"y": -0.1544145095,
				"z": -0.759060276,
				"element": "C" 
			},
			{
				"x": 0.5561509282,
				"y": 2.605267881,
				"z": -2.2702988829,
				"element": "C" 
			},
			{
				"x": 1.8992638495,
				"y": 2.9270965173,
				"z": -2.5010862866,
				"element": "C" 
			},
			{
				"x": 2.3333792709,
				"y": 3.84534433,
				"z": -3.4139046268,
				"element": "O" 
			},
			{
				"x": 1.3652179599,
				"y": 4.5339220046,
				"z": -4.1880008068,
				"element": "C" 
			},
			{
				"x": 2.8948436757,
				"y": 2.2693732345,
				"z": -1.7700857701,
				"element": "C" 
			},
			{
				"x": 2.5467867616,
				"y": 1.319014505,
				"z": -0.8192906361,
				"element": "C" 
			},
			{
				"x": 3.378183503,
				"y": 1.5351987116,
				"z": 3.3347337823,
				"element": "H" 
			},
			{
				"x": 2.2069092672,
				"y": 2.0263903636,
				"z": 2.0984276722,
				"element": "H" 
			},
			{
				"x": 1.650567526,
				"y": 1.1932421332,
				"z": 3.5623839073,
				"element": "H" 
			},
			{
				"x": 2.9241972579,
				"y": -0.8658985731,
				"z": 2.8633194769,
				"element": "H" 
			},
			{
				"x": 3.4591622634,
				"y": -0.0658703117,
				"z": 1.4125846656,
				"element": "H" 
			},
			{
				"x": -2.5951747802,
				"y": -2.473872279,
				"z": 1.1481766367,
				"element": "H" 
			},
			{
				"x": -3.4895274982,
				"y": -4.5927880941,
				"z": 1.5631401256,
				"element": "H" 
			},
			{
				"x": -4.1856248471,
				"y": -5.056809582,
				"z": 3.1393446335,
				"element": "H" 
			},
			{
				"x": -4.1722311761,
				"y": -3.3434034883,
				"z": 2.6409330979,
				"element": "H" 
			},
			{
				"x": -0.1351717356,
				"y": -3.9031289744,
				"z": 4.3769791628,
				"element": "H" 
			},
			{
				"x": 1.6986883686,
				"y": -2.362656015,
				"z": 3.7402943471,
				"element": "H" 
			},
			{
				"x": -1.5987651298,
				"y": 1.9165803285,
				"z": -0.1863649373,
				"element": "H" 
			},
			{
				"x": -1.8659156961,
				"y": 1.6626611843,
				"z": -1.9106081499,
				"element": "H" 
			},
			{
				"x": -2.521909317,
				"y": -0.3158411829,
				"z": -0.4385093986,
				"element": "H" 
			},
			{
				"x": -1.347993867,
				"y": -0.7454676779,
				"z": -1.6776804695,
				"element": "H" 
			},
			{
				"x": -0.2327909884,
				"y": 3.0890695211,
				"z": -2.8356242999,
				"element": "H" 
			},
			{
				"x": 0.6840208361,
				"y": 5.1211638492,
				"z": -3.5584037228,
				"element": "H" 
			},
			{
				"x": 1.9234946079,
				"y": 5.2096075184,
				"z": -4.838035578,
				"element": "H" 
			},
			{
				"x": 0.7749258275,
				"y": 3.8455203464,
				"z": -4.8067935222,
				"element": "H" 
			},
			{
				"x": 3.9341669485,
				"y": 2.5064826853,
				"z": -1.9719572458,
				"element": "H" 
			},
			{
				"x": 3.3455236237,
				"y": 0.8018295854,
				"z": -0.3029704151,
				"element": "H" 
			}
		],
		 "valence_orbital": [ 
			{
				"type": "occ",
				"energy": -0.25945,
				"method": "rhf"
			},
			{
				"type": "occ",
				"energy": -0.24435,
				"method": "rhf"
			},
			{
				"type": "occ",
				"energy": -0.23083,
				"method": "rhf"
			},
			{
				"type": "occ",
				"energy": -0.18639,
				"method": "rhf"
			},
			{
				"type": "occ",
				"energy": -0.17461,
				"method": "rhf"
			},
			{
				"type": "unocc",
				"energy": -0.0228,
				"method": "rhf"
			},
			{
				"type": "unocc",
				"energy": 0.00024,
				"method": "rhf"
			},
			{
				"type": "unocc",
				"energy": 0.0285,
				"method": "rhf"
			},
			{
				"type": "unocc",
				"energy": 0.0473,
				"method": "rhf"
			},
			{
				"type": "unocc",
				"energy": 0.07918,
				"method": "rhf"
			}
		],
		"cosmo_sigma_profile": { 
			"-0.025": 0.0,
			"-0.024": 0.0,
			"-0.023": 0.0,
			"-0.022": 0.0,
			"-0.021": 0.0,
			"-0.02": 0.0,
			"-0.019": 0.0,
			"-0.018": 0.0,
			"-0.017": 0.0,
			"-0.016": 0.0,
			"-0.015": 0.0,
			"-0.014": 0.0,
			"-0.013": 0.0,
			"-0.012": 0.0,
			"-0.011": 0.0,
			"-0.01": 0.0,
			"-0.009": 0.0359401842771,
			"-0.008": 1.44989865929,
			"-0.007": 4.20766021825,
			"-0.006": 10.4619140324,
			"-0.005": 26.5422601466,
			"-0.004": 36.3944962546,
			"-0.003": 41.9438788601,
			"-0.002": 35.3496772447,
			"-0.001": 29.4475244876,
			"0.0": 28.0283211613,
			"0.001": 20.4477718707,
			"0.002": 16.4112060425,
			"0.003": 16.3515870492,
			"0.004": 20.2258059206,
			"0.005": 26.6023429476,
			"0.006": 20.8933248688,
			"0.007": 8.62356946886,
			"0.008": 2.57730350151,
			"0.009": 2.60769818441,
			"0.01": 3.29539247232,
			"0.011": 2.18934830378,
			"0.012": 0.146153217416,
			"0.013": 0.0,
			"0.014": 0.0,
			"0.015": 0.0,
			"0.016": 0.0,
			"0.017": 0.0,
			"0.018": 0.0,
			"0.019": 0.0,
			"0.02": 0.0,
			"0.021": 0.0,
			"0.022": 0.0,
			"0.023": 0.0,
			"0.024": 0.0,
			"0.025": 0.0
		}
	}
}
