{
	 "smiles": "COC(=O)C1=C(Cl)C=C(C=C1)[N+]([O-])=O", 
	 "Tm": 350.65, 
	 "num_atms": 20, 
	 "gaussian": { 
		 "optdone": 1, 
		 "sigma_profile": "yes", 
		 "theory": "DFT", 
		 "functional": "B3LYP", 
		 "basiset": "6-31G**", 
		 "properties": { 
			 "R2extent": 4374.6856, 
			 "electric_dipole_moment_norm": 4.39241244876, 
			 "electric_quadrupole_moment_norm": 13.2353977213, 
			 "total_energy": -1124.20388041, 
			 "HOMO_LUMO_gap": 0.16612, 
			 "cosmo_polarized_energy": -11.06, 
			 "cosmo_cavitation_energy": 27.74, 
			 "cosmo_dispersion_energy": -20.38, 
			 "cosmo_repulsion_energy": 1.6, 
			 "cosmo_total_nonelectrostatic_energy": 8.96, 
			 "SMD_solvation_energy": 8.41 
		},
		"coords": [
			{
				"x": 0.6290617861,
				"y": 0.7180117204,
				"z": -3.0896695212,
				"element": "C" 
			},
			{
				"x": 0.4662365721,
				"y": 0.0829824141,
				"z": -1.8088356261,
				"element": "O" 
			},
			{
				"x": 0.2137950178,
				"y": 0.9249907978,
				"z": -0.7812229211,
				"element": "C" 
			},
			{
				"x": 0.1448865661,
				"y": 2.1269589749,
				"z": -0.9064563237,
				"element": "O" 
			},
			{
				"x": 0.0109560851,
				"y": 0.1649370682,
				"z": 0.4978382685,
				"element": "C" 
			},
			{
				"x": 0.17401132,
				"y": 0.7517953871,
				"z": 1.7696854288,
				"element": "C" 
			},
			{
				"x": 0.7181390156,
				"y": 2.3941563624,
				"z": 1.9943635944,
				"element": "Cl" 
			},
			{
				"x": -0.0665462823,
				"y": 0.0117942459,
				"z": 2.9277554797,
				"element": "C" 
			},
			{
				"x": -0.4776893524,
				"y": -1.3096288313,
				"z": 2.8080419263,
				"element": "C" 
			},
			{
				"x": -0.6476563969,
				"y": -1.9275786285,
				"z": 1.5731399716,
				"element": "C" 
			},
			{
				"x": -0.3943874815,
				"y": -1.1799749752,
				"z": 0.4304077582,
				"element": "C" 
			},
			{
				"x": -0.736407509,
				"y": -2.0816428071,
				"z": 4.039941107,
				"element": "N" 
			},
			{
				"x": -0.5752259387,
				"y": -1.50826929,
				"z": 5.1146913562,
				"element": "O" 
			},
			{
				"x": -1.0966320993,
				"y": -3.2492581483,
				"z": 3.9074416018,
				"element": "O" 
			},
			{
				"x": 1.4638501483,
				"y": 1.4220498887,
				"z": -3.062431536,
				"element": "H" 
			},
			{
				"x": 0.829258407,
				"y": -0.0901232545,
				"z": -3.7923934954,
				"element": "H" 
			},
			{
				"x": -0.2794611426,
				"y": 1.2571834057,
				"z": -3.3686451766,
				"element": "H" 
			},
			{
				"x": 0.0636623231,
				"y": 0.450981676,
				"z": 3.9077794375,
				"element": "H" 
			},
			{
				"x": -0.9667503736,
				"y": -2.9604940386,
				"z": 1.5248092628,
				"element": "H" 
			},
			{
				"x": -0.5121006653,
				"y": -1.6317719678,
				"z": -0.5464405926,
				"element": "H" 
			}
		],
		 "valence_orbital": [ 
			{
				"type": "occ",
				"energy": -0.31872,
				"method": "rhf"
			},
			{
				"type": "occ",
				"energy": -0.3046,
				"method": "rhf"
			},
			{
				"type": "occ",
				"energy": -0.30021,
				"method": "rhf"
			},
			{
				"type": "occ",
				"energy": -0.28613,
				"method": "rhf"
			},
			{
				"type": "occ",
				"energy": -0.27618,
				"method": "rhf"
			},
			{
				"type": "unocc",
				"energy": -0.11006,
				"method": "rhf"
			},
			{
				"type": "unocc",
				"energy": -0.04666,
				"method": "rhf"
			},
			{
				"type": "unocc",
				"energy": -0.0428,
				"method": "rhf"
			},
			{
				"type": "unocc",
				"energy": 0.013,
				"method": "rhf"
			},
			{
				"type": "unocc",
				"energy": 0.03375,
				"method": "rhf"
			}
		],
		"cosmo_sigma_profile": { 
			"-0.025": 0.0,
			"-0.024": 0.0,
			"-0.023": 0.0,
			"-0.022": 0.0,
			"-0.021": 0.0,
			"-0.02": 0.0,
			"-0.019": 0.0,
			"-0.018": 0.0,
			"-0.017": 0.0,
			"-0.016": 0.0,
			"-0.015": 0.0,
			"-0.014": 0.0,
			"-0.013": 0.0,
			"-0.012": 0.0,
			"-0.011": 0.0,
			"-0.01": 0.0,
			"-0.009": 0.855435435451,
			"-0.008": 5.04319279851,
			"-0.007": 8.03849881729,
			"-0.006": 11.129991113,
			"-0.005": 15.5195334154,
			"-0.004": 19.8759379827,
			"-0.003": 19.6020293914,
			"-0.002": 23.9521160642,
			"-0.001": 19.6423235144,
			"0.0": 14.4355378394,
			"0.001": 10.4645396683,
			"0.002": 9.69128408982,
			"0.003": 11.65104572,
			"0.004": 8.96167224279,
			"0.005": 6.0442284277,
			"0.006": 8.59088638567,
			"0.007": 10.5829455837,
			"0.008": 6.77163230653,
			"0.009": 5.45320603605,
			"0.01": 3.0793267792,
			"0.011": 4.74089174217,
			"0.012": 1.05098651233,
			"0.013": 0.0,
			"0.014": 0.0,
			"0.015": 0.0,
			"0.016": 0.0,
			"0.017": 0.0,
			"0.018": 0.0,
			"0.019": 0.0,
			"0.02": 0.0,
			"0.021": 0.0,
			"0.022": 0.0,
			"0.023": 0.0,
			"0.024": 0.0,
			"0.025": 0.0
		}
	}
}
