{
	 "smiles": "OCC1=CC(F)=C(OC2=CC=C(Br)C=C2)C=C1", 
	 "Tm": 342.15, 
	 "num_atms": 27, 
	 "gaussian": { 
		 "optdone": 1, 
		 "sigma_profile": "yes", 
		 "theory": "DFT", 
		 "functional": "B3LYP", 
		 "basiset": "6-31G**", 
		 "properties": { 
			 "R2extent": 11716.8425, 
			 "electric_dipole_moment_norm": 2.04232078284, 
			 "electric_quadrupole_moment_norm": 20.0118191215, 
			 "total_energy": -3323.07225644, 
			 "HOMO_LUMO_gap": 0.19988, 
			 "cosmo_polarized_energy": -10.6, 
			 "cosmo_cavitation_energy": 34.62, 
			 "cosmo_dispersion_energy": -25.17, 
			 "cosmo_repulsion_energy": 1.95, 
			 "cosmo_total_nonelectrostatic_energy": 11.41, 
			 "SMD_solvation_energy": 5.37 
		},
		"coords": [
			{
				"x": -0.4148790983,
				"y": 3.8223441174,
				"z": -1.6802702606,
				"element": "O" 
			},
			{
				"x": -1.3259040035,
				"y": 2.860779725,
				"z": -1.1732792927,
				"element": "C" 
			},
			{
				"x": -0.6554287113,
				"y": 1.7076462051,
				"z": -0.4480080014,
				"element": "C" 
			},
			{
				"x": -1.2817613981,
				"y": 0.4568821618,
				"z": -0.377689296,
				"element": "C" 
			},
			{
				"x": -0.6819365139,
				"y": -0.5765717444,
				"z": 0.3264171491,
				"element": "C" 
			},
			{
				"x": -1.2888909236,
				"y": -1.7763904528,
				"z": 0.3999317858,
				"element": "F" 
			},
			{
				"x": 0.558206246,
				"y": -0.4086317726,
				"z": 0.9530033193,
				"element": "C" 
			},
			{
				"x": 1.1183129639,
				"y": -1.4080004056,
				"z": 1.7189327557,
				"element": "O" 
			},
			{
				"x": 1.487725515,
				"y": -2.6059306794,
				"z": 1.1406983391,
				"element": "C" 
			},
			{
				"x": 1.6672195335,
				"y": -2.7821790309,
				"z": -0.232470547,
				"element": "C" 
			},
			{
				"x": 2.0855341967,
				"y": -4.0215874471,
				"z": -0.7189506821,
				"element": "C" 
			},
			{
				"x": 2.3258640051,
				"y": -5.067801112,
				"z": 0.1680550501,
				"element": "C" 
			},
			{
				"x": 2.899135372,
				"y": -6.7640549219,
				"z": -0.5036852612,
				"element": "Br" 
			},
			{
				"x": 2.153765921,
				"y": -4.8926716048,
				"z": 1.5413732697,
				"element": "C" 
			},
			{
				"x": 1.7324894906,
				"y": -3.6579987472,
				"z": 2.0271746263,
				"element": "C" 
			},
			{
				"x": 1.1841867053,
				"y": 0.8340834437,
				"z": 0.8752550746,
				"element": "C" 
			},
			{
				"x": 0.579480201,
				"y": 1.8857239349,
				"z": 0.1854611614,
				"element": "C" 
			},
			{
				"x": 0.1626389319,
				"y": 3.3739150042,
				"z": -2.3125873576,
				"element": "H" 
			},
			{
				"x": -1.9838280597,
				"y": 2.4663055401,
				"z": -1.9636066701,
				"element": "H" 
			},
			{
				"x": -1.9678817865,
				"y": 3.4137498476,
				"z": -0.4770528295,
				"element": "H" 
			},
			{
				"x": -2.2383474858,
				"y": 0.2715996967,
				"z": -0.8576073274,
				"element": "H" 
			},
			{
				"x": 1.4898963999,
				"y": -1.9629674546,
				"z": -0.9200932726,
				"element": "H" 
			},
			{
				"x": 2.2262111842,
				"y": -4.1668763116,
				"z": -1.783991826,
				"element": "H" 
			},
			{
				"x": 2.3432590516,
				"y": -5.712534617,
				"z": 2.2246773704,
				"element": "H" 
			},
			{
				"x": 1.5878161481,
				"y": -3.4951593364,
				"z": 3.089805927,
				"element": "H" 
			},
			{
				"x": 2.1408750458,
				"y": 0.9603031053,
				"z": 1.3717263003,
				"element": "H" 
			},
			{
				"x": 1.0650410691,
				"y": 2.8539228567,
				"z": 0.1274804954,
				"element": "H" 
			}
		],
		 "valence_orbital": [ 
			{
				"type": "occ",
				"energy": -0.28482,
				"method": "rhf"
			},
			{
				"type": "occ",
				"energy": -0.26599,
				"method": "rhf"
			},
			{
				"type": "occ",
				"energy": -0.26409,
				"method": "rhf"
			},
			{
				"type": "occ",
				"energy": -0.24888,
				"method": "rhf"
			},
			{
				"type": "occ",
				"energy": -0.22351,
				"method": "rhf"
			},
			{
				"type": "unocc",
				"energy": -0.02363,
				"method": "rhf"
			},
			{
				"type": "unocc",
				"energy": -0.01783,
				"method": "rhf"
			},
			{
				"type": "unocc",
				"energy": -0.01002,
				"method": "rhf"
			},
			{
				"type": "unocc",
				"energy": -0.00187,
				"method": "rhf"
			},
			{
				"type": "unocc",
				"energy": 0.00988,
				"method": "rhf"
			}
		],
		"cosmo_sigma_profile": { 
			"-0.025": 0.0,
			"-0.024": 0.0,
			"-0.023": 0.0,
			"-0.022": 0.0,
			"-0.021": 0.0,
			"-0.02": 0.0,
			"-0.019": 0.0,
			"-0.018": 0.0,
			"-0.017": 0.0,
			"-0.016": 0.543574804121,
			"-0.015": 0.952593480802,
			"-0.014": 0.754495911277,
			"-0.013": 1.02294513141,
			"-0.012": 0.686892935905,
			"-0.011": 0.34266284504,
			"-0.01": 0.921437695139,
			"-0.009": 0.714448924084,
			"-0.008": 2.31351092652,
			"-0.007": 11.496435045,
			"-0.006": 13.0735768864,
			"-0.005": 18.2707796628,
			"-0.004": 17.8154978917,
			"-0.003": 16.7025794833,
			"-0.002": 16.0749621817,
			"-0.001": 16.8402111466,
			"0.0": 18.1874745443,
			"0.001": 22.2796546191,
			"0.002": 28.2125444143,
			"0.003": 36.3401540757,
			"0.004": 29.2347913304,
			"0.005": 12.5525135819,
			"0.006": 2.34858163918,
			"0.007": 2.4149501963,
			"0.008": 1.99436445007,
			"0.009": 1.79531438782,
			"0.01": 0.884175883046,
			"0.011": 0.844103257914,
			"0.012": 1.47583863715,
			"0.013": 1.97536539034,
			"0.014": 1.37841911159,
			"0.015": 0.00947762604472,
			"0.016": 0.0,
			"0.017": 0.0,
			"0.018": 0.0,
			"0.019": 0.0,
			"0.02": 0.0,
			"0.021": 0.0,
			"0.022": 0.0,
			"0.023": 0.0,
			"0.024": 0.0,
			"0.025": 0.0
		}
	}
}
