{
	 "smiles": "CC1=C(C2=C(C=CC=C2)C=C1)S(Cl)(=O)=O", 
	 "Tm": 350.15, 
	 "num_atms": 24, 
	 "gaussian": { 
		 "optdone": 1, 
		 "sigma_profile": "yes", 
		 "theory": "DFT", 
		 "functional": "B3LYP", 
		 "basiset": "6-31G**", 
		 "properties": { 
			 "R2extent": 4058.792, 
			 "electric_dipole_moment_norm": 5.46007348119, 
			 "electric_quadrupole_moment_norm": 11.4350780321, 
			 "total_energy": -1433.36275586, 
			 "HOMO_LUMO_gap": 0.15146, 
			 "cosmo_polarized_energy": -9.56, 
			 "cosmo_cavitation_energy": 30.02, 
			 "cosmo_dispersion_energy": -22.65, 
			 "cosmo_repulsion_energy": 1.69, 
			 "cosmo_total_nonelectrostatic_energy": 9.06, 
			 "SMD_solvation_energy": 3.7 
		},
		"coords": [
			{
				"x": 1.3316108477,
				"y": -0.9784421583,
				"z": -1.8532799402,
				"element": "C" 
			},
			{
				"x": 0.3310694605,
				"y": -0.2954656797,
				"z": -0.9458274611,
				"element": "C" 
			},
			{
				"x": 0.5643880134,
				"y": 0.2019083826,
				"z": 0.3390614416,
				"element": "C" 
			},
			{
				"x": -0.4464080782,
				"y": 0.8811174906,
				"z": 1.1136287275,
				"element": "C" 
			},
			{
				"x": -1.7519636304,
				"y": 1.0035571573,
				"z": 0.5289301781,
				"element": "C" 
			},
			{
				"x": -2.7924648685,
				"y": 1.662218836,
				"z": 1.2355819222,
				"element": "C" 
			},
			{
				"x": -2.5687166296,
				"y": 2.2015691611,
				"z": 2.4793066926,
				"element": "C" 
			},
			{
				"x": -1.2848367398,
				"y": 2.0944523322,
				"z": 3.0571306941,
				"element": "C" 
			},
			{
				"x": -0.2542213823,
				"y": 1.4536740797,
				"z": 2.4033062217,
				"element": "C" 
			},
			{
				"x": -1.9864020623,
				"y": 0.4656360413,
				"z": -0.7593257501,
				"element": "C" 
			},
			{
				"x": -0.9866950535,
				"y": -0.1529372814,
				"z": -1.4621891735,
				"element": "C" 
			},
			{
				"x": 2.198180936,
				"y": 0.0007356524,
				"z": 1.0759929286,
				"element": "S" 
			},
			{
				"x": 2.9510045573,
				"y": 2.0166418203,
				"z": 1.0047074167,
				"element": "Cl" 
			},
			{
				"x": 2.081727458,
				"y": -0.3383345272,
				"z": 2.4904064395,
				"element": "O" 
			},
			{
				"x": 3.0855677291,
				"y": -0.7671912444,
				"z": 0.2126435008,
				"element": "O" 
			},
			{
				"x": 0.8519355154,
				"y": -1.208477443,
				"z": -2.8070628876,
				"element": "H" 
			},
			{
				"x": 2.2056344992,
				"y": -0.3530960608,
				"z": -2.0460525277,
				"element": "H" 
			},
			{
				"x": 1.707225769,
				"y": -1.9083408845,
				"z": -1.4207052225,
				"element": "H" 
			},
			{
				"x": -3.7698748951,
				"y": 1.731820024,
				"z": 0.766054049,
				"element": "H" 
			},
			{
				"x": -3.3671380353,
				"y": 2.70636018,
				"z": 3.0142957922,
				"element": "H" 
			},
			{
				"x": -1.1004382366,
				"y": 2.5215803295,
				"z": 4.0382629762,
				"element": "H" 
			},
			{
				"x": 0.7050286544,
				"y": 1.3853159087,
				"z": 2.8934356762,
				"element": "H" 
			},
			{
				"x": -2.9793062746,
				"y": 0.558068101,
				"z": -1.191324141,
				"element": "H" 
			},
			{
				"x": -1.189007554,
				"y": -0.5497702174,
				"z": -2.4518775535,
				"element": "H" 
			}
		],
		 "valence_orbital": [ 
			{
				"type": "occ",
				"energy": -0.32066,
				"method": "rhf"
			},
			{
				"type": "occ",
				"energy": -0.30851,
				"method": "rhf"
			},
			{
				"type": "occ",
				"energy": -0.30171,
				"method": "rhf"
			},
			{
				"type": "occ",
				"energy": -0.26398,
				"method": "rhf"
			},
			{
				"type": "occ",
				"energy": -0.24228,
				"method": "rhf"
			},
			{
				"type": "unocc",
				"energy": -0.09082,
				"method": "rhf"
			},
			{
				"type": "unocc",
				"energy": -0.06083,
				"method": "rhf"
			},
			{
				"type": "unocc",
				"energy": -0.03216,
				"method": "rhf"
			},
			{
				"type": "unocc",
				"energy": -0.00226,
				"method": "rhf"
			},
			{
				"type": "unocc",
				"energy": 0.05457,
				"method": "rhf"
			}
		],
		"cosmo_sigma_profile": { 
			"-0.025": 0.0,
			"-0.024": 0.0,
			"-0.023": 0.0,
			"-0.022": 0.0,
			"-0.021": 0.0,
			"-0.02": 0.0,
			"-0.019": 0.0,
			"-0.018": 0.0,
			"-0.017": 0.0,
			"-0.016": 0.0,
			"-0.015": 0.0,
			"-0.014": 0.0,
			"-0.013": 0.0,
			"-0.012": 0.0,
			"-0.011": 0.0,
			"-0.01": 0.0,
			"-0.009": 0.000722080818299,
			"-0.008": 2.61185653929,
			"-0.007": 10.0604441255,
			"-0.006": 13.8072757757,
			"-0.005": 17.0319431181,
			"-0.004": 14.5795101893,
			"-0.003": 14.0750174731,
			"-0.002": 16.3297998803,
			"-0.001": 19.3746494194,
			"0.0": 18.3422773738,
			"0.001": 23.3804277635,
			"0.002": 24.5849076705,
			"0.003": 23.4718673321,
			"0.004": 18.5127613193,
			"0.005": 5.83670913969,
			"0.006": 3.74807617014,
			"0.007": 4.86318107397,
			"0.008": 7.62722847263,
			"0.009": 5.06854284255,
			"0.01": 0.186575730228,
			"0.011": 0.0,
			"0.012": 0.0,
			"0.013": 0.0,
			"0.014": 0.0,
			"0.015": 0.0,
			"0.016": 0.0,
			"0.017": 0.0,
			"0.018": 0.0,
			"0.019": 0.0,
			"0.02": 0.0,
			"0.021": 0.0,
			"0.022": 0.0,
			"0.023": 0.0,
			"0.024": 0.0,
			"0.025": 0.0
		}
	}
}
