{
	 "smiles": "CC(C)(C)C1=CC(C=C(C1=O)C(C)(C)C)=NO", 
	 "Tm": 492.15, 
	 "num_atms": 38, 
	 "gaussian": { 
		 "optdone": 1, 
		 "sigma_profile": "yes", 
		 "theory": "DFT", 
		 "functional": "B3LYP", 
		 "basiset": "6-31G**", 
		 "properties": { 
			 "R2extent": 4779.175, 
			 "electric_dipole_moment_norm": 2.83334013842, 
			 "electric_quadrupole_moment_norm": 6.98871475022, 
			 "total_energy": -751.292755546, 
			 "HOMO_LUMO_gap": 0.14069, 
			 "cosmo_polarized_energy": -8.54, 
			 "cosmo_cavitation_energy": 37.79, 
			 "cosmo_dispersion_energy": -26.13, 
			 "cosmo_repulsion_energy": 2.03, 
			 "cosmo_total_nonelectrostatic_energy": 13.68, 
			 "SMD_solvation_energy": 7.15 
		},
		"coords": [
			{
				"x": -0.6376899676,
				"y": 0.4960717973,
				"z": -2.7770880151,
				"element": "C" 
			},
			{
				"x": -1.5281703222,
				"y": 1.0382183569,
				"z": -1.6301351337,
				"element": "C" 
			},
			{
				"x": -2.8603395534,
				"y": 0.2475498964,
				"z": -1.5798764108,
				"element": "C" 
			},
			{
				"x": -1.8651733492,
				"y": 2.5080067938,
				"z": -1.9507275961,
				"element": "C" 
			},
			{
				"x": -0.7905256736,
				"y": 0.9087365738,
				"z": -0.2875668829,
				"element": "C" 
			},
			{
				"x": -0.4968589796,
				"y": 1.9828727006,
				"z": 0.4824110688,
				"element": "C" 
			},
			{
				"x": 0.1995845864,
				"y": 1.8451134721,
				"z": 1.747594271,
				"element": "C" 
			},
			{
				"x": 0.5950279762,
				"y": 0.5259125351,
				"z": 2.2065755655,
				"element": "C" 
			},
			{
				"x": 0.3392111156,
				"y": -0.5967646703,
				"z": 1.4962861168,
				"element": "C" 
			},
			{
				"x": -0.379788672,
				"y": -0.4591024127,
				"z": 0.189299673,
				"element": "C" 
			},
			{
				"x": -0.6361933905,
				"y": -1.4552280479,
				"z": -0.4930706373,
				"element": "O" 
			},
			{
				"x": 0.7563842676,
				"y": -1.9957762472,
				"z": 1.9791625714,
				"element": "C" 
			},
			{
				"x": -0.4963397351,
				"y": -2.8907802098,
				"z": 2.1536958069,
				"element": "C" 
			},
			{
				"x": 1.7247399399,
				"y": -2.6418288195,
				"z": 0.9565948407,
				"element": "C" 
			},
			{
				"x": 1.4812273801,
				"y": -1.9294829869,
				"z": 3.3379430671,
				"element": "C" 
			},
			{
				"x": 0.5205254465,
				"y": 2.8235188979,
				"z": 2.5485194135,
				"element": "N" 
			},
			{
				"x": 0.122238232,
				"y": 4.0589517913,
				"z": 2.0667078335,
				"element": "O" 
			},
			{
				"x": -1.1590334861,
				"y": 0.6156306421,
				"z": -3.7334232808,
				"element": "H" 
			},
			{
				"x": -0.408340197,
				"y": -0.5599574481,
				"z": -2.6368259816,
				"element": "H" 
			},
			{
				"x": 0.3026360714,
				"y": 1.0553947988,
				"z": -2.8372242053,
				"element": "H" 
			},
			{
				"x": -3.5097662829,
				"y": 0.6296193588,
				"z": -0.7842991346,
				"element": "H" 
			},
			{
				"x": -2.6858919531,
				"y": -0.8145011176,
				"z": -1.409343479,
				"element": "H" 
			},
			{
				"x": -3.3923968668,
				"y": 0.3652367897,
				"z": -2.530530662,
				"element": "H" 
			},
			{
				"x": -0.9664844218,
				"y": 3.128307716,
				"z": -2.0358657805,
				"element": "H" 
			},
			{
				"x": -2.5223293848,
				"y": 2.9545882171,
				"z": -1.1968152213,
				"element": "H" 
			},
			{
				"x": -2.3882225568,
				"y": 2.5550598829,
				"z": -2.9108828915,
				"element": "H" 
			},
			{
				"x": -0.7692565376,
				"y": 2.9859958964,
				"z": 0.1861142331,
				"element": "H" 
			},
			{
				"x": 1.1102751709,
				"y": 0.5016918135,
				"z": 3.1591922466,
				"element": "H" 
			},
			{
				"x": -0.1950967019,
				"y": -3.878830864,
				"z": 2.5195646326,
				"element": "H" 
			},
			{
				"x": -1.0275765764,
				"y": -3.0184291495,
				"z": 1.2105932715,
				"element": "H" 
			},
			{
				"x": -1.1843652783,
				"y": -2.4578266072,
				"z": 2.8884422629,
				"element": "H" 
			},
			{
				"x": 2.6264688319,
				"y": -2.0312139594,
				"z": 0.8352771754,
				"element": "H" 
			},
			{
				"x": 1.25083952,
				"y": -2.762281176,
				"z": -0.0174982654,
				"element": "H" 
			},
			{
				"x": 2.0355085204,
				"y": -3.629064264,
				"z": 1.3166395826,
				"element": "H" 
			},
			{
				"x": 0.8445862844,
				"y": -1.5105491846,
				"z": 4.1247381586,
				"element": "H" 
			},
			{
				"x": 1.7607097117,
				"y": -2.9416163539,
				"z": 3.6466136486,
				"element": "H" 
			},
			{
				"x": 2.4008216722,
				"y": -1.3365778509,
				"z": 3.2862378021,
				"element": "H" 
			},
			{
				"x": 0.4264551597,
				"y": 4.6627334389,
				"z": 2.7580703358,
				"element": "H" 
			}
		],
		 "valence_orbital": [ 
			{
				"type": "occ",
				"energy": -0.31848,
				"method": "rhf"
			},
			{
				"type": "occ",
				"energy": -0.29149,
				"method": "rhf"
			},
			{
				"type": "occ",
				"energy": -0.26473,
				"method": "rhf"
			},
			{
				"type": "occ",
				"energy": -0.24097,
				"method": "rhf"
			},
			{
				"type": "occ",
				"energy": -0.23773,
				"method": "rhf"
			},
			{
				"type": "unocc",
				"energy": -0.09704,
				"method": "rhf"
			},
			{
				"type": "unocc",
				"energy": -0.0005,
				"method": "rhf"
			},
			{
				"type": "unocc",
				"energy": 0.03052,
				"method": "rhf"
			},
			{
				"type": "unocc",
				"energy": 0.06287,
				"method": "rhf"
			},
			{
				"type": "unocc",
				"energy": 0.09231,
				"method": "rhf"
			}
		],
		"cosmo_sigma_profile": { 
			"-0.025": 0.0,
			"-0.024": 0.0,
			"-0.023": 0.0,
			"-0.022": 0.0,
			"-0.021": 0.0,
			"-0.02": 0.0,
			"-0.019": 0.217138482909,
			"-0.018": 1.11544163751,
			"-0.017": 1.33359846032,
			"-0.016": 0.482893232134,
			"-0.015": 0.919870911234,
			"-0.014": 0.629804282011,
			"-0.013": 1.24952918599,
			"-0.012": 0.871252105026,
			"-0.011": 0.147088531494,
			"-0.01": 0.332127390265,
			"-0.009": 1.09150597489,
			"-0.008": 0.556628347931,
			"-0.007": 0.503878953716,
			"-0.006": 1.17146896751,
			"-0.005": 2.98827894821,
			"-0.004": 7.37546659586,
			"-0.003": 25.5240911119,
			"-0.002": 38.543877549,
			"-0.001": 36.6938833623,
			"0.0": 42.9633914518,
			"0.001": 53.3345572713,
			"0.002": 33.5618813274,
			"0.003": 10.4537946705,
			"0.004": 6.03872439502,
			"0.005": 5.1981079217,
			"0.006": 5.75280414045,
			"0.007": 5.3328530014,
			"0.008": 2.39038736678,
			"0.009": 2.60235193089,
			"0.01": 1.882660919,
			"0.011": 1.94640041114,
			"0.012": 0.940447736691,
			"0.013": 0.0240482966769,
			"0.014": 0.0,
			"0.015": 0.0,
			"0.016": 0.0,
			"0.017": 0.0,
			"0.018": 0.0,
			"0.019": 0.0,
			"0.02": 0.0,
			"0.021": 0.0,
			"0.022": 0.0,
			"0.023": 0.0,
			"0.024": 0.0,
			"0.025": 0.0
		}
	}
}
