{
	 "smiles": "OC(=O)C1=CC=CN(CC2=CC=CC=C2)C1=O", 
	 "Tm": 403.15, 
	 "num_atms": 28, 
	 "gaussian": { 
		 "optdone": 1, 
		 "sigma_profile": "yes", 
		 "theory": "DFT", 
		 "functional": "B3LYP", 
		 "basiset": "6-31G**", 
		 "properties": { 
			 "R2extent": 5833.9672, 
			 "electric_dipole_moment_norm": 8.14678713666, 
			 "electric_quadrupole_moment_norm": 34.6995201834, 
			 "total_energy": -782.467201004, 
			 "HOMO_LUMO_gap": 0.16855, 
			 "cosmo_polarized_energy": -18.28, 
			 "cosmo_cavitation_energy": 32.26, 
			 "cosmo_dispersion_energy": -23.33, 
			 "cosmo_repulsion_energy": 1.78, 
			 "cosmo_total_nonelectrostatic_energy": 10.7, 
			 "SMD_solvation_energy": 7.05 
		},
		"coords": [
			{
				"x": 0.7949584098,
				"y": -2.2967886858,
				"z": -4.6587853447,
				"element": "O" 
			},
			{
				"x": 1.627017183,
				"y": -1.3073978071,
				"z": -4.3226700921,
				"element": "C" 
			},
			{
				"x": 2.5161524821,
				"y": -0.9243628908,
				"z": -5.0558566985,
				"element": "O" 
			},
			{
				"x": 1.4043768822,
				"y": -0.6825356248,
				"z": -2.9682420882,
				"element": "C" 
			},
			{
				"x": 2.2242982573,
				"y": 0.3494124391,
				"z": -2.5755920668,
				"element": "C" 
			},
			{
				"x": 2.0606216915,
				"y": 0.9723918874,
				"z": -1.3192106759,
				"element": "C" 
			},
			{
				"x": 1.0665476456,
				"y": 0.51735839,
				"z": -0.4959709608,
				"element": "C" 
			},
			{
				"x": 0.2457617565,
				"y": -0.5094122835,
				"z": -0.8568549889,
				"element": "N" 
			},
			{
				"x": -0.8178181687,
				"y": -0.9618923317,
				"z": 0.0770851799,
				"element": "C" 
			},
			{
				"x": -2.0622793563,
				"y": -0.1008181484,
				"z": 0.023148101,
				"element": "C" 
			},
			{
				"x": -2.3621277878,
				"y": 0.7769587343,
				"z": 1.0710417207,
				"element": "C" 
			},
			{
				"x": -3.505997669,
				"y": 1.576974537,
				"z": 1.0224263233,
				"element": "C" 
			},
			{
				"x": -4.3587285229,
				"y": 1.5056535398,
				"z": -0.0790512908,
				"element": "C" 
			},
			{
				"x": -4.0673240942,
				"y": 0.6289681196,
				"z": -1.1279605962,
				"element": "C" 
			},
			{
				"x": -2.9280340042,
				"y": -0.1727269935,
				"z": -1.0783120285,
				"element": "C" 
			},
			{
				"x": 0.3444874262,
				"y": -1.1504432684,
				"z": -2.1019431152,
				"element": "C" 
			},
			{
				"x": -0.460734391,
				"y": -2.0626030509,
				"z": -2.3907755583,
				"element": "O" 
			},
			{
				"x": 0.1536847399,
				"y": -2.4351860782,
				"z": -3.9130220636,
				"element": "H" 
			},
			{
				"x": 2.9980886148,
				"y": 0.6650198557,
				"z": -3.2688721166,
				"element": "H" 
			},
			{
				"x": 2.6976755003,
				"y": 1.7876156419,
				"z": -0.9999410295,
				"element": "H" 
			},
			{
				"x": 0.8740655241,
				"y": 0.9450829488,
				"z": 0.4815551816,
				"element": "H" 
			},
			{
				"x": -0.3878589076,
				"y": -0.9551834884,
				"z": 1.0819038681,
				"element": "H" 
			},
			{
				"x": -1.0398082743,
				"y": -1.9915179401,
				"z": -0.2037428341,
				"element": "H" 
			},
			{
				"x": -1.7050830367,
				"y": 0.8289801582,
				"z": 1.9365532052,
				"element": "H" 
			},
			{
				"x": -3.7296438981,
				"y": 2.2511543233,
				"z": 1.8441086103,
				"element": "H" 
			},
			{
				"x": -5.2491603005,
				"y": 2.1262345777,
				"z": -0.1193883469,
				"element": "H" 
			},
			{
				"x": -4.7324540598,
				"y": 0.5659970539,
				"z": -1.9842988833,
				"element": "H" 
			},
			{
				"x": -2.699883642,
				"y": -0.8591336152,
				"z": -1.8882314109,
				"element": "H" 
			}
		],
		 "valence_orbital": [ 
			{
				"type": "occ",
				"energy": -0.28571,
				"method": "rhf"
			},
			{
				"type": "occ",
				"energy": -0.2655,
				"method": "rhf"
			},
			{
				"type": "occ",
				"energy": -0.26232,
				"method": "rhf"
			},
			{
				"type": "occ",
				"energy": -0.25793,
				"method": "rhf"
			},
			{
				"type": "occ",
				"energy": -0.24316,
				"method": "rhf"
			},
			{
				"type": "unocc",
				"energy": -0.07461,
				"method": "rhf"
			},
			{
				"type": "unocc",
				"energy": -0.0253,
				"method": "rhf"
			},
			{
				"type": "unocc",
				"energy": -0.0165,
				"method": "rhf"
			},
			{
				"type": "unocc",
				"energy": -0.01453,
				"method": "rhf"
			},
			{
				"type": "unocc",
				"energy": 0.04048,
				"method": "rhf"
			}
		],
		"cosmo_sigma_profile": { 
			"-0.025": 0.0,
			"-0.024": 0.0,
			"-0.023": 0.0,
			"-0.022": 0.0,
			"-0.021": 0.0,
			"-0.02": 0.0,
			"-0.019": 0.0,
			"-0.018": 0.0,
			"-0.017": 0.0,
			"-0.016": 0.0,
			"-0.015": 0.0,
			"-0.014": 0.0,
			"-0.013": 0.0,
			"-0.012": 0.0,
			"-0.011": 0.443796297952,
			"-0.01": 2.83081444227,
			"-0.009": 3.66134332785,
			"-0.008": 6.41659577646,
			"-0.007": 8.93426629707,
			"-0.006": 14.449580763,
			"-0.005": 16.3351811775,
			"-0.004": 22.5710679715,
			"-0.003": 22.4355186108,
			"-0.002": 19.3624432355,
			"-0.001": 19.1876133052,
			"0.0": 18.4649052169,
			"0.001": 16.8045776881,
			"0.002": 12.6215740602,
			"0.003": 11.646620222,
			"0.004": 10.8123394485,
			"0.005": 12.7374916895,
			"0.006": 7.04487137113,
			"0.007": 2.97608494778,
			"0.008": 3.43091901819,
			"0.009": 4.26508378922,
			"0.01": 4.35067722263,
			"0.011": 6.28179303967,
			"0.012": 6.21498688585,
			"0.013": 3.43797429859,
			"0.014": 1.29004496258,
			"0.015": 0.0151568661129,
			"0.016": 0.0,
			"0.017": 0.0,
			"0.018": 0.0,
			"0.019": 0.0,
			"0.02": 0.0,
			"0.021": 0.0,
			"0.022": 0.0,
			"0.023": 0.0,
			"0.024": 0.0,
			"0.025": 0.0
		}
	}
}
