{
	 "smiles": "COC1=C(OC)C=C(C=C1)C1=NOC(CCC(O)=O)=N1", 
	 "Tm": 394.15, 
	 "num_atms": 34, 
	 "gaussian": { 
		 "optdone": 1, 
		 "sigma_profile": "yes", 
		 "theory": "DFT", 
		 "functional": "B3LYP", 
		 "basiset": "6-31G**", 
		 "properties": { 
			 "R2extent": 8341.6235, 
			 "electric_dipole_moment_norm": 3.1279736348, 
			 "electric_quadrupole_moment_norm": 26.2832906399, 
			 "total_energy": -989.398645322, 
			 "HOMO_LUMO_gap": 0.1675, 
			 "cosmo_polarized_energy": -19.28, 
			 "cosmo_cavitation_energy": 38.88, 
			 "cosmo_dispersion_energy": -27.4, 
			 "cosmo_repulsion_energy": 2.1, 
			 "cosmo_total_nonelectrostatic_energy": 13.58, 
			 "SMD_solvation_energy": 8.64 
		},
		"coords": [
			{
				"x": 4.2801378443,
				"y": -0.8954736893,
				"z": -1.6150131894,
				"element": "C" 
			},
			{
				"x": 4.1118417796,
				"y": 0.422154173,
				"z": -1.0783801435,
				"element": "O" 
			},
			{
				"x": 3.0282482548,
				"y": 0.6396199574,
				"z": -0.2754722001,
				"element": "C" 
			},
			{
				"x": 1.6965466473,
				"y": 0.5060776636,
				"z": -0.7405239381,
				"element": "C" 
			},
			{
				"x": 1.5448258992,
				"y": 0.111757267,
				"z": -2.0363749766,
				"element": "O" 
			},
			{
				"x": 0.2266072723,
				"y": 0.0163532728,
				"z": -2.5629807835,
				"element": "C" 
			},
			{
				"x": 0.6390721623,
				"y": 0.7943068713,
				"z": 0.1215461782,
				"element": "C" 
			},
			{
				"x": 0.8853591539,
				"y": 1.2361787227,
				"z": 1.4328624337,
				"element": "C" 
			},
			{
				"x": 2.2016170818,
				"y": 1.3896374384,
				"z": 1.8827767551,
				"element": "C" 
			},
			{
				"x": 3.2561625506,
				"y": 1.0848121341,
				"z": 1.0271190372,
				"element": "C" 
			},
			{
				"x": -0.2448832861,
				"y": 1.5422815672,
				"z": 2.3129673728,
				"element": "C" 
			},
			{
				"x": -0.1084755046,
				"y": 1.995785724,
				"z": 3.5398294299,
				"element": "N" 
			},
			{
				"x": -1.4367336451,
				"y": 2.1394608733,
				"z": 3.9925143248,
				"element": "O" 
			},
			{
				"x": -2.2338499677,
				"y": 1.7618927089,
				"z": 2.9905105043,
				"element": "C" 
			},
			{
				"x": -3.7158492619,
				"y": 1.8183106302,
				"z": 3.1696051711,
				"element": "C" 
			},
			{
				"x": -4.4944106705,
				"y": 0.7502847054,
				"z": 2.3665868852,
				"element": "C" 
			},
			{
				"x": -4.7079756247,
				"y": 1.030805389,
				"z": 0.8707727319,
				"element": "C" 
			},
			{
				"x": -3.6110119017,
				"y": 1.1991047707,
				"z": 0.11500568,
				"element": "O" 
			},
			{
				"x": -5.816580296,
				"y": 1.0719851136,
				"z": 0.3889587792,
				"element": "O" 
			},
			{
				"x": -1.5698503395,
				"y": 1.3819936123,
				"z": 1.9364805703,
				"element": "N" 
			},
			{
				"x": 5.2332286752,
				"y": -0.8795898187,
				"z": -2.1466668877,
				"element": "H" 
			},
			{
				"x": 3.4752968981,
				"y": -1.1561502683,
				"z": -2.3058380699,
				"element": "H" 
			},
			{
				"x": 4.3295253006,
				"y": -1.6381290769,
				"z": -0.8087243811,
				"element": "H" 
			},
			{
				"x": -0.2938812824,
				"y": 0.9804723408,
				"z": -2.5186193444,
				"element": "H" 
			},
			{
				"x": 0.3429932255,
				"y": -0.2832171593,
				"z": -3.6051020017,
				"element": "H" 
			},
			{
				"x": -0.3671341831,
				"y": -0.7387352444,
				"z": -2.0331124809,
				"element": "H" 
			},
			{
				"x": -0.3840101814,
				"y": 0.6949736876,
				"z": -0.215841497,
				"element": "H" 
			},
			{
				"x": 2.3923331051,
				"y": 1.734336048,
				"z": 2.8928164804,
				"element": "H" 
			},
			{
				"x": 4.2870782555,
				"y": 1.1903831597,
				"z": 1.3482759955,
				"element": "H" 
			},
			{
				"x": -4.0640511207,
				"y": 2.8247878915,
				"z": 2.9029155509,
				"element": "H" 
			},
			{
				"x": -3.9238003659,
				"y": 1.6976484686,
				"z": 4.2368743173,
				"element": "H" 
			},
			{
				"x": -3.9965919431,
				"y": -0.2209303126,
				"z": 2.4760671378,
				"element": "H" 
			},
			{
				"x": -5.4946290514,
				"y": 0.6574056327,
				"z": 2.7915104859,
				"element": "H" 
			},
			{
				"x": -2.7849554803,
				"y": 1.1635157455,
				"z": 0.6562540723,
				"element": "H" 
			}
		],
		 "valence_orbital": [ 
			{
				"type": "occ",
				"energy": -0.29987,
				"method": "rhf"
			},
			{
				"type": "occ",
				"energy": -0.28743,
				"method": "rhf"
			},
			{
				"type": "occ",
				"energy": -0.25909,
				"method": "rhf"
			},
			{
				"type": "occ",
				"energy": -0.25344,
				"method": "rhf"
			},
			{
				"type": "occ",
				"energy": -0.22516,
				"method": "rhf"
			},
			{
				"type": "unocc",
				"energy": -0.05766,
				"method": "rhf"
			},
			{
				"type": "unocc",
				"energy": -0.0264,
				"method": "rhf"
			},
			{
				"type": "unocc",
				"energy": -0.00359,
				"method": "rhf"
			},
			{
				"type": "unocc",
				"energy": 0.01398,
				"method": "rhf"
			},
			{
				"type": "unocc",
				"energy": 0.05701,
				"method": "rhf"
			}
		],
		"cosmo_sigma_profile": { 
			"-0.025": 0.0,
			"-0.024": 0.0,
			"-0.023": 0.0,
			"-0.022": 0.0,
			"-0.021": 0.0,
			"-0.02": 0.0,
			"-0.019": 0.0,
			"-0.018": 0.0,
			"-0.017": 0.0,
			"-0.016": 0.0,
			"-0.015": 0.0,
			"-0.014": 0.0,
			"-0.013": 0.0,
			"-0.012": 0.0,
			"-0.011": 0.0,
			"-0.01": 0.0,
			"-0.009": 2.3272763249,
			"-0.008": 7.88725214997,
			"-0.007": 14.094196111,
			"-0.006": 24.8114235694,
			"-0.005": 28.3372841049,
			"-0.004": 26.5935843697,
			"-0.003": 26.0222174126,
			"-0.002": 20.3031703586,
			"-0.001": 15.3857855562,
			"0.0": 15.8582241839,
			"0.001": 17.7634453291,
			"0.002": 19.0454742451,
			"0.003": 18.4413340123,
			"0.004": 11.3062239205,
			"0.005": 6.81939742513,
			"0.006": 9.09022851091,
			"0.007": 6.1821983772,
			"0.008": 5.81916617729,
			"0.009": 6.72881781827,
			"0.01": 5.93845268661,
			"0.011": 7.57991419214,
			"0.012": 8.05254029626,
			"0.013": 4.41413570334,
			"0.014": 1.16323865879,
			"0.015": 0.0,
			"0.016": 0.0,
			"0.017": 0.0,
			"0.018": 0.0,
			"0.019": 0.0,
			"0.02": 0.0,
			"0.021": 0.0,
			"0.022": 0.0,
			"0.023": 0.0,
			"0.024": 0.0,
			"0.025": 0.0
		}
	}
}
