{
	 "smiles": "BrC1=CN=C(NC(=O)C2CCCNC2)C=C1", 
	 "Tm": 443.15, 
	 "num_atms": 30, 
	 "gaussian": { 
		 "optdone": 1, 
		 "sigma_profile": "yes", 
		 "theory": "DFT", 
		 "functional": "B3LYP", 
		 "basiset": "6-31G**", 
		 "properties": { 
			 "R2extent": 12446.7405, 
			 "electric_dipole_moment_norm": 2.14158949381, 
			 "electric_quadrupole_moment_norm": 7.16215560359, 
			 "total_energy": -3238.50668931, 
			 "HOMO_LUMO_gap": 0.17506, 
			 "cosmo_polarized_energy": -11.66, 
			 "cosmo_cavitation_energy": 34.59, 
			 "cosmo_dispersion_energy": -26.14, 
			 "cosmo_repulsion_energy": 2.04, 
			 "cosmo_total_nonelectrostatic_energy": 10.49, 
			 "SMD_solvation_energy": 0.42 
		},
		"coords": [
			{
				"x": 0.5540900986,
				"y": 7.7515852332,
				"z": -0.59427053,
				"element": "Br" 
			},
			{
				"x": 0.5478251514,
				"y": 5.8578907471,
				"z": -0.3822853526,
				"element": "C" 
			},
			{
				"x": 1.7007836683,
				"y": 5.2002363188,
				"z": 0.0419289071,
				"element": "C" 
			},
			{
				"x": 1.7497575005,
				"y": 3.8770403736,
				"z": 0.2061652126,
				"element": "N" 
			},
			{
				"x": 0.6463300621,
				"y": 3.1597249528,
				"z": -0.0474262731,
				"element": "C" 
			},
			{
				"x": 0.8298231628,
				"y": 1.7852771717,
				"z": 0.1636947376,
				"element": "N" 
			},
			{
				"x": -0.0677529465,
				"y": 0.7524562177,
				"z": 0.0018739022,
				"element": "C" 
			},
			{
				"x": -1.2239970692,
				"y": 0.9189619701,
				"z": -0.3788608246,
				"element": "O" 
			},
			{
				"x": 0.4527897345,
				"y": -0.6247093807,
				"z": 0.3898919179,
				"element": "C" 
			},
			{
				"x": 0.1798515143,
				"y": -1.6443651423,
				"z": -0.7489438467,
				"element": "C" 
			},
			{
				"x": -0.0805706991,
				"y": -3.0471474398,
				"z": -0.1889319183,
				"element": "C" 
			},
			{
				"x": -1.3346279875,
				"y": -3.0388345914,
				"z": 0.7221784033,
				"element": "C" 
			},
			{
				"x": -1.5427852553,
				"y": -1.7673518629,
				"z": 1.4384056864,
				"element": "N" 
			},
			{
				"x": -0.2902409769,
				"y": -1.077384543,
				"z": 1.6981997496,
				"element": "C" 
			},
			{
				"x": -0.5618795669,
				"y": 3.7310573185,
				"z": -0.4788951044,
				"element": "C" 
			},
			{
				"x": -0.5995146605,
				"y": 5.1108490514,
				"z": -0.6462305978,
				"element": "C" 
			},
			{
				"x": 2.6098829278,
				"y": 5.7561749926,
				"z": 0.2550520965,
				"element": "H" 
			},
			{
				"x": 1.7677811599,
				"y": 1.5647172458,
				"z": 0.4719347808,
				"element": "H" 
			},
			{
				"x": 1.5297746312,
				"y": -0.5764162005,
				"z": 0.5980053132,
				"element": "H" 
			},
			{
				"x": 1.0178809539,
				"y": -1.649948148,
				"z": -1.4539051029,
				"element": "H" 
			},
			{
				"x": -0.7019184566,
				"y": -1.3087669211,
				"z": -1.3052921687,
				"element": "H" 
			},
			{
				"x": 0.7970859708,
				"y": -3.3857727977,
				"z": 0.3768452808,
				"element": "H" 
			},
			{
				"x": -0.2133892743,
				"y": -3.7663580441,
				"z": -1.0046385533,
				"element": "H" 
			},
			{
				"x": -1.2622916771,
				"y": -3.8550852729,
				"z": 1.4539083217,
				"element": "H" 
			},
			{
				"x": -2.2322900569,
				"y": -3.2332130679,
				"z": 0.1253913904,
				"element": "H" 
			},
			{
				"x": -2.1327380839,
				"y": -1.1494232361,
				"z": 0.8869113874,
				"element": "H" 
			},
			{
				"x": -0.4781745999,
				"y": -0.2136320886,
				"z": 2.345012005,
				"element": "H" 
			},
			{
				"x": 0.3673574566,
				"y": -1.7509003605,
				"z": 2.2605066136,
				"element": "H" 
			},
			{
				"x": -1.4204100731,
				"y": 3.1028965287,
				"z": -0.6693618046,
				"element": "H" 
			},
			{
				"x": -1.509532609,
				"y": 5.5987409754,
				"z": -0.9776636292,
				"element": "H" 
			}
		],
		 "valence_orbital": [ 
			{
				"type": "occ",
				"energy": -0.2913,
				"method": "rhf"
			},
			{
				"type": "occ",
				"energy": -0.27875,
				"method": "rhf"
			},
			{
				"type": "occ",
				"energy": -0.2653,
				"method": "rhf"
			},
			{
				"type": "occ",
				"energy": -0.23546,
				"method": "rhf"
			},
			{
				"type": "occ",
				"energy": -0.21484,
				"method": "rhf"
			},
			{
				"type": "unocc",
				"energy": -0.03978,
				"method": "rhf"
			},
			{
				"type": "unocc",
				"energy": -0.03034,
				"method": "rhf"
			},
			{
				"type": "unocc",
				"energy": 0.00291,
				"method": "rhf"
			},
			{
				"type": "unocc",
				"energy": 0.02841,
				"method": "rhf"
			},
			{
				"type": "unocc",
				"energy": 0.06592,
				"method": "rhf"
			}
		],
		"cosmo_sigma_profile": { 
			"-0.025": 0.0,
			"-0.024": 0.0,
			"-0.023": 0.0,
			"-0.022": 0.0,
			"-0.021": 0.0,
			"-0.02": 0.0,
			"-0.019": 0.0,
			"-0.018": 0.0,
			"-0.017": 0.0,
			"-0.016": 0.0,
			"-0.015": 0.0610476139988,
			"-0.014": 0.927323565287,
			"-0.013": 0.930919034649,
			"-0.012": 1.11999243183,
			"-0.011": 1.39595742956,
			"-0.01": 1.55929629406,
			"-0.009": 1.20708513105,
			"-0.008": 2.88928066183,
			"-0.007": 5.41874188187,
			"-0.006": 6.69389734798,
			"-0.005": 9.84941358641,
			"-0.004": 18.3013944243,
			"-0.003": 26.2598048261,
			"-0.002": 28.0350507951,
			"-0.001": 30.0608905123,
			"0.0": 35.1230663375,
			"0.001": 28.8794344267,
			"0.002": 15.2610687535,
			"0.003": 12.7457134729,
			"0.004": 15.6141927605,
			"0.005": 6.4064574339,
			"0.006": 3.64699469845,
			"0.007": 3.68766375148,
			"0.008": 3.33077860987,
			"0.009": 2.99751440295,
			"0.01": 3.01198373029,
			"0.011": 2.88129039677,
			"0.012": 3.26887262352,
			"0.013": 2.11434331574,
			"0.014": 0.324610861054,
			"0.015": 0.543259375059,
			"0.016": 0.584263456403,
			"0.017": 0.652042360968,
			"0.018": 0.362144481504,
			"0.019": 0.25329541154,
			"0.02": 0.0,
			"0.021": 0.0,
			"0.022": 0.0,
			"0.023": 0.0,
			"0.024": 0.0,
			"0.025": 0.0
		}
	}
}
