{
	 "smiles": "SC1=NN=C(O1)C1CCCCC1", 
	 "Tm": 355.15, 
	 "num_atms": 24, 
	 "gaussian": { 
		 "optdone": 1, 
		 "sigma_profile": "yes", 
		 "theory": "DFT", 
		 "functional": "B3LYP", 
		 "basiset": "6-31G**", 
		 "properties": { 
			 "R2extent": 4005.5052, 
			 "electric_dipole_moment_norm": 2.76543037338, 
			 "electric_quadrupole_moment_norm": 14.0899107087, 
			 "total_energy": -894.968215787, 
			 "HOMO_LUMO_gap": 0.23711, 
			 "cosmo_polarized_energy": -9.64, 
			 "cosmo_cavitation_energy": 28.07, 
			 "cosmo_dispersion_energy": -21.21, 
			 "cosmo_repulsion_energy": 1.67, 
			 "cosmo_total_nonelectrostatic_energy": 8.53, 
			 "SMD_solvation_energy": 1.81 
		},
		"coords": [
			{
				"x": 0.7489084921,
				"y": 3.8656037679,
				"z": -2.6652031742,
				"element": "S" 
			},
			{
				"x": -0.3369886324,
				"y": 2.5293407914,
				"z": -2.3189325276,
				"element": "C" 
			},
			{
				"x": -1.627346207,
				"y": 2.4703399776,
				"z": -2.4011418792,
				"element": "N" 
			},
			{
				"x": -1.967150143,
				"y": 1.1659505425,
				"z": -2.0070651162,
				"element": "N" 
			},
			{
				"x": -0.8630574345,
				"y": 0.5549274448,
				"z": -1.7230705279,
				"element": "C" 
			},
			{
				"x": 0.2347646422,
				"y": 1.3694888554,
				"z": -1.8998133089,
				"element": "O" 
			},
			{
				"x": -0.6539723769,
				"y": -0.8468129981,
				"z": -1.2643045758,
				"element": "C" 
			},
			{
				"x": 0.1810024074,
				"y": -1.6760256062,
				"z": -2.2661500175,
				"element": "C" 
			},
			{
				"x": 0.1644369602,
				"y": -3.1746306284,
				"z": -1.8822133222,
				"element": "C" 
			},
			{
				"x": 0.0551093138,
				"y": -3.3942096317,
				"z": -0.3543052672,
				"element": "C" 
			},
			{
				"x": 0.7157495357,
				"y": -2.2427954041,
				"z": 0.414218666,
				"element": "C" 
			},
			{
				"x": -0.0109625011,
				"y": -0.9026830072,
				"z": 0.1538693783,
				"element": "C" 
			},
			{
				"x": -0.2603077604,
				"y": 4.6887093171,
				"z": -3.0083459661,
				"element": "H" 
			},
			{
				"x": -1.6620049302,
				"y": -1.2737299737,
				"z": -1.2217513948,
				"element": "H" 
			},
			{
				"x": 1.2078150924,
				"y": -1.2913358946,
				"z": -2.2655564793,
				"element": "H" 
			},
			{
				"x": -0.2007879951,
				"y": -1.5401187541,
				"z": -3.2832939355,
				"element": "H" 
			},
			{
				"x": -0.6713365516,
				"y": -3.6755149995,
				"z": -2.384056901,
				"element": "H" 
			},
			{
				"x": 1.0782249674,
				"y": -3.6456209088,
				"z": -2.2623839443,
				"element": "H" 
			},
			{
				"x": -1.000520537,
				"y": -3.4594809201,
				"z": -0.0597227906,
				"element": "H" 
			},
			{
				"x": 0.506663318,
				"y": -4.3532216628,
				"z": -0.0785727295,
				"element": "H" 
			},
			{
				"x": 0.7308655971,
				"y": -2.4500970261,
				"z": 1.4896342934,
				"element": "H" 
			},
			{
				"x": 1.7654058921,
				"y": -2.1636294909,
				"z": 0.1035706295,
				"element": "H" 
			},
			{
				"x": -0.7991183032,
				"y": -0.7449565037,
				"z": 0.8983630665,
				"element": "H" 
			},
			{
				"x": 0.6962071538,
				"y": -0.0739972864,
				"z": 0.267027824,
				"element": "H" 
			}
		],
		 "valence_orbital": [ 
			{
				"type": "occ",
				"energy": -0.31336,
				"method": "rhf"
			},
			{
				"type": "occ",
				"energy": -0.30864,
				"method": "rhf"
			},
			{
				"type": "occ",
				"energy": -0.3076,
				"method": "rhf"
			},
			{
				"type": "occ",
				"energy": -0.27966,
				"method": "rhf"
			},
			{
				"type": "occ",
				"energy": -0.24417,
				"method": "rhf"
			},
			{
				"type": "unocc",
				"energy": -0.00706,
				"method": "rhf"
			},
			{
				"type": "unocc",
				"energy": -0.0011,
				"method": "rhf"
			},
			{
				"type": "unocc",
				"energy": 0.03283,
				"method": "rhf"
			},
			{
				"type": "unocc",
				"energy": 0.05351,
				"method": "rhf"
			},
			{
				"type": "unocc",
				"energy": 0.07127,
				"method": "rhf"
			}
		],
		"cosmo_sigma_profile": { 
			"-0.025": 0.0,
			"-0.024": 0.0,
			"-0.023": 0.0,
			"-0.022": 0.0,
			"-0.021": 0.0,
			"-0.02": 0.0,
			"-0.019": 0.0,
			"-0.018": 0.0,
			"-0.017": 0.0,
			"-0.016": 0.0,
			"-0.015": 0.0,
			"-0.014": 0.0271382109057,
			"-0.013": 1.46292164662,
			"-0.012": 1.34451986727,
			"-0.011": 1.50375425586,
			"-0.01": 1.2573172104,
			"-0.009": 1.39352039093,
			"-0.008": 1.07261174071,
			"-0.007": 1.28747846665,
			"-0.006": 1.52109528914,
			"-0.005": 3.60789737485,
			"-0.004": 10.6728527478,
			"-0.003": 25.9436221237,
			"-0.002": 38.4762179273,
			"-0.001": 35.2332075562,
			"0.0": 30.0181948285,
			"0.001": 20.0609296353,
			"0.002": 7.39590858738,
			"0.003": 6.33380915127,
			"0.004": 4.93940050521,
			"0.005": 5.23461330536,
			"0.006": 2.56137228253,
			"0.007": 1.68389783767,
			"0.008": 1.90012235821,
			"0.009": 2.47121365419,
			"0.01": 1.90359500888,
			"0.011": 3.53765248105,
			"0.012": 3.11687516558,
			"0.013": 2.92275416814,
			"0.014": 2.15244508935,
			"0.015": 1.65798206599,
			"0.016": 0.0143563040996,
			"0.017": 0.0,
			"0.018": 0.0,
			"0.019": 0.0,
			"0.02": 0.0,
			"0.021": 0.0,
			"0.022": 0.0,
			"0.023": 0.0,
			"0.024": 0.0,
			"0.025": 0.0
		}
	}
}
