{
	 "smiles": "C[C@@H]1CC(=O)C=C2CC[C@H](C[C@@]12C)C(C)=C", 
	 "Tm": 309.55, 
	 "num_atms": 38, 
	 "gaussian": { 
		 "optdone": 1, 
		 "sigma_profile": "yes", 
		 "theory": "DFT", 
		 "functional": "B3LYP", 
		 "basiset": "6-31G**", 
		 "properties": { 
			 "R2extent": 4595.152, 
			 "electric_dipole_moment_norm": 4.4583979791, 
			 "electric_quadrupole_moment_norm": 22.5232398871, 
			 "total_energy": -660.066042559, 
			 "HOMO_LUMO_gap": 0.18599, 
			 "cosmo_polarized_energy": -10.12, 
			 "cosmo_cavitation_energy": 35.89, 
			 "cosmo_dispersion_energy": -25.02, 
			 "cosmo_repulsion_energy": 1.91, 
			 "cosmo_total_nonelectrostatic_energy": 12.78, 
			 "SMD_solvation_energy": 6.77 
		},
		"coords": [
			{
				"x": 3.0356441068,
				"y": 1.7068938988,
				"z": 1.3177034967,
				"element": "C" 
			},
			{
				"x": 2.0102525117,
				"y": 0.6196578905,
				"z": 1.699055655,
				"element": "C" 
			},
			{
				"x": 2.7615324986,
				"y": -0.5761330353,
				"z": 2.3132388009,
				"element": "C" 
			},
			{
				"x": 3.5737065629,
				"y": -1.3250253199,
				"z": 1.2668018918,
				"element": "C" 
			},
			{
				"x": 4.6670335647,
				"y": -1.8183118321,
				"z": 1.5072298251,
				"element": "O" 
			},
			{
				"x": 2.8901422955,
				"y": -1.5121567867,
				"z": -0.0258966038,
				"element": "C" 
			},
			{
				"x": 1.7314102929,
				"y": -0.9010265647,
				"z": -0.3481865276,
				"element": "C" 
			},
			{
				"x": 0.8885574567,
				"y": -1.3975149904,
				"z": -1.49550136,
				"element": "C" 
			},
			{
				"x": -0.3806039242,
				"y": -2.0547420905,
				"z": -0.8992622294,
				"element": "C" 
			},
			{
				"x": -1.1630980697,
				"y": -1.0891630692,
				"z": 0.0092109052,
				"element": "C" 
			},
			{
				"x": -0.2313484791,
				"y": -0.474993497,
				"z": 1.0914354077,
				"element": "C" 
			},
			{
				"x": 1.0751425638,
				"y": 0.16815192,
				"z": 0.5229116006,
				"element": "C" 
			},
			{
				"x": 0.6909155395,
				"y": 1.4056635555,
				"z": -0.3273782685,
				"element": "C" 
			},
			{
				"x": -2.4098840832,
				"y": -1.6933068609,
				"z": 0.6476885678,
				"element": "C" 
			},
			{
				"x": -3.4239787666,
				"y": -0.6995097291,
				"z": 1.1671464024,
				"element": "C" 
			},
			{
				"x": -2.6280604572,
				"y": -3.0090775106,
				"z": 0.7485237124,
				"element": "C" 
			},
			{
				"x": 3.6834802503,
				"y": 1.9167031116,
				"z": 2.1748573132,
				"element": "H" 
			},
			{
				"x": 3.6801066935,
				"y": 1.3879932835,
				"z": 0.4916458605,
				"element": "H" 
			},
			{
				"x": 2.5605574789,
				"y": 2.6475763558,
				"z": 1.0308482341,
				"element": "H" 
			},
			{
				"x": 1.3568247755,
				"y": 1.0468926286,
				"z": 2.4724231785,
				"element": "H" 
			},
			{
				"x": 3.4294544105,
				"y": -0.259163957,
				"z": 3.1189928377,
				"element": "H" 
			},
			{
				"x": 2.0567946331,
				"y": -1.2983693827,
				"z": 2.7471858569,
				"element": "H" 
			},
			{
				"x": 3.3271609464,
				"y": -2.2587054561,
				"z": -0.6858900364,
				"element": "H" 
			},
			{
				"x": 0.6003926643,
				"y": -0.5850352027,
				"z": -2.1730528248,
				"element": "H" 
			},
			{
				"x": 1.4443821492,
				"y": -2.131361041,
				"z": -2.0873859217,
				"element": "H" 
			},
			{
				"x": -0.0616372815,
				"y": -2.9305232442,
				"z": -0.3213812571,
				"element": "H" 
			},
			{
				"x": -1.029969868,
				"y": -2.4197343283,
				"z": -1.7027788745,
				"element": "H" 
			},
			{
				"x": -1.5198605942,
				"y": -0.2645583545,
				"z": -0.6254219242,
				"element": "H" 
			},
			{
				"x": -0.772442647,
				"y": 0.2886301504,
				"z": 1.6627114709,
				"element": "H" 
			},
			{
				"x": 0.0332407677,
				"y": -1.2695563157,
				"z": 1.7992219784,
				"element": "H" 
			},
			{
				"x": 1.5488512979,
				"y": 1.803926802,
				"z": -0.8744668328,
				"element": "H" 
			},
			{
				"x": 0.3082301698,
				"y": 2.1979021947,
				"z": 0.3255180738,
				"element": "H" 
			},
			{
				"x": -0.087734548,
				"y": 1.1856585542,
				"z": -1.0591255953,
				"element": "H" 
			},
			{
				"x": -3.7768912234,
				"y": -0.0426855438,
				"z": 0.3612747936,
				"element": "H" 
			},
			{
				"x": -4.2927687868,
				"y": -1.2031880078,
				"z": 1.5986431378,
				"element": "H" 
			},
			{
				"x": -2.9994443645,
				"y": -0.0456582992,
				"z": 1.9385599454,
				"element": "H" 
			},
			{
				"x": -3.5308547628,
				"y": -3.3913409683,
				"z": 1.216769338,
				"element": "H" 
			},
			{
				"x": -1.9321357739,
				"y": -3.7525089578,
				"z": 0.3755299715,
				"element": "H" 
			}
		],
		 "valence_orbital": [ 
			{
				"type": "occ",
				"energy": -0.31148,
				"method": "rhf"
			},
			{
				"type": "occ",
				"energy": -0.30436,
				"method": "rhf"
			},
			{
				"type": "occ",
				"energy": -0.25307,
				"method": "rhf"
			},
			{
				"type": "occ",
				"energy": -0.24848,
				"method": "rhf"
			},
			{
				"type": "occ",
				"energy": -0.22846,
				"method": "rhf"
			},
			{
				"type": "unocc",
				"energy": -0.04247,
				"method": "rhf"
			},
			{
				"type": "unocc",
				"energy": 0.01936,
				"method": "rhf"
			},
			{
				"type": "unocc",
				"energy": 0.05964,
				"method": "rhf"
			},
			{
				"type": "unocc",
				"energy": 0.07228,
				"method": "rhf"
			},
			{
				"type": "unocc",
				"energy": 0.09756,
				"method": "rhf"
			}
		],
		"cosmo_sigma_profile": { 
			"-0.025": 0.0,
			"-0.024": 0.0,
			"-0.023": 0.0,
			"-0.022": 0.0,
			"-0.021": 0.0,
			"-0.02": 0.0,
			"-0.019": 0.0,
			"-0.018": 0.0,
			"-0.017": 0.0,
			"-0.016": 0.0,
			"-0.015": 0.0,
			"-0.014": 0.0,
			"-0.013": 0.0,
			"-0.012": 0.0,
			"-0.011": 0.0,
			"-0.01": 0.0,
			"-0.009": 0.0,
			"-0.008": 0.0,
			"-0.007": 0.0,
			"-0.006": 0.711878318372,
			"-0.005": 7.386827567,
			"-0.004": 21.5687461066,
			"-0.003": 43.6535166166,
			"-0.002": 45.4746362579,
			"-0.001": 43.8769441065,
			"0.0": 33.3360777224,
			"0.001": 24.852445314,
			"0.002": 12.0996286974,
			"0.003": 7.33151663524,
			"0.004": 7.25496526377,
			"0.005": 3.87533128249,
			"0.006": 4.16570339399,
			"0.007": 3.90479490434,
			"0.008": 1.69485275867,
			"0.009": 1.79522871827,
			"0.01": 1.19423703261,
			"0.011": 2.07279250318,
			"0.012": 3.28737418281,
			"0.013": 4.65916240291,
			"0.014": 3.24847376316,
			"0.015": 0.597671731824,
			"0.016": 0.0,
			"0.017": 0.0,
			"0.018": 0.0,
			"0.019": 0.0,
			"0.02": 0.0,
			"0.021": 0.0,
			"0.022": 0.0,
			"0.023": 0.0,
			"0.024": 0.0,
			"0.025": 0.0
		}
	}
}
