{
	 "smiles": "OC(=O)C1=CC(=CC=C1O)N(CC1=CC=CC=C1O)CC1=C(O)C=CC(O)=C1", 
	 "Tm": 483.15, 
	 "num_atms": 47, 
	 "gaussian": { 
		 "optdone": 1, 
		 "sigma_profile": "yes", 
		 "theory": "DFT", 
		 "functional": "B3LYP", 
		 "basiset": "6-31G**", 
		 "properties": { 
			 "R2extent": 11871.3225, 
			 "electric_dipole_moment_norm": 5.66521334285, 
			 "electric_quadrupole_moment_norm": 31.2179567869, 
			 "total_energy": -1317.77428075, 
			 "HOMO_LUMO_gap": 0.15309, 
			 "cosmo_polarized_energy": -27.83, 
			 "cosmo_cavitation_energy": 50.34, 
			 "cosmo_dispersion_energy": -33.44, 
			 "cosmo_repulsion_energy": 2.5, 
			 "cosmo_total_nonelectrostatic_energy": 19.4, 
			 "SMD_solvation_energy": 9.72 
		},
		"coords": [
			{
				"x": 1.8115974408,
				"y": 0.8753454436,
				"z": 4.1526403352,
				"element": "O" 
			},
			{
				"x": 0.5319755753,
				"y": 1.1168154673,
				"z": 4.5062415785,
				"element": "C" 
			},
			{
				"x": 0.2707458646,
				"y": 1.2404912427,
				"z": 5.6995810464,
				"element": "O" 
			},
			{
				"x": -0.483915572,
				"y": 1.2515171079,
				"z": 3.4427392867,
				"element": "C" 
			},
			{
				"x": -0.2388133154,
				"y": 0.8565892039,
				"z": 2.1164534716,
				"element": "C" 
			},
			{
				"x": -1.1612169878,
				"y": 1.0779298708,
				"z": 1.095152582,
				"element": "C" 
			},
			{
				"x": -2.3887504689,
				"y": 1.6778442221,
				"z": 1.4444331281,
				"element": "C" 
			},
			{
				"x": -2.6863774078,
				"y": 2.0088933532,
				"z": 2.7594757173,
				"element": "C" 
			},
			{
				"x": -1.7487871277,
				"y": 1.7987455222,
				"z": 3.7818228074,
				"element": "C" 
			},
			{
				"x": -2.0821619924,
				"y": 2.1333812217,
				"z": 5.0388288787,
				"element": "O" 
			},
			{
				"x": -0.8231835618,
				"y": 0.6895944363,
				"z": -0.2398521415,
				"element": "N" 
			},
			{
				"x": -1.95637922,
				"y": 0.2994033776,
				"z": -1.0900931305,
				"element": "C" 
			},
			{
				"x": -1.5423069346,
				"y": -0.6537308319,
				"z": -2.1991827997,
				"element": "C" 
			},
			{
				"x": -0.5897858788,
				"y": -1.653977536,
				"z": -1.9775647851,
				"element": "C" 
			},
			{
				"x": -0.2233911439,
				"y": -2.5534924547,
				"z": -2.979608425,
				"element": "C" 
			},
			{
				"x": -0.8212776305,
				"y": -2.460452153,
				"z": -4.2368619893,
				"element": "C" 
			},
			{
				"x": -1.7785209487,
				"y": -1.4770044629,
				"z": -4.4813451326,
				"element": "C" 
			},
			{
				"x": -2.1404373944,
				"y": -0.5810424895,
				"z": -3.4694654259,
				"element": "C" 
			},
			{
				"x": -3.0871623887,
				"y": 0.3902750579,
				"z": -3.6724606261,
				"element": "O" 
			},
			{
				"x": 0.0783004675,
				"y": 1.6389289268,
				"z": -0.9459124206,
				"element": "C" 
			},
			{
				"x": 1.4348720121,
				"y": 1.7673411131,
				"z": -0.2889316288,
				"element": "C" 
			},
			{
				"x": 1.769454763,
				"y": 2.8960650491,
				"z": 0.4826732777,
				"element": "C" 
			},
			{
				"x": 0.8580104886,
				"y": 3.9167017392,
				"z": 0.5532059879,
				"element": "O" 
			},
			{
				"x": 2.9901342955,
				"y": 2.9391125119,
				"z": 1.1617424031,
				"element": "C" 
			},
			{
				"x": 3.8954292612,
				"y": 1.8779011747,
				"z": 1.0691830107,
				"element": "C" 
			},
			{
				"x": 3.5862877145,
				"y": 0.7683021931,
				"z": 0.2769262366,
				"element": "C" 
			},
			{
				"x": 4.4290770352,
				"y": -0.2994417157,
				"z": 0.122593878,
				"element": "O" 
			},
			{
				"x": 2.3582676364,
				"y": 0.7248287608,
				"z": -0.3903345966,
				"element": "C" 
			},
			{
				"x": 1.9317651239,
				"y": 0.9868376884,
				"z": 3.1971776402,
				"element": "H" 
			},
			{
				"x": 0.675530649,
				"y": 0.3325044877,
				"z": 1.8600500106,
				"element": "H" 
			},
			{
				"x": -3.1281303698,
				"y": 1.8789314295,
				"z": 0.6756721856,
				"element": "H" 
			},
			{
				"x": -3.6438232174,
				"y": 2.4444658471,
				"z": 3.0254299576,
				"element": "H" 
			},
			{
				"x": -1.3274149969,
				"y": 1.8551245344,
				"z": 5.6134850783,
				"element": "H" 
			},
			{
				"x": -2.6880369139,
				"y": -0.2034732059,
				"z": -0.4473082549,
				"element": "H" 
			},
			{
				"x": -2.4708314823,
				"y": 1.1652973543,
				"z": -1.5331806474,
				"element": "H" 
			},
			{
				"x": -0.1293886922,
				"y": -1.7045480792,
				"z": -0.9957014269,
				"element": "H" 
			},
			{
				"x": 0.5199837409,
				"y": -3.3190376995,
				"z": -2.7800060084,
				"element": "H" 
			},
			{
				"x": -0.5477111855,
				"y": -3.1505719448,
				"z": -5.0296949047,
				"element": "H" 
			},
			{
				"x": -2.250299344,
				"y": -1.4010690268,
				"z": -5.459412435,
				"element": "H" 
			},
			{
				"x": -3.3876811255,
				"y": 0.3482746099,
				"z": -4.5892780094,
				"element": "H" 
			},
			{
				"x": 0.2115193219,
				"y": 1.2385748245,
				"z": -1.9552764818,
				"element": "H" 
			},
			{
				"x": -0.3902602037,
				"y": 2.6285744913,
				"z": -1.0382506771,
				"element": "H" 
			},
			{
				"x": 1.1879878847,
				"y": 4.598229967,
				"z": 1.1521207718,
				"element": "H" 
			},
			{
				"x": 3.2429851846,
				"y": 3.806286089,
				"z": 1.7680111161,
				"element": "H" 
			},
			{
				"x": 4.842349261,
				"y": 1.929278996,
				"z": 1.6017771075,
				"element": "H" 
			},
			{
				"x": 5.2390016671,
				"y": -0.1414066143,
				"z": 0.6242088612,
				"element": "H" 
			},
			{
				"x": 2.1168701166,
				"y": -0.1518391007,
				"z": -0.9833044075,
				"element": "H" 
			}
		],
		 "valence_orbital": [ 
			{
				"type": "occ",
				"energy": -0.24777,
				"method": "rhf"
			},
			{
				"type": "occ",
				"energy": -0.24304,
				"method": "rhf"
			},
			{
				"type": "occ",
				"energy": -0.22278,
				"method": "rhf"
			},
			{
				"type": "occ",
				"energy": -0.21237,
				"method": "rhf"
			},
			{
				"type": "occ",
				"energy": -0.20061,
				"method": "rhf"
			},
			{
				"type": "unocc",
				"energy": -0.04752,
				"method": "rhf"
			},
			{
				"type": "unocc",
				"energy": -0.0223,
				"method": "rhf"
			},
			{
				"type": "unocc",
				"energy": -0.0057,
				"method": "rhf"
			},
			{
				"type": "unocc",
				"energy": 0.00657,
				"method": "rhf"
			},
			{
				"type": "unocc",
				"energy": 0.01175,
				"method": "rhf"
			}
		],
		"cosmo_sigma_profile": { 
			"-0.025": 0.0,
			"-0.024": 0.0,
			"-0.023": 0.0,
			"-0.022": 0.0,
			"-0.021": 0.0,
			"-0.02": 0.0,
			"-0.019": 0.0,
			"-0.018": 0.591881240487,
			"-0.017": 2.95957222828,
			"-0.016": 3.66743952787,
			"-0.015": 3.40913972788,
			"-0.014": 2.43901665505,
			"-0.013": 3.38209045306,
			"-0.012": 3.2442976295,
			"-0.011": 3.682162641,
			"-0.01": 4.49127537924,
			"-0.009": 5.36569228151,
			"-0.008": 4.77453589399,
			"-0.007": 7.55902794737,
			"-0.006": 14.3506791799,
			"-0.005": 19.9503211775,
			"-0.004": 23.0950219223,
			"-0.003": 28.5989407688,
			"-0.002": 27.9585394524,
			"-0.001": 28.1635318978,
			"0.0": 21.6860780617,
			"0.001": 21.4171289621,
			"0.002": 22.6991181365,
			"0.003": 28.4209989939,
			"0.004": 25.7220804082,
			"0.005": 24.0590769922,
			"0.006": 16.2614823309,
			"0.007": 11.0730829021,
			"0.008": 9.21667293713,
			"0.009": 10.7757824721,
			"0.01": 9.90296741693,
			"0.011": 6.95344262517,
			"0.012": 3.98808969544,
			"0.013": 0.481680628658,
			"0.014": 0.0,
			"0.015": 0.0,
			"0.016": 0.0,
			"0.017": 0.0,
			"0.018": 0.0,
			"0.019": 0.0,
			"0.02": 0.0,
			"0.021": 0.0,
			"0.022": 0.0,
			"0.023": 0.0,
			"0.024": 0.0,
			"0.025": 0.0
		}
	}
}
