{
	 "smiles": "N1C=NC(=C1)C1=CC=CC=C1", 
	 "Tm": 417.15, 
	 "num_atms": 19, 
	 "gaussian": { 
		 "optdone": 1, 
		 "sigma_profile": "yes", 
		 "theory": "DFT", 
		 "functional": "B3LYP", 
		 "basiset": "6-31G**", 
		 "properties": { 
			 "R2extent": 2331.4453, 
			 "electric_dipole_moment_norm": 3.81236923841, 
			 "electric_quadrupole_moment_norm": 18.0367990494, 
			 "total_energy": -457.282137887, 
			 "HOMO_LUMO_gap": 0.19258, 
			 "cosmo_polarized_energy": -13.86, 
			 "cosmo_cavitation_energy": 23.01, 
			 "cosmo_dispersion_energy": -17.42, 
			 "cosmo_repulsion_energy": 1.38, 
			 "cosmo_total_nonelectrostatic_energy": 6.97, 
			 "SMD_solvation_energy": 3.13 
		},
		"coords": [
			{
				"x": 2.5214129636,
				"y": -0.4870032242,
				"z": -2.2682944823,
				"element": "N" 
			},
			{
				"x": 2.8237300979,
				"y": -0.4214623078,
				"z": -0.9368631569,
				"element": "C" 
			},
			{
				"x": 1.7695761029,
				"y": -0.6489347979,
				"z": -0.1902125742,
				"element": "N" 
			},
			{
				"x": 0.721537758,
				"y": -0.875365548,
				"z": -1.0671213209,
				"element": "C" 
			},
			{
				"x": 1.1778474014,
				"y": -0.7771284243,
				"z": -2.3672394815,
				"element": "C" 
			},
			{
				"x": -0.6344733163,
				"y": -1.1679432725,
				"z": -0.5804277278,
				"element": "C" 
			},
			{
				"x": -1.7028712254,
				"y": -1.3984201356,
				"z": -1.4634873667,
				"element": "C" 
			},
			{
				"x": -2.9802897815,
				"y": -1.6739864088,
				"z": -0.9807187701,
				"element": "C" 
			},
			{
				"x": -3.2177292359,
				"y": -1.7251905137,
				"z": 0.3949842992,
				"element": "C" 
			},
			{
				"x": -2.1624903262,
				"y": -1.497539827,
				"z": 1.2811140454,
				"element": "C" 
			},
			{
				"x": -0.8839026951,
				"y": -1.2217418357,
				"z": 0.8008001531,
				"element": "C" 
			},
			{
				"x": 3.1582657738,
				"y": -0.3496487062,
				"z": -3.0380859741,
				"element": "H" 
			},
			{
				"x": 3.8213514225,
				"y": -0.2059761531,
				"z": -0.5793103831,
				"element": "H" 
			},
			{
				"x": 0.6899655721,
				"y": -0.8826469625,
				"z": -3.3231459876,
				"element": "H" 
			},
			{
				"x": -1.5368666122,
				"y": -1.3625442912,
				"z": -2.5368707252,
				"element": "H" 
			},
			{
				"x": -3.7926286518,
				"y": -1.8492243195,
				"z": -1.6808587434,
				"element": "H" 
			},
			{
				"x": -4.213960251,
				"y": -1.9401088814,
				"z": 0.7706769251,
				"element": "H" 
			},
			{
				"x": -2.3356156069,
				"y": -1.5348749468,
				"z": 2.3532721276,
				"element": "H" 
			},
			{
				"x": -0.0588593899,
				"y": -1.0437594438,
				"z": 1.4817891433,
				"element": "H" 
			}
		],
		 "valence_orbital": [ 
			{
				"type": "occ",
				"energy": -0.29205,
				"method": "rhf"
			},
			{
				"type": "occ",
				"energy": -0.26792,
				"method": "rhf"
			},
			{
				"type": "occ",
				"energy": -0.25806,
				"method": "rhf"
			},
			{
				"type": "occ",
				"energy": -0.2385,
				"method": "rhf"
			},
			{
				"type": "occ",
				"energy": -0.20285,
				"method": "rhf"
			},
			{
				"type": "unocc",
				"energy": -0.01027,
				"method": "rhf"
			},
			{
				"type": "unocc",
				"energy": 0.01007,
				"method": "rhf"
			},
			{
				"type": "unocc",
				"energy": 0.03362,
				"method": "rhf"
			},
			{
				"type": "unocc",
				"energy": 0.07073,
				"method": "rhf"
			},
			{
				"type": "unocc",
				"energy": 0.09466,
				"method": "rhf"
			}
		],
		"cosmo_sigma_profile": { 
			"-0.025": 0.0,
			"-0.024": 0.0,
			"-0.023": 0.0,
			"-0.022": 0.0,
			"-0.021": 0.0,
			"-0.02": 0.0,
			"-0.019": 0.0,
			"-0.018": 0.0,
			"-0.017": 0.439274483984,
			"-0.016": 1.89870315253,
			"-0.015": 1.79932497384,
			"-0.014": 1.14454386346,
			"-0.013": 1.26289630804,
			"-0.012": 1.17736808923,
			"-0.011": 1.13824329671,
			"-0.01": 1.54030644017,
			"-0.009": 3.10561311606,
			"-0.008": 6.87123611693,
			"-0.007": 4.72992827416,
			"-0.006": 5.81601976658,
			"-0.005": 9.89480191382,
			"-0.004": 10.5458898331,
			"-0.003": 13.5824743761,
			"-0.002": 9.34640928858,
			"-0.001": 9.85416055807,
			"0.0": 8.49203344549,
			"0.001": 8.6824384591,
			"0.002": 10.3859423554,
			"0.003": 12.1713641258,
			"0.004": 15.3083830228,
			"0.005": 16.7648175748,
			"0.006": 12.5387701272,
			"0.007": 4.87702512797,
			"0.008": 1.89537541299,
			"0.009": 1.99037324592,
			"0.01": 1.4543412721,
			"0.011": 1.56774262517,
			"0.012": 0.872293303184,
			"0.013": 1.18146889801,
			"0.014": 1.19641592297,
			"0.015": 0.983650520386,
			"0.016": 0.472849077387,
			"0.017": 0.0,
			"0.018": 0.0,
			"0.019": 0.0,
			"0.02": 0.0,
			"0.021": 0.0,
			"0.022": 0.0,
			"0.023": 0.0,
			"0.024": 0.0,
			"0.025": 0.0
		}
	}
}
