{
	 "smiles": "O=C(C(=O)C1=NC=CC=C1)C1=NC=CC=C1", 
	 "Tm": 428.15, 
	 "num_atms": 24, 
	 "gaussian": { 
		 "optdone": 1, 
		 "sigma_profile": "yes", 
		 "theory": "DFT", 
		 "functional": "B3LYP", 
		 "basiset": "6-31G**", 
		 "properties": { 
			 "R2extent": 4058.7248, 
			 "electric_dipole_moment_norm": 4.83049461132, 
			 "electric_quadrupole_moment_norm": 24.8951291937, 
			 "total_energy": -722.013149945, 
			 "HOMO_LUMO_gap": 0.15051, 
			 "cosmo_polarized_energy": -18.08, 
			 "cosmo_cavitation_energy": 30.45, 
			 "cosmo_dispersion_energy": -21.67, 
			 "cosmo_repulsion_energy": 1.69, 
			 "cosmo_total_nonelectrostatic_energy": 10.48, 
			 "SMD_solvation_energy": 4.12 
		},
		"coords": [
			{
				"x": 0.6842793896,
				"y": 1.1696511464,
				"z": -1.792566805,
				"element": "O" 
			},
			{
				"x": -0.070262016,
				"y": 0.3708442643,
				"z": -1.2600942422,
				"element": "C" 
			},
			{
				"x": -0.9607406214,
				"y": 0.8277851841,
				"z": -0.0892852132,
				"element": "C" 
			},
			{
				"x": -2.1500499247,
				"y": 0.9183547299,
				"z": -0.3170396487,
				"element": "O" 
			},
			{
				"x": -0.324717757,
				"y": 1.2379345521,
				"z": 1.20845384,
				"element": "C" 
			},
			{
				"x": -1.1779498477,
				"y": 1.5788211269,
				"z": 2.1898668187,
				"element": "N" 
			},
			{
				"x": -0.6596291805,
				"y": 1.9306418463,
				"z": 3.3645882663,
				"element": "C" 
			},
			{
				"x": 0.7158228509,
				"y": 1.966102782,
				"z": 3.6276521454,
				"element": "C" 
			},
			{
				"x": 1.5938322104,
				"y": 1.6155150059,
				"z": 2.6066012411,
				"element": "C" 
			},
			{
				"x": 1.0667122188,
				"y": 1.240907752,
				"z": 1.3703731509,
				"element": "C" 
			},
			{
				"x": -0.2613372721,
				"y": -1.0216898667,
				"z": -1.7713009885,
				"element": "C" 
			},
			{
				"x": -0.8782136772,
				"y": -1.8798393066,
				"z": -0.9435934653,
				"element": "N" 
			},
			{
				"x": -1.0276547939,
				"y": -3.1376886954,
				"z": -1.3641937821,
				"element": "C" 
			},
			{
				"x": -0.5836298024,
				"y": -3.5884471362,
				"z": -2.6118369916,
				"element": "C" 
			},
			{
				"x": 0.0618198182,
				"y": -2.6881531717,
				"z": -3.4600520633,
				"element": "C" 
			},
			{
				"x": 0.2355517499,
				"y": -1.3750898033,
				"z": -3.0304064987,
				"element": "C" 
			},
			{
				"x": -1.3728051934,
				"y": 2.1992653462,
				"z": 4.1422899346,
				"element": "H" 
			},
			{
				"x": 1.078097286,
				"y": 2.2624545662,
				"z": 4.6071116839,
				"element": "H" 
			},
			{
				"x": 2.6680787052,
				"y": 1.6342671117,
				"z": 2.7642902422,
				"element": "H" 
			},
			{
				"x": 1.7189839128,
				"y": 0.9776270488,
				"z": 0.5461641405,
				"element": "H" 
			},
			{
				"x": -1.5259565803,
				"y": -3.8188234977,
				"z": -0.6773365024,
				"element": "H" 
			},
			{
				"x": -0.741500059,
				"y": -4.6216027216,
				"z": -2.9049444136,
				"element": "H" 
			},
			{
				"x": 0.4218885936,
				"y": -3.0047666442,
				"z": -4.4344747761,
				"element": "H" 
			},
			{
				"x": 0.7368799899,
				"y": -0.6253716193,
				"z": -3.632566073,
				"element": "H" 
			}
		],
		 "valence_orbital": [ 
			{
				"type": "occ",
				"energy": -0.27847,
				"method": "rhf"
			},
			{
				"type": "occ",
				"energy": -0.27704,
				"method": "rhf"
			},
			{
				"type": "occ",
				"energy": -0.27204,
				"method": "rhf"
			},
			{
				"type": "occ",
				"energy": -0.26247,
				"method": "rhf"
			},
			{
				"type": "occ",
				"energy": -0.23309,
				"method": "rhf"
			},
			{
				"type": "unocc",
				"energy": -0.08258,
				"method": "rhf"
			},
			{
				"type": "unocc",
				"energy": -0.0655,
				"method": "rhf"
			},
			{
				"type": "unocc",
				"energy": -0.03581,
				"method": "rhf"
			},
			{
				"type": "unocc",
				"energy": -0.02823,
				"method": "rhf"
			},
			{
				"type": "unocc",
				"energy": 0.01371,
				"method": "rhf"
			}
		],
		"cosmo_sigma_profile": { 
			"-0.025": 0.0,
			"-0.024": 0.0,
			"-0.023": 0.0,
			"-0.022": 0.0,
			"-0.021": 0.0,
			"-0.02": 0.0,
			"-0.019": 0.0,
			"-0.018": 0.0,
			"-0.017": 0.0,
			"-0.016": 0.0,
			"-0.015": 0.0,
			"-0.014": 0.0,
			"-0.013": 0.0,
			"-0.012": 0.0,
			"-0.011": 0.0,
			"-0.01": 0.0,
			"-0.009": 0.0893114882471,
			"-0.008": 9.24346723663,
			"-0.007": 21.1108848861,
			"-0.006": 18.3719221628,
			"-0.005": 14.0383512712,
			"-0.004": 11.9317962867,
			"-0.003": 12.6552790092,
			"-0.002": 14.6080477137,
			"-0.001": 18.6007565149,
			"0.0": 30.4723878442,
			"0.001": 26.7860444754,
			"0.002": 8.69597173587,
			"0.003": 4.55598828198,
			"0.004": 5.43027110948,
			"0.005": 4.54736041466,
			"0.006": 4.97439673818,
			"0.007": 5.12615481909,
			"0.008": 5.04309207203,
			"0.009": 7.96097876495,
			"0.01": 9.86474738752,
			"0.011": 5.22854198748,
			"0.012": 1.6841244726,
			"0.013": 1.00120758881,
			"0.014": 1.64052828859,
			"0.015": 1.1737003708,
			"0.016": 0.765248524739,
			"0.017": 0.88212557031,
			"0.018": 0.0,
			"0.019": 0.0,
			"0.02": 0.0,
			"0.021": 0.0,
			"0.022": 0.0,
			"0.023": 0.0,
			"0.024": 0.0,
			"0.025": 0.0
		}
	}
}
