{
	 "smiles": "COC1=CC=C(Br)C=C1Br", 
	 "Tm": 335.15, 
	 "num_atms": 16, 
	 "gaussian": { 
		 "optdone": 1, 
		 "sigma_profile": "yes", 
		 "theory": "DFT", 
		 "functional": "B3LYP", 
		 "basiset": "6-31G**", 
		 "properties": { 
			 "R2extent": 4948.4806, 
			 "electric_dipole_moment_norm": 3.29266862438, 
			 "electric_quadrupole_moment_norm": 7.05959292311, 
			 "total_energy": -5488.37624675, 
			 "HOMO_LUMO_gap": 0.20106, 
			 "cosmo_polarized_energy": -6.7, 
			 "cosmo_cavitation_energy": 24.7, 
			 "cosmo_dispersion_energy": -19.13, 
			 "cosmo_repulsion_energy": 1.56, 
			 "cosmo_total_nonelectrostatic_energy": 7.13, 
			 "SMD_solvation_energy": 2.83 
		},
		"coords": [
			{
				"x": -1.6688260585,
				"y": -0.8963132275,
				"z": 1.6348265791,
				"element": "C" 
			},
			{
				"x": -0.6270126791,
				"y": -0.8491987399,
				"z": 0.6699152356,
				"element": "O" 
			},
			{
				"x": -0.4739559738,
				"y": 0.2803758947,
				"z": -0.0632427707,
				"element": "C" 
			},
			{
				"x": -1.2761345422,
				"y": 1.4223796333,
				"z": 0.0590081638,
				"element": "C" 
			},
			{
				"x": -1.0500399791,
				"y": 2.5466968184,
				"z": -0.7372062675,
				"element": "C" 
			},
			{
				"x": -0.0149649384,
				"y": 2.5342948694,
				"z": -1.6646315845,
				"element": "C" 
			},
			{
				"x": 0.3036838909,
				"y": 4.0668777199,
				"z": -2.7591325615,
				"element": "Br" 
			},
			{
				"x": 0.7996304245,
				"y": 1.410758096,
				"z": -1.8078690806,
				"element": "C" 
			},
			{
				"x": 0.5676881501,
				"y": 0.2957077873,
				"z": -1.0112263881,
				"element": "C" 
			},
			{
				"x": 1.6830308946,
				"y": -1.233738654,
				"z": -1.2117405309,
				"element": "Br" 
			},
			{
				"x": -1.6019716635,
				"y": -1.8829492315,
				"z": 2.0941848073,
				"element": "H" 
			},
			{
				"x": -2.6552571305,
				"y": -0.7794234803,
				"z": 1.1689881064,
				"element": "H" 
			},
			{
				"x": -1.5384521937,
				"y": -0.1275302899,
				"z": 2.4066395925,
				"element": "H" 
			},
			{
				"x": -2.0860360672,
				"y": 1.444688504,
				"z": 0.7780600628,
				"element": "H" 
			},
			{
				"x": -1.6795158835,
				"y": 3.4224659533,
				"z": -0.6304808547,
				"element": "H" 
			},
			{
				"x": 1.6062337496,
				"y": 1.399608347,
				"z": -2.5297925091,
				"element": "H" 
			}
		],
		 "valence_orbital": [ 
			{
				"type": "occ",
				"energy": -0.29435,
				"method": "rhf"
			},
			{
				"type": "occ",
				"energy": -0.29043,
				"method": "rhf"
			},
			{
				"type": "occ",
				"energy": -0.28378,
				"method": "rhf"
			},
			{
				"type": "occ",
				"energy": -0.25541,
				"method": "rhf"
			},
			{
				"type": "occ",
				"energy": -0.22561,
				"method": "rhf"
			},
			{
				"type": "unocc",
				"energy": -0.02455,
				"method": "rhf"
			},
			{
				"type": "unocc",
				"energy": -0.01156,
				"method": "rhf"
			},
			{
				"type": "unocc",
				"energy": -0.00989,
				"method": "rhf"
			},
			{
				"type": "unocc",
				"energy": 0.02813,
				"method": "rhf"
			},
			{
				"type": "unocc",
				"energy": 0.09015,
				"method": "rhf"
			}
		],
		"cosmo_sigma_profile": { 
			"-0.025": 0.0,
			"-0.024": 0.0,
			"-0.023": 0.0,
			"-0.022": 0.0,
			"-0.021": 0.0,
			"-0.02": 0.0,
			"-0.019": 0.0,
			"-0.018": 0.0,
			"-0.017": 0.0,
			"-0.016": 0.0,
			"-0.015": 0.0,
			"-0.014": 0.0,
			"-0.013": 0.0,
			"-0.012": 0.0,
			"-0.011": 0.0,
			"-0.01": 0.0,
			"-0.009": 0.0,
			"-0.008": 2.30822176752,
			"-0.007": 7.37266070166,
			"-0.006": 13.5247139639,
			"-0.005": 12.7871619213,
			"-0.004": 14.8787429109,
			"-0.003": 12.8191696109,
			"-0.002": 10.7930671047,
			"-0.001": 9.73696272594,
			"0.0": 12.3694204605,
			"0.001": 20.4317324519,
			"0.002": 27.2536117942,
			"0.003": 18.6608183029,
			"0.004": 20.9707597876,
			"0.005": 11.2924586252,
			"0.006": 2.69781207781,
			"0.007": 1.85964074824,
			"0.008": 1.65392322636,
			"0.009": 1.69519182743,
			"0.01": 1.38265579016,
			"0.011": 0.0209025499045,
			"0.012": 0.0,
			"0.013": 0.0,
			"0.014": 0.0,
			"0.015": 0.0,
			"0.016": 0.0,
			"0.017": 0.0,
			"0.018": 0.0,
			"0.019": 0.0,
			"0.02": 0.0,
			"0.021": 0.0,
			"0.022": 0.0,
			"0.023": 0.0,
			"0.024": 0.0,
			"0.025": 0.0
		}
	}
}
