{
	 "smiles": "OC(=O)C1=C(N(N=N1)C1=CC=CC=C1)C(F)(F)F", 
	 "Tm": 406.15, 
	 "num_atms": 24, 
	 "gaussian": { 
		 "optdone": 1, 
		 "sigma_profile": "yes", 
		 "theory": "DFT", 
		 "functional": "B3LYP", 
		 "basiset": "6-31G**", 
		 "properties": { 
			 "R2extent": 4404.9669, 
			 "electric_dipole_moment_norm": 6.36012523933, 
			 "electric_quadrupole_moment_norm": 8.19077564459, 
			 "total_energy": -998.868026129, 
			 "HOMO_LUMO_gap": 0.2034, 
			 "cosmo_polarized_energy": -13.04, 
			 "cosmo_cavitation_energy": 30.66, 
			 "cosmo_dispersion_energy": -21.9, 
			 "cosmo_repulsion_energy": 1.62, 
			 "cosmo_total_nonelectrostatic_energy": 10.39, 
			 "SMD_solvation_energy": 6.35 
		},
		"coords": [
			{
				"x": -2.086185588,
				"y": 1.1523764196,
				"z": 3.7199262087,
				"element": "O" 
			},
			{
				"x": -0.9195514136,
				"y": 0.8327608354,
				"z": 3.1265232268,
				"element": "C" 
			},
			{
				"x": 0.1317158201,
				"y": 0.8304591169,
				"z": 3.7181473017,
				"element": "O" 
			},
			{
				"x": -1.082986809,
				"y": 0.4686843966,
				"z": 1.6868504886,
				"element": "C" 
			},
			{
				"x": -0.1853279309,
				"y": 0.1359671508,
				"z": 0.6843042237,
				"element": "C" 
			},
			{
				"x": -0.9773174742,
				"y": -0.1543293938,
				"z": -0.3909740738,
				"element": "N" 
			},
			{
				"x": -2.2866873088,
				"y": 0.013120323,
				"z": -0.071472983,
				"element": "N" 
			},
			{
				"x": -2.3398590294,
				"y": 0.3885644268,
				"z": 1.1683024092,
				"element": "N" 
			},
			{
				"x": -0.6555699342,
				"y": -0.6018031198,
				"z": -1.7170274095,
				"element": "C" 
			},
			{
				"x": 0.2215494682,
				"y": -1.6711281135,
				"z": -1.9060113244,
				"element": "C" 
			},
			{
				"x": 0.4838865892,
				"y": -2.1051584296,
				"z": -3.2044567081,
				"element": "C" 
			},
			{
				"x": -0.1359231836,
				"y": -1.4891496479,
				"z": -4.2935310465,
				"element": "C" 
			},
			{
				"x": -1.0223609488,
				"y": -0.4302671202,
				"z": -4.0862720373,
				"element": "C" 
			},
			{
				"x": -1.2863126256,
				"y": 0.022255898,
				"z": -2.7946745458,
				"element": "C" 
			},
			{
				"x": 1.3187312457,
				"y": 0.1027796076,
				"z": 0.6569000946,
				"element": "C" 
			},
			{
				"x": 1.7794963367,
				"y": -1.1499884149,
				"z": 0.8803685792,
				"element": "F" 
			},
			{
				"x": 1.782775171,
				"y": 0.4927914054,
				"z": -0.5500480975,
				"element": "F" 
			},
			{
				"x": 1.8428971749,
				"y": 0.9094559942,
				"z": 1.5768701998,
				"element": "F" 
			},
			{
				"x": -2.8059347034,
				"y": 1.0569311663,
				"z": 3.0684042133,
				"element": "H" 
			},
			{
				"x": 0.6889991516,
				"y": -2.1532949439,
				"z": -1.0556742405,
				"element": "H" 
			},
			{
				"x": 1.1672334068,
				"y": -2.9337029629,
				"z": -3.361246773,
				"element": "H" 
			},
			{
				"x": 0.0696585255,
				"y": -1.8355176975,
				"z": -5.3016589782,
				"element": "H" 
			},
			{
				"x": -1.507617708,
				"y": 0.0497313046,
				"z": -4.9302203868,
				"element": "H" 
			},
			{
				"x": -1.9717082322,
				"y": 0.8420617989,
				"z": -2.6135283412,
				"element": "H" 
			}
		],
		 "valence_orbital": [ 
			{
				"type": "occ",
				"energy": -0.314,
				"method": "rhf"
			},
			{
				"type": "occ",
				"energy": -0.3023,
				"method": "rhf"
			},
			{
				"type": "occ",
				"energy": -0.2831,
				"method": "rhf"
			},
			{
				"type": "occ",
				"energy": -0.28089,
				"method": "rhf"
			},
			{
				"type": "occ",
				"energy": -0.27467,
				"method": "rhf"
			},
			{
				"type": "unocc",
				"energy": -0.07127,
				"method": "rhf"
			},
			{
				"type": "unocc",
				"energy": -0.04288,
				"method": "rhf"
			},
			{
				"type": "unocc",
				"energy": -0.03258,
				"method": "rhf"
			},
			{
				"type": "unocc",
				"energy": -0.02095,
				"method": "rhf"
			},
			{
				"type": "unocc",
				"energy": 0.06694,
				"method": "rhf"
			}
		],
		"cosmo_sigma_profile": { 
			"-0.025": 0.0,
			"-0.024": 0.0,
			"-0.023": 0.0,
			"-0.022": 0.0,
			"-0.021": 0.0,
			"-0.02": 0.0,
			"-0.019": 0.0,
			"-0.018": 0.0,
			"-0.017": 0.0,
			"-0.016": 0.0,
			"-0.015": 0.612079522537,
			"-0.014": 0.380332833181,
			"-0.013": 0.581176129454,
			"-0.012": 0.294897520515,
			"-0.011": 0.774269318521,
			"-0.01": 0.579424037315,
			"-0.009": 1.21157496628,
			"-0.008": 2.75459040632,
			"-0.007": 11.79027777,
			"-0.006": 19.1070246979,
			"-0.005": 19.8547160508,
			"-0.004": 15.3981130984,
			"-0.003": 12.628810469,
			"-0.002": 12.6214967073,
			"-0.001": 12.5684229403,
			"0.0": 14.8291208595,
			"0.001": 25.3630019743,
			"0.002": 30.6835402542,
			"0.003": 17.4362725396,
			"0.004": 6.88331009986,
			"0.005": 4.98311206245,
			"0.006": 5.22846197408,
			"0.007": 6.64076013668,
			"0.008": 5.98846216965,
			"0.009": 6.54719086298,
			"0.01": 6.11137127048,
			"0.011": 3.955797353,
			"0.012": 1.93360206728,
			"0.013": 0.190662284046,
			"0.014": 0.0,
			"0.015": 0.0,
			"0.016": 0.0,
			"0.017": 0.0,
			"0.018": 0.0,
			"0.019": 0.0,
			"0.02": 0.0,
			"0.021": 0.0,
			"0.022": 0.0,
			"0.023": 0.0,
			"0.024": 0.0,
			"0.025": 0.0
		}
	}
}
