{
	 "smiles": "CC1=C(C2=CC=CN=C2C=C1)[N+]([O-])=O", 
	 "Tm": 392.15, 
	 "num_atms": 22, 
	 "gaussian": { 
		 "optdone": 1, 
		 "sigma_profile": "yes", 
		 "theory": "DFT", 
		 "functional": "B3LYP", 
		 "basiset": "6-31G**", 
		 "properties": { 
			 "R2extent": 3834.9626, 
			 "electric_dipole_moment_norm": 1.59300977398, 
			 "electric_quadrupole_moment_norm": 14.5078431846, 
			 "total_energy": -645.736528847, 
			 "HOMO_LUMO_gap": 0.16713, 
			 "cosmo_polarized_energy": -9.51, 
			 "cosmo_cavitation_energy": 26.97, 
			 "cosmo_dispersion_energy": -19.26, 
			 "cosmo_repulsion_energy": 1.48, 
			 "cosmo_total_nonelectrostatic_energy": 9.19, 
			 "SMD_solvation_energy": 5.59 
		},
		"coords": [
			{
				"x": -0.9187548177,
				"y": -1.4974685461,
				"z": 0.0569203417,
				"element": "C" 
			},
			{
				"x": -0.2104975442,
				"y": -0.7788476816,
				"z": 1.1787895692,
				"element": "C" 
			},
			{
				"x": 0.5575479945,
				"y": 0.3438295124,
				"z": 0.9515130427,
				"element": "C" 
			},
			{
				"x": 1.2422840353,
				"y": 1.0550906785,
				"z": 1.967301707,
				"element": "C" 
			},
			{
				"x": 2.0357317845,
				"y": 2.211180821,
				"z": 1.7483494369,
				"element": "C" 
			},
			{
				"x": 2.6473705831,
				"y": 2.8065299736,
				"z": 2.8249596507,
				"element": "C" 
			},
			{
				"x": 2.4664357796,
				"y": 2.2479334219,
				"z": 4.1161111549,
				"element": "C" 
			},
			{
				"x": 1.7394066674,
				"y": 1.1775310716,
				"z": 4.3628180161,
				"element": "N" 
			},
			{
				"x": 1.1229590759,
				"y": 0.5702424632,
				"z": 3.3086548096,
				"element": "C" 
			},
			{
				"x": 0.335245712,
				"y": -0.5842759781,
				"z": 3.5543182319,
				"element": "C" 
			},
			{
				"x": -0.3054341175,
				"y": -1.2306137519,
				"z": 2.5232306931,
				"element": "C" 
			},
			{
				"x": 0.6814552774,
				"y": 0.8458124756,
				"z": -0.434142563,
				"element": "N" 
			},
			{
				"x": 1.6109075849,
				"y": 0.4090034761,
				"z": -1.1081127435,
				"element": "O" 
			},
			{
				"x": -0.1488676332,
				"y": 1.6699611339,
				"z": -0.8086578581,
				"element": "O" 
			},
			{
				"x": -1.6243982899,
				"y": -0.8326314082,
				"z": -0.4526540656,
				"element": "H" 
			},
			{
				"x": -0.2058344984,
				"y": -1.8527565724,
				"z": -0.6948352187,
				"element": "H" 
			},
			{
				"x": -1.4732064069,
				"y": -2.3584132651,
				"z": 0.4355545028,
				"element": "H" 
			},
			{
				"x": 2.1546552334,
				"y": 2.614409971,
				"z": 0.7473745883,
				"element": "H" 
			},
			{
				"x": 3.2623273329,
				"y": 3.6918166447,
				"z": 2.7005810209,
				"element": "H" 
			},
			{
				"x": 2.9480705652,
				"y": 2.714155016,
				"z": 4.9746765454,
				"element": "H" 
			},
			{
				"x": 0.2601411626,
				"y": -0.9323469221,
				"z": 4.578939291,
				"element": "H" 
			},
			{
				"x": -0.9050454809,
				"y": -2.113242534,
				"z": 2.7264098465,
				"element": "H" 
			}
		],
		 "valence_orbital": [ 
			{
				"type": "occ",
				"energy": -0.31114,
				"method": "rhf"
			},
			{
				"type": "occ",
				"energy": -0.3015,
				"method": "rhf"
			},
			{
				"type": "occ",
				"energy": -0.2675,
				"method": "rhf"
			},
			{
				"type": "occ",
				"energy": -0.26553,
				"method": "rhf"
			},
			{
				"type": "occ",
				"energy": -0.24555,
				"method": "rhf"
			},
			{
				"type": "unocc",
				"energy": -0.07842,
				"method": "rhf"
			},
			{
				"type": "unocc",
				"energy": -0.07103,
				"method": "rhf"
			},
			{
				"type": "unocc",
				"energy": -0.03228,
				"method": "rhf"
			},
			{
				"type": "unocc",
				"energy": 0.0018,
				"method": "rhf"
			},
			{
				"type": "unocc",
				"energy": 0.07101,
				"method": "rhf"
			}
		],
		"cosmo_sigma_profile": { 
			"-0.025": 0.0,
			"-0.024": 0.0,
			"-0.023": 0.0,
			"-0.022": 0.0,
			"-0.021": 0.0,
			"-0.02": 0.0,
			"-0.019": 0.0,
			"-0.018": 0.0,
			"-0.017": 0.0,
			"-0.016": 0.0,
			"-0.015": 0.0,
			"-0.014": 0.0,
			"-0.013": 0.0,
			"-0.012": 0.0,
			"-0.011": 0.0,
			"-0.01": 0.0,
			"-0.009": 0.40852472825,
			"-0.008": 2.69414006391,
			"-0.007": 10.9900466242,
			"-0.006": 13.7680685939,
			"-0.005": 14.4453162469,
			"-0.004": 15.6027039331,
			"-0.003": 14.8949607259,
			"-0.002": 15.4064037474,
			"-0.001": 16.8305251267,
			"0.0": 21.2978736719,
			"0.001": 22.1234693789,
			"0.002": 14.3326642115,
			"0.003": 8.19992797302,
			"0.004": 4.74622253384,
			"0.005": 4.86319067328,
			"0.006": 6.61520013347,
			"0.007": 12.3495670551,
			"0.008": 7.48629032006,
			"0.009": 3.81155015783,
			"0.01": 0.943710343973,
			"0.011": 1.39803402705,
			"0.012": 1.04439896614,
			"0.013": 0.603168348453,
			"0.014": 0.700757944872,
			"0.015": 0.793057597012,
			"0.016": 0.129518733473,
			"0.017": 0.0,
			"0.018": 0.0,
			"0.019": 0.0,
			"0.02": 0.0,
			"0.021": 0.0,
			"0.022": 0.0,
			"0.023": 0.0,
			"0.024": 0.0,
			"0.025": 0.0
		}
	}
}
