{
	 "smiles": "CCC1=NOC(=N1)C1=CC(Cl)=C(N)C=C1", 
	 "Tm": 363.15, 
	 "num_atms": 25, 
	 "gaussian": { 
		 "optdone": 1, 
		 "sigma_profile": "yes", 
		 "theory": "DFT", 
		 "functional": "B3LYP", 
		 "basiset": "6-31G**", 
		 "properties": { 
			 "R2extent": 6680.6488, 
			 "electric_dipole_moment_norm": 4.3388058795, 
			 "electric_quadrupole_moment_norm": 23.5276075809, 
			 "total_energy": -1086.74723467, 
			 "HOMO_LUMO_gap": 0.16877, 
			 "cosmo_polarized_energy": -12.38, 
			 "cosmo_cavitation_energy": 31.49, 
			 "cosmo_dispersion_energy": -23.39, 
			 "cosmo_repulsion_energy": 1.85, 
			 "cosmo_total_nonelectrostatic_energy": 9.94, 
			 "SMD_solvation_energy": 3.26 
		},
		"coords": [
			{
				"x": 1.0598278884,
				"y": -2.2062617404,
				"z": 2.694114887,
				"element": "C" 
			},
			{
				"x": 1.7605870609,
				"y": -1.8462241106,
				"z": 1.3745806113,
				"element": "C" 
			},
			{
				"x": 0.7997338298,
				"y": -1.3916298963,
				"z": 0.3204876917,
				"element": "C" 
			},
			{
				"x": 0.6623209266,
				"y": -2.0268865679,
				"z": -0.8186442905,
				"element": "N" 
			},
			{
				"x": -0.3274713416,
				"y": -1.2754448592,
				"z": -1.4884393568,
				"element": "O" 
			},
			{
				"x": -0.6713675076,
				"y": -0.2686841604,
				"z": -0.6617162494,
				"element": "C" 
			},
			{
				"x": -0.0109118788,
				"y": -0.2887333148,
				"z": 0.4679076791,
				"element": "N" 
			},
			{
				"x": -1.6848091391,
				"y": 0.6826823003,
				"z": -1.0905487351,
				"element": "C" 
			},
			{
				"x": -2.3083951811,
				"y": 0.5659921153,
				"z": -2.3419717028,
				"element": "C" 
			},
			{
				"x": -3.2716597177,
				"y": 1.4859961671,
				"z": -2.7233976216,
				"element": "C" 
			},
			{
				"x": -4.0490779581,
				"y": 1.3133094433,
				"z": -4.2960029701,
				"element": "Cl" 
			},
			{
				"x": -3.6565624076,
				"y": 2.557579084,
				"z": -1.8870174724,
				"element": "C" 
			},
			{
				"x": -4.5776123904,
				"y": 3.4953975499,
				"z": -2.2878476423,
				"element": "N" 
			},
			{
				"x": -3.0173383349,
				"y": 2.6527389084,
				"z": -0.6318190746,
				"element": "C" 
			},
			{
				"x": -2.0541393198,
				"y": 1.7394552812,
				"z": -0.2409125479,
				"element": "C" 
			},
			{
				"x": 1.7953000675,
				"y": -2.4919292145,
				"z": 3.452070398,
				"element": "H" 
			},
			{
				"x": 0.3704566136,
				"y": -3.0448943309,
				"z": 2.5559388381,
				"element": "H" 
			},
			{
				"x": 0.4874130735,
				"y": -1.3548438422,
				"z": 3.0721337054,
				"element": "H" 
			},
			{
				"x": 2.3186040599,
				"y": -2.7015903754,
				"z": 0.9830085224,
				"element": "H" 
			},
			{
				"x": 2.4807843181,
				"y": -1.0380518686,
				"z": 1.5505325372,
				"element": "H" 
			},
			{
				"x": -2.0434056817,
				"y": -0.2428317173,
				"z": -3.0127426278,
				"element": "H" 
			},
			{
				"x": -5.0068408878,
				"y": 4.0587419513,
				"z": -1.5704037423,
				"element": "H" 
			},
			{
				"x": -5.1739617357,
				"y": 3.2591135393,
				"z": -3.0667440112,
				"element": "H" 
			},
			{
				"x": -3.2920290877,
				"y": 3.4689387144,
				"z": 0.0308667507,
				"element": "H" 
			},
			{
				"x": -1.5728452684,
				"y": 1.8274609439,
				"z": 0.7268664237,
				"element": "H" 
			}
		],
		 "valence_orbital": [ 
			{
				"type": "occ",
				"energy": -0.31105,
				"method": "rhf"
			},
			{
				"type": "occ",
				"energy": -0.28681,
				"method": "rhf"
			},
			{
				"type": "occ",
				"energy": -0.27971,
				"method": "rhf"
			},
			{
				"type": "occ",
				"energy": -0.2608,
				"method": "rhf"
			},
			{
				"type": "occ",
				"energy": -0.21664,
				"method": "rhf"
			},
			{
				"type": "unocc",
				"energy": -0.04787,
				"method": "rhf"
			},
			{
				"type": "unocc",
				"energy": -0.01929,
				"method": "rhf"
			},
			{
				"type": "unocc",
				"energy": 0.0219,
				"method": "rhf"
			},
			{
				"type": "unocc",
				"energy": 0.02443,
				"method": "rhf"
			},
			{
				"type": "unocc",
				"energy": 0.06369,
				"method": "rhf"
			}
		],
		"cosmo_sigma_profile": { 
			"-0.025": 0.0,
			"-0.024": 0.0,
			"-0.023": 0.0,
			"-0.022": 0.0,
			"-0.021": 0.0,
			"-0.02": 0.0,
			"-0.019": 0.0,
			"-0.018": 0.0,
			"-0.017": 0.0,
			"-0.016": 0.0,
			"-0.015": 0.00556073635331,
			"-0.014": 1.2108362492,
			"-0.013": 2.00949754332,
			"-0.012": 2.38323404318,
			"-0.011": 2.67821927416,
			"-0.01": 2.78060004424,
			"-0.009": 2.60297544002,
			"-0.008": 2.31210776277,
			"-0.007": 4.56620984965,
			"-0.006": 6.16762047013,
			"-0.005": 9.9535567486,
			"-0.004": 12.2112855048,
			"-0.003": 16.9425577811,
			"-0.002": 25.0267894992,
			"-0.001": 24.5052157386,
			"0.0": 23.9961248736,
			"0.001": 22.7320014741,
			"0.002": 24.0470692812,
			"0.003": 18.2411026407,
			"0.004": 13.916066065,
			"0.005": 7.81542064005,
			"0.006": 4.99114579089,
			"0.007": 5.37801282121,
			"0.008": 4.08886546586,
			"0.009": 2.78492648439,
			"0.01": 3.50091744475,
			"0.011": 2.07039910667,
			"0.012": 2.27112728482,
			"0.013": 1.60568049719,
			"0.014": 0.65367696424,
			"0.015": 0.0,
			"0.016": 0.0,
			"0.017": 0.0,
			"0.018": 0.0,
			"0.019": 0.0,
			"0.02": 0.0,
			"0.021": 0.0,
			"0.022": 0.0,
			"0.023": 0.0,
			"0.024": 0.0,
			"0.025": 0.0
		}
	}
}
