{
	 "smiles": "NC1=NN=C(Cl)S1", 
	 "Tm": 453.15, 
	 "num_atms": 9, 
	 "gaussian": { 
		 "optdone": 1, 
		 "sigma_profile": "yes", 
		 "theory": "DFT", 
		 "functional": "B3LYP", 
		 "basiset": "6-31G**", 
		 "properties": { 
			 "R2extent": 3824.8942, 
			 "electric_dipole_moment_norm": 4.2976489247, 
			 "electric_quadrupole_moment_norm": 9.20815166958, 
			 "total_energy": -1100.00847053, 
			 "HOMO_LUMO_gap": 0.20785, 
			 "cosmo_polarized_energy": -12.9, 
			 "cosmo_cavitation_energy": 17.29, 
			 "cosmo_dispersion_energy": -13.93, 
			 "cosmo_repulsion_energy": 1.14, 
			 "cosmo_total_nonelectrostatic_energy": 4.5, 
			 "SMD_solvation_energy": 0.75 
		},
		"coords": [
			{
				"x": 1.1561392664,
				"y": -0.8654107998,
				"z": 1.4700851756,
				"element": "N" 
			},
			{
				"x": 1.3541234626,
				"y": -1.7244612732,
				"z": 0.4199587723,
				"element": "C" 
			},
			{
				"x": 2.0512277598,
				"y": -1.4128813532,
				"z": -0.6412571757,
				"element": "N" 
			},
			{
				"x": 2.1885265792,
				"y": -2.4596716269,
				"z": -1.5170329944,
				"element": "N" 
			},
			{
				"x": 1.5898774423,
				"y": -3.5280125656,
				"z": -1.1188739465,
				"element": "C" 
			},
			{
				"x": 1.5537956998,
				"y": -5.0020798476,
				"z": -2.0140173007,
				"element": "Cl" 
			},
			{
				"x": 0.7740674243,
				"y": -3.3917353371,
				"z": 0.4433309808,
				"element": "S" 
			},
			{
				"x": 0.2795052506,
				"y": -0.933976093,
				"z": 1.9667204288,
				"element": "H" 
			},
			{
				"x": 1.4385371151,
				"y": 0.0835288964,
				"z": 1.2575860598,
				"element": "H" 
			}
		],
		 "valence_orbital": [ 
			{
				"type": "occ",
				"energy": -0.33508,
				"method": "rhf"
			},
			{
				"type": "occ",
				"energy": -0.31761,
				"method": "rhf"
			},
			{
				"type": "occ",
				"energy": -0.30084,
				"method": "rhf"
			},
			{
				"type": "occ",
				"energy": -0.27384,
				"method": "rhf"
			},
			{
				"type": "occ",
				"energy": -0.24218,
				"method": "rhf"
			},
			{
				"type": "unocc",
				"energy": -0.03433,
				"method": "rhf"
			},
			{
				"type": "unocc",
				"energy": -0.02291,
				"method": "rhf"
			},
			{
				"type": "unocc",
				"energy": 0.01494,
				"method": "rhf"
			},
			{
				"type": "unocc",
				"energy": 0.03177,
				"method": "rhf"
			},
			{
				"type": "unocc",
				"energy": 0.05943,
				"method": "rhf"
			}
		],
		"cosmo_sigma_profile": { 
			"-0.025": 0.0,
			"-0.024": 0.0,
			"-0.023": 0.0,
			"-0.022": 0.0,
			"-0.021": 0.0,
			"-0.02": 0.0,
			"-0.019": 0.0,
			"-0.018": 0.0,
			"-0.017": 0.0,
			"-0.016": 0.323040493083,
			"-0.015": 2.1403309034,
			"-0.014": 3.37293143418,
			"-0.013": 2.37778896879,
			"-0.012": 2.74681866245,
			"-0.011": 3.15799579475,
			"-0.01": 2.04224931967,
			"-0.009": 0.962615418165,
			"-0.008": 1.90342882251,
			"-0.007": 2.16354203751,
			"-0.006": 1.93382026896,
			"-0.005": 2.09334004799,
			"-0.004": 5.42017496658,
			"-0.003": 9.8512536735,
			"-0.002": 12.0116675336,
			"-0.001": 12.9115467652,
			"0.0": 10.8447262295,
			"0.001": 12.2662847295,
			"0.002": 13.3774451193,
			"0.003": 8.9574677199,
			"0.004": 4.48983323582,
			"0.005": 2.75097549162,
			"0.006": 3.05318020438,
			"0.007": 3.10921750993,
			"0.008": 2.65839848901,
			"0.009": 2.6381471998,
			"0.01": 3.82691404484,
			"0.011": 3.44944441341,
			"0.012": 2.94263372275,
			"0.013": 2.0723841646,
			"0.014": 1.69629149934,
			"0.015": 0.16050967896,
			"0.016": 0.0,
			"0.017": 0.0,
			"0.018": 0.0,
			"0.019": 0.0,
			"0.02": 0.0,
			"0.021": 0.0,
			"0.022": 0.0,
			"0.023": 0.0,
			"0.024": 0.0,
			"0.025": 0.0
		}
	}
}
