{
	 "smiles": "CC1=CC(O)=C(C)C=C1C(C)(C)C", 
	 "Tm": 344.35, 
	 "num_atms": 31, 
	 "gaussian": { 
		 "optdone": 1, 
		 "sigma_profile": "yes", 
		 "theory": "DFT", 
		 "functional": "B3LYP", 
		 "basiset": "6-31G**", 
		 "properties": { 
			 "R2extent": 3390.6218, 
			 "electric_dipole_moment_norm": 1.3686067441, 
			 "electric_quadrupole_moment_norm": 6.89564955244, 
			 "total_energy": -543.364272991, 
			 "HOMO_LUMO_gap": 0.21398, 
			 "cosmo_polarized_energy": -7.45, 
			 "cosmo_cavitation_energy": 30.78, 
			 "cosmo_dispersion_energy": -22.2, 
			 "cosmo_repulsion_energy": 1.73, 
			 "cosmo_total_nonelectrostatic_energy": 10.31, 
			 "SMD_solvation_energy": 5.64 
		},
		"coords": [
			{
				"x": 3.3897209622,
				"y": -0.2388756953,
				"z": -1.1281448957,
				"element": "C" 
			},
			{
				"x": 1.9545021571,
				"y": -0.2631543225,
				"z": -0.6322980022,
				"element": "C" 
			},
			{
				"x": 1.666634052,
				"y": 0.6314879219,
				"z": 0.40459742,
				"element": "C" 
			},
			{
				"x": 0.3914210443,
				"y": 0.7621461736,
				"z": 0.9486571336,
				"element": "C" 
			},
			{
				"x": 0.2293193936,
				"y": 1.6729382401,
				"z": 1.9594648928,
				"element": "O" 
			},
			{
				"x": -0.6558315311,
				"y": -0.0243889208,
				"z": 0.4572251425,
				"element": "C" 
			},
			{
				"x": -2.0496946668,
				"y": 0.0927946693,
				"z": 1.0273628832,
				"element": "C" 
			},
			{
				"x": -0.3582366386,
				"y": -0.9192101789,
				"z": -0.5749233222,
				"element": "C" 
			},
			{
				"x": 0.9117412879,
				"y": -1.0792471124,
				"z": -1.1520160042,
				"element": "C" 
			},
			{
				"x": 1.1077768819,
				"y": -2.135157194,
				"z": -2.2724668941,
				"element": "C" 
			},
			{
				"x": 1.7544334739,
				"y": -1.5166195388,
				"z": -3.5364250418,
				"element": "C" 
			},
			{
				"x": 1.9674240108,
				"y": -3.3139323993,
				"z": -1.7498804479,
				"element": "C" 
			},
			{
				"x": -0.2345189559,
				"y": -2.7462594564,
				"z": -2.7374611186,
				"element": "C" 
			},
			{
				"x": 3.7888814797,
				"y": -1.2254954615,
				"z": -1.3662821723,
				"element": "H" 
			},
			{
				"x": 3.4917249842,
				"y": 0.3782072084,
				"z": -2.0284848886,
				"element": "H" 
			},
			{
				"x": 4.0391554799,
				"y": 0.2001489308,
				"z": -0.365709091,
				"element": "H" 
			},
			{
				"x": 2.4546313173,
				"y": 1.2577231282,
				"z": 0.8125213159,
				"element": "H" 
			},
			{
				"x": -0.6910965603,
				"y": 1.6645401382,
				"z": 2.2497675888,
				"element": "H" 
			},
			{
				"x": -2.0814915919,
				"y": -0.14859065,
				"z": 2.0991872168,
				"element": "H" 
			},
			{
				"x": -2.7352603097,
				"y": -0.594486702,
				"z": 0.5256261384,
				"element": "H" 
			},
			{
				"x": -2.4637492332,
				"y": 1.1037238803,
				"z": 0.9067295115,
				"element": "H" 
			},
			{
				"x": -1.1836958899,
				"y": -1.5193285552,
				"z": -0.9375297023,
				"element": "H" 
			},
			{
				"x": 2.7762154088,
				"y": -1.1748832837,
				"z": -3.3734959094,
				"element": "H" 
			},
			{
				"x": 1.1668866479,
				"y": -0.6639730321,
				"z": -3.8933910136,
				"element": "H" 
			},
			{
				"x": 1.7863952766,
				"y": -2.2611691094,
				"z": -4.3400208379,
				"element": "H" 
			},
			{
				"x": 1.475348056,
				"y": -3.7981286653,
				"z": -0.9000634806,
				"element": "H" 
			},
			{
				"x": 2.960747863,
				"y": -3.0030332072,
				"z": -1.4198728925,
				"element": "H" 
			},
			{
				"x": 2.1012348499,
				"y": -4.0658887553,
				"z": -2.5365692421,
				"element": "H" 
			},
			{
				"x": -0.7422567777,
				"y": -3.2943578941,
				"z": -1.9377982892,
				"element": "H" 
			},
			{
				"x": -0.9200612078,
				"y": -1.9845821667,
				"z": -3.1232532591,
				"element": "H" 
			},
			{
				"x": -0.0433012642,
				"y": -3.4592479901,
				"z": -3.5458527381,
				"element": "H" 
			}
		],
		 "valence_orbital": [ 
			{
				"type": "occ",
				"energy": -0.31167,
				"method": "rhf"
			},
			{
				"type": "occ",
				"energy": -0.30815,
				"method": "rhf"
			},
			{
				"type": "occ",
				"energy": -0.30546,
				"method": "rhf"
			},
			{
				"type": "occ",
				"energy": -0.23013,
				"method": "rhf"
			},
			{
				"type": "occ",
				"energy": -0.20494,
				"method": "rhf"
			},
			{
				"type": "unocc",
				"energy": 0.00904,
				"method": "rhf"
			},
			{
				"type": "unocc",
				"energy": 0.02012,
				"method": "rhf"
			},
			{
				"type": "unocc",
				"energy": 0.0682,
				"method": "rhf"
			},
			{
				"type": "unocc",
				"energy": 0.08833,
				"method": "rhf"
			},
			{
				"type": "unocc",
				"energy": 0.11442,
				"method": "rhf"
			}
		],
		"cosmo_sigma_profile": { 
			"-0.025": 0.0,
			"-0.024": 0.0,
			"-0.023": 0.0,
			"-0.022": 0.0,
			"-0.021": 0.0,
			"-0.02": 0.0,
			"-0.019": 0.0,
			"-0.018": 0.0,
			"-0.017": 0.0,
			"-0.016": 0.131422635177,
			"-0.015": 0.698203058273,
			"-0.014": 1.18931351495,
			"-0.013": 0.516122190496,
			"-0.012": 1.21170112652,
			"-0.011": 0.970680792548,
			"-0.01": 1.36889975784,
			"-0.009": 1.00546208525,
			"-0.008": 1.41493920102,
			"-0.007": 1.23148104535,
			"-0.006": 1.58379430779,
			"-0.005": 5.8806987192,
			"-0.004": 13.6896215168,
			"-0.003": 20.4719735052,
			"-0.002": 32.8231797851,
			"-0.001": 27.5128255565,
			"0.0": 31.6786037332,
			"0.001": 30.2862033449,
			"0.002": 17.9699067745,
			"0.003": 7.84516413703,
			"0.004": 7.73331804529,
			"0.005": 8.9643330704,
			"0.006": 8.36086780604,
			"0.007": 6.75039246053,
			"0.008": 2.33614298365,
			"0.009": 1.11369152284,
			"0.01": 0.954854790583,
			"0.011": 2.07543209446,
			"0.012": 1.87552742249,
			"0.013": 0.0438280770739,
			"0.014": 0.0,
			"0.015": 0.0,
			"0.016": 0.0,
			"0.017": 0.0,
			"0.018": 0.0,
			"0.019": 0.0,
			"0.02": 0.0,
			"0.021": 0.0,
			"0.022": 0.0,
			"0.023": 0.0,
			"0.024": 0.0,
			"0.025": 0.0
		}
	}
}
