{
	 "smiles": "OC(=O)C1=CC(=CC(=C1)N1CCCC1=O)C(F)(F)F", 
	 "Tm": 462.15, 
	 "num_atms": 29, 
	 "gaussian": { 
		 "optdone": 1, 
		 "sigma_profile": "yes", 
		 "theory": "DFT", 
		 "functional": "B3LYP", 
		 "basiset": "6-31G**", 
		 "properties": { 
			 "R2extent": 6738.3891, 
			 "electric_dipole_moment_norm": 6.9597423925, 
			 "electric_quadrupole_moment_norm": 6.46686939639, 
			 "total_energy": -1043.29539143, 
			 "HOMO_LUMO_gap": 0.17722, 
			 "cosmo_polarized_energy": -15.53, 
			 "cosmo_cavitation_energy": 34.68, 
			 "cosmo_dispersion_energy": -24.63, 
			 "cosmo_repulsion_energy": 1.84, 
			 "cosmo_total_nonelectrostatic_energy": 11.89, 
			 "SMD_solvation_energy": 8.19 
		},
		"coords": [
			{
				"x": 3.7578778351,
				"y": -2.3115314831,
				"z": -0.0094536486,
				"element": "O" 
			},
			{
				"x": 3.3372784187,
				"y": -2.1514710157,
				"z": 1.271432107,
				"element": "C" 
			},
			{
				"x": 4.0296130871,
				"y": -2.4558206556,
				"z": 2.2210250557,
				"element": "O" 
			},
			{
				"x": 1.9679193186,
				"y": -1.5755469829,
				"z": 1.368846317,
				"element": "C" 
			},
			{
				"x": 1.4362254886,
				"y": -1.3705243875,
				"z": 2.6435858263,
				"element": "C" 
			},
			{
				"x": 0.1559988268,
				"y": -0.833096384,
				"z": 2.7562050341,
				"element": "C" 
			},
			{
				"x": -0.5979718025,
				"y": -0.5051819359,
				"z": 1.6298096635,
				"element": "C" 
			},
			{
				"x": -0.0633499241,
				"y": -0.7124550747,
				"z": 0.3442716575,
				"element": "C" 
			},
			{
				"x": 1.2287206722,
				"y": -1.2482215076,
				"z": 0.226996037,
				"element": "C" 
			},
			{
				"x": -0.7988194613,
				"y": -0.4106234595,
				"z": -0.8210613391,
				"element": "N" 
			},
			{
				"x": -0.3096105916,
				"y": -0.7833675866,
				"z": -2.155931343,
				"element": "C" 
			},
			{
				"x": -1.5174377952,
				"y": -0.5333072161,
				"z": -3.0765297317,
				"element": "C" 
			},
			{
				"x": -2.2976712331,
				"y": 0.5697272781,
				"z": -2.3550542757,
				"element": "C" 
			},
			{
				"x": -1.9456561137,
				"y": 0.3821297461,
				"z": -0.8830017009,
				"element": "C" 
			},
			{
				"x": -2.5473600037,
				"y": 0.8583613103,
				"z": 0.0629089112,
				"element": "O" 
			},
			{
				"x": -0.4142831717,
				"y": -0.5476547277,
				"z": 4.1231123573,
				"element": "C" 
			},
			{
				"x": -1.7592789929,
				"y": -0.6594222843,
				"z": 4.1416311816,
				"element": "F" 
			},
			{
				"x": 0.078387827,
				"y": -1.391637268,
				"z": 5.0557411446,
				"element": "F" 
			},
			{
				"x": -0.1157100591,
				"y": 0.7074010513,
				"z": 4.5289826117,
				"element": "F" 
			},
			{
				"x": 4.6516957308,
				"y": -2.6866702847,
				"z": 0.0521391628,
				"element": "H" 
			},
			{
				"x": 2.0210818512,
				"y": -1.6366985752,
				"z": 3.5153983804,
				"element": "H" 
			},
			{
				"x": -1.5891765159,
				"y": -0.0890680724,
				"z": 1.7337601855,
				"element": "H" 
			},
			{
				"x": 1.678980377,
				"y": -1.4129906432,
				"z": -0.7421026622,
				"element": "H" 
			},
			{
				"x": 0.5523065253,
				"y": -0.1618997399,
				"z": -2.4362876028,
				"element": "H" 
			},
			{
				"x": 0.0121514535,
				"y": -1.8287014043,
				"z": -2.1664457942,
				"element": "H" 
			},
			{
				"x": -1.2076902181,
				"y": -0.2642585135,
				"z": -4.0887056831,
				"element": "H" 
			},
			{
				"x": -2.1238156749,
				"y": -1.441974277,
				"z": -3.1419409836,
				"element": "H" 
			},
			{
				"x": -3.3801781368,
				"y": 0.5303821508,
				"z": -2.49022564,
				"element": "H" 
			},
			{
				"x": -1.9659277174,
				"y": 1.572521943,
				"z": -2.6525052281,
				"element": "H" 
			}
		],
		 "valence_orbital": [ 
			{
				"type": "occ",
				"energy": -0.31236,
				"method": "rhf"
			},
			{
				"type": "occ",
				"energy": -0.28679,
				"method": "rhf"
			},
			{
				"type": "occ",
				"energy": -0.27728,
				"method": "rhf"
			},
			{
				"type": "occ",
				"energy": -0.26312,
				"method": "rhf"
			},
			{
				"type": "occ",
				"energy": -0.23788,
				"method": "rhf"
			},
			{
				"type": "unocc",
				"energy": -0.06066,
				"method": "rhf"
			},
			{
				"type": "unocc",
				"energy": -0.03447,
				"method": "rhf"
			},
			{
				"type": "unocc",
				"energy": 0.01119,
				"method": "rhf"
			},
			{
				"type": "unocc",
				"energy": 0.0537,
				"method": "rhf"
			},
			{
				"type": "unocc",
				"energy": 0.06782,
				"method": "rhf"
			}
		],
		"cosmo_sigma_profile": { 
			"-0.025": 0.0,
			"-0.024": 0.0,
			"-0.023": 0.0,
			"-0.022": 0.0,
			"-0.021": 0.0,
			"-0.02": 0.0,
			"-0.019": 0.330177921041,
			"-0.018": 0.774600795731,
			"-0.017": 1.09695599795,
			"-0.016": 0.866656535197,
			"-0.015": 0.319923215996,
			"-0.014": 0.92947712871,
			"-0.013": 0.503507820218,
			"-0.012": 0.623575889258,
			"-0.011": 0.882092994333,
			"-0.01": 0.271787859494,
			"-0.009": 0.708148734444,
			"-0.008": 1.30020760503,
			"-0.007": 4.56062248488,
			"-0.006": 12.2183118173,
			"-0.005": 19.9827821722,
			"-0.004": 23.1190284828,
			"-0.003": 19.4261532681,
			"-0.002": 19.2543166076,
			"-0.001": 21.0755269129,
			"0.0": 23.162949011,
			"0.001": 27.4353624233,
			"0.002": 27.1659535351,
			"0.003": 28.2730878989,
			"0.004": 4.94178478535,
			"0.005": 4.04833844069,
			"0.006": 5.05606820679,
			"0.007": 4.60387835516,
			"0.008": 2.04890463299,
			"0.009": 2.66621750589,
			"0.01": 4.45470451916,
			"0.011": 7.36018406655,
			"0.012": 4.53839558844,
			"0.013": 2.16024852642,
			"0.014": 0.567110882914,
			"0.015": 0.0,
			"0.016": 0.0,
			"0.017": 0.0,
			"0.018": 0.0,
			"0.019": 0.0,
			"0.02": 0.0,
			"0.021": 0.0,
			"0.022": 0.0,
			"0.023": 0.0,
			"0.024": 0.0,
			"0.025": 0.0
		}
	}
}
