{
	 "smiles": "CCC1=CC=C(C=C1)C#CC1=CC=C(OC)C=C1", 
	 "Tm": 308.15, 
	 "num_atms": 34, 
	 "gaussian": { 
		 "optdone": 1, 
		 "sigma_profile": "yes", 
		 "theory": "DFT", 
		 "functional": "B3LYP", 
		 "basiset": "6-31G**", 
		 "properties": { 
			 "R2extent": 9983.9172, 
			 "electric_dipole_moment_norm": 1.40881019658, 
			 "electric_quadrupole_moment_norm": 19.4309904446, 
			 "total_energy": -732.625954442, 
			 "HOMO_LUMO_gap": 0.15668, 
			 "cosmo_polarized_energy": -8.69, 
			 "cosmo_cavitation_energy": 39.37, 
			 "cosmo_dispersion_energy": -28.01, 
			 "cosmo_repulsion_energy": 2.19, 
			 "cosmo_total_nonelectrostatic_energy": 13.55, 
			 "SMD_solvation_energy": 7.41 
		},
		"coords": [
			{
				"x": -4.6687187147,
				"y": 4.9480367181,
				"z": 0.3992590152,
				"element": "C" 
			},
			{
				"x": -5.0156076736,
				"y": 3.4597255701,
				"z": 0.5886055954,
				"element": "C" 
			},
			{
				"x": -3.8186980261,
				"y": 2.5501041434,
				"z": 0.415053834,
				"element": "C" 
			},
			{
				"x": -3.4750923387,
				"y": 2.0404108056,
				"z": -0.8455557275,
				"element": "C" 
			},
			{
				"x": -2.3544080751,
				"y": 1.2352603397,
				"z": -1.0200130255,
				"element": "C" 
			},
			{
				"x": -1.5296751187,
				"y": 0.9084467608,
				"z": 0.0753706987,
				"element": "C" 
			},
			{
				"x": -1.8731715351,
				"y": 1.4170390653,
				"z": 1.3442832919,
				"element": "C" 
			},
			{
				"x": -2.9970882034,
				"y": 2.2209908175,
				"z": 1.5029622413,
				"element": "C" 
			},
			{
				"x": -0.3826418555,
				"y": 0.0816869674,
				"z": -0.0943469817,
				"element": "C" 
			},
			{
				"x": 0.5980690009,
				"y": -0.6241904834,
				"z": -0.2400182386,
				"element": "C" 
			},
			{
				"x": 1.7454625484,
				"y": -1.4498080054,
				"z": -0.4068250453,
				"element": "C" 
			},
			{
				"x": 2.5699538391,
				"y": -1.7784472963,
				"z": 0.6929161659,
				"element": "C" 
			},
			{
				"x": 3.6863291293,
				"y": -2.5820150588,
				"z": 0.5308744254,
				"element": "C" 
			},
			{
				"x": 4.0190619264,
				"y": -3.0864093155,
				"z": -0.7370484647,
				"element": "C" 
			},
			{
				"x": 5.1357129334,
				"y": -3.8662753891,
				"z": -0.7880968758,
				"element": "O" 
			},
			{
				"x": 5.5237691829,
				"y": -4.4066119543,
				"z": -2.041649814,
				"element": "C" 
			},
			{
				"x": 3.2144416225,
				"y": -2.7720062552,
				"z": -1.8400814238,
				"element": "C" 
			},
			{
				"x": 2.0925600212,
				"y": -1.9627309842,
				"z": -1.6693012947,
				"element": "C" 
			},
			{
				"x": -3.9128679187,
				"y": 5.2694579562,
				"z": 1.1231309148,
				"element": "H" 
			},
			{
				"x": -5.5554498845,
				"y": 5.577055393,
				"z": 0.5312230347,
				"element": "H" 
			},
			{
				"x": -4.2668740129,
				"y": 5.1324466229,
				"z": -0.6023133651,
				"element": "H" 
			},
			{
				"x": -5.4436630236,
				"y": 3.3141852564,
				"z": 1.5877089681,
				"element": "H" 
			},
			{
				"x": -5.7960400528,
				"y": 3.1780465893,
				"z": -0.1285139678,
				"element": "H" 
			},
			{
				"x": -4.099952715,
				"y": 2.2759791308,
				"z": -1.7040369114,
				"element": "H" 
			},
			{
				"x": -2.1066177656,
				"y": 0.8465859418,
				"z": -2.0026978988,
				"element": "H" 
			},
			{
				"x": -1.2514149084,
				"y": 1.1696616665,
				"z": 2.1988790506,
				"element": "H" 
			},
			{
				"x": -3.2458070801,
				"y": 2.5986040381,
				"z": 2.4921309048,
				"element": "H" 
			},
			{
				"x": 2.3188095965,
				"y": -1.3923023029,
				"z": 1.6755109016,
				"element": "H" 
			},
			{
				"x": 4.3226826825,
				"y": -2.8374638947,
				"z": 1.371794813,
				"element": "H" 
			},
			{
				"x": 4.7503317944,
				"y": -5.0665902625,
				"z": -2.4550749094,
				"element": "H" 
			},
			{
				"x": 6.4273431437,
				"y": -4.9879607414,
				"z": -1.8522634186,
				"element": "H" 
			},
			{
				"x": 5.7488186249,
				"y": -3.6175666123,
				"z": -2.7706679462,
				"element": "H" 
			},
			{
				"x": 3.4498614383,
				"y": -3.1486001254,
				"z": -2.8283493746,
				"element": "H" 
			},
			{
				"x": 1.4715814179,
				"y": -1.7213451012,
				"z": -2.5260491719,
				"element": "H" 
			}
		],
		 "valence_orbital": [ 
			{
				"type": "occ",
				"energy": -0.25771,
				"method": "rhf"
			},
			{
				"type": "occ",
				"energy": -0.25473,
				"method": "rhf"
			},
			{
				"type": "occ",
				"energy": -0.24891,
				"method": "rhf"
			},
			{
				"type": "occ",
				"energy": -0.24339,
				"method": "rhf"
			},
			{
				"type": "occ",
				"energy": -0.19323,
				"method": "rhf"
			},
			{
				"type": "unocc",
				"energy": -0.03655,
				"method": "rhf"
			},
			{
				"type": "unocc",
				"energy": -0.00258,
				"method": "rhf"
			},
			{
				"type": "unocc",
				"energy": 0.00147,
				"method": "rhf"
			},
			{
				"type": "unocc",
				"energy": 0.01944,
				"method": "rhf"
			},
			{
				"type": "unocc",
				"energy": 0.06103,
				"method": "rhf"
			}
		],
		"cosmo_sigma_profile": { 
			"-0.025": 0.0,
			"-0.024": 0.0,
			"-0.023": 0.0,
			"-0.022": 0.0,
			"-0.021": 0.0,
			"-0.02": 0.0,
			"-0.019": 0.0,
			"-0.018": 0.0,
			"-0.017": 0.0,
			"-0.016": 0.0,
			"-0.015": 0.0,
			"-0.014": 0.0,
			"-0.013": 0.0,
			"-0.012": 0.0,
			"-0.011": 0.0,
			"-0.01": 0.0,
			"-0.009": 0.0,
			"-0.008": 0.0,
			"-0.007": 1.82549782892,
			"-0.006": 15.1306641189,
			"-0.005": 24.1627620103,
			"-0.004": 26.2130252929,
			"-0.003": 31.39489314,
			"-0.002": 25.5809819396,
			"-0.001": 24.1710821391,
			"0.0": 25.0834707587,
			"0.001": 24.041212268,
			"0.002": 18.9339401315,
			"0.003": 24.5822066214,
			"0.004": 34.6931972857,
			"0.005": 23.0370020201,
			"0.006": 8.40779336092,
			"0.007": 2.81456971714,
			"0.008": 1.32909286446,
			"0.009": 1.28478250777,
			"0.01": 1.37832071891,
			"0.011": 0.106192092691,
			"0.012": 0.0,
			"0.013": 0.0,
			"0.014": 0.0,
			"0.015": 0.0,
			"0.016": 0.0,
			"0.017": 0.0,
			"0.018": 0.0,
			"0.019": 0.0,
			"0.02": 0.0,
			"0.021": 0.0,
			"0.022": 0.0,
			"0.023": 0.0,
			"0.024": 0.0,
			"0.025": 0.0
		}
	}
}
