{
	 "smiles": "S=C(N1CCCCC1)C1=CC=C2OCOC2=C1", 
	 "Tm": 386.15, 
	 "num_atms": 32, 
	 "gaussian": { 
		 "optdone": 1, 
		 "sigma_profile": "yes", 
		 "theory": "DFT", 
		 "functional": "B3LYP", 
		 "basiset": "6-31G**", 
		 "properties": { 
			 "R2extent": 6218.6511, 
			 "electric_dipole_moment_norm": 4.87425898984, 
			 "electric_quadrupole_moment_norm": 24.4202874365, 
			 "total_energy": -1107.78922413, 
			 "HOMO_LUMO_gap": 0.1521, 
			 "cosmo_polarized_energy": -15.06, 
			 "cosmo_cavitation_energy": 35.04, 
			 "cosmo_dispersion_energy": -26.13, 
			 "cosmo_repulsion_energy": 2.0, 
			 "cosmo_total_nonelectrostatic_energy": 10.9, 
			 "SMD_solvation_energy": 4.37 
		},
		"coords": [
			{
				"x": 0.7294519883,
				"y": -3.2172886941,
				"z": 0.8934218833,
				"element": "S" 
			},
			{
				"x": 0.4278543705,
				"y": -1.7598349394,
				"z": 0.1135453199,
				"element": "C" 
			},
			{
				"x": -0.8152167004,
				"y": -1.370649454,
				"z": -0.2650320822,
				"element": "N" 
			},
			{
				"x": -1.1713459829,
				"y": 0.0250388633,
				"z": -0.6017239165,
				"element": "C" 
			},
			{
				"x": -2.45082611,
				"y": 0.439415311,
				"z": 0.1340746801,
				"element": "C" 
			},
			{
				"x": -3.6600427817,
				"y": -0.4302351225,
				"z": -0.2830747595,
				"element": "C" 
			},
			{
				"x": -3.1895416471,
				"y": -1.7929083636,
				"z": -0.8302669805,
				"element": "C" 
			},
			{
				"x": -1.9465290396,
				"y": -2.3055595916,
				"z": -0.1025008204,
				"element": "C" 
			},
			{
				"x": 1.5716361356,
				"y": -0.8609358786,
				"z": -0.231740791,
				"element": "C" 
			},
			{
				"x": 1.7521636309,
				"y": -0.4162161369,
				"z": -1.5501918973,
				"element": "C" 
			},
			{
				"x": 2.8672407683,
				"y": 0.3503494137,
				"z": -1.92989375,
				"element": "C" 
			},
			{
				"x": 3.7747976282,
				"y": 0.6626409577,
				"z": -0.9372515059,
				"element": "C" 
			},
			{
				"x": 4.9185232712,
				"y": 1.4133036412,
				"z": -1.0306321969,
				"element": "O" 
			},
			{
				"x": 5.5583363185,
				"y": 1.304802521,
				"z": 0.2489012133,
				"element": "C" 
			},
			{
				"x": 4.6317963273,
				"y": 0.700618459,
				"z": 1.1557035936,
				"element": "O" 
			},
			{
				"x": 3.6014635043,
				"y": 0.2281286785,
				"z": 0.3771847017,
				"element": "C" 
			},
			{
				"x": 2.5261006595,
				"y": -0.5405174767,
				"z": 0.7622558382,
				"element": "C" 
			},
			{
				"x": -0.3408033335,
				"y": 0.6697143998,
				"z": -0.3191237819,
				"element": "H" 
			},
			{
				"x": -1.3091181805,
				"y": 0.1311447917,
				"z": -1.6862106504,
				"element": "H" 
			},
			{
				"x": -2.6418537631,
				"y": 1.4998081295,
				"z": -0.0625827223,
				"element": "H" 
			},
			{
				"x": -2.2688929764,
				"y": 0.3490107776,
				"z": 1.2109773881,
				"element": "H" 
			},
			{
				"x": -4.3185712207,
				"y": -0.5786095435,
				"z": 0.579639415,
				"element": "H" 
			},
			{
				"x": -4.2577317394,
				"y": 0.0824568116,
				"z": -1.0446734369,
				"element": "H" 
			},
			{
				"x": -3.9812730079,
				"y": -2.5431333004,
				"z": -0.736796172,
				"element": "H" 
			},
			{
				"x": -2.9671891544,
				"y": -1.7141988525,
				"z": -1.9013647614,
				"element": "H" 
			},
			{
				"x": -1.6313194156,
				"y": -3.2802509013,
				"z": -0.4836595047,
				"element": "H" 
			},
			{
				"x": -2.1470620776,
				"y": -2.4503603679,
				"z": 0.9678845648,
				"element": "H" 
			},
			{
				"x": 1.0294162876,
				"y": -0.6998118997,
				"z": -2.3081040389,
				"element": "H" 
			},
			{
				"x": 3.0134678161,
				"y": 0.6765681584,
				"z": -2.9532533571,
				"element": "H" 
			},
			{
				"x": 6.4521535864,
				"y": 0.6715054784,
				"z": 0.1568752485,
				"element": "H" 
			},
			{
				"x": 5.8235111875,
				"y": 2.3039137711,
				"z": 0.6077640196,
				"element": "H" 
			},
			{
				"x": 2.4125036505,
				"y": -0.903409641,
				"z": 1.7761492599,
				"element": "H" 
			}
		],
		 "valence_orbital": [ 
			{
				"type": "occ",
				"energy": -0.29802,
				"method": "rhf"
			},
			{
				"type": "occ",
				"energy": -0.25243,
				"method": "rhf"
			},
			{
				"type": "occ",
				"energy": -0.21857,
				"method": "rhf"
			},
			{
				"type": "occ",
				"energy": -0.20941,
				"method": "rhf"
			},
			{
				"type": "occ",
				"energy": -0.18989,
				"method": "rhf"
			},
			{
				"type": "unocc",
				"energy": -0.03779,
				"method": "rhf"
			},
			{
				"type": "unocc",
				"energy": -0.00254,
				"method": "rhf"
			},
			{
				"type": "unocc",
				"energy": 0.02188,
				"method": "rhf"
			},
			{
				"type": "unocc",
				"energy": 0.06674,
				"method": "rhf"
			},
			{
				"type": "unocc",
				"energy": 0.08937,
				"method": "rhf"
			}
		],
		"cosmo_sigma_profile": { 
			"-0.025": 0.0,
			"-0.024": 0.0,
			"-0.023": 0.0,
			"-0.022": 0.0,
			"-0.021": 0.0,
			"-0.02": 0.0,
			"-0.019": 0.0,
			"-0.018": 0.0,
			"-0.017": 0.0,
			"-0.016": 0.0,
			"-0.015": 0.0,
			"-0.014": 0.0,
			"-0.013": 0.0,
			"-0.012": 0.0,
			"-0.011": 0.0,
			"-0.01": 0.0,
			"-0.009": 0.218865940669,
			"-0.008": 3.59541870117,
			"-0.007": 10.0463597207,
			"-0.006": 11.1020729079,
			"-0.005": 16.5933636799,
			"-0.004": 24.9771667747,
			"-0.003": 36.6911034514,
			"-0.002": 31.653818263,
			"-0.001": 22.7958004055,
			"0.0": 19.8159260252,
			"0.001": 13.444597977,
			"0.002": 15.5264453526,
			"0.003": 10.6450465655,
			"0.004": 8.63024734338,
			"0.005": 7.41831928179,
			"0.006": 6.46494458819,
			"0.007": 6.45287768046,
			"0.008": 8.84292353936,
			"0.009": 9.70267675078,
			"0.01": 7.07956781368,
			"0.011": 4.04652211782,
			"0.012": 2.04233538156,
			"0.013": 1.16503885017,
			"0.014": 0.0870621234651,
			"0.015": 0.0,
			"0.016": 0.0,
			"0.017": 0.0,
			"0.018": 0.0,
			"0.019": 0.0,
			"0.02": 0.0,
			"0.021": 0.0,
			"0.022": 0.0,
			"0.023": 0.0,
			"0.024": 0.0,
			"0.025": 0.0
		}
	}
}
