{
	 "smiles": "COC(=O)C1=NNC2=C1C=C(N)C=C2", 
	 "Tm": 455.15, 
	 "num_atms": 23, 
	 "gaussian": { 
		 "optdone": 1, 
		 "sigma_profile": "yes", 
		 "theory": "DFT", 
		 "functional": "B3LYP", 
		 "basiset": "6-31G**", 
		 "properties": { 
			 "R2extent": 3448.1121, 
			 "electric_dipole_moment_norm": 2.95420255568, 
			 "electric_quadrupole_moment_norm": 12.7165997924, 
			 "total_energy": -663.079980885, 
			 "HOMO_LUMO_gap": 0.15597, 
			 "cosmo_polarized_energy": -18.67, 
			 "cosmo_cavitation_energy": 27.86, 
			 "cosmo_dispersion_energy": -20.84, 
			 "cosmo_repulsion_energy": 1.65, 
			 "cosmo_total_nonelectrostatic_energy": 8.67, 
			 "SMD_solvation_energy": 5.18 
		},
		"coords": [
			{
				"x": -1.344804084,
				"y": -3.4894703085,
				"z": -3.6382322019,
				"element": "C" 
			},
			{
				"x": -0.8111345924,
				"y": -3.2630449783,
				"z": -2.32635556,
				"element": "O" 
			},
			{
				"x": -0.9219266679,
				"y": -1.9962478465,
				"z": -1.8780335302,
				"element": "C" 
			},
			{
				"x": -1.4330137826,
				"y": -1.095173574,
				"z": -2.5221257727,
				"element": "O" 
			},
			{
				"x": -0.36305839,
				"y": -1.8050147079,
				"z": -0.5300395945,
				"element": "C" 
			},
			{
				"x": 0.2063599368,
				"y": -2.7903835126,
				"z": 0.1647849212,
				"element": "N" 
			},
			{
				"x": 0.5928279094,
				"y": -2.2415085632,
				"z": 1.3268675667,
				"element": "N" 
			},
			{
				"x": 0.288846932,
				"y": -0.9019275516,
				"z": 1.4197155028,
				"element": "C" 
			},
			{
				"x": -0.3495838779,
				"y": -0.5709083191,
				"z": 0.2036324784,
				"element": "C" 
			},
			{
				"x": -0.7896624096,
				"y": 0.7409796775,
				"z": -0.033416207,
				"element": "C" 
			},
			{
				"x": -0.587154898,
				"y": 1.699902411,
				"z": 0.9579116768,
				"element": "C" 
			},
			{
				"x": -1.0617729914,
				"y": 3.0083815556,
				"z": 0.8062348975,
				"element": "N" 
			},
			{
				"x": 0.0577242368,
				"y": 1.3393356497,
				"z": 2.1767037574,
				"element": "C" 
			},
			{
				"x": 0.5025904162,
				"y": 0.0528405481,
				"z": 2.4239961614,
				"element": "C" 
			},
			{
				"x": -2.4128650691,
				"y": -3.2579788831,
				"z": -3.6681700154,
				"element": "H" 
			},
			{
				"x": -1.177125518,
				"y": -4.5468368969,
				"z": -3.8433044025,
				"element": "H" 
			},
			{
				"x": -0.8318990553,
				"y": -2.8695704565,
				"z": -4.378473616,
				"element": "H" 
			},
			{
				"x": 1.0510871582,
				"y": -2.8257339788,
				"z": 2.0085463062,
				"element": "H" 
			},
			{
				"x": -1.2765509792,
				"y": 0.9854875944,
				"z": -0.9710308178,
				"element": "H" 
			},
			{
				"x": -1.2380823988,
				"y": 3.2814951232,
				"z": -0.1511762276,
				"element": "H" 
			},
			{
				"x": -0.5323214134,
				"y": 3.7139992366,
				"z": 1.3001356283,
				"element": "H" 
			},
			{
				"x": 0.194691945,
				"y": 2.1043219101,
				"z": 2.936820483,
				"element": "H" 
			},
			{
				"x": 0.9935275932,
				"y": -0.1965441294,
				"z": 3.359608566,
				"element": "H" 
			}
		],
		 "valence_orbital": [ 
			{
				"type": "occ",
				"energy": -0.29116,
				"method": "rhf"
			},
			{
				"type": "occ",
				"energy": -0.28099,
				"method": "rhf"
			},
			{
				"type": "occ",
				"energy": -0.26501,
				"method": "rhf"
			},
			{
				"type": "occ",
				"energy": -0.2325,
				"method": "rhf"
			},
			{
				"type": "occ",
				"energy": -0.1962,
				"method": "rhf"
			},
			{
				"type": "unocc",
				"energy": -0.04023,
				"method": "rhf"
			},
			{
				"type": "unocc",
				"energy": 0.00252,
				"method": "rhf"
			},
			{
				"type": "unocc",
				"energy": 0.03083,
				"method": "rhf"
			},
			{
				"type": "unocc",
				"energy": 0.07848,
				"method": "rhf"
			},
			{
				"type": "unocc",
				"energy": 0.0857,
				"method": "rhf"
			}
		],
		"cosmo_sigma_profile": { 
			"-0.025": 0.0,
			"-0.024": 0.0,
			"-0.023": 0.0,
			"-0.022": 0.0,
			"-0.021": 0.0,
			"-0.02": 0.0,
			"-0.019": 0.0,
			"-0.018": 0.0,
			"-0.017": 0.959458417477,
			"-0.016": 1.9249826275,
			"-0.015": 1.23337471073,
			"-0.014": 1.00908937497,
			"-0.013": 1.52676849258,
			"-0.012": 3.51811053258,
			"-0.011": 3.89537233472,
			"-0.01": 4.03345402606,
			"-0.009": 4.3587959344,
			"-0.008": 4.22601579474,
			"-0.007": 6.92996520122,
			"-0.006": 11.1008626044,
			"-0.005": 11.6745671026,
			"-0.004": 13.5002724944,
			"-0.003": 14.8992797993,
			"-0.002": 10.5087673344,
			"-0.001": 9.08294304695,
			"0.0": 8.82143150935,
			"0.001": 13.0491791201,
			"0.002": 13.2775362305,
			"0.003": 13.5816665178,
			"0.004": 15.5394898235,
			"0.005": 13.1636535153,
			"0.006": 5.91686063448,
			"0.007": 5.2071578317,
			"0.008": 4.87421498389,
			"0.009": 3.31682164824,
			"0.01": 4.36277832983,
			"0.011": 5.20186320125,
			"0.012": 4.80299554313,
			"0.013": 3.16896201598,
			"0.014": 1.92038723119,
			"0.015": 1.4411218263,
			"0.016": 0.072075223532,
			"0.017": 0.0,
			"0.018": 0.0,
			"0.019": 0.0,
			"0.02": 0.0,
			"0.021": 0.0,
			"0.022": 0.0,
			"0.023": 0.0,
			"0.024": 0.0,
			"0.025": 0.0
		}
	}
}
