{
	 "smiles": "NC(=O)C(Br)(Br)C(N)=O", 
	 "Tm": 478.15, 
	 "num_atms": 13, 
	 "gaussian": { 
		 "optdone": 1, 
		 "sigma_profile": "yes", 
		 "theory": "DFT", 
		 "functional": "B3LYP", 
		 "basiset": "6-31G**", 
		 "properties": { 
			 "R2extent": 2786.0538, 
			 "electric_dipole_moment_norm": 3.43960154814, 
			 "electric_quadrupole_moment_norm": 18.5860863476, 
			 "total_energy": -5519.50395259, 
			 "HOMO_LUMO_gap": 0.19347, 
			 "cosmo_polarized_energy": -15.45, 
			 "cosmo_cavitation_energy": 21.66, 
			 "cosmo_dispersion_energy": -16.82, 
			 "cosmo_repulsion_energy": 1.4, 
			 "cosmo_total_nonelectrostatic_energy": 6.24, 
			 "SMD_solvation_energy": 3.12 
		},
		"coords": [
			{
				"x": 0.1485403696,
				"y": -0.0959150293,
				"z": -3.1039431319,
				"element": "N" 
			},
			{
				"x": 0.0189226287,
				"y": -0.401064097,
				"z": -1.7993515306,
				"element": "C" 
			},
			{
				"x": -0.7595517639,
				"y": -1.2579879211,
				"z": -1.3900832352,
				"element": "O" 
			},
			{
				"x": 0.870911382,
				"y": 0.4224035995,
				"z": -0.7890588255,
				"element": "C" 
			},
			{
				"x": 2.405299946,
				"y": 1.3159195927,
				"z": -1.6331561932,
				"element": "Br" 
			},
			{
				"x": -0.3772711909,
				"y": 1.8111136684,
				"z": -0.0931082997,
				"element": "Br" 
			},
			{
				"x": 1.4090720258,
				"y": -0.3635232362,
				"z": 0.4680043782,
				"element": "C" 
			},
			{
				"x": 0.5411294531,
				"y": -1.2686878518,
				"z": 0.9669783745,
				"element": "N" 
			},
			{
				"x": 2.4973756053,
				"y": -0.1008129038,
				"z": 0.9420939769,
				"element": "O" 
			},
			{
				"x": -0.4359373438,
				"y": -0.5958381875,
				"z": -3.7569847136,
				"element": "H" 
			},
			{
				"x": 0.8086766515,
				"y": 0.5936314842,
				"z": -3.4282807988,
				"element": "H" 
			},
			{
				"x": -0.2695113875,
				"y": -1.542243087,
				"z": 0.4211052194,
				"element": "H" 
			},
			{
				"x": 0.8529436242,
				"y": -1.804896031,
				"z": 1.7625847795,
				"element": "H" 
			}
		],
		 "valence_orbital": [ 
			{
				"type": "occ",
				"energy": -0.29857,
				"method": "rhf"
			},
			{
				"type": "occ",
				"energy": -0.28529,
				"method": "rhf"
			},
			{
				"type": "occ",
				"energy": -0.28292,
				"method": "rhf"
			},
			{
				"type": "occ",
				"energy": -0.27456,
				"method": "rhf"
			},
			{
				"type": "occ",
				"energy": -0.26458,
				"method": "rhf"
			},
			{
				"type": "unocc",
				"energy": -0.07111,
				"method": "rhf"
			},
			{
				"type": "unocc",
				"energy": -0.03647,
				"method": "rhf"
			},
			{
				"type": "unocc",
				"energy": 0.01316,
				"method": "rhf"
			},
			{
				"type": "unocc",
				"energy": 0.05017,
				"method": "rhf"
			},
			{
				"type": "unocc",
				"energy": 0.07347,
				"method": "rhf"
			}
		],
		"cosmo_sigma_profile": { 
			"-0.025": 0.0,
			"-0.024": 0.0,
			"-0.023": 0.0,
			"-0.022": 0.0,
			"-0.021": 0.0,
			"-0.02": 0.0,
			"-0.019": 0.0,
			"-0.018": 0.0,
			"-0.017": 0.0,
			"-0.016": 0.436031854334,
			"-0.015": 2.12221240006,
			"-0.014": 3.08199938502,
			"-0.013": 3.19208689028,
			"-0.012": 3.36971537131,
			"-0.011": 2.53471094156,
			"-0.01": 3.62463310525,
			"-0.009": 3.99123639305,
			"-0.008": 3.66652384022,
			"-0.007": 3.74033301794,
			"-0.006": 5.59972352711,
			"-0.005": 6.68259701628,
			"-0.004": 6.22896976164,
			"-0.003": 7.8646761876,
			"-0.002": 10.1198015784,
			"-0.001": 9.09267669129,
			"0.0": 10.9033597705,
			"0.001": 13.6627742303,
			"0.002": 14.0002441,
			"0.003": 19.8807305816,
			"0.004": 10.1160140012,
			"0.005": 4.62009502381,
			"0.006": 2.85281438884,
			"0.007": 1.85282531089,
			"0.008": 3.41906613275,
			"0.009": 2.8875104711,
			"0.01": 4.48973090242,
			"0.011": 4.8181481334,
			"0.012": 6.74352607467,
			"0.013": 2.81121221885,
			"0.014": 0.00755045240501,
			"0.015": 0.0,
			"0.016": 0.0,
			"0.017": 0.0,
			"0.018": 0.0,
			"0.019": 0.0,
			"0.02": 0.0,
			"0.021": 0.0,
			"0.022": 0.0,
			"0.023": 0.0,
			"0.024": 0.0,
			"0.025": 0.0
		}
	}
}
