{
	 "smiles": "CN1N=C(C=C1C1=CC=CC=C1)C(Cl)=O", 
	 "Tm": 354.15, 
	 "num_atms": 24, 
	 "gaussian": { 
		 "optdone": 1, 
		 "sigma_profile": "yes", 
		 "theory": "DFT", 
		 "functional": "B3LYP", 
		 "basiset": "6-31G**", 
		 "properties": { 
			 "R2extent": 4989.7352, 
			 "electric_dipole_moment_norm": 7.06314033982, 
			 "electric_quadrupole_moment_norm": 15.7476503787, 
			 "total_energy": -1069.5056007, 
			 "HOMO_LUMO_gap": 0.18887, 
			 "cosmo_polarized_energy": -11.61, 
			 "cosmo_cavitation_energy": 30.92, 
			 "cosmo_dispersion_energy": -22.3, 
			 "cosmo_repulsion_energy": 1.76, 
			 "cosmo_total_nonelectrostatic_energy": 10.38, 
			 "SMD_solvation_energy": 4.91 
		},
		"coords": [
			{
				"x": 1.218689437,
				"y": -0.2375110766,
				"z": -1.1287518943,
				"element": "C" 
			},
			{
				"x": -0.0956714677,
				"y": 0.0729892291,
				"z": -0.5820061959,
				"element": "N" 
			},
			{
				"x": -0.8725550864,
				"y": 0.9272140733,
				"z": -1.2542736678,
				"element": "N" 
			},
			{
				"x": -1.9748935713,
				"y": 1.0516462948,
				"z": -0.5048901531,
				"element": "C" 
			},
			{
				"x": -1.8978550702,
				"y": 0.2681350621,
				"z": 0.668347767,
				"element": "C" 
			},
			{
				"x": -0.6689793711,
				"y": -0.3649416274,
				"z": 0.5959538744,
				"element": "C" 
			},
			{
				"x": -0.0402917421,
				"y": -1.3036873474,
				"z": 1.5402032372,
				"element": "C" 
			},
			{
				"x": 0.5934380631,
				"y": -2.4825944793,
				"z": 1.1117939913,
				"element": "C" 
			},
			{
				"x": 1.153008093,
				"y": -3.3628998849,
				"z": 2.0373141562,
				"element": "C" 
			},
			{
				"x": 1.0804237116,
				"y": -3.0865864552,
				"z": 3.4036352639,
				"element": "C" 
			},
			{
				"x": 0.4426540428,
				"y": -1.9236888184,
				"z": 3.8412024051,
				"element": "C" 
			},
			{
				"x": -0.1106934336,
				"y": -1.0380840917,
				"z": 2.9187281866,
				"element": "C" 
			},
			{
				"x": -3.111974876,
				"y": 1.9020084437,
				"z": -0.8668674471,
				"element": "C" 
			},
			{
				"x": -2.9255337313,
				"y": 2.7864045368,
				"z": -2.4403074838,
				"element": "Cl" 
			},
			{
				"x": -4.1052279911,
				"y": 2.0361127478,
				"z": -0.2127403512,
				"element": "O" 
			},
			{
				"x": 1.9161394287,
				"y": -0.4371572212,
				"z": -0.3147264533,
				"element": "H" 
			},
			{
				"x": 1.5486917113,
				"y": 0.6282892756,
				"z": -1.7019699324,
				"element": "H" 
			},
			{
				"x": 1.1739760926,
				"y": -1.1082909866,
				"z": -1.7899403394,
				"element": "H" 
			},
			{
				"x": -2.6474191701,
				"y": 0.1653782746,
				"z": 1.4371885317,
				"element": "H" 
			},
			{
				"x": 0.6237838393,
				"y": -2.7272126029,
				"z": 0.0546548487,
				"element": "H" 
			},
			{
				"x": 1.6354651837,
				"y": -4.271748158,
				"z": 1.689879273,
				"element": "H" 
			},
			{
				"x": 1.5149071688,
				"y": -3.7744257102,
				"z": 4.1228662274,
				"element": "H" 
			},
			{
				"x": 0.3821317438,
				"y": -1.7015765005,
				"z": 4.9025140919,
				"element": "H" 
			},
			{
				"x": -0.5905130046,
				"y": -0.1254729773,
				"z": 3.2587920642,
				"element": "H" 
			}
		],
		 "valence_orbital": [ 
			{
				"type": "occ",
				"energy": -0.29285,
				"method": "rhf"
			},
			{
				"type": "occ",
				"energy": -0.282,
				"method": "rhf"
			},
			{
				"type": "occ",
				"energy": -0.27204,
				"method": "rhf"
			},
			{
				"type": "occ",
				"energy": -0.27063,
				"method": "rhf"
			},
			{
				"type": "occ",
				"energy": -0.24545,
				"method": "rhf"
			},
			{
				"type": "unocc",
				"energy": -0.05658,
				"method": "rhf"
			},
			{
				"type": "unocc",
				"energy": -0.04014,
				"method": "rhf"
			},
			{
				"type": "unocc",
				"energy": -0.02204,
				"method": "rhf"
			},
			{
				"type": "unocc",
				"energy": 0.02851,
				"method": "rhf"
			},
			{
				"type": "unocc",
				"energy": 0.03765,
				"method": "rhf"
			}
		],
		"cosmo_sigma_profile": { 
			"-0.025": 0.0,
			"-0.024": 0.0,
			"-0.023": 0.0,
			"-0.022": 0.0,
			"-0.021": 0.0,
			"-0.02": 0.0,
			"-0.019": 0.0,
			"-0.018": 0.0,
			"-0.017": 0.0,
			"-0.016": 0.0,
			"-0.015": 0.0,
			"-0.014": 0.0,
			"-0.013": 0.0,
			"-0.012": 0.0,
			"-0.011": 0.0,
			"-0.01": 0.0,
			"-0.009": 0.110714771728,
			"-0.008": 2.56335025737,
			"-0.007": 8.8308206264,
			"-0.006": 16.9548513363,
			"-0.005": 20.082073156,
			"-0.004": 22.7528810275,
			"-0.003": 17.7459571998,
			"-0.002": 13.9575180299,
			"-0.001": 15.4315869872,
			"0.0": 17.5041197104,
			"0.001": 20.4267339889,
			"0.002": 16.8010556365,
			"0.003": 17.1931093903,
			"0.004": 20.1231750289,
			"0.005": 14.6761884438,
			"0.006": 4.81702250556,
			"0.007": 4.53498006007,
			"0.008": 4.4376488566,
			"0.009": 6.34343589174,
			"0.01": 2.30114501117,
			"0.011": 1.25733188647,
			"0.012": 1.06938287152,
			"0.013": 0.737989297462,
			"0.014": 0.0667735603093,
			"0.015": 0.0,
			"0.016": 0.0,
			"0.017": 0.0,
			"0.018": 0.0,
			"0.019": 0.0,
			"0.02": 0.0,
			"0.021": 0.0,
			"0.022": 0.0,
			"0.023": 0.0,
			"0.024": 0.0,
			"0.025": 0.0
		}
	}
}
