{
	 "smiles": "CN1C(=O)N(C)C(=O)C(=NNC2=CC=C(Br)C=C2)C1=O", 
	 "Tm": 491.15, 
	 "num_atms": 31, 
	 "gaussian": { 
		 "optdone": 1, 
		 "sigma_profile": "yes", 
		 "theory": "DFT", 
		 "functional": "B3LYP", 
		 "basiset": "6-31G**", 
		 "properties": { 
			 "R2extent": 12533.1123, 
			 "electric_dipole_moment_norm": 2.21726003437, 
			 "electric_quadrupole_moment_norm": 8.27953427978, 
			 "total_energy": -3480.01434324, 
			 "HOMO_LUMO_gap": 0.13254, 
			 "cosmo_polarized_energy": -15.63, 
			 "cosmo_cavitation_energy": 38.56, 
			 "cosmo_dispersion_energy": -28.61, 
			 "cosmo_repulsion_energy": 2.15, 
			 "cosmo_total_nonelectrostatic_energy": 12.11, 
			 "SMD_solvation_energy": 6.91 
		},
		"coords": [
			{
				"x": -0.5776491035,
				"y": -2.6752030041,
				"z": 4.1961031898,
				"element": "C" 
			},
			{
				"x": -0.0117041683,
				"y": -2.4675721614,
				"z": 2.8565815129,
				"element": "N" 
			},
			{
				"x": 0.8499529946,
				"y": -3.4761530522,
				"z": 2.3930501017,
				"element": "C" 
			},
			{
				"x": 1.0861189282,
				"y": -4.4469325782,
				"z": 3.092126938,
				"element": "O" 
			},
			{
				"x": 1.400212315,
				"y": -3.3037731101,
				"z": 1.1252260139,
				"element": "N" 
			},
			{
				"x": 2.3042613673,
				"y": -4.3427910373,
				"z": 0.6159212925,
				"element": "C" 
			},
			{
				"x": 1.1663788726,
				"y": -2.2092863933,
				"z": 0.2755412947,
				"element": "C" 
			},
			{
				"x": 1.7008627639,
				"y": -2.1563444013,
				"z": -0.8186362354,
				"element": "O" 
			},
			{
				"x": 0.2527786368,
				"y": -1.1824001924,
				"z": 0.8176633498,
				"element": "C" 
			},
			{
				"x": 0.0310541704,
				"y": -0.1537094415,
				"z": 0.0222474017,
				"element": "N" 
			},
			{
				"x": -0.7545441756,
				"y": 0.8178701851,
				"z": 0.3834144333,
				"element": "N" 
			},
			{
				"x": -0.9867533566,
				"y": 1.9111933711,
				"z": -0.468899198,
				"element": "C" 
			},
			{
				"x": -0.3862770829,
				"y": 1.9976226572,
				"z": -1.732087802,
				"element": "C" 
			},
			{
				"x": -0.6464730176,
				"y": 3.099181896,
				"z": -2.5402332074,
				"element": "C" 
			},
			{
				"x": -1.5011732728,
				"y": 4.1071993178,
				"z": -2.0882281668,
				"element": "C" 
			},
			{
				"x": -1.8521494926,
				"y": 5.6147435182,
				"z": -3.2040805163,
				"element": "Br" 
			},
			{
				"x": -2.1013576432,
				"y": 4.0267238142,
				"z": -0.8326587482,
				"element": "C" 
			},
			{
				"x": -1.8426716866,
				"y": 2.9248468664,
				"z": -0.0212564912,
				"element": "C" 
			},
			{
				"x": -0.3467132341,
				"y": -1.3248286964,
				"z": 2.1441683213,
				"element": "C" 
			},
			{
				"x": -1.116879168,
				"y": -0.476297998,
				"z": 2.6216182202,
				"element": "O" 
			},
			{
				"x": -1.1523487462,
				"y": -3.6028562132,
				"z": 4.2151722409,
				"element": "H" 
			},
			{
				"x": -1.2172946328,
				"y": -1.8245306806,
				"z": 4.4170705508,
				"element": "H" 
			},
			{
				"x": 0.2267171914,
				"y": -2.7514756068,
				"z": 4.9298491576,
				"element": "H" 
			},
			{
				"x": 2.3866000582,
				"y": -5.1162692829,
				"z": 1.3747359865,
				"element": "H" 
			},
			{
				"x": 3.2819843207,
				"y": -3.9060101589,
				"z": 0.402962364,
				"element": "H" 
			},
			{
				"x": 1.9035139707,
				"y": -4.7545270169,
				"z": -0.3124722239,
				"element": "H" 
			},
			{
				"x": -1.1962537352,
				"y": 0.7551701429,
				"z": 1.3107871488,
				"element": "H" 
			},
			{
				"x": 0.2735920873,
				"y": 1.2044773728,
				"z": -2.063268766,
				"element": "H" 
			},
			{
				"x": -0.1869694393,
				"y": 3.1754458227,
				"z": -3.518976762,
				"element": "H" 
			},
			{
				"x": -2.7630177397,
				"y": 4.8140510519,
				"z": -0.4910085809,
				"element": "H" 
			},
			{
				"x": -2.3061979821,
				"y": 2.8539350094,
				"z": 0.9588671796,
				"element": "H" 
			}
		],
		 "valence_orbital": [ 
			{
				"type": "occ",
				"energy": -0.28164,
				"method": "rhf"
			},
			{
				"type": "occ",
				"energy": -0.27844,
				"method": "rhf"
			},
			{
				"type": "occ",
				"energy": -0.27679,
				"method": "rhf"
			},
			{
				"type": "occ",
				"energy": -0.26219,
				"method": "rhf"
			},
			{
				"type": "occ",
				"energy": -0.22849,
				"method": "rhf"
			},
			{
				"type": "unocc",
				"energy": -0.09595,
				"method": "rhf"
			},
			{
				"type": "unocc",
				"energy": -0.0279,
				"method": "rhf"
			},
			{
				"type": "unocc",
				"energy": -0.0109,
				"method": "rhf"
			},
			{
				"type": "unocc",
				"energy": -0.00329,
				"method": "rhf"
			},
			{
				"type": "unocc",
				"energy": -4e-05,
				"method": "rhf"
			}
		],
		"cosmo_sigma_profile": { 
			"-0.025": 0.0,
			"-0.024": 0.0,
			"-0.023": 0.0,
			"-0.022": 0.0,
			"-0.021": 0.0,
			"-0.02": 0.0,
			"-0.019": 0.0,
			"-0.018": 0.0,
			"-0.017": 0.0,
			"-0.016": 0.0,
			"-0.015": 0.0,
			"-0.014": 0.00458596904608,
			"-0.013": 0.322762282382,
			"-0.012": 1.22625707831,
			"-0.011": 0.826098514136,
			"-0.01": 1.19224570717,
			"-0.009": 1.75067178639,
			"-0.008": 4.83951364387,
			"-0.007": 9.32996435989,
			"-0.006": 15.5895368315,
			"-0.005": 22.7926075715,
			"-0.004": 27.5403521087,
			"-0.003": 32.7928749089,
			"-0.002": 25.5808011966,
			"-0.001": 19.5082950586,
			"0.0": 16.7290061982,
			"0.001": 22.1177624315,
			"0.002": 26.5375733339,
			"0.003": 18.2343110925,
			"0.004": 15.7276365543,
			"0.005": 7.60849906501,
			"0.006": 5.04921686126,
			"0.007": 4.60082071014,
			"0.008": 3.88366882946,
			"0.009": 4.97221151424,
			"0.01": 5.76350954506,
			"0.011": 6.48602786975,
			"0.012": 7.45261037879,
			"0.013": 3.50776973501,
			"0.014": 0.947843942715,
			"0.015": 0.0,
			"0.016": 0.0,
			"0.017": 0.0,
			"0.018": 0.0,
			"0.019": 0.0,
			"0.02": 0.0,
			"0.021": 0.0,
			"0.022": 0.0,
			"0.023": 0.0,
			"0.024": 0.0,
			"0.025": 0.0
		}
	}
}
