{
	 "smiles": "CC1=CC=C(C=C1)S(=O)(=O)N=C=O", 
	 "Tm": 278.15, 
	 "num_atms": 20, 
	 "gaussian": { 
		 "optdone": 1, 
		 "sigma_profile": "yes", 
		 "theory": "DFT", 
		 "functional": "B3LYP", 
		 "basiset": "6-31G**", 
		 "properties": { 
			 "R2extent": 4682.3676, 
			 "electric_dipole_moment_norm": 5.62261610285, 
			 "electric_quadrupole_moment_norm": 13.8207186278, 
			 "total_energy": -987.607525677, 
			 "HOMO_LUMO_gap": 0.2198, 
			 "cosmo_polarized_energy": -9.7, 
			 "cosmo_cavitation_energy": 27.5, 
			 "cosmo_dispersion_energy": -20.02, 
			 "cosmo_repulsion_energy": 1.55, 
			 "cosmo_total_nonelectrostatic_energy": 9.03, 
			 "SMD_solvation_energy": 6.85 
		},
		"coords": [
			{
				"x": 2.828028285,
				"y": -0.2302056659,
				"z": -0.0167310938,
				"element": "C" 
			},
			{
				"x": 1.3404501417,
				"y": -0.4674612218,
				"z": -0.1075147745,
				"element": "C" 
			},
			{
				"x": 0.8368979485,
				"y": -1.656114639,
				"z": -0.6569869989,
				"element": "C" 
			},
			{
				"x": -0.5338307828,
				"y": -1.8739049236,
				"z": -0.7712188312,
				"element": "C" 
			},
			{
				"x": -1.4091327589,
				"y": -0.8817313108,
				"z": -0.3276465107,
				"element": "C" 
			},
			{
				"x": -0.9429845899,
				"y": 0.3070038076,
				"z": 0.2353181675,
				"element": "C" 
			},
			{
				"x": 0.4317422632,
				"y": 0.5033829583,
				"z": 0.3397871847,
				"element": "C" 
			},
			{
				"x": -3.1628977283,
				"y": -1.1543020643,
				"z": -0.4494412939,
				"element": "S" 
			},
			{
				"x": -3.4316852111,
				"y": -2.5868599634,
				"z": -0.5346261542,
				"element": "O" 
			},
			{
				"x": -3.858665739,
				"y": -0.3073389847,
				"z": 0.5150887227,
				"element": "O" 
			},
			{
				"x": -3.4392712294,
				"y": -0.4840458933,
				"z": -2.0175353936,
				"element": "N" 
			},
			{
				"x": -4.5128516995,
				"y": -0.4136202953,
				"z": -2.6064299391,
				"element": "C" 
			},
			{
				"x": -5.473146861,
				"y": -0.2908957805,
				"z": -3.2627571241,
				"element": "O" 
			},
			{
				"x": 3.0796891989,
				"y": 0.4171573382,
				"z": 0.827982333,
				"element": "H" 
			},
			{
				"x": 3.1994090699,
				"y": 0.2593343454,
				"z": -0.9255567775,
				"element": "H" 
			},
			{
				"x": 3.3774451437,
				"y": -1.1691158891,
				"z": 0.09523632,
				"element": "H" 
			},
			{
				"x": 1.5273372468,
				"y": -2.4244016132,
				"z": -0.9938122065,
				"element": "H" 
			},
			{
				"x": -0.9230722227,
				"y": -2.7988060455,
				"z": -1.1821365667,
				"element": "H" 
			},
			{
				"x": -1.6453970935,
				"y": 1.0509138331,
				"z": 0.5944972768,
				"element": "H" 
			},
			{
				"x": 0.8055366183,
				"y": 1.4227120078,
				"z": 0.7819836599,
				"element": "H" 
			}
		],
		 "valence_orbital": [ 
			{
				"type": "occ",
				"energy": -0.32895,
				"method": "rhf"
			},
			{
				"type": "occ",
				"energy": -0.32253,
				"method": "rhf"
			},
			{
				"type": "occ",
				"energy": -0.29915,
				"method": "rhf"
			},
			{
				"type": "occ",
				"energy": -0.27962,
				"method": "rhf"
			},
			{
				"type": "occ",
				"energy": -0.27421,
				"method": "rhf"
			},
			{
				"type": "unocc",
				"energy": -0.05441,
				"method": "rhf"
			},
			{
				"type": "unocc",
				"energy": -0.03506,
				"method": "rhf"
			},
			{
				"type": "unocc",
				"energy": -0.03042,
				"method": "rhf"
			},
			{
				"type": "unocc",
				"energy": 0.01776,
				"method": "rhf"
			},
			{
				"type": "unocc",
				"energy": 0.05563,
				"method": "rhf"
			}
		],
		"cosmo_sigma_profile": { 
			"-0.025": 0.0,
			"-0.024": 0.0,
			"-0.023": 0.0,
			"-0.022": 0.0,
			"-0.021": 0.0,
			"-0.02": 0.0,
			"-0.019": 0.0,
			"-0.018": 0.0,
			"-0.017": 0.0,
			"-0.016": 0.0,
			"-0.015": 0.0,
			"-0.014": 0.0,
			"-0.013": 0.0,
			"-0.012": 0.0,
			"-0.011": 0.0,
			"-0.01": 0.0,
			"-0.009": 0.146918382662,
			"-0.008": 1.99079776122,
			"-0.007": 6.58011937728,
			"-0.006": 11.2481342545,
			"-0.005": 20.7031023264,
			"-0.004": 18.0134458356,
			"-0.003": 17.0686165303,
			"-0.002": 17.4681490783,
			"-0.001": 18.9429221631,
			"0.0": 18.0878501206,
			"0.001": 13.7298290333,
			"0.002": 18.3990516467,
			"0.003": 13.4262994403,
			"0.004": 5.96467746924,
			"0.005": 10.7660345101,
			"0.006": 5.52003823971,
			"0.007": 3.37442024532,
			"0.008": 4.41186136673,
			"0.009": 10.8178598319,
			"0.01": 5.04279730983,
			"0.011": 0.0457564797823,
			"0.012": 0.0,
			"0.013": 0.0,
			"0.014": 0.0,
			"0.015": 0.0,
			"0.016": 0.0,
			"0.017": 0.0,
			"0.018": 0.0,
			"0.019": 0.0,
			"0.02": 0.0,
			"0.021": 0.0,
			"0.022": 0.0,
			"0.023": 0.0,
			"0.024": 0.0,
			"0.025": 0.0
		}
	}
}
