{
	 "smiles": "O=C1C(C(=O)C2=CC=CC=C12)C1=CC=CC=C1", 
	 "Tm": 423.15, 
	 "num_atms": 27, 
	 "gaussian": { 
		 "optdone": 1, 
		 "sigma_profile": "yes", 
		 "theory": "DFT", 
		 "functional": "B3LYP", 
		 "basiset": "6-31G**", 
		 "properties": { 
			 "R2extent": 4636.9062, 
			 "electric_dipole_moment_norm": 3.08834644592, 
			 "electric_quadrupole_moment_norm": 14.2390031312, 
			 "total_energy": -728.070243821, 
			 "HOMO_LUMO_gap": 0.15441, 
			 "cosmo_polarized_energy": -12.17, 
			 "cosmo_cavitation_energy": 31.69, 
			 "cosmo_dispersion_energy": -22.76, 
			 "cosmo_repulsion_energy": 1.73, 
			 "cosmo_total_nonelectrostatic_energy": 10.67, 
			 "SMD_solvation_energy": 6.1 
		},
		"coords": [
			{
				"x": 1.2271635022,
				"y": -0.8900195948,
				"z": -1.7845370994,
				"element": "O" 
			},
			{
				"x": 0.4671909868,
				"y": -0.3705095379,
				"z": -0.9928099524,
				"element": "C" 
			},
			{
				"x": -0.5254959942,
				"y": 0.7819027531,
				"z": -1.2973381797,
				"element": "C" 
			},
			{
				"x": -1.1930494407,
				"y": 1.0576294131,
				"z": 0.0639043436,
				"element": "C" 
			},
			{
				"x": -2.022971514,
				"y": 1.9135460399,
				"z": 0.3037025247,
				"element": "O" 
			},
			{
				"x": -0.6574206368,
				"y": 0.0726613625,
				"z": 1.0434281708,
				"element": "C" 
			},
			{
				"x": -0.9981007398,
				"y": -0.0880973059,
				"z": 2.3872262155,
				"element": "C" 
			},
			{
				"x": -0.3476080806,
				"y": -1.0887422903,
				"z": 3.108611308,
				"element": "C" 
			},
			{
				"x": 0.6189439392,
				"y": -1.9097632866,
				"z": 2.4991931553,
				"element": "C" 
			},
			{
				"x": 0.9548942697,
				"y": -1.7478431996,
				"z": 1.1553713003,
				"element": "C" 
			},
			{
				"x": 0.3028729965,
				"y": -0.7440924199,
				"z": 0.4376143272,
				"element": "C" 
			},
			{
				"x": 0.1085487706,
				"y": 1.9625278896,
				"z": -2.0183495055,
				"element": "C" 
			},
			{
				"x": 0.6071597771,
				"y": 1.765265694,
				"z": -3.3148252718,
				"element": "C" 
			},
			{
				"x": 1.2222014408,
				"y": 2.80870334,
				"z": -4.0048265048,
				"element": "C" 
			},
			{
				"x": 1.346125305,
				"y": 4.0666472616,
				"z": -3.4113140463,
				"element": "C" 
			},
			{
				"x": 0.8501431229,
				"y": 4.2703405972,
				"z": -2.12401066,
				"element": "C" 
			},
			{
				"x": 0.2357544384,
				"y": 3.2260263482,
				"z": -1.4291221124,
				"element": "C" 
			},
			{
				"x": -1.3029094191,
				"y": 0.354172161,
				"z": -1.9486246565,
				"element": "H" 
			},
			{
				"x": -1.7456611158,
				"y": 0.5533114405,
				"z": 2.8430933003,
				"element": "H" 
			},
			{
				"x": -0.5868306376,
				"y": -1.2404479198,
				"z": 4.1571589533,
				"element": "H" 
			},
			{
				"x": 1.1079791566,
				"y": -2.6799342937,
				"z": 3.0885723851,
				"element": "H" 
			},
			{
				"x": 1.6977248365,
				"y": -2.3736646441,
				"z": 0.6710696699,
				"element": "H" 
			},
			{
				"x": 0.5270469623,
				"y": 0.785101099,
				"z": -3.7734108226,
				"element": "H" 
			},
			{
				"x": 1.6034502054,
				"y": 2.638157829,
				"z": -5.0076713378,
				"element": "H" 
			},
			{
				"x": 1.8215163951,
				"y": 4.8813814605,
				"z": -3.9499913863,
				"element": "H" 
			},
			{
				"x": 0.9366099237,
				"y": 5.2461009706,
				"z": -1.6543186788,
				"element": "H" 
			},
			{
				"x": -0.1627784502,
				"y": 3.407738833,
				"z": -0.4375954398,
				"element": "H" 
			}
		],
		 "valence_orbital": [ 
			{
				"type": "occ",
				"energy": -0.28005,
				"method": "rhf"
			},
			{
				"type": "occ",
				"energy": -0.27662,
				"method": "rhf"
			},
			{
				"type": "occ",
				"energy": -0.25225,
				"method": "rhf"
			},
			{
				"type": "occ",
				"energy": -0.24513,
				"method": "rhf"
			},
			{
				"type": "occ",
				"energy": -0.23711,
				"method": "rhf"
			},
			{
				"type": "unocc",
				"energy": -0.0827,
				"method": "rhf"
			},
			{
				"type": "unocc",
				"energy": -0.06452,
				"method": "rhf"
			},
			{
				"type": "unocc",
				"energy": -0.00176,
				"method": "rhf"
			},
			{
				"type": "unocc",
				"energy": 0.00311,
				"method": "rhf"
			},
			{
				"type": "unocc",
				"energy": 0.02581,
				"method": "rhf"
			}
		],
		"cosmo_sigma_profile": { 
			"-0.025": 0.0,
			"-0.024": 0.0,
			"-0.023": 0.0,
			"-0.022": 0.0,
			"-0.021": 0.0,
			"-0.02": 0.0,
			"-0.019": 0.0,
			"-0.018": 0.0,
			"-0.017": 0.0,
			"-0.016": 0.0,
			"-0.015": 0.0,
			"-0.014": 0.0,
			"-0.013": 0.0,
			"-0.012": 0.0,
			"-0.011": 0.0,
			"-0.01": 0.197168073606,
			"-0.009": 2.77627698561,
			"-0.008": 4.36453973223,
			"-0.007": 11.8104844997,
			"-0.006": 14.8479189123,
			"-0.005": 20.919281808,
			"-0.004": 19.4978878423,
			"-0.003": 18.1182095351,
			"-0.002": 15.8594836001,
			"-0.001": 16.3685419733,
			"0.0": 20.2319085221,
			"0.001": 20.4044294739,
			"0.002": 18.4080166313,
			"0.003": 9.78982250124,
			"0.004": 10.915474915,
			"0.005": 13.614107771,
			"0.006": 9.4873361128,
			"0.007": 3.64121132384,
			"0.008": 3.72926395942,
			"0.009": 4.6819622203,
			"0.01": 5.81112426843,
			"0.011": 7.9277317212,
			"0.012": 1.77076684456,
			"0.013": 0.0147427566023,
			"0.014": 0.0,
			"0.015": 0.0,
			"0.016": 0.0,
			"0.017": 0.0,
			"0.018": 0.0,
			"0.019": 0.0,
			"0.02": 0.0,
			"0.021": 0.0,
			"0.022": 0.0,
			"0.023": 0.0,
			"0.024": 0.0,
			"0.025": 0.0
		}
	}
}
