{
	 "smiles": "COC1=C(OC)C=C(NC(=O)C=C)C=C1", 
	 "Tm": 376.15, 
	 "num_atms": 28, 
	 "gaussian": { 
		 "optdone": 1, 
		 "sigma_profile": "yes", 
		 "theory": "DFT", 
		 "functional": "B3LYP", 
		 "basiset": "6-31G**", 
		 "properties": { 
			 "R2extent": 4354.5576, 
			 "electric_dipole_moment_norm": 3.90877355445, 
			 "electric_quadrupole_moment_norm": 23.6423370084, 
			 "total_energy": -707.378531714, 
			 "HOMO_LUMO_gap": 0.17532, 
			 "cosmo_polarized_energy": -14.59, 
			 "cosmo_cavitation_energy": 32.35, 
			 "cosmo_dispersion_energy": -22.52, 
			 "cosmo_repulsion_energy": 1.81, 
			 "cosmo_total_nonelectrostatic_energy": 11.63, 
			 "SMD_solvation_energy": 8.47 
		},
		"coords": [
			{
				"x": -0.4476017473,
				"y": 0.0197809321,
				"z": -4.4888351875,
				"element": "C" 
			},
			{
				"x": -0.0669415843,
				"y": -1.2031464591,
				"z": -3.8538607195,
				"element": "O" 
			},
			{
				"x": -0.1259895496,
				"y": -1.2123080539,
				"z": -2.4824339588,
				"element": "C" 
			},
			{
				"x": -1.3589895426,
				"y": -1.1775490786,
				"z": -1.7911838228,
				"element": "C" 
			},
			{
				"x": -2.4792176307,
				"y": -1.0804845862,
				"z": -2.5641530308,
				"element": "O" 
			},
			{
				"x": -3.7440782098,
				"y": -1.0872812613,
				"z": -1.9200348893,
				"element": "C" 
			},
			{
				"x": -1.3670066773,
				"y": -1.2375424325,
				"z": -0.3958744511,
				"element": "C" 
			},
			{
				"x": -0.1668459561,
				"y": -1.3708430003,
				"z": 0.3217840236,
				"element": "C" 
			},
			{
				"x": -0.2492521682,
				"y": -1.489815064,
				"z": 1.7358266337,
				"element": "N" 
			},
			{
				"x": 0.5817276617,
				"y": -1.0172224157,
				"z": 2.7359622471,
				"element": "C" 
			},
			{
				"x": 0.540974309,
				"y": -1.5192487402,
				"z": 3.8543595798,
				"element": "O" 
			},
			{
				"x": 1.4639957284,
				"y": 0.1625669813,
				"z": 2.4900189722,
				"element": "C" 
			},
			{
				"x": 1.1856462034,
				"y": 1.2032899007,
				"z": 1.7016528926,
				"element": "C" 
			},
			{
				"x": 1.0470807417,
				"y": -1.4419489573,
				"z": -0.3634459947,
				"element": "C" 
			},
			{
				"x": 1.0539637781,
				"y": -1.3396836116,
				"z": -1.7556712128,
				"element": "C" 
			},
			{
				"x": -0.2968879998,
				"y": -0.1346684124,
				"z": -5.5592853165,
				"element": "H" 
			},
			{
				"x": 0.1869506808,
				"y": 0.8501470649,
				"z": -4.1519426752,
				"element": "H" 
			},
			{
				"x": -1.4974001123,
				"y": 0.2622409457,
				"z": -4.2994342197,
				"element": "H" 
			},
			{
				"x": -3.8660610219,
				"y": -0.2226418843,
				"z": -1.254855641,
				"element": "H" 
			},
			{
				"x": -3.8971004896,
				"y": -2.0083674845,
				"z": -1.3437335454,
				"element": "H" 
			},
			{
				"x": -4.4870759862,
				"y": -1.0344756006,
				"z": -2.7169974791,
				"element": "H" 
			},
			{
				"x": -2.298150188,
				"y": -1.1813226719,
				"z": 0.1554733658,
				"element": "H" 
			},
			{
				"x": -0.8838926712,
				"y": -2.1939582291,
				"z": 2.0942298665,
				"element": "H" 
			},
			{
				"x": 2.3301553517,
				"y": 0.1777273154,
				"z": 3.1460581323,
				"element": "H" 
			},
			{
				"x": 1.8354664087,
				"y": 2.0731219761,
				"z": 1.6752076477,
				"element": "H" 
			},
			{
				"x": 0.3052357522,
				"y": 1.2323786746,
				"z": 1.0681735992,
				"element": "H" 
			},
			{
				"x": 1.9745916904,
				"y": -1.5732332564,
				"z": 0.1810202887,
				"element": "H" 
			},
			{
				"x": 1.9850032287,
				"y": -1.390312591,
				"z": -2.3110251051,
				"element": "H" 
			}
		],
		 "valence_orbital": [ 
			{
				"type": "occ",
				"energy": -0.2788,
				"method": "rhf"
			},
			{
				"type": "occ",
				"energy": -0.27121,
				"method": "rhf"
			},
			{
				"type": "occ",
				"energy": -0.2497,
				"method": "rhf"
			},
			{
				"type": "occ",
				"energy": -0.24158,
				"method": "rhf"
			},
			{
				"type": "occ",
				"energy": -0.21144,
				"method": "rhf"
			},
			{
				"type": "unocc",
				"energy": -0.03612,
				"method": "rhf"
			},
			{
				"type": "unocc",
				"energy": -0.00455,
				"method": "rhf"
			},
			{
				"type": "unocc",
				"energy": 0.00475,
				"method": "rhf"
			},
			{
				"type": "unocc",
				"energy": 0.07463,
				"method": "rhf"
			},
			{
				"type": "unocc",
				"energy": 0.0813,
				"method": "rhf"
			}
		],
		"cosmo_sigma_profile": { 
			"-0.025": 0.0,
			"-0.024": 0.0,
			"-0.023": 0.0,
			"-0.022": 0.0,
			"-0.021": 0.0,
			"-0.02": 0.0,
			"-0.019": 0.0,
			"-0.018": 0.0,
			"-0.017": 0.0,
			"-0.016": 0.0,
			"-0.015": 0.0236395057311,
			"-0.014": 0.621357417554,
			"-0.013": 1.03412472463,
			"-0.012": 0.848676083835,
			"-0.011": 0.714653676848,
			"-0.01": 1.25938467211,
			"-0.009": 1.06757057598,
			"-0.008": 1.07687400966,
			"-0.007": 4.51158290213,
			"-0.006": 14.9390863912,
			"-0.005": 22.9624072557,
			"-0.004": 23.9337448695,
			"-0.003": 25.7357834143,
			"-0.002": 22.9104105072,
			"-0.001": 15.8504743865,
			"0.0": 15.9038948247,
			"0.001": 15.7392934058,
			"0.002": 16.0105193656,
			"0.003": 16.8793495226,
			"0.004": 13.9641581383,
			"0.005": 6.14448424152,
			"0.006": 3.80341569731,
			"0.007": 3.4650578191,
			"0.008": 3.34486402096,
			"0.009": 3.44826485523,
			"0.01": 2.97967094522,
			"0.011": 4.13802675499,
			"0.012": 4.19254406107,
			"0.013": 5.21731611815,
			"0.014": 3.6737734884,
			"0.015": 0.388021819064,
			"0.016": 0.0,
			"0.017": 0.0,
			"0.018": 0.0,
			"0.019": 0.0,
			"0.02": 0.0,
			"0.021": 0.0,
			"0.022": 0.0,
			"0.023": 0.0,
			"0.024": 0.0,
			"0.025": 0.0
		}
	}
}
