{
	 "smiles": "CS(=O)(=O)CCCBr", 
	 "Tm": 309.15, 
	 "num_atms": 17, 
	 "gaussian": { 
		 "optdone": 1, 
		 "sigma_profile": "yes", 
		 "theory": "DFT", 
		 "functional": "B3LYP", 
		 "basiset": "6-31G**", 
		 "properties": { 
			 "R2extent": 3575.2827, 
			 "electric_dipole_moment_norm": 3.73622592197, 
			 "electric_quadrupole_moment_norm": 21.2285406112, 
			 "total_energy": -3277.83525161, 
			 "HOMO_LUMO_gap": 0.26622, 
			 "cosmo_polarized_energy": -18.35, 
			 "cosmo_cavitation_energy": 23.86, 
			 "cosmo_dispersion_energy": -18.28, 
			 "cosmo_repulsion_energy": 1.49, 
			 "cosmo_total_nonelectrostatic_energy": 7.07, 
			 "SMD_solvation_energy": 2.36 
		},
		"coords": [
			{
				"x": 2.2992339287,
				"y": -1.6853917675,
				"z": -1.0572044313,
				"element": "C" 
			},
			{
				"x": 0.6822253934,
				"y": -2.4015440828,
				"z": -0.6776119541,
				"element": "S" 
			},
			{
				"x": 0.0823593285,
				"y": -2.846202096,
				"z": -1.9442039232,
				"element": "O" 
			},
			{
				"x": 0.8561362963,
				"y": -3.3361109551,
				"z": 0.4450835462,
				"element": "O" 
			},
			{
				"x": -0.3146380862,
				"y": -0.9925726712,
				"z": -0.0871787774,
				"element": "C" 
			},
			{
				"x": 0.1245075185,
				"y": -0.4452048173,
				"z": 1.2743059425,
				"element": "C" 
			},
			{
				"x": -0.8603248663,
				"y": 0.6099589268,
				"z": 1.7646724583,
				"element": "C" 
			},
			{
				"x": -0.2938153643,
				"y": 1.3631031002,
				"z": 3.5023685043,
				"element": "Br" 
			},
			{
				"x": 2.7448589462,
				"y": -1.2710738758,
				"z": -0.1519098833,
				"element": "H" 
			},
			{
				"x": 2.9075740265,
				"y": -2.5132439498,
				"z": -1.4262616892,
				"element": "H" 
			},
			{
				"x": 2.1889187931,
				"y": -0.92718824,
				"z": -1.8339933375,
				"element": "H" 
			},
			{
				"x": -0.2955971544,
				"y": -0.2394100717,
				"z": -0.8811410339,
				"element": "H" 
			},
			{
				"x": -1.3247998412,
				"y": -1.4141942293,
				"z": -0.0501826046,
				"element": "H" 
			},
			{
				"x": 1.1225400047,
				"y": 0.0000240172,
				"z": 1.2063678562,
				"element": "H" 
			},
			{
				"x": 0.1824687934,
				"y": -1.2676894941,
				"z": 1.9921531399,
				"element": "H" 
			},
			{
				"x": -1.8554284703,
				"y": 0.197801058,
				"z": 1.9339042911,
				"element": "H" 
			},
			{
				"x": -0.9317192466,
				"y": 1.4622391485,
				"z": 1.088231896,
				"element": "H" 
			}
		],
		 "valence_orbital": [ 
			{
				"type": "occ",
				"energy": -0.31695,
				"method": "rhf"
			},
			{
				"type": "occ",
				"energy": -0.30063,
				"method": "rhf"
			},
			{
				"type": "occ",
				"energy": -0.29458,
				"method": "rhf"
			},
			{
				"type": "occ",
				"energy": -0.28296,
				"method": "rhf"
			},
			{
				"type": "occ",
				"energy": -0.28181,
				"method": "rhf"
			},
			{
				"type": "unocc",
				"energy": -0.01559,
				"method": "rhf"
			},
			{
				"type": "unocc",
				"energy": 0.05339,
				"method": "rhf"
			},
			{
				"type": "unocc",
				"energy": 0.06166,
				"method": "rhf"
			},
			{
				"type": "unocc",
				"energy": 0.07474,
				"method": "rhf"
			},
			{
				"type": "unocc",
				"energy": 0.07982,
				"method": "rhf"
			}
		],
		"cosmo_sigma_profile": { 
			"-0.025": 0.0,
			"-0.024": 0.0,
			"-0.023": 0.0,
			"-0.022": 0.0,
			"-0.021": 0.0,
			"-0.02": 0.0,
			"-0.019": 0.0,
			"-0.018": 0.0,
			"-0.017": 0.0,
			"-0.016": 0.0,
			"-0.015": 0.0,
			"-0.014": 0.0,
			"-0.013": 0.0,
			"-0.012": 0.00588714097036,
			"-0.011": 0.434666481697,
			"-0.01": 1.13058291266,
			"-0.009": 6.10192005451,
			"-0.008": 16.1584451565,
			"-0.007": 16.3038981668,
			"-0.006": 13.8515392591,
			"-0.005": 13.5724491693,
			"-0.004": 12.3670689692,
			"-0.003": 8.73247010657,
			"-0.002": 6.82597854912,
			"-0.001": 6.85525708736,
			"0.0": 5.96132607905,
			"0.001": 6.02329912765,
			"0.002": 6.01822604803,
			"0.003": 6.97532470201,
			"0.004": 6.71737078759,
			"0.005": 8.34468024515,
			"0.006": 12.724158449,
			"0.007": 4.30523501777,
			"0.008": 2.31552814165,
			"0.009": 2.87083867779,
			"0.01": 3.86732900488,
			"0.011": 8.02735651977,
			"0.012": 11.4422517088,
			"0.013": 2.77712060198,
			"0.014": 0.0,
			"0.015": 0.0,
			"0.016": 0.0,
			"0.017": 0.0,
			"0.018": 0.0,
			"0.019": 0.0,
			"0.02": 0.0,
			"0.021": 0.0,
			"0.022": 0.0,
			"0.023": 0.0,
			"0.024": 0.0,
			"0.025": 0.0
		}
	}
}
