{
	 "smiles": "OC(=O)CNC(=O)C1N(C2CC2)C(=O)C2=C1C=CC=C2", 
	 "Tm": 516.15, 
	 "num_atms": 34, 
	 "gaussian": { 
		 "optdone": 1, 
		 "sigma_profile": "yes", 
		 "theory": "DFT", 
		 "functional": "B3LYP", 
		 "basiset": "6-31G**", 
		 "properties": { 
			 "R2extent": 5912.2867, 
			 "electric_dipole_moment_norm": 4.21146402454, 
			 "electric_quadrupole_moment_norm": 14.5834168699, 
			 "total_energy": -952.333328086, 
			 "HOMO_LUMO_gap": 0.1965, 
			 "cosmo_polarized_energy": -25.0, 
			 "cosmo_cavitation_energy": 38.16, 
			 "cosmo_dispersion_energy": -26.0, 
			 "cosmo_repulsion_energy": 2.0, 
			 "cosmo_total_nonelectrostatic_energy": 14.16, 
			 "SMD_solvation_energy": 7.89 
		},
		"coords": [
			{
				"x": -0.1604415288,
				"y": -2.9304442896,
				"z": 3.4912653841,
				"element": "O" 
			},
			{
				"x": 0.2608307247,
				"y": -2.0033077178,
				"z": 2.6022720629,
				"element": "C" 
			},
			{
				"x": 1.3742130303,
				"y": -1.5434729127,
				"z": 2.6688984841,
				"element": "O" 
			},
			{
				"x": -0.7709255334,
				"y": -1.5787846349,
				"z": 1.5630619543,
				"element": "C" 
			},
			{
				"x": -0.2141548275,
				"y": -0.6063485865,
				"z": 0.6602970204,
				"element": "N" 
			},
			{
				"x": -0.4914222255,
				"y": -0.6443691165,
				"z": -0.6700077402,
				"element": "C" 
			},
			{
				"x": -1.2994074245,
				"y": -1.4157821316,
				"z": -1.1751214836,
				"element": "O" 
			},
			{
				"x": 0.1979731765,
				"y": 0.4319626257,
				"z": -1.5266860881,
				"element": "C" 
			},
			{
				"x": 1.4589413363,
				"y": 0.9640491334,
				"z": -0.9984148329,
				"element": "N" 
			},
			{
				"x": 2.6954782628,
				"y": 0.2780696836,
				"z": -1.2826475804,
				"element": "C" 
			},
			{
				"x": 3.1157175712,
				"y": -0.9393461543,
				"z": -0.4861816306,
				"element": "C" 
			},
			{
				"x": 3.8362597319,
				"y": 0.370931295,
				"z": -0.3101073796,
				"element": "C" 
			},
			{
				"x": 1.4297502699,
				"y": 2.3705446471,
				"z": -0.8908676366,
				"element": "C" 
			},
			{
				"x": 2.3747407712,
				"y": 3.0845674469,
				"z": -0.6098442521,
				"element": "O" 
			},
			{
				"x": 0.0351038197,
				"y": 2.7763833968,
				"z": -1.2016571988,
				"element": "C" 
			},
			{
				"x": -0.6924481333,
				"y": 1.6593418606,
				"z": -1.6034906492,
				"element": "C" 
			},
			{
				"x": -2.029835827,
				"y": 1.7696765971,
				"z": -1.9718639787,
				"element": "C" 
			},
			{
				"x": -2.609539483,
				"y": 3.0421354162,
				"z": -1.9427021241,
				"element": "C" 
			},
			{
				"x": -1.8727752207,
				"y": 4.1695904315,
				"z": -1.548368911,
				"element": "C" 
			},
			{
				"x": -0.5350296587,
				"y": 4.0472145936,
				"z": -1.1711872405,
				"element": "C" 
			},
			{
				"x": -1.0685381002,
				"y": -3.206966275,
				"z": 3.2982905315,
				"element": "H" 
			},
			{
				"x": -1.1098042497,
				"y": -2.4396873683,
				"z": 0.9737330887,
				"element": "H" 
			},
			{
				"x": -1.6554205201,
				"y": -1.1897812038,
				"z": 2.0923396475,
				"element": "H" 
			},
			{
				"x": 0.5561448735,
				"y": -0.036647329,
				"z": 0.9871556623,
				"element": "H" 
			},
			{
				"x": 0.3419005256,
				"y": -0.0231049719,
				"z": -2.5150235401,
				"element": "H" 
			},
			{
				"x": 2.9571766524,
				"y": 0.2744778748,
				"z": -2.3420435545,
				"element": "H" 
			},
			{
				"x": 2.4847110192,
				"y": -1.2715605816,
				"z": 0.3302038314,
				"element": "H" 
			},
			{
				"x": 3.6064748191,
				"y": -1.7381747222,
				"z": -1.0337949659,
				"element": "H" 
			},
			{
				"x": 4.832269699,
				"y": 0.4930977373,
				"z": -0.7226294638,
				"element": "H" 
			},
			{
				"x": 3.6594497515,
				"y": 0.9260233671,
				"z": 0.6032797516,
				"element": "H" 
			},
			{
				"x": -2.6004026796,
				"y": 0.8948799054,
				"z": -2.2676987207,
				"element": "H" 
			},
			{
				"x": -3.6497684388,
				"y": 3.1605251849,
				"z": -2.2324563366,
				"element": "H" 
			},
			{
				"x": -2.3516954443,
				"y": 5.1442183898,
				"z": -1.5380103295,
				"element": "H" 
			},
			{
				"x": 0.0567732606,
				"y": 4.9035884087,
				"z": -0.8632917816,
				"element": "H" 
			}
		],
		 "valence_orbital": [ 
			{
				"type": "occ",
				"energy": -0.27309,
				"method": "rhf"
			},
			{
				"type": "occ",
				"energy": -0.26513,
				"method": "rhf"
			},
			{
				"type": "occ",
				"energy": -0.26069,
				"method": "rhf"
			},
			{
				"type": "occ",
				"energy": -0.2557,
				"method": "rhf"
			},
			{
				"type": "occ",
				"energy": -0.24041,
				"method": "rhf"
			},
			{
				"type": "unocc",
				"energy": -0.04391,
				"method": "rhf"
			},
			{
				"type": "unocc",
				"energy": -0.0196,
				"method": "rhf"
			},
			{
				"type": "unocc",
				"energy": -0.0113,
				"method": "rhf"
			},
			{
				"type": "unocc",
				"energy": 0.01569,
				"method": "rhf"
			},
			{
				"type": "unocc",
				"energy": 0.03616,
				"method": "rhf"
			}
		],
		"cosmo_sigma_profile": { 
			"-0.025": 0.0,
			"-0.024": 0.0,
			"-0.023": 0.0,
			"-0.022": 0.0,
			"-0.021": 0.00907803533454,
			"-0.02": 0.867755372569,
			"-0.019": 1.41134258987,
			"-0.018": 1.31072055946,
			"-0.017": 1.25843671572,
			"-0.016": 1.32689900184,
			"-0.015": 0.714181758115,
			"-0.014": 0.741531669119,
			"-0.013": 1.53278094691,
			"-0.012": 1.39736005624,
			"-0.011": 1.40670532427,
			"-0.01": 2.56990732253,
			"-0.009": 3.13844395392,
			"-0.008": 6.14840335371,
			"-0.007": 10.1059203479,
			"-0.006": 17.1938695657,
			"-0.005": 22.8529112315,
			"-0.004": 20.8700777338,
			"-0.003": 19.1634329789,
			"-0.002": 18.0034226666,
			"-0.001": 18.1135504939,
			"0.0": 19.7024404842,
			"0.001": 18.3592940692,
			"0.002": 19.4595893419,
			"0.003": 17.9507034477,
			"0.004": 14.4094534993,
			"0.005": 6.46972774636,
			"0.006": 5.50863860852,
			"0.007": 6.12513502454,
			"0.008": 5.29656519671,
			"0.009": 7.23240310685,
			"0.01": 7.30104497397,
			"0.011": 6.26874269185,
			"0.012": 8.22478622562,
			"0.013": 9.51839172212,
			"0.014": 1.5486566014,
			"0.015": 9.85788842735e-05,
			"0.016": 0.0,
			"0.017": 0.0,
			"0.018": 0.0,
			"0.019": 0.0,
			"0.02": 0.0,
			"0.021": 0.0,
			"0.022": 0.0,
			"0.023": 0.0,
			"0.024": 0.0,
			"0.025": 0.0
		}
	}
}
