{
	 "smiles": "NCC1=CC(=O)NO1", 
	 "Tm": 448.15, 
	 "num_atms": 14, 
	 "gaussian": { 
		 "optdone": 1, 
		 "sigma_profile": "yes", 
		 "theory": "DFT", 
		 "functional": "B3LYP", 
		 "basiset": "6-31G**", 
		 "properties": { 
			 "R2extent": 1359.6935, 
			 "electric_dipole_moment_norm": 3.07682556379, 
			 "electric_quadrupole_moment_norm": 19.1004264819, 
			 "total_energy": -415.923338614, 
			 "HOMO_LUMO_gap": 0.21354, 
			 "cosmo_polarized_energy": -15.48, 
			 "cosmo_cavitation_energy": 18.55, 
			 "cosmo_dispersion_energy": -13.9, 
			 "cosmo_repulsion_energy": 1.2, 
			 "cosmo_total_nonelectrostatic_energy": 5.85, 
			 "SMD_solvation_energy": 3.55 
		},
		"coords": [
			{
				"x": 1.8173550749,
				"y": 0.3549321219,
				"z": 0.0442453674,
				"element": "N" 
			},
			{
				"x": 0.4555625945,
				"y": 0.7423789965,
				"z": -0.327881341,
				"element": "C" 
			},
			{
				"x": -0.5934746789,
				"y": -0.3183297672,
				"z": -0.1466110351,
				"element": "C" 
			},
			{
				"x": -1.7375699994,
				"y": -0.3698750898,
				"z": 0.568460731,
				"element": "C" 
			},
			{
				"x": -2.3192583911,
				"y": -1.6956562727,
				"z": 0.3775629372,
				"element": "C" 
			},
			{
				"x": -3.2737745475,
				"y": -2.2624077973,
				"z": 0.8784005715,
				"element": "O" 
			},
			{
				"x": -1.5034085315,
				"y": -2.2828608693,
				"z": -0.6308606649,
				"element": "N" 
			},
			{
				"x": -0.3562880309,
				"y": -1.4721731634,
				"z": -0.8355066322,
				"element": "O" 
			},
			{
				"x": 2.1140709407,
				"y": -0.4425617904,
				"z": -0.5123547094,
				"element": "H" 
			},
			{
				"x": 1.8408418345,
				"y": 0.0561513707,
				"z": 1.0163722253,
				"element": "H" 
			},
			{
				"x": 0.4637445631,
				"y": 1.0509020924,
				"z": -1.3802944257,
				"element": "H" 
			},
			{
				"x": 0.1573678911,
				"y": 1.6168780144,
				"z": 0.2578358404,
				"element": "H" 
			},
			{
				"x": -2.1440227346,
				"y": 0.3963992983,
				"z": 1.2097824286,
				"element": "H" 
			},
			{
				"x": -1.210945985,
				"y": -3.2482771439,
				"z": -0.5159512931,
				"element": "H" 
			}
		],
		 "valence_orbital": [ 
			{
				"type": "occ",
				"energy": -0.37745,
				"method": "rhf"
			},
			{
				"type": "occ",
				"energy": -0.29813,
				"method": "rhf"
			},
			{
				"type": "occ",
				"energy": -0.26877,
				"method": "rhf"
			},
			{
				"type": "occ",
				"energy": -0.25275,
				"method": "rhf"
			},
			{
				"type": "occ",
				"energy": -0.24383,
				"method": "rhf"
			},
			{
				"type": "unocc",
				"energy": -0.03029,
				"method": "rhf"
			},
			{
				"type": "unocc",
				"energy": 0.04406,
				"method": "rhf"
			},
			{
				"type": "unocc",
				"energy": 0.0764,
				"method": "rhf"
			},
			{
				"type": "unocc",
				"energy": 0.09048,
				"method": "rhf"
			},
			{
				"type": "unocc",
				"energy": 0.09947,
				"method": "rhf"
			}
		],
		"cosmo_sigma_profile": { 
			"-0.025": 0.0,
			"-0.024": 0.0,
			"-0.023": 0.0,
			"-0.022": 0.0,
			"-0.021": 0.0,
			"-0.02": 0.0,
			"-0.019": 0.0,
			"-0.018": 0.0,
			"-0.017": 0.43084758067,
			"-0.016": 1.41942747159,
			"-0.015": 1.34435088058,
			"-0.014": 1.17010210047,
			"-0.013": 0.584861544266,
			"-0.012": 0.692188135919,
			"-0.011": 1.68171097441,
			"-0.01": 3.71051904771,
			"-0.009": 4.00198869895,
			"-0.008": 5.61881916955,
			"-0.007": 7.0366083332,
			"-0.006": 11.4925078736,
			"-0.005": 9.01413761794,
			"-0.004": 8.32254783232,
			"-0.003": 8.24210150647,
			"-0.002": 6.44740706215,
			"-0.001": 5.19219670104,
			"0.0": 6.70963335209,
			"0.001": 7.31902729373,
			"0.002": 6.86259927256,
			"0.003": 5.12142337745,
			"0.004": 5.28581900113,
			"0.005": 3.74347588749,
			"0.006": 4.42934395864,
			"0.007": 3.02067978545,
			"0.008": 3.45468552949,
			"0.009": 2.08969278083,
			"0.01": 2.30794419895,
			"0.011": 2.72858011663,
			"0.012": 3.51315102518,
			"0.013": 7.13090358408,
			"0.014": 3.4218273598,
			"0.015": 0.733273731424,
			"0.016": 1.00172970453,
			"0.017": 0.532474775346,
			"0.018": 0.559859326105,
			"0.019": 0.181146954293,
			"0.02": 0.0,
			"0.021": 0.0,
			"0.022": 0.0,
			"0.023": 0.0,
			"0.024": 0.0,
			"0.025": 0.0
		}
	}
}
