{
	 "smiles": "ClC1=CC=CC2=C(Cl)C=CC=C12", 
	 "Tm": 380.15, 
	 "num_atms": 18, 
	 "gaussian": { 
		 "optdone": 1, 
		 "sigma_profile": "yes", 
		 "theory": "DFT", 
		 "functional": "B3LYP", 
		 "basiset": "6-31G**", 
		 "properties": { 
			 "R2extent": 3112.6029, 
			 "electric_dipole_moment_norm": 0.0, 
			 "electric_quadrupole_moment_norm": 11.8950235758, 
			 "total_energy": -1305.07576612, 
			 "HOMO_LUMO_gap": 0.16691, 
			 "cosmo_polarized_energy": -4.12, 
			 "cosmo_cavitation_energy": 25.1, 
			 "cosmo_dispersion_energy": -19.21, 
			 "cosmo_repulsion_energy": 1.5, 
			 "cosmo_total_nonelectrostatic_energy": 7.38, 
			 "SMD_solvation_energy": 3.51 
		},
		"coords": [
			{
				"x": 0.9150175712,
				"y": -3.2427450792,
				"z": -1.1730139635,
				"element": "Cl" 
			},
			{
				"x": 0.1171115705,
				"y": -1.6799020687,
				"z": -1.3245107345,
				"element": "C" 
			},
			{
				"x": -1.146019181,
				"y": -1.6479597915,
				"z": -1.8667545303,
				"element": "C" 
			},
			{
				"x": -1.8152254847,
				"y": -0.411655463,
				"z": -2.0030984577,
				"element": "C" 
			},
			{
				"x": -1.2178816455,
				"y": 0.7594033633,
				"z": -1.5998442308,
				"element": "C" 
			},
			{
				"x": 0.0852960235,
				"y": 0.7499823876,
				"z": -1.0374667099,
				"element": "C" 
			},
			{
				"x": 0.7567774045,
				"y": 1.9312022662,
				"z": -0.6008564484,
				"element": "C" 
			},
			{
				"x": -0.0411293554,
				"y": 3.4940443127,
				"z": -0.7523528754,
				"element": "Cl" 
			},
			{
				"x": 2.0199081318,
				"y": 1.8992597744,
				"z": -0.0586126269,
				"element": "C" 
			},
			{
				"x": 2.6891144039,
				"y": 0.6629555482,
				"z": 0.0777320092,
				"element": "C" 
			},
			{
				"x": 2.0917706041,
				"y": -0.5081033763,
				"z": -0.3255223129,
				"element": "C" 
			},
			{
				"x": 0.7885928181,
				"y": -0.4986824116,
				"z": -0.8878996138,
				"element": "C" 
			},
			{
				"x": -1.6201114575,
				"y": -2.5692443592,
				"z": -2.185836946,
				"element": "H" 
			},
			{
				"x": -2.8122465812,
				"y": -0.3949163287,
				"z": -2.432182883,
				"element": "H" 
			},
			{
				"x": -1.7365152341,
				"y": 1.7041491716,
				"z": -1.7071940447,
				"element": "H" 
			},
			{
				"x": 2.4940005037,
				"y": 2.8205444046,
				"z": 0.2604696898,
				"element": "H" 
			},
			{
				"x": 3.6861353983,
				"y": 0.6462165285,
				"z": 0.5068165427,
				"element": "H" 
			},
			{
				"x": 2.6104045098,
				"y": -1.452848879,
				"z": -0.2181718637,
				"element": "H" 
			}
		],
		 "valence_orbital": [ 
			{
				"type": "occ",
				"energy": -0.32291,
				"method": "rhf"
			},
			{
				"type": "occ",
				"energy": -0.31306,
				"method": "rhf"
			},
			{
				"type": "occ",
				"energy": -0.27439,
				"method": "rhf"
			},
			{
				"type": "occ",
				"energy": -0.26305,
				"method": "rhf"
			},
			{
				"type": "occ",
				"energy": -0.22524,
				"method": "rhf"
			},
			{
				"type": "unocc",
				"energy": -0.05833,
				"method": "rhf"
			},
			{
				"type": "unocc",
				"energy": -0.02828,
				"method": "rhf"
			},
			{
				"type": "unocc",
				"energy": 0.01702,
				"method": "rhf"
			},
			{
				"type": "unocc",
				"energy": 0.01831,
				"method": "rhf"
			},
			{
				"type": "unocc",
				"energy": 0.03632,
				"method": "rhf"
			}
		],
		"cosmo_sigma_profile": { 
			"-0.025": 0.0,
			"-0.024": 0.0,
			"-0.023": 0.0,
			"-0.022": 0.0,
			"-0.021": 0.0,
			"-0.02": 0.0,
			"-0.019": 0.0,
			"-0.018": 0.0,
			"-0.017": 0.0,
			"-0.016": 0.0,
			"-0.015": 0.0,
			"-0.014": 0.0,
			"-0.013": 0.0,
			"-0.012": 0.0,
			"-0.011": 0.0,
			"-0.01": 0.0,
			"-0.009": 0.0,
			"-0.008": 1.00937114233,
			"-0.007": 7.45637739082,
			"-0.006": 10.7301413019,
			"-0.005": 11.3490657414,
			"-0.004": 9.69027972823,
			"-0.003": 8.59725533147,
			"-0.002": 11.986246991,
			"-0.001": 11.5424370246,
			"0.0": 19.7970817851,
			"0.001": 29.6434712535,
			"0.002": 35.8289916781,
			"0.003": 26.0266831337,
			"0.004": 17.4563043384,
			"0.005": 6.03079352561,
			"0.006": 0.0,
			"0.007": 0.0,
			"0.008": 0.0,
			"0.009": 0.0,
			"0.01": 0.0,
			"0.011": 0.0,
			"0.012": 0.0,
			"0.013": 0.0,
			"0.014": 0.0,
			"0.015": 0.0,
			"0.016": 0.0,
			"0.017": 0.0,
			"0.018": 0.0,
			"0.019": 0.0,
			"0.02": 0.0,
			"0.021": 0.0,
			"0.022": 0.0,
			"0.023": 0.0,
			"0.024": 0.0,
			"0.025": 0.0
		}
	}
}
