{
	 "smiles": "NS(=O)(=O)C1=CC=C(C=C1)N=C=S", 
	 "Tm": 484.15, 
	 "num_atms": 19, 
	 "gaussian": { 
		 "optdone": 1, 
		 "sigma_profile": "yes", 
		 "theory": "DFT", 
		 "functional": "B3LYP", 
		 "basiset": "6-31G**", 
		 "properties": { 
			 "R2extent": 6213.8321, 
			 "electric_dipole_moment_norm": 3.88114226871, 
			 "electric_quadrupole_moment_norm": 26.2040449572, 
			 "total_energy": -1326.60786688, 
			 "HOMO_LUMO_gap": 0.17205, 
			 "cosmo_polarized_energy": -19.87, 
			 "cosmo_cavitation_energy": 28.62, 
			 "cosmo_dispersion_energy": -21.72, 
			 "cosmo_repulsion_energy": 1.65, 
			 "cosmo_total_nonelectrostatic_energy": 8.55, 
			 "SMD_solvation_energy": 5.2 
		},
		"coords": [
			{
				"x": -2.2330930028,
				"y": 0.5292757292,
				"z": -0.4903970468,
				"element": "N" 
			},
			{
				"x": -1.9418992771,
				"y": 0.8583881434,
				"z": 1.1290379715,
				"element": "S" 
			},
			{
				"x": -2.0558041747,
				"y": 2.3088437342,
				"z": 1.2629775064,
				"element": "O" 
			},
			{
				"x": -2.7672837026,
				"y": -0.086562371,
				"z": 1.8777298543,
				"element": "O" 
			},
			{
				"x": -0.2236150938,
				"y": 0.4307251894,
				"z": 1.4512853425,
				"element": "C" 
			},
			{
				"x": 0.0969172715,
				"y": -0.8650351164,
				"z": 1.8660021804,
				"element": "C" 
			},
			{
				"x": 1.4253114626,
				"y": -1.2044739196,
				"z": 2.0959265318,
				"element": "C" 
			},
			{
				"x": 2.4323280295,
				"y": -0.2394056653,
				"z": 1.9138403474,
				"element": "C" 
			},
			{
				"x": 2.1001525948,
				"y": 1.06700909,
				"z": 1.5118313781,
				"element": "C" 
			},
			{
				"x": 0.7697623652,
				"y": 1.399674049,
				"z": 1.2836363498,
				"element": "C" 
			},
			{
				"x": 3.7410688091,
				"y": -0.5707197077,
				"z": 2.1377617833,
				"element": "N" 
			},
			{
				"x": 4.8782644864,
				"y": -0.8558410431,
				"z": 2.3326643315,
				"element": "C" 
			},
			{
				"x": 6.3995742245,
				"y": -1.2389755869,
				"z": 2.5903757247,
				"element": "S" 
			},
			{
				"x": -1.7110159162,
				"y": 1.1242915064,
				"z": -1.1250010603,
				"element": "H" 
			},
			{
				"x": -2.1810849476,
				"y": -0.457818994,
				"z": -0.718992359,
				"element": "H" 
			},
			{
				"x": -0.6937654926,
				"y": -1.5897007138,
				"z": 2.0281701962,
				"element": "H" 
			},
			{
				"x": 1.69702955,
				"y": -2.2017718796,
				"z": 2.4237502789,
				"element": "H" 
			},
			{
				"x": 2.8870401935,
				"y": 1.8037331676,
				"z": 1.3937216608,
				"element": "H" 
			},
			{
				"x": 0.4945126205,
				"y": 2.4097643881,
				"z": 0.9997790285,
				"element": "H" 
			}
		],
		 "valence_orbital": [ 
			{
				"type": "occ",
				"energy": -0.31402,
				"method": "rhf"
			},
			{
				"type": "occ",
				"energy": -0.30197,
				"method": "rhf"
			},
			{
				"type": "occ",
				"energy": -0.29436,
				"method": "rhf"
			},
			{
				"type": "occ",
				"energy": -0.26641,
				"method": "rhf"
			},
			{
				"type": "occ",
				"energy": -0.24887,
				"method": "rhf"
			},
			{
				"type": "unocc",
				"energy": -0.07682,
				"method": "rhf"
			},
			{
				"type": "unocc",
				"energy": -0.04327,
				"method": "rhf"
			},
			{
				"type": "unocc",
				"energy": -0.01043,
				"method": "rhf"
			},
			{
				"type": "unocc",
				"energy": 0.01445,
				"method": "rhf"
			},
			{
				"type": "unocc",
				"energy": 0.03967,
				"method": "rhf"
			}
		],
		"cosmo_sigma_profile": { 
			"-0.025": 0.0,
			"-0.024": 0.0,
			"-0.023": 0.0,
			"-0.022": 0.0,
			"-0.021": 0.0,
			"-0.02": 0.0,
			"-0.019": 0.0,
			"-0.018": 0.0,
			"-0.017": 0.0,
			"-0.016": 0.338626937418,
			"-0.015": 2.43310668281,
			"-0.014": 3.07511271714,
			"-0.013": 2.83787653874,
			"-0.012": 3.08033378455,
			"-0.011": 2.30666895015,
			"-0.01": 2.07490451939,
			"-0.009": 2.44237852679,
			"-0.008": 8.64410279131,
			"-0.007": 10.9892578923,
			"-0.006": 10.2906892357,
			"-0.005": 6.27801010604,
			"-0.004": 8.05603689965,
			"-0.003": 11.558242443,
			"-0.002": 17.1365341304,
			"-0.001": 16.3431847205,
			"0.0": 17.9287217699,
			"0.001": 20.0234890693,
			"0.002": 10.4990532903,
			"0.003": 7.67491798558,
			"0.004": 9.06749022313,
			"0.005": 16.2929269945,
			"0.006": 10.0832451219,
			"0.007": 3.50680303922,
			"0.008": 4.45817517579,
			"0.009": 4.94788185839,
			"0.01": 7.67188803177,
			"0.011": 10.4430100124,
			"0.012": 3.47909997558,
			"0.013": 0.0539608082969,
			"0.014": 0.0,
			"0.015": 0.0,
			"0.016": 0.0,
			"0.017": 0.0,
			"0.018": 0.0,
			"0.019": 0.0,
			"0.02": 0.0,
			"0.021": 0.0,
			"0.022": 0.0,
			"0.023": 0.0,
			"0.024": 0.0,
			"0.025": 0.0
		}
	}
}
