{
	 "smiles": "CC1=CC(C(=O)CCC(O)=O)=C(C)C=C1", 
	 "Tm": 355.15, 
	 "num_atms": 29, 
	 "gaussian": { 
		 "optdone": 1, 
		 "sigma_profile": "yes", 
		 "theory": "DFT", 
		 "functional": "B3LYP", 
		 "basiset": "6-31G**", 
		 "properties": { 
			 "R2extent": 4384.0277, 
			 "electric_dipole_moment_norm": 7.66645750331, 
			 "electric_quadrupole_moment_norm": 28.1501927649, 
			 "total_energy": -691.418853448, 
			 "HOMO_LUMO_gap": 0.1696, 
			 "cosmo_polarized_energy": -15.01, 
			 "cosmo_cavitation_energy": 32.07, 
			 "cosmo_dispersion_energy": -23.21, 
			 "cosmo_repulsion_energy": 1.82, 
			 "cosmo_total_nonelectrostatic_energy": 10.68, 
			 "SMD_solvation_energy": 6.74 
		},
		"coords": [
			{
				"x": -2.6651652765,
				"y": -1.5953116247,
				"z": 2.7297308712,
				"element": "C" 
			},
			{
				"x": -1.9753328072,
				"y": -0.5351489257,
				"z": 1.9047451309,
				"element": "C" 
			},
			{
				"x": -0.9498324619,
				"y": -0.8534305558,
				"z": 1.0173187704,
				"element": "C" 
			},
			{
				"x": -0.2772008217,
				"y": 0.1186649541,
				"z": 0.2481403276,
				"element": "C" 
			},
			{
				"x": 0.8223157698,
				"y": -0.3096050571,
				"z": -0.6581806209,
				"element": "C" 
			},
			{
				"x": 1.53030948,
				"y": 0.517294591,
				"z": -1.2391993672,
				"element": "O" 
			},
			{
				"x": 1.0715847077,
				"y": -1.8015925547,
				"z": -0.8841447503,
				"element": "C" 
			},
			{
				"x": 2.0310772598,
				"y": -2.1271405529,
				"z": -2.0457862318,
				"element": "C" 
			},
			{
				"x": 3.5203088755,
				"y": -1.9560429277,
				"z": -1.7286871337,
				"element": "C" 
			},
			{
				"x": 3.9338028425,
				"y": -0.6940960132,
				"z": -1.5201690953,
				"element": "O" 
			},
			{
				"x": 4.285482814,
				"y": -2.8913291877,
				"z": -1.6727034864,
				"element": "O" 
			},
			{
				"x": -0.6519928063,
				"y": 1.4840323284,
				"z": 0.3680730267,
				"element": "C" 
			},
			{
				"x": -0.0103341021,
				"y": 2.6160696681,
				"z": -0.3967643681,
				"element": "C" 
			},
			{
				"x": -1.694328126,
				"y": 1.78843205,
				"z": 1.2540930432,
				"element": "C" 
			},
			{
				"x": -2.3414015198,
				"y": 0.8135117519,
				"z": 2.006413467,
				"element": "C" 
			},
			{
				"x": -2.4796298566,
				"y": -1.4489492283,
				"z": 3.8001133949,
				"element": "H" 
			},
			{
				"x": -2.316338853,
				"y": -2.5975641793,
				"z": 2.4668194494,
				"element": "H" 
			},
			{
				"x": -3.7508041311,
				"y": -1.5692087569,
				"z": 2.5849253095,
				"element": "H" 
			},
			{
				"x": -0.6586499364,
				"y": -1.8946062908,
				"z": 0.9327933144,
				"element": "H" 
			},
			{
				"x": 1.4397156694,
				"y": -2.2449827931,
				"z": 0.0506635059,
				"element": "H" 
			},
			{
				"x": 0.1074759422,
				"y": -2.2835867347,
				"z": -1.0797623443,
				"element": "H" 
			},
			{
				"x": 1.7726551208,
				"y": -1.5066867157,
				"z": -2.9117898874,
				"element": "H" 
			},
			{
				"x": 1.9004998777,
				"y": -3.1732366209,
				"z": -2.3267504129,
				"element": "H" 
			},
			{
				"x": 3.1583914458,
				"y": -0.0918976747,
				"z": -1.5667633897,
				"element": "H" 
			},
			{
				"x": -0.0361181323,
				"y": 2.4461287709,
				"z": -1.4764863104,
				"element": "H" 
			},
			{
				"x": 1.0461162003,
				"y": 2.727882719,
				"z": -0.1381537376,
				"element": "H" 
			},
			{
				"x": -0.5272945372,
				"y": 3.5540912707,
				"z": -0.1760302838,
				"element": "H" 
			},
			{
				"x": -2.0029318437,
				"y": 2.825424985,
				"z": 1.3544586065,
				"element": "H" 
			},
			{
				"x": -3.1423807938,
				"y": 1.1041833049,
				"z": 2.6821832021,
				"element": "H" 
			}
		],
		 "valence_orbital": [ 
			{
				"type": "occ",
				"energy": -0.29017,
				"method": "rhf"
			},
			{
				"type": "occ",
				"energy": -0.27645,
				"method": "rhf"
			},
			{
				"type": "occ",
				"energy": -0.27384,
				"method": "rhf"
			},
			{
				"type": "occ",
				"energy": -0.25573,
				"method": "rhf"
			},
			{
				"type": "occ",
				"energy": -0.24788,
				"method": "rhf"
			},
			{
				"type": "unocc",
				"energy": -0.07828,
				"method": "rhf"
			},
			{
				"type": "unocc",
				"energy": -0.0172,
				"method": "rhf"
			},
			{
				"type": "unocc",
				"energy": 0.01605,
				"method": "rhf"
			},
			{
				"type": "unocc",
				"energy": 0.0263,
				"method": "rhf"
			},
			{
				"type": "unocc",
				"energy": 0.08027,
				"method": "rhf"
			}
		],
		"cosmo_sigma_profile": { 
			"-0.025": 0.0,
			"-0.024": 0.0,
			"-0.023": 0.0,
			"-0.022": 0.0,
			"-0.021": 0.0,
			"-0.02": 0.0,
			"-0.019": 0.0,
			"-0.018": 0.0,
			"-0.017": 0.0,
			"-0.016": 0.0,
			"-0.015": 0.0,
			"-0.014": 0.0,
			"-0.013": 0.0,
			"-0.012": 0.0,
			"-0.011": 0.0,
			"-0.01": 0.0,
			"-0.009": 0.0,
			"-0.008": 1.00429213678,
			"-0.007": 9.96168447561,
			"-0.006": 16.2838726233,
			"-0.005": 21.0571504583,
			"-0.004": 23.7292462089,
			"-0.003": 21.9757991612,
			"-0.002": 22.2944725921,
			"-0.001": 21.7473069879,
			"0.0": 22.2160222501,
			"0.001": 16.9306061359,
			"0.002": 11.0351204373,
			"0.003": 12.7042943408,
			"0.004": 13.3886957998,
			"0.005": 4.26449304499,
			"0.006": 3.26777895055,
			"0.007": 4.00075059967,
			"0.008": 3.2281565306,
			"0.009": 2.96303694131,
			"0.01": 3.32219237321,
			"0.011": 5.00220103366,
			"0.012": 6.53943214881,
			"0.013": 5.03200079514,
			"0.014": 1.51931350113,
			"0.015": 0.0,
			"0.016": 0.0,
			"0.017": 0.0,
			"0.018": 0.0,
			"0.019": 0.0,
			"0.02": 0.0,
			"0.021": 0.0,
			"0.022": 0.0,
			"0.023": 0.0,
			"0.024": 0.0,
			"0.025": 0.0
		}
	}
}
