{
	 "smiles": "OC(=O)C1=CC=C(C=C1)C1=CC=NC=C1", 
	 "Tm": 573.15, 
	 "num_atms": 24, 
	 "gaussian": { 
		 "optdone": 1, 
		 "sigma_profile": "yes", 
		 "theory": "DFT", 
		 "functional": "B3LYP", 
		 "basiset": "6-31G**", 
		 "properties": { 
			 "R2extent": 4478.7853, 
			 "electric_dipole_moment_norm": 2.99774331623, 
			 "electric_quadrupole_moment_norm": 35.7589556696, 
			 "total_energy": -667.90835327, 
			 "HOMO_LUMO_gap": 0.18604, 
			 "cosmo_polarized_energy": -17.74, 
			 "cosmo_cavitation_energy": 29.01, 
			 "cosmo_dispersion_energy": -21.34, 
			 "cosmo_repulsion_energy": 1.63, 
			 "cosmo_total_nonelectrostatic_energy": 9.3, 
			 "SMD_solvation_energy": 4.56 
		},
		"coords": [
			{
				"x": -3.3942579407,
				"y": -3.1058710971,
				"z": -2.0254817702,
				"element": "O" 
			},
			{
				"x": -3.3692738043,
				"y": -2.244738042,
				"z": -0.9727923162,
				"element": "C" 
			},
			{
				"x": -4.2898282789,
				"y": -2.2202980305,
				"z": -0.190378641,
				"element": "O" 
			},
			{
				"x": -2.165435448,
				"y": -1.3592545395,
				"z": -0.8516538958,
				"element": "C" 
			},
			{
				"x": -1.319445284,
				"y": -1.0581974478,
				"z": -1.9280924912,
				"element": "C" 
			},
			{
				"x": -0.2262520101,
				"y": -0.2140793752,
				"z": -1.753593187,
				"element": "C" 
			},
			{
				"x": 0.055007913,
				"y": 0.3492612723,
				"z": -0.4982262475,
				"element": "C" 
			},
			{
				"x": -0.8059510121,
				"y": 0.0519601778,
				"z": 0.5736002866,
				"element": "C" 
			},
			{
				"x": -1.9045631028,
				"y": -0.7802451149,
				"z": 0.3976201965,
				"element": "C" 
			},
			{
				"x": 1.2260148522,
				"y": 1.24034268,
				"z": -0.3100420786,
				"element": "C" 
			},
			{
				"x": 1.633105283,
				"y": 2.1421704362,
				"z": -1.3048533107,
				"element": "C" 
			},
			{
				"x": 2.7414357451,
				"y": 2.9560649463,
				"z": -1.0763933086,
				"element": "C" 
			},
			{
				"x": 3.4632634131,
				"y": 2.938152279,
				"z": 0.0512604932,
				"element": "N" 
			},
			{
				"x": 3.0729674908,
				"y": 2.07733886,
				"z": 0.9997570853,
				"element": "C" 
			},
			{
				"x": 1.9802984433,
				"y": 1.2211348786,
				"z": 0.8728625271,
				"element": "C" 
			},
			{
				"x": -2.5303666971,
				"y": -3.1306674943,
				"z": -2.4593617129,
				"element": "H" 
			},
			{
				"x": -1.5198490086,
				"y": -1.4511620075,
				"z": -2.9220891404,
				"element": "H" 
			},
			{
				"x": 0.4266232328,
				"y": -0.0044288155,
				"z": -2.5949442428,
				"element": "H" 
			},
			{
				"x": -0.6259611491,
				"y": 0.501916983,
				"z": 1.5449322942,
				"element": "H" 
			},
			{
				"x": -2.582729014,
				"y": -0.9932936742,
				"z": 1.216837622,
				"element": "H" 
			},
			{
				"x": 1.0798772759,
				"y": 2.2310716049,
				"z": -2.2344342439,
				"element": "H" 
			},
			{
				"x": 3.0615733179,
				"y": 3.6638196154,
				"z": -1.8391623663,
				"element": "H" 
			},
			{
				"x": 3.668604011,
				"y": 2.065725512,
				"z": 1.9109413872,
				"element": "H" 
			},
			{
				"x": 1.7377417713,
				"y": 0.5314763929,
				"z": 1.6750870608,
				"element": "H" 
			}
		],
		 "valence_orbital": [ 
			{
				"type": "occ",
				"energy": -0.28168,
				"method": "rhf"
			},
			{
				"type": "occ",
				"energy": -0.27746,
				"method": "rhf"
			},
			{
				"type": "occ",
				"energy": -0.27257,
				"method": "rhf"
			},
			{
				"type": "occ",
				"energy": -0.26272,
				"method": "rhf"
			},
			{
				"type": "occ",
				"energy": -0.25932,
				"method": "rhf"
			},
			{
				"type": "unocc",
				"energy": -0.07328,
				"method": "rhf"
			},
			{
				"type": "unocc",
				"energy": -0.03208,
				"method": "rhf"
			},
			{
				"type": "unocc",
				"energy": -0.02161,
				"method": "rhf"
			},
			{
				"type": "unocc",
				"energy": -0.01942,
				"method": "rhf"
			},
			{
				"type": "unocc",
				"energy": 0.04468,
				"method": "rhf"
			}
		],
		"cosmo_sigma_profile": { 
			"-0.025": 0.0,
			"-0.024": 0.0,
			"-0.023": 0.0,
			"-0.022": 0.0,
			"-0.021": 0.0,
			"-0.02": 0.0,
			"-0.019": 0.170454602876,
			"-0.018": 1.17295119664,
			"-0.017": 0.915244945324,
			"-0.016": 0.760356392775,
			"-0.015": 1.40091357607,
			"-0.014": 0.616484808268,
			"-0.013": 0.890309316456,
			"-0.012": 1.06539715148,
			"-0.011": 1.60678471851,
			"-0.01": 1.00527718597,
			"-0.009": 1.25515462729,
			"-0.008": 2.52365255884,
			"-0.007": 11.0858164811,
			"-0.006": 17.4032445263,
			"-0.005": 15.6028565458,
			"-0.004": 13.5920669837,
			"-0.003": 12.6629044668,
			"-0.002": 12.1621879637,
			"-0.001": 13.1360978093,
			"0.0": 15.3422021381,
			"0.001": 17.8853966604,
			"0.002": 28.9415053733,
			"0.003": 14.5736941362,
			"0.004": 4.20187976438,
			"0.005": 4.3845637988,
			"0.006": 4.19179432883,
			"0.007": 3.17823434678,
			"0.008": 4.16695608661,
			"0.009": 4.61706541923,
			"0.01": 5.80941875368,
			"0.011": 6.27299119611,
			"0.012": 5.70108333229,
			"0.013": 2.24340698548,
			"0.014": 1.10899630934,
			"0.015": 0.84261080111,
			"0.016": 0.745055322283,
			"0.017": 0.334165749908,
			"0.018": 0.0,
			"0.019": 0.0,
			"0.02": 0.0,
			"0.021": 0.0,
			"0.022": 0.0,
			"0.023": 0.0,
			"0.024": 0.0,
			"0.025": 0.0
		}
	}
}
