{
	 "smiles": "CC1=NN(C(C)=C1CC(O)=O)C1=CC=C(F)C=C1", 
	 "Tm": 445.15, 
	 "num_atms": 31, 
	 "gaussian": { 
		 "optdone": 1, 
		 "sigma_profile": "yes", 
		 "theory": "DFT", 
		 "functional": "B3LYP", 
		 "basiset": "6-31G**", 
		 "properties": { 
			 "R2extent": 6205.2785, 
			 "electric_dipole_moment_norm": 2.77908567158, 
			 "electric_quadrupole_moment_norm": 5.82230899472, 
			 "total_energy": -863.014725375, 
			 "HOMO_LUMO_gap": 0.2023, 
			 "cosmo_polarized_energy": -14.37, 
			 "cosmo_cavitation_energy": 35.93, 
			 "cosmo_dispersion_energy": -24.98, 
			 "cosmo_repulsion_energy": 1.92, 
			 "cosmo_total_nonelectrostatic_energy": 12.87, 
			 "SMD_solvation_energy": 6.86 
		},
		"coords": [
			{
				"x": 2.3395903583,
				"y": 2.6033895348,
				"z": -1.5480356802,
				"element": "C" 
			},
			{
				"x": 1.4674934381,
				"y": 1.3995418419,
				"z": -1.3566484152,
				"element": "C" 
			},
			{
				"x": 1.272449805,
				"y": 0.903076224,
				"z": -0.1399323809,
				"element": "N" 
			},
			{
				"x": 0.4335583541,
				"y": -0.1592301048,
				"z": -0.3156461794,
				"element": "N" 
			},
			{
				"x": 0.1124747651,
				"y": -0.352552941,
				"z": -1.6373816997,
				"element": "C" 
			},
			{
				"x": -0.7325929777,
				"y": -1.4726924195,
				"z": -2.1555727212,
				"element": "C" 
			},
			{
				"x": 0.7627687631,
				"y": 0.6512648366,
				"z": -2.3378341746,
				"element": "C" 
			},
			{
				"x": 0.7369136297,
				"y": 0.8943251891,
				"z": -3.815368509,
				"element": "C" 
			},
			{
				"x": -0.6114438422,
				"y": 1.3519903422,
				"z": -4.3541010229,
				"element": "C" 
			},
			{
				"x": -0.4677914663,
				"y": 2.0238457992,
				"z": -5.5227583333,
				"element": "O" 
			},
			{
				"x": -1.6941372809,
				"y": 1.1306892824,
				"z": -3.8598664056,
				"element": "O" 
			},
			{
				"x": 0.0523468356,
				"y": -0.9150998654,
				"z": 0.8248788157,
				"element": "C" 
			},
			{
				"x": -1.259665259,
				"y": -1.3762030797,
				"z": 0.9818193223,
				"element": "C" 
			},
			{
				"x": -1.6108393918,
				"y": -2.1172419799,
				"z": 2.1103266601,
				"element": "C" 
			},
			{
				"x": -0.6471026332,
				"y": -2.3631503603,
				"z": 3.0802014492,
				"element": "C" 
			},
			{
				"x": -0.9856001271,
				"y": -3.073544477,
				"z": 4.1763537522,
				"element": "F" 
			},
			{
				"x": 0.655686875,
				"y": -1.8903754242,
				"z": 2.9563082644,
				"element": "C" 
			},
			{
				"x": 1.0059940333,
				"y": -1.1675368763,
				"z": 1.81966375,
				"element": "C" 
			},
			{
				"x": 2.7454681369,
				"y": 2.9174803268,
				"z": -0.584130833,
				"element": "H" 
			},
			{
				"x": 1.7810924796,
				"y": 3.4446811504,
				"z": -1.9744757022,
				"element": "H" 
			},
			{
				"x": 3.1789472327,
				"y": 2.3939292394,
				"z": -2.2215838717,
				"element": "H" 
			},
			{
				"x": -1.788617951,
				"y": -1.190266053,
				"z": -2.2175420466,
				"element": "H" 
			},
			{
				"x": -0.6454564593,
				"y": -2.3684742376,
				"z": -1.5354165877,
				"element": "H" 
			},
			{
				"x": -0.41595825,
				"y": -1.7303588302,
				"z": -3.1705274684,
				"element": "H" 
			},
			{
				"x": 1.491907052,
				"y": 1.6292291522,
				"z": -4.1073903521,
				"element": "H" 
			},
			{
				"x": 0.9838479787,
				"y": -0.0191884509,
				"z": -4.377446184,
				"element": "H" 
			},
			{
				"x": -1.3669874783,
				"y": 2.2420302163,
				"z": -5.8212709615,
				"element": "H" 
			},
			{
				"x": -2.0125552065,
				"y": -1.1388059674,
				"z": 0.2395894091,
				"element": "H" 
			},
			{
				"x": -2.6214874964,
				"y": -2.4839332453,
				"z": 2.2518089419,
				"element": "H" 
			},
			{
				"x": 1.3775320666,
				"y": -2.0967951867,
				"z": 3.7389195144,
				"element": "H" 
			},
			{
				"x": 2.009864016,
				"y": -0.780823636,
				"z": 1.69245965,
				"element": "H" 
			}
		],
		 "valence_orbital": [ 
			{
				"type": "occ",
				"energy": -0.27927,
				"method": "rhf"
			},
			{
				"type": "occ",
				"energy": -0.26909,
				"method": "rhf"
			},
			{
				"type": "occ",
				"energy": -0.26458,
				"method": "rhf"
			},
			{
				"type": "occ",
				"energy": -0.23106,
				"method": "rhf"
			},
			{
				"type": "occ",
				"energy": -0.21803,
				"method": "rhf"
			},
			{
				"type": "unocc",
				"energy": -0.01573,
				"method": "rhf"
			},
			{
				"type": "unocc",
				"energy": -0.01486,
				"method": "rhf"
			},
			{
				"type": "unocc",
				"energy": 0.00618,
				"method": "rhf"
			},
			{
				"type": "unocc",
				"energy": 0.0379,
				"method": "rhf"
			},
			{
				"type": "unocc",
				"energy": 0.063,
				"method": "rhf"
			}
		],
		"cosmo_sigma_profile": { 
			"-0.025": 0.0,
			"-0.024": 0.0,
			"-0.023": 0.0,
			"-0.022": 0.0,
			"-0.021": 0.0,
			"-0.02": 0.0,
			"-0.019": 0.0,
			"-0.018": 0.645800010225,
			"-0.017": 1.10710517574,
			"-0.016": 0.726030847646,
			"-0.015": 0.836261405653,
			"-0.014": 0.727609851178,
			"-0.013": 0.722018914454,
			"-0.012": 0.509834705694,
			"-0.011": 0.541910011667,
			"-0.01": 0.802575343592,
			"-0.009": 0.809271171102,
			"-0.008": 2.33843489805,
			"-0.007": 10.5772956075,
			"-0.006": 12.0468199286,
			"-0.005": 18.3816210004,
			"-0.004": 22.9548208427,
			"-0.003": 21.4404510183,
			"-0.002": 20.659918088,
			"-0.001": 21.2616578841,
			"0.0": 23.5965814743,
			"0.001": 19.9396376807,
			"0.002": 19.0173331069,
			"0.003": 20.9565966932,
			"0.004": 19.4461218252,
			"0.005": 9.63337191534,
			"0.006": 5.24852339721,
			"0.007": 5.71282652458,
			"0.008": 4.88712539014,
			"0.009": 5.52520421372,
			"0.01": 3.91893874283,
			"0.011": 4.36420792513,
			"0.012": 3.91406791848,
			"0.013": 0.500705084691,
			"0.014": 1.22293898085,
			"0.015": 0.542904235399,
			"0.016": 0.107837424732,
			"0.017": 0.0,
			"0.018": 0.0,
			"0.019": 0.0,
			"0.02": 0.0,
			"0.021": 0.0,
			"0.022": 0.0,
			"0.023": 0.0,
			"0.024": 0.0,
			"0.025": 0.0
		}
	}
}
