{
	 "smiles": "C1=CC2=CC3=CC4=CC=CC=C4C=C3C=C2C=C1", 
	 "Tm": 630.15, 
	 "num_atms": 30, 
	 "gaussian": { 
		 "optdone": 1, 
		 "sigma_profile": "yes", 
		 "theory": "DFT", 
		 "functional": "B3LYP", 
		 "basiset": "6-31G**", 
		 "properties": { 
			 "R2extent": 5895.6359, 
			 "electric_dipole_moment_norm": 0.0, 
			 "electric_quadrupole_moment_norm": 11.5622052533, 
			 "total_energy": -693.169704176, 
			 "HOMO_LUMO_gap": 0.10202, 
			 "cosmo_polarized_energy": -6.95, 
			 "cosmo_cavitation_energy": 33.29, 
			 "cosmo_dispersion_energy": -24.86, 
			 "cosmo_repulsion_energy": 1.82, 
			 "cosmo_total_nonelectrostatic_energy": 10.26, 
			 "SMD_solvation_energy": 4.66 
		},
		"coords": [
			{
				"x": -3.0667648303,
				"y": 2.5902024997,
				"z": 1.5974511915,
				"element": "C" 
			},
			{
				"x": -1.8734746546,
				"y": 2.1181668784,
				"z": 2.0687982602,
				"element": "C" 
			},
			{
				"x": -1.1714739962,
				"y": 1.0702094576,
				"z": 1.3863939893,
				"element": "C" 
			},
			{
				"x": 0.0454443967,
				"y": 0.5697312786,
				"z": 1.8432820116,
				"element": "C" 
			},
			{
				"x": 0.7290476033,
				"y": -0.4612414712,
				"z": 1.1656979077,
				"element": "C" 
			},
			{
				"x": 1.9615503073,
				"y": -0.974515196,
				"z": 1.6204885796,
				"element": "C" 
			},
			{
				"x": 2.6293048005,
				"y": -1.9929428454,
				"z": 0.9444592517,
				"element": "C" 
			},
			{
				"x": 3.8826668319,
				"y": -2.5208803892,
				"z": 1.399509652,
				"element": "C" 
			},
			{
				"x": 4.5160456524,
				"y": -3.5210039939,
				"z": 0.7157645683,
				"element": "C" 
			},
			{
				"x": 3.9388522403,
				"y": -4.0654007746,
				"z": -0.4749996248,
				"element": "C" 
			},
			{
				"x": 2.7455613006,
				"y": -3.5933648097,
				"z": -0.9463458195,
				"element": "C" 
			},
			{
				"x": 2.0435604671,
				"y": -2.5454100086,
				"z": -0.2639395115,
				"element": "C" 
			},
			{
				"x": 0.8266407244,
				"y": -2.0449320517,
				"z": -0.7208264683,
				"element": "C" 
			},
			{
				"x": 0.1430385803,
				"y": -1.0139602971,
				"z": -0.0432427423,
				"element": "C" 
			},
			{
				"x": -1.0894648308,
				"y": -0.500685872,
				"z": -0.4980332069,
				"element": "C" 
			},
			{
				"x": -1.7572179187,
				"y": 0.5177415332,
				"z": 0.1779948268,
				"element": "C" 
			},
			{
				"x": -3.0105794392,
				"y": 1.0456813943,
				"z": -0.2770578291,
				"element": "C" 
			},
			{
				"x": -3.6439579974,
				"y": 2.0458048891,
				"z": 0.4066863601,
				"element": "C" 
			},
			{
				"x": -3.5866773061,
				"y": 3.3843990337,
				"z": 2.1253531269,
				"element": "H" 
			},
			{
				"x": -1.4333860151,
				"y": 2.5304719355,
				"z": 2.9732504981,
				"element": "H" 
			},
			{
				"x": 0.4842940916,
				"y": 0.9835563079,
				"z": 2.748536369,
				"element": "H" 
			},
			{
				"x": 2.4003304756,
				"y": -0.5606388503,
				"z": 2.5257530132,
				"element": "H" 
			},
			{
				"x": 4.3196007955,
				"y": -2.1060417044,
				"z": 2.3043383286,
				"element": "H" 
			},
			{
				"x": 5.4649569024,
				"y": -3.9105851635,
				"z": 1.0728807583,
				"element": "H" 
			},
			{
				"x": 4.4587633283,
				"y": -4.8595982043,
				"z": -1.0029020846,
				"element": "H" 
			},
			{
				"x": 2.3054724015,
				"y": -4.0056709753,
				"z": -1.8507974655,
				"element": "H" 
			},
			{
				"x": 0.3877918333,
				"y": -2.4587567956,
				"z": -1.6260808766,
				"element": "H" 
			},
			{
				"x": -1.5282438739,
				"y": -0.9145627377,
				"z": -1.4032978468,
				"element": "H" 
			},
			{
				"x": -3.4475126107,
				"y": 0.6308410699,
				"z": -1.1818860499,
				"element": "H" 
			},
			{
				"x": -4.59286926,
				"y": 2.4353858626,
				"z": 0.049570833,
				"element": "H" 
			}
		],
		 "valence_orbital": [ 
			{
				"type": "occ",
				"energy": -0.28527,
				"method": "rhf"
			},
			{
				"type": "occ",
				"energy": -0.27517,
				"method": "rhf"
			},
			{
				"type": "occ",
				"energy": -0.23575,
				"method": "rhf"
			},
			{
				"type": "occ",
				"energy": -0.23275,
				"method": "rhf"
			},
			{
				"type": "occ",
				"energy": -0.17883,
				"method": "rhf"
			},
			{
				"type": "unocc",
				"energy": -0.07681,
				"method": "rhf"
			},
			{
				"type": "unocc",
				"energy": -0.01606,
				"method": "rhf"
			},
			{
				"type": "unocc",
				"energy": -0.01413,
				"method": "rhf"
			},
			{
				"type": "unocc",
				"energy": 0.02807,
				"method": "rhf"
			},
			{
				"type": "unocc",
				"energy": 0.04579,
				"method": "rhf"
			}
		],
		"cosmo_sigma_profile": { 
			"-0.025": 0.0,
			"-0.024": 0.0,
			"-0.023": 0.0,
			"-0.022": 0.0,
			"-0.021": 0.0,
			"-0.02": 0.0,
			"-0.019": 0.0,
			"-0.018": 0.0,
			"-0.017": 0.0,
			"-0.016": 0.0,
			"-0.015": 0.0,
			"-0.014": 0.0,
			"-0.013": 0.0,
			"-0.012": 0.0,
			"-0.011": 0.0,
			"-0.01": 0.0,
			"-0.009": 0.0,
			"-0.008": 0.0,
			"-0.007": 0.0,
			"-0.006": 21.2771587735,
			"-0.005": 27.1956184361,
			"-0.004": 22.5128340243,
			"-0.003": 20.8202235736,
			"-0.002": 13.9842882461,
			"-0.001": 14.5472249519,
			"0.0": 12.2238420719,
			"0.001": 14.1832556263,
			"0.002": 15.8250702761,
			"0.003": 33.4919985494,
			"0.004": 50.9148008103,
			"0.005": 19.0225768228,
			"0.006": 2.01440392183,
			"0.007": 0.0,
			"0.008": 0.0,
			"0.009": 0.0,
			"0.01": 0.0,
			"0.011": 0.0,
			"0.012": 0.0,
			"0.013": 0.0,
			"0.014": 0.0,
			"0.015": 0.0,
			"0.016": 0.0,
			"0.017": 0.0,
			"0.018": 0.0,
			"0.019": 0.0,
			"0.02": 0.0,
			"0.021": 0.0,
			"0.022": 0.0,
			"0.023": 0.0,
			"0.024": 0.0,
			"0.025": 0.0
		}
	}
}
