{
	 "smiles": "ON=CC1=C(OC2=CC=CC=C2)C=CS1", 
	 "Tm": 379.15, 
	 "num_atms": 24, 
	 "gaussian": { 
		 "optdone": 1, 
		 "sigma_profile": "yes", 
		 "theory": "DFT", 
		 "functional": "B3LYP", 
		 "basiset": "6-31G**", 
		 "properties": { 
			 "R2extent": 3786.8633, 
			 "electric_dipole_moment_norm": 0.85878752902, 
			 "electric_quadrupole_moment_norm": 11.5898015548, 
			 "total_energy": -1027.88113142, 
			 "HOMO_LUMO_gap": 0.16975, 
			 "cosmo_polarized_energy": -11.29, 
			 "cosmo_cavitation_energy": 30.18, 
			 "cosmo_dispersion_energy": -21.78, 
			 "cosmo_repulsion_energy": 1.67, 
			 "cosmo_total_nonelectrostatic_energy": 10.07, 
			 "SMD_solvation_energy": 5.23 
		},
		"coords": [
			{
				"x": -0.1584266538,
				"y": 2.9814719796,
				"z": 0.1201148362,
				"element": "O" 
			},
			{
				"x": -1.4873889036,
				"y": 2.6576401215,
				"z": 0.3814401242,
				"element": "N" 
			},
			{
				"x": -1.6197509124,
				"y": 1.821789629,
				"z": 1.3498693395,
				"element": "C" 
			},
			{
				"x": -0.6107846063,
				"y": 1.162201036,
				"z": 2.1728059822,
				"element": "C" 
			},
			{
				"x": 0.6514805661,
				"y": 0.6583426399,
				"z": 1.900966176,
				"element": "C" 
			},
			{
				"x": 1.3172314607,
				"y": 0.6903607456,
				"z": 0.7065222337,
				"element": "O" 
			},
			{
				"x": 0.7894205803,
				"y": 0.1084433789,
				"z": -0.4307619897,
				"element": "C" 
			},
			{
				"x": -0.202064603,
				"y": -0.8741633886,
				"z": -0.4084857948,
				"element": "C" 
			},
			{
				"x": -0.6226112131,
				"y": -1.4421033071,
				"z": -1.6135033691,
				"element": "C" 
			},
			{
				"x": -0.0612524259,
				"y": -1.0435768939,
				"z": -2.826586266,
				"element": "C" 
			},
			{
				"x": 0.9349902098,
				"y": -0.0629768455,
				"z": -2.8310424208,
				"element": "C" 
			},
			{
				"x": 1.3612171026,
				"y": 0.5168384545,
				"z": -1.6386544794,
				"element": "C" 
			},
			{
				"x": 1.2957350066,
				"y": 0.0770425786,
				"z": 3.0347612586,
				"element": "C" 
			},
			{
				"x": 0.5241021858,
				"y": 0.1206163015,
				"z": 4.159575396,
				"element": "C" 
			},
			{
				"x": -1.0079879648,
				"y": 0.8634149865,
				"z": 3.8575554253,
				"element": "S" 
			},
			{
				"x": -0.2372999951,
				"y": 3.5739318895,
				"z": -0.6395406106,
				"element": "H" 
			},
			{
				"x": -2.6632140876,
				"y": 1.6198441783,
				"z": 1.5876996548,
				"element": "H" 
			},
			{
				"x": -0.6362460267,
				"y": -1.1923120695,
				"z": 0.5324486811,
				"element": "H" 
			},
			{
				"x": -1.3944864692,
				"y": -2.2064184283,
				"z": -1.5959672567,
				"element": "H" 
			},
			{
				"x": -0.3945584431,
				"y": -1.4908849696,
				"z": -3.7578889757,
				"element": "H" 
			},
			{
				"x": 1.3816169807,
				"y": 0.2561016854,
				"z": -3.7685764211,
				"element": "H" 
			},
			{
				"x": 2.1309953588,
				"y": 1.2808871623,
				"z": -1.6187619376,
				"element": "H" 
			},
			{
				"x": 2.2876243598,
				"y": -0.3544937219,
				"z": 2.9795306896,
				"element": "H" 
			},
			{
				"x": 0.7634584933,
				"y": -0.2434971426,
				"z": 5.1488797245,
				"element": "H" 
			}
		],
		 "valence_orbital": [ 
			{
				"type": "occ",
				"energy": -0.27453,
				"method": "rhf"
			},
			{
				"type": "occ",
				"energy": -0.25355,
				"method": "rhf"
			},
			{
				"type": "occ",
				"energy": -0.24847,
				"method": "rhf"
			},
			{
				"type": "occ",
				"energy": -0.23075,
				"method": "rhf"
			},
			{
				"type": "occ",
				"energy": -0.21498,
				"method": "rhf"
			},
			{
				"type": "unocc",
				"energy": -0.04523,
				"method": "rhf"
			},
			{
				"type": "unocc",
				"energy": 0.0001,
				"method": "rhf"
			},
			{
				"type": "unocc",
				"energy": 0.00921,
				"method": "rhf"
			},
			{
				"type": "unocc",
				"energy": 0.0156,
				"method": "rhf"
			},
			{
				"type": "unocc",
				"energy": 0.02021,
				"method": "rhf"
			}
		],
		"cosmo_sigma_profile": { 
			"-0.025": 0.0,
			"-0.024": 0.0,
			"-0.023": 0.0,
			"-0.022": 0.0,
			"-0.021": 0.0,
			"-0.02": 0.0,
			"-0.019": 0.0,
			"-0.018": 0.154155094949,
			"-0.017": 1.08315340649,
			"-0.016": 0.53431080995,
			"-0.015": 1.15530820238,
			"-0.014": 0.670957648355,
			"-0.013": 0.730202879717,
			"-0.012": 0.976695517931,
			"-0.011": 0.245419097054,
			"-0.01": 0.710220884142,
			"-0.009": 2.74071027959,
			"-0.008": 5.43212592508,
			"-0.007": 7.40802756241,
			"-0.006": 10.6804804782,
			"-0.005": 14.606947768,
			"-0.004": 17.835299482,
			"-0.003": 15.0932478533,
			"-0.002": 13.7445655856,
			"-0.001": 15.0049748713,
			"0.0": 14.5627439381,
			"0.001": 16.9307635055,
			"0.002": 19.6239075063,
			"0.003": 22.7920673731,
			"0.004": 17.3133632689,
			"0.005": 14.1963373013,
			"0.006": 12.3266407979,
			"0.007": 3.78778080501,
			"0.008": 2.78653921024,
			"0.009": 3.06787988153,
			"0.01": 3.47160747105,
			"0.011": 2.37887102503,
			"0.012": 1.38618366014,
			"0.013": 0.67331228296,
			"0.014": 0.166447053335,
			"0.015": 0.0,
			"0.016": 0.0,
			"0.017": 0.0,
			"0.018": 0.0,
			"0.019": 0.0,
			"0.02": 0.0,
			"0.021": 0.0,
			"0.022": 0.0,
			"0.023": 0.0,
			"0.024": 0.0,
			"0.025": 0.0
		}
	}
}
