{
	 "smiles": "CCN(CC)C(=O)C1CN(C)C2CC3=CNC4=C3C(=CC=C4)C2=C1", 
	 "Tm": 355.65, 
	 "num_atms": 49, 
	 "gaussian": { 
		 "optdone": 1, 
		 "sigma_profile": "yes", 
		 "theory": "DFT", 
		 "functional": "B3LYP", 
		 "basiset": "6-31G**", 
		 "properties": { 
			 "R2extent": 9631.3777, 
			 "electric_dipole_moment_norm": 2.53065044801, 
			 "electric_quadrupole_moment_norm": 28.8116370659, 
			 "total_energy": -1016.67388734, 
			 "HOMO_LUMO_gap": 0.16748, 
			 "cosmo_polarized_energy": -21.1, 
			 "cosmo_cavitation_energy": 47.58, 
			 "cosmo_dispersion_energy": -32.79, 
			 "cosmo_repulsion_energy": 2.46, 
			 "cosmo_total_nonelectrostatic_energy": 17.25, 
			 "SMD_solvation_energy": 5.98 
		},
		"coords": [
			{
				"x": -3.1507979805,
				"y": 3.0988650366,
				"z": -1.3697565041,
				"element": "C" 
			},
			{
				"x": -2.7195747185,
				"y": 2.4086409813,
				"z": -2.6668002004,
				"element": "C" 
			},
			{
				"x": -2.4147666665,
				"y": 0.9775283356,
				"z": -2.5065314217,
				"element": "N" 
			},
			{
				"x": -3.3786065909,
				"y": 0.0266779518,
				"z": -3.0578306076,
				"element": "C" 
			},
			{
				"x": -4.7311822375,
				"y": 0.0156874363,
				"z": -2.3348216455,
				"element": "C" 
			},
			{
				"x": -1.1776642496,
				"y": 0.675335238,
				"z": -1.9750830633,
				"element": "C" 
			},
			{
				"x": -0.4141049886,
				"y": 1.572308506,
				"z": -1.6320376943,
				"element": "O" 
			},
			{
				"x": -0.7722865827,
				"y": -0.8105687108,
				"z": -1.8208444317,
				"element": "C" 
			},
			{
				"x": -1.489886006,
				"y": -1.4982375141,
				"z": -0.6474234454,
				"element": "C" 
			},
			{
				"x": -0.9998203841,
				"y": -0.9909484967,
				"z": 0.6287445356,
				"element": "N" 
			},
			{
				"x": -1.8426613729,
				"y": -1.4625444032,
				"z": 1.7205790405,
				"element": "C" 
			},
			{
				"x": 0.4246538331,
				"y": -1.2756178939,
				"z": 0.862024506,
				"element": "C" 
			},
			{
				"x": 0.9843476471,
				"y": -0.3150693004,
				"z": 1.9603715324,
				"element": "C" 
			},
			{
				"x": 2.452052062,
				"y": -0.5632698631,
				"z": 2.1514585003,
				"element": "C" 
			},
			{
				"x": 3.3519147133,
				"y": -0.4098853404,
				"z": 3.1748323106,
				"element": "C" 
			},
			{
				"x": 4.623179341,
				"y": -0.7854803497,
				"z": 2.7332536039,
				"element": "N" 
			},
			{
				"x": 4.5519965382,
				"y": -1.1883343182,
				"z": 1.4126410483,
				"element": "C" 
			},
			{
				"x": 3.1985106781,
				"y": -1.059588118,
				"z": 1.0454751902,
				"element": "C" 
			},
			{
				"x": 2.7152972873,
				"y": -1.3718278817,
				"z": -0.2314943791,
				"element": "C" 
			},
			{
				"x": 3.6551519064,
				"y": -1.8322961986,
				"z": -1.1563865087,
				"element": "C" 
			},
			{
				"x": 5.0143390527,
				"y": -1.9552836683,
				"z": -0.7959805213,
				"element": "C" 
			},
			{
				"x": 5.4917097747,
				"y": -1.6445296158,
				"z": 0.4795317859,
				"element": "C" 
			},
			{
				"x": 1.2606180102,
				"y": -1.1875760958,
				"z": -0.4237138056,
				"element": "C" 
			},
			{
				"x": 0.7110499894,
				"y": -0.9322975423,
				"z": -1.6186717178,
				"element": "C" 
			},
			{
				"x": -2.3511064513,
				"y": 3.0251680499,
				"z": -0.6301055337,
				"element": "H" 
			},
			{
				"x": -4.0575683292,
				"y": 2.6492690181,
				"z": -0.9534808078,
				"element": "H" 
			},
			{
				"x": -3.3509195419,
				"y": 4.1596707755,
				"z": -1.5571989284,
				"element": "H" 
			},
			{
				"x": -3.5045828027,
				"y": 2.4914552153,
				"z": -3.4264200477,
				"element": "H" 
			},
			{
				"x": -1.8225359867,
				"y": 2.9007211334,
				"z": -3.0531240355,
				"element": "H" 
			},
			{
				"x": -3.540780294,
				"y": 0.2656036939,
				"z": -4.1192476933,
				"element": "H" 
			},
			{
				"x": -2.9493824498,
				"y": -0.9745749767,
				"z": -3.032466175,
				"element": "H" 
			},
			{
				"x": -5.2281496374,
				"y": 0.9881995927,
				"z": -2.3965987611,
				"element": "H" 
			},
			{
				"x": -4.6116052954,
				"y": -0.2342182989,
				"z": -1.2761806578,
				"element": "H" 
			},
			{
				"x": -5.3941772427,
				"y": -0.7264193542,
				"z": -2.7924001512,
				"element": "H" 
			},
			{
				"x": -1.0357050652,
				"y": -1.3506591032,
				"z": -2.7397131068,
				"element": "H" 
			},
			{
				"x": -2.5672270914,
				"y": -1.3095261514,
				"z": -0.6874279407,
				"element": "H" 
			},
			{
				"x": -1.3533403476,
				"y": -2.5940903033,
				"z": -0.745964419,
				"element": "H" 
			},
			{
				"x": -1.544420834,
				"y": -1.0077552481,
				"z": 2.6674321243,
				"element": "H" 
			},
			{
				"x": -1.8138315514,
				"y": -2.5624687074,
				"z": 1.84876193,
				"element": "H" 
			},
			{
				"x": -2.8807697246,
				"y": -1.1714671986,
				"z": 1.5310273631,
				"element": "H" 
			},
			{
				"x": 0.547439992,
				"y": -2.3109423005,
				"z": 1.2451205607,
				"element": "H" 
			},
			{
				"x": 0.7956221523,
				"y": 0.7094578043,
				"z": 1.6153489851,
				"element": "H" 
			},
			{
				"x": 0.4315526298,
				"y": -0.449406647,
				"z": 2.8947266359,
				"element": "H" 
			},
			{
				"x": 3.215111911,
				"y": -0.0608961396,
				"z": 4.1889722046,
				"element": "H" 
			},
			{
				"x": 5.4577878405,
				"y": -0.7538285923,
				"z": 3.2947630148,
				"element": "H" 
			},
			{
				"x": 3.3445915396,
				"y": -2.1210273348,
				"z": -2.1563382059,
				"element": "H" 
			},
			{
				"x": 5.7175213481,
				"y": -2.3195644201,
				"z": -1.5398150691,
				"element": "H" 
			},
			{
				"x": 6.5439406918,
				"y": -1.7578908908,
				"z": 0.7236991771,
				"element": "H" 
			},
			{
				"x": 1.3503654845,
				"y": -0.8020977908,
				"z": -2.4878065693,
				"element": "H" 
			}
		],
		 "valence_orbital": [ 
			{
				"type": "occ",
				"energy": -0.22921,
				"method": "rhf"
			},
			{
				"type": "occ",
				"energy": -0.22774,
				"method": "rhf"
			},
			{
				"type": "occ",
				"energy": -0.21125,
				"method": "rhf"
			},
			{
				"type": "occ",
				"energy": -0.2063,
				"method": "rhf"
			},
			{
				"type": "occ",
				"energy": -0.18355,
				"method": "rhf"
			},
			{
				"type": "unocc",
				"energy": -0.01607,
				"method": "rhf"
			},
			{
				"type": "unocc",
				"energy": 0.02401,
				"method": "rhf"
			},
			{
				"type": "unocc",
				"energy": 0.03664,
				"method": "rhf"
			},
			{
				"type": "unocc",
				"energy": 0.05979,
				"method": "rhf"
			},
			{
				"type": "unocc",
				"energy": 0.06996,
				"method": "rhf"
			}
		],
		"cosmo_sigma_profile": { 
			"-0.025": 0.0,
			"-0.024": 0.0,
			"-0.023": 0.0,
			"-0.022": 0.0,
			"-0.021": 0.0,
			"-0.02": 0.0,
			"-0.019": 0.0,
			"-0.018": 0.0,
			"-0.017": 0.0,
			"-0.016": 0.0800125005751,
			"-0.015": 1.20831481446,
			"-0.014": 1.6900543245,
			"-0.013": 1.30371040509,
			"-0.012": 0.952797108996,
			"-0.011": 1.05410290197,
			"-0.01": 1.28856199032,
			"-0.009": 1.17807528529,
			"-0.008": 2.09074845501,
			"-0.007": 5.4547074606,
			"-0.006": 7.70524578468,
			"-0.005": 19.2826714368,
			"-0.004": 32.5983364442,
			"-0.003": 38.3052118953,
			"-0.002": 47.1537584563,
			"-0.001": 42.715325548,
			"0.0": 35.2052242536,
			"0.001": 23.8315536655,
			"0.002": 15.7451622278,
			"0.003": 13.7626238924,
			"0.004": 12.4588918367,
			"0.005": 18.5533706035,
			"0.006": 16.5813695979,
			"0.007": 9.25595082725,
			"0.008": 2.97878320079,
			"0.009": 2.25816439825,
			"0.01": 2.19964428605,
			"0.011": 2.65011559587,
			"0.012": 2.83379002197,
			"0.013": 4.05566250394,
			"0.014": 3.80191477598,
			"0.015": 2.58978909435,
			"0.016": 0.445021762978,
			"0.017": 0.0,
			"0.018": 0.0,
			"0.019": 0.0,
			"0.02": 0.0,
			"0.021": 0.0,
			"0.022": 0.0,
			"0.023": 0.0,
			"0.024": 0.0,
			"0.025": 0.0
		}
	}
}
