{
	 "smiles": "COC(=O)C(=O)CC(=O)C1=C(F)C=C(OC)C=C1", 
	 "Tm": 375.15, 
	 "num_atms": 29, 
	 "gaussian": { 
		 "optdone": 1, 
		 "sigma_profile": "yes", 
		 "theory": "DFT", 
		 "functional": "B3LYP", 
		 "basiset": "6-31G**", 
		 "properties": { 
			 "R2extent": 6438.9798, 
			 "electric_dipole_moment_norm": 8.25664179858, 
			 "electric_quadrupole_moment_norm": 11.9980608096, 
			 "total_energy": -939.835400583, 
			 "HOMO_LUMO_gap": 0.18299, 
			 "cosmo_polarized_energy": -17.41, 
			 "cosmo_cavitation_energy": 35.37, 
			 "cosmo_dispersion_energy": -24.67, 
			 "cosmo_repulsion_energy": 1.91, 
			 "cosmo_total_nonelectrostatic_energy": 12.61, 
			 "SMD_solvation_energy": 9.98 
		},
		"coords": [
			{
				"x": -4.1370668092,
				"y": 1.520222282,
				"z": -1.1759110653,
				"element": "C" 
			},
			{
				"x": -2.8347984697,
				"y": 1.5349766538,
				"z": -0.5634911539,
				"element": "O" 
			},
			{
				"x": -2.0551623409,
				"y": 2.5828587399,
				"z": -0.9022429281,
				"element": "C" 
			},
			{
				"x": -2.3893023913,
				"y": 3.4897708895,
				"z": -1.6227485679,
				"element": "O" 
			},
			{
				"x": -0.6786265404,
				"y": 2.4967597158,
				"z": -0.2070927461,
				"element": "C" 
			},
			{
				"x": -0.0143116696,
				"y": 3.5015555292,
				"z": -0.1065346472,
				"element": "O" 
			},
			{
				"x": -0.2323736039,
				"y": 1.1503560899,
				"z": 0.3394482128,
				"element": "C" 
			},
			{
				"x": -0.0598709044,
				"y": 0.1399272474,
				"z": -0.7914628141,
				"element": "C" 
			},
			{
				"x": -0.2606378108,
				"y": 0.4933347424,
				"z": -1.9473663347,
				"element": "O" 
			},
			{
				"x": 0.365490269,
				"y": -1.2557250543,
				"z": -0.495932578,
				"element": "C" 
			},
			{
				"x": 0.6182117751,
				"y": -1.789826835,
				"z": 0.7715684271,
				"element": "C" 
			},
			{
				"x": 0.4796857322,
				"y": -1.0203341975,
				"z": 1.875165853,
				"element": "F" 
			},
			{
				"x": 1.0159062149,
				"y": -3.1048226578,
				"z": 0.9842592825,
				"element": "C" 
			},
			{
				"x": 1.1745505583,
				"y": -3.9454245758,
				"z": -0.1236632894,
				"element": "C" 
			},
			{
				"x": 1.5567639096,
				"y": -5.240721591,
				"z": -0.0481553287,
				"element": "O" 
			},
			{
				"x": 1.8245941849,
				"y": -5.8022039337,
				"z": 1.2324481918,
				"element": "C" 
			},
			{
				"x": 0.9301836078,
				"y": -3.4486383457,
				"z": -1.4193572183,
				"element": "C" 
			},
			{
				"x": 0.5368647832,
				"y": -2.1364728506,
				"z": -1.5873061834,
				"element": "C" 
			},
			{
				"x": -4.6407437039,
				"y": 0.6388996669,
				"z": -0.7799725616,
				"element": "H" 
			},
			{
				"x": -4.0410566775,
				"y": 1.4544112808,
				"z": -2.2622715834,
				"element": "H" 
			},
			{
				"x": -4.6883487545,
				"y": 2.4286672254,
				"z": -0.9216629579,
				"element": "H" 
			},
			{
				"x": -0.9629012748,
				"y": 0.7711025627,
				"z": 1.0616295047,
				"element": "H" 
			},
			{
				"x": 0.7127237569,
				"y": 1.2897679086,
				"z": 0.8719460594,
				"element": "H" 
			},
			{
				"x": 1.1896170108,
				"y": -3.4321004229,
				"z": 2.0007190118,
				"element": "H" 
			},
			{
				"x": 0.9345396312,
				"y": -5.7804762766,
				"z": 1.8726713523,
				"element": "H" 
			},
			{
				"x": 2.647276939,
				"y": -5.278845372,
				"z": 1.7341782455,
				"element": "H" 
			},
			{
				"x": 2.1129831035,
				"y": -6.8376122448,
				"z": 1.0495957473,
				"element": "H" 
			},
			{
				"x": 1.0598773286,
				"y": -4.1162748341,
				"z": -2.263773202,
				"element": "H" 
			},
			{
				"x": 0.3457321459,
				"y": -1.7352313425,
				"z": -2.5766847286,
				"element": "H" 
			}
		],
		 "valence_orbital": [ 
			{
				"type": "occ",
				"energy": -0.29349,
				"method": "rhf"
			},
			{
				"type": "occ",
				"energy": -0.27128,
				"method": "rhf"
			},
			{
				"type": "occ",
				"energy": -0.26802,
				"method": "rhf"
			},
			{
				"type": "occ",
				"energy": -0.25048,
				"method": "rhf"
			},
			{
				"type": "occ",
				"energy": -0.24651,
				"method": "rhf"
			},
			{
				"type": "unocc",
				"energy": -0.06352,
				"method": "rhf"
			},
			{
				"type": "unocc",
				"energy": -0.06031,
				"method": "rhf"
			},
			{
				"type": "unocc",
				"energy": -0.01939,
				"method": "rhf"
			},
			{
				"type": "unocc",
				"energy": 0.0315,
				"method": "rhf"
			},
			{
				"type": "unocc",
				"energy": 0.05907,
				"method": "rhf"
			}
		],
		"cosmo_sigma_profile": { 
			"-0.025": 0.0,
			"-0.024": 0.0,
			"-0.023": 0.0,
			"-0.022": 0.0,
			"-0.021": 0.0,
			"-0.02": 0.0,
			"-0.019": 0.0,
			"-0.018": 0.0,
			"-0.017": 0.0,
			"-0.016": 0.0,
			"-0.015": 0.0,
			"-0.014": 0.0,
			"-0.013": 0.0,
			"-0.012": 0.0,
			"-0.011": 0.0,
			"-0.01": 0.0,
			"-0.009": 0.395712722443,
			"-0.008": 5.04451543678,
			"-0.007": 13.366196898,
			"-0.006": 24.0248902529,
			"-0.005": 23.5024268838,
			"-0.004": 27.1386248614,
			"-0.003": 19.7924476122,
			"-0.002": 13.4660077895,
			"-0.001": 14.2042899258,
			"0.0": 17.9277013094,
			"0.001": 22.5203172393,
			"0.002": 20.3137708312,
			"0.003": 17.0005154308,
			"0.004": 10.6634778346,
			"0.005": 5.44209230549,
			"0.006": 5.88282348807,
			"0.007": 6.22523802195,
			"0.008": 6.46024334208,
			"0.009": 8.67320118755,
			"0.01": 9.97031319295,
			"0.011": 7.96069983844,
			"0.012": 2.18953590546,
			"0.013": 0.152465382986,
			"0.014": 0.0,
			"0.015": 0.0,
			"0.016": 0.0,
			"0.017": 0.0,
			"0.018": 0.0,
			"0.019": 0.0,
			"0.02": 0.0,
			"0.021": 0.0,
			"0.022": 0.0,
			"0.023": 0.0,
			"0.024": 0.0,
			"0.025": 0.0
		}
	}
}
