{
	 "smiles": "CC1=CC(=CC=C1)C1(CC1)C(O)=O", 
	 "Tm": 381.15, 
	 "num_atms": 25, 
	 "gaussian": { 
		 "optdone": 1, 
		 "sigma_profile": "yes", 
		 "theory": "DFT", 
		 "functional": "B3LYP", 
		 "basiset": "6-31G**", 
		 "properties": { 
			 "R2extent": 2583.088, 
			 "electric_dipole_moment_norm": 5.12734053287, 
			 "electric_quadrupole_moment_norm": 14.2984408447, 
			 "total_energy": -576.843580859, 
			 "HOMO_LUMO_gap": 0.22446, 
			 "cosmo_polarized_energy": -11.38, 
			 "cosmo_cavitation_energy": 28.39, 
			 "cosmo_dispersion_energy": -19.93, 
			 "cosmo_repulsion_energy": 1.58, 
			 "cosmo_total_nonelectrostatic_energy": 10.04, 
			 "SMD_solvation_energy": 5.86 
		},
		"coords": [
			{
				"x": -0.0915613514,
				"y": -3.223768173,
				"z": -2.3592808166,
				"element": "C" 
			},
			{
				"x": -0.6054875373,
				"y": -2.1261825805,
				"z": -1.4571468335,
				"element": "C" 
			},
			{
				"x": 0.2619845009,
				"y": -1.1622541208,
				"z": -0.9298467373,
				"element": "C" 
			},
			{
				"x": -0.1903364203,
				"y": -0.1529092651,
				"z": -0.0643996132,
				"element": "C" 
			},
			{
				"x": -1.5533699427,
				"y": -0.1096394272,
				"z": 0.2647987114,
				"element": "C" 
			},
			{
				"x": -2.4316932969,
				"y": -1.0614483787,
				"z": -0.2554004898,
				"element": "C" 
			},
			{
				"x": -1.9620906542,
				"y": -2.0599288902,
				"z": -1.1079350893,
				"element": "C" 
			},
			{
				"x": 0.760722767,
				"y": 0.8943251798,
				"z": 0.4510486922,
				"element": "C" 
			},
			{
				"x": 2.0059025144,
				"y": 0.4722731581,
				"z": 1.2242642586,
				"element": "C" 
			},
			{
				"x": 0.8829261211,
				"y": 1.1331765762,
				"z": 1.9525671889,
				"element": "C" 
			},
			{
				"x": 0.9539643524,
				"y": 2.1433467599,
				"z": -0.3838817951,
				"element": "C" 
			},
			{
				"x": 0.2419748835,
				"y": 2.2169612175,
				"z": -1.5319510834,
				"element": "O" 
			},
			{
				"x": 1.698017575,
				"y": 3.0427715152,
				"z": -0.0650633776,
				"element": "O" 
			},
			{
				"x": 0.0393633907,
				"y": -4.1611794309,
				"z": -1.8047941431,
				"element": "H" 
			},
			{
				"x": -0.7891297601,
				"y": -3.4280792213,
				"z": -3.1776842338,
				"element": "H" 
			},
			{
				"x": 0.8765689386,
				"y": -2.9633671834,
				"z": -2.7959284824,
				"element": "H" 
			},
			{
				"x": 1.3176219128,
				"y": -1.1956259368,
				"z": -1.1896304836,
				"element": "H" 
			},
			{
				"x": -1.9185877343,
				"y": 0.6675162371,
				"z": 0.9303568701,
				"element": "H" 
			},
			{
				"x": -3.4858109437,
				"y": -1.0232056702,
				"z": 0.0042396431,
				"element": "H" 
			},
			{
				"x": -2.6541777155,
				"y": -2.7963242763,
				"z": -1.5089312806,
				"element": "H" 
			},
			{
				"x": 2.9012120293,
				"y": 1.0565424683,
				"z": 1.0423237495,
				"element": "H" 
			},
			{
				"x": 2.1532041479,
				"y": -0.5942524347,
				"z": 1.3611925985,
				"element": "H" 
			},
			{
				"x": 0.2535975639,
				"y": 0.5238525858,
				"z": 2.5933485654,
				"element": "H" 
			},
			{
				"x": 1.0204932433,
				"y": 2.1633533659,
				"z": 2.2622048373,
				"element": "H" 
			},
			{
				"x": -0.2988085843,
				"y": 1.416445925,
				"z": -1.6274706558,
				"element": "H" 
			}
		],
		 "valence_orbital": [ 
			{
				"type": "occ",
				"energy": -0.3113,
				"method": "rhf"
			},
			{
				"type": "occ",
				"energy": -0.28964,
				"method": "rhf"
			},
			{
				"type": "occ",
				"energy": -0.2777,
				"method": "rhf"
			},
			{
				"type": "occ",
				"energy": -0.25905,
				"method": "rhf"
			},
			{
				"type": "occ",
				"energy": -0.24779,
				"method": "rhf"
			},
			{
				"type": "unocc",
				"energy": -0.02333,
				"method": "rhf"
			},
			{
				"type": "unocc",
				"energy": -0.01674,
				"method": "rhf"
			},
			{
				"type": "unocc",
				"energy": 0.0172,
				"method": "rhf"
			},
			{
				"type": "unocc",
				"energy": 0.08679,
				"method": "rhf"
			},
			{
				"type": "unocc",
				"energy": 0.09625,
				"method": "rhf"
			}
		],
		"cosmo_sigma_profile": { 
			"-0.025": 0.0,
			"-0.024": 0.0,
			"-0.023": 0.0,
			"-0.022": 0.0,
			"-0.021": 0.0,
			"-0.02": 0.0,
			"-0.019": 0.0,
			"-0.018": 0.0,
			"-0.017": 0.0,
			"-0.016": 0.0,
			"-0.015": 0.0,
			"-0.014": 0.16787469431,
			"-0.013": 0.47037475797,
			"-0.012": 0.513703713829,
			"-0.011": 0.704670685671,
			"-0.01": 0.768746950588,
			"-0.009": 0.626690799829,
			"-0.008": 0.90486977599,
			"-0.007": 1.49199285717,
			"-0.006": 5.88780131442,
			"-0.005": 16.9369677274,
			"-0.004": 24.4695244051,
			"-0.003": 25.7994808497,
			"-0.002": 23.8173273325,
			"-0.001": 23.7863773994,
			"0.0": 18.9087983994,
			"0.001": 13.4356264786,
			"0.002": 12.1217986617,
			"0.003": 9.59467020342,
			"0.004": 8.95700524166,
			"0.005": 7.48244198716,
			"0.006": 3.75384836349,
			"0.007": 1.84915283194,
			"0.008": 2.00232921597,
			"0.009": 3.29573613295,
			"0.01": 4.29295965784,
			"0.011": 3.95637782787,
			"0.012": 5.09487373371,
			"0.013": 3.10820899935,
			"0.014": 0.574887952132,
			"0.015": 0.0,
			"0.016": 0.0,
			"0.017": 0.0,
			"0.018": 0.0,
			"0.019": 0.0,
			"0.02": 0.0,
			"0.021": 0.0,
			"0.022": 0.0,
			"0.023": 0.0,
			"0.024": 0.0,
			"0.025": 0.0
		}
	}
}
