{
	 "smiles": "CN1C=CC2=C1C=CC=C2C=O", 
	 "Tm": 301.15, 
	 "num_atms": 21, 
	 "gaussian": { 
		 "optdone": 1, 
		 "sigma_profile": "yes", 
		 "theory": "DFT", 
		 "functional": "B3LYP", 
		 "basiset": "6-31G**", 
		 "properties": { 
			 "R2extent": 2026.8382, 
			 "electric_dipole_moment_norm": 5.00484207743, 
			 "electric_quadrupole_moment_norm": 11.3283122485, 
			 "total_energy": -516.45959609, 
			 "HOMO_LUMO_gap": 0.15386, 
			 "cosmo_polarized_energy": -11.27, 
			 "cosmo_cavitation_energy": 24.85, 
			 "cosmo_dispersion_energy": -18.22, 
			 "cosmo_repulsion_energy": 1.41, 
			 "cosmo_total_nonelectrostatic_energy": 8.05, 
			 "SMD_solvation_energy": 5.4 
		},
		"coords": [
			{
				"x": -3.0434750769,
				"y": 1.1670706296,
				"z": 0.7242377543,
				"element": "C" 
			},
			{
				"x": -1.894895323,
				"y": 0.5274554242,
				"z": 0.1147840687,
				"element": "N" 
			},
			{
				"x": -1.7270880007,
				"y": 0.259911792,
				"z": -1.2313430325,
				"element": "C" 
			},
			{
				"x": -0.5197089922,
				"y": -0.3546509486,
				"z": -1.4544236156,
				"element": "C" 
			},
			{
				"x": 0.1129115229,
				"y": -0.4838956622,
				"z": -0.1796775669,
				"element": "C" 
			},
			{
				"x": -0.7734144307,
				"y": 0.0781526725,
				"z": 0.7849813688,
				"element": "C" 
			},
			{
				"x": -0.4695901765,
				"y": 0.1200616726,
				"z": 2.1487838614,
				"element": "C" 
			},
			{
				"x": 0.7503069841,
				"y": -0.4123526937,
				"z": 2.5631101844,
				"element": "C" 
			},
			{
				"x": 1.6410943376,
				"y": -0.9716123476,
				"z": 1.6342105856,
				"element": "C" 
			},
			{
				"x": 1.3459566713,
				"y": -1.0180685177,
				"z": 0.2677659476,
				"element": "C" 
			},
			{
				"x": 2.321505353,
				"y": -1.6175613517,
				"z": -0.6557126247,
				"element": "C" 
			},
			{
				"x": 2.1842886015,
				"y": -1.7185347537,
				"z": -1.8637443296,
				"element": "O" 
			},
			{
				"x": -3.5246355418,
				"y": 0.5041280339,
				"z": 1.4519964808,
				"element": "H" 
			},
			{
				"x": -2.7558252412,
				"y": 2.0946518654,
				"z": 1.231674291,
				"element": "H" 
			},
			{
				"x": -3.7690399246,
				"y": 1.4100130465,
				"z": -0.0537964789,
				"element": "H" 
			},
			{
				"x": -2.5016837203,
				"y": 0.5371436739,
				"z": -1.9333824895,
				"element": "H" 
			},
			{
				"x": -0.1189768643,
				"y": -0.6794656663,
				"z": -2.4007957019,
				"element": "H" 
			},
			{
				"x": -1.1582999802,
				"y": 0.5526417014,
				"z": 2.8686598299,
				"element": "H" 
			},
			{
				"x": 1.0125937801,
				"y": -0.3933846121,
				"z": 3.6162697653,
				"element": "H" 
			},
			{
				"x": 2.5873199325,
				"y": -1.3812285794,
				"z": 1.9799005066,
				"element": "H" 
			},
			{
				"x": 3.2444560898,
				"y": -1.995175379,
				"z": -0.1590988049,
				"element": "H" 
			}
		],
		 "valence_orbital": [ 
			{
				"type": "occ",
				"energy": -0.33021,
				"method": "rhf"
			},
			{
				"type": "occ",
				"energy": -0.27585,
				"method": "rhf"
			},
			{
				"type": "occ",
				"energy": -0.23976,
				"method": "rhf"
			},
			{
				"type": "occ",
				"energy": -0.22939,
				"method": "rhf"
			},
			{
				"type": "occ",
				"energy": -0.209,
				"method": "rhf"
			},
			{
				"type": "unocc",
				"energy": -0.05514,
				"method": "rhf"
			},
			{
				"type": "unocc",
				"energy": 0.01113,
				"method": "rhf"
			},
			{
				"type": "unocc",
				"energy": 0.04478,
				"method": "rhf"
			},
			{
				"type": "unocc",
				"energy": 0.07383,
				"method": "rhf"
			},
			{
				"type": "unocc",
				"energy": 0.08061,
				"method": "rhf"
			}
		],
		"cosmo_sigma_profile": { 
			"-0.025": 0.0,
			"-0.024": 0.0,
			"-0.023": 0.0,
			"-0.022": 0.0,
			"-0.021": 0.0,
			"-0.02": 0.0,
			"-0.019": 0.0,
			"-0.018": 0.0,
			"-0.017": 0.0,
			"-0.016": 0.0,
			"-0.015": 0.0,
			"-0.014": 0.0,
			"-0.013": 0.0,
			"-0.012": 0.0,
			"-0.011": 0.0,
			"-0.01": 0.0,
			"-0.009": 0.851212436003,
			"-0.008": 3.36728764492,
			"-0.007": 5.26427254661,
			"-0.006": 15.0975587779,
			"-0.005": 20.0335257734,
			"-0.004": 17.4765668901,
			"-0.003": 18.3556525262,
			"-0.002": 13.1641641686,
			"-0.001": 9.5059967295,
			"0.0": 8.41751679215,
			"0.001": 9.99930059307,
			"0.002": 9.43051610177,
			"0.003": 12.1207855657,
			"0.004": 17.6893236746,
			"0.005": 14.3124752997,
			"0.006": 6.51685462184,
			"0.007": 3.00212949733,
			"0.008": 2.16165917263,
			"0.009": 1.99477931978,
			"0.01": 2.31504274913,
			"0.011": 2.61492621474,
			"0.012": 3.08046226009,
			"0.013": 1.87127061323,
			"0.014": 0.409210472023,
			"0.015": 0.0,
			"0.016": 0.0,
			"0.017": 0.0,
			"0.018": 0.0,
			"0.019": 0.0,
			"0.02": 0.0,
			"0.021": 0.0,
			"0.022": 0.0,
			"0.023": 0.0,
			"0.024": 0.0,
			"0.025": 0.0
		}
	}
}
