{
	 "smiles": "CSC1=C(C#N)C(N)=NC(=N1)C1=CC=C(C)C=C1", 
	 "Tm": 487.15, 
	 "num_atms": 30, 
	 "gaussian": { 
		 "optdone": 1, 
		 "sigma_profile": "yes", 
		 "theory": "DFT", 
		 "functional": "B3LYP", 
		 "basiset": "6-31G**", 
		 "properties": { 
			 "R2extent": 6357.3029, 
			 "electric_dipole_moment_norm": 4.52854631311, 
			 "electric_quadrupole_moment_norm": 23.8986281067, 
			 "total_energy": -1119.831808, 
			 "HOMO_LUMO_gap": 0.16101, 
			 "cosmo_polarized_energy": -14.17, 
			 "cosmo_cavitation_energy": 37.0, 
			 "cosmo_dispersion_energy": -26.49, 
			 "cosmo_repulsion_energy": 2.0, 
			 "cosmo_total_nonelectrostatic_energy": 12.51, 
			 "SMD_solvation_energy": 5.89 
		},
		"coords": [
			{
				"x": -3.000262002,
				"y": -2.2142314818,
				"z": 0.7476751242,
				"element": "C" 
			},
			{
				"x": -2.1443202669,
				"y": -1.9906018428,
				"z": 2.3421025775,
				"element": "S" 
			},
			{
				"x": -0.713281085,
				"y": -1.0780851306,
				"z": 1.8421319729,
				"element": "C" 
			},
			{
				"x": 0.2269744854,
				"y": -0.7018304715,
				"z": 2.8255977462,
				"element": "C" 
			},
			{
				"x": 0.1000149694,
				"y": -1.0102311329,
				"z": 4.2047786614,
				"element": "C" 
			},
			{
				"x": 0.0639640131,
				"y": -1.2262761836,
				"z": 5.3504793581,
				"element": "N" 
			},
			{
				"x": 1.3549900681,
				"y": 0.0298493291,
				"z": 2.3606881138,
				"element": "C" 
			},
			{
				"x": 2.3232204911,
				"y": 0.4460606839,
				"z": 3.206474135,
				"element": "N" 
			},
			{
				"x": 1.5032222552,
				"y": 0.3364708098,
				"z": 1.0631298801,
				"element": "N" 
			},
			{
				"x": 0.5496644256,
				"y": -0.0713328911,
				"z": 0.2183841645,
				"element": "C" 
			},
			{
				"x": -0.5555560615,
				"y": -0.7682563785,
				"z": 0.5580818811,
				"element": "N" 
			},
			{
				"x": 0.7181387718,
				"y": 0.2703920565,
				"z": -1.2125955396,
				"element": "C" 
			},
			{
				"x": 1.8411790385,
				"y": 0.9924310679,
				"z": -1.6474776421,
				"element": "C" 
			},
			{
				"x": 1.9986562476,
				"y": 1.3097340458,
				"z": -2.99228075,
				"element": "C" 
			},
			{
				"x": 1.0458047568,
				"y": 0.9228250532,
				"z": -3.9465258331,
				"element": "C" 
			},
			{
				"x": 1.2060135368,
				"y": 1.2977017568,
				"z": -5.3997445842,
				"element": "C" 
			},
			{
				"x": -0.071300762,
				"y": 0.1986744287,
				"z": -3.5058430497,
				"element": "C" 
			},
			{
				"x": -0.237186057,
				"y": -0.1232206207,
				"z": -2.1625202111,
				"element": "C" 
			},
			{
				"x": -2.3791227732,
				"y": -2.7788820901,
				"z": 0.0525630035,
				"element": "H" 
			},
			{
				"x": -3.2616836057,
				"y": -1.2500543076,
				"z": 0.3119725671,
				"element": "H" 
			},
			{
				"x": -3.9057532895,
				"y": -2.7770720044,
				"z": 0.9839634323,
				"element": "H" 
			},
			{
				"x": 2.2787261742,
				"y": 0.2515082781,
				"z": 4.1937713332,
				"element": "H" 
			},
			{
				"x": 3.100381243,
				"y": 0.9598743068,
				"z": 2.8245136849,
				"element": "H" 
			},
			{
				"x": 2.5830258149,
				"y": 1.2936429169,
				"z": -0.916957039,
				"element": "H" 
			},
			{
				"x": 2.8767646977,
				"y": 1.8661595484,
				"z": -3.3108721913,
				"element": "H" 
			},
			{
				"x": 0.7090024027,
				"y": 0.577972076,
				"z": -6.0568502045,
				"element": "H" 
			},
			{
				"x": 2.2606928244,
				"y": 1.3502013982,
				"z": -5.6863425985,
				"element": "H" 
			},
			{
				"x": 0.7653639565,
				"y": 2.2821289492,
				"z": -5.6028277287,
				"element": "H" 
			},
			{
				"x": -0.8200258918,
				"y": -0.1180885089,
				"z": -4.2277754455,
				"element": "H" 
			},
			{
				"x": -1.1030083783,
				"y": -0.6847636609,
				"z": -1.8318948186,
				"element": "H" 
			}
		],
		 "valence_orbital": [ 
			{
				"type": "occ",
				"energy": -0.26034,
				"method": "rhf"
			},
			{
				"type": "occ",
				"energy": -0.25739,
				"method": "rhf"
			},
			{
				"type": "occ",
				"energy": -0.25226,
				"method": "rhf"
			},
			{
				"type": "occ",
				"energy": -0.24438,
				"method": "rhf"
			},
			{
				"type": "occ",
				"energy": -0.22912,
				"method": "rhf"
			},
			{
				"type": "unocc",
				"energy": -0.06811,
				"method": "rhf"
			},
			{
				"type": "unocc",
				"energy": -0.02378,
				"method": "rhf"
			},
			{
				"type": "unocc",
				"energy": -0.00116,
				"method": "rhf"
			},
			{
				"type": "unocc",
				"energy": 0.00661,
				"method": "rhf"
			},
			{
				"type": "unocc",
				"energy": 0.00935,
				"method": "rhf"
			}
		],
		"cosmo_sigma_profile": { 
			"-0.025": 0.0,
			"-0.024": 0.0,
			"-0.023": 0.0,
			"-0.022": 0.0,
			"-0.021": 0.0,
			"-0.02": 0.0,
			"-0.019": 0.0,
			"-0.018": 0.0,
			"-0.017": 0.0,
			"-0.016": 0.0,
			"-0.015": 0.922042448137,
			"-0.014": 1.82747025176,
			"-0.013": 2.15570618645,
			"-0.012": 1.81131576739,
			"-0.011": 1.89333538964,
			"-0.01": 1.86867842028,
			"-0.009": 2.36707250189,
			"-0.008": 2.3497661457,
			"-0.007": 4.121289978,
			"-0.006": 7.31933601083,
			"-0.005": 14.0214249412,
			"-0.004": 22.0858237995,
			"-0.003": 23.895045647,
			"-0.002": 26.2742199255,
			"-0.001": 30.4459025133,
			"0.0": 23.1774722601,
			"0.001": 20.1528623741,
			"0.002": 20.4861818419,
			"0.003": 22.8863848779,
			"0.004": 22.3831392758,
			"0.005": 15.9939757168,
			"0.006": 7.56595336479,
			"0.007": 5.67054579325,
			"0.008": 3.86827222719,
			"0.009": 3.24797446979,
			"0.01": 3.24672585713,
			"0.011": 2.5404629683,
			"0.012": 2.69110194437,
			"0.013": 1.19761863598,
			"0.014": 0.0,
			"0.015": 0.0,
			"0.016": 0.0,
			"0.017": 0.0,
			"0.018": 0.0,
			"0.019": 0.0,
			"0.02": 0.0,
			"0.021": 0.0,
			"0.022": 0.0,
			"0.023": 0.0,
			"0.024": 0.0,
			"0.025": 0.0
		}
	}
}
