{
	 "smiles": "CC(CCC(N)=O)N1N=C2C=CC=CC2=N1", 
	 "Tm": 375.15, 
	 "num_atms": 30, 
	 "gaussian": { 
		 "optdone": 1, 
		 "sigma_profile": "yes", 
		 "theory": "DFT", 
		 "functional": "B3LYP", 
		 "basiset": "6-31G**", 
		 "properties": { 
			 "R2extent": 4670.233, 
			 "electric_dipole_moment_norm": 3.98468069737, 
			 "electric_quadrupole_moment_norm": 18.2925842874, 
			 "total_energy": -721.836664424, 
			 "HOMO_LUMO_gap": 0.17903, 
			 "cosmo_polarized_energy": -14.49, 
			 "cosmo_cavitation_energy": 32.94, 
			 "cosmo_dispersion_energy": -23.83, 
			 "cosmo_repulsion_energy": 1.87, 
			 "cosmo_total_nonelectrostatic_energy": 10.98, 
			 "SMD_solvation_energy": 4.21 
		},
		"coords": [
			{
				"x": 2.4708680568,
				"y": 2.511592757,
				"z": -0.8309294357,
				"element": "C" 
			},
			{
				"x": 1.4230420125,
				"y": 1.7499260217,
				"z": -0.0270572098,
				"element": "C" 
			},
			{
				"x": 1.914864718,
				"y": 1.3326635221,
				"z": 1.3838846872,
				"element": "C" 
			},
			{
				"x": 1.5298225279,
				"y": 2.332590432,
				"z": 2.4799061115,
				"element": "C" 
			},
			{
				"x": 0.0476697577,
				"y": 2.4664451332,
				"z": 2.860800178,
				"element": "C" 
			},
			{
				"x": -0.8290925213,
				"y": 1.556642864,
				"z": 2.3429662169,
				"element": "N" 
			},
			{
				"x": -0.3047533125,
				"y": 3.3465080847,
				"z": 3.6354652532,
				"element": "O" 
			},
			{
				"x": 0.9499015768,
				"y": 0.5569299519,
				"z": -0.7610947738,
				"element": "N" 
			},
			{
				"x": -0.111349076,
				"y": -0.1029993647,
				"z": -0.2993459153,
				"element": "N" 
			},
			{
				"x": -0.2450288726,
				"y": -1.1248800062,
				"z": -1.1777513131,
				"element": "C" 
			},
			{
				"x": -1.186982894,
				"y": -2.1769842878,
				"z": -1.2392488137,
				"element": "C" 
			},
			{
				"x": -1.0521502242,
				"y": -3.0735691341,
				"z": -2.2777417552,
				"element": "C" 
			},
			{
				"x": -0.0153982428,
				"y": -2.954989776,
				"z": -3.2512259078,
				"element": "C" 
			},
			{
				"x": 0.9108900689,
				"y": -1.9352578539,
				"z": -3.2076763351,
				"element": "C" 
			},
			{
				"x": 0.7902583104,
				"y": -1.0058676567,
				"z": -2.1497880293,
				"element": "C" 
			},
			{
				"x": 1.5378609897,
				"y": 0.0838797323,
				"z": -1.8470032277,
				"element": "N" 
			},
			{
				"x": 2.769673728,
				"y": 3.3974638489,
				"z": -0.2628216401,
				"element": "H" 
			},
			{
				"x": 2.0787094656,
				"y": 2.8351728883,
				"z": -1.7975698606,
				"element": "H" 
			},
			{
				"x": 3.3546022656,
				"y": 1.8950242227,
				"z": -1.009486052,
				"element": "H" 
			},
			{
				"x": 0.5282784703,
				"y": 2.3714049828,
				"z": 0.0820554048,
				"element": "H" 
			},
			{
				"x": 3.0047531754,
				"y": 1.2202541804,
				"z": 1.3586946934,
				"element": "H" 
			},
			{
				"x": 1.5117762015,
				"y": 0.3465892182,
				"z": 1.6315461628,
				"element": "H" 
			},
			{
				"x": 2.0501944343,
				"y": 2.0720550086,
				"z": 3.4087384615,
				"element": "H" 
			},
			{
				"x": 1.8686753163,
				"y": 3.3449906553,
				"z": 2.2327493854,
				"element": "H" 
			},
			{
				"x": -0.6182677974,
				"y": 0.8948159524,
				"z": 1.6037947132,
				"element": "H" 
			},
			{
				"x": -1.7975317133,
				"y": 1.6924288826,
				"z": 2.5938175675,
				"element": "H" 
			},
			{
				"x": -1.9753659036,
				"y": -2.2676016228,
				"z": -0.4997371858,
				"element": "H" 
			},
			{
				"x": -1.7529466205,
				"y": -3.8986512903,
				"z": -2.3644854287,
				"element": "H" 
			},
			{
				"x": 0.0375659577,
				"y": -3.693137124,
				"z": -4.0458460765,
				"element": "H" 
			},
			{
				"x": 1.7001601448,
				"y": -1.8404402224,
				"z": -3.9456098753,
				"element": "H" 
			}
		],
		 "valence_orbital": [ 
			{
				"type": "occ",
				"energy": -0.30826,
				"method": "rhf"
			},
			{
				"type": "occ",
				"energy": -0.25823,
				"method": "rhf"
			},
			{
				"type": "occ",
				"energy": -0.25475,
				"method": "rhf"
			},
			{
				"type": "occ",
				"energy": -0.23707,
				"method": "rhf"
			},
			{
				"type": "occ",
				"energy": -0.2362,
				"method": "rhf"
			},
			{
				"type": "unocc",
				"energy": -0.05717,
				"method": "rhf"
			},
			{
				"type": "unocc",
				"energy": 0.01379,
				"method": "rhf"
			},
			{
				"type": "unocc",
				"energy": 0.02176,
				"method": "rhf"
			},
			{
				"type": "unocc",
				"energy": 0.03737,
				"method": "rhf"
			},
			{
				"type": "unocc",
				"energy": 0.07927,
				"method": "rhf"
			}
		],
		"cosmo_sigma_profile": { 
			"-0.025": 0.0,
			"-0.024": 0.0,
			"-0.023": 0.0,
			"-0.022": 0.0,
			"-0.021": 0.0,
			"-0.02": 0.0,
			"-0.019": 0.0,
			"-0.018": 0.0,
			"-0.017": 0.0,
			"-0.016": 0.0,
			"-0.015": 0.0,
			"-0.014": 0.104565616962,
			"-0.013": 1.12890377904,
			"-0.012": 0.922217853732,
			"-0.011": 0.645146949497,
			"-0.01": 1.20615136797,
			"-0.009": 0.997762121018,
			"-0.008": 0.991632480583,
			"-0.007": 4.48642716016,
			"-0.006": 14.2022245058,
			"-0.005": 22.5662418089,
			"-0.004": 27.5055996341,
			"-0.003": 25.1426965684,
			"-0.002": 23.8737890295,
			"-0.001": 17.5638110687,
			"0.0": 16.1864119334,
			"0.001": 13.7528261728,
			"0.002": 17.141791357,
			"0.003": 17.8206569985,
			"0.004": 15.7487827965,
			"0.005": 7.99516005711,
			"0.006": 3.09660970713,
			"0.007": 2.92702369619,
			"0.008": 3.35666381753,
			"0.009": 2.15445455336,
			"0.01": 1.90901759419,
			"0.011": 2.43114291512,
			"0.012": 2.34974769908,
			"0.013": 2.61079783989,
			"0.014": 5.46033273567,
			"0.015": 4.15493590223,
			"0.016": 0.444754503783,
			"0.017": 0.0,
			"0.018": 0.0,
			"0.019": 0.0,
			"0.02": 0.0,
			"0.021": 0.0,
			"0.022": 0.0,
			"0.023": 0.0,
			"0.024": 0.0,
			"0.025": 0.0
		}
	}
}
