{
	 "smiles": "[O-][N+](=O)C1=CN(CCCl)C(=O)C=C1", 
	 "Tm": 404.15, 
	 "num_atms": 20, 
	 "gaussian": { 
		 "optdone": 1, 
		 "sigma_profile": "yes", 
		 "theory": "DFT", 
		 "functional": "B3LYP", 
		 "basiset": "6-31G**", 
		 "properties": { 
			 "R2extent": 3246.41, 
			 "electric_dipole_moment_norm": 3.02547367862, 
			 "electric_quadrupole_moment_norm": 24.2423040722, 
			 "total_energy": -1066.23279514, 
			 "HOMO_LUMO_gap": 0.15681, 
			 "cosmo_polarized_energy": -18.09, 
			 "cosmo_cavitation_energy": 26.91, 
			 "cosmo_dispersion_energy": -19.29, 
			 "cosmo_repulsion_energy": 1.54, 
			 "cosmo_total_nonelectrostatic_energy": 9.16, 
			 "SMD_solvation_energy": 7.41 
		},
		"coords": [
			{
				"x": 3.2338673098,
				"y": -1.8900109293,
				"z": -1.561750397,
				"element": "O" 
			},
			{
				"x": 2.624017045,
				"y": -1.1900182181,
				"z": -0.7518305753,
				"element": "N" 
			},
			{
				"x": 3.1402519062,
				"y": -0.6123522009,
				"z": 0.2102541044,
				"element": "O" 
			},
			{
				"x": 1.1970785292,
				"y": -1.0376762161,
				"z": -0.9495595239,
				"element": "C" 
			},
			{
				"x": 0.4875377289,
				"y": -0.2697843107,
				"z": -0.0654959869,
				"element": "C" 
			},
			{
				"x": -0.844059916,
				"y": -0.0912621546,
				"z": -0.2085520842,
				"element": "N" 
			},
			{
				"x": -1.5837608447,
				"y": 0.7255505777,
				"z": 0.7655133262,
				"element": "C" 
			},
			{
				"x": -1.6217779777,
				"y": 0.1292841523,
				"z": 2.1683351574,
				"element": "C" 
			},
			{
				"x": -2.4745866669,
				"y": -1.4616252879,
				"z": 2.2276019745,
				"element": "Cl" 
			},
			{
				"x": -1.5938208952,
				"y": -0.6658618498,
				"z": -1.2992846603,
				"element": "C" 
			},
			{
				"x": -2.7893358649,
				"y": -0.4371881195,
				"z": -1.4074615191,
				"element": "O" 
			},
			{
				"x": -0.8010806112,
				"y": -1.4857692517,
				"z": -2.2000588757,
				"element": "C" 
			},
			{
				"x": 0.536761862,
				"y": -1.6686107106,
				"z": -2.0409166961,
				"element": "C" 
			},
			{
				"x": 0.9848475084,
				"y": 0.214070696,
				"z": 0.7666297688,
				"element": "H" 
			},
			{
				"x": -1.1161719373,
				"y": 1.7156112814,
				"z": 0.8249727987,
				"element": "H" 
			},
			{
				"x": -2.5899503802,
				"y": 0.8342222376,
				"z": 0.3605540336,
				"element": "H" 
			},
			{
				"x": -0.6215200577,
				"y": -0.0366489241,
				"z": 2.5739478986,
				"element": "H" 
			},
			{
				"x": -2.1588755779,
				"y": 0.8089155732,
				"z": 2.8324369426,
				"element": "H" 
			},
			{
				"x": -1.3482311915,
				"y": -1.9401684486,
				"z": -3.0171204605,
				"element": "H" 
			},
			{
				"x": 1.1206100317,
				"y": -2.2771778964,
				"z": -2.7213152259,
				"element": "H" 
			}
		],
		 "valence_orbital": [ 
			{
				"type": "occ",
				"energy": -0.31404,
				"method": "rhf"
			},
			{
				"type": "occ",
				"energy": -0.31249,
				"method": "rhf"
			},
			{
				"type": "occ",
				"energy": -0.29959,
				"method": "rhf"
			},
			{
				"type": "occ",
				"energy": -0.28066,
				"method": "rhf"
			},
			{
				"type": "occ",
				"energy": -0.25013,
				"method": "rhf"
			},
			{
				"type": "unocc",
				"energy": -0.09332,
				"method": "rhf"
			},
			{
				"type": "unocc",
				"energy": -0.06831,
				"method": "rhf"
			},
			{
				"type": "unocc",
				"energy": 0.00617,
				"method": "rhf"
			},
			{
				"type": "unocc",
				"energy": 0.00943,
				"method": "rhf"
			},
			{
				"type": "unocc",
				"energy": 0.05662,
				"method": "rhf"
			}
		],
		"cosmo_sigma_profile": { 
			"-0.025": 0.0,
			"-0.024": 0.0,
			"-0.023": 0.0,
			"-0.022": 0.0,
			"-0.021": 0.0,
			"-0.02": 0.0,
			"-0.019": 0.0,
			"-0.018": 0.0,
			"-0.017": 0.0,
			"-0.016": 0.0,
			"-0.015": 0.0,
			"-0.014": 0.0337795252653,
			"-0.013": 1.1187727134,
			"-0.012": 2.03838308894,
			"-0.011": 1.94038062063,
			"-0.01": 2.17133098845,
			"-0.009": 6.23602912651,
			"-0.008": 12.0873762285,
			"-0.007": 11.1927780256,
			"-0.006": 12.3797445674,
			"-0.005": 13.3435655027,
			"-0.004": 12.6283695929,
			"-0.003": 12.4979433752,
			"-0.002": 10.8666317992,
			"-0.001": 10.4072222176,
			"0.0": 11.7128120573,
			"0.001": 10.3611845668,
			"0.002": 7.82459067329,
			"0.003": 6.33429671962,
			"0.004": 9.29500533275,
			"0.005": 10.6601260315,
			"0.006": 13.1712985284,
			"0.007": 8.24812598293,
			"0.008": 9.99543602241,
			"0.009": 6.01024037854,
			"0.01": 5.48208313109,
			"0.011": 2.51808044025,
			"0.012": 4.18167310643,
			"0.013": 2.41048862417,
			"0.014": 0.237367757162,
			"0.015": 0.0,
			"0.016": 0.0,
			"0.017": 0.0,
			"0.018": 0.0,
			"0.019": 0.0,
			"0.02": 0.0,
			"0.021": 0.0,
			"0.022": 0.0,
			"0.023": 0.0,
			"0.024": 0.0,
			"0.025": 0.0
		}
	}
}
