{
	 "smiles": "OC(=O)C1=C(O)C2=C(N=C1)C(Br)=CC=C2", 
	 "Tm": 550.15, 
	 "num_atms": 21, 
	 "gaussian": { 
		 "optdone": 1, 
		 "sigma_profile": "yes", 
		 "theory": "DFT", 
		 "functional": "B3LYP", 
		 "basiset": "6-31G**", 
		 "properties": { 
			 "R2extent": 4905.7923, 
			 "electric_dipole_moment_norm": 1.07759314215, 
			 "electric_quadrupole_moment_norm": 20.62000229, 
			 "total_energy": -3236.53141976, 
			 "HOMO_LUMO_gap": 0.1599, 
			 "cosmo_polarized_energy": -15.26, 
			 "cosmo_cavitation_energy": 27.77, 
			 "cosmo_dispersion_energy": -21.69, 
			 "cosmo_repulsion_energy": 1.65, 
			 "cosmo_total_nonelectrostatic_energy": 7.73, 
			 "SMD_solvation_energy": 3.74 
		},
		"coords": [
			{
				"x": 3.9934277494,
				"y": -2.5368141603,
				"z": 0.6609628611,
				"element": "O" 
			},
			{
				"x": 2.6541839664,
				"y": -2.6322098279,
				"z": 0.5956752471,
				"element": "C" 
			},
			{
				"x": 2.1404344881,
				"y": -3.7218163076,
				"z": 0.846985264,
				"element": "O" 
			},
			{
				"x": 1.8518238331,
				"y": -1.4528876361,
				"z": 0.2320893069,
				"element": "C" 
			},
			{
				"x": 0.4536785496,
				"y": -1.5939789938,
				"z": 0.1747820353,
				"element": "C" 
			},
			{
				"x": -0.1642881456,
				"y": -2.7373041538,
				"z": 0.4331585789,
				"element": "O" 
			},
			{
				"x": -0.3433676157,
				"y": -0.4573858357,
				"z": -0.1773918257,
				"element": "C" 
			},
			{
				"x": 0.3382214647,
				"y": 0.7675318149,
				"z": -0.4530082132,
				"element": "C" 
			},
			{
				"x": 1.6991151532,
				"y": 0.8903924403,
				"z": -0.3935018275,
				"element": "N" 
			},
			{
				"x": 2.390297898,
				"y": -0.1712883278,
				"z": -0.068114377,
				"element": "C" 
			},
			{
				"x": -0.4595891128,
				"y": 1.8930484569,
				"z": -0.8022121014,
				"element": "C" 
			},
			{
				"x": 0.3742237877,
				"y": 3.5588930077,
				"z": -1.182979364,
				"element": "Br" 
			},
			{
				"x": -1.8349920036,
				"y": 1.7990947987,
				"z": -0.8703197181,
				"element": "C" 
			},
			{
				"x": -2.4844102891,
				"y": 0.577533962,
				"z": -0.5934684463,
				"element": "C" 
			},
			{
				"x": -1.7528961858,
				"y": -0.5391971134,
				"z": -0.2509659371,
				"element": "C" 
			},
			{
				"x": 4.2961268908,
				"y": -1.6435751293,
				"z": 0.4467763486,
				"element": "H" 
			},
			{
				"x": 0.5548316962,
				"y": -3.39814823,
				"z": 0.6551116431,
				"element": "H" 
			},
			{
				"x": 3.4721434337,
				"y": -0.0156008281,
				"z": -0.0360613415,
				"element": "H" 
			},
			{
				"x": -2.4160661165,
				"y": 2.6740452959,
				"z": -1.1391380638,
				"element": "H" 
			},
			{
				"x": -3.5669927702,
				"y": 0.5276627039,
				"z": -0.6533739247,
				"element": "H" 
			},
			{
				"x": -2.2342066716,
				"y": -1.4858959363,
				"z": -0.0349061448,
				"element": "H" 
			}
		],
		 "valence_orbital": [ 
			{
				"type": "occ",
				"energy": -0.29128,
				"method": "rhf"
			},
			{
				"type": "occ",
				"energy": -0.28247,
				"method": "rhf"
			},
			{
				"type": "occ",
				"energy": -0.27261,
				"method": "rhf"
			},
			{
				"type": "occ",
				"energy": -0.26828,
				"method": "rhf"
			},
			{
				"type": "occ",
				"energy": -0.23725,
				"method": "rhf"
			},
			{
				"type": "unocc",
				"energy": -0.07735,
				"method": "rhf"
			},
			{
				"type": "unocc",
				"energy": -0.05803,
				"method": "rhf"
			},
			{
				"type": "unocc",
				"energy": 0.00313,
				"method": "rhf"
			},
			{
				"type": "unocc",
				"energy": 0.00679,
				"method": "rhf"
			},
			{
				"type": "unocc",
				"energy": 0.01153,
				"method": "rhf"
			}
		],
		"cosmo_sigma_profile": { 
			"-0.025": 0.0,
			"-0.024": 0.0,
			"-0.023": 0.0,
			"-0.022": 0.0,
			"-0.021": 0.0488987292315,
			"-0.02": 0.930229405161,
			"-0.019": 1.10348297293,
			"-0.018": 1.28216017746,
			"-0.017": 1.08206739356,
			"-0.016": 0.55186911532,
			"-0.015": 1.02272087046,
			"-0.014": 0.976708538783,
			"-0.013": 1.09741926728,
			"-0.012": 1.68119327162,
			"-0.011": 0.840755374977,
			"-0.01": 0.919549844617,
			"-0.009": 1.71360592426,
			"-0.008": 3.67528220138,
			"-0.007": 6.82296367392,
			"-0.006": 8.86003355692,
			"-0.005": 12.0089559121,
			"-0.004": 11.4597145536,
			"-0.003": 12.3875783729,
			"-0.002": 16.2091436731,
			"-0.001": 14.2483936942,
			"0.0": 19.1521997441,
			"0.001": 21.7492252547,
			"0.002": 17.0887149583,
			"0.003": 12.5868294807,
			"0.004": 13.7210038087,
			"0.005": 9.00010583607,
			"0.006": 6.74140900484,
			"0.007": 5.81443067498,
			"0.008": 5.25114411451,
			"0.009": 5.76335880113,
			"0.01": 3.83371248173,
			"0.011": 3.59519331631,
			"0.012": 2.14031388251,
			"0.013": 1.03168537688,
			"0.014": 1.06261802404,
			"0.015": 0.301066044772,
			"0.016": 0.0,
			"0.017": 0.0,
			"0.018": 0.0,
			"0.019": 0.0,
			"0.02": 0.0,
			"0.021": 0.0,
			"0.022": 0.0,
			"0.023": 0.0,
			"0.024": 0.0,
			"0.025": 0.0
		}
	}
}
