{
	 "smiles": "OC(=O)C1=COC(=C1)C#CC1=CC=CC=C1", 
	 "Tm": 457.15, 
	 "num_atms": 24, 
	 "gaussian": { 
		 "optdone": 1, 
		 "sigma_profile": "yes", 
		 "theory": "DFT", 
		 "functional": "B3LYP", 
		 "basiset": "6-31G**", 
		 "properties": { 
			 "R2extent": 7070.1896, 
			 "electric_dipole_moment_norm": 4.55491904099, 
			 "electric_quadrupole_moment_norm": 33.8337990087, 
			 "total_energy": -725.799695396, 
			 "HOMO_LUMO_gap": 0.15915, 
			 "cosmo_polarized_energy": -17.28, 
			 "cosmo_cavitation_energy": 31.63, 
			 "cosmo_dispersion_energy": -22.87, 
			 "cosmo_repulsion_energy": 1.79, 
			 "cosmo_total_nonelectrostatic_energy": 10.56, 
			 "SMD_solvation_energy": 7.6 
		},
		"coords": [
			{
				"x": 3.0053195508,
				"y": 5.3572487647,
				"z": 1.7758373423,
				"element": "O" 
			},
			{
				"x": 1.743425327,
				"y": 4.8984851682,
				"z": 1.5513869007,
				"element": "C" 
			},
			{
				"x": 0.7920956877,
				"y": 5.5676277668,
				"z": 1.8774047205,
				"element": "O" 
			},
			{
				"x": 1.6062479953,
				"y": 3.5728025951,
				"z": 0.9042123564,
				"element": "C" 
			},
			{
				"x": 2.5638177651,
				"y": 2.6907576642,
				"z": 0.469502321,
				"element": "C" 
			},
			{
				"x": 1.9976917882,
				"y": 1.5907053077,
				"z": -0.0664104565,
				"element": "O" 
			},
			{
				"x": 0.6231008003,
				"y": 1.7543127493,
				"z": 0.0181129592,
				"element": "C" 
			},
			{
				"x": 0.3479169133,
				"y": 2.9593205663,
				"z": 0.6086617858,
				"element": "C" 
			},
			{
				"x": -0.1870483214,
				"y": 0.7231574802,
				"z": -0.4834644817,
				"element": "C" 
			},
			{
				"x": -0.8974526947,
				"y": -0.1649570283,
				"z": -0.9152519564,
				"element": "C" 
			},
			{
				"x": -1.7321201568,
				"y": -1.2017340794,
				"z": -1.4190977683,
				"element": "C" 
			},
			{
				"x": -1.1662002047,
				"y": -2.3606094726,
				"z": -1.9885066398,
				"element": "C" 
			},
			{
				"x": -1.9872924439,
				"y": -3.3714906957,
				"z": -2.479674488,
				"element": "C" 
			},
			{
				"x": -3.3774514148,
				"y": -3.24660008,
				"z": -2.4127317239,
				"element": "C" 
			},
			{
				"x": -3.9464757577,
				"y": -2.1011712173,
				"z": -1.8499022379,
				"element": "C" 
			},
			{
				"x": -3.1355170193,
				"y": -1.0837144354,
				"z": -1.3554791661,
				"element": "C" 
			},
			{
				"x": 3.6685479096,
				"y": 4.7241829201,
				"z": 1.4699392265,
				"element": "H" 
			},
			{
				"x": 3.6447973438,
				"y": 2.697290038,
				"z": 0.4682575421,
				"element": "H" 
			},
			{
				"x": -0.6246647152,
				"y": 3.3774934059,
				"z": 0.816627208,
				"element": "H" 
			},
			{
				"x": -0.0862188881,
				"y": -2.4534747361,
				"z": -2.0384899736,
				"element": "H" 
			},
			{
				"x": -1.541160294,
				"y": -4.2601698172,
				"z": -2.9163608477,
				"element": "H" 
			},
			{
				"x": -4.0141269492,
				"y": -4.0378485706,
				"z": -2.7972126124,
				"element": "H" 
			},
			{
				"x": -5.0264493785,
				"y": -2.000219844,
				"z": -1.7959918323,
				"element": "H" 
			},
			{
				"x": -3.573582843,
				"y": -0.1926944499,
				"z": -0.9176681779,
				"element": "H" 
			}
		],
		 "valence_orbital": [ 
			{
				"type": "occ",
				"energy": -0.28801,
				"method": "rhf"
			},
			{
				"type": "occ",
				"energy": -0.27845,
				"method": "rhf"
			},
			{
				"type": "occ",
				"energy": -0.27698,
				"method": "rhf"
			},
			{
				"type": "occ",
				"energy": -0.26366,
				"method": "rhf"
			},
			{
				"type": "occ",
				"energy": -0.21812,
				"method": "rhf"
			},
			{
				"type": "unocc",
				"energy": -0.05897,
				"method": "rhf"
			},
			{
				"type": "unocc",
				"energy": -0.03704,
				"method": "rhf"
			},
			{
				"type": "unocc",
				"energy": -0.01221,
				"method": "rhf"
			},
			{
				"type": "unocc",
				"energy": 0.0133,
				"method": "rhf"
			},
			{
				"type": "unocc",
				"energy": 0.0158,
				"method": "rhf"
			}
		],
		"cosmo_sigma_profile": { 
			"-0.025": 0.0,
			"-0.024": 0.0,
			"-0.023": 0.0,
			"-0.022": 0.0,
			"-0.021": 0.0,
			"-0.02": 0.395981906565,
			"-0.019": 1.61448220879,
			"-0.018": 1.11610949333,
			"-0.017": 0.701564175576,
			"-0.016": 1.4489766715,
			"-0.015": 1.26650049788,
			"-0.014": 1.24398721558,
			"-0.013": 1.27523622366,
			"-0.012": 1.69121193302,
			"-0.011": 1.26869955208,
			"-0.01": 2.4965353496,
			"-0.009": 1.71070541595,
			"-0.008": 2.81673108414,
			"-0.007": 4.60266886708,
			"-0.006": 13.518980544,
			"-0.005": 12.8705760208,
			"-0.004": 16.7496016125,
			"-0.003": 12.6427902588,
			"-0.002": 12.2132865841,
			"-0.001": 16.0173861882,
			"0.0": 18.7480672788,
			"0.001": 20.5952388566,
			"0.002": 22.2924800395,
			"0.003": 22.9094731829,
			"0.004": 24.104333069,
			"0.005": 10.5903712178,
			"0.006": 3.62212924111,
			"0.007": 3.36937014029,
			"0.008": 2.8545754751,
			"0.009": 3.43017213082,
			"0.01": 4.72044042445,
			"0.011": 5.59346507703,
			"0.012": 4.66108003278,
			"0.013": 1.20644328458,
			"0.014": 0.0,
			"0.015": 0.0,
			"0.016": 0.0,
			"0.017": 0.0,
			"0.018": 0.0,
			"0.019": 0.0,
			"0.02": 0.0,
			"0.021": 0.0,
			"0.022": 0.0,
			"0.023": 0.0,
			"0.024": 0.0,
			"0.025": 0.0
		}
	}
}
