{
	 "smiles": "NC1=C(C=CN=C1Br)C(O)=O", 
	 "Tm": 498.15, 
	 "num_atms": 16, 
	 "gaussian": { 
		 "optdone": 1, 
		 "sigma_profile": "yes", 
		 "theory": "DFT", 
		 "functional": "B3LYP", 
		 "basiset": "6-31G**", 
		 "properties": { 
			 "R2extent": 3369.4825, 
			 "electric_dipole_moment_norm": 3.35972891019, 
			 "electric_quadrupole_moment_norm": 12.6902114009, 
			 "total_energy": -3063.02397236, 
			 "HOMO_LUMO_gap": 0.15678, 
			 "cosmo_polarized_energy": -12.07, 
			 "cosmo_cavitation_energy": 22.73, 
			 "cosmo_dispersion_energy": -17.91, 
			 "cosmo_repulsion_energy": 1.43, 
			 "cosmo_total_nonelectrostatic_energy": 6.25, 
			 "SMD_solvation_energy": 2.63 
		},
		"coords": [
			{
				"x": -1.077302928,
				"y": -0.9528961719,
				"z": -2.0070553391,
				"element": "N" 
			},
			{
				"x": -0.9321563339,
				"y": -0.1713805727,
				"z": -0.9114832105,
				"element": "C" 
			},
			{
				"x": 0.1425304515,
				"y": -0.2640904284,
				"z": 0.0162672687,
				"element": "C" 
			},
			{
				"x": 0.1737664453,
				"y": 0.6115242656,
				"z": 1.1157960442,
				"element": "C" 
			},
			{
				"x": -0.8275339305,
				"y": 1.5471929105,
				"z": 1.2886804947,
				"element": "C" 
			},
			{
				"x": -1.8527079233,
				"y": 1.6478563978,
				"z": 0.4187112768,
				"element": "N" 
			},
			{
				"x": -1.8914958928,
				"y": 0.8430801952,
				"z": -0.6017514648,
				"element": "C" 
			},
			{
				"x": -3.3986485494,
				"y": 1.053766611,
				"z": -1.8042982257,
				"element": "Br" 
			},
			{
				"x": 1.2667156771,
				"y": -1.2274124832,
				"z": -0.0712093429,
				"element": "C" 
			},
			{
				"x": 1.2130924195,
				"y": -2.0680121876,
				"z": -1.1475124526,
				"element": "O" 
			},
			{
				"x": 2.180528371,
				"y": -1.299179112,
				"z": 0.7249331237,
				"element": "O" 
			},
			{
				"x": -1.8759456785,
				"y": -0.8097166529,
				"z": -2.6040437769,
				"element": "H" 
			},
			{
				"x": -0.3953510951,
				"y": -1.6637421487,
				"z": -2.2126128114,
				"element": "H" 
			},
			{
				"x": 0.9989886617,
				"y": 0.5282282955,
				"z": 1.8133108515,
				"element": "H" 
			},
			{
				"x": -0.8325879098,
				"y": 2.2371660787,
				"z": 2.1264088757,
				"element": "H" 
			},
			{
				"x": 1.9999082152,
				"y": -2.633884997,
				"z": -1.0765413114,
				"element": "H" 
			}
		],
		 "valence_orbital": [ 
			{
				"type": "occ",
				"energy": -0.30153,
				"method": "rhf"
			},
			{
				"type": "occ",
				"energy": -0.29191,
				"method": "rhf"
			},
			{
				"type": "occ",
				"energy": -0.27646,
				"method": "rhf"
			},
			{
				"type": "occ",
				"energy": -0.27367,
				"method": "rhf"
			},
			{
				"type": "occ",
				"energy": -0.22419,
				"method": "rhf"
			},
			{
				"type": "unocc",
				"energy": -0.06741,
				"method": "rhf"
			},
			{
				"type": "unocc",
				"energy": -0.00953,
				"method": "rhf"
			},
			{
				"type": "unocc",
				"energy": 0.00182,
				"method": "rhf"
			},
			{
				"type": "unocc",
				"energy": 0.03838,
				"method": "rhf"
			},
			{
				"type": "unocc",
				"energy": 0.06097,
				"method": "rhf"
			}
		],
		"cosmo_sigma_profile": { 
			"-0.025": 0.0,
			"-0.024": 0.0,
			"-0.023": 0.0,
			"-0.022": 0.0,
			"-0.021": 0.0,
			"-0.02": 0.0,
			"-0.019": 0.258662205599,
			"-0.018": 0.964281936458,
			"-0.017": 1.14128190954,
			"-0.016": 0.810862527145,
			"-0.015": 0.517018345308,
			"-0.014": 0.537260442031,
			"-0.013": 0.728484083054,
			"-0.012": 2.15876125954,
			"-0.011": 2.57888147845,
			"-0.01": 2.31033978618,
			"-0.009": 2.2338589322,
			"-0.008": 2.22463818784,
			"-0.007": 4.62041597621,
			"-0.006": 5.99366188096,
			"-0.005": 6.31839471629,
			"-0.004": 7.26137815884,
			"-0.003": 9.61271973769,
			"-0.002": 13.4953789929,
			"-0.001": 17.713622835,
			"0.0": 17.6617893528,
			"0.001": 16.2549792148,
			"0.002": 16.3677178655,
			"0.003": 10.6191174433,
			"0.004": 12.0213525262,
			"0.005": 7.16387292609,
			"0.006": 2.59993152726,
			"0.007": 3.26356039235,
			"0.008": 2.63788856522,
			"0.009": 2.99781231295,
			"0.01": 3.26221346512,
			"0.011": 6.08390797423,
			"0.012": 2.3126536471,
			"0.013": 0.770297740994,
			"0.014": 0.430711108897,
			"0.015": 0.0,
			"0.016": 0.0,
			"0.017": 0.0,
			"0.018": 0.0,
			"0.019": 0.0,
			"0.02": 0.0,
			"0.021": 0.0,
			"0.022": 0.0,
			"0.023": 0.0,
			"0.024": 0.0,
			"0.025": 0.0
		}
	}
}
