{
	 "smiles": "CCOC1=CC2=C(NC(=S)S2)C=C1", 
	 "Tm": 472.15, 
	 "num_atms": 22, 
	 "gaussian": { 
		 "optdone": 1, 
		 "sigma_profile": "yes", 
		 "theory": "DFT", 
		 "functional": "B3LYP", 
		 "basiset": "6-31G**", 
		 "properties": { 
			 "R2extent": 5371.5452, 
			 "electric_dipole_moment_norm": 5.72732201731, 
			 "electric_quadrupole_moment_norm": 29.1629995748, 
			 "total_energy": -1274.741287, 
			 "HOMO_LUMO_gap": 0.16179, 
			 "cosmo_polarized_energy": -15.03, 
			 "cosmo_cavitation_energy": 29.17, 
			 "cosmo_dispersion_energy": -22.58, 
			 "cosmo_repulsion_energy": 1.7, 
			 "cosmo_total_nonelectrostatic_energy": 8.3, 
			 "SMD_solvation_energy": 3.72 
		},
		"coords": [
			{
				"x": 2.9902214965,
				"y": -0.1049849816,
				"z": -3.1788828169,
				"element": "C" 
			},
			{
				"x": 3.1251177907,
				"y": 0.0714232283,
				"z": -1.6700250543,
				"element": "C" 
			},
			{
				"x": 2.092798938,
				"y": -0.602059446,
				"z": -0.9423221362,
				"element": "O" 
			},
			{
				"x": 0.8612544969,
				"y": -0.031327149,
				"z": -0.8136249789,
				"element": "C" 
			},
			{
				"x": 0.5061995179,
				"y": 1.2309520651,
				"z": -1.3071044229,
				"element": "C" 
			},
			{
				"x": -0.7919108335,
				"y": 1.6889643676,
				"z": -1.0750543419,
				"element": "C" 
			},
			{
				"x": -1.7251801029,
				"y": 0.9152292889,
				"z": -0.3722751268,
				"element": "C" 
			},
			{
				"x": -2.9558375744,
				"y": 1.5591658954,
				"z": -0.2587572808,
				"element": "N" 
			},
			{
				"x": -3.0858115571,
				"y": 2.7966669646,
				"z": -0.8181099254,
				"element": "C" 
			},
			{
				"x": -4.4400445929,
				"y": 3.7475326905,
				"z": -0.8110763469,
				"element": "S" 
			},
			{
				"x": -1.52164632,
				"y": 3.2189306391,
				"z": -1.5695306365,
				"element": "S" 
			},
			{
				"x": -1.3706749121,
				"y": -0.3448060156,
				"z": 0.1164810335,
				"element": "C" 
			},
			{
				"x": -0.0807638619,
				"y": -0.8069000747,
				"z": -0.1089335231,
				"element": "C" 
			},
			{
				"x": 2.9840591614,
				"y": -1.1679472302,
				"z": -3.4357521092,
				"element": "H" 
			},
			{
				"x": 2.0694666461,
				"y": 0.3429556875,
				"z": -3.5622908821,
				"element": "H" 
			},
			{
				"x": 3.8369965921,
				"y": 0.3678430237,
				"z": -3.6872653722,
				"element": "H" 
			},
			{
				"x": 4.0500332378,
				"y": -0.3914781107,
				"z": -1.3154444041,
				"element": "H" 
			},
			{
				"x": 3.1610843773,
				"y": 1.1307577227,
				"z": -1.3853134239,
				"element": "H" 
			},
			{
				"x": 1.2067340154,
				"y": 1.8460444766,
				"z": -1.8571360189,
				"element": "H" 
			},
			{
				"x": -3.7545141795,
				"y": 1.1584573703,
				"z": 0.2150242375,
				"element": "H" 
			},
			{
				"x": -2.0858126362,
				"y": -0.9525573401,
				"z": 0.6623039727,
				"element": "H" 
			},
			{
				"x": 0.2329303003,
				"y": -1.7780630724,
				"z": 0.2572895571,
				"element": "H" 
			}
		],
		 "valence_orbital": [ 
			{
				"type": "occ",
				"energy": -0.32257,
				"method": "rhf"
			},
			{
				"type": "occ",
				"energy": -0.2679,
				"method": "rhf"
			},
			{
				"type": "occ",
				"energy": -0.2454,
				"method": "rhf"
			},
			{
				"type": "occ",
				"energy": -0.21752,
				"method": "rhf"
			},
			{
				"type": "occ",
				"energy": -0.20314,
				"method": "rhf"
			},
			{
				"type": "unocc",
				"energy": -0.04135,
				"method": "rhf"
			},
			{
				"type": "unocc",
				"energy": -0.02274,
				"method": "rhf"
			},
			{
				"type": "unocc",
				"energy": -3e-05,
				"method": "rhf"
			},
			{
				"type": "unocc",
				"energy": 0.01083,
				"method": "rhf"
			},
			{
				"type": "unocc",
				"energy": 0.06534,
				"method": "rhf"
			}
		],
		"cosmo_sigma_profile": { 
			"-0.025": 0.0,
			"-0.024": 0.0,
			"-0.023": 0.0,
			"-0.022": 0.0,
			"-0.021": 0.0,
			"-0.02": 0.0,
			"-0.019": 0.0,
			"-0.018": 0.0282942403582,
			"-0.017": 0.957681463415,
			"-0.016": 1.46602749729,
			"-0.015": 1.50803064189,
			"-0.014": 1.07072241648,
			"-0.013": 0.827508751835,
			"-0.012": 0.954089480906,
			"-0.011": 1.02357799613,
			"-0.01": 1.17178323878,
			"-0.009": 2.07440682242,
			"-0.008": 5.05770393293,
			"-0.007": 6.48040021478,
			"-0.006": 8.2017707623,
			"-0.005": 11.250838016,
			"-0.004": 16.3057439555,
			"-0.003": 16.9163308872,
			"-0.002": 16.1107849051,
			"-0.001": 16.3032975843,
			"0.0": 20.628976877,
			"0.001": 18.20134118,
			"0.002": 20.4747525338,
			"0.003": 19.7622244105,
			"0.004": 8.91595587887,
			"0.005": 5.14296429375,
			"0.006": 6.08913086778,
			"0.007": 5.4071560573,
			"0.008": 6.51523099168,
			"0.009": 9.45603038609,
			"0.01": 6.64744968347,
			"0.011": 2.97252530862,
			"0.012": 0.143651857344,
			"0.013": 0.0,
			"0.014": 0.0,
			"0.015": 0.0,
			"0.016": 0.0,
			"0.017": 0.0,
			"0.018": 0.0,
			"0.019": 0.0,
			"0.02": 0.0,
			"0.021": 0.0,
			"0.022": 0.0,
			"0.023": 0.0,
			"0.024": 0.0,
			"0.025": 0.0
		}
	}
}
