{
	 "smiles": "OC(=O)C=CC1=CC(Br)=C(F)C=C1", 
	 "Tm": 467.15, 
	 "num_atms": 19, 
	 "gaussian": { 
		 "optdone": 1, 
		 "sigma_profile": "yes", 
		 "theory": "DFT", 
		 "functional": "B3LYP", 
		 "basiset": "6-31G**", 
		 "properties": { 
			 "R2extent": 4980.9131, 
			 "electric_dipole_moment_norm": 2.76158176957, 
			 "electric_quadrupole_moment_norm": 28.0118787105, 
			 "total_energy": -3168.24935, 
			 "HOMO_LUMO_gap": 0.16728, 
			 "cosmo_polarized_energy": -16.48, 
			 "cosmo_cavitation_energy": 27.61, 
			 "cosmo_dispersion_energy": -20.31, 
			 "cosmo_repulsion_energy": 1.59, 
			 "cosmo_total_nonelectrostatic_energy": 8.89, 
			 "SMD_solvation_energy": 5.44 
		},
		"coords": [
			{
				"x": -3.6173753923,
				"y": 2.6025865927,
				"z": -1.9806006927,
				"element": "O" 
			},
			{
				"x": -2.9161002393,
				"y": 1.5093585414,
				"z": -2.3898064397,
				"element": "C" 
			},
			{
				"x": -3.261622617,
				"y": 0.9111224402,
				"z": -3.3836318818,
				"element": "O" 
			},
			{
				"x": -1.7487255781,
				"y": 1.1375433305,
				"z": -1.5477307884,
				"element": "C" 
			},
			{
				"x": -1.00317639,
				"y": 0.0702076274,
				"z": -1.8856157905,
				"element": "C" 
			},
			{
				"x": 0.1747379723,
				"y": -0.4646206834,
				"z": -1.204910899,
				"element": "C" 
			},
			{
				"x": 0.7093052453,
				"y": 0.1079977263,
				"z": -0.0347077296,
				"element": "C" 
			},
			{
				"x": 1.8308108836,
				"y": -0.4380099133,
				"z": 0.5744345578,
				"element": "C" 
			},
			{
				"x": 2.551743961,
				"y": 0.3337033992,
				"z": 2.1528122035,
				"element": "Br" 
			},
			{
				"x": 2.4375627862,
				"y": -1.5695702952,
				"z": 0.0205795002,
				"element": "C" 
			},
			{
				"x": 3.5191841703,
				"y": -2.0999338845,
				"z": 0.6038973157,
				"element": "F" 
			},
			{
				"x": 1.9304578099,
				"y": -2.1544215792,
				"z": -1.1334681453,
				"element": "C" 
			},
			{
				"x": 0.806027844,
				"y": -1.6025071098,
				"z": -1.7393504485,
				"element": "C" 
			},
			{
				"x": -3.2275811655,
				"y": 2.9753905774,
				"z": -1.1778666507,
				"element": "H" 
			},
			{
				"x": -1.5219518374,
				"y": 1.741023696,
				"z": -0.6710985103,
				"element": "H" 
			},
			{
				"x": -1.320084204,
				"y": -0.4612312215,
				"z": -2.7817353684,
				"element": "H" 
			},
			{
				"x": 0.2538115083,
				"y": 0.9848399532,
				"z": 0.4100562092,
				"element": "H" 
			},
			{
				"x": 2.4247361441,
				"y": -3.031283073,
				"z": -1.5370805126,
				"element": "H" 
			},
			{
				"x": 0.4075390985,
				"y": -2.0573961245,
				"z": -2.6410759286,
				"element": "H" 
			}
		],
		 "valence_orbital": [ 
			{
				"type": "occ",
				"energy": -0.30694,
				"method": "rhf"
			},
			{
				"type": "occ",
				"energy": -0.30366,
				"method": "rhf"
			},
			{
				"type": "occ",
				"energy": -0.2751,
				"method": "rhf"
			},
			{
				"type": "occ",
				"energy": -0.26978,
				"method": "rhf"
			},
			{
				"type": "occ",
				"energy": -0.24824,
				"method": "rhf"
			},
			{
				"type": "unocc",
				"energy": -0.08096,
				"method": "rhf"
			},
			{
				"type": "unocc",
				"energy": -0.03805,
				"method": "rhf"
			},
			{
				"type": "unocc",
				"energy": -0.01252,
				"method": "rhf"
			},
			{
				"type": "unocc",
				"energy": 0.00713,
				"method": "rhf"
			},
			{
				"type": "unocc",
				"energy": 0.05217,
				"method": "rhf"
			}
		],
		"cosmo_sigma_profile": { 
			"-0.025": 0.0,
			"-0.024": 0.0,
			"-0.023": 0.0,
			"-0.022": 0.0,
			"-0.021": 0.0,
			"-0.02": 0.0,
			"-0.019": 0.959606253359,
			"-0.018": 0.945348682563,
			"-0.017": 1.21663540871,
			"-0.016": 1.42686867216,
			"-0.015": 1.23537060292,
			"-0.014": 0.503613805949,
			"-0.013": 0.866022566318,
			"-0.012": 1.43207993288,
			"-0.011": 1.40242319472,
			"-0.01": 2.74025207774,
			"-0.009": 2.8311721961,
			"-0.008": 7.77900370999,
			"-0.007": 7.05149555289,
			"-0.006": 8.41226032542,
			"-0.005": 7.42291298418,
			"-0.004": 7.59085304224,
			"-0.003": 8.39262871618,
			"-0.002": 12.3734974987,
			"-0.001": 16.3829679668,
			"0.0": 21.0768927625,
			"0.001": 26.5687178617,
			"0.002": 20.0772851773,
			"0.003": 18.7328397719,
			"0.004": 15.846996161,
			"0.005": 3.89233666829,
			"0.006": 2.16768871588,
			"0.007": 2.27052919142,
			"0.008": 2.6131880857,
			"0.009": 3.2144874471,
			"0.01": 3.63792190968,
			"0.011": 5.39964381895,
			"0.012": 5.69503303282,
			"0.013": 2.85519535284,
			"0.014": 0.481366753078,
			"0.015": 0.0,
			"0.016": 0.0,
			"0.017": 0.0,
			"0.018": 0.0,
			"0.019": 0.0,
			"0.02": 0.0,
			"0.021": 0.0,
			"0.022": 0.0,
			"0.023": 0.0,
			"0.024": 0.0,
			"0.025": 0.0
		}
	}
}
