{
	 "smiles": "CC1=CC2=NC3=C(SC(=O)S3)N=C2C=C1", 
	 "Tm": 443.15, 
	 "num_atms": 21, 
	 "gaussian": { 
		 "optdone": 1, 
		 "sigma_profile": "yes", 
		 "theory": "DFT", 
		 "functional": "B3LYP", 
		 "basiset": "6-31G**", 
		 "properties": { 
			 "R2extent": 6705.6174, 
			 "electric_dipole_moment_norm": 4.94848185811, 
			 "electric_quadrupole_moment_norm": 13.4003136997, 
			 "total_energy": -1365.79631678, 
			 "HOMO_LUMO_gap": 0.15995, 
			 "cosmo_polarized_energy": -7.13, 
			 "cosmo_cavitation_energy": 29.26, 
			 "cosmo_dispersion_energy": -22.99, 
			 "cosmo_repulsion_energy": 1.67, 
			 "cosmo_total_nonelectrostatic_energy": 7.94, 
			 "SMD_solvation_energy": 1.8 
		},
		"coords": [
			{
				"x": -0.3471541949,
				"y": 0.659526353,
				"z": 3.042889669,
				"element": "C" 
			},
			{
				"x": -0.1032569654,
				"y": 0.708441893,
				"z": 1.5549562868,
				"element": "C" 
			},
			{
				"x": 0.6807713644,
				"y": -0.2353986949,
				"z": 0.9197307979,
				"element": "C" 
			},
			{
				"x": 0.9000677068,
				"y": -0.1757701583,
				"z": -0.4776336021,
				"element": "C" 
			},
			{
				"x": 1.6802830387,
				"y": -1.1233420125,
				"z": -1.0793578472,
				"element": "N" 
			},
			{
				"x": 1.8459105688,
				"y": -1.015949482,
				"z": -2.3700282986,
				"element": "C" 
			},
			{
				"x": 1.2450446449,
				"y": 0.0406840579,
				"z": -3.1381207226,
				"element": "C" 
			},
			{
				"x": 1.5653844146,
				"y": 0.0477661111,
				"z": -4.8795522092,
				"element": "S" 
			},
			{
				"x": 2.6082076463,
				"y": -1.4310778185,
				"z": -4.8858787773,
				"element": "C" 
			},
			{
				"x": 3.106018868,
				"y": -1.8732500909,
				"z": -5.8835830542,
				"element": "O" 
			},
			{
				"x": 2.8357103645,
				"y": -2.1860400517,
				"z": -3.2564926763,
				"element": "S" 
			},
			{
				"x": 0.4953188466,
				"y": 0.9597733045,
				"z": -2.5918796831,
				"element": "N" 
			},
			{
				"x": 0.3032834924,
				"y": 0.8741759727,
				"z": -1.2426153088,
				"element": "C" 
			},
			{
				"x": -0.4984670509,
				"y": 1.8361302628,
				"z": -0.5806253822,
				"element": "C" 
			},
			{
				"x": -0.6915250664,
				"y": 1.7491550984,
				"z": 0.7786907358,
				"element": "C" 
			},
			{
				"x": -1.4170707185,
				"y": 0.57111535,
				"z": 3.2644212841,
				"element": "H" 
			},
			{
				"x": 0.0059739531,
				"y": 1.575492759,
				"z": 3.5306597895,
				"element": "H" 
			},
			{
				"x": 0.1644786213,
				"y": -0.1879461787,
				"z": 3.5053296401,
				"element": "H" 
			},
			{
				"x": 1.1489353753,
				"y": -1.0457904959,
				"z": 1.4699606624,
				"element": "H" 
			},
			{
				"x": -0.9448529727,
				"y": 2.6271100809,
				"z": -1.1742594033,
				"element": "H" 
			},
			{
				"x": -1.307961937,
				"y": 2.4904937403,
				"z": 1.2806880993,
				"element": "H" 
			}
		],
		 "valence_orbital": [ 
			{
				"type": "occ",
				"energy": -0.29655,
				"method": "rhf"
			},
			{
				"type": "occ",
				"energy": -0.28654,
				"method": "rhf"
			},
			{
				"type": "occ",
				"energy": -0.27005,
				"method": "rhf"
			},
			{
				"type": "occ",
				"energy": -0.25148,
				"method": "rhf"
			},
			{
				"type": "occ",
				"energy": -0.24598,
				"method": "rhf"
			},
			{
				"type": "unocc",
				"energy": -0.08603,
				"method": "rhf"
			},
			{
				"type": "unocc",
				"energy": -0.03999,
				"method": "rhf"
			},
			{
				"type": "unocc",
				"energy": -0.03671,
				"method": "rhf"
			},
			{
				"type": "unocc",
				"energy": -0.03115,
				"method": "rhf"
			},
			{
				"type": "unocc",
				"energy": -0.00358,
				"method": "rhf"
			}
		],
		"cosmo_sigma_profile": { 
			"-0.025": 0.0,
			"-0.024": 0.0,
			"-0.023": 0.0,
			"-0.022": 0.0,
			"-0.021": 0.0,
			"-0.02": 0.0,
			"-0.019": 0.0,
			"-0.018": 0.0,
			"-0.017": 0.0,
			"-0.016": 0.0,
			"-0.015": 0.0,
			"-0.014": 0.0,
			"-0.013": 0.0,
			"-0.012": 0.0,
			"-0.011": 0.0,
			"-0.01": 0.0,
			"-0.009": 0.0116920673324,
			"-0.008": 0.625441417179,
			"-0.007": 3.53282842603,
			"-0.006": 8.29868219175,
			"-0.005": 14.3358013068,
			"-0.004": 17.6712735071,
			"-0.003": 17.6158017608,
			"-0.002": 22.7667229614,
			"-0.001": 29.9071027249,
			"0.0": 31.9168594581,
			"0.001": 24.6062978793,
			"0.002": 24.4267321681,
			"0.003": 12.8002476499,
			"0.004": 4.98381846637,
			"0.005": 3.31220907512,
			"0.006": 3.75013936057,
			"0.007": 4.24714720684,
			"0.008": 5.52886719273,
			"0.009": 6.73813235685,
			"0.01": 1.93439339473,
			"0.011": 1.2426009987,
			"0.012": 0.735890221488,
			"0.013": 0.0,
			"0.014": 0.0,
			"0.015": 0.0,
			"0.016": 0.0,
			"0.017": 0.0,
			"0.018": 0.0,
			"0.019": 0.0,
			"0.02": 0.0,
			"0.021": 0.0,
			"0.022": 0.0,
			"0.023": 0.0,
			"0.024": 0.0,
			"0.025": 0.0
		}
	}
}
