{
	 "smiles": "CC1=NC2=C(C3=C(CCCC3)S2)C(=O)N1NC(=O)C1=CC=CC=C1Cl", 
	 "Tm": 518.15, 
	 "num_atms": 41, 
	 "gaussian": { 
		 "optdone": 1, 
		 "sigma_profile": "yes", 
		 "theory": "DFT", 
		 "functional": "B3LYP", 
		 "basiset": "6-31G**", 
		 "properties": { 
			 "R2extent": 9602.4292, 
			 "electric_dipole_moment_norm": 4.08050228771, 
			 "electric_quadrupole_moment_norm": 30.6324139186, 
			 "total_energy": -1868.65142558, 
			 "HOMO_LUMO_gap": 0.16323, 
			 "cosmo_polarized_energy": -19.74, 
			 "cosmo_cavitation_energy": 46.47, 
			 "cosmo_dispersion_energy": -32.36, 
			 "cosmo_repulsion_energy": 2.42, 
			 "cosmo_total_nonelectrostatic_energy": 16.53, 
			 "SMD_solvation_energy": 6.12 
		},
		"coords": [
			{
				"x": -4.1881585692,
				"y": 0.8061972127,
				"z": 0.8031309027,
				"element": "C" 
			},
			{
				"x": -2.6942221756,
				"y": 0.8042098494,
				"z": 0.9540641224,
				"element": "C" 
			},
			{
				"x": -2.0777834661,
				"y": 1.9196302359,
				"z": 1.2259963994,
				"element": "N" 
			},
			{
				"x": -0.7318452364,
				"y": 1.8382694762,
				"z": 1.4064331531,
				"element": "C" 
			},
			{
				"x": 0.0478856267,
				"y": 0.6871840857,
				"z": 1.3617732571,
				"element": "C" 
			},
			{
				"x": 1.4416984119,
				"y": 0.9258967786,
				"z": 1.6248186783,
				"element": "C" 
			},
			{
				"x": 1.6932472998,
				"y": 2.2525525858,
				"z": 1.8525429938,
				"element": "C" 
			},
			{
				"x": 3.0440108093,
				"y": 2.8408548437,
				"z": 2.1567204673,
				"element": "C" 
			},
			{
				"x": 4.1544034099,
				"y": 1.8342453996,
				"z": 1.7998227472,
				"element": "C" 
			},
			{
				"x": 3.8125465584,
				"y": 0.4242792836,
				"z": 2.3034678936,
				"element": "C" 
			},
			{
				"x": 2.532973466,
				"y": -0.117561499,
				"z": 1.6447680791,
				"element": "C" 
			},
			{
				"x": 0.2411199186,
				"y": 3.242032352,
				"z": 1.7658851327,
				"element": "S" 
			},
			{
				"x": -0.6057494242,
				"y": -0.5687817433,
				"z": 1.0819074285,
				"element": "C" 
			},
			{
				"x": -0.1114168196,
				"y": -1.6855800759,
				"z": 1.0229731674,
				"element": "O" 
			},
			{
				"x": -2.016109696,
				"y": -0.402703353,
				"z": 0.839614711,
				"element": "N" 
			},
			{
				"x": -2.7555713575,
				"y": -1.558056993,
				"z": 0.5749635262,
				"element": "N" 
			},
			{
				"x": -2.3934657407,
				"y": -2.4407946948,
				"z": -0.4679384261,
				"element": "C" 
			},
			{
				"x": -2.7148959153,
				"y": -3.6067742088,
				"z": -0.3677427381,
				"element": "O" 
			},
			{
				"x": -1.7583214161,
				"y": -1.8527312882,
				"z": -1.6931885714,
				"element": "C" 
			},
			{
				"x": -2.2951612035,
				"y": -0.691253958,
				"z": -2.2688768236,
				"element": "C" 
			},
			{
				"x": -1.7919566758,
				"y": -0.1667507927,
				"z": -3.4564066845,
				"element": "C" 
			},
			{
				"x": -0.7219764684,
				"y": -0.8006785586,
				"z": -4.0873244513,
				"element": "C" 
			},
			{
				"x": -0.1702719949,
				"y": -1.9553620084,
				"z": -3.5351300886,
				"element": "C" 
			},
			{
				"x": -0.6895902851,
				"y": -2.4861328056,
				"z": -2.3529172926,
				"element": "C" 
			},
			{
				"x": 0.0614111048,
				"y": -3.9321439224,
				"z": -1.7210800491,
				"element": "Cl" 
			},
			{
				"x": -4.5284608875,
				"y": 1.8384926434,
				"z": 0.8794735223,
				"element": "H" 
			},
			{
				"x": -4.5103134321,
				"y": 0.3787409935,
				"z": -0.1499548926,
				"element": "H" 
			},
			{
				"x": -4.6640400735,
				"y": 0.2116459556,
				"z": 1.590308879,
				"element": "H" 
			},
			{
				"x": 3.1041580978,
				"y": 3.0990460324,
				"z": 3.2239878259,
				"element": "H" 
			},
			{
				"x": 3.190584314,
				"y": 3.7792402187,
				"z": 1.6081200005,
				"element": "H" 
			},
			{
				"x": 4.2816385605,
				"y": 1.80890532,
				"z": 0.7098283538,
				"element": "H" 
			},
			{
				"x": 5.1054733348,
				"y": 2.1758601444,
				"z": 2.2227750138,
				"element": "H" 
			},
			{
				"x": 4.6450753313,
				"y": -0.2607599826,
				"z": 2.1100599278,
				"element": "H" 
			},
			{
				"x": 3.676937459,
				"y": 0.4553476552,
				"z": 3.3928696962,
				"element": "H" 
			},
			{
				"x": 2.1763828106,
				"y": -1.0172758834,
				"z": 2.1544973131,
				"element": "H" 
			},
			{
				"x": 2.7441736768,
				"y": -0.4346943704,
				"z": 0.6141048468,
				"element": "H" 
			},
			{
				"x": -2.9627824914,
				"y": -2.099567248,
				"z": 1.4112509171,
				"element": "H" 
			},
			{
				"x": -3.1366058428,
				"y": -0.2074914842,
				"z": -1.7859446337,
				"element": "H" 
			},
			{
				"x": -2.2327152482,
				"y": 0.728295653,
				"z": -3.8836182906,
				"element": "H" 
			},
			{
				"x": -0.313463512,
				"y": -0.4015184595,
				"z": -5.0108437166,
				"element": "H" 
			},
			{
				"x": 0.6631577419,
				"y": -2.4558133898,
				"z": -4.0152922973,
				"element": "H" 
			}
		],
		 "valence_orbital": [ 
			{
				"type": "occ",
				"energy": -0.26943,
				"method": "rhf"
			},
			{
				"type": "occ",
				"energy": -0.26132,
				"method": "rhf"
			},
			{
				"type": "occ",
				"energy": -0.25638,
				"method": "rhf"
			},
			{
				"type": "occ",
				"energy": -0.24907,
				"method": "rhf"
			},
			{
				"type": "occ",
				"energy": -0.21643,
				"method": "rhf"
			},
			{
				"type": "unocc",
				"energy": -0.0532,
				"method": "rhf"
			},
			{
				"type": "unocc",
				"energy": -0.04113,
				"method": "rhf"
			},
			{
				"type": "unocc",
				"energy": -0.01985,
				"method": "rhf"
			},
			{
				"type": "unocc",
				"energy": -0.01246,
				"method": "rhf"
			},
			{
				"type": "unocc",
				"energy": 0.0171,
				"method": "rhf"
			}
		],
		"cosmo_sigma_profile": { 
			"-0.025": 0.0,
			"-0.024": 0.0,
			"-0.023": 0.0,
			"-0.022": 0.0,
			"-0.021": 0.0,
			"-0.02": 0.0,
			"-0.019": 0.0,
			"-0.018": 0.0,
			"-0.017": 0.0,
			"-0.016": 0.244041432265,
			"-0.015": 0.977069033958,
			"-0.014": 1.54771099242,
			"-0.013": 0.756975624313,
			"-0.012": 0.869230761066,
			"-0.011": 1.0636345956,
			"-0.01": 1.48016145178,
			"-0.009": 2.07068918142,
			"-0.008": 4.0019518232,
			"-0.007": 11.8745470313,
			"-0.006": 13.39149258,
			"-0.005": 17.2121284645,
			"-0.004": 19.6467958185,
			"-0.003": 30.9934897532,
			"-0.002": 42.7911695975,
			"-0.001": 36.5455709202,
			"0.0": 31.3473432354,
			"0.001": 32.6128001739,
			"0.002": 33.595675471,
			"0.003": 24.3876724029,
			"0.004": 14.6651553815,
			"0.005": 8.38259912136,
			"0.006": 4.33014095841,
			"0.007": 5.10507389494,
			"0.008": 5.91475939373,
			"0.009": 5.93306099446,
			"0.01": 6.76972764686,
			"0.011": 8.36447782122,
			"0.012": 6.03264095405,
			"0.013": 1.10382539323,
			"0.014": 0.00257185478144,
			"0.015": 0.0,
			"0.016": 0.0,
			"0.017": 0.0,
			"0.018": 0.0,
			"0.019": 0.0,
			"0.02": 0.0,
			"0.021": 0.0,
			"0.022": 0.0,
			"0.023": 0.0,
			"0.024": 0.0,
			"0.025": 0.0
		}
	}
}
