{
	 "smiles": "S=C1NC=CN1C1=CC=CC=C1", 
	 "Tm": 451.15, 
	 "num_atms": 20, 
	 "gaussian": { 
		 "optdone": 1, 
		 "sigma_profile": "yes", 
		 "theory": "DFT", 
		 "functional": "B3LYP", 
		 "basiset": "6-31G**", 
		 "properties": { 
			 "R2extent": 2443.6608, 
			 "electric_dipole_moment_norm": 5.21714066803, 
			 "electric_quadrupole_moment_norm": 18.3616657605, 
			 "total_energy": -855.470107327, 
			 "HOMO_LUMO_gap": 0.16584, 
			 "cosmo_polarized_energy": -18.07, 
			 "cosmo_cavitation_energy": 25.7, 
			 "cosmo_dispersion_energy": -19.34, 
			 "cosmo_repulsion_energy": 1.49, 
			 "cosmo_total_nonelectrostatic_energy": 7.85, 
			 "SMD_solvation_energy": 4.11 
		},
		"coords": [
			{
				"x": 2.3844278328,
				"y": -1.8633056289,
				"z": 0.8950370672,
				"element": "S" 
			},
			{
				"x": 2.1060961922,
				"y": -0.2187638703,
				"z": 0.725908424,
				"element": "C" 
			},
			{
				"x": 2.998993724,
				"y": 0.779276831,
				"z": 1.028526933,
				"element": "N" 
			},
			{
				"x": 2.4646528132,
				"y": 2.0392073578,
				"z": 0.8120980451,
				"element": "C" 
			},
			{
				"x": 1.205880146,
				"y": 1.8489544199,
				"z": 0.3570103047,
				"element": "C" 
			},
			{
				"x": 0.9780485293,
				"y": 0.4689698598,
				"z": 0.2947319013,
				"element": "N" 
			},
			{
				"x": -0.2697761887,
				"y": -0.1001291016,
				"z": -0.1028359613,
				"element": "C" 
			},
			{
				"x": -0.3122626266,
				"y": -1.1639084198,
				"z": -1.0089387123,
				"element": "C" 
			},
			{
				"x": -1.5479919666,
				"y": -1.6735395973,
				"z": -1.4049817084,
				"element": "C" 
			},
			{
				"x": -2.7347062514,
				"y": -1.1246977375,
				"z": -0.9140217624,
				"element": "C" 
			},
			{
				"x": -2.6839586515,
				"y": -0.0613328488,
				"z": -0.0118110703,
				"element": "C" 
			},
			{
				"x": -1.4534117769,
				"y": 0.4486417287,
				"z": 0.4017604017,
				"element": "C" 
			},
			{
				"x": 3.9160398946,
				"y": 0.5573318822,
				"z": 1.3829584938,
				"element": "H" 
			},
			{
				"x": 3.0218321216,
				"y": 2.9459169936,
				"z": 0.9825152817,
				"element": "H" 
			},
			{
				"x": 0.4593617768,
				"y": 2.5551943153,
				"z": 0.0340715392,
				"element": "H" 
			},
			{
				"x": 0.6112186199,
				"y": -1.5860736457,
				"z": -1.3841506868,
				"element": "H" 
			},
			{
				"x": -1.5805187094,
				"y": -2.5016941675,
				"z": -2.1064695734,
				"element": "H" 
			},
			{
				"x": -3.6929501191,
				"y": -1.526204101,
				"z": -1.229784124,
				"element": "H" 
			},
			{
				"x": -3.6007088936,
				"y": 0.366507466,
				"z": 0.3827701092,
				"element": "H" 
			},
			{
				"x": -1.4081664665,
				"y": 1.2557482642,
				"z": 1.1263050979,
				"element": "H" 
			}
		],
		 "valence_orbital": [ 
			{
				"type": "occ",
				"energy": -0.28701,
				"method": "rhf"
			},
			{
				"type": "occ",
				"energy": -0.25908,
				"method": "rhf"
			},
			{
				"type": "occ",
				"energy": -0.25239,
				"method": "rhf"
			},
			{
				"type": "occ",
				"energy": -0.19894,
				"method": "rhf"
			},
			{
				"type": "occ",
				"energy": -0.18717,
				"method": "rhf"
			},
			{
				"type": "unocc",
				"energy": -0.02133,
				"method": "rhf"
			},
			{
				"type": "unocc",
				"energy": -0.00885,
				"method": "rhf"
			},
			{
				"type": "unocc",
				"energy": 0.01779,
				"method": "rhf"
			},
			{
				"type": "unocc",
				"energy": 0.0268,
				"method": "rhf"
			},
			{
				"type": "unocc",
				"energy": 0.0719,
				"method": "rhf"
			}
		],
		"cosmo_sigma_profile": { 
			"-0.025": 0.0,
			"-0.024": 0.0,
			"-0.023": 0.0,
			"-0.022": 0.0,
			"-0.021": 0.0,
			"-0.02": 0.0,
			"-0.019": 0.0,
			"-0.018": 0.0,
			"-0.017": 0.581844748452,
			"-0.016": 1.42870645798,
			"-0.015": 1.36567887754,
			"-0.014": 0.911421522789,
			"-0.013": 0.60621469512,
			"-0.012": 1.20369165038,
			"-0.011": 1.03923313044,
			"-0.01": 4.19978343916,
			"-0.009": 4.90135890073,
			"-0.008": 3.44075945733,
			"-0.007": 6.71253784622,
			"-0.006": 11.0574316556,
			"-0.005": 15.6831580961,
			"-0.004": 13.3301389025,
			"-0.003": 10.9005614632,
			"-0.002": 10.8802650103,
			"-0.001": 11.9973182415,
			"0.0": 13.4258905381,
			"0.001": 14.3432093031,
			"0.002": 11.5439031153,
			"0.003": 11.9351077911,
			"0.004": 11.8904771486,
			"0.005": 9.62283489468,
			"0.006": 3.02217605808,
			"0.007": 4.28208830005,
			"0.008": 3.84589394341,
			"0.009": 4.03741290327,
			"0.01": 5.04250005631,
			"0.011": 6.69039967405,
			"0.012": 6.44566687359,
			"0.013": 2.90576710513,
			"0.014": 0.0,
			"0.015": 0.0,
			"0.016": 0.0,
			"0.017": 0.0,
			"0.018": 0.0,
			"0.019": 0.0,
			"0.02": 0.0,
			"0.021": 0.0,
			"0.022": 0.0,
			"0.023": 0.0,
			"0.024": 0.0,
			"0.025": 0.0
		}
	}
}
