{
	 "smiles": "COC1=CC=CC=C1C1(C)CCC2=C(C3=C1C=C(C)O3)C1=C(O2)C=CC(C)=C1", 
	 "Tm": 452.15, 
	 "num_atms": 52, 
	 "gaussian": { 
		 "optdone": 1, 
		 "sigma_profile": "yes", 
		 "theory": "DFT", 
		 "functional": "B3LYP", 
		 "basiset": "6-31G**", 
		 "properties": { 
			 "R2extent": 11746.8037, 
			 "electric_dipole_moment_norm": 2.48662063653, 
			 "electric_quadrupole_moment_norm": 6.10631362116, 
			 "total_energy": -1192.7880591, 
			 "HOMO_LUMO_gap": 0.16283, 
			 "cosmo_polarized_energy": -10.41, 
			 "cosmo_cavitation_energy": 52.0, 
			 "cosmo_dispersion_energy": -35.39, 
			 "cosmo_repulsion_energy": 2.66, 
			 "cosmo_total_nonelectrostatic_energy": 19.27, 
			 "SMD_solvation_energy": 9.63 
		},
		"coords": [
			{
				"x": -0.2351337859,
				"y": -0.8426200585,
				"z": 4.1593345093,
				"element": "C" 
			},
			{
				"x": -0.0165047504,
				"y": -1.1087114167,
				"z": 2.7844132486,
				"element": "O" 
			},
			{
				"x": 0.7315505168,
				"y": -2.1955776578,
				"z": 2.4263759771,
				"element": "C" 
			},
			{
				"x": 1.2136556654,
				"y": -3.1176178958,
				"z": 3.3615756828,
				"element": "C" 
			},
			{
				"x": 1.9649660288,
				"y": -4.2185502062,
				"z": 2.9447607506,
				"element": "C" 
			},
			{
				"x": 2.2364524848,
				"y": -4.3978302003,
				"z": 1.594681795,
				"element": "C" 
			},
			{
				"x": 1.7552894917,
				"y": -3.4676661294,
				"z": 0.6671651672,
				"element": "C" 
			},
			{
				"x": 1.0017524662,
				"y": -2.3510116585,
				"z": 1.0409383221,
				"element": "C" 
			},
			{
				"x": 0.4602676016,
				"y": -1.3413948283,
				"z": 0.0009456491,
				"element": "C" 
			},
			{
				"x": 0.9858335248,
				"y": -1.6577148608,
				"z": -1.4214285997,
				"element": "C" 
			},
			{
				"x": -1.0993661086,
				"y": -1.4763742256,
				"z": 0.0085259734,
				"element": "C" 
			},
			{
				"x": -1.9061961563,
				"y": -0.7476256615,
				"z": -1.082333826,
				"element": "C" 
			},
			{
				"x": -1.8638931575,
				"y": 0.7395548048,
				"z": -1.008708941,
				"element": "C" 
			},
			{
				"x": -0.9357453969,
				"y": 1.6180688036,
				"z": -0.5138855036,
				"element": "C" 
			},
			{
				"x": 0.3271006552,
				"y": 1.2599093215,
				"z": 0.0889217928,
				"element": "C" 
			},
			{
				"x": 0.9466964574,
				"y": 0.0608101578,
				"z": 0.3467271941,
				"element": "C" 
			},
			{
				"x": 2.2181517808,
				"y": 0.3999650222,
				"z": 0.9227234476,
				"element": "C" 
			},
			{
				"x": 2.288650098,
				"y": 1.7585700098,
				"z": 0.9914530297,
				"element": "C" 
			},
			{
				"x": 3.3169312231,
				"y": 2.7139217917,
				"z": 1.4853163934,
				"element": "C" 
			},
			{
				"x": 1.1381031318,
				"y": 2.2993095057,
				"z": 0.4856974535,
				"element": "O" 
			},
			{
				"x": -1.4777013489,
				"y": 2.9470916274,
				"z": -0.7482138741,
				"element": "C" 
			},
			{
				"x": -2.7136620819,
				"y": 2.7385873465,
				"z": -1.3792948415,
				"element": "C" 
			},
			{
				"x": -2.9522904321,
				"y": 1.3989988318,
				"z": -1.5382236581,
				"element": "O" 
			},
			{
				"x": -3.5552732063,
				"y": 3.7718170525,
				"z": -1.7715200861,
				"element": "C" 
			},
			{
				"x": -3.1161303581,
				"y": 5.0674573173,
				"z": -1.5101632565,
				"element": "C" 
			},
			{
				"x": -1.8789355145,
				"y": 5.3272865877,
				"z": -0.8782227229,
				"element": "C" 
			},
			{
				"x": -1.4550410696,
				"y": 6.7568237552,
				"z": -0.6231979933,
				"element": "C" 
			},
			{
				"x": -1.0594058297,
				"y": 4.2631931313,
				"z": -0.4968253617,
				"element": "C" 
			},
			{
				"x": -0.8039682451,
				"y": 0.0876591051,
				"z": 4.1959463659,
				"element": "H" 
			},
			{
				"x": 0.7102455245,
				"y": -0.7098298063,
				"z": 4.7003828902,
				"element": "H" 
			},
			{
				"x": -0.8159226797,
				"y": -1.6393951939,
				"z": 4.642123423,
				"element": "H" 
			},
			{
				"x": 1.0032764523,
				"y": -2.9860106003,
				"z": 4.4160197777,
				"element": "H" 
			},
			{
				"x": 2.3302602229,
				"y": -4.9269862291,
				"z": 3.6828102827,
				"element": "H" 
			},
			{
				"x": 2.8189377777,
				"y": -5.2485302659,
				"z": 1.2544936463,
				"element": "H" 
			},
			{
				"x": 1.9840281826,
				"y": -3.6261453782,
				"z": -0.379706469,
				"element": "H" 
			},
			{
				"x": 2.0788939805,
				"y": -1.6724103924,
				"z": -1.4467806529,
				"element": "H" 
			},
			{
				"x": 0.6133547536,
				"y": -2.6207375624,
				"z": -1.7899496566,
				"element": "H" 
			},
			{
				"x": 0.6599285663,
				"y": -0.8806109792,
				"z": -2.1160826793,
				"element": "H" 
			},
			{
				"x": -1.4701949238,
				"y": -1.1690608205,
				"z": 0.9877801033,
				"element": "H" 
			},
			{
				"x": -1.3193529418,
				"y": -2.5450116266,
				"z": -0.0938784295,
				"element": "H" 
			},
			{
				"x": -1.5989026304,
				"y": -1.0826022795,
				"z": -2.0830287708,
				"element": "H" 
			},
			{
				"x": -2.9556168879,
				"y": -1.0523148126,
				"z": -0.9858640878,
				"element": "H" 
			},
			{
				"x": 2.97609753,
				"y": -0.2945219207,
				"z": 1.2563746829,
				"element": "H" 
			},
			{
				"x": 2.9310090997,
				"y": 3.3373728468,
				"z": 2.3009725249,
				"element": "H" 
			},
			{
				"x": 3.6553121874,
				"y": 3.3894382315,
				"z": 0.6904224208,
				"element": "H" 
			},
			{
				"x": 4.1848014702,
				"y": 2.1646402721,
				"z": 1.8578412622,
				"element": "H" 
			},
			{
				"x": -4.5048066072,
				"y": 3.5725054824,
				"z": -2.2567066015,
				"element": "H" 
			},
			{
				"x": -3.7440353315,
				"y": 5.9057858173,
				"z": -1.8013596791,
				"element": "H" 
			},
			{
				"x": -0.4857162793,
				"y": 6.7997440553,
				"z": -0.1189394062,
				"element": "H" 
			},
			{
				"x": -2.1813674178,
				"y": 7.2854162932,
				"z": 0.0055417924,
				"element": "H" 
			},
			{
				"x": -1.3689625382,
				"y": 7.3233111726,
				"z": -1.5581412449,
				"element": "H" 
			},
			{
				"x": -0.1074211943,
				"y": 4.4476243237,
				"z": -0.0120092166,
				"element": "H" 
			}
		],
		 "valence_orbital": [ 
			{
				"type": "occ",
				"energy": -0.24351,
				"method": "rhf"
			},
			{
				"type": "occ",
				"energy": -0.22991,
				"method": "rhf"
			},
			{
				"type": "occ",
				"energy": -0.2158,
				"method": "rhf"
			},
			{
				"type": "occ",
				"energy": -0.21566,
				"method": "rhf"
			},
			{
				"type": "occ",
				"energy": -0.17573,
				"method": "rhf"
			},
			{
				"type": "unocc",
				"energy": -0.0129,
				"method": "rhf"
			},
			{
				"type": "unocc",
				"energy": 0.00056,
				"method": "rhf"
			},
			{
				"type": "unocc",
				"energy": 0.01182,
				"method": "rhf"
			},
			{
				"type": "unocc",
				"energy": 0.01538,
				"method": "rhf"
			},
			{
				"type": "unocc",
				"energy": 0.02549,
				"method": "rhf"
			}
		],
		"cosmo_sigma_profile": { 
			"-0.025": 0.0,
			"-0.024": 0.0,
			"-0.023": 0.0,
			"-0.022": 0.0,
			"-0.021": 0.0,
			"-0.02": 0.0,
			"-0.019": 0.0,
			"-0.018": 0.0,
			"-0.017": 0.0,
			"-0.016": 0.0,
			"-0.015": 0.0,
			"-0.014": 0.0,
			"-0.013": 0.0,
			"-0.012": 0.0,
			"-0.011": 0.0,
			"-0.01": 0.0,
			"-0.009": 0.0,
			"-0.008": 0.0,
			"-0.007": 0.781157827494,
			"-0.006": 7.14242146581,
			"-0.005": 26.2518258947,
			"-0.004": 39.1504391444,
			"-0.003": 51.5113988843,
			"-0.002": 43.3667713053,
			"-0.001": 37.2912977086,
			"0.0": 34.736148139,
			"0.001": 29.2251890918,
			"0.002": 26.6742379934,
			"0.003": 30.3466938443,
			"0.004": 32.2123994236,
			"0.005": 23.4923319661,
			"0.006": 19.2312296656,
			"0.007": 5.66620431108,
			"0.008": 2.42768830737,
			"0.009": 1.93458704994,
			"0.01": 0.405215654261,
			"0.011": 0.0,
			"0.012": 0.0,
			"0.013": 0.0,
			"0.014": 0.0,
			"0.015": 0.0,
			"0.016": 0.0,
			"0.017": 0.0,
			"0.018": 0.0,
			"0.019": 0.0,
			"0.02": 0.0,
			"0.021": 0.0,
			"0.022": 0.0,
			"0.023": 0.0,
			"0.024": 0.0,
			"0.025": 0.0
		}
	}
}
