{
	 "smiles": "COC1=C(OC)C=C(CC(N)=NO)C=C1", 
	 "Tm": 409.15, 
	 "num_atms": 29, 
	 "gaussian": { 
		 "optdone": 1, 
		 "sigma_profile": "yes", 
		 "theory": "DFT", 
		 "functional": "B3LYP", 
		 "basiset": "6-31G**", 
		 "properties": { 
			 "R2extent": 4193.0434, 
			 "electric_dipole_moment_norm": 1.62775066272, 
			 "electric_quadrupole_moment_norm": 11.1514561453, 
			 "total_energy": -724.599240064, 
			 "HOMO_LUMO_gap": 0.20668, 
			 "cosmo_polarized_energy": -14.61, 
			 "cosmo_cavitation_energy": 32.92, 
			 "cosmo_dispersion_energy": -23.13, 
			 "cosmo_repulsion_energy": 1.87, 
			 "cosmo_total_nonelectrostatic_energy": 11.66, 
			 "SMD_solvation_energy": 6.91 
		},
		"coords": [
			{
				"x": -4.0558839819,
				"y": -1.1856985447,
				"z": 0.6214577301,
				"element": "C" 
			},
			{
				"x": -2.8612398094,
				"y": -0.983101019,
				"z": 1.379993804,
				"element": "O" 
			},
			{
				"x": -1.6826484965,
				"y": -1.0657632354,
				"z": 0.6802838187,
				"element": "C" 
			},
			{
				"x": -1.3162975091,
				"y": -0.0890558912,
				"z": -0.2781331472,
				"element": "C" 
			},
			{
				"x": -2.2249217641,
				"y": 0.9067426964,
				"z": -0.4945411865,
				"element": "O" 
			},
			{
				"x": -1.8883597078,
				"y": 1.9309194259,
				"z": -1.4186583827,
				"element": "C" 
			},
			{
				"x": -0.0817728973,
				"y": -0.1864571876,
				"z": -0.92010864,
				"element": "C" 
			},
			{
				"x": 0.8081201674,
				"y": -1.2329825964,
				"z": -0.6227848109,
				"element": "C" 
			},
			{
				"x": 2.14895536,
				"y": -1.2969393216,
				"z": -1.3356453756,
				"element": "C" 
			},
			{
				"x": 3.0369371616,
				"y": -0.1176817895,
				"z": -1.0176078855,
				"element": "C" 
			},
			{
				"x": 3.4440531284,
				"y": 0.0409092934,
				"z": 0.2870864176,
				"element": "N" 
			},
			{
				"x": 3.388886155,
				"y": 0.6398389257,
				"z": -2.00175828,
				"element": "N" 
			},
			{
				"x": 4.2095425182,
				"y": 1.7040037614,
				"z": -1.5070880088,
				"element": "O" 
			},
			{
				"x": 0.4460462277,
				"y": -2.1803492956,
				"z": 0.3340425508,
				"element": "C" 
			},
			{
				"x": -0.7963721116,
				"y": -2.0951815374,
				"z": 0.9730746031,
				"element": "C" 
			},
			{
				"x": -4.0544049012,
				"y": -2.1754548264,
				"z": 0.1460674742,
				"element": "H" 
			},
			{
				"x": -4.8807452639,
				"y": -1.1324816136,
				"z": 1.3351642247,
				"element": "H" 
			},
			{
				"x": -4.183634432,
				"y": -0.4136878006,
				"z": -0.1427640665,
				"element": "H" 
			},
			{
				"x": -0.9840999518,
				"y": 2.4701359444,
				"z": -1.1102243556,
				"element": "H" 
			},
			{
				"x": -2.7344356109,
				"y": 2.6196989665,
				"z": -1.4240865483,
				"element": "H" 
			},
			{
				"x": -1.739354683,
				"y": 1.5319339683,
				"z": -2.4300990055,
				"element": "H" 
			},
			{
				"x": 0.2193698967,
				"y": 0.5566499518,
				"z": -1.6502210218,
				"element": "H" 
			},
			{
				"x": 2.6696276995,
				"y": -2.2195294586,
				"z": -1.0529484857,
				"element": "H" 
			},
			{
				"x": 2.0136157954,
				"y": -1.3129254204,
				"z": -2.4208520987,
				"element": "H" 
			},
			{
				"x": 3.8463799284,
				"y": 0.9455370035,
				"z": 0.491350203,
				"element": "H" 
			},
			{
				"x": 2.8113327725,
				"y": -0.316258855,
				"z": 0.9891600996,
				"element": "H" 
			},
			{
				"x": 4.4009422138,
				"y": 2.1948537104,
				"z": -2.3147593941,
				"element": "H" 
			},
			{
				"x": 1.1213741394,
				"y": -2.9973484152,
				"z": 0.5734373948,
				"element": "H" 
			},
			{
				"x": -1.0963120437,
				"y": -2.8246268395,
				"z": 1.7188623729,
				"element": "H" 
			}
		],
		 "valence_orbital": [ 
			{
				"type": "occ",
				"energy": -0.27249,
				"method": "rhf"
			},
			{
				"type": "occ",
				"energy": -0.26654,
				"method": "rhf"
			},
			{
				"type": "occ",
				"energy": -0.23914,
				"method": "rhf"
			},
			{
				"type": "occ",
				"energy": -0.21514,
				"method": "rhf"
			},
			{
				"type": "occ",
				"energy": -0.20868,
				"method": "rhf"
			},
			{
				"type": "unocc",
				"energy": -0.002,
				"method": "rhf"
			},
			{
				"type": "unocc",
				"energy": 0.00749,
				"method": "rhf"
			},
			{
				"type": "unocc",
				"energy": 0.0464,
				"method": "rhf"
			},
			{
				"type": "unocc",
				"energy": 0.07852,
				"method": "rhf"
			},
			{
				"type": "unocc",
				"energy": 0.09075,
				"method": "rhf"
			}
		],
		"cosmo_sigma_profile": { 
			"-0.025": 0.0,
			"-0.024": 0.0,
			"-0.023": 0.0,
			"-0.022": 0.0,
			"-0.021": 0.0,
			"-0.02": 0.0,
			"-0.019": 0.0,
			"-0.018": 0.0,
			"-0.017": 0.0656569047414,
			"-0.016": 0.774718197455,
			"-0.015": 1.14575909304,
			"-0.014": 0.768253678529,
			"-0.013": 0.38210620677,
			"-0.012": 1.51143487274,
			"-0.011": 2.13435915239,
			"-0.01": 2.44505782609,
			"-0.009": 3.05515650066,
			"-0.008": 1.98479529868,
			"-0.007": 2.38249376576,
			"-0.006": 11.8940365349,
			"-0.005": 23.6230393615,
			"-0.004": 23.724496439,
			"-0.003": 26.0143494174,
			"-0.002": 20.2252036324,
			"-0.001": 15.7711039174,
			"0.0": 13.3007837241,
			"0.001": 12.9836656574,
			"0.002": 12.5762325739,
			"0.003": 14.3478276638,
			"0.004": 13.4814112381,
			"0.005": 10.8621620475,
			"0.006": 6.54356552577,
			"0.007": 5.1889554128,
			"0.008": 8.38221333242,
			"0.009": 7.19322993578,
			"0.01": 5.16813347887,
			"0.011": 5.23129678297,
			"0.012": 3.06273652964,
			"0.013": 1.14956364191,
			"0.014": 0.928797514959,
			"0.015": 0.950189215198,
			"0.016": 0.141310069579,
			"0.017": 0.0,
			"0.018": 0.0,
			"0.019": 0.0,
			"0.02": 0.0,
			"0.021": 0.0,
			"0.022": 0.0,
			"0.023": 0.0,
			"0.024": 0.0,
			"0.025": 0.0
		}
	}
}
