{
	 "smiles": "CC(C)(C)OC(=O)NCCC(=O)NC(N)=O", 
	 "Tm": 436.15, 
	 "num_atms": 33, 
	 "gaussian": { 
		 "optdone": 1, 
		 "sigma_profile": "yes", 
		 "theory": "DFT", 
		 "functional": "B3LYP", 
		 "basiset": "6-31G**", 
		 "properties": { 
			 "R2extent": 6158.8639, 
			 "electric_dipole_moment_norm": 4.64769438216, 
			 "electric_quadrupole_moment_norm": 31.2797471213, 
			 "total_energy": -818.429168811, 
			 "HOMO_LUMO_gap": 0.23193, 
			 "cosmo_polarized_energy": -28.08, 
			 "cosmo_cavitation_energy": 36.92, 
			 "cosmo_dispersion_energy": -25.62, 
			 "cosmo_repulsion_energy": 2.08, 
			 "cosmo_total_nonelectrostatic_energy": 13.37, 
			 "SMD_solvation_energy": 8.08 
		},
		"coords": [
			{
				"x": 1.2869655289,
				"y": -0.0862642659,
				"z": 3.3875950658,
				"element": "C" 
			},
			{
				"x": 0.4462740194,
				"y": 0.9661166783,
				"z": 2.6594408841,
				"element": "C" 
			},
			{
				"x": -0.6090579376,
				"y": 1.5627815955,
				"z": 3.5972318807,
				"element": "C" 
			},
			{
				"x": 1.3436405057,
				"y": 2.0426360896,
				"z": 2.0381016954,
				"element": "C" 
			},
			{
				"x": -0.2045117412,
				"y": 0.1798872589,
				"z": 1.6031250846,
				"element": "O" 
			},
			{
				"x": -1.0597916167,
				"y": 0.7614489301,
				"z": 0.7266866336,
				"element": "C" 
			},
			{
				"x": -1.3636273123,
				"y": 1.9463808278,
				"z": 0.6873401841,
				"element": "O" 
			},
			{
				"x": -1.5628674312,
				"y": -0.1873675552,
				"z": -0.1184883426,
				"element": "N" 
			},
			{
				"x": -2.3587282765,
				"y": 0.1955687895,
				"z": -1.2691222534,
				"element": "C" 
			},
			{
				"x": -1.5172830798,
				"y": 0.6026136547,
				"z": -2.4852111937,
				"element": "C" 
			},
			{
				"x": -0.6587197723,
				"y": -0.5531614057,
				"z": -2.9990938851,
				"element": "C" 
			},
			{
				"x": -0.6695453856,
				"y": -1.6602101986,
				"z": -2.4991908895,
				"element": "O" 
			},
			{
				"x": 0.1457499677,
				"y": -0.1964280547,
				"z": -4.082895088,
				"element": "N" 
			},
			{
				"x": 0.9298960137,
				"y": -1.0690061889,
				"z": -4.8747188575,
				"element": "C" 
			},
			{
				"x": 1.770163887,
				"y": -0.3619067652,
				"z": -5.7238924861,
				"element": "N" 
			},
			{
				"x": 0.842496107,
				"y": -2.2759118097,
				"z": -4.865163743,
				"element": "O" 
			},
			{
				"x": 2.0089259958,
				"y": -0.5437908333,
				"z": 2.704851679,
				"element": "H" 
			},
			{
				"x": 1.8350023537,
				"y": 0.3756268399,
				"z": 4.2143209474,
				"element": "H" 
			},
			{
				"x": 0.6485601614,
				"y": -0.8766698869,
				"z": 3.792666435,
				"element": "H" 
			},
			{
				"x": -1.2553959549,
				"y": 0.7722828133,
				"z": 3.9915705505,
				"element": "H" 
			},
			{
				"x": -1.2247482379,
				"y": 2.2953077246,
				"z": 3.0747138909,
				"element": "H" 
			},
			{
				"x": -0.1158303649,
				"y": 2.0523199716,
				"z": 4.4434509465,
				"element": "H" 
			},
			{
				"x": 1.9113417133,
				"y": 2.5491020085,
				"z": 2.8255830815,
				"element": "H" 
			},
			{
				"x": 0.7491575079,
				"y": 2.7814750153,
				"z": 1.5001812042,
				"element": "H" 
			},
			{
				"x": 2.0582591701,
				"y": 1.5863768446,
				"z": 1.3453020081,
				"element": "H" 
			},
			{
				"x": -1.1009081044,
				"y": -1.0850676639,
				"z": -0.1539498393,
				"element": "H" 
			},
			{
				"x": -2.9886246613,
				"y": 1.0363311654,
				"z": -0.9727450755,
				"element": "H" 
			},
			{
				"x": -3.0031344986,
				"y": -0.647163377,
				"z": -1.5320750788,
				"element": "H" 
			},
			{
				"x": -0.8761684843,
				"y": 1.4518257088,
				"z": -2.2164237017,
				"element": "H" 
			},
			{
				"x": -2.1724252802,
				"y": 0.9470680614,
				"z": -3.2973366675,
				"element": "H" 
			},
			{
				"x": 0.0784798938,
				"y": 0.7620972919,
				"z": -4.3975188449,
				"element": "H" 
			},
			{
				"x": 2.1702078512,
				"y": 0.5066197315,
				"z": -5.3961791346,
				"element": "H" 
			},
			{
				"x": 2.4157474629,
				"y": -0.9605189963,
				"z": -6.22005709,
				"element": "H" 
			}
		],
		 "valence_orbital": [ 
			{
				"type": "occ",
				"energy": -0.28305,
				"method": "rhf"
			},
			{
				"type": "occ",
				"energy": -0.27889,
				"method": "rhf"
			},
			{
				"type": "occ",
				"energy": -0.26293,
				"method": "rhf"
			},
			{
				"type": "occ",
				"energy": -0.25487,
				"method": "rhf"
			},
			{
				"type": "occ",
				"energy": -0.24558,
				"method": "rhf"
			},
			{
				"type": "unocc",
				"energy": -0.01365,
				"method": "rhf"
			},
			{
				"type": "unocc",
				"energy": 0.04492,
				"method": "rhf"
			},
			{
				"type": "unocc",
				"energy": 0.05106,
				"method": "rhf"
			},
			{
				"type": "unocc",
				"energy": 0.06127,
				"method": "rhf"
			},
			{
				"type": "unocc",
				"energy": 0.08755,
				"method": "rhf"
			}
		],
		"cosmo_sigma_profile": { 
			"-0.025": 0.0,
			"-0.024": 0.0,
			"-0.023": 0.0,
			"-0.022": 0.0,
			"-0.021": 0.0,
			"-0.02": 0.0,
			"-0.019": 0.0,
			"-0.018": 0.0,
			"-0.017": 0.109871036074,
			"-0.016": 1.66176460811,
			"-0.015": 2.91082712469,
			"-0.014": 3.10357019093,
			"-0.013": 3.67244483648,
			"-0.012": 3.05236871771,
			"-0.011": 4.53971473458,
			"-0.01": 3.59338239209,
			"-0.009": 3.27658277719,
			"-0.008": 4.12054305753,
			"-0.007": 5.74632761373,
			"-0.006": 7.22445462006,
			"-0.005": 10.0129902894,
			"-0.004": 20.250077664,
			"-0.003": 26.4692110392,
			"-0.002": 24.0856873136,
			"-0.001": 23.395174698,
			"0.0": 28.1385154775,
			"0.001": 23.3286292935,
			"0.002": 11.2303941606,
			"0.003": 7.89466609358,
			"0.004": 7.71335821809,
			"0.005": 7.44356086222,
			"0.006": 6.04977774435,
			"0.007": 6.25655465448,
			"0.008": 5.46545921808,
			"0.009": 4.7696614843,
			"0.01": 4.37920610894,
			"0.011": 3.90392464432,
			"0.012": 7.4632734175,
			"0.013": 8.86857616463,
			"0.014": 3.53162311164,
			"0.015": 1.81208738447,
			"0.016": 1.42623454191,
			"0.017": 0.891124114227,
			"0.018": 0.144200532147,
			"0.019": 0.0,
			"0.02": 0.0,
			"0.021": 0.0,
			"0.022": 0.0,
			"0.023": 0.0,
			"0.024": 0.0,
			"0.025": 0.0
		}
	}
}
