{
	 "smiles": "O=C1CCCS(=O)(=O)C2=C1C=CC=C2", 
	 "Tm": 425.15, 
	 "num_atms": 24, 
	 "gaussian": { 
		 "optdone": 1, 
		 "sigma_profile": "yes", 
		 "theory": "DFT", 
		 "functional": "B3LYP", 
		 "basiset": "6-31G**", 
		 "properties": { 
			 "R2extent": 2977.2028, 
			 "electric_dipole_moment_norm": 4.98482424364, 
			 "electric_quadrupole_moment_norm": 19.725769894, 
			 "total_energy": -1010.88069654, 
			 "HOMO_LUMO_gap": 0.18598, 
			 "cosmo_polarized_energy": -16.93, 
			 "cosmo_cavitation_energy": 27.48, 
			 "cosmo_dispersion_energy": -21.02, 
			 "cosmo_repulsion_energy": 1.58, 
			 "cosmo_total_nonelectrostatic_energy": 8.04, 
			 "SMD_solvation_energy": 4.16 
		},
		"coords": [
			{
				"x": 3.3320387402,
				"y": 1.3780096143,
				"z": -0.0977658862,
				"element": "O" 
			},
			{
				"x": 2.1416123588,
				"y": 1.1213060966,
				"z": -0.0589778855,
				"element": "C" 
			},
			{
				"x": 1.1998330936,
				"y": 2.0564328837,
				"z": 0.702512144,
				"element": "C" 
			},
			{
				"x": -0.0829353946,
				"y": 1.4233494522,
				"z": 1.2702928948,
				"element": "C" 
			},
			{
				"x": -1.2786277738,
				"y": 1.3722561043,
				"z": 0.3104186357,
				"element": "C" 
			},
			{
				"x": -0.8542407479,
				"y": 0.8985230615,
				"z": -1.3948300764,
				"element": "S" 
			},
			{
				"x": -0.177534602,
				"y": 2.0499141555,
				"z": -2.0180055803,
				"element": "O" 
			},
			{
				"x": -2.0534812478,
				"y": 0.3145535924,
				"z": -2.016144048,
				"element": "O" 
			},
			{
				"x": 0.3715247009,
				"y": -0.416075481,
				"z": -1.2063049119,
				"element": "C" 
			},
			{
				"x": 1.6536190822,
				"y": -0.1722307783,
				"z": -0.676058159,
				"element": "C" 
			},
			{
				"x": 2.582225938,
				"y": -1.2225851113,
				"z": -0.708494805,
				"element": "C" 
			},
			{
				"x": 2.2441267768,
				"y": -2.47122203,
				"z": -1.2267133416,
				"element": "C" 
			},
			{
				"x": 0.9656529241,
				"y": -2.6934550018,
				"z": -1.7387478322,
				"element": "C" 
			},
			{
				"x": 0.028613487,
				"y": -1.6591955723,
				"z": -1.7368358205,
				"element": "C" 
			},
			{
				"x": 1.8111974157,
				"y": 2.462142061,
				"z": 1.5134975861,
				"element": "H" 
			},
			{
				"x": 0.9618282519,
				"y": 2.8945152837,
				"z": 0.0381551278,
				"element": "H" 
			},
			{
				"x": 0.1331417853,
				"y": 0.4142652994,
				"z": 1.6378084898,
				"element": "H" 
			},
			{
				"x": -0.4042453478,
				"y": 2.000513938,
				"z": 2.1437646117,
				"element": "H" 
			},
			{
				"x": -2.0461866886,
				"y": 0.6705697872,
				"z": 0.6447225075,
				"element": "H" 
			},
			{
				"x": -1.7354188838,
				"y": 2.3581974414,
				"z": 0.1768397901,
				"element": "H" 
			},
			{
				"x": 3.5754824949,
				"y": -1.0294422199,
				"z": -0.3177605204,
				"element": "H" 
			},
			{
				"x": 2.9811190628,
				"y": -3.2686451904,
				"z": -1.2341232341,
				"element": "H" 
			},
			{
				"x": 0.6983611461,
				"y": -3.6626080518,
				"z": -2.148657153,
				"element": "H" 
			},
			{
				"x": -0.9618065718,
				"y": -1.7928893343,
				"z": -2.1579925333,
				"element": "H" 
			}
		],
		 "valence_orbital": [ 
			{
				"type": "occ",
				"energy": -0.303,
				"method": "rhf"
			},
			{
				"type": "occ",
				"energy": -0.29138,
				"method": "rhf"
			},
			{
				"type": "occ",
				"energy": -0.28114,
				"method": "rhf"
			},
			{
				"type": "occ",
				"energy": -0.27951,
				"method": "rhf"
			},
			{
				"type": "occ",
				"energy": -0.26037,
				"method": "rhf"
			},
			{
				"type": "unocc",
				"energy": -0.07439,
				"method": "rhf"
			},
			{
				"type": "unocc",
				"energy": -0.03814,
				"method": "rhf"
			},
			{
				"type": "unocc",
				"energy": 0.0115,
				"method": "rhf"
			},
			{
				"type": "unocc",
				"energy": 0.05912,
				"method": "rhf"
			},
			{
				"type": "unocc",
				"energy": 0.06182,
				"method": "rhf"
			}
		],
		"cosmo_sigma_profile": { 
			"-0.025": 0.0,
			"-0.024": 0.0,
			"-0.023": 0.0,
			"-0.022": 0.0,
			"-0.021": 0.0,
			"-0.02": 0.0,
			"-0.019": 0.0,
			"-0.018": 0.0,
			"-0.017": 0.0,
			"-0.016": 0.0,
			"-0.015": 0.0,
			"-0.014": 0.0,
			"-0.013": 0.0,
			"-0.012": 0.0,
			"-0.011": 0.0,
			"-0.01": 0.0,
			"-0.009": 0.72954936485,
			"-0.008": 6.46496235413,
			"-0.007": 12.2737793019,
			"-0.006": 22.4970852211,
			"-0.005": 22.4256205053,
			"-0.004": 18.1987243844,
			"-0.003": 13.8901207243,
			"-0.002": 11.5941187318,
			"-0.001": 10.009613307,
			"0.0": 12.466614931,
			"0.001": 15.8204102352,
			"0.002": 14.005571534,
			"0.003": 5.32527839522,
			"0.004": 3.9523465248,
			"0.005": 3.04184433683,
			"0.006": 4.26197036726,
			"0.007": 3.28074914671,
			"0.008": 5.16451725793,
			"0.009": 5.18162462205,
			"0.01": 7.86760341896,
			"0.011": 11.648889232,
			"0.012": 8.23843967993,
			"0.013": 0.4129994363,
			"0.014": 0.0,
			"0.015": 0.0,
			"0.016": 0.0,
			"0.017": 0.0,
			"0.018": 0.0,
			"0.019": 0.0,
			"0.02": 0.0,
			"0.021": 0.0,
			"0.022": 0.0,
			"0.023": 0.0,
			"0.024": 0.0,
			"0.025": 0.0
		}
	}
}
