{
	 "smiles": "FC(F)(F)C(F)(F)C(F)(F)C(F)(F)C(F)(F)C(F)(F)C(F)(F)C(F)(F)I", 
	 "Tm": 310.15, 
	 "num_atms": 26, 
	 "gaussian": { 
		 "optdone": 1, 
		 "sigma_profile": "no", 
		 "theory": "DFT", 
		 "functional": "B3LYP", 
		 "basiset": "6-31G**", 
		 "properties": { 
			 "R2extent": 8928.8914, 
			 "electric_dipole_moment_norm": 0.709584519279, 
			 "electric_quadrupole_moment_norm": 4.61088476976, 
			 "total_energy": -2013.43547634, 
			 "HOMO_LUMO_gap": 0.20882, 
			 "cosmo_polarized_energy": -90471.06, 
			 "cosmo_cavitation_energy": 39.11, 
			 "cosmo_dispersion_energy": -26.58, 
			 "cosmo_repulsion_energy": 1.69, 
			 "cosmo_total_nonelectrostatic_energy": 14.22, 
			 "SMD_solvation_energy": 10.97 
		},
		"coords": [
			{
				"x": -1.0355960143,
				"y": 3.9113744634,
				"z": -1.9480870311,
				"element": "F" 
			},
			{
				"x": -0.0675014004,
				"y": 3.6413205483,
				"z": -1.0649875497,
				"element": "C" 
			},
			{
				"x": 1.1050448621,
				"y": 4.0511907519,
				"z": -1.5677406082,
				"element": "F" 
			},
			{
				"x": -0.3197252935,
				"y": 4.3052186199,
				"z": 0.0666158872,
				"element": "F" 
			},
			{
				"x": -0.037285328,
				"y": 2.1096417338,
				"z": -0.8083675109,
				"element": "C" 
			},
			{
				"x": -0.0685265346,
				"y": 1.4983819047,
				"z": -2.0131033734,
				"element": "F" 
			},
			{
				"x": -1.1509842774,
				"y": 1.7894826644,
				"z": -0.1111781923,
				"element": "F" 
			},
			{
				"x": 1.2259845066,
				"y": 1.6288913546,
				"z": -0.0402996256,
				"element": "C" 
			},
			{
				"x": 1.5148517939,
				"y": 2.5536719669,
				"z": 0.9100859192,
				"element": "F" 
			},
			{
				"x": 2.2525332146,
				"y": 1.5636425868,
				"z": -0.9143197468,
				"element": "F" 
			},
			{
				"x": 1.1516683297,
				"y": 0.2677002604,
				"z": 0.7291141907,
				"element": "C" 
			},
			{
				"x": 0.2220930062,
				"y": 0.3726236657,
				"z": 1.70397215,
				"element": "F" 
			},
			{
				"x": 2.3714302769,
				"y": 0.1168760804,
				"z": 1.2942879591,
				"element": "F" 
			},
			{
				"x": 0.8501774824,
				"y": -0.9966444299,
				"z": -0.1205660974,
				"element": "C" 
			},
			{
				"x": 1.8486370347,
				"y": -1.150003483,
				"z": -1.01736201,
				"element": "F" 
			},
			{
				"x": -0.3198960045,
				"y": -0.7980366921,
				"z": -0.7781938103,
				"element": "F" 
			},
			{
				"x": 0.6907051178,
				"y": -2.3019889646,
				"z": 0.7138321881,
				"element": "C" 
			},
			{
				"x": -0.4874945193,
				"y": -2.2404911208,
				"z": 1.3709615383,
				"element": "F" 
			},
			{
				"x": 1.6905339899,
				"y": -2.3687019025,
				"z": 1.6244160203,
				"element": "F" 
			},
			{
				"x": 0.7626253238,
				"y": -3.6520526428,
				"z": -0.0718963036,
				"element": "C" 
			},
			{
				"x": 0.5078100058,
				"y": -4.6248593698,
				"z": 0.8305934912,
				"element": "F" 
			},
			{
				"x": 2.0355909723,
				"y": -3.7915780629,
				"z": -0.513353538,
				"element": "F" 
			},
			{
				"x": -0.1496099813,
				"y": -3.8962079597,
				"z": -1.3097236629,
				"element": "C" 
			},
			{
				"x": 0.1874003275,
				"y": -5.1062413891,
				"z": -1.7905071704,
				"element": "F" 
			},
			{
				"x": 0.1345741453,
				"y": -2.9761789829,
				"z": -2.2488717773,
				"element": "F" 
			},
			{
				"x": -2.2948410365,
				"y": -3.9024316014,
				"z": -0.9045213363,
				"element": "I" 
			}
		],
		 "valence_orbital": [ 
			{
				"type": "occ",
				"energy": -0.37283,
				"method": "rhf"
			},
			{
				"type": "occ",
				"energy": -0.35913,
				"method": "rhf"
			},
			{
				"type": "occ",
				"energy": -0.34844,
				"method": "rhf"
			},
			{
				"type": "occ",
				"energy": -0.29499,
				"method": "rhf"
			},
			{
				"type": "occ",
				"energy": -0.29405,
				"method": "rhf"
			},
			{
				"type": "unocc",
				"energy": -0.08523,
				"method": "rhf"
			},
			{
				"type": "unocc",
				"energy": -0.00018,
				"method": "rhf"
			},
			{
				"type": "unocc",
				"energy": 0.01135,
				"method": "rhf"
			},
			{
				"type": "unocc",
				"energy": 0.03213,
				"method": "rhf"
			},
			{
				"type": "unocc",
				"energy": 0.03958,
				"method": "rhf"
			}
		],
		"cosmo_sigma_profile": { 
			"0.0": 0.0,
			"0.0": 0.0,
			"0.0": 0.0,
			"0.0": 0.0,
			"0.0": 0.0,
			"0.0": 0.0,
			"0.0": 0.0,
			"0.0": 0.0,
			"0.0": 0.0,
			"0.0": 0.0,
			"0.0": 0.0,
			"0.0": 0.0,
			"0.0": 0.0,
			"0.0": 0.0,
			"0.0": 0.0,
			"0.0": 0.0,
			"0.0": 0.0,
			"0.0": 0.0,
			"0.0": 0.0,
			"0.0": 0.0,
			"0.0": 0.0,
			"0.0": 0.0,
			"0.0": 0.0,
			"0.0": 0.0,
			"0.0": 0.0,
			"0.0": 0.0,
			"0.0": 0.0,
			"0.0": 0.0,
			"0.0": 0.0,
			"0.0": 0.0,
			"0.0": 0.0,
			"0.0": 0.0,
			"0.0": 0.0,
			"0.0": 0.0,
			"0.0": 0.0,
			"0.0": 0.0,
			"0.0": 0.0,
			"0.0": 0.0,
			"0.0": 0.0,
			"0.0": 0.0,
			"0.0": 0.0,
			"0.0": 0.0,
			"0.0": 0.0,
			"0.0": 0.0,
			"0.0": 0.0,
			"0.0": 0.0,
			"0.0": 0.0,
			"0.0": 0.0,
			"0.0": 0.0,
			"0.0": 0.0,
			"0.0": 0.0
		}
	}
}
