{
	 "smiles": "ClC(C(=O)NC1=CC=CC=C1)C(=O)C1=CC=CC=C1", 
	 "Tm": 387.15, 
	 "num_atms": 31, 
	 "gaussian": { 
		 "optdone": 1, 
		 "sigma_profile": "yes", 
		 "theory": "DFT", 
		 "functional": "B3LYP", 
		 "basiset": "6-31G**", 
		 "properties": { 
			 "R2extent": 7431.5161, 
			 "electric_dipole_moment_norm": 1.74011809082, 
			 "electric_quadrupole_moment_norm": 22.2172299488, 
			 "total_energy": -1244.22485521, 
			 "HOMO_LUMO_gap": 0.16828, 
			 "cosmo_polarized_energy": -12.8, 
			 "cosmo_cavitation_energy": 36.85, 
			 "cosmo_dispersion_energy": -26.29, 
			 "cosmo_repulsion_energy": 2.02, 
			 "cosmo_total_nonelectrostatic_energy": 12.58, 
			 "SMD_solvation_energy": 6.85 
		},
		"coords": [
			{
				"x": 1.8863937621,
				"y": 3.1459673968,
				"z": -1.028657583,
				"element": "Cl" 
			},
			{
				"x": 0.8495197161,
				"y": 1.7612700512,
				"z": -0.4858519856,
				"element": "C" 
			},
			{
				"x": 0.5316685302,
				"y": 0.8599549014,
				"z": -1.6928890391,
				"element": "C" 
			},
			{
				"x": 1.4123295034,
				"y": 0.3808406744,
				"z": -2.3925639794,
				"element": "O" 
			},
			{
				"x": -0.7903885274,
				"y": 0.6104614246,
				"z": -1.9666075541,
				"element": "N" 
			},
			{
				"x": -2.0055251908,
				"y": 1.0795385307,
				"z": -1.389369188,
				"element": "C" 
			},
			{
				"x": -3.0001337914,
				"y": 1.5560350456,
				"z": -2.2554126716,
				"element": "C" 
			},
			{
				"x": -4.2274228745,
				"y": 1.9760923603,
				"z": -1.7476630589,
				"element": "C" 
			},
			{
				"x": -4.4686865035,
				"y": 1.9394182407,
				"z": -0.372298543,
				"element": "C" 
			},
			{
				"x": -3.4786820572,
				"y": 1.463019477,
				"z": 0.4872545429,
				"element": "C" 
			},
			{
				"x": -2.2542346902,
				"y": 1.0140667636,
				"z": -0.0120121581,
				"element": "C" 
			},
			{
				"x": 1.4450103819,
				"y": 0.9609383872,
				"z": 0.7029878851,
				"element": "C" 
			},
			{
				"x": 0.6469967966,
				"y": 0.6486418867,
				"z": 1.576747283,
				"element": "O" 
			},
			{
				"x": 2.8815885518,
				"y": 0.5924335819,
				"z": 0.7996857258,
				"element": "C" 
			},
			{
				"x": 3.7499253666,
				"y": 0.5430646317,
				"z": -0.303665161,
				"element": "C" 
			},
			{
				"x": 5.0732250293,
				"y": 0.1419862786,
				"z": -0.1238582944,
				"element": "C" 
			},
			{
				"x": 5.5436887771,
				"y": -0.1935887867,
				"z": 1.1468927833,
				"element": "C" 
			},
			{
				"x": 4.6825288605,
				"y": -0.1482126604,
				"z": 2.2481465008,
				"element": "C" 
			},
			{
				"x": 3.3570328591,
				"y": 0.2324652448,
				"z": 2.0743002764,
				"element": "C" 
			},
			{
				"x": -0.0540926672,
				"y": 2.2214303915,
				"z": -0.0959291143,
				"element": "H" 
			},
			{
				"x": -0.8817487173,
				"y": 0.0811792763,
				"z": -2.8266630555,
				"element": "H" 
			},
			{
				"x": -2.8013636211,
				"y": 1.6038787026,
				"z": -3.3225780377,
				"element": "H" 
			},
			{
				"x": -4.9909225783,
				"y": 2.3425742797,
				"z": -2.4274441226,
				"element": "H" 
			},
			{
				"x": -5.422429777,
				"y": 2.2743439963,
				"z": 0.0238636604,
				"element": "H" 
			},
			{
				"x": -3.660648915,
				"y": 1.4181855703,
				"z": 1.5569021339,
				"element": "H" 
			},
			{
				"x": -1.5024961609,
				"y": 0.6176636721,
				"z": 0.6621324465,
				"element": "H" 
			},
			{
				"x": 3.3804486673,
				"y": 0.7758633544,
				"z": -1.2945348948,
				"element": "H" 
			},
			{
				"x": 5.7382854775,
				"y": 0.0925499195,
				"z": -0.9807716616,
				"element": "H" 
			},
			{
				"x": 6.5792643518,
				"y": -0.4939757357,
				"z": 1.2804398078,
				"element": "H" 
			},
			{
				"x": 5.0459309254,
				"y": -0.4129849966,
				"z": 3.2366623974,
				"element": "H" 
			},
			{
				"x": 2.669038515,
				"y": 0.2616981395,
				"z": 2.9123546595,
				"element": "H" 
			}
		],
		 "valence_orbital": [ 
			{
				"type": "occ",
				"energy": -0.26711,
				"method": "rhf"
			},
			{
				"type": "occ",
				"energy": -0.26364,
				"method": "rhf"
			},
			{
				"type": "occ",
				"energy": -0.25639,
				"method": "rhf"
			},
			{
				"type": "occ",
				"energy": -0.25602,
				"method": "rhf"
			},
			{
				"type": "occ",
				"energy": -0.24071,
				"method": "rhf"
			},
			{
				"type": "unocc",
				"energy": -0.07243,
				"method": "rhf"
			},
			{
				"type": "unocc",
				"energy": -0.02975,
				"method": "rhf"
			},
			{
				"type": "unocc",
				"energy": -0.0161,
				"method": "rhf"
			},
			{
				"type": "unocc",
				"energy": -0.00615,
				"method": "rhf"
			},
			{
				"type": "unocc",
				"energy": -0.00494,
				"method": "rhf"
			}
		],
		"cosmo_sigma_profile": { 
			"-0.025": 0.0,
			"-0.024": 0.0,
			"-0.023": 0.0,
			"-0.022": 0.0,
			"-0.021": 0.0,
			"-0.02": 0.0,
			"-0.019": 0.0,
			"-0.018": 0.0,
			"-0.017": 0.0,
			"-0.016": 0.107833678128,
			"-0.015": 0.748123134252,
			"-0.014": 1.23591284814,
			"-0.013": 0.973258470933,
			"-0.012": 0.425387420822,
			"-0.011": 1.18104148621,
			"-0.01": 1.5203933809,
			"-0.009": 0.929359345674,
			"-0.008": 2.32799951313,
			"-0.007": 6.03075865976,
			"-0.006": 18.701112465,
			"-0.005": 22.1057185304,
			"-0.004": 23.4798671755,
			"-0.003": 17.3152931766,
			"-0.002": 21.3259783613,
			"-0.001": 17.8493013766,
			"0.0": 18.8751716687,
			"0.001": 21.8282055177,
			"0.002": 21.8949370291,
			"0.003": 29.3142567796,
			"0.004": 29.7836824278,
			"0.005": 14.4447825778,
			"0.006": 4.45830255407,
			"0.007": 3.62942462742,
			"0.008": 3.11831768001,
			"0.009": 3.6738929656,
			"0.01": 4.2498798756,
			"0.011": 3.23304661719,
			"0.012": 2.84638608378,
			"0.013": 0.548225134308,
			"0.014": 0.0,
			"0.015": 0.0,
			"0.016": 0.0,
			"0.017": 0.0,
			"0.018": 0.0,
			"0.019": 0.0,
			"0.02": 0.0,
			"0.021": 0.0,
			"0.022": 0.0,
			"0.023": 0.0,
			"0.024": 0.0,
			"0.025": 0.0
		}
	}
}
