{
	 "smiles": "COC1=C(C)C(Br)=C(OC)C(C)=C1C", 
	 "Tm": 345.15, 
	 "num_atms": 29, 
	 "gaussian": { 
		 "optdone": 1, 
		 "sigma_profile": "yes", 
		 "theory": "DFT", 
		 "functional": "B3LYP", 
		 "basiset": "6-31G**", 
		 "properties": { 
			 "R2extent": 5993.8243, 
			 "electric_dipole_moment_norm": 1.89475348529, 
			 "electric_quadrupole_moment_norm": 13.9812053071, 
			 "total_energy": -3150.04702677, 
			 "HOMO_LUMO_gap": 0.21654, 
			 "cosmo_polarized_energy": -6.73, 
			 "cosmo_cavitation_energy": 32.45, 
			 "cosmo_dispersion_energy": -23.36, 
			 "cosmo_repulsion_energy": 1.82, 
			 "cosmo_total_nonelectrostatic_energy": 10.9, 
			 "SMD_solvation_energy": 5.83 
		},
		"coords": [
			{
				"x": 0.4142921237,
				"y": -3.7647525853,
				"z": -1.2173797807,
				"element": "C" 
			},
			{
				"x": -0.1739982769,
				"y": -2.6956672045,
				"z": -1.9579682307,
				"element": "O" 
			},
			{
				"x": -0.7448375064,
				"y": -1.7049991821,
				"z": -1.1728989732,
				"element": "C" 
			},
			{
				"x": -2.102388997,
				"y": -1.8260389721,
				"z": -0.8214972313,
				"element": "C" 
			},
			{
				"x": -2.9174851305,
				"y": -3.0066222985,
				"z": -1.283799151,
				"element": "C" 
			},
			{
				"x": -2.6461390501,
				"y": -0.7965113505,
				"z": -0.046547572,
				"element": "C" 
			},
			{
				"x": -4.475340994,
				"y": -0.9022849508,
				"z": 0.514586401,
				"element": "Br" 
			},
			{
				"x": -1.8912807285,
				"y": 0.3125169629,
				"z": 0.3580714906,
				"element": "C" 
			},
			{
				"x": -2.4527340347,
				"y": 1.2817852618,
				"z": 1.1589747771,
				"element": "O" 
			},
			{
				"x": -3.1149473963,
				"y": 2.3337819946,
				"z": 0.4520712195,
				"element": "C" 
			},
			{
				"x": -0.5404075179,
				"y": 0.4135160749,
				"z": -0.011577398,
				"element": "C" 
			},
			{
				"x": 0.2787400341,
				"y": 1.5971433852,
				"z": 0.4455921489,
				"element": "C" 
			},
			{
				"x": 0.0386339644,
				"y": -0.6044448405,
				"z": -0.7924317473,
				"element": "C" 
			},
			{
				"x": 1.4801769006,
				"y": -0.5078730345,
				"z": -1.2315487952,
				"element": "C" 
			},
			{
				"x": 0.8236467913,
				"y": -4.4638705504,
				"z": -1.9501366275,
				"element": "H" 
			},
			{
				"x": 1.2231170734,
				"y": -3.4060548453,
				"z": -0.567987573,
				"element": "H" 
			},
			{
				"x": -0.3298181128,
				"y": -4.2830143639,
				"z": -0.599323836,
				"element": "H" 
			},
			{
				"x": -3.8608992158,
				"y": -2.6759656109,
				"z": -1.727509899,
				"element": "H" 
			},
			{
				"x": -2.3629700427,
				"y": -3.5811342172,
				"z": -2.0258199249,
				"element": "H" 
			},
			{
				"x": -3.1779486273,
				"y": -3.6653848829,
				"z": -0.4471964539,
				"element": "H" 
			},
			{
				"x": -3.9447631805,
				"y": 1.9475316844,
				"z": -0.14987856,
				"element": "H" 
			},
			{
				"x": -3.5069158724,
				"y": 3.0138642405,
				"z": 1.2110909751,
				"element": "H" 
			},
			{
				"x": -2.4169304485,
				"y": 2.8772494767,
				"z": -0.1974884571,
				"element": "H" 
			},
			{
				"x": 1.2266791436,
				"y": 1.2737525677,
				"z": 0.8885268041,
				"element": "H" 
			},
			{
				"x": -0.2661043394,
				"y": 2.1757296624,
				"z": 1.1917147674,
				"element": "H" 
			},
			{
				"x": 0.5305528398,
				"y": 2.2620697847,
				"z": -0.3904169358,
				"element": "H" 
			},
			{
				"x": 1.6973540291,
				"y": 0.4763423928,
				"z": -1.6597977588,
				"element": "H" 
			},
			{
				"x": 1.7041666989,
				"y": -1.2635428049,
				"z": -1.9847333004,
				"element": "H" 
			},
			{
				"x": 2.1710498727,
				"y": -0.6446217943,
				"z": -0.3896903782,
				"element": "H" 
			}
		],
		 "valence_orbital": [ 
			{
				"type": "occ",
				"energy": -0.27987,
				"method": "rhf"
			},
			{
				"type": "occ",
				"energy": -0.27446,
				"method": "rhf"
			},
			{
				"type": "occ",
				"energy": -0.26813,
				"method": "rhf"
			},
			{
				"type": "occ",
				"energy": -0.22958,
				"method": "rhf"
			},
			{
				"type": "occ",
				"energy": -0.22333,
				"method": "rhf"
			},
			{
				"type": "unocc",
				"energy": -0.00679,
				"method": "rhf"
			},
			{
				"type": "unocc",
				"energy": 0.00498,
				"method": "rhf"
			},
			{
				"type": "unocc",
				"energy": 0.01529,
				"method": "rhf"
			},
			{
				"type": "unocc",
				"energy": 0.08183,
				"method": "rhf"
			},
			{
				"type": "unocc",
				"energy": 0.10119,
				"method": "rhf"
			}
		],
		"cosmo_sigma_profile": { 
			"-0.025": 0.0,
			"-0.024": 0.0,
			"-0.023": 0.0,
			"-0.022": 0.0,
			"-0.021": 0.0,
			"-0.02": 0.0,
			"-0.019": 0.0,
			"-0.018": 0.0,
			"-0.017": 0.0,
			"-0.016": 0.0,
			"-0.015": 0.0,
			"-0.014": 0.0,
			"-0.013": 0.0,
			"-0.012": 0.0,
			"-0.011": 0.0,
			"-0.01": 0.0,
			"-0.009": 0.0,
			"-0.008": 0.0,
			"-0.007": 0.0,
			"-0.006": 1.46756529915,
			"-0.005": 6.95890163352,
			"-0.004": 25.3888930263,
			"-0.003": 35.9737056799,
			"-0.002": 37.7200988129,
			"-0.001": 29.4296176597,
			"0.0": 27.290431904,
			"0.001": 18.1389469327,
			"0.002": 15.5577301716,
			"0.003": 21.4410099967,
			"0.004": 13.6365069761,
			"0.005": 7.5354553549,
			"0.006": 3.78757664918,
			"0.007": 3.06948694022,
			"0.008": 2.30415376352,
			"0.009": 2.06003114009,
			"0.01": 2.38746515289,
			"0.011": 2.2565804354,
			"0.012": 1.86725929571,
			"0.013": 0.0248354175212,
			"0.014": 0.0,
			"0.015": 0.0,
			"0.016": 0.0,
			"0.017": 0.0,
			"0.018": 0.0,
			"0.019": 0.0,
			"0.02": 0.0,
			"0.021": 0.0,
			"0.022": 0.0,
			"0.023": 0.0,
			"0.024": 0.0,
			"0.025": 0.0
		}
	}
}
