{
	 "smiles": "CC(C(O)=O)C1=CC=C(C=C1)C(=O)C1=CC=CS1", 
	 "Tm": 397.15, 
	 "num_atms": 30, 
	 "gaussian": { 
		 "optdone": 1, 
		 "sigma_profile": "yes", 
		 "theory": "DFT", 
		 "functional": "B3LYP", 
		 "basiset": "6-31G**", 
		 "properties": { 
			 "R2extent": 7584.4157, 
			 "electric_dipole_moment_norm": 2.08324151504, 
			 "electric_quadrupole_moment_norm": 28.1885450861, 
			 "total_energy": -1164.58867633, 
			 "HOMO_LUMO_gap": 0.17272, 
			 "cosmo_polarized_energy": -16.26, 
			 "cosmo_cavitation_energy": 36.43, 
			 "cosmo_dispersion_energy": -26.29, 
			 "cosmo_repulsion_energy": 2.0, 
			 "cosmo_total_nonelectrostatic_energy": 12.13, 
			 "SMD_solvation_energy": 7.87 
		},
		"coords": [
			{
				"x": -0.0614858242,
				"y": -2.797338711,
				"z": 3.2186443897,
				"element": "C" 
			},
			{
				"x": 1.1261607052,
				"y": -2.3089753363,
				"z": 2.3657600979,
				"element": "C" 
			},
			{
				"x": 2.3515727122,
				"y": -1.9717558316,
				"z": 3.2101226276,
				"element": "C" 
			},
			{
				"x": 2.0433891873,
				"y": -1.2423627349,
				"z": 4.3127519213,
				"element": "O" 
			},
			{
				"x": 3.4871622586,
				"y": -2.295172526,
				"z": 2.945448445,
				"element": "O" 
			},
			{
				"x": 0.7532468223,
				"y": -1.1283754801,
				"z": 1.4723661157,
				"element": "C" 
			},
			{
				"x": 0.3493945263,
				"y": 0.1044349378,
				"z": 2.0111267273,
				"element": "C" 
			},
			{
				"x": -0.0158068886,
				"y": 1.1554800318,
				"z": 1.1783724803,
				"element": "C" 
			},
			{
				"x": 0.037343285,
				"y": 1.0172043828,
				"z": -0.2177241318,
				"element": "C" 
			},
			{
				"x": 0.4319265538,
				"y": -0.2140930179,
				"z": -0.7584815046,
				"element": "C" 
			},
			{
				"x": 0.7821881794,
				"y": -1.2717946756,
				"z": 0.0804684265,
				"element": "C" 
			},
			{
				"x": -0.4084471953,
				"y": 2.1823493855,
				"z": -1.0494251008,
				"element": "C" 
			},
			{
				"x": -1.2594514877,
				"y": 2.9579647073,
				"z": -0.6189897122,
				"element": "O" 
			},
			{
				"x": 0.1889073058,
				"y": 2.40741146,
				"z": -2.3796955336,
				"element": "C" 
			},
			{
				"x": 1.3541458598,
				"y": 1.9331230329,
				"z": -2.9503171386,
				"element": "C" 
			},
			{
				"x": 1.6060283504,
				"y": 2.4755869712,
				"z": -4.2386478597,
				"element": "C" 
			},
			{
				"x": 0.631448835,
				"y": 3.3593130554,
				"z": -4.6315041256,
				"element": "C" 
			},
			{
				"x": -0.5948004738,
				"y": 3.5608942622,
				"z": -3.4351011524,
				"element": "S" 
			},
			{
				"x": 0.2242783242,
				"y": -3.6611461485,
				"z": 3.8269813971,
				"element": "H" 
			},
			{
				"x": -0.4183338571,
				"y": -2.0130144302,
				"z": 3.8894240279,
				"element": "H" 
			},
			{
				"x": -0.8869739968,
				"y": -3.0946143701,
				"z": 2.5659852093,
				"element": "H" 
			},
			{
				"x": 1.4622013455,
				"y": -3.1234791871,
				"z": 1.7183440822,
				"element": "H" 
			},
			{
				"x": 2.8883736764,
				"y": -1.0572142999,
				"z": 4.7566796258,
				"element": "H" 
			},
			{
				"x": 0.3281661399,
				"y": 0.2395088099,
				"z": 3.0877389222,
				"element": "H" 
			},
			{
				"x": -0.347457233,
				"y": 2.1021648839,
				"z": 1.591793438,
				"element": "H" 
			},
			{
				"x": 0.435067036,
				"y": -0.3606097101,
				"z": -1.833098208,
				"element": "H" 
			},
			{
				"x": 1.0759232294,
				"y": -2.223720216,
				"z": -0.3537250341,
				"element": "H" 
			},
			{
				"x": 2.0196107708,
				"y": 1.2422852044,
				"z": -2.4479565386,
				"element": "H" 
			},
			{
				"x": 2.4699527146,
				"y": 2.2252873922,
				"z": -4.8434737938,
				"element": "H" 
			},
			{
				"x": 0.5722691388,
				"y": 3.9056581577,
				"z": -5.5634681001,
				"element": "H" 
			}
		],
		 "valence_orbital": [ 
			{
				"type": "occ",
				"energy": -0.26397,
				"method": "rhf"
			},
			{
				"type": "occ",
				"energy": -0.26248,
				"method": "rhf"
			},
			{
				"type": "occ",
				"energy": -0.25921,
				"method": "rhf"
			},
			{
				"type": "occ",
				"energy": -0.24933,
				"method": "rhf"
			},
			{
				"type": "occ",
				"energy": -0.24438,
				"method": "rhf"
			},
			{
				"type": "unocc",
				"energy": -0.07166,
				"method": "rhf"
			},
			{
				"type": "unocc",
				"energy": -0.02412,
				"method": "rhf"
			},
			{
				"type": "unocc",
				"energy": -0.01463,
				"method": "rhf"
			},
			{
				"type": "unocc",
				"energy": 0.00868,
				"method": "rhf"
			},
			{
				"type": "unocc",
				"energy": 0.0309,
				"method": "rhf"
			}
		],
		"cosmo_sigma_profile": { 
			"-0.025": 0.0,
			"-0.024": 0.0,
			"-0.023": 0.0,
			"-0.022": 0.0,
			"-0.021": 0.0,
			"-0.02": 0.0,
			"-0.019": 0.0626136487554,
			"-0.018": 0.736701476485,
			"-0.017": 1.05873674347,
			"-0.016": 0.867683873767,
			"-0.015": 0.757575223508,
			"-0.014": 0.764143906574,
			"-0.013": 0.650356036757,
			"-0.012": 0.489297195962,
			"-0.011": 0.823064028324,
			"-0.01": 0.853872740864,
			"-0.009": 2.33518040248,
			"-0.008": 3.654120104,
			"-0.007": 9.07828855926,
			"-0.006": 13.7736103047,
			"-0.005": 19.3697764773,
			"-0.004": 22.071688755,
			"-0.003": 18.4227834538,
			"-0.002": 21.8246962609,
			"-0.001": 20.7079221664,
			"0.0": 21.1506165673,
			"0.001": 22.2406560142,
			"0.002": 26.9125713389,
			"0.003": 27.309243229,
			"0.004": 14.6263302111,
			"0.005": 5.47167717885,
			"0.006": 4.33133169003,
			"0.007": 4.39469745852,
			"0.008": 3.51657963059,
			"0.009": 3.41134542177,
			"0.01": 4.48763638192,
			"0.011": 7.06424990787,
			"0.012": 8.55575983787,
			"0.013": 1.24247947967,
			"0.014": 0.0,
			"0.015": 0.0,
			"0.016": 0.0,
			"0.017": 0.0,
			"0.018": 0.0,
			"0.019": 0.0,
			"0.02": 0.0,
			"0.021": 0.0,
			"0.022": 0.0,
			"0.023": 0.0,
			"0.024": 0.0,
			"0.025": 0.0
		}
	}
}
