{
	 "smiles": "BrCC(=O)C1=COC2=C1C=CC=C2", 
	 "Tm": 409.15, 
	 "num_atms": 20, 
	 "gaussian": { 
		 "optdone": 1, 
		 "sigma_profile": "yes", 
		 "theory": "DFT", 
		 "functional": "B3LYP", 
		 "basiset": "6-31G**", 
		 "properties": { 
			 "R2extent": 5608.4397, 
			 "electric_dipole_moment_norm": 4.38873761576, 
			 "electric_quadrupole_moment_norm": 10.8955303987, 
			 "total_energy": -3107.11646386, 
			 "HOMO_LUMO_gap": 0.18053, 
			 "cosmo_polarized_energy": -11.67, 
			 "cosmo_cavitation_energy": 26.95, 
			 "cosmo_dispersion_energy": -20.32, 
			 "cosmo_repulsion_energy": 1.59, 
			 "cosmo_total_nonelectrostatic_energy": 8.22, 
			 "SMD_solvation_energy": 4.58 
		},
		"coords": [
			{
				"x": 4.3193780555,
				"y": -0.142213043,
				"z": -3.0596784696,
				"element": "Br" 
			},
			{
				"x": 3.0198641948,
				"y": 0.1290656244,
				"z": -1.6319572748,
				"element": "C" 
			},
			{
				"x": 1.6020387001,
				"y": -0.2981729881,
				"z": -2.0060401281,
				"element": "C" 
			},
			{
				"x": 1.3142337609,
				"y": -0.7637793916,
				"z": -3.0931688869,
				"element": "O" 
			},
			{
				"x": 0.579211177,
				"y": -0.1110257746,
				"z": -0.9525299929,
				"element": "C" 
			},
			{
				"x": -0.7282318018,
				"y": -0.4550941121,
				"z": -1.1624277809,
				"element": "C" 
			},
			{
				"x": -1.5135323186,
				"y": -0.2117909638,
				"z": -0.0875953914,
				"element": "O" 
			},
			{
				"x": -0.6922238809,
				"y": 0.3182863961,
				"z": 0.8821217593,
				"element": "C" 
			},
			{
				"x": 0.6302804846,
				"y": 0.4091962594,
				"z": 0.4082949724,
				"element": "C" 
			},
			{
				"x": 1.604874549,
				"y": 0.9317353385,
				"z": 1.2749371889,
				"element": "C" 
			},
			{
				"x": 1.219125805,
				"y": 1.3319532194,
				"z": 2.5520741726,
				"element": "C" 
			},
			{
				"x": -0.1136373503,
				"y": 1.2243122827,
				"z": 2.9868036643,
				"element": "C" 
			},
			{
				"x": -1.1015437555,
				"y": 0.7099611134,
				"z": 2.1492108782,
				"element": "C" 
			},
			{
				"x": 3.3672794521,
				"y": -0.4391408834,
				"z": -0.7661458583,
				"element": "H" 
			},
			{
				"x": 3.0371229072,
				"y": 1.1909518676,
				"z": -1.3764703907,
				"element": "H" 
			},
			{
				"x": -1.2114462331,
				"y": -0.8782240639,
				"z": -2.0298782116,
				"element": "H" 
			},
			{
				"x": 2.6409938584,
				"y": 1.0277987332,
				"z": 0.9699803445,
				"element": "H" 
			},
			{
				"x": 1.9654945798,
				"y": 1.7369522315,
				"z": 3.2286407399,
				"element": "H" 
			},
			{
				"x": -0.3774315121,
				"y": 1.5463583472,
				"z": 3.9892181834,
				"element": "H" 
			},
			{
				"x": -2.1362506718,
				"y": 0.616269807,
				"z": 2.4597104814,
				"element": "H" 
			}
		],
		 "valence_orbital": [ 
			{
				"type": "occ",
				"energy": -0.27492,
				"method": "rhf"
			},
			{
				"type": "occ",
				"energy": -0.2748,
				"method": "rhf"
			},
			{
				"type": "occ",
				"energy": -0.26667,
				"method": "rhf"
			},
			{
				"type": "occ",
				"energy": -0.25895,
				"method": "rhf"
			},
			{
				"type": "occ",
				"energy": -0.24206,
				"method": "rhf"
			},
			{
				"type": "unocc",
				"energy": -0.06153,
				"method": "rhf"
			},
			{
				"type": "unocc",
				"energy": -0.02501,
				"method": "rhf"
			},
			{
				"type": "unocc",
				"energy": -0.00664,
				"method": "rhf"
			},
			{
				"type": "unocc",
				"energy": 0.0011,
				"method": "rhf"
			},
			{
				"type": "unocc",
				"energy": 0.07086,
				"method": "rhf"
			}
		],
		"cosmo_sigma_profile": { 
			"-0.025": 0.0,
			"-0.024": 0.0,
			"-0.023": 0.0,
			"-0.022": 0.0,
			"-0.021": 0.0,
			"-0.02": 0.0,
			"-0.019": 0.0,
			"-0.018": 0.0,
			"-0.017": 0.0,
			"-0.016": 0.0,
			"-0.015": 0.0,
			"-0.014": 0.0,
			"-0.013": 0.0,
			"-0.012": 0.0,
			"-0.011": 0.263028276079,
			"-0.01": 2.3762147817,
			"-0.009": 6.74214524132,
			"-0.008": 8.80157629341,
			"-0.007": 9.06967915772,
			"-0.006": 11.002192058,
			"-0.005": 11.7063087585,
			"-0.004": 11.616946148,
			"-0.003": 10.9623015953,
			"-0.002": 12.5870801571,
			"-0.001": 14.3083212091,
			"0.0": 16.9122546955,
			"0.001": 16.0507648732,
			"0.002": 14.9177178192,
			"0.003": 14.3882281114,
			"0.004": 16.2824745164,
			"0.005": 14.7495647185,
			"0.006": 8.40368895245,
			"0.007": 3.3442074917,
			"0.008": 3.01173731697,
			"0.009": 1.97771601528,
			"0.01": 2.60623011674,
			"0.011": 4.51490848464,
			"0.012": 2.61635292193,
			"0.013": 1.00995849586,
			"0.014": 0.0,
			"0.015": 0.0,
			"0.016": 0.0,
			"0.017": 0.0,
			"0.018": 0.0,
			"0.019": 0.0,
			"0.02": 0.0,
			"0.021": 0.0,
			"0.022": 0.0,
			"0.023": 0.0,
			"0.024": 0.0,
			"0.025": 0.0
		}
	}
}
