{
	 "smiles": "CC1=NN2C(=N1)N=CC=C2C(O)=O", 
	 "Tm": 500.15, 
	 "num_atms": 19, 
	 "gaussian": { 
		 "optdone": 1, 
		 "sigma_profile": "yes", 
		 "theory": "DFT", 
		 "functional": "B3LYP", 
		 "basiset": "6-31G**", 
		 "properties": { 
			 "R2extent": 2803.2204, 
			 "electric_dipole_moment_norm": 1.55414500289, 
			 "electric_quadrupole_moment_norm": 22.905261014, 
			 "total_energy": -639.813841538, 
			 "HOMO_LUMO_gap": 0.17624, 
			 "cosmo_polarized_energy": -14.29, 
			 "cosmo_cavitation_energy": 24.01, 
			 "cosmo_dispersion_energy": -18.31, 
			 "cosmo_repulsion_energy": 1.43, 
			 "cosmo_total_nonelectrostatic_energy": 7.13, 
			 "SMD_solvation_energy": 1.61 
		},
		"coords": [
			{
				"x": 1.9702876586,
				"y": -0.7083941371,
				"z": 1.8202941734,
				"element": "C" 
			},
			{
				"x": 1.1371137265,
				"y": -0.2805771958,
				"z": 0.6575953496,
				"element": "C" 
			},
			{
				"x": 0.7349170503,
				"y": -1.1621138595,
				"z": -0.2798934629,
				"element": "N" 
			},
			{
				"x": 0.0236168683,
				"y": -0.3842366419,
				"z": -1.1298842359,
				"element": "N" 
			},
			{
				"x": 0.0263384843,
				"y": 0.9382870588,
				"z": -0.6683286269,
				"element": "C" 
			},
			{
				"x": 0.7340127909,
				"y": 0.9906614907,
				"z": 0.4630350002,
				"element": "N" 
			},
			{
				"x": -0.6106817925,
				"y": 1.9121042573,
				"z": -1.3336719369,
				"element": "N" 
			},
			{
				"x": -1.2376736248,
				"y": 1.5541693608,
				"z": -2.4437279869,
				"element": "C" 
			},
			{
				"x": -1.2718894847,
				"y": 0.2330684951,
				"z": -2.9544152743,
				"element": "C" 
			},
			{
				"x": -0.6181215321,
				"y": -0.766675176,
				"z": -2.2716881119,
				"element": "C" 
			},
			{
				"x": -0.6055396706,
				"y": -2.2035812046,
				"z": -2.7488939591,
				"element": "C" 
			},
			{
				"x": 0.0623855759,
				"y": -3.0788968203,
				"z": -1.9998035901,
				"element": "O" 
			},
			{
				"x": -1.187481199,
				"y": -2.5009775705,
				"z": -3.7670351628,
				"element": "O" 
			},
			{
				"x": 1.4495661477,
				"y": -1.4669828938,
				"z": 2.4127204802,
				"element": "H" 
			},
			{
				"x": 2.1812877268,
				"y": 0.1554117974,
				"z": 2.4508039409,
				"element": "H" 
			},
			{
				"x": 2.9147596656,
				"y": -1.1449733019,
				"z": 1.481254136,
				"element": "H" 
			},
			{
				"x": -1.7533377475,
				"y": 2.3469986634,
				"z": -2.980739443,
				"element": "H" 
			},
			{
				"x": -1.7960612935,
				"y": -0.0207502753,
				"z": -3.8667504563,
				"element": "H" 
			},
			{
				"x": 0.46780065,
				"y": -2.6374420469,
				"z": -1.2089708334,
				"element": "H" 
			}
		],
		 "valence_orbital": [ 
			{
				"type": "occ",
				"energy": -0.3118,
				"method": "rhf"
			},
			{
				"type": "occ",
				"energy": -0.30125,
				"method": "rhf"
			},
			{
				"type": "occ",
				"energy": -0.29093,
				"method": "rhf"
			},
			{
				"type": "occ",
				"energy": -0.28955,
				"method": "rhf"
			},
			{
				"type": "occ",
				"energy": -0.27879,
				"method": "rhf"
			},
			{
				"type": "unocc",
				"energy": -0.10255,
				"method": "rhf"
			},
			{
				"type": "unocc",
				"energy": -0.04702,
				"method": "rhf"
			},
			{
				"type": "unocc",
				"energy": 0.00451,
				"method": "rhf"
			},
			{
				"type": "unocc",
				"energy": 0.04616,
				"method": "rhf"
			},
			{
				"type": "unocc",
				"energy": 0.08647,
				"method": "rhf"
			}
		],
		"cosmo_sigma_profile": { 
			"-0.025": 0.0,
			"-0.024": 0.0,
			"-0.023": 0.0,
			"-0.022": 0.0,
			"-0.021": 0.0,
			"-0.02": 0.0,
			"-0.019": 0.0,
			"-0.018": 0.0,
			"-0.017": 0.0,
			"-0.016": 0.0,
			"-0.015": 0.0,
			"-0.014": 0.0,
			"-0.013": 0.0,
			"-0.012": 0.0,
			"-0.011": 0.0,
			"-0.01": 0.701127962466,
			"-0.009": 5.83698200885,
			"-0.008": 7.97544484695,
			"-0.007": 8.08661744069,
			"-0.006": 13.9348907234,
			"-0.005": 14.9321990741,
			"-0.004": 14.5427807287,
			"-0.003": 16.1569171593,
			"-0.002": 20.0153629639,
			"-0.001": 12.2564202787,
			"0.0": 7.59488601614,
			"0.001": 8.26888204139,
			"0.002": 5.37274865512,
			"0.003": 4.64782594232,
			"0.004": 5.83845163334,
			"0.005": 4.97090914313,
			"0.006": 4.11972341196,
			"0.007": 4.04416758945,
			"0.008": 4.60983241276,
			"0.009": 7.2347614923,
			"0.01": 8.54133759236,
			"0.011": 6.35065809242,
			"0.012": 3.99057368202,
			"0.013": 1.62262996158,
			"0.014": 1.46196483481,
			"0.015": 0.840105115926,
			"0.016": 0.0905952819501,
			"0.017": 0.0,
			"0.018": 0.0,
			"0.019": 0.0,
			"0.02": 0.0,
			"0.021": 0.0,
			"0.022": 0.0,
			"0.023": 0.0,
			"0.024": 0.0,
			"0.025": 0.0
		}
	}
}
