{
	 "smiles": "OC(=O)C1=CCCC1", 
	 "Tm": 392.15, 
	 "num_atms": 16, 
	 "gaussian": { 
		 "optdone": 1, 
		 "sigma_profile": "yes", 
		 "theory": "DFT", 
		 "functional": "B3LYP", 
		 "basiset": "6-31G**", 
		 "properties": { 
			 "R2extent": 1193.9236, 
			 "electric_dipole_moment_norm": 4.76339329155, 
			 "electric_quadrupole_moment_norm": 13.5222959426, 
			 "total_energy": -383.900684586, 
			 "HOMO_LUMO_gap": 0.21971, 
			 "cosmo_polarized_energy": -12.94, 
			 "cosmo_cavitation_energy": 19.24, 
			 "cosmo_dispersion_energy": -14.52, 
			 "cosmo_repulsion_energy": 1.23, 
			 "cosmo_total_nonelectrostatic_energy": 5.95, 
			 "SMD_solvation_energy": 4.15 
		},
		"coords": [
			{
				"x": -3.1244409256,
				"y": -0.0818141529,
				"z": 1.157735631,
				"element": "O" 
			},
			{
				"x": -2.2368292769,
				"y": -0.7992697527,
				"z": 0.4135251629,
				"element": "C" 
			},
			{
				"x": -2.5953915684,
				"y": -1.8005826904,
				"z": -0.1628559065,
				"element": "O" 
			},
			{
				"x": -0.8440325044,
				"y": -0.2871731053,
				"z": 0.3471277374,
				"element": "C" 
			},
			{
				"x": -0.4285521407,
				"y": 0.9723985338,
				"z": 0.5606329764,
				"element": "C" 
			},
			{
				"x": 1.043105687,
				"y": 1.1400943337,
				"z": 0.2771225318,
				"element": "C" 
			},
			{
				"x": 1.5469687445,
				"y": -0.323412222,
				"z": 0.1610226783,
				"element": "C" 
			},
			{
				"x": 0.2853909824,
				"y": -1.1695251277,
				"z": -0.1434582204,
				"element": "C" 
			},
			{
				"x": -2.653078321,
				"y": 0.6015582305,
				"z": 1.6542597366,
				"element": "H" 
			},
			{
				"x": -1.0648456822,
				"y": 1.8122253559,
				"z": 0.8316968655,
				"element": "H" 
			},
			{
				"x": 1.1795849824,
				"y": 1.6992014865,
				"z": -0.6603526745,
				"element": "H" 
			},
			{
				"x": 1.5637684784,
				"y": 1.7131345116,
				"z": 1.0533565945,
				"element": "H" 
			},
			{
				"x": 2.3288934122,
				"y": -0.4408044453,
				"z": -0.5935588746,
				"element": "H" 
			},
			{
				"x": 1.9721579062,
				"y": -0.6353447928,
				"z": 1.1206930211,
				"element": "H" 
			},
			{
				"x": 0.2941859946,
				"y": -2.1486199625,
				"z": 0.3451165758,
				"element": "H" 
			},
			{
				"x": 0.1592142315,
				"y": -1.3628662003,
				"z": -1.2165638352,
				"element": "H" 
			}
		],
		 "valence_orbital": [ 
			{
				"type": "occ",
				"energy": -0.35615,
				"method": "rhf"
			},
			{
				"type": "occ",
				"energy": -0.34917,
				"method": "rhf"
			},
			{
				"type": "occ",
				"energy": -0.3111,
				"method": "rhf"
			},
			{
				"type": "occ",
				"energy": -0.27071,
				"method": "rhf"
			},
			{
				"type": "occ",
				"energy": -0.26272,
				"method": "rhf"
			},
			{
				"type": "unocc",
				"energy": -0.04301,
				"method": "rhf"
			},
			{
				"type": "unocc",
				"energy": 0.06136,
				"method": "rhf"
			},
			{
				"type": "unocc",
				"energy": 0.07434,
				"method": "rhf"
			},
			{
				"type": "unocc",
				"energy": 0.08822,
				"method": "rhf"
			},
			{
				"type": "unocc",
				"energy": 0.11508,
				"method": "rhf"
			}
		],
		"cosmo_sigma_profile": { 
			"-0.025": 0.0,
			"-0.024": 0.0,
			"-0.023": 0.0,
			"-0.022": 0.0,
			"-0.021": 0.0,
			"-0.02": 0.0,
			"-0.019": 9.34574045632e-05,
			"-0.018": 0.643441732625,
			"-0.017": 0.74156720072,
			"-0.016": 1.06914968004,
			"-0.015": 0.873062221618,
			"-0.014": 0.764656530401,
			"-0.013": 0.774198222936,
			"-0.012": 1.46626410278,
			"-0.011": 1.65356645487,
			"-0.01": 0.98735152172,
			"-0.009": 0.883735726566,
			"-0.008": 1.85849138531,
			"-0.007": 1.67820307918,
			"-0.006": 2.15246461211,
			"-0.005": 3.14622549875,
			"-0.004": 10.2964288648,
			"-0.003": 17.909095197,
			"-0.002": 23.7982144924,
			"-0.001": 17.9838841353,
			"0.0": 14.5410273846,
			"0.001": 7.75713661426,
			"0.002": 4.57418639883,
			"0.003": 2.01527393056,
			"0.004": 1.65627557954,
			"0.005": 2.89059638457,
			"0.006": 1.80306048284,
			"0.007": 2.2596014141,
			"0.008": 2.65125798519,
			"0.009": 3.60937935203,
			"0.01": 3.74177158261,
			"0.011": 5.54785185679,
			"0.012": 5.79031108307,
			"0.013": 3.41794445028,
			"0.014": 0.438298806213,
			"0.015": 0.0,
			"0.016": 0.0,
			"0.017": 0.0,
			"0.018": 0.0,
			"0.019": 0.0,
			"0.02": 0.0,
			"0.021": 0.0,
			"0.022": 0.0,
			"0.023": 0.0,
			"0.024": 0.0,
			"0.025": 0.0
		}
	}
}
