{
	 "smiles": "O=C(CC#N)C1=CC2=C(OCO2)C=C1", 
	 "Tm": 408.15, 
	 "num_atms": 21, 
	 "gaussian": { 
		 "optdone": 1, 
		 "sigma_profile": "yes", 
		 "theory": "DFT", 
		 "functional": "B3LYP", 
		 "basiset": "6-31G**", 
		 "properties": { 
			 "R2extent": 3887.1183, 
			 "electric_dipole_moment_norm": 4.41054715993, 
			 "electric_quadrupole_moment_norm": 17.8607604897, 
			 "total_energy": -665.655265605, 
			 "HOMO_LUMO_gap": 0.15863, 
			 "cosmo_polarized_energy": -14.65, 
			 "cosmo_cavitation_energy": 26.83, 
			 "cosmo_dispersion_energy": -19.35, 
			 "cosmo_repulsion_energy": 1.52, 
			 "cosmo_total_nonelectrostatic_energy": 9.01, 
			 "SMD_solvation_energy": 7.21 
		},
		"coords": [
			{
				"x": 0.361086521,
				"y": -2.5896621676,
				"z": 1.7796821152,
				"element": "O" 
			},
			{
				"x": 0.2326789683,
				"y": -1.6462558161,
				"z": 1.0187023739,
				"element": "C" 
			},
			{
				"x": -1.1797111404,
				"y": -1.3701581868,
				"z": 0.435654887,
				"element": "C" 
			},
			{
				"x": -1.2596765947,
				"y": -1.4987736784,
				"z": -1.018735644,
				"element": "C" 
			},
			{
				"x": -1.3126741734,
				"y": -1.6034978123,
				"z": -2.1737760374,
				"element": "N" 
			},
			{
				"x": 1.3542819627,
				"y": -0.7401217948,
				"z": 0.6684245744,
				"element": "C" 
			},
			{
				"x": 1.1874148901,
				"y": 0.383120499,
				"z": -0.1811359888,
				"element": "C" 
			},
			{
				"x": 2.3019012727,
				"y": 1.1539482058,
				"z": -0.4208718315,
				"element": "C" 
			},
			{
				"x": 3.5456673428,
				"y": 0.8568415763,
				"z": 0.1397158047,
				"element": "C" 
			},
			{
				"x": 4.4645990247,
				"y": 1.7831801247,
				"z": -0.2559246413,
				"element": "O" 
			},
			{
				"x": 3.7842779871,
				"y": 2.6575379031,
				"z": -1.172538685,
				"element": "C" 
			},
			{
				"x": 2.4018744654,
				"y": 2.2883598312,
				"z": -1.1866960772,
				"element": "O" 
			},
			{
				"x": 3.732950902,
				"y": -0.2327393364,
				"z": 0.9734935594,
				"element": "C" 
			},
			{
				"x": 2.6104094946,
				"y": -1.0276019853,
				"z": 1.2281680876,
				"element": "C" 
			},
			{
				"x": -1.8509017723,
				"y": -2.095496687,
				"z": 0.9021923682,
				"element": "H" 
			},
			{
				"x": -1.5116397067,
				"y": -0.3646265154,
				"z": 0.7218409177,
				"element": "H" 
			},
			{
				"x": 0.2411434471,
				"y": 0.6325479921,
				"z": -0.6446468338,
				"element": "H" 
			},
			{
				"x": 4.2120837488,
				"y": 2.5333737378,
				"z": -2.1754397831,
				"element": "H" 
			},
			{
				"x": 3.8858423797,
				"y": 3.6917785991,
				"z": -0.8280777388,
				"element": "H" 
			},
			{
				"x": 4.7030274999,
				"y": -0.4533893468,
				"z": 1.4034790053,
				"element": "H" 
			},
			{
				"x": 2.6885634806,
				"y": -1.8961651423,
				"z": 1.8720895676,
				"element": "H" 
			}
		],
		 "valence_orbital": [ 
			{
				"type": "occ",
				"energy": -0.33123,
				"method": "rhf"
			},
			{
				"type": "occ",
				"energy": -0.32762,
				"method": "rhf"
			},
			{
				"type": "occ",
				"energy": -0.26947,
				"method": "rhf"
			},
			{
				"type": "occ",
				"energy": -0.2671,
				"method": "rhf"
			},
			{
				"type": "occ",
				"energy": -0.22798,
				"method": "rhf"
			},
			{
				"type": "unocc",
				"energy": -0.06935,
				"method": "rhf"
			},
			{
				"type": "unocc",
				"energy": -0.01778,
				"method": "rhf"
			},
			{
				"type": "unocc",
				"energy": 0.02204,
				"method": "rhf"
			},
			{
				"type": "unocc",
				"energy": 0.0309,
				"method": "rhf"
			},
			{
				"type": "unocc",
				"energy": 0.04569,
				"method": "rhf"
			}
		],
		"cosmo_sigma_profile": { 
			"-0.025": 0.0,
			"-0.024": 0.0,
			"-0.023": 0.0,
			"-0.022": 0.0,
			"-0.021": 0.0,
			"-0.02": 0.0,
			"-0.019": 0.0,
			"-0.018": 0.0,
			"-0.017": 0.0,
			"-0.016": 0.0,
			"-0.015": 0.0,
			"-0.014": 0.0,
			"-0.013": 0.0,
			"-0.012": 0.102358802515,
			"-0.011": 1.28353469505,
			"-0.01": 3.87081911215,
			"-0.009": 5.72041410734,
			"-0.008": 12.1289435987,
			"-0.007": 13.684411403,
			"-0.006": 14.6822964609,
			"-0.005": 12.1372149778,
			"-0.004": 8.69198904479,
			"-0.003": 8.0823636662,
			"-0.002": 10.4093360458,
			"-0.001": 10.9632368562,
			"0.0": 12.8064826671,
			"0.001": 17.9917592279,
			"0.002": 16.7518768734,
			"0.003": 10.75182525,
			"0.004": 5.61576754102,
			"0.005": 6.34879362321,
			"0.006": 5.8652845732,
			"0.007": 6.33731890509,
			"0.008": 8.49386790872,
			"0.009": 7.1861918676,
			"0.01": 5.48628716002,
			"0.011": 6.78554177705,
			"0.012": 3.27153588089,
			"0.013": 1.21369049136,
			"0.014": 0.0,
			"0.015": 0.0,
			"0.016": 0.0,
			"0.017": 0.0,
			"0.018": 0.0,
			"0.019": 0.0,
			"0.02": 0.0,
			"0.021": 0.0,
			"0.022": 0.0,
			"0.023": 0.0,
			"0.024": 0.0,
			"0.025": 0.0
		}
	}
}
