{
	 "smiles": "OCCCOC1=C2C=CC=CC2=CC=C1", 
	 "Tm": 339.15, 
	 "num_atms": 29, 
	 "gaussian": { 
		 "optdone": 1, 
		 "sigma_profile": "yes", 
		 "theory": "DFT", 
		 "functional": "B3LYP", 
		 "basiset": "6-31G**", 
		 "properties": { 
			 "R2extent": 4019.4068, 
			 "electric_dipole_moment_norm": 1.34101822881, 
			 "electric_quadrupole_moment_norm": 6.04187107029, 
			 "total_energy": -654.265290358, 
			 "HOMO_LUMO_gap": 0.17033, 
			 "cosmo_polarized_energy": -9.89, 
			 "cosmo_cavitation_energy": 31.97, 
			 "cosmo_dispersion_energy": -23.19, 
			 "cosmo_repulsion_energy": 1.82, 
			 "cosmo_total_nonelectrostatic_energy": 10.61, 
			 "SMD_solvation_energy": 5.3 
		},
		"coords": [
			{
				"x": -0.4546637273,
				"y": 0.672541416,
				"z": 4.016480657,
				"element": "O" 
			},
			{
				"x": -1.1718520291,
				"y": -0.3942913651,
				"z": 3.4025019957,
				"element": "C" 
			},
			{
				"x": -2.3025359849,
				"y": 0.2188729867,
				"z": 2.5830769937,
				"element": "C" 
			},
			{
				"x": -1.8055410089,
				"y": 1.0860125092,
				"z": 1.4342134649,
				"element": "C" 
			},
			{
				"x": -1.1635158626,
				"y": 0.2279566254,
				"z": 0.4880529878,
				"element": "O" 
			},
			{
				"x": -0.5805127933,
				"y": 0.7810689803,
				"z": -0.613298864,
				"element": "C" 
			},
			{
				"x": 0.0350697181,
				"y": -0.1549547628,
				"z": -1.5092236244,
				"element": "C" 
			},
			{
				"x": 0.0275597947,
				"y": -1.5517240907,
				"z": -1.2605295501,
				"element": "C" 
			},
			{
				"x": 0.6295419111,
				"y": -2.4250915651,
				"z": -2.1407325752,
				"element": "C" 
			},
			{
				"x": 1.2645828365,
				"y": -1.9385368142,
				"z": -3.3075077312,
				"element": "C" 
			},
			{
				"x": 1.2840494109,
				"y": -0.5872226289,
				"z": -3.5728496938,
				"element": "C" 
			},
			{
				"x": 0.6736488823,
				"y": 0.343140943,
				"z": -2.6893402486,
				"element": "C" 
			},
			{
				"x": 0.6801965615,
				"y": 1.7424535507,
				"z": -2.9460826255,
				"element": "C" 
			},
			{
				"x": 0.0760619613,
				"y": 2.6068452515,
				"z": -2.0660986423,
				"element": "C" 
			},
			{
				"x": -0.5606002515,
				"y": 2.1346564569,
				"z": -0.8915578379,
				"element": "C" 
			},
			{
				"x": 0.366163029,
				"y": 0.3178007857,
				"z": 4.3780052776,
				"element": "H" 
			},
			{
				"x": -0.5217970309,
				"y": -0.9857129331,
				"z": 2.7421967689,
				"element": "H" 
			},
			{
				"x": -1.5942778608,
				"y": -1.0758473598,
				"z": 4.1577103889,
				"element": "H" 
			},
			{
				"x": -2.9411687681,
				"y": -0.5794849482,
				"z": 2.188120511,
				"element": "H" 
			},
			{
				"x": -2.9197398411,
				"y": 0.8399840984,
				"z": 3.2428217473,
				"element": "H" 
			},
			{
				"x": -2.6413488119,
				"y": 1.6093937608,
				"z": 0.9501379009,
				"element": "H" 
			},
			{
				"x": -1.0941001245,
				"y": 1.8309836701,
				"z": 1.8096625544,
				"element": "H" 
			},
			{
				"x": -0.4637249074,
				"y": -1.9184631555,
				"z": -0.3666962823,
				"element": "H" 
			},
			{
				"x": 0.6165498856,
				"y": -3.4926319818,
				"z": -1.9401096663,
				"element": "H" 
			},
			{
				"x": 1.7362845834,
				"y": -2.6352096135,
				"z": -3.9948630578,
				"element": "H" 
			},
			{
				"x": 1.769719182,
				"y": -0.2096820339,
				"z": -4.4691338905,
				"element": "H" 
			},
			{
				"x": 1.1668215968,
				"y": 2.1123226062,
				"z": -3.8440948156,
				"element": "H" 
			},
			{
				"x": 0.0796758866,
				"y": 3.6753608572,
				"z": -2.2622821045,
				"element": "H" 
			},
			{
				"x": -1.0251462373,
				"y": 2.8466587544,
				"z": -0.2207800379,
				"element": "H" 
			}
		],
		 "valence_orbital": [ 
			{
				"type": "occ",
				"energy": -0.30775,
				"method": "rhf"
			},
			{
				"type": "occ",
				"energy": -0.26962,
				"method": "rhf"
			},
			{
				"type": "occ",
				"energy": -0.25492,
				"method": "rhf"
			},
			{
				"type": "occ",
				"energy": -0.23674,
				"method": "rhf"
			},
			{
				"type": "occ",
				"energy": -0.19604,
				"method": "rhf"
			},
			{
				"type": "unocc",
				"energy": -0.02571,
				"method": "rhf"
			},
			{
				"type": "unocc",
				"energy": -0.00216,
				"method": "rhf"
			},
			{
				"type": "unocc",
				"energy": 0.04753,
				"method": "rhf"
			},
			{
				"type": "unocc",
				"energy": 0.07257,
				"method": "rhf"
			},
			{
				"type": "unocc",
				"energy": 0.10241,
				"method": "rhf"
			}
		],
		"cosmo_sigma_profile": { 
			"-0.025": 0.0,
			"-0.024": 0.0,
			"-0.023": 0.0,
			"-0.022": 0.0,
			"-0.021": 0.0,
			"-0.02": 0.0,
			"-0.019": 0.0,
			"-0.018": 0.0,
			"-0.017": 0.0,
			"-0.016": 0.197589620134,
			"-0.015": 1.23586181314,
			"-0.014": 0.893283548388,
			"-0.013": 1.04692015951,
			"-0.012": 0.92050776878,
			"-0.011": 0.484703061881,
			"-0.01": 1.17071549646,
			"-0.009": 1.05419526131,
			"-0.008": 0.494060252952,
			"-0.007": 0.828734373279,
			"-0.006": 6.80396001486,
			"-0.005": 18.8516944908,
			"-0.004": 24.4029288092,
			"-0.003": 29.3261558175,
			"-0.002": 23.4962211593,
			"-0.001": 18.7690178775,
			"0.0": 11.1355896334,
			"0.001": 11.5651392193,
			"0.002": 12.6574212191,
			"0.003": 17.3635896691,
			"0.004": 25.9367110635,
			"0.005": 23.1408860558,
			"0.006": 10.1374726464,
			"0.007": 1.83496101469,
			"0.008": 1.40684022038,
			"0.009": 1.41690485375,
			"0.01": 1.8292457482,
			"0.011": 0.885486710958,
			"0.012": 1.08488928972,
			"0.013": 1.1534472264,
			"0.014": 1.19982001515,
			"0.015": 0.242866349148,
			"0.016": 0.0,
			"0.017": 0.0,
			"0.018": 0.0,
			"0.019": 0.0,
			"0.02": 0.0,
			"0.021": 0.0,
			"0.022": 0.0,
			"0.023": 0.0,
			"0.024": 0.0,
			"0.025": 0.0
		}
	}
}
