{
	 "smiles": "CCCCCCCCCCCCC#N", 
	 "Tm": 282.85, 
	 "num_atms": 39, 
	 "gaussian": { 
		 "optdone": 1, 
		 "sigma_profile": "yes", 
		 "theory": "DFT", 
		 "functional": "B3LYP", 
		 "basiset": "6-31G**", 
		 "properties": { 
			 "R2extent": 5139.6068, 
			 "electric_dipole_moment_norm": 3.72173496907, 
			 "electric_quadrupole_moment_norm": 23.1883886027, 
			 "total_energy": -565.219189168, 
			 "HOMO_LUMO_gap": 0.33207, 
			 "cosmo_polarized_energy": -8.5, 
			 "cosmo_cavitation_energy": 39.89, 
			 "cosmo_dispersion_energy": -25.72, 
			 "cosmo_repulsion_energy": 2.12, 
			 "cosmo_total_nonelectrostatic_energy": 16.29, 
			 "SMD_solvation_energy": 6.78 
		},
		"coords": [
			{
				"x": 3.170931884,
				"y": -1.3787055993,
				"z": 2.3846477234,
				"element": "C" 
			},
			{
				"x": 2.9327839401,
				"y": -0.1566998806,
				"z": 1.4891822866,
				"element": "C" 
			},
			{
				"x": 2.2934773182,
				"y": -0.4748603106,
				"z": 0.1263649502,
				"element": "C" 
			},
			{
				"x": 0.8555804646,
				"y": -1.0075842871,
				"z": 0.2060358728,
				"element": "C" 
			},
			{
				"x": 0.2239851597,
				"y": -1.3522436927,
				"z": -1.1545335505,
				"element": "C" 
			},
			{
				"x": 0.027342384,
				"y": -0.2077121872,
				"z": -2.1685904453,
				"element": "C" 
			},
			{
				"x": -0.9892044915,
				"y": 0.8877589821,
				"z": -1.7774208102,
				"element": "C" 
			},
			{
				"x": -0.4101058391,
				"y": 2.0738698855,
				"z": -0.9879246818,
				"element": "C" 
			},
			{
				"x": -1.4066023655,
				"y": 3.2248580104,
				"z": -0.7574112626,
				"element": "C" 
			},
			{
				"x": -2.6436835383,
				"y": 2.8866175493,
				"z": 0.0933373187,
				"element": "C" 
			},
			{
				"x": -2.3213306121,
				"y": 2.5079760686,
				"z": 1.5442232474,
				"element": "C" 
			},
			{
				"x": -3.5775723374,
				"y": 2.225004471,
				"z": 2.3973577633,
				"element": "C" 
			},
			{
				"x": -4.3443244047,
				"y": 1.0693664974,
				"z": 1.9198183365,
				"element": "C" 
			},
			{
				"x": -4.9359807349,
				"y": 0.1500803353,
				"z": 1.5289815827,
				"element": "N" 
			},
			{
				"x": 3.8016446857,
				"y": -2.1195871486,
				"z": 1.8793777582,
				"element": "H" 
			},
			{
				"x": 3.6751013267,
				"y": -1.0933940778,
				"z": 3.3139881007,
				"element": "H" 
			},
			{
				"x": 2.2348487277,
				"y": -1.8750098001,
				"z": 2.6599455994,
				"element": "H" 
			},
			{
				"x": 2.3027729143,
				"y": 0.5692361617,
				"z": 2.0223380703,
				"element": "H" 
			},
			{
				"x": 3.8921748216,
				"y": 0.3477667048,
				"z": 1.316470662,
				"element": "H" 
			},
			{
				"x": 2.3121123075,
				"y": 0.4353393212,
				"z": -0.4858429926,
				"element": "H" 
			},
			{
				"x": 2.9192732391,
				"y": -1.2082978672,
				"z": -0.403206843,
				"element": "H" 
			},
			{
				"x": 0.2274160111,
				"y": -0.2819671446,
				"z": 0.7405814368,
				"element": "H" 
			},
			{
				"x": 0.8394077096,
				"y": -1.9173416113,
				"z": 0.8190987663,
				"element": "H" 
			},
			{
				"x": 0.8421646582,
				"y": -2.1253356912,
				"z": -1.6321751173,
				"element": "H" 
			},
			{
				"x": -0.7532965901,
				"y": -1.8204717703,
				"z": -0.9747870099,
				"element": "H" 
			},
			{
				"x": -0.3141895291,
				"y": -0.6711445196,
				"z": -3.1026511162,
				"element": "H" 
			},
			{
				"x": 0.9921335891,
				"y": 0.2581404897,
				"z": -2.4101826513,
				"element": "H" 
			},
			{
				"x": -1.439080984,
				"y": 1.2904368003,
				"z": -2.6954081688,
				"element": "H" 
			},
			{
				"x": -1.8153476505,
				"y": 0.4253158466,
				"z": -1.2207711418,
				"element": "H" 
			},
			{
				"x": -0.0047968253,
				"y": 1.7343017446,
				"z": -0.027756894,
				"element": "H" 
			},
			{
				"x": 0.4475358815,
				"y": 2.4757652155,
				"z": -1.5441568784,
				"element": "H" 
			},
			{
				"x": -0.8751109761,
				"y": 4.0653541889,
				"z": -0.2899662523,
				"element": "H" 
			},
			{
				"x": -1.7511084462,
				"y": 3.5911429207,
				"z": -1.7337443372,
				"element": "H" 
			},
			{
				"x": -3.3120977391,
				"y": 3.7584721811,
				"z": 0.0982510024,
				"element": "H" 
			},
			{
				"x": -3.2117754944,
				"y": 2.0741031946,
				"z": -0.3753187278,
				"element": "H" 
			},
			{
				"x": -1.7704750951,
				"y": 3.324083029,
				"z": 2.0282788544,
				"element": "H" 
			},
			{
				"x": -1.6710477231,
				"y": 1.6271466891,
				"z": 1.5775527043,
				"element": "H" 
			},
			{
				"x": -4.2415612584,
				"y": 3.098282467,
				"z": 2.3981664484,
				"element": "H" 
			},
			{
				"x": -3.2973943881,
				"y": 2.0386368338,
				"z": 3.4405503962,
				"element": "H" 
			}
		],
		 "valence_orbital": [ 
			{
				"type": "occ",
				"energy": -0.31508,
				"method": "rhf"
			},
			{
				"type": "occ",
				"energy": -0.31395,
				"method": "rhf"
			},
			{
				"type": "occ",
				"energy": -0.30407,
				"method": "rhf"
			},
			{
				"type": "occ",
				"energy": -0.30284,
				"method": "rhf"
			},
			{
				"type": "occ",
				"energy": -0.29925,
				"method": "rhf"
			},
			{
				"type": "unocc",
				"energy": 0.03282,
				"method": "rhf"
			},
			{
				"type": "unocc",
				"energy": 0.04138,
				"method": "rhf"
			},
			{
				"type": "unocc",
				"energy": 0.0671,
				"method": "rhf"
			},
			{
				"type": "unocc",
				"energy": 0.09071,
				"method": "rhf"
			},
			{
				"type": "unocc",
				"energy": 0.09384,
				"method": "rhf"
			}
		],
		"cosmo_sigma_profile": { 
			"-0.025": 0.0,
			"-0.024": 0.0,
			"-0.023": 0.0,
			"-0.022": 0.0,
			"-0.021": 0.0,
			"-0.02": 0.0,
			"-0.019": 0.0,
			"-0.018": 0.0,
			"-0.017": 0.0,
			"-0.016": 0.0,
			"-0.015": 0.0,
			"-0.014": 0.0,
			"-0.013": 0.0,
			"-0.012": 0.0,
			"-0.011": 0.0,
			"-0.01": 0.0,
			"-0.009": 0.0,
			"-0.008": 1.5486226843,
			"-0.007": 5.57292075137,
			"-0.006": 5.65169983529,
			"-0.005": 6.16882372983,
			"-0.004": 12.2701530514,
			"-0.003": 15.6062895146,
			"-0.002": 38.2370937102,
			"-0.001": 61.1632073043,
			"0.0": 61.0719735328,
			"0.001": 51.5032502799,
			"0.002": 19.2533354278,
			"0.003": 1.73353830878,
			"0.004": 2.46284886217,
			"0.005": 2.05451855194,
			"0.006": 2.3987849483,
			"0.007": 2.28947272659,
			"0.008": 2.7441739128,
			"0.009": 3.4407007645,
			"0.01": 3.4295676889,
			"0.011": 3.02146982755,
			"0.012": 2.86745449686,
			"0.013": 2.25807036697,
			"0.014": 0.999066225803,
			"0.015": 0.0,
			"0.016": 0.0,
			"0.017": 0.0,
			"0.018": 0.0,
			"0.019": 0.0,
			"0.02": 0.0,
			"0.021": 0.0,
			"0.022": 0.0,
			"0.023": 0.0,
			"0.024": 0.0,
			"0.025": 0.0
		}
	}
}
