{
	 "smiles": "NC1=C(F)C=CC(F)=C1", 
	 "Tm": 287.15, 
	 "num_atms": 14, 
	 "gaussian": { 
		 "optdone": 1, 
		 "sigma_profile": "yes", 
		 "theory": "DFT", 
		 "functional": "B3LYP", 
		 "basiset": "6-31G**", 
		 "properties": { 
			 "R2extent": 1516.8793, 
			 "electric_dipole_moment_norm": 1.82950564361, 
			 "electric_quadrupole_moment_norm": 7.15779807133, 
			 "total_energy": -486.071852114, 
			 "HOMO_LUMO_gap": 0.20566, 
			 "cosmo_polarized_energy": -7.01, 
			 "cosmo_cavitation_energy": 18.98, 
			 "cosmo_dispersion_energy": -14.08, 
			 "cosmo_repulsion_energy": 1.11, 
			 "cosmo_total_nonelectrostatic_energy": 6.02, 
			 "SMD_solvation_energy": 4.25 
		},
		"coords": [
			{
				"x": 0.5586212336,
				"y": 1.6200242186,
				"z": -0.5694412033,
				"element": "N" 
			},
			{
				"x": 0.6439878031,
				"y": 0.525801943,
				"z": 0.2807410429,
				"element": "C" 
			},
			{
				"x": 1.6664261577,
				"y": 0.46874045,
				"z": 1.2428539,
				"element": "C" 
			},
			{
				"x": 2.5772077506,
				"y": 1.4803244248,
				"z": 1.2382237528,
				"element": "F" 
			},
			{
				"x": 1.7791196646,
				"y": -0.5616527978,
				"z": 2.15755543,
				"element": "C" 
			},
			{
				"x": 0.8467039773,
				"y": -1.6043548706,
				"z": 2.1432494708,
				"element": "C" 
			},
			{
				"x": -0.1644375131,
				"y": -1.5560347922,
				"z": 1.1921938831,
				"element": "C" 
			},
			{
				"x": -1.075540996,
				"y": -2.5533651213,
				"z": 1.1546536816,
				"element": "F" 
			},
			{
				"x": -0.2864116028,
				"y": -0.5233804366,
				"z": 0.2688182218,
				"element": "C" 
			},
			{
				"x": 0.1016389522,
				"y": 1.4551743592,
				"z": -1.454504681,
				"element": "H" 
			},
			{
				"x": 1.4131946361,
				"y": 2.1522840775,
				"z": -0.6523754719,
				"element": "H" 
			},
			{
				"x": 2.5961219282,
				"y": -0.5443915815,
				"z": 2.8707142793,
				"element": "H" 
			},
			{
				"x": 0.9004017398,
				"y": -2.4299668548,
				"z": 2.8424101437,
				"element": "H" 
			},
			{
				"x": -1.1035337313,
				"y": -0.5371030184,
				"z": -0.4447924498,
				"element": "H" 
			}
		],
		 "valence_orbital": [ 
			{
				"type": "occ",
				"energy": -0.37028,
				"method": "rhf"
			},
			{
				"type": "occ",
				"energy": -0.35179,
				"method": "rhf"
			},
			{
				"type": "occ",
				"energy": -0.3133,
				"method": "rhf"
			},
			{
				"type": "occ",
				"energy": -0.24384,
				"method": "rhf"
			},
			{
				"type": "occ",
				"energy": -0.20986,
				"method": "rhf"
			},
			{
				"type": "unocc",
				"energy": -0.0042,
				"method": "rhf"
			},
			{
				"type": "unocc",
				"energy": 0.01679,
				"method": "rhf"
			},
			{
				"type": "unocc",
				"energy": 0.07555,
				"method": "rhf"
			},
			{
				"type": "unocc",
				"energy": 0.08817,
				"method": "rhf"
			},
			{
				"type": "unocc",
				"energy": 0.12986,
				"method": "rhf"
			}
		],
		"cosmo_sigma_profile": { 
			"-0.025": 0.0,
			"-0.024": 0.0,
			"-0.023": 0.0,
			"-0.022": 0.0,
			"-0.021": 0.0,
			"-0.02": 0.0,
			"-0.019": 0.0,
			"-0.018": 0.0,
			"-0.017": 0.0,
			"-0.016": 0.0,
			"-0.015": 0.0,
			"-0.014": 0.0694441756583,
			"-0.013": 1.05030341218,
			"-0.012": 2.56893728125,
			"-0.011": 2.32864387779,
			"-0.01": 2.58288916237,
			"-0.009": 2.64945101935,
			"-0.008": 3.52512212484,
			"-0.007": 5.68661268803,
			"-0.006": 6.17805920503,
			"-0.005": 6.81902825259,
			"-0.004": 5.86920786551,
			"-0.003": 5.32362723742,
			"-0.002": 5.50914253694,
			"-0.001": 5.67335175492,
			"0.0": 7.22481002733,
			"0.001": 10.7075931507,
			"0.002": 18.0269035582,
			"0.003": 18.0093574592,
			"0.004": 23.3222002648,
			"0.005": 13.1807725935,
			"0.006": 1.08188337921,
			"0.007": 0.297959589101,
			"0.008": 1.07485694167,
			"0.009": 0.831571677893,
			"0.01": 0.60144597149,
			"0.011": 0.497471730275,
			"0.012": 0.453444973991,
			"0.013": 0.842493418381,
			"0.014": 0.058909095365,
			"0.015": 0.0,
			"0.016": 0.0,
			"0.017": 0.0,
			"0.018": 0.0,
			"0.019": 0.0,
			"0.02": 0.0,
			"0.021": 0.0,
			"0.022": 0.0,
			"0.023": 0.0,
			"0.024": 0.0,
			"0.025": 0.0
		}
	}
}
