{
	 "smiles": "CN(C)C1=CC(N)=NC=C1", 
	 "Tm": 387.15, 
	 "num_atms": 21, 
	 "gaussian": { 
		 "optdone": 1, 
		 "sigma_profile": "yes", 
		 "theory": "DFT", 
		 "functional": "B3LYP", 
		 "basiset": "6-31G**", 
		 "properties": { 
			 "R2extent": 2263.7805, 
			 "electric_dipole_moment_norm": 3.71320174782, 
			 "electric_quadrupole_moment_norm": 9.9061425767, 
			 "total_energy": -437.629910119, 
			 "HOMO_LUMO_gap": 0.21054, 
			 "cosmo_polarized_energy": -11.89, 
			 "cosmo_cavitation_energy": 23.57, 
			 "cosmo_dispersion_energy": -17.74, 
			 "cosmo_repulsion_energy": 1.43, 
			 "cosmo_total_nonelectrostatic_energy": 7.27, 
			 "SMD_solvation_energy": 2.42 
		},
		"coords": [
			{
				"x": -0.9127220409,
				"y": 3.6216443599,
				"z": -2.2541493556,
				"element": "C" 
			},
			{
				"x": -0.4930951687,
				"y": 3.0958413282,
				"z": -0.9653359262,
				"element": "N" 
			},
			{
				"x": -0.2967502022,
				"y": 4.0185544458,
				"z": 0.1392176046,
				"element": "C" 
			},
			{
				"x": -0.000654448,
				"y": 1.8086710823,
				"z": -0.8768246311,
				"element": "C" 
			},
			{
				"x": 0.5603639573,
				"y": 1.312584077,
				"z": 0.3138769763,
				"element": "C" 
			},
			{
				"x": 1.0259214599,
				"y": -0.0108803048,
				"z": 0.3564057141,
				"element": "C" 
			},
			{
				"x": 1.5335301393,
				"y": -0.5430869069,
				"z": 1.5345257581,
				"element": "N" 
			},
			{
				"x": 0.9830604761,
				"y": -0.853477213,
				"z": -0.6888293558,
				"element": "N" 
			},
			{
				"x": 0.4499987706,
				"y": -0.3650196733,
				"z": -1.8160110925,
				"element": "C" 
			},
			{
				"x": -0.0434737331,
				"y": 0.919925026,
				"z": -1.9809349077,
				"element": "C" 
			},
			{
				"x": -1.3110287354,
				"y": 4.6280852004,
				"z": -2.1167995228,
				"element": "H" 
			},
			{
				"x": -1.7088800195,
				"y": 3.0081030824,
				"z": -2.6906627144,
				"element": "H" 
			},
			{
				"x": -0.0883635823,
				"y": 3.6752864335,
				"z": -2.9808792105,
				"element": "H" 
			},
			{
				"x": -0.7507157391,
				"y": 3.6338280007,
				"z": 1.060072023,
				"element": "H" 
			},
			{
				"x": 0.7666610386,
				"y": 4.216339921,
				"z": 0.3430784151,
				"element": "H" 
			},
			{
				"x": -0.7804624886,
				"y": 4.9679216598,
				"z": -0.0952560358,
				"element": "H" 
			},
			{
				"x": 0.6302411893,
				"y": 1.9251951841,
				"z": 1.2041811328,
				"element": "H" 
			},
			{
				"x": 1.9722917852,
				"y": 0.1056148608,
				"z": 2.1716375845,
				"element": "H" 
			},
			{
				"x": 2.0584064756,
				"y": -1.3940288935,
				"z": 1.3848338735,
				"element": "H" 
			},
			{
				"x": 0.422328162,
				"y": -1.0548306779,
				"z": -2.6591166278,
				"element": "H" 
			},
			{
				"x": -0.442857296,
				"y": 1.2186290077,
				"z": -2.9408297019,
				"element": "H" 
			}
		],
		 "valence_orbital": [ 
			{
				"type": "occ",
				"energy": -0.31513,
				"method": "rhf"
			},
			{
				"type": "occ",
				"energy": -0.28286,
				"method": "rhf"
			},
			{
				"type": "occ",
				"energy": -0.23957,
				"method": "rhf"
			},
			{
				"type": "occ",
				"energy": -0.20289,
				"method": "rhf"
			},
			{
				"type": "occ",
				"energy": -0.19715,
				"method": "rhf"
			},
			{
				"type": "unocc",
				"energy": 0.01339,
				"method": "rhf"
			},
			{
				"type": "unocc",
				"energy": 0.02911,
				"method": "rhf"
			},
			{
				"type": "unocc",
				"energy": 0.08565,
				"method": "rhf"
			},
			{
				"type": "unocc",
				"energy": 0.09701,
				"method": "rhf"
			},
			{
				"type": "unocc",
				"energy": 0.11005,
				"method": "rhf"
			}
		],
		"cosmo_sigma_profile": { 
			"-0.025": 0.0,
			"-0.024": 0.0,
			"-0.023": 0.0,
			"-0.022": 0.0,
			"-0.021": 0.0,
			"-0.02": 0.0,
			"-0.019": 0.0,
			"-0.018": 0.0,
			"-0.017": 0.0,
			"-0.016": 0.0,
			"-0.015": 0.0,
			"-0.014": 0.0,
			"-0.013": 0.272257071717,
			"-0.012": 1.34248039657,
			"-0.011": 2.45583470511,
			"-0.01": 2.54719141928,
			"-0.009": 1.99646017488,
			"-0.008": 2.4985685266,
			"-0.007": 3.69697842839,
			"-0.006": 5.99493513196,
			"-0.005": 12.6694958677,
			"-0.004": 17.6391586698,
			"-0.003": 19.6818292021,
			"-0.002": 21.0847226615,
			"-0.001": 14.8522772818,
			"0.0": 8.23848084954,
			"0.001": 6.04997671619,
			"0.002": 7.10715763343,
			"0.003": 6.92824844803,
			"0.004": 6.14609882853,
			"0.005": 12.1636301603,
			"0.006": 11.74778473,
			"0.007": 3.79085328423,
			"0.008": 2.17561789076,
			"0.009": 2.73633021862,
			"0.01": 1.9889990375,
			"0.011": 1.71682195334,
			"0.012": 2.25952457546,
			"0.013": 1.89992437376,
			"0.014": 1.44259200151,
			"0.015": 0.687473955105,
			"0.016": 0.953972540656,
			"0.017": 0.859503864869,
			"0.018": 0.0702417248602,
			"0.019": 0.0,
			"0.02": 0.0,
			"0.021": 0.0,
			"0.022": 0.0,
			"0.023": 0.0,
			"0.024": 0.0,
			"0.025": 0.0
		}
	}
}
