{
	 "smiles": "[O-][N+](=O)C1=CC(=C(C=C1C1CO1)C1CO1)[N+]([O-])=O", 
	 "Tm": 427.15, 
	 "num_atms": 26, 
	 "gaussian": { 
		 "optdone": 1, 
		 "sigma_profile": "yes", 
		 "theory": "DFT", 
		 "functional": "B3LYP", 
		 "basiset": "6-31G**", 
		 "properties": { 
			 "R2extent": 4859.2873, 
			 "electric_dipole_moment_norm": 5.03110471964, 
			 "electric_quadrupole_moment_norm": 11.7981087107, 
			 "total_energy": -946.419655408, 
			 "HOMO_LUMO_gap": 0.17, 
			 "cosmo_polarized_energy": -16.54, 
			 "cosmo_cavitation_energy": 32.18, 
			 "cosmo_dispersion_energy": -22.75, 
			 "cosmo_repulsion_energy": 1.76, 
			 "cosmo_total_nonelectrostatic_energy": 11.18, 
			 "SMD_solvation_energy": 9.59 
		},
		"coords": [
			{
				"x": -1.1628467969,
				"y": 3.8659929922,
				"z": 1.6074063142,
				"element": "O" 
			},
			{
				"x": -1.6698098831,
				"y": 2.7613717942,
				"z": 1.8106121309,
				"element": "N" 
			},
			{
				"x": -2.6306149903,
				"y": 2.5585632297,
				"z": 2.5470975247,
				"element": "O" 
			},
			{
				"x": -1.0686717577,
				"y": 1.5997901383,
				"z": 1.1311470647,
				"element": "C" 
			},
			{
				"x": -1.4979806558,
				"y": 0.3446507875,
				"z": 1.5501771251,
				"element": "C" 
			},
			{
				"x": -0.9309550274,
				"y": -0.7881217642,
				"z": 0.9857016954,
				"element": "C" 
			},
			{
				"x": 0.0360685474,
				"y": -0.7036174839,
				"z": -0.0302942134,
				"element": "C" 
			},
			{
				"x": 0.4227475547,
				"y": 0.5764538494,
				"z": -0.4337092043,
				"element": "C" 
			},
			{
				"x": -0.093869189,
				"y": 1.751608359,
				"z": 0.1291763604,
				"element": "C" 
			},
			{
				"x": 0.3890864587,
				"y": 3.064001021,
				"z": -0.4078273388,
				"element": "C" 
			},
			{
				"x": 1.7536514857,
				"y": 3.5454559598,
				"z": -0.122741641,
				"element": "C" 
			},
			{
				"x": 1.4204093942,
				"y": 2.9812288309,
				"z": -1.3966046001,
				"element": "O" 
			},
			{
				"x": 0.6376285931,
				"y": -1.9025436962,
				"z": -0.7088637804,
				"element": "C" 
			},
			{
				"x": 0.7149070073,
				"y": -1.9692209904,
				"z": -2.1770584518,
				"element": "C" 
			},
			{
				"x": -0.2608460842,
				"y": -2.7275229765,
				"z": -1.4509279232,
				"element": "O" 
			},
			{
				"x": -1.3788778472,
				"y": -2.0872958671,
				"z": 1.5236645024,
				"element": "N" 
			},
			{
				"x": -0.5985743521,
				"y": -3.0321025303,
				"z": 1.442852564,
				"element": "O" 
			},
			{
				"x": -2.4897936921,
				"y": -2.1258474406,
				"z": 2.0460074223,
				"element": "O" 
			},
			{
				"x": -2.2596490266,
				"y": 0.2559218744,
				"z": 2.3127552961,
				"element": "H" 
			},
			{
				"x": 1.1523967889,
				"y": 0.6883419363,
				"z": -1.2271025879,
				"element": "H" 
			},
			{
				"x": -0.3750360434,
				"y": 3.8092789183,
				"z": -0.6088798604,
				"element": "H" 
			},
			{
				"x": 1.9467860142,
				"y": 4.6169481623,
				"z": -0.1151530501,
				"element": "H" 
			},
			{
				"x": 2.4130194992,
				"y": 2.9398755143,
				"z": 0.4978920764,
				"element": "H" 
			},
			{
				"x": 1.3690650441,
				"y": -2.4508952306,
				"z": -0.1170141923,
				"element": "H" 
			},
			{
				"x": 0.3179405399,
				"y": -1.1539484868,
				"z": -2.7810787376,
				"element": "H" 
			},
			{
				"x": 1.5086184181,
				"y": -2.552066901,
				"z": -2.6430344951,
				"element": "H" 
			}
		],
		 "valence_orbital": [ 
			{
				"type": "occ",
				"energy": -0.30947,
				"method": "rhf"
			},
			{
				"type": "occ",
				"energy": -0.30666,
				"method": "rhf"
			},
			{
				"type": "occ",
				"energy": -0.30173,
				"method": "rhf"
			},
			{
				"type": "occ",
				"energy": -0.29242,
				"method": "rhf"
			},
			{
				"type": "occ",
				"energy": -0.28593,
				"method": "rhf"
			},
			{
				"type": "unocc",
				"energy": -0.11593,
				"method": "rhf"
			},
			{
				"type": "unocc",
				"energy": -0.10159,
				"method": "rhf"
			},
			{
				"type": "unocc",
				"energy": -0.04071,
				"method": "rhf"
			},
			{
				"type": "unocc",
				"energy": -0.02247,
				"method": "rhf"
			},
			{
				"type": "unocc",
				"energy": 0.07026,
				"method": "rhf"
			}
		],
		"cosmo_sigma_profile": { 
			"-0.025": 0.0,
			"-0.024": 0.0,
			"-0.023": 0.0,
			"-0.022": 0.0,
			"-0.021": 0.0,
			"-0.02": 0.0,
			"-0.019": 0.0,
			"-0.018": 0.0,
			"-0.017": 0.0,
			"-0.016": 0.0,
			"-0.015": 0.0,
			"-0.014": 0.0,
			"-0.013": 0.0,
			"-0.012": 0.0,
			"-0.011": 0.0,
			"-0.01": 0.354431878174,
			"-0.009": 1.20944366361,
			"-0.008": 5.96796649605,
			"-0.007": 19.3284913465,
			"-0.006": 20.0285464893,
			"-0.005": 19.7665585617,
			"-0.004": 23.5193879296,
			"-0.003": 25.9017504673,
			"-0.002": 17.2703986816,
			"-0.001": 10.3919852713,
			"0.0": 8.43659665127,
			"0.001": 8.17932332344,
			"0.002": 7.62309267985,
			"0.003": 8.32940257281,
			"0.004": 8.39867703646,
			"0.005": 8.85236601095,
			"0.006": 14.2074770138,
			"0.007": 16.4354187492,
			"0.008": 13.5775883043,
			"0.009": 10.0513839567,
			"0.01": 5.35370307339,
			"0.011": 3.89491234298,
			"0.012": 0.823926682604,
			"0.013": 0.0,
			"0.014": 0.0,
			"0.015": 0.0,
			"0.016": 0.0,
			"0.017": 0.0,
			"0.018": 0.0,
			"0.019": 0.0,
			"0.02": 0.0,
			"0.021": 0.0,
			"0.022": 0.0,
			"0.023": 0.0,
			"0.024": 0.0,
			"0.025": 0.0
		}
	}
}
