{
	 "smiles": "CC1=CC=C2N=C(C=C(Cl)C2=C1)C(F)(F)F", 
	 "Tm": 336.65, 
	 "num_atms": 23, 
	 "gaussian": { 
		 "optdone": 1, 
		 "sigma_profile": "yes", 
		 "theory": "DFT", 
		 "functional": "B3LYP", 
		 "basiset": "6-31G**", 
		 "properties": { 
			 "R2extent": 4912.5173, 
			 "electric_dipole_moment_norm": 3.98367360234, 
			 "electric_quadrupole_moment_norm": 5.18246544031, 
			 "total_energy": -1237.87390778, 
			 "HOMO_LUMO_gap": 0.17014, 
			 "cosmo_polarized_energy": -5.98, 
			 "cosmo_cavitation_energy": 30.59, 
			 "cosmo_dispersion_energy": -22.06, 
			 "cosmo_repulsion_energy": 1.65, 
			 "cosmo_total_nonelectrostatic_energy": 10.17, 
			 "SMD_solvation_energy": 4.67 
		},
		"coords": [
			{
				"x": -3.1613655551,
				"y": -2.7404657982,
				"z": -1.3030153739,
				"element": "C" 
			},
			{
				"x": -2.0282319969,
				"y": -1.8900281626,
				"z": -0.7855910254,
				"element": "C" 
			},
			{
				"x": -1.9884274714,
				"y": -1.532423092,
				"z": 0.5933598494,
				"element": "C" 
			},
			{
				"x": -0.9748797633,
				"y": -0.7604860402,
				"z": 1.1031380917,
				"element": "C" 
			},
			{
				"x": 0.0714768879,
				"y": -0.2927514934,
				"z": 0.2625074223,
				"element": "C" 
			},
			{
				"x": 1.0505983176,
				"y": 0.4681177246,
				"z": 0.8174853988,
				"element": "N" 
			},
			{
				"x": 2.0144091304,
				"y": 0.8959188843,
				"z": 0.0312844233,
				"element": "C" 
			},
			{
				"x": 2.1055401045,
				"y": 0.6211627495,
				"z": -1.3515757444,
				"element": "C" 
			},
			{
				"x": 1.1151650031,
				"y": -0.149166912,
				"z": -1.9164729329,
				"element": "C" 
			},
			{
				"x": 1.1972876125,
				"y": -0.5091675066,
				"z": -3.6289883371,
				"element": "Cl" 
			},
			{
				"x": 0.0425507142,
				"y": -0.6463836479,
				"z": -1.1286849313,
				"element": "C" 
			},
			{
				"x": -1.0218677439,
				"y": -1.4462396043,
				"z": -1.6190229543,
				"element": "C" 
			},
			{
				"x": 3.0768401387,
				"y": 1.7417755625,
				"z": 0.7121988706,
				"element": "C" 
			},
			{
				"x": 4.0311255511,
				"y": 2.1318499049,
				"z": -0.1648548755,
				"element": "F" 
			},
			{
				"x": 2.5446259098,
				"y": 2.8528589475,
				"z": 1.2530385836,
				"element": "F" 
			},
			{
				"x": 3.6867182881,
				"y": 1.0601948094,
				"z": 1.6987734788,
				"element": "F" 
			},
			{
				"x": -3.0619780156,
				"y": -2.9343756433,
				"z": -2.3737912982,
				"element": "H" 
			},
			{
				"x": -3.1970062267,
				"y": -3.7063652019,
				"z": -0.7858440683,
				"element": "H" 
			},
			{
				"x": -4.1285646946,
				"y": -2.2524189898,
				"z": -1.1355924637,
				"element": "H" 
			},
			{
				"x": -2.7814660875,
				"y": -1.882362435,
				"z": 1.2493507996,
				"element": "H" 
			},
			{
				"x": -0.9351966276,
				"y": -0.4826823193,
				"z": 2.1509807961,
				"element": "H" 
			},
			{
				"x": 2.9271913895,
				"y": 1.0053657928,
				"z": -1.9407003055,
				"element": "H" 
			},
			{
				"x": -1.0354448647,
				"y": -1.7084275292,
				"z": -2.6713834039,
				"element": "H" 
			}
		],
		 "valence_orbital": [ 
			{
				"type": "occ",
				"energy": -0.33066,
				"method": "rhf"
			},
			{
				"type": "occ",
				"energy": -0.30089,
				"method": "rhf"
			},
			{
				"type": "occ",
				"energy": -0.27968,
				"method": "rhf"
			},
			{
				"type": "occ",
				"energy": -0.26759,
				"method": "rhf"
			},
			{
				"type": "occ",
				"energy": -0.24513,
				"method": "rhf"
			},
			{
				"type": "unocc",
				"energy": -0.07499,
				"method": "rhf"
			},
			{
				"type": "unocc",
				"energy": -0.04035,
				"method": "rhf"
			},
			{
				"type": "unocc",
				"energy": 0.00535,
				"method": "rhf"
			},
			{
				"type": "unocc",
				"energy": 0.01599,
				"method": "rhf"
			},
			{
				"type": "unocc",
				"energy": 0.05696,
				"method": "rhf"
			}
		],
		"cosmo_sigma_profile": { 
			"-0.025": 0.0,
			"-0.024": 0.0,
			"-0.023": 0.0,
			"-0.022": 0.0,
			"-0.021": 0.0,
			"-0.02": 0.0,
			"-0.019": 0.0,
			"-0.018": 0.0,
			"-0.017": 0.0,
			"-0.016": 0.0,
			"-0.015": 0.0,
			"-0.014": 0.0,
			"-0.013": 0.0,
			"-0.012": 0.0,
			"-0.011": 0.0,
			"-0.01": 0.0,
			"-0.009": 0.110089909667,
			"-0.008": 1.23389504082,
			"-0.007": 2.69580571667,
			"-0.006": 7.47086221526,
			"-0.005": 11.9306828343,
			"-0.004": 16.700685337,
			"-0.003": 17.1664133704,
			"-0.002": 20.209882429,
			"-0.001": 29.0102598634,
			"0.0": 26.0896393503,
			"0.001": 24.1983723898,
			"0.002": 38.043849961,
			"0.003": 35.1973579459,
			"0.004": 6.4540144744,
			"0.005": 3.26610452342,
			"0.006": 2.13963320886,
			"0.007": 1.54080469689,
			"0.008": 1.16363958421,
			"0.009": 1.07019729431,
			"0.01": 0.789440363554,
			"0.011": 0.792049520962,
			"0.012": 0.843568943345,
			"0.013": 0.159968085599,
			"0.014": 0.0,
			"0.015": 0.0,
			"0.016": 0.0,
			"0.017": 0.0,
			"0.018": 0.0,
			"0.019": 0.0,
			"0.02": 0.0,
			"0.021": 0.0,
			"0.022": 0.0,
			"0.023": 0.0,
			"0.024": 0.0,
			"0.025": 0.0
		}
	}
}
