{
	 "smiles": "ClCCN(N=O)C(=O)NC1CCCCC1", 
	 "Tm": 363.15, 
	 "num_atms": 31, 
	 "gaussian": { 
		 "optdone": 1, 
		 "sigma_profile": "yes", 
		 "theory": "DFT", 
		 "functional": "B3LYP", 
		 "basiset": "6-31G**", 
		 "properties": { 
			 "R2extent": 6044.0304, 
			 "electric_dipole_moment_norm": 5.10646254368, 
			 "electric_quadrupole_moment_norm": 15.2734877464, 
			 "total_energy": -1127.4423294, 
			 "HOMO_LUMO_gap": 0.17693, 
			 "cosmo_polarized_energy": -18.1, 
			 "cosmo_cavitation_energy": 34.85, 
			 "cosmo_dispersion_energy": -24.42, 
			 "cosmo_repulsion_energy": 1.96, 
			 "cosmo_total_nonelectrostatic_energy": 12.39, 
			 "SMD_solvation_energy": 5.43 
		},
		"coords": [
			{
				"x": 1.1305306036,
				"y": -4.7058956687,
				"z": 2.4849249619,
				"element": "Cl" 
			},
			{
				"x": 0.0105220997,
				"y": -3.3179870954,
				"z": 2.7931172225,
				"element": "C" 
			},
			{
				"x": -1.0115718358,
				"y": -3.2031129474,
				"z": 1.6599699885,
				"element": "C" 
			},
			{
				"x": -1.8899263895,
				"y": -2.0450743373,
				"z": 1.8414650074,
				"element": "N" 
			},
			{
				"x": -3.0112952581,
				"y": -2.1590945915,
				"z": 2.6255679692,
				"element": "N" 
			},
			{
				"x": -3.1272854854,
				"y": -3.2479167163,
				"z": 3.1559378262,
				"element": "O" 
			},
			{
				"x": -1.7311437856,
				"y": -0.7581679203,
				"z": 1.2098435885,
				"element": "C" 
			},
			{
				"x": -2.6269834012,
				"y": 0.0613203287,
				"z": 1.194963852,
				"element": "O" 
			},
			{
				"x": -0.5051429437,
				"y": -0.5654494805,
				"z": 0.6426036611,
				"element": "N" 
			},
			{
				"x": -0.1807548039,
				"y": 0.7101308275,
				"z": -0.0154085311,
				"element": "C" 
			},
			{
				"x": 1.3539297341,
				"y": 0.8912191221,
				"z": -0.0127515201,
				"element": "C" 
			},
			{
				"x": 1.8009267136,
				"y": 1.8084900465,
				"z": -1.1584234342,
				"element": "C" 
			},
			{
				"x": 1.4943253748,
				"y": 1.1722039557,
				"z": -2.5359146489,
				"element": "C" 
			},
			{
				"x": 0.231106006,
				"y": 0.2777655497,
				"z": -2.4943664915,
				"element": "C" 
			},
			{
				"x": -0.7669145759,
				"y": 0.7878179277,
				"z": -1.4491767316,
				"element": "C" 
			},
			{
				"x": -0.4918376439,
				"y": -3.5068123853,
				"z": 3.7412068282,
				"element": "H" 
			},
			{
				"x": 0.6283042268,
				"y": -2.4224500423,
				"z": 2.8834425489,
				"element": "H" 
			},
			{
				"x": -1.6499704873,
				"y": -4.0893889633,
				"z": 1.6602834207,
				"element": "H" 
			},
			{
				"x": -0.5254441135,
				"y": -3.129493772,
				"z": 0.6858856923,
				"element": "H" 
			},
			{
				"x": 0.2484085667,
				"y": -1.2123207576,
				"z": 0.811881534,
				"element": "H" 
			},
			{
				"x": -0.6464680023,
				"y": 1.4969187356,
				"z": 0.5859226379,
				"element": "H" 
			},
			{
				"x": 1.6846327155,
				"y": 1.2744844531,
				"z": 0.9584136901,
				"element": "H" 
			},
			{
				"x": 1.8402737044,
				"y": -0.0872457635,
				"z": -0.1445765572,
				"element": "H" 
			},
			{
				"x": 2.8695271615,
				"y": 2.0299835143,
				"z": -1.069544338,
				"element": "H" 
			},
			{
				"x": 1.2825687588,
				"y": 2.7708310982,
				"z": -1.0630639513,
				"element": "H" 
			},
			{
				"x": 1.3651518059,
				"y": 1.9675424099,
				"z": -3.2788074657,
				"element": "H" 
			},
			{
				"x": 2.352586653,
				"y": 0.5772306366,
				"z": -2.8696645179,
				"element": "H" 
			},
			{
				"x": 0.5095655037,
				"y": -0.7549745128,
				"z": -2.2455815452,
				"element": "H" 
			},
			{
				"x": -0.2359281007,
				"y": 0.232376713,
				"z": -3.4837286649,
				"element": "H" 
			},
			{
				"x": -1.0199309265,
				"y": 1.8330640732,
				"z": -1.6657476071,
				"element": "H" 
			},
			{
				"x": -1.7091618747,
				"y": 0.2342055623,
				"z": -1.4789744247,
				"element": "H" 
			}
		],
		 "valence_orbital": [ 
			{
				"type": "occ",
				"energy": -0.31324,
				"method": "rhf"
			},
			{
				"type": "occ",
				"energy": -0.29267,
				"method": "rhf"
			},
			{
				"type": "occ",
				"energy": -0.28349,
				"method": "rhf"
			},
			{
				"type": "occ",
				"energy": -0.27048,
				"method": "rhf"
			},
			{
				"type": "occ",
				"energy": -0.24539,
				"method": "rhf"
			},
			{
				"type": "unocc",
				"energy": -0.06846,
				"method": "rhf"
			},
			{
				"type": "unocc",
				"energy": 0.00647,
				"method": "rhf"
			},
			{
				"type": "unocc",
				"energy": 0.03965,
				"method": "rhf"
			},
			{
				"type": "unocc",
				"energy": 0.04526,
				"method": "rhf"
			},
			{
				"type": "unocc",
				"energy": 0.07117,
				"method": "rhf"
			}
		],
		"cosmo_sigma_profile": { 
			"-0.025": 0.0,
			"-0.024": 0.0,
			"-0.023": 0.0,
			"-0.022": 0.0,
			"-0.021": 0.0,
			"-0.02": 0.0,
			"-0.019": 0.0,
			"-0.018": 0.0,
			"-0.017": 0.0,
			"-0.016": 0.0,
			"-0.015": 0.782849562418,
			"-0.014": 1.27485924096,
			"-0.013": 1.14369649018,
			"-0.012": 1.45121990248,
			"-0.011": 2.06886700321,
			"-0.01": 2.23757195811,
			"-0.009": 2.32642891149,
			"-0.008": 4.3888153535,
			"-0.007": 6.64846591426,
			"-0.006": 10.1751917775,
			"-0.005": 11.004083833,
			"-0.004": 11.2999460157,
			"-0.003": 24.5462149541,
			"-0.002": 31.8415211043,
			"-0.001": 34.0334772131,
			"0.0": 27.6229759801,
			"0.001": 21.6439681352,
			"0.002": 8.61208350928,
			"0.003": 8.29252337136,
			"0.004": 7.94787493942,
			"0.005": 10.7137765637,
			"0.006": 12.5462774043,
			"0.007": 5.97456957579,
			"0.008": 5.26786135318,
			"0.009": 3.82046196547,
			"0.01": 3.30581738934,
			"0.011": 2.55946559014,
			"0.012": 4.13148037788,
			"0.013": 4.31789003999,
			"0.014": 1.55195695095,
			"0.015": 0.735465739508,
			"0.016": 0.0,
			"0.017": 0.0,
			"0.018": 0.0,
			"0.019": 0.0,
			"0.02": 0.0,
			"0.021": 0.0,
			"0.022": 0.0,
			"0.023": 0.0,
			"0.024": 0.0,
			"0.025": 0.0
		}
	}
}
