{
	 "smiles": "OC(=O)C1CC1C1=CC(Cl)=CC=C1", 
	 "Tm": 363.15, 
	 "num_atms": 22, 
	 "gaussian": { 
		 "optdone": 1, 
		 "sigma_profile": "yes", 
		 "theory": "DFT", 
		 "functional": "B3LYP", 
		 "basiset": "6-31G**", 
		 "properties": { 
			 "R2extent": 3445.8679, 
			 "electric_dipole_moment_norm": 2.07680085468, 
			 "electric_quadrupole_moment_norm": 9.87399043599, 
			 "total_energy": -997.119306902, 
			 "HOMO_LUMO_gap": 0.21906, 
			 "cosmo_polarized_energy": -10.48, 
			 "cosmo_cavitation_energy": 27.83, 
			 "cosmo_dispersion_energy": -20.31, 
			 "cosmo_repulsion_energy": 1.63, 
			 "cosmo_total_nonelectrostatic_energy": 9.15, 
			 "SMD_solvation_energy": 5.09 
		},
		"coords": [
			{
				"x": 1.1045978365,
				"y": 3.0332424975,
				"z": -1.6452822944,
				"element": "O" 
			},
			{
				"x": 0.2596118176,
				"y": 2.4266027642,
				"z": -0.7769030987,
				"element": "C" 
			},
			{
				"x": -0.8455152409,
				"y": 2.0425796514,
				"z": -1.1057966158,
				"element": "O" 
			},
			{
				"x": 0.8628474027,
				"y": 2.310805251,
				"z": 0.5747070684,
				"element": "C" 
			},
			{
				"x": -0.0404014517,
				"y": 1.976816484,
				"z": 1.7354799836,
				"element": "C" 
			},
			{
				"x": 0.93322777,
				"y": 0.9330757932,
				"z": 1.2853206511,
				"element": "C" 
			},
			{
				"x": 0.5805341224,
				"y": -0.3739241965,
				"z": 0.6512035373,
				"element": "C" 
			},
			{
				"x": 1.6023294287,
				"y": -1.3292542602,
				"z": 0.5300741079,
				"element": "C" 
			},
			{
				"x": 1.3338590005,
				"y": -2.5737697704,
				"z": -0.0324105709,
				"element": "C" 
			},
			{
				"x": 2.6355179959,
				"y": -3.7525310767,
				"z": -0.166571873,
				"element": "Cl" 
			},
			{
				"x": 0.0591598347,
				"y": -2.9062911049,
				"z": -0.4861593265,
				"element": "C" 
			},
			{
				"x": -0.954755532,
				"y": -1.9557132125,
				"z": -0.364259357,
				"element": "C" 
			},
			{
				"x": -0.7052079704,
				"y": -0.7046378719,
				"z": 0.1989023578,
				"element": "C" 
			},
			{
				"x": 0.6365144495,
				"y": 3.0641936801,
				"z": -2.4965882116,
				"element": "H" 
			},
			{
				"x": 1.7179685332,
				"y": 2.957478198,
				"z": 0.7385896676,
				"element": "H" 
			},
			{
				"x": -1.0869568657,
				"y": 1.8411880415,
				"z": 1.4832168612,
				"element": "H" 
			},
			{
				"x": 0.1421617702,
				"y": 2.4756423532,
				"z": 2.6819670498,
				"element": "H" 
			},
			{
				"x": 1.8317064226,
				"y": 0.8627625094,
				"z": 1.8937309382,
				"element": "H" 
			},
			{
				"x": 2.6058255267,
				"y": -1.1036426087,
				"z": 0.8763437601,
				"element": "H" 
			},
			{
				"x": -0.1314726157,
				"y": -3.8816643518,
				"z": -0.919392,
				"element": "H" 
			},
			{
				"x": -1.9549039438,
				"y": -2.1965434423,
				"z": -0.7121912619,
				"element": "H" 
			},
			{
				"x": -1.507348291,
				"y": 0.0189846724,
				"z": 0.2652186269,
				"element": "H" 
			}
		],
		 "valence_orbital": [ 
			{
				"type": "occ",
				"energy": -0.31102,
				"method": "rhf"
			},
			{
				"type": "occ",
				"energy": -0.30686,
				"method": "rhf"
			},
			{
				"type": "occ",
				"energy": -0.28017,
				"method": "rhf"
			},
			{
				"type": "occ",
				"energy": -0.25067,
				"method": "rhf"
			},
			{
				"type": "occ",
				"energy": -0.23901,
				"method": "rhf"
			},
			{
				"type": "unocc",
				"energy": -0.01995,
				"method": "rhf"
			},
			{
				"type": "unocc",
				"energy": -0.00888,
				"method": "rhf"
			},
			{
				"type": "unocc",
				"energy": 0.00619,
				"method": "rhf"
			},
			{
				"type": "unocc",
				"energy": 0.03163,
				"method": "rhf"
			},
			{
				"type": "unocc",
				"energy": 0.07606,
				"method": "rhf"
			}
		],
		"cosmo_sigma_profile": { 
			"-0.025": 0.0,
			"-0.024": 0.0,
			"-0.023": 0.0,
			"-0.022": 0.0,
			"-0.021": 0.0,
			"-0.02": 0.0,
			"-0.019": 0.0238949025255,
			"-0.018": 0.624473816227,
			"-0.017": 1.09440125981,
			"-0.016": 0.828347011249,
			"-0.015": 0.416260462694,
			"-0.014": 0.72802004953,
			"-0.013": 0.314829485179,
			"-0.012": 0.828835515294,
			"-0.011": 1.13836913542,
			"-0.01": 0.86151566571,
			"-0.009": 0.526443111461,
			"-0.008": 0.893750119922,
			"-0.007": 8.47174781834,
			"-0.006": 15.2414115928,
			"-0.005": 14.1775803089,
			"-0.004": 13.1585167059,
			"-0.003": 9.96117032646,
			"-0.002": 13.9279203569,
			"-0.001": 13.5841132062,
			"0.0": 15.8409252632,
			"0.001": 16.6324581687,
			"0.002": 21.597299702,
			"0.003": 18.6597050176,
			"0.004": 21.4499144108,
			"0.005": 11.8993295991,
			"0.006": 3.24620569001,
			"0.007": 3.23710855673,
			"0.008": 3.12512502309,
			"0.009": 3.49896675145,
			"0.01": 2.14434859769,
			"0.011": 2.78142310362,
			"0.012": 2.60847797145,
			"0.013": 0.533726231111,
			"0.014": 0.0,
			"0.015": 0.0,
			"0.016": 0.0,
			"0.017": 0.0,
			"0.018": 0.0,
			"0.019": 0.0,
			"0.02": 0.0,
			"0.021": 0.0,
			"0.022": 0.0,
			"0.023": 0.0,
			"0.024": 0.0,
			"0.025": 0.0
		}
	}
}
