{
	 "smiles": "CCOC1=CC=CC=C1F", 
	 "Tm": 256.45, 
	 "num_atms": 19, 
	 "gaussian": { 
		 "optdone": 1, 
		 "sigma_profile": "yes", 
		 "theory": "DFT", 
		 "functional": "B3LYP", 
		 "basiset": "6-31G**", 
		 "properties": { 
			 "R2extent": 2270.7865, 
			 "electric_dipole_moment_norm": 0.233707188593, 
			 "electric_quadrupole_moment_norm": 5.70581141644, 
			 "total_energy": -485.322583808, 
			 "HOMO_LUMO_gap": 0.21635, 
			 "cosmo_polarized_energy": -4.14, 
			 "cosmo_cavitation_energy": 22.79, 
			 "cosmo_dispersion_energy": -16.98, 
			 "cosmo_repulsion_energy": 1.38, 
			 "cosmo_total_nonelectrostatic_energy": 7.19, 
			 "SMD_solvation_energy": 4.76 
		},
		"coords": [
			{
				"x": 4.0623673045,
				"y": 1.781465537,
				"z": -2.4458062235,
				"element": "C" 
			},
			{
				"x": 2.6664803346,
				"y": 1.4298673545,
				"z": -1.9633392662,
				"element": "C" 
			},
			{
				"x": 2.8300679272,
				"y": 0.561545042,
				"z": -0.8300924312,
				"element": "O" 
			},
			{
				"x": 1.7665811771,
				"y": 0.0551133241,
				"z": -0.1493558413,
				"element": "C" 
			},
			{
				"x": 2.08357759,
				"y": -0.7783232767,
				"z": 0.9354327722,
				"element": "C" 
			},
			{
				"x": 1.0923162252,
				"y": -1.3629166415,
				"z": 1.7172871401,
				"element": "C" 
			},
			{
				"x": -0.2560449777,
				"y": -1.1296446069,
				"z": 1.4353487062,
				"element": "C" 
			},
			{
				"x": -0.5923556022,
				"y": -0.3057150877,
				"z": 0.3633690775,
				"element": "C" 
			},
			{
				"x": 0.4053247697,
				"y": 0.2740117005,
				"z": -0.4121145738,
				"element": "C" 
			},
			{
				"x": 0.0175243896,
				"y": 1.069052084,
				"z": -1.4451507809,
				"element": "F" 
			},
			{
				"x": 4.627231098,
				"y": 2.2895190902,
				"z": -1.6590204808,
				"element": "H" 
			},
			{
				"x": 4.6099729281,
				"y": 0.880268007,
				"z": -2.7359659463,
				"element": "H" 
			},
			{
				"x": 4.0016279384,
				"y": 2.4454926455,
				"z": -3.3137514432,
				"element": "H" 
			},
			{
				"x": 2.0938481316,
				"y": 0.9205410099,
				"z": -2.7458452986,
				"element": "H" 
			},
			{
				"x": 2.1111598841,
				"y": 2.3273113619,
				"z": -1.6704267655,
				"element": "H" 
			},
			{
				"x": 3.1362690404,
				"y": -0.9470566486,
				"z": 1.1380547333,
				"element": "H" 
			},
			{
				"x": 1.375558152,
				"y": -2.0017883813,
				"z": 2.5482072201,
				"element": "H" 
			},
			{
				"x": -1.0366391326,
				"y": -1.5808466521,
				"z": 2.0390018535,
				"element": "H" 
			},
			{
				"x": -1.6245671781,
				"y": -0.0937958619,
				"z": 0.1039675484,
				"element": "H" 
			}
		],
		 "valence_orbital": [ 
			{
				"type": "occ",
				"energy": -0.35799,
				"method": "rhf"
			},
			{
				"type": "occ",
				"energy": -0.32054,
				"method": "rhf"
			},
			{
				"type": "occ",
				"energy": -0.31555,
				"method": "rhf"
			},
			{
				"type": "occ",
				"energy": -0.24587,
				"method": "rhf"
			},
			{
				"type": "occ",
				"energy": -0.2167,
				"method": "rhf"
			},
			{
				"type": "unocc",
				"energy": -0.00035,
				"method": "rhf"
			},
			{
				"type": "unocc",
				"energy": 0.01179,
				"method": "rhf"
			},
			{
				"type": "unocc",
				"energy": 0.07719,
				"method": "rhf"
			},
			{
				"type": "unocc",
				"energy": 0.10679,
				"method": "rhf"
			},
			{
				"type": "unocc",
				"energy": 0.12565,
				"method": "rhf"
			}
		],
		"cosmo_sigma_profile": { 
			"-0.025": 0.0,
			"-0.024": 0.0,
			"-0.023": 0.0,
			"-0.022": 0.0,
			"-0.021": 0.0,
			"-0.02": 0.0,
			"-0.019": 0.0,
			"-0.018": 0.0,
			"-0.017": 0.0,
			"-0.016": 0.0,
			"-0.015": 0.0,
			"-0.014": 0.0,
			"-0.013": 0.0,
			"-0.012": 0.0,
			"-0.011": 0.0,
			"-0.01": 0.0,
			"-0.009": 0.0,
			"-0.008": 0.0431481007928,
			"-0.007": 1.32149198769,
			"-0.006": 6.30181748613,
			"-0.005": 8.75865309101,
			"-0.004": 18.2068611822,
			"-0.003": 20.8524667473,
			"-0.002": 16.3190186627,
			"-0.001": 13.7845732031,
			"0.0": 16.7479464592,
			"0.001": 14.6536809596,
			"0.002": 12.4403288772,
			"0.003": 14.1348889081,
			"0.004": 16.3856698597,
			"0.005": 12.6957554614,
			"0.006": 3.19373996526,
			"0.007": 1.49993281486,
			"0.008": 1.71674363878,
			"0.009": 1.29097822454,
			"0.01": 0.717860427423,
			"0.011": 0.0,
			"0.012": 0.0,
			"0.013": 0.0,
			"0.014": 0.0,
			"0.015": 0.0,
			"0.016": 0.0,
			"0.017": 0.0,
			"0.018": 0.0,
			"0.019": 0.0,
			"0.02": 0.0,
			"0.021": 0.0,
			"0.022": 0.0,
			"0.023": 0.0,
			"0.024": 0.0,
			"0.025": 0.0
		}
	}
}
