{
	 "smiles": "CN(C)C1=NC(C)=C(S1)C=O", 
	 "Tm": 390.15, 
	 "num_atms": 21, 
	 "gaussian": { 
		 "optdone": 1, 
		 "sigma_profile": "yes", 
		 "theory": "DFT", 
		 "functional": "B3LYP", 
		 "basiset": "6-31G**", 
		 "properties": { 
			 "R2extent": 2334.1906, 
			 "electric_dipole_moment_norm": 5.83740248227, 
			 "electric_quadrupole_moment_norm": 4.73855962503, 
			 "total_energy": -855.67668997, 
			 "HOMO_LUMO_gap": 0.15971, 
			 "cosmo_polarized_energy": -11.03, 
			 "cosmo_cavitation_energy": 26.03, 
			 "cosmo_dispersion_energy": -19.48, 
			 "cosmo_repulsion_energy": 1.52, 
			 "cosmo_total_nonelectrostatic_energy": 8.07, 
			 "SMD_solvation_energy": 4.1 
		},
		"coords": [
			{
				"x": -0.0596009446,
				"y": -3.3407204226,
				"z": 1.4154099662,
				"element": "C" 
			},
			{
				"x": -0.8768798994,
				"y": -2.1511363402,
				"z": 1.1942857411,
				"element": "N" 
			},
			{
				"x": -2.2978113031,
				"y": -2.2382479729,
				"z": 1.4845403129,
				"element": "C" 
			},
			{
				"x": -0.3882136155,
				"y": -1.1462696549,
				"z": 0.4226471454,
				"element": "C" 
			},
			{
				"x": 0.8663014528,
				"y": -1.0829184549,
				"z": 0.0130902113,
				"element": "N" 
			},
			{
				"x": 1.1016709446,
				"y": 0.0484087831,
				"z": -0.7095233283,
				"element": "C" 
			},
			{
				"x": 2.4786013901,
				"y": 0.2999960528,
				"z": -1.2476141783,
				"element": "C" 
			},
			{
				"x": 0.0159375234,
				"y": 0.8936317068,
				"z": -0.8910235328,
				"element": "C" 
			},
			{
				"x": -1.4044295321,
				"y": 0.2023154732,
				"z": -0.0932256047,
				"element": "S" 
			},
			{
				"x": -0.041066841,
				"y": 2.150975967,
				"z": -1.6038464253,
				"element": "C" 
			},
			{
				"x": 0.9125399652,
				"y": 2.6644932591,
				"z": -2.1782995839,
				"element": "O" 
			},
			{
				"x": -0.3120973416,
				"y": -4.1395002556,
				"z": 0.7044987656,
				"element": "H" 
			},
			{
				"x": -0.226406852,
				"y": -3.7087289106,
				"z": 2.4321430167,
				"element": "H" 
			},
			{
				"x": 0.9883692556,
				"y": -3.0758837344,
				"z": 1.2875512001,
				"element": "H" 
			},
			{
				"x": -2.8794922884,
				"y": -2.6077285312,
				"z": 0.6275924175,
				"element": "H" 
			},
			{
				"x": -2.4449770977,
				"y": -2.9204307878,
				"z": 2.324652257,
				"element": "H" 
			},
			{
				"x": -2.6886504191,
				"y": -1.2580067234,
				"z": 1.7746346812,
				"element": "H" 
			},
			{
				"x": 2.8768409121,
				"y": 1.2461992107,
				"z": -0.8698259461,
				"element": "H" 
			},
			{
				"x": 3.1382769194,
				"y": -0.5203836374,
				"z": -0.9597606328,
				"element": "H" 
			},
			{
				"x": 2.4593289196,
				"y": 0.3964408897,
				"z": -2.3370631023,
				"element": "H" 
			},
			{
				"x": -1.0354411482,
				"y": 2.6500940835,
				"z": -1.6050633805,
				"element": "H" 
			}
		],
		 "valence_orbital": [ 
			{
				"type": "occ",
				"energy": -0.29703,
				"method": "rhf"
			},
			{
				"type": "occ",
				"energy": -0.28095,
				"method": "rhf"
			},
			{
				"type": "occ",
				"energy": -0.27752,
				"method": "rhf"
			},
			{
				"type": "occ",
				"energy": -0.23812,
				"method": "rhf"
			},
			{
				"type": "occ",
				"energy": -0.20726,
				"method": "rhf"
			},
			{
				"type": "unocc",
				"energy": -0.04755,
				"method": "rhf"
			},
			{
				"type": "unocc",
				"energy": 0.00536,
				"method": "rhf"
			},
			{
				"type": "unocc",
				"energy": 0.02396,
				"method": "rhf"
			},
			{
				"type": "unocc",
				"energy": 0.07406,
				"method": "rhf"
			},
			{
				"type": "unocc",
				"energy": 0.0864,
				"method": "rhf"
			}
		],
		"cosmo_sigma_profile": { 
			"-0.025": 0.0,
			"-0.024": 0.0,
			"-0.023": 0.0,
			"-0.022": 0.0,
			"-0.021": 0.0,
			"-0.02": 0.0,
			"-0.019": 0.0,
			"-0.018": 0.0,
			"-0.017": 0.0,
			"-0.016": 0.0,
			"-0.015": 0.0,
			"-0.014": 0.0,
			"-0.013": 0.0,
			"-0.012": 0.0,
			"-0.011": 0.0,
			"-0.01": 0.0,
			"-0.009": 0.0,
			"-0.008": 0.0,
			"-0.007": 3.61182735146,
			"-0.006": 10.6078823092,
			"-0.005": 17.3214831235,
			"-0.004": 22.1603502059,
			"-0.003": 24.5311014221,
			"-0.002": 19.0837222052,
			"-0.001": 15.5101795663,
			"0.0": 17.513037462,
			"0.001": 14.1267818432,
			"0.002": 14.5949365834,
			"0.003": 10.2710146115,
			"0.004": 7.31897890839,
			"0.005": 5.11755637574,
			"0.006": 2.68934455006,
			"0.007": 3.29280997691,
			"0.008": 2.62762124868,
			"0.009": 3.86356195106,
			"0.01": 2.92461272971,
			"0.011": 3.03519501669,
			"0.012": 3.07738361745,
			"0.013": 3.63760376746,
			"0.014": 1.32845979315,
			"0.015": 0.116647424733,
			"0.016": 0.0,
			"0.017": 0.0,
			"0.018": 0.0,
			"0.019": 0.0,
			"0.02": 0.0,
			"0.021": 0.0,
			"0.022": 0.0,
			"0.023": 0.0,
			"0.024": 0.0,
			"0.025": 0.0
		}
	}
}
