{
	 "smiles": "COC(=O)C1=CC=C(Cl)C(=C1)[N+]([O-])=O", 
	 "Tm": 354.65, 
	 "num_atms": 20, 
	 "gaussian": { 
		 "optdone": 1, 
		 "sigma_profile": "yes", 
		 "theory": "DFT", 
		 "functional": "B3LYP", 
		 "basiset": "6-31G**", 
		 "properties": { 
			 "R2extent": 4439.4487, 
			 "electric_dipole_moment_norm": 3.34506433421, 
			 "electric_quadrupole_moment_norm": 19.0729936056, 
			 "total_energy": -1124.20306714, 
			 "HOMO_LUMO_gap": 0.18155, 
			 "cosmo_polarized_energy": -10.71, 
			 "cosmo_cavitation_energy": 27.85, 
			 "cosmo_dispersion_energy": -20.35, 
			 "cosmo_repulsion_energy": 1.6, 
			 "cosmo_total_nonelectrostatic_energy": 9.11, 
			 "SMD_solvation_energy": 8.45 
		},
		"coords": [
			{
				"x": 0.2364817353,
				"y": 3.1930763117,
				"z": -1.835038707,
				"element": "C" 
			},
			{
				"x": 0.351296515,
				"y": 1.7920132818,
				"z": -1.5284862057,
				"element": "O" 
			},
			{
				"x": -0.4960242939,
				"y": 1.3356466579,
				"z": -0.5859259418,
				"element": "C" 
			},
			{
				"x": -1.3099186309,
				"y": 2.0314849563,
				"z": -0.012444548,
				"element": "O" 
			},
			{
				"x": -0.3208743074,
				"y": -0.1241293413,
				"z": -0.3254720464,
				"element": "C" 
			},
			{
				"x": -1.1377991776,
				"y": -0.726927248,
				"z": 0.6394244355,
				"element": "C" 
			},
			{
				"x": -1.0202519975,
				"y": -2.0837770915,
				"z": 0.9125483997,
				"element": "C" 
			},
			{
				"x": -0.070079643,
				"y": -2.8654245563,
				"z": 0.2452711747,
				"element": "C" 
			},
			{
				"x": -0.0252037342,
				"y": -4.5644678144,
				"z": 0.6111349374,
				"element": "Cl" 
			},
			{
				"x": 0.7506361741,
				"y": -2.2543871076,
				"z": -0.7170951576,
				"element": "C" 
			},
			{
				"x": 0.6149247414,
				"y": -0.8984631276,
				"z": -1.0103200538,
				"element": "C" 
			},
			{
				"x": 1.7973755912,
				"y": -2.9791519398,
				"z": -1.462539252,
				"element": "N" 
			},
			{
				"x": 2.3866755783,
				"y": -3.8900051461,
				"z": -0.891687375,
				"element": "O" 
			},
			{
				"x": 2.0273567868,
				"y": -2.5894543612,
				"z": -2.6068716347,
				"element": "O" 
			},
			{
				"x": 0.9827158546,
				"y": 3.3857348617,
				"z": -2.6049636976,
				"element": "H" 
			},
			{
				"x": -0.7663159665,
				"y": 3.4220301822,
				"z": -2.2031137466,
				"element": "H" 
			},
			{
				"x": 0.4344525648,
				"y": 3.7956140831,
				"z": -0.9454903083,
				"element": "H" 
			},
			{
				"x": -1.8664820258,
				"y": -0.1162866644,
				"z": 1.1612826953,
				"element": "H" 
			},
			{
				"x": -1.6640529096,
				"y": -2.5582734517,
				"z": 1.6441742719,
				"element": "H" 
			},
			{
				"x": 1.2482871449,
				"y": -0.4644524848,
				"z": -1.7725872401,
				"element": "H" 
			}
		],
		 "valence_orbital": [ 
			{
				"type": "occ",
				"energy": -0.31584,
				"method": "rhf"
			},
			{
				"type": "occ",
				"energy": -0.30579,
				"method": "rhf"
			},
			{
				"type": "occ",
				"energy": -0.29422,
				"method": "rhf"
			},
			{
				"type": "occ",
				"energy": -0.28751,
				"method": "rhf"
			},
			{
				"type": "occ",
				"energy": -0.27852,
				"method": "rhf"
			},
			{
				"type": "unocc",
				"energy": -0.09697,
				"method": "rhf"
			},
			{
				"type": "unocc",
				"energy": -0.07134,
				"method": "rhf"
			},
			{
				"type": "unocc",
				"energy": -0.02805,
				"method": "rhf"
			},
			{
				"type": "unocc",
				"energy": 0.00541,
				"method": "rhf"
			},
			{
				"type": "unocc",
				"energy": 0.03221,
				"method": "rhf"
			}
		],
		"cosmo_sigma_profile": { 
			"-0.025": 0.0,
			"-0.024": 0.0,
			"-0.023": 0.0,
			"-0.022": 0.0,
			"-0.021": 0.0,
			"-0.02": 0.0,
			"-0.019": 0.0,
			"-0.018": 0.0,
			"-0.017": 0.0,
			"-0.016": 0.0,
			"-0.015": 0.0,
			"-0.014": 0.0,
			"-0.013": 0.0,
			"-0.012": 0.0,
			"-0.011": 0.0,
			"-0.01": 0.0130349961855,
			"-0.009": 1.71908801645,
			"-0.008": 5.25436632579,
			"-0.007": 7.42914495506,
			"-0.006": 11.9652512202,
			"-0.005": 13.6531506223,
			"-0.004": 17.1951836266,
			"-0.003": 19.6151472939,
			"-0.002": 23.3723476138,
			"-0.001": 22.1572491311,
			"0.0": 16.4769225396,
			"0.001": 11.2027197145,
			"0.002": 11.7064508352,
			"0.003": 11.9513850738,
			"0.004": 6.54537242578,
			"0.005": 5.51629755864,
			"0.006": 7.2474953906,
			"0.007": 12.4971404568,
			"0.008": 7.72329593122,
			"0.009": 4.63763990668,
			"0.01": 2.76913060881,
			"0.011": 4.13049965924,
			"0.012": 1.28403961385,
			"0.013": 0.0,
			"0.014": 0.0,
			"0.015": 0.0,
			"0.016": 0.0,
			"0.017": 0.0,
			"0.018": 0.0,
			"0.019": 0.0,
			"0.02": 0.0,
			"0.021": 0.0,
			"0.022": 0.0,
			"0.023": 0.0,
			"0.024": 0.0,
			"0.025": 0.0
		}
	}
}
