{
	 "smiles": "CC(C)C1=NC(N)=NO1", 
	 "Tm": 313.15, 
	 "num_atms": 18, 
	 "gaussian": { 
		 "optdone": 1, 
		 "sigma_profile": "yes", 
		 "theory": "DFT", 
		 "functional": "B3LYP", 
		 "basiset": "6-31G**", 
		 "properties": { 
			 "R2extent": 1598.9001, 
			 "electric_dipole_moment_norm": 1.90298323955, 
			 "electric_quadrupole_moment_norm": 14.8435813519, 
			 "total_energy": -435.410612729, 
			 "HOMO_LUMO_gap": 0.22977, 
			 "cosmo_polarized_energy": -11.18, 
			 "cosmo_cavitation_energy": 21.89, 
			 "cosmo_dispersion_energy": -16.05, 
			 "cosmo_repulsion_energy": 1.35, 
			 "cosmo_total_nonelectrostatic_energy": 7.19, 
			 "SMD_solvation_energy": 1.69 
		},
		"coords": [
			{
				"x": 1.6161851735,
				"y": 2.0850874171,
				"z": -1.6028066531,
				"element": "C" 
			},
			{
				"x": 0.6146345491,
				"y": 1.6172748793,
				"z": -0.5290197273,
				"element": "C" 
			},
			{
				"x": 0.6044160814,
				"y": 2.5633631967,
				"z": 0.6871768479,
				"element": "C" 
			},
			{
				"x": 0.9035323862,
				"y": 0.2069899793,
				"z": -0.1087613125,
				"element": "C" 
			},
			{
				"x": 0.1415760365,
				"y": -0.8415244761,
				"z": -0.2398048913,
				"element": "N" 
			},
			{
				"x": 0.9233856182,
				"y": -1.8355506999,
				"z": 0.3140035679,
				"element": "C" 
			},
			{
				"x": 0.5049955689,
				"y": -3.1420864117,
				"z": 0.3258099541,
				"element": "N" 
			},
			{
				"x": 2.0939062343,
				"y": -1.4450344343,
				"z": 0.7738111077,
				"element": "N" 
			},
			{
				"x": 2.0806450282,
				"y": -0.0547622523,
				"z": 0.4762485894,
				"element": "O" 
			},
			{
				"x": 1.3645872005,
				"y": 3.0977517035,
				"z": -1.9326166427,
				"element": "H" 
			},
			{
				"x": 2.6355510919,
				"y": 2.0975607948,
				"z": -1.2055817265,
				"element": "H" 
			},
			{
				"x": 1.5986712397,
				"y": 1.4274145148,
				"z": -2.4768774256,
				"element": "H" 
			},
			{
				"x": -0.3884739123,
				"y": 1.5866241471,
				"z": -0.9665086533,
				"element": "H" 
			},
			{
				"x": 0.347867227,
				"y": 3.5785441818,
				"z": 0.3691429726,
				"element": "H" 
			},
			{
				"x": -0.1291410152,
				"y": 2.2448264784,
				"z": 1.4338598221,
				"element": "H" 
			},
			{
				"x": 1.5876934023,
				"y": 2.5928495528,
				"z": 1.1660479783,
				"element": "H" 
			},
			{
				"x": 0.9887852017,
				"y": -3.7446142352,
				"z": 0.9759361998,
				"element": "H" 
			},
			{
				"x": -0.4978171119,
				"y": -3.2561143362,
				"z": 0.3088399925,
				"element": "H" 
			}
		],
		 "valence_orbital": [ 
			{
				"type": "occ",
				"energy": -0.35259,
				"method": "rhf"
			},
			{
				"type": "occ",
				"energy": -0.32438,
				"method": "rhf"
			},
			{
				"type": "occ",
				"energy": -0.29259,
				"method": "rhf"
			},
			{
				"type": "occ",
				"energy": -0.28603,
				"method": "rhf"
			},
			{
				"type": "occ",
				"energy": -0.23469,
				"method": "rhf"
			},
			{
				"type": "unocc",
				"energy": -0.00492,
				"method": "rhf"
			},
			{
				"type": "unocc",
				"energy": 0.06069,
				"method": "rhf"
			},
			{
				"type": "unocc",
				"energy": 0.07514,
				"method": "rhf"
			},
			{
				"type": "unocc",
				"energy": 0.09204,
				"method": "rhf"
			},
			{
				"type": "unocc",
				"energy": 0.12324,
				"method": "rhf"
			}
		],
		"cosmo_sigma_profile": { 
			"-0.025": 0.0,
			"-0.024": 0.0,
			"-0.023": 0.0,
			"-0.022": 0.0,
			"-0.021": 0.0,
			"-0.02": 0.0,
			"-0.019": 0.0,
			"-0.018": 0.0,
			"-0.017": 0.0,
			"-0.016": 0.0,
			"-0.015": 0.0573386452408,
			"-0.014": 1.68187391211,
			"-0.013": 2.81712094779,
			"-0.012": 1.74829979888,
			"-0.011": 2.90284410007,
			"-0.01": 2.02354010838,
			"-0.009": 1.88324116993,
			"-0.008": 1.65906380051,
			"-0.007": 1.44925140741,
			"-0.006": 1.92370352048,
			"-0.005": 4.49334111291,
			"-0.004": 14.8339583711,
			"-0.003": 21.4994401616,
			"-0.002": 17.7529326795,
			"-0.001": 17.616810837,
			"0.0": 19.0456536584,
			"0.001": 8.89678149845,
			"0.002": 4.07048861958,
			"0.003": 3.94332396917,
			"0.004": 3.83263789638,
			"0.005": 4.51413491908,
			"0.006": 4.11406085642,
			"0.007": 4.61152996153,
			"0.008": 6.43220570728,
			"0.009": 3.65042022508,
			"0.01": 3.07105429319,
			"0.011": 3.10911157724,
			"0.012": 2.58492438113,
			"0.013": 2.44067556696,
			"0.014": 2.5521129561,
			"0.015": 0.659261433115,
			"0.016": 0.0,
			"0.017": 0.0,
			"0.018": 0.0,
			"0.019": 0.0,
			"0.02": 0.0,
			"0.021": 0.0,
			"0.022": 0.0,
			"0.023": 0.0,
			"0.024": 0.0,
			"0.025": 0.0
		}
	}
}
