{
	 "smiles": "OC(=O)C1=CNC2=C1C(=CC=C2)[N+]([O-])=O", 
	 "Tm": 444.15, 
	 "num_atms": 21, 
	 "gaussian": { 
		 "optdone": 1, 
		 "sigma_profile": "yes", 
		 "theory": "DFT", 
		 "functional": "B3LYP", 
		 "basiset": "6-31G**", 
		 "properties": { 
			 "R2extent": 3092.1225, 
			 "electric_dipole_moment_norm": 6.7602621177, 
			 "electric_quadrupole_moment_norm": 6.64824357481, 
			 "total_energy": -756.884526081, 
			 "HOMO_LUMO_gap": 0.158, 
			 "cosmo_polarized_energy": -21.6, 
			 "cosmo_cavitation_energy": 26.64, 
			 "cosmo_dispersion_energy": -19.5, 
			 "cosmo_repulsion_energy": 1.51, 
			 "cosmo_total_nonelectrostatic_energy": 8.65, 
			 "SMD_solvation_energy": 7.86 
		},
		"coords": [
			{
				"x": -0.7345187183,
				"y": -2.2599597747,
				"z": 2.5349965552,
				"element": "O" 
			},
			{
				"x": -0.1047408854,
				"y": -2.7056409733,
				"z": 1.4257911644,
				"element": "C" 
			},
			{
				"x": 0.2468463815,
				"y": -3.8620258894,
				"z": 1.2875815346,
				"element": "O" 
			},
			{
				"x": 0.0090823969,
				"y": -1.6766968855,
				"z": 0.3776037035,
				"element": "C" 
			},
			{
				"x": -0.0313846148,
				"y": -2.0423616919,
				"z": -0.9516965652,
				"element": "C" 
			},
			{
				"x": -0.0821054275,
				"y": -0.9299577304,
				"z": -1.7413423237,
				"element": "N" 
			},
			{
				"x": -0.0707232501,
				"y": 0.2016441257,
				"z": -0.9451335798,
				"element": "C" 
			},
			{
				"x": 0.0171655666,
				"y": -0.2329538678,
				"z": 0.4099707102,
				"element": "C" 
			},
			{
				"x": 0.1032161755,
				"y": 0.7851534632,
				"z": 1.3810238068,
				"element": "C" 
			},
			{
				"x": -0.0000832255,
				"y": 2.1246059827,
				"z": 1.0278957453,
				"element": "C" 
			},
			{
				"x": -0.1233932218,
				"y": 2.5019785671,
				"z": -0.3179980592,
				"element": "C" 
			},
			{
				"x": -0.1378992471,
				"y": 1.5436511593,
				"z": -1.3243741937,
				"element": "C" 
			},
			{
				"x": 0.4293899256,
				"y": 0.4963254763,
				"z": 2.7821636618,
				"element": "N" 
			},
			{
				"x": -0.050544491,
				"y": 1.2325254734,
				"z": 3.6445259159,
				"element": "O" 
			},
			{
				"x": 1.2121529752,
				"y": -0.4264575272,
				"z": 2.9967113401,
				"element": "O" 
			},
			{
				"x": -0.7313340249,
				"y": -2.9990339027,
				"z": 3.1654816854,
				"element": "H" 
			},
			{
				"x": -0.0564850176,
				"y": -3.0400907552,
				"z": -1.3642682078,
				"element": "H" 
			},
			{
				"x": -0.1540905888,
				"y": -0.9323732924,
				"z": -2.7463948346,
				"element": "H" 
			},
			{
				"x": 0.0515637833,
				"y": 2.8692209128,
				"z": 1.812716643,
				"element": "H" 
			},
			{
				"x": -0.1821709427,
				"y": 3.5549377758,
				"z": -0.5721296322,
				"element": "H" 
			},
			{
				"x": -0.2021435494,
				"y": 1.8277093544,
				"z": -2.3705250699,
				"element": "H" 
			}
		],
		 "valence_orbital": [ 
			{
				"type": "occ",
				"energy": -0.29419,
				"method": "rhf"
			},
			{
				"type": "occ",
				"energy": -0.28116,
				"method": "rhf"
			},
			{
				"type": "occ",
				"energy": -0.27135,
				"method": "rhf"
			},
			{
				"type": "occ",
				"energy": -0.25592,
				"method": "rhf"
			},
			{
				"type": "occ",
				"energy": -0.23621,
				"method": "rhf"
			},
			{
				"type": "unocc",
				"energy": -0.07821,
				"method": "rhf"
			},
			{
				"type": "unocc",
				"energy": -0.03132,
				"method": "rhf"
			},
			{
				"type": "unocc",
				"energy": -0.01268,
				"method": "rhf"
			},
			{
				"type": "unocc",
				"energy": 0.00678,
				"method": "rhf"
			},
			{
				"type": "unocc",
				"energy": 0.05313,
				"method": "rhf"
			}
		],
		"cosmo_sigma_profile": { 
			"-0.025": 0.0,
			"-0.024": 0.0,
			"-0.023": 0.0,
			"-0.022": 0.0,
			"-0.021": 0.0,
			"-0.02": 0.0,
			"-0.019": 0.0,
			"-0.018": 0.921281095777,
			"-0.017": 2.70128572597,
			"-0.016": 2.66450802327,
			"-0.015": 2.67061000455,
			"-0.014": 1.75191151148,
			"-0.013": 1.72434536441,
			"-0.012": 1.51916490804,
			"-0.011": 2.75137497482,
			"-0.01": 4.09516143687,
			"-0.009": 3.3738669002,
			"-0.008": 4.84913065263,
			"-0.007": 7.50538054743,
			"-0.006": 8.80713288673,
			"-0.005": 8.66298486068,
			"-0.004": 8.09670343039,
			"-0.003": 7.02398378997,
			"-0.002": 8.3358590161,
			"-0.001": 9.63793348556,
			"0.0": 14.2655611724,
			"0.001": 19.1595625179,
			"0.002": 16.7617336959,
			"0.003": 14.7075489972,
			"0.004": 7.92538411063,
			"0.005": 6.30454169477,
			"0.006": 6.08680734591,
			"0.007": 8.75980732975,
			"0.008": 10.9695763759,
			"0.009": 6.7668569997,
			"0.01": 5.36644691919,
			"0.011": 2.57565090705,
			"0.012": 5.63097828826,
			"0.013": 1.5992100996,
			"0.014": 0.0,
			"0.015": 0.0,
			"0.016": 0.0,
			"0.017": 0.0,
			"0.018": 0.0,
			"0.019": 0.0,
			"0.02": 0.0,
			"0.021": 0.0,
			"0.022": 0.0,
			"0.023": 0.0,
			"0.024": 0.0,
			"0.025": 0.0
		}
	}
}
