{
	 "smiles": "NC(=O)CCC1CCNCC1", 
	 "Tm": 338.15, 
	 "num_atms": 27, 
	 "gaussian": { 
		 "optdone": 1, 
		 "sigma_profile": "yes", 
		 "theory": "DFT", 
		 "functional": "B3LYP", 
		 "basiset": "6-31G**", 
		 "properties": { 
			 "R2extent": 2451.5035, 
			 "electric_dipole_moment_norm": 3.42274094842, 
			 "electric_quadrupole_moment_norm": 17.8259388336, 
			 "total_energy": -499.242881491, 
			 "HOMO_LUMO_gap": 0.23801, 
			 "cosmo_polarized_energy": -15.06, 
			 "cosmo_cavitation_energy": 27.47, 
			 "cosmo_dispersion_energy": -20.09, 
			 "cosmo_repulsion_energy": 1.64, 
			 "cosmo_total_nonelectrostatic_energy": 9.03, 
			 "SMD_solvation_energy": 2.01 
		},
		"coords": [
			{
				"x": -0.9754771626,
				"y": -1.9416591724,
				"z": -3.6040130124,
				"element": "N" 
			},
			{
				"x": 0.0543679202,
				"y": -1.4370480857,
				"z": -2.8567364989,
				"element": "C" 
			},
			{
				"x": 1.0069581666,
				"y": -2.1261534884,
				"z": -2.5191084331,
				"element": "O" 
			},
			{
				"x": -0.07193988,
				"y": 0.0467090339,
				"z": -2.5023097038,
				"element": "C" 
			},
			{
				"x": 0.7793312198,
				"y": 0.441661111,
				"z": -1.2892606411,
				"element": "C" 
			},
			{
				"x": 0.2887422294,
				"y": -0.1325975157,
				"z": 0.0587825926,
				"element": "C" 
			},
			{
				"x": 1.3453844678,
				"y": 0.0488129333,
				"z": 1.1731007409,
				"element": "C" 
			},
			{
				"x": 1.4235856688,
				"y": 1.4996305643,
				"z": 1.6808342443,
				"element": "C" 
			},
			{
				"x": 0.1332552673,
				"y": 2.0501697954,
				"z": 2.1145669316,
				"element": "N" 
			},
			{
				"x": -0.8941032426,
				"y": 1.9049656821,
				"z": 1.0774445522,
				"element": "C" 
			},
			{
				"x": -1.052192937,
				"y": 0.4698531991,
				"z": 0.5407373627,
				"element": "C" 
			},
			{
				"x": -0.8909697526,
				"y": -2.8860888676,
				"z": -3.9484098516,
				"element": "H" 
			},
			{
				"x": -1.723340694,
				"y": -1.3632907476,
				"z": -3.9505170709,
				"element": "H" 
			},
			{
				"x": 0.2628751897,
				"y": 0.612165102,
				"z": -3.3830323281,
				"element": "H" 
			},
			{
				"x": -1.1278296088,
				"y": 0.3073557599,
				"z": -2.3605892133,
				"element": "H" 
			},
			{
				"x": 1.7948911495,
				"y": 0.0742681033,
				"z": -1.470118334,
				"element": "H" 
			},
			{
				"x": 0.8388117834,
				"y": 1.5350957059,
				"z": -1.24735123,
				"element": "H" 
			},
			{
				"x": 0.1516162752,
				"y": -1.2101726737,
				"z": -0.092310783,
				"element": "H" 
			},
			{
				"x": 1.0811168561,
				"y": -0.6007255393,
				"z": 2.0198725647,
				"element": "H" 
			},
			{
				"x": 2.3288760286,
				"y": -0.2853541671,
				"z": 0.8188796079,
				"element": "H" 
			},
			{
				"x": 1.8138165496,
				"y": 2.1553232891,
				"z": 0.8906356228,
				"element": "H" 
			},
			{
				"x": 2.1285271881,
				"y": 1.5728394398,
				"z": 2.5168876691,
				"element": "H" 
			},
			{
				"x": -0.1714064227,
				"y": 1.5469330188,
				"z": 2.9468882005,
				"element": "H" 
			},
			{
				"x": -0.6318555558,
				"y": 2.5862959391,
				"z": 0.2563322836,
				"element": "H" 
			},
			{
				"x": -1.8472899591,
				"y": 2.2649997889,
				"z": 1.4817857675,
				"element": "H" 
			},
			{
				"x": -1.8066260076,
				"y": 0.4501403166,
				"z": -0.256677777,
				"element": "H" 
			},
			{
				"x": -1.4488247373,
				"y": -0.1618285251,
				"z": 1.3482867366,
				"element": "H" 
			}
		],
		 "valence_orbital": [ 
			{
				"type": "occ",
				"energy": -0.30367,
				"method": "rhf"
			},
			{
				"type": "occ",
				"energy": -0.29778,
				"method": "rhf"
			},
			{
				"type": "occ",
				"energy": -0.26614,
				"method": "rhf"
			},
			{
				"type": "occ",
				"energy": -0.24594,
				"method": "rhf"
			},
			{
				"type": "occ",
				"energy": -0.20702,
				"method": "rhf"
			},
			{
				"type": "unocc",
				"energy": 0.03099,
				"method": "rhf"
			},
			{
				"type": "unocc",
				"energy": 0.06989,
				"method": "rhf"
			},
			{
				"type": "unocc",
				"energy": 0.08059,
				"method": "rhf"
			},
			{
				"type": "unocc",
				"energy": 0.09795,
				"method": "rhf"
			},
			{
				"type": "unocc",
				"energy": 0.11744,
				"method": "rhf"
			}
		],
		"cosmo_sigma_profile": { 
			"-0.025": 0.0,
			"-0.024": 0.0,
			"-0.023": 0.0,
			"-0.022": 0.0,
			"-0.021": 0.0,
			"-0.02": 0.0,
			"-0.019": 0.0,
			"-0.018": 0.0,
			"-0.017": 0.0,
			"-0.016": 0.0,
			"-0.015": 0.0,
			"-0.014": 1.21735465418,
			"-0.013": 2.10337024542,
			"-0.012": 2.64779663621,
			"-0.011": 2.09104654718,
			"-0.01": 2.58806772256,
			"-0.009": 3.28390365787,
			"-0.008": 3.34595785183,
			"-0.007": 3.31771111831,
			"-0.006": 3.81760983516,
			"-0.005": 6.73980537871,
			"-0.004": 9.28297249199,
			"-0.003": 19.0167581389,
			"-0.002": 27.5353552493,
			"-0.001": 30.2167023315,
			"0.0": 26.3740866956,
			"0.001": 16.5948589423,
			"0.002": 7.44012947605,
			"0.003": 4.67947757094,
			"0.004": 3.40011287699,
			"0.005": 4.08996151859,
			"0.006": 2.78809294722,
			"0.007": 3.19792644226,
			"0.008": 2.43738727444,
			"0.009": 2.6644901525,
			"0.01": 1.876925869,
			"0.011": 1.99670947889,
			"0.012": 2.34834702743,
			"0.013": 2.96012567078,
			"0.014": 5.52868830918,
			"0.015": 3.43413251993,
			"0.016": 0.602651493901,
			"0.017": 0.580993430061,
			"0.018": 0.546360969121,
			"0.019": 0.570347796652,
			"0.02": 0.0,
			"0.021": 0.0,
			"0.022": 0.0,
			"0.023": 0.0,
			"0.024": 0.0,
			"0.025": 0.0
		}
	}
}
