{
	 "smiles": "CN(C)C(C)(C(O)=O)C1=CC=C(F)C=C1", 
	 "Tm": 508.15, 
	 "num_atms": 29, 
	 "gaussian": { 
		 "optdone": 1, 
		 "sigma_profile": "yes", 
		 "theory": "DFT", 
		 "functional": "B3LYP", 
		 "basiset": "6-31G**", 
		 "properties": { 
			 "R2extent": 3740.3417, 
			 "electric_dipole_moment_norm": 1.08755886737, 
			 "electric_quadrupole_moment_norm": 13.1437986956, 
			 "total_energy": -732.633393731, 
			 "HOMO_LUMO_gap": 0.19789, 
			 "cosmo_polarized_energy": -11.92, 
			 "cosmo_cavitation_energy": 30.8, 
			 "cosmo_dispersion_energy": -21.69, 
			 "cosmo_repulsion_energy": 1.66, 
			 "cosmo_total_nonelectrostatic_energy": 10.77, 
			 "SMD_solvation_energy": 5.55 
		},
		"coords": [
			{
				"x": -0.9660196022,
				"y": -1.2463811101,
				"z": 2.0744925489,
				"element": "C" 
			},
			{
				"x": 0.0651916084,
				"y": -1.7140491735,
				"z": 1.1525958956,
				"element": "N" 
			},
			{
				"x": 1.2654890842,
				"y": -0.8888106972,
				"z": 1.2921635862,
				"element": "C" 
			},
			{
				"x": -0.3907820845,
				"y": -1.9466079985,
				"z": -0.237313705,
				"element": "C" 
			},
			{
				"x": -1.5896496567,
				"y": -2.9307841378,
				"z": -0.2309228371,
				"element": "C" 
			},
			{
				"x": 0.7059194957,
				"y": -2.7484246241,
				"z": -0.9810771297,
				"element": "C" 
			},
			{
				"x": 0.4075675684,
				"y": -2.8838820549,
				"z": -2.2978544076,
				"element": "O" 
			},
			{
				"x": 1.684516254,
				"y": -3.2657448003,
				"z": -0.4940034599,
				"element": "O" 
			},
			{
				"x": -0.7113916288,
				"y": -0.6379375844,
				"z": -0.9912042816,
				"element": "C" 
			},
			{
				"x": 0.3093356026,
				"y": 0.0958030672,
				"z": -1.6190470518,
				"element": "C" 
			},
			{
				"x": 0.0630697702,
				"y": 1.3255408256,
				"z": -2.2258351949,
				"element": "C" 
			},
			{
				"x": -1.2295069217,
				"y": 1.8353488684,
				"z": -2.2006507255,
				"element": "C" 
			},
			{
				"x": -1.4798111005,
				"y": 3.0243986871,
				"z": -2.7879167495,
				"element": "F" 
			},
			{
				"x": -2.2687097684,
				"y": 1.147613289,
				"z": -1.5898353968,
				"element": "C" 
			},
			{
				"x": -1.9997968969,
				"y": -0.0836491729,
				"z": -0.9889865732,
				"element": "C" 
			},
			{
				"x": -0.5216345177,
				"y": -1.177695464,
				"z": 3.0718925812,
				"element": "H" 
			},
			{
				"x": -1.7939366065,
				"y": -1.9546216642,
				"z": 2.1415913609,
				"element": "H" 
			},
			{
				"x": -1.3754753864,
				"y": -0.2510763599,
				"z": 1.8243702275,
				"element": "H" 
			},
			{
				"x": 1.6068981482,
				"y": -0.9563536247,
				"z": 2.3300357076,
				"element": "H" 
			},
			{
				"x": 1.1009572001,
				"y": 0.1773667902,
				"z": 1.0596143445,
				"element": "H" 
			},
			{
				"x": 2.0660880543,
				"y": -1.2728656675,
				"z": 0.6610329505,
				"element": "H" 
			},
			{
				"x": -2.4737917712,
				"y": -2.5056345832,
				"z": 0.243935693,
				"element": "H" 
			},
			{
				"x": -1.309555275,
				"y": -3.8305428955,
				"z": 0.3235492754,
				"element": "H" 
			},
			{
				"x": -1.8527980111,
				"y": -3.2035729803,
				"z": -1.2538443608,
				"element": "H" 
			},
			{
				"x": 1.1075519904,
				"y": -3.4466905083,
				"z": -2.6693528679,
				"element": "H" 
			},
			{
				"x": 1.3197667652,
				"y": -0.3001365296,
				"z": -1.6513074353,
				"element": "H" 
			},
			{
				"x": 0.8525164549,
				"y": 1.8851163783,
				"z": -2.7158969169,
				"element": "H" 
			},
			{
				"x": -3.2675183042,
				"y": 1.5706463441,
				"z": -1.5915636032,
				"element": "H" 
			},
			{
				"x": -2.8235904648,
				"y": -0.6125726188,
				"z": -0.5235614747,
				"element": "H" 
			}
		],
		 "valence_orbital": [ 
			{
				"type": "occ",
				"energy": -0.32021,
				"method": "rhf"
			},
			{
				"type": "occ",
				"energy": -0.2758,
				"method": "rhf"
			},
			{
				"type": "occ",
				"energy": -0.26137,
				"method": "rhf"
			},
			{
				"type": "occ",
				"energy": -0.24448,
				"method": "rhf"
			},
			{
				"type": "occ",
				"energy": -0.2112,
				"method": "rhf"
			},
			{
				"type": "unocc",
				"energy": -0.01331,
				"method": "rhf"
			},
			{
				"type": "unocc",
				"energy": -0.00388,
				"method": "rhf"
			},
			{
				"type": "unocc",
				"energy": 0.0029,
				"method": "rhf"
			},
			{
				"type": "unocc",
				"energy": 0.06985,
				"method": "rhf"
			},
			{
				"type": "unocc",
				"energy": 0.08372,
				"method": "rhf"
			}
		],
		"cosmo_sigma_profile": { 
			"-0.025": 0.0,
			"-0.024": 0.0,
			"-0.023": 0.0,
			"-0.022": 0.0,
			"-0.021": 0.0,
			"-0.02": 0.0,
			"-0.019": 0.0646812576115,
			"-0.018": 0.670270583869,
			"-0.017": 0.845213299527,
			"-0.016": 1.09234586458,
			"-0.015": 0.865597652722,
			"-0.014": 0.661038542533,
			"-0.013": 0.425205251737,
			"-0.012": 0.25159575967,
			"-0.011": 0.957558102075,
			"-0.01": 1.04773307662,
			"-0.009": 0.77858289986,
			"-0.008": 0.690723660454,
			"-0.007": 6.52492978794,
			"-0.006": 10.6931909578,
			"-0.005": 11.3382684083,
			"-0.004": 17.2800442016,
			"-0.003": 17.6156135927,
			"-0.002": 19.9884252383,
			"-0.001": 25.7302536901,
			"0.0": 27.3221296725,
			"0.001": 16.4852129494,
			"0.002": 12.6665904646,
			"0.003": 14.4574324883,
			"0.004": 18.8173327712,
			"0.005": 8.85167766972,
			"0.006": 3.25626435421,
			"0.007": 2.7879106113,
			"0.008": 3.61590528852,
			"0.009": 3.43562255755,
			"0.01": 2.18044249317,
			"0.011": 4.58996558685,
			"0.012": 2.93183205565,
			"0.013": 1.06030075266,
			"0.014": 0.608646103749,
			"0.015": 1.2951427419,
			"0.016": 0.619875700191,
			"0.017": 0.0413448782735,
			"0.018": 0.0,
			"0.019": 0.0,
			"0.02": 0.0,
			"0.021": 0.0,
			"0.022": 0.0,
			"0.023": 0.0,
			"0.024": 0.0,
			"0.025": 0.0
		}
	}
}
