{
	 "smiles": "CCOC(=O)C1=C(NC(=O)CCl)SC=C1C1=CC=CC=C1", 
	 "Tm": 372.65, 
	 "num_atms": 35, 
	 "gaussian": { 
		 "optdone": 1, 
		 "sigma_profile": "yes", 
		 "theory": "DFT", 
		 "functional": "B3LYP", 
		 "basiset": "6-31G**", 
		 "properties": { 
			 "R2extent": 10597.6601, 
			 "electric_dipole_moment_norm": 4.90903363301, 
			 "electric_quadrupole_moment_norm": 22.2367009534, 
			 "total_energy": -1718.85129208, 
			 "HOMO_LUMO_gap": 0.16119, 
			 "cosmo_polarized_energy": -13.85, 
			 "cosmo_cavitation_energy": 42.43, 
			 "cosmo_dispersion_energy": -29.65, 
			 "cosmo_repulsion_energy": 2.25, 
			 "cosmo_total_nonelectrostatic_energy": 15.03, 
			 "SMD_solvation_energy": 8.34 
		},
		"coords": [
			{
				"x": 1.220311605,
				"y": 2.4140316253,
				"z": 2.4053570261,
				"element": "C" 
			},
			{
				"x": 1.9467865084,
				"y": 1.403215418,
				"z": 1.5313496598,
				"element": "C" 
			},
			{
				"x": 1.0211388625,
				"y": 0.4706427585,
				"z": 0.9182103193,
				"element": "O" 
			},
			{
				"x": 0.6589341031,
				"y": -0.5971849374,
				"z": 1.6443795913,
				"element": "C" 
			},
			{
				"x": 1.0883966221,
				"y": -0.7978883458,
				"z": 2.7806663992,
				"element": "O" 
			},
			{
				"x": -0.2590074064,
				"y": -1.5074994111,
				"z": 0.9392428443,
				"element": "C" 
			},
			{
				"x": -0.5607423187,
				"y": -2.7593715301,
				"z": 1.4893153637,
				"element": "C" 
			},
			{
				"x": -0.1100529035,
				"y": -3.1774371771,
				"z": 2.7248020448,
				"element": "N" 
			},
			{
				"x": -0.349152793,
				"y": -4.2665433319,
				"z": 3.5476382578,
				"element": "C" 
			},
			{
				"x": 0.1515702575,
				"y": -4.2983406701,
				"z": 4.6591736555,
				"element": "O" 
			},
			{
				"x": -1.238777214,
				"y": -5.411155517,
				"z": 3.0805470824,
				"element": "C" 
			},
			{
				"x": -0.3255554118,
				"y": -6.5622813306,
				"z": 2.0177405139,
				"element": "Cl" 
			},
			{
				"x": -1.5186500845,
				"y": -3.7175345856,
				"z": 0.3919689012,
				"element": "S" 
			},
			{
				"x": -1.5553379149,
				"y": -2.4248864531,
				"z": -0.7697283557,
				"element": "C" 
			},
			{
				"x": -0.8593755052,
				"y": -1.3208972721,
				"z": -0.3702521265,
				"element": "C" 
			},
			{
				"x": -0.8354763464,
				"y": -0.1054415253,
				"z": -1.2284049946,
				"element": "C" 
			},
			{
				"x": -0.3681132597,
				"y": -0.1907941575,
				"z": -2.5474081994,
				"element": "C" 
			},
			{
				"x": -0.4125760323,
				"y": 0.9199775783,
				"z": -3.3924889841,
				"element": "C" 
			},
			{
				"x": -0.9304765745,
				"y": 2.1299930841,
				"z": -2.9315918987,
				"element": "C" 
			},
			{
				"x": -1.4042740989,
				"y": 2.2236207739,
				"z": -1.6197614771,
				"element": "C" 
			},
			{
				"x": -1.3572223374,
				"y": 1.1167891006,
				"z": -0.7755230903,
				"element": "C" 
			},
			{
				"x": 0.7476018839,
				"y": 1.9190541884,
				"z": 3.2570043339,
				"element": "H" 
			},
			{
				"x": 0.4563173634,
				"y": 2.9458000794,
				"z": 1.830934832,
				"element": "H" 
			},
			{
				"x": 1.9347478966,
				"y": 3.1494624943,
				"z": 2.7899176013,
				"element": "H" 
			},
			{
				"x": 2.4344032604,
				"y": 1.8851727751,
				"z": 0.6813584896,
				"element": "H" 
			},
			{
				"x": 2.6853503069,
				"y": 0.8399684656,
				"z": 2.1057336133,
				"element": "H" 
			},
			{
				"x": 0.4781034879,
				"y": -2.4582516285,
				"z": 3.1661729943,
				"element": "H" 
			},
			{
				"x": -1.5311615768,
				"y": -5.9643157644,
				"z": 3.9704498986,
				"element": "H" 
			},
			{
				"x": -2.1218491412,
				"y": -5.0853985583,
				"z": 2.5293516673,
				"element": "H" 
			},
			{
				"x": -2.1324679014,
				"y": -2.5458490849,
				"z": -1.6750792036,
				"element": "H" 
			},
			{
				"x": 0.0427122388,
				"y": -1.1307192705,
				"z": -2.9041133489,
				"element": "H" 
			},
			{
				"x": -0.0403513106,
				"y": 0.8373644254,
				"z": -4.4096920803,
				"element": "H" 
			},
			{
				"x": -0.9673209971,
				"y": 2.9945581434,
				"z": -3.5880939362,
				"element": "H" 
			},
			{
				"x": -1.817805281,
				"y": 3.1602874478,
				"z": -1.256406242,
				"element": "H" 
			},
			{
				"x": -1.7341279869,
				"y": 1.1925521934,
				"z": 0.2397288479,
				"element": "H" 
			}
		],
		 "valence_orbital": [ 
			{
				"type": "occ",
				"energy": -0.27502,
				"method": "rhf"
			},
			{
				"type": "occ",
				"energy": -0.27006,
				"method": "rhf"
			},
			{
				"type": "occ",
				"energy": -0.25494,
				"method": "rhf"
			},
			{
				"type": "occ",
				"energy": -0.24733,
				"method": "rhf"
			},
			{
				"type": "occ",
				"energy": -0.22046,
				"method": "rhf"
			},
			{
				"type": "unocc",
				"energy": -0.05927,
				"method": "rhf"
			},
			{
				"type": "unocc",
				"energy": -0.02492,
				"method": "rhf"
			},
			{
				"type": "unocc",
				"energy": -0.0154,
				"method": "rhf"
			},
			{
				"type": "unocc",
				"energy": -0.00558,
				"method": "rhf"
			},
			{
				"type": "unocc",
				"energy": 0.00218,
				"method": "rhf"
			}
		],
		"cosmo_sigma_profile": { 
			"-0.025": 0.0,
			"-0.024": 0.0,
			"-0.023": 0.0,
			"-0.022": 0.0,
			"-0.021": 0.0,
			"-0.02": 0.0,
			"-0.019": 0.0,
			"-0.018": 0.0,
			"-0.017": 0.0,
			"-0.016": 0.0,
			"-0.015": 0.0,
			"-0.014": 0.0,
			"-0.013": 0.0,
			"-0.012": 0.0,
			"-0.011": 0.0568471809755,
			"-0.01": 0.787250645678,
			"-0.009": 4.72278604399,
			"-0.008": 6.86127926688,
			"-0.007": 5.8907491192,
			"-0.006": 11.5643575997,
			"-0.005": 20.8076934333,
			"-0.004": 26.8179432247,
			"-0.003": 27.945641622,
			"-0.002": 32.606591524,
			"-0.001": 31.3480007257,
			"0.0": 31.8454780647,
			"0.001": 24.9505981942,
			"0.002": 23.2429001299,
			"0.003": 20.1212876114,
			"0.004": 19.1077560801,
			"0.005": 19.0603716559,
			"0.006": 9.3637402203,
			"0.007": 4.47850487759,
			"0.008": 4.18367821307,
			"0.009": 3.34850228656,
			"0.01": 3.55855675149,
			"0.011": 5.13834146036,
			"0.012": 4.52604700476,
			"0.013": 0.500328889615,
			"0.014": 0.0,
			"0.015": 0.0,
			"0.016": 0.0,
			"0.017": 0.0,
			"0.018": 0.0,
			"0.019": 0.0,
			"0.02": 0.0,
			"0.021": 0.0,
			"0.022": 0.0,
			"0.023": 0.0,
			"0.024": 0.0,
			"0.025": 0.0
		}
	}
}
