{
	 "smiles": "CC(C)(C)OC(=O)N1C2CCCCC2CC1C(O)=O", 
	 "Tm": 407.15, 
	 "num_atms": 42, 
	 "gaussian": { 
		 "optdone": 1, 
		 "sigma_profile": "yes", 
		 "theory": "DFT", 
		 "functional": "B3LYP", 
		 "basiset": "6-31G**", 
		 "properties": { 
			 "R2extent": 5621.7091, 
			 "electric_dipole_moment_norm": 3.55993753176, 
			 "electric_quadrupole_moment_norm": 23.1350943731, 
			 "total_energy": -903.059656702, 
			 "HOMO_LUMO_gap": 0.25195, 
			 "cosmo_polarized_energy": -13.7, 
			 "cosmo_cavitation_energy": 40.61, 
			 "cosmo_dispersion_energy": -27.74, 
			 "cosmo_repulsion_energy": 2.12, 
			 "cosmo_total_nonelectrostatic_energy": 15.0, 
			 "SMD_solvation_energy": 7.46 
		},
		"coords": [
			{
				"x": -2.403167905,
				"y": 2.5908155782,
				"z": 2.210037698,
				"element": "C" 
			},
			{
				"x": -2.2974263191,
				"y": 1.0765428518,
				"z": 2.4087591347,
				"element": "C" 
			},
			{
				"x": -3.6787166125,
				"y": 0.4205979118,
				"z": 2.3455870927,
				"element": "C" 
			},
			{
				"x": -1.5689646193,
				"y": 0.7026604246,
				"z": 3.7022983556,
				"element": "C" 
			},
			{
				"x": -1.5982731545,
				"y": 0.4703990329,
				"z": 1.2485370114,
				"element": "O" 
			},
			{
				"x": -0.3088033866,
				"y": 0.8259487327,
				"z": 0.9289232855,
				"element": "C" 
			},
			{
				"x": 0.3803271603,
				"y": 1.6016426193,
				"z": 1.5689374428,
				"element": "O" 
			},
			{
				"x": 0.1048704782,
				"y": 0.1618422957,
				"z": -0.1889452407,
				"element": "N" 
			},
			{
				"x": 1.4297592362,
				"y": 0.4688999595,
				"z": -0.7657387792,
				"element": "C" 
			},
			{
				"x": 2.6573777161,
				"y": 0.1188325187,
				"z": 0.0902562798,
				"element": "C" 
			},
			{
				"x": 3.8834294585,
				"y": -0.1506995961,
				"z": -0.8283617321,
				"element": "C" 
			},
			{
				"x": 3.7899035659,
				"y": 0.5957456406,
				"z": -2.1738701333,
				"element": "C" 
			},
			{
				"x": 2.5425083203,
				"y": 0.1669974381,
				"z": -2.9994425193,
				"element": "C" 
			},
			{
				"x": 1.4301370322,
				"y": -0.3367368513,
				"z": -2.0685202257,
				"element": "C" 
			},
			{
				"x": -0.0309215169,
				"y": -0.2716012179,
				"z": -2.5249644019,
				"element": "C" 
			},
			{
				"x": -0.8018840212,
				"y": -0.4380078089,
				"z": -1.2044898505,
				"element": "C" 
			},
			{
				"x": -1.1066154312,
				"y": -1.9217135912,
				"z": -0.8873363999,
				"element": "C" 
			},
			{
				"x": -1.6315746937,
				"y": -2.1469147855,
				"z": 0.329224992,
				"element": "O" 
			},
			{
				"x": -0.9138624637,
				"y": -2.8233476386,
				"z": -1.6690008328,
				"element": "O" 
			},
			{
				"x": -3.0186374996,
				"y": 3.0184745664,
				"z": 3.0078028155,
				"element": "H" 
			},
			{
				"x": -1.419891136,
				"y": 3.0603944158,
				"z": 2.2343851729,
				"element": "H" 
			},
			{
				"x": -2.8842747112,
				"y": 2.8175937282,
				"z": 1.2533443396,
				"element": "H" 
			},
			{
				"x": -4.1750099037,
				"y": 0.6466268523,
				"z": 1.3973243322,
				"element": "H" 
			},
			{
				"x": -3.6051422721,
				"y": -0.6664631543,
				"z": 2.4490409482,
				"element": "H" 
			},
			{
				"x": -4.3046751625,
				"y": 0.7969224899,
				"z": 3.1596949912,
				"element": "H" 
			},
			{
				"x": -0.5732494356,
				"y": 1.1449701901,
				"z": 3.7318622277,
				"element": "H" 
			},
			{
				"x": -1.4788431496,
				"y": -0.3847083141,
				"z": 3.7908963733,
				"element": "H" 
			},
			{
				"x": -2.143808923,
				"y": 1.0645464714,
				"z": 4.5607693268,
				"element": "H" 
			},
			{
				"x": 1.4551465508,
				"y": 1.5432650112,
				"z": -1.0021626197,
				"element": "H" 
			},
			{
				"x": 2.8576655366,
				"y": 0.9323239695,
				"z": 0.7915059656,
				"element": "H" 
			},
			{
				"x": 2.4365310505,
				"y": -0.7717585895,
				"z": 0.6894617582,
				"element": "H" 
			},
			{
				"x": 4.8044972356,
				"y": 0.1326612751,
				"z": -0.3082368309,
				"element": "H" 
			},
			{
				"x": 3.9663530612,
				"y": -1.2262568127,
				"z": -1.0275246499,
				"element": "H" 
			},
			{
				"x": 3.7469441001,
				"y": 1.6745094679,
				"z": -1.9775600803,
				"element": "H" 
			},
			{
				"x": 4.7015733389,
				"y": 0.4309900052,
				"z": -2.7579241296,
				"element": "H" 
			},
			{
				"x": 2.1828194298,
				"y": 1.0173055947,
				"z": -3.5928227767,
				"element": "H" 
			},
			{
				"x": 2.8072972412,
				"y": -0.6211687548,
				"z": -3.71286637,
				"element": "H" 
			},
			{
				"x": 1.6363832215,
				"y": -1.3829422076,
				"z": -1.8046734257,
				"element": "H" 
			},
			{
				"x": -0.3037901423,
				"y": -1.0535607767,
				"z": -3.2348402841,
				"element": "H" 
			},
			{
				"x": -0.2545042157,
				"y": 0.7077703359,
				"z": -2.9641142034,
				"element": "H" 
			},
			{
				"x": -1.7573015536,
				"y": 0.0984584292,
				"z": -1.2061974101,
				"element": "H" 
			},
			{
				"x": -1.7204855051,
				"y": -1.2991577079,
				"z": 0.810443352,
				"element": "H" 
			}
		],
		 "valence_orbital": [ 
			{
				"type": "occ",
				"energy": -0.30592,
				"method": "rhf"
			},
			{
				"type": "occ",
				"energy": -0.29901,
				"method": "rhf"
			},
			{
				"type": "occ",
				"energy": -0.27977,
				"method": "rhf"
			},
			{
				"type": "occ",
				"energy": -0.27778,
				"method": "rhf"
			},
			{
				"type": "occ",
				"energy": -0.24177,
				"method": "rhf"
			},
			{
				"type": "unocc",
				"energy": 0.01018,
				"method": "rhf"
			},
			{
				"type": "unocc",
				"energy": 0.03265,
				"method": "rhf"
			},
			{
				"type": "unocc",
				"energy": 0.06643,
				"method": "rhf"
			},
			{
				"type": "unocc",
				"energy": 0.07432,
				"method": "rhf"
			},
			{
				"type": "unocc",
				"energy": 0.08615,
				"method": "rhf"
			}
		],
		"cosmo_sigma_profile": { 
			"-0.025": 0.0,
			"-0.024": 0.0,
			"-0.023": 0.0,
			"-0.022": 0.0,
			"-0.021": 0.0,
			"-0.02": 0.0,
			"-0.019": 0.0,
			"-0.018": 0.0,
			"-0.017": 0.0,
			"-0.016": 0.0,
			"-0.015": 0.0,
			"-0.014": 0.0,
			"-0.013": 0.0,
			"-0.012": 0.0,
			"-0.011": 0.0,
			"-0.01": 0.0,
			"-0.009": 0.250857739981,
			"-0.008": 2.28274237879,
			"-0.007": 4.16652475206,
			"-0.006": 4.37417025676,
			"-0.005": 9.79931192827,
			"-0.004": 27.9905050823,
			"-0.003": 38.1770914018,
			"-0.002": 47.2172863302,
			"-0.001": 46.0965129391,
			"0.0": 46.4721128323,
			"0.001": 26.3521096643,
			"0.002": 6.34139096166,
			"0.003": 4.13909208482,
			"0.004": 4.51760795962,
			"0.005": 5.30889914928,
			"0.006": 4.41030133354,
			"0.007": 3.71950169332,
			"0.008": 4.37886330115,
			"0.009": 5.33877051927,
			"0.01": 5.701641962,
			"0.011": 7.45858078533,
			"0.012": 6.8900334086,
			"0.013": 2.95427197248,
			"0.014": 0.118392836925,
			"0.015": 0.0,
			"0.016": 0.0,
			"0.017": 0.0,
			"0.018": 0.0,
			"0.019": 0.0,
			"0.02": 0.0,
			"0.021": 0.0,
			"0.022": 0.0,
			"0.023": 0.0,
			"0.024": 0.0,
			"0.025": 0.0
		}
	}
}
