{
	 "smiles": "CC(C)(C)N1C=CN=C1SCC(O)=O", 
	 "Tm": 448.15, 
	 "num_atms": 28, 
	 "gaussian": { 
		 "optdone": 1, 
		 "sigma_profile": "yes", 
		 "theory": "DFT", 
		 "functional": "B3LYP", 
		 "basiset": "6-31G**", 
		 "properties": { 
			 "R2extent": 4457.5876, 
			 "electric_dipole_moment_norm": 4.2773395306, 
			 "electric_quadrupole_moment_norm": 16.1141525663, 
			 "total_energy": -1009.53417166, 
			 "HOMO_LUMO_gap": 0.20666, 
			 "cosmo_polarized_energy": -18.41, 
			 "cosmo_cavitation_energy": 31.7, 
			 "cosmo_dispersion_energy": -23.1, 
			 "cosmo_repulsion_energy": 1.77, 
			 "cosmo_total_nonelectrostatic_energy": 10.38, 
			 "SMD_solvation_energy": 6.16 
		},
		"coords": [
			{
				"x": 1.6496442825,
				"y": -0.423682856,
				"z": -1.5420904703,
				"element": "C" 
			},
			{
				"x": 1.0017537522,
				"y": -1.2911501612,
				"z": -0.4457901292,
				"element": "C" 
			},
			{
				"x": 1.6923136172,
				"y": -2.6650222152,
				"z": -0.4379708336,
				"element": "C" 
			},
			{
				"x": -0.5025762166,
				"y": -1.5005924738,
				"z": -0.7050652324,
				"element": "C" 
			},
			{
				"x": 1.1896258944,
				"y": -0.6320300949,
				"z": 0.8856447399,
				"element": "N" 
			},
			{
				"x": 1.878399665,
				"y": -1.1654196864,
				"z": 1.97238931,
				"element": "C" 
			},
			{
				"x": 1.8044506219,
				"y": -0.2403035184,
				"z": 2.9741160108,
				"element": "C" 
			},
			{
				"x": 1.0925781211,
				"y": 0.8614991167,
				"z": 2.5604834941,
				"element": "N" 
			},
			{
				"x": 0.7398403343,
				"y": 0.6005526709,
				"z": 1.3156609312,
				"element": "C" 
			},
			{
				"x": -0.2114208282,
				"y": 1.7307046439,
				"z": 0.3219853749,
				"element": "S" 
			},
			{
				"x": -0.3805994697,
				"y": 3.0388642683,
				"z": 1.5840552332,
				"element": "C" 
			},
			{
				"x": -1.1827814969,
				"y": 4.1939977942,
				"z": 1.0079195007,
				"element": "C" 
			},
			{
				"x": -1.3705087475,
				"y": 5.2287648886,
				"z": 1.8677130417,
				"element": "O" 
			},
			{
				"x": -1.6345702058,
				"y": 4.2353122019,
				"z": -0.1075536172,
				"element": "O" 
			},
			{
				"x": 1.540379613,
				"y": -0.9165232333,
				"z": -2.5130533718,
				"element": "H" 
			},
			{
				"x": 1.1908919751,
				"y": 0.5644789946,
				"z": -1.6147111653,
				"element": "H" 
			},
			{
				"x": 2.7168830854,
				"y": -0.2897554088,
				"z": -1.3415680544,
				"element": "H" 
			},
			{
				"x": 1.5454524937,
				"y": -3.1315392284,
				"z": -1.4157111433,
				"element": "H" 
			},
			{
				"x": 2.7695759438,
				"y": -2.5797330923,
				"z": -0.2690567595,
				"element": "H" 
			},
			{
				"x": 1.2653017063,
				"y": -3.332489239,
				"z": 0.3159711386,
				"element": "H" 
			},
			{
				"x": -1.0525690975,
				"y": -0.5580378416,
				"z": -0.7408024764,
				"element": "H" 
			},
			{
				"x": -0.6429897515,
				"y": -2.0077898872,
				"z": -1.664567655,
				"element": "H" 
			},
			{
				"x": -0.9422695266,
				"y": -2.1218731305,
				"z": 0.0809623439,
				"element": "H" 
			},
			{
				"x": 2.3479388168,
				"y": -2.1325327205,
				"z": 1.9354851749,
				"element": "H" 
			},
			{
				"x": 2.2213404385,
				"y": -0.300822991,
				"z": 3.9699070822,
				"element": "H" 
			},
			{
				"x": -0.8706131917,
				"y": 2.6286830694,
				"z": 2.4723896169,
				"element": "H" 
			},
			{
				"x": 0.61248626,
				"y": 3.3729405679,
				"z": 1.8997306791,
				"element": "H" 
			},
			{
				"x": -0.9494580892,
				"y": 5.0457995621,
				"z": 2.7202272361,
				"element": "H" 
			}
		],
		 "valence_orbital": [ 
			{
				"type": "occ",
				"energy": -0.28575,
				"method": "rhf"
			},
			{
				"type": "occ",
				"energy": -0.28045,
				"method": "rhf"
			},
			{
				"type": "occ",
				"energy": -0.26705,
				"method": "rhf"
			},
			{
				"type": "occ",
				"energy": -0.26669,
				"method": "rhf"
			},
			{
				"type": "occ",
				"energy": -0.20304,
				"method": "rhf"
			},
			{
				"type": "unocc",
				"energy": 0.00362,
				"method": "rhf"
			},
			{
				"type": "unocc",
				"energy": 0.01258,
				"method": "rhf"
			},
			{
				"type": "unocc",
				"energy": 0.02964,
				"method": "rhf"
			},
			{
				"type": "unocc",
				"energy": 0.06785,
				"method": "rhf"
			},
			{
				"type": "unocc",
				"energy": 0.06813,
				"method": "rhf"
			}
		],
		"cosmo_sigma_profile": { 
			"-0.025": 0.0,
			"-0.024": 0.0,
			"-0.023": 0.0,
			"-0.022": 0.0,
			"-0.021": 0.0,
			"-0.02": 0.448201093217,
			"-0.019": 1.2951054446,
			"-0.018": 1.08373861202,
			"-0.017": 1.50757074063,
			"-0.016": 1.09092828147,
			"-0.015": 1.09582953566,
			"-0.014": 1.21066889212,
			"-0.013": 1.25420559772,
			"-0.012": 1.15179005093,
			"-0.011": 1.40425312633,
			"-0.01": 1.91076139282,
			"-0.009": 2.68423351407,
			"-0.008": 3.18727875249,
			"-0.007": 5.13764600791,
			"-0.006": 5.32584800316,
			"-0.005": 11.1756949362,
			"-0.004": 22.1495820064,
			"-0.003": 18.5879373498,
			"-0.002": 20.4149027493,
			"-0.001": 24.0882117341,
			"0.0": 24.1121808454,
			"0.001": 13.7092700692,
			"0.002": 9.91858860168,
			"0.003": 8.84052094966,
			"0.004": 9.11058218253,
			"0.005": 10.3779840529,
			"0.006": 11.143252424,
			"0.007": 5.90008007246,
			"0.008": 6.26730137545,
			"0.009": 6.40874948541,
			"0.01": 6.57689818473,
			"0.011": 7.27815335025,
			"0.012": 3.22825007414,
			"0.013": 1.01110835406,
			"0.014": 0.629151704813,
			"0.015": 0.296366861391,
			"0.016": 0.0,
			"0.017": 0.0,
			"0.018": 0.0,
			"0.019": 0.0,
			"0.02": 0.0,
			"0.021": 0.0,
			"0.022": 0.0,
			"0.023": 0.0,
			"0.024": 0.0,
			"0.025": 0.0
		}
	}
}
