{
	 "smiles": "CC1=CC=C(C=C1)[N+]([O-])=O", 
	 "Tm": 325.65, 
	 "num_atms": 17, 
	 "gaussian": { 
		 "optdone": 1, 
		 "sigma_profile": "yes", 
		 "theory": "DFT", 
		 "functional": "B3LYP", 
		 "basiset": "6-31G**", 
		 "properties": { 
			 "R2extent": 2059.4822, 
			 "electric_dipole_moment_norm": 5.1845747328, 
			 "electric_quadrupole_moment_norm": 13.9168054071, 
			 "total_energy": -476.070727413, 
			 "HOMO_LUMO_gap": 0.18537, 
			 "cosmo_polarized_energy": -7.96, 
			 "cosmo_cavitation_energy": 21.61, 
			 "cosmo_dispersion_energy": -15.98, 
			 "cosmo_repulsion_energy": 1.29, 
			 "cosmo_total_nonelectrostatic_energy": 6.92, 
			 "SMD_solvation_energy": 6.14 
		},
		"coords": [
			{
				"x": -0.5172626971,
				"y": -1.5933320066,
				"z": 1.6211057103,
				"element": "C" 
			},
			{
				"x": -0.2067546825,
				"y": -0.4234751008,
				"z": 0.7205651139,
				"element": "C" 
			},
			{
				"x": -0.8990267138,
				"y": -0.2433865786,
				"z": -0.4872234451,
				"element": "C" 
			},
			{
				"x": -0.6409216844,
				"y": 0.847529597,
				"z": -1.3113023958,
				"element": "C" 
			},
			{
				"x": 0.3279446789,
				"y": 1.7684787466,
				"z": -0.9168217339,
				"element": "C" 
			},
			{
				"x": 1.0385053178,
				"y": 1.6214221562,
				"z": 0.2731123014,
				"element": "C" 
			},
			{
				"x": 0.7645390873,
				"y": 0.5232051321,
				"z": 1.0822455886,
				"element": "C" 
			},
			{
				"x": 0.6108625684,
				"y": 2.9223595003,
				"z": -1.7803483359,
				"element": "N" 
			},
			{
				"x": -0.0316110784,
				"y": 3.0253778142,
				"z": -2.8256642153,
				"element": "O" 
			},
			{
				"x": 1.4726449181,
				"y": 3.7184524168,
				"z": -1.4066746352,
				"element": "O" 
			},
			{
				"x": -0.8640806885,
				"y": -2.4582326882,
				"z": 1.048662778,
				"element": "H" 
			},
			{
				"x": -1.3097417994,
				"y": -1.3355220298,
				"z": 2.334833773,
				"element": "H" 
			},
			{
				"x": 0.3586278911,
				"y": -1.8944300214,
				"z": 2.202640786,
				"element": "H" 
			},
			{
				"x": -1.6496110052,
				"y": -0.9696036387,
				"z": -0.7868324848,
				"element": "H" 
			},
			{
				"x": -1.1670261182,
				"y": 0.9962118091,
				"z": -2.2459511747,
				"element": "H" 
			},
			{
				"x": 1.7865317104,
				"y": 2.3572231507,
				"z": 0.5405443212,
				"element": "H" 
			},
			{
				"x": 1.3151802954,
				"y": 0.3966217408,
				"z": 2.0103080485,
				"element": "H" 
			}
		],
		 "valence_orbital": [ 
			{
				"type": "occ",
				"energy": -0.30573,
				"method": "rhf"
			},
			{
				"type": "occ",
				"energy": -0.30318,
				"method": "rhf"
			},
			{
				"type": "occ",
				"energy": -0.28667,
				"method": "rhf"
			},
			{
				"type": "occ",
				"energy": -0.27574,
				"method": "rhf"
			},
			{
				"type": "occ",
				"energy": -0.27028,
				"method": "rhf"
			},
			{
				"type": "unocc",
				"energy": -0.08491,
				"method": "rhf"
			},
			{
				"type": "unocc",
				"energy": -0.02553,
				"method": "rhf"
			},
			{
				"type": "unocc",
				"energy": 0.00364,
				"method": "rhf"
			},
			{
				"type": "unocc",
				"energy": 0.07854,
				"method": "rhf"
			},
			{
				"type": "unocc",
				"energy": 0.10804,
				"method": "rhf"
			}
		],
		"cosmo_sigma_profile": { 
			"-0.025": 0.0,
			"-0.024": 0.0,
			"-0.023": 0.0,
			"-0.022": 0.0,
			"-0.021": 0.0,
			"-0.02": 0.0,
			"-0.019": 0.0,
			"-0.018": 0.0,
			"-0.017": 0.0,
			"-0.016": 0.0,
			"-0.015": 0.0,
			"-0.014": 0.0,
			"-0.013": 0.0,
			"-0.012": 0.0,
			"-0.011": 0.0,
			"-0.01": 0.0,
			"-0.009": 0.0,
			"-0.008": 0.243311139907,
			"-0.007": 4.04483864146,
			"-0.006": 10.4085877377,
			"-0.005": 15.9712520536,
			"-0.004": 12.9871848569,
			"-0.003": 13.6347478688,
			"-0.002": 14.6815420666,
			"-0.001": 17.8509645535,
			"0.0": 15.2491243573,
			"0.001": 11.726424322,
			"0.002": 14.4377646567,
			"0.003": 8.2659165827,
			"0.004": 2.46398214298,
			"0.005": 3.17321077067,
			"0.006": 3.00489574458,
			"0.007": 6.74208140228,
			"0.008": 8.78426137477,
			"0.009": 4.98516891657,
			"0.01": 3.36053766672,
			"0.011": 0.614383100126,
			"0.012": 0.0,
			"0.013": 0.0,
			"0.014": 0.0,
			"0.015": 0.0,
			"0.016": 0.0,
			"0.017": 0.0,
			"0.018": 0.0,
			"0.019": 0.0,
			"0.02": 0.0,
			"0.021": 0.0,
			"0.022": 0.0,
			"0.023": 0.0,
			"0.024": 0.0,
			"0.025": 0.0
		}
	}
}
