{
	 "smiles": "CC1(C)C2CCC1(C)C(=O)C2=CC1=CC=CC=C1", 
	 "Tm": 370.15, 
	 "num_atms": 38, 
	 "gaussian": { 
		 "optdone": 1, 
		 "sigma_profile": "yes", 
		 "theory": "DFT", 
		 "functional": "B3LYP", 
		 "basiset": "6-31G**", 
		 "properties": { 
			 "R2extent": 5323.425, 
			 "electric_dipole_moment_norm": 2.4447927724, 
			 "electric_quadrupole_moment_norm": 7.42030600986, 
			 "total_energy": -735.082691, 
			 "HOMO_LUMO_gap": 0.15657, 
			 "cosmo_polarized_energy": -7.83, 
			 "cosmo_cavitation_energy": 37.53, 
			 "cosmo_dispersion_energy": -26.45, 
			 "cosmo_repulsion_energy": 2.0, 
			 "cosmo_total_nonelectrostatic_energy": 13.07, 
			 "SMD_solvation_energy": 6.49 
		},
		"coords": [
			{
				"x": -3.2153440685,
				"y": 1.6924197254,
				"z": -1.6230582209,
				"element": "C" 
			},
			{
				"x": -1.7940500363,
				"y": 1.3160779278,
				"z": -1.1737082137,
				"element": "C" 
			},
			{
				"x": -0.8330067991,
				"y": 2.3926955466,
				"z": -1.7088810395,
				"element": "C" 
			},
			{
				"x": -1.6521220499,
				"y": 1.0690979492,
				"z": 0.3641280371,
				"element": "C" 
			},
			{
				"x": -2.5833971666,
				"y": -0.1530778593,
				"z": 0.6038401276,
				"element": "C" 
			},
			{
				"x": -2.3533787373,
				"y": -1.0077061841,
				"z": -0.6783733586,
				"element": "C" 
			},
			{
				"x": -1.3624406539,
				"y": -0.1502714522,
				"z": -1.5371412788,
				"element": "C" 
			},
			{
				"x": -1.2562068665,
				"y": -0.5611627817,
				"z": -2.9949748859,
				"element": "C" 
			},
			{
				"x": -0.0357975215,
				"y": -0.2619190913,
				"z": -0.7622871647,
				"element": "C" 
			},
			{
				"x": 0.9263294112,
				"y": -0.9193191818,
				"z": -1.1304770327,
				"element": "O" 
			},
			{
				"x": -0.2232794807,
				"y": 0.5513174191,
				"z": 0.4813682482,
				"element": "C" 
			},
			{
				"x": 0.5833039499,
				"y": 0.834484189,
				"z": 1.5330911007,
				"element": "C" 
			},
			{
				"x": 1.953995708,
				"y": 0.4774147199,
				"z": 1.9043012653,
				"element": "C" 
			},
			{
				"x": 2.4423714866,
				"y": 1.019184344,
				"z": 3.1134026064,
				"element": "C" 
			},
			{
				"x": 3.730128117,
				"y": 0.7450030303,
				"z": 3.5628470797,
				"element": "C" 
			},
			{
				"x": 4.5663476087,
				"y": -0.0829368128,
				"z": 2.8106435298,
				"element": "C" 
			},
			{
				"x": 4.0995051991,
				"y": -0.6284964698,
				"z": 1.6120098304,
				"element": "C" 
			},
			{
				"x": 2.8112694142,
				"y": -0.357140331,
				"z": 1.1568726582,
				"element": "C" 
			},
			{
				"x": -3.9785593299,
				"y": 0.9706132638,
				"z": -1.3258638888,
				"element": "H" 
			},
			{
				"x": -3.4978320036,
				"y": 2.6640957657,
				"z": -1.2015801443,
				"element": "H" 
			},
			{
				"x": -3.2587242503,
				"y": 1.7866708001,
				"z": -2.713487137,
				"element": "H" 
			},
			{
				"x": -1.1059709214,
				"y": 3.3768129517,
				"z": -1.3112660648,
				"element": "H" 
			},
			{
				"x": -0.8902473897,
				"y": 2.4546620342,
				"z": -2.8008259152,
				"element": "H" 
			},
			{
				"x": 0.2104908723,
				"y": 2.2086626844,
				"z": -1.4400567765,
				"element": "H" 
			},
			{
				"x": -1.8645917315,
				"y": 1.9303685691,
				"z": 1.0044966396,
				"element": "H" 
			},
			{
				"x": -2.3135032794,
				"y": -0.6854356366,
				"z": 1.5196635386,
				"element": "H" 
			},
			{
				"x": -3.6280393202,
				"y": 0.1565381086,
				"z": 0.7033359951,
				"element": "H" 
			},
			{
				"x": -1.9369607127,
				"y": -1.9964786117,
				"z": -0.4626500014,
				"element": "H" 
			},
			{
				"x": -3.2814448507,
				"y": -1.1695000827,
				"z": -1.2355391253,
				"element": "H" 
			},
			{
				"x": -0.8574790887,
				"y": -1.5768615733,
				"z": -3.073833138,
				"element": "H" 
			},
			{
				"x": -0.5760840333,
				"y": 0.0945125682,
				"z": -3.5476157983,
				"element": "H" 
			},
			{
				"x": -2.2344480808,
				"y": -0.5355892322,
				"z": -3.4860987653,
				"element": "H" 
			},
			{
				"x": 0.1159530504,
				"y": 1.4807677736,
				"z": 2.2790333734,
				"element": "H" 
			},
			{
				"x": 1.7951376886,
				"y": 1.6639926529,
				"z": 3.702996963,
				"element": "H" 
			},
			{
				"x": 4.0807827774,
				"y": 1.1750975554,
				"z": 4.4966710498,
				"element": "H" 
			},
			{
				"x": 5.5730290176,
				"y": -0.3010809292,
				"z": 3.1560080445,
				"element": "H" 
			},
			{
				"x": 4.7457736925,
				"y": -1.2736719466,
				"z": 1.0233568199,
				"element": "H" 
			},
			{
				"x": 2.454490379,
				"y": -0.7827414024,
				"z": 0.2270510423,
				"element": "H" 
			}
		],
		 "valence_orbital": [ 
			{
				"type": "occ",
				"energy": -0.29683,
				"method": "rhf"
			},
			{
				"type": "occ",
				"energy": -0.28847,
				"method": "rhf"
			},
			{
				"type": "occ",
				"energy": -0.2477,
				"method": "rhf"
			},
			{
				"type": "occ",
				"energy": -0.23334,
				"method": "rhf"
			},
			{
				"type": "occ",
				"energy": -0.22178,
				"method": "rhf"
			},
			{
				"type": "unocc",
				"energy": -0.06521,
				"method": "rhf"
			},
			{
				"type": "unocc",
				"energy": 0.00316,
				"method": "rhf"
			},
			{
				"type": "unocc",
				"energy": 0.01298,
				"method": "rhf"
			},
			{
				"type": "unocc",
				"energy": 0.07469,
				"method": "rhf"
			},
			{
				"type": "unocc",
				"energy": 0.08759,
				"method": "rhf"
			}
		],
		"cosmo_sigma_profile": { 
			"-0.025": 0.0,
			"-0.024": 0.0,
			"-0.023": 0.0,
			"-0.022": 0.0,
			"-0.021": 0.0,
			"-0.02": 0.0,
			"-0.019": 0.0,
			"-0.018": 0.0,
			"-0.017": 0.0,
			"-0.016": 0.0,
			"-0.015": 0.0,
			"-0.014": 0.0,
			"-0.013": 0.0,
			"-0.012": 0.0,
			"-0.011": 0.0,
			"-0.01": 0.0,
			"-0.009": 0.0,
			"-0.008": 0.0,
			"-0.007": 0.787194974645,
			"-0.006": 7.55349737768,
			"-0.005": 10.9214903144,
			"-0.004": 18.3607173675,
			"-0.003": 31.4998436998,
			"-0.002": 41.3989375152,
			"-0.001": 38.8297208974,
			"0.0": 32.92780567,
			"0.001": 32.8014256527,
			"0.002": 17.5100690896,
			"0.003": 17.0694655708,
			"0.004": 13.4873948335,
			"0.005": 14.2600477452,
			"0.006": 4.63761227789,
			"0.007": 1.62861921811,
			"0.008": 1.553781048,
			"0.009": 2.06837406218,
			"0.01": 2.12706091682,
			"0.011": 2.04537682194,
			"0.012": 2.14886688512,
			"0.013": 0.831797899615,
			"0.014": 0.0,
			"0.015": 0.0,
			"0.016": 0.0,
			"0.017": 0.0,
			"0.018": 0.0,
			"0.019": 0.0,
			"0.02": 0.0,
			"0.021": 0.0,
			"0.022": 0.0,
			"0.023": 0.0,
			"0.024": 0.0,
			"0.025": 0.0
		}
	}
}
