{
	 "smiles": "NC1=NC(CN2CCOCC2)=CC=C1", 
	 "Tm": 403.15, 
	 "num_atms": 29, 
	 "gaussian": { 
		 "optdone": 1, 
		 "sigma_profile": "yes", 
		 "theory": "DFT", 
		 "functional": "B3LYP", 
		 "basiset": "6-31G**", 
		 "properties": { 
			 "R2extent": 3275.1978, 
			 "electric_dipole_moment_norm": 3.42016072868, 
			 "electric_quadrupole_moment_norm": 15.5486676957, 
			 "total_energy": -629.562433844, 
			 "HOMO_LUMO_gap": 0.16548, 
			 "cosmo_polarized_energy": -11.97, 
			 "cosmo_cavitation_energy": 30.17, 
			 "cosmo_dispersion_energy": -21.75, 
			 "cosmo_repulsion_energy": 1.72, 
			 "cosmo_total_nonelectrostatic_energy": 10.14, 
			 "SMD_solvation_energy": 1.92 
		},
		"coords": [
			{
				"x": 1.1544749561,
				"y": 1.0778291044,
				"z": -4.2840590297,
				"element": "N" 
			},
			{
				"x": 1.0665665203,
				"y": 1.5469520281,
				"z": -2.986246069,
				"element": "C" 
			},
			{
				"x": 1.620894677,
				"y": 0.7752464976,
				"z": -2.040437865,
				"element": "N" 
			},
			{
				"x": 1.5176464223,
				"y": 1.1526580733,
				"z": -0.7534532614,
				"element": "C" 
			},
			{
				"x": 2.1548336784,
				"y": 0.2199065084,
				"z": 0.2735766934,
				"element": "C" 
			},
			{
				"x": 1.4327453367,
				"y": -0.9819737002,
				"z": 0.6772931965,
				"element": "N" 
			},
			{
				"x": 1.3160846726,
				"y": -2.0854114476,
				"z": -0.2761638642,
				"element": "C" 
			},
			{
				"x": -0.0118651696,
				"y": -2.0900063951,
				"z": -1.0438967944,
				"element": "C" 
			},
			{
				"x": -1.1173731313,
				"y": -2.0293549931,
				"z": -0.1429778012,
				"element": "O" 
			},
			{
				"x": -1.0645556187,
				"y": -0.8488551571,
				"z": 0.6508689559,
				"element": "C" 
			},
			{
				"x": 0.2243359531,
				"y": -0.8227373114,
				"z": 1.4821498485,
				"element": "C" 
			},
			{
				"x": 0.8768616569,
				"y": 2.3315014757,
				"z": -0.3665809413,
				"element": "C" 
			},
			{
				"x": 0.3085723937,
				"y": 3.1371058428,
				"z": -1.3599602662,
				"element": "C" 
			},
			{
				"x": 0.3930840685,
				"y": 2.7509552425,
				"z": -2.6878799247,
				"element": "C" 
			},
			{
				"x": 1.1077577976,
				"y": 1.75810729,
				"z": -5.0276493234,
				"element": "H" 
			},
			{
				"x": 1.8462999813,
				"y": 0.3528959788,
				"z": -4.4128661167,
				"element": "H" 
			},
			{
				"x": 2.3592536673,
				"y": 0.7966918378,
				"z": 1.1846087903,
				"element": "H" 
			},
			{
				"x": 3.1210036382,
				"y": -0.1016797953,
				"z": -0.1323324442,
				"element": "H" 
			},
			{
				"x": 2.1555639483,
				"y": -2.0459435018,
				"z": -0.9769194659,
				"element": "H" 
			},
			{
				"x": 1.3850292903,
				"y": -3.0301497695,
				"z": 0.2854290665,
				"element": "H" 
			},
			{
				"x": -0.1277503946,
				"y": -3.0218400058,
				"z": -1.607936159,
				"element": "H" 
			},
			{
				"x": -0.0474429534,
				"y": -1.2464030048,
				"z": -1.747736654,
				"element": "H" 
			},
			{
				"x": -1.1286032824,
				"y": 0.0451916906,
				"z": 0.0100767493,
				"element": "H" 
			},
			{
				"x": -1.946024098,
				"y": -0.8731184927,
				"z": 1.301101782,
				"element": "H" 
			},
			{
				"x": 0.2913753899,
				"y": 0.105759887,
				"z": 2.0607397202,
				"element": "H" 
			},
			{
				"x": 0.1752708783,
				"y": -1.6565133274,
				"z": 2.1994208505,
				"element": "H" 
			},
			{
				"x": 0.8319822815,
				"y": 2.616370383,
				"z": 0.6795588368,
				"element": "H" 
			},
			{
				"x": -0.1948327101,
				"y": 4.0632314886,
				"z": -1.0956000374,
				"element": "H" 
			},
			{
				"x": -0.0434898504,
				"y": 3.3503835731,
				"z": -3.4810284721,
				"element": "H" 
			}
		],
		 "valence_orbital": [ 
			{
				"type": "occ",
				"energy": -0.27347,
				"method": "rhf"
			},
			{
				"type": "occ",
				"energy": -0.26439,
				"method": "rhf"
			},
			{
				"type": "occ",
				"energy": -0.24501,
				"method": "rhf"
			},
			{
				"type": "occ",
				"energy": -0.21492,
				"method": "rhf"
			},
			{
				"type": "occ",
				"energy": -0.18379,
				"method": "rhf"
			},
			{
				"type": "unocc",
				"energy": -0.01831,
				"method": "rhf"
			},
			{
				"type": "unocc",
				"energy": 0.00825,
				"method": "rhf"
			},
			{
				"type": "unocc",
				"energy": 0.08045,
				"method": "rhf"
			},
			{
				"type": "unocc",
				"energy": 0.09539,
				"method": "rhf"
			},
			{
				"type": "unocc",
				"energy": 0.11204,
				"method": "rhf"
			}
		],
		"cosmo_sigma_profile": { 
			"-0.025": 0.0,
			"-0.024": 0.0,
			"-0.023": 0.0,
			"-0.022": 0.0,
			"-0.021": 0.0,
			"-0.02": 0.0,
			"-0.019": 0.0,
			"-0.018": 0.0,
			"-0.017": 0.0,
			"-0.016": 0.0,
			"-0.015": 0.0,
			"-0.014": 0.0,
			"-0.013": 1.00991336746,
			"-0.012": 2.12987577676,
			"-0.011": 2.71527063755,
			"-0.01": 2.36385760261,
			"-0.009": 2.76545867291,
			"-0.008": 2.20828773697,
			"-0.007": 2.73643817196,
			"-0.006": 5.25792862761,
			"-0.005": 11.8065834943,
			"-0.004": 20.9129801754,
			"-0.003": 24.2428954079,
			"-0.002": 22.8448117662,
			"-0.001": 24.0795069955,
			"0.0": 19.3212354111,
			"0.001": 13.4389528896,
			"0.002": 11.7680978408,
			"0.003": 12.5374070731,
			"0.004": 14.3373042739,
			"0.005": 8.55433203179,
			"0.006": 4.3391478042,
			"0.007": 3.75122261309,
			"0.008": 5.3268124942,
			"0.009": 3.42965411756,
			"0.01": 3.579141305,
			"0.011": 2.15962913259,
			"0.012": 2.57700556156,
			"0.013": 3.71513396991,
			"0.014": 2.08516252671,
			"0.015": 0.0199708497616,
			"0.016": 0.0,
			"0.017": 0.0,
			"0.018": 0.0,
			"0.019": 0.0,
			"0.02": 0.0,
			"0.021": 0.0,
			"0.022": 0.0,
			"0.023": 0.0,
			"0.024": 0.0,
			"0.025": 0.0
		}
	}
}
