{
	 "smiles": "COC1=NC(N)=NC(C)=C1", 
	 "Tm": 434.15, 
	 "num_atms": 19, 
	 "gaussian": { 
		 "optdone": 1, 
		 "sigma_profile": "yes", 
		 "theory": "DFT", 
		 "functional": "B3LYP", 
		 "basiset": "6-31G**", 
		 "properties": { 
			 "R2extent": 1607.3152, 
			 "electric_dipole_moment_norm": 1.34893738921, 
			 "electric_quadrupole_moment_norm": 6.56779178415, 
			 "total_energy": -473.562866336, 
			 "HOMO_LUMO_gap": 0.20877, 
			 "cosmo_polarized_energy": -9.35, 
			 "cosmo_cavitation_energy": 22.98, 
			 "cosmo_dispersion_energy": -17.3, 
			 "cosmo_repulsion_energy": 1.44, 
			 "cosmo_total_nonelectrostatic_energy": 7.12, 
			 "SMD_solvation_energy": 2.68 
		},
		"coords": [
			{
				"x": 0.5437748531,
				"y": -2.2970044977,
				"z": 1.9990350409,
				"element": "C" 
			},
			{
				"x": -0.658288351,
				"y": -1.6238578425,
				"z": 1.6112622148,
				"element": "O" 
			},
			{
				"x": -0.5411082611,
				"y": -0.5993963546,
				"z": 0.7457077799,
				"element": "C" 
			},
			{
				"x": 0.6579469216,
				"y": -0.2647273545,
				"z": 0.2887719156,
				"element": "N" 
			},
			{
				"x": 0.6795520077,
				"y": 0.77425108,
				"z": -0.5752199859,
				"element": "C" 
			},
			{
				"x": 1.9144261291,
				"y": 1.1611787058,
				"z": -1.0196731432,
				"element": "N" 
			},
			{
				"x": -0.3713673521,
				"y": 1.4754422772,
				"z": -1.0174448904,
				"element": "N" 
			},
			{
				"x": -1.5746630457,
				"y": 1.1098214859,
				"z": -0.5325525223,
				"element": "C" 
			},
			{
				"x": -2.7559562664,
				"y": 1.9013765252,
				"z": -1.0279963018,
				"element": "C" 
			},
			{
				"x": -1.7216531007,
				"y": 0.0638252481,
				"z": 0.36976792,
				"element": "C" 
			},
			{
				"x": 1.041167789,
				"y": -2.7447995879,
				"z": 1.1340953385,
				"element": "H" 
			},
			{
				"x": 0.2272041331,
				"y": -3.0726348064,
				"z": 2.6976109185,
				"element": "H" 
			},
			{
				"x": 1.24144386,
				"y": -1.6089481253,
				"z": 2.4843897876,
				"element": "H" 
			},
			{
				"x": 2.6721443026,
				"y": 0.5090462546,
				"z": -0.8969122026,
				"element": "H" 
			},
			{
				"x": 1.9331803477,
				"y": 1.7723822066,
				"z": -1.8203623171,
				"element": "H" 
			},
			{
				"x": -2.8145923893,
				"y": 1.8445846667,
				"z": -2.119818828,
				"element": "H" 
			},
			{
				"x": -2.6334851634,
				"y": 2.9585608501,
				"z": -0.7705469144,
				"element": "H" 
			},
			{
				"x": -3.695336918,
				"y": 1.5400104655,
				"z": -0.6029538653,
				"element": "H" 
			},
			{
				"x": -2.681189496,
				"y": -0.2424111968,
				"z": 0.7657400551,
				"element": "H" 
			}
		],
		 "valence_orbital": [ 
			{
				"type": "occ",
				"energy": -0.30164,
				"method": "rhf"
			},
			{
				"type": "occ",
				"energy": -0.29406,
				"method": "rhf"
			},
			{
				"type": "occ",
				"energy": -0.26444,
				"method": "rhf"
			},
			{
				"type": "occ",
				"energy": -0.24364,
				"method": "rhf"
			},
			{
				"type": "occ",
				"energy": -0.21474,
				"method": "rhf"
			},
			{
				"type": "unocc",
				"energy": -0.00597,
				"method": "rhf"
			},
			{
				"type": "unocc",
				"energy": 0.01693,
				"method": "rhf"
			},
			{
				"type": "unocc",
				"energy": 0.09688,
				"method": "rhf"
			},
			{
				"type": "unocc",
				"energy": 0.12035,
				"method": "rhf"
			},
			{
				"type": "unocc",
				"energy": 0.12234,
				"method": "rhf"
			}
		],
		"cosmo_sigma_profile": { 
			"-0.025": 0.0,
			"-0.024": 0.0,
			"-0.023": 0.0,
			"-0.022": 0.0,
			"-0.021": 0.0,
			"-0.02": 0.0,
			"-0.019": 0.0,
			"-0.018": 0.0,
			"-0.017": 0.0,
			"-0.016": 0.0,
			"-0.015": 0.0,
			"-0.014": 0.185347933516,
			"-0.013": 1.65542736713,
			"-0.012": 2.19290525455,
			"-0.011": 2.2814735517,
			"-0.01": 1.48078632341,
			"-0.009": 2.08553079369,
			"-0.008": 1.33691192966,
			"-0.007": 2.00060809541,
			"-0.006": 5.95320362591,
			"-0.005": 11.8123137019,
			"-0.004": 14.3530590572,
			"-0.003": 16.4033262885,
			"-0.002": 12.8720543361,
			"-0.001": 13.3023249494,
			"0.0": 16.5284183773,
			"0.001": 13.1636316572,
			"0.002": 12.1908740941,
			"0.003": 10.3252982412,
			"0.004": 7.19438156861,
			"0.005": 5.85406515563,
			"0.006": 6.15845146749,
			"0.007": 4.25850968282,
			"0.008": 5.60461386867,
			"0.009": 3.94249474762,
			"0.01": 3.29517608164,
			"0.011": 1.49104864961,
			"0.012": 1.06357806142,
			"0.013": 0.74000243685,
			"0.014": 1.08622916389,
			"0.015": 0.628911143084,
			"0.016": 0.229671380873,
			"0.017": 0.0,
			"0.018": 0.0,
			"0.019": 0.0,
			"0.02": 0.0,
			"0.021": 0.0,
			"0.022": 0.0,
			"0.023": 0.0,
			"0.024": 0.0,
			"0.025": 0.0
		}
	}
}
