{
	 "smiles": "COC1=C(C=CC=C1)S(N)(=O)=O", 
	 "Tm": 443.15, 
	 "num_atms": 21, 
	 "gaussian": { 
		 "optdone": 1, 
		 "sigma_profile": "yes", 
		 "theory": "DFT", 
		 "functional": "B3LYP", 
		 "basiset": "6-31G**", 
		 "properties": { 
			 "R2extent": 3209.9808, 
			 "electric_dipole_moment_norm": 5.74189894895, 
			 "electric_quadrupole_moment_norm": 21.0219059379, 
			 "total_energy": -950.694934839, 
			 "HOMO_LUMO_gap": 0.22068, 
			 "cosmo_polarized_energy": -16.29, 
			 "cosmo_cavitation_energy": 25.64, 
			 "cosmo_dispersion_energy": -19.44, 
			 "cosmo_repulsion_energy": 1.49, 
			 "cosmo_total_nonelectrostatic_energy": 7.69, 
			 "SMD_solvation_energy": 4.78 
		},
		"coords": [
			{
				"x": -1.1496582602,
				"y": -1.5447380593,
				"z": 0.0599123636,
				"element": "C" 
			},
			{
				"x": -0.1511811333,
				"y": -0.629341992,
				"z": 0.5498802993,
				"element": "O" 
			},
			{
				"x": 0.6204929668,
				"y": -0.024152807,
				"z": -0.4173591064,
				"element": "C" 
			},
			{
				"x": 1.9519844627,
				"y": -0.429018913,
				"z": -0.5939557944,
				"element": "C" 
			},
			{
				"x": 2.7792231437,
				"y": 0.2246600876,
				"z": -1.5082330041,
				"element": "C" 
			},
			{
				"x": 2.2722340209,
				"y": 1.282703704,
				"z": -2.2629345826,
				"element": "C" 
			},
			{
				"x": 0.9459415208,
				"y": 1.6860894867,
				"z": -2.0928952917,
				"element": "C" 
			},
			{
				"x": 0.1218380953,
				"y": 1.0411244548,
				"z": -1.1691385719,
				"element": "C" 
			},
			{
				"x": 2.5970681607,
				"y": -1.837615784,
				"z": 0.3237335293,
				"element": "S" 
			},
			{
				"x": 2.3517733385,
				"y": -1.4898409465,
				"z": 1.9458317799,
				"element": "N" 
			},
			{
				"x": 4.0456684921,
				"y": -1.8603593111,
				"z": 0.1197569401,
				"element": "O" 
			},
			{
				"x": 1.7562101118,
				"y": -2.9925821962,
				"z": 0.0082747471,
				"element": "O" 
			},
			{
				"x": -1.7205851112,
				"y": -1.8639838771,
				"z": 0.9330593119,
				"element": "H" 
			},
			{
				"x": -1.8185614352,
				"y": -1.0463046278,
				"z": -0.6503492806,
				"element": "H" 
			},
			{
				"x": -0.6698713814,
				"y": -2.4085541854,
				"z": -0.4080705455,
				"element": "H" 
			},
			{
				"x": 3.8058082557,
				"y": -0.1088102753,
				"z": -1.6149672737,
				"element": "H" 
			},
			{
				"x": 2.9111667861,
				"y": 1.7915118567,
				"z": -2.9776529692,
				"element": "H" 
			},
			{
				"x": 0.5516028689,
				"y": 2.5148250426,
				"z": -2.6734661538,
				"element": "H" 
			},
			{
				"x": -0.902463689,
				"y": 1.3636522057,
				"z": -1.0104593568,
				"element": "H" 
			},
			{
				"x": 2.9783582166,
				"y": -0.7554731926,
				"z": 2.262592066,
				"element": "H" 
			},
			{
				"x": 1.3717505696,
				"y": -1.2704906708,
				"z": 2.1146408935,
				"element": "H" 
			}
		],
		 "valence_orbital": [ 
			{
				"type": "occ",
				"energy": -0.30693,
				"method": "rhf"
			},
			{
				"type": "occ",
				"energy": -0.29886,
				"method": "rhf"
			},
			{
				"type": "occ",
				"energy": -0.2908,
				"method": "rhf"
			},
			{
				"type": "occ",
				"energy": -0.27211,
				"method": "rhf"
			},
			{
				"type": "occ",
				"energy": -0.25905,
				"method": "rhf"
			},
			{
				"type": "unocc",
				"energy": -0.03837,
				"method": "rhf"
			},
			{
				"type": "unocc",
				"energy": -0.02297,
				"method": "rhf"
			},
			{
				"type": "unocc",
				"energy": 0.05919,
				"method": "rhf"
			},
			{
				"type": "unocc",
				"energy": 0.06674,
				"method": "rhf"
			},
			{
				"type": "unocc",
				"energy": 0.08469,
				"method": "rhf"
			}
		],
		"cosmo_sigma_profile": { 
			"-0.025": 0.0,
			"-0.024": 0.0,
			"-0.023": 0.0,
			"-0.022": 0.0,
			"-0.021": 0.0,
			"-0.02": 0.0,
			"-0.019": 0.0,
			"-0.018": 0.0,
			"-0.017": 0.0,
			"-0.016": 0.120899016089,
			"-0.015": 1.28757678795,
			"-0.014": 1.18445618624,
			"-0.013": 1.40475907952,
			"-0.012": 2.12913395806,
			"-0.011": 2.405448854,
			"-0.01": 1.65040893187,
			"-0.009": 1.14457421954,
			"-0.008": 2.20519209424,
			"-0.007": 7.18639239688,
			"-0.006": 14.6848043058,
			"-0.005": 15.2771364118,
			"-0.004": 14.7688668585,
			"-0.003": 15.4022585842,
			"-0.002": 13.898990467,
			"-0.001": 9.7193994114,
			"0.0": 9.93256852212,
			"0.001": 11.3137587388,
			"0.002": 15.3356843352,
			"0.003": 12.7180758434,
			"0.004": 5.06201600289,
			"0.005": 4.2442923706,
			"0.006": 4.54065254633,
			"0.007": 4.19232060344,
			"0.008": 5.6898146129,
			"0.009": 4.37626427076,
			"0.01": 7.81568816436,
			"0.011": 9.09391627283,
			"0.012": 5.07907022349,
			"0.013": 0.426819702594,
			"0.014": 0.022617768163,
			"0.015": 0.0,
			"0.016": 0.0,
			"0.017": 0.0,
			"0.018": 0.0,
			"0.019": 0.0,
			"0.02": 0.0,
			"0.021": 0.0,
			"0.022": 0.0,
			"0.023": 0.0,
			"0.024": 0.0,
			"0.025": 0.0
		}
	}
}
