{
	 "smiles": "COC1=CC=C(NCC(NC2=CC=C(OC)C=C2)=NC2=CC=C(OC)C=C2)C=C1", 
	 "Tm": 431.15, 
	 "num_atms": 54, 
	 "gaussian": { 
		 "optdone": 1, 
		 "sigma_profile": "yes", 
		 "theory": "DFT", 
		 "functional": "B3LYP", 
		 "basiset": "6-31G**", 
		 "properties": { 
			 "R2extent": 19436.2179, 
			 "electric_dipole_moment_norm": 4.17601159242, 
			 "electric_quadrupole_moment_norm": 23.8525549566, 
			 "total_energy": -1281.39310252, 
			 "HOMO_LUMO_gap": 0.15201, 
			 "cosmo_polarized_energy": -21.1, 
			 "cosmo_cavitation_energy": 57.69, 
			 "cosmo_dispersion_energy": -39.57, 
			 "cosmo_repulsion_energy": 3.03, 
			 "cosmo_total_nonelectrostatic_energy": 21.15, 
			 "SMD_solvation_energy": 9.64 
		},
		"coords": [
			{
				"x": -6.7489624789,
				"y": -0.2190297038,
				"z": -5.9820153518,
				"element": "C" 
			},
			{
				"x": -5.4063070306,
				"y": -0.6423935025,
				"z": -6.1129139341,
				"element": "O" 
			},
			{
				"x": -4.5280547774,
				"y": -0.2979309472,
				"z": -5.1141433958,
				"element": "C" 
			},
			{
				"x": -3.205574568,
				"y": -0.736592974,
				"z": -5.2831777876,
				"element": "C" 
			},
			{
				"x": -2.2381671138,
				"y": -0.4453921328,
				"z": -4.3355606338,
				"element": "C" 
			},
			{
				"x": -2.5506442367,
				"y": 0.2957414116,
				"z": -3.1751168974,
				"element": "C" 
			},
			{
				"x": -1.5428357824,
				"y": 0.598481769,
				"z": -2.2627999775,
				"element": "N" 
			},
			{
				"x": -1.8491587286,
				"y": 0.9990092437,
				"z": -0.9171668577,
				"element": "C" 
			},
			{
				"x": -0.6361255514,
				"y": 0.8197405447,
				"z": -0.0061455939,
				"element": "C" 
			},
			{
				"x": -0.7531393815,
				"y": 1.5440471069,
				"z": 1.1691731971,
				"element": "N" 
			},
			{
				"x": -0.2483646241,
				"y": 1.2510030048,
				"z": 2.4619829668,
				"element": "C" 
			},
			{
				"x": 0.0121420741,
				"y": -0.0521906399,
				"z": 2.8919779724,
				"element": "C" 
			},
			{
				"x": 0.4710037096,
				"y": -0.2957648384,
				"z": 4.1884364013,
				"element": "C" 
			},
			{
				"x": 0.6515510603,
				"y": 0.7656582239,
				"z": 5.0816329096,
				"element": "C" 
			},
			{
				"x": 1.0873860633,
				"y": 0.6373730381,
				"z": 6.3697265727,
				"element": "O" 
			},
			{
				"x": 1.3997266042,
				"y": -0.6622416943,
				"z": 6.8433103281,
				"element": "C" 
			},
			{
				"x": 0.3724436682,
				"y": 2.0735702104,
				"z": 4.6589184458,
				"element": "C" 
			},
			{
				"x": -0.0618620456,
				"y": 2.3114560329,
				"z": 3.3627628303,
				"element": "C" 
			},
			{
				"x": 0.2926237013,
				"y": 0.0299166711,
				"z": -0.405791548,
				"element": "N" 
			},
			{
				"x": 1.5638751304,
				"y": -0.1515547388,
				"z": 0.1618084551,
				"element": "C" 
			},
			{
				"x": 2.368888812,
				"y": 0.9053106376,
				"z": 0.6332396018,
				"element": "C" 
			},
			{
				"x": 3.6605621493,
				"y": 0.6699274585,
				"z": 1.0818131758,
				"element": "C" 
			},
			{
				"x": 4.1883225021,
				"y": -0.6297028364,
				"z": 1.087376454,
				"element": "C" 
			},
			{
				"x": 5.4669027754,
				"y": -0.7516009664,
				"z": 1.5602231897,
				"element": "O" 
			},
			{
				"x": 6.0559943669,
				"y": -2.0396110684,
				"z": 1.5619462863,
				"element": "C" 
			},
			{
				"x": 3.4055073408,
				"y": -1.6894206487,
				"z": 0.6166020196,
				"element": "C" 
			},
			{
				"x": 2.115049152,
				"y": -1.4396051093,
				"z": 0.145265748,
				"element": "C" 
			},
			{
				"x": -3.8746673081,
				"y": 0.7297566662,
				"z": -3.01691098,
				"element": "C" 
			},
			{
				"x": -4.8543693261,
				"y": 0.4382084171,
				"z": -3.9755475792,
				"element": "C" 
			},
			{
				"x": -7.2739374589,
				"y": -0.5890393923,
				"z": -6.8648539945,
				"element": "H" 
			},
			{
				"x": -7.2235796967,
				"y": -0.6350559772,
				"z": -5.0823062053,
				"element": "H" 
			},
			{
				"x": -6.8314145832,
				"y": 0.8763383371,
				"z": -5.9489439149,
				"element": "H" 
			},
			{
				"x": -2.9593328938,
				"y": -1.309826177,
				"z": -6.1714737438,
				"element": "H" 
			},
			{
				"x": -1.2180189744,
				"y": -0.7903351975,
				"z": -4.4854229309,
				"element": "H" 
			},
			{
				"x": -0.721242142,
				"y": 0.0014766183,
				"z": -2.2785637775,
				"element": "H" 
			},
			{
				"x": -2.1648798716,
				"y": 2.0555765333,
				"z": -0.8797808651,
				"element": "H" 
			},
			{
				"x": -2.6856587514,
				"y": 0.4192606201,
				"z": -0.4824562045,
				"element": "H" 
			},
			{
				"x": -1.4785713082,
				"y": 2.2479707431,
				"z": 1.1549071901,
				"element": "H" 
			},
			{
				"x": -0.1383235084,
				"y": -0.8852607222,
				"z": 2.215716712,
				"element": "H" 
			},
			{
				"x": 0.6740128776,
				"y": -1.3171896746,
				"z": 4.4868604427,
				"element": "H" 
			},
			{
				"x": 1.7343701642,
				"y": -0.5357975041,
				"z": 7.8741491723,
				"element": "H" 
			},
			{
				"x": 2.2044019162,
				"y": -1.1247314326,
				"z": 6.2570147926,
				"element": "H" 
			},
			{
				"x": 0.522134717,
				"y": -1.32195191,
				"z": 6.8285849286,
				"element": "H" 
			},
			{
				"x": 0.5155779307,
				"y": 2.8887335028,
				"z": 5.3603783136,
				"element": "H" 
			},
			{
				"x": -0.2562236143,
				"y": 3.3305376219,
				"z": 3.0381882616,
				"element": "H" 
			},
			{
				"x": 1.9789195305,
				"y": 1.9176454829,
				"z": 0.6314671144,
				"element": "H" 
			},
			{
				"x": 4.2851284613,
				"y": 1.4828844876,
				"z": 1.438138972,
				"element": "H" 
			},
			{
				"x": 5.4990942711,
				"y": -2.7420365134,
				"z": 2.1967506647,
				"element": "H" 
			},
			{
				"x": 7.0616169941,
				"y": -1.913070221,
				"z": 1.9667939131,
				"element": "H" 
			},
			{
				"x": 6.126241319,
				"y": -2.4568540735,
				"z": 0.548560597,
				"element": "H" 
			},
			{
				"x": 3.7895669675,
				"y": -2.7026408431,
				"z": 0.5948632701,
				"element": "H" 
			},
			{
				"x": 1.5139816844,
				"y": -2.2542482748,
				"z": -0.2474606583,
				"element": "H" 
			},
			{
				"x": -4.1588115678,
				"y": 1.3126407426,
				"z": -2.146909075,
				"element": "H" 
			},
			{
				"x": -5.8647986197,
				"y": 0.7951045881,
				"z": -3.8120089927,
				"element": "H" 
			}
		],
		 "valence_orbital": [ 
			{
				"type": "occ",
				"energy": -0.24319,
				"method": "rhf"
			},
			{
				"type": "occ",
				"energy": -0.23552,
				"method": "rhf"
			},
			{
				"type": "occ",
				"energy": -0.20514,
				"method": "rhf"
			},
			{
				"type": "occ",
				"energy": -0.19068,
				"method": "rhf"
			},
			{
				"type": "occ",
				"energy": -0.17038,
				"method": "rhf"
			},
			{
				"type": "unocc",
				"energy": -0.01837,
				"method": "rhf"
			},
			{
				"type": "unocc",
				"energy": -0.00754,
				"method": "rhf"
			},
			{
				"type": "unocc",
				"energy": 0.00476,
				"method": "rhf"
			},
			{
				"type": "unocc",
				"energy": 0.0127,
				"method": "rhf"
			},
			{
				"type": "unocc",
				"energy": 0.02287,
				"method": "rhf"
			}
		],
		"cosmo_sigma_profile": { 
			"-0.025": 0.0,
			"-0.024": 0.0,
			"-0.023": 0.0,
			"-0.022": 0.0,
			"-0.021": 0.0,
			"-0.02": 0.0,
			"-0.019": 0.0,
			"-0.018": 0.0,
			"-0.017": 0.0,
			"-0.016": 0.0,
			"-0.015": 0.285814818071,
			"-0.014": 1.14681514495,
			"-0.013": 1.328344349,
			"-0.012": 1.73201269378,
			"-0.011": 1.32108362129,
			"-0.01": 1.18708837524,
			"-0.009": 2.09953948542,
			"-0.008": 2.59413348374,
			"-0.007": 4.45537852002,
			"-0.006": 16.9447563487,
			"-0.005": 49.2664526976,
			"-0.004": 48.1903536849,
			"-0.003": 49.1538309454,
			"-0.002": 31.624815906,
			"-0.001": 26.5666745934,
			"0.0": 20.8157805693,
			"0.001": 22.1571868527,
			"0.002": 22.7761095924,
			"0.003": 23.188646091,
			"0.004": 28.6358012137,
			"0.005": 33.1721793118,
			"0.006": 27.3557830385,
			"0.007": 18.7469619727,
			"0.008": 7.3298219437,
			"0.009": 6.01961490373,
			"0.01": 5.0035354989,
			"0.011": 3.84732303032,
			"0.012": 0.811826692964,
			"0.013": 0.101623701739,
			"0.014": 0.0,
			"0.015": 0.0,
			"0.016": 0.0,
			"0.017": 0.0,
			"0.018": 0.0,
			"0.019": 0.0,
			"0.02": 0.0,
			"0.021": 0.0,
			"0.022": 0.0,
			"0.023": 0.0,
			"0.024": 0.0,
			"0.025": 0.0
		}
	}
}
