{
	 "smiles": "CC1CC(C)CN(C1)S(=O)(=O)C1=CC=C(N)C=C1", 
	 "Tm": 431.15, 
	 "num_atms": 38, 
	 "gaussian": { 
		 "optdone": 1, 
		 "sigma_profile": "yes", 
		 "theory": "DFT", 
		 "functional": "B3LYP", 
		 "basiset": "6-31G**", 
		 "properties": { 
			 "R2extent": 6002.5151, 
			 "electric_dipole_moment_norm": 6.71400141346, 
			 "electric_quadrupole_moment_norm": 27.1653798508, 
			 "total_energy": -1165.51867877, 
			 "HOMO_LUMO_gap": 0.20004, 
			 "cosmo_polarized_energy": -18.84, 
			 "cosmo_cavitation_energy": 39.67, 
			 "cosmo_dispersion_energy": -27.48, 
			 "cosmo_repulsion_energy": 2.09, 
			 "cosmo_total_nonelectrostatic_energy": 14.28, 
			 "SMD_solvation_energy": 4.94 
		},
		"coords": [
			{
				"x": -2.2365557424,
				"y": 1.1530737682,
				"z": 0.2187676013,
				"element": "C" 
			},
			{
				"x": -1.0943172369,
				"y": 1.3759260373,
				"z": -0.7807587713,
				"element": "C" 
			},
			{
				"x": 0.0063691204,
				"y": 2.2658790916,
				"z": -0.1623708251,
				"element": "C" 
			},
			{
				"x": 1.3537158249,
				"y": 2.1579170438,
				"z": -0.8976138934,
				"element": "C" 
			},
			{
				"x": 1.2993566271,
				"y": 2.7390161882,
				"z": -2.3199330095,
				"element": "C" 
			},
			{
				"x": 1.8562350029,
				"y": 0.6825569456,
				"z": -0.8832851381,
				"element": "C" 
			},
			{
				"x": 0.7518361666,
				"y": -0.2366694287,
				"z": -0.5192534596,
				"element": "N" 
			},
			{
				"x": -0.4868823918,
				"y": 0.0332155478,
				"z": -1.2678451701,
				"element": "C" 
			},
			{
				"x": 1.2160057535,
				"y": -1.8731347109,
				"z": -0.4590079676,
				"element": "S" 
			},
			{
				"x": 2.5339903942,
				"y": -1.8826509115,
				"z": 0.1870788212,
				"element": "O" 
			},
			{
				"x": 1.0324770073,
				"y": -2.5252119874,
				"z": -1.7663828023,
				"element": "O" 
			},
			{
				"x": 0.0021874028,
				"y": -2.5535052257,
				"z": 0.6554432673,
				"element": "C" 
			},
			{
				"x": -0.0028319012,
				"y": -2.1648815648,
				"z": 2.0002699238,
				"element": "C" 
			},
			{
				"x": -0.9218187853,
				"y": -2.7226872941,
				"z": 2.8763276024,
				"element": "C" 
			},
			{
				"x": -1.8484252666,
				"y": -3.6880411169,
				"z": 2.4275251021,
				"element": "C" 
			},
			{
				"x": -2.7297889245,
				"y": -4.2803635937,
				"z": 3.3151666459,
				"element": "N" 
			},
			{
				"x": -1.8221051151,
				"y": -4.0746606942,
				"z": 1.0739564198,
				"element": "C" 
			},
			{
				"x": -0.902040264,
				"y": -3.5137268322,
				"z": 0.1958853287,
				"element": "C" 
			},
			{
				"x": -1.8869896717,
				"y": 0.5689795176,
				"z": 1.0777117946,
				"element": "H" 
			},
			{
				"x": -2.6247912293,
				"y": 2.1060963483,
				"z": 0.5952265157,
				"element": "H" 
			},
			{
				"x": -3.0699676388,
				"y": 0.6101636419,
				"z": -0.240782875,
				"element": "H" 
			},
			{
				"x": -1.505983297,
				"y": 1.8848749989,
				"z": -1.6616045942,
				"element": "H" 
			},
			{
				"x": 0.1542335514,
				"y": 1.9637963756,
				"z": 0.8811422468,
				"element": "H" 
			},
			{
				"x": -0.3281604109,
				"y": 3.3100541615,
				"z": -0.1439440232,
				"element": "H" 
			},
			{
				"x": 2.084944144,
				"y": 2.7525043078,
				"z": -0.3365008732,
				"element": "H" 
			},
			{
				"x": 0.9782596749,
				"y": 3.7864225234,
				"z": -2.3009211908,
				"element": "H" 
			},
			{
				"x": 0.60592736,
				"y": 2.1890937467,
				"z": -2.9650972465,
				"element": "H" 
			},
			{
				"x": 2.2854498082,
				"y": 2.701031639,
				"z": -2.7949185565,
				"element": "H" 
			},
			{
				"x": 2.2727139029,
				"y": 0.4218446594,
				"z": -1.8683109138,
				"element": "H" 
			},
			{
				"x": 2.6467149147,
				"y": 0.543788955,
				"z": -0.1451094952,
				"element": "H" 
			},
			{
				"x": -0.2851669168,
				"y": 0.0490158386,
				"z": -2.3488138209,
				"element": "H" 
			},
			{
				"x": -1.190477615,
				"y": -0.784331467,
				"z": -1.0892564345,
				"element": "H" 
			},
			{
				"x": 0.7134718032,
				"y": -1.4308029529,
				"z": 2.3534137965,
				"element": "H" 
			},
			{
				"x": -0.9240908113,
				"y": -2.4250106898,
				"z": 3.9216277242,
				"element": "H" 
			},
			{
				"x": -3.5423391302,
				"y": -4.7302907647,
				"z": 2.9205076515,
				"element": "H" 
			},
			{
				"x": -2.9193424304,
				"y": -3.7825968623,
				"z": 4.1722932794,
				"element": "H" 
			},
			{
				"x": -2.5230032867,
				"y": -4.8247137775,
				"z": 0.7171207467,
				"element": "H" 
			},
			{
				"x": -0.8724103932,
				"y": -3.814871462,
				"z": -0.845653407,
				"element": "H" 
			}
		],
		 "valence_orbital": [ 
			{
				"type": "occ",
				"energy": -0.29076,
				"method": "rhf"
			},
			{
				"type": "occ",
				"energy": -0.28169,
				"method": "rhf"
			},
			{
				"type": "occ",
				"energy": -0.26442,
				"method": "rhf"
			},
			{
				"type": "occ",
				"energy": -0.23941,
				"method": "rhf"
			},
			{
				"type": "occ",
				"energy": -0.21826,
				"method": "rhf"
			},
			{
				"type": "unocc",
				"energy": -0.01822,
				"method": "rhf"
			},
			{
				"type": "unocc",
				"energy": -0.01275,
				"method": "rhf"
			},
			{
				"type": "unocc",
				"energy": 0.06099,
				"method": "rhf"
			},
			{
				"type": "unocc",
				"energy": 0.06927,
				"method": "rhf"
			},
			{
				"type": "unocc",
				"energy": 0.08544,
				"method": "rhf"
			}
		],
		"cosmo_sigma_profile": { 
			"-0.025": 0.0,
			"-0.024": 0.0,
			"-0.023": 0.0,
			"-0.022": 0.0,
			"-0.021": 0.0,
			"-0.02": 0.0,
			"-0.019": 0.0,
			"-0.018": 0.0,
			"-0.017": 0.0,
			"-0.016": 0.0,
			"-0.015": 0.0,
			"-0.014": 0.250536875235,
			"-0.013": 2.64741742769,
			"-0.012": 3.10867462925,
			"-0.011": 3.18579960528,
			"-0.01": 2.85665942586,
			"-0.009": 3.10494903222,
			"-0.008": 3.55789401237,
			"-0.007": 4.94828688456,
			"-0.006": 7.25289100912,
			"-0.005": 7.63387975312,
			"-0.004": 16.5889191038,
			"-0.003": 32.5779390531,
			"-0.002": 38.0405446022,
			"-0.001": 34.3685366362,
			"0.0": 27.8890989001,
			"0.001": 29.7414000939,
			"0.002": 15.5150457858,
			"0.003": 15.7477854806,
			"0.004": 15.0930781569,
			"0.005": 5.91872576676,
			"0.006": 4.88967250978,
			"0.007": 3.04991694095,
			"0.008": 3.81093836934,
			"0.009": 3.67139698232,
			"0.01": 5.39370832019,
			"0.011": 9.40255334961,
			"0.012": 7.82304853671,
			"0.013": 1.69869243004,
			"0.014": 0.0,
			"0.015": 0.0,
			"0.016": 0.0,
			"0.017": 0.0,
			"0.018": 0.0,
			"0.019": 0.0,
			"0.02": 0.0,
			"0.021": 0.0,
			"0.022": 0.0,
			"0.023": 0.0,
			"0.024": 0.0,
			"0.025": 0.0
		}
	}
}
