{
	 "smiles": "BrCC(=O)C1=CC=C2C=CC=CC2=C1", 
	 "Tm": 356.65, 
	 "num_atms": 23, 
	 "gaussian": { 
		 "optdone": 1, 
		 "sigma_profile": "yes", 
		 "theory": "DFT", 
		 "functional": "B3LYP", 
		 "basiset": "6-31G**", 
		 "properties": { 
			 "R2extent": 9855.8157, 
			 "electric_dipole_moment_norm": 4.89668435679, 
			 "electric_quadrupole_moment_norm": 21.1495907317, 
			 "total_energy": -3109.33742811, 
			 "HOMO_LUMO_gap": 0.15844, 
			 "cosmo_polarized_energy": -12.23, 
			 "cosmo_cavitation_energy": 29.53, 
			 "cosmo_dispersion_energy": -22.2, 
			 "cosmo_repulsion_energy": 1.72, 
			 "cosmo_total_nonelectrostatic_energy": 9.05, 
			 "SMD_solvation_energy": 4.01 
		},
		"coords": [
			{
				"x": 6.1782604063,
				"y": 2.9808111874,
				"z": 0.8835061423,
				"element": "Br" 
			},
			{
				"x": 4.8311620535,
				"y": 2.1212141628,
				"z": -0.2354870304,
				"element": "C" 
			},
			{
				"x": 3.9690740888,
				"y": 1.1056792598,
				"z": 0.5199453581,
				"element": "C" 
			},
			{
				"x": 4.1289579028,
				"y": 0.8759298943,
				"z": 1.7032883114,
				"element": "O" 
			},
			{
				"x": 2.9124286996,
				"y": 0.4061058465,
				"z": -0.2814470838,
				"element": "C" 
			},
			{
				"x": 2.6932819271,
				"y": 0.6486376448,
				"z": -1.6683329116,
				"element": "C" 
			},
			{
				"x": 1.7075163742,
				"y": -0.0257568535,
				"z": -2.3488236804,
				"element": "C" 
			},
			{
				"x": 0.8830495239,
				"y": -0.9792708525,
				"z": -1.692168658,
				"element": "C" 
			},
			{
				"x": -0.1429793423,
				"y": -1.6922124719,
				"z": -2.3668361558,
				"element": "C" 
			},
			{
				"x": -0.9201173191,
				"y": -2.608448015,
				"z": -1.6936016062,
				"element": "C" 
			},
			{
				"x": -0.709067482,
				"y": -2.8559820551,
				"z": -0.313695605,
				"element": "C" 
			},
			{
				"x": 0.2769136644,
				"y": -2.1816909264,
				"z": 0.3690206751,
				"element": "C" 
			},
			{
				"x": 1.0975540361,
				"y": -1.2287987062,
				"z": -0.2962381371,
				"element": "C" 
			},
			{
				"x": 2.1194454823,
				"y": -0.5193666781,
				"z": 0.3772043887,
				"element": "C" 
			},
			{
				"x": 5.3632711733,
				"y": 1.6362109334,
				"z": -1.0562307924,
				"element": "H" 
			},
			{
				"x": 4.2098675645,
				"y": 2.9168625501,
				"z": -0.6513100484,
				"element": "H" 
			},
			{
				"x": 3.3031965267,
				"y": 1.3694040402,
				"z": -2.2028377972,
				"element": "H" 
			},
			{
				"x": 1.546647739,
				"y": 0.1649415097,
				"z": -3.4065405271,
				"element": "H" 
			},
			{
				"x": -0.3055396912,
				"y": -1.5031589989,
				"z": -3.4246496226,
				"element": "H" 
			},
			{
				"x": -1.7020806059,
				"y": -3.1479410516,
				"z": -2.2200595506,
				"element": "H" 
			},
			{
				"x": -1.330922723,
				"y": -3.5817203715,
				"z": 0.2018235864,
				"element": "H" 
			},
			{
				"x": 0.4439265183,
				"y": -2.3666782904,
				"z": 1.4266480278,
				"element": "H" 
			},
			{
				"x": 2.2982534825,
				"y": -0.693371758,
				"z": 1.433922717,
				"element": "H" 
			}
		],
		 "valence_orbital": [ 
			{
				"type": "occ",
				"energy": -0.27339,
				"method": "rhf"
			},
			{
				"type": "occ",
				"energy": -0.27208,
				"method": "rhf"
			},
			{
				"type": "occ",
				"energy": -0.26267,
				"method": "rhf"
			},
			{
				"type": "occ",
				"energy": -0.25905,
				"method": "rhf"
			},
			{
				"type": "occ",
				"energy": -0.23081,
				"method": "rhf"
			},
			{
				"type": "unocc",
				"energy": -0.07237,
				"method": "rhf"
			},
			{
				"type": "unocc",
				"energy": -0.04233,
				"method": "rhf"
			},
			{
				"type": "unocc",
				"energy": 0.00283,
				"method": "rhf"
			},
			{
				"type": "unocc",
				"energy": 0.00637,
				"method": "rhf"
			},
			{
				"type": "unocc",
				"energy": 0.02389,
				"method": "rhf"
			}
		],
		"cosmo_sigma_profile": { 
			"-0.025": 0.0,
			"-0.024": 0.0,
			"-0.023": 0.0,
			"-0.022": 0.0,
			"-0.021": 0.0,
			"-0.02": 0.0,
			"-0.019": 0.0,
			"-0.018": 0.0,
			"-0.017": 0.0,
			"-0.016": 0.0,
			"-0.015": 0.0,
			"-0.014": 0.0,
			"-0.013": 0.0,
			"-0.012": 0.0,
			"-0.011": 0.0,
			"-0.01": 0.521934776847,
			"-0.009": 7.47724405841,
			"-0.008": 6.32102574309,
			"-0.007": 7.68117012007,
			"-0.006": 17.1852440985,
			"-0.005": 16.8598861578,
			"-0.004": 14.2387413338,
			"-0.003": 12.5568033068,
			"-0.002": 12.9174066158,
			"-0.001": 11.3205717483,
			"0.0": 12.5862659706,
			"0.001": 15.4074006986,
			"0.002": 22.8214474076,
			"0.003": 26.5491233845,
			"0.004": 19.0829408795,
			"0.005": 10.6759037851,
			"0.006": 8.23615644281,
			"0.007": 2.59434464539,
			"0.008": 2.31677840764,
			"0.009": 2.38892894826,
			"0.01": 2.83100588673,
			"0.011": 4.23311442482,
			"0.012": 2.50715337715,
			"0.013": 0.970843019701,
			"0.014": 0.0,
			"0.015": 0.0,
			"0.016": 0.0,
			"0.017": 0.0,
			"0.018": 0.0,
			"0.019": 0.0,
			"0.02": 0.0,
			"0.021": 0.0,
			"0.022": 0.0,
			"0.023": 0.0,
			"0.024": 0.0,
			"0.025": 0.0
		}
	}
}
