{
	 "smiles": "CN1C=C(C(=O)C(=C1)C1=CC(=CC=C1)C(F)(F)F)C1=CC=CC=C1", 
	 "Tm": 427.15, 
	 "num_atms": 38, 
	 "gaussian": { 
		 "optdone": 1, 
		 "sigma_profile": "yes", 
		 "theory": "DFT", 
		 "functional": "B3LYP", 
		 "basiset": "6-31G**", 
		 "properties": { 
			 "R2extent": 12525.6921, 
			 "electric_dipole_moment_norm": 6.02608242061, 
			 "electric_quadrupole_moment_norm": 31.8090796851, 
			 "total_energy": -1161.96704386, 
			 "HOMO_LUMO_gap": 0.16113, 
			 "cosmo_polarized_energy": -19.3, 
			 "cosmo_cavitation_energy": 43.57, 
			 "cosmo_dispersion_energy": -30.63, 
			 "cosmo_repulsion_energy": 2.23, 
			 "cosmo_total_nonelectrostatic_energy": 15.17, 
			 "SMD_solvation_energy": 8.96 
		},
		"coords": [
			{
				"x": -2.6642943678,
				"y": -4.6427862095,
				"z": -0.9726443725,
				"element": "C" 
			},
			{
				"x": -1.6569506787,
				"y": -3.6185594026,
				"z": -0.6985535896,
				"element": "N" 
			},
			{
				"x": -0.8139247921,
				"y": -3.7510259867,
				"z": 0.3741204692,
				"element": "C" 
			},
			{
				"x": 0.0993280966,
				"y": -2.7979578243,
				"z": 0.7306075039,
				"element": "C" 
			},
			{
				"x": 0.1702320208,
				"y": -1.5324816704,
				"z": -0.0306332102,
				"element": "C" 
			},
			{
				"x": 0.9648220468,
				"y": -0.6268915964,
				"z": 0.2546746658,
				"element": "O" 
			},
			{
				"x": -0.7746175158,
				"y": -1.4298918908,
				"z": -1.1628517334,
				"element": "C" 
			},
			{
				"x": -1.619437848,
				"y": -2.4694151033,
				"z": -1.4402859224,
				"element": "C" 
			},
			{
				"x": -0.823529157,
				"y": -0.2080046588,
				"z": -2.0024974062,
				"element": "C" 
			},
			{
				"x": -2.0460048904,
				"y": 0.2481935822,
				"z": -2.521091513,
				"element": "C" 
			},
			{
				"x": -2.1005638727,
				"y": 1.3643106829,
				"z": -3.356378084,
				"element": "C" 
			},
			{
				"x": -0.9346528778,
				"y": 2.0620144382,
				"z": -3.6795436638,
				"element": "C" 
			},
			{
				"x": 0.2815435039,
				"y": 1.6298089363,
				"z": -3.1525725693,
				"element": "C" 
			},
			{
				"x": 0.3422794703,
				"y": 0.513504717,
				"z": -2.3202611329,
				"element": "C" 
			},
			{
				"x": -3.4328963856,
				"y": 1.8585946509,
				"z": -3.8476267998,
				"element": "C" 
			},
			{
				"x": -4.3217072658,
				"y": 0.8479816421,
				"z": -4.0024431456,
				"element": "F" 
			},
			{
				"x": -3.9947838605,
				"y": 2.7387371346,
				"z": -2.9856949554,
				"element": "F" 
			},
			{
				"x": -3.329913675,
				"y": 2.490461289,
				"z": -5.0383393592,
				"element": "F" 
			},
			{
				"x": 1.0139581016,
				"y": -3.056843954,
				"z": 1.869473582,
				"element": "C" 
			},
			{
				"x": 1.3787178273,
				"y": -2.0333322575,
				"z": 2.7629839993,
				"element": "C" 
			},
			{
				"x": 2.1983261176,
				"y": -2.3073747132,
				"z": 3.8566569515,
				"element": "C" 
			},
			{
				"x": 2.6798357891,
				"y": -3.5989845357,
				"z": 4.0795734969,
				"element": "C" 
			},
			{
				"x": 2.3405375089,
				"y": -4.620145534,
				"z": 3.1908051826,
				"element": "C" 
			},
			{
				"x": 1.5215432556,
				"y": -4.3492016407,
				"z": 2.0958512101,
				"element": "C" 
			},
			{
				"x": -2.2656123311,
				"y": -5.6261754238,
				"z": -0.7159011743,
				"element": "H" 
			},
			{
				"x": -3.5792621098,
				"y": -4.4674150351,
				"z": -0.3957960871,
				"element": "H" 
			},
			{
				"x": -2.9092412578,
				"y": -4.636625354,
				"z": -2.0362531643,
				"element": "H" 
			},
			{
				"x": -0.9225542865,
				"y": -4.6728285718,
				"z": 0.9344028489,
				"element": "H" 
			},
			{
				"x": -2.3007597713,
				"y": -2.4428876862,
				"z": -2.2833496484,
				"element": "H" 
			},
			{
				"x": -2.9694023142,
				"y": -0.2585260701,
				"z": -2.2615426343,
				"element": "H" 
			},
			{
				"x": -0.9828662681,
				"y": 2.9283040235,
				"z": -4.3303137666,
				"element": "H" 
			},
			{
				"x": 1.1939491716,
				"y": 2.1669590563,
				"z": -3.3937680399,
				"element": "H" 
			},
			{
				"x": 1.2875259697,
				"y": 0.1966068854,
				"z": -1.9004640184,
				"element": "H" 
			},
			{
				"x": 1.0251723264,
				"y": -1.0262976313,
				"z": 2.5850397587,
				"element": "H" 
			},
			{
				"x": 2.4639488667,
				"y": -1.5039023193,
				"z": 4.538010544,
				"element": "H" 
			},
			{
				"x": 3.3228739673,
				"y": -3.8052474434,
				"z": 4.9304580904,
				"element": "H" 
			},
			{
				"x": 2.7242795095,
				"y": -5.6255450144,
				"z": 3.3404472971,
				"element": "H" 
			},
			{
				"x": 1.2958019763,
				"y": -5.1446295113,
				"z": 1.3906003901,
				"element": "H" 
			}
		],
		 "valence_orbital": [ 
			{
				"type": "occ",
				"energy": -0.25939,
				"method": "rhf"
			},
			{
				"type": "occ",
				"energy": -0.24605,
				"method": "rhf"
			},
			{
				"type": "occ",
				"energy": -0.23794,
				"method": "rhf"
			},
			{
				"type": "occ",
				"energy": -0.22692,
				"method": "rhf"
			},
			{
				"type": "occ",
				"energy": -0.20749,
				"method": "rhf"
			},
			{
				"type": "unocc",
				"energy": -0.04636,
				"method": "rhf"
			},
			{
				"type": "unocc",
				"energy": -0.02585,
				"method": "rhf"
			},
			{
				"type": "unocc",
				"energy": -0.01704,
				"method": "rhf"
			},
			{
				"type": "unocc",
				"energy": -0.00538,
				"method": "rhf"
			},
			{
				"type": "unocc",
				"energy": 0.00488,
				"method": "rhf"
			}
		],
		"cosmo_sigma_profile": { 
			"-0.025": 0.0,
			"-0.024": 0.0,
			"-0.023": 0.0,
			"-0.022": 0.0,
			"-0.021": 0.0,
			"-0.02": 0.0,
			"-0.019": 0.0,
			"-0.018": 0.0,
			"-0.017": 0.0,
			"-0.016": 0.0,
			"-0.015": 0.0,
			"-0.014": 0.0,
			"-0.013": 0.0,
			"-0.012": 0.0,
			"-0.011": 0.0,
			"-0.01": 1.62235446952,
			"-0.009": 5.4882027652,
			"-0.008": 7.35417678198,
			"-0.007": 10.2222435402,
			"-0.006": 18.8204014904,
			"-0.005": 24.7865085024,
			"-0.004": 27.3757713035,
			"-0.003": 22.1783710489,
			"-0.002": 16.8701205005,
			"-0.001": 18.1601680237,
			"0.0": 24.5069991588,
			"0.001": 27.4711915749,
			"0.002": 34.4351868051,
			"0.003": 48.7963125286,
			"0.004": 21.2150029161,
			"0.005": 10.4989321007,
			"0.006": 9.96180481922,
			"0.007": 3.32711505576,
			"0.008": 2.39949494437,
			"0.009": 1.63665885554,
			"0.01": 1.95800209597,
			"0.011": 1.59294045047,
			"0.012": 2.3843104372,
			"0.013": 1.81771927696,
			"0.014": 2.9693691665,
			"0.015": 2.06538370464,
			"0.016": 0.0,
			"0.017": 0.0,
			"0.018": 0.0,
			"0.019": 0.0,
			"0.02": 0.0,
			"0.021": 0.0,
			"0.022": 0.0,
			"0.023": 0.0,
			"0.024": 0.0,
			"0.025": 0.0
		}
	}
}
