{
	 "smiles": "COC1=CC=C(C=C1)C(=O)OC1=CC=C(C=C1)C(=O)C=CC1=CC=C2OCOC2=C1", 
	 "Tm": 442.15, 
	 "num_atms": 48, 
	 "gaussian": { 
		 "optdone": 1, 
		 "sigma_profile": "yes", 
		 "theory": "DFT", 
		 "functional": "B3LYP", 
		 "basiset": "6-31G**", 
		 "properties": { 
			 "R2extent": 16071.7643, 
			 "electric_dipole_moment_norm": 5.87032962959, 
			 "electric_quadrupole_moment_norm": 32.7290006147, 
			 "total_energy": -1376.6977373, 
			 "HOMO_LUMO_gap": 0.14087, 
			 "cosmo_polarized_energy": -18.19, 
			 "cosmo_cavitation_energy": 53.66, 
			 "cosmo_dispersion_energy": -35.74, 
			 "cosmo_repulsion_energy": 2.63, 
			 "cosmo_total_nonelectrostatic_energy": 20.56, 
			 "SMD_solvation_energy": 11.56 
		},
		"coords": [
			{
				"x": -5.8674325773,
				"y": -2.924446394,
				"z": 6.1375406597,
				"element": "C" 
			},
			{
				"x": -5.1984979993,
				"y": -1.6810751098,
				"z": 5.96792392,
				"element": "O" 
			},
			{
				"x": -4.3121022974,
				"y": -1.5521803922,
				"z": 4.9484168314,
				"element": "C" 
			},
			{
				"x": -3.6886592542,
				"y": -0.2957505845,
				"z": 4.8410989773,
				"element": "C" 
			},
			{
				"x": -2.7684955863,
				"y": -0.0638460378,
				"z": 3.8344922332,
				"element": "C" 
			},
			{
				"x": -2.4459276188,
				"y": -1.0743032065,
				"z": 2.9101125782,
				"element": "C" 
			},
			{
				"x": -3.0707425719,
				"y": -2.3224919372,
				"z": 3.0229579912,
				"element": "C" 
			},
			{
				"x": -3.9985951731,
				"y": -2.567924282,
				"z": 4.032888069,
				"element": "C" 
			},
			{
				"x": -1.4529783485,
				"y": -0.763112342,
				"z": 1.8587294795,
				"element": "C" 
			},
			{
				"x": -0.8840116347,
				"y": 0.3006167288,
				"z": 1.7281273532,
				"element": "O" 
			},
			{
				"x": -1.249658614,
				"y": -1.8385734177,
				"z": 1.0252814556,
				"element": "O" 
			},
			{
				"x": -0.337263311,
				"y": -1.7485391993,
				"z": -0.0219804952,
				"element": "C" 
			},
			{
				"x": -0.786368125,
				"y": -2.1397904401,
				"z": -1.2840799977,
				"element": "C" 
			},
			{
				"x": 0.0921923938,
				"y": -2.0987636111,
				"z": -2.3616357034,
				"element": "C" 
			},
			{
				"x": 1.4086754818,
				"y": -1.6456455413,
				"z": -2.1920752456,
				"element": "C" 
			},
			{
				"x": 1.8493523811,
				"y": -1.3060263448,
				"z": -0.9048322658,
				"element": "C" 
			},
			{
				"x": 0.986123042,
				"y": -1.3596125872,
				"z": 0.1849669334,
				"element": "C" 
			},
			{
				"x": 2.2922152253,
				"y": -1.5556670833,
				"z": -3.4005711015,
				"element": "C" 
			},
			{
				"x": 2.0530438932,
				"y": -2.2278202595,
				"z": -4.3991453023,
				"element": "O" 
			},
			{
				"x": 3.5040663872,
				"y": -0.6766670599,
				"z": -3.3891146623,
				"element": "C" 
			},
			{
				"x": 3.6064270869,
				"y": 0.5922268572,
				"z": -2.9457519317,
				"element": "C" 
			},
			{
				"x": 2.5149114713,
				"y": 1.4234534706,
				"z": -2.4059860085,
				"element": "C" 
			},
			{
				"x": 1.2720600065,
				"y": 1.48494934,
				"z": -3.0530744492,
				"element": "C" 
			},
			{
				"x": 0.1812935437,
				"y": 2.1787654651,
				"z": -2.5037108175,
				"element": "C" 
			},
			{
				"x": 0.381355804,
				"y": 2.7856868506,
				"z": -1.2805352902,
				"element": "C" 
			},
			{
				"x": -0.5075466536,
				"y": 3.5032004537,
				"z": -0.5236649548,
				"element": "O" 
			},
			{
				"x": 0.1393392346,
				"y": 3.6605222011,
				"z": 0.7469759657,
				"element": "C" 
			},
			{
				"x": 1.5443062835,
				"y": 3.4605379516,
				"z": 0.5372920399,
				"element": "O" 
			},
			{
				"x": 1.6247096514,
				"y": 2.7614403169,
				"z": -0.6420166812,
				"element": "C" 
			},
			{
				"x": 2.7146682662,
				"y": 2.1210023378,
				"z": -1.1880770545,
				"element": "C" 
			},
			{
				"x": -5.1592682744,
				"y": -3.7387653046,
				"z": 6.3338847107,
				"element": "H" 
			},
			{
				"x": -6.4753523405,
				"y": -3.1771128366,
				"z": 5.2601919163,
				"element": "H" 
			},
			{
				"x": -6.5191401884,
				"y": -2.7975388967,
				"z": 7.002737778,
				"element": "H" 
			},
			{
				"x": -3.948071535,
				"y": 0.4728051663,
				"z": 5.561358491,
				"element": "H" 
			},
			{
				"x": -2.2803492192,
				"y": 0.9001913503,
				"z": 3.7417786611,
				"element": "H" 
			},
			{
				"x": -2.8290168882,
				"y": -3.1069667725,
				"z": 2.3153580307,
				"element": "H" 
			},
			{
				"x": -4.4675924709,
				"y": -3.5420627935,
				"z": 4.09876527,
				"element": "H" 
			},
			{
				"x": -1.8167325335,
				"y": -2.4577720027,
				"z": -1.4046761067,
				"element": "H" 
			},
			{
				"x": -0.2308058734,
				"y": -2.3918543923,
				"z": -3.3550057284,
				"element": "H" 
			},
			{
				"x": 2.8748839007,
				"y": -0.9887636036,
				"z": -0.7551347469,
				"element": "H" 
			},
			{
				"x": 1.3246062449,
				"y": -1.0831533202,
				"z": 1.175671737,
				"element": "H" 
			},
			{
				"x": 4.3656132763,
				"y": -1.1322863685,
				"z": -3.8730744468,
				"element": "H" 
			},
			{
				"x": 4.5906974936,
				"y": 1.0603964283,
				"z": -2.9920036244,
				"element": "H" 
			},
			{
				"x": 1.1510804699,
				"y": 0.9786391425,
				"z": -4.004667621,
				"element": "H" 
			},
			{
				"x": -0.7783750126,
				"y": 2.2221457233,
				"z": -3.0057797206,
				"element": "H" 
			},
			{
				"x": -0.2394834554,
				"y": 2.8981257084,
				"z": 1.4409430992,
				"element": "H" 
			},
			{
				"x": -0.0303725772,
				"y": 4.6742657776,
				"z": 1.1161607348,
				"element": "H" 
			},
			{
				"x": 3.6703185959,
				"y": 2.1011408512,
				"z": -0.6749609598,
				"element": "H" 
			}
		],
		 "valence_orbital": [ 
			{
				"type": "occ",
				"energy": -0.24854,
				"method": "rhf"
			},
			{
				"type": "occ",
				"energy": -0.2439,
				"method": "rhf"
			},
			{
				"type": "occ",
				"energy": -0.23766,
				"method": "rhf"
			},
			{
				"type": "occ",
				"energy": -0.23412,
				"method": "rhf"
			},
			{
				"type": "occ",
				"energy": -0.20157,
				"method": "rhf"
			},
			{
				"type": "unocc",
				"energy": -0.0607,
				"method": "rhf"
			},
			{
				"type": "unocc",
				"energy": -0.04658,
				"method": "rhf"
			},
			{
				"type": "unocc",
				"energy": -0.01904,
				"method": "rhf"
			},
			{
				"type": "unocc",
				"energy": -0.01508,
				"method": "rhf"
			},
			{
				"type": "unocc",
				"energy": -0.00408,
				"method": "rhf"
			}
		],
		"cosmo_sigma_profile": { 
			"-0.025": 0.0,
			"-0.024": 0.0,
			"-0.023": 0.0,
			"-0.022": 0.0,
			"-0.021": 0.0,
			"-0.02": 0.0,
			"-0.019": 0.0,
			"-0.018": 0.0,
			"-0.017": 0.0,
			"-0.016": 0.0,
			"-0.015": 0.0,
			"-0.014": 0.0,
			"-0.013": 0.0,
			"-0.012": 0.0,
			"-0.011": 0.0,
			"-0.01": 0.0,
			"-0.009": 0.796129530173,
			"-0.008": 3.46020535449,
			"-0.007": 15.2164315017,
			"-0.006": 33.4294497142,
			"-0.005": 35.0904255371,
			"-0.004": 30.1392395946,
			"-0.003": 30.6311172262,
			"-0.002": 25.1944878318,
			"-0.001": 24.6994557365,
			"0.0": 27.8393798363,
			"0.001": 34.7115824765,
			"0.002": 39.3809903332,
			"0.003": 44.7681780419,
			"0.004": 27.1284639868,
			"0.005": 12.8967084048,
			"0.006": 8.79355899878,
			"0.007": 9.35115525315,
			"0.008": 6.68544370949,
			"0.009": 7.12828306319,
			"0.01": 3.73292577902,
			"0.011": 2.90973647729,
			"0.012": 4.49848029145,
			"0.013": 1.9367111123,
			"0.014": 0.264867340016,
			"0.015": 0.0,
			"0.016": 0.0,
			"0.017": 0.0,
			"0.018": 0.0,
			"0.019": 0.0,
			"0.02": 0.0,
			"0.021": 0.0,
			"0.022": 0.0,
			"0.023": 0.0,
			"0.024": 0.0,
			"0.025": 0.0
		}
	}
}
