{
	 "smiles": "[O-][N+](=NC1=CC=CC=C1)C1=CC=C(C=C1)N=NC1=CC=CC=C1", 
	 "Tm": 403.15, 
	 "num_atms": 37, 
	 "gaussian": { 
		 "optdone": 1, 
		 "sigma_profile": "yes", 
		 "theory": "DFT", 
		 "functional": "B3LYP", 
		 "basiset": "6-31G**", 
		 "properties": { 
			 "R2extent": 11295.0773, 
			 "electric_dipole_moment_norm": 3.32602108983, 
			 "electric_quadrupole_moment_norm": 16.918725676, 
			 "total_energy": -988.43437878, 
			 "HOMO_LUMO_gap": 0.12367, 
			 "cosmo_polarized_energy": -12.17, 
			 "cosmo_cavitation_energy": 42.75, 
			 "cosmo_dispersion_energy": -30.37, 
			 "cosmo_repulsion_energy": 2.29, 
			 "cosmo_total_nonelectrostatic_energy": 14.67, 
			 "SMD_solvation_energy": 5.43 
		},
		"coords": [
			{
				"x": 0.9547109675,
				"y": -2.1229064069,
				"z": 0.3085079894,
				"element": "O" 
			},
			{
				"x": 0.5322738515,
				"y": -1.2138127261,
				"z": -0.4542098341,
				"element": "N" 
			},
			{
				"x": 1.002879263,
				"y": -0.854740745,
				"z": -1.5904990108,
				"element": "N" 
			},
			{
				"x": 2.122507226,
				"y": -1.4805846368,
				"z": -2.1490558365,
				"element": "C" 
			},
			{
				"x": 2.4768278641,
				"y": -0.9326874219,
				"z": -3.4025096334,
				"element": "C" 
			},
			{
				"x": 3.5626692007,
				"y": -1.4198855636,
				"z": -4.1164554794,
				"element": "C" 
			},
			{
				"x": 4.3248274802,
				"y": -2.4704549216,
				"z": -3.5949219224,
				"element": "C" 
			},
			{
				"x": 3.9846961193,
				"y": -3.0201884009,
				"z": -2.3582104033,
				"element": "C" 
			},
			{
				"x": 2.8967888686,
				"y": -2.5423608343,
				"z": -1.6279548423,
				"element": "C" 
			},
			{
				"x": -0.6379330915,
				"y": -0.4634160567,
				"z": -0.0017218427,
				"element": "C" 
			},
			{
				"x": -1.2057795444,
				"y": -0.8262450894,
				"z": 1.2205234856,
				"element": "C" 
			},
			{
				"x": -2.3301253081,
				"y": -0.1464301315,
				"z": 1.6746186732,
				"element": "C" 
			},
			{
				"x": -2.8513232174,
				"y": 0.9279074311,
				"z": 0.9405588231,
				"element": "C" 
			},
			{
				"x": -2.2788613551,
				"y": 1.2702368423,
				"z": -0.2961503071,
				"element": "C" 
			},
			{
				"x": -1.1769019228,
				"y": 0.5709269817,
				"z": -0.7722405839,
				"element": "C" 
			},
			{
				"x": -4.0843830813,
				"y": 1.4921860089,
				"z": 1.3992552227,
				"element": "N" 
			},
			{
				"x": -4.316794672,
				"y": 2.7174781522,
				"z": 1.4661579467,
				"element": "N" 
			},
			{
				"x": -3.317908524,
				"y": 3.7314921331,
				"z": 1.2943063318,
				"element": "C" 
			},
			{
				"x": -2.0680450762,
				"y": 3.7016602471,
				"z": 1.9316168304,
				"element": "C" 
			},
			{
				"x": -1.2157846939,
				"y": 4.7989711655,
				"z": 1.8252300629,
				"element": "C" 
			},
			{
				"x": -1.5904763433,
				"y": 5.9166162651,
				"z": 1.0746096382,
				"element": "C" 
			},
			{
				"x": -2.8419825897,
				"y": 5.9501551985,
				"z": 0.4535212531,
				"element": "C" 
			},
			{
				"x": -3.7168315752,
				"y": 4.8746395388,
				"z": 0.5875533839,
				"element": "C" 
			},
			{
				"x": 1.8722712652,
				"y": -0.118723752,
				"z": -3.7890022874,
				"element": "H" 
			},
			{
				"x": 3.8166754187,
				"y": -0.9837040741,
				"z": -5.0780736733,
				"element": "H" 
			},
			{
				"x": 5.1756571848,
				"y": -2.8561112345,
				"z": -4.149048118,
				"element": "H" 
			},
			{
				"x": 4.5736091113,
				"y": -3.8365500296,
				"z": -1.9496148357,
				"element": "H" 
			},
			{
				"x": 2.6430994158,
				"y": -2.9751965734,
				"z": -0.6738750992,
				"element": "H" 
			},
			{
				"x": -0.7689863645,
				"y": -1.642648987,
				"z": 1.7805890864,
				"element": "H" 
			},
			{
				"x": -2.8135142059,
				"y": -0.4336235473,
				"z": 2.6027359289,
				"element": "H" 
			},
			{
				"x": -2.704026423,
				"y": 2.0754715975,
				"z": -0.8846965882,
				"element": "H" 
			},
			{
				"x": -0.7258969713,
				"y": 0.8163553113,
				"z": -1.7244627466,
				"element": "H" 
			},
			{
				"x": -1.7776805479,
				"y": 2.8373200397,
				"z": 2.5183540206,
				"element": "H" 
			},
			{
				"x": -0.25397574,
				"y": 4.7800247219,
				"z": 2.3293030683,
				"element": "H" 
			},
			{
				"x": -0.9172556506,
				"y": 6.7642879699,
				"z": 0.989254461,
				"element": "H" 
			},
			{
				"x": -3.1447160487,
				"y": 6.8234749778,
				"z": -0.1165639059,
				"element": "H" 
			},
			{
				"x": -4.7091102897,
				"y": 4.8962665503,
				"z": 0.147870744,
				"element": "H" 
			}
		],
		 "valence_orbital": [ 
			{
				"type": "occ",
				"energy": -0.26526,
				"method": "rhf"
			},
			{
				"type": "occ",
				"energy": -0.26243,
				"method": "rhf"
			},
			{
				"type": "occ",
				"energy": -0.25444,
				"method": "rhf"
			},
			{
				"type": "occ",
				"energy": -0.22949,
				"method": "rhf"
			},
			{
				"type": "occ",
				"energy": -0.21639,
				"method": "rhf"
			},
			{
				"type": "unocc",
				"energy": -0.09272,
				"method": "rhf"
			},
			{
				"type": "unocc",
				"energy": -0.06699,
				"method": "rhf"
			},
			{
				"type": "unocc",
				"energy": -0.02462,
				"method": "rhf"
			},
			{
				"type": "unocc",
				"energy": -0.01427,
				"method": "rhf"
			},
			{
				"type": "unocc",
				"energy": -0.00431,
				"method": "rhf"
			}
		],
		"cosmo_sigma_profile": { 
			"-0.025": 0.0,
			"-0.024": 0.0,
			"-0.023": 0.0,
			"-0.022": 0.0,
			"-0.021": 0.0,
			"-0.02": 0.0,
			"-0.019": 0.0,
			"-0.018": 0.0,
			"-0.017": 0.0,
			"-0.016": 0.0,
			"-0.015": 0.0,
			"-0.014": 0.0,
			"-0.013": 0.0,
			"-0.012": 0.0,
			"-0.011": 0.0,
			"-0.01": 0.0,
			"-0.009": 0.0,
			"-0.008": 0.527452058023,
			"-0.007": 8.58013267593,
			"-0.006": 26.676433712,
			"-0.005": 27.1988512967,
			"-0.004": 28.7247950563,
			"-0.003": 22.1224924956,
			"-0.002": 21.9579144795,
			"-0.001": 21.3796302374,
			"0.0": 26.1829642336,
			"0.001": 29.0403017213,
			"0.002": 34.3044913259,
			"0.003": 30.8101887734,
			"0.004": 28.8416682684,
			"0.005": 11.5714694798,
			"0.006": 3.69687717094,
			"0.007": 3.02202324859,
			"0.008": 3.55334359118,
			"0.009": 5.38455936111,
			"0.01": 4.10321479834,
			"0.011": 3.07364625671,
			"0.012": 2.36313600815,
			"0.013": 1.39930731202,
			"0.014": 0.271633372262,
			"0.015": 0.0,
			"0.016": 0.0,
			"0.017": 0.0,
			"0.018": 0.0,
			"0.019": 0.0,
			"0.02": 0.0,
			"0.021": 0.0,
			"0.022": 0.0,
			"0.023": 0.0,
			"0.024": 0.0,
			"0.025": 0.0
		}
	}
}
