{
	 "smiles": "CC1=CC=C(O)C=C1[N+]([O-])=O", 
	 "Tm": 352.15, 
	 "num_atms": 18, 
	 "gaussian": { 
		 "optdone": 1, 
		 "sigma_profile": "yes", 
		 "theory": "DFT", 
		 "functional": "B3LYP", 
		 "basiset": "6-31G**", 
		 "properties": { 
			 "R2extent": 2008.9214, 
			 "electric_dipole_moment_norm": 3.22647526257, 
			 "electric_quadrupole_moment_norm": 13.1630846411, 
			 "total_energy": -551.285199923, 
			 "HOMO_LUMO_gap": 0.15439, 
			 "cosmo_polarized_energy": -11.14, 
			 "cosmo_cavitation_energy": 22.47, 
			 "cosmo_dispersion_energy": -16.81, 
			 "cosmo_repulsion_energy": 1.34, 
			 "cosmo_total_nonelectrostatic_energy": 7.0, 
			 "SMD_solvation_energy": 6.38 
		},
		"coords": [
			{
				"x": 2.4226999362,
				"y": -0.4645016464,
				"z": -0.1237398928,
				"element": "C" 
			},
			{
				"x": 0.9494849925,
				"y": -0.2601296991,
				"z": 0.1337948407,
				"element": "C" 
			},
			{
				"x": 0.0264236521,
				"y": -0.7201544028,
				"z": -0.8224299074,
				"element": "C" 
			},
			{
				"x": -1.3480727904,
				"y": -0.5819367335,
				"z": -0.6817311831,
				"element": "C" 
			},
			{
				"x": -1.8700579197,
				"y": 0.0420894783,
				"z": 0.4578335505,
				"element": "C" 
			},
			{
				"x": -3.2239605328,
				"y": 0.1560270501,
				"z": 0.5543472051,
				"element": "O" 
			},
			{
				"x": -0.9971449307,
				"y": 0.5141470044,
				"z": 1.4322078969,
				"element": "C" 
			},
			{
				"x": 0.3826567517,
				"y": 0.3605583411,
				"z": 1.2628618173,
				"element": "C" 
			},
			{
				"x": 1.2151907172,
				"y": 0.89738357,
				"z": 2.3566405788,
				"element": "N" 
			},
			{
				"x": 0.6394199616,
				"y": 1.4270352826,
				"z": 3.3089482726,
				"element": "O" 
			},
			{
				"x": 2.4387734326,
				"y": 0.792623058,
				"z": 2.2690598824,
				"element": "O" 
			},
			{
				"x": 2.89344051,
				"y": -1.0616145944,
				"z": 0.6613050808,
				"element": "H" 
			},
			{
				"x": 2.9659998873,
				"y": 0.483412236,
				"z": -0.1503666254,
				"element": "H" 
			},
			{
				"x": 2.5568206378,
				"y": -0.9740908059,
				"z": -1.0817544782,
				"element": "H" 
			},
			{
				"x": 0.4136854334,
				"y": -1.2067277718,
				"z": -1.7127658863,
				"element": "H" 
			},
			{
				"x": -2.0302070358,
				"y": -0.9496327763,
				"z": -1.4410001103,
				"element": "H" 
			},
			{
				"x": -3.4519202053,
				"y": 0.6016170846,
				"z": 1.3808825333,
				"element": "H" 
			},
			{
				"x": -1.3541324976,
				"y": 1.0037953252,
				"z": 2.330706425,
				"element": "H" 
			}
		],
		 "valence_orbital": [ 
			{
				"type": "occ",
				"energy": -0.30705,
				"method": "rhf"
			},
			{
				"type": "occ",
				"energy": -0.30412,
				"method": "rhf"
			},
			{
				"type": "occ",
				"energy": -0.28605,
				"method": "rhf"
			},
			{
				"type": "occ",
				"energy": -0.27947,
				"method": "rhf"
			},
			{
				"type": "occ",
				"energy": -0.24105,
				"method": "rhf"
			},
			{
				"type": "unocc",
				"energy": -0.08666,
				"method": "rhf"
			},
			{
				"type": "unocc",
				"energy": -0.01284,
				"method": "rhf"
			},
			{
				"type": "unocc",
				"energy": 0.00461,
				"method": "rhf"
			},
			{
				"type": "unocc",
				"energy": 0.05667,
				"method": "rhf"
			},
			{
				"type": "unocc",
				"energy": 0.08602,
				"method": "rhf"
			}
		],
		"cosmo_sigma_profile": { 
			"-0.025": 0.0,
			"-0.024": 0.0,
			"-0.023": 0.0,
			"-0.022": 0.0,
			"-0.021": 0.0,
			"-0.02": 0.0,
			"-0.019": 0.116344497505,
			"-0.018": 1.1804077469,
			"-0.017": 1.3130702875,
			"-0.016": 0.998369861055,
			"-0.015": 1.1598052152,
			"-0.014": 0.953763049237,
			"-0.013": 0.780716892386,
			"-0.012": 0.918323885569,
			"-0.011": 1.21844509592,
			"-0.01": 1.04955374592,
			"-0.009": 1.43293975435,
			"-0.008": 0.866202775771,
			"-0.007": 4.30352821666,
			"-0.006": 7.46735648647,
			"-0.005": 8.35861674089,
			"-0.004": 10.2286204411,
			"-0.003": 12.4870400008,
			"-0.002": 11.3353870273,
			"-0.001": 13.8528797175,
			"0.0": 17.089901264,
			"0.001": 15.1219273739,
			"0.002": 15.7352826911,
			"0.003": 8.64578812353,
			"0.004": 4.83768375734,
			"0.005": 4.69976379939,
			"0.006": 4.06173772342,
			"0.007": 6.84847065532,
			"0.008": 8.16175073949,
			"0.009": 6.25713122068,
			"0.01": 5.75301546309,
			"0.011": 1.78641332881,
			"0.012": 0.0,
			"0.013": 0.0,
			"0.014": 0.0,
			"0.015": 0.0,
			"0.016": 0.0,
			"0.017": 0.0,
			"0.018": 0.0,
			"0.019": 0.0,
			"0.02": 0.0,
			"0.021": 0.0,
			"0.022": 0.0,
			"0.023": 0.0,
			"0.024": 0.0,
			"0.025": 0.0
		}
	}
}
