{
	 "smiles": "CC(=O)OC(=C/C=C(OC(C)=O)C1=CC=CC=C1)C1=CC=CC=C1", 
	 "Tm": 448.15, 
	 "num_atms": 42, 
	 "gaussian": { 
		 "optdone": 1, 
		 "sigma_profile": "yes", 
		 "theory": "DFT", 
		 "functional": "B3LYP", 
		 "basiset": "6-31G**", 
		 "properties": { 
			 "R2extent": 9096.0306, 
			 "electric_dipole_moment_norm": 2.024737825, 
			 "electric_quadrupole_moment_norm": 20.3372218336, 
			 "total_energy": -1073.86416281, 
			 "HOMO_LUMO_gap": 0.14409, 
			 "cosmo_polarized_energy": -16.86, 
			 "cosmo_cavitation_energy": 47.2, 
			 "cosmo_dispersion_energy": -30.41, 
			 "cosmo_repulsion_energy": 2.34, 
			 "cosmo_total_nonelectrostatic_energy": 19.13, 
			 "SMD_solvation_energy": 10.04 
		},
		"coords": [
			{
				"x": -2.8836307578,
				"y": 1.833593376,
				"z": -0.1023301692,
				"element": "C" 
			},
			{
				"x": -1.644200542,
				"y": 1.6492722488,
				"z": 0.7354568329,
				"element": "C" 
			},
			{
				"x": -1.5932141751,
				"y": 1.5669368342,
				"z": 1.9349080079,
				"element": "O" 
			},
			{
				"x": -0.5373460849,
				"y": 1.5759009983,
				"z": -0.0831270837,
				"element": "O" 
			},
			{
				"x": 0.7081388261,
				"y": 1.3343562285,
				"z": 0.5100280051,
				"element": "C" 
			},
			{
				"x": 1.0934227576,
				"y": 0.065445654,
				"z": 0.7586818618,
				"element": "C" 
			},
			{
				"x": 0.3558755114,
				"y": -1.1775301172,
				"z": 0.608001108,
				"element": "C" 
			},
			{
				"x": -0.5109699491,
				"y": -1.592159878,
				"z": -0.3432253748,
				"element": "C" 
			},
			{
				"x": -0.8229770377,
				"y": -0.8199686816,
				"z": -1.462030233,
				"element": "O" 
			},
			{
				"x": 0.1613450394,
				"y": -0.4880750094,
				"z": -2.3711064366,
				"element": "C" 
			},
			{
				"x": -0.4055292604,
				"y": 0.4541409763,
				"z": -3.4022742268,
				"element": "C" 
			},
			{
				"x": 1.2892728947,
				"y": -0.9030388742,
				"z": -2.3267829988,
				"element": "O" 
			},
			{
				"x": -1.2307204095,
				"y": -2.8793032644,
				"z": -0.3093696684,
				"element": "C" 
			},
			{
				"x": -1.4898634141,
				"y": -3.5388996008,
				"z": 0.9068366981,
				"element": "C" 
			},
			{
				"x": -2.1441379757,
				"y": -4.7675642773,
				"z": 0.9258391814,
				"element": "C" 
			},
			{
				"x": -2.571110674,
				"y": -5.3581943971,
				"z": -0.2661572254,
				"element": "C" 
			},
			{
				"x": -2.3413049105,
				"y": -4.7033565112,
				"z": -1.4772188253,
				"element": "C" 
			},
			{
				"x": -1.6826965687,
				"y": -3.4755599035,
				"z": -1.499776647,
				"element": "C" 
			},
			{
				"x": 1.5111996976,
				"y": 2.5466370932,
				"z": 0.75283267,
				"element": "C" 
			},
			{
				"x": 2.6234149599,
				"y": 2.5404521365,
				"z": 1.6161802082,
				"element": "C" 
			},
			{
				"x": 3.3781380563,
				"y": 3.6922168583,
				"z": 1.8149263811,
				"element": "C" 
			},
			{
				"x": 3.0393937281,
				"y": 4.8817043404,
				"z": 1.1640561978,
				"element": "C" 
			},
			{
				"x": 1.9327613181,
				"y": 4.9056424625,
				"z": 0.3152334721,
				"element": "C" 
			},
			{
				"x": 1.1754384705,
				"y": 3.7531248913,
				"z": 0.1128821297,
				"element": "C" 
			},
			{
				"x": -2.8079188115,
				"y": 2.750005248,
				"z": -0.6954367081,
				"element": "H" 
			},
			{
				"x": -3.7555089178,
				"y": 1.8851748143,
				"z": 0.5487127169,
				"element": "H" 
			},
			{
				"x": -2.9783206797,
				"y": 0.9951464475,
				"z": -0.7981176609,
				"element": "H" 
			},
			{
				"x": 2.0797041714,
				"y": -0.0506352877,
				"z": 1.1984720259,
				"element": "H" 
			},
			{
				"x": 0.5917311851,
				"y": -1.924079769,
				"z": 1.3617646354,
				"element": "H" 
			},
			{
				"x": 0.3222847059,
				"y": 0.5975218446,
				"z": -4.2001898215,
				"element": "H" 
			},
			{
				"x": -1.343617892,
				"y": 0.0657389024,
				"z": -3.8076986708,
				"element": "H" 
			},
			{
				"x": -0.6231281464,
				"y": 1.4122563539,
				"z": -2.9214326971,
				"element": "H" 
			},
			{
				"x": -1.2018455981,
				"y": -3.0721797102,
				"z": 1.8433212143,
				"element": "H" 
			},
			{
				"x": -2.3362837626,
				"y": -5.2575362656,
				"z": 1.8760493419,
				"element": "H" 
			},
			{
				"x": -3.0874267566,
				"y": -6.3135003445,
				"z": -0.2492184078,
				"element": "H" 
			},
			{
				"x": -2.6743981234,
				"y": -5.1501011346,
				"z": -2.4096916688,
				"element": "H" 
			},
			{
				"x": -1.5085514667,
				"y": -2.9753463438,
				"z": -2.4456833102,
				"element": "H" 
			},
			{
				"x": 2.8851377425,
				"y": 1.6374467378,
				"z": 2.1574847039,
				"element": "H" 
			},
			{
				"x": 4.2277161651,
				"y": 3.6646069242,
				"z": 2.4911652966,
				"element": "H" 
			},
			{
				"x": 3.6280380079,
				"y": 5.7801501267,
				"z": 1.3241721968,
				"element": "H" 
			},
			{
				"x": 1.6565769658,
				"y": 5.82430548,
				"z": -0.1945480143,
				"element": "H" 
			},
			{
				"x": 0.3214117113,
				"y": 3.7786523927,
				"z": -0.5542890372,
				"element": "H" 
			}
		],
		 "valence_orbital": [ 
			{
				"type": "occ",
				"energy": -0.27336,
				"method": "rhf"
			},
			{
				"type": "occ",
				"energy": -0.25396,
				"method": "rhf"
			},
			{
				"type": "occ",
				"energy": -0.25359,
				"method": "rhf"
			},
			{
				"type": "occ",
				"energy": -0.24658,
				"method": "rhf"
			},
			{
				"type": "occ",
				"energy": -0.20388,
				"method": "rhf"
			},
			{
				"type": "unocc",
				"energy": -0.05979,
				"method": "rhf"
			},
			{
				"type": "unocc",
				"energy": -0.01265,
				"method": "rhf"
			},
			{
				"type": "unocc",
				"energy": -0.00448,
				"method": "rhf"
			},
			{
				"type": "unocc",
				"energy": -0.00323,
				"method": "rhf"
			},
			{
				"type": "unocc",
				"energy": 0.00489,
				"method": "rhf"
			}
		],
		"cosmo_sigma_profile": { 
			"-0.025": 0.0,
			"-0.024": 0.0,
			"-0.023": 0.0,
			"-0.022": 0.0,
			"-0.021": 0.0,
			"-0.02": 0.0,
			"-0.019": 0.0,
			"-0.018": 0.0,
			"-0.017": 0.0,
			"-0.016": 0.0,
			"-0.015": 0.0,
			"-0.014": 0.0,
			"-0.013": 0.0,
			"-0.012": 0.0,
			"-0.011": 0.0,
			"-0.01": 0.0,
			"-0.009": 0.202908763229,
			"-0.008": 2.01255239285,
			"-0.007": 6.86391754678,
			"-0.006": 25.9678091739,
			"-0.005": 34.0851482351,
			"-0.004": 36.3080034176,
			"-0.003": 34.6394497544,
			"-0.002": 35.2136783523,
			"-0.001": 25.069706976,
			"0.0": 21.2772264765,
			"0.001": 20.9230594087,
			"0.002": 21.3131022932,
			"0.003": 22.9736953604,
			"0.004": 24.7199935363,
			"0.005": 26.2278510135,
			"0.006": 5.88135970271,
			"0.007": 3.15382892334,
			"0.008": 4.22441207775,
			"0.009": 4.80228671943,
			"0.01": 5.75829554097,
			"0.011": 9.2904492345,
			"0.012": 6.2431827364,
			"0.013": 0.226396247183,
			"0.014": 0.0,
			"0.015": 0.0,
			"0.016": 0.0,
			"0.017": 0.0,
			"0.018": 0.0,
			"0.019": 0.0,
			"0.02": 0.0,
			"0.021": 0.0,
			"0.022": 0.0,
			"0.023": 0.0,
			"0.024": 0.0,
			"0.025": 0.0
		}
	}
}
