{
	 "smiles": "COC1=CC=C2C(=O)C3=C(OC2=C1CN1CCCCC1)C=CC=C3", 
	 "Tm": 433.15, 
	 "num_atms": 45, 
	 "gaussian": { 
		 "optdone": 1, 
		 "sigma_profile": "yes", 
		 "theory": "DFT", 
		 "functional": "B3LYP", 
		 "basiset": "6-31G**", 
		 "properties": { 
			 "R2extent": 9065.0531, 
			 "electric_dipole_moment_norm": 3.68713767305, 
			 "electric_quadrupole_moment_norm": 20.1002006075, 
			 "total_energy": -1055.20812478, 
			 "HOMO_LUMO_gap": 0.14343, 
			 "cosmo_polarized_energy": -10.97, 
			 "cosmo_cavitation_energy": 45.45, 
			 "cosmo_dispersion_energy": -31.26, 
			 "cosmo_repulsion_energy": 2.32, 
			 "cosmo_total_nonelectrostatic_energy": 16.51, 
			 "SMD_solvation_energy": 7.81 
		},
		"coords": [
			{
				"x": -3.4279090607,
				"y": 0.4340592427,
				"z": -1.2461120107,
				"element": "C" 
			},
			{
				"x": -3.1439979813,
				"y": 0.7880387458,
				"z": 0.1123148858,
				"element": "O" 
			},
			{
				"x": -1.9071054485,
				"y": 1.3391584978,
				"z": 0.3298334513,
				"element": "C" 
			},
			{
				"x": -1.6792477054,
				"y": 2.6844018755,
				"z": -0.0100480228,
				"element": "C" 
			},
			{
				"x": -0.4579979383,
				"y": 3.265189281,
				"z": 0.2765289511,
				"element": "C" 
			},
			{
				"x": 0.5545570625,
				"y": 2.5260980084,
				"z": 0.9098391179,
				"element": "C" 
			},
			{
				"x": 1.8518933646,
				"y": 3.1543144161,
				"z": 1.2226760504,
				"element": "C" 
			},
			{
				"x": 2.111911244,
				"y": 4.3241448207,
				"z": 0.945926903,
				"element": "O" 
			},
			{
				"x": 2.8165907388,
				"y": 2.2619769154,
				"z": 1.8977684993,
				"element": "C" 
			},
			{
				"x": 2.4693749088,
				"y": 0.9339196335,
				"z": 2.1853414133,
				"element": "C" 
			},
			{
				"x": 1.2483132542,
				"y": 0.4068963517,
				"z": 1.862221389,
				"element": "O" 
			},
			{
				"x": 0.3014303675,
				"y": 1.183194517,
				"z": 1.2413990723,
				"element": "C" 
			},
			{
				"x": -0.9240874061,
				"y": 0.5567276811,
				"z": 0.95154605,
				"element": "C" 
			},
			{
				"x": -1.2088337892,
				"y": -0.8902426662,
				"z": 1.2972869599,
				"element": "C" 
			},
			{
				"x": -1.1902768915,
				"y": -1.760769037,
				"z": 0.1069657914,
				"element": "N" 
			},
			{
				"x": -1.8727498519,
				"y": -3.0447996758,
				"z": 0.3184772609,
				"element": "C" 
			},
			{
				"x": -1.0764486895,
				"y": -4.0576815148,
				"z": 1.1628285965,
				"element": "C" 
			},
			{
				"x": 0.3162837329,
				"y": -4.2831552613,
				"z": 0.5525854818,
				"element": "C" 
			},
			{
				"x": 1.0355864979,
				"y": -2.9429298391,
				"z": 0.3300425657,
				"element": "C" 
			},
			{
				"x": 0.1453509167,
				"y": -1.9736705475,
				"z": -0.4706855151,
				"element": "C" 
			},
			{
				"x": 3.3690673264,
				"y": 0.0733094152,
				"z": 2.8247817045,
				"element": "C" 
			},
			{
				"x": 4.6250852739,
				"y": 0.5508866749,
				"z": 3.1761322312,
				"element": "C" 
			},
			{
				"x": 4.9936420832,
				"y": 1.8775498072,
				"z": 2.8967292943,
				"element": "C" 
			},
			{
				"x": 4.0937219559,
				"y": 2.7206418581,
				"z": 2.2633542972,
				"element": "C" 
			},
			{
				"x": -3.3353208549,
				"y": 1.3003304232,
				"z": -1.9132712194,
				"element": "H" 
			},
			{
				"x": -2.7542866464,
				"y": -0.3652859809,
				"z": -1.5716473664,
				"element": "H" 
			},
			{
				"x": -4.4608594285,
				"y": 0.0806659681,
				"z": -1.2601693219,
				"element": "H" 
			},
			{
				"x": -2.4799355597,
				"y": 3.2522963166,
				"z": -0.472581122,
				"element": "H" 
			},
			{
				"x": -0.2450129042,
				"y": 4.3015311967,
				"z": 0.0365402711,
				"element": "H" 
			},
			{
				"x": -0.5206398914,
				"y": -1.2129370817,
				"z": 2.0905118223,
				"element": "H" 
			},
			{
				"x": -2.2226607748,
				"y": -0.9405078711,
				"z": 1.7043185774,
				"element": "H" 
			},
			{
				"x": -2.8527770656,
				"y": -2.846721908,
				"z": 0.7667750177,
				"element": "H" 
			},
			{
				"x": -2.0583262605,
				"y": -3.4829667918,
				"z": -0.6730359139,
				"element": "H" 
			},
			{
				"x": -0.9753372899,
				"y": -3.6861375879,
				"z": 2.191355493,
				"element": "H" 
			},
			{
				"x": -1.6305848239,
				"y": -5.002543423,
				"z": 1.2250301821,
				"element": "H" 
			},
			{
				"x": 0.204193272,
				"y": -4.7956072451,
				"z": -0.4141953377,
				"element": "H" 
			},
			{
				"x": 0.916281162,
				"y": -4.9453521213,
				"z": 1.187871269,
				"element": "H" 
			},
			{
				"x": 1.2912350299,
				"y": -2.4929122576,
				"z": 1.2976811558,
				"element": "H" 
			},
			{
				"x": 1.9823637631,
				"y": -3.0945399413,
				"z": -0.2029940158,
				"element": "H" 
			},
			{
				"x": 0.6357457189,
				"y": -1.0025597671,
				"z": -0.5877505617,
				"element": "H" 
			},
			{
				"x": 0.0009684026,
				"y": -2.3788563649,
				"z": -1.4825319404,
				"element": "H" 
			},
			{
				"x": 3.0668240036,
				"y": -0.9473314536,
				"z": 3.0335869665,
				"element": "H" 
			},
			{
				"x": 5.3265432601,
				"y": -0.1130976659,
				"z": 3.672806305,
				"element": "H" 
			},
			{
				"x": 5.9784865983,
				"y": 2.2377056713,
				"z": 3.176922747,
				"element": "H" 
			},
			{
				"x": 4.3378463241,
				"y": 3.7517686848,
				"z": 2.0294425737,
				"element": "H" 
			}
		],
		 "valence_orbital": [ 
			{
				"type": "occ",
				"energy": -0.26163,
				"method": "rhf"
			},
			{
				"type": "occ",
				"energy": -0.24446,
				"method": "rhf"
			},
			{
				"type": "occ",
				"energy": -0.24301,
				"method": "rhf"
			},
			{
				"type": "occ",
				"energy": -0.22864,
				"method": "rhf"
			},
			{
				"type": "occ",
				"energy": -0.20514,
				"method": "rhf"
			},
			{
				"type": "unocc",
				"energy": -0.06171,
				"method": "rhf"
			},
			{
				"type": "unocc",
				"energy": -0.0189,
				"method": "rhf"
			},
			{
				"type": "unocc",
				"energy": -0.00762,
				"method": "rhf"
			},
			{
				"type": "unocc",
				"energy": 0.00443,
				"method": "rhf"
			},
			{
				"type": "unocc",
				"energy": 0.0599,
				"method": "rhf"
			}
		],
		"cosmo_sigma_profile": { 
			"-0.025": 0.0,
			"-0.024": 0.0,
			"-0.023": 0.0,
			"-0.022": 0.0,
			"-0.021": 0.0,
			"-0.02": 0.0,
			"-0.019": 0.0,
			"-0.018": 0.0,
			"-0.017": 0.0,
			"-0.016": 0.0,
			"-0.015": 0.0,
			"-0.014": 0.0,
			"-0.013": 0.0,
			"-0.012": 0.0,
			"-0.011": 0.0,
			"-0.01": 0.0,
			"-0.009": 0.0,
			"-0.008": 0.0354518929755,
			"-0.007": 4.29943973781,
			"-0.006": 12.2272616919,
			"-0.005": 16.0117036928,
			"-0.004": 20.4091825468,
			"-0.003": 30.5505856898,
			"-0.002": 48.7930733692,
			"-0.001": 44.3362088588,
			"0.0": 43.6717074513,
			"0.001": 40.6292272099,
			"0.002": 31.0136755521,
			"0.003": 23.1948424774,
			"0.004": 10.5769232249,
			"0.005": 5.58189708321,
			"0.006": 5.6547551467,
			"0.007": 3.73667562135,
			"0.008": 2.61279491346,
			"0.009": 2.66864606023,
			"0.01": 2.37789768362,
			"0.011": 3.13047995387,
			"0.012": 3.95199218661,
			"0.013": 3.68260246571,
			"0.014": 0.0575955726217,
			"0.015": 0.0,
			"0.016": 0.0,
			"0.017": 0.0,
			"0.018": 0.0,
			"0.019": 0.0,
			"0.02": 0.0,
			"0.021": 0.0,
			"0.022": 0.0,
			"0.023": 0.0,
			"0.024": 0.0,
			"0.025": 0.0
		}
	}
}
