{
	 "smiles": "NC1=CC=CC=C1N1CCNCC1", 
	 "Tm": 388.15, 
	 "num_atms": 28, 
	 "gaussian": { 
		 "optdone": 1, 
		 "sigma_profile": "yes", 
		 "theory": "DFT", 
		 "functional": "B3LYP", 
		 "basiset": "6-31G**", 
		 "properties": { 
			 "R2extent": 3121.5663, 
			 "electric_dipole_moment_norm": 0.367351834077, 
			 "electric_quadrupole_moment_norm": 10.0585582048, 
			 "total_energy": -554.335614767, 
			 "HOMO_LUMO_gap": 0.198, 
			 "cosmo_polarized_energy": -9.77, 
			 "cosmo_cavitation_energy": 28.69, 
			 "cosmo_dispersion_energy": -21.27, 
			 "cosmo_repulsion_energy": 1.68, 
			 "cosmo_total_nonelectrostatic_energy": 9.09, 
			 "SMD_solvation_energy": 1.55 
		},
		"coords": [
			{
				"x": -0.7433640909,
				"y": -0.7953180571,
				"z": -2.410749015,
				"element": "N" 
			},
			{
				"x": 0.2222350336,
				"y": -1.3536187624,
				"z": -1.5707248061,
				"element": "C" 
			},
			{
				"x": 1.4698667764,
				"y": -1.7733097909,
				"z": -2.054067238,
				"element": "C" 
			},
			{
				"x": 2.425310302,
				"y": -2.3102812275,
				"z": -1.1928151247,
				"element": "C" 
			},
			{
				"x": 2.1522159672,
				"y": -2.434960968,
				"z": 0.1694996023,
				"element": "C" 
			},
			{
				"x": 0.9185802585,
				"y": -2.0030971002,
				"z": 0.6621700702,
				"element": "C" 
			},
			{
				"x": -0.0576158085,
				"y": -1.4686042772,
				"z": -0.1852928064,
				"element": "C" 
			},
			{
				"x": -1.3388314488,
				"y": -1.0159115895,
				"z": 0.2602367998,
				"element": "N" 
			},
			{
				"x": -2.0135076573,
				"y": -1.7822720371,
				"z": 1.3270392432,
				"element": "C" 
			},
			{
				"x": -2.0957444583,
				"y": -1.0190379216,
				"z": 2.6508361177,
				"element": "C" 
			},
			{
				"x": -2.8915506148,
				"y": 0.2043644145,
				"z": 2.4619820171,
				"element": "N" 
			},
			{
				"x": -2.7369130906,
				"y": 0.8071755977,
				"z": 1.1253031493,
				"element": "C" 
			},
			{
				"x": -1.4112253429,
				"y": 0.4492918463,
				"z": 0.4512443621,
				"element": "C" 
			},
			{
				"x": -1.676771096,
				"y": -0.9122775354,
				"z": -2.029102846,
				"element": "H" 
			},
			{
				"x": -0.6761983864,
				"y": -1.0847870769,
				"z": -3.3775301981,
				"element": "H" 
			},
			{
				"x": 1.6806771993,
				"y": -1.6866094696,
				"z": -3.1175779655,
				"element": "H" 
			},
			{
				"x": 3.3815590308,
				"y": -2.6370417472,
				"z": -1.5917169312,
				"element": "H" 
			},
			{
				"x": 2.8924189809,
				"y": -2.8516146146,
				"z": 0.8457570535,
				"element": "H" 
			},
			{
				"x": 0.7090068186,
				"y": -2.0835005894,
				"z": 1.7252650505,
				"element": "H" 
			},
			{
				"x": -1.4943833203,
				"y": -2.7328815919,
				"z": 1.46808155,
				"element": "H" 
			},
			{
				"x": -3.037142785,
				"y": -2.0231155565,
				"z": 1.0072841505,
				"element": "H" 
			},
			{
				"x": -1.0709678421,
				"y": -0.8156910859,
				"z": 3.0069385683,
				"element": "H" 
			},
			{
				"x": -2.5764789863,
				"y": -1.6518372308,
				"z": 3.4084086642,
				"element": "H" 
			},
			{
				"x": -2.6426126085,
				"y": 0.8823214061,
				"z": 3.174159931,
				"element": "H" 
			},
			{
				"x": -3.5595163063,
				"y": 0.475492413,
				"z": 0.4761142845,
				"element": "H" 
			},
			{
				"x": -2.8271489701,
				"y": 1.8945928367,
				"z": 1.2119266495,
				"element": "H" 
			},
			{
				"x": -0.5742040667,
				"y": 0.8132417571,
				"z": 1.0719743729,
				"element": "H" 
			},
			{
				"x": -1.3236934875,
				"y": 0.9399879583,
				"z": -0.5248447053,
				"element": "H" 
			}
		],
		 "valence_orbital": [ 
			{
				"type": "occ",
				"energy": -0.29828,
				"method": "rhf"
			},
			{
				"type": "occ",
				"energy": -0.24625,
				"method": "rhf"
			},
			{
				"type": "occ",
				"energy": -0.2131,
				"method": "rhf"
			},
			{
				"type": "occ",
				"energy": -0.20929,
				"method": "rhf"
			},
			{
				"type": "occ",
				"energy": -0.18745,
				"method": "rhf"
			},
			{
				"type": "unocc",
				"energy": 0.01055,
				"method": "rhf"
			},
			{
				"type": "unocc",
				"energy": 0.02549,
				"method": "rhf"
			},
			{
				"type": "unocc",
				"energy": 0.07566,
				"method": "rhf"
			},
			{
				"type": "unocc",
				"energy": 0.09441,
				"method": "rhf"
			},
			{
				"type": "unocc",
				"energy": 0.098,
				"method": "rhf"
			}
		],
		"cosmo_sigma_profile": { 
			"-0.025": 0.0,
			"-0.024": 0.0,
			"-0.023": 0.0,
			"-0.022": 0.0,
			"-0.021": 0.0,
			"-0.02": 0.0,
			"-0.019": 0.0,
			"-0.018": 0.0,
			"-0.017": 0.0,
			"-0.016": 0.0,
			"-0.015": 0.0,
			"-0.014": 0.0,
			"-0.013": 0.0,
			"-0.012": 0.746477874808,
			"-0.011": 1.32289230237,
			"-0.01": 1.98682156019,
			"-0.009": 3.95716787757,
			"-0.008": 3.10453991622,
			"-0.007": 3.81917428418,
			"-0.006": 4.44742121415,
			"-0.005": 10.3423435314,
			"-0.004": 15.9353703828,
			"-0.003": 23.3028036556,
			"-0.002": 30.4836832271,
			"-0.001": 25.2501518146,
			"0.0": 17.5655380185,
			"0.001": 10.9715837029,
			"0.002": 8.97695059158,
			"0.003": 10.210761276,
			"0.004": 9.35200995089,
			"0.005": 8.70428507697,
			"0.006": 9.70504039601,
			"0.007": 9.02255861868,
			"0.008": 4.7668485277,
			"0.009": 1.53160948125,
			"0.01": 1.44865363829,
			"0.011": 1.0344182688,
			"0.012": 1.73135423069,
			"0.013": 1.03898308158,
			"0.014": 0.588532822176,
			"0.015": 0.722308620331,
			"0.016": 0.930494193154,
			"0.017": 0.514982379731,
			"0.018": 0.364955690905,
			"0.019": 0.237308855983,
			"0.02": 0.0,
			"0.021": 0.0,
			"0.022": 0.0,
			"0.023": 0.0,
			"0.024": 0.0,
			"0.025": 0.0
		}
	}
}
