{
	 "smiles": "COC1=CC(C=C2CCCC(=C/C3=CC=C(O)C(OC)=C3)C2=O)=CC=C1O", 
	 "Tm": 451.15, 
	 "num_atms": 49, 
	 "gaussian": { 
		 "optdone": 1, 
		 "sigma_profile": "yes", 
		 "theory": "DFT", 
		 "functional": "B3LYP", 
		 "basiset": "6-31G**", 
		 "properties": { 
			 "R2extent": 17262.4702, 
			 "electric_dipole_moment_norm": 4.59979554654, 
			 "electric_quadrupole_moment_norm": 21.0845348192, 
			 "total_energy": -1227.66556285, 
			 "HOMO_LUMO_gap": 0.12253, 
			 "cosmo_polarized_energy": -19.39, 
			 "cosmo_cavitation_energy": 51.78, 
			 "cosmo_dispersion_energy": -37.1, 
			 "cosmo_repulsion_energy": 2.78, 
			 "cosmo_total_nonelectrostatic_energy": 17.46, 
			 "SMD_solvation_energy": 10.55 
		},
		"coords": [
			{
				"x": -2.4885030638,
				"y": 2.8575032215,
				"z": 1.6133776307,
				"element": "C" 
			},
			{
				"x": -1.961636836,
				"y": 3.3419316342,
				"z": 2.8431365626,
				"element": "O" 
			},
			{
				"x": -0.9411438384,
				"y": 2.6302039904,
				"z": 3.4280984556,
				"element": "C" 
			},
			{
				"x": -0.3743858786,
				"y": 1.4722799202,
				"z": 2.9236667665,
				"element": "C" 
			},
			{
				"x": 0.675034537,
				"y": 0.8290313403,
				"z": 3.6236401859,
				"element": "C" 
			},
			{
				"x": 1.373859708,
				"y": -0.3883765339,
				"z": 3.2191343899,
				"element": "C" 
			},
			{
				"x": 1.4848326942,
				"y": -1.1899838281,
				"z": 2.1162553129,
				"element": "C" 
			},
			{
				"x": 2.4312424767,
				"y": -2.3781318611,
				"z": 2.217016959,
				"element": "C" 
			},
			{
				"x": 3.3586464086,
				"y": -2.4566285231,
				"z": 1.0030742089,
				"element": "C" 
			},
			{
				"x": 2.5274068887,
				"y": -2.6927255368,
				"z": -0.2598928387,
				"element": "C" 
			},
			{
				"x": 1.3763914718,
				"y": -1.7183125779,
				"z": -0.4044025405,
				"element": "C" 
			},
			{
				"x": 0.8006516241,
				"y": -1.3904847738,
				"z": -1.5890444924,
				"element": "C" 
			},
			{
				"x": 1.0574664823,
				"y": -1.8606363231,
				"z": -2.9487425653,
				"element": "C" 
			},
			{
				"x": 1.6434846841,
				"y": -3.0953201174,
				"z": -3.2888019223,
				"element": "C" 
			},
			{
				"x": 1.8236223234,
				"y": -3.4567875045,
				"z": -4.621638712,
				"element": "C" 
			},
			{
				"x": 1.4317714683,
				"y": -2.6074532506,
				"z": -5.6590866946,
				"element": "C" 
			},
			{
				"x": 1.5729455502,
				"y": -2.9332286503,
				"z": -6.9769775274,
				"element": "O" 
			},
			{
				"x": 0.8407491967,
				"y": -1.3650898972,
				"z": -5.3450689996,
				"element": "C" 
			},
			{
				"x": 0.3722397025,
				"y": -0.5195997582,
				"z": -6.3186652914,
				"element": "O" 
			},
			{
				"x": 1.3586842931,
				"y": 0.0581392796,
				"z": -7.1786291289,
				"element": "C" 
			},
			{
				"x": 0.6550407171,
				"y": -1.0229427361,
				"z": -4.0121341159,
				"element": "C" 
			},
			{
				"x": 0.8164017209,
				"y": -0.9986395804,
				"z": 0.8015856046,
				"element": "C" 
			},
			{
				"x": -0.1691824955,
				"y": -0.2657793318,
				"z": 0.6584223013,
				"element": "O" 
			},
			{
				"x": 1.095324326,
				"y": 1.3982577061,
				"z": 4.8462446506,
				"element": "C" 
			},
			{
				"x": 0.5259838576,
				"y": 2.5629616432,
				"z": 5.350597286,
				"element": "C" 
			},
			{
				"x": -0.4970658121,
				"y": 3.1912347133,
				"z": 4.6453042918,
				"element": "C" 
			},
			{
				"x": -1.0701949811,
				"y": 4.3241781035,
				"z": 5.1224803948,
				"element": "O" 
			},
			{
				"x": -1.7138850971,
				"y": 2.8125469547,
				"z": 0.8393367537,
				"element": "H" 
			},
			{
				"x": -3.2644638085,
				"y": 3.5648043115,
				"z": 1.3167273368,
				"element": "H" 
			},
			{
				"x": -2.9267137162,
				"y": 1.8599995341,
				"z": 1.7348021711,
				"element": "H" 
			},
			{
				"x": -0.7145309013,
				"y": 1.0313317777,
				"z": 1.9989580696,
				"element": "H" 
			},
			{
				"x": 2.0200362869,
				"y": -0.7256931689,
				"z": 4.0309455826,
				"element": "H" 
			},
			{
				"x": 1.8552209224,
				"y": -3.3153127917,
				"z": 2.2752691972,
				"element": "H" 
			},
			{
				"x": 3.0082784428,
				"y": -2.3154673895,
				"z": 3.1452250205,
				"element": "H" 
			},
			{
				"x": 4.0870727723,
				"y": -3.2667747592,
				"z": 1.1241404741,
				"element": "H" 
			},
			{
				"x": 3.9262835723,
				"y": -1.5218088477,
				"z": 0.9144175261,
				"element": "H" 
			},
			{
				"x": 2.1348938461,
				"y": -3.7212684566,
				"z": -0.220217053,
				"element": "H" 
			},
			{
				"x": 3.1642763952,
				"y": -2.6443706031,
				"z": -1.1500078135,
				"element": "H" 
			},
			{
				"x": 0.0307023092,
				"y": -0.6251949452,
				"z": -1.5142765774,
				"element": "H" 
			},
			{
				"x": 1.9241151266,
				"y": -3.8018115551,
				"z": -2.5190300254,
				"element": "H" 
			},
			{
				"x": 2.2600290519,
				"y": -4.4239398339,
				"z": -4.8647531469,
				"element": "H" 
			},
			{
				"x": 1.9664881774,
				"y": -3.813229326,
				"z": -7.0424149181,
				"element": "H" 
			},
			{
				"x": 2.092307494,
				"y": 0.6342841387,
				"z": -6.5998892076,
				"element": "H" 
			},
			{
				"x": 0.8187533303,
				"y": 0.7328588277,
				"z": -7.8459104263,
				"element": "H" 
			},
			{
				"x": 1.8755695083,
				"y": -0.7033898443,
				"z": -7.7697072978,
				"element": "H" 
			},
			{
				"x": 0.179778674,
				"y": -0.0692580797,
				"z": -3.8035002817,
				"element": "H" 
			},
			{
				"x": 1.8927377495,
				"y": 0.9191221143,
				"z": 5.4074288197,
				"element": "H" 
			},
			{
				"x": 0.8577006103,
				"y": 2.9965261986,
				"z": 6.2881079627,
				"element": "H" 
			},
			{
				"x": -1.7532179721,
				"y": 4.5823449755,
				"z": 4.4827976612,
				"element": "H" 
			}
		],
		 "valence_orbital": [ 
			{
				"type": "occ",
				"energy": -0.24165,
				"method": "rhf"
			},
			{
				"type": "occ",
				"energy": -0.23426,
				"method": "rhf"
			},
			{
				"type": "occ",
				"energy": -0.22882,
				"method": "rhf"
			},
			{
				"type": "occ",
				"energy": -0.20949,
				"method": "rhf"
			},
			{
				"type": "occ",
				"energy": -0.19358,
				"method": "rhf"
			},
			{
				"type": "unocc",
				"energy": -0.07105,
				"method": "rhf"
			},
			{
				"type": "unocc",
				"energy": -0.02184,
				"method": "rhf"
			},
			{
				"type": "unocc",
				"energy": -0.0049,
				"method": "rhf"
			},
			{
				"type": "unocc",
				"energy": 0.01587,
				"method": "rhf"
			},
			{
				"type": "unocc",
				"energy": 0.02784,
				"method": "rhf"
			}
		],
		"cosmo_sigma_profile": { 
			"-0.025": 0.0,
			"-0.024": 0.0,
			"-0.023": 0.0,
			"-0.022": 0.0,
			"-0.021": 0.0,
			"-0.02": 0.0,
			"-0.019": 0.131734407937,
			"-0.018": 0.818970426386,
			"-0.017": 1.33082462849,
			"-0.016": 0.978185110087,
			"-0.015": 0.942234278853,
			"-0.014": 1.86750738481,
			"-0.013": 1.31800057245,
			"-0.012": 1.2735445474,
			"-0.011": 2.18430595772,
			"-0.01": 1.78488543002,
			"-0.009": 1.66986865438,
			"-0.008": 1.39234632052,
			"-0.007": 3.76076382947,
			"-0.006": 15.1762716448,
			"-0.005": 23.0440929653,
			"-0.004": 31.290343357,
			"-0.003": 42.4016345732,
			"-0.002": 35.1905042475,
			"-0.001": 33.561815422,
			"0.0": 27.9143911659,
			"0.001": 23.2166115302,
			"0.002": 28.0946398295,
			"0.003": 32.3213065126,
			"0.004": 36.5427269771,
			"0.005": 22.2321022566,
			"0.006": 7.85526637891,
			"0.007": 6.85926225833,
			"0.008": 5.58769733575,
			"0.009": 5.94651651219,
			"0.01": 6.79192573033,
			"0.011": 5.42356682859,
			"0.012": 2.08461183562,
			"0.013": 0.0957783218822,
			"0.014": 0.0,
			"0.015": 0.0,
			"0.016": 0.0,
			"0.017": 0.0,
			"0.018": 0.0,
			"0.019": 0.0,
			"0.02": 0.0,
			"0.021": 0.0,
			"0.022": 0.0,
			"0.023": 0.0,
			"0.024": 0.0,
			"0.025": 0.0
		}
	}
}
