{
	 "smiles": "CC(C)(OC1=CC=C(Cl)C=C1)C(=O)OCCCOC(=O)C(C)(C)OC1=CC=C(Cl)C=C1", 
	 "Tm": 325.15, 
	 "num_atms": 57, 
	 "gaussian": { 
		 "optdone": 1, 
		 "sigma_profile": "yes", 
		 "theory": "DFT", 
		 "functional": "B3LYP", 
		 "basiset": "6-31G**", 
		 "properties": { 
			 "R2extent": 17636.5742, 
			 "electric_dipole_moment_norm": 2.12783554111, 
			 "electric_quadrupole_moment_norm": 10.2361467018, 
			 "total_energy": -2263.86027164, 
			 "HOMO_LUMO_gap": 0.20602, 
			 "cosmo_polarized_energy": -17.78, 
			 "cosmo_cavitation_energy": 63.24, 
			 "cosmo_dispersion_energy": -38.66, 
			 "cosmo_repulsion_energy": 2.92, 
			 "cosmo_total_nonelectrostatic_energy": 27.5, 
			 "SMD_solvation_energy": 11.33 
		},
		"coords": [
			{
				"x": 1.0921390367,
				"y": -2.7572363328,
				"z": -2.1363012825,
				"element": "C" 
			},
			{
				"x": 0.3040240412,
				"y": -1.7852700436,
				"z": -1.2526756008,
				"element": "C" 
			},
			{
				"x": 0.9398933781,
				"y": -1.6873743566,
				"z": 0.1448292666,
				"element": "C" 
			},
			{
				"x": 0.3542593902,
				"y": -0.4390518127,
				"z": -1.763968128,
				"element": "O" 
			},
			{
				"x": -0.16780314,
				"y": -0.0930887251,
				"z": -2.9832030712,
				"element": "C" 
			},
			{
				"x": -1.0241143277,
				"y": -0.8797383088,
				"z": -3.7643134047,
				"element": "C" 
			},
			{
				"x": -1.5068756819,
				"y": -0.390263897,
				"z": -4.980799414,
				"element": "C" 
			},
			{
				"x": -1.1417784029,
				"y": 0.8797753785,
				"z": -5.4153556131,
				"element": "C" 
			},
			{
				"x": -1.7546203984,
				"y": 1.4898918826,
				"z": -6.9475116089,
				"element": "Cl" 
			},
			{
				"x": -0.29079994,
				"y": 1.6738329983,
				"z": -4.6448564462,
				"element": "C" 
			},
			{
				"x": 0.1929140484,
				"y": 1.1842021606,
				"z": -3.4369154133,
				"element": "C" 
			},
			{
				"x": -1.1404123352,
				"y": -2.2734988044,
				"z": -1.0260879735,
				"element": "C" 
			},
			{
				"x": -1.4617180518,
				"y": -3.4434708189,
				"z": -1.067109267,
				"element": "O" 
			},
			{
				"x": -1.9661753071,
				"y": -1.265591906,
				"z": -0.6940683827,
				"element": "O" 
			},
			{
				"x": -3.3033418145,
				"y": -1.6381149979,
				"z": -0.2855192937,
				"element": "C" 
			},
			{
				"x": -3.3829280849,
				"y": -1.8682979907,
				"z": 1.2246887662,
				"element": "C" 
			},
			{
				"x": -3.4104073639,
				"y": -0.6053747064,
				"z": 2.0728097859,
				"element": "C" 
			},
			{
				"x": -2.1960860706,
				"y": 0.1434433655,
				"z": 1.847381247,
				"element": "O" 
			},
			{
				"x": -2.1796648343,
				"y": 1.3844169511,
				"z": 2.3660277858,
				"element": "C" 
			},
			{
				"x": -3.0865553492,
				"y": 1.8512748072,
				"z": 3.0215453186,
				"element": "O" 
			},
			{
				"x": -0.9199794204,
				"y": 2.1723407553,
				"z": 1.9577451073,
				"element": "C" 
			},
			{
				"x": -1.0177399142,
				"y": 2.4851989711,
				"z": 0.455541056,
				"element": "C" 
			},
			{
				"x": -0.8289955072,
				"y": 3.446243105,
				"z": 2.7973118503,
				"element": "C" 
			},
			{
				"x": 0.1820778979,
				"y": 1.262863911,
				"z": 2.2375870175,
				"element": "O" 
			},
			{
				"x": 1.4778865062,
				"y": 1.7230691677,
				"z": 2.1144986751,
				"element": "C" 
			},
			{
				"x": 2.1705200261,
				"y": 2.1249492653,
				"z": 3.261726171,
				"element": "C" 
			},
			{
				"x": 3.5067134934,
				"y": 2.5148259033,
				"z": 3.1800750706,
				"element": "C" 
			},
			{
				"x": 4.147097866,
				"y": 2.4977104365,
				"z": 1.941324977,
				"element": "C" 
			},
			{
				"x": 5.8320331802,
				"y": 2.9902697272,
				"z": 1.8301734182,
				"element": "Cl" 
			},
			{
				"x": 3.4749663196,
				"y": 2.0843314592,
				"z": 0.7916552464,
				"element": "C" 
			},
			{
				"x": 2.138561251,
				"y": 1.6925751635,
				"z": 0.8802041027,
				"element": "C" 
			},
			{
				"x": 0.7095285683,
				"y": -2.7978457317,
				"z": -3.1573307597,
				"element": "H" 
			},
			{
				"x": 1.0378680328,
				"y": -3.7626866979,
				"z": -1.7160781519,
				"element": "H" 
			},
			{
				"x": 2.1370196495,
				"y": -2.4382299736,
				"z": -2.1720880698,
				"element": "H" 
			},
			{
				"x": 1.9713963176,
				"y": -1.3389754382,
				"z": 0.0490976758,
				"element": "H" 
			},
			{
				"x": 0.3865421373,
				"y": -0.9883286129,
				"z": 0.7756477327,
				"element": "H" 
			},
			{
				"x": 0.9462002803,
				"y": -2.6731203729,
				"z": 0.6178923025,
				"element": "H" 
			},
			{
				"x": -1.328410556,
				"y": -1.8704922423,
				"z": -3.4513796608,
				"element": "H" 
			},
			{
				"x": -2.1681206954,
				"y": -1.0021196881,
				"z": -5.5844842176,
				"element": "H" 
			},
			{
				"x": -0.0075035192,
				"y": 2.662411783,
				"z": -4.9889944627,
				"element": "H" 
			},
			{
				"x": 0.8591042372,
				"y": 1.7843785339,
				"z": -2.8262345006,
				"element": "H" 
			},
			{
				"x": -3.592290552,
				"y": -2.5426823584,
				"z": -0.8238051524,
				"element": "H" 
			},
			{
				"x": -3.9377196663,
				"y": -0.8053552822,
				"z": -0.599895286,
				"element": "H" 
			},
			{
				"x": -4.3115675175,
				"y": -2.4145861278,
				"z": 1.4344602318,
				"element": "H" 
			},
			{
				"x": -2.5616196382,
				"y": -2.5243827151,
				"z": 1.5311044515,
				"element": "H" 
			},
			{
				"x": -3.4875183664,
				"y": -0.8464810871,
				"z": 3.1380601374,
				"element": "H" 
			},
			{
				"x": -4.2658575301,
				"y": 0.0292777263,
				"z": 1.8183112409,
				"element": "H" 
			},
			{
				"x": -1.9292545915,
				"y": 3.0564385625,
				"z": 0.2520560056,
				"element": "H" 
			},
			{
				"x": -1.0399870149,
				"y": 1.5623036257,
				"z": -0.1275673123,
				"element": "H" 
			},
			{
				"x": -0.1660107525,
				"y": 3.0934185879,
				"z": 0.1393739655,
				"element": "H" 
			},
			{
				"x": 0.0537237154,
				"y": 4.0251902389,
				"z": 2.5155944098,
				"element": "H" 
			},
			{
				"x": -1.7180713005,
				"y": 4.0587964837,
				"z": 2.6373001259,
				"element": "H" 
			},
			{
				"x": -0.7749803259,
				"y": 3.2075581422,
				"z": 3.8621040994,
				"element": "H" 
			},
			{
				"x": 1.6568673172,
				"y": 2.1180194252,
				"z": 4.2170694343,
				"element": "H" 
			},
			{
				"x": 4.0464177242,
				"y": 2.8257393985,
				"z": 4.0677441886,
				"element": "H" 
			},
			{
				"x": 3.9932105509,
				"y": 2.0602260844,
				"z": -0.1607440897,
				"element": "H" 
			},
			{
				"x": 1.6153430048,
				"y": 1.3341850282,
				"z": 0.0009456991,
				"element": "H" 
			}
		],
		 "valence_orbital": [ 
			{
				"type": "occ",
				"energy": -0.27401,
				"method": "rhf"
			},
			{
				"type": "occ",
				"energy": -0.26774,
				"method": "rhf"
			},
			{
				"type": "occ",
				"energy": -0.26669,
				"method": "rhf"
			},
			{
				"type": "occ",
				"energy": -0.23976,
				"method": "rhf"
			},
			{
				"type": "occ",
				"energy": -0.22554,
				"method": "rhf"
			},
			{
				"type": "unocc",
				"energy": -0.01952,
				"method": "rhf"
			},
			{
				"type": "unocc",
				"energy": -0.01858,
				"method": "rhf"
			},
			{
				"type": "unocc",
				"energy": -0.01567,
				"method": "rhf"
			},
			{
				"type": "unocc",
				"energy": -0.00645,
				"method": "rhf"
			},
			{
				"type": "unocc",
				"energy": -0.00386,
				"method": "rhf"
			}
		],
		"cosmo_sigma_profile": { 
			"-0.025": 0.0,
			"-0.024": 0.0,
			"-0.023": 0.0,
			"-0.022": 0.0,
			"-0.021": 0.0,
			"-0.02": 0.0,
			"-0.019": 0.0,
			"-0.018": 0.0,
			"-0.017": 0.0,
			"-0.016": 0.0,
			"-0.015": 0.0,
			"-0.014": 0.0,
			"-0.013": 0.0,
			"-0.012": 0.0,
			"-0.011": 0.0,
			"-0.01": 0.0,
			"-0.009": 0.0,
			"-0.008": 0.868339520541,
			"-0.007": 11.2007178036,
			"-0.006": 27.899747011,
			"-0.005": 38.0252819894,
			"-0.004": 45.5386615905,
			"-0.003": 39.5839830599,
			"-0.002": 38.5158612413,
			"-0.001": 43.1165331652,
			"0.0": 38.5101616098,
			"0.001": 36.5964588672,
			"0.002": 40.5801703329,
			"0.003": 43.650505245,
			"0.004": 35.5392731465,
			"0.005": 26.3693029834,
			"0.006": 9.24176459445,
			"0.007": 4.2050094997,
			"0.008": 4.16383465209,
			"0.009": 4.13615804979,
			"0.01": 4.8146363457,
			"0.011": 7.84370110534,
			"0.012": 3.82435749664,
			"0.013": 0.0,
			"0.014": 0.0,
			"0.015": 0.0,
			"0.016": 0.0,
			"0.017": 0.0,
			"0.018": 0.0,
			"0.019": 0.0,
			"0.02": 0.0,
			"0.021": 0.0,
			"0.022": 0.0,
			"0.023": 0.0,
			"0.024": 0.0,
			"0.025": 0.0
		}
	}
}
