{
	 "smiles": "OC(=O)C1CN(C(=O)C1)C1=CC=CC=C1", 
	 "Tm": 465.15, 
	 "num_atms": 26, 
	 "gaussian": { 
		 "optdone": 1, 
		 "sigma_profile": "yes", 
		 "theory": "DFT", 
		 "functional": "B3LYP", 
		 "basiset": "6-31G**", 
		 "properties": { 
			 "R2extent": 4107.6945, 
			 "electric_dipole_moment_norm": 4.48463545007, 
			 "electric_quadrupole_moment_norm": 12.8029160339, 
			 "total_energy": -706.254157987, 
			 "HOMO_LUMO_gap": 0.20244, 
			 "cosmo_polarized_energy": -16.71, 
			 "cosmo_cavitation_energy": 29.52, 
			 "cosmo_dispersion_energy": -21.68, 
			 "cosmo_repulsion_energy": 1.69, 
			 "cosmo_total_nonelectrostatic_energy": 9.53, 
			 "SMD_solvation_energy": 6.25 
		},
		"coords": [
			{
				"x": -2.1828723467,
				"y": 3.550644023,
				"z": 2.5454696034,
				"element": "O" 
			},
			{
				"x": -1.9918816657,
				"y": 2.2787712626,
				"z": 2.9718048493,
				"element": "C" 
			},
			{
				"x": -2.9003278996,
				"y": 1.5715802732,
				"z": 3.3427983371,
				"element": "O" 
			},
			{
				"x": -0.5132213296,
				"y": 1.9042662328,
				"z": 2.9530284849,
				"element": "C" 
			},
			{
				"x": 0.1304430042,
				"y": 2.1123223312,
				"z": 1.5603987636,
				"element": "C" 
			},
			{
				"x": 0.0677717063,
				"y": 0.7900079034,
				"z": 0.9330873156,
				"element": "N" 
			},
			{
				"x": -0.1354433474,
				"y": -0.2275643129,
				"z": 1.8613196388,
				"element": "C" 
			},
			{
				"x": -0.1614925948,
				"y": -1.4243928945,
				"z": 1.6371080796,
				"element": "O" 
			},
			{
				"x": -0.3020896066,
				"y": 0.4156948496,
				"z": 3.2355099882,
				"element": "C" 
			},
			{
				"x": 0.3664513092,
				"y": 0.6203622213,
				"z": -0.4424560285,
				"element": "C" 
			},
			{
				"x": 0.1373540841,
				"y": -0.6024588864,
				"z": -1.1003750228,
				"element": "C" 
			},
			{
				"x": 0.4280191557,
				"y": -0.7228804351,
				"z": -2.4572823484,
				"element": "C" 
			},
			{
				"x": 0.9428623019,
				"y": 0.3509620073,
				"z": -3.1862346845,
				"element": "C" 
			},
			{
				"x": 1.1702007835,
				"y": 1.5616337475,
				"z": -2.5346582414,
				"element": "C" 
			},
			{
				"x": 0.8879151511,
				"y": 1.7005149713,
				"z": -1.175733392,
				"element": "C" 
			},
			{
				"x": -3.1390063736,
				"y": 3.7172866086,
				"z": 2.6001507266,
				"element": "H" 
			},
			{
				"x": -0.02522164,
				"y": 2.5553944521,
				"z": 3.6858441233,
				"element": "H" 
			},
			{
				"x": -0.4069653444,
				"y": 2.852962041,
				"z": 0.9646195546,
				"element": "H" 
			},
			{
				"x": 1.1711472904,
				"y": 2.4490733212,
				"z": 1.6604050716,
				"element": "H" 
			},
			{
				"x": -1.1408433748,
				"y": -0.040774837,
				"z": 3.7627465754,
				"element": "H" 
			},
			{
				"x": 0.6096299064,
				"y": 0.2333037363,
				"z": 3.8146174107,
				"element": "H" 
			},
			{
				"x": -0.2513834522,
				"y": -1.4409658111,
				"z": -0.541571974,
				"element": "H" 
			},
			{
				"x": 0.2444086847,
				"y": -1.6742299712,
				"z": -2.9487407601,
				"element": "H" 
			},
			{
				"x": 1.1634170612,
				"y": 0.2447695236,
				"z": -4.2440144498,
				"element": "H" 
			},
			{
				"x": 1.5730432031,
				"y": 2.4103267308,
				"z": -3.0801732542,
				"element": "H" 
			},
			{
				"x": 1.0854853335,
				"y": 2.6515909114,
				"z": -0.6953683669,
				"element": "H" 
			}
		],
		 "valence_orbital": [ 
			{
				"type": "occ",
				"energy": -0.29851,
				"method": "rhf"
			},
			{
				"type": "occ",
				"energy": -0.28791,
				"method": "rhf"
			},
			{
				"type": "occ",
				"energy": -0.2529,
				"method": "rhf"
			},
			{
				"type": "occ",
				"energy": -0.24758,
				"method": "rhf"
			},
			{
				"type": "occ",
				"energy": -0.21857,
				"method": "rhf"
			},
			{
				"type": "unocc",
				"energy": -0.01613,
				"method": "rhf"
			},
			{
				"type": "unocc",
				"energy": -0.00505,
				"method": "rhf"
			},
			{
				"type": "unocc",
				"energy": 0.00052,
				"method": "rhf"
			},
			{
				"type": "unocc",
				"energy": 0.04108,
				"method": "rhf"
			},
			{
				"type": "unocc",
				"energy": 0.06236,
				"method": "rhf"
			}
		],
		"cosmo_sigma_profile": { 
			"-0.025": 0.0,
			"-0.024": 0.0,
			"-0.023": 0.0,
			"-0.022": 0.0,
			"-0.021": 0.0,
			"-0.02": 0.0,
			"-0.019": 0.254128110014,
			"-0.018": 0.770109132865,
			"-0.017": 0.784095079508,
			"-0.016": 1.32554438127,
			"-0.015": 0.752044673311,
			"-0.014": 0.153372936205,
			"-0.013": 0.645285143264,
			"-0.012": 1.03064728401,
			"-0.011": 0.851235995003,
			"-0.01": 0.825014750381,
			"-0.009": 0.371792951054,
			"-0.008": 2.87306216188,
			"-0.007": 10.6897207123,
			"-0.006": 19.169073287,
			"-0.005": 16.9077842589,
			"-0.004": 18.7686792129,
			"-0.003": 17.2768858161,
			"-0.002": 13.8371193798,
			"-0.001": 12.7713184955,
			"0.0": 11.1118165407,
			"0.001": 10.9319592721,
			"0.002": 12.3025469434,
			"0.003": 11.0735637355,
			"0.004": 13.5596313706,
			"0.005": 13.8877947248,
			"0.006": 10.6170915164,
			"0.007": 3.99006020304,
			"0.008": 4.31017380619,
			"0.009": 3.34734523014,
			"0.01": 4.68139291444,
			"0.011": 6.62469496785,
			"0.012": 4.3990038245,
			"0.013": 2.80802199888,
			"0.014": 1.02991906328,
			"0.015": 0.0,
			"0.016": 0.0,
			"0.017": 0.0,
			"0.018": 0.0,
			"0.019": 0.0,
			"0.02": 0.0,
			"0.021": 0.0,
			"0.022": 0.0,
			"0.023": 0.0,
			"0.024": 0.0,
			"0.025": 0.0
		}
	}
}
