{
	 "smiles": "BrC1=CC=C(NC2=C(N=NC(=S)N2)C2=CC=CC=C2)C=C1", 
	 "Tm": 632.15, 
	 "num_atms": 32, 
	 "gaussian": { 
		 "optdone": 1, 
		 "sigma_profile": "yes", 
		 "theory": "DFT", 
		 "functional": "B3LYP", 
		 "basiset": "6-31G**", 
		 "properties": { 
			 "R2extent": 12736.2397, 
			 "electric_dipole_moment_norm": 9.73762722074, 
			 "electric_quadrupole_moment_norm": 32.7057560955, 
			 "total_energy": -3766.78007042, 
			 "HOMO_LUMO_gap": 0.12173, 
			 "cosmo_polarized_energy": -31.93, 
			 "cosmo_cavitation_energy": 41.34, 
			 "cosmo_dispersion_energy": -30.2, 
			 "cosmo_repulsion_energy": 2.28, 
			 "cosmo_total_nonelectrostatic_energy": 13.42, 
			 "SMD_solvation_energy": 2.77 
		},
		"coords": [
			{
				"x": 4.0277970161,
				"y": -2.0644807021,
				"z": -4.6896816053,
				"element": "Br" 
			},
			{
				"x": 2.9437301354,
				"y": -1.2502790367,
				"z": -3.3519532695,
				"element": "C" 
			},
			{
				"x": 1.5861921669,
				"y": -1.5646283096,
				"z": -3.2794673003,
				"element": "C" 
			},
			{
				"x": 0.7981757673,
				"y": -0.9796245625,
				"z": -2.2916681554,
				"element": "C" 
			},
			{
				"x": 1.3571803098,
				"y": -0.0655214456,
				"z": -1.3891745016,
				"element": "C" 
			},
			{
				"x": 0.5163048488,
				"y": 0.5524789437,
				"z": -0.4264144195,
				"element": "N" 
			},
			{
				"x": 0.7344488647,
				"y": 0.6733468903,
				"z": 0.9135384833,
				"element": "C" 
			},
			{
				"x": -0.161235165,
				"y": 1.3015536566,
				"z": 1.8008648116,
				"element": "C" 
			},
			{
				"x": 0.0752680747,
				"y": 1.2291077974,
				"z": 3.1332915659,
				"element": "N" 
			},
			{
				"x": 1.1438099559,
				"y": 0.6958848777,
				"z": 3.6579196744,
				"element": "N" 
			},
			{
				"x": 2.1135277221,
				"y": 0.1524642384,
				"z": 2.8450847033,
				"element": "C" 
			},
			{
				"x": 3.5543711085,
				"y": -0.4748679254,
				"z": 3.3982685339,
				"element": "S" 
			},
			{
				"x": 1.8338639313,
				"y": 0.1197833998,
				"z": 1.4712070103,
				"element": "N" 
			},
			{
				"x": -1.4207901701,
				"y": 1.9541092496,
				"z": 1.3771244629,
				"element": "C" 
			},
			{
				"x": -1.5009485671,
				"y": 2.7680395243,
				"z": 0.2312525453,
				"element": "C" 
			},
			{
				"x": -2.7067790249,
				"y": 3.3723149494,
				"z": -0.1306298819,
				"element": "C" 
			},
			{
				"x": -3.8475563395,
				"y": 3.1855080061,
				"z": 0.6493009673,
				"element": "C" 
			},
			{
				"x": -3.772722417,
				"y": 2.3990139606,
				"z": 1.8028366301,
				"element": "C" 
			},
			{
				"x": -2.5748807998,
				"y": 1.7892331386,
				"z": 2.1643494847,
				"element": "C" 
			},
			{
				"x": 2.7171129628,
				"y": 0.2625502697,
				"z": -1.4889589986,
				"element": "C" 
			},
			{
				"x": 3.5136314067,
				"y": -0.342469482,
				"z": -2.4605770731,
				"element": "C" 
			},
			{
				"x": 1.1516498827,
				"y": -2.2698584347,
				"z": -3.9783594809,
				"element": "H" 
			},
			{
				"x": -0.2534841396,
				"y": -1.2397100266,
				"z": -2.2144309882,
				"element": "H" 
			},
			{
				"x": -0.4209277105,
				"y": 0.8000550455,
				"z": -0.7188834221,
				"element": "H" 
			},
			{
				"x": 2.5065569075,
				"y": -0.3837067543,
				"z": 0.9024687225,
				"element": "H" 
			},
			{
				"x": -0.6090237378,
				"y": 2.9754643481,
				"z": -0.3535605227,
				"element": "H" 
			},
			{
				"x": -2.7459412257,
				"y": 4.0040613789,
				"z": -1.0133428722,
				"element": "H" 
			},
			{
				"x": -4.7848225486,
				"y": 3.6563705858,
				"z": 0.3682423299,
				"element": "H" 
			},
			{
				"x": -4.6539028687,
				"y": 2.2578526602,
				"z": 2.421946102,
				"element": "H" 
			},
			{
				"x": -2.5098353041,
				"y": 1.1854208671,
				"z": 3.0628659395,
				"element": "H" 
			},
			{
				"x": 3.1519539723,
				"y": 1.0098163541,
				"z": -0.8325510818,
				"element": "H" 
			},
			{
				"x": 4.5655749851,
				"y": -0.0922834622,
				"z": -2.533408394,
				"element": "H" 
			}
		],
		 "valence_orbital": [ 
			{
				"type": "occ",
				"energy": -0.26767,
				"method": "rhf"
			},
			{
				"type": "occ",
				"energy": -0.25486,
				"method": "rhf"
			},
			{
				"type": "occ",
				"energy": -0.23675,
				"method": "rhf"
			},
			{
				"type": "occ",
				"energy": -0.20731,
				"method": "rhf"
			},
			{
				"type": "occ",
				"energy": -0.20546,
				"method": "rhf"
			},
			{
				"type": "unocc",
				"energy": -0.08373,
				"method": "rhf"
			},
			{
				"type": "unocc",
				"energy": -0.05543,
				"method": "rhf"
			},
			{
				"type": "unocc",
				"energy": -0.05147,
				"method": "rhf"
			},
			{
				"type": "unocc",
				"energy": -0.03441,
				"method": "rhf"
			},
			{
				"type": "unocc",
				"energy": -0.02071,
				"method": "rhf"
			}
		],
		"cosmo_sigma_profile": { 
			"-0.025": 0.0,
			"-0.024": 0.0,
			"-0.023": 0.0,
			"-0.022": 0.0,
			"-0.021": 0.0,
			"-0.02": 0.0,
			"-0.019": 0.0,
			"-0.018": 0.0,
			"-0.017": 0.0,
			"-0.016": 0.0165491169586,
			"-0.015": 0.785540330634,
			"-0.014": 1.54177159029,
			"-0.013": 2.00377021367,
			"-0.012": 2.66010865887,
			"-0.011": 2.93337076624,
			"-0.01": 3.65042041088,
			"-0.009": 6.15335009449,
			"-0.008": 8.96766321504,
			"-0.007": 14.9673728551,
			"-0.006": 23.5957195423,
			"-0.005": 22.3201358958,
			"-0.004": 20.7138712037,
			"-0.003": 17.8897148107,
			"-0.002": 16.4943293111,
			"-0.001": 17.1368275939,
			"0.0": 18.5755570953,
			"0.001": 25.8423114991,
			"0.002": 23.6397652842,
			"0.003": 20.2039322012,
			"0.004": 25.5864297673,
			"0.005": 11.2974246822,
			"0.006": 4.72451547344,
			"0.007": 4.45517708099,
			"0.008": 6.4689838335,
			"0.009": 8.39976879455,
			"0.01": 7.55577416453,
			"0.011": 6.06881194738,
			"0.012": 4.55505634217,
			"0.013": 4.4480139608,
			"0.014": 2.70914687884,
			"0.015": 1.84129691585,
			"0.016": 1.2483666041,
			"0.017": 0.367054006956,
			"0.018": 0.0,
			"0.019": 0.0,
			"0.02": 0.0,
			"0.021": 0.0,
			"0.022": 0.0,
			"0.023": 0.0,
			"0.024": 0.0,
			"0.025": 0.0
		}
	}
}
