{
	 "smiles": "CC(=O)OC1=CC(=CC(OC(C)=O)=C1OC(C)=O)C(O)=O", 
	 "Tm": 437.15, 
	 "num_atms": 33, 
	 "gaussian": { 
		 "optdone": 1, 
		 "sigma_profile": "yes", 
		 "theory": "DFT", 
		 "functional": "B3LYP", 
		 "basiset": "6-31G**", 
		 "properties": { 
			 "R2extent": 6924.4528, 
			 "electric_dipole_moment_norm": 6.73203750064, 
			 "electric_quadrupole_moment_norm": 27.4984921801, 
			 "total_energy": -1104.4344607, 
			 "HOMO_LUMO_gap": 0.202, 
			 "cosmo_polarized_energy": -23.31, 
			 "cosmo_cavitation_energy": 39.93, 
			 "cosmo_dispersion_energy": -26.61, 
			 "cosmo_repulsion_energy": 2.08, 
			 "cosmo_total_nonelectrostatic_energy": 15.4, 
			 "SMD_solvation_energy": 11.56 
		},
		"coords": [
			{
				"x": -3.8373129361,
				"y": -0.9041364437,
				"z": 1.4704342928,
				"element": "C" 
			},
			{
				"x": -2.7126115706,
				"y": -0.3878674507,
				"z": 0.6109266599,
				"element": "C" 
			},
			{
				"x": -2.5163308228,
				"y": 0.7587240799,
				"z": 0.298241819,
				"element": "O" 
			},
			{
				"x": -1.9199469075,
				"y": -1.4386913777,
				"z": 0.2130719983,
				"element": "O" 
			},
			{
				"x": -0.8120095882,
				"y": -1.2239528212,
				"z": -0.5956141693,
				"element": "C" 
			},
			{
				"x": -0.7634981011,
				"y": -1.9013323645,
				"z": -1.8059184775,
				"element": "C" 
			},
			{
				"x": 0.3848216265,
				"y": -1.825325967,
				"z": -2.5978598791,
				"element": "C" 
			},
			{
				"x": 1.4791189387,
				"y": -1.0597939573,
				"z": -2.1796884266,
				"element": "C" 
			},
			{
				"x": 1.4305755906,
				"y": -0.3971205382,
				"z": -0.9541961514,
				"element": "C" 
			},
			{
				"x": 2.4588945378,
				"y": 0.3772493128,
				"z": -0.4500340843,
				"element": "O" 
			},
			{
				"x": 3.7837991983,
				"y": 0.0849532836,
				"z": -0.6734425612,
				"element": "C" 
			},
			{
				"x": 4.6404141427,
				"y": 1.098635403,
				"z": 0.0384386698,
				"element": "C" 
			},
			{
				"x": 4.1773602528,
				"y": -0.8418370724,
				"z": -1.3377246584,
				"element": "O" 
			},
			{
				"x": 0.2770996969,
				"y": -0.4590186299,
				"z": -0.1574277909,
				"element": "C" 
			},
			{
				"x": 0.2145598155,
				"y": 0.1442866117,
				"z": 1.0779755738,
				"element": "O" 
			},
			{
				"x": 0.2194760896,
				"y": 1.5379830207,
				"z": 1.129913381,
				"element": "C" 
			},
			{
				"x": -0.0303200817,
				"y": 1.9835474751,
				"z": 2.5447734992,
				"element": "C" 
			},
			{
				"x": 0.3849670745,
				"y": 2.2352835248,
				"z": 0.1692296691,
				"element": "O" 
			},
			{
				"x": 0.3808377982,
				"y": -2.5789815198,
				"z": -3.8959198064,
				"element": "C" 
			},
			{
				"x": 1.5911155082,
				"y": -2.8546407145,
				"z": -4.4458689702,
				"element": "O" 
			},
			{
				"x": -0.6336802235,
				"y": -2.938931994,
				"z": -4.4448622017,
				"element": "O" 
			},
			{
				"x": -4.4249856574,
				"y": -1.6406062505,
				"z": 0.9149958135,
				"element": "H" 
			},
			{
				"x": -4.4715929337,
				"y": -0.0718242347,
				"z": 1.7728810625,
				"element": "H" 
			},
			{
				"x": -3.4317701697,
				"y": -1.4088957267,
				"z": 2.3522215688,
				"element": "H" 
			},
			{
				"x": -1.6091534613,
				"y": -2.4932732984,
				"z": -2.1347246144,
				"element": "H" 
			},
			{
				"x": 2.3643661946,
				"y": -0.954000496,
				"z": -2.7902062967,
				"element": "H" 
			},
			{
				"x": 4.3639501039,
				"y": 2.1083756527,
				"z": -0.2775658309,
				"element": "H" 
			},
			{
				"x": 5.6888723714,
				"y": 0.9047816342,
				"z": -0.1841860968,
				"element": "H" 
			},
			{
				"x": 4.4708879311,
				"y": 1.0368197717,
				"z": 1.1176187995,
				"element": "H" 
			},
			{
				"x": -1.1001692203,
				"y": 1.8817933835,
				"z": 2.7535155835,
				"element": "H" 
			},
			{
				"x": 0.2535478034,
				"y": 3.0304791345,
				"z": 2.6488723684,
				"element": "H" 
			},
			{
				"x": 0.5152278412,
				"y": 1.3610556779,
				"z": 3.2573459748,
				"element": "H" 
			},
			{
				"x": 2.3024891578,
				"y": -2.6650371091,
				"z": -3.8176167182,
				"element": "H" 
			}
		],
		 "valence_orbital": [ 
			{
				"type": "occ",
				"energy": -0.29464,
				"method": "rhf"
			},
			{
				"type": "occ",
				"energy": -0.28808,
				"method": "rhf"
			},
			{
				"type": "occ",
				"energy": -0.27692,
				"method": "rhf"
			},
			{
				"type": "occ",
				"energy": -0.26426,
				"method": "rhf"
			},
			{
				"type": "occ",
				"energy": -0.25848,
				"method": "rhf"
			},
			{
				"type": "unocc",
				"energy": -0.05648,
				"method": "rhf"
			},
			{
				"type": "unocc",
				"energy": -0.03765,
				"method": "rhf"
			},
			{
				"type": "unocc",
				"energy": -0.01293,
				"method": "rhf"
			},
			{
				"type": "unocc",
				"energy": -0.00441,
				"method": "rhf"
			},
			{
				"type": "unocc",
				"energy": 0.00653,
				"method": "rhf"
			}
		],
		"cosmo_sigma_profile": { 
			"-0.025": 0.0,
			"-0.024": 0.0,
			"-0.023": 0.0,
			"-0.022": 0.0,
			"-0.021": 0.0,
			"-0.02": 0.0,
			"-0.019": 0.0,
			"-0.018": 0.167593059609,
			"-0.017": 1.12765546155,
			"-0.016": 1.39766527331,
			"-0.015": 0.972326738708,
			"-0.014": 0.395707022149,
			"-0.013": 1.80153840553,
			"-0.012": 0.996692419534,
			"-0.011": 1.06705354464,
			"-0.01": 0.847531383332,
			"-0.009": 1.04185703576,
			"-0.008": 2.76995582264,
			"-0.007": 13.4633381795,
			"-0.006": 22.2311536336,
			"-0.005": 23.5736904028,
			"-0.004": 25.0357131963,
			"-0.003": 34.1247690596,
			"-0.002": 30.2829029011,
			"-0.001": 18.2043773147,
			"0.0": 18.1803391658,
			"0.001": 14.7609652681,
			"0.002": 10.0294026792,
			"0.003": 9.80381578614,
			"0.004": 8.29460660657,
			"0.005": 8.50626788582,
			"0.006": 7.87372074506,
			"0.007": 7.06750462539,
			"0.008": 9.00269470779,
			"0.009": 11.6761336748,
			"0.01": 15.6642075509,
			"0.011": 13.2360908061,
			"0.012": 4.35119245622,
			"0.013": 0.725795930701,
			"0.014": 0.0,
			"0.015": 0.0,
			"0.016": 0.0,
			"0.017": 0.0,
			"0.018": 0.0,
			"0.019": 0.0,
			"0.02": 0.0,
			"0.021": 0.0,
			"0.022": 0.0,
			"0.023": 0.0,
			"0.024": 0.0,
			"0.0": 0.0
		}
	}
}
