{
	 "smiles": "OC(=O)CCN1N=NC2=C(C=CC=C2)C1=O", 
	 "Tm": 469.15, 
	 "num_atms": 25, 
	 "gaussian": { 
		 "optdone": 1, 
		 "sigma_profile": "yes", 
		 "theory": "DFT", 
		 "functional": "B3LYP", 
		 "basiset": "6-31G**", 
		 "properties": { 
			 "R2extent": 4260.0745, 
			 "electric_dipole_moment_norm": 1.13623786682, 
			 "electric_quadrupole_moment_norm": 19.0656720647, 
			 "total_energy": -776.395869602, 
			 "HOMO_LUMO_gap": 0.17704, 
			 "cosmo_polarized_energy": -17.19, 
			 "cosmo_cavitation_energy": 30.17, 
			 "cosmo_dispersion_energy": -21.77, 
			 "cosmo_repulsion_energy": 1.69, 
			 "cosmo_total_nonelectrostatic_energy": 10.09, 
			 "SMD_solvation_energy": 5.24 
		},
		"coords": [
			{
				"x": -1.3460317632,
				"y": -0.7703620652,
				"z": -3.4770892009,
				"element": "O" 
			},
			{
				"x": -1.2403699861,
				"y": -0.8251119428,
				"z": -2.1284266454,
				"element": "C" 
			},
			{
				"x": -2.1631888466,
				"y": -0.5722548506,
				"z": -1.386619709,
				"element": "O" 
			},
			{
				"x": 0.1540077296,
				"y": -1.2368230906,
				"z": -1.7063000138,
				"element": "C" 
			},
			{
				"x": 0.3238756092,
				"y": -1.3251723768,
				"z": -0.1919583473,
				"element": "C" 
			},
			{
				"x": 0.2038137664,
				"y": -0.0187121678,
				"z": 0.47253484,
				"element": "N" 
			},
			{
				"x": 0.9879349141,
				"y": 0.9578493647,
				"z": -0.0651545337,
				"element": "N" 
			},
			{
				"x": 0.9765605779,
				"y": 2.1352093084,
				"z": 0.406495805,
				"element": "N" 
			},
			{
				"x": 0.1515374803,
				"y": 2.4432429864,
				"z": 1.4877117649,
				"element": "C" 
			},
			{
				"x": -0.6674474225,
				"y": 1.4813673704,
				"z": 2.1068915133,
				"element": "C" 
			},
			{
				"x": -1.4774087867,
				"y": 1.8359560164,
				"z": 3.1954592351,
				"element": "C" 
			},
			{
				"x": -1.4681382654,
				"y": 3.1451714183,
				"z": 3.6546811866,
				"element": "C" 
			},
			{
				"x": -0.6492566662,
				"y": 4.1101850112,
				"z": 3.0375858849,
				"element": "C" 
			},
			{
				"x": 0.1570593191,
				"y": 3.7676441416,
				"z": 1.9635639007,
				"element": "C" 
			},
			{
				"x": -0.6387824737,
				"y": 0.1121889042,
				"z": 1.5944243609,
				"element": "C" 
			},
			{
				"x": -1.2454650161,
				"y": -0.840931444,
				"z": 2.0616775208,
				"element": "O" 
			},
			{
				"x": -2.2600039395,
				"y": -0.4990740068,
				"z": -3.6668554632,
				"element": "H" 
			},
			{
				"x": 0.3723909507,
				"y": -2.2128741487,
				"z": -2.1549138936,
				"element": "H" 
			},
			{
				"x": 0.8701535656,
				"y": -0.5313134414,
				"z": -2.1381200163,
				"element": "H" 
			},
			{
				"x": -0.4413637773,
				"y": -1.9545032337,
				"z": 0.2611235146,
				"element": "H" 
			},
			{
				"x": 1.3069237167,
				"y": -1.746902165,
				"z": 0.0411039646,
				"element": "H" 
			},
			{
				"x": -2.0960186208,
				"y": 1.0710196065,
				"z": 3.652094275,
				"element": "H" 
			},
			{
				"x": -2.094092799,
				"y": 3.4293224598,
				"z": 4.4951120147,
				"element": "H" 
			},
			{
				"x": -0.6499445549,
				"y": 5.1309891899,
				"z": 3.4080450103,
				"element": "H" 
			},
			{
				"x": 0.7983552885,
				"y": 4.4905891556,
				"z": 1.4707330318,
				"element": "H" 
			}
		],
		 "valence_orbital": [ 
			{
				"type": "occ",
				"energy": -0.28204,
				"method": "rhf"
			},
			{
				"type": "occ",
				"energy": -0.27772,
				"method": "rhf"
			},
			{
				"type": "occ",
				"energy": -0.2717,
				"method": "rhf"
			},
			{
				"type": "occ",
				"energy": -0.25069,
				"method": "rhf"
			},
			{
				"type": "occ",
				"energy": -0.24575,
				"method": "rhf"
			},
			{
				"type": "unocc",
				"energy": -0.06871,
				"method": "rhf"
			},
			{
				"type": "unocc",
				"energy": -0.04995,
				"method": "rhf"
			},
			{
				"type": "unocc",
				"energy": 0.00452,
				"method": "rhf"
			},
			{
				"type": "unocc",
				"energy": 0.01262,
				"method": "rhf"
			},
			{
				"type": "unocc",
				"energy": 0.05948,
				"method": "rhf"
			}
		],
		"cosmo_sigma_profile": { 
			"-0.025": 0.0,
			"-0.024": 0.0,
			"-0.023": 0.0,
			"-0.022": 0.0,
			"-0.021": 0.0,
			"-0.02": 0.0,
			"-0.019": 0.077281240468,
			"-0.018": 0.914185969717,
			"-0.017": 0.844293609196,
			"-0.016": 0.517782976755,
			"-0.015": 1.11693687661,
			"-0.014": 0.684849721759,
			"-0.013": 0.735561567411,
			"-0.012": 0.507701023461,
			"-0.011": 0.400902145561,
			"-0.01": 0.948487549379,
			"-0.009": 0.582480129388,
			"-0.008": 3.14197879675,
			"-0.007": 15.1788151526,
			"-0.006": 20.5351019126,
			"-0.005": 17.5059657136,
			"-0.004": 16.15403567,
			"-0.003": 14.2619616923,
			"-0.002": 13.3225632718,
			"-0.001": 13.0345173478,
			"0.0": 16.7587591417,
			"0.001": 19.6471215701,
			"0.002": 16.7876405084,
			"0.003": 6.23060221609,
			"0.004": 5.677943208,
			"0.005": 6.06608958093,
			"0.006": 5.70967281307,
			"0.007": 5.11094201791,
			"0.008": 6.6444528063,
			"0.009": 7.65339006461,
			"0.01": 8.13802319977,
			"0.011": 7.20390426652,
			"0.012": 7.53381528683,
			"0.013": 1.37428226384,
			"0.014": 0.335191144804,
			"0.015": 0.0,
			"0.016": 0.0,
			"0.017": 0.0,
			"0.018": 0.0,
			"0.019": 0.0,
			"0.02": 0.0,
			"0.021": 0.0,
			"0.022": 0.0,
			"0.023": 0.0,
			"0.024": 0.0,
			"0.025": 0.0
		}
	}
}
