{
	 "smiles": "CCS(=O)C1=C(C=CC=C1)C(O)=O", 
	 "Tm": 402.15, 
	 "num_atms": 23, 
	 "gaussian": { 
		 "optdone": 1, 
		 "sigma_profile": "yes", 
		 "theory": "DFT", 
		 "functional": "B3LYP", 
		 "basiset": "6-31G**", 
		 "properties": { 
			 "R2extent": 2919.1647, 
			 "electric_dipole_moment_norm": 6.53949168361, 
			 "electric_quadrupole_moment_norm": 20.673778613, 
			 "total_energy": -972.81405673, 
			 "HOMO_LUMO_gap": 0.18865, 
			 "cosmo_polarized_energy": -16.45, 
			 "cosmo_cavitation_energy": 27.39, 
			 "cosmo_dispersion_energy": -20.36, 
			 "cosmo_repulsion_energy": 1.55, 
			 "cosmo_total_nonelectrostatic_energy": 8.59, 
			 "SMD_solvation_energy": 5.33 
		},
		"coords": [
			{
				"x": 2.81913561,
				"y": 0.005035886,
				"z": -0.2458021231,
				"element": "C" 
			},
			{
				"x": 2.0209981601,
				"y": -0.5718612938,
				"z": 0.9189988351,
				"element": "C" 
			},
			{
				"x": 0.2831491854,
				"y": -0.9952092973,
				"z": 0.4561753859,
				"element": "S" 
			},
			{
				"x": -0.3892745292,
				"y": -1.4968729242,
				"z": 1.7446054252,
				"element": "O" 
			},
			{
				"x": -0.3825476921,
				"y": 0.6526373393,
				"z": 0.0836271485,
				"element": "C" 
			},
			{
				"x": -0.6118569758,
				"y": 1.6952983507,
				"z": 1.0103648749,
				"element": "C" 
			},
			{
				"x": -1.1725682929,
				"y": 2.8823615896,
				"z": 0.5163314477,
				"element": "C" 
			},
			{
				"x": -1.5120517251,
				"y": 3.0367458894,
				"z": -0.8259235735,
				"element": "C" 
			},
			{
				"x": -1.2871357547,
				"y": 1.9965489796,
				"z": -1.7255569272,
				"element": "C" 
			},
			{
				"x": -0.7272290243,
				"y": 0.8058553215,
				"z": -1.2646750329,
				"element": "C" 
			},
			{
				"x": -0.2770609012,
				"y": 1.7349187336,
				"z": 2.4999837791,
				"element": "C" 
			},
			{
				"x": -0.0946345231,
				"y": 0.6020819393,
				"z": 3.1688375446,
				"element": "O" 
			},
			{
				"x": -0.1739913894,
				"y": 2.8135938859,
				"z": 3.0509525571,
				"element": "O" 
			},
			{
				"x": 3.8570128346,
				"y": 0.1542208255,
				"z": 0.0661009282,
				"element": "H" 
			},
			{
				"x": 2.8244318325,
				"y": -0.6700781775,
				"z": -1.1074737816,
				"element": "H" 
			},
			{
				"x": 2.4242069022,
				"y": 0.9724843068,
				"z": -0.5666258991,
				"element": "H" 
			},
			{
				"x": 1.9760621069,
				"y": 0.094117104,
				"z": 1.7837139754,
				"element": "H" 
			},
			{
				"x": 2.4230926953,
				"y": -1.533703167,
				"z": 1.2525987443,
				"element": "H" 
			},
			{
				"x": -1.3219969136,
				"y": 3.6871789778,
				"z": 1.2272045676,
				"element": "H" 
			},
			{
				"x": -1.9519152537,
				"y": 3.9694345257,
				"z": -1.1657878307,
				"element": "H" 
			},
			{
				"x": -1.5500678032,
				"y": 2.1024188582,
				"z": -2.7735380823,
				"element": "H" 
			},
			{
				"x": -0.5588187871,
				"y": -0.0177376201,
				"z": -1.9525457113,
				"element": "H" 
			},
			{
				"x": -0.3204397616,
				"y": -0.2475700331,
				"z": 2.6683337478,
				"element": "H" 
			}
		],
		 "valence_orbital": [ 
			{
				"type": "occ",
				"energy": -0.29416,
				"method": "rhf"
			},
			{
				"type": "occ",
				"energy": -0.28636,
				"method": "rhf"
			},
			{
				"type": "occ",
				"energy": -0.28003,
				"method": "rhf"
			},
			{
				"type": "occ",
				"energy": -0.26541,
				"method": "rhf"
			},
			{
				"type": "occ",
				"energy": -0.25521,
				"method": "rhf"
			},
			{
				"type": "unocc",
				"energy": -0.06656,
				"method": "rhf"
			},
			{
				"type": "unocc",
				"energy": -0.03807,
				"method": "rhf"
			},
			{
				"type": "unocc",
				"energy": 0.01451,
				"method": "rhf"
			},
			{
				"type": "unocc",
				"energy": 0.02676,
				"method": "rhf"
			},
			{
				"type": "unocc",
				"energy": 0.05053,
				"method": "rhf"
			}
		],
		"cosmo_sigma_profile": { 
			"-0.025": 0.0,
			"-0.024": 0.0,
			"-0.023": 0.0,
			"-0.022": 0.0,
			"-0.021": 0.0,
			"-0.02": 0.0,
			"-0.019": 0.0,
			"-0.018": 0.0,
			"-0.017": 0.0,
			"-0.016": 0.0,
			"-0.015": 0.0,
			"-0.014": 0.0,
			"-0.013": 0.0,
			"-0.012": 0.0,
			"-0.011": 0.0,
			"-0.01": 0.0,
			"-0.009": 0.150688511141,
			"-0.008": 5.00117314921,
			"-0.007": 10.2468369546,
			"-0.006": 15.3865751551,
			"-0.005": 19.2603320198,
			"-0.004": 21.537429487,
			"-0.003": 18.306822606,
			"-0.002": 16.831770908,
			"-0.001": 18.2671088819,
			"0.0": 15.017103601,
			"0.001": 14.8811805215,
			"0.002": 14.0795588058,
			"0.003": 5.14001010225,
			"0.004": 3.45107276345,
			"0.005": 2.5060145912,
			"0.006": 3.62624549134,
			"0.007": 2.91499188758,
			"0.008": 3.71652921656,
			"0.009": 3.33632319258,
			"0.01": 4.53653516325,
			"0.011": 5.60629155128,
			"0.012": 8.46252876526,
			"0.013": 4.91345128551,
			"0.014": 2.38015459991,
			"0.015": 0.00972109356716,
			"0.016": 0.0,
			"0.017": 0.0,
			"0.018": 0.0,
			"0.019": 0.0,
			"0.02": 0.0,
			"0.021": 0.0,
			"0.022": 0.0,
			"0.023": 0.0,
			"0.024": 0.0,
			"0.025": 0.0
		}
	}
}
