{
	 "smiles": "OC(C1C(=O)N(N=C1C(F)(F)F)C1=CC=CC=C1)C1=CC=CC=C1Cl", 
	 "Tm": 524.15, 
	 "num_atms": 37, 
	 "gaussian": { 
		 "optdone": 1, 
		 "sigma_profile": "yes", 
		 "theory": "DFT", 
		 "functional": "B3LYP", 
		 "basiset": "6-31G**", 
		 "properties": { 
			 "R2extent": 10301.9838, 
			 "electric_dipole_moment_norm": 2.83953323805, 
			 "electric_quadrupole_moment_norm": 11.4548967341, 
			 "total_energy": -1674.66586997, 
			 "HOMO_LUMO_gap": 0.1676, 
			 "cosmo_polarized_energy": -12.08, 
			 "cosmo_cavitation_energy": 43.09, 
			 "cosmo_dispersion_energy": -29.61, 
			 "cosmo_repulsion_energy": 2.17, 
			 "cosmo_total_nonelectrostatic_energy": 15.64, 
			 "SMD_solvation_energy": 7.64 
		},
		"coords": [
			{
				"x": -1.1460691227,
				"y": -2.5925522498,
				"z": 3.7600232016,
				"element": "O" 
			},
			{
				"x": -0.895909633,
				"y": -2.3917741026,
				"z": 2.3875398261,
				"element": "C" 
			},
			{
				"x": 0.4326495099,
				"y": -1.579507667,
				"z": 2.3603271616,
				"element": "C" 
			},
			{
				"x": 1.2016706007,
				"y": -1.6845887362,
				"z": 1.0419472318,
				"element": "C" 
			},
			{
				"x": 1.4561372104,
				"y": -2.7004713886,
				"z": 0.4187745652,
				"element": "O" 
			},
			{
				"x": 1.5366373778,
				"y": -0.373769065,
				"z": 0.7041279046,
				"element": "N" 
			},
			{
				"x": 1.0744380244,
				"y": 0.5404367642,
				"z": 1.6381484031,
				"element": "N" 
			},
			{
				"x": 0.4339002746,
				"y": -0.0930656697,
				"z": 2.5542863558,
				"element": "C" 
			},
			{
				"x": -0.1047606228,
				"y": 0.6591905676,
				"z": 3.7402240861,
				"element": "C" 
			},
			{
				"x": 0.3131974044,
				"y": 1.9336027344,
				"z": 3.7506642667,
				"element": "F" 
			},
			{
				"x": -1.4519274861,
				"y": 0.6679692841,
				"z": 3.7461645929,
				"element": "F" 
			},
			{
				"x": 0.3060286954,
				"y": 0.0698450003,
				"z": 4.8818654449,
				"element": "F" 
			},
			{
				"x": 2.2582433548,
				"y": 0.1077037721,
				"z": -0.4261785403,
				"element": "C" 
			},
			{
				"x": 2.437179884,
				"y": 1.4894514618,
				"z": -0.5820422885,
				"element": "C" 
			},
			{
				"x": 3.1402579062,
				"y": 1.9708264042,
				"z": -1.683948065,
				"element": "C" 
			},
			{
				"x": 3.6666509865,
				"y": 1.0929852979,
				"z": -2.6332568681,
				"element": "C" 
			},
			{
				"x": 3.4826731573,
				"y": -0.2797061574,
				"z": -2.4681353591,
				"element": "C" 
			},
			{
				"x": 2.7829126133,
				"y": -0.7848877822,
				"z": -1.3721242381,
				"element": "C" 
			},
			{
				"x": -2.0310812161,
				"y": -1.7814306029,
				"z": 1.5459080611,
				"element": "C" 
			},
			{
				"x": -1.8138781662,
				"y": -1.7678298469,
				"z": 0.1530827955,
				"element": "C" 
			},
			{
				"x": -2.7287947308,
				"y": -1.2308106603,
				"z": -0.7449864026,
				"element": "C" 
			},
			{
				"x": -3.9287579137,
				"y": -0.6999645355,
				"z": -0.2724130206,
				"element": "C" 
			},
			{
				"x": -4.2004127869,
				"y": -0.7413168281,
				"z": 1.0898639369,
				"element": "C" 
			},
			{
				"x": -3.2693531971,
				"y": -1.2818341365,
				"z": 1.9839015799,
				"element": "C" 
			},
			{
				"x": -3.8190816736,
				"y": -1.3396115608,
				"z": 3.6677256431,
				"element": "Cl" 
			},
			{
				"x": -2.0492232734,
				"y": -2.9104239767,
				"z": 3.8841863792,
				"element": "H" 
			},
			{
				"x": -0.6342153611,
				"y": -3.3460972912,
				"z": 1.9022232438,
				"element": "H" 
			},
			{
				"x": 1.0446236619,
				"y": -2.0466047405,
				"z": 3.1442418669,
				"element": "H" 
			},
			{
				"x": 2.0292334964,
				"y": 2.1680354141,
				"z": 0.1557097841,
				"element": "H" 
			},
			{
				"x": 3.2751662706,
				"y": 3.0425750728,
				"z": -1.7969093039,
				"element": "H" 
			},
			{
				"x": 4.2138130088,
				"y": 1.4746710166,
				"z": -3.4898297924,
				"element": "H" 
			},
			{
				"x": 3.8876036824,
				"y": -0.9753395171,
				"z": -3.1973970598,
				"element": "H" 
			},
			{
				"x": 2.6432572536,
				"y": -1.8492341477,
				"z": -1.2466940901,
				"element": "H" 
			},
			{
				"x": -0.902667911,
				"y": -2.2131476791,
				"z": -0.2323847561,
				"element": "H" 
			},
			{
				"x": -2.5076321514,
				"y": -1.2381664638,
				"z": -1.8076224805,
				"element": "H" 
			},
			{
				"x": -4.6577634585,
				"y": -0.275431986,
				"z": -0.9555883881,
				"element": "H" 
			},
			{
				"x": -5.1391456691,
				"y": -0.3636259983,
				"z": 1.4793743225,
				"element": "H" 
			}
		],
		 "valence_orbital": [ 
			{
				"type": "occ",
				"energy": -0.27716,
				"method": "rhf"
			},
			{
				"type": "occ",
				"energy": -0.26448,
				"method": "rhf"
			},
			{
				"type": "occ",
				"energy": -0.2568,
				"method": "rhf"
			},
			{
				"type": "occ",
				"energy": -0.256,
				"method": "rhf"
			},
			{
				"type": "occ",
				"energy": -0.22957,
				"method": "rhf"
			},
			{
				"type": "unocc",
				"energy": -0.06197,
				"method": "rhf"
			},
			{
				"type": "unocc",
				"energy": -0.03418,
				"method": "rhf"
			},
			{
				"type": "unocc",
				"energy": -0.02458,
				"method": "rhf"
			},
			{
				"type": "unocc",
				"energy": -0.01924,
				"method": "rhf"
			},
			{
				"type": "unocc",
				"energy": -0.00618,
				"method": "rhf"
			}
		],
		"cosmo_sigma_profile": { 
			"-0.025": 0.0,
			"-0.024": 0.0,
			"-0.023": 0.0,
			"-0.022": 0.0,
			"-0.021": 0.0,
			"-0.02": 0.0,
			"-0.019": 0.0,
			"-0.018": 0.0,
			"-0.017": 0.0,
			"-0.016": 0.0,
			"-0.015": 0.0,
			"-0.014": 0.209399929053,
			"-0.013": 1.04846258155,
			"-0.012": 0.835596265056,
			"-0.011": 1.23354977158,
			"-0.01": 3.08055209536,
			"-0.009": 2.93795549745,
			"-0.008": 3.430851007,
			"-0.007": 7.05056491977,
			"-0.006": 16.8351370064,
			"-0.005": 21.8508691995,
			"-0.004": 23.2943867608,
			"-0.003": 21.7712613676,
			"-0.002": 21.0632229259,
			"-0.001": 22.6114115116,
			"0.0": 24.9696719927,
			"0.001": 29.3486215464,
			"0.002": 43.0671693036,
			"0.003": 37.4135062101,
			"0.004": 25.7583060747,
			"0.005": 15.9279881095,
			"0.006": 5.85110975864,
			"0.007": 4.3806660814,
			"0.008": 4.1527069163,
			"0.009": 2.62717714047,
			"0.01": 3.46195996382,
			"0.011": 3.21177699871,
			"0.012": 0.550559286002,
			"0.013": 0.0,
			"0.014": 0.0,
			"0.015": 0.0,
			"0.016": 0.0,
			"0.017": 0.0,
			"0.018": 0.0,
			"0.019": 0.0,
			"0.02": 0.0,
			"0.021": 0.0,
			"0.022": 0.0,
			"0.023": 0.0,
			"0.024": 0.0,
			"0.025": 0.0
		}
	}
}
