{
	 "smiles": "COC1=CC=C(C(O)=O)C(F)=C1", 
	 "Tm": 469.15, 
	 "num_atms": 19, 
	 "gaussian": { 
		 "optdone": 1, 
		 "sigma_profile": "yes", 
		 "theory": "DFT", 
		 "functional": "B3LYP", 
		 "basiset": "6-31G**", 
		 "properties": { 
			 "R2extent": 2895.1181, 
			 "electric_dipole_moment_norm": 7.12389142885, 
			 "electric_quadrupole_moment_norm": 16.5315353346, 
			 "total_energy": -634.566209514, 
			 "HOMO_LUMO_gap": 0.20138, 
			 "cosmo_polarized_energy": -17.02, 
			 "cosmo_cavitation_energy": 24.24, 
			 "cosmo_dispersion_energy": -17.84, 
			 "cosmo_repulsion_energy": 1.4, 
			 "cosmo_total_nonelectrostatic_energy": 7.81, 
			 "SMD_solvation_energy": 6.62 
		},
		"coords": [
			{
				"x": -0.7932036999,
				"y": 2.0687211736,
				"z": 1.7841184639,
				"element": "C" 
			},
			{
				"x": 0.0966761812,
				"y": 1.9875182874,
				"z": 0.676948982,
				"element": "O" 
			},
			{
				"x": 0.2710161684,
				"y": 0.7873749713,
				"z": 0.0713812029,
				"element": "C" 
			},
			{
				"x": -0.3634878722,
				"y": -0.4026495481,
				"z": 0.457606291,
				"element": "C" 
			},
			{
				"x": -0.0928617884,
				"y": -1.574936323,
				"z": -0.2449505041,
				"element": "C" 
			},
			{
				"x": 0.7885932382,
				"y": -1.610975141,
				"z": -1.3344882464,
				"element": "C" 
			},
			{
				"x": 1.0215522989,
				"y": -2.8601853394,
				"z": -2.1222237358,
				"element": "C" 
			},
			{
				"x": 0.9613295184,
				"y": -4.0210247271,
				"z": -1.4037324348,
				"element": "O" 
			},
			{
				"x": 1.2244240341,
				"y": -2.895462753,
				"z": -3.310023724,
				"element": "O" 
			},
			{
				"x": 1.3932911061,
				"y": -0.3949590714,
				"z": -1.6997092579,
				"element": "C" 
			},
			{
				"x": 2.2565583318,
				"y": -0.3633098477,
				"z": -2.7223884547,
				"element": "F" 
			},
			{
				"x": 1.1593096886,
				"y": 0.7833546279,
				"z": -1.0147147573,
				"element": "C" 
			},
			{
				"x": -1.8160735991,
				"y": 1.7955127477,
				"z": 1.4980329489,
				"element": "H" 
			},
			{
				"x": -0.4638482293,
				"y": 1.4289473423,
				"z": 2.6118732181,
				"element": "H" 
			},
			{
				"x": -0.7749953797,
				"y": 3.1107331745,
				"z": 2.1048469906,
				"element": "H" 
			},
			{
				"x": -1.0649790763,
				"y": -0.4233641178,
				"z": 1.281748411,
				"element": "H" 
			},
			{
				"x": -0.6175878972,
				"y": -2.4825508845,
				"z": 0.0411961155,
				"element": "H" 
			},
			{
				"x": 0.9833420554,
				"y": -3.821343884,
				"z": -0.4574993946,
				"element": "H" 
			},
			{
				"x": 1.6577449209,
				"y": 1.6973993123,
				"z": -1.3143221144,
				"element": "H" 
			}
		],
		 "valence_orbital": [ 
			{
				"type": "occ",
				"energy": -0.33901,
				"method": "rhf"
			},
			{
				"type": "occ",
				"energy": -0.311,
				"method": "rhf"
			},
			{
				"type": "occ",
				"energy": -0.26992,
				"method": "rhf"
			},
			{
				"type": "occ",
				"energy": -0.26626,
				"method": "rhf"
			},
			{
				"type": "occ",
				"energy": -0.2442,
				"method": "rhf"
			},
			{
				"type": "unocc",
				"energy": -0.04282,
				"method": "rhf"
			},
			{
				"type": "unocc",
				"energy": -0.02,
				"method": "rhf"
			},
			{
				"type": "unocc",
				"energy": 0.04521,
				"method": "rhf"
			},
			{
				"type": "unocc",
				"energy": 0.06459,
				"method": "rhf"
			},
			{
				"type": "unocc",
				"energy": 0.08321,
				"method": "rhf"
			}
		],
		"cosmo_sigma_profile": { 
			"-0.025": 0.0,
			"-0.024": 0.0,
			"-0.023": 0.0,
			"-0.022": 0.0,
			"-0.021": 0.0,
			"-0.02": 0.0,
			"-0.019": 0.0734716092166,
			"-0.018": 1.04969802841,
			"-0.017": 0.530509269172,
			"-0.016": 0.686300735655,
			"-0.015": 1.17039863579,
			"-0.014": 0.980951669684,
			"-0.013": 1.12702709711,
			"-0.012": 1.09732221597,
			"-0.011": 1.17074811948,
			"-0.01": 0.765859511489,
			"-0.009": 1.6179146113,
			"-0.008": 4.01542243192,
			"-0.007": 7.62503208513,
			"-0.006": 14.2192934914,
			"-0.005": 12.9038296968,
			"-0.004": 12.9632210882,
			"-0.003": 11.9157608409,
			"-0.002": 7.34572732149,
			"-0.001": 9.42629112734,
			"0.0": 11.7599278592,
			"0.001": 15.7986242584,
			"0.002": 14.6455339343,
			"0.003": 11.3106150645,
			"0.004": 9.17103552946,
			"0.005": 4.54705112855,
			"0.006": 3.63537604883,
			"0.007": 4.26570265359,
			"0.008": 4.92081751782,
			"0.009": 4.95424057124,
			"0.01": 4.83839901629,
			"0.011": 6.52250918995,
			"0.012": 5.2172162501,
			"0.013": 1.6271430768,
			"0.014": 0.0456618364354,
			"0.015": 0.0,
			"0.016": 0.0,
			"0.017": 0.0,
			"0.018": 0.0,
			"0.019": 0.0,
			"0.02": 0.0,
			"0.021": 0.0,
			"0.022": 0.0,
			"0.023": 0.0,
			"0.024": 0.0,
			"0.025": 0.0
		}
	}
}
