{
	 "smiles": "BrC1=CC2=C(NCCCC2)C=C1", 
	 "Tm": 326.15, 
	 "num_atms": 24, 
	 "gaussian": { 
		 "optdone": 1, 
		 "sigma_profile": "yes", 
		 "theory": "DFT", 
		 "functional": "B3LYP", 
		 "basiset": "6-31G**", 
		 "properties": { 
			 "R2extent": 4351.1989, 
			 "electric_dipole_moment_norm": 3.68870895165, 
			 "electric_quadrupole_moment_norm": 9.15866734138, 
			 "total_energy": -3014.45887433, 
			 "HOMO_LUMO_gap": 0.19079, 
			 "cosmo_polarized_energy": -7.02, 
			 "cosmo_cavitation_energy": 27.59, 
			 "cosmo_dispersion_energy": -21.28, 
			 "cosmo_repulsion_energy": 1.69, 
			 "cosmo_total_nonelectrostatic_energy": 8.0, 
			 "SMD_solvation_energy": 1.91 
		},
		"coords": [
			{
				"x": 0.5288492343,
				"y": 4.18910813,
				"z": -0.8678925048,
				"element": "Br" 
			},
			{
				"x": 0.0990509957,
				"y": 2.3277273017,
				"z": -0.7369586201,
				"element": "C" 
			},
			{
				"x": 1.0623483056,
				"y": 1.3729429884,
				"z": -1.0452887758,
				"element": "C" 
			},
			{
				"x": 0.7957740548,
				"y": 0.0004649249,
				"z": -0.961462877,
				"element": "C" 
			},
			{
				"x": -0.5021441512,
				"y": -0.4078725124,
				"z": -0.5611630515,
				"element": "C" 
			},
			{
				"x": -0.865912945,
				"y": -1.7530400597,
				"z": -0.4224867261,
				"element": "N" 
			},
			{
				"x": -0.3416936658,
				"y": -2.7643382111,
				"z": -1.3439761167,
				"element": "C" 
			},
			{
				"x": 1.0067190316,
				"y": -3.3311408752,
				"z": -0.8819741915,
				"element": "C" 
			},
			{
				"x": 1.9738264328,
				"y": -2.2344154275,
				"z": -0.4033615554,
				"element": "C" 
			},
			{
				"x": 1.9394159434,
				"y": -0.961818109,
				"z": -1.2695384978,
				"element": "C" 
			},
			{
				"x": -1.4564623432,
				"y": 0.5781299328,
				"z": -0.2453907225,
				"element": "C" 
			},
			{
				"x": -1.1699831777,
				"y": 1.9357389025,
				"z": -0.3227048857,
				"element": "C" 
			},
			{
				"x": 2.0535795099,
				"y": 1.6971891345,
				"z": -1.345761784,
				"element": "H" 
			},
			{
				"x": -1.8535506113,
				"y": -1.8595058245,
				"z": -0.2377436009,
				"element": "H" 
			},
			{
				"x": -1.0786879016,
				"y": -3.5711650698,
				"z": -1.4084690972,
				"element": "H" 
			},
			{
				"x": -0.2482759789,
				"y": -2.3470190461,
				"z": -2.3576347084,
				"element": "H" 
			},
			{
				"x": 0.8478241824,
				"y": -4.0520804743,
				"z": -0.0715850805,
				"element": "H" 
			},
			{
				"x": 1.4483994426,
				"y": -3.8869629483,
				"z": -1.7196957693,
				"element": "H" 
			},
			{
				"x": 1.7368733092,
				"y": -1.9628483121,
				"z": 0.6308888072,
				"element": "H" 
			},
			{
				"x": 2.9934303783,
				"y": -2.6365692182,
				"z": -0.3925192402,
				"element": "H" 
			},
			{
				"x": 2.8741423976,
				"y": -0.4096433489,
				"z": -1.1256861012,
				"element": "H" 
			},
			{
				"x": 1.9295213,
				"y": -1.2427004326,
				"z": -2.3328000652,
				"element": "H" 
			},
			{
				"x": -2.4509211302,
				"y": 0.2650897356,
				"z": 0.0654836937,
				"element": "H" 
			},
			{
				"x": -1.9245226134,
				"y": 2.6731288191,
				"z": -0.0735785291,
				"element": "H" 
			}
		],
		 "valence_orbital": [ 
			{
				"type": "occ",
				"energy": -0.31467,
				"method": "rhf"
			},
			{
				"type": "occ",
				"energy": -0.27539,
				"method": "rhf"
			},
			{
				"type": "occ",
				"energy": -0.26574,
				"method": "rhf"
			},
			{
				"type": "occ",
				"energy": -0.24645,
				"method": "rhf"
			},
			{
				"type": "occ",
				"energy": -0.19442,
				"method": "rhf"
			},
			{
				"type": "unocc",
				"energy": -0.00363,
				"method": "rhf"
			},
			{
				"type": "unocc",
				"energy": 0.00775,
				"method": "rhf"
			},
			{
				"type": "unocc",
				"energy": 0.01841,
				"method": "rhf"
			},
			{
				"type": "unocc",
				"energy": 0.07202,
				"method": "rhf"
			},
			{
				"type": "unocc",
				"energy": 0.09603,
				"method": "rhf"
			}
		],
		"cosmo_sigma_profile": { 
			"-0.025": 0.0,
			"-0.024": 0.0,
			"-0.023": 0.0,
			"-0.022": 0.0,
			"-0.021": 0.0,
			"-0.02": 0.0,
			"-0.019": 0.0,
			"-0.018": 0.0,
			"-0.017": 0.0,
			"-0.016": 0.0,
			"-0.015": 0.0,
			"-0.014": 0.0,
			"-0.013": 0.169687981352,
			"-0.012": 1.04727269276,
			"-0.011": 1.52283283857,
			"-0.01": 1.74348848621,
			"-0.009": 1.26906581921,
			"-0.008": 1.6689503443,
			"-0.007": 2.58313974945,
			"-0.006": 5.3538380019,
			"-0.005": 7.83584059323,
			"-0.004": 11.5425155091,
			"-0.003": 19.4144080531,
			"-0.002": 26.6555549004,
			"-0.001": 25.5134779508,
			"0.0": 21.7166659012,
			"0.001": 16.285165136,
			"0.002": 10.2347874975,
			"0.003": 13.7218678587,
			"0.004": 16.2320012757,
			"0.005": 24.2938929233,
			"0.006": 7.69352717376,
			"0.007": 1.00538681646,
			"0.008": 0.523984261292,
			"0.009": 1.09139657982,
			"0.01": 0.480391379801,
			"0.011": 0.404416834019,
			"0.012": 0.218441610024,
			"0.013": 0.0,
			"0.014": 0.0,
			"0.015": 0.0,
			"0.016": 0.0,
			"0.017": 0.0,
			"0.018": 0.0,
			"0.019": 0.0,
			"0.02": 0.0,
			"0.021": 0.0,
			"0.022": 0.0,
			"0.023": 0.0,
			"0.024": 0.0,
			"0.025": 0.0
		}
	}
}
