{
	 "smiles": "CC1=C(C=CC(=C1)S(N)(=O)=O)[N+]([O-])=O", 
	 "Tm": 405.15, 
	 "num_atms": 22, 
	 "gaussian": { 
		 "optdone": 1, 
		 "sigma_profile": "yes", 
		 "theory": "DFT", 
		 "functional": "B3LYP", 
		 "basiset": "6-31G**", 
		 "properties": { 
			 "R2extent": 3649.4427, 
			 "electric_dipole_moment_norm": 3.70978784973, 
			 "electric_quadrupole_moment_norm": 25.3927247872, 
			 "total_energy": -1079.98101044, 
			 "HOMO_LUMO_gap": 0.18194, 
			 "cosmo_polarized_energy": -21.26, 
			 "cosmo_cavitation_energy": 28.31, 
			 "cosmo_dispersion_energy": -21.18, 
			 "cosmo_repulsion_energy": 1.62, 
			 "cosmo_total_nonelectrostatic_energy": 8.75, 
			 "SMD_solvation_energy": 6.68 
		},
		"coords": [
			{
				"x": -0.2970870541,
				"y": 2.7913586072,
				"z": -0.5848712059,
				"element": "C" 
			},
			{
				"x": -0.4405050029,
				"y": 1.3318645159,
				"z": -0.2292361461,
				"element": "C" 
			},
			{
				"x": -1.5659681696,
				"y": 0.7425204743,
				"z": 0.3812830125,
				"element": "C" 
			},
			{
				"x": -1.6512969232,
				"y": -0.6264679105,
				"z": 0.6491064765,
				"element": "C" 
			},
			{
				"x": -0.5880360868,
				"y": -1.4632854977,
				"z": 0.3371276932,
				"element": "C" 
			},
			{
				"x": 0.5460210302,
				"y": -0.9012535954,
				"z": -0.2512190154,
				"element": "C" 
			},
			{
				"x": 0.6130694336,
				"y": 0.4589992895,
				"z": -0.5426746683,
				"element": "C" 
			},
			{
				"x": 1.9568964372,
				"y": -1.9579697487,
				"z": -0.6457501444,
				"element": "S" 
			},
			{
				"x": 2.9298293621,
				"y": -1.981546903,
				"z": 0.7170693908,
				"element": "N" 
			},
			{
				"x": 2.7312271023,
				"y": -1.2733909707,
				"z": -1.6775589186,
				"element": "O" 
			},
			{
				"x": 1.4426577046,
				"y": -3.3167668689,
				"z": -0.7925629265,
				"element": "O" 
			},
			{
				"x": -2.7427384472,
				"y": 1.5468469547,
				"z": 0.771806701,
				"element": "N" 
			},
			{
				"x": -3.7860965452,
				"y": 0.9439548095,
				"z": 1.0177413773,
				"element": "O" 
			},
			{
				"x": -2.6129038634,
				"y": 2.7683871745,
				"z": 0.8428246755,
				"element": "O" 
			},
			{
				"x": 0.6011939581,
				"y": 2.9341603774,
				"z": -1.1902585109,
				"element": "H" 
			},
			{
				"x": -1.1612530096,
				"y": 3.1607969548,
				"z": -1.1415633209,
				"element": "H" 
			},
			{
				"x": -0.2235627622,
				"y": 3.4120861806,
				"z": 0.3116679747,
				"element": "H" 
			},
			{
				"x": -2.5603923472,
				"y": -1.0111682313,
				"z": 1.0932767507,
				"element": "H" 
			},
			{
				"x": -0.642207083,
				"y": -2.5306572214,
				"z": 0.5192047223,
				"element": "H" 
			},
			{
				"x": 1.4924619593,
				"y": 0.8474504581,
				"z": -1.0457308531,
				"element": "H" 
			},
			{
				"x": 3.3588329959,
				"y": -1.0878863035,
				"z": 0.9320038939,
				"element": "H" 
			},
			{
				"x": 2.5082573111,
				"y": -2.4434325454,
				"z": 1.5157130417,
				"element": "H" 
			}
		],
		 "valence_orbital": [ 
			{
				"type": "occ",
				"energy": -0.3197,
				"method": "rhf"
			},
			{
				"type": "occ",
				"energy": -0.31742,
				"method": "rhf"
			},
			{
				"type": "occ",
				"energy": -0.30463,
				"method": "rhf"
			},
			{
				"type": "occ",
				"energy": -0.29193,
				"method": "rhf"
			},
			{
				"type": "occ",
				"energy": -0.28825,
				"method": "rhf"
			},
			{
				"type": "unocc",
				"energy": -0.10631,
				"method": "rhf"
			},
			{
				"type": "unocc",
				"energy": -0.0453,
				"method": "rhf"
			},
			{
				"type": "unocc",
				"energy": -0.03402,
				"method": "rhf"
			},
			{
				"type": "unocc",
				"energy": 0.03616,
				"method": "rhf"
			},
			{
				"type": "unocc",
				"energy": 0.06329,
				"method": "rhf"
			}
		],
		"cosmo_sigma_profile": { 
			"-0.025": 0.0,
			"-0.024": 0.0,
			"-0.023": 0.0,
			"-0.022": 0.0,
			"-0.021": 0.0,
			"-0.02": 0.0,
			"-0.019": 0.0,
			"-0.018": 0.0,
			"-0.017": 0.0,
			"-0.016": 0.815742648087,
			"-0.015": 2.81947345198,
			"-0.014": 2.4335439463,
			"-0.013": 3.6794965402,
			"-0.012": 2.89602983742,
			"-0.011": 2.45374162482,
			"-0.01": 2.24431077114,
			"-0.009": 1.81422373446,
			"-0.008": 6.2002081071,
			"-0.007": 9.41281368695,
			"-0.006": 9.92207586752,
			"-0.005": 11.2243111682,
			"-0.004": 12.3614548845,
			"-0.003": 13.8949936596,
			"-0.002": 14.9233225127,
			"-0.001": 21.4598859046,
			"0.0": 16.1834095879,
			"0.001": 9.11947613887,
			"0.002": 5.25123719206,
			"0.003": 4.8909818893,
			"0.004": 5.19365650935,
			"0.005": 6.20068394306,
			"0.006": 8.13958384523,
			"0.007": 11.4353344032,
			"0.008": 9.59255105119,
			"0.009": 9.49163458728,
			"0.01": 10.850103341,
			"0.011": 9.47559182023,
			"0.012": 1.49800703666,
			"0.013": 0.0,
			"0.014": 0.0,
			"0.015": 0.0,
			"0.016": 0.0,
			"0.017": 0.0,
			"0.018": 0.0,
			"0.019": 0.0,
			"0.02": 0.0,
			"0.021": 0.0,
			"0.022": 0.0,
			"0.023": 0.0,
			"0.024": 0.0,
			"0.025": 0.0
		}
	}
}
