{
	 "smiles": "OC(=O)C1(C2CCCCCCC12)C(O)=O", 
	 "Tm": 490.15, 
	 "num_atms": 31, 
	 "gaussian": { 
		 "optdone": 1, 
		 "sigma_profile": "yes", 
		 "theory": "DFT", 
		 "functional": "B3LYP", 
		 "basiset": "6-31G**", 
		 "properties": { 
			 "R2extent": 3568.594, 
			 "electric_dipole_moment_norm": 3.59866011871, 
			 "electric_quadrupole_moment_norm": 22.2728215833, 
			 "total_energy": -729.714408193, 
			 "HOMO_LUMO_gap": 0.24631, 
			 "cosmo_polarized_energy": -13.66, 
			 "cosmo_cavitation_energy": 30.04, 
			 "cosmo_dispersion_energy": -22.78, 
			 "cosmo_repulsion_energy": 1.78, 
			 "cosmo_total_nonelectrostatic_energy": 9.05, 
			 "SMD_solvation_energy": 6.04 
		},
		"coords": [
			{
				"x": -0.7233172974,
				"y": -1.1259892858,
				"z": 3.7539193732,
				"element": "O" 
			},
			{
				"x": -0.7310826883,
				"y": -0.6831641631,
				"z": 2.4527908222,
				"element": "C" 
			},
			{
				"x": -1.6944323543,
				"y": -0.0700523884,
				"z": 2.0424777348,
				"element": "O" 
			},
			{
				"x": 0.492240044,
				"y": -1.0335664465,
				"z": 1.69086293,
				"element": "C" 
			},
			{
				"x": 0.8289182961,
				"y": -0.1439291063,
				"z": 0.4391192753,
				"element": "C" 
			},
			{
				"x": 0.1753990164,
				"y": 1.2105813317,
				"z": 0.1273380543,
				"element": "C" 
			},
			{
				"x": -1.0831496675,
				"y": 1.2790643178,
				"z": -0.7580320433,
				"element": "C" 
			},
			{
				"x": -0.9223133436,
				"y": 0.8559692072,
				"z": -2.2314401578,
				"element": "C" 
			},
			{
				"x": -0.3023732688,
				"y": -0.5206614145,
				"z": -2.5313094282,
				"element": "C" 
			},
			{
				"x": -1.0069718778,
				"y": -1.7555577233,
				"z": -1.9423647016,
				"element": "C" 
			},
			{
				"x": -1.04458339,
				"y": -1.848696141,
				"z": -0.3978125829,
				"element": "C" 
			},
			{
				"x": 0.3001743278,
				"y": -1.5072748019,
				"z": 0.2112279665,
				"element": "C" 
			},
			{
				"x": 1.7418818089,
				"y": -1.6278332022,
				"z": 2.3322567649,
				"element": "C" 
			},
			{
				"x": 1.7635696552,
				"y": -1.8678222957,
				"z": 3.6520673823,
				"element": "O" 
			},
			{
				"x": 2.7177557523,
				"y": -1.8750946412,
				"z": 1.6551595284,
				"element": "O" 
			},
			{
				"x": -1.5540990836,
				"y": -0.8189091559,
				"z": 4.1539101813,
				"element": "H" 
			},
			{
				"x": 1.9117930967,
				"y": -0.1132098906,
				"z": 0.3542920599,
				"element": "H" 
			},
			{
				"x": -0.0485755182,
				"y": 1.7224035208,
				"z": 1.0691881527,
				"element": "H" 
			},
			{
				"x": 0.960414105,
				"y": 1.8093554604,
				"z": -0.3527849585,
				"element": "H" 
			},
			{
				"x": -1.4044742454,
				"y": 2.3290425529,
				"z": -0.7578584787,
				"element": "H" 
			},
			{
				"x": -1.8967739267,
				"y": 0.7328915713,
				"z": -0.2803331788,
				"element": "H" 
			},
			{
				"x": -1.9133763757,
				"y": 0.9085970646,
				"z": -2.7032711107,
				"element": "H" 
			},
			{
				"x": -0.3085057629,
				"y": 1.6089471196,
				"z": -2.745315951,
				"element": "H" 
			},
			{
				"x": -0.2803591554,
				"y": -0.6413620645,
				"z": -3.6221470875,
				"element": "H" 
			},
			{
				"x": 0.7489890794,
				"y": -0.523987849,
				"z": -2.2198124707,
				"element": "H" 
			},
			{
				"x": -0.49760874,
				"y": -2.6455139643,
				"z": -2.3344358565,
				"element": "H" 
			},
			{
				"x": -2.0379705346,
				"y": -1.8078668784,
				"z": -2.3161895164,
				"element": "H" 
			},
			{
				"x": -1.3034371681,
				"y": -2.8771926343,
				"z": -0.1157946368,
				"element": "H" 
			},
			{
				"x": -1.8293669927,
				"y": -1.2130028056,
				"z": 0.0080810103,
				"element": "H" 
			},
			{
				"x": 1.0804034904,
				"y": -2.2286490115,
				"z": -0.0240578836,
				"element": "H" 
			},
			{
				"x": 0.9012327185,
				"y": -1.6551162825,
				"z": 4.0515688067,
				"element": "H" 
			}
		],
		 "valence_orbital": [ 
			{
				"type": "occ",
				"energy": -0.30607,
				"method": "rhf"
			},
			{
				"type": "occ",
				"energy": -0.30083,
				"method": "rhf"
			},
			{
				"type": "occ",
				"energy": -0.28931,
				"method": "rhf"
			},
			{
				"type": "occ",
				"energy": -0.28643,
				"method": "rhf"
			},
			{
				"type": "occ",
				"energy": -0.26722,
				"method": "rhf"
			},
			{
				"type": "unocc",
				"energy": -0.02091,
				"method": "rhf"
			},
			{
				"type": "unocc",
				"energy": 0.00962,
				"method": "rhf"
			},
			{
				"type": "unocc",
				"energy": 0.05161,
				"method": "rhf"
			},
			{
				"type": "unocc",
				"energy": 0.07418,
				"method": "rhf"
			},
			{
				"type": "unocc",
				"energy": 0.0954,
				"method": "rhf"
			}
		],
		"cosmo_sigma_profile": { 
			"-0.025": 0.0,
			"-0.024": 0.0,
			"-0.023": 0.0,
			"-0.022": 0.0,
			"-0.021": 0.0,
			"-0.02": 0.0438300663888,
			"-0.019": 0.876657218917,
			"-0.018": 0.985657230587,
			"-0.017": 0.737259270198,
			"-0.016": 0.825685551225,
			"-0.015": 0.636021292672,
			"-0.014": 0.594081933453,
			"-0.013": 0.908934505306,
			"-0.012": 0.616117352287,
			"-0.011": 0.616979843385,
			"-0.01": 0.402951761555,
			"-0.009": 2.24900277853,
			"-0.008": 2.72619052593,
			"-0.007": 2.04299985931,
			"-0.006": 2.93240288241,
			"-0.005": 5.84883837496,
			"-0.004": 10.9876967638,
			"-0.003": 20.8569716381,
			"-0.002": 35.4552017507,
			"-0.001": 37.95221318,
			"0.0": 32.0703330817,
			"0.001": 18.6287272832,
			"0.002": 7.84347845053,
			"0.003": 3.9787464257,
			"0.004": 3.41605940137,
			"0.005": 3.36952119916,
			"0.006": 3.74133332594,
			"0.007": 4.48630025144,
			"0.008": 2.76418553282,
			"0.009": 4.53156906832,
			"0.01": 5.56181197893,
			"0.011": 6.48088198609,
			"0.012": 5.52680394488,
			"0.013": 2.62715667031,
			"0.014": 0.425806241978,
			"0.015": 0.0,
			"0.016": 0.0,
			"0.017": 0.0,
			"0.018": 0.0,
			"0.019": 0.0,
			"0.02": 0.0,
			"0.021": 0.0,
			"0.022": 0.0,
			"0.023": 0.0,
			"0.024": 0.0,
			"0.025": 0.0
		}
	}
}
