{
	 "smiles": "CC1CCN(CC2=CC=CC=C2)C2=C(N1)C=CC=C2", 
	 "Tm": 342.15, 
	 "num_atms": 39, 
	 "gaussian": { 
		 "optdone": 1, 
		 "sigma_profile": "yes", 
		 "theory": "DFT", 
		 "functional": "B3LYP", 
		 "basiset": "6-31G**", 
		 "properties": { 
			 "R2extent": 5562.0904, 
			 "electric_dipole_moment_norm": 1.88794566129, 
			 "electric_quadrupole_moment_norm": 8.30564089339, 
			 "total_energy": -769.359428319, 
			 "HOMO_LUMO_gap": 0.16706, 
			 "cosmo_polarized_energy": -8.68, 
			 "cosmo_cavitation_energy": 38.71, 
			 "cosmo_dispersion_energy": -27.36, 
			 "cosmo_repulsion_energy": 2.09, 
			 "cosmo_total_nonelectrostatic_energy": 13.45, 
			 "SMD_solvation_energy": 5.47 
		},
		"coords": [
			{
				"x": -0.7426302191,
				"y": -0.8437875892,
				"z": -3.3990374881,
				"element": "C" 
			},
			{
				"x": 0.502889222,
				"y": -1.4150812753,
				"z": -2.7003530503,
				"element": "C" 
			},
			{
				"x": 0.156592567,
				"y": -2.3246007744,
				"z": -1.491173123,
				"element": "C" 
			},
			{
				"x": 0.307505836,
				"y": -1.5915967998,
				"z": -0.1546003663,
				"element": "C" 
			},
			{
				"x": -0.4169530619,
				"y": -0.3241051856,
				"z": -0.1074093742,
				"element": "N" 
			},
			{
				"x": -1.709279275,
				"y": -0.3122394976,
				"z": 0.5462241501,
				"element": "C" 
			},
			{
				"x": -1.7032095353,
				"y": -0.3308880445,
				"z": 2.0747448913,
				"element": "C" 
			},
			{
				"x": -0.558260185,
				"y": -0.0205817505,
				"z": 2.8155763728,
				"element": "C" 
			},
			{
				"x": -0.5915983956,
				"y": -0.0270457309,
				"z": 4.2126939083,
				"element": "C" 
			},
			{
				"x": -1.7707707976,
				"y": -0.3437050966,
				"z": 4.8869879366,
				"element": "C" 
			},
			{
				"x": -2.9190552636,
				"y": -0.6582256869,
				"z": 4.1551414498,
				"element": "C" 
			},
			{
				"x": -2.8815823947,
				"y": -0.6550440072,
				"z": 2.761584446,
				"element": "C" 
			},
			{
				"x": 0.1870180084,
				"y": 0.8508685591,
				"z": -0.5817483793,
				"element": "C" 
			},
			{
				"x": 1.1093810025,
				"y": 0.8130282401,
				"z": -1.6683108078,
				"element": "C" 
			},
			{
				"x": 1.490924851,
				"y": -0.3899806157,
				"z": -2.3087412385,
				"element": "N" 
			},
			{
				"x": 1.7015618246,
				"y": 2.0128172572,
				"z": -2.0865816798,
				"element": "C" 
			},
			{
				"x": 1.3974442325,
				"y": 3.2394960107,
				"z": -1.4980618025,
				"element": "C" 
			},
			{
				"x": 0.4669488421,
				"y": 3.2827448679,
				"z": -0.4636010403,
				"element": "C" 
			},
			{
				"x": -0.1171734145,
				"y": 2.0994965305,
				"z": -0.0114977498,
				"element": "C" 
			},
			{
				"x": -1.3869362965,
				"y": -1.6564275575,
				"z": -3.7524607147,
				"element": "H" 
			},
			{
				"x": -0.458168312,
				"y": -0.2364827758,
				"z": -4.265049638,
				"element": "H" 
			},
			{
				"x": -1.3273845353,
				"y": -0.2158265384,
				"z": -2.7219895898,
				"element": "H" 
			},
			{
				"x": 1.0296034925,
				"y": -2.0349916806,
				"z": -3.4353076516,
				"element": "H" 
			},
			{
				"x": -0.8659883616,
				"y": -2.7057192646,
				"z": -1.6012854631,
				"element": "H" 
			},
			{
				"x": 0.8183808255,
				"y": -3.1996499075,
				"z": -1.4776255194,
				"element": "H" 
			},
			{
				"x": -0.0495978247,
				"y": -2.2223043828,
				"z": 0.6667823837,
				"element": "H" 
			},
			{
				"x": 1.3683866424,
				"y": -1.4030455487,
				"z": 0.0346015672,
				"element": "H" 
			},
			{
				"x": -2.2873464491,
				"y": -1.1811530891,
				"z": 0.1976912096,
				"element": "H" 
			},
			{
				"x": -2.2621449806,
				"y": 0.5675602354,
				"z": 0.1958871052,
				"element": "H" 
			},
			{
				"x": 0.3603140534,
				"y": 0.2269969867,
				"z": 2.292734389,
				"element": "H" 
			},
			{
				"x": 0.3072367468,
				"y": 0.2159460933,
				"z": 4.7728171715,
				"element": "H" 
			},
			{
				"x": -1.7962420441,
				"y": -0.3497095592,
				"z": 5.972935734,
				"element": "H" 
			},
			{
				"x": -3.8413045174,
				"y": -0.9118201823,
				"z": 4.6708111668,
				"element": "H" 
			},
			{
				"x": -3.7776088636,
				"y": -0.9086592851,
				"z": 2.1981409851,
				"element": "H" 
			},
			{
				"x": 2.1203262028,
				"y": -0.1868805877,
				"z": -3.0746373866,
				"element": "H" 
			},
			{
				"x": 2.403363633,
				"y": 1.9760646512,
				"z": -2.9180847641,
				"element": "H" 
			},
			{
				"x": 1.8725962254,
				"y": 4.1463118009,
				"z": -1.8597633822,
				"element": "H" 
			},
			{
				"x": 0.2063003561,
				"y": 4.2244069815,
				"z": 0.0102468498,
				"element": "H" 
			},
			{
				"x": -0.8021398367,
				"y": 2.1362141989,
				"z": 0.8290184926,
				"element": "H" 
			}
		],
		 "valence_orbital": [ 
			{
				"type": "occ",
				"energy": -0.26511,
				"method": "rhf"
			},
			{
				"type": "occ",
				"energy": -0.24583,
				"method": "rhf"
			},
			{
				"type": "occ",
				"energy": -0.23932,
				"method": "rhf"
			},
			{
				"type": "occ",
				"energy": -0.20629,
				"method": "rhf"
			},
			{
				"type": "occ",
				"energy": -0.16788,
				"method": "rhf"
			},
			{
				"type": "unocc",
				"energy": -0.00082,
				"method": "rhf"
			},
			{
				"type": "unocc",
				"energy": 0.0047,
				"method": "rhf"
			},
			{
				"type": "unocc",
				"energy": 0.01859,
				"method": "rhf"
			},
			{
				"type": "unocc",
				"energy": 0.02752,
				"method": "rhf"
			},
			{
				"type": "unocc",
				"energy": 0.07182,
				"method": "rhf"
			}
		],
		"cosmo_sigma_profile": { 
			"-0.025": 0.0,
			"-0.024": 0.0,
			"-0.023": 0.0,
			"-0.022": 0.0,
			"-0.021": 0.0,
			"-0.02": 0.0,
			"-0.019": 0.0,
			"-0.018": 0.0,
			"-0.017": 0.0,
			"-0.016": 0.0,
			"-0.015": 0.0,
			"-0.014": 0.0,
			"-0.013": 0.0,
			"-0.012": 0.122969371906,
			"-0.011": 0.999976363839,
			"-0.01": 1.47710051836,
			"-0.009": 1.54993980004,
			"-0.008": 1.28557212067,
			"-0.007": 1.69154322182,
			"-0.006": 3.95507360754,
			"-0.005": 13.978625792,
			"-0.004": 25.4173893057,
			"-0.003": 36.7518816617,
			"-0.002": 38.8046947013,
			"-0.001": 32.2742398659,
			"0.0": 27.3442021386,
			"0.001": 24.6709273117,
			"0.002": 17.7636703321,
			"0.003": 13.6136478271,
			"0.004": 13.1725337107,
			"0.005": 14.4074586831,
			"0.006": 15.2017790428,
			"0.007": 9.76904799429,
			"0.008": 6.8413865197,
			"0.009": 2.2753808117,
			"0.01": 0.438645255373,
			"0.011": 0.51937269289,
			"0.012": 0.426358892977,
			"0.013": 0.0584289601802,
			"0.014": 0.0,
			"0.015": 0.0,
			"0.016": 0.0,
			"0.017": 0.0,
			"0.018": 0.0,
			"0.019": 0.0,
			"0.02": 0.0,
			"0.021": 0.0,
			"0.022": 0.0,
			"0.023": 0.0,
			"0.024": 0.0,
			"0.025": 0.0
		}
	}
}
