{
	 "smiles": "O=CC1=CNC(=N1)C1=CC=CC=C1", 
	 "Tm": 433.15, 
	 "num_atms": 21, 
	 "gaussian": { 
		 "optdone": 1, 
		 "sigma_profile": "yes", 
		 "theory": "DFT", 
		 "functional": "B3LYP", 
		 "basiset": "6-31G**", 
		 "properties": { 
			 "R2extent": 3629.7921, 
			 "electric_dipole_moment_norm": 5.35166307049, 
			 "electric_quadrupole_moment_norm": 21.4743903243, 
			 "total_energy": -570.60902447, 
			 "HOMO_LUMO_gap": 0.18045, 
			 "cosmo_polarized_energy": -16.68, 
			 "cosmo_cavitation_energy": 26.2, 
			 "cosmo_dispersion_energy": -19.33, 
			 "cosmo_repulsion_energy": 1.51, 
			 "cosmo_total_nonelectrostatic_energy": 8.38, 
			 "SMD_solvation_energy": 4.17 
		},
		"coords": [
			{
				"x": -2.6782627823,
				"y": -4.8526076116,
				"z": -1.913312776,
				"element": "O" 
			},
			{
				"x": -2.5376702375,
				"y": -3.8215909006,
				"z": -1.2773979825,
				"element": "C" 
			},
			{
				"x": -1.260957441,
				"y": -3.1227130911,
				"z": -1.1200898468,
				"element": "C" 
			},
			{
				"x": -0.0348659948,
				"y": -3.4907933757,
				"z": -1.6424564158,
				"element": "C" 
			},
			{
				"x": 0.8356098512,
				"y": -2.5274083156,
				"z": -1.2201348665,
				"element": "N" 
			},
			{
				"x": 0.128302639,
				"y": -1.6099537644,
				"z": -0.4625598888,
				"element": "C" 
			},
			{
				"x": -1.1421770526,
				"y": -1.9586980838,
				"z": -0.393261845,
				"element": "N" 
			},
			{
				"x": 0.7262860167,
				"y": -0.4277934004,
				"z": 0.1655650528,
				"element": "C" 
			},
			{
				"x": -0.0927702501,
				"y": 0.4085635543,
				"z": 0.9434681874,
				"element": "C" 
			},
			{
				"x": 0.4365383886,
				"y": 1.5397753916,
				"z": 1.5568694158,
				"element": "C" 
			},
			{
				"x": 1.7892616139,
				"y": 1.8579926691,
				"z": 1.4072103919,
				"element": "C" 
			},
			{
				"x": 2.6098983641,
				"y": 1.0337322754,
				"z": 0.6359073883,
				"element": "C" 
			},
			{
				"x": 2.083800511,
				"y": -0.1002555592,
				"z": 0.0189458297,
				"element": "C" 
			},
			{
				"x": -3.3867402219,
				"y": -3.3276108303,
				"z": -0.7605799612,
				"element": "H" 
			},
			{
				"x": 0.260026113,
				"y": -4.3294190107,
				"z": -2.253210522,
				"element": "H" 
			},
			{
				"x": 1.8230580498,
				"y": -2.5011366558,
				"z": -1.4246459322,
				"element": "H" 
			},
			{
				"x": -1.1404037079,
				"y": 0.1501389404,
				"z": 1.0518297584,
				"element": "H" 
			},
			{
				"x": -0.2086441811,
				"y": 2.1765566126,
				"z": 2.1551804314,
				"element": "H" 
			},
			{
				"x": 2.2001171763,
				"y": 2.7411525988,
				"z": 1.887177795,
				"element": "H" 
			},
			{
				"x": 3.6620432238,
				"y": 1.2727970457,
				"z": 0.5119850528,
				"element": "H" 
			},
			{
				"x": 2.7454499218,
				"y": -0.7216284889,
				"z": -0.5793892668,
				"element": "H" 
			}
		],
		 "valence_orbital": [ 
			{
				"type": "occ",
				"energy": -0.28767,
				"method": "rhf"
			},
			{
				"type": "occ",
				"energy": -0.28244,
				"method": "rhf"
			},
			{
				"type": "occ",
				"energy": -0.26234,
				"method": "rhf"
			},
			{
				"type": "occ",
				"energy": -0.24528,
				"method": "rhf"
			},
			{
				"type": "occ",
				"energy": -0.22303,
				"method": "rhf"
			},
			{
				"type": "unocc",
				"energy": -0.04258,
				"method": "rhf"
			},
			{
				"type": "unocc",
				"energy": -0.04033,
				"method": "rhf"
			},
			{
				"type": "unocc",
				"energy": -0.01143,
				"method": "rhf"
			},
			{
				"type": "unocc",
				"energy": 0.04643,
				"method": "rhf"
			},
			{
				"type": "unocc",
				"energy": 0.05731,
				"method": "rhf"
			}
		],
		"cosmo_sigma_profile": { 
			"-0.025": 0.0,
			"-0.024": 0.0,
			"-0.023": 0.0,
			"-0.022": 0.0,
			"-0.021": 0.0,
			"-0.02": 0.0,
			"-0.019": 0.0,
			"-0.018": 0.44495610188,
			"-0.017": 1.60613635217,
			"-0.016": 1.40240482642,
			"-0.015": 1.66786535578,
			"-0.014": 1.09705838256,
			"-0.013": 1.60348544106,
			"-0.012": 1.17117859882,
			"-0.011": 1.27984903974,
			"-0.01": 3.59560364842,
			"-0.009": 3.37836937402,
			"-0.008": 2.71354155909,
			"-0.007": 2.64218750035,
			"-0.006": 8.41126650039,
			"-0.005": 13.2216310854,
			"-0.004": 15.4726014561,
			"-0.003": 12.3592891475,
			"-0.002": 11.0829446073,
			"-0.001": 10.8253127823,
			"0.0": 15.441043906,
			"0.001": 15.5388936233,
			"0.002": 15.1627475699,
			"0.003": 14.3856037754,
			"0.004": 13.9004676513,
			"0.005": 12.9826470774,
			"0.006": 3.78090537633,
			"0.007": 3.63255707123,
			"0.008": 2.19523051659,
			"0.009": 3.19239368944,
			"0.01": 3.31927536244,
			"0.011": 4.32839004525,
			"0.012": 5.91881742084,
			"0.013": 2.60681283313,
			"0.014": 0.752101850219,
			"0.015": 0.0,
			"0.016": 0.0,
			"0.017": 0.0,
			"0.018": 0.0,
			"0.019": 0.0,
			"0.02": 0.0,
			"0.021": 0.0,
			"0.022": 0.0,
			"0.023": 0.0,
			"0.024": 0.0,
			"0.025": 0.0
		}
	}
}
