{
	 "smiles": "CN[C@@H](C)[C@H]1[C@H](O)C[C@@]2(C)[C@@H]3CC[C@@H]4[C@]5(C[C@@]35CC[C@]12C)CC[C@H](NC)C4(C)C", 
	 "Tm": 480.5, 
	 "num_atms": 75, 
	 "gaussian": { 
		 "optdone": 1, 
		 "sigma_profile": "yes", 
		 "theory": "DFT", 
		 "functional": "B3LYP", 
		 "basiset": "6-31G**", 
		 "properties": { 
			 "R2extent": 15625.1347, 
			 "electric_dipole_moment_norm": 3.35338172149, 
			 "electric_quadrupole_moment_norm": 22.0925513536, 
			 "total_energy": -1203.18240533, 
			 "HOMO_LUMO_gap": 0.27142, 
			 "cosmo_polarized_energy": -10.53, 
			 "cosmo_cavitation_energy": 59.69, 
			 "cosmo_dispersion_energy": -40.75, 
			 "cosmo_repulsion_energy": 2.92, 
			 "cosmo_total_nonelectrostatic_energy": 21.86, 
			 "SMD_solvation_energy": 7.77 
		},
		"coords": [
			{
				"x": 3.6106774658,
				"y": 6.8213884433,
				"z": -1.9647617403,
				"element": "C" 
			},
			{
				"x": 2.6346994813,
				"y": 5.7685111368,
				"z": -2.2482920679,
				"element": "N" 
			},
			{
				"x": 2.3180487257,
				"y": 4.877443519,
				"z": -1.1000795124,
				"element": "C" 
			},
			{
				"x": 1.404318856,
				"y": 5.5643582477,
				"z": -0.0734550737,
				"element": "C" 
			},
			{
				"x": 1.7493424056,
				"y": 3.5690016063,
				"z": -1.6878515088,
				"element": "C" 
			},
			{
				"x": 2.7501215391,
				"y": 2.9309502873,
				"z": -2.7021047011,
				"element": "C" 
			},
			{
				"x": 2.6109842325,
				"y": 3.469759046,
				"z": -4.0075481364,
				"element": "O" 
			},
			{
				"x": 2.4692861212,
				"y": 1.4080857974,
				"z": -2.7036488827,
				"element": "C" 
			},
			{
				"x": 1.205658301,
				"y": 1.2131388924,
				"z": -1.8250138195,
				"element": "C" 
			},
			{
				"x": -0.010828585,
				"y": 1.4122526276,
				"z": -2.7693995935,
				"element": "C" 
			},
			{
				"x": 1.1480992357,
				"y": -0.1460789941,
				"z": -1.0769537577,
				"element": "C" 
			},
			{
				"x": 0.9216735251,
				"y": -1.3726013892,
				"z": -1.974819271,
				"element": "C" 
			},
			{
				"x": 0.9653261362,
				"y": -2.6563305537,
				"z": -1.1393448316,
				"element": "C" 
			},
			{
				"x": -0.2508137675,
				"y": -2.7248387484,
				"z": -0.202311065,
				"element": "C" 
			},
			{
				"x": -0.4704194117,
				"y": -1.433799658,
				"z": 0.6011584936,
				"element": "C" 
			},
			{
				"x": 0.658549746,
				"y": -0.8078993246,
				"z": 1.3991366013,
				"element": "C" 
			},
			{
				"x": 0.1690309389,
				"y": -0.1162404796,
				"z": 0.1382050787,
				"element": "C" 
			},
			{
				"x": -0.6818816482,
				"y": 1.1521595438,
				"z": 0.3019036926,
				"element": "C" 
			},
			{
				"x": 0.027614346,
				"y": 2.5135341236,
				"z": 0.0263717631,
				"element": "C" 
			},
			{
				"x": 1.3467972193,
				"y": 2.3779704406,
				"z": -0.767031313,
				"element": "C" 
			},
			{
				"x": 2.4909698902,
				"y": 2.1089966759,
				"z": 0.2460968557,
				"element": "C" 
			},
			{
				"x": -1.8891096288,
				"y": -1.4030780665,
				"z": 1.1989059457,
				"element": "C" 
			},
			{
				"x": -2.4477694311,
				"y": -2.8222278616,
				"z": 1.4467996905,
				"element": "C" 
			},
			{
				"x": -1.3399827503,
				"y": -3.8054102526,
				"z": 1.8790970546,
				"element": "C" 
			},
			{
				"x": -0.6668521231,
				"y": -3.4334025304,
				"z": 3.1302105764,
				"element": "N" 
			},
			{
				"x": -1.5038131303,
				"y": -3.4805160557,
				"z": 4.3207379346,
				"element": "C" 
			},
			{
				"x": -0.3299927063,
				"y": -4.0244292704,
				"z": 0.6891822356,
				"element": "C" 
			},
			{
				"x": -0.8839147924,
				"y": -5.1712292114,
				"z": -0.1873323955,
				"element": "C" 
			},
			{
				"x": 1.0458220348,
				"y": -4.4688100226,
				"z": 1.2233535834,
				"element": "C" 
			},
			{
				"x": 3.3533917121,
				"y": 7.4751630656,
				"z": -1.1156251431,
				"element": "H" 
			},
			{
				"x": 4.5831292216,
				"y": 6.3654649866,
				"z": -1.752028459,
				"element": "H" 
			},
			{
				"x": 3.7273026718,
				"y": 7.4524644425,
				"z": -2.8509068394,
				"element": "H" 
			},
			{
				"x": 1.7659911407,
				"y": 6.1962569501,
				"z": -2.5659282562,
				"element": "H" 
			},
			{
				"x": 3.2816831738,
				"y": 4.659368144,
				"z": -0.6212633124,
				"element": "H" 
			},
			{
				"x": 0.4051369854,
				"y": 5.7309622437,
				"z": -0.4939035306,
				"element": "H" 
			},
			{
				"x": 1.2845395759,
				"y": 4.9675816582,
				"z": 0.8343611892,
				"element": "H" 
			},
			{
				"x": 1.8098565342,
				"y": 6.5362398301,
				"z": 0.2267334823,
				"element": "H" 
			},
			{
				"x": 0.8612250435,
				"y": 3.8588323479,
				"z": -2.2640051188,
				"element": "H" 
			},
			{
				"x": 3.776114966,
				"y": 3.1136618597,
				"z": -2.3413565421,
				"element": "H" 
			},
			{
				"x": 2.7549847973,
				"y": 4.4237065922,
				"z": -3.8642715342,
				"element": "H" 
			},
			{
				"x": 3.3250371958,
				"y": 0.8590594498,
				"z": -2.2961574975,
				"element": "H" 
			},
			{
				"x": 2.326405326,
				"y": 1.0647706559,
				"z": -3.7318436518,
				"element": "H" 
			},
			{
				"x": -0.9734908456,
				"y": 1.4523783445,
				"z": -2.2562203983,
				"element": "H" 
			},
			{
				"x": -0.055981985,
				"y": 0.58510957,
				"z": -3.482891444,
				"element": "H" 
			},
			{
				"x": 0.0952101044,
				"y": 2.3196378594,
				"z": -3.3674044231,
				"element": "H" 
			},
			{
				"x": 2.1545847112,
				"y": -0.2863962194,
				"z": -0.6617958507,
				"element": "H" 
			},
			{
				"x": 1.6909229889,
				"y": -1.3996910443,
				"z": -2.7563951232,
				"element": "H" 
			},
			{
				"x": -0.0473109952,
				"y": -1.3150060732,
				"z": -2.4858922348,
				"element": "H" 
			},
			{
				"x": 0.9722427084,
				"y": -3.5351516406,
				"z": -1.7942939103,
				"element": "H" 
			},
			{
				"x": 1.9053491171,
				"y": -2.6878926307,
				"z": -0.5747254442,
				"element": "H" 
			},
			{
				"x": -1.119865602,
				"y": -2.7760957218,
				"z": -0.8773154718,
				"element": "H" 
			},
			{
				"x": 1.6451559316,
				"y": -1.264214259,
				"z": 1.3710777123,
				"element": "H" 
			},
			{
				"x": 0.4124405483,
				"y": -0.3557216696,
				"z": 2.3594889867,
				"element": "H" 
			},
			{
				"x": -1.0991825888,
				"y": 1.1734542393,
				"z": 1.3126779605,
				"element": "H" 
			},
			{
				"x": -1.5504455478,
				"y": 1.0696504944,
				"z": -0.3615291426,
				"element": "H" 
			},
			{
				"x": -0.6706614927,
				"y": 3.1635235218,
				"z": -0.51299436,
				"element": "H" 
			},
			{
				"x": 0.2263784688,
				"y": 3.0148299015,
				"z": 0.9795635059,
				"element": "H" 
			},
			{
				"x": 2.2597504399,
				"y": 1.2743048314,
				"z": 0.910103292,
				"element": "H" 
			},
			{
				"x": 3.4498595629,
				"y": 1.8986554989,
				"z": -0.2364295919,
				"element": "H" 
			},
			{
				"x": 2.6339931425,
				"y": 2.9873338485,
				"z": 0.8840386841,
				"element": "H" 
			},
			{
				"x": -1.8893210544,
				"y": -0.8402474092,
				"z": 2.1388463889,
				"element": "H" 
			},
			{
				"x": -2.5729075414,
				"y": -0.8684200355,
				"z": 0.5273822407,
				"element": "H" 
			},
			{
				"x": -2.9252089203,
				"y": -3.2023908385,
				"z": 0.5360619746,
				"element": "H" 
			},
			{
				"x": -3.2420832142,
				"y": -2.7804752872,
				"z": 2.200252319,
				"element": "H" 
			},
			{
				"x": -1.8056097285,
				"y": -4.7794988556,
				"z": 2.0852400919,
				"element": "H" 
			},
			{
				"x": -0.2394475501,
				"y": -2.5173756883,
				"z": 3.0389821785,
				"element": "H" 
			},
			{
				"x": -0.8981657873,
				"y": -3.2273198642,
				"z": 5.1972788496,
				"element": "H" 
			},
			{
				"x": -2.382343248,
				"y": -2.8102905394,
				"z": 4.3177736262,
				"element": "H" 
			},
			{
				"x": -1.8756492168,
				"y": -4.5023028144,
				"z": 4.4632308323,
				"element": "H" 
			},
			{
				"x": -0.8722220999,
				"y": -6.1193513845,
				"z": 0.3616654969,
				"element": "H" 
			},
			{
				"x": -0.2834002193,
				"y": -5.3081551089,
				"z": -1.0928639368,
				"element": "H" 
			},
			{
				"x": -1.9159646207,
				"y": -4.980186596,
				"z": -0.5025930614,
				"element": "H" 
			},
			{
				"x": 0.9277652371,
				"y": -5.3091342795,
				"z": 1.9131757515,
				"element": "H" 
			},
			{
				"x": 1.6930998692,
				"y": -4.7936150831,
				"z": 0.4021914662,
				"element": "H" 
			},
			{
				"x": 1.5593688581,
				"y": -3.6787352619,
				"z": 1.7745964133,
				"element": "H" 
			}
		],
		 "valence_orbital": [ 
			{
				"type": "occ",
				"energy": -0.25325,
				"method": "rhf"
			},
			{
				"type": "occ",
				"energy": -0.23879,
				"method": "rhf"
			},
			{
				"type": "occ",
				"energy": -0.23745,
				"method": "rhf"
			},
			{
				"type": "occ",
				"energy": -0.22761,
				"method": "rhf"
			},
			{
				"type": "occ",
				"energy": -0.20367,
				"method": "rhf"
			},
			{
				"type": "unocc",
				"energy": 0.06775,
				"method": "rhf"
			},
			{
				"type": "unocc",
				"energy": 0.07117,
				"method": "rhf"
			},
			{
				"type": "unocc",
				"energy": 0.08127,
				"method": "rhf"
			},
			{
				"type": "unocc",
				"energy": 0.08565,
				"method": "rhf"
			},
			{
				"type": "unocc",
				"energy": 0.08834,
				"method": "rhf"
			}
		],
		"cosmo_sigma_profile": { 
			"-0.025": 0.0,
			"-0.024": 0.0,
			"-0.023": 0.0,
			"-0.022": 0.0,
			"-0.021": 0.0,
			"-0.02": 0.0,
			"-0.019": 0.0,
			"-0.018": 0.0,
			"-0.017": 0.0,
			"-0.016": 0.0,
			"-0.015": 0.0,
			"-0.014": 0.0,
			"-0.013": 0.0,
			"-0.012": 0.0,
			"-0.011": 0.0,
			"-0.01": 0.431364855747,
			"-0.009": 1.37537706473,
			"-0.008": 0.970929725342,
			"-0.007": 1.72985758889,
			"-0.006": 2.35730393253,
			"-0.005": 4.18678385193,
			"-0.004": 9.56605356649,
			"-0.003": 38.0760976615,
			"-0.002": 74.6450537527,
			"-0.001": 91.1580747049,
			"0.0": 83.7705512898,
			"0.001": 63.6108157709,
			"0.002": 39.7775263012,
			"0.003": 10.466416648,
			"0.004": 3.98400549913,
			"0.005": 4.0512742292,
			"0.006": 2.83998985223,
			"0.007": 3.03887930792,
			"0.008": 2.49829553403,
			"0.009": 1.98794347626,
			"0.01": 2.02641596364,
			"0.011": 2.03293566406,
			"0.012": 1.49333855512,
			"0.013": 2.02143166809,
			"0.014": 2.57147377511,
			"0.015": 2.04246488439,
			"0.016": 1.46297285778,
			"0.017": 0.0340291964494,
			"0.018": 0.0,
			"0.019": 0.0,
			"0.02": 0.0,
			"0.021": 0.0,
			"0.022": 0.0,
			"0.023": 0.0,
			"0.024": 0.0,
			"0.025": 0.0
		}
	}
}
