{
	 "smiles": "CC(C)(C)OC(=O)NC(CC1=CC=C(O)C=C1)C(O)=O", 
	 "Tm": 411.15, 
	 "num_atms": 39, 
	 "gaussian": { 
		 "optdone": 1, 
		 "sigma_profile": "yes", 
		 "theory": "DFT", 
		 "functional": "B3LYP", 
		 "basiset": "6-31G**", 
		 "properties": { 
			 "R2extent": 7778.1034, 
			 "electric_dipole_moment_norm": 6.14889279627, 
			 "electric_quadrupole_moment_norm": 26.8756594371, 
			 "total_energy": -975.861416681, 
			 "HOMO_LUMO_gap": 0.21068, 
			 "cosmo_polarized_energy": -20.57, 
			 "cosmo_cavitation_energy": 42.0, 
			 "cosmo_dispersion_energy": -27.95, 
			 "cosmo_repulsion_energy": 2.14, 
			 "cosmo_total_nonelectrostatic_energy": 16.19, 
			 "SMD_solvation_energy": 8.8 
		},
		"coords": [
			{
				"x": -2.2129128167,
				"y": -0.0962357796,
				"z": -1.525034727,
				"element": "C" 
			},
			{
				"x": -1.8178119091,
				"y": -1.5496562074,
				"z": -1.2502397278,
				"element": "C" 
			},
			{
				"x": -3.0245384735,
				"y": -2.3533409414,
				"z": -0.7537479901,
				"element": "C" 
			},
			{
				"x": -1.1692812287,
				"y": -2.179066908,
				"z": -2.4876609313,
				"element": "C" 
			},
			{
				"x": -0.8221419389,
				"y": -1.4162307112,
				"z": -0.1726918578,
				"element": "O" 
			},
			{
				"x": -0.2300938859,
				"y": -2.5195231437,
				"z": 0.3618614041,
				"element": "C" 
			},
			{
				"x": -0.4315619657,
				"y": -3.6744005268,
				"z": 0.0284422278,
				"element": "O" 
			},
			{
				"x": 0.6587768965,
				"y": -2.1609270154,
				"z": 1.3381842027,
				"element": "N" 
			},
			{
				"x": 0.8227758762,
				"y": -0.8351177703,
				"z": 1.8926797612,
				"element": "C" 
			},
			{
				"x": 1.7308421612,
				"y": 0.0676622171,
				"z": 0.9976677756,
				"element": "C" 
			},
			{
				"x": 1.6757881843,
				"y": 1.5464398602,
				"z": 1.3228540248,
				"element": "C" 
			},
			{
				"x": 2.7668364554,
				"y": 2.2211613335,
				"z": 1.8896582294,
				"element": "C" 
			},
			{
				"x": 2.7108894694,
				"y": 3.5875842526,
				"z": 2.1714950977,
				"element": "C" 
			},
			{
				"x": 1.5483873527,
				"y": 4.3105890528,
				"z": 1.8883242844,
				"element": "C" 
			},
			{
				"x": 1.4243779256,
				"y": 5.6448050385,
				"z": 2.1367377778,
				"element": "O" 
			},
			{
				"x": 0.4454765082,
				"y": 3.6559577782,
				"z": 1.3228346604,
				"element": "C" 
			},
			{
				"x": 0.5162855048,
				"y": 2.2959470259,
				"z": 1.0459040966,
				"element": "C" 
			},
			{
				"x": 1.3950224506,
				"y": -1.0062550714,
				"z": 3.3090378972,
				"element": "C" 
			},
			{
				"x": 1.5746020777,
				"y": 0.1258823112,
				"z": 4.0150186007,
				"element": "O" 
			},
			{
				"x": 1.6751272699,
				"y": -2.0828786729,
				"z": 3.7819491142,
				"element": "O" 
			},
			{
				"x": -2.6400925933,
				"y": 0.3650340322,
				"z": -0.6291879361,
				"element": "H" 
			},
			{
				"x": -2.9614803696,
				"y": -0.0548959998,
				"z": -2.321723834,
				"element": "H" 
			},
			{
				"x": -1.3441250921,
				"y": 0.489960305,
				"z": -1.8398433222,
				"element": "H" 
			},
			{
				"x": -3.4352653474,
				"y": -1.9005041625,
				"z": 0.1544384723,
				"element": "H" 
			},
			{
				"x": -3.8077538957,
				"y": -2.3491011904,
				"z": -1.5187871554,
				"element": "H" 
			},
			{
				"x": -2.7447412803,
				"y": -3.3846666415,
				"z": -0.539458629,
				"element": "H" 
			},
			{
				"x": -1.8830560012,
				"y": -2.1760888935,
				"z": -3.3178758563,
				"element": "H" 
			},
			{
				"x": -0.8643394873,
				"y": -3.2060350951,
				"z": -2.2868102477,
				"element": "H" 
			},
			{
				"x": -0.291457162,
				"y": -1.6005914355,
				"z": -2.7934042917,
				"element": "H" 
			},
			{
				"x": 1.0313875602,
				"y": -2.9206653597,
				"z": 1.8947718494,
				"element": "H" 
			},
			{
				"x": -0.1546733636,
				"y": -0.3433583289,
				"z": 1.9834432171,
				"element": "H" 
			},
			{
				"x": 1.3846355885,
				"y": -0.0939902248,
				"z": -0.0266540553,
				"element": "H" 
			},
			{
				"x": 2.7601693096,
				"y": -0.3023593839,
				"z": 1.0513311485,
				"element": "H" 
			},
			{
				"x": 3.6787974158,
				"y": 1.6731838666,
				"z": 2.1117896737,
				"element": "H" 
			},
			{
				"x": 3.5725746061,
				"y": 4.0876372367,
				"z": 2.6082497342,
				"element": "H" 
			},
			{
				"x": 2.2460749301,
				"y": 5.978539694,
				"z": 2.5200707307,
				"element": "H" 
			},
			{
				"x": -0.4482104982,
				"y": 4.2307683938,
				"z": 1.1037441732,
				"element": "H" 
			},
			{
				"x": -0.3395876202,
				"y": 1.801957739,
				"z": 0.5925542147,
				"element": "H" 
			},
			{
				"x": 1.3889973865,
				"y": 0.9077793263,
				"z": 3.4663781935,
				"element": "H" 
			}
		],
		 "valence_orbital": [ 
			{
				"type": "occ",
				"energy": -0.28357,
				"method": "rhf"
			},
			{
				"type": "occ",
				"energy": -0.27286,
				"method": "rhf"
			},
			{
				"type": "occ",
				"energy": -0.26274,
				"method": "rhf"
			},
			{
				"type": "occ",
				"energy": -0.25564,
				"method": "rhf"
			},
			{
				"type": "occ",
				"energy": -0.23651,
				"method": "rhf"
			},
			{
				"type": "unocc",
				"energy": -0.02583,
				"method": "rhf"
			},
			{
				"type": "unocc",
				"energy": -0.01469,
				"method": "rhf"
			},
			{
				"type": "unocc",
				"energy": 0.00418,
				"method": "rhf"
			},
			{
				"type": "unocc",
				"energy": 0.05273,
				"method": "rhf"
			},
			{
				"type": "unocc",
				"energy": 0.05643,
				"method": "rhf"
			}
		],
		"cosmo_sigma_profile": { 
			"-0.025": 0.0,
			"-0.024": 0.0,
			"-0.023": 0.0,
			"-0.022": 0.0,
			"-0.021": 0.0,
			"-0.02": 0.0,
			"-0.019": 0.0,
			"-0.018": 0.635174517868,
			"-0.017": 1.0813029374,
			"-0.016": 1.07358546791,
			"-0.015": 1.05678739388,
			"-0.014": 1.51001734978,
			"-0.013": 0.844570390263,
			"-0.012": 1.21657190589,
			"-0.011": 1.88898589027,
			"-0.01": 3.0788891586,
			"-0.009": 3.62486009752,
			"-0.008": 3.43596298614,
			"-0.007": 6.51638763603,
			"-0.006": 11.5608949827,
			"-0.005": 12.7655395086,
			"-0.004": 23.7467261389,
			"-0.003": 29.3371436232,
			"-0.002": 29.1672161106,
			"-0.001": 33.4420256057,
			"0.0": 33.7228851329,
			"0.001": 27.8800887386,
			"0.002": 16.5498638438,
			"0.003": 14.1704778371,
			"0.004": 12.9318367587,
			"0.005": 10.3543205527,
			"0.006": 4.61836611902,
			"0.007": 5.62645054791,
			"0.008": 6.28140928242,
			"0.009": 6.47352065951,
			"0.01": 8.24658116902,
			"0.011": 7.47183784689,
			"0.012": 4.34195731332,
			"0.013": 3.53422086031,
			"0.014": 1.76296531617,
			"0.015": 0.000915270356743,
			"0.016": 0.0,
			"0.017": 0.0,
			"0.018": 0.0,
			"0.019": 0.0,
			"0.02": 0.0,
			"0.021": 0.0,
			"0.022": 0.0,
			"0.023": 0.0,
			"0.024": 0.0,
			"0.025": 0.0
		}
	}
}
