{
	 "smiles": "CN(C)S(=O)(=O)C1=CC2=C(CCN2)C=C1", 
	 "Tm": 395.15, 
	 "num_atms": 29, 
	 "gaussian": { 
		 "optdone": 1, 
		 "sigma_profile": "yes", 
		 "theory": "DFT", 
		 "functional": "B3LYP", 
		 "basiset": "6-31G**", 
		 "properties": { 
			 "R2extent": 4056.8868, 
			 "electric_dipole_moment_norm": 6.35973366974, 
			 "electric_quadrupole_moment_norm": 14.9803721462, 
			 "total_energy": -1047.56808391, 
			 "HOMO_LUMO_gap": 0.18018, 
			 "cosmo_polarized_energy": -16.43, 
			 "cosmo_cavitation_energy": 32.18, 
			 "cosmo_dispersion_energy": -23.82, 
			 "cosmo_repulsion_energy": 1.82, 
			 "cosmo_total_nonelectrostatic_energy": 10.17, 
			 "SMD_solvation_energy": 2.24 
		},
		"coords": [
			{
				"x": 0.0571286596,
				"y": -1.75200812,
				"z": 2.3440471972,
				"element": "C" 
			},
			{
				"x": 0.1382886906,
				"y": -2.1885233352,
				"z": 0.9488860099,
				"element": "N" 
			},
			{
				"x": 1.4453786364,
				"y": -2.7064330091,
				"z": 0.540432754,
				"element": "C" 
			},
			{
				"x": -0.6634073591,
				"y": -1.2162904631,
				"z": -0.1833126226,
				"element": "S" 
			},
			{
				"x": -1.9720934777,
				"y": -0.9107925359,
				"z": 0.4012150886,
				"element": "O" 
			},
			{
				"x": -0.5302560806,
				"y": -1.9010446448,
				"z": -1.4712485982,
				"element": "O" 
			},
			{
				"x": 0.2587961821,
				"y": 0.3244469822,
				"z": -0.2840212409,
				"element": "C" 
			},
			{
				"x": -0.0941789212,
				"y": 1.3706353507,
				"z": 0.579759494,
				"element": "C" 
			},
			{
				"x": 0.6591918996,
				"y": 2.5417013118,
				"z": 0.5090813678,
				"element": "C" 
			},
			{
				"x": 1.7321804374,
				"y": 2.6608712323,
				"z": -0.3964414082,
				"element": "C" 
			},
			{
				"x": 2.3567405464,
				"y": 4.0275528662,
				"z": -0.209320097,
				"element": "C" 
			},
			{
				"x": 1.2616143571,
				"y": 4.7854851725,
				"z": 0.5819721116,
				"element": "C" 
			},
			{
				"x": 0.5266580055,
				"y": 3.7050477844,
				"z": 1.2676923275,
				"element": "N" 
			},
			{
				"x": 2.0617372223,
				"y": 1.6114146238,
				"z": -1.2397577512,
				"element": "C" 
			},
			{
				"x": 1.3171196021,
				"y": 0.4235646532,
				"z": -1.1902453339,
				"element": "C" 
			},
			{
				"x": 0.321551254,
				"y": -2.6020482635,
				"z": 2.9800984431,
				"element": "H" 
			},
			{
				"x": -0.9669110361,
				"y": -1.4560796544,
				"z": 2.5702106145,
				"element": "H" 
			},
			{
				"x": 0.7407261305,
				"y": -0.9193817682,
				"z": 2.5718000898,
				"element": "H" 
			},
			{
				"x": 2.2456812888,
				"y": -1.9541365402,
				"z": 0.6176546921,
				"element": "H" 
			},
			{
				"x": 1.6948617497,
				"y": -3.5477757461,
				"z": 1.193832238,
				"element": "H" 
			},
			{
				"x": 1.3844390937,
				"y": -3.0703855854,
				"z": -0.4848386953,
				"element": "H" 
			},
			{
				"x": -0.9472760098,
				"y": 1.2690641016,
				"z": 1.2412535295,
				"element": "H" 
			},
			{
				"x": 3.27606663,
				"y": 3.9470813797,
				"z": 0.3859375625,
				"element": "H" 
			},
			{
				"x": 2.6153512213,
				"y": 4.5287385306,
				"z": -1.1461488437,
				"element": "H" 
			},
			{
				"x": 1.672994772,
				"y": 5.4969529938,
				"z": 1.3031316357,
				"element": "H" 
			},
			{
				"x": 0.6071899668,
				"y": 5.3371786761,
				"z": -0.1102907903,
				"element": "H" 
			},
			{
				"x": -0.4002518806,
				"y": 3.9300136729,
				"z": 1.6052842539,
				"element": "H" 
			},
			{
				"x": 2.8785501003,
				"y": 1.7084935698,
				"z": -1.9499197436,
				"element": "H" 
			},
			{
				"x": 1.5264283188,
				"y": -0.3966432357,
				"z": -1.866444285,
				"element": "H" 
			}
		],
		 "valence_orbital": [ 
			{
				"type": "occ",
				"energy": -0.29127,
				"method": "rhf"
			},
			{
				"type": "occ",
				"energy": -0.29055,
				"method": "rhf"
			},
			{
				"type": "occ",
				"energy": -0.26548,
				"method": "rhf"
			},
			{
				"type": "occ",
				"energy": -0.2465,
				"method": "rhf"
			},
			{
				"type": "occ",
				"energy": -0.20912,
				"method": "rhf"
			},
			{
				"type": "unocc",
				"energy": -0.02894,
				"method": "rhf"
			},
			{
				"type": "unocc",
				"energy": -0.0023,
				"method": "rhf"
			},
			{
				"type": "unocc",
				"energy": 0.0705,
				"method": "rhf"
			},
			{
				"type": "unocc",
				"energy": 0.07776,
				"method": "rhf"
			},
			{
				"type": "unocc",
				"energy": 0.08831,
				"method": "rhf"
			}
		],
		"cosmo_sigma_profile": { 
			"-0.025": 0.0,
			"-0.024": 0.0,
			"-0.023": 0.0,
			"-0.022": 0.0,
			"-0.021": 0.0,
			"-0.02": 0.0,
			"-0.019": 0.0,
			"-0.018": 0.0,
			"-0.017": 0.0,
			"-0.016": 0.0,
			"-0.015": 0.0,
			"-0.014": 0.0,
			"-0.013": 0.904798617228,
			"-0.012": 1.35984298728,
			"-0.011": 1.44854386364,
			"-0.01": 1.59885863536,
			"-0.009": 1.31741477562,
			"-0.008": 1.79154672465,
			"-0.007": 2.43271693302,
			"-0.006": 9.60410555046,
			"-0.005": 16.1821933868,
			"-0.004": 29.1848510783,
			"-0.003": 34.248153284,
			"-0.002": 34.8414404402,
			"-0.001": 17.1096714995,
			"0.0": 8.55803854984,
			"0.001": 8.80103802088,
			"0.002": 9.91883214275,
			"0.003": 11.6358262074,
			"0.004": 13.6760475163,
			"0.005": 6.48670942756,
			"0.006": 5.22472888506,
			"0.007": 5.35951508488,
			"0.008": 5.0708688328,
			"0.009": 5.71253944787,
			"0.01": 5.63368537396,
			"0.011": 8.7223021149,
			"0.012": 6.49686391432,
			"0.013": 0.538714950453,
			"0.014": 0.0,
			"0.015": 0.0,
			"0.016": 0.0,
			"0.017": 0.0,
			"0.018": 0.0,
			"0.019": 0.0,
			"0.02": 0.0,
			"0.021": 0.0,
			"0.022": 0.0,
			"0.023": 0.0,
			"0.024": 0.0,
			"0.025": 0.0
		}
	}
}
