{
	 "smiles": "CC1=C(C)C(=O)C2=C(N1)C=CC(OC1=CC=CC=C1)=C2", 
	 "Tm": 563.15, 
	 "num_atms": 35, 
	 "gaussian": { 
		 "optdone": 1, 
		 "sigma_profile": "yes", 
		 "theory": "DFT", 
		 "functional": "B3LYP", 
		 "basiset": "6-31G**", 
		 "properties": { 
			 "R2extent": 7841.0156, 
			 "electric_dipole_moment_norm": 5.37743971607, 
			 "electric_quadrupole_moment_norm": 34.1274855082, 
			 "total_energy": -862.066250499, 
			 "HOMO_LUMO_gap": 0.15781, 
			 "cosmo_polarized_energy": -20.36, 
			 "cosmo_cavitation_energy": 38.69, 
			 "cosmo_dispersion_energy": -27.86, 
			 "cosmo_repulsion_energy": 2.11, 
			 "cosmo_total_nonelectrostatic_energy": 12.94, 
			 "SMD_solvation_energy": 6.95 
		},
		"coords": [
			{
				"x": 1.9802274417,
				"y": 0.4575293393,
				"z": -5.7171034722,
				"element": "C" 
			},
			{
				"x": 1.5444310859,
				"y": 0.5076795042,
				"z": -4.2761279764,
				"element": "C" 
			},
			{
				"x": 2.3589507318,
				"y": 0.1327125732,
				"z": -3.238692117,
				"element": "C" 
			},
			{
				"x": 3.7637444945,
				"y": -0.3607890358,
				"z": -3.4705541171,
				"element": "C" 
			},
			{
				"x": 1.8813733132,
				"y": 0.2032901855,
				"z": -1.8561867084,
				"element": "C" 
			},
			{
				"x": 2.576264896,
				"y": -0.1209575455,
				"z": -0.8845440993,
				"element": "O" 
			},
			{
				"x": 0.4937956771,
				"y": 0.6952897255,
				"z": -1.6774587261,
				"element": "C" 
			},
			{
				"x": -0.2872839129,
				"y": 1.0610593811,
				"z": -2.7896539487,
				"element": "C" 
			},
			{
				"x": 0.2651944036,
				"y": 0.9568008777,
				"z": -4.0539242823,
				"element": "N" 
			},
			{
				"x": -1.6042238684,
				"y": 1.522177045,
				"z": -2.6047684697,
				"element": "C" 
			},
			{
				"x": -2.1245574626,
				"y": 1.6209031992,
				"z": -1.3269048047,
				"element": "C" 
			},
			{
				"x": -1.3465248172,
				"y": 1.2541867141,
				"z": -0.2121167476,
				"element": "C" 
			},
			{
				"x": -1.9874453802,
				"y": 1.3205428939,
				"z": 1.0076150065,
				"element": "O" 
			},
			{
				"x": -1.2868970643,
				"y": 1.5796727678,
				"z": 2.1725222831,
				"element": "C" 
			},
			{
				"x": -1.6802480207,
				"y": 0.8695793958,
				"z": 3.3081999595,
				"element": "C" 
			},
			{
				"x": -1.0743272557,
				"y": 1.1440100483,
				"z": 4.5341407303,
				"element": "C" 
			},
			{
				"x": -0.0759713262,
				"y": 2.1158714622,
				"z": 4.6269539759,
				"element": "C" 
			},
			{
				"x": 0.3082539023,
				"y": 2.8197137236,
				"z": 3.4835363271,
				"element": "C" 
			},
			{
				"x": -0.2958608728,
				"y": 2.5621900809,
				"z": 2.2525796368,
				"element": "C" 
			},
			{
				"x": -0.0519230509,
				"y": 0.7897586731,
				"z": -0.3866552674,
				"element": "C" 
			},
			{
				"x": 1.1933428642,
				"y": 0.801318328,
				"z": -6.3955461979,
				"element": "H" 
			},
			{
				"x": 2.2530993528,
				"y": -0.5624223776,
				"z": -6.0071647479,
				"element": "H" 
			},
			{
				"x": 2.8630205285,
				"y": 1.0843161331,
				"z": -5.8800906309,
				"element": "H" 
			},
			{
				"x": 4.208716186,
				"y": -0.5969732755,
				"z": -2.5025475631,
				"element": "H" 
			},
			{
				"x": 3.7894708799,
				"y": -1.2647172285,
				"z": -4.091974871,
				"element": "H" 
			},
			{
				"x": 4.3922390673,
				"y": 0.3904535341,
				"z": -3.9651621811,
				"element": "H" 
			},
			{
				"x": -0.2997475629,
				"y": 1.2205697508,
				"z": -4.8470157036,
				"element": "H" 
			},
			{
				"x": -2.2082940032,
				"y": 1.804252819,
				"z": -3.4636598564,
				"element": "H" 
			},
			{
				"x": -3.13631194,
				"y": 1.9755386149,
				"z": -1.1608907016,
				"element": "H" 
			},
			{
				"x": -2.4558480956,
				"y": 0.1168711396,
				"z": 3.2130610851,
				"element": "H" 
			},
			{
				"x": -1.3809687137,
				"y": 0.590622149,
				"z": 5.4170779824,
				"element": "H" 
			},
			{
				"x": 0.3988371069,
				"y": 2.3231065516,
				"z": 5.5810266883,
				"element": "H" 
			},
			{
				"x": 1.0809399777,
				"y": 3.5805184429,
				"z": 3.5465524041,
				"element": "H" 
			},
			{
				"x": -0.0029241285,
				"y": 3.1126500072,
				"z": 1.3652841593,
				"element": "H" 
			},
			{
				"x": 0.5745555664,
				"y": 0.4894744024,
				"z": 0.445392952,
				"element": "H" 
			}
		],
		 "valence_orbital": [ 
			{
				"type": "occ",
				"energy": -0.2497,
				"method": "rhf"
			},
			{
				"type": "occ",
				"energy": -0.24804,
				"method": "rhf"
			},
			{
				"type": "occ",
				"energy": -0.22512,
				"method": "rhf"
			},
			{
				"type": "occ",
				"energy": -0.22213,
				"method": "rhf"
			},
			{
				"type": "occ",
				"energy": -0.19632,
				"method": "rhf"
			},
			{
				"type": "unocc",
				"energy": -0.03851,
				"method": "rhf"
			},
			{
				"type": "unocc",
				"energy": -0.00919,
				"method": "rhf"
			},
			{
				"type": "unocc",
				"energy": 0.0004,
				"method": "rhf"
			},
			{
				"type": "unocc",
				"energy": 0.00935,
				"method": "rhf"
			},
			{
				"type": "unocc",
				"energy": 0.02331,
				"method": "rhf"
			}
		],
		"cosmo_sigma_profile": { 
			"-0.025": 0.0,
			"-0.024": 0.0,
			"-0.023": 0.0,
			"-0.022": 0.0,
			"-0.021": 0.0,
			"-0.02": 0.0,
			"-0.019": 0.0,
			"-0.018": 0.0,
			"-0.017": 0.0163489029992,
			"-0.016": 0.923239251502,
			"-0.015": 1.85793477785,
			"-0.014": 1.10807646763,
			"-0.013": 1.59665520402,
			"-0.012": 2.075969687,
			"-0.011": 1.55355481595,
			"-0.01": 0.871085533928,
			"-0.009": 1.75409787816,
			"-0.008": 2.22454111978,
			"-0.007": 5.0701582902,
			"-0.006": 12.2393104224,
			"-0.005": 20.5095041444,
			"-0.004": 23.0181157953,
			"-0.003": 24.8217280366,
			"-0.002": 23.3670563155,
			"-0.001": 22.8847839652,
			"0.0": 20.4896131149,
			"0.001": 27.4831201564,
			"0.002": 24.7148099179,
			"0.003": 30.048579373,
			"0.004": 18.1638078737,
			"0.005": 12.821358271,
			"0.006": 5.1823236438,
			"0.007": 3.07770949475,
			"0.008": 2.97077366274,
			"0.009": 2.51632048148,
			"0.01": 2.14601993684,
			"0.011": 1.26059731782,
			"0.012": 1.71870891394,
			"0.013": 1.79367655111,
			"0.014": 2.63658049125,
			"0.015": 5.64885464435,
			"0.016": 0.192025086435,
			"0.017": 0.0,
			"0.018": 0.0,
			"0.019": 0.0,
			"0.02": 0.0,
			"0.021": 0.0,
			"0.022": 0.0,
			"0.023": 0.0,
			"0.024": 0.0,
			"0.025": 0.0
		}
	}
}
