{
	 "smiles": "CC(C)N1C(S)=NC2=C1C=CC=C2", 
	 "Tm": 412.15, 
	 "num_atms": 25, 
	 "gaussian": { 
		 "optdone": 1, 
		 "sigma_profile": "yes", 
		 "theory": "DFT", 
		 "functional": "B3LYP", 
		 "basiset": "6-31G**", 
		 "properties": { 
			 "R2extent": 3706.1095, 
			 "electric_dipole_moment_norm": 2.89633754421, 
			 "electric_quadrupole_moment_norm": 5.78391034509, 
			 "total_energy": -896.002694164, 
			 "HOMO_LUMO_gap": 0.19948, 
			 "cosmo_polarized_energy": -9.53, 
			 "cosmo_cavitation_energy": 28.94, 
			 "cosmo_dispersion_energy": -21.36, 
			 "cosmo_repulsion_energy": 1.63, 
			 "cosmo_total_nonelectrostatic_energy": 9.22, 
			 "SMD_solvation_energy": 2.79 
		},
		"coords": [
			{
				"x": 1.8063523598,
				"y": -0.662926472,
				"z": 0.6191408516,
				"element": "C" 
			},
			{
				"x": 0.5988931928,
				"y": -1.1969046512,
				"z": 1.4016046607,
				"element": "C" 
			},
			{
				"x": 0.1531099933,
				"y": -0.2669269699,
				"z": 2.5381989203,
				"element": "C" 
			},
			{
				"x": -0.5212764256,
				"y": -1.5216340337,
				"z": 0.5038723726,
				"element": "N" 
			},
			{
				"x": -1.0705776015,
				"y": -2.7720050357,
				"z": 0.2900697481,
				"element": "C" 
			},
			{
				"x": -0.4445871816,
				"y": -4.2078668158,
				"z": 1.1246794482,
				"element": "S" 
			},
			{
				"x": -2.0652312329,
				"y": -2.7971043625,
				"z": -0.5596351607,
				"element": "N" 
			},
			{
				"x": -2.2102734578,
				"y": -1.4755791637,
				"z": -0.9573046701,
				"element": "C" 
			},
			{
				"x": -1.2569047029,
				"y": -0.6539729525,
				"z": -0.3077566982,
				"element": "C" 
			},
			{
				"x": -1.1947599768,
				"y": 0.7237335364,
				"z": -0.5391549519,
				"element": "C" 
			},
			{
				"x": -2.1141909153,
				"y": 1.2596337586,
				"z": -1.4400427514,
				"element": "C" 
			},
			{
				"x": -3.0654615357,
				"y": 0.452147594,
				"z": -2.0905273491,
				"element": "C" 
			},
			{
				"x": -3.1248671979,
				"y": -0.9185927485,
				"z": -1.8582961453,
				"element": "C" 
			},
			{
				"x": 2.6508359015,
				"y": -0.5116035178,
				"z": 1.2984468005,
				"element": "H" 
			},
			{
				"x": 1.5860680852,
				"y": 0.2928084702,
				"z": 0.1365085801,
				"element": "H" 
			},
			{
				"x": 2.1094837328,
				"y": -1.3731435226,
				"z": -0.1549325433,
				"element": "H" 
			},
			{
				"x": 0.89357546,
				"y": -2.150143828,
				"z": 1.852265687,
				"element": "H" 
			},
			{
				"x": 0.981429472,
				"y": -0.1108010761,
				"z": 3.236075084,
				"element": "H" 
			},
			{
				"x": -0.6840186232,
				"y": -0.7043624376,
				"z": 3.0889725026,
				"element": "H" 
			},
			{
				"x": -0.160485461,
				"y": 0.7105078945,
				"z": 2.1624938185,
				"element": "H" 
			},
			{
				"x": -1.3376407794,
				"y": -5.0160756231,
				"z": 0.52546793,
				"element": "H" 
			},
			{
				"x": -0.4699888299,
				"y": 1.3633678679,
				"z": -0.0485504954,
				"element": "H" 
			},
			{
				"x": -2.0931288385,
				"y": 2.3263844777,
				"z": -1.6425152375,
				"element": "H" 
			},
			{
				"x": -3.7635909786,
				"y": 0.9099759158,
				"z": -2.7850631735,
				"element": "H" 
			},
			{
				"x": -3.8535644588,
				"y": -1.5521163043,
				"z": -2.3535172277,
				"element": "H" 
			}
		],
		 "valence_orbital": [ 
			{
				"type": "occ",
				"energy": -0.29556,
				"method": "rhf"
			},
			{
				"type": "occ",
				"energy": -0.27949,
				"method": "rhf"
			},
			{
				"type": "occ",
				"energy": -0.27132,
				"method": "rhf"
			},
			{
				"type": "occ",
				"energy": -0.2219,
				"method": "rhf"
			},
			{
				"type": "occ",
				"energy": -0.20984,
				"method": "rhf"
			},
			{
				"type": "unocc",
				"energy": -0.01036,
				"method": "rhf"
			},
			{
				"type": "unocc",
				"energy": 0.0078,
				"method": "rhf"
			},
			{
				"type": "unocc",
				"energy": 0.02297,
				"method": "rhf"
			},
			{
				"type": "unocc",
				"energy": 0.05513,
				"method": "rhf"
			},
			{
				"type": "unocc",
				"energy": 0.06296,
				"method": "rhf"
			}
		],
		"cosmo_sigma_profile": { 
			"-0.025": 0.0,
			"-0.024": 0.0,
			"-0.023": 0.0,
			"-0.022": 0.0,
			"-0.021": 0.0,
			"-0.02": 0.0,
			"-0.019": 0.0,
			"-0.018": 0.0,
			"-0.017": 0.0,
			"-0.016": 0.0,
			"-0.015": 0.0,
			"-0.014": 0.0,
			"-0.013": 0.0,
			"-0.012": 0.509114213534,
			"-0.011": 1.69059062396,
			"-0.01": 1.18440762512,
			"-0.009": 1.17294106899,
			"-0.008": 1.47941141399,
			"-0.007": 3.00071648574,
			"-0.006": 6.81784905456,
			"-0.005": 13.8556570789,
			"-0.004": 24.2386782787,
			"-0.003": 22.85989273,
			"-0.002": 20.1928226738,
			"-0.001": 19.7107310375,
			"0.0": 24.174749612,
			"0.001": 14.1864284553,
			"0.002": 12.393221634,
			"0.003": 11.8290746691,
			"0.004": 13.4099938501,
			"0.005": 13.1841801719,
			"0.006": 12.1010136106,
			"0.007": 4.6332849962,
			"0.008": 1.90766621489,
			"0.009": 1.18545747508,
			"0.01": 1.04857234201,
			"0.011": 0.89189625405,
			"0.012": 1.05551520143,
			"0.013": 0.746386811347,
			"0.014": 1.04810483817,
			"0.015": 0.825061865784,
			"0.016": 0.892233861408,
			"0.017": 0.180746521794,
			"0.018": 0.0,
			"0.019": 0.0,
			"0.02": 0.0,
			"0.021": 0.0,
			"0.022": 0.0,
			"0.023": 0.0,
			"0.024": 0.0,
			"0.025": 0.0
		}
	}
}
