{
	 "smiles": "NC1=NC2=C(C=CC(Cl)=C2)N1CCCN1C=CN=C1", 
	 "Tm": 503.15, 
	 "num_atms": 33, 
	 "gaussian": { 
		 "optdone": 1, 
		 "sigma_profile": "yes", 
		 "theory": "DFT", 
		 "functional": "B3LYP", 
		 "basiset": "6-31G**", 
		 "properties": { 
			 "R2extent": 7498.1201, 
			 "electric_dipole_moment_norm": 7.51219413887, 
			 "electric_quadrupole_moment_norm": 26.3265779996, 
			 "total_energy": -1237.7810591, 
			 "HOMO_LUMO_gap": 0.19807, 
			 "cosmo_polarized_energy": -25.27, 
			 "cosmo_cavitation_energy": 38.9, 
			 "cosmo_dispersion_energy": -27.14, 
			 "cosmo_repulsion_energy": 2.09, 
			 "cosmo_total_nonelectrostatic_energy": 13.84, 
			 "SMD_solvation_energy": 2.59 
		},
		"coords": [
			{
				"x": 2.241677246,
				"y": -1.0312232923,
				"z": -2.7714822576,
				"element": "N" 
			},
			{
				"x": 0.8910361006,
				"y": -0.8538440435,
				"z": -2.5071221548,
				"element": "C" 
			},
			{
				"x": 0.1216382368,
				"y": 0.0104566871,
				"z": -3.1250710196,
				"element": "N" 
			},
			{
				"x": -1.1045751775,
				"y": -0.0932173238,
				"z": -2.4838149785,
				"element": "C" 
			},
			{
				"x": -1.0479799424,
				"y": -1.067773643,
				"z": -1.4589744083,
				"element": "C" 
			},
			{
				"x": -2.1510273153,
				"y": -1.3887487827,
				"z": -0.6726019769,
				"element": "C" 
			},
			{
				"x": -3.3403486824,
				"y": -0.702278644,
				"z": -0.92614203,
				"element": "C" 
			},
			{
				"x": -3.3956905097,
				"y": 0.2651979781,
				"z": -1.9414315034,
				"element": "C" 
			},
			{
				"x": -4.9231237603,
				"y": 1.1012295192,
				"z": -2.2202990279,
				"element": "Cl" 
			},
			{
				"x": -2.2981816637,
				"y": 0.5893594447,
				"z": -2.7346583362,
				"element": "C" 
			},
			{
				"x": 0.2620317742,
				"y": -1.5491038743,
				"z": -1.4868245685,
				"element": "N" 
			},
			{
				"x": 0.8607501135,
				"y": -2.4594501412,
				"z": -0.5187757804,
				"element": "C" 
			},
			{
				"x": 1.1515529896,
				"y": -1.8149258348,
				"z": 0.8456461308,
				"element": "C" 
			},
			{
				"x": 2.1781622186,
				"y": -0.6738658924,
				"z": 0.7796282288,
				"element": "C" 
			},
			{
				"x": 2.4625181565,
				"y": -0.1082329562,
				"z": 2.0909995498,
				"element": "N" 
			},
			{
				"x": 3.2601066133,
				"y": -0.6594579544,
				"z": 3.0772596668,
				"element": "C" 
			},
			{
				"x": 3.1700569009,
				"y": 0.1966257011,
				"z": 4.1469802831,
				"element": "C" 
			},
			{
				"x": 2.3402665277,
				"y": 1.2552337208,
				"z": 3.854442397,
				"element": "N" 
			},
			{
				"x": 1.9344764366,
				"y": 1.0388968787,
				"z": 2.6216654584,
				"element": "C" 
			},
			{
				"x": 2.5082249417,
				"y": -0.4772358655,
				"z": -3.5771492296,
				"element": "H" 
			},
			{
				"x": 2.5301195265,
				"y": -1.996298352,
				"z": -2.8868284619,
				"element": "H" 
			},
			{
				"x": -2.1077432251,
				"y": -2.138180594,
				"z": 0.1115309128,
				"element": "H" 
			},
			{
				"x": -4.2271888869,
				"y": -0.9117751441,
				"z": -0.339571638,
				"element": "H" 
			},
			{
				"x": -2.3621183414,
				"y": 1.3370734117,
				"z": -3.5160413267,
				"element": "H" 
			},
			{
				"x": 0.1840374151,
				"y": -3.3107046896,
				"z": -0.3873137732,
				"element": "H" 
			},
			{
				"x": 1.7845238415,
				"y": -2.8568937654,
				"z": -0.9492322273,
				"element": "H" 
			},
			{
				"x": 1.5189993251,
				"y": -2.5978379287,
				"z": 1.5195834861,
				"element": "H" 
			},
			{
				"x": 0.2214615443,
				"y": -1.434109581,
				"z": 1.281042129,
				"element": "H" 
			},
			{
				"x": 1.8102868114,
				"y": 0.1339371653,
				"z": 0.1419294995,
				"element": "H" 
			},
			{
				"x": 3.1159258393,
				"y": -1.0242105452,
				"z": 0.3351893465,
				"element": "H" 
			},
			{
				"x": 3.8090543253,
				"y": -1.5759213415,
				"z": 2.9201931542,
				"element": "H" 
			},
			{
				"x": 3.6620032434,
				"y": 0.1137996771,
				"z": 5.1065257318,
				"element": "H" 
			},
			{
				"x": 1.2671673764,
				"y": 1.6725800057,
				"z": 2.051718724,
				"element": "H" 
			}
		],
		 "valence_orbital": [ 
			{
				"type": "occ",
				"energy": -0.26643,
				"method": "rhf"
			},
			{
				"type": "occ",
				"energy": -0.26035,
				"method": "rhf"
			},
			{
				"type": "occ",
				"energy": -0.22926,
				"method": "rhf"
			},
			{
				"type": "occ",
				"energy": -0.22487,
				"method": "rhf"
			},
			{
				"type": "occ",
				"energy": -0.21681,
				"method": "rhf"
			},
			{
				"type": "unocc",
				"energy": -0.01874,
				"method": "rhf"
			},
			{
				"type": "unocc",
				"energy": 0.00789,
				"method": "rhf"
			},
			{
				"type": "unocc",
				"energy": 0.02663,
				"method": "rhf"
			},
			{
				"type": "unocc",
				"energy": 0.03565,
				"method": "rhf"
			},
			{
				"type": "unocc",
				"energy": 0.04133,
				"method": "rhf"
			}
		],
		"cosmo_sigma_profile": { 
			"-0.025": 0.0,
			"-0.024": 0.0,
			"-0.023": 0.0,
			"-0.022": 0.0,
			"-0.021": 0.0,
			"-0.02": 0.0,
			"-0.019": 0.0,
			"-0.018": 0.0,
			"-0.017": 0.0,
			"-0.016": 0.0,
			"-0.015": 0.260767292299,
			"-0.014": 1.71463847826,
			"-0.013": 2.8801726427,
			"-0.012": 2.42945343803,
			"-0.011": 3.68538069539,
			"-0.01": 2.1546156084,
			"-0.009": 2.69992031816,
			"-0.008": 7.6148027019,
			"-0.007": 14.7959788813,
			"-0.006": 20.5101522025,
			"-0.005": 23.9665912579,
			"-0.004": 20.1669446499,
			"-0.003": 17.7851785039,
			"-0.002": 16.0833119771,
			"-0.001": 14.8990375284,
			"0.0": 14.293431724,
			"0.001": 14.8713155216,
			"0.002": 18.2329254228,
			"0.003": 20.6576983994,
			"0.004": 25.7468042859,
			"0.005": 23.0053835812,
			"0.006": 11.4183136704,
			"0.007": 5.05640330353,
			"0.008": 3.30852793984,
			"0.009": 3.52670058527,
			"0.01": 3.52492363592,
			"0.011": 2.32544467217,
			"0.012": 2.57150470143,
			"0.013": 1.92119498988,
			"0.014": 2.3869751137,
			"0.015": 2.38205488922,
			"0.016": 1.91118889121,
			"0.017": 1.67258813117,
			"0.018": 1.25622685339,
			"0.019": 0.275245700944,
			"0.02": 0.0,
			"0.021": 0.0,
			"0.022": 0.0,
			"0.023": 0.0,
			"0.024": 0.0,
			"0.025": 0.0
		}
	}
}
