{
	 "smiles": "CNCC1=CN=C(C=C1)C1=CC=CS1", 
	 "Tm": 339.15, 
	 "num_atms": 26, 
	 "gaussian": { 
		 "optdone": 1, 
		 "sigma_profile": "yes", 
		 "theory": "DFT", 
		 "functional": "B3LYP", 
		 "basiset": "6-31G**", 
		 "properties": { 
			 "R2extent": 5808.9816, 
			 "electric_dipole_moment_norm": 1.11845718738, 
			 "electric_quadrupole_moment_norm": 6.78072443549, 
			 "total_energy": -934.072293139, 
			 "HOMO_LUMO_gap": 0.1636, 
			 "cosmo_polarized_energy": -9.81, 
			 "cosmo_cavitation_energy": 31.12, 
			 "cosmo_dispersion_energy": -23.11, 
			 "cosmo_repulsion_energy": 1.76, 
			 "cosmo_total_nonelectrostatic_energy": 9.76, 
			 "SMD_solvation_energy": 1.67 
		},
		"coords": [
			{
				"x": 2.8656367244,
				"y": -1.2833530727,
				"z": -0.1657394822,
				"element": "C" 
			},
			{
				"x": 3.3958990761,
				"y": -0.2274874268,
				"z": -1.0232386518,
				"element": "N" 
			},
			{
				"x": 2.4491975097,
				"y": 0.282046011,
				"z": -2.0224496157,
				"element": "C" 
			},
			{
				"x": 1.2097642612,
				"y": 0.9724538114,
				"z": -1.4796283907,
				"element": "C" 
			},
			{
				"x": -0.0183399833,
				"y": 0.3081134886,
				"z": -1.3582270983,
				"element": "C" 
			},
			{
				"x": -1.129167557,
				"y": 0.8447817202,
				"z": -0.8522519092,
				"element": "N" 
			},
			{
				"x": -1.0847948619,
				"y": 2.1218850202,
				"z": -0.4238267369,
				"element": "C" 
			},
			{
				"x": 0.0951602549,
				"y": 2.8833378379,
				"z": -0.5072260013,
				"element": "C" 
			},
			{
				"x": 1.2396190637,
				"y": 2.3001138859,
				"z": -1.0357557328,
				"element": "C" 
			},
			{
				"x": -2.3370502106,
				"y": 2.6572286221,
				"z": 0.1230519424,
				"element": "C" 
			},
			{
				"x": -3.5395341319,
				"y": 1.9965449135,
				"z": 0.2322281435,
				"element": "C" 
			},
			{
				"x": -4.5709354162,
				"y": 2.7891467972,
				"z": 0.8086599369,
				"element": "C" 
			},
			{
				"x": -4.151271569,
				"y": 4.0504540172,
				"z": 1.1366525522,
				"element": "C" 
			},
			{
				"x": -2.4804400998,
				"y": 4.2897753118,
				"z": 0.7444345134,
				"element": "S" 
			},
			{
				"x": 1.958348039,
				"y": -1.0156231977,
				"z": 0.4013197962,
				"element": "H" 
			},
			{
				"x": 3.6374687257,
				"y": -1.5844909524,
				"z": 0.5489823497,
				"element": "H" 
			},
			{
				"x": 2.6259016865,
				"y": -2.1590214829,
				"z": -0.780345691,
				"element": "H" 
			},
			{
				"x": 3.723435497,
				"y": 0.5448165211,
				"z": -0.4479160371,
				"element": "H" 
			},
			{
				"x": 2.9973293515,
				"y": 0.9780640273,
				"z": -2.6688250811,
				"element": "H" 
			},
			{
				"x": 2.1478638311,
				"y": -0.5640720682,
				"z": -2.6524389339,
				"element": "H" 
			},
			{
				"x": -0.1063595749,
				"y": -0.7232015002,
				"z": -1.7013846094,
				"element": "H" 
			},
			{
				"x": 0.1122518451,
				"y": 3.9152746753,
				"z": -0.1702708947,
				"element": "H" 
			},
			{
				"x": 2.1571800192,
				"y": 2.8804214556,
				"z": -1.111858712,
				"element": "H" 
			},
			{
				"x": -3.6532931666,
				"y": 0.9723777456,
				"z": -0.0992298545,
				"element": "H" 
			},
			{
				"x": -5.5831794995,
				"y": 2.4373987626,
				"z": 0.9728082783,
				"element": "H" 
			},
			{
				"x": -4.7189898145,
				"y": 4.8544150765,
				"z": 1.5842759201,
				"element": "H" 
			}
		],
		 "valence_orbital": [ 
			{
				"type": "occ",
				"energy": -0.2782,
				"method": "rhf"
			},
			{
				"type": "occ",
				"energy": -0.2576,
				"method": "rhf"
			},
			{
				"type": "occ",
				"energy": -0.25096,
				"method": "rhf"
			},
			{
				"type": "occ",
				"energy": -0.22428,
				"method": "rhf"
			},
			{
				"type": "occ",
				"energy": -0.21206,
				"method": "rhf"
			},
			{
				"type": "unocc",
				"energy": -0.04846,
				"method": "rhf"
			},
			{
				"type": "unocc",
				"energy": -0.02178,
				"method": "rhf"
			},
			{
				"type": "unocc",
				"energy": 0.02278,
				"method": "rhf"
			},
			{
				"type": "unocc",
				"energy": 0.03008,
				"method": "rhf"
			},
			{
				"type": "unocc",
				"energy": 0.07468,
				"method": "rhf"
			}
		],
		"cosmo_sigma_profile": { 
			"-0.025": 0.0,
			"-0.024": 0.0,
			"-0.023": 0.0,
			"-0.022": 0.0,
			"-0.021": 0.0,
			"-0.02": 0.0,
			"-0.019": 0.0,
			"-0.018": 0.0,
			"-0.017": 0.0,
			"-0.016": 0.0,
			"-0.015": 0.0,
			"-0.014": 0.0,
			"-0.013": 0.0,
			"-0.012": 0.0,
			"-0.011": 0.0,
			"-0.01": 0.43078307918,
			"-0.009": 2.25099155962,
			"-0.008": 3.87327485739,
			"-0.007": 7.41257621864,
			"-0.006": 11.9768815852,
			"-0.005": 16.0383074051,
			"-0.004": 19.3433748473,
			"-0.003": 19.1466660337,
			"-0.002": 17.5855360675,
			"-0.001": 21.1960888007,
			"0.0": 22.5176772517,
			"0.001": 16.4084201684,
			"0.002": 21.3723957151,
			"0.003": 19.5875504354,
			"0.004": 18.4306334929,
			"0.005": 12.1760278732,
			"0.006": 3.32727041125,
			"0.007": 2.80429593716,
			"0.008": 2.06007298304,
			"0.009": 2.37560918798,
			"0.01": 2.09813598091,
			"0.011": 1.45509729403,
			"0.012": 2.1307645792,
			"0.013": 1.16902761323,
			"0.014": 0.466919864002,
			"0.015": 0.448695937723,
			"0.016": 0.777121964957,
			"0.017": 0.430871901624,
			"0.018": 0.448610907693,
			"0.019": 0.0,
			"0.02": 0.0,
			"0.021": 0.0,
			"0.022": 0.0,
			"0.023": 0.0,
			"0.024": 0.0,
			"0.025": 0.0
		}
	}
}
