{
	 "smiles": "COC(=O)C(CC(O)=O)CC1=CC=C2C=CC=CC2=C1", 
	 "Tm": 337.85, 
	 "num_atms": 36, 
	 "gaussian": { 
		 "optdone": 1, 
		 "sigma_profile": "yes", 
		 "theory": "DFT", 
		 "functional": "B3LYP", 
		 "basiset": "6-31G**", 
		 "properties": { 
			 "R2extent": 6542.905, 
			 "electric_dipole_moment_norm": 3.40146993078, 
			 "electric_quadrupole_moment_norm": 21.1799167812, 
			 "total_energy": -920.277835911, 
			 "HOMO_LUMO_gap": 0.17567, 
			 "cosmo_polarized_energy": -18.66, 
			 "cosmo_cavitation_energy": 39.79, 
			 "cosmo_dispersion_energy": -27.07, 
			 "cosmo_repulsion_energy": 2.08, 
			 "cosmo_total_nonelectrostatic_energy": 14.8, 
			 "SMD_solvation_energy": 8.6 
		},
		"coords": [
			{
				"x": -2.9758514332,
				"y": -0.1790377978,
				"z": 3.5010397431,
				"element": "C" 
			},
			{
				"x": -2.495122877,
				"y": -0.9739106471,
				"z": 2.4027081319,
				"element": "O" 
			},
			{
				"x": -1.1668383151,
				"y": -1.2273299996,
				"z": 2.4100365526,
				"element": "C" 
			},
			{
				"x": -0.4196504076,
				"y": -0.8068498964,
				"z": 3.2685495271,
				"element": "O" 
			},
			{
				"x": -0.7634423503,
				"y": -2.1363805854,
				"z": 1.2545339837,
				"element": "C" 
			},
			{
				"x": 0.7550004199,
				"y": -2.3342902007,
				"z": 1.2593578754,
				"element": "C" 
			},
			{
				"x": 1.1944100421,
				"y": -3.5647576193,
				"z": 0.4817201026,
				"element": "C" 
			},
			{
				"x": 2.5389717829,
				"y": -3.7074745417,
				"z": 0.3421898416,
				"element": "O" 
			},
			{
				"x": 0.4509837902,
				"y": -4.3932190398,
				"z": 0.0137633842,
				"element": "O" 
			},
			{
				"x": -1.3288228101,
				"y": -1.6846398019,
				"z": -0.1247703692,
				"element": "C" 
			},
			{
				"x": -0.7527394184,
				"y": -0.3938851302,
				"z": -0.668114748,
				"element": "C" 
			},
			{
				"x": -1.2274777223,
				"y": 0.8652324816,
				"z": -0.200074185,
				"element": "C" 
			},
			{
				"x": -0.7047902716,
				"y": 2.0451689795,
				"z": -0.6751255954,
				"element": "C" 
			},
			{
				"x": 0.3269716972,
				"y": 2.0491622044,
				"z": -1.652196816,
				"element": "C" 
			},
			{
				"x": 0.889899599,
				"y": 3.2483015002,
				"z": -2.1652152448,
				"element": "C" 
			},
			{
				"x": 1.8836022689,
				"y": 3.2088813803,
				"z": -3.1177391263,
				"element": "C" 
			},
			{
				"x": 2.3586936398,
				"y": 1.9652605684,
				"z": -3.6028115762,
				"element": "C" 
			},
			{
				"x": 1.8323601605,
				"y": 0.7854674694,
				"z": -3.1260090229,
				"element": "C" 
			},
			{
				"x": 0.8079086898,
				"y": 0.7915888071,
				"z": -2.1408549417,
				"element": "C" 
			},
			{
				"x": 0.2435601243,
				"y": -0.4069779204,
				"z": -1.6262033691,
				"element": "C" 
			},
			{
				"x": -2.7717016621,
				"y": -0.6765330309,
				"z": 4.452210853,
				"element": "H" 
			},
			{
				"x": -4.0495075632,
				"y": -0.0790764718,
				"z": 3.3432070266,
				"element": "H" 
			},
			{
				"x": -2.4938569854,
				"y": 0.8016226118,
				"z": 3.5063109031,
				"element": "H" 
			},
			{
				"x": -1.2288495546,
				"y": -3.109176806,
				"z": 1.4608747746,
				"element": "H" 
			},
			{
				"x": 1.1094908648,
				"y": -2.4296838335,
				"z": 2.2924201869,
				"element": "H" 
			},
			{
				"x": 1.2561847752,
				"y": -1.4487631523,
				"z": 0.8496420161,
				"element": "H" 
			},
			{
				"x": 2.9985878164,
				"y": -2.9704553941,
				"z": 0.769831761,
				"element": "H" 
			},
			{
				"x": -1.1299914559,
				"y": -2.5006537955,
				"z": -0.8243138376,
				"element": "H" 
			},
			{
				"x": -2.414961313,
				"y": -1.5987000066,
				"z": -0.0285551528,
				"element": "H" 
			},
			{
				"x": -2.0272191975,
				"y": 0.8840707278,
				"z": 0.5344073172,
				"element": "H" 
			},
			{
				"x": -1.0834823377,
				"y": 2.9968806774,
				"z": -0.3104891665,
				"element": "H" 
			},
			{
				"x": 0.5216113974,
				"y": 4.2007048683,
				"z": -1.7921448794,
				"element": "H" 
			},
			{
				"x": 2.3068440265,
				"y": 4.1322649377,
				"z": -3.5024222776,
				"element": "H" 
			},
			{
				"x": 3.1413889401,
				"y": 1.9467478786,
				"z": -4.3557489508,
				"element": "H" 
			},
			{
				"x": 2.1943614518,
				"y": -0.1694859837,
				"z": -3.4987712879,
				"element": "H" 
			},
			{
				"x": 0.6058741884,
				"y": -1.3570734378,
				"z": -2.0143434335,
				"element": "H" 
			}
		],
		 "valence_orbital": [ 
			{
				"type": "occ",
				"energy": -0.28604,
				"method": "rhf"
			},
			{
				"type": "occ",
				"energy": -0.27963,
				"method": "rhf"
			},
			{
				"type": "occ",
				"energy": -0.27364,
				"method": "rhf"
			},
			{
				"type": "occ",
				"energy": -0.24198,
				"method": "rhf"
			},
			{
				"type": "occ",
				"energy": -0.21694,
				"method": "rhf"
			},
			{
				"type": "unocc",
				"energy": -0.04127,
				"method": "rhf"
			},
			{
				"type": "unocc",
				"energy": -0.01476,
				"method": "rhf"
			},
			{
				"type": "unocc",
				"energy": 0.00207,
				"method": "rhf"
			},
			{
				"type": "unocc",
				"energy": 0.01091,
				"method": "rhf"
			},
			{
				"type": "unocc",
				"energy": 0.02969,
				"method": "rhf"
			}
		],
		"cosmo_sigma_profile": { 
			"-0.025": 0.0,
			"-0.024": 0.0,
			"-0.023": 0.0,
			"-0.022": 0.0,
			"-0.021": 0.0,
			"-0.02": 0.0,
			"-0.019": 0.748101128747,
			"-0.018": 1.13283562644,
			"-0.017": 1.26034603605,
			"-0.016": 1.23529292805,
			"-0.015": 0.777871698738,
			"-0.014": 1.02152821232,
			"-0.013": 0.64550914668,
			"-0.012": 1.438977332,
			"-0.011": 1.25438457677,
			"-0.01": 1.06507759547,
			"-0.009": 1.28044354853,
			"-0.008": 1.94665527541,
			"-0.007": 3.35241835291,
			"-0.006": 16.9881794548,
			"-0.005": 27.6539696637,
			"-0.004": 31.2806401684,
			"-0.003": 29.1019982577,
			"-0.002": 22.014130012,
			"-0.001": 18.0373312398,
			"0.0": 15.6699790729,
			"0.001": 14.5974433713,
			"0.002": 15.8240809842,
			"0.003": 16.4766807528,
			"0.004": 26.0783429913,
			"0.005": 20.384866057,
			"0.006": 7.03141660319,
			"0.007": 4.03754926582,
			"0.008": 4.66732992171,
			"0.009": 5.09662585508,
			"0.01": 6.24363237372,
			"0.011": 8.95290273779,
			"0.012": 6.67008590489,
			"0.013": 1.4761410607,
			"0.014": 0.0,
			"0.015": 0.0,
			"0.016": 0.0,
			"0.017": 0.0,
			"0.018": 0.0,
			"0.019": 0.0,
			"0.02": 0.0,
			"0.021": 0.0,
			"0.022": 0.0,
			"0.023": 0.0,
			"0.024": 0.0,
			"0.025": 0.0
		}
	}
}
