{
	 "smiles": "O=C1CCCN1C1CCCCC1", 
	 "Tm": 286.15, 
	 "num_atms": 29, 
	 "gaussian": { 
		 "optdone": 1, 
		 "sigma_profile": "yes", 
		 "theory": "DFT", 
		 "functional": "B3LYP", 
		 "basiset": "6-31G**", 
		 "properties": { 
			 "R2extent": 3018.1106, 
			 "electric_dipole_moment_norm": 3.56688832738, 
			 "electric_quadrupole_moment_norm": 17.1966370395, 
			 "total_energy": -521.318937977, 
			 "HOMO_LUMO_gap": 0.26187, 
			 "cosmo_polarized_energy": -8.95, 
			 "cosmo_cavitation_energy": 27.91, 
			 "cosmo_dispersion_energy": -20.8, 
			 "cosmo_repulsion_energy": 1.66, 
			 "cosmo_total_nonelectrostatic_energy": 8.77, 
			 "SMD_solvation_energy": 3.98 
		},
		"coords": [
			{
				"x": -0.4703050451,
				"y": 4.1440848727,
				"z": 0.7812678978,
				"element": "O" 
			},
			{
				"x": -0.4751308584,
				"y": 3.5026159256,
				"z": -0.2601293355,
				"element": "C" 
			},
			{
				"x": -0.8730724178,
				"y": 4.0271723589,
				"z": -1.6401519009,
				"element": "C" 
			},
			{
				"x": -0.9039155804,
				"y": 2.7725325122,
				"z": -2.5203586963,
				"element": "C" 
			},
			{
				"x": 0.0706544972,
				"y": 1.8174289605,
				"z": -1.8061511607,
				"element": "C" 
			},
			{
				"x": -0.0761626289,
				"y": 2.1883952287,
				"z": -0.39439241,
				"element": "N" 
			},
			{
				"x": 0.6138425963,
				"y": 1.5283159637,
				"z": 0.7376891785,
				"element": "C" 
			},
			{
				"x": -0.3509324955,
				"y": 1.3014518699,
				"z": 1.923218434,
				"element": "C" 
			},
			{
				"x": -1.3417001447,
				"y": 0.1570829924,
				"z": 1.6765874775,
				"element": "C" 
			},
			{
				"x": -0.6055226642,
				"y": -1.1551102625,
				"z": 1.3729709061,
				"element": "C" 
			},
			{
				"x": 0.3328654938,
				"y": -0.9887526725,
				"z": 0.1691459248,
				"element": "C" 
			},
			{
				"x": 1.2944951274,
				"y": 0.201549187,
				"z": 0.3462636863,
				"element": "C" 
			},
			{
				"x": -0.1011101544,
				"y": 4.7381557898,
				"z": -1.9603360898,
				"element": "H" 
			},
			{
				"x": -1.8163014384,
				"y": 4.5754916024,
				"z": -1.5870616178,
				"element": "H" 
			},
			{
				"x": -1.9077619323,
				"y": 2.3355849504,
				"z": -2.5199522471,
				"element": "H" 
			},
			{
				"x": -0.6154133111,
				"y": 2.9517520292,
				"z": -3.5590794629,
				"element": "H" 
			},
			{
				"x": 1.1031595586,
				"y": 1.9755410461,
				"z": -2.1555835478,
				"element": "H" 
			},
			{
				"x": -0.1792534312,
				"y": 0.7687390873,
				"z": -1.9778082606,
				"element": "H" 
			},
			{
				"x": 1.3916915446,
				"y": 2.2270035414,
				"z": 1.076113432,
				"element": "H" 
			},
			{
				"x": -0.8642840376,
				"y": 2.2385206298,
				"z": 2.1447617497,
				"element": "H" 
			},
			{
				"x": 0.2651335479,
				"y": 1.0611671986,
				"z": 2.801227138,
				"element": "H" 
			},
			{
				"x": -1.9941715675,
				"y": 0.0367749453,
				"z": 2.5493272057,
				"element": "H" 
			},
			{
				"x": -1.9952868562,
				"y": 0.4154756741,
				"z": 0.8321426994,
				"element": "H" 
			},
			{
				"x": -1.3179233649,
				"y": -1.9672906654,
				"z": 1.1846452701,
				"element": "H" 
			},
			{
				"x": -0.0189052701,
				"y": -1.4515617446,
				"z": 2.2544561831,
				"element": "H" 
			},
			{
				"x": 0.9180572229,
				"y": -1.9024157174,
				"z": 0.0088838524,
				"element": "H" 
			},
			{
				"x": -0.2759226041,
				"y": -0.8555641169,
				"z": -0.7343087735,
				"element": "H" 
			},
			{
				"x": 1.9172235977,
				"y": 0.3314724265,
				"z": -0.5461814621,
				"element": "H" 
			},
			{
				"x": 1.9887526165,
				"y": -0.0357136131,
				"z": 1.1627939294,
				"element": "H" 
			}
		],
		 "valence_orbital": [ 
			{
				"type": "occ",
				"energy": -0.31768,
				"method": "rhf"
			},
			{
				"type": "occ",
				"energy": -0.3036,
				"method": "rhf"
			},
			{
				"type": "occ",
				"energy": -0.29824,
				"method": "rhf"
			},
			{
				"type": "occ",
				"energy": -0.23768,
				"method": "rhf"
			},
			{
				"type": "occ",
				"energy": -0.23027,
				"method": "rhf"
			},
			{
				"type": "unocc",
				"energy": 0.0316,
				"method": "rhf"
			},
			{
				"type": "unocc",
				"energy": 0.07299,
				"method": "rhf"
			},
			{
				"type": "unocc",
				"energy": 0.09073,
				"method": "rhf"
			},
			{
				"type": "unocc",
				"energy": 0.10845,
				"method": "rhf"
			},
			{
				"type": "unocc",
				"energy": 0.11002,
				"method": "rhf"
			}
		],
		"cosmo_sigma_profile": { 
			"-0.025": 0.0,
			"-0.024": 0.0,
			"-0.023": 0.0,
			"-0.022": 0.0,
			"-0.021": 0.0,
			"-0.02": 0.0,
			"-0.019": 0.0,
			"-0.018": 0.0,
			"-0.017": 0.0,
			"-0.016": 0.0,
			"-0.015": 0.0,
			"-0.014": 0.0,
			"-0.013": 0.0,
			"-0.012": 0.0,
			"-0.011": 0.0,
			"-0.01": 0.0,
			"-0.009": 0.0,
			"-0.008": 0.0,
			"-0.007": 0.0,
			"-0.006": 0.243081490993,
			"-0.005": 6.06860348428,
			"-0.004": 16.0478714209,
			"-0.003": 30.8307152742,
			"-0.002": 39.0425401708,
			"-0.001": 34.3152926999,
			"0.0": 31.4094441999,
			"0.001": 21.6409906822,
			"0.002": 7.59803802021,
			"0.003": 3.26747070234,
			"0.004": 2.18040588102,
			"0.005": 2.20010244028,
			"0.006": 1.50391033866,
			"0.007": 1.55528483677,
			"0.008": 1.294465649,
			"0.009": 1.81996506435,
			"0.01": 1.02516879819,
			"0.011": 1.91330343394,
			"0.012": 1.76288834109,
			"0.013": 2.39052655164,
			"0.014": 4.71752203986,
			"0.015": 2.46772744645,
			"0.016": 0.193135253969,
			"0.017": 0.0,
			"0.018": 0.0,
			"0.019": 0.0,
			"0.02": 0.0,
			"0.021": 0.0,
			"0.022": 0.0,
			"0.023": 0.0,
			"0.024": 0.0,
			"0.025": 0.0
		}
	}
}
