{
	 "smiles": "ClC(Cl)(Cl)Br", 
	 "Tm": 267.3, 
	 "num_atms": 5, 
	 "gaussian": { 
		 "optdone": 1, 
		 "sigma_profile": "yes", 
		 "theory": "DFT", 
		 "functional": "B3LYP", 
		 "basiset": "6-31G**", 
		 "properties": { 
			 "R2extent": 2193.2949, 
			 "electric_dipole_moment_norm": 0.177340660876, 
			 "electric_quadrupole_moment_norm": 1.0671729663, 
			 "total_energy": -3990.05048633, 
			 "HOMO_LUMO_gap": 0.21769, 
			 "cosmo_polarized_energy": -1.49, 
			 "cosmo_cavitation_energy": 16.72, 
			 "cosmo_dispersion_energy": -13.29, 
			 "cosmo_repulsion_energy": 1.15, 
			 "cosmo_total_nonelectrostatic_energy": 4.59, 
			 "SMD_solvation_energy": 0.81 
		},
		"coords": [
			{
				"x": -2.166186441,
				"y": -1.6822307083,
				"z": -0.0967925273,
				"element": "Cl" 
			},
			{
				"x": -0.4104058895,
				"y": -1.4714807966,
				"z": 0.1635683155,
				"element": "C" 
			},
			{
				"x": 0.4893656719,
				"y": -2.1000826958,
				"z": -1.2471679603,
				"element": "Cl" 
			},
			{
				"x": -0.0375927213,
				"y": 0.261295179,
				"z": 0.394755952,
				"element": "Cl" 
			},
			{
				"x": 0.1310193798,
				"y": -2.4726009783,
				"z": 1.77713622,
				"element": "Br" 
			}
		],
		 "valence_orbital": [ 
			{
				"type": "occ",
				"energy": -0.34854,
				"method": "rhf"
			},
			{
				"type": "occ",
				"energy": -0.34411,
				"method": "rhf"
			},
			{
				"type": "occ",
				"energy": -0.32352,
				"method": "rhf"
			},
			{
				"type": "occ",
				"energy": -0.30498,
				"method": "rhf"
			},
			{
				"type": "occ",
				"energy": -0.30498,
				"method": "rhf"
			},
			{
				"type": "unocc",
				"energy": -0.08729,
				"method": "rhf"
			},
			{
				"type": "unocc",
				"energy": -0.03352,
				"method": "rhf"
			},
			{
				"type": "unocc",
				"energy": -0.01479,
				"method": "rhf"
			},
			{
				"type": "unocc",
				"energy": -0.01478,
				"method": "rhf"
			},
			{
				"type": "unocc",
				"energy": 0.26646,
				"method": "rhf"
			}
		],
		"cosmo_sigma_profile": { 
			"-0.025": 0.0,
			"-0.024": 0.0,
			"-0.023": 0.0,
			"-0.022": 0.0,
			"-0.021": 0.0,
			"-0.02": 0.0,
			"-0.019": 0.0,
			"-0.018": 0.0,
			"-0.017": 0.0,
			"-0.016": 0.0,
			"-0.015": 0.0,
			"-0.014": 0.0,
			"-0.013": 0.0,
			"-0.012": 0.0,
			"-0.011": 0.0,
			"-0.01": 0.0,
			"-0.009": 0.0,
			"-0.008": 0.340915329473,
			"-0.007": 1.21670984383,
			"-0.006": 1.97279476144,
			"-0.005": 5.50552251467,
			"-0.004": 6.97809389306,
			"-0.003": 9.25464978737,
			"-0.002": 10.2346404897,
			"-0.001": 12.5981593776,
			"0.0": 16.2850025426,
			"0.001": 28.1256865928,
			"0.002": 46.3263726085,
			"0.003": 5.40709925594,
			"0.004": 0.0,
			"0.005": 0.0,
			"0.006": 0.0,
			"0.007": 0.0,
			"0.008": 0.0,
			"0.009": 0.0,
			"0.01": 0.0,
			"0.011": 0.0,
			"0.012": 0.0,
			"0.013": 0.0,
			"0.014": 0.0,
			"0.015": 0.0,
			"0.016": 0.0,
			"0.017": 0.0,
			"0.018": 0.0,
			"0.019": 0.0,
			"0.02": 0.0,
			"0.021": 0.0,
			"0.022": 0.0,
			"0.023": 0.0,
			"0.024": 0.0,
			"0.025": 0.0
		}
	}
}
