{
	 "smiles": "COC1=C(Cl)C(Cl)=C(Cl)C(Cl)=C1", 
	 "Tm": 359.15, 
	 "num_atms": 16, 
	 "gaussian": { 
		 "optdone": 1, 
		 "sigma_profile": "yes", 
		 "theory": "DFT", 
		 "functional": "B3LYP", 
		 "basiset": "6-31G**", 
		 "properties": { 
			 "R2extent": 3787.8111, 
			 "electric_dipole_moment_norm": 2.75188041891, 
			 "electric_quadrupole_moment_norm": 7.01778886117, 
			 "total_energy": -2185.11392014, 
			 "HOMO_LUMO_gap": 0.21005, 
			 "cosmo_polarized_energy": -5.2, 
			 "cosmo_cavitation_energy": 27.31, 
			 "cosmo_dispersion_energy": -20.48, 
			 "cosmo_repulsion_energy": 1.63, 
			 "cosmo_total_nonelectrostatic_energy": 8.46, 
			 "SMD_solvation_energy": 4.54 
		},
		"coords": [
			{
				"x": 1.2497993929,
				"y": 1.4888105132,
				"z": -2.5103464239,
				"element": "C" 
			},
			{
				"x": 1.4083830092,
				"y": 1.2950016374,
				"z": -1.0979920441,
				"element": "O" 
			},
			{
				"x": 0.373275121,
				"y": 0.6583316955,
				"z": -0.4762570535,
				"element": "C" 
			},
			{
				"x": 0.3478367411,
				"y": -0.7420607701,
				"z": -0.3612414574,
				"element": "C" 
			},
			{
				"x": 1.6394232044,
				"y": -1.6632621936,
				"z": -1.0729015272,
				"element": "Cl" 
			},
			{
				"x": -0.6977196922,
				"y": -1.3695939018,
				"z": 0.3350229763,
				"element": "C" 
			},
			{
				"x": -0.7228085132,
				"y": -3.0998227591,
				"z": 0.4818943382,
				"element": "Cl" 
			},
			{
				"x": -1.7250962018,
				"y": -0.5999298502,
				"z": 0.9153429893,
				"element": "C" 
			},
			{
				"x": -3.0219419486,
				"y": -1.3686901321,
				"z": 1.7761996364,
				"element": "Cl" 
			},
			{
				"x": -1.6817616915,
				"y": 0.7969260342,
				"z": 0.791773151,
				"element": "C" 
			},
			{
				"x": -2.9201172809,
				"y": 1.8035776149,
				"z": 1.4951322111,
				"element": "Cl" 
			},
			{
				"x": -0.643146372,
				"y": 1.4150979996,
				"z": 0.1017825498,
				"element": "C" 
			},
			{
				"x": 0.3606354591,
				"y": 2.0940246746,
				"z": -2.7249966947,
				"element": "H" 
			},
			{
				"x": 2.1421802989,
				"y": 2.020014066,
				"z": -2.8439225714,
				"element": "H" 
			},
			{
				"x": 1.1767340905,
				"y": 0.5313424855,
				"z": -3.0372328271,
				"element": "H" 
			},
			{
				"x": -0.6052756169,
				"y": 2.4946328859,
				"z": 0.0197427473,
				"element": "H" 
			}
		],
		 "valence_orbital": [ 
			{
				"type": "occ",
				"energy": -0.32049,
				"method": "rhf"
			},
			{
				"type": "occ",
				"energy": -0.31042,
				"method": "rhf"
			},
			{
				"type": "occ",
				"energy": -0.29674,
				"method": "rhf"
			},
			{
				"type": "occ",
				"energy": -0.26377,
				"method": "rhf"
			},
			{
				"type": "occ",
				"energy": -0.25422,
				"method": "rhf"
			},
			{
				"type": "unocc",
				"energy": -0.04417,
				"method": "rhf"
			},
			{
				"type": "unocc",
				"energy": -0.03926,
				"method": "rhf"
			},
			{
				"type": "unocc",
				"energy": -0.03484,
				"method": "rhf"
			},
			{
				"type": "unocc",
				"energy": 0.02134,
				"method": "rhf"
			},
			{
				"type": "unocc",
				"energy": 0.05353,
				"method": "rhf"
			}
		],
		"cosmo_sigma_profile": { 
			"-0.025": 0.0,
			"-0.024": 0.0,
			"-0.023": 0.0,
			"-0.022": 0.0,
			"-0.021": 0.0,
			"-0.02": 0.0,
			"-0.019": 0.0,
			"-0.018": 0.0,
			"-0.017": 0.0,
			"-0.016": 0.0,
			"-0.015": 0.0,
			"-0.014": 0.0,
			"-0.013": 0.0,
			"-0.012": 0.0,
			"-0.011": 0.0,
			"-0.01": 0.0983705739942,
			"-0.009": 1.18845933882,
			"-0.008": 1.05616916335,
			"-0.007": 1.91473089018,
			"-0.006": 5.3151797939,
			"-0.005": 9.74800864676,
			"-0.004": 15.8681821666,
			"-0.003": 17.453688216,
			"-0.002": 24.2095583165,
			"-0.001": 30.3028108708,
			"0.0": 19.2409775298,
			"0.001": 17.8935320209,
			"0.002": 21.7087667923,
			"0.003": 32.9030519211,
			"0.004": 18.2027183922,
			"0.005": 3.45123670974,
			"0.006": 1.62650838665,
			"0.007": 1.44718203737,
			"0.008": 1.22651794353,
			"0.009": 1.50125137149,
			"0.01": 1.53645103514,
			"0.011": 0.16559014792,
			"0.012": 0.0,
			"0.013": 0.0,
			"0.014": 0.0,
			"0.015": 0.0,
			"0.016": 0.0,
			"0.017": 0.0,
			"0.018": 0.0,
			"0.019": 0.0,
			"0.02": 0.0,
			"0.021": 0.0,
			"0.022": 0.0,
			"0.023": 0.0,
			"0.024": 0.0,
			"0.025": 0.0
		}
	}
}
