{
	 "smiles": "CCCC1=C2OC(=CC(=O)C2=CC=C1OCC=C)C(=O)OCC", 
	 "Tm": 358.15, 
	 "num_atms": 43, 
	 "gaussian": { 
		 "optdone": 1, 
		 "sigma_profile": "yes", 
		 "theory": "DFT", 
		 "functional": "B3LYP", 
		 "basiset": "6-31G**", 
		 "properties": { 
			 "R2extent": 10546.7312, 
			 "electric_dipole_moment_norm": 2.41637508057, 
			 "electric_quadrupole_moment_norm": 35.6608648206, 
			 "total_energy": -1074.0729837, 
			 "HOMO_LUMO_gap": 0.15573, 
			 "cosmo_polarized_energy": -15.0, 
			 "cosmo_cavitation_energy": 47.82, 
			 "cosmo_dispersion_energy": -32.16, 
			 "cosmo_repulsion_energy": 2.49, 
			 "cosmo_total_nonelectrostatic_energy": 18.15, 
			 "SMD_solvation_energy": 10.89 
		},
		"coords": [
			{
				"x": 2.7370108951,
				"y": 2.3992662059,
				"z": 1.8541183794,
				"element": "C" 
			},
			{
				"x": 1.8689336927,
				"y": 1.2149169025,
				"z": 1.4201911566,
				"element": "C" 
			},
			{
				"x": 0.4214414547,
				"y": 1.6367213352,
				"z": 1.0917657557,
				"element": "C" 
			},
			{
				"x": -0.4538911716,
				"y": 0.4802569564,
				"z": 0.6675504508,
				"element": "C" 
			},
			{
				"x": -0.6287247409,
				"y": 0.1410382548,
				"z": -0.6799322041,
				"element": "C" 
			},
			{
				"x": 0.035186032,
				"y": 0.9328379988,
				"z": -1.5862944777,
				"element": "O" 
			},
			{
				"x": -0.0898738684,
				"y": 0.6807308609,
				"z": -2.9096476357,
				"element": "C" 
			},
			{
				"x": -0.8332560536,
				"y": -0.3257042227,
				"z": -3.420076031,
				"element": "C" 
			},
			{
				"x": -1.5779871434,
				"y": -1.2362875984,
				"z": -2.5438563627,
				"element": "C" 
			},
			{
				"x": -2.262917582,
				"y": -2.1638179111,
				"z": -2.9742023358,
				"element": "O" 
			},
			{
				"x": -1.4288099099,
				"y": -0.9339226948,
				"z": -1.1079239946,
				"element": "C" 
			},
			{
				"x": -2.0749486784,
				"y": -1.701763647,
				"z": -0.1312343196,
				"element": "C" 
			},
			{
				"x": -1.9278196609,
				"y": -1.4092013189,
				"z": 1.214394369,
				"element": "C" 
			},
			{
				"x": -1.1157430331,
				"y": -0.3268863927,
				"z": 1.6111068924,
				"element": "C" 
			},
			{
				"x": -0.9151915699,
				"y": 0.0225403779,
				"z": 2.9119802962,
				"element": "O" 
			},
			{
				"x": -1.5461327364,
				"y": -0.7395310788,
				"z": 3.9482095401,
				"element": "C" 
			},
			{
				"x": -1.1085649867,
				"y": -0.17238161,
				"z": 5.2645309164,
				"element": "C" 
			},
			{
				"x": -1.948354562,
				"y": 0.1893405637,
				"z": 6.2327013567,
				"element": "C" 
			},
			{
				"x": 0.7078650019,
				"y": 1.6667616033,
				"z": -3.7110752564,
				"element": "C" 
			},
			{
				"x": 1.3605372015,
				"y": 2.5595488198,
				"z": -3.216242057,
				"element": "O" 
			},
			{
				"x": 0.5921220402,
				"y": 1.4265191875,
				"z": -5.0295991834,
				"element": "O" 
			},
			{
				"x": 1.3224758211,
				"y": 2.3156205882,
				"z": -5.9134402238,
				"element": "C" 
			},
			{
				"x": 2.7582619188,
				"y": 1.8504424889,
				"z": -6.0997581722,
				"element": "C" 
			},
			{
				"x": 3.7590794516,
				"y": 2.0798280103,
				"z": 2.0828777456,
				"element": "H" 
			},
			{
				"x": 2.793585892,
				"y": 3.1576894773,
				"z": 1.0653461372,
				"element": "H" 
			},
			{
				"x": 2.3302491004,
				"y": 2.8818945574,
				"z": 2.7503019266,
				"element": "H" 
			},
			{
				"x": 1.8484425049,
				"y": 0.4567639332,
				"z": 2.2121496114,
				"element": "H" 
			},
			{
				"x": 2.3100087901,
				"y": 0.7363346121,
				"z": 0.5374193441,
				"element": "H" 
			},
			{
				"x": -0.0215813877,
				"y": 2.1075262992,
				"z": 1.9751518224,
				"element": "H" 
			},
			{
				"x": 0.4415096481,
				"y": 2.3842592335,
				"z": 0.2933883012,
				"element": "H" 
			},
			{
				"x": -0.8855549153,
				"y": -0.468814507,
				"z": -4.4910469305,
				"element": "H" 
			},
			{
				"x": -2.6914641154,
				"y": -2.5290653184,
				"z": -0.4666075701,
				"element": "H" 
			},
			{
				"x": -2.4380061037,
				"y": -2.0155267171,
				"z": 1.9522768842,
				"element": "H" 
			},
			{
				"x": -1.2364995847,
				"y": -1.7920779591,
				"z": 3.8621359111,
				"element": "H" 
			},
			{
				"x": -2.6385169107,
				"y": -0.6956989301,
				"z": 3.8467463359,
				"element": "H" 
			},
			{
				"x": -0.03212009,
				"y": -0.0915529507,
				"z": 5.405276748,
				"element": "H" 
			},
			{
				"x": -3.0266998644,
				"y": 0.1234450961,
				"z": 6.1087865819,
				"element": "H" 
			},
			{
				"x": -1.5899270136,
				"y": 0.5603145196,
				"z": 7.1878852239,
				"element": "H" 
			},
			{
				"x": 0.7619665772,
				"y": 2.2799766806,
				"z": -6.8500155987,
				"element": "H" 
			},
			{
				"x": 1.2824623281,
				"y": 3.3267706293,
				"z": -5.501999504,
				"element": "H" 
			},
			{
				"x": 3.261513093,
				"y": 2.4933211945,
				"z": -6.8294375967,
				"element": "H" 
			},
			{
				"x": 3.3079088681,
				"y": 1.9076682246,
				"z": -5.1571307491,
				"element": "H" 
			},
			{
				"x": 2.7902253711,
				"y": 0.8212982455,
				"z": -6.4687714835,
				"element": "H" 
			}
		],
		 "valence_orbital": [ 
			{
				"type": "occ",
				"energy": -0.27918,
				"method": "rhf"
			},
			{
				"type": "occ",
				"energy": -0.27608,
				"method": "rhf"
			},
			{
				"type": "occ",
				"energy": -0.23907,
				"method": "rhf"
			},
			{
				"type": "occ",
				"energy": -0.23668,
				"method": "rhf"
			},
			{
				"type": "occ",
				"energy": -0.22923,
				"method": "rhf"
			},
			{
				"type": "unocc",
				"energy": -0.0735,
				"method": "rhf"
			},
			{
				"type": "unocc",
				"energy": -0.02271,
				"method": "rhf"
			},
			{
				"type": "unocc",
				"energy": -0.00497,
				"method": "rhf"
			},
			{
				"type": "unocc",
				"energy": -0.00162,
				"method": "rhf"
			},
			{
				"type": "unocc",
				"energy": 0.05096,
				"method": "rhf"
			}
		],
		"cosmo_sigma_profile": { 
			"-0.025": 0.0,
			"-0.024": 0.0,
			"-0.023": 0.0,
			"-0.022": 0.0,
			"-0.021": 0.0,
			"-0.02": 0.0,
			"-0.019": 0.0,
			"-0.018": 0.0,
			"-0.017": 0.0,
			"-0.016": 0.0,
			"-0.015": 0.0,
			"-0.014": 0.0,
			"-0.013": 0.0,
			"-0.012": 0.0,
			"-0.011": 0.0,
			"-0.01": 0.0,
			"-0.009": 0.0,
			"-0.008": 1.10611172837,
			"-0.007": 5.04202529577,
			"-0.006": 17.3939248842,
			"-0.005": 23.4652167866,
			"-0.004": 29.1451263935,
			"-0.003": 35.0366628168,
			"-0.002": 39.938860163,
			"-0.001": 41.9297252633,
			"0.0": 45.2893858152,
			"0.001": 38.346088211,
			"0.002": 25.0988578418,
			"0.003": 15.8696503991,
			"0.004": 11.418700273,
			"0.005": 8.97615092508,
			"0.006": 8.19205467651,
			"0.007": 4.29600920737,
			"0.008": 2.18169959793,
			"0.009": 4.73912888465,
			"0.01": 4.31781326784,
			"0.011": 6.43388804078,
			"0.012": 3.69012745956,
			"0.013": 5.18970341534,
			"0.014": 1.54685102193,
			"0.015": 0.100895678202,
			"0.016": 0.0,
			"0.017": 0.0,
			"0.018": 0.0,
			"0.019": 0.0,
			"0.02": 0.0,
			"0.021": 0.0,
			"0.022": 0.0,
			"0.023": 0.0,
			"0.024": 0.0,
			"0.025": 0.0
		}
	}
}
