{
	 "smiles": "CC1=CC(C(=O)CBr)=C(OC(F)F)C=C1", 
	 "Tm": 329.15, 
	 "num_atms": 24, 
	 "gaussian": { 
		 "optdone": 1, 
		 "sigma_profile": "yes", 
		 "theory": "DFT", 
		 "functional": "B3LYP", 
		 "basiset": "6-31G**", 
		 "properties": { 
			 "R2extent": 6330.0139, 
			 "electric_dipole_moment_norm": 4.4872080139, 
			 "electric_quadrupole_moment_norm": 5.20861854622, 
			 "total_energy": -3308.01163798, 
			 "HOMO_LUMO_gap": 0.17311, 
			 "cosmo_polarized_energy": -9.79, 
			 "cosmo_cavitation_energy": 31.45, 
			 "cosmo_dispersion_energy": -22.35, 
			 "cosmo_repulsion_energy": 1.73, 
			 "cosmo_total_nonelectrostatic_energy": 10.84, 
			 "SMD_solvation_energy": 5.92 
		},
		"coords": [
			{
				"x": -2.4509606871,
				"y": -1.2171823558,
				"z": 3.5232533539,
				"element": "C" 
			},
			{
				"x": -1.615020818,
				"y": -0.7798708266,
				"z": 2.3438332804,
				"element": "C" 
			},
			{
				"x": -1.2026063067,
				"y": -1.6916212664,
				"z": 1.3712207612,
				"element": "C" 
			},
			{
				"x": -0.4540570451,
				"y": -1.3039227287,
				"z": 0.2442295144,
				"element": "C" 
			},
			{
				"x": -0.0564607655,
				"y": -2.3063985684,
				"z": -0.7880651624,
				"element": "C" 
			},
			{
				"x": 0.1452062917,
				"y": -2.0116769157,
				"z": -1.9545338707,
				"element": "O" 
			},
			{
				"x": 0.1480831717,
				"y": -3.7595299934,
				"z": -0.357755625,
				"element": "C" 
			},
			{
				"x": -1.5436017781,
				"y": -4.7797859802,
				"z": -0.517862791,
				"element": "Br" 
			},
			{
				"x": -0.0898804095,
				"y": 0.052614236,
				"z": 0.1246822528,
				"element": "C" 
			},
			{
				"x": 0.7603220607,
				"y": 0.4911944304,
				"z": -0.8773356043,
				"element": "O" 
			},
			{
				"x": 0.1731943829,
				"y": 0.9533325947,
				"z": -2.0407026549,
				"element": "C" 
			},
			{
				"x": 1.1818801072,
				"y": 1.2536488349,
				"z": -2.8740736977,
				"element": "F" 
			},
			{
				"x": -0.5180798255,
				"y": 2.1042253874,
				"z": -1.7870925734,
				"element": "F" 
			},
			{
				"x": -0.4770453087,
				"y": 0.9727607695,
				"z": 1.0979220595,
				"element": "C" 
			},
			{
				"x": -1.2358788812,
				"y": 0.5619548116,
				"z": 2.1892070043,
				"element": "C" 
			},
			{
				"x": -3.4687041033,
				"y": -0.8149836487,
				"z": 3.4573913995,
				"element": "H" 
			},
			{
				"x": -2.5286513376,
				"y": -2.3061431269,
				"z": 3.5768023737,
				"element": "H" 
			},
			{
				"x": -2.0242708614,
				"y": -0.8619024318,
				"z": 4.4673075701,
				"element": "H" 
			},
			{
				"x": -1.5021609909,
				"y": -2.7301357371,
				"z": 1.4697462879,
				"element": "H" 
			},
			{
				"x": 0.4749707708,
				"y": -3.8729493321,
				"z": 0.6741565647,
				"element": "H" 
			},
			{
				"x": 0.8398161317,
				"y": -4.2322388357,
				"z": -1.0511067284,
				"element": "H" 
			},
			{
				"x": -0.4994643253,
				"y": 0.2242770663,
				"z": -2.496272428,
				"element": "H" 
			},
			{
				"x": -0.1639508923,
				"y": 2.00417595,
				"z": 0.983080351,
				"element": "H" 
			},
			{
				"x": -1.5336785804,
				"y": 1.2938576668,
				"z": 2.9357683626,
				"element": "H" 
			}
		],
		 "valence_orbital": [ 
			{
				"type": "occ",
				"energy": -0.30008,
				"method": "rhf"
			},
			{
				"type": "occ",
				"energy": -0.29109,
				"method": "rhf"
			},
			{
				"type": "occ",
				"energy": -0.27423,
				"method": "rhf"
			},
			{
				"type": "occ",
				"energy": -0.26637,
				"method": "rhf"
			},
			{
				"type": "occ",
				"energy": -0.25667,
				"method": "rhf"
			},
			{
				"type": "unocc",
				"energy": -0.08356,
				"method": "rhf"
			},
			{
				"type": "unocc",
				"energy": -0.02166,
				"method": "rhf"
			},
			{
				"type": "unocc",
				"energy": -0.01997,
				"method": "rhf"
			},
			{
				"type": "unocc",
				"energy": 0.0315,
				"method": "rhf"
			},
			{
				"type": "unocc",
				"energy": 0.08319,
				"method": "rhf"
			}
		],
		"cosmo_sigma_profile": { 
			"-0.025": 0.0,
			"-0.024": 0.0,
			"-0.023": 0.0,
			"-0.022": 0.0,
			"-0.021": 0.0,
			"-0.02": 0.0,
			"-0.019": 0.0,
			"-0.018": 0.0,
			"-0.017": 0.0,
			"-0.016": 0.0,
			"-0.015": 0.0,
			"-0.014": 0.0,
			"-0.013": 0.0,
			"-0.012": 0.0,
			"-0.011": 0.0,
			"-0.01": 0.0,
			"-0.009": 2.67425924724,
			"-0.008": 6.14121005606,
			"-0.007": 9.88647204881,
			"-0.006": 12.0814657342,
			"-0.005": 14.8568390459,
			"-0.004": 15.9033199017,
			"-0.003": 15.8142372208,
			"-0.002": 15.4287567342,
			"-0.001": 19.7249725461,
			"0.0": 18.8630556702,
			"0.001": 18.1120683216,
			"0.002": 21.0792229367,
			"0.003": 27.1847328207,
			"0.004": 27.5411582588,
			"0.005": 12.1314121866,
			"0.006": 3.76202754071,
			"0.007": 3.69290280219,
			"0.008": 3.59866890305,
			"0.009": 2.15457097469,
			"0.01": 1.66380075654,
			"0.011": 1.53906629167,
			"0.012": 0.413965778601,
			"0.013": 0.0,
			"0.014": 0.0,
			"0.015": 0.0,
			"0.016": 0.0,
			"0.017": 0.0,
			"0.018": 0.0,
			"0.019": 0.0,
			"0.02": 0.0,
			"0.021": 0.0,
			"0.022": 0.0,
			"0.023": 0.0,
			"0.024": 0.0,
			"0.025": 0.0
		}
	}
}
