{
	 "smiles": "CC(=O)OC1=CC2=C(C=C1Cl)C1(OC(=O)C3=C1C=CC=C3)C1=CC(Cl)=C(OC(C)=O)C=C1O2", 
	 "Tm": 515.15, 
	 "num_atms": 47, 
	 "gaussian": { 
		 "optdone": 1, 
		 "sigma_profile": "yes", 
		 "theory": "DFT", 
		 "functional": "B3LYP", 
		 "basiset": "6-31G**", 
		 "properties": { 
			 "R2extent": 18801.0784, 
			 "electric_dipole_moment_norm": 4.8749951282, 
			 "electric_quadrupole_moment_norm": 30.1187876149, 
			 "total_energy": -2369.96901609, 
			 "HOMO_LUMO_gap": 0.17254, 
			 "cosmo_polarized_energy": -20.91, 
			 "cosmo_cavitation_energy": 57.4, 
			 "cosmo_dispersion_energy": -38.76, 
			 "cosmo_repulsion_energy": 2.95, 
			 "cosmo_total_nonelectrostatic_energy": 21.6, 
			 "SMD_solvation_energy": 12.8 
		},
		"coords": [
			{
				"x": -3.5806968382,
				"y": -3.4128431476,
				"z": 5.5351860874,
				"element": "C" 
			},
			{
				"x": -2.5556539152,
				"y": -2.8582798161,
				"z": 4.5821010578,
				"element": "C" 
			},
			{
				"x": -1.4722466757,
				"y": -2.4169287244,
				"z": 4.8648398667,
				"element": "O" 
			},
			{
				"x": -3.0469801159,
				"y": -2.9337189556,
				"z": 3.2934429943,
				"element": "O" 
			},
			{
				"x": -2.2965159733,
				"y": -2.5106007099,
				"z": 2.2154132377,
				"element": "C" 
			},
			{
				"x": -1.6386767167,
				"y": -1.2892100004,
				"z": 2.1900854222,
				"element": "C" 
			},
			{
				"x": -0.9594970472,
				"y": -0.896484874,
				"z": 1.0331439334,
				"element": "C" 
			},
			{
				"x": -0.922606671,
				"y": -1.7040245897,
				"z": -0.1062189703,
				"element": "C" 
			},
			{
				"x": -1.5982103649,
				"y": -2.9310570196,
				"z": -0.0612770754,
				"element": "C" 
			},
			{
				"x": -2.2742500393,
				"y": -3.3386104533,
				"z": 1.0786016113,
				"element": "C" 
			},
			{
				"x": -3.0962527772,
				"y": -4.8816521511,
				"z": 1.0995538147,
				"element": "Cl" 
			},
			{
				"x": -0.2147720623,
				"y": -1.2612082311,
				"z": -1.3723869428,
				"element": "C" 
			},
			{
				"x": -1.2256501528,
				"y": -1.0971729321,
				"z": -2.4315567603,
				"element": "O" 
			},
			{
				"x": -0.9865750141,
				"y": -1.9251707367,
				"z": -3.5044122207,
				"element": "C" 
			},
			{
				"x": -1.6945615718,
				"y": -1.948752523,
				"z": -4.4791903369,
				"element": "O" 
			},
			{
				"x": 0.2346210273,
				"y": -2.7063809574,
				"z": -3.2006954629,
				"element": "C" 
			},
			{
				"x": 0.7050518131,
				"y": -2.3308250242,
				"z": -1.9489885648,
				"element": "C" 
			},
			{
				"x": 1.8498217572,
				"y": -2.9155300066,
				"z": -1.4143076448,
				"element": "C" 
			},
			{
				"x": 2.5026574444,
				"y": -3.8866202324,
				"z": -2.1786660153,
				"element": "C" 
			},
			{
				"x": 2.0243299069,
				"y": -4.2636362855,
				"z": -3.4440023411,
				"element": "C" 
			},
			{
				"x": 0.8770697669,
				"y": -3.6737430065,
				"z": -3.9726823638,
				"element": "C" 
			},
			{
				"x": 0.4772301076,
				"y": 0.0725358686,
				"z": -1.1673377189,
				"element": "C" 
			},
			{
				"x": 1.2263444482,
				"y": 0.6519993815,
				"z": -2.2005950937,
				"element": "C" 
			},
			{
				"x": 1.8326718159,
				"y": 1.8882517678,
				"z": -2.0436441854,
				"element": "C" 
			},
			{
				"x": 2.7557339952,
				"y": 2.5763426758,
				"z": -3.3598835258,
				"element": "Cl" 
			},
			{
				"x": 1.7061553986,
				"y": 2.5863107506,
				"z": -0.8271517276,
				"element": "C" 
			},
			{
				"x": 2.399365211,
				"y": 3.7741193553,
				"z": -0.7245809547,
				"element": "O" 
			},
			{
				"x": 1.9110846115,
				"y": 4.8616145782,
				"z": -0.0292919819,
				"element": "C" 
			},
			{
				"x": 2.8858826403,
				"y": 6.0026251479,
				"z": -0.1540127719,
				"element": "C" 
			},
			{
				"x": 0.8672701908,
				"y": 4.8711320372,
				"z": 0.5702554905,
				"element": "O" 
			},
			{
				"x": 0.9722414513,
				"y": 2.0279542658,
				"z": 0.2109861603,
				"element": "C" 
			},
			{
				"x": 0.3604591051,
				"y": 0.7837525004,
				"z": 0.0286851146,
				"element": "C" 
			},
			{
				"x": -0.3390203398,
				"y": 0.3205229498,
				"z": 1.1100102282,
				"element": "O" 
			},
			{
				"x": -3.790613209,
				"y": -4.4574782115,
				"z": 5.2878477209,
				"element": "H" 
			},
			{
				"x": -4.5196685417,
				"y": -2.8603432604,
				"z": 5.4373550036,
				"element": "H" 
			},
			{
				"x": -3.2039597673,
				"y": -3.3367945124,
				"z": 6.5543528043,
				"element": "H" 
			},
			{
				"x": -1.6340573786,
				"y": -0.6381916909,
				"z": 3.0532634124,
				"element": "H" 
			},
			{
				"x": -1.5963855347,
				"y": -3.5788541162,
				"z": -0.930393412,
				"element": "H" 
			},
			{
				"x": 2.2268506059,
				"y": -2.6310773678,
				"z": -0.4365906994,
				"element": "H" 
			},
			{
				"x": 3.3980821254,
				"y": -4.3597972215,
				"z": -1.7863528349,
				"element": "H" 
			},
			{
				"x": 2.5554362492,
				"y": -5.0214607316,
				"z": -4.0117397794,
				"element": "H" 
			},
			{
				"x": 0.4858719542,
				"y": -3.9467847185,
				"z": -4.9475678092,
				"element": "H" 
			},
			{
				"x": 1.3338388636,
				"y": 0.1314000376,
				"z": -3.145273225,
				"element": "H" 
			},
			{
				"x": 2.516711862,
				"y": 6.8550732089,
				"z": 0.414724811,
				"element": "H" 
			},
			{
				"x": 3.0054383504,
				"y": 6.2755170396,
				"z": -1.2065282211,
				"element": "H" 
			},
			{
				"x": 3.868744057,
				"y": 5.697957023,
				"z": 0.2169655188,
				"element": "H" 
			},
			{
				"x": 0.8471859475,
				"y": 2.5457236203,
				"z": 1.1507143498,
				"element": "H" 
			}
		],
		 "valence_orbital": [ 
			{
				"type": "occ",
				"energy": -0.2778,
				"method": "rhf"
			},
			{
				"type": "occ",
				"energy": -0.26557,
				"method": "rhf"
			},
			{
				"type": "occ",
				"energy": -0.26516,
				"method": "rhf"
			},
			{
				"type": "occ",
				"energy": -0.25322,
				"method": "rhf"
			},
			{
				"type": "occ",
				"energy": -0.22988,
				"method": "rhf"
			},
			{
				"type": "unocc",
				"energy": -0.05734,
				"method": "rhf"
			},
			{
				"type": "unocc",
				"energy": -0.04823,
				"method": "rhf"
			},
			{
				"type": "unocc",
				"energy": -0.03928,
				"method": "rhf"
			},
			{
				"type": "unocc",
				"energy": -0.02818,
				"method": "rhf"
			},
			{
				"type": "unocc",
				"energy": -0.02445,
				"method": "rhf"
			}
		],
		"cosmo_sigma_profile": { 
			"-0.025": 0.0,
			"-0.024": 0.0,
			"-0.023": 0.0,
			"-0.022": 0.0,
			"-0.021": 0.0,
			"-0.02": 0.0,
			"-0.019": 0.0,
			"-0.018": 0.0,
			"-0.017": 0.0,
			"-0.016": 0.0,
			"-0.015": 0.0,
			"-0.014": 0.0,
			"-0.013": 0.0,
			"-0.012": 0.0,
			"-0.011": 0.0,
			"-0.01": 0.0,
			"-0.009": 0.315560239694,
			"-0.008": 7.12590772749,
			"-0.007": 23.2127075848,
			"-0.006": 31.604900065,
			"-0.005": 29.1914567086,
			"-0.004": 27.3380978021,
			"-0.003": 35.4910501934,
			"-0.002": 32.564138584,
			"-0.001": 34.4564241869,
			"0.0": 51.0489172936,
			"0.001": 39.6164875269,
			"0.002": 30.3505943344,
			"0.003": 26.8913155053,
			"0.004": 25.9807708543,
			"0.005": 13.4442064029,
			"0.006": 10.0524500355,
			"0.007": 7.35058332562,
			"0.008": 6.2973153747,
			"0.009": 7.94382590781,
			"0.01": 11.0020168079,
			"0.011": 10.9769815888,
			"0.012": 4.2474193021,
			"0.013": 0.392742723209,
			"0.014": 0.0,
			"0.015": 0.0,
			"0.016": 0.0,
			"0.017": 0.0,
			"0.018": 0.0,
			"0.019": 0.0,
			"0.02": 0.0,
			"0.021": 0.0,
			"0.022": 0.0,
			"0.023": 0.0,
			"0.024": 0.0,
			"0.025": 0.0
		}
	}
}
