{
	 "smiles": "CC(=CC(O)=O)C12CC3CC(CC(C3)C1)C2", 
	 "Tm": 443.15, 
	 "num_atms": 36, 
	 "gaussian": { 
		 "optdone": 1, 
		 "sigma_profile": "yes", 
		 "theory": "DFT", 
		 "functional": "B3LYP", 
		 "basiset": "6-31G**", 
		 "properties": { 
			 "R2extent": 4103.6277, 
			 "electric_dipole_moment_norm": 2.21481305983, 
			 "electric_quadrupole_moment_norm": 8.58716461121, 
			 "total_energy": -696.024648603, 
			 "HOMO_LUMO_gap": 0.21839, 
			 "cosmo_polarized_energy": -7.97, 
			 "cosmo_cavitation_energy": 33.35, 
			 "cosmo_dispersion_energy": -24.75, 
			 "cosmo_repulsion_energy": 1.89, 
			 "cosmo_total_nonelectrostatic_energy": 10.48, 
			 "SMD_solvation_energy": 5.59 
		},
		"coords": [
			{
				"x": -0.6477545032,
				"y": -2.6847398172,
				"z": 0.1987797841,
				"element": "C" 
			},
			{
				"x": -0.1578784257,
				"y": -1.4186937104,
				"z": -0.466002736,
				"element": "C" 
			},
			{
				"x": -0.0753679612,
				"y": -1.2991163303,
				"z": -1.8097802655,
				"element": "C" 
			},
			{
				"x": -0.4549755667,
				"y": -2.3220380934,
				"z": -2.7999519784,
				"element": "C" 
			},
			{
				"x": -0.2971313053,
				"y": -1.8354903778,
				"z": -4.0642123827,
				"element": "O" 
			},
			{
				"x": -0.8565455076,
				"y": -3.4583225335,
				"z": -2.612468878,
				"element": "O" 
			},
			{
				"x": 0.2636561329,
				"y": -0.2692657337,
				"z": 0.4571721858,
				"element": "C" 
			},
			{
				"x": -0.9879007527,
				"y": 0.2964465507,
				"z": 1.1988445791,
				"element": "C" 
			},
			{
				"x": -0.5828158491,
				"y": 1.415015064,
				"z": 2.1817462876,
				"element": "C" 
			},
			{
				"x": 0.4079478392,
				"y": 0.8541434303,
				"z": 3.2223490103,
				"element": "C" 
			},
			{
				"x": 1.6693735204,
				"y": 0.3323959695,
				"z": 2.5040498808,
				"element": "C" 
			},
			{
				"x": 2.3349924011,
				"y": 1.4843418388,
				"z": 1.7272280715,
				"element": "C" 
			},
			{
				"x": 1.3395881081,
				"y": 2.0350585933,
				"z": 0.6881466285,
				"element": "C" 
			},
			{
				"x": 0.0849459692,
				"y": 2.5678713019,
				"z": 1.4076428292,
				"element": "C" 
			},
			{
				"x": 0.9328408291,
				"y": 0.9130928356,
				"z": -0.2898648687,
				"element": "C" 
			},
			{
				"x": 1.2734039237,
				"y": -0.790978909,
				"z": 1.5242937442,
				"element": "C" 
			},
			{
				"x": -1.1360477315,
				"y": -2.4781578201,
				"z": 1.1540789277,
				"element": "H" 
			},
			{
				"x": 0.2001488014,
				"y": -3.3490583139,
				"z": 0.4086795877,
				"element": "H" 
			},
			{
				"x": -1.3238781295,
				"y": -3.2382978879,
				"z": -0.4499724567,
				"element": "H" 
			},
			{
				"x": 0.2925623271,
				"y": -0.3855391207,
				"z": -2.2578754009,
				"element": "H" 
			},
			{
				"x": -0.5613863506,
				"y": -2.5601961081,
				"z": -4.6544497914,
				"element": "H" 
			},
			{
				"x": -1.7002860568,
				"y": 0.6819859647,
				"z": 0.4584429439,
				"element": "H" 
			},
			{
				"x": -1.5015227975,
				"y": -0.5007899531,
				"z": 1.7478303239,
				"element": "H" 
			},
			{
				"x": -1.4833825813,
				"y": 1.7824873074,
				"z": 2.6900939471,
				"element": "H" 
			},
			{
				"x": -0.0629006724,
				"y": 0.0441727822,
				"z": 3.7951017737,
				"element": "H" 
			},
			{
				"x": 0.6804136412,
				"y": 1.6365525117,
				"z": 3.942453081,
				"element": "H" 
			},
			{
				"x": 2.3731437322,
				"y": -0.0726544876,
				"z": 3.2423316221,
				"element": "H" 
			},
			{
				"x": 3.2451489712,
				"y": 1.1270089003,
				"z": 1.2278371543,
				"element": "H" 
			},
			{
				"x": 2.6412495715,
				"y": 2.2809877598,
				"z": 2.4176909493,
				"element": "H" 
			},
			{
				"x": 1.810752174,
				"y": 2.8460135219,
				"z": 0.118539844,
				"element": "H" 
			},
			{
				"x": -0.6182936977,
				"y": 2.9913583982,
				"z": 0.6785916694,
				"element": "H" 
			},
			{
				"x": 0.358171975,
				"y": 3.3782446499,
				"z": 2.0959730178,
				"element": "H" 
			},
			{
				"x": 1.8165316179,
				"y": 0.555908574,
				"z": -0.8336776861,
				"element": "H" 
			},
			{
				"x": 0.2412941413,
				"y": 1.3242210656,
				"z": -1.035504146,
				"element": "H" 
			},
			{
				"x": 2.1653270946,
				"y": -1.1822455417,
				"z": 1.0174002968,
				"element": "H" 
			},
			{
				"x": 0.8355751179,
				"y": -1.6238222814,
				"z": 2.0850624508,
				"element": "H" 
			}
		],
		 "valence_orbital": [ 
			{
				"type": "occ",
				"energy": -0.29043,
				"method": "rhf"
			},
			{
				"type": "occ",
				"energy": -0.28567,
				"method": "rhf"
			},
			{
				"type": "occ",
				"energy": -0.28114,
				"method": "rhf"
			},
			{
				"type": "occ",
				"energy": -0.26063,
				"method": "rhf"
			},
			{
				"type": "occ",
				"energy": -0.25337,
				"method": "rhf"
			},
			{
				"type": "unocc",
				"energy": -0.03498,
				"method": "rhf"
			},
			{
				"type": "unocc",
				"energy": 0.06369,
				"method": "rhf"
			},
			{
				"type": "unocc",
				"energy": 0.09179,
				"method": "rhf"
			},
			{
				"type": "unocc",
				"energy": 0.09398,
				"method": "rhf"
			},
			{
				"type": "unocc",
				"energy": 0.10804,
				"method": "rhf"
			}
		],
		"cosmo_sigma_profile": { 
			"-0.025": 0.0,
			"-0.024": 0.0,
			"-0.023": 0.0,
			"-0.022": 0.0,
			"-0.021": 0.0,
			"-0.02": 0.0,
			"-0.019": 0.0,
			"-0.018": 0.0472713642486,
			"-0.017": 0.850903206532,
			"-0.016": 0.816987789956,
			"-0.015": 0.824526603067,
			"-0.014": 0.829080864657,
			"-0.013": 0.471162620438,
			"-0.012": 1.11825986813,
			"-0.011": 0.562596906746,
			"-0.01": 0.490701674173,
			"-0.009": 0.51037854275,
			"-0.008": 0.436899662009,
			"-0.007": 0.625572295185,
			"-0.006": 1.06661181672,
			"-0.005": 3.24799294783,
			"-0.004": 7.2743683178,
			"-0.003": 11.5617358922,
			"-0.002": 46.1687735826,
			"-0.001": 49.1306270967,
			"0.0": 49.82555409,
			"0.001": 33.284105737,
			"0.002": 11.8380062005,
			"0.003": 6.10282816301,
			"0.004": 4.69503646831,
			"0.005": 2.08229557594,
			"0.006": 2.9585265863,
			"0.007": 2.90263850301,
			"0.008": 2.68702410815,
			"0.009": 2.95248338812,
			"0.01": 3.51491427274,
			"0.011": 2.49144285586,
			"0.012": 4.01429262345,
			"0.013": 1.67821670093,
			"0.014": 0.0,
			"0.015": 0.0,
			"0.016": 0.0,
			"0.017": 0.0,
			"0.018": 0.0,
			"0.019": 0.0,
			"0.02": 0.0,
			"0.021": 0.0,
			"0.022": 0.0,
			"0.023": 0.0,
			"0.024": 0.0,
			"0.025": 0.0
		}
	}
}
