{
	 "smiles": "CC1=NON=C1C(O)=O", 
	 "Tm": 343.15, 
	 "num_atms": 13, 
	 "gaussian": { 
		 "optdone": 1, 
		 "sigma_profile": "yes", 
		 "theory": "DFT", 
		 "functional": "B3LYP", 
		 "basiset": "6-31G**", 
		 "properties": { 
			 "R2extent": 1514.1949, 
			 "electric_dipole_moment_norm": 4.50910466168, 
			 "electric_quadrupole_moment_norm": 10.49948011, 
			 "total_energy": -489.933644227, 
			 "HOMO_LUMO_gap": 0.22325, 
			 "cosmo_polarized_energy": -12.36, 
			 "cosmo_cavitation_energy": 18.62, 
			 "cosmo_dispersion_energy": -13.78, 
			 "cosmo_repulsion_energy": 1.14, 
			 "cosmo_total_nonelectrostatic_energy": 5.99, 
			 "SMD_solvation_energy": 4.46 
		},
		"coords": [
			{
				"x": -2.5859506304,
				"y": 1.9791071307,
				"z": -1.1472584165,
				"element": "C" 
			},
			{
				"x": -1.5869171494,
				"y": 0.8918210489,
				"z": -0.9189713103,
				"element": "C" 
			},
			{
				"x": -1.1740540865,
				"y": 0.1229389316,
				"z": -1.8946779262,
				"element": "N" 
			},
			{
				"x": -0.2700296053,
				"y": -0.7539861139,
				"z": -1.3278906583,
				"element": "O" 
			},
			{
				"x": -0.1192639318,
				"y": -0.5317164655,
				"z": -0.0018385445,
				"element": "N" 
			},
			{
				"x": -0.9154171525,
				"y": 0.4734145263,
				"z": 0.2808420981,
				"element": "C" 
			},
			{
				"x": -0.9994566413,
				"y": 0.9862024907,
				"z": 1.6727682203,
				"element": "C" 
			},
			{
				"x": -1.8721506026,
				"y": 2.0200718562,
				"z": 1.7529553167,
				"element": "O" 
			},
			{
				"x": -0.3824532499,
				"y": 0.5551038924,
				"z": 2.6163944305,
				"element": "O" 
			},
			{
				"x": -2.1695187963,
				"y": 2.9509918909,
				"z": -0.8693998005,
				"element": "H" 
			},
			{
				"x": -2.8731683922,
				"y": 1.9968764939,
				"z": -2.1996924697,
				"element": "H" 
			},
			{
				"x": -3.475759432,
				"y": 1.8215394608,
				"z": -0.531959796,
				"element": "H" 
			},
			{
				"x": -1.8744603298,
				"y": 2.3012348571,
				"z": 2.6837288563,
				"element": "H" 
			}
		],
		 "valence_orbital": [ 
			{
				"type": "occ",
				"energy": -0.34901,
				"method": "rhf"
			},
			{
				"type": "occ",
				"energy": -0.33016,
				"method": "rhf"
			},
			{
				"type": "occ",
				"energy": -0.32383,
				"method": "rhf"
			},
			{
				"type": "occ",
				"energy": -0.31713,
				"method": "rhf"
			},
			{
				"type": "occ",
				"energy": -0.30113,
				"method": "rhf"
			},
			{
				"type": "unocc",
				"energy": -0.07788,
				"method": "rhf"
			},
			{
				"type": "unocc",
				"energy": -0.02479,
				"method": "rhf"
			},
			{
				"type": "unocc",
				"energy": 0.05669,
				"method": "rhf"
			},
			{
				"type": "unocc",
				"energy": 0.07887,
				"method": "rhf"
			},
			{
				"type": "unocc",
				"energy": 0.08342,
				"method": "rhf"
			}
		],
		"cosmo_sigma_profile": { 
			"-0.025": 0.0,
			"-0.024": 0.0,
			"-0.023": 0.0,
			"-0.022": 0.0,
			"-0.021": 0.0,
			"-0.02": 0.11026586082,
			"-0.019": 0.842646048512,
			"-0.018": 1.11379645285,
			"-0.017": 0.938481072697,
			"-0.016": 0.330403254226,
			"-0.015": 0.927986956719,
			"-0.014": 1.09208363794,
			"-0.013": 0.612668718208,
			"-0.012": 0.627062641758,
			"-0.011": 0.910538263085,
			"-0.01": 0.401096267172,
			"-0.009": 0.618933092587,
			"-0.008": 1.03748122514,
			"-0.007": 3.76181018864,
			"-0.006": 10.4734925748,
			"-0.005": 12.6485469988,
			"-0.004": 10.6735242444,
			"-0.003": 11.4382434497,
			"-0.002": 10.8517630482,
			"-0.001": 7.2393506912,
			"0.0": 5.41075838234,
			"0.001": 5.92726221792,
			"0.002": 4.52461351159,
			"0.003": 7.43383483832,
			"0.004": 10.4500075656,
			"0.005": 8.05954715108,
			"0.006": 4.24754740292,
			"0.007": 4.17634639663,
			"0.008": 4.09394013315,
			"0.009": 4.95852718288,
			"0.01": 8.13170582641,
			"0.011": 4.69030749533,
			"0.012": 0.405681003406,
			"0.013": 0.0,
			"0.014": 0.0,
			"0.015": 0.0,
			"0.016": 0.0,
			"0.017": 0.0,
			"0.018": 0.0,
			"0.019": 0.0,
			"0.02": 0.0,
			"0.021": 0.0,
			"0.022": 0.0,
			"0.023": 0.0,
			"0.024": 0.0,
			"0.025": 0.0
		}
	}
}
