{
	 "smiles": "CCN(CC)C1=CC=C(C=C1)N=NC1=CC=C(C=C1)[N+]([O-])=O", 
	 "Tm": 425.15, 
	 "num_atms": 40, 
	 "gaussian": { 
		 "optdone": 1, 
		 "sigma_profile": "yes", 
		 "theory": "DFT", 
		 "functional": "B3LYP", 
		 "basiset": "6-31G**", 
		 "properties": { 
			 "R2extent": 10931.684, 
			 "electric_dipole_moment_norm": 8.47196470425, 
			 "electric_quadrupole_moment_norm": 25.845467996, 
			 "total_energy": -989.847945533, 
			 "HOMO_LUMO_gap": 0.11263, 
			 "cosmo_polarized_energy": -16.46, 
			 "cosmo_cavitation_energy": 43.97, 
			 "cosmo_dispersion_energy": -30.31, 
			 "cosmo_repulsion_energy": 2.33, 
			 "cosmo_total_nonelectrostatic_energy": 15.98, 
			 "SMD_solvation_energy": 7.63 
		},
		"coords": [
			{
				"x": -4.249597688,
				"y": 0.6761403795,
				"z": 2.0585644604,
				"element": "C" 
			},
			{
				"x": -2.8968359468,
				"y": 0.0070323636,
				"z": 2.332651177,
				"element": "C" 
			},
			{
				"x": -2.164409789,
				"y": -0.3650946017,
				"z": 1.1218212958,
				"element": "N" 
			},
			{
				"x": -2.3888634284,
				"y": -1.7219192094,
				"z": 0.621220181,
				"element": "C" 
			},
			{
				"x": -1.3781640877,
				"y": -2.7505050651,
				"z": 1.1437156078,
				"element": "C" 
			},
			{
				"x": -1.3065952615,
				"y": 0.5109005204,
				"z": 0.4950801821,
				"element": "C" 
			},
			{
				"x": -1.1855067278,
				"y": 1.8630888389,
				"z": 0.9130330015,
				"element": "C" 
			},
			{
				"x": -0.3247712751,
				"y": 2.7317600709,
				"z": 0.2672202042,
				"element": "C" 
			},
			{
				"x": 0.5042677797,
				"y": 2.3091735453,
				"z": -0.7880362061,
				"element": "C" 
			},
			{
				"x": 0.3697098716,
				"y": 0.9775426818,
				"z": -1.2310733504,
				"element": "C" 
			},
			{
				"x": -0.514489301,
				"y": 0.1090310177,
				"z": -0.6157507534,
				"element": "C" 
			},
			{
				"x": 1.2870479557,
				"y": 3.3362834935,
				"z": -1.3625745655,
				"element": "N" 
			},
			{
				"x": 2.3293878543,
				"y": 3.1594425683,
				"z": -2.0401765586,
				"element": "N" 
			},
			{
				"x": 3.0426164579,
				"y": 1.9376888017,
				"z": -2.1564688058,
				"element": "C" 
			},
			{
				"x": 3.6183538639,
				"y": 1.3220599715,
				"z": -1.027403892,
				"element": "C" 
			},
			{
				"x": 4.4688869337,
				"y": 0.2369879293,
				"z": -1.1829989363,
				"element": "C" 
			},
			{
				"x": 4.7390789955,
				"y": -0.2371679861,
				"z": -2.4689938373,
				"element": "C" 
			},
			{
				"x": 4.1955425343,
				"y": 0.3702560429,
				"z": -3.602752215,
				"element": "C" 
			},
			{
				"x": 3.3645592343,
				"y": 1.4712646133,
				"z": -3.4436861047,
				"element": "C" 
			},
			{
				"x": 5.6195981002,
				"y": -1.3936767389,
				"z": -2.6318118581,
				"element": "N" 
			},
			{
				"x": 6.0885241389,
				"y": -1.9068239112,
				"z": -1.6134203513,
				"element": "O" 
			},
			{
				"x": 5.8394108912,
				"y": -1.792001968,
				"z": -3.7776424898,
				"element": "O" 
			},
			{
				"x": -4.7560041111,
				"y": 0.9133246242,
				"z": 3.0001748877,
				"element": "H" 
			},
			{
				"x": -4.1263915205,
				"y": 1.6032754137,
				"z": 1.4918218377,
				"element": "H" 
			},
			{
				"x": -4.9031877561,
				"y": 0.014963472,
				"z": 1.4805882078,
				"element": "H" 
			},
			{
				"x": -3.0496410382,
				"y": -0.907555587,
				"z": 2.9157000026,
				"element": "H" 
			},
			{
				"x": -2.2666413458,
				"y": 0.6525755942,
				"z": 2.951856388,
				"element": "H" 
			},
			{
				"x": -2.3946409105,
				"y": -1.7091321111,
				"z": -0.4729739047,
				"element": "H" 
			},
			{
				"x": -3.4009740562,
				"y": -2.0153325026,
				"z": 0.9194326368,
				"element": "H" 
			},
			{
				"x": -0.3583423884,
				"y": -2.4921447042,
				"z": 0.845262691,
				"element": "H" 
			},
			{
				"x": -1.6090267039,
				"y": -3.7462819773,
				"z": 0.7508630297,
				"element": "H" 
			},
			{
				"x": -1.404059438,
				"y": -2.8037716089,
				"z": 2.2368139487,
				"element": "H" 
			},
			{
				"x": -1.7951824374,
				"y": 2.2450233667,
				"z": 1.7217804424,
				"element": "H" 
			},
			{
				"x": -0.2658585885,
				"y": 3.7722000497,
				"z": 0.5714985671,
				"element": "H" 
			},
			{
				"x": 0.9385245009,
				"y": 0.619682719,
				"z": -2.0800167876,
				"element": "H" 
			},
			{
				"x": -0.5821223487,
				"y": -0.9022565201,
				"z": -0.9961917893,
				"element": "H" 
			},
			{
				"x": 3.3953980069,
				"y": 1.7060163428,
				"z": -0.0378431599,
				"element": "H" 
			},
			{
				"x": 4.9236263412,
				"y": -0.2541722915,
				"z": -0.3316710516,
				"element": "H" 
			},
			{
				"x": 4.4406699833,
				"y": -0.02049662,
				"z": -4.5824656915,
				"element": "H" 
			},
			{
				"x": 2.950402705,
				"y": 1.9820189821,
				"z": -4.3067464406,
				"element": "H" 
			}
		],
		 "valence_orbital": [ 
			{
				"type": "occ",
				"energy": -0.27498,
				"method": "rhf"
			},
			{
				"type": "occ",
				"energy": -0.27262,
				"method": "rhf"
			},
			{
				"type": "occ",
				"energy": -0.26355,
				"method": "rhf"
			},
			{
				"type": "occ",
				"energy": -0.2252,
				"method": "rhf"
			},
			{
				"type": "occ",
				"energy": -0.19999,
				"method": "rhf"
			},
			{
				"type": "unocc",
				"energy": -0.08736,
				"method": "rhf"
			},
			{
				"type": "unocc",
				"energy": -0.06255,
				"method": "rhf"
			},
			{
				"type": "unocc",
				"energy": -0.02552,
				"method": "rhf"
			},
			{
				"type": "unocc",
				"energy": -0.01056,
				"method": "rhf"
			},
			{
				"type": "unocc",
				"energy": 0.01107,
				"method": "rhf"
			}
		],
		"cosmo_sigma_profile": { 
			"-0.025": 0.0,
			"-0.024": 0.0,
			"-0.023": 0.0,
			"-0.022": 0.0,
			"-0.021": 0.0,
			"-0.02": 0.0,
			"-0.019": 0.0,
			"-0.018": 0.0,
			"-0.017": 0.0,
			"-0.016": 0.0,
			"-0.015": 0.0,
			"-0.014": 0.0,
			"-0.013": 0.0,
			"-0.012": 0.0,
			"-0.011": 0.0,
			"-0.01": 0.0,
			"-0.009": 0.0,
			"-0.008": 1.53318064374,
			"-0.007": 8.51684354414,
			"-0.006": 15.4778060205,
			"-0.005": 26.7127789569,
			"-0.004": 32.3148414501,
			"-0.003": 34.1652136567,
			"-0.002": 33.7938108195,
			"-0.001": 30.5760081209,
			"0.0": 32.6893924475,
			"0.001": 29.2424777264,
			"0.002": 21.4927720992,
			"0.003": 14.8525751533,
			"0.004": 13.9005472921,
			"0.005": 8.13331267603,
			"0.006": 5.85469021822,
			"0.007": 6.28994651354,
			"0.008": 11.5024637388,
			"0.009": 7.20878828821,
			"0.01": 5.63980667704,
			"0.011": 3.0528805604,
			"0.012": 3.01184933917,
			"0.013": 1.90607477129,
			"0.014": 1.67974453498,
			"0.015": 0.0897543203778,
			"0.016": 0.0,
			"0.017": 0.0,
			"0.018": 0.0,
			"0.019": 0.0,
			"0.02": 0.0,
			"0.021": 0.0,
			"0.022": 0.0,
			"0.023": 0.0,
			"0.024": 0.0,
			"0.025": 0.0
		}
	}
}
