{
	 "smiles": "NC1=CC2=C(C=CC=C2)C(=C1)C(O)=O", 
	 "Tm": 452.15, 
	 "num_atms": 23, 
	 "gaussian": { 
		 "optdone": 1, 
		 "sigma_profile": "yes", 
		 "theory": "DFT", 
		 "functional": "B3LYP", 
		 "basiset": "6-31G**", 
		 "properties": { 
			 "R2extent": 3446.8217, 
			 "electric_dipole_moment_norm": 4.80156319234, 
			 "electric_quadrupole_moment_norm": 22.3878079532, 
			 "total_energy": -629.814939867, 
			 "HOMO_LUMO_gap": 0.15031, 
			 "cosmo_polarized_energy": -16.49, 
			 "cosmo_cavitation_energy": 27.0, 
			 "cosmo_dispersion_energy": -20.13, 
			 "cosmo_repulsion_energy": 1.56, 
			 "cosmo_total_nonelectrostatic_energy": 8.42, 
			 "SMD_solvation_energy": 5.36 
		},
		"coords": [
			{
				"x": -1.9853898172,
				"y": 1.2040080005,
				"z": 2.4861764155,
				"element": "N" 
			},
			{
				"x": -1.4891240327,
				"y": 0.9143592938,
				"z": 1.2195229156,
				"element": "C" 
			},
			{
				"x": -0.160378836,
				"y": 1.1159126496,
				"z": 0.8820897713,
				"element": "C" 
			},
			{
				"x": 0.3190808004,
				"y": 0.8476972758,
				"z": -0.4228861237,
				"element": "C" 
			},
			{
				"x": -0.5783948335,
				"y": 0.3750554471,
				"z": -1.4415801412,
				"element": "C" 
			},
			{
				"x": -0.0349740052,
				"y": 0.0346241609,
				"z": -2.7136276031,
				"element": "C" 
			},
			{
				"x": 1.3060489558,
				"y": 0.2036626482,
				"z": -2.9857641877,
				"element": "C" 
			},
			{
				"x": 2.1773552506,
				"y": 0.7138414365,
				"z": -1.9962930374,
				"element": "C" 
			},
			{
				"x": 1.6945286567,
				"y": 1.0180313338,
				"z": -0.7445070372,
				"element": "C" 
			},
			{
				"x": -1.9612316394,
				"y": 0.2275260347,
				"z": -1.0824158065,
				"element": "C" 
			},
			{
				"x": -2.380765267,
				"y": 0.4639563306,
				"z": 0.2098506388,
				"element": "C" 
			},
			{
				"x": -3.0507642337,
				"y": -0.1629010333,
				"z": -2.0434047026,
				"element": "C" 
			},
			{
				"x": -2.9566592949,
				"y": 0.3329715228,
				"z": -3.3079174944,
				"element": "O" 
			},
			{
				"x": -4.004267945,
				"y": -0.8376265235,
				"z": -1.7342440182,
				"element": "O" 
			},
			{
				"x": -1.3029665053,
				"y": 1.228784946,
				"z": 3.2306066971,
				"element": "H" 
			},
			{
				"x": -2.8273556077,
				"y": 0.7116717076,
				"z": 2.7496287581,
				"element": "H" 
			},
			{
				"x": 0.5410036874,
				"y": 1.4776315704,
				"z": 1.6305222088,
				"element": "H" 
			},
			{
				"x": -0.6746513388,
				"y": -0.4022534303,
				"z": -3.4732743332,
				"element": "H" 
			},
			{
				"x": 1.6962896586,
				"y": -0.0695586002,
				"z": -3.9614935855,
				"element": "H" 
			},
			{
				"x": 3.2313102947,
				"y": 0.8479895956,
				"z": -2.2215693407,
				"element": "H" 
			},
			{
				"x": 2.3647182192,
				"y": 1.3865965993,
				"z": 0.0277324483,
				"element": "H" 
			},
			{
				"x": -3.4308847457,
				"y": 0.3165134669,
				"z": 0.4440489252,
				"element": "H" 
			},
			{
				"x": -2.2084274212,
				"y": 0.9456055674,
				"z": -3.3635013671,
				"element": "H" 
			}
		],
		 "valence_orbital": [ 
			{
				"type": "occ",
				"energy": -0.3025,
				"method": "rhf"
			},
			{
				"type": "occ",
				"energy": -0.2851,
				"method": "rhf"
			},
			{
				"type": "occ",
				"energy": -0.26851,
				"method": "rhf"
			},
			{
				"type": "occ",
				"energy": -0.23887,
				"method": "rhf"
			},
			{
				"type": "occ",
				"energy": -0.20778,
				"method": "rhf"
			},
			{
				"type": "unocc",
				"energy": -0.05747,
				"method": "rhf"
			},
			{
				"type": "unocc",
				"energy": -0.01349,
				"method": "rhf"
			},
			{
				"type": "unocc",
				"energy": -0.00488,
				"method": "rhf"
			},
			{
				"type": "unocc",
				"energy": 0.05156,
				"method": "rhf"
			},
			{
				"type": "unocc",
				"energy": 0.07114,
				"method": "rhf"
			}
		],
		"cosmo_sigma_profile": { 
			"-0.025": 0.0,
			"-0.024": 0.0,
			"-0.023": 0.0,
			"-0.022": 0.0,
			"-0.021": 0.0,
			"-0.02": 0.0,
			"-0.019": 0.0,
			"-0.018": 0.0,
			"-0.017": 0.156422713917,
			"-0.016": 0.823613724189,
			"-0.015": 0.803350409297,
			"-0.014": 0.908117836574,
			"-0.013": 1.97196626992,
			"-0.012": 3.66904341254,
			"-0.011": 4.73384056627,
			"-0.01": 4.34031643087,
			"-0.009": 4.01800588772,
			"-0.008": 3.69466712588,
			"-0.007": 4.06713735766,
			"-0.006": 12.434949495,
			"-0.005": 12.9285731807,
			"-0.004": 13.9983314612,
			"-0.003": 12.416136735,
			"-0.002": 8.99077548335,
			"-0.001": 10.1128479402,
			"0.0": 8.95805970893,
			"0.001": 10.8649301139,
			"0.002": 12.5912553746,
			"0.003": 18.6766071272,
			"0.004": 18.6429131763,
			"0.005": 11.8071782316,
			"0.006": 4.0019071538,
			"0.007": 3.32675000783,
			"0.008": 3.87289877906,
			"0.009": 3.37158902094,
			"0.01": 6.00612643826,
			"0.011": 5.61938676994,
			"0.012": 5.37943111171,
			"0.013": 2.52450289551,
			"0.014": 0.120974323089,
			"0.015": 0.0,
			"0.016": 0.0,
			"0.017": 0.0,
			"0.018": 0.0,
			"0.019": 0.0,
			"0.02": 0.0,
			"0.021": 0.0,
			"0.022": 0.0,
			"0.023": 0.0,
			"0.024": 0.0,
			"0.025": 0.0
		}
	}
}
