{
	 "smiles": "COC1=CC=C(NC(=O)C(C)Cl)C=C1", 
	 "Tm": 407.15, 
	 "num_atms": 26, 
	 "gaussian": { 
		 "optdone": 1, 
		 "sigma_profile": "yes", 
		 "theory": "DFT", 
		 "functional": "B3LYP", 
		 "basiset": "6-31G**", 
		 "properties": { 
			 "R2extent": 4969.0916, 
			 "electric_dipole_moment_norm": 0.946677268133, 
			 "electric_quadrupole_moment_norm": 10.3524493952, 
			 "total_energy": -1053.70246652, 
			 "HOMO_LUMO_gap": 0.19294, 
			 "cosmo_polarized_energy": -11.16, 
			 "cosmo_cavitation_energy": 31.37, 
			 "cosmo_dispersion_energy": -23.09, 
			 "cosmo_repulsion_energy": 1.82, 
			 "cosmo_total_nonelectrostatic_energy": 10.1, 
			 "SMD_solvation_energy": 6.24 
		},
		"coords": [
			{
				"x": 0.0332524676,
				"y": 4.8994993571,
				"z": -1.8663632472,
				"element": "C" 
			},
			{
				"x": 0.264330824,
				"y": 4.5010697458,
				"z": -0.5251201451,
				"element": "O" 
			},
			{
				"x": 0.1287192774,
				"y": 3.1776143458,
				"z": -0.2149436738,
				"element": "C" 
			},
			{
				"x": -0.2224861252,
				"y": 2.1730709381,
				"z": -1.1219988532,
				"element": "C" 
			},
			{
				"x": -0.3353708739,
				"y": 0.8439206952,
				"z": -0.7042825375,
				"element": "C" 
			},
			{
				"x": -0.0969250622,
				"y": 0.506344823,
				"z": 0.6318681196,
				"element": "C" 
			},
			{
				"x": -0.1880662934,
				"y": -0.8139941187,
				"z": 1.1354517268,
				"element": "N" 
			},
			{
				"x": -0.5217165313,
				"y": -1.9487242667,
				"z": 0.469110629,
				"element": "C" 
			},
			{
				"x": -0.8044457057,
				"y": -2.0290125481,
				"z": -0.7220751301,
				"element": "O" 
			},
			{
				"x": -0.5332087967,
				"y": -3.269449722,
				"z": 1.264882462,
				"element": "C" 
			},
			{
				"x": 0.4870515269,
				"y": -4.2545695119,
				"z": 0.7024367554,
				"element": "C" 
			},
			{
				"x": -0.2778649561,
				"y": -3.0761204037,
				"z": 3.0771421731,
				"element": "Cl" 
			},
			{
				"x": 0.2554658119,
				"y": 1.5191631009,
				"z": 1.5398616157,
				"element": "C" 
			},
			{
				"x": 0.3675324545,
				"y": 2.8370568348,
				"z": 1.1246282238,
				"element": "C" 
			},
			{
				"x": 0.732766029,
				"y": 4.4149346553,
				"z": -2.5600476227,
				"element": "H" 
			},
			{
				"x": -0.9943446201,
				"y": 4.6793291583,
				"z": -2.183951309,
				"element": "H" 
			},
			{
				"x": 0.1927156731,
				"y": 5.9786195116,
				"z": -1.8927708063,
				"element": "H" 
			},
			{
				"x": -0.4134146682,
				"y": 2.4053504427,
				"z": -2.1629834092,
				"element": "H" 
			},
			{
				"x": -0.6078372873,
				"y": 0.0700708654,
				"z": -1.4079636943,
				"element": "H" 
			},
			{
				"x": 0.0032838588,
				"y": -0.9243835114,
				"z": 2.1227618044,
				"element": "H" 
			},
			{
				"x": -1.5436092335,
				"y": -3.6722214,
				"z": 1.1763538212,
				"element": "H" 
			},
			{
				"x": 1.5064376695,
				"y": -3.8879042052,
				"z": 0.8505586058,
				"element": "H" 
			},
			{
				"x": 0.3025735303,
				"y": -4.3609717272,
				"z": -0.3694379477,
				"element": "H" 
			},
			{
				"x": 0.3895100613,
				"y": -5.2292787104,
				"z": 1.1849027649,
				"element": "H" 
			},
			{
				"x": 0.4434346311,
				"y": 1.2700490393,
				"z": 2.5817625514,
				"element": "H" 
			},
			{
				"x": 0.6393163382,
				"y": 3.6222366122,
				"z": 1.8221171231,
				"element": "H" 
			}
		],
		 "valence_orbital": [ 
			{
				"type": "occ",
				"energy": -0.30987,
				"method": "rhf"
			},
			{
				"type": "occ",
				"energy": -0.2851,
				"method": "rhf"
			},
			{
				"type": "occ",
				"energy": -0.25932,
				"method": "rhf"
			},
			{
				"type": "occ",
				"energy": -0.25437,
				"method": "rhf"
			},
			{
				"type": "occ",
				"energy": -0.20504,
				"method": "rhf"
			},
			{
				"type": "unocc",
				"energy": -0.0121,
				"method": "rhf"
			},
			{
				"type": "unocc",
				"energy": -0.00429,
				"method": "rhf"
			},
			{
				"type": "unocc",
				"energy": 0.00918,
				"method": "rhf"
			},
			{
				"type": "unocc",
				"energy": 0.04641,
				"method": "rhf"
			},
			{
				"type": "unocc",
				"energy": 0.08707,
				"method": "rhf"
			}
		],
		"cosmo_sigma_profile": { 
			"-0.025": 0.0,
			"-0.024": 0.0,
			"-0.023": 0.0,
			"-0.022": 0.0,
			"-0.021": 0.0,
			"-0.02": 0.0,
			"-0.019": 0.0,
			"-0.018": 0.0,
			"-0.017": 0.0,
			"-0.016": 0.0,
			"-0.015": 0.0,
			"-0.014": 0.0,
			"-0.013": 0.263394067304,
			"-0.012": 1.29584136675,
			"-0.011": 0.578762428818,
			"-0.01": 1.50579060936,
			"-0.009": 1.7335068783,
			"-0.008": 3.73932304085,
			"-0.007": 4.45497773331,
			"-0.006": 11.7513388886,
			"-0.005": 21.9396730508,
			"-0.004": 22.7089872515,
			"-0.003": 22.3764009152,
			"-0.002": 16.5193628711,
			"-0.001": 17.7972057722,
			"0.0": 14.162362421,
			"0.001": 13.1167954205,
			"0.002": 14.7786697615,
			"0.003": 17.6652037618,
			"0.004": 18.3748904567,
			"0.005": 19.7970629554,
			"0.006": 8.01308637398,
			"0.007": 2.47924127781,
			"0.008": 2.7987227901,
			"0.009": 2.89031963844,
			"0.01": 3.22383661008,
			"0.011": 2.51366266692,
			"0.012": 2.68158147631,
			"0.013": 1.99429681102,
			"0.014": 0.106892401561,
			"0.015": 0.0,
			"0.016": 0.0,
			"0.017": 0.0,
			"0.018": 0.0,
			"0.019": 0.0,
			"0.02": 0.0,
			"0.021": 0.0,
			"0.022": 0.0,
			"0.023": 0.0,
			"0.024": 0.0,
			"0.025": 0.0
		}
	}
}
