{
	 "smiles": "CC1=CC2=C(C=C1)N=C(S2)C1=CC=C(N)C=C1", 
	 "Tm": 468.15, 
	 "num_atms": 29, 
	 "gaussian": { 
		 "optdone": 1, 
		 "sigma_profile": "yes", 
		 "theory": "DFT", 
		 "functional": "B3LYP", 
		 "basiset": "6-31G**", 
		 "properties": { 
			 "R2extent": 6843.3081, 
			 "electric_dipole_moment_norm": 2.63416461331, 
			 "electric_quadrupole_moment_norm": 25.1216975722, 
			 "total_energy": -1048.44240186, 
			 "HOMO_LUMO_gap": 0.15096, 
			 "cosmo_polarized_energy": -12.76, 
			 "cosmo_cavitation_energy": 34.48, 
			 "cosmo_dispersion_energy": -26.11, 
			 "cosmo_repulsion_energy": 1.95, 
			 "cosmo_total_nonelectrostatic_energy": 10.32, 
			 "SMD_solvation_energy": 3.78 
		},
		"coords": [
			{
				"x": 3.5233104664,
				"y": 2.9450913509,
				"z": 5.0399191452,
				"element": "C" 
			},
			{
				"x": 2.4332038578,
				"y": 2.3573690765,
				"z": 4.1740162704,
				"element": "C" 
			},
			{
				"x": 2.6584479945,
				"y": 2.0961493395,
				"z": 2.820426901,
				"element": "C" 
			},
			{
				"x": 1.6274733857,
				"y": 1.5521273644,
				"z": 2.0514340474,
				"element": "C" 
			},
			{
				"x": 0.3605970464,
				"y": 1.2590500403,
				"z": 2.609248702,
				"element": "C" 
			},
			{
				"x": 0.1407227362,
				"y": 1.5240518367,
				"z": 3.9702562286,
				"element": "C" 
			},
			{
				"x": 1.1683056097,
				"y": 2.0645534859,
				"z": 4.7298600028,
				"element": "C" 
			},
			{
				"x": -0.5671319343,
				"y": 0.7247561046,
				"z": 1.7370939466,
				"element": "N" 
			},
			{
				"x": -0.0851550763,
				"y": 0.589404055,
				"z": 0.5369943559,
				"element": "C" 
			},
			{
				"x": 1.6192993159,
				"y": 1.1244648043,
				"z": 0.3530106381,
				"element": "S" 
			},
			{
				"x": -0.8367891312,
				"y": 0.0500081292,
				"z": -0.5953281827,
				"element": "C" 
			},
			{
				"x": -2.1685840662,
				"y": -0.3662185374,
				"z": -0.4040357974,
				"element": "C" 
			},
			{
				"x": -2.9160655316,
				"y": -0.8796620243,
				"z": -1.4513802303,
				"element": "C" 
			},
			{
				"x": -2.3614632528,
				"y": -0.9996303924,
				"z": -2.7412477011,
				"element": "C" 
			},
			{
				"x": -3.0922434146,
				"y": -1.5614571113,
				"z": -3.7791184124,
				"element": "N" 
			},
			{
				"x": -1.0307823228,
				"y": -0.5856471707,
				"z": -2.9369733388,
				"element": "C" 
			},
			{
				"x": -0.287892236,
				"y": -0.0725407042,
				"z": -1.8826994412,
				"element": "C" 
			},
			{
				"x": 4.4390162608,
				"y": 3.1191971809,
				"z": 4.4682595491,
				"element": "H" 
			},
			{
				"x": 3.2144958987,
				"y": 3.9026725326,
				"z": 5.4753944926,
				"element": "H" 
			},
			{
				"x": 3.7725816246,
				"y": 2.2792998011,
				"z": 5.8745595222,
				"element": "H" 
			},
			{
				"x": 3.6257251918,
				"y": 2.3155808373,
				"z": 2.3777896485,
				"element": "H" 
			},
			{
				"x": -0.8287474326,
				"y": 1.3014946978,
				"z": 4.4041188111,
				"element": "H" 
			},
			{
				"x": 0.9990599385,
				"y": 2.2700540832,
				"z": 5.7839429321,
				"element": "H" 
			},
			{
				"x": -2.6010985016,
				"y": -0.2737761188,
				"z": 0.5861208716,
				"element": "H" 
			},
			{
				"x": -3.9413576673,
				"y": -1.1979192536,
				"z": -1.2791905676,
				"element": "H" 
			},
			{
				"x": -2.7851212346,
				"y": -1.3371002836,
				"z": -4.7145977297,
				"element": "H" 
			},
			{
				"x": -4.0969175618,
				"y": -1.5410669963,
				"z": -3.6789853981,
				"element": "H" 
			},
			{
				"x": -0.5817647944,
				"y": -0.6729664674,
				"z": -3.92301349,
				"element": "H" 
			},
			{
				"x": 0.7356748311,
				"y": 0.2398603399,
				"z": -2.0707757759,
				"element": "H" 
			}
		],
		 "valence_orbital": [ 
			{
				"type": "occ",
				"energy": -0.26354,
				"method": "rhf"
			},
			{
				"type": "occ",
				"energy": -0.25383,
				"method": "rhf"
			},
			{
				"type": "occ",
				"energy": -0.23782,
				"method": "rhf"
			},
			{
				"type": "occ",
				"energy": -0.22437,
				"method": "rhf"
			},
			{
				"type": "occ",
				"energy": -0.19359,
				"method": "rhf"
			},
			{
				"type": "unocc",
				"energy": -0.04263,
				"method": "rhf"
			},
			{
				"type": "unocc",
				"energy": -0.00305,
				"method": "rhf"
			},
			{
				"type": "unocc",
				"energy": 0.00384,
				"method": "rhf"
			},
			{
				"type": "unocc",
				"energy": 0.02218,
				"method": "rhf"
			},
			{
				"type": "unocc",
				"energy": 0.02331,
				"method": "rhf"
			}
		],
		"cosmo_sigma_profile": { 
			"-0.025": 0.0,
			"-0.024": 0.0,
			"-0.023": 0.0,
			"-0.022": 0.0,
			"-0.021": 0.0,
			"-0.02": 0.0,
			"-0.019": 0.0,
			"-0.018": 0.0,
			"-0.017": 0.0,
			"-0.016": 0.0,
			"-0.015": 0.0,
			"-0.014": 0.00575840317673,
			"-0.013": 1.90488797378,
			"-0.012": 2.56721580545,
			"-0.011": 2.92260844739,
			"-0.01": 3.87333959703,
			"-0.009": 2.89294680514,
			"-0.008": 3.12723952355,
			"-0.007": 4.62797359875,
			"-0.006": 10.3166168431,
			"-0.005": 15.0447779158,
			"-0.004": 18.9138372588,
			"-0.003": 18.612788337,
			"-0.002": 18.464249859,
			"-0.001": 17.6758321084,
			"0.0": 18.932824809,
			"0.001": 20.9237141232,
			"0.002": 22.0507163061,
			"0.003": 23.975453821,
			"0.004": 26.5270135976,
			"0.005": 25.635609572,
			"0.006": 5.55900777373,
			"0.007": 3.14044467981,
			"0.008": 1.58165306958,
			"0.009": 2.99771215272,
			"0.01": 1.97932754517,
			"0.011": 0.896935863721,
			"0.012": 2.20706379604,
			"0.013": 0.486005326064,
			"0.014": 0.0,
			"0.015": 0.0,
			"0.016": 0.0,
			"0.017": 0.0,
			"0.018": 0.0,
			"0.019": 0.0,
			"0.02": 0.0,
			"0.021": 0.0,
			"0.022": 0.0,
			"0.023": 0.0,
			"0.024": 0.0,
			"0.025": 0.0
		}
	}
}
