{
	 "smiles": "OC(=O)CC1=C(C=C2OCCOC2=C1)[N+]([O-])=O", 
	 "Tm": 493.15, 
	 "num_atms": 26, 
	 "gaussian": { 
		 "optdone": 1, 
		 "sigma_profile": "yes", 
		 "theory": "DFT", 
		 "functional": "B3LYP", 
		 "basiset": "6-31G**", 
		 "properties": { 
			 "R2extent": 4673.5937, 
			 "electric_dipole_moment_norm": 6.19095375043, 
			 "electric_quadrupole_moment_norm": 18.427005016, 
			 "total_energy": -892.477251119, 
			 "HOMO_LUMO_gap": 0.15522, 
			 "cosmo_polarized_energy": -18.62, 
			 "cosmo_cavitation_energy": 30.83, 
			 "cosmo_dispersion_energy": -22.73, 
			 "cosmo_repulsion_energy": 1.76, 
			 "cosmo_total_nonelectrostatic_energy": 9.86, 
			 "SMD_solvation_energy": 8.55 
		},
		"coords": [
			{
				"x": 1.2258198023,
				"y": -0.6473186725,
				"z": 4.7017241131,
				"element": "O" 
			},
			{
				"x": 1.0726969983,
				"y": 0.0746513562,
				"z": 3.5687043887,
				"element": "C" 
			},
			{
				"x": 1.1316571652,
				"y": 1.2820215591,
				"z": 3.5410994719,
				"element": "O" 
			},
			{
				"x": 0.8880643611,
				"y": -0.8425867556,
				"z": 2.3690344812,
				"element": "C" 
			},
			{
				"x": 0.400328598,
				"y": -0.1193037884,
				"z": 1.1365395098,
				"element": "C" 
			},
			{
				"x": -0.8959278802,
				"y": 0.4114574786,
				"z": 0.9589000949,
				"element": "C" 
			},
			{
				"x": -1.2679606066,
				"y": 1.0765969617,
				"z": -0.211269932,
				"element": "C" 
			},
			{
				"x": -0.361243941,
				"y": 1.2239013368,
				"z": -1.2495904654,
				"element": "C" 
			},
			{
				"x": -0.7498761309,
				"y": 1.8913528119,
				"z": -2.3803293317,
				"element": "O" 
			},
			{
				"x": 0.3451341305,
				"y": 2.3181597803,
				"z": -3.1941724013,
				"element": "C" 
			},
			{
				"x": 1.3341038635,
				"y": 1.1792985412,
				"z": -3.3761637208,
				"element": "C" 
			},
			{
				"x": 1.8587706662,
				"y": 0.7689803668,
				"z": -2.106952117,
				"element": "O" 
			},
			{
				"x": 0.9298036698,
				"y": 0.6806856512,
				"z": -1.1141554484,
				"element": "C" 
			},
			{
				"x": 1.2860901394,
				"y": 0.0321455195,
				"z": 0.0687410889,
				"element": "C" 
			},
			{
				"x": -1.9341710766,
				"y": 0.3042580136,
				"z": 1.9892710501,
				"element": "N" 
			},
			{
				"x": -3.0558855822,
				"y": 0.7376015417,
				"z": 1.7244202318,
				"element": "O" 
			},
			{
				"x": -1.6431716311,
				"y": -0.2198326856,
				"z": 3.0689406248,
				"element": "O" 
			},
			{
				"x": 1.3530601118,
				"y": -0.0018556039,
				"z": 5.4170704238,
				"element": "H" 
			},
			{
				"x": 0.220941097,
				"y": -1.6534466057,
				"z": 2.6650057087,
				"element": "H" 
			},
			{
				"x": 1.8663439505,
				"y": -1.2904696482,
				"z": 2.1568179573,
				"element": "H" 
			},
			{
				"x": -2.2660219529,
				"y": 1.4835273722,
				"z": -0.3033176723,
				"element": "H" 
			},
			{
				"x": -0.082228695,
				"y": 2.626954401,
				"z": -4.1507886988,
				"element": "H" 
			},
			{
				"x": 0.8419240727,
				"y": 3.1793595785,
				"z": -2.727893742,
				"element": "H" 
			},
			{
				"x": 2.1927664131,
				"y": 1.4870661832,
				"z": -3.9771571333,
				"element": "H" 
			},
			{
				"x": 0.8426047428,
				"y": 0.3261995468,
				"z": -3.8611045397,
				"element": "H" 
			},
			{
				"x": 2.2936777142,
				"y": -0.3647042404,
				"z": 0.1377260575,
				"element": "H" 
			}
		],
		 "valence_orbital": [ 
			{
				"type": "occ",
				"energy": -0.30063,
				"method": "rhf"
			},
			{
				"type": "occ",
				"energy": -0.28239,
				"method": "rhf"
			},
			{
				"type": "occ",
				"energy": -0.27315,
				"method": "rhf"
			},
			{
				"type": "occ",
				"energy": -0.25932,
				"method": "rhf"
			},
			{
				"type": "occ",
				"energy": -0.23646,
				"method": "rhf"
			},
			{
				"type": "unocc",
				"energy": -0.08124,
				"method": "rhf"
			},
			{
				"type": "unocc",
				"energy": -0.01929,
				"method": "rhf"
			},
			{
				"type": "unocc",
				"energy": 0.00783,
				"method": "rhf"
			},
			{
				"type": "unocc",
				"energy": 0.02064,
				"method": "rhf"
			},
			{
				"type": "unocc",
				"energy": 0.06524,
				"method": "rhf"
			}
		],
		"cosmo_sigma_profile": { 
			"-0.025": 0.0,
			"-0.024": 0.0,
			"-0.023": 0.0,
			"-0.022": 0.0,
			"-0.021": 0.0,
			"-0.02": 0.0,
			"-0.019": 0.0792320545107,
			"-0.018": 0.683784672396,
			"-0.017": 1.23708882034,
			"-0.016": 0.496460778543,
			"-0.015": 0.807634686062,
			"-0.014": 0.874102609747,
			"-0.013": 0.356599641556,
			"-0.012": 0.706655388675,
			"-0.011": 0.829415154573,
			"-0.01": 1.06351380918,
			"-0.009": 1.70022284334,
			"-0.008": 8.71911938861,
			"-0.007": 16.2152465204,
			"-0.006": 19.0898665902,
			"-0.005": 16.7211451478,
			"-0.004": 14.6994730477,
			"-0.003": 11.0637334909,
			"-0.002": 10.0510220009,
			"-0.001": 13.7651538855,
			"0.0": 16.7205797907,
			"0.001": 16.7282745946,
			"0.002": 10.133440042,
			"0.003": 9.02987696959,
			"0.004": 7.65715778034,
			"0.005": 8.2259903231,
			"0.006": 10.0431146959,
			"0.007": 11.0928507338,
			"0.008": 10.6038219868,
			"0.009": 10.7414930281,
			"0.01": 6.52748361884,
			"0.011": 4.39572759697,
			"0.012": 4.00437397048,
			"0.013": 0.228974052895,
			"0.014": 0.0,
			"0.015": 0.0,
			"0.016": 0.0,
			"0.017": 0.0,
			"0.018": 0.0,
			"0.019": 0.0,
			"0.02": 0.0,
			"0.021": 0.0,
			"0.022": 0.0,
			"0.023": 0.0,
			"0.024": 0.0,
			"0.025": 0.0
		}
	}
}
