{
	 "smiles": "[O-][N+](=O)C1=C(C=CC(NCC2CC2)=C1)S(=O)(=O)NCC1CC1", 
	 "Tm": 406.15, 
	 "num_atms": 41, 
	 "gaussian": { 
		 "optdone": 1, 
		 "sigma_profile": "yes", 
		 "theory": "DFT", 
		 "functional": "B3LYP", 
		 "basiset": "6-31G**", 
		 "properties": { 
			 "R2extent": 11861.9121, 
			 "electric_dipole_moment_norm": 9.3335991177, 
			 "electric_quadrupole_moment_norm": 31.7473338923, 
			 "total_energy": -1408.04183886, 
			 "HOMO_LUMO_gap": 0.13346, 
			 "cosmo_polarized_energy": -21.54, 
			 "cosmo_cavitation_energy": 45.56, 
			 "cosmo_dispersion_energy": -32.02, 
			 "cosmo_repulsion_energy": 2.43, 
			 "cosmo_total_nonelectrostatic_energy": 15.97, 
			 "SMD_solvation_energy": 6.73 
		},
		"coords": [
			{
				"x": -2.7227621715,
				"y": -1.1204472036,
				"z": 1.8286659009,
				"element": "O" 
			},
			{
				"x": -2.5286163221,
				"y": -0.0676354381,
				"z": 1.219644958,
				"element": "N" 
			},
			{
				"x": -2.98557799,
				"y": 1.0193054155,
				"z": 1.5550733374,
				"element": "O" 
			},
			{
				"x": -1.6335234561,
				"y": -0.0988728717,
				"z": 0.0445887133,
				"element": "C" 
			},
			{
				"x": -1.5466499125,
				"y": -1.2034244219,
				"z": -0.8175018859,
				"element": "C" 
			},
			{
				"x": -0.6259576399,
				"y": -1.1096808258,
				"z": -1.8703701256,
				"element": "C" 
			},
			{
				"x": 0.1821849329,
				"y": 0.0029645521,
				"z": -2.0393943094,
				"element": "C" 
			},
			{
				"x": 0.0868643457,
				"y": 1.1105053788,
				"z": -1.1692383294,
				"element": "C" 
			},
			{
				"x": 0.903910934,
				"y": 2.1996556492,
				"z": -1.3372560642,
				"element": "N" 
			},
			{
				"x": 0.7309377586,
				"y": 3.4652766809,
				"z": -0.6338837493,
				"element": "C" 
			},
			{
				"x": 1.8221245581,
				"y": 4.4337232554,
				"z": -1.0268072564,
				"element": "C" 
			},
			{
				"x": 1.5570017288,
				"y": 5.9163487343,
				"z": -0.9950727125,
				"element": "C" 
			},
			{
				"x": 1.7066419168,
				"y": 5.212860727,
				"z": -2.3210037938,
				"element": "C" 
			},
			{
				"x": -0.8545901189,
				"y": 1.0398210955,
				"z": -0.1230715346,
				"element": "C" 
			},
			{
				"x": -2.6395090774,
				"y": -2.652369583,
				"z": -0.8274022211,
				"element": "S" 
			},
			{
				"x": -3.9975235989,
				"y": -2.1739668281,
				"z": -0.5867648856,
				"element": "O" 
			},
			{
				"x": -2.2861142977,
				"y": -3.3908576805,
				"z": -2.0430277444,
				"element": "O" 
			},
			{
				"x": -2.2292175683,
				"y": -3.6320556417,
				"z": 0.4597019667,
				"element": "N" 
			},
			{
				"x": -0.9414953389,
				"y": -4.3398077889,
				"z": 0.4572184272,
				"element": "C" 
			},
			{
				"x": -1.01146823,
				"y": -5.6466482719,
				"z": 1.2333777908,
				"element": "C" 
			},
			{
				"x": -2.1791801912,
				"y": -6.5854897024,
				"z": 1.0937101402,
				"element": "C" 
			},
			{
				"x": -1.9479635408,
				"y": -5.8588286285,
				"z": 2.3986472322,
				"element": "C" 
			},
			{
				"x": -0.5753899543,
				"y": -1.9322836351,
				"z": -2.5742244254,
				"element": "H" 
			},
			{
				"x": 0.8903614432,
				"y": 0.0306013674,
				"z": -2.8632375155,
				"element": "H" 
			},
			{
				"x": 1.3736574893,
				"y": 2.2694148349,
				"z": -2.2288965934,
				"element": "H" 
			},
			{
				"x": -0.2558519096,
				"y": 3.9091589406,
				"z": -0.8454814393,
				"element": "H" 
			},
			{
				"x": 0.7725262432,
				"y": 3.2807503459,
				"z": 0.4471798653,
				"element": "H" 
			},
			{
				"x": 2.822791448,
				"y": 4.1140828531,
				"z": -0.7433702008,
				"element": "H" 
			},
			{
				"x": 2.3572547316,
				"y": 6.5696674374,
				"z": -0.6627939907,
				"element": "H" 
			},
			{
				"x": 0.5639795837,
				"y": 6.250501212,
				"z": -0.708231084,
				"element": "H" 
			},
			{
				"x": 2.608175295,
				"y": 5.387486383,
				"z": -2.8998540501,
				"element": "H" 
			},
			{
				"x": 0.8109952785,
				"y": 5.0750805394,
				"z": -2.921177366,
				"element": "H" 
			},
			{
				"x": -0.9967555789,
				"y": 1.8592251361,
				"z": 0.5676418321,
				"element": "H" 
			},
			{
				"x": -2.4426074609,
				"y": -3.1356407021,
				"z": 1.3206711257,
				"element": "H" 
			},
			{
				"x": -0.6912176147,
				"y": -4.5530070611,
				"z": -0.5856737506,
				"element": "H" 
			},
			{
				"x": -0.1444895364,
				"y": -3.7040945983,
				"z": 0.8719443028,
				"element": "H" 
			},
			{
				"x": -0.0311985678,
				"y": -6.110639387,
				"z": 1.3284025899,
				"element": "H" 
			},
			{
				"x": -1.9797777135,
				"y": -7.6518335625,
				"z": 1.0480246419,
				"element": "H" 
			},
			{
				"x": -3.0133984801,
				"y": -6.2497617602,
				"z": 0.4858648507,
				"element": "H" 
			},
			{
				"x": -1.5794549125,
				"y": -6.4195279216,
				"z": 3.252449704,
				"element": "H" 
			},
			{
				"x": -2.6501165046,
				"y": -5.0715570243,
				"z": 2.6562276491,
				"element": "H" 
			}
		],
		 "valence_orbital": [ 
			{
				"type": "occ",
				"energy": -0.29081,
				"method": "rhf"
			},
			{
				"type": "occ",
				"energy": -0.28316,
				"method": "rhf"
			},
			{
				"type": "occ",
				"energy": -0.28161,
				"method": "rhf"
			},
			{
				"type": "occ",
				"energy": -0.26602,
				"method": "rhf"
			},
			{
				"type": "occ",
				"energy": -0.2292,
				"method": "rhf"
			},
			{
				"type": "unocc",
				"energy": -0.09574,
				"method": "rhf"
			},
			{
				"type": "unocc",
				"energy": -0.02825,
				"method": "rhf"
			},
			{
				"type": "unocc",
				"energy": -0.01839,
				"method": "rhf"
			},
			{
				"type": "unocc",
				"energy": 0.04918,
				"method": "rhf"
			},
			{
				"type": "unocc",
				"energy": 0.06838,
				"method": "rhf"
			}
		],
		"cosmo_sigma_profile": { 
			"-0.025": 0.0,
			"-0.024": 0.0,
			"-0.023": 0.0,
			"-0.022": 0.0,
			"-0.021": 0.0,
			"-0.02": 0.0,
			"-0.019": 0.0,
			"-0.018": 0.0,
			"-0.017": 0.0,
			"-0.016": 0.0,
			"-0.015": 0.0,
			"-0.014": 0.0758069403172,
			"-0.013": 1.28055986775,
			"-0.012": 0.970718415689,
			"-0.011": 1.1929368659,
			"-0.01": 1.81640005886,
			"-0.009": 2.90964298039,
			"-0.008": 4.4868877467,
			"-0.007": 7.37488654406,
			"-0.006": 10.1289328927,
			"-0.005": 23.441516414,
			"-0.004": 36.5371944681,
			"-0.003": 36.4260128758,
			"-0.002": 30.0244466482,
			"-0.001": 27.4913765876,
			"0.0": 30.6155718388,
			"0.001": 30.4482428905,
			"0.002": 19.77192337,
			"0.003": 14.7514886321,
			"0.004": 15.0709947373,
			"0.005": 10.9790577118,
			"0.006": 9.92562072491,
			"0.007": 11.3151809537,
			"0.008": 8.71483008168,
			"0.009": 5.55963234588,
			"0.01": 7.53523671504,
			"0.011": 8.27572123732,
			"0.012": 3.15026515886,
			"0.013": 0.0,
			"0.014": 0.0,
			"0.015": 0.0,
			"0.016": 0.0,
			"0.017": 0.0,
			"0.018": 0.0,
			"0.019": 0.0,
			"0.02": 0.0,
			"0.021": 0.0,
			"0.022": 0.0,
			"0.023": 0.0,
			"0.024": 0.0,
			"0.025": 0.0
		}
	}
}
