{
	 "smiles": "C1=CC=C(C=C1)C1=NN=C(N=C1C1=CC=CC=C1)C1=CC=CC=N1", 
	 "Tm": 465.15, 
	 "num_atms": 38, 
	 "gaussian": { 
		 "optdone": 1, 
		 "sigma_profile": "yes", 
		 "theory": "DFT", 
		 "functional": "B3LYP", 
		 "basiset": "6-31G**", 
		 "properties": { 
			 "R2extent": 10623.1253, 
			 "electric_dipole_moment_norm": 4.38350187179, 
			 "electric_quadrupole_moment_norm": 30.0930842223, 
			 "total_energy": -989.533677502, 
			 "HOMO_LUMO_gap": 0.15047, 
			 "cosmo_polarized_energy": -17.11, 
			 "cosmo_cavitation_energy": 43.14, 
			 "cosmo_dispersion_energy": -30.43, 
			 "cosmo_repulsion_energy": 2.29, 
			 "cosmo_total_nonelectrostatic_energy": 15.01, 
			 "SMD_solvation_energy": 3.41 
		},
		"coords": [
			{
				"x": -4.3248804053,
				"y": 1.0665695437,
				"z": 1.2790026981,
				"element": "C" 
			},
			{
				"x": -3.236930454,
				"y": 1.9047130593,
				"z": 1.0247274056,
				"element": "C" 
			},
			{
				"x": -1.9354003162,
				"y": 1.4270760641,
				"z": 1.1649755441,
				"element": "C" 
			},
			{
				"x": -1.7031645067,
				"y": 0.1011130032,
				"z": 1.5666695924,
				"element": "C" 
			},
			{
				"x": -2.8034148885,
				"y": -0.7291096613,
				"z": 1.8383846501,
				"element": "C" 
			},
			{
				"x": -4.103321032,
				"y": -0.2504684774,
				"z": 1.6874811862,
				"element": "C" 
			},
			{
				"x": -0.3285216774,
				"y": -0.4112990248,
				"z": 1.7862754377,
				"element": "C" 
			},
			{
				"x": -0.1934122813,
				"y": -1.2458654072,
				"z": 2.8323313352,
				"element": "N" 
			},
			{
				"x": 0.9954854755,
				"y": -1.6517180952,
				"z": 3.2411408636,
				"element": "N" 
			},
			{
				"x": 2.0724789474,
				"y": -1.1222537365,
				"z": 2.6320796774,
				"element": "C" 
			},
			{
				"x": 2.0204183845,
				"y": -0.4031622442,
				"z": 1.5036430601,
				"element": "N" 
			},
			{
				"x": 0.8210292089,
				"y": -0.0893732942,
				"z": 1.0108168019,
				"element": "C" 
			},
			{
				"x": 0.8079509543,
				"y": 0.5253985091,
				"z": -0.3412428229,
				"element": "C" 
			},
			{
				"x": 1.8475306387,
				"y": 1.3942373021,
				"z": -0.7107948892,
				"element": "C" 
			},
			{
				"x": 1.8858147161,
				"y": 1.9471622022,
				"z": -1.9891562976,
				"element": "C" 
			},
			{
				"x": 0.8986819036,
				"y": 1.6237266864,
				"z": -2.9227077831,
				"element": "C" 
			},
			{
				"x": -0.1283549153,
				"y": 0.7451752512,
				"z": -2.5698825803,
				"element": "C" 
			},
			{
				"x": -0.1789808061,
				"y": 0.2031618098,
				"z": -1.2872479975,
				"element": "C" 
			},
			{
				"x": 3.416676449,
				"y": -1.4060238346,
				"z": 3.2090657067,
				"element": "C" 
			},
			{
				"x": 4.5712733283,
				"y": -1.1493359635,
				"z": 2.4542602158,
				"element": "C" 
			},
			{
				"x": 5.8129800185,
				"y": -1.4249904723,
				"z": 3.0204619621,
				"element": "C" 
			},
			{
				"x": 5.8622838017,
				"y": -1.9437727456,
				"z": 4.3133237509,
				"element": "C" 
			},
			{
				"x": 4.6548251442,
				"y": -2.1606512727,
				"z": 4.9831288177,
				"element": "C" 
			},
			{
				"x": 3.4568896769,
				"y": -1.901621827,
				"z": 4.4565084261,
				"element": "N" 
			},
			{
				"x": -5.3386218426,
				"y": 1.4395353109,
				"z": 1.1646425008,
				"element": "H" 
			},
			{
				"x": -3.4010328401,
				"y": 2.934713296,
				"z": 0.7217429385,
				"element": "H" 
			},
			{
				"x": -1.0967560785,
				"y": 2.0885245687,
				"z": 0.974400199,
				"element": "H" 
			},
			{
				"x": -2.622306639,
				"y": -1.7443039781,
				"z": 2.1736383269,
				"element": "H" 
			},
			{
				"x": -4.9446259454,
				"y": -0.9061359377,
				"z": 1.892590332,
				"element": "H" 
			},
			{
				"x": 2.6182817413,
				"y": 1.6276283818,
				"z": 0.0158418662,
				"element": "H" 
			},
			{
				"x": 2.6882902197,
				"y": 2.6279006028,
				"z": -2.2581588118,
				"element": "H" 
			},
			{
				"x": 0.9311789755,
				"y": 2.050703483,
				"z": -3.9209180431,
				"element": "H" 
			},
			{
				"x": -0.8909427234,
				"y": 0.4785310791,
				"z": -3.2956386101,
				"element": "H" 
			},
			{
				"x": -0.9773151243,
				"y": -0.4818604582,
				"z": -1.0232388225,
				"element": "H" 
			},
			{
				"x": 4.4762969205,
				"y": -0.7488955971,
				"z": 1.4523144958,
				"element": "H" 
			},
			{
				"x": 6.7251652369,
				"y": -1.240700499,
				"z": 2.4602080192,
				"element": "H" 
			},
			{
				"x": 6.8071665381,
				"y": -2.1744101019,
				"z": 4.7953515542,
				"element": "H" 
			},
			{
				"x": 4.6533841965,
				"y": -2.5594175249,
				"z": 5.996379294,
				"element": "H" 
			}
		],
		 "valence_orbital": [ 
			{
				"type": "occ",
				"energy": -0.25803,
				"method": "rhf"
			},
			{
				"type": "occ",
				"energy": -0.25584,
				"method": "rhf"
			},
			{
				"type": "occ",
				"energy": -0.25218,
				"method": "rhf"
			},
			{
				"type": "occ",
				"energy": -0.22998,
				"method": "rhf"
			},
			{
				"type": "occ",
				"energy": -0.22149,
				"method": "rhf"
			},
			{
				"type": "unocc",
				"energy": -0.07102,
				"method": "rhf"
			},
			{
				"type": "unocc",
				"energy": -0.06873,
				"method": "rhf"
			},
			{
				"type": "unocc",
				"energy": -0.02357,
				"method": "rhf"
			},
			{
				"type": "unocc",
				"energy": -0.01574,
				"method": "rhf"
			},
			{
				"type": "unocc",
				"energy": -0.01371,
				"method": "rhf"
			}
		],
		"cosmo_sigma_profile": { 
			"-0.025": 0.0,
			"-0.024": 0.0,
			"-0.023": 0.0,
			"-0.022": 0.0,
			"-0.021": 0.0,
			"-0.02": 0.0,
			"-0.019": 0.0,
			"-0.018": 0.0,
			"-0.017": 0.0,
			"-0.016": 0.0,
			"-0.015": 0.0,
			"-0.014": 0.0,
			"-0.013": 0.0,
			"-0.012": 0.0,
			"-0.011": 0.0,
			"-0.01": 0.0,
			"-0.009": 0.0,
			"-0.008": 0.787534994999,
			"-0.007": 7.19848235258,
			"-0.006": 24.3585239437,
			"-0.005": 33.9514669821,
			"-0.004": 32.5337741895,
			"-0.003": 24.8197126433,
			"-0.002": 25.3194300995,
			"-0.001": 22.1354745615,
			"0.0": 26.184763814,
			"0.001": 27.53066974,
			"0.002": 30.4619273719,
			"0.003": 24.0846081202,
			"0.004": 26.8369508378,
			"0.005": 12.6801111451,
			"0.006": 4.41436236444,
			"0.007": 3.44922809406,
			"0.008": 2.29471520911,
			"0.009": 2.1665017438,
			"0.01": 1.97589490959,
			"0.011": 2.88973593981,
			"0.012": 3.10828411279,
			"0.013": 2.47877849993,
			"0.014": 1.74587207238,
			"0.015": 0.96576717843,
			"0.016": 1.35416846828,
			"0.017": 0.807851537909,
			"0.018": 0.999989628172,
			"0.019": 0.953939940687,
			"0.02": 0.146302050384,
			"0.021": 0.0,
			"0.022": 0.0,
			"0.023": 0.0,
			"0.024": 0.0,
			"0.025": 0.0
		}
	}
}
