{
	 "smiles": "CC1=C(C)C(C)=C(C(=O)C2=CC=CC=C2)C(C)=C1C", 
	 "Tm": 410.65, 
	 "num_atms": 39, 
	 "gaussian": { 
		 "optdone": 1, 
		 "sigma_profile": "yes", 
		 "theory": "DFT", 
		 "functional": "B3LYP", 
		 "basiset": "6-31G**", 
		 "properties": { 
			 "R2extent": 5747.4952, 
			 "electric_dipole_moment_norm": 3.03603662857, 
			 "electric_quadrupole_moment_norm": 12.1755935469, 
			 "total_energy": -773.215907778, 
			 "HOMO_LUMO_gap": 0.1669, 
			 "cosmo_polarized_energy": -9.21, 
			 "cosmo_cavitation_energy": 39.85, 
			 "cosmo_dispersion_energy": -27.38, 
			 "cosmo_repulsion_energy": 2.11, 
			 "cosmo_total_nonelectrostatic_energy": 14.58, 
			 "SMD_solvation_energy": 7.09 
		},
		"coords": [
			{
				"x": 2.5744136616,
				"y": -3.1733925245,
				"z": 1.5996084838,
				"element": "C" 
			},
			{
				"x": 1.7586796453,
				"y": -1.9054307921,
				"z": 1.4425330356,
				"element": "C" 
			},
			{
				"x": 0.6282308793,
				"y": -1.6964446423,
				"z": 2.2574311813,
				"element": "C" 
			},
			{
				"x": 0.2677796291,
				"y": -2.7202617889,
				"z": 3.315917052,
				"element": "C" 
			},
			{
				"x": -0.1549537539,
				"y": -0.5386664183,
				"z": 2.087076221,
				"element": "C" 
			},
			{
				"x": -1.3841329653,
				"y": -0.3034115833,
				"z": 2.944769309,
				"element": "C" 
			},
			{
				"x": 0.2193156563,
				"y": 0.3995816828,
				"z": 1.1094478116,
				"element": "C" 
			},
			{
				"x": -0.5986819727,
				"y": 1.6665812152,
				"z": 0.9504252685,
				"element": "C" 
			},
			{
				"x": -0.3307830196,
				"y": 2.6651256272,
				"z": 1.6045753302,
				"element": "O" 
			},
			{
				"x": -1.7401677536,
				"y": 1.671640777,
				"z": -0.0227031631,
				"element": "C" 
			},
			{
				"x": -2.4929014648,
				"y": 2.8490420307,
				"z": -0.1643873805,
				"element": "C" 
			},
			{
				"x": -3.5599913246,
				"y": 2.897737048,
				"z": -1.0554196774,
				"element": "C" 
			},
			{
				"x": -3.8875309804,
				"y": 1.7696548283,
				"z": -1.8157772691,
				"element": "C" 
			},
			{
				"x": -3.1446645442,
				"y": 0.5951110054,
				"z": -1.681440544,
				"element": "C" 
			},
			{
				"x": -2.0740998654,
				"y": 0.5446291254,
				"z": -0.7882573197,
				"element": "C" 
			},
			{
				"x": 1.3651690412,
				"y": 0.2204558394,
				"z": 0.3150170222,
				"element": "C" 
			},
			{
				"x": 1.7545725374,
				"y": 1.2639260406,
				"z": -0.7151991933,
				"element": "C" 
			},
			{
				"x": 2.1435349447,
				"y": -0.9397395183,
				"z": 0.4912313219,
				"element": "C" 
			},
			{
				"x": 3.3978157664,
				"y": -1.1571454705,
				"z": -0.3322119588,
				"element": "C" 
			},
			{
				"x": 3.3742100913,
				"y": -3.0528731383,
				"z": 2.3436659184,
				"element": "H" 
			},
			{
				"x": 3.0521064697,
				"y": -3.4679163741,
				"z": 0.663009227,
				"element": "H" 
			},
			{
				"x": 1.9591896237,
				"y": -4.0141717866,
				"z": 1.926538144,
				"element": "H" 
			},
			{
				"x": -0.1621885307,
				"y": -3.6293017579,
				"z": 2.8742410503,
				"element": "H" 
			},
			{
				"x": 1.1473294949,
				"y": -3.0314236788,
				"z": 3.8880920749,
				"element": "H" 
			},
			{
				"x": -0.4608496979,
				"y": -2.3352638369,
				"z": 4.0292287172,
				"element": "H" 
			},
			{
				"x": -1.1164480366,
				"y": -0.1741202073,
				"z": 4.0000275481,
				"element": "H" 
			},
			{
				"x": -1.9286845467,
				"y": 0.5931639302,
				"z": 2.6463657804,
				"element": "H" 
			},
			{
				"x": -2.0837351738,
				"y": -1.1445118313,
				"z": 2.8894898957,
				"element": "H" 
			},
			{
				"x": -2.2170406859,
				"y": 3.7087632716,
				"z": 0.4374750123,
				"element": "H" 
			},
			{
				"x": -4.1388728106,
				"y": 3.8108085725,
				"z": -1.1611279993,
				"element": "H" 
			},
			{
				"x": -4.7210264619,
				"y": 1.8077330097,
				"z": -2.511704102,
				"element": "H" 
			},
			{
				"x": -3.3990929664,
				"y": -0.2803748252,
				"z": -2.2718249422,
				"element": "H" 
			},
			{
				"x": -1.494163554,
				"y": -0.3663208592,
				"z": -0.6809473331,
				"element": "H" 
			},
			{
				"x": 1.0170254168,
				"y": 2.0638426089,
				"z": -0.7898669762,
				"element": "H" 
			},
			{
				"x": 2.7103396838,
				"y": 1.7378963286,
				"z": -0.4626094592,
				"element": "H" 
			},
			{
				"x": 1.8646320145,
				"y": 0.8263102159,
				"z": -1.7133642782,
				"element": "H" 
			},
			{
				"x": 3.7183952332,
				"y": -0.2482264146,
				"z": -0.8411677059,
				"element": "H" 
			},
			{
				"x": 3.2509972319,
				"y": -1.9245639605,
				"z": -1.1041010326,
				"element": "H" 
			},
			{
				"x": 4.2332730875,
				"y": -1.4904417487,
				"z": 0.2912449291,
				"element": "H" 
			}
		],
		 "valence_orbital": [ 
			{
				"type": "occ",
				"energy": -0.25807,
				"method": "rhf"
			},
			{
				"type": "occ",
				"energy": -0.25517,
				"method": "rhf"
			},
			{
				"type": "occ",
				"energy": -0.24382,
				"method": "rhf"
			},
			{
				"type": "occ",
				"energy": -0.22335,
				"method": "rhf"
			},
			{
				"type": "occ",
				"energy": -0.22072,
				"method": "rhf"
			},
			{
				"type": "unocc",
				"energy": -0.05382,
				"method": "rhf"
			},
			{
				"type": "unocc",
				"energy": -0.00772,
				"method": "rhf"
			},
			{
				"type": "unocc",
				"energy": 0.00538,
				"method": "rhf"
			},
			{
				"type": "unocc",
				"energy": 0.00765,
				"method": "rhf"
			},
			{
				"type": "unocc",
				"energy": 0.04373,
				"method": "rhf"
			}
		],
		"cosmo_sigma_profile": { 
			"-0.025": 0.0,
			"-0.024": 0.0,
			"-0.023": 0.0,
			"-0.022": 0.0,
			"-0.021": 0.0,
			"-0.02": 0.0,
			"-0.019": 0.0,
			"-0.018": 0.0,
			"-0.017": 0.0,
			"-0.016": 0.0,
			"-0.015": 0.0,
			"-0.014": 0.0,
			"-0.013": 0.0,
			"-0.012": 0.0,
			"-0.011": 0.0,
			"-0.01": 0.0,
			"-0.009": 0.0,
			"-0.008": 0.0,
			"-0.007": 0.917430750839,
			"-0.006": 7.13096892885,
			"-0.005": 10.5030402689,
			"-0.004": 26.9374387377,
			"-0.003": 38.2886605241,
			"-0.002": 37.9958440654,
			"-0.001": 37.7257747591,
			"0.0": 42.511021983,
			"0.001": 30.5129311982,
			"0.002": 16.5229252884,
			"0.003": 16.7159966657,
			"0.004": 16.9258378888,
			"0.005": 8.30643006831,
			"0.006": 6.01611975764,
			"0.007": 3.51402016352,
			"0.008": 1.84507021186,
			"0.009": 1.96171024403,
			"0.01": 1.89152954348,
			"0.011": 3.41708353045,
			"0.012": 3.64180481628,
			"0.013": 1.36141426645,
			"0.014": 0.186465260945,
			"0.015": 0.0,
			"0.016": 0.0,
			"0.017": 0.0,
			"0.018": 0.0,
			"0.019": 0.0,
			"0.02": 0.0,
			"0.021": 0.0,
			"0.022": 0.0,
			"0.023": 0.0,
			"0.024": 0.0,
			"0.025": 0.0
		}
	}
}
