{
	 "smiles": "OC(=O)C1=C(Br)N=CC(=C1)[N+]([O-])=O", 
	 "Tm": 409.15, 
	 "num_atms": 16, 
	 "gaussian": { 
		 "optdone": 1, 
		 "sigma_profile": "yes", 
		 "theory": "DFT", 
		 "functional": "B3LYP", 
		 "basiset": "6-31G**", 
		 "properties": { 
			 "R2extent": 4036.0049, 
			 "electric_dipole_moment_norm": 3.77729655309, 
			 "electric_quadrupole_moment_norm": 9.17065106031, 
			 "total_energy": -3212.13622872, 
			 "HOMO_LUMO_gap": 0.175, 
			 "cosmo_polarized_energy": -13.94, 
			 "cosmo_cavitation_energy": 24.5, 
			 "cosmo_dispersion_energy": -18.68, 
			 "cosmo_repulsion_energy": 1.46, 
			 "cosmo_total_nonelectrostatic_energy": 7.27, 
			 "SMD_solvation_energy": 5.47 
		},
		"coords": [
			{
				"x": 2.2723234182,
				"y": 0.6744718442,
				"z": -0.8097936919,
				"element": "O" 
			},
			{
				"x": 0.9616075921,
				"y": 0.429170182,
				"z": -0.8887101483,
				"element": "C" 
			},
			{
				"x": 0.3309206185,
				"y": 0.7507314789,
				"z": -1.8694465667,
				"element": "O" 
			},
			{
				"x": 0.2464178313,
				"y": -0.2639287142,
				"z": 0.2675048955,
				"element": "C" 
			},
			{
				"x": 0.7314629521,
				"y": -0.7355467577,
				"z": 1.5048611159,
				"element": "C" 
			},
			{
				"x": 2.5844538533,
				"y": -0.5770237158,
				"z": 2.02263436,
				"element": "Br" 
			},
			{
				"x": 0.0017187439,
				"y": -1.3261801662,
				"z": 2.4350846223,
				"element": "N" 
			},
			{
				"x": -1.3012159756,
				"y": -1.5045756408,
				"z": 2.2144566355,
				"element": "C" 
			},
			{
				"x": -1.8902421208,
				"y": -1.0785092815,
				"z": 1.0265058096,
				"element": "C" 
			},
			{
				"x": -1.1244287712,
				"y": -0.4595251338,
				"z": 0.0522430079,
				"element": "C" 
			},
			{
				"x": -3.330182711,
				"y": -1.2882341266,
				"z": 0.809744578,
				"element": "N" 
			},
			{
				"x": -3.8036483604,
				"y": -0.8961312324,
				"z": -0.2520974218,
				"element": "O" 
			},
			{
				"x": -3.9535263317,
				"y": -1.8428434771,
				"z": 1.7123623824,
				"element": "O" 
			},
			{
				"x": 2.656681233,
				"y": 0.3648620134,
				"z": 0.0314677153,
				"element": "H" 
			},
			{
				"x": -1.8861684512,
				"y": -1.9907036972,
				"z": 2.9875186437,
				"element": "H" 
			},
			{
				"x": -1.5628735205,
				"y": -0.1205335753,
				"z": -0.8786359373,
				"element": "H" 
			}
		],
		 "valence_orbital": [ 
			{
				"type": "occ",
				"energy": -0.33089,
				"method": "rhf"
			},
			{
				"type": "occ",
				"energy": -0.3201,
				"method": "rhf"
			},
			{
				"type": "occ",
				"energy": -0.31885,
				"method": "rhf"
			},
			{
				"type": "occ",
				"energy": -0.30652,
				"method": "rhf"
			},
			{
				"type": "occ",
				"energy": -0.29704,
				"method": "rhf"
			},
			{
				"type": "unocc",
				"energy": -0.12204,
				"method": "rhf"
			},
			{
				"type": "unocc",
				"energy": -0.09676,
				"method": "rhf"
			},
			{
				"type": "unocc",
				"energy": -0.05298,
				"method": "rhf"
			},
			{
				"type": "unocc",
				"energy": -0.04421,
				"method": "rhf"
			},
			{
				"type": "unocc",
				"energy": 0.022,
				"method": "rhf"
			}
		],
		"cosmo_sigma_profile": { 
			"-0.025": 0.0,
			"-0.024": 0.0,
			"-0.023": 0.0,
			"-0.022": 0.0,
			"-0.021": 0.0,
			"-0.02": 0.0,
			"-0.019": 0.0,
			"-0.018": 0.0,
			"-0.017": 0.0,
			"-0.016": 0.0,
			"-0.015": 0.0,
			"-0.014": 0.0,
			"-0.013": 0.0,
			"-0.012": 0.380306228762,
			"-0.011": 1.47672694828,
			"-0.01": 3.27439316857,
			"-0.009": 4.8291979203,
			"-0.008": 6.05145139448,
			"-0.007": 7.73894338326,
			"-0.006": 15.1155490508,
			"-0.005": 19.5342405329,
			"-0.004": 16.590961351,
			"-0.003": 9.56521320346,
			"-0.002": 8.7760138563,
			"-0.001": 9.65118160718,
			"0.0": 9.80347886792,
			"0.001": 10.7678241422,
			"0.002": 8.77853618949,
			"0.003": 6.90502031534,
			"0.004": 6.94069835838,
			"0.005": 6.98931835448,
			"0.006": 11.0948144204,
			"0.007": 10.5299068377,
			"0.008": 7.96062974319,
			"0.009": 7.64210539118,
			"0.01": 5.81759966486,
			"0.011": 4.07831260361,
			"0.012": 1.56066764832,
			"0.013": 0.0379939287225,
			"0.014": 0.0,
			"0.015": 0.0,
			"0.016": 0.0,
			"0.017": 0.0,
			"0.018": 0.0,
			"0.019": 0.0,
			"0.02": 0.0,
			"0.021": 0.0,
			"0.022": 0.0,
			"0.023": 0.0,
			"0.024": 0.0,
			"0.025": 0.0
		}
	}
}
