{
	 "smiles": "CC(=O)NC1=CC=C(C=C1Br)C(F)(F)F", 
	 "Tm": 418.15, 
	 "num_atms": 22, 
	 "gaussian": { 
		 "optdone": 1, 
		 "sigma_profile": "yes", 
		 "theory": "DFT", 
		 "functional": "B3LYP", 
		 "basiset": "6-31G**", 
		 "properties": { 
			 "R2extent": 5318.0226, 
			 "electric_dipole_moment_norm": 1.67648248425, 
			 "electric_quadrupole_moment_norm": 18.0420084159, 
			 "total_energy": -3348.09931126, 
			 "HOMO_LUMO_gap": 0.19709, 
			 "cosmo_polarized_energy": -10.53, 
			 "cosmo_cavitation_energy": 30.2, 
			 "cosmo_dispersion_energy": -21.7, 
			 "cosmo_repulsion_energy": 1.64, 
			 "cosmo_total_nonelectrostatic_energy": 10.15, 
			 "SMD_solvation_energy": 6.08 
		},
		"coords": [
			{
				"x": 0.2288911228,
				"y": 3.7338319747,
				"z": -0.4600254349,
				"element": "C" 
			},
			{
				"x": -1.102527601,
				"y": 3.3215266094,
				"z": -1.0545709778,
				"element": "C" 
			},
			{
				"x": -1.7995458912,
				"y": 4.1012323417,
				"z": -1.6816001354,
				"element": "O" 
			},
			{
				"x": -1.5421472504,
				"y": 2.005056683,
				"z": -0.9114731879,
				"element": "N" 
			},
			{
				"x": -0.9917778528,
				"y": 0.8874233063,
				"z": -0.2810204604,
				"element": "C" 
			},
			{
				"x": -0.2510952461,
				"y": 0.9713359063,
				"z": 0.9121257271,
				"element": "C" 
			},
			{
				"x": 0.2765474175,
				"y": -0.1628542933,
				"z": 1.5170646718,
				"element": "C" 
			},
			{
				"x": 0.0525011835,
				"y": -1.4250209756,
				"z": 0.9646948681,
				"element": "C" 
			},
			{
				"x": -0.7102098497,
				"y": -1.5418918144,
				"z": -0.1976751731,
				"element": "C" 
			},
			{
				"x": -1.217934675,
				"y": -0.4025739501,
				"z": -0.8089563784,
				"element": "C" 
			},
			{
				"x": -2.2497848559,
				"y": -0.6158422759,
				"z": -2.4041874631,
				"element": "Br" 
			},
			{
				"x": 0.5671991458,
				"y": -2.6573445731,
				"z": 1.655657263,
				"element": "C" 
			},
			{
				"x": 0.7447817263,
				"y": -3.6804857751,
				"z": 0.792115495,
				"element": "F" 
			},
			{
				"x": -0.2887522696,
				"y": -3.0904479757,
				"z": 2.6098492793,
				"element": "F" 
			},
			{
				"x": 1.7494976646,
				"y": -2.4252707973,
				"z": 2.2676572457,
				"element": "F" 
			},
			{
				"x": 0.9806283589,
				"y": 2.9425486675,
				"z": -0.502856525,
				"element": "H" 
			},
			{
				"x": 0.1045502749,
				"y": 4.035167245,
				"z": 0.5856718829,
				"element": "H" 
			},
			{
				"x": 0.5709363975,
				"y": 4.6052875103,
				"z": -1.0189243283,
				"element": "H" 
			},
			{
				"x": -2.3471256068,
				"y": 1.826271839,
				"z": -1.5025014974,
				"element": "H" 
			},
			{
				"x": -0.1091904719,
				"y": 1.9354134484,
				"z": 1.3820243007,
				"element": "H" 
			},
			{
				"x": 0.8536063372,
				"y": -0.0659449941,
				"z": 2.4300885006,
				"element": "H" 
			},
			{
				"x": -0.8948480586,
				"y": -2.5149181072,
				"z": -0.6357576726,
				"element": "H" 
			}
		],
		 "valence_orbital": [ 
			{
				"type": "occ",
				"energy": -0.32592,
				"method": "rhf"
			},
			{
				"type": "occ",
				"energy": -0.31056,
				"method": "rhf"
			},
			{
				"type": "occ",
				"energy": -0.27306,
				"method": "rhf"
			},
			{
				"type": "occ",
				"energy": -0.26858,
				"method": "rhf"
			},
			{
				"type": "occ",
				"energy": -0.2452,
				"method": "rhf"
			},
			{
				"type": "unocc",
				"energy": -0.04811,
				"method": "rhf"
			},
			{
				"type": "unocc",
				"energy": -0.03883,
				"method": "rhf"
			},
			{
				"type": "unocc",
				"energy": -0.01458,
				"method": "rhf"
			},
			{
				"type": "unocc",
				"energy": 0.01425,
				"method": "rhf"
			},
			{
				"type": "unocc",
				"energy": 0.08135,
				"method": "rhf"
			}
		],
		"cosmo_sigma_profile": { 
			"-0.025": 0.0,
			"-0.024": 0.0,
			"-0.023": 0.0,
			"-0.022": 0.0,
			"-0.021": 0.0,
			"-0.02": 0.0,
			"-0.019": 0.0,
			"-0.018": 0.0,
			"-0.017": 0.0,
			"-0.016": 0.0,
			"-0.015": 0.0,
			"-0.014": 0.0,
			"-0.013": 0.0,
			"-0.012": 0.0634513258426,
			"-0.011": 0.563202409358,
			"-0.01": 0.563530217083,
			"-0.009": 3.44066143287,
			"-0.008": 5.86449173953,
			"-0.007": 7.81367905909,
			"-0.006": 9.01653316757,
			"-0.005": 12.9295473472,
			"-0.004": 15.1072356107,
			"-0.003": 14.4848675015,
			"-0.002": 17.7678781336,
			"-0.001": 19.0846229558,
			"0.0": 21.1856754109,
			"0.001": 29.0081923264,
			"0.002": 28.9457174927,
			"0.003": 33.7416253901,
			"0.004": 6.65273571955,
			"0.005": 0.683397236579,
			"0.006": 1.35122683641,
			"0.007": 1.69856688606,
			"0.008": 0.185804195578,
			"0.009": 1.4615391362,
			"0.01": 1.97185572634,
			"0.011": 2.34289351071,
			"0.012": 3.41843755598,
			"0.013": 5.02776988271,
			"0.014": 0.967504019684,
			"0.015": 0.0,
			"0.016": 0.0,
			"0.017": 0.0,
			"0.018": 0.0,
			"0.019": 0.0,
			"0.02": 0.0,
			"0.021": 0.0,
			"0.022": 0.0,
			"0.023": 0.0,
			"0.024": 0.0,
			"0.025": 0.0
		}
	}
}
