{
	 "smiles": "CC1=CSC(=O)N1CCBr", 
	 "Tm": 322.15, 
	 "num_atms": 18, 
	 "gaussian": { 
		 "optdone": 1, 
		 "sigma_profile": "yes", 
		 "theory": "DFT", 
		 "functional": "B3LYP", 
		 "basiset": "6-31G**", 
		 "properties": { 
			 "R2extent": 2959.217, 
			 "electric_dipole_moment_norm": 5.65997159357, 
			 "electric_quadrupole_moment_norm": 7.79691912168, 
			 "total_energy": -3333.03568278, 
			 "HOMO_LUMO_gap": 0.20773, 
			 "cosmo_polarized_energy": -14.68, 
			 "cosmo_cavitation_energy": 25.01, 
			 "cosmo_dispersion_energy": -18.88, 
			 "cosmo_repulsion_energy": 1.48, 
			 "cosmo_total_nonelectrostatic_energy": 7.61, 
			 "SMD_solvation_energy": 3.83 
		},
		"coords": [
			{
				"x": 1.231201603,
				"y": -2.5790855026,
				"z": 1.3861935009,
				"element": "C" 
			},
			{
				"x": 1.7292413549,
				"y": -1.1722206557,
				"z": 1.2580920675,
				"element": "C" 
			},
			{
				"x": 2.9408523925,
				"y": -0.7275591256,
				"z": 1.6482536339,
				"element": "C" 
			},
			{
				"x": 3.1450981432,
				"y": 0.9964929456,
				"z": 1.3918037314,
				"element": "S" 
			},
			{
				"x": 1.4715346161,
				"y": 1.1240146459,
				"z": 0.7297694486,
				"element": "C" 
			},
			{
				"x": 0.9245344498,
				"y": 2.1449996632,
				"z": 0.3697678158,
				"element": "O" 
			},
			{
				"x": 0.9158945141,
				"y": -0.1560785292,
				"z": 0.7278184094,
				"element": "N" 
			},
			{
				"x": -0.4450751642,
				"y": -0.319516329,
				"z": 0.2320739883,
				"element": "C" 
			},
			{
				"x": -0.5723194667,
				"y": -1.0022275318,
				"z": -1.128160079,
				"element": "C" 
			},
			{
				"x": 0.3232660897,
				"y": -0.0175204991,
				"z": -2.5806660412,
				"element": "Br" 
			},
			{
				"x": 1.0333320957,
				"y": -3.045839229,
				"z": 0.414741076,
				"element": "H" 
			},
			{
				"x": 1.9849982995,
				"y": -3.1833386899,
				"z": 1.8950991482,
				"element": "H" 
			},
			{
				"x": 0.3078356908,
				"y": -2.6336616857,
				"z": 1.9748776144,
				"element": "H" 
			},
			{
				"x": 3.7274616919,
				"y": -1.3243369531,
				"z": 2.0856590327,
				"element": "H" 
			},
			{
				"x": -1.0294588408,
				"y": -0.9039240672,
				"z": 0.9543620683,
				"element": "H" 
			},
			{
				"x": -0.8689726314,
				"y": 0.6854308032,
				"z": 0.18571606,
				"element": "H" 
			},
			{
				"x": -0.1374335559,
				"y": -2.0002188121,
				"z": -1.1425372614,
				"element": "H" 
			},
			{
				"x": -1.6240912822,
				"y": -1.066110448,
				"z": -1.4094642137,
				"element": "H" 
			}
		],
		 "valence_orbital": [ 
			{
				"type": "occ",
				"energy": -0.2895,
				"method": "rhf"
			},
			{
				"type": "occ",
				"energy": -0.27636,
				"method": "rhf"
			},
			{
				"type": "occ",
				"energy": -0.27622,
				"method": "rhf"
			},
			{
				"type": "occ",
				"energy": -0.26631,
				"method": "rhf"
			},
			{
				"type": "occ",
				"energy": -0.21093,
				"method": "rhf"
			},
			{
				"type": "unocc",
				"energy": -0.0032,
				"method": "rhf"
			},
			{
				"type": "unocc",
				"energy": 0.00654,
				"method": "rhf"
			},
			{
				"type": "unocc",
				"energy": 0.01765,
				"method": "rhf"
			},
			{
				"type": "unocc",
				"energy": 0.03228,
				"method": "rhf"
			},
			{
				"type": "unocc",
				"energy": 0.06265,
				"method": "rhf"
			}
		],
		"cosmo_sigma_profile": { 
			"-0.025": 0.0,
			"-0.024": 0.0,
			"-0.023": 0.0,
			"-0.022": 0.0,
			"-0.021": 0.0,
			"-0.02": 0.0,
			"-0.019": 0.0,
			"-0.018": 0.0,
			"-0.017": 0.0,
			"-0.016": 0.0,
			"-0.015": 0.0,
			"-0.014": 0.0,
			"-0.013": 0.0,
			"-0.012": 0.0,
			"-0.011": 0.0,
			"-0.01": 0.0008674309797,
			"-0.009": 1.80367836805,
			"-0.008": 10.9751177139,
			"-0.007": 13.9713038305,
			"-0.006": 13.2830593105,
			"-0.005": 13.1248396779,
			"-0.004": 9.85396644148,
			"-0.003": 10.805025672,
			"-0.002": 12.8291082111,
			"-0.001": 12.7623586806,
			"0.0": 9.53265578713,
			"0.001": 11.7144028182,
			"0.002": 14.7214175115,
			"0.003": 13.4194530231,
			"0.004": 14.3552350802,
			"0.005": 10.842812048,
			"0.006": 11.0620075888,
			"0.007": 2.9039871134,
			"0.008": 2.11161284909,
			"0.009": 2.08606474792,
			"0.01": 2.04747966466,
			"0.011": 2.24268302884,
			"0.012": 5.22147353661,
			"0.013": 2.43276400866,
			"0.014": 0.0457598267152,
			"0.015": 0.0,
			"0.016": 0.0,
			"0.017": 0.0,
			"0.018": 0.0,
			"0.019": 0.0,
			"0.02": 0.0,
			"0.021": 0.0,
			"0.022": 0.0,
			"0.023": 0.0,
			"0.024": 0.0,
			"0.025": 0.0
		}
	}
}
