{
	 "smiles": "CC(O)CNC1=NC2=C(N1)C=CC=C2", 
	 "Tm": 460.15, 
	 "num_atms": 27, 
	 "gaussian": { 
		 "optdone": 1, 
		 "sigma_profile": "yes", 
		 "theory": "DFT", 
		 "functional": "B3LYP", 
		 "basiset": "6-31G**", 
		 "properties": { 
			 "R2extent": 3812.5458, 
			 "electric_dipole_moment_norm": 3.31755915396, 
			 "electric_quadrupole_moment_norm": 17.5839131049, 
			 "total_energy": -628.389500744, 
			 "HOMO_LUMO_gap": 0.20057, 
			 "cosmo_polarized_energy": -19.31, 
			 "cosmo_cavitation_energy": 30.03, 
			 "cosmo_dispersion_energy": -22.01, 
			 "cosmo_repulsion_energy": 1.75, 
			 "cosmo_total_nonelectrostatic_energy": 9.77, 
			 "SMD_solvation_energy": 3.1 
		},
		"coords": [
			{
				"x": -3.7956288619,
				"y": 0.0691090366,
				"z": 0.1100942652,
				"element": "C" 
			},
			{
				"x": -3.8738301547,
				"y": 1.5553440624,
				"z": -0.2383810717,
				"element": "C" 
			},
			{
				"x": -4.4478230742,
				"y": 1.7595977531,
				"z": -1.5280889149,
				"element": "O" 
			},
			{
				"x": -2.5181613161,
				"y": 2.2761349191,
				"z": -0.1510318033,
				"element": "C" 
			},
			{
				"x": -1.5999679829,
				"y": 1.8328749866,
				"z": -1.2137616109,
				"element": "N" 
			},
			{
				"x": -0.5090556358,
				"y": 1.056622663,
				"z": -0.8796696834,
				"element": "C" 
			},
			{
				"x": -0.3128578551,
				"y": 0.4666692094,
				"z": 0.2747421112,
				"element": "N" 
			},
			{
				"x": 0.8769924088,
				"y": -0.2388167908,
				"z": 0.1153087156,
				"element": "C" 
			},
			{
				"x": 1.3998864454,
				"y": -0.0480589367,
				"z": -1.186575187,
				"element": "C" 
			},
			{
				"x": 0.4874233193,
				"y": 0.8046733548,
				"z": -1.8060570725,
				"element": "N" 
			},
			{
				"x": 2.584248913,
				"y": -0.6363834302,
				"z": -1.6176398254,
				"element": "C" 
			},
			{
				"x": 3.2566911012,
				"y": -1.4456848417,
				"z": -0.6975348521,
				"element": "C" 
			},
			{
				"x": 2.7558466508,
				"y": -1.645581151,
				"z": 0.5995555679,
				"element": "C" 
			},
			{
				"x": 1.5672475723,
				"y": -1.0479702229,
				"z": 1.021428051,
				"element": "C" 
			},
			{
				"x": -4.7871780403,
				"y": -0.3839492635,
				"z": 0.0228221375,
				"element": "H" 
			},
			{
				"x": -3.1144395197,
				"y": -0.4547626192,
				"z": -0.5689097952,
				"element": "H" 
			},
			{
				"x": -3.421313434,
				"y": -0.0826197448,
				"z": 1.1269112299,
				"element": "H" 
			},
			{
				"x": -4.5549965658,
				"y": 2.055368124,
				"z": 0.461435258,
				"element": "H" 
			},
			{
				"x": -3.838026193,
				"y": 1.3387225897,
				"z": -2.151748717,
				"element": "H" 
			},
			{
				"x": -2.0464147873,
				"y": 2.1067625566,
				"z": 0.8209327558,
				"element": "H" 
			},
			{
				"x": -2.6876034064,
				"y": 3.3498232837,
				"z": -0.2784014715,
				"element": "H" 
			},
			{
				"x": -1.4066914255,
				"y": 2.5328036614,
				"z": -1.9164573669,
				"element": "H" 
			},
			{
				"x": 0.4762979972,
				"y": 1.0617400776,
				"z": -2.7803914076,
				"element": "H" 
			},
			{
				"x": 2.9733748749,
				"y": -0.4796284701,
				"z": -2.6195551454,
				"element": "H" 
			},
			{
				"x": 4.1840646757,
				"y": -1.9270700082,
				"z": -0.9931770075,
				"element": "H" 
			},
			{
				"x": 3.3071573744,
				"y": -2.2796895945,
				"z": 1.2877661131,
				"element": "H" 
			},
			{
				"x": 1.17835692,
				"y": -1.2010312044,
				"z": 2.0229847269,
				"element": "H" 
			}
		],
		 "valence_orbital": [ 
			{
				"type": "occ",
				"energy": -0.28368,
				"method": "rhf"
			},
			{
				"type": "occ",
				"energy": -0.26963,
				"method": "rhf"
			},
			{
				"type": "occ",
				"energy": -0.25937,
				"method": "rhf"
			},
			{
				"type": "occ",
				"energy": -0.22144,
				"method": "rhf"
			},
			{
				"type": "occ",
				"energy": -0.19952,
				"method": "rhf"
			},
			{
				"type": "unocc",
				"energy": 0.00105,
				"method": "rhf"
			},
			{
				"type": "unocc",
				"energy": 0.02741,
				"method": "rhf"
			},
			{
				"type": "unocc",
				"energy": 0.05195,
				"method": "rhf"
			},
			{
				"type": "unocc",
				"energy": 0.068,
				"method": "rhf"
			},
			{
				"type": "unocc",
				"energy": 0.0858,
				"method": "rhf"
			}
		],
		"cosmo_sigma_profile": { 
			"-0.025": 0.0,
			"-0.024": 0.0,
			"-0.023": 0.0,
			"-0.022": 0.0,
			"-0.021": 0.0,
			"-0.02": 0.0,
			"-0.019": 0.0,
			"-0.018": 0.0,
			"-0.017": 0.390609514933,
			"-0.016": 2.47745432128,
			"-0.015": 2.46967877906,
			"-0.014": 2.81073881447,
			"-0.013": 2.1042508779,
			"-0.012": 3.20931401427,
			"-0.011": 1.87501260519,
			"-0.01": 3.30228929497,
			"-0.009": 2.18289667947,
			"-0.008": 2.96637769179,
			"-0.007": 3.43311781377,
			"-0.006": 5.00057141602,
			"-0.005": 10.565907393,
			"-0.004": 15.8598242397,
			"-0.003": 20.8047610152,
			"-0.002": 19.9815976759,
			"-0.001": 16.0513949658,
			"0.0": 14.896432946,
			"0.001": 15.3882310454,
			"0.002": 12.9084564648,
			"0.003": 10.3459881723,
			"0.004": 11.0751612834,
			"0.005": 11.4807786276,
			"0.006": 12.6090541823,
			"0.007": 10.0821560033,
			"0.008": 4.0730436139,
			"0.009": 2.5470526386,
			"0.01": 2.83629260312,
			"0.011": 2.8958991647,
			"0.012": 2.49736618678,
			"0.013": 2.05408564134,
			"0.014": 3.01956580296,
			"0.015": 2.32419998047,
			"0.016": 0.247490941277,
			"0.017": 0.0,
			"0.018": 0.0,
			"0.019": 0.0,
			"0.02": 0.0,
			"0.021": 0.0,
			"0.022": 0.0,
			"0.023": 0.0,
			"0.024": 0.0,
			"0.025": 0.0
		}
	}
}
