{
	 "smiles": "CC(NC(=O)COC(=O)C1=CC=CC=C1)C(N)=O", 
	 "Tm": 475.15, 
	 "num_atms": 32, 
	 "gaussian": { 
		 "optdone": 1, 
		 "sigma_profile": "yes", 
		 "theory": "DFT", 
		 "functional": "B3LYP", 
		 "basiset": "6-31G**", 
		 "properties": { 
			 "R2extent": 7009.9341, 
			 "electric_dipole_moment_norm": 5.31909221014, 
			 "electric_quadrupole_moment_norm": 24.6219240619, 
			 "total_energy": -876.166344435, 
			 "HOMO_LUMO_gap": 0.20312, 
			 "cosmo_polarized_energy": -20.89, 
			 "cosmo_cavitation_energy": 37.54, 
			 "cosmo_dispersion_energy": -25.85, 
			 "cosmo_repulsion_energy": 2.01, 
			 "cosmo_total_nonelectrostatic_energy": 13.71, 
			 "SMD_solvation_energy": 8.2 
		},
		"coords": [
			{
				"x": -0.408010248,
				"y": -4.0206822084,
				"z": 0.2541917481,
				"element": "C" 
			},
			{
				"x": -1.1345801122,
				"y": -2.6619793115,
				"z": 0.2925650991,
				"element": "C" 
			},
			{
				"x": -0.5266497734,
				"y": -1.7466427723,
				"z": 1.2340489874,
				"element": "N" 
			},
			{
				"x": -0.7762694011,
				"y": -1.8034078898,
				"z": 2.5628717932,
				"element": "C" 
			},
			{
				"x": -1.4435401215,
				"y": -2.679502555,
				"z": 3.1051398448,
				"element": "O" 
			},
			{
				"x": -0.1436502384,
				"y": -0.6983733062,
				"z": 3.4033232145,
				"element": "C" 
			},
			{
				"x": 0.375242262,
				"y": 0.3357739889,
				"z": 2.5523645282,
				"element": "O" 
			},
			{
				"x": 1.2169642548,
				"y": 1.232271412,
				"z": 3.1328869793,
				"element": "C" 
			},
			{
				"x": 1.5190160642,
				"y": 1.1810599215,
				"z": 4.3078918403,
				"element": "O" 
			},
			{
				"x": 1.7062958223,
				"y": 2.2576744102,
				"z": 2.1707152457,
				"element": "C" 
			},
			{
				"x": 2.5865533668,
				"y": 3.2333190445,
				"z": 2.6604911353,
				"element": "C" 
			},
			{
				"x": 3.0812050842,
				"y": 4.2181110094,
				"z": 1.8098558609,
				"element": "C" 
			},
			{
				"x": 2.699558059,
				"y": 4.2343413108,
				"z": 0.4653901635,
				"element": "C" 
			},
			{
				"x": 1.8225391366,
				"y": 3.2643530521,
				"z": -0.0258711362,
				"element": "C" 
			},
			{
				"x": 1.3232845378,
				"y": 2.2759823951,
				"z": 0.8211747371,
				"element": "C" 
			},
			{
				"x": -1.1136522664,
				"y": -1.9609390056,
				"z": -1.0764931288,
				"element": "C" 
			},
			{
				"x": -1.8383465464,
				"y": -2.5687492415,
				"z": -2.0528642,
				"element": "N" 
			},
			{
				"x": -0.4697573439,
				"y": -0.9357397625,
				"z": -1.2723809011,
				"element": "O" 
			},
			{
				"x": -0.4272606778,
				"y": -4.4550083022,
				"z": 1.2557792009,
				"element": "H" 
			},
			{
				"x": 0.6319184028,
				"y": -3.8906879371,
				"z": -0.0591627161,
				"element": "H" 
			},
			{
				"x": -0.8941785077,
				"y": -4.7182595387,
				"z": -0.4354116589,
				"element": "H" 
			},
			{
				"x": -2.1753693248,
				"y": -2.8348535656,
				"z": 0.5970069509,
				"element": "H" 
			},
			{
				"x": -0.0437917231,
				"y": -0.9515823738,
				"z": 0.83294456,
				"element": "H" 
			},
			{
				"x": 0.6559083868,
				"y": -1.115373972,
				"z": 4.0224005158,
				"element": "H" 
			},
			{
				"x": -0.9050869515,
				"y": -0.2926673045,
				"z": 4.0754101424,
				"element": "H" 
			},
			{
				"x": 2.867788176,
				"y": 3.198614,
				"z": 3.7075481294,
				"element": "H" 
			},
			{
				"x": 3.7627945745,
				"y": 4.9720736982,
				"z": 2.192337022,
				"element": "H" 
			},
			{
				"x": 3.0856084715,
				"y": 5.002356446,
				"z": -0.1989779113,
				"element": "H" 
			},
			{
				"x": 1.5264581286,
				"y": 3.2759274614,
				"z": -1.070491383,
				"element": "H" 
			},
			{
				"x": 0.641831092,
				"y": 1.52621151,
				"z": 0.4353373787,
				"element": "H" 
			},
			{
				"x": -2.4016531149,
				"y": -3.3853917707,
				"z": -1.8808349465,
				"element": "H" 
			},
			{
				"x": -1.8473694685,
				"y": -2.1514288426,
				"z": -2.9710870955,
				"element": "H" 
			}
		],
		 "valence_orbital": [ 
			{
				"type": "occ",
				"energy": -0.27346,
				"method": "rhf"
			},
			{
				"type": "occ",
				"energy": -0.26,
				"method": "rhf"
			},
			{
				"type": "occ",
				"energy": -0.25797,
				"method": "rhf"
			},
			{
				"type": "occ",
				"energy": -0.25359,
				"method": "rhf"
			},
			{
				"type": "occ",
				"energy": -0.25014,
				"method": "rhf"
			},
			{
				"type": "unocc",
				"energy": -0.04702,
				"method": "rhf"
			},
			{
				"type": "unocc",
				"energy": -0.00741,
				"method": "rhf"
			},
			{
				"type": "unocc",
				"energy": 0.00839,
				"method": "rhf"
			},
			{
				"type": "unocc",
				"energy": 0.02816,
				"method": "rhf"
			},
			{
				"type": "unocc",
				"energy": 0.05574,
				"method": "rhf"
			}
		],
		"cosmo_sigma_profile": { 
			"-0.025": 0.0,
			"-0.024": 0.0,
			"-0.023": 0.0,
			"-0.022": 0.0,
			"-0.021": 0.0,
			"-0.02": 0.0,
			"-0.019": 0.0,
			"-0.018": 0.0,
			"-0.017": 0.0,
			"-0.016": 0.0,
			"-0.015": 0.892592190188,
			"-0.014": 2.45355110634,
			"-0.013": 2.73547418987,
			"-0.012": 3.10938499796,
			"-0.011": 2.69221111811,
			"-0.01": 2.01805513926,
			"-0.009": 2.82592784724,
			"-0.008": 3.87813881843,
			"-0.007": 8.93372602682,
			"-0.006": 14.4504218756,
			"-0.005": 16.8690262443,
			"-0.004": 21.7201684303,
			"-0.003": 21.194765775,
			"-0.002": 22.8871159885,
			"-0.001": 24.2440998418,
			"0.0": 23.5350455266,
			"0.001": 20.0244320097,
			"0.002": 19.0562941067,
			"0.003": 17.566370111,
			"0.004": 16.0850369974,
			"0.005": 4.36160837475,
			"0.006": 4.74094964005,
			"0.007": 3.87428877149,
			"0.008": 4.63597557007,
			"0.009": 3.45337005207,
			"0.01": 4.45777568875,
			"0.011": 7.6906217931,
			"0.012": 6.23961290138,
			"0.013": 5.65868272487,
			"0.014": 5.10919713979,
			"0.015": 0.446535663593,
			"0.016": 0.0,
			"0.017": 0.0,
			"0.018": 0.0,
			"0.019": 0.0,
			"0.02": 0.0,
			"0.021": 0.0,
			"0.022": 0.0,
			"0.023": 0.0,
			"0.024": 0.0,
			"0.025": 0.0
		}
	}
}
