{
	 "smiles": "CCCO[C@H]1CCC2C3CCC4=C[C@@H](O)CC[C@]4(C)C3CC[C@]12C", 
	 "Tm": 398.15, 
	 "num_atms": 60, 
	 "gaussian": { 
		 "optdone": 1, 
		 "sigma_profile": "yes", 
		 "theory": "DFT", 
		 "functional": "B3LYP", 
		 "basiset": "6-31G**", 
		 "properties": { 
			 "R2extent": 9812.1878, 
			 "electric_dipole_moment_norm": 1.66589017945, 
			 "electric_quadrupole_moment_norm": 16.6817027197, 
			 "total_energy": -1010.47570773, 
			 "HOMO_LUMO_gap": 0.24466, 
			 "cosmo_polarized_energy": -8.92, 
			 "cosmo_cavitation_energy": 50.64, 
			 "cosmo_dispersion_energy": -34.8, 
			 "cosmo_repulsion_energy": 2.6, 
			 "cosmo_total_nonelectrostatic_energy": 18.44, 
			 "SMD_solvation_energy": 7.01 
		},
		"coords": [
			{
				"x": -0.7085878556,
				"y": -1.4709671519,
				"z": 6.4014012217,
				"element": "C" 
			},
			{
				"x": 0.7590765549,
				"y": -1.4952832907,
				"z": 5.9649500435,
				"element": "C" 
			},
			{
				"x": 1.1296286475,
				"y": -0.371471686,
				"z": 5.0024045835,
				"element": "C" 
			},
			{
				"x": 0.3884404112,
				"y": -0.5279310787,
				"z": 3.8042315303,
				"element": "O" 
			},
			{
				"x": 0.602701996,
				"y": 0.4959190071,
				"z": 2.8319403099,
				"element": "C" 
			},
			{
				"x": 1.8941635627,
				"y": 0.2346037193,
				"z": 2.0288219681,
				"element": "C" 
			},
			{
				"x": 1.4840497901,
				"y": -0.7201590945,
				"z": 0.8772980446,
				"element": "C" 
			},
			{
				"x": -0.073542044,
				"y": -0.770158067,
				"z": 0.8794280265,
				"element": "C" 
			},
			{
				"x": -0.7968933528,
				"y": -0.8417766226,
				"z": -0.486369749,
				"element": "C" 
			},
			{
				"x": -0.3013689743,
				"y": -2.0389243228,
				"z": -1.3548796688,
				"element": "C" 
			},
			{
				"x": -0.0043369786,
				"y": -1.6513882587,
				"z": -2.8194555802,
				"element": "C" 
			},
			{
				"x": 0.885494964,
				"y": -0.4349032198,
				"z": -2.8259972214,
				"element": "C" 
			},
			{
				"x": 2.1868090784,
				"y": -0.5140339218,
				"z": -3.1434846251,
				"element": "C" 
			},
			{
				"x": 3.1838224744,
				"y": 0.6115866031,
				"z": -3.0334173392,
				"element": "C" 
			},
			{
				"x": 4.0746229025,
				"y": 0.6433193988,
				"z": -4.1536988554,
				"element": "O" 
			},
			{
				"x": 2.4926763935,
				"y": 1.9618759725,
				"z": -2.8104779764,
				"element": "C" 
			},
			{
				"x": 1.3132461256,
				"y": 1.8349158855,
				"z": -1.8343098526,
				"element": "C" 
			},
			{
				"x": 0.2226343803,
				"y": 0.8548005525,
				"z": -2.3399697625,
				"element": "C" 
			},
			{
				"x": -0.5079961956,
				"y": 1.512853773,
				"z": -3.5461382866,
				"element": "C" 
			},
			{
				"x": -0.913326179,
				"y": 0.4935196633,
				"z": -1.293160996,
				"element": "C" 
			},
			{
				"x": -1.3424692799,
				"y": 1.6422403015,
				"z": -0.3491928225,
				"element": "C" 
			},
			{
				"x": -0.5475242037,
				"y": 1.7382313844,
				"z": 0.9631477542,
				"element": "C" 
			},
			{
				"x": -0.5323916109,
				"y": 0.4193364117,
				"z": 1.7781643502,
				"element": "C" 
			},
			{
				"x": -1.9048393324,
				"y": 0.1825583142,
				"z": 2.4273242495,
				"element": "C" 
			},
			{
				"x": -0.9511106537,
				"y": -0.5340273603,
				"z": 6.9164104731,
				"element": "H" 
			},
			{
				"x": -0.9307322376,
				"y": -2.2952354187,
				"z": 7.0867853449,
				"element": "H" 
			},
			{
				"x": -1.3720049314,
				"y": -1.5576893912,
				"z": 5.5371377597,
				"element": "H" 
			},
			{
				"x": 1.4146875146,
				"y": -1.4169810473,
				"z": 6.8418243408,
				"element": "H" 
			},
			{
				"x": 0.991676148,
				"y": -2.4528803602,
				"z": 5.4832352797,
				"element": "H" 
			},
			{
				"x": 2.212987214,
				"y": -0.3955166781,
				"z": 4.8021275592,
				"element": "H" 
			},
			{
				"x": 0.9071290085,
				"y": 0.6105667845,
				"z": 5.4564920298,
				"element": "H" 
			},
			{
				"x": 0.6143171305,
				"y": 1.4749360359,
				"z": 3.3390614924,
				"element": "H" 
			},
			{
				"x": 2.2935989383,
				"y": 1.1771290162,
				"z": 1.6390628568,
				"element": "H" 
			},
			{
				"x": 2.6753103548,
				"y": -0.1885354898,
				"z": 2.6666620446,
				"element": "H" 
			},
			{
				"x": 1.8944506309,
				"y": -1.7209990856,
				"z": 1.0395195481,
				"element": "H" 
			},
			{
				"x": 1.8846968557,
				"y": -0.3841486925,
				"z": -0.0817825985,
				"element": "H" 
			},
			{
				"x": -0.3548869805,
				"y": -1.6847948602,
				"z": 1.4169591158,
				"element": "H" 
			},
			{
				"x": -1.8419818362,
				"y": -1.0567215915,
				"z": -0.2249038655,
				"element": "H" 
			},
			{
				"x": -1.035560518,
				"y": -2.8527324149,
				"z": -1.3304033595,
				"element": "H" 
			},
			{
				"x": 0.6218536868,
				"y": -2.4466200458,
				"z": -0.9306590487,
				"element": "H" 
			},
			{
				"x": 0.4769126902,
				"y": -2.4878100806,
				"z": -3.3371851691,
				"element": "H" 
			},
			{
				"x": -0.9445957101,
				"y": -1.4476794767,
				"z": -3.3494908664,
				"element": "H" 
			},
			{
				"x": 2.6026711793,
				"y": -1.4669169807,
				"z": -3.4717061947,
				"element": "H" 
			},
			{
				"x": 3.8491547679,
				"y": 0.4038481544,
				"z": -2.1827279035,
				"element": "H" 
			},
			{
				"x": 3.5245429079,
				"y": 0.708657887,
				"z": -4.9466803841,
				"element": "H" 
			},
			{
				"x": 3.2212071968,
				"y": 2.6923413618,
				"z": -2.4423340687,
				"element": "H" 
			},
			{
				"x": 2.148438882,
				"y": 2.3371782094,
				"z": -3.7821054248,
				"element": "H" 
			},
			{
				"x": 0.8755781636,
				"y": 2.8235014547,
				"z": -1.6547592285,
				"element": "H" 
			},
			{
				"x": 1.705787351,
				"y": 1.4889932598,
				"z": -0.8736752661,
				"element": "H" 
			},
			{
				"x": -1.0967315739,
				"y": 2.3765074683,
				"z": -3.2160158578,
				"element": "H" 
			},
			{
				"x": -1.1949675554,
				"y": 0.8074306124,
				"z": -4.0245034001,
				"element": "H" 
			},
			{
				"x": 0.1920247469,
				"y": 1.8555730401,
				"z": -4.3117103253,
				"element": "H" 
			},
			{
				"x": -1.7852459622,
				"y": 0.3164154607,
				"z": -1.9346304614,
				"element": "H" 
			},
			{
				"x": -1.2992620218,
				"y": 2.6041112515,
				"z": -0.8737225072,
				"element": "H" 
			},
			{
				"x": -2.4016014762,
				"y": 1.4934365205,
				"z": -0.1048928422,
				"element": "H" 
			},
			{
				"x": -0.9788203163,
				"y": 2.5337764478,
				"z": 1.5851012004,
				"element": "H" 
			},
			{
				"x": 0.4761150146,
				"y": 2.0531231224,
				"z": 0.7440418027,
				"element": "H" 
			},
			{
				"x": -1.9085658165,
				"y": -0.7445184701,
				"z": 3.0030179814,
				"element": "H" 
			},
			{
				"x": -2.7008455545,
				"y": 0.122865113,
				"z": 1.6786170531,
				"element": "H" 
			},
			{
				"x": -2.1581185126,
				"y": 1.0018519711,
				"z": 3.1103735435,
				"element": "H" 
			}
		],
		 "valence_orbital": [ 
			{
				"type": "occ",
				"energy": -0.27743,
				"method": "rhf"
			},
			{
				"type": "occ",
				"energy": -0.2731,
				"method": "rhf"
			},
			{
				"type": "occ",
				"energy": -0.25951,
				"method": "rhf"
			},
			{
				"type": "occ",
				"energy": -0.24294,
				"method": "rhf"
			},
			{
				"type": "occ",
				"energy": -0.22868,
				"method": "rhf"
			},
			{
				"type": "unocc",
				"energy": 0.01598,
				"method": "rhf"
			},
			{
				"type": "unocc",
				"energy": 0.06267,
				"method": "rhf"
			},
			{
				"type": "unocc",
				"energy": 0.07918,
				"method": "rhf"
			},
			{
				"type": "unocc",
				"energy": 0.08603,
				"method": "rhf"
			},
			{
				"type": "unocc",
				"energy": 0.0961,
				"method": "rhf"
			}
		],
		"cosmo_sigma_profile": { 
			"-0.025": 0.0,
			"-0.024": 0.0,
			"-0.023": 0.0,
			"-0.022": 0.0,
			"-0.021": 0.0,
			"-0.02": 0.0,
			"-0.019": 0.0,
			"-0.018": 0.0,
			"-0.017": 0.0,
			"-0.016": 0.0,
			"-0.015": 0.12186600601,
			"-0.014": 0.648274856132,
			"-0.013": 0.676588774598,
			"-0.012": 1.00507416338,
			"-0.011": 0.854035610699,
			"-0.01": 0.668007473797,
			"-0.009": 0.845535985342,
			"-0.008": 0.464928765683,
			"-0.007": 0.787419761347,
			"-0.006": 1.54526452397,
			"-0.005": 2.09613749333,
			"-0.004": 6.07092887036,
			"-0.003": 36.3694428615,
			"-0.002": 66.2480149942,
			"-0.001": 74.3373251889,
			"0.0": 67.2528056157,
			"0.001": 53.6983347591,
			"0.002": 27.9971097075,
			"0.003": 9.75836732901,
			"0.004": 6.96593133664,
			"0.005": 4.88770680596,
			"0.006": 4.19540879867,
			"0.007": 3.33147207614,
			"0.008": 3.67243313756,
			"0.009": 1.98431457541,
			"0.01": 2.0055654077,
			"0.011": 1.93026904724,
			"0.012": 0.779972524254,
			"0.013": 2.19098634151,
			"0.014": 2.0582243452,
			"0.015": 1.84169887282,
			"0.016": 0.0100150264106,
			"0.017": 0.0,
			"0.018": 0.0,
			"0.019": 0.0,
			"0.02": 0.0,
			"0.021": 0.0,
			"0.022": 0.0,
			"0.023": 0.0,
			"0.024": 0.0,
			"0.025": 0.0
		}
	}
}
